Generated by CHARMM-GUI FF-Converter
68233
    1GLY      N    1   7.576   5.314   4.080
    1GLY    HT1    2   7.670   5.353   4.105
    1GLY    HT2    3   7.516   5.393   4.048
    1GLY    HT3    4   7.591   5.257   3.992
    1GLY     CA    5   7.510   5.239   4.186
    1GLY    HA1    6   7.494   5.307   4.268
    1GLY    HA2    7   7.576   5.158   4.209
    1GLY      C    8   7.373   5.186   4.145
    1GLY      O    9   7.319   5.225   4.042
    2PRO      N   10   7.306   5.091   4.218
    2PRO     CD   11   7.380   5.015   4.302
    2PRO    HD1   12   7.405   5.073   4.393
    2PRO    HD2   13   7.473   4.975   4.255
    2PRO     CA   14   7.171   5.042   4.188
    2PRO     HA   15   7.168   5.011   4.085
    2PRO     CB   16   7.154   4.926   4.287
    2PRO    HB1   17   7.105   4.839   4.242
    2PRO    HB2   18   7.090   4.957   4.374
    2PRO     CG   19   7.292   4.899   4.339
    2PRO    HG1   20   7.292   4.879   4.448
    2PRO    HG2   21   7.330   4.807   4.288
    2PRO      C   22   7.064   5.148   4.210
    2PRO      O   23   7.086   5.246   4.282
    3GLY      N   24   6.949   5.130   4.124
    3GLY     HN   25   6.935   5.046   4.073
    3GLY     CA   26   6.836   5.219   4.142
    3GLY    HA1   27   6.758   5.188   4.074
    3GLY    HA2   28   6.869   5.321   4.128
    3GLY      C   29   6.772   5.208   4.279
    3GLY      O   30   6.799   5.113   4.353
    4ASP      N   31   6.696   5.304   4.309
    4ASP     HN   32   6.675   5.379   4.248
    4ASP     CA   33   6.616   5.301   4.432
    4ASP     HA   34   6.686   5.284   4.513
    4ASP     CB   35   6.547   5.436   4.454
    4ASP    HB1   36   6.473   5.431   4.537
    4ASP    HB2   37   6.493   5.466   4.361
    4ASP     CG   38   6.643   5.547   4.490
    4ASP    OD1   39   6.756   5.518   4.535
    4ASP    OD2   40   6.606   5.666   4.475
    4ASP      C   41   6.513   5.189   4.429
    4ASP      O   42   6.461   5.156   4.322
    5PRO      N   43   6.469   5.127   4.542
    5PRO     CD   44   6.532   5.151   4.665
    5PRO    HD1   45   6.503   5.254   4.696
    5PRO    HD2   46   6.643   5.142   4.658
    5PRO     CA   47   6.360   5.029   4.544
    5PRO     HA   48   6.389   4.946   4.482
    5PRO     CB   49   6.347   4.995   4.693
    5PRO    HB1   50   6.332   4.886   4.709
    5PRO    HB2   51   6.261   5.048   4.740
    5PRO     CG   52   6.474   5.046   4.755
    5PRO    HG1   53   6.458   5.083   4.859
    5PRO    HG2   54   6.546   4.961   4.761
    5PRO      C   55   6.229   5.086   4.490
    5PRO      O   56   6.207   5.207   4.494
    6GLY      N   57   6.155   4.998   4.435
    6GLY     HN   58   6.184   4.903   4.428
    6GLY     CA   59   6.023   5.036   4.387
    6GLY    HA1   60   5.977   4.948   4.344
    6GLY    HA2   61   6.036   5.116   4.316
    6GLY      C   62   5.932   5.086   4.498
    6GLY      O   63   5.963   5.071   4.616
    7SER      N   64   5.828   5.128   4.450
    7SER     HN   65   5.810   5.137   4.353
    7SER     CA   66   5.724   5.169   4.544
    7SER     HA   67   5.767   5.229   4.623
    7SER     CB   68   5.618   5.254   4.473
    7SER    HB1   69   5.535   5.282   4.543
    7SER    HB2   70   5.572   5.195   4.390
    7SER     OG   71   5.676   5.371   4.418
    7SER    HG1   72   5.671   5.438   4.488
    7SER      C   73   5.658   5.048   4.610
    7SER      O   74   5.660   4.938   4.554
    8GLY      N   75   5.613   5.070   4.736
    8GLY     HN   76   5.616   5.160   4.779
    8GLY     CA   77   5.540   4.963   4.803
    8GLY    HA1   78   5.525   4.997   4.904
    8GLY    HA2   79   5.601   4.874   4.795
    8GLY      C   80   5.404   4.936   4.743
    8GLY      O   81   5.359   5.009   4.654
    9PRO      N   82   5.346   4.847   4.784
    9PRO     CD   83   5.392   4.765   4.901
    9PRO    HD1   84   5.416   4.827   4.990
    9PRO    HD2   85   5.478   4.703   4.869
    9PRO     CA   86   5.210   4.814   4.741
    9PRO     HA   87   5.206   4.808   4.633
    9PRO     CB   88   5.184   4.678   4.808
    9PRO    HB1   89   5.215   4.598   4.739
    9PRO    HB2   90   5.077   4.663   4.836
    9PRO     CG   91   5.272   4.678   4.929
    9PRO    HG1   92   5.215   4.724   5.013
    9PRO    HG2   93   5.300   4.575   4.960
    9PRO      C   94   5.107   4.917   4.785
    9PRO      O   95   5.131   4.992   4.880
   10GLY      N   96   5.000   4.915   4.717
   10GLY     HN   97   4.986   4.850   4.643
   10GLY     CA   98   4.892   5.005   4.752
   10GLY    HA1   99   4.819   4.996   4.673
   10GLY    HA2  100   4.929   5.106   4.764
   10GLY      C  101   4.821   4.966   4.880
   10GLY      O  102   4.841   4.856   4.932
   11ASP      N  103   4.746   5.057   4.931
   11ASP     HN  104   4.735   5.147   4.889
   11ASP     CA  105   4.662   5.033   5.048
   11ASP     HA  106   4.727   4.997   5.126
   11ASP     CB  107   4.595   5.163   5.094
   11ASP    HB1  108   4.517   5.144   5.172
   11ASP    HB2  109   4.545   5.212   5.008
   11ASP     CG  110   4.693   5.261   5.155
   11ASP    OD1  111   4.801   5.219   5.202
   11ASP    OD2  112   4.661   5.383   5.156
   11ASP      C  113   4.556   4.927   5.018
   11ASP      O  114   4.508   4.916   4.905
   12PRO      N  115   4.505   4.851   5.128
   12PRO     CD  116   4.560   4.850   5.254
   12PRO    HD1  117   4.535   4.945   5.306
   12PRO    HD2  118   4.670   4.837   5.249
   12PRO     CA  119   4.394   4.758   5.105
   12PRO     HA  120   4.424   4.689   5.027
   12PRO     CB  121   4.376   4.691   5.242
   12PRO    HB1  122   4.366   4.581   5.233
   12PRO    HB2  123   4.286   4.729   5.295
   12PRO     CG  124   4.497   4.731   5.320
   12PRO    HG1  125   4.473   4.749   5.427
   12PRO    HG2  126   4.570   4.646   5.317
   12PRO      C  127   4.266   4.828   5.061
   12PRO      O  128   4.247   4.946   5.091
   13GLY      N  129   4.187   4.753   4.984
   13GLY     HN  130   4.209   4.658   4.965
   13GLY     CA  131   4.058   4.806   4.943
   13GLY    HA1  132   4.010   4.729   4.885
   13GLY    HA2  133   4.075   4.897   4.887
   13GLY      C  134   3.967   4.838   5.059
   13GLY      O  135   3.992   4.796   5.173
   14SER      N  136   3.860   4.893   5.024
   14SER     HN  137   3.842   4.925   4.932
   14SER     CA  138   3.757   4.918   5.125
   14SER     HA  139   3.804   4.954   5.215
   14SER     CB  140   3.656   5.021   5.074
   14SER    HB1  141   3.578   5.040   5.151
   14SER    HB2  142   3.606   4.983   4.982
   14SER     OG  143   3.721   5.143   5.042
   14SER    HG1  144   3.760   5.175   5.125
   14SER      C  145   3.685   4.789   5.162
   14SER      O  146   3.680   4.695   5.083
   15GLY      N  147   3.647   4.771   5.294
   15GLY     HN  148   3.667   4.841   5.363
   15GLY     CA  149   3.570   4.656   5.337
   15GLY    HA1  150   3.554   4.666   5.443
   15GLY    HA2  151   3.629   4.569   5.310
   15GLY      C  152   3.434   4.647   5.271
   15GLY      O  153   3.392   4.740   5.202
   16PRO      N  154   3.363   4.555   5.275
   16PRO     CD  155   3.408   4.443   5.362
   16PRO    HD1  156   3.435   4.475   5.465
   16PRO    HD2  157   3.492   4.388   5.315
   16PRO     CA  158   3.226   4.541   5.228
   16PRO     HA  159   3.221   4.566   5.124
   16PRO     CB  160   3.194   4.394   5.257
   16PRO    HB1  161   3.222   4.335   5.166
   16PRO    HB2  162   3.087   4.374   5.279
   16PRO     CG  163   3.286   4.356   5.369
   16PRO    HG1  164   3.233   4.377   5.465
   16PRO    HG2  165   3.312   4.248   5.366
   16PRO      C  166   3.128   4.632   5.302
   16PRO      O  167   3.156   4.676   5.413
   17GLY      N  168   3.009   4.674   5.238
   17GLY     HN  169   2.986   4.634   5.149
   17GLY     CA  170   2.903   4.753   5.298
   17GLY    HA1  171   2.830   4.774   5.222
   17GLY    HA2  172   2.946   4.842   5.342
   17GLY      C  173   2.831   4.681   5.411
   17GLY      O  174   2.845   4.560   5.425
   18ASP      N  175   2.771   4.738   5.488
   18ASP     HN  176   2.772   4.837   5.489
   18ASP     CA  177   2.688   4.684   5.595
   18ASP     HA  178   2.753   4.619   5.651
   18ASP     CB  179   2.641   4.796   5.689
   18ASP    HB1  180   2.565   4.757   5.760
   18ASP    HB2  181   2.595   4.878   5.630
   18ASP     CG  182   2.753   4.853   5.774
   18ASP    OD1  183   2.857   4.786   5.791
   18ASP    OD2  184   2.737   4.966   5.825
   18ASP      C  185   2.568   4.609   5.539
   18ASP      O  186   2.514   4.646   5.435
   19PRO      N  187   2.545   4.471   5.593
   19PRO     CD  188   2.618   4.420   5.699
   19PRO    HD1  189   2.591   4.476   5.791
   19PRO    HD2  190   2.727   4.425   5.680
   19PRO     CA  191   2.432   4.389   5.548
   19PRO     HA  192   2.442   4.371   5.442
   19PRO     CB  193   2.442   4.264   5.635
   19PRO    HB1  194   2.435   4.172   5.573
   19PRO    HB2  195   2.360   4.261   5.710
   19PRO     CG  196   2.574   4.276   5.705
   19PRO    HG1  197   2.572   4.236   5.808
   19PRO    HG2  198   2.649   4.215   5.648
   19PRO      C  199   2.298   4.459   5.569
   19PRO    OT1  200   2.298   4.574   5.620
   19PRO    OT2  201   2.193   4.397   5.534
   20LIT    LIT  202   5.600   4.794   9.690
   21LIT    LIT  203   3.691   1.143   1.649
   22LIT    LIT  204   8.164   7.368   4.112
   23LIT    LIT  205   6.646   2.861   4.150
   24LIT    LIT  206   2.580   1.969   4.569
   25LIT    LIT  207   0.788   5.549   2.358
   26LIT    LIT  208   6.274   8.800   6.799
   27LIT    LIT  209   1.989   2.525   3.810
   28LIT    LIT  210   5.558   3.884   7.341
   29LIT    LIT  211   9.825   5.988   6.974
   30LIT    LIT  212   5.263   0.311   6.500
   31LIT    LIT  213   8.564   6.637   6.537
   32LIT    LIT  214   8.737   2.200   3.872
   33LIT    LIT  215   1.124   7.667   7.057
   34LIT    LIT  216   6.979   8.222   7.945
   35LIT    LIT  217   9.116   5.269   2.085
   36LIT    LIT  218   5.807   0.730   2.832
   37LIT    LIT  219   4.689   5.021   7.655
   38LIT    LIT  220   3.081   7.030   3.925
   39LIT    LIT  221   4.480   4.404   3.872
   40LIT    LIT  222   7.178   6.361   7.344
   41LIT    LIT  223   2.717   1.643   6.650
   42LIT    LIT  224   4.201   4.270   1.270
   43LIT    LIT  225   0.170   4.248   2.055
   44LIT    LIT  226   2.275   6.882   5.509
   45LIT    LIT  227   2.684   9.387   5.458
   46LIT    LIT  228   6.859   4.981   2.395
   47LIT    LIT  229   8.052   7.100   7.781
   48LIT    LIT  230   1.378   5.087   1.987
   49LIT    LIT  231   2.843   3.371   1.052
   50LIT    LIT  232   2.478   3.258   2.368
   51LIT    LIT  233   1.598   6.531   3.046
   52LIT    LIT  234   5.568   8.444   5.041
   53LIT    LIT  235   1.780   4.266   1.602
   54LIT    LIT  236   3.541   2.445   2.523
   55LIT    LIT  237   9.110   3.475   8.054
   56LIT    LIT  238   2.917   2.546   1.536
   57LIT    LIT  239   2.531   5.313   7.627
   58LIT    LIT  240   2.962   9.085   7.910
   59LIT    LIT  241   1.398   3.156   3.559
   60LIT    LIT  242   4.980   9.043   3.348
   61LIT    LIT  243   0.443   2.121   7.424
   62LIT    LIT  244   5.283   4.432   9.717
   63LIT    LIT  245  -0.283   4.345   2.877
   64LIT    LIT  246   3.600   3.504   3.225
   65LIT    LIT  247   3.743   0.052   5.044
   66LIT    LIT  248   9.139   5.580   4.449
   67LIT    LIT  249   8.453   4.035   3.215
   68LIT    LIT  250   0.815   7.258   5.163
   69LIT    LIT  251   7.133   5.089   6.897
   70LIT    LIT  252   7.720   8.557   5.798
   71LIT    LIT  253   9.088   2.558   5.218
   72LIT    LIT  254   5.196   7.104   7.756
   73LIT    LIT  255   6.551   7.865   8.106
   74LIT    LIT  256   6.293   4.407   4.949
   75LIT    LIT  257   5.461   9.751   5.352
   76LIT    LIT  258   7.380   5.496   9.684
   77LIT    LIT  259   7.200   7.359   2.295
   78LIT    LIT  260   3.452   5.977   7.210
   79LIT    LIT  261   0.119   2.248   3.925
   80LIT    LIT  262   6.098   4.097   8.652
   81LIT    LIT  263   2.970   1.740   3.375
   82LIT    LIT  264   1.441   6.387   7.317
   83LIT    LIT  265   3.284   5.117  -0.452
   84LIT    LIT  266   9.076   7.374   5.651
   85LIT    LIT  267   7.917   7.327   5.415
   86LIT    LIT  268   6.744   2.200   1.735
   87LIT    LIT  269   7.235   2.043   6.224
   88CLA    CLA  270   8.739   2.687   6.250
   89CLA    CLA  271   6.664   7.579   8.761
   90CLA    CLA  272   2.908   3.450   2.457
   91CLA    CLA  273   8.854   7.784   2.319
   92CLA    CLA  274   7.176   7.858   7.949
   93CLA    CLA  275   8.437   8.433   5.183
   94CLA    CLA  276   9.936   6.128   4.857
   95CLA    CLA  277   3.846   0.696   5.211
   96CLA    CLA  278   3.004   2.681   0.916
   97CLA    CLA  279   2.234   7.906   7.011
   98CLA    CLA  280   9.324   5.652   2.175
   99CLA    CLA  281   3.831   8.248   6.432
  100CLA    CLA  282   6.357   1.848   3.383
  101CLA    CLA  283   7.277   9.208   4.986
  102CLA    CLA  284   7.072   4.109   2.868
  103CLA    CLA  285   6.192   3.598   6.083
  104CLA    CLA  286   8.222   4.745   1.134
  105CLA    CLA  287   8.395   7.461   4.489
  106CLA    CLA  288   6.605   7.457   7.529
  107CLA    CLA  289   1.459   2.676   3.661
  108CLA    CLA  290   4.103   3.950   7.032
  109CLA    CLA  291   7.568   1.764   1.971
  110CLA    CLA  292   4.945   4.611   3.732
  111CLA    CLA  293   6.716   1.657   0.955
  112CLA    CLA  294   2.398   1.904   4.464
  113CLA    CLA  295   3.246   8.934   4.760
  114CLA    CLA  296   3.140   2.492   9.098
  115CLA    CLA  297   8.048   8.339   4.179
  116CLA    CLA  298   2.560   2.379   3.027
  117CLA    CLA  299   9.156   7.287   4.942
  118CLA    CLA  300   5.466   1.468   4.702
  119CLA    CLA  301   1.837   3.916   7.364
  120CLA    CLA  302   1.631   4.802   2.694
  121CLA    CLA  303   5.443   2.660   7.626
  122CLA    CLA  304   5.440   8.112   5.225
  123CLA    CLA  305   5.436   9.241   6.422
  124CLA    CLA  306   4.509   1.528   9.010
  125CLA    CLA  307   8.592   4.036   1.767
  126CLA    CLA  308   5.056   3.483   1.480
  127CLA    CLA  309   6.185   8.859   6.989
  128CLA    CLA  310   2.602   2.332   7.090
  129CLA    CLA  311   9.306   2.796   7.612
  130CLA    CLA  312   1.141   3.248   3.140
  131CLA    CLA  313   9.901   5.805   6.596
  132CLA    CLA  314   8.035   8.034   2.463
  133CLA    CLA  315   5.219   0.500   7.624
  134CLA    CLA  316   3.695   6.772   3.667
  135CLA    CLA  317   6.776   4.369   0.236
  136CLA    CLA  318   4.855   0.756   2.878
  137CLA    CLA  319   8.763   1.709   3.651
  138CLA    CLA  320   3.837   1.191   2.930
  139CLA    CLA  321   6.699   7.959   3.097
  140CLA    CLA  322  10.006   4.597   6.599
  141CLA    CLA  323   8.289   6.762   5.455
  142CLA    CLA  324   5.697   7.112   2.049
  143CLA    CLA  325   2.917   9.345   7.062
  144CLA    CLA  326   0.643   4.499   1.640
  145CLA    CLA  327   3.847   3.619   3.513
  146CLA    CLA  328   6.140   4.381   7.074
  147CLA    CLA  329   1.252   5.203   1.243
  148CLA    CLA  330   5.248   5.623   7.838
  149CLA    CLA  331   5.169  -0.035   2.155
  150CLA    CLA  332   5.107   8.805   8.586
  151CLA    CLA  333   2.835   9.007   8.068
  152CLA    CLA  334   3.589   2.779   1.796
  153TIP3   OH2  335   4.577   0.065   1.701
  153TIP3    H1  336   4.489   0.043   1.733
  153TIP3    H2  337   4.559   0.142   1.643
  154TIP3   OH2  338   4.748   0.013   2.029
  154TIP3    H1  339   4.749  -0.065   1.969
  154TIP3    H2  340   4.785   0.082   1.972
  155TIP3   OH2  341   4.949  -0.321   1.918
  155TIP3    H1  342   4.872  -0.262   1.924
  155TIP3    H2  343   4.963  -0.324   1.822
  156TIP3   OH2  344   4.660  -0.508   2.163
  156TIP3    H1  345   4.656  -0.432   2.225
  156TIP3    H2  346   4.568  -0.536   2.158
  157TIP3   OH2  347   5.001   0.320   2.037
  157TIP3    H1  348   5.003   0.224   2.054
  157TIP3    H2  349   4.920   0.344   2.088
  158TIP3   OH2  350   4.129   0.105   2.194
  158TIP3    H1  351   4.125   0.202   2.206
  158TIP3    H2  352   4.057   0.077   2.252
  159TIP3   OH2  353   4.884  -0.563   2.330
  159TIP3    H1  354   4.812  -0.541   2.269
  159TIP3    H2  355   4.931  -0.633   2.284
  161TIP3   OH2  359   4.691   0.677   2.145
  161TIP3    H1  360   4.697   0.703   2.052
  161TIP3    H2  361   4.768   0.723   2.184
  162TIP3   OH2  362   4.706  -0.203   1.876
  162TIP3    H1  363   4.742  -0.226   1.788
  162TIP3    H2  364   4.625  -0.258   1.878
  163TIP3   OH2  365   4.270  -0.144   2.200
  163TIP3    H1  366   4.255  -0.172   2.291
  163TIP3    H2  367   4.224  -0.059   2.196
  164TIP3   OH2  368   4.389   0.125   2.082
  164TIP3    H1  369   4.296   0.105   2.103
  164TIP3    H2  370   4.420   0.159   2.168
  165TIP3   OH2  371   4.516   0.372   1.995
  165TIP3    H1  372   4.455   0.297   1.983
  165TIP3    H2  373   4.504   0.425   1.914
  166TIP3   OH2  374   4.551   0.332   1.587
  166TIP3    H1  375   4.517   0.388   1.514
  166TIP3    H2  376   4.647   0.350   1.575
  167TIP3   OH2  377   3.362   0.379   2.509
  167TIP3    H1  378   3.438   0.385   2.571
  167TIP3    H2  379   3.307   0.313   2.557
  168TIP3   OH2  380   3.798   0.331   2.600
  168TIP3    H1  381   3.891   0.326   2.629
  168TIP3    H2  382   3.803   0.283   2.517
  169TIP3   OH2  383   4.438   0.235   2.333
  169TIP3    H1  384   4.432   0.166   2.403
  169TIP3    H2  385   4.517   0.286   2.361
  170TIP3   OH2  386   4.059  -0.144   2.544
  170TIP3    H1  387   4.030  -0.158   2.451
  170TIP3    H2  388   4.134  -0.204   2.551
  171TIP3   OH2  389   4.555  -0.149   2.137
  171TIP3    H1  390   4.615  -0.078   2.102
  171TIP3    H2  391   4.469  -0.105   2.132
  172TIP3   OH2  392   4.406  -0.216   2.533
  172TIP3    H1  393   4.495  -0.215   2.495
  172TIP3    H2  394   4.419  -0.276   2.609
  173TIP3   OH2  395   4.667  -0.532   2.594
  173TIP3    H1  396   4.723  -0.610   2.608
  173TIP3    H2  397   4.731  -0.469   2.559
  174TIP3   OH2  398   4.699  -0.281   2.317
  174TIP3    H1  399   4.639  -0.226   2.261
  174TIP3    H2  400   4.785  -0.246   2.289
  175TIP3   OH2  401   4.803   0.421   1.544
  175TIP3    H1  402   4.829   0.466   1.627
  175TIP3    H2  403   4.854   0.472   1.478
  176TIP3   OH2  404   4.842   0.467   1.816
  176TIP3    H1  405   4.796   0.380   1.819
  176TIP3    H2  406   4.915   0.446   1.876
  177TIP3   OH2  407   4.872   0.123   2.393
  177TIP3    H1  408   4.800   0.137   2.458
  177TIP3    H2  409   4.913   0.211   2.388
  178TIP3   OH2  410   4.904  -0.046   1.690
  178TIP3    H1  411   4.917  -0.114   1.623
  178TIP3    H2  412   4.897   0.035   1.635
  179TIP3   OH2  413   4.725   0.230   1.856
  179TIP3    H1  414   4.660   0.250   1.924
  179TIP3    H2  415   4.681   0.158   1.806
  180TIP3   OH2  416   5.132  -0.417   2.329
  180TIP3    H1  417   5.045  -0.447   2.300
  180TIP3    H2  418   5.182  -0.414   2.246
  181TIP3   OH2  419   4.875  -0.567   2.000
  181TIP3    H1  420   4.804  -0.517   2.044
  181TIP3    H2  421   4.922  -0.493   1.956
  182TIP3   OH2  422   4.107   0.380   2.258
  182TIP3    H1  423   4.149   0.377   2.347
  182TIP3    H2  424   4.177   0.428   2.208
  183TIP3   OH2  425   4.293   0.522   2.112
  183TIP3    H1  426   4.372   0.472   2.085
  183TIP3    H2  427   4.335   0.584   2.176
  184TIP3   OH2  428   4.272   0.344   1.798
  184TIP3    H1  429   4.184   0.328   1.836
  184TIP3    H2  430   4.296   0.430   1.835
  185TIP3   OH2  431   4.486   0.538   1.773
  185TIP3    H1  432   4.469   0.620   1.721
  185TIP3    H2  433   4.514   0.475   1.704
  186TIP3   OH2  434   4.758   0.410   2.143
  186TIP3    H1  435   4.674   0.379   2.105
  186TIP3    H2  436   4.739   0.506   2.150
  187TIP3   OH2  437   5.491   0.120   1.664
  187TIP3    H1  438   5.463   0.212   1.641
  187TIP3    H2  439   5.420   0.098   1.728
  188TIP3   OH2  440   5.706   0.240   1.815
  188TIP3    H1  441   5.645   0.303   1.859
  188TIP3    H2  442   5.641   0.183   1.768
  189TIP3   OH2  443   5.442  -0.162   1.885
  189TIP3    H1  444   5.450  -0.090   1.951
  189TIP3    H2  445   5.363  -0.207   1.917
  190TIP3   OH2  446   5.499   0.409   1.900
  190TIP3    H1  447   5.463   0.408   1.809
  190TIP3    H2  448   5.420   0.388   1.954
  191TIP3   OH2  449   5.132  -0.103   1.830
  191TIP3    H1  450   5.043  -0.079   1.797
  191TIP3    H2  451   5.117  -0.110   1.926
  192TIP3   OH2  452   4.943   0.165   1.511
  192TIP3    H1  453   5.027   0.197   1.550
  192TIP3    H2  454   4.886   0.242   1.529
  193TIP3   OH2  455   5.888   0.384   1.652
  193TIP3    H1  456   5.892   0.469   1.701
  193TIP3    H2  457   5.840   0.326   1.715
  194TIP3   OH2  458   5.279   0.127   1.836
  194TIP3    H1  459   5.329   0.118   1.920
  194TIP3    H2  460   5.226   0.045   1.841
  195TIP3   OH2  461   6.489   0.931   1.641
  195TIP3    H1  462   6.475   0.948   1.545
  195TIP3    H2  463   6.564   0.991   1.660
  196TIP3   OH2  464   5.445   0.051   2.056
  196TIP3    H1  465   5.507   0.076   2.127
  196TIP3    H2  466   5.366   0.020   2.106
  197TIP3   OH2  467   6.190   0.389   1.635
  197TIP3    H1  468   6.107   0.423   1.599
  197TIP3    H2  469   6.206   0.454   1.708
  198TIP3   OH2  470   5.668   0.497   1.512
  198TIP3    H1  471   5.704   0.555   1.442
  198TIP3    H2  472   5.750   0.459   1.548
  199TIP3   OH2  473   6.322   0.680   1.515
  199TIP3    H1  474   6.296   0.597   1.470
  199TIP3    H2  475   6.311   0.742   1.440
  200TIP3   OH2  476   5.142   0.301   1.637
  200TIP3    H1  477   5.191   0.243   1.699
  200TIP3    H2  478   5.155   0.387   1.678
  201TIP3   OH2  479   5.113   0.621   2.041
  201TIP3    H1  480   5.199   0.622   2.088
  201TIP3    H2  481   5.094   0.526   2.042
  202TIP3   OH2  482   5.603   0.586   2.090
  202TIP3    H1  483   5.697   0.564   2.087
  202TIP3    H2  484   5.569   0.531   2.016
  203TIP3   OH2  485   6.231   0.524   1.863
  203TIP3    H1  486   6.232   0.443   1.919
  203TIP3    H2  487   6.317   0.566   1.885
  204TIP3   OH2  488   5.852   0.114   2.016
  204TIP3    H1  489   5.813   0.139   1.929
  204TIP3    H2  490   5.911   0.042   1.991
  205TIP3   OH2  491   6.204   0.037   2.011
  205TIP3    H1  492   6.267   0.080   1.951
  205TIP3    H2  493   6.247   0.038   2.098
  206TIP3   OH2  494   5.658  -0.448   2.236
  206TIP3    H1  495   5.575  -0.492   2.263
  206TIP3    H2  496   5.643  -0.440   2.141
  207TIP3   OH2  497   4.857   0.301   1.260
  207TIP3    H1  498   4.894   0.216   1.287
  207TIP3    H2  499   4.925   0.362   1.294
  208TIP3   OH2  500   6.684   0.369   1.966
  208TIP3    H1  501   6.597   0.379   2.009
  208TIP3    H2  502   6.721   0.459   1.971
  209TIP3   OH2  503   5.280   0.362   2.065
  209TIP3    H1  504   5.194   0.321   2.042
  209TIP3    H2  505   5.288   0.337   2.158
  210TIP3   OH2  506   5.446   0.390   1.623
  210TIP3    H1  507   5.395   0.460   1.577
  210TIP3    H2  508   5.535   0.417   1.590
  211TIP3   OH2  509   5.906   0.637   1.755
  211TIP3    H1  510   5.948   0.642   1.844
  211TIP3    H2  511   5.970   0.688   1.701
  212TIP3   OH2  512   6.080   0.786   1.608
  212TIP3    H1  513   6.158   0.744   1.568
  212TIP3    H2  514   6.126   0.847   1.669
  213TIP3   OH2  515   5.133   0.639   1.637
  213TIP3    H1  516   5.045   0.677   1.613
  213TIP3    H2  517   5.147   0.680   1.723
  214TIP3   OH2  518   5.367   0.621   1.486
  214TIP3    H1  519   5.282   0.638   1.534
  214TIP3    H2  520   5.348   0.661   1.399
  215TIP3   OH2  521   5.766   0.663   1.315
  215TIP3    H1  522   5.703   0.685   1.243
  215TIP3    H2  523   5.788   0.752   1.349
  216TIP3   OH2  524   6.020   0.605   1.234
  216TIP3    H1  525   5.935   0.625   1.278
  216TIP3    H2  526   6.080   0.673   1.272
  217TIP3   OH2  527   6.228   0.795   1.279
  217TIP3    H1  528   6.211   0.888   1.251
  217TIP3    H2  529   6.307   0.778   1.224
  218TIP3   OH2  530   5.050   0.451   1.390
  218TIP3    H1  531   5.087   0.429   1.478
  218TIP3    H2  532   5.119   0.409   1.332
  219TIP3   OH2  533   5.234   0.337   1.232
  219TIP3    H1  534   5.262   0.246   1.225
  219TIP3    H2  535   5.320   0.383   1.237
  220TIP3   OH2  536   5.487   0.444   1.268
  220TIP3    H1  537   5.507   0.354   1.300
  220TIP3    H2  538   5.510   0.495   1.347
  221TIP3   OH2  539   6.565   0.665   1.659
  221TIP3    H1  540   6.494   0.635   1.600
  221TIP3    H2  541   6.550   0.761   1.651
  222TIP3   OH2  542   6.904   0.888   1.563
  222TIP3    H1  543   6.989   0.896   1.611
  222TIP3    H2  544   6.887   0.794   1.574
  223TIP3   OH2  545   2.569   1.504   2.098
  223TIP3    H1  546   2.640   1.474   2.038
  223TIP3    H2  547   2.567   1.601   2.074
  224TIP3   OH2  548   2.848   1.883   2.197
  224TIP3    H1  549   2.844   1.789   2.220
  224TIP3    H2  550   2.764   1.914   2.239
  225TIP3   OH2  551   2.536   2.229   2.292
  225TIP3    H1  552   2.533   2.259   2.199
  225TIP3    H2  553   2.609   2.283   2.327
  226TIP3   OH2  554   2.842   1.592   2.258
  226TIP3    H1  555   2.747   1.603   2.242
  226TIP3    H2  556   2.878   1.572   2.168
  227TIP3   OH2  557   2.366   1.927   2.159
  227TIP3    H1  558   2.276   1.891   2.152
  227TIP3    H2  559   2.365   2.000   2.093
  228TIP3   OH2  560   1.643   1.843   2.745
  228TIP3    H1  561   1.734   1.858   2.773
  228TIP3    H2  562   1.642   1.890   2.660
  229TIP3   OH2  563   2.308   1.776   2.464
  229TIP3    H1  564   2.282   1.727   2.545
  229TIP3    H2  565   2.367   1.844   2.501
  230TIP3   OH2  566   2.307   1.366   2.787
  230TIP3    H1  567   2.362   1.371   2.708
  230TIP3    H2  568   2.223   1.329   2.757
  231TIP3   OH2  569   2.518   1.070   2.771
  231TIP3    H1  570   2.541   0.976   2.764
  231TIP3    H2  571   2.603   1.114   2.753
  232TIP3   OH2  572   2.526   1.320   2.469
  232TIP3    H1  573   2.478   1.344   2.389
  232TIP3    H2  574   2.618   1.337   2.442
  233TIP3   OH2  575   2.692   1.941   1.695
  233TIP3    H1  576   2.646   2.004   1.753
  233TIP3    H2  577   2.702   1.994   1.615
  234TIP3   OH2  578   2.665   2.013   1.983
  234TIP3    H1  579   2.643   1.922   1.957
  234TIP3    H2  580   2.752   2.000   2.021
  235TIP3   OH2  581   2.711   1.684   2.533
  235TIP3    H1  582   2.641   1.694   2.600
  235TIP3    H2  583   2.754   1.772   2.537
  236TIP3   OH2  584   2.529   1.755   2.014
  236TIP3    H1  585   2.479   1.822   2.065
  236TIP3    H2  586   2.487   1.763   1.927
  237TIP3   OH2  587   2.775   1.353   2.370
  237TIP3    H1  588   2.849   1.289   2.385
  237TIP3    H2  589   2.821   1.432   2.333
  238TIP3   OH2  590   2.927   1.141   2.433
  238TIP3    H1  591   2.883   1.059   2.407
  238TIP3    H2  592   3.019   1.110   2.426
  239TIP3   OH2  593   3.176   0.569   2.668
  239TIP3    H1  594   3.233   0.490   2.660
  239TIP3    H2  595   3.212   0.626   2.599
  240TIP3   OH2  596   1.966   1.947   2.406
  240TIP3    H1  597   2.012   1.951   2.493
  240TIP3    H2  598   2.027   1.995   2.348
  241TIP3   OH2  599   2.147   2.092   2.253
  241TIP3    H1  600   2.223   2.033   2.257
  241TIP3    H2  601   2.177   2.159   2.318
  242TIP3   OH2  602   2.358   2.085   1.937
  242TIP3    H1  603   2.280   2.144   1.923
  242TIP3    H2  604   2.403   2.096   1.850
  243TIP3   OH2  605   2.605   1.963   2.300
  243TIP3    H1  606   2.520   1.935   2.260
  243TIP3    H2  607   2.590   2.060   2.301
  244TIP3   OH2  608   3.885   1.362   1.138
  244TIP3    H1  609   3.879   1.453   1.104
  244TIP3    H2  610   3.840   1.313   1.067
  245TIP3   OH2  611   3.810   1.292   1.466
  245TIP3    H1  612   3.882   1.307   1.531
  245TIP3    H2  613   3.860   1.263   1.388
  246TIP3   OH2  614   3.199   1.219   1.767
  246TIP3    H1  615   3.205   1.157   1.842
  246TIP3    H2  616   3.233   1.300   1.807
  247TIP3   OH2  617   4.099   1.632   1.130
  247TIP3    H1  618   4.107   1.570   1.202
  247TIP3    H2  619   4.130   1.714   1.171
  248TIP3   OH2  620   3.159   1.642   1.574
  248TIP3    H1  621   3.117   1.573   1.523
  248TIP3    H2  622   3.252   1.640   1.544
  249TIP3   OH2  623   3.746   2.097   1.140
  249TIP3    H1  624   3.797   2.030   1.090
  249TIP3    H2  625   3.756   2.067   1.231
  250TIP3   OH2  626   3.659   1.557   1.490
  250TIP3    H1  627   3.702   1.476   1.459
  250TIP3    H2  628   3.740   1.608   1.513
  251TIP3   OH2  629   4.669   0.884   1.488
  251TIP3    H1  630   4.700   0.964   1.536
  251TIP3    H2  631   4.700   0.904   1.398
  252TIP3   OH2  632   4.068   1.068   1.517
  252TIP3    H1  633   4.121   0.987   1.538
  252TIP3    H2  634   4.011   1.035   1.445
  253TIP3   OH2  635   4.743   1.085   1.662
  253TIP3    H1  636   4.662   1.137   1.645
  253TIP3    H2  637   4.768   1.117   1.751
  254TIP3   OH2  638   3.762   1.606   0.988
  254TIP3    H1  639   3.791   1.584   0.898
  254TIP3    H2  640   3.717   1.692   0.974
  255TIP3   OH2  641   3.518   1.477   1.732
  255TIP3    H1  642   3.451   1.540   1.766
  255TIP3    H2  643   3.551   1.525   1.654
  256TIP3   OH2  644   4.304   0.802   1.289
  256TIP3    H1  645   4.343   0.758   1.365
  256TIP3    H2  646   4.352   0.886   1.292
  257TIP3   OH2  647   3.349   1.673   1.817
  257TIP3    H1  648   3.322   1.753   1.769
  257TIP3    H2  649   3.271   1.665   1.877
  258TIP3   OH2  650   4.173   1.878   1.290
  258TIP3    H1  651   4.082   1.873   1.329
  258TIP3    H2  652   4.170   1.965   1.246
  259TIP3   OH2  653   4.464   0.781   1.648
  259TIP3    H1  654   4.382   0.826   1.622
  259TIP3    H2  655   4.529   0.816   1.583
  260TIP3   OH2  656   3.873   1.929   0.967
  260TIP3    H1  657   3.924   1.847   0.946
  260TIP3    H2  658   3.934   1.995   0.926
  261TIP3   OH2  659   4.023   1.721   0.877
  261TIP3    H1  660   4.043   1.648   0.815
  261TIP3    H2  661   4.057   1.684   0.961
  262TIP3   OH2  662   4.399   1.794   1.639
  262TIP3    H1  663   4.394   1.718   1.577
  262TIP3    H2  664   4.385   1.870   1.578
  263TIP3   OH2  665   4.596   1.425   1.478
  263TIP3    H1  666   4.516   1.482   1.485
  263TIP3    H2  667   4.629   1.453   1.390
  264TIP3   OH2  668   4.042   1.297   0.905
  264TIP3    H1  669   4.051   1.321   0.999
  264TIP3    H2  670   4.128   1.254   0.888
  265TIP3   OH2  671   4.277   1.311   1.779
  265TIP3    H1  672   4.280   1.390   1.837
  265TIP3    H2  673   4.197   1.329   1.727
  266TIP3   OH2  674   3.400   1.666   1.434
  266TIP3    H1  675   3.396   1.632   1.344
  266TIP3    H2  676   3.493   1.648   1.459
  267TIP3   OH2  677   3.931   1.875   1.413
  267TIP3    H1  678   3.920   1.960   1.460
  267TIP3    H2  679   3.917   1.808   1.482
  268TIP3   OH2  680   3.548   1.800   1.962
  268TIP3    H1  681   3.487   1.862   2.007
  268TIP3    H2  682   3.484   1.746   1.911
  269TIP3   OH2  683   3.297   1.351   2.055
  269TIP3    H1  684   3.309   1.438   2.098
  269TIP3    H2  685   3.202   1.336   2.074
  270TIP3   OH2  686   3.608   1.838   0.966
  270TIP3    H1  687   3.689   1.888   0.986
  270TIP3    H2  688   3.553   1.904   0.921
  271TIP3   OH2  689   3.341   1.968   2.049
  271TIP3    H1  690   3.310   1.966   1.957
  271TIP3    H2  691   3.261   1.943   2.099
  272TIP3   OH2  692   4.209   1.743   0.289
  272TIP3    H1  693   4.216   1.840   0.285
  272TIP3    H2  694   4.301   1.713   0.293
  273TIP3   OH2  695   2.942   1.520   2.025
  273TIP3    H1  696   2.886   1.521   1.945
  273TIP3    H2  697   2.972   1.426   2.027
  274TIP3   OH2  698   4.640   2.137   1.683
  274TIP3    H1  699   4.638   2.041   1.697
  274TIP3    H2  700   4.556   2.163   1.728
  275TIP3   OH2  701   3.745   1.925   1.814
  275TIP3    H1  702   3.746   2.018   1.847
  275TIP3    H2  703   3.675   1.886   1.871
  276TIP3   OH2  704   3.501   2.054   0.776
  276TIP3    H1  705   3.443   2.047   0.699
  276TIP3    H2  706   3.485   2.147   0.803
  277TIP3   OH2  707   3.758   2.011   0.686
  277TIP3    H1  708   3.667   2.015   0.721
  277TIP3    H2  709   3.807   1.967   0.758
  278TIP3   OH2  710   4.530   1.270   1.959
  278TIP3    H1  711   4.451   1.280   1.905
  278TIP3    H2  712   4.547   1.174   1.951
  279TIP3   OH2  713   3.145   1.695   1.991
  279TIP3    H1  714   3.195   1.675   2.073
  279TIP3    H2  715   3.065   1.639   2.003
  280TIP3   OH2  716   4.063   0.626   1.967
  280TIP3    H1  717   4.133   0.589   2.024
  280TIP3    H2  718   3.983   0.581   1.999
  281TIP3   OH2  719   4.286   1.039   1.870
  281TIP3    H1  720   4.249   1.037   1.961
  281TIP3    H2  721   4.275   1.133   1.845
  282TIP3   OH2  722   4.005   1.270   2.114
  282TIP3    H1  723   3.986   1.196   2.177
  282TIP3    H2  724   4.099   1.286   2.135
  283TIP3   OH2  725   3.270   1.036   1.992
  283TIP3    H1  726   3.309   1.104   2.048
  283TIP3    H2  727   3.218   0.985   2.056
  284TIP3   OH2  728   3.983   1.264   1.680
  284TIP3    H1  729   4.028   1.194   1.627
  284TIP3    H2  730   3.974   1.217   1.766
  285TIP3   OH2  731   4.166   0.814   1.565
  285TIP3    H1  732   4.134   0.819   1.658
  285TIP3    H2  733   4.118   0.738   1.530
  286TIP3   OH2  734   4.329   2.489   1.780
  286TIP3    H1  735   4.327   2.514   1.686
  286TIP3    H2  736   4.406   2.540   1.812
  287TIP3   OH2  737   3.291   1.594   2.206
  287TIP3    H1  738   3.372   1.626   2.252
  287TIP3    H2  739   3.226   1.601   2.278
  288TIP3   OH2  740   4.368   1.579   1.472
  288TIP3    H1  741   4.395   1.628   1.391
  288TIP3    H2  742   4.283   1.538   1.444
  289TIP3   OH2  743   3.853   1.650   1.845
  289TIP3    H1  744   3.895   1.641   1.931
  289TIP3    H2  745   3.826   1.743   1.844
  290TIP3   OH2  746   3.043   1.286   2.154
  290TIP3    H1  747   3.091   1.294   2.240
  290TIP3    H2  748   3.019   1.191   2.155
  291TIP3   OH2  749   3.761   1.397   2.144
  291TIP3    H1  750   3.706   1.323   2.117
  291TIP3    H2  751   3.852   1.365   2.124
  292TIP3   OH2  752   4.021   1.905   1.744
  292TIP3    H1  753   3.925   1.919   1.751
  292TIP3    H2  754   4.053   1.965   1.814
  293TIP3   OH2  755   4.651   1.845   1.727
  293TIP3    H1  756   4.553   1.841   1.718
  293TIP3    H2  757   4.677   1.817   1.636
  294TIP3   OH2  758   4.129   1.805   0.545
  294TIP3    H1  759   4.123   1.733   0.610
  294TIP3    H2  760   4.137   1.756   0.461
  295TIP3   OH2  761   4.139   1.441   1.390
  295TIP3    H1  762   4.045   1.422   1.397
  295TIP3    H2  763   4.173   1.360   1.347
  296TIP3   OH2  764   3.528   2.008   1.611
  296TIP3    H1  765   3.566   2.084   1.562
  296TIP3    H2  766   3.605   1.979   1.663
  297TIP3   OH2  767   3.915   1.633   1.573
  297TIP3    H1  768   3.905   1.637   1.671
  297TIP3    H2  769   4.008   1.611   1.565
  298TIP3   OH2  770   4.162   2.177   1.619
  298TIP3    H1  771   4.080   2.127   1.605
  298TIP3    H2  772   4.154   2.246   1.549
  299TIP3   OH2  773   4.229   2.021   0.255
  299TIP3    H1  774   4.284   2.100   0.236
  299TIP3    H2  775   4.151   2.065   0.296
  300TIP3   OH2  776   4.064   1.505   0.721
  300TIP3    H1  777   4.080   1.421   0.767
  300TIP3    H2  778   4.135   1.500   0.654
  301TIP3   OH2  779   2.978   1.859   1.795
  301TIP3    H1  780   3.051   1.798   1.784
  301TIP3    H2  781   3.017   1.928   1.849
  302TIP3   OH2  782   4.075   0.851   1.817
  302TIP3    H1  783   4.153   0.899   1.852
  302TIP3    H2  784   4.072   0.774   1.879
  303TIP3   OH2  785   3.930   1.113   1.899
  303TIP3    H1  786   3.953   1.163   1.980
  303TIP3    H2  787   3.977   1.030   1.914
  304TIP3   OH2  788   4.559   1.007   1.877
  304TIP3    H1  789   4.461   0.996   1.878
  304TIP3    H2  790   4.581   0.968   1.792
  305TIP3   OH2  791   4.212   1.198   1.268
  305TIP3    H1  792   4.150   1.125   1.278
  305TIP3    H2  793   4.292   1.162   1.313
  306TIP3   OH2  794   4.184   2.148   1.214
  306TIP3    H1  795   4.142   2.197   1.139
  306TIP3    H2  796   4.278   2.170   1.194
  307TIP3   OH2  797   2.954   2.179   2.193
  307TIP3    H1  798   3.040   2.180   2.239
  307TIP3    H2  799   2.934   2.084   2.193
  308TIP3   OH2  800   3.447   2.144   2.249
  308TIP3    H1  801   3.540   2.115   2.242
  308TIP3    H2  802   3.409   2.095   2.173
  309TIP3   OH2  803   4.073   2.053   1.974
  309TIP3    H1  804   4.070   1.982   2.041
  309TIP3    H2  805   4.153   2.103   2.000
  310TIP3   OH2  806   3.087   1.590   2.392
  310TIP3    H1  807   3.104   1.496   2.406
  310TIP3    H2  808   2.997   1.591   2.354
  311TIP3   OH2  809   3.692   1.672   2.169
  311TIP3    H1  810   3.655   1.690   2.080
  311TIP3    H2  811   3.727   1.581   2.159
  312TIP3   OH2  812   4.182   1.679   1.766
  312TIP3    H1  813   4.262   1.719   1.726
  312TIP3    H2  814   4.120   1.754   1.759
  313TIP3   OH2  815   3.201   1.305   2.376
  313TIP3    H1  816   3.283   1.256   2.360
  313TIP3    H2  817   3.224   1.347   2.462
  314TIP3   OH2  818   3.548   1.215   2.032
  314TIP3    H1  819   3.466   1.266   2.048
  314TIP3    H2  820   3.576   1.249   1.946
  315TIP3   OH2  821   4.056   1.606   2.170
  315TIP3    H1  822   4.142   1.588   2.129
  315TIP3    H2  823   4.056   1.542   2.243
  316TIP3   OH2  824   3.658   0.993   2.165
  316TIP3    H1  825   3.656   0.913   2.110
  316TIP3    H2  826   3.621   1.061   2.105
  317TIP3   OH2  827   3.644   0.773   1.959
  317TIP3    H1  828   3.699   0.803   1.885
  317TIP3    H2  829   3.572   0.727   1.914
  318TIP3   OH2  830   3.695   1.284   1.776
  318TIP3    H1  831   3.779   1.325   1.801
  318TIP3    H2  832   3.636   1.364   1.770
  319TIP3   OH2  833   4.274   1.282   2.221
  319TIP3    H1  834   4.321   1.202   2.251
  319TIP3    H2  835   4.347   1.338   2.193
  320TIP3   OH2  836   4.316   1.534   1.954
  320TIP3    H1  837   4.259   1.590   1.896
  320TIP3    H2  838   4.405   1.556   1.918
  321TIP3   OH2  839   3.529   1.110   2.384
  321TIP3    H1  840   3.466   1.037   2.404
  321TIP3    H2  841   3.574   1.075   2.305
  322TIP3   OH2  842   3.795   0.549   2.037
  322TIP3    H1  843   3.748   0.633   2.021
  322TIP3    H2  844   3.738   0.484   1.992
  323TIP3   OH2  845   3.925   1.052   2.256
  323TIP3    H1  846   3.931   1.041   2.352
  323TIP3    H2  847   3.833   1.023   2.240
  324TIP3   OH2  848   4.161   0.995   2.105
  324TIP3    H1  849   4.090   0.998   2.172
  324TIP3    H2  850   4.238   0.966   2.160
  325TIP3   OH2  851   4.383   0.933   2.255
  325TIP3    H1  852   4.403   0.839   2.278
  325TIP3    H2  853   4.384   0.977   2.342
  326TIP3   OH2  854   3.382   0.887   2.443
  326TIP3    H1  855   3.387   0.794   2.412
  326TIP3    H2  856   3.421   0.878   2.533
  327TIP3   OH2  857   3.888   0.549   2.298
  327TIP3    H1  858   3.963   0.487   2.292
  327TIP3    H2  859   3.855   0.545   2.206
  328TIP3   OH2  860   3.956   0.768   2.454
  328TIP3    H1  861   3.933   0.697   2.390
  328TIP3    H2  862   3.879   0.828   2.448
  329TIP3   OH2  863   4.435   2.244   1.171
  329TIP3    H1  864   4.463   2.282   1.256
  329TIP3    H2  865   4.495   2.287   1.108
  330TIP3   OH2  866   4.463   2.266   1.455
  330TIP3    H1  867   4.426   2.175   1.448
  330TIP3    H2  868   4.544   2.248   1.505
  331TIP3   OH2  869   4.511   1.941   2.024
  331TIP3    H1  870   4.439   1.950   2.090
  331TIP3    H2  871   4.553   2.029   2.028
  332TIP3   OH2  872   4.337   1.479   0.660
  332TIP3    H1  873   4.417   1.528   0.632
  332TIP3    H2  874   4.376   1.411   0.719
  333TIP3   OH2  875   4.465   1.315   0.843
  333TIP3    H1  876   4.394   1.276   0.899
  333TIP3    H2  877   4.522   1.359   0.908
  334TIP3   OH2  878   4.505   1.710   1.278
  334TIP3    H1  879   4.563   1.648   1.229
  334TIP3    H2  880   4.505   1.789   1.219
  335TIP3   OH2  881   4.342   2.010   1.478
  335TIP3    H1  882   4.272   2.058   1.526
  335TIP3    H2  883   4.292   1.965   1.407
  336TIP3   OH2  884   4.283   1.180   1.002
  336TIP3    H1  885   4.261   1.086   0.993
  336TIP3    H2  886   4.265   1.196   1.097
  337TIP3   OH2  887   4.559   1.602   1.851
  337TIP3    H1  888   4.632   1.536   1.844
  337TIP3    H2  889   4.590   1.673   1.792
  338TIP3   OH2  890   4.744   1.409   1.871
  338TIP3    H1  891   4.672   1.357   1.912
  338TIP3    H2  892   4.819   1.346   1.883
  339TIP3   OH2  893   4.426   1.074   1.382
  339TIP3    H1  894   4.514   1.097   1.342
  339TIP3    H2  895   4.442   1.106   1.473
  340TIP3   OH2  896   4.494   1.210   1.617
  340TIP3    H1  897   4.419   1.248   1.667
  340TIP3    H2  898   4.529   1.290   1.571
  341TIP3   OH2  899   3.123   0.958   2.436
  341TIP3    H1  900   3.219   0.941   2.430
  341TIP3    H2  901   3.089   0.869   2.447
  342TIP3   OH2  902   4.949   0.802   2.173
  342TIP3    H1  903   5.007   0.735   2.131
  342TIP3    H2  904   4.925   0.859   2.097
  343TIP3   OH2  905   4.821   0.945   1.977
  343TIP3    H1  906   4.737   0.981   2.009
  343TIP3    H2  907   4.789   0.871   1.922
  344TIP3   OH2  908   4.026   2.104   0.833
  344TIP3    H1  909   4.072   2.092   0.747
  344TIP3    H2  910   4.076   2.178   0.871
  345TIP3   OH2  911   3.124   1.913   2.217
  345TIP3    H1  912   3.031   1.889   2.198
  345TIP3    H2  913   3.129   1.897   2.312
  346TIP3   OH2  914   3.301   1.945   1.762
  346TIP3    H1  915   3.253   2.020   1.721
  346TIP3    H2  916   3.388   1.959   1.719
  347TIP3   OH2  917   3.749   2.188   1.899
  347TIP3    H1  918   3.792   2.196   1.987
  347TIP3    H2  919   3.811   2.240   1.844
  348TIP3   OH2  920   3.926   2.337   1.756
  348TIP3    H1  921   4.000   2.293   1.714
  348TIP3    H2  922   3.973   2.397   1.818
  349TIP3   OH2  923   4.720   0.710   1.857
  349TIP3    H1  924   4.627   0.693   1.831
  349TIP3    H2  925   4.758   0.620   1.848
  350TIP3   OH2  926   2.980   2.222   1.776
  350TIP3    H1  927   2.884   2.241   1.763
  350TIP3    H2  928   2.990   2.251   1.868
  351TIP3   OH2  929   3.212   2.177   1.640
  351TIP3    H1  930   3.128   2.192   1.690
  351TIP3    H2  931   3.192   2.224   1.557
  352TIP3   OH2  932   3.637   2.207   1.442
  352TIP3    H1  933   3.583   2.236   1.367
  352TIP3    H2  934   3.653   2.293   1.487
  353TIP3   OH2  935   3.908   2.146   1.488
  353TIP3    H1  936   3.814   2.168   1.473
  353TIP3    H2  937   3.952   2.224   1.451
  354TIP3   OH2  938   4.112   2.341   1.406
  354TIP3    H1  939   4.099   2.427   1.361
  354TIP3    H2  940   4.140   2.284   1.332
  355TIP3   OH2  941   2.915   2.011   1.531
  355TIP3    H1  942   2.898   1.975   1.620
  355TIP3    H2  943   2.996   1.960   1.507
  356TIP3   OH2  944   3.105   1.862   1.412
  356TIP3    H1  945   3.126   1.778   1.456
  356TIP3    H2  946   3.193   1.899   1.394
  357TIP3   OH2  947   3.361   1.975   1.388
  357TIP3    H1  948   3.398   1.889   1.363
  357TIP3    H2  949   3.405   1.989   1.474
  358TIP3   OH2  950   4.471   0.502   1.403
  358TIP3    H1  951   4.507   0.548   1.322
  358TIP3    H2  952   4.376   0.506   1.388
  359TIP3   OH2  953   4.561   0.606   1.177
  359TIP3    H1  954   4.590   0.539   1.113
  359TIP3    H2  955   4.609   0.686   1.148
  360TIP3   OH2  956   4.165   2.072   0.594
  360TIP3    H1  957   4.154   1.975   0.580
  360TIP3    H2  958   4.118   2.108   0.516
  361TIP3   OH2  959   3.396   0.620   2.394
  361TIP3    H1  960   3.371   0.531   2.427
  361TIP3    H2  961   3.489   0.622   2.426
  362TIP3   OH2  962   3.644   0.608   2.506
  362TIP3    H1  963   3.730   0.584   2.469
  362TIP3    H2  964   3.632   0.538   2.574
  363TIP3   OH2  965   4.451   0.664   2.289
  363TIP3    H1  966   4.470   0.636   2.381
  363TIP3    H2  967   4.540   0.663   2.250
  364TIP3   OH2  968   4.392   2.220   1.785
  364TIP3    H1  969   4.314   2.191   1.734
  364TIP3    H2  970   4.376   2.317   1.786
  365TIP3   OH2  971   5.643   1.599   0.562
  365TIP3    H1  972   5.617   1.690   0.540
  365TIP3    H2  973   5.568   1.549   0.526
  366TIP3   OH2  974   5.651   1.595   0.933
  366TIP3    H1  975   5.688   1.564   1.017
  366TIP3    H2  976   5.617   1.512   0.894
  367TIP3   OH2  977   4.957   1.489   1.299
  367TIP3    H1  978   4.990   1.422   1.361
  367TIP3    H2  979   5.036   1.543   1.285
  368TIP3   OH2  980   5.899   1.889   0.612
  368TIP3    H1  981   5.889   1.824   0.682
  368TIP3    H2  982   5.930   1.967   0.661
  369TIP3   OH2  983   4.928   1.896   1.021
  369TIP3    H1  984   4.921   1.798   1.024
  369TIP3    H2  985   5.024   1.906   1.014
  370TIP3   OH2  986   4.634   1.095   0.801
  370TIP3    H1  987   4.596   1.185   0.803
  370TIP3    H2  988   4.556   1.044   0.823
  371TIP3   OH2  989   4.697   1.389   0.979
  371TIP3    H1  990   4.748   1.313   1.015
  371TIP3    H2  991   4.756   1.424   0.911
  372TIP3   OH2  992   5.547   2.355   0.627
  372TIP3    H1  993   5.595   2.284   0.579
  372TIP3    H2  994   5.546   2.321   0.717
  373TIP3   OH2  995   5.457   1.817   0.979
  373TIP3    H1  996   5.497   1.739   0.936
  373TIP3    H2  997   5.540   1.864   1.002
  374TIP3   OH2  998   6.425   1.166   1.001
  374TIP3    H1  999   6.483   1.214   1.064
  374TIP3    H2 1000   6.406   1.238   0.938
  375TIP3   OH2 1001   5.859   1.319   1.013
  375TIP3    H1 1002   5.906   1.235   1.033
  375TIP3    H2 1003   5.841   1.306   0.918
  376TIP3   OH2 1004   5.197   0.976   0.980
  376TIP3    H1 1005   5.188   1.050   0.917
  376TIP3    H2 1006   5.149   0.906   0.931
  377TIP3   OH2 1007   4.840   1.180   1.084
  377TIP3    H1 1008   4.924   1.164   1.132
  377TIP3    H2 1009   4.858   1.126   1.003
  378TIP3   OH2 1010   5.283   1.380   0.877
  378TIP3    H1 1011   5.377   1.356   0.888
  378TIP3    H2 1012   5.245   1.296   0.845
  379TIP3   OH2 1013   6.538   1.343   1.174
  379TIP3    H1 1014   6.474   1.408   1.138
  379TIP3    H2 1015   6.588   1.397   1.237
  380TIP3   OH2 1016   5.202   0.961   1.410
  380TIP3    H1 1017   5.143   1.001   1.343
  380TIP3    H2 1018   5.152   0.980   1.492
  381TIP3   OH2 1019   5.554   1.817   0.416
  381TIP3    H1 1020   5.508   1.794   0.333
  381TIP3    H2 1021   5.506   1.899   0.442
  382TIP3   OH2 1022   5.309   1.737   1.206
  382TIP3    H1 1023   5.248   1.804   1.243
  382TIP3    H2 1024   5.353   1.788   1.135
  383TIP3   OH2 1025   5.072   1.079   1.198
  383TIP3    H1 1026   5.135   1.151   1.220
  383TIP3    H2 1027   5.120   1.038   1.122
  384TIP3   OH2 1028   5.137   1.931   1.303
  384TIP3    H1 1029   5.112   2.017   1.263
  384TIP3    H2 1030   5.058   1.917   1.360
  385TIP3   OH2 1031   4.550   1.622   0.556
  385TIP3    H1 1032   4.502   1.634   0.472
  385TIP3    H2 1033   4.567   1.714   0.585
  386TIP3   OH2 1034   5.972   2.137   0.778
  386TIP3    H1 1035   5.882   2.129   0.818
  386TIP3    H2 1036   5.965   2.224   0.734
  387TIP3   OH2 1037   6.237   1.041   1.158
  387TIP3    H1 1038   6.155   1.072   1.116
  387TIP3    H2 1039   6.304   1.075   1.096
  388TIP3   OH2 1040   5.565   0.712   1.134
  388TIP3    H1 1041   5.548   0.617   1.125
  388TIP3    H2 1042   5.483   0.741   1.180
  389TIP3   OH2 1043   5.673   2.182   0.453
  389TIP3    H1 1044   5.726   2.102   0.432
  389TIP3    H2 1045   5.733   2.251   0.416
  390TIP3   OH2 1046   5.821   1.967   0.358
  390TIP3    H1 1047   5.770   1.891   0.328
  390TIP3    H2 1048   5.851   1.937   0.447
  391TIP3   OH2 1049   6.201   2.052   1.126
  391TIP3    H1 1050   6.187   1.975   1.066
  391TIP3    H2 1051   6.182   2.126   1.065
  392TIP3   OH2 1052   5.489   1.457   0.373
  392TIP3    H1 1053   5.408   1.509   0.354
  392TIP3    H2 1054   5.524   1.443   0.283
  393TIP3   OH2 1055   6.371   1.683   0.971
  393TIP3    H1 1056   6.297   1.746   0.963
  393TIP3    H2 1057   6.421   1.696   0.889
  394TIP3   OH2 1058   5.836   1.521   0.390
  394TIP3    H1 1059   5.761   1.544   0.450
  394TIP3    H2 1060   5.908   1.563   0.437
  395TIP3   OH2 1061   6.070   1.566   1.265
  395TIP3    H1 1062   6.068   1.651   1.312
  395TIP3    H2 1063   5.986   1.570   1.216
  396TIP3   OH2 1064   5.069   1.523   0.769
  396TIP3    H1 1065   5.032   1.463   0.700
  396TIP3    H2 1066   5.147   1.472   0.799
  397TIP3   OH2 1067   5.197   1.932   0.919
  397TIP3    H1 1068   5.180   1.893   0.833
  397TIP3    H2 1069   5.289   1.901   0.937
  398TIP3   OH2 1070   5.202   1.497   1.122
  398TIP3    H1 1071   5.239   1.474   1.034
  398TIP3    H2 1072   5.248   1.581   1.143
  399TIP3   OH2 1073   5.729   2.134   0.899
  399TIP3    H1 1074   5.717   2.214   0.953
  399TIP3    H2 1075   5.717   2.061   0.963
  400TIP3   OH2 1076   5.343   2.052   1.448
  400TIP3    H1 1077   5.283   2.115   1.493
  400TIP3    H2 1078   5.278   1.999   1.398
  401TIP3   OH2 1079   5.098   1.609   1.548
  401TIP3    H1 1080   5.103   1.697   1.593
  401TIP3    H2 1081   5.003   1.591   1.555
  402TIP3   OH2 1082   5.419   2.066   0.455
  402TIP3    H1 1083   5.499   2.119   0.471
  402TIP3    H2 1084   5.359   2.130   0.414
  403TIP3   OH2 1085   5.138   2.221   1.533
  403TIP3    H1 1086   5.103   2.221   1.442
  403TIP3    H2 1087   5.058   2.200   1.586
  404TIP3   OH2 1088   4.938   1.363   0.569
  404TIP3    H1 1089   4.883   1.426   0.518
  404TIP3    H2 1090   4.876   1.290   0.581
  405TIP3   OH2 1091   4.715   1.751   1.482
  405TIP3    H1 1092   4.656   1.727   1.408
  405TIP3    H2 1093   4.755   1.665   1.507
  406TIP3   OH2 1094   4.571   1.941   1.120
  406TIP3    H1 1095   4.666   1.936   1.104
  406TIP3    H2 1096   4.565   2.024   1.170
  407TIP3   OH2 1097   6.436   2.395   1.171
  407TIP3    H1 1098   6.434   2.298   1.180
  407TIP3    H2 1099   6.351   2.419   1.214
  408TIP3   OH2 1100   5.542   2.181   1.304
  408TIP3    H1 1101   5.541   2.274   1.336
  408TIP3    H2 1102   5.471   2.142   1.359
  409TIP3   OH2 1103   5.296   2.307   0.256
  409TIP3    H1 1104   5.256   2.293   0.168
  409TIP3    H2 1105   5.270   2.399   0.276
  410TIP3   OH2 1106   4.738   2.160   0.639
  410TIP3    H1 1107   4.789   2.152   0.723
  410TIP3    H2 1108   4.681   2.082   0.647
  411TIP3   OH2 1109   5.481   2.221  -0.075
  411TIP3    H1 1110   5.554   2.178  -0.125
  411TIP3    H2 1111   5.525   2.233   0.011
  412TIP3   OH2 1112   5.555   2.266   0.183
  412TIP3    H1 1113   5.465   2.269   0.222
  412TIP3    H2 1114   5.606   2.224   0.255
  413TIP3   OH2 1115   6.330   1.531   1.438
  413TIP3    H1 1116   6.253   1.541   1.381
  413TIP3    H2 1117   6.345   1.434   1.432
  414TIP3   OH2 1118   4.922   1.934   1.470
  414TIP3    H1 1119   4.972   1.918   1.552
  414TIP3    H2 1120   4.847   1.870   1.479
  415TIP3   OH2 1121   5.317   0.760   1.252
  415TIP3    H1 1122   5.228   0.730   1.227
  415TIP3    H2 1123   5.294   0.843   1.298
  416TIP3   OH2 1124   5.856   0.881   1.453
  416TIP3    H1 1125   5.926   0.849   1.514
  416TIP3    H2 1126   5.773   0.860   1.502
  417TIP3   OH2 1127   6.087   1.298   1.360
  417TIP3    H1 1128   6.044   1.299   1.448
  417TIP3    H2 1129   6.072   1.389   1.327
  418TIP3   OH2 1130   5.249   1.274   1.270
  418TIP3    H1 1131   5.204   1.299   1.353
  418TIP3    H2 1132   5.236   1.355   1.216
  419TIP3   OH2 1133   5.137   1.161   0.791
  419TIP3    H1 1134   5.043   1.136   0.802
  419TIP3    H2 1135   5.154   1.128   0.700
  420TIP3   OH2 1136   5.583   1.269   0.549
  420TIP3    H1 1137   5.533   1.339   0.502
  420TIP3    H2 1138   5.636   1.234   0.476
  421TIP3   OH2 1139   5.801   1.526   1.602
  421TIP3    H1 1140   5.781   1.451   1.662
  421TIP3    H2 1141   5.897   1.536   1.619
  422TIP3   OH2 1142   5.786   1.268   0.746
  422TIP3    H1 1143   5.715   1.302   0.689
  422TIP3    H2 1144   5.805   1.185   0.699
  423TIP3   OH2 1145   5.069   1.303   1.483
  423TIP3    H1 1146   5.105   1.366   1.547
  423TIP3    H2 1147   5.063   1.221   1.534
  424TIP3   OH2 1148   4.678   0.817   1.057
  424TIP3    H1 1149   4.737   0.857   1.125
  424TIP3    H2 1150   4.728   0.833   0.977
  425TIP3   OH2 1151   5.791   1.521   1.176
  425TIP3    H1 1152   5.824   1.448   1.117
  425TIP3    H2 1153   5.765   1.468   1.254
  426TIP3   OH2 1154   5.451   0.993   0.852
  426TIP3    H1 1155   5.379   0.985   0.916
  426TIP3    H2 1156   5.531   0.978   0.905
  427TIP3   OH2 1157   4.896   1.033   0.859
  427TIP3    H1 1158   4.806   1.044   0.820
  427TIP3    H2 1159   4.926   0.947   0.826
  428TIP3   OH2 1160   5.173   1.049   0.544
  428TIP3    H1 1161   5.271   1.034   0.551
  428TIP3    H2 1162   5.162   1.058   0.450
  429TIP3   OH2 1163   5.941   1.054   1.048
  429TIP3    H1 1164   5.912   1.069   1.141
  429TIP3    H2 1165   5.871   0.995   1.016
  430TIP3   OH2 1166   6.125   2.745   1.267
  430TIP3    H1 1167   6.122   2.769   1.172
  430TIP3    H2 1168   6.202   2.797   1.297
  431TIP3   OH2 1169   5.082   1.855   1.690
  431TIP3    H1 1170   5.163   1.886   1.736
  431TIP3    H2 1171   5.019   1.857   1.764
  432TIP3   OH2 1172   5.547   1.310   0.944
  432TIP3    H1 1173   5.615   1.267   0.890
  432TIP3    H2 1174   5.563   1.269   1.031
  433TIP3   OH2 1175   5.062   0.797   0.814
  433TIP3    H1 1176   5.050   0.710   0.857
  433TIP3    H2 1177   5.132   0.779   0.749
  434TIP3   OH2 1178   5.523   1.201   1.241
  434TIP3    H1 1179   5.436   1.244   1.249
  434TIP3    H2 1180   5.584   1.263   1.285
  435TIP3   OH2 1181   5.259   1.605   0.328
  435TIP3    H1 1182   5.192   1.533   0.321
  435TIP3    H2 1183   5.243   1.637   0.421
  436TIP3   OH2 1184   6.151   1.845   0.958
  436TIP3    H1 1185   6.179   1.889   0.875
  436TIP3    H2 1186   6.069   1.797   0.931
  437TIP3   OH2 1187   5.657   1.913   1.327
  437TIP3    H1 1188   5.684   1.895   1.418
  437TIP3    H2 1189   5.622   2.004   1.332
  438TIP3   OH2 1190   4.950   1.614   1.005
  438TIP3    H1 1191   4.989   1.590   0.919
  438TIP3    H2 1192   5.000   1.557   1.066
  439TIP3   OH2 1193   5.417   1.751   0.159
  439TIP3    H1 1194   5.368   1.836   0.162
  439TIP3    H2 1195   5.359   1.694   0.214
  440TIP3   OH2 1196   4.831   1.543   1.620
  440TIP3    H1 1197   4.859   1.530   1.713
  440TIP3    H2 1198   4.767   1.470   1.608
  441TIP3   OH2 1199   5.558   1.652   1.638
  441TIP3    H1 1200   5.502   1.596   1.584
  441TIP3    H2 1201   5.647   1.620   1.613
  442TIP3   OH2 1202   5.821   2.172   1.223
  442TIP3    H1 1203   5.724   2.173   1.234
  442TIP3    H2 1204   5.848   2.226   1.300
  443TIP3   OH2 1205   6.452   2.106   1.209
  443TIP3    H1 1206   6.355   2.099   1.202
  443TIP3    H2 1207   6.478   2.067   1.123
  444TIP3   OH2 1208   5.938   2.053   0.039
  444TIP3    H1 1209   5.913   2.021   0.126
  444TIP3    H2 1210   5.880   2.002  -0.020
  445TIP3   OH2 1211   5.920   1.703   0.880
  445TIP3    H1 1212   5.828   1.675   0.893
  445TIP3    H2 1213   5.958   1.621   0.841
  446TIP3   OH2 1214   5.053   1.922   0.630
  446TIP3    H1 1215   5.058   2.004   0.577
  446TIP3    H2 1216   4.958   1.910   0.638
  447TIP3   OH2 1217   4.658   1.260   0.436
  447TIP3    H1 1218   4.702   1.347   0.423
  447TIP3    H2 1219   4.581   1.269   0.377
  448TIP3   OH2 1220   5.193   1.689   0.576
  448TIP3    H1 1221   5.158   1.778   0.593
  448TIP3    H2 1222   5.157   1.639   0.651
  449TIP3   OH2 1223   5.322   2.267   1.099
  449TIP3    H1 1224   5.362   2.340   1.048
  449TIP3    H2 1225   5.400   2.233   1.147
  450TIP3   OH2 1226   4.974   2.162   0.483
  450TIP3    H1 1227   4.888   2.172   0.528
  450TIP3    H2 1228   5.007   2.254   0.485
  451TIP3   OH2 1229   5.712   1.901   1.057
  451TIP3    H1 1230   5.704   1.897   1.155
  451TIP3    H2 1231   5.792   1.849   1.042
  452TIP3   OH2 1232   5.744   1.846  -0.031
  452TIP3    H1 1233   5.785   1.799   0.045
  452TIP3    H2 1234   5.665   1.885   0.009
  453TIP3   OH2 1235   5.960   2.436   1.109
  453TIP3    H1 1236   5.880   2.380   1.099
  453TIP3    H2 1237   5.946   2.501   1.036
  454TIP3   OH2 1238   5.990   2.268  -0.183
  454TIP3    H1 1239   6.055   2.306  -0.244
  454TIP3    H2 1240   5.924   2.340  -0.173
  455TIP3   OH2 1241   5.048   1.044   1.628
  455TIP3    H1 1242   4.952   1.048   1.645
  455TIP3    H2 1243   5.078   0.986   1.700
  456TIP3   OH2 1244   5.857   1.725   0.191
  456TIP3    H1 1245   5.832   1.654   0.254
  456TIP3    H2 1246   5.940   1.757   0.227
  457TIP3   OH2 1247   4.759   2.130   1.260
  457TIP3    H1 1248   4.815   2.057   1.291
  457TIP3    H2 1249   4.791   2.203   1.315
  458TIP3   OH2 1250   5.038   1.775  -0.064
  458TIP3    H1 1251   5.105   1.705  -0.077
  458TIP3    H2 1252   5.023   1.773   0.032
  459TIP3   OH2 1253   5.000   1.778   0.213
  459TIP3    H1 1254   5.073   1.752   0.271
  459TIP3    H2 1255   5.004   1.876   0.219
  460TIP3   OH2 1256   4.761   1.512   0.424
  460TIP3    H1 1257   4.694   1.550   0.485
  460TIP3    H2 1258   4.763   1.580   0.354
  461TIP3   OH2 1259   5.878   1.114   1.309
  461TIP3    H1 1260   5.963   1.151   1.338
  461TIP3    H2 1261   5.871   1.032   1.363
  462TIP3   OH2 1262   5.263   1.972   0.166
  462TIP3    H1 1263   5.179   2.008   0.198
  462TIP3    H2 1264   5.280   2.030   0.090
  463TIP3   OH2 1265   5.440   1.029   0.578
  463TIP3    H1 1266   5.501   1.105   0.570
  463TIP3    H2 1267   5.453   1.006   0.673
  464TIP3   OH2 1268   5.719   1.358   1.384
  464TIP3    H1 1269   5.743   1.410   1.463
  464TIP3    H2 1270   5.777   1.280   1.391
  465TIP3   OH2 1271   5.002   2.049   0.229
  465TIP3    H1 1272   4.975   2.120   0.166
  465TIP3    H2 1273   4.990   2.095   0.315
  466TIP3   OH2 1274   6.358   1.263   1.380
  466TIP3    H1 1275   6.261   1.250   1.366
  466TIP3    H2 1276   6.391   1.254   1.289
  467TIP3   OH2 1277   6.000   1.466   0.761
  467TIP3    H1 1278   5.935   1.394   0.757
  467TIP3    H2 1279   6.078   1.420   0.800
  468TIP3   OH2 1280   4.727   1.697   0.222
  468TIP3    H1 1281   4.800   1.761   0.231
  468TIP3    H2 1282   4.765   1.639   0.153
  469TIP3   OH2 1283   5.979   2.408   0.701
  469TIP3    H1 1284   5.937   2.456   0.627
  469TIP3    H2 1285   6.074   2.426   0.681
  470TIP3   OH2 1286   5.051   0.680   1.230
  470TIP3    H1 1287   5.025   0.638   1.145
  470TIP3    H2 1288   5.047   0.604   1.292
  471TIP3   OH2 1289   4.595   1.896   0.612
  471TIP3    H1 1290   4.521   1.930   0.663
  471TIP3    H2 1291   4.576   1.936   0.524
  472TIP3   OH2 1292   4.751   2.435   1.685
  472TIP3    H1 1293   4.838   2.436   1.729
  472TIP3    H2 1294   4.733   2.340   1.679
  473TIP3   OH2 1295   5.233   2.402   1.727
  473TIP3    H1 1296   5.328   2.387   1.733
  473TIP3    H2 1297   5.209   2.345   1.651
  474TIP3   OH2 1298   5.213   1.982  -0.124
  474TIP3    H1 1299   5.143   1.914  -0.115
  474TIP3    H2 1300   5.277   1.939  -0.183
  475TIP3   OH2 1301   5.871   2.309   1.459
  475TIP3    H1 1302   5.864   2.239   1.527
  475TIP3    H2 1303   5.949   2.360   1.489
  476TIP3   OH2 1304   5.701   2.096  -0.165
  476TIP3    H1 1305   5.720   2.004  -0.190
  476TIP3    H2 1306   5.769   2.144  -0.216
  477TIP3   OH2 1307   4.882   1.843   1.882
  477TIP3    H1 1308   4.900   1.748   1.885
  477TIP3    H2 1309   4.795   1.845   1.836
  478TIP3   OH2 1310   4.857   1.500   0.071
  478TIP3    H1 1311   4.923   1.467   0.134
  478TIP3    H2 1312   4.912   1.532  -0.002
  479TIP3   OH2 1313   5.489   1.928   1.654
  479TIP3    H1 1314   5.450   1.945   1.567
  479TIP3    H2 1315   5.521   1.836   1.646
  480TIP3   OH2 1316   5.266   1.628  -0.084
  480TIP3    H1 1317   5.293   1.696  -0.019
  480TIP3    H2 1318   5.353   1.622  -0.128
  481TIP3   OH2 1319   5.983   1.937   1.262
  481TIP3    H1 1320   6.058   1.979   1.215
  481TIP3    H2 1321   5.913   2.003   1.246
  482TIP3   OH2 1322   5.000   1.575   1.862
  482TIP3    H1 1323   5.077   1.521   1.840
  482TIP3    H2 1324   5.025   1.609   1.950
  483TIP3   OH2 1325   5.080   1.401   0.311
  483TIP3    H1 1326   5.047   1.362   0.393
  483TIP3    H2 1327   5.065   1.331   0.244
  484TIP3   OH2 1328   5.333   1.459   1.520
  484TIP3    H1 1329   5.259   1.523   1.525
  484TIP3    H2 1330   5.386   1.494   1.445
  485TIP3   OH2 1331   5.854   1.865   1.658
  485TIP3    H1 1332   5.932   1.840   1.606
  485TIP3    H2 1333   5.853   1.796   1.727
  486TIP3   OH2 1334   5.457   1.250   1.652
  486TIP3    H1 1335   5.461   1.170   1.595
  486TIP3    H2 1336   5.416   1.316   1.591
  487TIP3   OH2 1337   5.460   1.038   1.459
  487TIP3    H1 1338   5.490   1.080   1.376
  487TIP3    H2 1339   5.367   1.016   1.437
  488TIP3   OH2 1340   5.489   1.572   1.332
  488TIP3    H1 1341   5.573   1.578   1.284
  488TIP3    H2 1342   5.436   1.641   1.286
  489TIP3   OH2 1343   6.075   1.541   1.714
  489TIP3    H1 1344   6.121   1.455   1.717
  489TIP3    H2 1345   6.143   1.597   1.674
  490TIP3   OH2 1346   6.112   1.796   1.452
  490TIP3    H1 1347   6.056   1.848   1.390
  490TIP3    H2 1348   6.201   1.812   1.412
  491TIP3   OH2 1349   5.336   1.364   1.880
  491TIP3    H1 1350   5.268   1.296   1.894
  491TIP3    H2 1351   5.372   1.338   1.793
  492TIP3   OH2 1352   5.595   0.807   1.529
  492TIP3    H1 1353   5.543   0.887   1.504
  492TIP3    H2 1354   5.531   0.735   1.514
  493TIP3   OH2 1355   5.719   1.306   1.741
  493TIP3    H1 1356   5.709   1.295   1.837
  493TIP3    H2 1357   5.630   1.281   1.711
  494TIP3   OH2 1358   5.962   1.261   1.598
  494TIP3    H1 1359   5.886   1.257   1.659
  494TIP3    H2 1360   6.035   1.227   1.652
  495TIP3   OH2 1361   6.187   1.196   1.748
  495TIP3    H1 1362   6.202   1.101   1.764
  495TIP3    H2 1363   6.187   1.234   1.838
  496TIP3   OH2 1364   5.175   1.144   1.932
  496TIP3    H1 1365   5.185   1.053   1.898
  496TIP3    H2 1366   5.213   1.133   2.023
  497TIP3   OH2 1367   5.689   0.810   1.785
  497TIP3    H1 1368   5.757   0.740   1.777
  497TIP3    H2 1369   5.650   0.806   1.695
  498TIP3   OH2 1370   5.754   1.024   1.943
  498TIP3    H1 1371   5.733   0.954   1.878
  498TIP3    H2 1372   5.677   1.084   1.934
  499TIP3   OH2 1373   4.959   2.247   0.042
  499TIP3    H1 1374   5.055   2.249   0.022
  499TIP3    H2 1375   4.924   2.300  -0.031
  500TIP3   OH2 1376   4.472   1.607   0.280
  500TIP3    H1 1377   4.561   1.647   0.267
  500TIP3    H2 1378   4.441   1.611   0.187
  501TIP3   OH2 1379   4.368   2.247   0.669
  501TIP3    H1 1380   4.301   2.184   0.635
  501TIP3    H2 1381   4.413   2.191   0.736
  502TIP3   OH2 1382   4.505   2.102   0.856
  502TIP3    H1 1383   4.495   2.027   0.918
  502TIP3    H2 1384   4.558   2.163   0.911
  503TIP3   OH2 1385   6.232   2.499   0.659
  503TIP3    H1 1386   6.262   2.538   0.742
  503TIP3    H2 1387   6.290   2.540   0.594
  504TIP3   OH2 1388   6.261   2.522   0.942
  504TIP3    H1 1389   6.219   2.434   0.933
  504TIP3    H2 1390   6.339   2.498   0.994
  505TIP3   OH2 1391   6.309   2.198   1.512
  505TIP3    H1 1392   6.234   2.204   1.574
  505TIP3    H2 1393   6.346   2.289   1.515
  506TIP3   OH2 1394   6.307   1.970   0.770
  506TIP3    H1 1395   6.363   1.905   0.723
  506TIP3    H2 1396   6.305   2.044   0.707
  507TIP3   OH2 1397   6.139   2.269   0.964
  507TIP3    H1 1398   6.066   2.312   1.013
  507TIP3    H2 1399   6.091   2.221   0.893
  508TIP3   OH2 1400   6.198   1.408   0.565
  508TIP3    H1 1401   6.158   1.389   0.478
  508TIP3    H2 1402   6.128   1.453   0.613
  509TIP3   OH2 1403   4.693   1.508   1.231
  509TIP3    H1 1404   4.692   1.479   1.138
  509TIP3    H2 1405   4.790   1.510   1.248
  510TIP3   OH2 1406   6.357   1.857   1.343
  510TIP3    H1 1407   6.431   1.794   1.334
  510TIP3    H2 1408   6.377   1.922   1.274
  511TIP3   OH2 1409   6.556   1.678   1.397
  511TIP3    H1 1410   6.473   1.627   1.413
  511TIP3    H2 1411   6.617   1.603   1.381
  512TIP3   OH2 1412   6.217   1.346   0.875
  512TIP3    H1 1413   6.296   1.369   0.821
  512TIP3    H2 1414   6.244   1.377   0.963
  513TIP3   OH2 1415   6.294   1.470   1.112
  513TIP3    H1 1416   6.213   1.506   1.152
  513TIP3    H2 1417   6.328   1.549   1.064
  514TIP3   OH2 1418   4.909   1.195   1.898
  514TIP3    H1 1419   5.007   1.190   1.903
  514TIP3    H2 1420   4.886   1.110   1.942
  515TIP3   OH2 1421   6.735   1.072   1.669
  515TIP3    H1 1422   6.798   1.007   1.631
  515TIP3    H2 1423   6.708   1.124   1.590
  516TIP3   OH2 1424   4.869   0.889   1.240
  516TIP3    H1 1425   4.932   0.814   1.247
  516TIP3    H2 1426   4.933   0.963   1.231
  517TIP3   OH2 1427   4.673   1.160   1.305
  517TIP3    H1 1428   4.726   1.157   1.223
  517TIP3    H2 1429   4.702   1.244   1.342
  518TIP3   OH2 1430   6.612   1.203   1.469
  518TIP3    H1 1431   6.520   1.236   1.473
  518TIP3    H2 1432   6.599   1.135   1.400
  519TIP3   OH2 1433   5.817   2.367   0.323
  519TIP3    H1 1434   5.862   2.351   0.237
  519TIP3    H2 1435   5.873   2.436   0.361
  520TIP3   OH2 1436   4.876   0.742   1.621
  520TIP3    H1 1437   4.830   0.740   1.706
  520TIP3    H2 1438   4.809   0.782   1.563
  521TIP3   OH2 1439   4.918   2.169   1.700
  521TIP3    H1 1440   4.826   2.142   1.684
  521TIP3    H2 1441   4.928   2.154   1.795
  522TIP3   OH2 1442   5.095   2.202   1.247
  522TIP3    H1 1443   5.048   2.279   1.208
  522TIP3    H2 1444   5.182   2.215   1.203
  523TIP3   OH2 1445   5.542   2.447   1.386
  523TIP3    H1 1446   5.584   2.450   1.474
  523TIP3    H2 1447   5.607   2.498   1.333
  524TIP3   OH2 1448   5.720   2.598   1.244
  524TIP3    H1 1449   5.792   2.549   1.201
  524TIP3    H2 1450   5.772   2.656   1.304
  525TIP3   OH2 1451   6.482   0.968   1.366
  525TIP3    H1 1452   6.415   0.985   1.298
  525TIP3    H2 1453   6.542   0.906   1.321
  526TIP3   OH2 1454   4.771   2.456   1.275
  526TIP3    H1 1455   4.683   2.491   1.249
  526TIP3    H2 1456   4.787   2.507   1.356
  527TIP3   OH2 1457   5.007   2.436   1.128
  527TIP3    H1 1458   4.921   2.450   1.173
  527TIP3    H2 1459   4.990   2.472   1.039
  528TIP3   OH2 1460   5.434   2.467   0.927
  528TIP3    H1 1461   5.367   2.489   0.860
  528TIP3    H2 1462   5.448   2.554   0.970
  529TIP3   OH2 1463   5.703   2.407   0.978
  529TIP3    H1 1464   5.609   2.424   0.959
  529TIP3    H2 1465   5.746   2.483   0.935
  530TIP3   OH2 1466   5.912   2.599   0.894
  530TIP3    H1 1467   5.897   2.684   0.847
  530TIP3    H2 1468   5.937   2.540   0.820
  531TIP3   OH2 1469   4.682   2.252   1.016
  531TIP3    H1 1470   4.710   2.230   1.107
  531TIP3    H2 1471   4.756   2.210   0.966
  532TIP3   OH2 1472   4.877   2.125   0.872
  532TIP3    H1 1473   4.895   2.041   0.921
  532TIP3    H2 1474   4.967   2.163   0.868
  533TIP3   OH2 1475   5.141   2.220   0.876
  533TIP3    H1 1476   5.176   2.130   0.863
  533TIP3    H2 1477   5.186   2.243   0.959
  534TIP3   OH2 1478   5.728   0.880   0.971
  534TIP3    H1 1479   5.675   0.824   1.030
  534TIP3    H2 1480   5.762   0.814   0.908
  535TIP3   OH2 1481   4.980   0.565   0.986
  535TIP3    H1 1482   4.896   0.524   0.963
  535TIP3    H2 1483   5.041   0.491   0.971
  536TIP3   OH2 1484   4.469   2.023   0.412
  536TIP3    H1 1485   4.388   1.991   0.369
  536TIP3    H2 1486   4.459   2.119   0.399
  537TIP3   OH2 1487   5.224   2.227  -0.010
  537TIP3    H1 1488   5.316   2.247  -0.040
  537TIP3    H2 1489   5.211   2.145  -0.063
  538TIP3   OH2 1490   5.954   2.330   0.093
  538TIP3    H1 1491   5.965   2.236   0.064
  538TIP3    H2 1492   5.913   2.366   0.012
  539TIP3   OH2 1493   5.176   0.865   1.868
  539TIP3    H1 1494   5.142   0.795   1.927
  539TIP3    H2 1495   5.270   0.867   1.896
  540TIP3   OH2 1496   5.424   0.865   1.988
  540TIP3    H1 1497   5.509   0.838   1.949
  540TIP3    H2 1498   5.411   0.796   2.057
  541TIP3   OH2 1499   4.551   2.038   0.076
  541TIP3    H1 1500   4.538   2.104   0.144
  541TIP3    H2 1501   4.646   2.032   0.069
  542TIP3   OH2 1502   6.247   0.926   1.778
  542TIP3    H1 1503   6.269   0.894   1.868
  542TIP3    H2 1504   6.333   0.918   1.732
  543TIP3   OH2 1505   6.188   2.476   1.273
  543TIP3    H1 1506   6.111   2.445   1.221
  543TIP3    H2 1507   6.170   2.573   1.272
  544TIP3   OH2 1508   6.721   2.168   0.519
  544TIP3    H1 1509   6.707   2.072   0.534
  544TIP3    H2 1510   6.817   2.170   0.503
  545TIP3   OH2 1511   7.375   2.572   0.122
  545TIP3    H1 1512   7.354   2.478   0.109
  545TIP3    H2 1513   7.345   2.582   0.214
  546TIP3   OH2 1514   7.104   1.999   0.700
  546TIP3    H1 1515   7.029   2.047   0.740
  546TIP3    H2 1516   7.142   2.068   0.645
  547TIP3   OH2 1517   6.930   2.190   0.791
  547TIP3    H1 1518   6.902   2.276   0.755
  547TIP3    H2 1519   6.852   2.170   0.847
  548TIP3   OH2 1520   7.942   2.310   0.621
  548TIP3    H1 1521   7.877   2.265   0.563
  548TIP3    H2 1522   7.931   2.403   0.592
  549TIP3   OH2 1523   6.989   2.174   0.409
  549TIP3    H1 1524   6.974   2.154   0.315
  549TIP3    H2 1525   7.084   2.188   0.411
  550TIP3   OH2 1526   7.460   2.402   0.373
  550TIP3    H1 1527   7.497   2.486   0.403
  550TIP3    H2 1528   7.500   2.340   0.436
  551TIP3   OH2 1529   7.138   2.308   0.934
  551TIP3    H1 1530   7.078   2.371   0.979
  551TIP3    H2 1531   7.072   2.254   0.885
  552TIP3   OH2 1532   6.922   1.876   1.027
  552TIP3    H1 1533   6.878   1.948   1.074
  552TIP3    H2 1534   6.849   1.814   1.004
  553TIP3   OH2 1535   6.935   2.479   1.020
  553TIP3    H1 1536   6.900   2.478   0.929
  553TIP3    H2 1537   6.855   2.457   1.072
  554TIP3   OH2 1538   6.517   1.984   0.974
  554TIP3    H1 1539   6.449   1.985   0.904
  554TIP3    H2 1540   6.545   1.891   0.973
  555TIP3   OH2 1541   6.368   2.197   0.608
  555TIP3    H1 1542   6.463   2.200   0.589
  555TIP3    H2 1543   6.354   2.281   0.652
  556TIP3   OH2 1544   8.234   2.664   0.657
  556TIP3    H1 1545   8.232   2.566   0.665
  556TIP3    H2 1546   8.148   2.685   0.699
  557TIP3   OH2 1547   7.337   2.435   0.794
  557TIP3    H1 1548   7.339   2.528   0.824
  557TIP3    H2 1549   7.263   2.399   0.848
  558TIP3   OH2 1550   6.527   2.426   0.133
  558TIP3    H1 1551   6.573   2.411   0.219
  558TIP3    H2 1552   6.474   2.343   0.128
  559TIP3   OH2 1553   6.713   2.187   0.957
  559TIP3    H1 1554   6.767   2.174   1.037
  559TIP3    H2 1555   6.646   2.116   0.966
  560TIP3   OH2 1556   7.605   1.801   1.101
  560TIP3    H1 1557   7.579   1.718   1.147
  560TIP3    H2 1558   7.701   1.798   1.110
  561TIP3   OH2 1559   7.923   3.000   0.757
  561TIP3    H1 1560   7.917   3.022   0.662
  561TIP3    H2 1561   7.995   3.058   0.786
  562TIP3   OH2 1562   6.872   2.125   1.178
  562TIP3    H1 1563   6.957   2.144   1.222
  562TIP3    H2 1564   6.813   2.119   1.255
  563TIP3   OH2 1565   7.466   2.184   0.817
  563TIP3    H1 1566   7.465   2.144   0.905
  563TIP3    H2 1567   7.409   2.263   0.828
  564TIP3   OH2 1568   6.751   1.884   0.532
  564TIP3    H1 1569   6.841   1.892   0.500
  564TIP3    H2 1570   6.762   1.827   0.609
  565TIP3   OH2 1571   7.354   1.911   1.128
  565TIP3    H1 1572   7.301   1.868   1.059
  565TIP3    H2 1573   7.444   1.877   1.106
  566TIP3   OH2 1574   7.637   2.479   0.707
  566TIP3    H1 1575   7.547   2.444   0.701
  566TIP3    H2 1576   7.640   2.514   0.799
  567TIP3   OH2 1577   8.243   2.389   0.695
  567TIP3    H1 1578   8.159   2.366   0.739
  567TIP3    H2 1579   8.239   2.331   0.615
  568TIP3   OH2 1580   6.788   2.213   0.132
  568TIP3    H1 1581   6.785   2.288   0.069
  568TIP3    H2 1582   6.695   2.184   0.130
  569TIP3   OH2 1583   7.119   2.520   0.585
  569TIP3    H1 1584   7.159   2.593   0.534
  569TIP3    H2 1585   7.197   2.487   0.633
  570TIP3   OH2 1586   6.738   2.423  -0.040
  570TIP3    H1 1587   6.657   2.436   0.013
  570TIP3    H2 1588   6.780   2.510  -0.036
  571TIP3   OH2 1589   7.558   2.224   0.565
  571TIP3    H1 1590   7.517   2.207   0.652
  571TIP3    H2 1591   7.633   2.161   0.567
  572TIP3   OH2 1592   7.766   2.699   0.594
  572TIP3    H1 1593   7.697   2.630   0.603
  572TIP3    H2 1594   7.732   2.755   0.521
  573TIP3   OH2 1595   6.887   1.290   1.134
  573TIP3    H1 1596   6.817   1.347   1.100
  573TIP3    H2 1597   6.835   1.220   1.178
  574TIP3   OH2 1598   6.558   2.388   0.748
  574TIP3    H1 1599   6.608   2.310   0.776
  574TIP3    H2 1600   6.591   2.455   0.809
  575TIP3   OH2 1601   7.786   2.686   0.195
  575TIP3    H1 1602   7.737   2.737   0.126
  575TIP3    H2 1603   7.877   2.702   0.165
  576TIP3   OH2 1604   6.412   2.176   0.126
  576TIP3    H1 1605   6.316   2.184   0.139
  576TIP3    H2 1606   6.414   2.174   0.029
  577TIP3   OH2 1607   6.546   2.693   1.169
  577TIP3    H1 1608   6.634   2.691   1.212
  577TIP3    H2 1609   6.526   2.598   1.163
  578TIP3   OH2 1610   7.031   2.661   1.211
  578TIP3    H1 1611   7.125   2.639   1.217
  578TIP3    H2 1612   7.004   2.602   1.137
  579TIP3   OH2 1613   7.664   2.576   0.961
  579TIP3    H1 1614   7.658   2.501   1.024
  579TIP3    H2 1615   7.745   2.621   0.990
  580TIP3   OH2 1616   6.677   2.103   1.373
  580TIP3    H1 1617   6.709   2.010   1.373
  580TIP3    H2 1618   6.593   2.096   1.324
  581TIP3   OH2 1619   7.286   2.184   1.141
  581TIP3    H1 1620   7.241   2.198   1.055
  581TIP3    H2 1621   7.315   2.091   1.135
  582TIP3   OH2 1622   7.764   2.201   0.808
  582TIP3    H1 1623   7.823   2.263   0.761
  582TIP3    H2 1624   7.677   2.239   0.789
  583TIP3   OH2 1625   6.804   1.850   1.375
  583TIP3    H1 1626   6.831   1.796   1.299
  583TIP3    H2 1627   6.740   1.792   1.419
  584TIP3   OH2 1628   7.122   1.692   1.015
  584TIP3    H1 1629   7.038   1.743   1.023
  584TIP3    H2 1630   7.170   1.749   0.952
  585TIP3   OH2 1631   7.654   2.122   1.147
  585TIP3    H1 1632   7.727   2.087   1.093
  585TIP3    H2 1633   7.641   2.050   1.211
  586TIP3   OH2 1634   7.274   1.537   1.168
  586TIP3    H1 1635   7.247   1.454   1.126
  586TIP3    H2 1636   7.226   1.601   1.110
  587TIP3   OH2 1637   7.265   1.847   0.852
  587TIP3    H1 1638   7.338   1.851   0.787
  587TIP3    H2 1639   7.197   1.899   0.802
  588TIP3   OH2 1640   7.875   1.790   1.183
  588TIP3    H1 1641   7.906   1.728   1.253
  588TIP3    H2 1642   7.938   1.863   1.191
  589TIP3   OH2 1643   7.900   2.040   0.973
  589TIP3    H1 1644   7.834   2.087   0.917
  589TIP3    H2 1645   7.974   2.038   0.909
  590TIP3   OH2 1646   7.127   1.628   1.385
  590TIP3    H1 1647   7.062   1.554   1.384
  590TIP3    H2 1648   7.167   1.619   1.296
  591TIP3   OH2 1649   7.527   1.589   1.257
  591TIP3    H1 1650   7.498   1.576   1.348
  591TIP3    H2 1651   7.443   1.569   1.210
  592TIP3   OH2 1652   6.972   1.410   1.428
  592TIP3    H1 1653   6.962   1.321   1.387
  592TIP3    H2 1654   7.008   1.383   1.515
  593TIP3   OH2 1655   7.560   1.300   1.436
  593TIP3    H1 1656   7.572   1.269   1.346
  593TIP3    H2 1657   7.481   1.360   1.430
  594TIP3   OH2 1658   6.161   2.509   0.157
  594TIP3    H1 1659   6.099   2.443   0.120
  594TIP3    H2 1660   6.209   2.453   0.222
  595TIP3   OH2 1661   6.291   2.370   0.351
  595TIP3    H1 1662   6.293   2.284   0.395
  595TIP3    H2 1663   6.351   2.423   0.408
  596TIP3   OH2 1664   8.055   2.777   0.155
  596TIP3    H1 1665   8.060   2.808   0.247
  596TIP3    H2 1666   8.099   2.851   0.109
  597TIP3   OH2 1667   8.063   2.787   0.435
  597TIP3    H1 1668   8.018   2.700   0.430
  597TIP3    H2 1669   8.141   2.762   0.485
  598TIP3   OH2 1670   8.106   2.454   0.996
  598TIP3    H1 1671   8.032   2.459   1.060
  598TIP3    H2 1672   8.143   2.545   1.003
  599TIP3   OH2 1673   7.948   2.540   0.469
  599TIP3    H1 1674   7.879   2.594   0.513
  599TIP3    H2 1675   7.893   2.496   0.399
  600TIP3   OH2 1676   6.493   1.770   0.711
  600TIP3    H1 1677   6.491   1.707   0.637
  600TIP3    H2 1678   6.579   1.748   0.752
  601TIP3   OH2 1679   6.704   1.453   1.392
  601TIP3    H1 1680   6.801   1.442   1.384
  601TIP3    H2 1681   6.681   1.368   1.434
  602TIP3   OH2 1682   6.482   1.392   0.804
  602TIP3    H1 1683   6.503   1.406   0.709
  602TIP3    H2 1684   6.542   1.458   0.843
  603TIP3   OH2 1685   6.714   2.434   1.182
  603TIP3    H1 1686   6.624   2.399   1.166
  603TIP3    H2 1687   6.729   2.411   1.274
  604TIP3   OH2 1688   6.891   2.461   0.737
  604TIP3    H1 1689   6.842   2.534   0.696
  604TIP3    H2 1690   6.977   2.474   0.691
  605TIP3   OH2 1691   7.338   2.703   0.873
  605TIP3    H1 1692   7.379   2.706   0.962
  605TIP3    H2 1693   7.403   2.754   0.820
  606TIP3   OH2 1694   7.515   2.855   0.731
  606TIP3    H1 1695   7.585   2.804   0.687
  606TIP3    H2 1696   7.568   2.912   0.790
  607TIP3   OH2 1697   6.570   2.717   0.758
  607TIP3    H1 1698   6.482   2.751   0.731
  607TIP3    H2 1699   6.574   2.751   0.848
  608TIP3   OH2 1700   6.807   2.696   0.616
  608TIP3    H1 1701   6.720   2.709   0.660
  608TIP3    H2 1702   6.786   2.728   0.525
  609TIP3   OH2 1703   7.236   2.727   0.406
  609TIP3    H1 1704   7.158   2.744   0.350
  609TIP3    H2 1705   7.246   2.813   0.451
  610TIP3   OH2 1706   7.504   2.668   0.455
  610TIP3    H1 1707   7.408   2.681   0.442
  610TIP3    H2 1708   7.541   2.751   0.421
  611TIP3   OH2 1709   7.705   2.868   0.383
  611TIP3    H1 1710   7.693   2.950   0.332
  611TIP3    H2 1711   7.733   2.805   0.313
  612TIP3   OH2 1712   6.477   2.513   0.508
  612TIP3    H1 1713   6.506   2.486   0.598
  612TIP3    H2 1714   6.549   2.471   0.455
  613TIP3   OH2 1715   6.669   2.391   0.363
  613TIP3    H1 1716   6.687   2.305   0.406
  613TIP3    H2 1717   6.760   2.425   0.351
  614TIP3   OH2 1718   6.937   2.485   0.360
  614TIP3    H1 1719   6.969   2.397   0.336
  614TIP3    H2 1720   6.980   2.498   0.446
  615TIP3   OH2 1721   6.275   2.282  -0.092
  615TIP3    H1 1722   6.205   2.230  -0.133
  615TIP3    H2 1723   6.256   2.371  -0.129
  616TIP3   OH2 1724   6.953   1.138   1.412
  616TIP3    H1 1725   6.929   1.053   1.450
  616TIP3    H2 1726   7.027   1.113   1.353
  617TIP3   OH2 1727   7.245   1.126   1.489
  617TIP3    H1 1728   7.292   1.059   1.440
  617TIP3    H2 1729   7.210   1.074   1.564
  618TIP3   OH2 1730   7.987   2.733   0.759
  618TIP3    H1 1731   7.908   2.704   0.708
  618TIP3    H2 1732   7.969   2.829   0.762
  619TIP3   OH2 1733   8.339   2.946   0.653
  619TIP3    H1 1734   8.427   2.936   0.695
  619TIP3    H2 1735   8.308   2.854   0.648
  620TIP3   OH2 1736   8.457   2.354   0.864
  620TIP3    H1 1737   8.440   2.258   0.861
  620TIP3    H2 1738   8.380   2.383   0.809
  621TIP3   OH2 1739   8.505   2.636   0.694
  621TIP3    H1 1740   8.414   2.645   0.661
  621TIP3    H2 1741   8.495   2.661   0.786
  622TIP3   OH2 1742   8.352   2.980   0.219
  622TIP3    H1 1743   8.266   3.027   0.220
  622TIP3    H2 1744   8.380   2.992   0.310
  623TIP3   OH2 1745   0.693   3.445   2.367
  623TIP3    H1 1746   0.665   3.353   2.351
  623TIP3    H2 1747   0.611   3.481   2.406
  624TIP3   OH2 1748   0.371   3.787   2.444
  624TIP3    H1 1749   0.370   3.803   2.348
  624TIP3    H2 1750   0.454   3.833   2.471
  625TIP3   OH2 1751   0.567   3.248   2.700
  625TIP3    H1 1752   0.489   3.257   2.759
  625TIP3    H2 1753   0.606   3.337   2.704
  626TIP3   OH2 1754   0.443   3.523   2.447
  626TIP3    H1 1755   0.356   3.487   2.468
  626TIP3    H2 1756   0.425   3.620   2.455
  627TIP3   OH2 1757   1.951   3.186   1.275
  627TIP3    H1 1758   1.938   3.125   1.347
  627TIP3    H2 1759   1.974   3.268   1.322
  628TIP3   OH2 1760   1.601   3.664   1.293
  628TIP3    H1 1761   1.641   3.586   1.248
  628TIP3    H2 1762   1.562   3.624   1.372
  629TIP3   OH2 1763   1.533   3.142   1.663
  629TIP3    H1 1764   1.543   3.119   1.570
  629TIP3    H2 1765   1.624   3.171   1.685
  630TIP3   OH2 1766   2.526   2.435   1.632
  630TIP3    H1 1767   2.546   2.513   1.688
  630TIP3    H2 1768   2.508   2.478   1.547
  631TIP3   OH2 1769   2.580   2.644   1.801
  631TIP3    H1 1770   2.497   2.695   1.794
  631TIP3    H2 1771   2.607   2.665   1.891
  632TIP3   OH2 1772   1.394   3.059   1.991
  632TIP3    H1 1773   1.303   3.090   1.970
  632TIP3    H2 1774   1.446   3.121   1.938
  633TIP3   OH2 1775   1.177   3.239   1.978
  633TIP3    H1 1776   1.157   3.323   1.931
  633TIP3    H2 1777   1.101   3.236   2.040
  634TIP3   OH2 1778   2.020   3.439   1.439
  634TIP3    H1 1779   1.932   3.427   1.482
  634TIP3    H2 1780   2.007   3.527   1.398
  635TIP3   OH2 1781   2.327   2.351   1.814
  635TIP3    H1 1782   2.232   2.363   1.798
  635TIP3    H2 1783   2.367   2.382   1.731
  636TIP3   OH2 1784   1.735   3.482   1.133
  636TIP3    H1 1785   1.808   3.419   1.127
  636TIP3    H2 1786   1.768   3.553   1.072
  637TIP3   OH2 1787   2.240   3.361   1.792
  637TIP3    H1 1788   2.238   3.280   1.736
  637TIP3    H2 1789   2.226   3.431   1.726
  638TIP3   OH2 1790   2.444   2.986   1.628
  638TIP3    H1 1791   2.364   3.041   1.641
  638TIP3    H2 1792   2.469   3.014   1.537
  639TIP3   OH2 1793   2.147   2.876   1.936
  639TIP3    H1 1794   2.132   2.962   1.979
  639TIP3    H2 1795   2.058   2.861   1.895
  640TIP3   OH2 1796   1.783   3.433   1.565
  640TIP3    H1 1797   1.761   3.514   1.614
  640TIP3    H2 1798   1.772   3.363   1.631
  641TIP3   OH2 1799   1.390   3.355   2.110
  641TIP3    H1 1800   1.330   3.417   2.156
  641TIP3    H2 1801   1.324   3.301   2.062
  642TIP3   OH2 1802   1.105   2.944   2.186
  642TIP3    H1 1803   1.130   3.022   2.240
  642TIP3    H2 1804   1.029   2.909   2.238
  643TIP3   OH2 1805   1.185   3.521   2.199
  643TIP3    H1 1806   1.150   3.524   2.107
  643TIP3    H2 1807   1.104   3.499   2.251
  644TIP3   OH2 1808   2.478   3.695   1.828
  644TIP3    H1 1809   2.481   3.599   1.847
  644TIP3    H2 1810   2.397   3.721   1.877
  645TIP3   OH2 1811   1.590   3.483   1.970
  645TIP3    H1 1812   1.588   3.576   2.001
  645TIP3    H2 1813   1.516   3.444   2.022
  646TIP3   OH2 1814   2.365   2.831   2.105
  646TIP3    H1 1815   2.288   2.841   2.046
  646TIP3    H2 1816   2.383   2.735   2.100
  647TIP3   OH2 1817   0.972   3.240   2.155
  647TIP3    H1 1818   1.032   3.233   2.233
  647TIP3    H2 1819   0.916   3.163   2.166
  648TIP3   OH2 1820   2.144   2.601   2.029
  648TIP3    H1 1821   2.094   2.594   2.114
  648TIP3    H2 1822   2.117   2.688   1.997
  649TIP3   OH2 1823   1.853   2.833   2.268
  649TIP3    H1 1824   1.827   2.756   2.322
  649TIP3    H2 1825   1.949   2.837   2.287
  650TIP3   OH2 1826   1.898   2.817   1.855
  650TIP3    H1 1827   1.847   2.774   1.785
  650TIP3    H2 1828   1.827   2.832   1.919
  651TIP3   OH2 1829   2.170   4.048   1.932
  651TIP3    H1 1830   2.177   4.066   1.837
  651TIP3    H2 1831   2.251   4.091   1.966
  652TIP3   OH2 1832   1.133   3.161   2.362
  652TIP3    H1 1833   1.212   3.193   2.410
  652TIP3    H2 1834   1.066   3.164   2.433
  653TIP3   OH2 1835   2.226   3.146   1.631
  653TIP3    H1 1836   2.246   3.193   1.547
  653TIP3    H2 1837   2.139   3.105   1.611
  654TIP3   OH2 1838   1.705   3.221   1.985
  654TIP3    H1 1839   1.716   3.189   2.075
  654TIP3    H2 1840   1.666   3.309   1.996
  655TIP3   OH2 1841   1.605   2.948   2.307
  655TIP3    H1 1842   1.569   2.922   2.220
  655TIP3    H2 1843   1.697   2.918   2.290
  656TIP3   OH2 1844   1.867   3.477   1.885
  656TIP3    H1 1845   1.770   3.474   1.898
  656TIP3    H2 1846   1.894   3.527   1.965
  657TIP3   OH2 1847   2.493   3.403   1.876
  657TIP3    H1 1848   2.395   3.399   1.868
  657TIP3    H2 1849   2.518   3.373   1.786
  658TIP3   OH2 1850   2.000   3.019   1.559
  658TIP3    H1 1851   1.907   2.998   1.543
  658TIP3    H2 1852   2.038   2.929   1.544
  659TIP3   OH2 1853   1.371   3.559   1.776
  659TIP3    H1 1854   1.398   3.633   1.718
  659TIP3    H2 1855   1.455   3.537   1.821
  660TIP3   OH2 1856   1.790   3.202   1.726
  660TIP3    H1 1857   1.765   3.203   1.822
  660TIP3    H2 1858   1.878   3.162   1.730
  661TIP3   OH2 1859   2.004   3.737   1.769
  661TIP3    H1 1860   1.926   3.678   1.766
  661TIP3    H2 1861   1.982   3.802   1.701
  662TIP3   OH2 1862   0.802   3.423   1.938
  662TIP3    H1 1863   0.861   3.347   1.942
  662TIP3    H2 1864   0.847   3.487   1.994
  663TIP3   OH2 1865   1.911   2.438   1.977
  663TIP3    H1 1866   2.004   2.450   1.998
  663TIP3    H2 1867   1.898   2.343   1.986
  664TIP3   OH2 1868   1.736   2.630   2.082
  664TIP3    H1 1869   1.777   2.705   2.128
  664TIP3    H2 1870   1.813   2.576   2.054
  665TIP3   OH2 1871   2.410   2.561   2.026
  665TIP3    H1 1872   2.312   2.560   2.036
  665TIP3    H2 1873   2.418   2.518   1.941
  666TIP3   OH2 1874   2.067   2.748   1.519
  666TIP3    H1 1875   2.032   2.681   1.458
  666TIP3    H2 1876   2.155   2.709   1.533
  667TIP3   OH2 1877   2.027   3.713   1.370
  667TIP3    H1 1878   1.981   3.760   1.297
  667TIP3    H2 1879   2.120   3.729   1.345
  668TIP3   OH2 1880   0.797   3.738   2.346
  668TIP3    H1 1881   0.882   3.734   2.394
  668TIP3    H2 1882   0.774   3.644   2.340
  669TIP3   OH2 1883   1.278   3.706   2.387
  669TIP3    H1 1884   1.373   3.687   2.396
  669TIP3    H2 1885   1.254   3.646   2.314
  670TIP3   OH2 1886   1.922   3.609   2.119
  670TIP3    H1 1887   1.910   3.541   2.189
  670TIP3    H2 1888   1.998   3.660   2.153
  671TIP3   OH2 1889   0.924   3.137   2.537
  671TIP3    H1 1890   0.942   3.043   2.554
  671TIP3    H2 1891   0.827   3.137   2.532
  672TIP3   OH2 1892   1.538   3.226   2.315
  672TIP3    H1 1893   1.491   3.242   2.230
  672TIP3    H2 1894   1.563   3.132   2.309
  673TIP3   OH2 1895   2.028   3.236   1.923
  673TIP3    H1 1896   2.103   3.283   1.882
  673TIP3    H2 1897   1.957   3.303   1.913
  674TIP3   OH2 1898   1.045   2.866   2.553
  674TIP3    H1 1899   1.114   2.799   2.562
  674TIP3    H2 1900   1.063   2.918   2.634
  675TIP3   OH2 1901   1.908   3.168   2.326
  675TIP3    H1 1902   1.966   3.126   2.261
  675TIP3    H2 1903   1.896   3.096   2.391
  676TIP3   OH2 1904   1.590   2.886   2.047
  676TIP3    H1 1905   1.611   2.841   1.963
  676TIP3    H2 1906   1.513   2.943   2.021
  677TIP3   OH2 1907   2.121   2.842   2.373
  677TIP3    H1 1908   2.159   2.757   2.400
  677TIP3    H2 1909   2.193   2.879   2.319
  678TIP3   OH2 1910   2.156   3.105   2.124
  678TIP3    H1 1911   2.097   3.154   2.061
  678TIP3    H2 1912   2.242   3.118   2.077
  679TIP3   OH2 1913   1.775   2.612   2.408
  679TIP3    H1 1914   1.769   2.605   2.505
  679TIP3    H2 1915   1.699   2.559   2.381
  680TIP3   OH2 1916   2.012   2.560   2.260
  680TIP3    H1 1917   1.934   2.560   2.319
  680TIP3    H2 1918   2.083   2.526   2.318
  681TIP3   OH2 1919   2.236   2.492   2.408
  681TIP3    H1 1920   2.248   2.398   2.432
  681TIP3    H2 1921   2.231   2.536   2.496
  682TIP3   OH2 1922   1.163   2.422   2.619
  682TIP3    H1 1923   1.227   2.376   2.563
  682TIP3    H2 1924   1.212   2.425   2.704
  683TIP3   OH2 1925   1.745   2.099   2.488
  683TIP3    H1 1926   1.809   2.039   2.443
  683TIP3    H2 1927   1.684   2.122   2.415
  684TIP3   OH2 1928   1.804   2.338   2.606
  684TIP3    H1 1929   1.790   2.253   2.558
  684TIP3    H2 1930   1.718   2.381   2.595
  685TIP3   OH2 1931   2.284   3.795   1.322
  685TIP3    H1 1932   2.304   3.833   1.409
  685TIP3    H2 1933   2.324   3.860   1.262
  686TIP3   OH2 1934   2.310   3.822   1.604
  686TIP3    H1 1935   2.266   3.734   1.600
  686TIP3    H2 1936   2.383   3.800   1.663
  687TIP3   OH2 1937   2.360   3.479   2.195
  687TIP3    H1 1938   2.278   3.503   2.243
  687TIP3    H2 1939   2.401   3.566   2.182
  688TIP3   OH2 1940   2.355   3.274   1.429
  688TIP3    H1 1941   2.403   3.206   1.379
  688TIP3    H2 1942   2.335   3.341   1.361
  689TIP3   OH2 1943   2.183   3.573   1.624
  689TIP3    H1 1944   2.113   3.610   1.680
  689TIP3    H2 1945   2.132   3.523   1.557
  690TIP3   OH2 1946   2.392   3.158   2.002
  690TIP3    H1 1947   2.469   3.098   2.005
  690TIP3    H2 1948   2.428   3.237   1.961
  691TIP3   OH2 1949   2.586   2.974   2.042
  691TIP3    H1 1950   2.509   2.922   2.075
  691TIP3    H2 1951   2.656   2.905   2.047
  692TIP3   OH2 1952   2.300   2.618   1.554
  692TIP3    H1 1953   2.379   2.651   1.506
  692TIP3    H2 1954   2.313   2.662   1.641
  693TIP3   OH2 1955   2.343   2.774   1.771
  693TIP3    H1 1956   2.269   2.809   1.825
  693TIP3    H2 1957   2.373   2.854   1.724
  694TIP3   OH2 1958   2.793   2.363   2.324
  694TIP3    H1 1959   2.849   2.296   2.280
  694TIP3    H2 1960   2.763   2.418   2.249
  695TIP3   OH2 1961   2.661   2.504   2.133
  695TIP3    H1 1962   2.573   2.543   2.149
  695TIP3    H2 1963   2.636   2.432   2.072
  696TIP3   OH2 1964   1.866   3.673   0.985
  696TIP3    H1 1965   1.899   3.648   0.896
  696TIP3    H2 1966   1.927   3.743   1.010
  697TIP3   OH2 1967   0.967   3.469   2.373
  697TIP3    H1 1968   0.871   3.451   2.362
  697TIP3    H2 1969   0.976   3.453   2.469
  698TIP3   OH2 1970   1.139   3.505   1.920
  698TIP3    H1 1971   1.082   3.556   1.859
  698TIP3    H2 1972   1.225   3.524   1.877
  699TIP3   OH2 1973   1.589   3.749   2.047
  699TIP3    H1 1974   1.629   3.751   2.136
  699TIP3    H2 1975   1.653   3.802   1.996
  700TIP3   OH2 1976   1.770   3.902   1.906
  700TIP3    H1 1977   1.840   3.843   1.875
  700TIP3    H2 1978   1.819   3.957   1.971
  701TIP3   OH2 1979   2.567   2.272   2.006
  701TIP3    H1 1980   2.477   2.269   1.968
  701TIP3    H2 1981   2.593   2.177   2.000
  702TIP3   OH2 1982   0.814   3.770   1.915
  702TIP3    H1 1983   0.723   3.808   1.913
  702TIP3    H2 1984   0.837   3.784   2.008
  703TIP3   OH2 1985   1.069   3.757   1.797
  703TIP3    H1 1986   0.981   3.763   1.841
  703TIP3    H2 1987   1.042   3.757   1.704
  704TIP3   OH2 1988   1.487   3.767   1.591
  704TIP3    H1 1989   1.413   3.782   1.528
  704TIP3    H2 1990   1.494   3.855   1.631
  705TIP3   OH2 1991   1.750   3.710   1.640
  705TIP3    H1 1992   1.653   3.716   1.627
  705TIP3    H2 1993   1.779   3.788   1.592
  706TIP3   OH2 1994   1.967   3.919   1.538
  706TIP3    H1 1995   1.939   3.963   1.457
  706TIP3    H2 1996   1.994   3.834   1.499
  707TIP3   OH2 1997   1.230   3.567   1.524
  707TIP3    H1 1998   1.228   3.491   1.462
  707TIP3    H2 1999   1.258   3.526   1.608
  708TIP3   OH2 2000   1.991   3.633   0.734
  708TIP3    H1 2001   1.989   3.539   0.710
  708TIP3    H2 2002   1.951   3.673   0.654
  709TIP3   OH2 2003   1.468   2.194   2.659
  709TIP3    H1 2004   1.516   2.150   2.588
  709TIP3    H2 2005   1.453   2.120   2.723
  710TIP3   OH2 2006   2.295   2.224   2.443
  710TIP3    H1 2007   2.314   2.196   2.535
  710TIP3    H2 2008   2.384   2.220   2.402
  711TIP3   OH2 2009   2.234   3.780   1.932
  711TIP3    H1 2010   2.155   3.747   1.886
  711TIP3    H2 2011   2.214   3.875   1.938
  712TIP3   OH2 2012   3.501   3.153   0.708
  712TIP3    H1 2013   3.471   3.243   0.685
  712TIP3    H2 2014   3.432   3.102   0.662
  713TIP3   OH2 2015   3.486   3.156   1.085
  713TIP3    H1 2016   3.527   3.122   1.167
  713TIP3    H2 2017   3.460   3.074   1.039
  714TIP3   OH2 2018   2.800   3.052   1.441
  714TIP3    H1 2019   2.826   2.987   1.508
  714TIP3    H2 2020   2.884   3.097   1.427
  715TIP3   OH2 2021   3.740   3.453   0.762
  715TIP3    H1 2022   3.731   3.380   0.825
  715TIP3    H2 2023   3.773   3.525   0.818
  716TIP3   OH2 2024   2.576   2.957   1.132
  716TIP3    H1 2025   2.600   2.867   1.161
  716TIP3    H2 2026   2.573   2.947   1.036
  717TIP3   OH2 2027   3.390   3.914   0.780
  717TIP3    H1 2028   3.433   3.844   0.726
  717TIP3    H2 2029   3.394   3.875   0.868
  718TIP3   OH2 2030   3.297   3.374   1.127
  718TIP3    H1 2031   3.339   3.295   1.088
  718TIP3    H2 2032   3.379   3.423   1.149
  719TIP3   OH2 2033   4.309   2.695   1.126
  719TIP3    H1 2034   4.338   2.777   1.170
  719TIP3    H2 2035   4.335   2.714   1.034
  720TIP3   OH2 2036   3.706   2.877   1.160
  720TIP3    H1 2037   3.749   2.793   1.183
  720TIP3    H2 2038   3.679   2.860   1.068
  721TIP3   OH2 2039   3.019   2.512   1.166
  721TIP3    H1 2040   3.017   2.594   1.112
  721TIP3    H2 2041   3.005   2.450   1.093
  722TIP3   OH2 2042   3.741   2.628   0.751
  722TIP3    H1 2043   3.814   2.612   0.814
  722TIP3    H2 2044   3.791   2.662   0.675
  723TIP3   OH2 2045   2.697   2.728   1.246
  723TIP3    H1 2046   2.789   2.759   1.242
  723TIP3    H2 2047   2.696   2.669   1.165
  724TIP3   OH2 2048   3.122   2.942   1.026
  724TIP3    H1 2049   3.216   2.916   1.038
  724TIP3    H2 2050   3.088   2.860   0.983
  725TIP3   OH2 2051   4.381   2.899   1.301
  725TIP3    H1 2052   4.300   2.950   1.282
  725TIP3    H2 2053   4.409   2.938   1.385
  726TIP3   OH2 2054   3.385   3.367   0.576
  726TIP3    H1 2055   3.359   3.348   0.485
  726TIP3    H2 2056   3.345   3.455   0.591
  727TIP3   OH2 2057   3.147   3.293   1.353
  727TIP3    H1 2058   3.089   3.361   1.393
  727TIP3    H2 2059   3.198   3.344   1.287
  728TIP3   OH2 2060   3.954   2.629   0.920
  728TIP3    H1 2061   3.944   2.582   1.003
  728TIP3    H2 2062   4.009   2.705   0.946
  729TIP3   OH2 2063   2.973   3.490   1.446
  729TIP3    H1 2064   2.952   3.582   1.421
  729TIP3    H2 2065   2.899   3.473   1.508
  730TIP3   OH2 2066   2.360   3.194   0.702
  730TIP3    H1 2067   2.392   3.169   0.614
  730TIP3    H2 2068   2.417   3.268   0.725
  731TIP3   OH2 2069   3.812   3.696   0.935
  731TIP3    H1 2070   3.721   3.687   0.969
  731TIP3    H2 2071   3.805   3.780   0.885
  732TIP3   OH2 2072   4.104   2.594   1.293
  732TIP3    H1 2073   4.017   2.624   1.262
  732TIP3    H2 2074   4.164   2.627   1.222
  733TIP3   OH2 2075   3.398   2.234   1.265
  733TIP3    H1 2076   3.397   2.139   1.288
  733TIP3    H2 2077   3.341   2.270   1.334
  734TIP3   OH2 2078   3.510   3.742   0.602
  734TIP3    H1 2079   3.560   3.659   0.582
  734TIP3    H2 2080   3.573   3.807   0.562
  735TIP3   OH2 2081   3.650   3.527   0.511
  735TIP3    H1 2082   3.636   3.447   0.459
  735TIP3    H2 2083   3.687   3.490   0.594
  736TIP3   OH2 2084   4.037   3.611   1.272
  736TIP3    H1 2085   4.030   3.532   1.215
  736TIP3    H2 2086   4.025   3.683   1.207
  737TIP3   OH2 2087   3.337   3.020   0.536
  737TIP3    H1 2088   3.249   3.048   0.506
  737TIP3    H2 2089   3.377   2.992   0.452
  738TIP3   OH2 2090   3.297   2.797   0.355
  738TIP3    H1 2091   3.382   2.840   0.337
  738TIP3    H2 2092   3.311   2.711   0.313
  739TIP3   OH2 2093   4.232   3.241   1.116
  739TIP3    H1 2094   4.152   3.297   1.121
  739TIP3    H2 2095   4.265   3.266   1.027
  740TIP3   OH2 2096   3.680   3.089   0.508
  740TIP3    H1 2097   3.626   3.112   0.587
  740TIP3    H2 2098   3.763   3.060   0.550
  741TIP3   OH2 2099   3.914   3.121   1.416
  741TIP3    H1 2100   3.912   3.205   1.466
  741TIP3    H2 2101   3.828   3.127   1.369
  742TIP3   OH2 2102   2.913   3.089   0.912
  742TIP3    H1 2103   2.866   3.028   0.849
  742TIP3    H2 2104   2.987   3.031   0.941
  743TIP3   OH2 2105   3.019   3.436   1.035
  743TIP3    H1 2106   3.090   3.392   0.985
  743TIP3    H2 2107   3.075   3.488   1.095
  744TIP3   OH2 2108   3.049   3.042   1.279
  744TIP3    H1 2109   3.081   3.018   1.190
  744TIP3    H2 2110   3.095   3.126   1.297
  745TIP3   OH2 2111   3.566   3.693   1.050
  745TIP3    H1 2112   3.559   3.771   1.106
  745TIP3    H2 2113   3.557   3.618   1.112
  746TIP3   OH2 2114   3.184   3.611   1.594
  746TIP3    H1 2115   3.127   3.673   1.645
  746TIP3    H2 2116   3.116   3.557   1.550
  747TIP3   OH2 2117   3.531   2.941   0.333
  747TIP3    H1 2118   3.586   3.005   0.384
  747TIP3    H2 2119   3.556   2.965   0.240
  748TIP3   OH2 2120   2.934   3.171   1.695
  748TIP3    H1 2121   2.940   3.256   1.744
  748TIP3    H2 2122   2.840   3.150   1.710
  749TIP3   OH2 2123   3.255   3.629   0.616
  749TIP3    H1 2124   3.340   3.676   0.620
  749TIP3    H2 2125   3.200   3.689   0.562
  750TIP3   OH2 2126   2.978   3.776   1.684
  750TIP3    H1 2127   2.937   3.777   1.596
  750TIP3    H2 2128   2.901   3.757   1.743
  751TIP3   OH2 2129   4.039   2.184   0.373
  751TIP3    H1 2130   3.957   2.200   0.425
  751TIP3    H2 2131   4.047   2.269   0.326
  752TIP3   OH2 2132   2.757   2.938   0.741
  752TIP3    H1 2133   2.688   2.955   0.675
  752TIP3    H2 2134   2.746   2.843   0.756
  753TIP3   OH2 2135   3.834   3.556  -0.077
  753TIP3    H1 2136   3.845   3.651  -0.095
  753TIP3    H2 2137   3.925   3.522  -0.087
  754TIP3   OH2 2138   2.558   3.308   1.630
  754TIP3    H1 2139   2.490   3.285   1.563
  754TIP3    H2 2140   2.594   3.220   1.656
  755TIP3   OH2 2141   2.408   3.510   1.260
  755TIP3    H1 2142   2.500   3.506   1.288
  755TIP3    H2 2143   2.376   3.585   1.311
  756TIP3   OH2 2144   4.272   3.943   1.311
  756TIP3    H1 2145   4.281   3.847   1.325
  756TIP3    H2 2146   4.194   3.963   1.366
  757TIP3   OH2 2147   3.380   3.741   1.451
  757TIP3    H1 2148   3.381   3.833   1.486
  757TIP3    H2 2149   3.312   3.700   1.508
  758TIP3   OH2 2150   3.139   3.865   0.405
  758TIP3    H1 2151   3.098   3.847   0.318
  758TIP3    H2 2152   3.111   3.955   0.425
  759TIP3   OH2 2153   2.575   3.725   0.783
  759TIP3    H1 2154   2.606   3.714   0.873
  759TIP3    H2 2155   2.522   3.644   0.771
  760TIP3   OH2 2156   3.337   3.765   0.060
  760TIP3    H1 2157   3.395   3.708   0.006
  760TIP3    H2 2158   3.386   3.770   0.144
  761TIP3   OH2 2159   3.398   3.823   0.327
  761TIP3    H1 2160   3.308   3.827   0.365
  761TIP3    H2 2161   3.447   3.775   0.395
  762TIP3   OH2 2162   4.163   3.082   1.595
  762TIP3    H1 2163   4.087   3.094   1.536
  762TIP3    H2 2164   4.181   2.987   1.584
  763TIP3   OH2 2165   2.762   3.492   1.618
  763TIP3    H1 2166   2.810   3.482   1.702
  763TIP3    H2 2167   2.689   3.427   1.629
  764TIP3   OH2 2168   3.137   2.351   1.414
  764TIP3    H1 2169   3.056   2.305   1.385
  764TIP3    H2 2170   3.155   2.409   1.338
  765TIP3   OH2 2171   3.699   2.425   1.594
  765TIP3    H1 2172   3.767   2.412   1.662
  765TIP3    H2 2173   3.615   2.417   1.645
  766TIP3   OH2 2174   3.923   2.853   1.529
  766TIP3    H1 2175   3.895   2.868   1.620
  766TIP3    H2 2176   3.906   2.940   1.486
  767TIP3   OH2 2177   3.600   2.998   0.079
  767TIP3    H1 2178   3.541   2.987   0.003
  767TIP3    H2 2179   3.676   3.044   0.039
  768TIP3   OH2 2180   3.078   2.803   1.428
  768TIP3    H1 2181   3.044   2.845   1.508
  768TIP3    H2 2182   3.070   2.876   1.363
  769TIP3   OH2 2183   3.470   2.812   0.664
  769TIP3    H1 2184   3.415   2.881   0.621
  769TIP3    H2 2185   3.517   2.773   0.587
  770TIP3   OH2 2186   3.638   3.082   1.771
  770TIP3    H1 2187   3.627   2.988   1.799
  770TIP3    H2 2188   3.733   3.094   1.787
  771TIP3   OH2 2189   3.622   2.832   0.901
  771TIP3    H1 2190   3.565   2.859   0.826
  771TIP3    H2 2191   3.658   2.749   0.862
  772TIP3   OH2 2192   2.904   2.848   1.647
  772TIP3    H1 2193   2.965   2.914   1.685
  772TIP3    H2 2194   2.849   2.826   1.724
  773TIP3   OH2 2195   3.637   3.081   1.321
  773TIP3    H1 2196   3.670   3.009   1.263
  773TIP3    H2 2197   3.613   3.028   1.400
  774TIP3   OH2 2198   3.311   2.512   1.006
  774TIP3    H1 2199   3.226   2.557   1.019
  774TIP3    H2 2200   3.367   2.548   1.077
  775TIP3   OH2 2201   2.713   2.573   1.034
  775TIP3    H1 2202   2.645   2.566   0.965
  775TIP3    H2 2203   2.794   2.578   0.980
  776TIP3   OH2 2204   3.798   2.615   1.195
  776TIP3    H1 2205   3.767   2.626   1.288
  776TIP3    H2 2206   3.731   2.551   1.163
  777TIP3   OH2 2207   2.921   3.415   1.843
  777TIP3    H1 2208   3.003   3.445   1.888
  777TIP3    H2 2209   2.859   3.419   1.918
  778TIP3   OH2 2210   3.388   2.862   1.091
  778TIP3    H1 2211   3.461   2.832   1.034
  778TIP3    H2 2212   3.414   2.825   1.177
  779TIP3   OH2 2213   3.370   2.763   1.392
  779TIP3    H1 2214   3.285   2.807   1.404
  779TIP3    H2 2215   3.434   2.825   1.435
  780TIP3   OH2 2216   3.086   3.173   0.475
  780TIP3    H1 2217   3.032   3.091   0.478
  780TIP3    H2 2218   3.089   3.197   0.571
  781TIP3   OH2 2219   4.002   3.394   1.110
  781TIP3    H1 2220   4.028   3.441   1.028
  781TIP3    H2 2221   3.918   3.350   1.084
  782TIP3   OH2 2222   3.596   2.474   0.315
  782TIP3    H1 2223   3.498   2.477   0.320
  782TIP3    H2 2224   3.618   2.564   0.345
  783TIP3   OH2 2225   3.496   3.470   1.478
  783TIP3    H1 2226   3.528   3.449   1.567
  783TIP3    H2 2227   3.463   3.561   1.488
  784TIP3   OH2 2228   3.637   2.712   0.445
  784TIP3    H1 2229   3.733   2.723   0.463
  784TIP3    H2 2230   3.616   2.792   0.393
  785TIP3   OH2 2231   2.813   3.209   1.130
  785TIP3    H1 2232   2.839   3.143   1.061
  785TIP3    H2 2233   2.809   3.155   1.209
  786TIP3   OH2 2234   3.256   3.312   0.319
  786TIP3    H1 2235   3.207   3.398   0.319
  786TIP3    H2 2236   3.196   3.257   0.373
  787TIP3   OH2 2237   2.673   3.095   1.770
  787TIP3    H1 2238   2.695   3.082   1.865
  787TIP3    H2 2239   2.599   3.033   1.757
  788TIP3   OH2 2240   3.398   3.211   1.788
  788TIP3    H1 2241   3.347   3.151   1.732
  788TIP3    H2 2242   3.489   3.175   1.776
  789TIP3   OH2 2243   3.661   3.737   1.370
  789TIP3    H1 2244   3.565   3.733   1.381
  789TIP3    H2 2245   3.688   3.785   1.451
  790TIP3   OH2 2246   4.071   2.806   0.285
  790TIP3    H1 2247   4.009   2.760   0.223
  790TIP3    H2 2248   4.069   2.894   0.241
  791TIP3   OH2 2249   4.289   3.665   1.360
  791TIP3    H1 2250   4.191   3.654   1.352
  791TIP3    H2 2251   4.317   3.632   1.272
  792TIP3   OH2 2252   3.776   3.622   0.188
  792TIP3    H1 2253   3.744   3.549   0.242
  792TIP3    H2 2254   3.779   3.582   0.099
  793TIP3   OH2 2255   3.768   3.254   1.030
  793TIP3    H1 2256   3.675   3.228   1.040
  793TIP3    H2 2257   3.803   3.174   0.984
  794TIP3   OH2 2258   3.054   3.248   0.733
  794TIP3    H1 2259   3.017   3.337   0.734
  794TIP3    H2 2260   3.000   3.197   0.795
  795TIP3   OH2 2261   3.165   3.819   1.246
  795TIP3    H1 2262   3.204   3.895   1.198
  795TIP3    H2 2263   3.241   3.790   1.299
  796TIP3   OH2 2264   2.812   3.723   0.626
  796TIP3    H1 2265   2.727   3.730   0.674
  796TIP3    H2 2266   2.846   3.814   0.635
  797TIP3   OH2 2267   3.552   3.460   1.208
  797TIP3    H1 2268   3.544   3.454   1.306
  797TIP3    H2 2269   3.630   3.406   1.192
  798TIP3   OH2 2270   3.526   3.362   0.094
  798TIP3    H1 2271   3.574   3.332   0.173
  798TIP3    H2 2272   3.436   3.329   0.110
  799TIP3   OH2 2273   3.796   4.002   1.267
  799TIP3    H1 2274   3.723   3.939   1.258
  799TIP3    H2 2275   3.781   4.060   1.188
  800TIP3   OH2 2276   3.868   3.833  -0.097
  800TIP3    H1 2277   3.917   3.910  -0.130
  800TIP3    H2 2278   3.788   3.878  -0.062
  801TIP3   OH2 2279   3.686   3.293   0.318
  801TIP3    H1 2280   3.678   3.221   0.385
  801TIP3    H2 2281   3.782   3.286   0.298
  802TIP3   OH2 2282   2.611   3.677   1.413
  802TIP3    H1 2283   2.657   3.614   1.471
  802TIP3    H2 2284   2.625   3.760   1.461
  803TIP3   OH2 2285   2.885   3.336   0.093
  803TIP3    H1 2286   2.916   3.254   0.052
  803TIP3    H2 2287   2.873   3.312   0.187
  804TIP3   OH2 2288   2.846   3.332   0.372
  804TIP3    H1 2289   2.930   3.304   0.412
  804TIP3    H2 2290   2.854   3.430   0.373
  805TIP3   OH2 2291   3.722   2.662   1.449
  805TIP3    H1 2292   3.791   2.714   1.494
  805TIP3    H2 2293   3.707   2.588   1.512
  806TIP3   OH2 2294   3.596   2.424   0.614
  806TIP3    H1 2295   3.595   2.449   0.520
  806TIP3    H2 2296   3.635   2.503   0.656
  807TIP3   OH2 2297   3.104   3.535   0.316
  807TIP3    H1 2298   3.016   3.568   0.345
  807TIP3    H2 2299   3.123   3.597   0.244
  808TIP3   OH2 2300   3.323   2.587   0.722
  808TIP3    H1 2301   3.372   2.670   0.706
  808TIP3    H2 2302   3.270   2.609   0.800
  809TIP3   OH2 2303   3.561   2.922   1.525
  809TIP3    H1 2304   3.559   2.969   1.610
  809TIP3    H2 2305   3.593   2.836   1.559
  810TIP3   OH2 2306   3.445   2.326   0.834
  810TIP3    H1 2307   3.414   2.406   0.882
  810TIP3    H2 2308   3.497   2.367   0.761
  811TIP3   OH2 2309   2.847   3.608   0.380
  811TIP3    H1 2310   2.817   3.679   0.319
  811TIP3    H2 2311   2.832   3.650   0.467
  812TIP3   OH2 2312   4.196   2.819   1.517
  812TIP3    H1 2313   4.099   2.807   1.520
  812TIP3    H2 2314   4.216   2.787   1.428
  813TIP3   OH2 2315   3.851   3.013   0.904
  813TIP3    H1 2316   3.778   2.950   0.912
  813TIP3    H2 2317   3.925   2.966   0.949
  814TIP3   OH2 2318   2.572   3.304   0.370
  814TIP3    H1 2319   2.663   3.337   0.383
  814TIP3    H2 2320   2.589   3.211   0.355
  815TIP3   OH2 2321   3.820   3.966   0.851
  815TIP3    H1 2322   3.777   4.014   0.776
  815TIP3    H2 2323   3.914   3.987   0.831
  816TIP3   OH2 2324   2.881   2.234   1.383
  816TIP3    H1 2325   2.853   2.186   1.302
  816TIP3    H2 2326   2.898   2.159   1.445
  817TIP3   OH2 2327   2.453   3.468   0.765
  817TIP3    H1 2328   2.368   3.485   0.808
  817TIP3    H2 2329   2.430   3.492   0.672
  818TIP3   OH2 2330   2.594   3.995   1.831
  818TIP3    H1 2331   2.679   3.997   1.880
  818TIP3    H2 2332   2.575   3.899   1.832
  819TIP3   OH2 2333   3.077   3.969   1.865
  819TIP3    H1 2334   3.167   3.941   1.886
  819TIP3    H2 2335   3.053   3.904   1.796
  820TIP3   OH2 2336   3.062   3.532   0.015
  820TIP3    H1 2337   2.995   3.469   0.050
  820TIP3    H2 2338   3.140   3.475   0.007
  821TIP3   OH2 2339   3.717   3.865   1.607
  821TIP3    H1 2340   3.703   3.795   1.676
  821TIP3    H2 2341   3.793   3.913   1.642
  822TIP3   OH2 2342   3.506   3.592  -0.072
  822TIP3    H1 2343   3.521   3.509  -0.022
  822TIP3    H2 2344   3.574   3.587  -0.140
  823TIP3   OH2 2345   2.719   3.386   2.033
  823TIP3    H1 2346   2.738   3.291   2.020
  823TIP3    H2 2347   2.632   3.396   1.988
  824TIP3   OH2 2348   3.334   3.487   1.803
  824TIP3    H1 2349   3.294   3.501   1.715
  824TIP3    H2 2350   3.366   3.394   1.798
  825TIP3   OH2 2351   3.222   3.277   0.052
  825TIP3    H1 2352   3.235   3.281   0.149
  825TIP3    H2 2353   3.193   3.186   0.038
  826TIP3   OH2 2354   3.823   3.495   1.410
  826TIP3    H1 2355   3.899   3.536   1.365
  826TIP3    H2 2356   3.754   3.562   1.394
  827TIP3   OH2 2357   2.846   3.129   2.011
  827TIP3    H1 2358   2.931   3.087   1.992
  827TIP3    H2 2359   2.861   3.168   2.099
  828TIP3   OH2 2360   2.961   2.930   0.499
  828TIP3    H1 2361   2.979   2.882   0.581
  828TIP3    H2 2362   2.985   2.865   0.430
  829TIP3   OH2 2363   3.165   3.018   1.661
  829TIP3    H1 2364   3.099   3.090   1.671
  829TIP3    H2 2365   3.224   3.054   1.591
  830TIP3   OH2 2366   3.695   3.423   1.806
  830TIP3    H1 2367   3.777   3.399   1.762
  830TIP3    H2 2368   3.689   3.356   1.876
  831TIP3   OH2 2369   3.824   3.088  -0.065
  831TIP3    H1 2370   3.840   3.046  -0.150
  831TIP3    H2 2371   3.827   3.182  -0.087
  832TIP3   OH2 2372   3.250   2.789   1.806
  832TIP3    H1 2373   3.342   2.757   1.801
  832TIP3    H2 2374   3.248   2.861   1.740
  833TIP3   OH2 2375   3.307   2.564   1.577
  833TIP3    H1 2376   3.368   2.626   1.533
  833TIP3    H2 2377   3.224   2.598   1.546
  834TIP3   OH2 2378   3.331   3.128   1.480
  834TIP3    H1 2379   3.417   3.132   1.436
  834TIP3    H2 2380   3.280   3.197   1.432
  835TIP3   OH2 2381   3.915   3.096   1.861
  835TIP3    H1 2382   3.962   3.014   1.883
  835TIP3    H2 2383   3.987   3.151   1.826
  836TIP3   OH2 2384   3.955   3.351   1.598
  836TIP3    H1 2385   3.897   3.404   1.538
  836TIP3    H2 2386   4.043   3.370   1.558
  837TIP3   OH2 2387   3.163   2.927   2.029
  837TIP3    H1 2388   3.106   2.849   2.046
  837TIP3    H2 2389   3.202   2.898   1.943
  838TIP3   OH2 2390   3.441   2.351   1.679
  838TIP3    H1 2391   3.395   2.433   1.649
  838TIP3    H2 2392   3.369   2.285   1.668
  839TIP3   OH2 2393   4.072   2.755   1.902
  839TIP3    H1 2394   4.047   2.661   1.913
  839TIP3    H2 2395   4.041   2.796   1.985
  840TIP3   OH2 2396   3.014   2.700   2.085
  840TIP3    H1 2397   3.023   2.612   2.043
  840TIP3    H2 2398   3.055   2.683   2.172
  841TIP3   OH2 2399   3.525   2.353   1.939
  841TIP3    H1 2400   3.598   2.290   1.925
  841TIP3    H2 2401   3.491   2.360   1.847
  842TIP3   OH2 2402   3.576   2.561   2.119
  842TIP3    H1 2403   3.572   2.509   2.036
  842TIP3    H2 2404   3.522   2.639   2.093
  843TIP3   OH2 2405   2.813   3.811   0.195
  843TIP3    H1 2406   2.907   3.807   0.167
  843TIP3    H2 2407   2.770   3.848   0.117
  844TIP3   OH2 2408   2.200   3.802   0.826
  844TIP3    H1 2409   2.141   3.737   0.783
  844TIP3    H2 2410   2.252   3.745   0.886
  845TIP3   OH2 2411   2.347   3.661   1.011
  845TIP3    H1 2412   2.335   3.585   1.071
  845TIP3    H2 2413   2.400   3.719   1.068
  846TIP3   OH2 2414   4.072   4.070   0.815
  846TIP3    H1 2415   4.122   4.100   0.891
  846TIP3    H2 2416   4.133   4.088   0.742
  847TIP3   OH2 2417   4.133   4.092   1.121
  847TIP3    H1 2418   4.065   4.028   1.091
  847TIP3    H2 2419   4.198   4.027   1.154
  848TIP3   OH2 2420   4.145   3.761   1.658
  848TIP3    H1 2421   4.076   3.764   1.728
  848TIP3    H2 2422   4.192   3.846   1.671
  849TIP3   OH2 2423   3.965   3.268   0.282
  849TIP3    H1 2424   4.032   3.332   0.254
  849TIP3    H2 2425   4.008   3.229   0.362
  850TIP3   OH2 2426   4.093   3.137   0.486
  850TIP3    H1 2427   4.029   3.094   0.547
  850TIP3    H2 2428   4.160   3.172   0.547
  851TIP3   OH2 2429   4.144   3.525   0.915
  851TIP3    H1 2430   4.200   3.460   0.869
  851TIP3    H2 2431   4.141   3.599   0.852
  852TIP3   OH2 2432   3.979   3.834   1.113
  852TIP3    H1 2433   3.902   3.868   1.161
  852TIP3    H2 2434   3.937   3.782   1.041
  853TIP3   OH2 2435   4.026   3.043   0.133
  853TIP3    H1 2436   3.951   3.046   0.071
  853TIP3    H2 2437   4.004   3.120   0.190
  854TIP3   OH2 2438   3.905   2.714   0.093
  854TIP3    H1 2439   3.869   2.750   0.012
  854TIP3    H2 2440   3.879   2.619   0.085
  855TIP3   OH2 2441   3.908   2.991   0.634
  855TIP3    H1 2442   3.917   2.894   0.627
  855TIP3    H2 2443   3.895   3.004   0.731
  856TIP3   OH2 2444   2.534   3.067   1.379
  856TIP3    H1 2445   2.536   3.033   1.287
  856TIP3    H2 2446   2.631   3.067   1.399
  857TIP3   OH2 2447   4.197   3.418   1.488
  857TIP3    H1 2448   4.268   3.349   1.483
  857TIP3    H2 2449   4.229   3.484   1.425
  858TIP3   OH2 2450   4.379   3.224   1.517
  858TIP3    H1 2451   4.306   3.169   1.553
  858TIP3    H2 2452   4.453   3.161   1.524
  859TIP3   OH2 2453   3.840   2.451   0.095
  859TIP3    H1 2454   3.926   2.419   0.127
  859TIP3    H2 2455   3.777   2.410   0.156
  860TIP3   OH2 2456   3.906   2.709   0.530
  860TIP3    H1 2457   3.946   2.620   0.544
  860TIP3    H2 2458   3.964   2.741   0.458
  861TIP3   OH2 2459   4.065   2.885   1.022
  861TIP3    H1 2460   4.151   2.910   0.981
  861TIP3    H2 2461   4.081   2.919   1.112
  862TIP3   OH2 2462   4.134   3.026   1.257
  862TIP3    H1 2463   4.055   3.062   1.303
  862TIP3    H2 2464   4.167   3.105   1.209
  863TIP3   OH2 2465   2.750   2.755   2.052
  863TIP3    H1 2466   2.848   2.743   2.056
  863TIP3    H2 2467   2.722   2.671   2.093
  864TIP3   OH2 2468   4.585   2.615   1.813
  864TIP3    H1 2469   4.644   2.550   1.769
  864TIP3    H2 2470   4.558   2.671   1.737
  865TIP3   OH2 2471   4.013   2.457   0.565
  865TIP3    H1 2472   4.061   2.441   0.649
  865TIP3    H2 2473   3.951   2.381   0.565
  866TIP3   OH2 2474   2.787   2.483   1.420
  866TIP3    H1 2475   2.801   2.388   1.398
  866TIP3    H2 2476   2.741   2.514   1.341
  867TIP3   OH2 2477   2.531   2.721   1.460
  867TIP3    H1 2478   2.585   2.722   1.378
  867TIP3    H2 2479   2.542   2.812   1.491
  868TIP3   OH2 2480   4.455   2.756   1.620
  868TIP3    H1 2481   4.368   2.796   1.640
  868TIP3    H2 2482   4.428   2.686   1.558
  869TIP3   OH2 2483   4.103   2.393   0.185
  869TIP3    H1 2484   4.172   2.337   0.148
  869TIP3    H2 2485   4.152   2.478   0.192
  870TIP3   OH2 2486   3.660   3.924   0.468
  870TIP3    H1 2487   3.705   3.906   0.383
  870TIP3    H2 2488   3.718   3.990   0.508
  871TIP3   OH2 2489   2.721   2.303   1.769
  871TIP3    H1 2490   2.676   2.298   1.855
  871TIP3    H2 2491   2.650   2.341   1.714
  872TIP3   OH2 2492   2.760   3.726   1.854
  872TIP3    H1 2493   2.667   3.699   1.847
  872TIP3    H2 2494   2.778   3.712   1.948
  873TIP3   OH2 2495   2.936   3.757   1.392
  873TIP3    H1 2496   2.890   3.836   1.357
  873TIP3    H2 2497   3.024   3.774   1.352
  874TIP3   OH2 2498   3.380   4.004   1.537
  874TIP3    H1 2499   3.423   4.005   1.626
  874TIP3    H2 2500   3.446   4.055   1.485
  875TIP3   OH2 2501   3.556   4.156   1.393
  875TIP3    H1 2502   3.626   4.107   1.347
  875TIP3    H2 2503   3.608   4.210   1.456
  876TIP3   OH2 2504   4.354   2.521   1.495
  876TIP3    H1 2505   4.265   2.517   1.458
  876TIP3    H2 2506   4.385   2.428   1.482
  877TIP3   OH2 2507   2.611   4.011   1.423
  877TIP3    H1 2508   2.523   4.048   1.401
  877TIP3    H2 2509   2.628   4.054   1.508
  878TIP3   OH2 2510   2.847   3.992   1.278
  878TIP3    H1 2511   2.761   4.009   1.323
  878TIP3    H2 2512   2.831   4.031   1.190
  879TIP3   OH2 2513   3.273   4.025   1.079
  879TIP3    H1 2514   3.209   4.048   1.010
  879TIP3    H2 2515   3.289   4.112   1.121
  880TIP3   OH2 2516   3.544   3.966   1.130
  880TIP3    H1 2517   3.451   3.984   1.108
  880TIP3    H2 2518   3.589   4.040   1.085
  881TIP3   OH2 2519   3.749   4.155   1.046
  881TIP3    H1 2520   3.745   4.245   1.006
  881TIP3    H2 2521   3.775   4.101   0.968
  882TIP3   OH2 2522   2.538   3.809   1.166
  882TIP3    H1 2523   2.543   3.781   1.259
  882TIP3    H2 2524   2.632   3.808   1.144
  883TIP3   OH2 2525   2.973   3.786   1.029
  883TIP3    H1 2526   3.027   3.716   0.989
  883TIP3    H2 2527   3.021   3.804   1.112
  884TIP3   OH2 2528   3.579   2.438   1.132
  884TIP3    H1 2529   3.519   2.368   1.161
  884TIP3    H2 2530   3.632   2.393   1.064
  885TIP3   OH2 2531   4.086   2.315   1.022
  885TIP3    H1 2532   4.122   2.367   0.947
  885TIP3    H2 2533   3.990   2.332   1.013
  886TIP3   OH2 2534   4.179   2.413   0.783
  886TIP3    H1 2535   4.252   2.363   0.742
  886TIP3    H2 2536   4.212   2.505   0.769
  887TIP3   OH2 2537   3.247   2.195   1.011
  887TIP3    H1 2538   3.301   2.244   0.949
  887TIP3    H2 2539   3.298   2.205   1.093
  888TIP3   OH2 2540   3.806   2.319   0.991
  888TIP3    H1 2541   3.795   2.287   0.901
  888TIP3    H2 2542   3.784   2.239   1.045
  889TIP3   OH2 2543   3.835   2.241   0.554
  889TIP3    H1 2544   3.745   2.274   0.542
  889TIP3    H2 2545   3.816   2.155   0.598
  890TIP3   OH2 2546   2.299   3.582   0.568
  890TIP3    H1 2547   2.226   3.541   0.520
  890TIP3    H2 2548   2.297   3.672   0.529
  891TIP3   OH2 2549   3.237   2.352   0.637
  891TIP3    H1 2550   3.282   2.296   0.702
  891TIP3    H2 2551   3.268   2.440   0.667
  892TIP3   OH2 2552   3.078   3.779   0.132
  892TIP3    H1 2553   3.171   3.796   0.104
  892TIP3    H2 2554   3.062   3.699   0.076
  893TIP3   OH2 2555   3.801   3.889   0.233
  893TIP3    H1 2556   3.795   3.791   0.220
  893TIP3    H2 2557   3.758   3.921   0.151
  894TIP3   OH2 2558   3.021   2.419   2.026
  894TIP3    H1 2559   2.988   2.349   2.085
  894TIP3    H2 2560   3.115   2.424   2.054
  895TIP3   OH2 2561   3.269   2.428   2.145
  895TIP3    H1 2562   3.352   2.413   2.096
  895TIP3    H2 2563   3.262   2.348   2.200
  896TIP3   OH2 2564   2.421   3.644   0.223
  896TIP3    H1 2565   2.373   3.663   0.305
  896TIP3    H2 2566   2.471   3.566   0.244
  897TIP3   OH2 2567   4.088   2.474   1.927
  897TIP3    H1 2568   4.111   2.449   2.019
  897TIP3    H2 2569   4.176   2.480   1.885
  898TIP3   OH2 2570   4.030   4.059   1.413
  898TIP3    H1 2571   3.981   3.983   1.376
  898TIP3    H2 2572   3.956   4.120   1.420
  899TIP3   OH2 2573   5.295   3.406   0.190
  899TIP3    H1 2574   5.267   3.498   0.167
  899TIP3    H2 2575   5.219   3.357   0.153
  900TIP3   OH2 2576   5.294   3.409   0.568
  900TIP3    H1 2577   5.325   3.377   0.655
  900TIP3    H2 2578   5.254   3.329   0.530
  901TIP3   OH2 2579   4.592   3.302   0.935
  901TIP3    H1 2580   4.620   3.235   1.000
  901TIP3    H2 2581   4.672   3.356   0.930
  902TIP3   OH2 2582   5.539   3.707   0.249
  902TIP3    H1 2583   5.524   3.637   0.314
  902TIP3    H2 2584   5.567   3.782   0.304
  903TIP3   OH2 2585   4.564   3.711   0.662
  903TIP3    H1 2586   4.557   3.613   0.662
  903TIP3    H2 2587   4.660   3.720   0.652
  904TIP3   OH2 2588   4.271   2.914   0.444
  904TIP3    H1 2589   4.226   2.999   0.458
  904TIP3    H2 2590   4.200   2.861   0.404
  905TIP3   OH2 2591   4.331   3.201   0.613
  905TIP3    H1 2592   4.380   3.125   0.651
  905TIP3    H2 2593   4.393   3.234   0.547
  906TIP3   OH2 2594   5.189   4.173   0.267
  906TIP3    H1 2595   5.229   4.101   0.214
  906TIP3    H2 2596   5.182   4.130   0.354
  907TIP3   OH2 2597   5.094   3.634   0.615
  907TIP3    H1 2598   5.130   3.557   0.569
  907TIP3    H2 2599   5.178   3.678   0.638
  908TIP3   OH2 2600   6.107   2.952   0.613
  908TIP3    H1 2601   6.136   3.036   0.654
  908TIP3    H2 2602   6.130   2.968   0.520
  909TIP3   OH2 2603   5.504   3.134   0.650
  909TIP3    H1 2604   5.549   3.049   0.669
  909TIP3    H2 2605   5.476   3.119   0.557
  910TIP3   OH2 2606   4.842   2.793   0.615
  910TIP3    H1 2607   4.824   2.867   0.553
  910TIP3    H2 2608   4.794   2.721   0.569
  911TIP3   OH2 2609   5.537   2.884   0.237
  911TIP3    H1 2610   5.610   2.868   0.301
  911TIP3    H2 2611   5.588   2.919   0.162
  912TIP3   OH2 2612   4.476   2.995   0.720
  912TIP3    H1 2613   4.560   2.978   0.768
  912TIP3    H2 2614   4.491   2.940   0.640
  913TIP3   OH2 2615   4.919   3.194   0.513
  913TIP3    H1 2616   5.013   3.169   0.525
  913TIP3    H2 2617   4.881   3.110   0.481
  914TIP3   OH2 2618   6.181   3.161   0.784
  914TIP3    H1 2619   6.098   3.208   0.762
  914TIP3    H2 2620   6.192   3.186   0.876
  915TIP3   OH2 2621   4.839   2.776   1.047
  915TIP3    H1 2622   4.780   2.815   0.979
  915TIP3    H2 2623   4.789   2.796   1.128
  916TIP3   OH2 2624   5.180   3.622   0.062
  916TIP3    H1 2625   5.156   3.612  -0.032
  916TIP3    H2 2626   5.140   3.709   0.083
  917TIP3   OH2 2627   4.947   3.553   0.843
  917TIP3    H1 2628   4.884   3.617   0.882
  917TIP3    H2 2629   4.989   3.604   0.771
  918TIP3   OH2 2630   5.749   2.886   0.407
  918TIP3    H1 2631   5.742   2.838   0.490
  918TIP3    H2 2632   5.804   2.963   0.433
  919TIP3   OH2 2633   4.708   2.891   0.833
  919TIP3    H1 2634   4.768   2.966   0.857
  919TIP3    H2 2635   4.760   2.852   0.758
  920TIP3   OH2 2636   4.773   3.746   0.942
  920TIP3    H1 2637   4.746   3.831   0.901
  920TIP3    H2 2638   4.695   3.729   0.999
  921TIP3   OH2 2639   4.168   3.435   0.181
  921TIP3    H1 2640   4.132   3.457   0.092
  921TIP3    H2 2641   4.200   3.521   0.213
  922TIP3   OH2 2642   5.610   3.952   0.420
  922TIP3    H1 2643   5.519   3.943   0.457
  922TIP3    H2 2644   5.601   4.037   0.372
  923TIP3   OH2 2645   5.900   2.853   0.780
  923TIP3    H1 2646   5.812   2.881   0.750
  923TIP3    H2 2647   5.959   2.884   0.708
  924TIP3   OH2 2648   5.198   2.497   0.760
  924TIP3    H1 2649   5.185   2.402   0.777
  924TIP3    H2 2650   5.121   2.535   0.807
  925TIP3   OH2 2651   5.303   3.997   0.089
  925TIP3    H1 2652   5.353   3.914   0.069
  925TIP3    H2 2653   5.368   4.063   0.055
  926TIP3   OH2 2654   5.450   3.787  -0.003
  926TIP3    H1 2655   5.443   3.710  -0.062
  926TIP3    H2 2656   5.485   3.746   0.079
  927TIP3   OH2 2657   5.836   3.866   0.760
  927TIP3    H1 2658   5.825   3.788   0.702
  927TIP3    H2 2659   5.819   3.940   0.698
  928TIP3   OH2 2660   5.127   3.259   0.016
  928TIP3    H1 2661   5.046   3.311  -0.002
  928TIP3    H2 2662   5.169   3.256  -0.071
  929TIP3   OH2 2663   5.080   3.030  -0.238
  929TIP3    H1 2664   5.157   3.083  -0.214
  929TIP3    H2 2665   5.117   2.969  -0.302
  930TIP3   OH2 2666   6.031   3.502   0.605
  930TIP3    H1 2667   5.948   3.554   0.610
  930TIP3    H2 2668   6.060   3.525   0.514
  931TIP3   OH2 2669   5.471   3.330  -0.006
  931TIP3    H1 2670   5.419   3.361   0.073
  931TIP3    H2 2671   5.558   3.312   0.036
  932TIP3   OH2 2672   5.710   3.382   0.898
  932TIP3    H1 2673   5.704   3.465   0.950
  932TIP3    H2 2674   5.622   3.384   0.854
  933TIP3   OH2 2675   4.705   3.339   0.408
  933TIP3    H1 2676   4.665   3.281   0.339
  933TIP3    H2 2677   4.783   3.287   0.436
  934TIP3   OH2 2678   4.833   3.747   0.557
  934TIP3    H1 2679   4.815   3.710   0.469
  934TIP3    H2 2680   4.924   3.716   0.574
  935TIP3   OH2 2681   4.839   3.312   0.757
  935TIP3    H1 2682   4.877   3.291   0.670
  935TIP3    H2 2683   4.886   3.395   0.782
  936TIP3   OH2 2684   5.367   3.949   0.537
  936TIP3    H1 2685   5.355   4.027   0.595
  936TIP3    H2 2686   5.354   3.874   0.599
  937TIP3   OH2 2687   4.979   3.873   1.077
  937TIP3    H1 2688   4.920   3.931   1.130
  937TIP3    H2 2689   4.914   3.815   1.033
  938TIP3   OH2 2690   5.321   3.202  -0.192
  938TIP3    H1 2691   5.374   3.252  -0.125
  938TIP3    H2 2692   5.343   3.253  -0.272
  939TIP3   OH2 2693   4.721   3.437   1.176
  939TIP3    H1 2694   4.732   3.518   1.229
  939TIP3    H2 2695   4.628   3.413   1.195
  940TIP3   OH2 2696   5.047   3.883   0.111
  940TIP3    H1 2697   5.132   3.930   0.112
  940TIP3    H2 2698   4.995   3.933   0.047
  941TIP3   OH2 2699   4.773   4.040   1.169
  941TIP3    H1 2700   4.741   4.033   1.077
  941TIP3    H2 2701   4.693   4.016   1.222
  942TIP3   OH2 2702   5.811   2.454  -0.121
  942TIP3    H1 2703   5.730   2.472  -0.068
  942TIP3    H2 2704   5.817   2.535  -0.175
  943TIP3   OH2 2705   4.572   3.181   0.212
  943TIP3    H1 2706   4.509   3.227   0.153
  943TIP3    H2 2707   4.529   3.095   0.223
  944TIP3   OH2 2708   4.352   3.568   1.117
  944TIP3    H1 2709   4.293   3.540   1.044
  944TIP3    H2 2710   4.391   3.482   1.147
  945TIP3   OH2 2711   4.209   3.757   0.753
  945TIP3    H1 2712   4.303   3.743   0.736
  945TIP3    H2 2713   4.210   3.836   0.809
  946TIP3   OH2 2714   6.073   4.210   0.806
  946TIP3    H1 2715   6.071   4.113   0.817
  946TIP3    H2 2716   5.989   4.234   0.851
  947TIP3   OH2 2717   5.178   3.999   0.939
  947TIP3    H1 2718   5.177   4.090   0.973
  947TIP3    H2 2719   5.107   3.957   0.993
  948TIP3   OH2 2720   4.914   4.120  -0.097
  948TIP3    H1 2721   4.907   4.101  -0.191
  948TIP3    H2 2722   4.911   4.217  -0.096
  949TIP3   OH2 2723   4.373   3.976   0.279
  949TIP3    H1 2724   4.425   3.965   0.361
  949TIP3    H2 2725   4.323   3.892   0.278
  950TIP3   OH2 2726   5.164   4.017  -0.157
  950TIP3    H1 2727   5.083   4.061  -0.124
  950TIP3    H2 2728   5.217   4.006  -0.077
  951TIP3   OH2 2729   5.963   3.341   1.080
  951TIP3    H1 2730   5.881   3.355   1.029
  951TIP3    H2 2731   5.976   3.245   1.068
  952TIP3   OH2 2732   4.556   3.753   1.110
  952TIP3    H1 2733   4.610   3.732   1.189
  952TIP3    H2 2734   4.486   3.685   1.115
  953TIP3   OH2 2735   4.958   2.570   0.890
  953TIP3    H1 2736   4.868   2.542   0.865
  953TIP3    H2 2737   4.937   2.655   0.934
  954TIP3   OH2 2738   5.492   2.686   1.084
  954TIP3    H1 2739   5.559   2.661   1.150
  954TIP3    H2 2740   5.407   2.668   1.131
  955TIP3   OH2 2741   5.735   3.119   1.005
  955TIP3    H1 2742   5.683   3.112   1.088
  955TIP3    H2 2743   5.706   3.205   0.969
  956TIP3   OH2 2744   5.117   2.638  -0.133
  956TIP3    H1 2745   5.077   2.629  -0.044
  956TIP3    H2 2746   5.078   2.564  -0.180
  957TIP3   OH2 2747   4.885   3.088   0.904
  957TIP3    H1 2748   4.869   3.125   0.993
  957TIP3    H2 2749   4.870   3.168   0.849
  958TIP3   OH2 2750   4.774   2.973   0.424
  958TIP3    H1 2751   4.681   2.948   0.440
  958TIP3    H2 2752   4.789   2.934   0.335
  959TIP3   OH2 2753   5.263   3.058   0.151
  959TIP3    H1 2754   5.211   3.130   0.108
  959TIP3    H2 2755   5.318   3.027   0.076
  960TIP3   OH2 2756   5.454   3.336   1.224
  960TIP3    H1 2757   5.408   3.284   1.292
  960TIP3    H2 2758   5.541   3.348   1.265
  961TIP3   OH2 2759   5.422   3.089   0.390
  961TIP3    H1 2760   5.362   3.119   0.318
  961TIP3    H2 2761   5.455   3.007   0.347
  962TIP3   OH2 2762   4.692   3.122   1.127
  962TIP3    H1 2763   4.762   3.177   1.166
  962TIP3    H2 2764   4.699   3.039   1.177
  963TIP3   OH2 2765   4.757   2.561  -0.165
  963TIP3    H1 2766   4.759   2.581  -0.070
  963TIP3    H2 2767   4.696   2.627  -0.199
  964TIP3   OH2 2768   4.303   2.637   0.699
  964TIP3    H1 2769   4.377   2.671   0.753
  964TIP3    H2 2770   4.346   2.609   0.617
  965TIP3   OH2 2771   4.271   2.622   0.216
  965TIP3    H1 2772   4.322   2.659   0.141
  965TIP3    H2 2773   4.215   2.699   0.238
  966TIP3   OH2 2774   5.435   3.336   0.813
  966TIP3    H1 2775   5.465   3.262   0.755
  966TIP3    H2 2776   5.404   3.284   0.891
  967TIP3   OH2 2777   5.099   2.795   0.485
  967TIP3    H1 2778   5.018   2.795   0.539
  967TIP3    H2 2779   5.169   2.797   0.552
  968TIP3   OH2 2780   4.535   2.851   0.494
  968TIP3    H1 2781   4.441   2.857   0.466
  968TIP3    H2 2782   4.560   2.760   0.468
  969TIP3   OH2 2783   4.807   2.848   0.183
  969TIP3    H1 2784   4.902   2.863   0.164
  969TIP3    H2 2785   4.764   2.869   0.097
  970TIP3   OH2 2786   5.596   2.871   0.684
  970TIP3    H1 2787   5.561   2.883   0.776
  970TIP3    H2 2788   5.529   2.811   0.647
  971TIP3   OH2 2789   4.650   2.872  -0.039
  971TIP3    H1 2790   4.559   2.858  -0.066
  971TIP3    H2 2791   4.691   2.915  -0.117
  972TIP3   OH2 2792   5.762   4.561   0.904
  972TIP3    H1 2793   5.760   4.582   0.809
  972TIP3    H2 2794   5.841   4.610   0.933
  973TIP3   OH2 2795   4.716   3.676   1.328
  973TIP3    H1 2796   4.802   3.695   1.371
  973TIP3    H2 2797   4.658   3.673   1.406
  974TIP3   OH2 2798   5.184   3.122   0.580
  974TIP3    H1 2799   5.258   3.086   0.529
  974TIP3    H2 2800   5.197   3.083   0.668
  975TIP3   OH2 2801   4.706   2.614   0.458
  975TIP3    H1 2802   4.676   2.532   0.503
  975TIP3    H2 2803   4.760   2.579   0.385
  976TIP3   OH2 2804   5.161   3.019   0.877
  976TIP3    H1 2805   5.073   3.061   0.886
  976TIP3    H2 2806   5.220   3.081   0.924
  977TIP3   OH2 2807   4.894   3.409  -0.031
  977TIP3    H1 2808   4.820   3.345  -0.042
  977TIP3    H2 2809   4.877   3.443   0.060
  978TIP3   OH2 2810   5.799   3.648   0.596
  978TIP3    H1 2811   5.823   3.697   0.515
  978TIP3    H2 2812   5.714   3.606   0.572
  979TIP3   OH2 2813   5.376   2.722  -0.177
  979TIP3    H1 2814   5.281   2.698  -0.179
  979TIP3    H2 2815   5.374   2.817  -0.156
  980TIP3   OH2 2816   5.301   3.730   0.963
  980TIP3    H1 2817   5.318   3.700   1.053
  980TIP3    H2 2818   5.258   3.817   0.976
  981TIP3   OH2 2819   5.424   2.973  -0.066
  981TIP3    H1 2820   5.520   2.976  -0.048
  981TIP3    H2 2821   5.410   3.052  -0.122
  982TIP3   OH2 2822   4.586   3.431   0.643
  982TIP3    H1 2823   4.626   3.405   0.558
  982TIP3    H2 2824   4.635   3.374   0.705
  983TIP3   OH2 2825   5.048   3.568  -0.194
  983TIP3    H1 2826   4.998   3.653  -0.192
  983TIP3    H2 2827   4.990   3.511  -0.139
  984TIP3   OH2 2828   4.460   3.364   1.263
  984TIP3    H1 2829   4.495   3.344   1.352
  984TIP3    H2 2830   4.409   3.285   1.243
  985TIP3   OH2 2831   5.458   3.995   0.856
  985TIP3    H1 2832   5.362   3.987   0.869
  985TIP3    H2 2833   5.484   4.044   0.937
  986TIP3   OH2 2834   5.828   3.077  -0.189
  986TIP3    H1 2835   5.862   3.008  -0.250
  986TIP3    H2 2836   5.834   3.156  -0.245
  987TIP3   OH2 2837   6.087   3.920   0.848
  987TIP3    H1 2838   5.989   3.914   0.840
  987TIP3    H2 2839   6.112   3.889   0.759
  988TIP3   OH2 2840   5.564   3.510   0.517
  988TIP3    H1 2841   5.470   3.484   0.529
  988TIP3    H2 2842   5.598   3.431   0.471
  989TIP3   OH2 2843   4.691   3.739   0.274
  989TIP3    H1 2844   4.699   3.817   0.216
  989TIP3    H2 2845   4.597   3.720   0.267
  990TIP3   OH2 2846   4.259   3.041  -0.023
  990TIP3    H1 2847   4.303   3.127  -0.010
  990TIP3    H2 2848   4.180   3.050   0.034
  991TIP3   OH2 2849   4.827   3.502   0.213
  991TIP3    H1 2850   4.798   3.593   0.232
  991TIP3    H2 2851   4.792   3.454   0.290
  992TIP3   OH2 2852   4.959   4.081   0.737
  992TIP3    H1 2853   5.001   4.152   0.685
  992TIP3    H2 2854   5.035   4.045   0.785
  993TIP3   OH2 2855   4.611   3.977   0.123
  993TIP3    H1 2856   4.525   3.990   0.166
  993TIP3    H2 2857   4.645   4.069   0.122
  994TIP3   OH2 2858   5.350   3.716   0.694
  994TIP3    H1 2859   5.341   3.713   0.792
  994TIP3    H2 2860   5.428   3.660   0.680
  995TIP3   OH2 2861   5.597   4.252   0.748
  995TIP3    H1 2862   5.520   4.193   0.741
  995TIP3    H2 2863   5.580   4.314   0.673
  996TIP3   OH2 2864   4.687   2.857   1.266
  996TIP3    H1 2865   4.591   2.864   1.280
  996TIP3    H2 2866   4.713   2.798   1.339
  997TIP3   OH2 2867   5.473   3.558  -0.170
  997TIP3    H1 2868   5.470   3.479  -0.114
  997TIP3    H2 2869   5.566   3.555  -0.201
  998TIP3   OH2 2870   4.395   3.946   0.903
  998TIP3    H1 2871   4.444   3.863   0.916
  998TIP3    H2 2872   4.446   4.005   0.960
  999TIP3   OH2 2873   4.647   3.541  -0.426
  999TIP3    H1 2874   4.730   3.494  -0.436
  999TIP3    H2 2875   4.649   3.566  -0.332
 1000TIP3   OH2 2876   4.634   3.593  -0.145
 1000TIP3    H1 2877   4.713   3.568  -0.095
 1000TIP3    H2 2878   4.639   3.691  -0.142
 1001TIP3   OH2 2879   4.371   3.288   0.054
 1001TIP3    H1 2880   4.307   3.337   0.109
 1001TIP3    H2 2881   4.391   3.353  -0.016
 1002TIP3   OH2 2882   5.521   2.920   0.942
 1002TIP3    H1 2883   5.596   2.962   0.988
 1002TIP3    H2 2884   5.504   2.841   0.997
 1003TIP3   OH2 2885   5.389   2.679   0.107
 1003TIP3    H1 2886   5.383   2.698   0.011
 1003TIP3    H2 2887   5.433   2.760   0.140
 1004TIP3   OH2 2888   4.896   3.791  -0.205
 1004TIP3    H1 2889   4.809   3.825  -0.180
 1004TIP3    H2 2890   4.910   3.836  -0.290
 1005TIP3   OH2 2891   5.086   2.853   0.211
 1005TIP3    H1 2892   5.152   2.923   0.191
 1005TIP3    H2 2893   5.094   2.847   0.309
 1006TIP3   OH2 2894   5.356   3.174   1.019
 1006TIP3    H1 2895   5.374   3.235   1.094
 1006TIP3    H2 2896   5.412   3.098   1.042
 1007TIP3   OH2 2897   5.233   2.581   0.314
 1007TIP3    H1 2898   5.228   2.658   0.374
 1007TIP3    H2 2899   5.292   2.619   0.243
 1008TIP3   OH2 2900   4.637   3.862  -0.131
 1008TIP3    H1 2901   4.616   3.934  -0.195
 1008TIP3    H2 2902   4.629   3.910  -0.046
 1009TIP3   OH2 2903   4.745   2.582   0.112
 1009TIP3    H1 2904   4.743   2.675   0.143
 1009TIP3    H2 2905   4.841   2.565   0.118
 1010TIP3   OH2 2906   6.000   3.073   1.000
 1010TIP3    H1 2907   5.902   3.073   1.009
 1010TIP3    H2 2908   6.009   3.034   0.912
 1011TIP3   OH2 2909   5.649   3.269   0.390
 1011TIP3    H1 2910   5.574   3.208   0.400
 1011TIP3    H2 2911   5.721   3.221   0.436
 1012TIP3   OH2 2912   4.364   3.508  -0.140
 1012TIP3    H1 2913   4.443   3.565  -0.131
 1012TIP3    H2 2914   4.402   3.442  -0.203
 1013TIP3   OH2 2915   4.318   2.777  -0.011
 1013TIP3    H1 2916   4.306   2.874  -0.020
 1013TIP3    H2 2917   4.241   2.745  -0.060
 1014TIP3   OH2 2918   5.614   4.223   0.340
 1014TIP3    H1 2919   5.569   4.271   0.267
 1014TIP3    H2 2920   5.707   4.246   0.318
 1015TIP3   OH2 2921   4.692   2.493   0.867
 1015TIP3    H1 2922   4.662   2.460   0.779
 1015TIP3    H2 2923   4.682   2.413   0.923
 1016TIP3   OH2 2924   4.237   3.719   0.250
 1016TIP3    H1 2925   4.154   3.744   0.294
 1016TIP3    H2 2926   4.220   3.750   0.159
 1017TIP3   OH2 2927   4.867   4.220   1.359
 1017TIP3    H1 2928   4.961   4.198   1.372
 1017TIP3    H2 2929   4.844   4.160   1.286
 1018TIP3   OH2 2930   5.507   4.125   1.096
 1018TIP3    H1 2931   5.498   4.054   1.163
 1018TIP3    H2 2932   5.587   4.173   1.126
 1019TIP3   OH2 2933   4.517   3.657   1.522
 1019TIP3    H1 2934   4.538   3.562   1.523
 1019TIP3    H2 2935   4.432   3.657   1.472
 1020TIP3   OH2 2936   4.498   3.312  -0.268
 1020TIP3    H1 2937   4.570   3.278  -0.213
 1020TIP3    H2 2938   4.540   3.320  -0.355
 1021TIP3   OH2 2939   5.132   3.744   1.291
 1021TIP3    H1 2940   5.090   3.734   1.204
 1021TIP3    H2 2941   5.144   3.652   1.321
 1022TIP3   OH2 2942   5.038   3.525  -0.468
 1022TIP3    H1 2943   5.046   3.559  -0.377
 1022TIP3    H2 2944   5.052   3.431  -0.454
 1023TIP3   OH2 2945   5.622   3.749   0.899
 1023TIP3    H1 2946   5.694   3.796   0.853
 1023TIP3    H2 2947   5.548   3.811   0.885
 1024TIP3   OH2 2948   4.636   3.392   1.497
 1024TIP3    H1 2949   4.718   3.351   1.464
 1024TIP3    H2 2950   4.666   3.423   1.585
 1025TIP3   OH2 2951   4.701   3.210  -0.069
 1025TIP3    H1 2952   4.682   3.168   0.016
 1025TIP3    H2 2953   4.741   3.138  -0.121
 1026TIP3   OH2 2954   4.961   3.247   1.144
 1026TIP3    H1 2955   4.934   3.327   1.192
 1026TIP3    H2 2956   5.026   3.286   1.081
 1027TIP3   OH2 2957   4.802   3.002  -0.229
 1027TIP3    H1 2958   4.792   2.992  -0.324
 1027TIP3    H2 2959   4.899   3.015  -0.222
 1028TIP3   OH2 2960   5.494   3.684   1.297
 1028TIP3    H1 2961   5.568   3.645   1.248
 1028TIP3    H2 2962   5.474   3.615   1.362
 1029TIP3   OH2 2963   5.106   3.053   1.293
 1029TIP3    H1 2964   5.100   2.981   1.228
 1029TIP3    H2 2965   5.054   3.124   1.249
 1030TIP3   OH2 2966   5.099   2.846   1.091
 1030TIP3    H1 2967   5.127   2.894   1.010
 1030TIP3    H2 2968   5.005   2.827   1.072
 1031TIP3   OH2 2969   5.122   3.373   0.956
 1031TIP3    H1 2970   5.209   3.393   0.921
 1031TIP3    H2 2971   5.067   3.446   0.920
 1032TIP3   OH2 2972   5.713   3.353   1.352
 1032TIP3    H1 2973   5.762   3.270   1.354
 1032TIP3    H2 2974   5.777   3.414   1.313
 1033TIP3   OH2 2975   5.752   3.608   1.088
 1033TIP3    H1 2976   5.693   3.660   1.029
 1033TIP3    H2 2977   5.839   3.627   1.046
 1034TIP3   OH2 2978   5.232   2.615   1.162
 1034TIP3    H1 2979   5.184   2.698   1.138
 1034TIP3    H2 2980   5.162   2.548   1.149
 1035TIP3   OH2 2981   5.361   3.121   1.374
 1035TIP3    H1 2982   5.346   3.117   1.470
 1035TIP3    H2 2983   5.272   3.097   1.342
 1036TIP3   OH2 2984   5.596   3.060   1.229
 1036TIP3    H1 2985   5.519   3.077   1.288
 1036TIP3    H2 2986   5.666   3.034   1.293
 1037TIP3   OH2 2987   5.833   3.011   1.386
 1037TIP3    H1 2988   5.840   2.915   1.404
 1037TIP3    H2 2989   5.825   3.050   1.476
 1038TIP3   OH2 2990   4.800   2.958   1.582
 1038TIP3    H1 2991   4.837   2.889   1.526
 1038TIP3    H2 2992   4.849   2.946   1.665
 1039TIP3   OH2 2993   5.324   2.622   1.420
 1039TIP3    H1 2994   5.393   2.553   1.412
 1039TIP3    H2 2995   5.286   2.619   1.330
 1040TIP3   OH2 2996   5.394   2.836   1.579
 1040TIP3    H1 2997   5.370   2.768   1.513
 1040TIP3    H2 2998   5.319   2.900   1.572
 1041TIP3   OH2 2999   4.600   4.060  -0.313
 1041TIP3    H1 3000   4.685   4.099  -0.341
 1041TIP3    H2 3001   4.546   4.089  -0.387
 1042TIP3   OH2 3002   4.100   3.450  -0.092
 1042TIP3    H1 3003   4.189   3.485  -0.113
 1042TIP3    H2 3004   4.099   3.371  -0.149
 1043TIP3   OH2 3005   4.003   4.064   0.307
 1043TIP3    H1 3006   3.937   3.999   0.273
 1043TIP3    H2 3007   4.049   4.008   0.374
 1044TIP3   OH2 3008   4.136   3.921   0.498
 1044TIP3    H1 3009   4.134   3.839   0.551
 1044TIP3    H2 3010   4.197   3.975   0.551
 1045TIP3   OH2 3011   5.861   4.327   0.297
 1045TIP3    H1 3012   5.894   4.353   0.384
 1045TIP3    H2 3013   5.936   4.350   0.239
 1046TIP3   OH2 3014   5.900   4.336   0.578
 1046TIP3    H1 3015   5.855   4.249   0.572
 1046TIP3    H2 3016   5.978   4.310   0.629
 1047TIP3   OH2 3017   5.946   4.012   1.150
 1047TIP3    H1 3018   5.872   4.019   1.213
 1047TIP3    H2 3019   5.986   4.101   1.155
 1048TIP3   OH2 3020   5.741   3.539  -0.220
 1048TIP3    H1 3021   5.811   3.591  -0.262
 1048TIP3    H2 3022   5.793   3.481  -0.160
 1049TIP3   OH2 3023   5.891   3.394  -0.032
 1049TIP3    H1 3024   5.824   3.352   0.026
 1049TIP3    H2 3025   5.955   3.432   0.032
 1050TIP3   OH2 3026   5.945   3.784   0.406
 1050TIP3    H1 3027   5.996   3.718   0.355
 1050TIP3    H2 3028   5.936   3.857   0.342
 1051TIP3   OH2 3029   5.776   4.085   0.601
 1051TIP3    H1 3030   5.703   4.125   0.652
 1051TIP3    H2 3031   5.727   4.037   0.531
 1052TIP3   OH2 3032   5.706   3.250   0.120
 1052TIP3    H1 3033   5.712   3.154   0.113
 1052TIP3    H2 3034   5.692   3.264   0.216
 1053TIP3   OH2 3035   4.330   3.326   0.866
 1053TIP3    H1 3036   4.329   3.293   0.773
 1053TIP3    H2 3037   4.427   3.325   0.884
 1054TIP3   OH2 3038   5.994   3.674   0.977
 1054TIP3    H1 3039   6.066   3.607   0.967
 1054TIP3    H2 3040   6.019   3.741   0.912
 1055TIP3   OH2 3041   6.179   3.480   0.996
 1055TIP3    H1 3042   6.103   3.429   1.034
 1055TIP3    H2 3043   6.251   3.414   1.010
 1056TIP3   OH2 3044   5.618   2.706  -0.412
 1056TIP3    H1 3045   5.705   2.678  -0.377
 1056TIP3    H2 3046   5.557   2.661  -0.352
 1057TIP3   OH2 3047   5.694   2.967   0.022
 1057TIP3    H1 3048   5.741   2.881   0.030
 1057TIP3    H2 3049   5.744   3.009  -0.051
 1058TIP3   OH2 3050   5.863   3.139   0.510
 1058TIP3    H1 3051   5.948   3.165   0.469
 1058TIP3    H2 3052   5.876   3.176   0.599
 1059TIP3   OH2 3053   5.931   3.283   0.743
 1059TIP3    H1 3054   5.852   3.316   0.790
 1059TIP3    H2 3055   5.963   3.363   0.697
 1060TIP3   OH2 3056   4.538   3.006   1.533
 1060TIP3    H1 3057   4.637   3.004   1.539
 1060TIP3    H2 3058   4.518   2.923   1.581
 1061TIP3   OH2 3059   6.384   2.874   1.299
 1061TIP3    H1 3060   6.441   2.808   1.254
 1061TIP3    H2 3061   6.354   2.928   1.223
 1062TIP3   OH2 3062   5.811   2.718   0.052
 1062TIP3    H1 3063   5.859   2.701   0.136
 1062TIP3    H2 3064   5.747   2.644   0.053
 1063TIP3   OH2 3065   4.507   2.701   0.875
 1063TIP3    H1 3066   4.570   2.627   0.884
 1063TIP3    H2 3067   4.569   2.776   0.866
 1064TIP3   OH2 3068   4.311   2.976   0.944
 1064TIP3    H1 3069   4.360   2.967   0.860
 1064TIP3    H2 3070   4.348   3.058   0.979
 1065TIP3   OH2 3071   6.253   3.013   1.106
 1065TIP3    H1 3072   6.166   3.054   1.123
 1065TIP3    H2 3073   6.226   2.942   1.045
 1066TIP3   OH2 3074   5.865   2.654  -0.296
 1066TIP3    H1 3075   5.938   2.610  -0.344
 1066TIP3    H2 3076   5.895   2.747  -0.300
 1067TIP3   OH2 3077   4.294   2.474   0.442
 1067TIP3    H1 3078   4.202   2.477   0.473
 1067TIP3    H2 3079   4.293   2.535   0.366
 1068TIP3   OH2 3080   5.462   4.177  -0.035
 1068TIP3    H1 3081   5.485   4.153  -0.125
 1068TIP3    H2 3082   5.516   4.256  -0.020
 1069TIP3   OH2 3083   4.513   2.553   1.259
 1069TIP3    H1 3084   4.465   2.555   1.343
 1069TIP3    H2 3085   4.448   2.595   1.199
 1070TIP3   OH2 3086   4.551   3.995   1.334
 1070TIP3    H1 3087   4.461   3.963   1.318
 1070TIP3    H2 3088   4.569   3.964   1.423
 1071TIP3   OH2 3089   4.729   4.019   0.885
 1071TIP3    H1 3090   4.689   4.097   0.842
 1071TIP3    H2 3091   4.818   4.026   0.844
 1072TIP3   OH2 3092   5.177   4.266   1.026
 1072TIP3    H1 3093   5.222   4.263   1.113
 1072TIP3    H2 3094   5.244   4.313   0.972
 1073TIP3   OH2 3095   5.356   4.414   0.881
 1073TIP3    H1 3096   5.425   4.362   0.836
 1073TIP3    H2 3097   5.410   4.470   0.941
 1074TIP3   OH2 3098   6.151   2.777   0.982
 1074TIP3    H1 3099   6.061   2.773   0.946
 1074TIP3    H2 3100   6.181   2.684   0.969
 1075TIP3   OH2 3101   4.407   4.280   0.901
 1075TIP3    H1 3102   4.319   4.316   0.881
 1075TIP3    H2 3103   4.420   4.307   0.992
 1076TIP3   OH2 3104   4.648   4.254   0.765
 1076TIP3    H1 3105   4.559   4.268   0.805
 1076TIP3    H2 3106   4.632   4.284   0.673
 1077TIP3   OH2 3107   5.070   4.282   0.566
 1077TIP3    H1 3108   5.006   4.302   0.496
 1077TIP3    H2 3109   5.085   4.370   0.605
 1078TIP3   OH2 3110   5.340   4.225   0.618
 1078TIP3    H1 3111   5.246   4.238   0.595
 1078TIP3    H2 3112   5.383   4.297   0.569
 1079TIP3   OH2 3113   5.550   4.416   0.531
 1079TIP3    H1 3114   5.533   4.499   0.482
 1079TIP3    H2 3115   5.574   4.354   0.457
 1080TIP3   OH2 3116   4.318   4.065   0.657
 1080TIP3    H1 3117   4.351   4.042   0.747
 1080TIP3    H2 3118   4.391   4.025   0.604
 1081TIP3   OH2 3119   4.513   3.941   0.512
 1081TIP3    H1 3120   4.531   3.855   0.556
 1081TIP3    H2 3121   4.603   3.978   0.504
 1082TIP3   OH2 3122   4.778   4.036   0.514
 1082TIP3    H1 3123   4.812   3.947   0.494
 1082TIP3    H2 3124   4.827   4.054   0.597
 1083TIP3   OH2 3125   5.356   2.691   0.598
 1083TIP3    H1 3126   5.314   2.621   0.650
 1083TIP3    H2 3127   5.430   2.644   0.555
 1084TIP3   OH2 3128   5.880   2.575   0.511
 1084TIP3    H1 3129   5.918   2.624   0.434
 1084TIP3    H2 3130   5.785   2.591   0.500
 1085TIP3   OH2 3131   5.973   2.671   0.273
 1085TIP3    H1 3132   6.045   2.618   0.232
 1085TIP3    H2 3133   6.009   2.762   0.257
 1086TIP3   OH2 3134   4.605   2.400   0.618
 1086TIP3    H1 3135   4.513   2.367   0.618
 1086TIP3    H2 3136   4.655   2.315   0.614
 1087TIP3   OH2 3137   4.374   2.265   0.259
 1087TIP3    H1 3138   4.423   2.319   0.193
 1087TIP3    H2 3139   4.357   2.332   0.328
 1088TIP3   OH2 3140   5.048   2.432   0.498
 1088TIP3    H1 3141   5.105   2.481   0.437
 1088TIP3    H2 3142   5.073   2.472   0.583
 1089TIP3   OH2 3143   5.596   2.578   0.481
 1089TIP3    H1 3144   5.597   2.544   0.391
 1089TIP3    H2 3145   5.581   2.496   0.534
 1090TIP3   OH2 3146   5.616   2.509   0.060
 1090TIP3    H1 3147   5.525   2.544   0.058
 1090TIP3    H2 3148   5.603   2.422   0.104
 1091TIP3   OH2 3149   4.108   3.837   0.044
 1091TIP3    H1 3150   4.024   3.801   0.010
 1091TIP3    H2 3151   4.092   3.932   0.032
 1092TIP3   OH2 3152   4.517   2.410   0.075
 1092TIP3    H1 3153   4.540   2.383  -0.015
 1092TIP3    H2 3154   4.585   2.479   0.091
 1093TIP3   OH2 3155   5.021   2.601   0.130
 1093TIP3    H1 3156   5.086   2.558   0.188
 1093TIP3    H2 3157   5.041   2.695   0.151
 1094TIP3   OH2 3158   4.813   2.664   1.498
 1094TIP3    H1 3159   4.780   2.603   1.566
 1094TIP3    H2 3160   4.905   2.677   1.529
 1095TIP3   OH2 3161   5.059   2.680   1.627
 1095TIP3    H1 3162   5.144   2.660   1.585
 1095TIP3    H2 3163   5.052   2.606   1.691
 1096TIP3   OH2 3164   4.221   3.900  -0.290
 1096TIP3    H1 3165   4.183   3.896  -0.202
 1096TIP3    H2 3166   4.276   3.822  -0.293
 1097TIP3   OH2 3167   5.886   2.738   1.415
 1097TIP3    H1 3168   5.907   2.708   1.506
 1097TIP3    H2 3169   5.975   2.734   1.372
 1098TIP3   OH2 3170   5.826   4.292   0.909
 1098TIP3    H1 3171   5.748   4.259   0.859
 1098TIP3    H2 3172   5.806   4.387   0.910
 1099TIP3   OH2 3173   7.087   3.643   0.059
 1099TIP3    H1 3174   7.128   3.638   0.148
 1099TIP3    H2 3175   7.044   3.555   0.055
 1100TIP3   OH2 3176   6.389   3.562   0.424
 1100TIP3    H1 3177   6.424   3.493   0.483
 1100TIP3    H2 3178   6.471   3.607   0.397
 1101TIP3   OH2 3179   6.354   3.964   0.158
 1101TIP3    H1 3180   6.347   3.866   0.150
 1101TIP3    H2 3181   6.450   3.973   0.164
 1102TIP3   OH2 3182   6.060   3.168  -0.073
 1102TIP3    H1 3183   6.029   3.260  -0.062
 1102TIP3    H2 3184   5.975   3.125  -0.092
 1103TIP3   OH2 3185   6.135   3.460   0.096
 1103TIP3    H1 3186   6.181   3.383   0.135
 1103TIP3    H2 3187   6.196   3.485   0.025
 1104TIP3   OH2 3188   6.884   3.894   0.100
 1104TIP3    H1 3189   6.910   3.809   0.062
 1104TIP3    H2 3190   6.973   3.928   0.127
 1105TIP3   OH2 3191   7.313   3.390   0.141
 1105TIP3    H1 3192   7.353   3.306   0.168
 1105TIP3    H2 3193   7.279   3.366   0.055
 1106TIP3   OH2 3194   6.626   3.043   0.110
 1106TIP3    H1 3195   6.600   3.121   0.055
 1106TIP3    H2 3196   6.578   2.973   0.061
 1107TIP3   OH2 3197   6.271   3.251   0.209
 1107TIP3    H1 3198   6.357   3.235   0.252
 1107TIP3    H2 3199   6.280   3.189   0.133
 1108TIP3   OH2 3200   6.733   3.455   0.028
 1108TIP3    H1 3201   6.826   3.430   0.018
 1108TIP3    H2 3202   6.691   3.383  -0.023
 1109TIP3   OH2 3203   7.961   3.423   0.266
 1109TIP3    H1 3204   7.878   3.474   0.253
 1109TIP3    H2 3205   7.979   3.437   0.359
 1110TIP3   OH2 3206   6.638   3.035   0.536
 1110TIP3    H1 3207   6.578   3.070   0.467
 1110TIP3    H2 3208   6.584   3.053   0.616
 1111TIP3   OH2 3209   6.747   3.813   0.333
 1111TIP3    H1 3210   6.680   3.872   0.373
 1111TIP3    H2 3211   6.787   3.871   0.266
 1112TIP3   OH2 3212   6.505   3.151   0.326
 1112TIP3    H1 3213   6.569   3.223   0.342
 1112TIP3    H2 3214   6.548   3.107   0.248
 1113TIP3   OH2 3215   6.567   4.001   0.423
 1113TIP3    H1 3216   6.542   4.090   0.390
 1113TIP3    H2 3217   6.490   3.985   0.483
 1114TIP3   OH2 3218   7.691   3.117   0.256
 1114TIP3    H1 3219   7.597   3.137   0.243
 1114TIP3    H2 3220   7.726   3.134   0.167
 1115TIP3   OH2 3221   7.000   2.753   0.259
 1115TIP3    H1 3222   6.977   2.659   0.267
 1115TIP3    H2 3223   6.918   2.794   0.295
 1116TIP3   OH2 3224   7.620   4.139   0.247
 1116TIP3    H1 3225   7.626   4.075   0.175
 1116TIP3    H2 3226   7.598   4.220   0.197
 1117TIP3   OH2 3227   7.500   3.635   0.391
 1117TIP3    H1 3228   7.498   3.720   0.439
 1117TIP3    H2 3229   7.416   3.641   0.343
 1118TIP3   OH2 3230   6.476   3.543  -0.077
 1118TIP3    H1 3231   6.452   3.538  -0.171
 1118TIP3    H2 3232   6.571   3.521  -0.079
 1119TIP3   OH2 3233   6.640   4.010   0.021
 1119TIP3    H1 3234   6.591   3.930  -0.004
 1119TIP3    H2 3235   6.724   3.972   0.055
 1120TIP3   OH2 3236   6.636   3.567   0.261
 1120TIP3    H1 3237   6.664   3.538   0.171
 1120TIP3    H2 3238   6.680   3.654   0.270
 1121TIP3   OH2 3239   6.772   4.113   0.576
 1121TIP3    H1 3240   6.717   4.184   0.615
 1121TIP3    H2 3241   6.705   4.066   0.523
 1122TIP3   OH2 3242   6.534   3.678   0.675
 1122TIP3    H1 3243   6.535   3.766   0.719
 1122TIP3    H2 3244   6.438   3.660   0.675
 1123TIP3   OH2 3245   6.571   4.295   0.658
 1123TIP3    H1 3246   6.536   4.293   0.567
 1123TIP3    H2 3247   6.491   4.271   0.710
 1124TIP3   OH2 3248   6.150   3.823   0.604
 1124TIP3    H1 3249   6.085   3.801   0.534
 1124TIP3    H2 3250   6.187   3.735   0.627
 1125TIP3   OH2 3251   6.005   4.014   0.240
 1125TIP3    H1 3252   6.100   4.002   0.222
 1125TIP3    H2 3253   6.006   4.091   0.299
 1126TIP3   OH2 3254   7.873   4.453   0.298
 1126TIP3    H1 3255   7.889   4.359   0.320
 1126TIP3    H2 3256   7.795   4.472   0.353
 1127TIP3   OH2 3257   6.997   4.245   0.451
 1127TIP3    H1 3258   6.974   4.340   0.449
 1127TIP3    H2 3259   6.907   4.209   0.465
 1128TIP3   OH2 3260   7.755   3.595   0.571
 1128TIP3    H1 3261   7.678   3.609   0.513
 1128TIP3    H2 3262   7.771   3.499   0.559
 1129TIP3   OH2 3263   6.356   4.004   0.596
 1129TIP3    H1 3264   6.406   3.985   0.678
 1129TIP3    H2 3265   6.281   3.941   0.601
 1130TIP3   OH2 3266   6.755   2.828   0.376
 1130TIP3    H1 3267   6.666   2.796   0.350
 1130TIP3    H2 3268   6.730   2.912   0.418
 1131TIP3   OH2 3269   7.287   2.944   0.571
 1131TIP3    H1 3270   7.354   2.916   0.636
 1131TIP3    H2 3271   7.202   2.924   0.615
 1132TIP3   OH2 3272   7.531   3.374   0.491
 1132TIP3    H1 3273   7.481   3.369   0.575
 1132TIP3    H2 3274   7.502   3.461   0.456
 1133TIP3   OH2 3275   6.691   3.342   0.400
 1133TIP3    H1 3276   6.636   3.361   0.479
 1133TIP3    H2 3277   6.673   3.422   0.346
 1134TIP3   OH2 3278   6.540   3.235  -0.051
 1134TIP3    H1 3279   6.450   3.215  -0.081
 1134TIP3    H2 3280   6.586   3.257  -0.135
 1135TIP3   OH2 3281   7.236   3.596   0.724
 1135TIP3    H1 3282   7.212   3.523   0.786
 1135TIP3    H2 3283   7.330   3.608   0.746
 1136TIP3   OH2 3284   6.508   3.373   0.604
 1136TIP3    H1 3285   6.527   3.438   0.673
 1136TIP3    H2 3286   6.494   3.291   0.655
 1137TIP3   OH2 3287   6.099   2.893   0.188
 1137TIP3    H1 3288   6.172   2.931   0.240
 1137TIP3    H2 3289   6.142   2.870   0.105
 1138TIP3   OH2 3290   6.228   2.948  -0.311
 1138TIP3    H1 3291   6.247   3.042  -0.324
 1138TIP3    H2 3292   6.131   2.947  -0.307
 1139TIP3   OH2 3293   7.229   3.595   0.293
 1139TIP3    H1 3294   7.263   3.519   0.241
 1139TIP3    H2 3295   7.199   3.548   0.374
 1140TIP3   OH2 3296   6.882   2.974   0.029
 1140TIP3    H1 3297   6.796   3.014   0.053
 1140TIP3    H2 3298   6.943   3.046   0.043
 1141TIP3   OH2 3299   6.304   3.076   0.002
 1141TIP3    H1 3300   6.218   3.099  -0.039
 1141TIP3    H2 3301   6.337   3.003  -0.052
 1142TIP3   OH2 3302   7.384   3.126   0.181
 1142TIP3    H1 3303   7.350   3.142   0.271
 1142TIP3    H2 3304   7.318   3.062   0.149
 1143TIP3   OH2 3305   7.556   4.804   0.385
 1143TIP3    H1 3306   7.511   4.851   0.313
 1143TIP3    H2 3307   7.619   4.871   0.416
 1144TIP3   OH2 3308   6.516   3.926   0.814
 1144TIP3    H1 3309   6.596   3.958   0.861
 1144TIP3    H2 3310   6.452   3.925   0.888
 1145TIP3   OH2 3311   7.005   3.379   0.066
 1145TIP3    H1 3312   7.014   3.302   0.008
 1145TIP3    H2 3313   6.999   3.337   0.155
 1146TIP3   OH2 3314   6.507   2.863  -0.061
 1146TIP3    H1 3315   6.469   2.788  -0.012
 1146TIP3    H2 3316   6.585   2.826  -0.103
 1147TIP3   OH2 3317   6.958   3.280   0.351
 1147TIP3    H1 3318   6.867   3.310   0.369
 1147TIP3    H2 3319   7.012   3.339   0.407
 1148TIP3   OH2 3320   7.101   3.990   0.449
 1148TIP3    H1 3321   7.110   3.959   0.540
 1148TIP3    H2 3322   7.062   4.079   0.461
 1149TIP3   OH2 3323   6.391   3.692   0.134
 1149TIP3    H1 3324   6.411   3.655   0.045
 1149TIP3    H2 3325   6.421   3.619   0.190
 1150TIP3   OH2 3326   6.265   3.610   0.742
 1150TIP3    H1 3327   6.284   3.595   0.837
 1150TIP3    H2 3328   6.196   3.544   0.724
 1151TIP3   OH2 3329   6.990   3.723   0.763
 1151TIP3    H1 3330   6.929   3.666   0.714
 1151TIP3    H2 3331   7.077   3.689   0.733
 1152TIP3   OH2 3332   7.253   4.241   0.345
 1152TIP3    H1 3333   7.159   4.237   0.371
 1152TIP3    H2 3334   7.287   4.295   0.419
 1153TIP3   OH2 3335   7.874   4.180   0.361
 1153TIP3    H1 3336   7.777   4.188   0.355
 1153TIP3    H2 3337   7.894   4.148   0.271
 1154TIP3   OH2 3338   7.136   3.970   0.178
 1154TIP3    H1 3339   7.128   3.976   0.276
 1154TIP3    H2 3340   7.232   3.966   0.167
 1155TIP3   OH2 3341   6.477   3.117   0.752
 1155TIP3    H1 3342   6.381   3.121   0.762
 1155TIP3    H2 3343   6.503   3.054   0.821
 1156TIP3   OH2 3344   6.190   4.201   0.392
 1156TIP3    H1 3345   6.245   4.123   0.409
 1156TIP3    H2 3346   6.234   4.266   0.449
 1157TIP3   OH2 3347   7.314   3.183   0.436
 1157TIP3    H1 3348   7.394   3.217   0.478
 1157TIP3    H2 3349   7.298   3.100   0.486
 1158TIP3   OH2 3350   7.157   3.435   0.503
 1158TIP3    H1 3351   7.173   3.487   0.585
 1158TIP3    H2 3352   7.208   3.354   0.518
 1159TIP3   OH2 3353   7.798   3.330   0.487
 1159TIP3    H1 3354   7.700   3.327   0.494
 1159TIP3    H2 3355   7.810   3.294   0.398
 1160TIP3   OH2 3356   6.490   2.749   0.352
 1160TIP3    H1 3357   6.457   2.717   0.265
 1160TIP3    H2 3358   6.477   2.670   0.408
 1161TIP3   OH2 3359   6.183   4.507   0.806
 1161TIP3    H1 3360   6.271   4.503   0.850
 1161TIP3    H2 3361   6.162   4.412   0.801
 1162TIP3   OH2 3362   6.669   4.474   0.848
 1162TIP3    H1 3363   6.763   4.451   0.852
 1162TIP3    H2 3364   6.640   4.417   0.774
 1163TIP3   OH2 3365   7.314   4.380   0.577
 1163TIP3    H1 3366   7.299   4.311   0.645
 1163TIP3    H2 3367   7.388   4.430   0.616
 1164TIP3   OH2 3368   6.315   3.915   1.005
 1164TIP3    H1 3369   6.332   3.819   1.008
 1164TIP3    H2 3370   6.228   3.918   0.961
 1165TIP3   OH2 3371   6.923   4.000   0.779
 1165TIP3    H1 3372   6.879   4.020   0.694
 1165TIP3    H2 3373   6.952   3.907   0.768
 1166TIP3   OH2 3374   7.417   4.006   0.385
 1166TIP3    H1 3375   7.485   4.059   0.340
 1166TIP3    H2 3376   7.341   4.066   0.380
 1167TIP3   OH2 3377   6.433   3.650   0.987
 1167TIP3    H1 3378   6.507   3.593   0.964
 1167TIP3    H2 3379   6.460   3.682   1.076
 1168TIP3   OH2 3380   6.772   3.536   0.652
 1168TIP3    H1 3381   6.691   3.592   0.654
 1168TIP3    H2 3382   6.817   3.568   0.571
 1169TIP3   OH2 3383   7.287   3.937   0.784
 1169TIP3    H1 3384   7.367   3.913   0.736
 1169TIP3    H2 3385   7.282   3.868   0.852
 1170TIP3   OH2 3386   6.895   3.322   0.774
 1170TIP3    H1 3387   6.892   3.242   0.717
 1170TIP3    H2 3388   6.850   3.388   0.717
 1171TIP3   OH2 3389   6.896   3.109   0.579
 1171TIP3    H1 3390   6.921   3.147   0.493
 1171TIP3    H2 3391   6.802   3.085   0.563
 1172TIP3   OH2 3392   6.924   3.647   0.456
 1172TIP3    H1 3393   7.003   3.651   0.401
 1172TIP3    H2 3394   6.865   3.713   0.414
 1173TIP3   OH2 3395   7.506   3.611   0.837
 1173TIP3    H1 3396   7.554   3.527   0.844
 1173TIP3    H2 3397   7.574   3.670   0.801
 1174TIP3   OH2 3398   7.552   3.866   0.570
 1174TIP3    H1 3399   7.491   3.918   0.514
 1174TIP3    H2 3400   7.636   3.882   0.522
 1175TIP3   OH2 3401   6.773   3.434   1.006
 1175TIP3    H1 3402   6.703   3.366   1.018
 1175TIP3    H2 3403   6.805   3.412   0.916
 1176TIP3   OH2 3404   7.028   2.873   0.647
 1176TIP3    H1 3405   6.979   2.954   0.624
 1176TIP3    H2 3406   6.958   2.805   0.635
 1177TIP3   OH2 3407   7.154   3.377   0.864
 1177TIP3    H1 3408   7.140   3.365   0.960
 1177TIP3    H2 3409   7.065   3.352   0.832
 1178TIP3   OH2 3410   7.394   3.325   0.719
 1178TIP3    H1 3411   7.317   3.327   0.779
 1178TIP3    H2 3412   7.466   3.294   0.778
 1179TIP3   OH2 3413   7.627   3.267   0.871
 1179TIP3    H1 3414   7.636   3.171   0.890
 1179TIP3    H2 3415   7.620   3.306   0.961
 1180TIP3   OH2 3416   6.611   3.215   1.056
 1180TIP3    H1 3417   6.615   3.125   1.020
 1180TIP3    H2 3418   6.646   3.201   1.146
 1181TIP3   OH2 3419   7.124   2.882   0.905
 1181TIP3    H1 3420   7.189   2.810   0.898
 1181TIP3    H2 3421   7.082   2.876   0.816
 1182TIP3   OH2 3422   7.189   3.097   1.064
 1182TIP3    H1 3423   7.166   3.026   1.000
 1182TIP3    H2 3424   7.111   3.156   1.057
 1183TIP3   OH2 3425   5.929   4.176   0.002
 1183TIP3    H1 3426   5.917   4.098   0.058
 1183TIP3    H2 3427   5.980   4.234   0.062
 1184TIP3   OH2 3428   7.741   4.264   0.639
 1184TIP3    H1 3429   7.667   4.277   0.703
 1184TIP3    H2 3430   7.782   4.353   0.641
 1185TIP3   OH2 3431   6.125   3.577   0.352
 1185TIP3    H1 3432   6.126   3.547   0.258
 1185TIP3    H2 3433   6.222   3.580   0.370
 1186TIP3   OH2 3434   7.789   3.930   0.447
 1186TIP3    H1 3435   7.866   3.868   0.454
 1186TIP3    H2 3436   7.830   4.015   0.423
 1187TIP3   OH2 3437   7.969   3.737   0.500
 1187TIP3    H1 3438   7.893   3.683   0.529
 1187TIP3    H2 3439   8.041   3.671   0.509
 1188TIP3   OH2 3440   7.731   3.573   0.237
 1188TIP3    H1 3441   7.650   3.578   0.291
 1188TIP3    H2 3442   7.696   3.603   0.151
 1189TIP3   OH2 3443   6.343   3.266   1.031
 1189TIP3    H1 3444   6.441   3.258   1.029
 1189TIP3    H2 3445   6.319   3.180   1.070
 1190TIP3   OH2 3446   8.186   3.135   0.786
 1190TIP3    H1 3447   8.236   3.065   0.738
 1190TIP3    H2 3448   8.150   3.188   0.712
 1191TIP3   OH2 3449   6.304   2.958   0.366
 1191TIP3    H1 3450   6.367   2.883   0.370
 1191TIP3    H2 3451   6.365   3.033   0.354
 1192TIP3   OH2 3452   6.109   3.232   0.434
 1192TIP3    H1 3453   6.157   3.222   0.349
 1192TIP3    H2 3454   6.138   3.320   0.460
 1193TIP3   OH2 3455   8.050   3.273   0.597
 1193TIP3    H1 3456   7.961   3.311   0.612
 1193TIP3    H2 3457   8.025   3.203   0.533
 1194TIP3   OH2 3458   6.086   2.736  -0.076
 1194TIP3    H1 3459   5.995   2.733  -0.042
 1194TIP3    H2 3460   6.084   2.806  -0.142
 1195TIP3   OH2 3461   6.312   2.816   0.749
 1195TIP3    H1 3462   6.259   2.811   0.830
 1195TIP3    H2 3463   6.247   2.853   0.687
 1196TIP3   OH2 3464   6.351   4.244   0.827
 1196TIP3    H1 3465   6.261   4.214   0.805
 1196TIP3    H2 3466   6.357   4.221   0.920
 1197TIP3   OH2 3467   6.516   4.275   0.379
 1197TIP3    H1 3468   6.469   4.346   0.331
 1197TIP3    H2 3469   6.606   4.295   0.347
 1198TIP3   OH2 3470   6.972   4.527   0.520
 1198TIP3    H1 3471   7.016   4.518   0.607
 1198TIP3    H2 3472   7.040   4.575   0.468
 1199TIP3   OH2 3473   7.153   4.661   0.368
 1199TIP3    H1 3474   7.225   4.601   0.349
 1199TIP3    H2 3475   7.197   4.728   0.425
 1200TIP3   OH2 3476   7.946   3.035   0.479
 1200TIP3    H1 3477   7.858   3.033   0.438
 1200TIP3    H2 3478   7.976   2.943   0.463
 1201TIP3   OH2 3479   6.201   4.531   0.400
 1201TIP3    H1 3480   6.114   4.568   0.375
 1201TIP3    H2 3481   6.208   4.562   0.491
 1202TIP3   OH2 3482   6.423   4.510   0.243
 1202TIP3    H1 3483   6.346   4.529   0.301
 1202TIP3    H2 3484   6.388   4.528   0.156
 1203TIP3   OH2 3485   6.106   4.328   0.161
 1203TIP3    H1 3486   6.136   4.301   0.250
 1203TIP3    H2 3487   6.176   4.285   0.107
 1204TIP3   OH2 3488   6.303   4.206   0.022
 1204TIP3    H1 3489   6.317   4.116   0.059
 1204TIP3    H2 3490   6.394   4.243   0.023
 1205TIP3   OH2 3491   6.568   4.286   0.027
 1205TIP3    H1 3492   6.595   4.192   0.030
 1205TIP3    H2 3493   6.626   4.322   0.097
 1206TIP3   OH2 3494   7.169   2.961   0.108
 1206TIP3    H1 3495   7.095   2.909   0.143
 1206TIP3    H2 3496   7.226   2.891   0.069
 1207TIP3   OH2 3497   7.666   2.866   0.036
 1207TIP3    H1 3498   7.708   2.933  -0.019
 1207TIP3    H2 3499   7.573   2.874   0.011
 1208TIP3   OH2 3500   6.398   2.662   0.103
 1208TIP3    H1 3501   6.306   2.630   0.101
 1208TIP3    H2 3502   6.445   2.575   0.104
 1209TIP3   OH2 3503   6.200   2.518  -0.211
 1209TIP3    H1 3504   6.169   2.548  -0.298
 1209TIP3    H2 3505   6.170   2.589  -0.152
 1210TIP3   OH2 3506   6.853   2.686  -0.015
 1210TIP3    H1 3507   6.880   2.760  -0.071
 1210TIP3    H2 3508   6.853   2.731   0.071
 1211TIP3   OH2 3509   7.365   2.810  -0.009
 1211TIP3    H1 3510   7.331   2.761  -0.088
 1211TIP3    H2 3511   7.376   2.735   0.053
 1212TIP3   OH2 3512   6.609   2.939   0.997
 1212TIP3    H1 3513   6.575   2.867   1.053
 1212TIP3    H2 3514   6.704   2.939   1.022
 1213TIP3   OH2 3515   6.859   2.935   1.115
 1213TIP3    H1 3516   6.942   2.909   1.073
 1213TIP3    H2 3517   6.846   2.863   1.181
 1214TIP3   OH2 3518   7.683   2.995   0.901
 1214TIP3    H1 3519   7.702   2.964   0.993
 1214TIP3    H2 3520   7.771   2.989   0.860
 1215TIP3   OH2 3521   7.633   4.539   0.413
 1215TIP3    H1 3522   7.592   4.494   0.336
 1215TIP3    H2 3523   7.605   4.632   0.400
 1216TIP3   OH2 3524   8.360   4.122   0.338
 1216TIP3    H1 3525   8.395   4.194   0.393
 1216TIP3    H2 3526   8.282   4.097   0.392
 1217TIP3   OH2 3527   8.070   3.821   0.250
 1217TIP3    H1 3528   8.120   3.847   0.331
 1217TIP3    H2 3529   8.022   3.744   0.284
 1218TIP3   OH2 3530   8.218   3.279   0.261
 1218TIP3    H1 3531   8.185   3.370   0.257
 1218TIP3    H2 3532   8.284   3.281   0.333
 1219TIP3   OH2 3533   8.119   4.170   0.485
 1219TIP3    H1 3534   8.116   4.076   0.509
 1219TIP3    H2 3535   8.027   4.184   0.455
 1220TIP3   OH2 3536   8.228   3.896   0.476
 1220TIP3    H1 3537   8.298   3.831   0.461
 1220TIP3    H2 3538   8.251   3.929   0.565
 1221TIP3   OH2 3539   8.556   3.697   0.471
 1221TIP3    H1 3540   8.488   3.630   0.493
 1221TIP3    H2 3541   8.576   3.673   0.380
 1222TIP3   OH2 3542   8.404   3.481   0.554
 1222TIP3    H1 3543   8.417   3.404   0.497
 1222TIP3    H2 3544   8.435   3.449   0.641
 1223TIP3   OH2 3545   8.138   3.526   0.518
 1223TIP3    H1 3546   8.236   3.519   0.519
 1223TIP3    H2 3547   8.114   3.439   0.555
 1224TIP3   OH2 3548   8.067   3.063   0.224
 1224TIP3    H1 3549   8.040   3.070   0.317
 1224TIP3    H2 3550   8.104   3.153   0.210
 1225TIP3   OH2 3551   8.375   3.193   0.475
 1225TIP3    H1 3552   8.342   3.121   0.530
 1225TIP3    H2 3553   8.469   3.197   0.504
 1226TIP3   OH2 3554   8.614   3.199   0.596
 1226TIP3    H1 3555   8.711   3.204   0.583
 1226TIP3    H2 3556   8.609   3.125   0.661
 1227TIP3   OH2 3557  -0.128   4.989   1.632
 1227TIP3    H1 3558  -0.223   4.973   1.634
 1227TIP3    H2 3559  -0.116   5.044   1.551
 1228TIP3   OH2 3560   0.085   4.910   1.938
 1228TIP3    H1 3561   0.076   4.833   1.878
 1228TIP3    H2 3562   0.072   4.985   1.876
 1229TIP3   OH2 3563   0.281   4.548   1.801
 1229TIP3    H1 3564   0.196   4.594   1.790
 1229TIP3    H2 3565   0.309   4.535   1.708
 1230TIP3   OH2 3566  -0.022   4.421   2.079
 1230TIP3    H1 3567  -0.031   4.507   2.125
 1230TIP3    H2 3568  -0.097   4.424   2.017
 1231TIP3   OH2 3569   0.321   5.257   1.979
 1231TIP3    H1 3570   0.322   5.160   1.988
 1231TIP3    H2 3571   0.238   5.278   2.028
 1232TIP3   OH2 3572  -0.556   5.026   2.128
 1232TIP3    H1 3573  -0.545   5.119   2.160
 1232TIP3    H2 3574  -0.652   5.021   2.124
 1233TIP3   OH2 3575   0.038   4.185   2.176
 1233TIP3    H1 3576  -0.003   4.155   2.261
 1233TIP3    H2 3577  -0.023   4.260   2.158
 1234TIP3   OH2 3578  -0.309   4.412   2.447
 1234TIP3    H1 3579  -0.342   4.324   2.474
 1234TIP3    H2 3580  -0.214   4.394   2.435
 1235TIP3   OH2 3581   0.009   5.599   2.102
 1235TIP3    H1 3582   0.002   5.621   2.007
 1235TIP3    H2 3583   0.080   5.659   2.132
 1236TIP3   OH2 3584   0.048   4.695   1.771
 1236TIP3    H1 3585   0.088   4.742   1.694
 1236TIP3    H2 3586  -0.041   4.677   1.739
 1237TIP3   OH2 3587  -0.428   4.787   2.128
 1237TIP3    H1 3588  -0.436   4.754   2.219
 1237TIP3    H2 3589  -0.482   4.869   2.134
 1238TIP3   OH2 3590  -0.554   4.531   2.492
 1238TIP3    H1 3591  -0.611   4.501   2.417
 1238TIP3    H2 3592  -0.469   4.491   2.467
 1239TIP3   OH2 3593  -0.299   5.091   2.018
 1239TIP3    H1 3594  -0.383   5.047   2.040
 1239TIP3    H2 3595  -0.267   5.110   2.109
 1240TIP3   OH2 3596   0.336   4.973   2.022
 1240TIP3    H1 3597   0.238   4.961   2.015
 1240TIP3    H2 3598   0.363   4.935   1.936
 1241TIP3   OH2 3599  -0.314   4.799   1.862
 1241TIP3    H1 3600  -0.358   4.815   1.947
 1241TIP3    H2 3601  -0.352   4.714   1.837
 1242TIP3   OH2 3602  -0.140   5.289   1.929
 1242TIP3    H1 3603  -0.198   5.215   1.959
 1242TIP3    H2 3604  -0.199   5.330   1.863
 1243TIP3   OH2 3605  -0.227   5.164   2.268
 1243TIP3    H1 3606  -0.238   5.095   2.338
 1243TIP3    H2 3607  -0.158   5.221   2.308
 1244TIP3   OH2 3608  -0.609   4.795   2.455
 1244TIP3    H1 3609  -0.676   4.771   2.390
 1244TIP3    H2 3610  -0.580   4.706   2.484
 1245TIP3   OH2 3611  -0.119   4.790   2.085
 1245TIP3    H1 3612  -0.052   4.841   2.035
 1245TIP3    H2 3613  -0.201   4.828   2.050
 1246TIP3   OH2 3614  -0.257   4.719   2.479
 1246TIP3    H1 3615  -0.182   4.708   2.420
 1246TIP3    H2 3616  -0.278   4.629   2.504
 1247TIP3   OH2 3617  -0.044   4.416   2.547
 1247TIP3    H1 3618  -0.015   4.327   2.520
 1247TIP3    H2 3619   0.025   4.473   2.512
 1248TIP3   OH2 3620   0.008   4.645   2.265
 1248TIP3    H1 3621  -0.052   4.701   2.210
 1248TIP3    H2 3622   0.094   4.671   2.224
 1249TIP3   OH2 3623  -0.422   4.184   2.563
 1249TIP3    H1 3624  -0.418   4.155   2.656
 1249TIP3    H2 3625  -0.517   4.207   2.559
 1250TIP3   OH2 3626  -0.091   4.162   2.419
 1250TIP3    H1 3627  -0.172   4.109   2.431
 1250TIP3    H2 3628  -0.025   4.108   2.469
 1251TIP3   OH2 3629   0.101   4.046   2.569
 1251TIP3    H1 3630   0.102   3.950   2.588
 1251TIP3    H2 3631   0.089   4.086   2.658
 1252TIP3   OH2 3632   0.145   5.422   1.482
 1252TIP3    H1 3633   0.183   5.380   1.560
 1252TIP3    H2 3634   0.202   5.386   1.411
 1253TIP3   OH2 3635   0.163   5.387   1.769
 1253TIP3    H1 3636   0.108   5.307   1.754
 1253TIP3    H2 3637   0.233   5.346   1.822
 1254TIP3   OH2 3638   0.196   5.056   2.327
 1254TIP3    H1 3639   0.121   5.063   2.390
 1254TIP3    H2 3640   0.233   5.146   2.330
 1255TIP3   OH2 3641   0.191   4.819   1.579
 1255TIP3    H1 3642   0.254   4.758   1.536
 1255TIP3    H2 3643   0.196   4.898   1.520
 1256TIP3   OH2 3644   0.040   5.137   1.784
 1256TIP3    H1 3645  -0.032   5.180   1.836
 1256TIP3    H2 3646  -0.012   5.085   1.719
 1257TIP3   OH2 3647   0.243   4.720   2.150
 1257TIP3    H1 3648   0.319   4.659   2.142
 1257TIP3    H2 3649   0.264   4.784   2.080
 1258TIP3   OH2 3650   0.413   4.521   2.223
 1258TIP3    H1 3651   0.356   4.445   2.227
 1258TIP3    H2 3652   0.499   4.477   2.205
 1259TIP3   OH2 3653   0.616   3.911   2.462
 1259TIP3    H1 3654   0.684   3.844   2.437
 1259TIP3    H2 3655   0.630   3.978   2.393
 1260TIP3   OH2 3656   0.486   4.070   2.265
 1260TIP3    H1 3657   0.432   4.079   2.346
 1260TIP3    H2 3658   0.464   3.981   2.233
 1261TIP3   OH2 3659  -0.547   5.281   2.210
 1261TIP3    H1 3660  -0.544   5.328   2.295
 1261TIP3    H2 3661  -0.520   5.351   2.148
 1262TIP3   OH2 3662  -0.370   5.433   2.050
 1262TIP3    H1 3663  -0.282   5.393   2.049
 1262TIP3    H2 3664  -0.354   5.506   2.112
 1263TIP3   OH2 3665   0.387   3.813   2.155
 1263TIP3    H1 3666   0.301   3.812   2.109
 1263TIP3    H2 3667   0.409   3.718   2.152
 1264TIP3   OH2 3668   0.134   3.774   2.594
 1264TIP3    H1 3669   0.160   3.746   2.684
 1264TIP3    H2 3670   0.221   3.774   2.548
 1265TIP3   OH2 3671   0.082   5.336   2.091
 1265TIP3    H1 3672   0.007   5.305   2.036
 1265TIP3    H2 3673   0.058   5.431   2.099
 1266TIP3   OH2 3674   1.364   4.726   0.872
 1266TIP3    H1 3675   1.330   4.814   0.847
 1266TIP3    H2 3676   1.290   4.672   0.839
 1267TIP3   OH2 3677   1.346   4.706   1.226
 1267TIP3    H1 3678   1.372   4.682   1.316
 1267TIP3    H2 3679   1.303   4.625   1.194
 1268TIP3   OH2 3680   1.585   5.006   0.911
 1268TIP3    H1 3681   1.563   4.938   0.975
 1268TIP3    H2 3682   1.607   5.082   0.968
 1269TIP3   OH2 3683   0.610   5.008   1.327
 1269TIP3    H1 3684   0.600   4.911   1.335
 1269TIP3    H2 3685   0.706   5.016   1.314
 1270TIP3   OH2 3686   1.228   5.468   0.928
 1270TIP3    H1 3687   1.282   5.397   0.887
 1270TIP3    H2 3688   1.212   5.432   1.017
 1271TIP3   OH2 3689   1.132   4.921   1.284
 1271TIP3    H1 3690   1.195   4.863   1.238
 1271TIP3    H2 3691   1.177   5.008   1.271
 1272TIP3   OH2 3692   2.161   4.248   1.280
 1272TIP3    H1 3693   2.169   4.334   1.324
 1272TIP3    H2 3694   2.173   4.272   1.187
 1273TIP3   OH2 3695   1.557   4.415   1.322
 1273TIP3    H1 3696   1.556   4.320   1.304
 1273TIP3    H2 3697   1.522   4.446   1.236
 1274TIP3   OH2 3698   1.568   4.178   0.919
 1274TIP3    H1 3699   1.653   4.173   0.968
 1274TIP3    H2 3700   1.595   4.209   0.832
 1275TIP3   OH2 3701   0.983   4.486   1.155
 1275TIP3    H1 3702   1.076   4.470   1.181
 1275TIP3    H2 3703   0.946   4.398   1.162
 1276TIP3   OH2 3704   2.197   4.449   1.484
 1276TIP3    H1 3705   2.133   4.513   1.448
 1276TIP3    H2 3706   2.253   4.505   1.541
 1277TIP3   OH2 3707   0.891   4.059   1.719
 1277TIP3    H1 3708   0.840   4.110   1.652
 1277TIP3    H2 3709   0.842   4.085   1.801
 1278TIP3   OH2 3710   1.238   4.928   0.728
 1278TIP3    H1 3711   1.203   4.913   0.639
 1278TIP3    H2 3712   1.201   5.016   0.747
 1279TIP3   OH2 3713   1.002   4.848   1.521
 1279TIP3    H1 3714   0.932   4.912   1.549
 1279TIP3    H2 3715   1.034   4.888   1.437
 1280TIP3   OH2 3716   1.793   4.192   1.074
 1280TIP3    H1 3717   1.825   4.116   1.123
 1280TIP3    H2 3718   1.852   4.264   1.103
 1281TIP3   OH2 3719   0.781   4.207   1.527
 1281TIP3    H1 3720   0.741   4.296   1.539
 1281TIP3    H2 3721   0.776   4.192   1.432
 1282TIP3   OH2 3722   0.825   5.049   1.609
 1282TIP3    H1 3723   0.798   5.131   1.564
 1282TIP3    H2 3724   0.744   5.031   1.660
 1283TIP3   OH2 3725   1.637   5.253   1.095
 1283TIP3    H1 3726   1.547   5.241   1.130
 1283TIP3    H2 3727   1.629   5.338   1.047
 1284TIP3   OH2 3728   1.268   3.817   1.429
 1284TIP3    H1 3729   1.246   3.723   1.445
 1284TIP3    H2 3730   1.183   3.858   1.459
 1285TIP3   OH2 3731   1.368   5.299   0.763
 1285TIP3    H1 3732   1.415   5.217   0.737
 1285TIP3    H2 3733   1.431   5.366   0.725
 1286TIP3   OH2 3734   1.497   5.084   0.661
 1286TIP3    H1 3735   1.470   5.005   0.612
 1286TIP3    H2 3736   1.534   5.044   0.743
 1287TIP3   OH2 3737   1.882   5.167   1.423
 1287TIP3    H1 3738   1.868   5.089   1.366
 1287TIP3    H2 3739   1.861   5.241   1.362
 1288TIP3   OH2 3740   1.195   4.595   0.705
 1288TIP3    H1 3741   1.108   4.633   0.680
 1288TIP3    H2 3742   1.249   4.621   0.629
 1289TIP3   OH2 3743   2.075   4.799   1.269
 1289TIP3    H1 3744   1.992   4.852   1.274
 1289TIP3    H2 3745   2.105   4.825   1.179
 1290TIP3   OH2 3746   1.525   4.650   0.663
 1290TIP3    H1 3747   1.476   4.678   0.744
 1290TIP3    H2 3748   1.607   4.615   0.704
 1291TIP3   OH2 3749   1.759   4.686   1.561
 1291TIP3    H1 3750   1.754   4.769   1.612
 1291TIP3    H2 3751   1.670   4.687   1.520
 1292TIP3   OH2 3752   0.776   4.639   1.061
 1292TIP3    H1 3753   0.727   4.556   1.044
 1292TIP3    H2 3754   0.857   4.603   1.102
 1293TIP3   OH2 3755   0.880   5.043   1.214
 1293TIP3    H1 3756   0.880   4.974   1.147
 1293TIP3    H2 3757   0.973   5.038   1.244
 1294TIP3   OH2 3758   0.880   4.635   1.381
 1294TIP3    H1 3759   0.952   4.615   1.319
 1294TIP3    H2 3760   0.921   4.693   1.447
 1295TIP3   OH2 3761   1.024   5.160   1.778
 1295TIP3    H1 3762   0.956   5.227   1.801
 1295TIP3    H2 3763   0.971   5.106   1.716
 1296TIP3   OH2 3764   1.357   4.526   0.486
 1296TIP3    H1 3765   1.430   4.558   0.543
 1296TIP3    H2 3766   1.391   4.544   0.397
 1297TIP3   OH2 3767   0.799   4.726   1.871
 1297TIP3    H1 3768   0.761   4.812   1.895
 1297TIP3    H2 3769   0.736   4.689   1.807
 1298TIP3   OH2 3770   1.102   5.193   0.737
 1298TIP3    H1 3771   1.181   5.229   0.779
 1298TIP3    H2 3772   1.032   5.253   0.764
 1299TIP3   OH2 3773   0.820   5.345   1.837
 1299TIP3    H1 3774   0.792   5.343   1.743
 1299TIP3    H2 3775   0.739   5.314   1.883
 1300TIP3   OH2 3776   1.682   5.113   0.086
 1300TIP3    H1 3777   1.687   5.205   0.057
 1300TIP3    H2 3778   1.772   5.080   0.066
 1301TIP3   OH2 3779   0.399   4.873   1.778
 1301TIP3    H1 3780   0.339   4.841   1.708
 1301TIP3    H2 3781   0.429   4.788   1.818
 1302TIP3   OH2 3782   0.254   5.038   1.416
 1302TIP3    H1 3783   0.348   5.049   1.395
 1302TIP3    H2 3784   0.230   5.127   1.445
 1303TIP3   OH2 3785   2.117   5.511   1.470
 1303TIP3    H1 3786   2.115   5.414   1.481
 1303TIP3    H2 3787   2.033   5.535   1.515
 1304TIP3   OH2 3788   1.232   5.295   1.627
 1304TIP3    H1 3789   1.219   5.391   1.634
 1304TIP3    H2 3790   1.148   5.261   1.661
 1305TIP3   OH2 3791   1.250   5.366   0.515
 1305TIP3    H1 3792   1.188   5.388   0.583
 1305TIP3    H2 3793   1.316   5.316   0.566
 1306TIP3   OH2 3794   2.013   4.639   1.731
 1306TIP3    H1 3795   1.925   4.670   1.703
 1306TIP3    H2 3796   1.995   4.570   1.795
 1307TIP3   OH2 3797   0.603   5.056   1.773
 1307TIP3    H1 3798   0.653   5.033   1.854
 1307TIP3    H2 3799   0.530   4.990   1.774
 1308TIP3   OH2 3800   1.030   3.912   1.527
 1308TIP3    H1 3801   0.959   3.846   1.516
 1308TIP3    H2 3802   0.984   3.972   1.590
 1309TIP3   OH2 3803   1.546   3.992   1.740
 1309TIP3    H1 3804   1.605   3.964   1.812
 1309TIP3    H2 3805   1.457   3.981   1.781
 1310TIP3   OH2 3806   1.300   4.375   0.830
 1310TIP3    H1 3807   1.256   4.450   0.785
 1310TIP3    H2 3808   1.368   4.351   0.764
 1311TIP3   OH2 3809   1.480   4.647   1.904
 1311TIP3    H1 3810   1.462   4.570   1.963
 1311TIP3    H2 3811   1.575   4.660   1.921
 1312TIP3   OH2 3812   1.471   4.395   1.055
 1312TIP3    H1 3813   1.406   4.423   0.987
 1312TIP3    H2 3814   1.496   4.308   1.016
 1313TIP3   OH2 3815   1.479   4.629   1.476
 1313TIP3    H1 3816   1.514   4.556   1.420
 1313TIP3    H2 3817   1.453   4.578   1.556
 1314TIP3   OH2 3818   1.156   4.132   1.173
 1314TIP3    H1 3819   1.082   4.090   1.219
 1314TIP3    H2 3820   1.233   4.098   1.223
 1315TIP3   OH2 3821   1.807   5.862   1.567
 1315TIP3    H1 3822   1.804   5.884   1.472
 1315TIP3    H2 3823   1.886   5.911   1.596
 1316TIP3   OH2 3824   0.755   4.989   1.995
 1316TIP3    H1 3825   0.839   5.006   2.043
 1316TIP3    H2 3826   0.694   4.975   2.070
 1317TIP3   OH2 3827   1.235   4.432   1.252
 1317TIP3    H1 3828   1.281   4.372   1.191
 1317TIP3    H2 3829   1.236   4.380   1.335
 1318TIP3   OH2 3830   1.208   4.331   1.537
 1318TIP3    H1 3831   1.126   4.379   1.555
 1318TIP3    H2 3832   1.274   4.379   1.591
 1319TIP3   OH2 3833   0.950   4.702   0.644
 1319TIP3    H1 3834   0.885   4.631   0.649
 1319TIP3    H2 3835   0.936   4.748   0.731
 1320TIP3   OH2 3836   1.846   4.947   1.262
 1320TIP3    H1 3837   1.867   4.997   1.180
 1320TIP3    H2 3838   1.760   4.905   1.239
 1321TIP3   OH2 3839   1.355   5.049   1.711
 1321TIP3    H1 3840   1.307   4.975   1.676
 1321TIP3    H2 3841   1.340   5.117   1.642
 1322TIP3   OH2 3842   1.491   4.308   0.652
 1322TIP3    H1 3843   1.587   4.296   0.639
 1322TIP3    H2 3844   1.458   4.306   0.559
 1323TIP3   OH2 3845   0.630   4.724   1.322
 1323TIP3    H1 3846   0.668   4.707   1.235
 1323TIP3    H2 3847   0.696   4.677   1.378
 1324TIP3   OH2 3848   1.094   4.886   0.492
 1324TIP3    H1 3849   1.047   4.966   0.462
 1324TIP3    H2 3850   1.027   4.836   0.542
 1325TIP3   OH2 3851   0.485   4.678   1.945
 1325TIP3    H1 3852   0.554   4.643   2.004
 1325TIP3    H2 3853   0.456   4.600   1.894
 1326TIP3   OH2 3854   1.233   4.765   1.936
 1326TIP3    H1 3855   1.167   4.707   1.895
 1326TIP3    H2 3856   1.317   4.724   1.905
 1327TIP3   OH2 3857   1.516   5.288   1.534
 1327TIP3    H1 3858   1.433   5.277   1.483
 1327TIP3    H2 3859   1.491   5.358   1.595
 1328TIP3   OH2 3860   1.910   4.360   0.429
 1328TIP3    H1 3861   1.849   4.311   0.373
 1328TIP3    H2 3862   1.904   4.449   0.388
 1329TIP3   OH2 3863   2.132   5.220   1.512
 1329TIP3    H1 3864   2.034   5.215   1.502
 1329TIP3    H2 3865   2.158   5.190   1.422
 1330TIP3   OH2 3866   1.621   5.180   0.345
 1330TIP3    H1 3867   1.575   5.110   0.394
 1330TIP3    H2 3868   1.625   5.142   0.255
 1331TIP3   OH2 3869   1.620   4.807   1.177
 1331TIP3    H1 3870   1.525   4.793   1.194
 1331TIP3    H2 3871   1.642   4.727   1.126
 1332TIP3   OH2 3872   0.722   5.046   0.905
 1332TIP3    H1 3873   0.753   5.127   0.946
 1332TIP3    H2 3874   0.639   5.029   0.952
 1333TIP3   OH2 3875   0.877   4.814   0.873
 1333TIP3    H1 3876   0.830   4.900   0.884
 1333TIP3    H2 3877   0.841   4.761   0.947
 1334TIP3   OH2 3878   1.012   5.381   1.405
 1334TIP3    H1 3879   1.047   5.455   1.350
 1334TIP3    H2 3880   1.089   5.321   1.399
 1335TIP3   OH2 3881   1.360   4.899   0.251
 1335TIP3    H1 3882   1.406   4.881   0.334
 1335TIP3    H2 3883   1.276   4.854   0.260
 1336TIP3   OH2 3884   1.647   5.553   1.408
 1336TIP3    H1 3885   1.563   5.504   1.394
 1336TIP3    H2 3886   1.636   5.621   1.338
 1337TIP3   OH2 3887   1.704   5.391   0.058
 1337TIP3    H1 3888   1.756   5.466   0.024
 1337TIP3    H2 3889   1.614   5.420   0.038
 1338TIP3   OH2 3890   0.755   4.132   1.943
 1338TIP3    H1 3891   0.680   4.191   1.948
 1338TIP3    H2 3892   0.751   4.079   2.024
 1339TIP3   OH2 3893   1.527   4.846   0.470
 1339TIP3    H1 3894   1.523   4.778   0.540
 1339TIP3    H2 3895   1.622   4.843   0.447
 1340TIP3   OH2 3896   0.441   5.247   1.568
 1340TIP3    H1 3897   0.486   5.164   1.590
 1340TIP3    H2 3898   0.488   5.310   1.623
 1341TIP3   OH2 3899   1.221   4.119   0.880
 1341TIP3    H1 3900   1.248   4.210   0.854
 1341TIP3    H2 3901   1.160   4.141   0.953
 1342TIP3   OH2 3902   1.417   4.464   1.690
 1342TIP3    H1 3903   1.400   4.538   1.750
 1342TIP3    H2 3904   1.475   4.409   1.746
 1343TIP3   OH2 3905   1.340   3.902   0.995
 1343TIP3    H1 3906   1.312   3.928   1.084
 1343TIP3    H2 3907   1.325   3.985   0.947
 1344TIP3   OH2 3908   1.955   4.336   1.609
 1344TIP3    H1 3909   1.966   4.415   1.663
 1344TIP3    H2 3910   2.035   4.347   1.552
 1345TIP3   OH2 3911   1.695   4.564   1.051
 1345TIP3    H1 3912   1.618   4.504   1.056
 1345TIP3    H2 3913   1.764   4.515   1.099
 1346TIP3   OH2 3914   1.660   5.523   1.003
 1346TIP3    H1 3915   1.619   5.573   0.929
 1346TIP3    H2 3916   1.755   5.541   0.982
 1347TIP3   OH2 3917   0.438   5.546   1.985
 1347TIP3    H1 3918   0.518   5.514   2.030
 1347TIP3    H2 3919   0.395   5.460   1.968
 1348TIP3   OH2 3920   0.904   5.526   2.027
 1348TIP3    H1 3921   1.001   5.535   2.029
 1348TIP3    H2 3922   0.890   5.458   1.958
 1349TIP3   OH2 3923   1.551   5.423   1.798
 1349TIP3    H1 3924   1.595   5.343   1.769
 1349TIP3    H2 3925   1.625   5.487   1.800
 1350TIP3   OH2 3926   0.558   4.954   2.185
 1350TIP3    H1 3927   0.576   4.858   2.186
 1350TIP3    H2 3928   0.474   4.957   2.135
 1351TIP3   OH2 3929   1.204   5.029   1.955
 1351TIP3    H1 3930   1.158   5.063   1.875
 1351TIP3    H2 3931   1.202   4.931   1.939
 1352TIP3   OH2 3932   1.671   5.047   1.571
 1352TIP3    H1 3933   1.735   5.100   1.520
 1352TIP3    H2 3934   1.590   5.097   1.554
 1353TIP3   OH2 3935   0.677   4.684   2.165
 1353TIP3    H1 3936   0.757   4.648   2.124
 1353TIP3    H2 3937   0.710   4.718   2.250
 1354TIP3   OH2 3938   1.029   4.585   1.836
 1354TIP3    H1 3939   0.940   4.626   1.852
 1354TIP3    H2 3940   1.039   4.602   1.741
 1355TIP3   OH2 3941   1.686   4.652   0.066
 1355TIP3    H1 3942   1.642   4.639  -0.020
 1355TIP3    H2 3943   1.658   4.742   0.087
 1356TIP3   OH2 3944   1.145   4.368   1.951
 1356TIP3    H1 3945   1.137   4.288   1.896
 1356TIP3    H2 3946   1.097   4.434   1.898
 1357TIP3   OH2 3947   1.141   4.156   1.760
 1357TIP3    H1 3948   1.164   4.187   1.671
 1357TIP3    H2 3949   1.050   4.121   1.747
 1358TIP3   OH2 3950   1.201   4.697   1.624
 1358TIP3    H1 3951   1.266   4.710   1.553
 1358TIP3    H2 3952   1.126   4.752   1.592
 1359TIP3   OH2 3953   1.747   4.653   2.007
 1359TIP3    H1 3954   1.798   4.583   2.051
 1359TIP3    H2 3955   1.813   4.722   1.992
 1360TIP3   OH2 3956   1.805   4.899   1.749
 1360TIP3    H1 3957   1.742   4.953   1.696
 1360TIP3    H2 3958   1.889   4.927   1.706
 1361TIP3   OH2 3959   1.023   4.479   2.184
 1361TIP3    H1 3960   0.951   4.415   2.195
 1361TIP3    H2 3961   1.054   4.459   2.094
 1362TIP3   OH2 3962   1.285   3.925   1.821
 1362TIP3    H1 3963   1.231   4.004   1.800
 1362TIP3    H2 3964   1.217   3.855   1.811
 1363TIP3   OH2 3965   1.406   4.422   2.036
 1363TIP3    H1 3966   1.398   4.407   2.132
 1363TIP3    H2 3967   1.315   4.397   2.008
 1364TIP3   OH2 3968   1.642   4.353   1.872
 1364TIP3    H1 3969   1.570   4.364   1.937
 1364TIP3    H2 3970   1.718   4.336   1.933
 1365TIP3   OH2 3971   1.873   4.306   2.033
 1365TIP3    H1 3972   1.883   4.212   2.061
 1365TIP3    H2 3973   1.861   4.351   2.119
 1366TIP3   OH2 3974   0.855   4.263   2.235
 1366TIP3    H1 3975   0.868   4.178   2.191
 1366TIP3    H2 3976   0.894   4.245   2.323
 1367TIP3   OH2 3977   1.372   3.926   2.082
 1367TIP3    H1 3978   1.437   3.854   2.075
 1367TIP3    H2 3979   1.333   3.923   1.991
 1368TIP3   OH2 3980   1.437   4.141   2.241
 1368TIP3    H1 3981   1.414   4.070   2.177
 1368TIP3    H2 3982   1.359   4.200   2.234
 1369TIP3   OH2 3983   1.914   5.614   0.958
 1369TIP3    H1 3984   1.940   5.650   1.044
 1369TIP3    H2 3985   1.974   5.661   0.897
 1370TIP3   OH2 3986   1.945   5.637   1.241
 1370TIP3    H1 3987   1.899   5.551   1.234
 1370TIP3    H2 3988   2.021   5.611   1.295
 1371TIP3   OH2 3989   1.991   5.313   1.812
 1371TIP3    H1 3990   1.919   5.321   1.877
 1371TIP3    H2 3991   2.033   5.401   1.816
 1372TIP3   OH2 3992   1.809   4.820   0.430
 1372TIP3    H1 3993   1.872   4.889   0.404
 1372TIP3    H2 3994   1.852   4.785   0.511
 1373TIP3   OH2 3995   1.936   4.692   0.636
 1373TIP3    H1 3996   1.869   4.650   0.695
 1373TIP3    H2 3997   1.998   4.733   0.700
 1374TIP3   OH2 3998   1.990   5.086   1.071
 1374TIP3    H1 3999   2.039   5.021   1.017
 1374TIP3    H2 4000   1.981   5.161   1.009
 1375TIP3   OH2 4001   1.819   5.386   1.264
 1375TIP3    H1 4002   1.748   5.428   1.316
 1375TIP3    H2 4003   1.766   5.338   1.196
 1376TIP3   OH2 4004   1.863   4.593   0.281
 1376TIP3    H1 4005   1.799   4.606   0.209
 1376TIP3    H2 4006   1.841   4.671   0.338
 1377TIP3   OH2 4007   1.753   4.547   0.783
 1377TIP3    H1 4008   1.754   4.450   0.776
 1377TIP3    H2 4009   1.737   4.561   0.879
 1378TIP3   OH2 4010   0.395   4.637   1.525
 1378TIP3    H1 4011   0.403   4.594   1.439
 1378TIP3    H2 4012   0.484   4.614   1.562
 1379TIP3   OH2 4013   2.041   4.976   1.639
 1379TIP3    H1 4014   2.116   4.913   1.627
 1379TIP3    H2 4015   2.062   5.046   1.575
 1380TIP3   OH2 4016   2.229   4.785   1.653
 1380TIP3    H1 4017   2.153   4.734   1.689
 1380TIP3    H2 4018   2.301   4.720   1.668
 1381TIP3   OH2 4019   1.764   4.266   0.678
 1381TIP3    H1 4020   1.799   4.176   0.695
 1381TIP3    H2 4021   1.825   4.298   0.609
 1382TIP3   OH2 4022   1.911   4.439   1.177
 1382TIP3    H1 4023   1.995   4.466   1.134
 1382TIP3    H2 4024   1.921   4.486   1.262
 1383TIP3   OH2 4025   1.968   4.587   1.407
 1383TIP3    H1 4026   1.892   4.628   1.455
 1383TIP3    H2 4027   2.004   4.665   1.360
 1384TIP3   OH2 4028   0.591   4.319   2.205
 1384TIP3    H1 4029   0.688   4.310   2.206
 1384TIP3    H2 4030   0.563   4.229   2.231
 1385TIP3   OH2 4031   2.418   4.168   1.956
 1385TIP3    H1 4032   2.484   4.104   1.922
 1385TIP3    H2 4033   2.409   4.230   1.882
 1386TIP3   OH2 4034   1.857   4.006   0.713
 1386TIP3    H1 4035   1.905   4.002   0.798
 1386TIP3    H2 4036   1.815   3.920   0.712
 1387TIP3   OH2 4037   0.398   4.292   1.678
 1387TIP3    H1 4038   0.374   4.253   1.593
 1387TIP3    H2 4039   0.474   4.351   1.656
 1388TIP3   OH2 4040   2.295   4.320   1.764
 1388TIP3    H1 4041   2.226   4.341   1.829
 1388TIP3    H2 4042   2.259   4.244   1.715
 1389TIP3   OH2 4043   2.009   3.935   0.349
 1389TIP3    H1 4044   2.025   3.895   0.262
 1389TIP3    H2 4045   2.062   4.017   0.341
 1390TIP3   OH2 4046   1.518   5.482   0.630
 1390TIP3    H1 4047   1.557   5.465   0.541
 1390TIP3    H2 4048   1.576   5.552   0.664
 1391TIP3   OH2 4049   0.553   3.873   1.924
 1391TIP3    H1 4050   0.513   3.849   2.009
 1391TIP3    H2 4051   0.480   3.916   1.879
 1392TIP3   OH2 4052   0.597   5.299   2.012
 1392TIP3    H1 4053   0.515   5.260   1.974
 1392TIP3    H2 4054   0.598   5.255   2.098
 1393TIP3   OH2 4055   0.783   5.324   1.556
 1393TIP3    H1 4056   0.735   5.395   1.509
 1393TIP3    H2 4057   0.869   5.335   1.509
 1394TIP3   OH2 4058   1.218   5.568   1.690
 1394TIP3    H1 4059   1.265   5.571   1.775
 1394TIP3    H2 4060   1.281   5.616   1.632
 1395TIP3   OH2 4061   1.397   5.714   1.548
 1395TIP3    H1 4062   1.455   5.669   1.485
 1395TIP3    H2 4063   1.459   5.768   1.602
 1396TIP3   OH2 4064   2.196   4.070   1.650
 1396TIP3    H1 4065   2.108   4.043   1.618
 1396TIP3    H2 4066   2.245   3.986   1.638
 1397TIP3   OH2 4067   0.466   5.574   1.581
 1397TIP3    H1 4068   0.390   5.627   1.552
 1397TIP3    H2 4069   0.474   5.601   1.673
 1398TIP3   OH2 4070   0.697   5.553   1.427
 1398TIP3    H1 4071   0.610   5.564   1.471
 1398TIP3    H2 4072   0.677   5.583   1.336
 1399TIP3   OH2 4073   1.127   5.581   1.237
 1399TIP3    H1 4074   1.050   5.597   1.178
 1399TIP3    H2 4075   1.144   5.672   1.268
 1400TIP3   OH2 4076   1.401   5.545   1.296
 1400TIP3    H1 4077   1.312   5.510   1.274
 1400TIP3    H2 4078   1.414   5.609   1.225
 1401TIP3   OH2 4079   1.614   5.726   1.194
 1401TIP3    H1 4080   1.587   5.805   1.142
 1401TIP3    H2 4081   1.625   5.659   1.123
 1402TIP3   OH2 4082   0.362   5.365   1.328
 1402TIP3    H1 4083   0.405   5.336   1.411
 1402TIP3    H2 4084   0.427   5.330   1.263
 1403TIP3   OH2 4085   0.551   5.240   1.178
 1403TIP3    H1 4086   0.572   5.158   1.228
 1403TIP3    H2 4087   0.641   5.280   1.169
 1404TIP3   OH2 4088   0.814   5.317   1.182
 1404TIP3    H1 4089   0.864   5.234   1.183
 1404TIP3    H2 4090   0.864   5.369   1.247
 1405TIP3   OH2 4091   1.378   3.999   1.261
 1405TIP3    H1 4092   1.348   3.931   1.326
 1405TIP3    H2 4093   1.457   3.958   1.224
 1406TIP3   OH2 4094   1.932   3.894   1.186
 1406TIP3    H1 4095   1.966   3.930   1.101
 1406TIP3    H2 4096   1.836   3.885   1.166
 1407TIP3   OH2 4097   2.017   3.973   0.937
 1407TIP3    H1 4098   2.089   3.920   0.895
 1407TIP3    H2 4099   2.053   4.064   0.921
 1408TIP3   OH2 4100   1.662   3.880   1.144
 1408TIP3    H1 4101   1.615   3.860   1.062
 1408TIP3    H2 4102   1.639   3.802   1.200
 1409TIP3   OH2 4103   1.640   5.447   0.381
 1409TIP3    H1 4104   1.640   5.348   0.380
 1409TIP3    H2 4105   1.600   5.463   0.295
 1410TIP3   OH2 4106   0.850   3.976   2.182
 1410TIP3    H1 4107   0.828   3.897   2.235
 1410TIP3    H2 4108   0.946   3.982   2.199
 1411TIP3   OH2 4109   1.106   3.981   2.290
 1411TIP3    H1 4110   1.190   3.954   2.250
 1411TIP3    H2 4111   1.094   3.911   2.358
 1412TIP3   OH2 4112   1.932   4.038   2.079
 1412TIP3    H1 4113   1.949   4.008   2.172
 1412TIP3    H2 4114   2.022   4.035   2.041
 1413TIP3   OH2 4115   1.870   5.593   1.571
 1413TIP3    H1 4116   1.794   5.561   1.518
 1413TIP3    H2 4117   1.851   5.689   1.571
 1414TIP3   OH2 4118   3.139   4.966   0.335
 1414TIP3    H1 4119   3.111   5.058   0.318
 1414TIP3    H2 4120   3.060   4.917   0.306
 1415TIP3   OH2 4121   3.135   4.964   0.716
 1415TIP3    H1 4122   3.167   4.937   0.804
 1415TIP3    H2 4123   3.094   4.882   0.684
 1416TIP3   OH2 4124   2.437   4.861   1.082
 1416TIP3    H1 4125   2.469   4.795   1.146
 1416TIP3    H2 4126   2.514   4.919   1.076
 1417TIP3   OH2 4127   3.377   5.269   0.397
 1417TIP3    H1 4128   3.366   5.199   0.463
 1417TIP3    H2 4129   3.408   5.344   0.452
 1418TIP3   OH2 4130   2.407   5.270   0.809
 1418TIP3    H1 4131   2.398   5.172   0.812
 1418TIP3    H2 4132   2.503   5.278   0.803
 1419TIP3   OH2 4133   2.114   4.474   0.594
 1419TIP3    H1 4134   2.067   4.558   0.609
 1419TIP3    H2 4135   2.042   4.420   0.559
 1420TIP3   OH2 4136   2.174   4.761   0.765
 1420TIP3    H1 4137   2.223   4.684   0.801
 1420TIP3    H2 4138   2.232   4.790   0.693
 1421TIP3   OH2 4139   3.026   5.728   0.412
 1421TIP3    H1 4140   3.075   5.655   0.367
 1421TIP3    H2 4141   3.021   5.695   0.503
 1422TIP3   OH2 4142   2.935   5.189   0.766
 1422TIP3    H1 4143   2.975   5.113   0.720
 1422TIP3    H2 4144   3.019   5.235   0.790
 1423TIP3   OH2 4145   3.952   4.510   0.762
 1423TIP3    H1 4146   3.976   4.595   0.804
 1423TIP3    H2 4147   3.974   4.528   0.669
 1424TIP3   OH2 4148   3.346   4.693   0.800
 1424TIP3    H1 4149   3.390   4.608   0.819
 1424TIP3    H2 4150   3.317   4.677   0.708
 1425TIP3   OH2 4151   2.684   4.351   0.765
 1425TIP3    H1 4152   2.665   4.424   0.703
 1425TIP3    H2 4153   2.637   4.278   0.719
 1426TIP3   OH2 4154   3.378   4.443   0.386
 1426TIP3    H1 4155   3.450   4.426   0.452
 1426TIP3    H2 4156   3.431   4.477   0.312
 1427TIP3   OH2 4157   2.317   4.552   0.871
 1427TIP3    H1 4158   2.401   4.534   0.918
 1427TIP3    H2 4159   2.330   4.497   0.791
 1428TIP3   OH2 4160   2.760   4.751   0.662
 1428TIP3    H1 4161   2.854   4.726   0.676
 1428TIP3    H2 4162   2.721   4.667   0.631
 1429TIP3   OH2 4163   4.023   4.720   0.930
 1429TIP3    H1 4164   3.938   4.766   0.913
 1429TIP3    H2 4165   4.038   4.745   1.022
 1430TIP3   OH2 4166   2.681   4.334   1.198
 1430TIP3    H1 4167   2.622   4.372   1.130
 1430TIP3    H2 4168   2.629   4.354   1.279
 1431TIP3   OH2 4169   3.039   5.194   0.200
 1431TIP3    H1 4170   2.982   5.166   0.127
 1431TIP3    H2 4171   2.991   5.275   0.229
 1432TIP3   OH2 4172   2.788   5.110   0.994
 1432TIP3    H1 4173   2.725   5.175   1.032
 1432TIP3    H2 4174   2.830   5.161   0.923
 1433TIP3   OH2 4175   3.589   4.445   0.557
 1433TIP3    H1 4176   3.586   4.392   0.637
 1433TIP3    H2 4177   3.644   4.521   0.584
 1434TIP3   OH2 4178   2.552   4.450   0.983
 1434TIP3    H1 4179   2.614   4.523   1.005
 1434TIP3    H2 4180   2.600   4.410   0.907
 1435TIP3   OH2 4181   2.615   5.303   1.091
 1435TIP3    H1 4182   2.590   5.389   1.051
 1435TIP3    H2 4183   2.536   5.289   1.148
 1436TIP3   OH2 4184   2.013   4.992   0.331
 1436TIP3    H1 4185   1.971   5.014   0.246
 1436TIP3    H2 4186   2.039   5.080   0.364
 1437TIP3   OH2 4187   3.449   5.507   0.565
 1437TIP3    H1 4188   3.360   5.501   0.605
 1437TIP3    H2 4189   3.443   5.595   0.522
 1438TIP3   OH2 4190   3.739   4.411   0.927
 1438TIP3    H1 4191   3.651   4.439   0.896
 1438TIP3    H2 4192   3.798   4.442   0.855
 1439TIP3   OH2 4193   3.039   4.058   0.909
 1439TIP3    H1 4194   3.024   3.962   0.924
 1439TIP3    H2 4195   2.961   4.094   0.957
 1440TIP3   OH2 4196   3.154   5.553   0.240
 1440TIP3    H1 4197   3.206   5.472   0.221
 1440TIP3    H2 4198   3.217   5.620   0.203
 1441TIP3   OH2 4199   3.300   5.334   0.141
 1441TIP3    H1 4200   3.233   5.266   0.128
 1441TIP3    H2 4201   3.338   5.307   0.227
 1442TIP3   OH2 4202   3.676   5.423   0.911
 1442TIP3    H1 4203   3.666   5.346   0.851
 1442TIP3    H2 4204   3.659   5.498   0.850
 1443TIP3   OH2 4205   2.967   4.816   0.168
 1443TIP3    H1 4206   2.887   4.867   0.146
 1443TIP3    H2 4207   3.012   4.811   0.083
 1444TIP3   OH2 4208   2.919   4.591  -0.103
 1444TIP3    H1 4209   2.993   4.644  -0.068
 1444TIP3    H2 4210   2.964   4.511  -0.131
 1445TIP3   OH2 4211   3.871   5.058   0.754
 1445TIP3    H1 4212   3.789   5.111   0.760
 1445TIP3    H2 4213   3.902   5.082   0.664
 1446TIP3   OH2 4214   3.315   4.899   0.139
 1446TIP3    H1 4215   3.260   4.924   0.217
 1446TIP3    H2 4216   3.398   4.872   0.184
 1447TIP3   OH2 4217   3.550   4.938   1.050
 1447TIP3    H1 4218   3.549   5.022   1.100
 1447TIP3    H2 4219   3.464   4.944   1.004
 1448TIP3   OH2 4220   2.548   4.897   0.555
 1448TIP3    H1 4221   2.507   4.839   0.487
 1448TIP3    H2 4222   2.625   4.844   0.584
 1449TIP3   OH2 4223   2.677   5.307   0.706
 1449TIP3    H1 4224   2.657   5.265   0.621
 1449TIP3    H2 4225   2.767   5.274   0.723
 1450TIP3   OH2 4226   2.686   4.867   0.910
 1450TIP3    H1 4227   2.718   4.848   0.820
 1450TIP3    H2 4228   2.728   4.954   0.930
 1451TIP3   OH2 4229   3.209   5.505   0.687
 1451TIP3    H1 4230   3.195   5.586   0.740
 1451TIP3    H2 4231   3.194   5.433   0.751
 1452TIP3   OH2 4232   2.821   5.424   1.234
 1452TIP3    H1 4233   2.762   5.487   1.281
 1452TIP3    H2 4234   2.756   5.371   1.185
 1453TIP3   OH2 4235   3.153   4.756  -0.032
 1453TIP3    H1 4236   3.213   4.814   0.021
 1453TIP3    H2 4237   3.177   4.784  -0.123
 1454TIP3   OH2 4238   2.576   4.981   1.335
 1454TIP3    H1 4239   2.581   5.068   1.379
 1454TIP3    H2 4240   2.480   4.962   1.343
 1455TIP3   OH2 4241   2.899   5.434   0.245
 1455TIP3    H1 4242   2.975   5.493   0.261
 1455TIP3    H2 4243   2.837   5.493   0.199
 1456TIP3   OH2 4244   2.616   5.594   1.321
 1456TIP3    H1 4245   2.581   5.592   1.229
 1456TIP3    H2 4246   2.536   5.572   1.374
 1457TIP3   OH2 4247   3.676   4.003   0.012
 1457TIP3    H1 4248   3.593   4.016   0.062
 1457TIP3    H2 4249   3.681   4.086  -0.040
 1458TIP3   OH2 4250   2.416   4.739   0.356
 1458TIP3    H1 4251   2.348   4.787   0.303
 1458TIP3    H2 4252   2.370   4.656   0.375
 1459TIP3   OH2 4253   2.195   5.124   1.267
 1459TIP3    H1 4254   2.128   5.104   1.199
 1459TIP3    H2 4255   2.231   5.036   1.289
 1460TIP3   OH2 4256   2.048   5.315   0.903
 1460TIP3    H1 4257   2.144   5.313   0.892
 1460TIP3    H2 4258   2.037   5.397   0.954
 1461TIP3   OH2 4259   3.914   5.767   0.956
 1461TIP3    H1 4260   3.912   5.670   0.970
 1461TIP3    H2 4261   3.831   5.792   1.002
 1462TIP3   OH2 4262   3.020   5.554   1.091
 1462TIP3    H1 4263   3.019   5.646   1.123
 1462TIP3    H2 4264   2.949   5.514   1.146
 1463TIP3   OH2 4265   2.781   5.683   0.040
 1463TIP3    H1 4266   2.734   5.667  -0.044
 1463TIP3    H2 4267   2.752   5.773   0.063
 1464TIP3   OH2 4268   2.218   5.533   0.426
 1464TIP3    H1 4269   2.265   5.522   0.511
 1464TIP3    H2 4270   2.160   5.455   0.428
 1465TIP3   OH2 4271   2.976   5.595  -0.302
 1465TIP3    H1 4272   3.023   5.521  -0.342
 1465TIP3    H2 4273   3.010   5.594  -0.210
 1466TIP3   OH2 4274   3.034   5.620  -0.036
 1466TIP3    H1 4275   2.942   5.634  -0.003
 1466TIP3    H2 4276   3.078   5.587   0.043
 1467TIP3   OH2 4277   3.805   4.895   1.232
 1467TIP3    H1 4278   3.725   4.909   1.179
 1467TIP3    H2 4279   3.821   4.799   1.219
 1468TIP3   OH2 4280   2.400   5.307   1.258
 1468TIP3    H1 4281   2.450   5.289   1.340
 1468TIP3    H2 4282   2.326   5.243   1.265
 1469TIP3   OH2 4283   2.800   4.129   1.042
 1469TIP3    H1 4284   2.710   4.101   1.014
 1469TIP3    H2 4285   2.777   4.214   1.084
 1470TIP3   OH2 4286   3.333   4.245   1.234
 1470TIP3    H1 4287   3.401   4.217   1.298
 1470TIP3    H2 4288   3.249   4.225   1.281
 1471TIP3   OH2 4289   3.575   4.674   1.154
 1471TIP3    H1 4290   3.525   4.671   1.239
 1471TIP3    H2 4291   3.551   4.761   1.118
 1472TIP3   OH2 4292   3.223   4.811  -0.286
 1472TIP3    H1 4293   3.193   4.769  -0.367
 1472TIP3    H2 4294   3.298   4.866  -0.315
 1473TIP3   OH2 4295   2.955   4.200   0.017
 1473TIP3    H1 4296   2.918   4.188   0.107
 1473TIP3    H2 4297   2.920   4.122  -0.028
 1474TIP3   OH2 4298   2.730   4.645   1.059
 1474TIP3    H1 4299   2.681   4.669   1.140
 1474TIP3    H2 4300   2.716   4.726   1.004
 1475TIP3   OH2 4301   2.614   4.532   0.575
 1475TIP3    H1 4302   2.522   4.505   0.591
 1475TIP3    H2 4303   2.629   4.491   0.486
 1476TIP3   OH2 4304   3.106   4.617   0.302
 1476TIP3    H1 4305   3.053   4.688   0.259
 1476TIP3    H2 4306   3.160   4.585   0.227
 1477TIP3   OH2 4307   3.280   4.896   1.386
 1477TIP3    H1 4308   3.258   4.823   1.449
 1477TIP3    H2 4309   3.373   4.912   1.408
 1478TIP3   OH2 4310   3.262   4.646   0.540
 1478TIP3    H1 4311   3.203   4.675   0.468
 1478TIP3    H2 4312   3.296   4.564   0.499
 1479TIP3   OH2 4313   2.549   4.675   1.269
 1479TIP3    H1 4314   2.579   4.741   1.334
 1479TIP3    H2 4315   2.544   4.594   1.323
 1480TIP3   OH2 4316   2.598   4.134  -0.020
 1480TIP3    H1 4317   2.602   4.139   0.077
 1480TIP3    H2 4318   2.521   4.187  -0.040
 1481TIP3   OH2 4319   2.138   4.199   0.858
 1481TIP3    H1 4320   2.220   4.229   0.902
 1481TIP3    H2 4321   2.169   4.169   0.770
 1482TIP3   OH2 4322   2.127   4.187   0.370
 1482TIP3    H1 4323   2.174   4.223   0.291
 1482TIP3    H2 4324   2.069   4.263   0.391
 1483TIP3   OH2 4325   3.271   4.893   0.963
 1483TIP3    H1 4326   3.305   4.821   0.905
 1483TIP3    H2 4327   3.243   4.840   1.041
 1484TIP3   OH2 4328   2.941   4.356   0.634
 1484TIP3    H1 4329   2.859   4.353   0.688
 1484TIP3    H2 4330   3.010   4.353   0.702
 1485TIP3   OH2 4331   2.376   4.409   0.643
 1485TIP3    H1 4332   2.282   4.417   0.616
 1485TIP3    H2 4333   2.398   4.317   0.619
 1486TIP3   OH2 4334   2.648   4.406   0.335
 1486TIP3    H1 4335   2.743   4.420   0.315
 1486TIP3    H2 4336   2.603   4.427   0.249
 1487TIP3   OH2 4337   3.434   4.431   0.837
 1487TIP3    H1 4338   3.398   4.442   0.928
 1487TIP3    H2 4339   3.370   4.368   0.799
 1488TIP3   OH2 4340   2.490   4.433   0.114
 1488TIP3    H1 4341   2.397   4.413   0.095
 1488TIP3    H2 4342   2.524   4.473   0.032
 1489TIP3   OH2 4343   3.603   6.118   1.055
 1489TIP3    H1 4344   3.602   6.142   0.960
 1489TIP3    H2 4345   3.682   6.167   1.086
 1490TIP3   OH2 4346   2.561   5.227   1.478
 1490TIP3    H1 4347   2.641   5.258   1.525
 1490TIP3    H2 4348   2.497   5.228   1.551
 1491TIP3   OH2 4349   3.026   4.681   0.731
 1491TIP3    H1 4350   3.099   4.643   0.679
 1491TIP3    H2 4351   3.038   4.640   0.818
 1492TIP3   OH2 4352   2.552   4.171   0.607
 1492TIP3    H1 4353   2.516   4.091   0.651
 1492TIP3    H2 4354   2.600   4.134   0.532
 1493TIP3   OH2 4355   3.002   4.575   1.027
 1493TIP3    H1 4356   2.913   4.615   1.036
 1493TIP3    H2 4357   3.060   4.638   1.073
 1494TIP3   OH2 4358   2.741   4.969   0.117
 1494TIP3    H1 4359   2.666   4.906   0.106
 1494TIP3    H2 4360   2.722   5.005   0.207
 1495TIP3   OH2 4361   3.640   5.206   0.746
 1495TIP3    H1 4362   3.665   5.255   0.665
 1495TIP3    H2 4363   3.554   5.165   0.721
 1496TIP3   OH2 4364   3.211   4.282  -0.031
 1496TIP3    H1 4365   3.117   4.258  -0.025
 1496TIP3    H2 4366   3.213   4.375  -0.003
 1497TIP3   OH2 4367   3.136   5.286   1.114
 1497TIP3    H1 4368   3.162   5.267   1.205
 1497TIP3    H2 4369   3.100   5.376   1.120
 1498TIP3   OH2 4370   3.266   4.528   0.085
 1498TIP3    H1 4371   3.362   4.529   0.100
 1498TIP3    H2 4372   3.251   4.608   0.031
 1499TIP3   OH2 4373   2.431   4.990   0.794
 1499TIP3    H1 4374   2.469   4.963   0.708
 1499TIP3    H2 4375   2.471   4.927   0.854
 1500TIP3   OH2 4376   2.881   5.120  -0.067
 1500TIP3    H1 4377   2.839   5.208  -0.055
 1500TIP3    H2 4378   2.828   5.066  -0.004
 1501TIP3   OH2 4379   2.311   4.912   1.405
 1501TIP3    H1 4380   2.332   4.899   1.499
 1501TIP3    H2 4381   2.240   4.847   1.391
 1502TIP3   OH2 4382   3.037   5.025   1.426
 1502TIP3    H1 4383   2.979   4.967   1.373
 1502TIP3    H2 4384   3.125   4.993   1.398
 1503TIP3   OH2 4385   3.299   5.544   1.011
 1503TIP3    H1 4386   3.202   5.546   1.022
 1503TIP3    H2 4387   3.327   5.598   1.088
 1504TIP3   OH2 4388   3.705   4.617  -0.077
 1504TIP3    H1 4389   3.647   4.571  -0.141
 1504TIP3    H2 4390   3.705   4.705  -0.119
 1505TIP3   OH2 4391   3.926   5.475   1.000
 1505TIP3    H1 4392   3.828   5.471   0.991
 1505TIP3    H2 4393   3.952   5.446   0.910
 1506TIP3   OH2 4394   3.405   5.439  -0.183
 1506TIP3    H1 4395   3.381   5.386  -0.106
 1506TIP3    H2 4396   3.427   5.373  -0.250
 1507TIP3   OH2 4397   3.404   5.067   0.665
 1507TIP3    H1 4398   3.311   5.042   0.678
 1507TIP3    H2 4399   3.439   4.988   0.620
 1508TIP3   OH2 4400   2.531   5.293   0.415
 1508TIP3    H1 4401   2.532   5.376   0.363
 1508TIP3    H2 4402   2.436   5.280   0.427
 1509TIP3   OH2 4403   2.099   4.601   0.127
 1509TIP3    H1 4404   2.140   4.688   0.143
 1509TIP3    H2 4405   2.017   4.608   0.180
 1510TIP3   OH2 4406   2.672   5.061   0.361
 1510TIP3    H1 4407   2.636   5.151   0.378
 1510TIP3    H2 4408   2.635   5.012   0.436
 1511TIP3   OH2 4409   2.800   5.639   0.887
 1511TIP3    H1 4410   2.841   5.712   0.836
 1511TIP3    H2 4411   2.878   5.605   0.935
 1512TIP3   OH2 4412   2.453   5.533   0.271
 1512TIP3    H1 4413   2.366   5.543   0.316
 1512TIP3    H2 4414   2.485   5.626   0.273
 1513TIP3   OH2 4415   3.189   5.272   0.845
 1513TIP3    H1 4416   3.180   5.270   0.943
 1513TIP3    H2 4417   3.271   5.222   0.833
 1514TIP3   OH2 4418   3.177   5.139  -0.289
 1514TIP3    H1 4419   3.216   5.126  -0.199
 1514TIP3    H2 4420   3.082   5.141  -0.264
 1515TIP3   OH2 4421   3.438   5.807   0.895
 1515TIP3    H1 4422   3.358   5.752   0.886
 1515TIP3    H2 4423   3.424   5.873   0.823
 1516TIP3   OH2 4424   2.528   4.414   1.418
 1516TIP3    H1 4425   2.434   4.413   1.438
 1516TIP3    H2 4426   2.563   4.357   1.489
 1517TIP3   OH2 4427   3.325   5.089  -0.064
 1517TIP3    H1 4428   3.310   5.032   0.015
 1517TIP3    H2 4429   3.422   5.098  -0.061
 1518TIP3   OH2 4430   2.240   5.502   1.046
 1518TIP3    H1 4431   2.291   5.426   1.077
 1518TIP3    H2 4432   2.270   5.571   1.107
 1519TIP3   OH2 4433   2.542   5.148  -0.269
 1519TIP3    H1 4434   2.536   5.058  -0.303
 1519TIP3    H2 4435   2.509   5.139  -0.178
 1520TIP3   OH2 4436   2.478   5.151   0.001
 1520TIP3    H1 4437   2.545   5.128   0.066
 1520TIP3    H2 4438   2.481   5.250   0.004
 1521TIP3   OH2 4439   2.213   4.850   0.204
 1521TIP3    H1 4440   2.146   4.893   0.261
 1521TIP3    H2 4441   2.225   4.919   0.136
 1522TIP3   OH2 4442   3.358   4.483   1.096
 1522TIP3    H1 4443   3.440   4.520   1.132
 1522TIP3    H2 4444   3.345   4.402   1.149
 1523TIP3   OH2 4445   3.230   4.238   0.257
 1523TIP3    H1 4446   3.226   4.256   0.161
 1523TIP3    H2 4447   3.275   4.318   0.292
 1524TIP3   OH2 4448   2.746   5.351  -0.039
 1524TIP3    H1 4449   2.659   5.384  -0.009
 1524TIP3    H2 4450   2.747   5.381  -0.132
 1525TIP3   OH2 4451   2.928   4.413   0.362
 1525TIP3    H1 4452   2.995   4.482   0.344
 1525TIP3    H2 4453   2.934   4.404   0.459
 1526TIP3   OH2 4454   3.198   4.731   1.170
 1526TIP3    H1 4455   3.219   4.785   1.249
 1526TIP3    H2 4456   3.254   4.653   1.183
 1527TIP3   OH2 4457   3.074   4.140   0.464
 1527TIP3    H1 4458   3.071   4.216   0.526
 1527TIP3    H2 4459   3.133   4.176   0.394
 1528TIP3   OH2 4460   2.483   5.421   0.019
 1528TIP3    H1 4461   2.458   5.491  -0.046
 1528TIP3    H2 4462   2.468   5.467   0.104
 1529TIP3   OH2 4463   2.589   4.138   0.257
 1529TIP3    H1 4464   2.585   4.229   0.293
 1529TIP3    H2 4465   2.685   4.121   0.267
 1530TIP3   OH2 4466   3.843   4.628   1.145
 1530TIP3    H1 4467   3.746   4.626   1.156
 1530TIP3    H2 4468   3.851   4.585   1.059
 1531TIP3   OH2 4469   3.490   4.826   0.538
 1531TIP3    H1 4470   3.415   4.765   0.551
 1531TIP3    H2 4471   3.562   4.780   0.586
 1532TIP3   OH2 4472   2.204   5.062   0.012
 1532TIP3    H1 4473   2.272   5.130   0.022
 1532TIP3    H2 4474   2.251   5.004  -0.053
 1533TIP3   OH2 4475   2.165   4.338   0.136
 1533TIP3    H1 4476   2.144   4.434   0.129
 1533TIP3    H2 4477   2.098   4.299   0.079
 1534TIP3   OH2 4478   3.459   5.778   0.490
 1534TIP3    H1 4479   3.415   5.825   0.415
 1534TIP3    H2 4480   3.552   5.799   0.468
 1535TIP3   OH2 4481   2.534   4.050   1.016
 1535TIP3    H1 4482   2.501   4.022   0.928
 1535TIP3    H2 4483   2.515   3.972   1.071
 1536TIP3   OH2 4484   2.079   5.269   0.402
 1536TIP3    H1 4485   2.003   5.296   0.456
 1536TIP3    H2 4486   2.051   5.305   0.315
 1537TIP3   OH2 4487   2.229   5.809   1.470
 1537TIP3    H1 4488   2.316   5.807   1.515
 1537TIP3    H2 4489   2.208   5.714   1.466
 1538TIP3   OH2 4490   2.711   5.776   1.513
 1538TIP3    H1 4491   2.806   5.757   1.520
 1538TIP3    H2 4492   2.687   5.717   1.438
 1539TIP3   OH2 4493   2.720   5.346  -0.319
 1539TIP3    H1 4494   2.645   5.284  -0.305
 1539TIP3    H2 4495   2.740   5.326  -0.411
 1540TIP3   OH2 4496   3.351   5.681   1.245
 1540TIP3    H1 4497   3.342   5.611   1.314
 1540TIP3    H2 4498   3.428   5.731   1.276
 1541TIP3   OH2 4499   2.360   5.216   1.669
 1541TIP3    H1 4500   2.377   5.120   1.673
 1541TIP3    H2 4501   2.273   5.219   1.624
 1542TIP3   OH2 4502   2.349   4.882  -0.127
 1542TIP3    H1 4503   2.406   4.841  -0.060
 1542TIP3    H2 4504   2.383   4.848  -0.210
 1543TIP3   OH2 4505   2.968   5.300   1.442
 1543TIP3    H1 4506   2.927   5.317   1.354
 1543TIP3    H2 4507   2.999   5.208   1.434
 1544TIP3   OH2 4508   2.856   5.042  -0.336
 1544TIP3    H1 4509   2.847   5.092  -0.253
 1544TIP3    H2 4510   2.834   4.954  -0.307
 1545TIP3   OH2 4511   3.460   5.308   1.047
 1545TIP3    H1 4512   3.536   5.353   1.003
 1545TIP3    H2 4513   3.390   5.375   1.034
 1546TIP3   OH2 4514   2.482   4.948   1.649
 1546TIP3    H1 4515   2.560   4.895   1.629
 1546TIP3    H2 4516   2.505   4.983   1.738
 1547TIP3   OH2 4517   2.546   4.771   0.082
 1547TIP3    H1 4518   2.518   4.735   0.168
 1547TIP3    H2 4519   2.582   4.692   0.037
 1548TIP3   OH2 4520   2.813   4.832   1.309
 1548TIP3    H1 4521   2.737   4.895   1.313
 1548TIP3    H2 4522   2.864   4.867   1.232
 1549TIP3   OH2 4523   2.643   4.563  -0.081
 1549TIP3    H1 4524   2.639   4.519  -0.167
 1549TIP3    H2 4525   2.740   4.578  -0.074
 1550TIP3   OH2 4526   3.330   5.236   1.446
 1550TIP3    H1 4527   3.412   5.216   1.399
 1550TIP3    H2 4528   3.330   5.170   1.517
 1551TIP3   OH2 4529   3.421   4.963  -0.409
 1551TIP3    H1 4530   3.461   4.896  -0.468
 1551TIP3    H2 4531   3.490   5.032  -0.421
 1552TIP3   OH2 4532   2.936   4.622   1.438
 1552TIP3    H1 4533   2.939   4.543   1.382
 1552TIP3    H2 4534   2.894   4.689   1.379
 1553TIP3   OH2 4535   2.940   4.407   1.245
 1553TIP3    H1 4536   2.969   4.451   1.162
 1553TIP3    H2 4537   2.846   4.387   1.225
 1554TIP3   OH2 4538   2.968   4.945   1.118
 1554TIP3    H1 4539   3.051   4.953   1.070
 1554TIP3    H2 4540   2.912   5.012   1.074
 1555TIP3   OH2 4541   3.550   4.914   1.499
 1555TIP3    H1 4542   3.600   4.832   1.509
 1555TIP3    H2 4543   3.616   4.974   1.464
 1556TIP3   OH2 4544   3.591   5.164   1.235
 1556TIP3    H1 4545   3.533   5.218   1.175
 1556TIP3    H2 4546   3.679   5.185   1.194
 1557TIP3   OH2 4547   2.814   4.736   1.667
 1557TIP3    H1 4548   2.745   4.669   1.682
 1557TIP3    H2 4549   2.850   4.710   1.580
 1558TIP3   OH2 4550   3.072   4.172   1.311
 1558TIP3    H1 4551   3.025   4.256   1.288
 1558TIP3    H2 4552   3.002   4.106   1.298
 1559TIP3   OH2 4553   3.199   4.678   1.528
 1559TIP3    H1 4554   3.189   4.666   1.624
 1559TIP3    H2 4555   3.109   4.653   1.499
 1560TIP3   OH2 4556   3.439   4.627   1.384
 1560TIP3    H1 4557   3.362   4.629   1.444
 1560TIP3    H2 4558   3.510   4.595   1.442
 1561TIP3   OH2 4559   3.675   4.566   1.537
 1561TIP3    H1 4560   3.673   4.471   1.561
 1561TIP3    H2 4561   3.665   4.611   1.623
 1562TIP3   OH2 4562   2.652   4.516   1.720
 1562TIP3    H1 4563   2.665   4.426   1.686
 1562TIP3    H2 4564   2.690   4.507   1.810
 1563TIP3   OH2 4565   3.168   4.185   1.568
 1563TIP3    H1 4566   3.234   4.113   1.565
 1563TIP3    H2 4567   3.129   4.177   1.478
 1564TIP3   OH2 4568   3.234   4.399   1.727
 1564TIP3    H1 4569   3.211   4.327   1.663
 1564TIP3    H2 4570   3.155   4.457   1.721
 1565TIP3   OH2 4571   2.448   5.617  -0.168
 1565TIP3    H1 4572   2.541   5.624  -0.198
 1565TIP3    H2 4573   2.401   5.668  -0.234
 1566TIP3   OH2 4574   1.941   5.005   0.060
 1566TIP3    H1 4575   2.031   5.036   0.037
 1566TIP3    H2 4576   1.930   4.929   0.001
 1567TIP3   OH2 4577   1.843   5.622   0.457
 1567TIP3    H1 4578   1.778   5.558   0.423
 1567TIP3    H2 4579   1.891   5.567   0.523
 1568TIP3   OH2 4580   1.982   5.476   0.644
 1568TIP3    H1 4581   1.970   5.401   0.703
 1568TIP3    H2 4582   2.035   5.535   0.701
 1569TIP3   OH2 4583   3.709   5.875   0.444
 1569TIP3    H1 4584   3.738   5.908   0.531
 1569TIP3    H2 4585   3.774   5.915   0.385
 1570TIP3   OH2 4586   3.740   5.894   0.727
 1570TIP3    H1 4587   3.698   5.805   0.722
 1570TIP3    H2 4588   3.817   5.872   0.782
 1571TIP3   OH2 4589   3.787   5.569   1.300
 1571TIP3    H1 4590   3.713   5.578   1.364
 1571TIP3    H2 4591   3.828   5.658   1.304
 1572TIP3   OH2 4592   3.604   5.086  -0.076
 1572TIP3    H1 4593   3.679   5.144  -0.098
 1572TIP3    H2 4594   3.639   5.044   0.007
 1573TIP3   OH2 4595   3.727   4.951   0.123
 1573TIP3    H1 4596   3.665   4.908   0.186
 1573TIP3    H2 4597   3.797   4.986   0.182
 1574TIP3   OH2 4598   3.783   5.340   0.554
 1574TIP3    H1 4599   3.838   5.277   0.504
 1574TIP3    H2 4600   3.778   5.416   0.493
 1575TIP3   OH2 4601   3.616   5.641   0.751
 1575TIP3    H1 4602   3.545   5.685   0.802
 1575TIP3    H2 4603   3.566   5.594   0.681
 1576TIP3   OH2 4604   3.656   4.860  -0.221
 1576TIP3    H1 4605   3.567   4.860  -0.260
 1576TIP3    H2 4606   3.647   4.934  -0.158
 1577TIP3   OH2 4607   3.540   4.540  -0.282
 1577TIP3    H1 4608   3.480   4.554  -0.355
 1577TIP3    H2 4609   3.522   4.445  -0.264
 1578TIP3   OH2 4610   3.544   4.805   0.269
 1578TIP3    H1 4611   3.553   4.709   0.265
 1578TIP3    H2 4612   3.531   4.820   0.365
 1579TIP3   OH2 4613   2.172   4.873   1.020
 1579TIP3    H1 4614   2.169   4.847   0.925
 1579TIP3    H2 4615   2.269   4.878   1.034
 1580TIP3   OH2 4616   3.833   5.231   1.126
 1580TIP3    H1 4617   3.907   5.166   1.118
 1580TIP3    H2 4618   3.861   5.301   1.065
 1581TIP3   OH2 4619   4.018   5.037   1.147
 1581TIP3    H1 4620   3.944   4.985   1.186
 1581TIP3    H2 4621   4.090   4.972   1.153
 1582TIP3   OH2 4622   3.483   4.281  -0.258
 1582TIP3    H1 4623   3.568   4.238  -0.237
 1582TIP3    H2 4624   3.419   4.212  -0.239
 1583TIP3   OH2 4625   3.540   4.521   0.165
 1583TIP3    H1 4626   3.579   4.432   0.181
 1583TIP3    H2 4627   3.601   4.553   0.096
 1584TIP3   OH2 4628   3.703   4.698   0.660
 1584TIP3    H1 4629   3.789   4.724   0.620
 1584TIP3    H2 4630   3.717   4.734   0.749
 1585TIP3   OH2 4631   3.771   4.840   0.892
 1585TIP3    H1 4632   3.693   4.875   0.940
 1585TIP3    H2 4633   3.804   4.921   0.847
 1586TIP3   OH2 4634   2.386   4.564   1.673
 1586TIP3    H1 4635   2.484   4.562   1.685
 1586TIP3    H2 4636   2.362   4.480   1.719
 1587TIP3   OH2 4637   3.649   4.273   0.203
 1587TIP3    H1 4638   3.698   4.256   0.287
 1587TIP3    H2 4639   3.590   4.195   0.201
 1588TIP3   OH2 4640   2.352   4.259   1.025
 1588TIP3    H1 4641   2.416   4.186   1.033
 1588TIP3    H2 4642   2.412   4.335   1.016
 1589TIP3   OH2 4643   2.157   4.532   1.101
 1589TIP3    H1 4644   2.203   4.523   1.015
 1589TIP3    H2 4645   2.176   4.624   1.122
 1590TIP3   OH2 4646   3.740   4.208  -0.182
 1590TIP3    H1 4647   3.801   4.143  -0.221
 1590TIP3    H2 4648   3.800   4.285  -0.174
 1591TIP3   OH2 4649   2.139   4.062   0.613
 1591TIP3    H1 4650   2.045   4.037   0.618
 1591TIP3    H2 4651   2.145   4.103   0.525
 1592TIP3   OH2 4652   3.309   5.728   0.108
 1592TIP3    H1 4653   3.355   5.726   0.023
 1592TIP3    H2 4654   3.344   5.809   0.149
 1593TIP3   OH2 4655   2.356   4.108   1.409
 1593TIP3    H1 4656   2.307   4.114   1.493
 1593TIP3    H2 4657   2.292   4.152   1.349
 1594TIP3   OH2 4658   2.396   5.543   1.488
 1594TIP3    H1 4659   2.304   5.515   1.471
 1594TIP3    H2 4660   2.405   5.524   1.582
 1595TIP3   OH2 4661   2.574   5.574   1.035
 1595TIP3    H1 4662   2.525   5.650   0.996
 1595TIP3    H2 4663   2.660   5.589   0.991
 1596TIP3   OH2 4664   3.020   5.820   1.173
 1596TIP3    H1 4665   3.062   5.821   1.262
 1596TIP3    H2 4666   3.086   5.871   1.121
 1597TIP3   OH2 4667   3.199   5.971   1.031
 1597TIP3    H1 4668   3.271   5.921   0.990
 1597TIP3    H2 4669   3.250   6.029   1.092
 1598TIP3   OH2 4670   2.252   5.832   1.058
 1598TIP3    H1 4671   2.163   5.866   1.034
 1598TIP3    H2 4672   2.258   5.867   1.148
 1599TIP3   OH2 4673   2.487   5.810   0.916
 1599TIP3    H1 4674   2.401   5.824   0.961
 1599TIP3    H2 4675   2.468   5.844   0.826
 1600TIP3   OH2 4676   2.913   5.840   0.714
 1600TIP3    H1 4677   2.844   5.860   0.648
 1600TIP3    H2 4678   2.926   5.928   0.756
 1601TIP3   OH2 4679   3.181   5.779   0.765
 1601TIP3    H1 4680   3.087   5.797   0.745
 1601TIP3    H2 4681   3.225   5.855   0.723
 1602TIP3   OH2 4682   3.389   5.971   0.681
 1602TIP3    H1 4683   3.375   6.056   0.634
 1602TIP3    H2 4684   3.415   5.912   0.607
 1603TIP3   OH2 4685   2.162   5.626   0.804
 1603TIP3    H1 4686   2.189   5.601   0.895
 1603TIP3    H2 4687   2.234   5.583   0.753
 1604TIP3   OH2 4688   2.355   5.497   0.660
 1604TIP3    H1 4689   2.372   5.413   0.709
 1604TIP3    H2 4690   2.445   5.535   0.655
 1605TIP3   OH2 4691   2.620   5.593   0.663
 1605TIP3    H1 4692   2.653   5.502   0.650
 1605TIP3    H2 4693   2.664   5.615   0.747
 1606TIP3   OH2 4694   3.197   4.249   0.747
 1606TIP3    H1 4695   3.155   4.179   0.800
 1606TIP3    H2 4696   3.271   4.202   0.704
 1607TIP3   OH2 4697   3.721   4.133   0.659
 1607TIP3    H1 4698   3.758   4.182   0.582
 1607TIP3    H2 4699   3.626   4.148   0.648
 1608TIP3   OH2 4700   3.816   4.231   0.421
 1608TIP3    H1 4701   3.888   4.178   0.380
 1608TIP3    H2 4702   3.850   4.322   0.405
 1609TIP3   OH2 4703   2.442   3.964   0.770
 1609TIP3    H1 4704   2.349   3.934   0.761
 1609TIP3    H2 4705   2.489   3.879   0.758
 1610TIP3   OH2 4706   2.267   3.813   0.426
 1610TIP3    H1 4707   2.294   3.868   0.350
 1610TIP3    H2 4708   2.196   3.868   0.462
 1611TIP3   OH2 4709   2.889   3.992   0.650
 1611TIP3    H1 4710   2.946   4.037   0.586
 1611TIP3    H2 4711   2.917   4.032   0.733
 1612TIP3   OH2 4712   3.436   4.135   0.631
 1612TIP3    H1 4713   3.438   4.098   0.542
 1612TIP3    H2 4714   3.422   4.055   0.686
 1613TIP3   OH2 4715   3.470   4.058   0.195
 1613TIP3    H1 4716   3.379   4.091   0.191
 1613TIP3    H2 4717   3.456   3.973   0.242
 1614TIP3   OH2 4718   1.952   5.383   0.198
 1614TIP3    H1 4719   1.865   5.350   0.169
 1614TIP3    H2 4720   1.946   5.476   0.169
 1615TIP3   OH2 4721   2.351   3.982   0.216
 1615TIP3    H1 4722   2.383   3.917   0.152
 1615TIP3    H2 4723   2.429   4.039   0.230
 1616TIP3   OH2 4724   2.864   4.161   0.278
 1616TIP3    H1 4725   2.925   4.114   0.337
 1616TIP3    H2 4726   2.885   4.254   0.303
 1617TIP3   OH2 4727   2.713   5.605  -0.234
 1617TIP3    H1 4728   2.805   5.621  -0.262
 1617TIP3    H2 4729   2.699   5.520  -0.281
 1618TIP3   OH2 4730   3.439   5.707  -0.140
 1618TIP3    H1 4731   3.425   5.610  -0.151
 1618TIP3    H2 4732   3.365   5.744  -0.190
 1619TIP3   OH2 4733   2.655   4.234   1.655
 1619TIP3    H1 4734   2.622   4.165   1.715
 1619TIP3    H2 4735   2.749   4.237   1.683
 1620TIP3   OH2 4736   2.902   4.234   1.776
 1620TIP3    H1 4737   2.989   4.208   1.740
 1620TIP3    H2 4738   2.891   4.166   1.846
 1621TIP3   OH2 4739   2.033   5.446  -0.147
 1621TIP3    H1 4740   2.011   5.470  -0.057
 1621TIP3    H2 4741   2.115   5.396  -0.138
 1622TIP3   OH2 4742   3.719   4.289   1.573
 1622TIP3    H1 4743   3.727   4.262   1.667
 1622TIP3    H2 4744   3.812   4.291   1.547
 1623TIP3   OH2 4745   3.667   5.850   1.058
 1623TIP3    H1 4746   3.589   5.818   1.009
 1623TIP3    H2 4747   3.649   5.946   1.060
 1624TIP3   OH2 4748   4.913   5.225   0.211
 1624TIP3    H1 4749   4.960   5.196   0.291
 1624TIP3    H2 4750   4.890   5.140   0.170
 1625TIP3   OH2 4751   4.230   5.119   0.573
 1625TIP3    H1 4752   4.263   5.051   0.635
 1625TIP3    H2 4753   4.311   5.170   0.557
 1626TIP3   OH2 4754   4.202   5.524   0.298
 1626TIP3    H1 4755   4.194   5.426   0.299
 1626TIP3    H2 4756   4.299   5.534   0.288
 1627TIP3   OH2 4757   3.910   4.731   0.077
 1627TIP3    H1 4758   3.863   4.814   0.095
 1627TIP3    H2 4759   3.837   4.674   0.048
 1628TIP3   OH2 4760   3.968   5.014   0.245
 1628TIP3    H1 4761   4.016   4.938   0.286
 1628TIP3    H2 4762   4.035   5.051   0.187
 1629TIP3   OH2 4763   4.732   5.446   0.252
 1629TIP3    H1 4764   4.772   5.363   0.217
 1629TIP3    H2 4765   4.816   5.492   0.274
 1630TIP3   OH2 4766   5.740   4.764   0.255
 1630TIP3    H1 4767   5.767   4.846   0.303
 1630TIP3    H2 4768   5.788   4.776   0.171
 1631TIP3   OH2 4769   5.140   4.948   0.296
 1631TIP3    H1 4770   5.186   4.862   0.306
 1631TIP3    H2 4771   5.116   4.945   0.201
 1632TIP3   OH2 4772   4.475   4.607   0.254
 1632TIP3    H1 4773   4.464   4.679   0.189
 1632TIP3    H2 4774   4.432   4.534   0.205
 1633TIP3   OH2 4775   5.130   4.690  -0.049
 1633TIP3    H1 4776   5.211   4.671   0.002
 1633TIP3    H2 4777   5.171   4.675  -0.137
 1634TIP3   OH2 4778   4.114   4.810   0.356
 1634TIP3    H1 4779   4.197   4.792   0.404
 1634TIP3    H2 4780   4.129   4.755   0.276
 1635TIP3   OH2 4781   4.555   5.007   0.153
 1635TIP3    H1 4782   4.650   4.984   0.165
 1635TIP3    H2 4783   4.519   4.923   0.118
 1636TIP3   OH2 4784   5.815   4.971   0.420
 1636TIP3    H1 4785   5.730   5.018   0.405
 1636TIP3    H2 4786   5.835   4.999   0.510
 1637TIP3   OH2 4787   4.476   4.592   0.685
 1637TIP3    H1 4788   4.419   4.628   0.614
 1637TIP3    H2 4789   4.423   4.617   0.764
 1638TIP3   OH2 4790   4.585   5.367   0.480
 1638TIP3    H1 4791   4.522   5.432   0.518
 1638TIP3    H2 4792   4.626   5.418   0.407
 1639TIP3   OH2 4793   5.388   4.718   0.071
 1639TIP3    H1 4794   5.400   4.649   0.137
 1639TIP3    H2 4795   5.440   4.793   0.104
 1640TIP3   OH2 4796   4.347   4.707   0.471
 1640TIP3    H1 4797   4.410   4.779   0.492
 1640TIP3    H2 4798   4.394   4.666   0.395
 1641TIP3   OH2 4799   4.412   5.559   0.579
 1641TIP3    H1 4800   4.386   5.644   0.537
 1641TIP3    H2 4801   4.332   5.545   0.635
 1642TIP3   OH2 4802   3.803   5.251  -0.169
 1642TIP3    H1 4803   3.746   5.299  -0.231
 1642TIP3    H2 4804   3.831   5.325  -0.110
 1643TIP3   OH2 4805   5.218   5.788   0.084
 1643TIP3    H1 4806   5.132   5.751   0.112
 1643TIP3    H2 4807   5.187   5.853   0.020
 1644TIP3   OH2 4808   5.533   4.671   0.420
 1644TIP3    H1 4809   5.444   4.693   0.386
 1644TIP3    H2 4810   5.592   4.700   0.347
 1645TIP3   OH2 4811   4.834   4.310   0.396
 1645TIP3    H1 4812   4.824   4.214   0.414
 1645TIP3    H2 4813   4.756   4.345   0.443
 1646TIP3   OH2 4814   5.470   5.680   0.397
 1646TIP3    H1 4815   5.472   5.600   0.342
 1646TIP3    H2 4816   5.467   5.751   0.330
 1647TIP3   OH2 4817   5.671   5.311   0.272
 1647TIP3    H1 4818   5.591   5.367   0.272
 1647TIP3    H2 4819   5.684   5.299   0.177
 1648TIP3   OH2 4820   5.345   5.196   0.536
 1648TIP3    H1 4821   5.340   5.278   0.586
 1648TIP3    H2 4822   5.262   5.201   0.485
 1649TIP3   OH2 4823   4.345   5.156   0.046
 1649TIP3    H1 4824   4.302   5.097  -0.020
 1649TIP3    H2 4825   4.422   5.102   0.073
 1650TIP3   OH2 4826   4.470   5.563   0.196
 1650TIP3    H1 4827   4.445   5.530   0.108
 1650TIP3    H2 4828   4.560   5.526   0.208
 1651TIP3   OH2 4829   4.475   5.127   0.396
 1651TIP3    H1 4830   4.511   5.101   0.309
 1651TIP3    H2 4831   4.523   5.210   0.416
 1652TIP3   OH2 4832   4.967   5.760   0.185
 1652TIP3    H1 4833   4.973   5.837   0.244
 1652TIP3    H2 4834   4.970   5.685   0.248
 1653TIP3   OH2 4835   4.618   5.681   0.720
 1653TIP3    H1 4836   4.559   5.744   0.767
 1653TIP3    H2 4837   4.552   5.628   0.671
 1654TIP3   OH2 4838   4.373   5.238   0.824
 1654TIP3    H1 4839   4.376   5.325   0.867
 1654TIP3    H2 4840   4.277   5.220   0.828
 1655TIP3   OH2 4841   4.412   5.850   0.807
 1655TIP3    H1 4842   4.377   5.848   0.716
 1655TIP3    H2 4843   4.333   5.828   0.860
 1656TIP3   OH2 4844   4.201   4.998  -0.131
 1656TIP3    H1 4845   4.147   5.032  -0.205
 1656TIP3    H2 4846   4.161   4.913  -0.114
 1657TIP3   OH2 4847   3.990   5.380   0.755
 1657TIP3    H1 4848   3.927   5.357   0.684
 1657TIP3    H2 4849   4.028   5.294   0.780
 1658TIP3   OH2 4850   3.846   5.571   0.390
 1658TIP3    H1 4851   3.942   5.565   0.377
 1658TIP3    H2 4852   3.838   5.651   0.443
 1659TIP3   OH2 4853   5.707   6.020   0.447
 1659TIP3    H1 4854   5.706   5.924   0.464
 1659TIP3    H2 4855   5.623   6.047   0.491
 1660TIP3   OH2 4856   4.816   5.810   0.578
 1660TIP3    H1 4857   4.816   5.903   0.610
 1660TIP3    H2 4858   4.745   5.771   0.632
 1661TIP3   OH2 4859   4.005   5.780  -0.087
 1661TIP3    H1 4860   4.074   5.782  -0.018
 1661TIP3    H2 4861   3.951   5.707  -0.052
 1662TIP3   OH2 4862   5.597   5.154   0.718
 1662TIP3    H1 4863   5.517   5.165   0.664
 1662TIP3    H2 4864   5.614   5.058   0.706
 1663TIP3   OH2 4865   4.196   5.563   0.745
 1663TIP3    H1 4866   4.246   5.546   0.827
 1663TIP3    H2 4867   4.122   5.499   0.752
 1664TIP3   OH2 4868   4.595   4.385   0.527
 1664TIP3    H1 4869   4.506   4.355   0.500
 1664TIP3    H2 4870   4.571   4.469   0.569
 1665TIP3   OH2 4871   5.130   4.503   0.722
 1665TIP3    H1 4872   5.199   4.472   0.784
 1665TIP3    H2 4873   5.047   4.480   0.768
 1666TIP3   OH2 4874   5.370   4.932   0.641
 1666TIP3    H1 4875   5.319   4.927   0.725
 1666TIP3    H2 4876   5.342   5.017   0.603
 1667TIP3   OH2 4877   4.524   4.903   0.545
 1667TIP3    H1 4878   4.477   4.927   0.626
 1667TIP3    H2 4879   4.510   4.984   0.490
 1668TIP3   OH2 4880   4.411   4.786   0.059
 1668TIP3    H1 4881   4.319   4.758   0.076
 1668TIP3    H2 4882   4.425   4.749  -0.031
 1669TIP3   OH2 4883   5.077   5.155   0.876
 1669TIP3    H1 4884   5.055   5.080   0.936
 1669TIP3    H2 4885   5.171   5.166   0.895
 1670TIP3   OH2 4886   5.048   4.934   0.035
 1670TIP3    H1 4887   5.020   4.974  -0.050
 1670TIP3    H2 4888   5.073   4.843   0.004
 1671TIP3   OH2 4889   4.344   4.934   0.755
 1671TIP3    H1 4890   4.378   4.997   0.820
 1671TIP3    H2 4891   4.336   4.852   0.808
 1672TIP3   OH2 4892   3.939   4.456   0.335
 1672TIP3    H1 4893   4.016   4.485   0.388
 1672TIP3    H2 4894   3.979   4.419   0.255
 1673TIP3   OH2 4895   3.908   4.433  -0.145
 1673TIP3    H1 4896   3.965   4.467  -0.217
 1673TIP3    H2 4897   3.854   4.512  -0.125
 1674TIP3   OH2 4898   5.062   5.151   0.452
 1674TIP3    H1 4899   5.099   5.080   0.394
 1674TIP3    H2 4900   5.037   5.096   0.529
 1675TIP3   OH2 4901   4.741   4.625   0.134
 1675TIP3    H1 4902   4.661   4.609   0.188
 1675TIP3    H2 4903   4.812   4.609   0.198
 1676TIP3   OH2 4904   4.173   4.664   0.130
 1676TIP3    H1 4905   4.079   4.668   0.102
 1676TIP3    H2 4906   4.200   4.573   0.107
 1677TIP3   OH2 4907   4.438   4.669  -0.194
 1677TIP3    H1 4908   4.535   4.671  -0.172
 1677TIP3    H2 4909   4.438   4.717  -0.278
 1678TIP3   OH2 4910   5.232   4.686   0.334
 1678TIP3    H1 4911   5.186   4.697   0.420
 1678TIP3    H2 4912   5.172   4.627   0.287
 1679TIP3   OH2 4913   5.399   6.372   0.572
 1679TIP3    H1 4914   5.398   6.384   0.474
 1679TIP3    H2 4915   5.468   6.436   0.596
 1680TIP3   OH2 4916   4.357   5.484   0.965
 1680TIP3    H1 4917   4.437   5.515   1.011
 1680TIP3    H2 4918   4.293   5.486   1.038
 1681TIP3   OH2 4919   4.820   4.940   0.220
 1681TIP3    H1 4920   4.893   4.911   0.163
 1681TIP3    H2 4921   4.837   4.891   0.302
 1682TIP3   OH2 4922   4.347   4.428   0.092
 1682TIP3    H1 4923   4.317   4.347   0.138
 1682TIP3    H2 4924   4.414   4.393   0.031
 1683TIP3   OH2 4925   4.797   4.828   0.517
 1683TIP3    H1 4926   4.710   4.871   0.522
 1683TIP3    H2 4927   4.857   4.892   0.560
 1684TIP3   OH2 4928   5.442   5.450   0.233
 1684TIP3    H1 4929   5.427   5.526   0.173
 1684TIP3    H2 4930   5.355   5.403   0.229
 1685TIP3   OH2 4931   4.939   5.548   0.600
 1685TIP3    H1 4932   4.957   5.521   0.691
 1685TIP3    H2 4933   4.895   5.633   0.610
 1686TIP3   OH2 4934   4.221   5.241   0.280
 1686TIP3    H1 4935   4.262   5.220   0.193
 1686TIP3    H2 4936   4.274   5.185   0.339
 1687TIP3   OH2 4937   4.105   5.171   0.894
 1687TIP3    H1 4938   4.129   5.156   0.987
 1687TIP3    H2 4939   4.039   5.102   0.879
 1688TIP3   OH2 4940   4.833   5.281   0.913
 1688TIP3    H1 4941   4.777   5.225   0.857
 1688TIP3    H2 4942   4.922   5.249   0.887
 1689TIP3   OH2 4943   5.092   5.814   0.488
 1689TIP3    H1 4944   4.998   5.802   0.510
 1689TIP3    H2 4945   5.124   5.858   0.570
 1690TIP3   OH2 4946   5.718   5.737   0.492
 1690TIP3    H1 4947   5.620   5.731   0.490
 1690TIP3    H2 4948   5.739   5.705   0.401
 1691TIP3   OH2 4949   5.208   5.315   0.201
 1691TIP3    H1 4950   5.114   5.306   0.179
 1691TIP3    H2 4951   5.243   5.242   0.146
 1692TIP3   OH2 4952   4.339   5.562  -0.077
 1692TIP3    H1 4953   4.349   5.652  -0.114
 1692TIP3    H2 4954   4.264   5.529  -0.131
 1693TIP3   OH2 4955   3.863   4.856  -0.401
 1693TIP3    H1 4956   3.920   4.932  -0.375
 1693TIP3    H2 4957   3.794   4.859  -0.331
 1694TIP3   OH2 4958   4.487   5.330  -0.127
 1694TIP3    H1 4959   4.440   5.414  -0.117
 1694TIP3    H2 4960   4.437   5.272  -0.067
 1695TIP3   OH2 4961   4.596   5.896   0.374
 1695TIP3    H1 4962   4.638   5.967   0.323
 1695TIP3    H2 4963   4.672   5.860   0.422
 1696TIP3   OH2 4964   4.992   5.526   0.333
 1696TIP3    H1 4965   4.981   5.524   0.431
 1696TIP3    H2 4966   5.069   5.468   0.321
 1697TIP3   OH2 4967   5.221   6.069   0.400
 1697TIP3    H1 4968   5.146   6.007   0.393
 1697TIP3    H2 4969   5.206   6.126   0.324
 1698TIP3   OH2 4970   4.316   4.677   0.901
 1698TIP3    H1 4971   4.219   4.688   0.910
 1698TIP3    H2 4972   4.333   4.606   0.965
 1699TIP3   OH2 4973   4.034   5.759   0.534
 1699TIP3    H1 4974   4.088   5.684   0.561
 1699TIP3    H2 4975   4.066   5.828   0.593
 1700TIP3   OH2 4976   3.990   5.079  -0.303
 1700TIP3    H1 4977   3.942   5.138  -0.243
 1700TIP3    H2 4978   4.037   5.142  -0.362
 1701TIP3   OH2 4979   5.147   4.747   0.593
 1701TIP3    H1 4980   5.236   4.775   0.617
 1701TIP3    H2 4981   5.138   4.661   0.640
 1702TIP3   OH2 4982   4.698   4.696  -0.131
 1702TIP3    H1 4983   4.782   4.708  -0.178
 1702TIP3    H2 4984   4.726   4.680  -0.039
 1703TIP3   OH2 4985   4.992   4.987   0.658
 1703TIP3    H1 4986   5.019   5.037   0.738
 1703TIP3    H2 4987   5.048   4.907   0.662
 1704TIP3   OH2 4988   4.873   4.402  -0.030
 1704TIP3    H1 4989   4.882   4.484   0.023
 1704TIP3    H2 4990   4.941   4.417  -0.099
 1705TIP3   OH2 4991   4.369   4.392  -0.241
 1705TIP3    H1 4992   4.373   4.485  -0.211
 1705TIP3    H2 4993   4.458   4.362  -0.212
 1706TIP3   OH2 4994   5.636   4.887   0.638
 1706TIP3    H1 4995   5.538   4.887   0.645
 1706TIP3    H2 4996   5.646   4.843   0.553
 1707TIP3   OH2 4997   5.296   5.100   0.056
 1707TIP3    H1 4998   5.221   5.045   0.030
 1707TIP3    H2 4999   5.364   5.033   0.077
 1708TIP3   OH2 5000   3.947   4.597  -0.376
 1708TIP3    H1 5001   3.914   4.688  -0.392
 1708TIP3    H2 5002   3.882   4.545  -0.424
 1709TIP3   OH2 5003   4.326   4.307   0.505
 1709TIP3    H1 5004   4.300   4.274   0.417
 1709TIP3    H2 5005   4.320   4.226   0.560
 1710TIP3   OH2 5006   3.848   5.528  -0.074
 1710TIP3    H1 5007   3.781   5.594  -0.052
 1710TIP3    H2 5008   3.862   5.539  -0.170
 1711TIP3   OH2 5009   4.025   6.065   0.955
 1711TIP3    H1 5010   4.112   6.066   1.002
 1711TIP3    H2 5011   4.006   5.970   0.953
 1712TIP3   OH2 5012   4.507   6.032   0.999
 1712TIP3    H1 5013   4.602   6.015   1.007
 1712TIP3    H2 5014   4.484   5.974   0.925
 1713TIP3   OH2 5015   5.149   5.934   0.730
 1713TIP3    H1 5016   5.139   5.866   0.800
 1713TIP3    H2 5017   5.225   5.987   0.762
 1714TIP3   OH2 5018   4.156   5.472   1.155
 1714TIP3    H1 5019   4.172   5.376   1.159
 1714TIP3    H2 5020   4.069   5.475   1.111
 1715TIP3   OH2 5021   4.764   5.556   0.928
 1715TIP3    H1 5022   4.723   5.573   0.841
 1715TIP3    H2 5023   4.796   5.464   0.921
 1716TIP3   OH2 5024   5.258   5.564   0.536
 1716TIP3    H1 5025   5.329   5.614   0.492
 1716TIP3    H2 5026   5.182   5.622   0.521
 1717TIP3   OH2 5027   4.275   5.202   1.138
 1717TIP3    H1 5028   4.356   5.156   1.112
 1717TIP3    H2 5029   4.300   5.238   1.225
 1718TIP3   OH2 5030   4.608   5.089   0.797
 1718TIP3    H1 5031   4.534   5.152   0.800
 1718TIP3    H2 5032   4.661   5.124   0.721
 1719TIP3   OH2 5033   5.128   5.494   0.932
 1719TIP3    H1 5034   5.208   5.471   0.885
 1719TIP3    H2 5035   5.126   5.426   1.002
 1720TIP3   OH2 5036   4.728   4.876   0.927
 1720TIP3    H1 5037   4.736   4.799   0.867
 1720TIP3    H2 5038   4.690   4.944   0.866
 1721TIP3   OH2 5039   4.735   4.666   0.735
 1721TIP3    H1 5040   4.766   4.707   0.652
 1721TIP3    H2 5041   4.642   4.643   0.711
 1722TIP3   OH2 5042   4.764   5.203   0.608
 1722TIP3    H1 5043   4.846   5.203   0.558
 1722TIP3    H2 5044   4.710   5.269   0.560
 1723TIP3   OH2 5045   5.348   5.170   0.989
 1723TIP3    H1 5046   5.393   5.084   0.993
 1723TIP3    H2 5047   5.417   5.226   0.951
 1724TIP3   OH2 5048   5.388   5.422   0.724
 1724TIP3    H1 5049   5.331   5.474   0.664
 1724TIP3    H2 5050   5.476   5.440   0.683
 1725TIP3   OH2 5051   4.610   4.994   1.155
 1725TIP3    H1 5052   4.539   4.929   1.168
 1725TIP3    H2 5053   4.646   4.968   1.068
 1726TIP3   OH2 5054   4.870   4.431   0.800
 1726TIP3    H1 5055   4.821   4.513   0.775
 1726TIP3    H2 5056   4.803   4.362   0.784
 1727TIP3   OH2 5057   4.993   4.935   1.015
 1727TIP3    H1 5058   4.986   4.923   1.111
 1727TIP3    H2 5059   4.903   4.908   0.987
 1728TIP3   OH2 5060   5.237   4.890   0.872
 1728TIP3    H1 5061   5.160   4.884   0.932
 1728TIP3    H2 5062   5.309   4.854   0.927
 1729TIP3   OH2 5063   5.463   4.824   1.022
 1729TIP3    H1 5064   5.477   4.728   1.039
 1729TIP3    H2 5065   5.460   4.862   1.112
 1730TIP3   OH2 5066   4.443   4.777   1.213
 1730TIP3    H1 5067   4.477   4.700   1.165
 1730TIP3    H2 5068   4.485   4.765   1.301
 1731TIP3   OH2 5069   4.960   4.439   1.058
 1731TIP3    H1 5070   5.030   4.371   1.053
 1731TIP3    H2 5071   4.925   4.433   0.967
 1732TIP3   OH2 5072   5.028   4.654   1.215
 1732TIP3    H1 5073   5.008   4.583   1.151
 1732TIP3    H2 5074   4.951   4.713   1.206
 1733TIP3   OH2 5075   3.637   5.882  -0.055
 1733TIP3    H1 5076   3.575   5.816  -0.093
 1733TIP3    H2 5077   3.682   5.829   0.014
 1734TIP3   OH2 5078   3.773   5.737   0.133
 1734TIP3    H1 5079   3.770   5.659   0.192
 1734TIP3    H2 5080   3.827   5.797   0.188
 1735TIP3   OH2 5081   5.564   6.139   0.217
 1735TIP3    H1 5082   5.515   6.055   0.230
 1735TIP3    H2 5083   5.631   6.129   0.287
 1736TIP3   OH2 5084   5.582   5.826   0.784
 1736TIP3    H1 5085   5.509   5.834   0.849
 1736TIP3    H2 5086   5.623   5.914   0.790
 1737TIP3   OH2 5087   5.407   5.915   0.252
 1737TIP3    H1 5088   5.340   5.947   0.316
 1737TIP3    H2 5089   5.352   5.859   0.194
 1738TIP3   OH2 5090   3.967   5.136   0.502
 1738TIP3    H1 5091   3.968   5.108   0.408
 1738TIP3    H2 5092   4.064   5.139   0.520
 1739TIP3   OH2 5093   5.630   5.488   0.611
 1739TIP3    H1 5094   5.701   5.420   0.606
 1739TIP3    H2 5095   5.664   5.557   0.553
 1740TIP3   OH2 5096   5.813   5.295   0.639
 1740TIP3    H1 5097   5.739   5.240   0.674
 1740TIP3    H2 5098   5.887   5.231   0.648
 1741TIP3   OH2 5099   5.512   4.953   0.147
 1741TIP3    H1 5100   5.595   4.984   0.105
 1741TIP3    H2 5101   5.523   4.989   0.238
 1742TIP3   OH2 5102   5.563   5.089   0.386
 1742TIP3    H1 5103   5.482   5.121   0.431
 1742TIP3    H2 5104   5.601   5.173   0.352
 1743TIP3   OH2 5105   4.175   4.814   1.170
 1743TIP3    H1 5106   4.273   4.812   1.174
 1743TIP3    H2 5107   4.152   4.767   1.251
 1744TIP3   OH2 5108   6.021   4.688   0.936
 1744TIP3    H1 5109   6.078   4.621   0.893
 1744TIP3    H2 5110   5.992   4.742   0.859
 1745TIP3   OH2 5111   4.145   4.516   0.514
 1745TIP3    H1 5112   4.207   4.440   0.518
 1745TIP3    H2 5113   4.208   4.590   0.503
 1746TIP3   OH2 5114   3.949   4.790   0.582
 1746TIP3    H1 5115   3.999   4.781   0.498
 1746TIP3    H2 5116   3.980   4.876   0.613
 1747TIP3   OH2 5117   5.890   4.827   0.742
 1747TIP3    H1 5118   5.802   4.867   0.756
 1747TIP3    H2 5119   5.866   4.755   0.681
 1748TIP3   OH2 5120   3.932   4.296   0.087
 1748TIP3    H1 5121   3.838   4.290   0.111
 1748TIP3    H2 5122   3.929   4.351   0.006
 1749TIP3   OH2 5123   4.142   4.375   0.920
 1749TIP3    H1 5124   4.066   4.329   0.957
 1749TIP3    H2 5125   4.098   4.422   0.847
 1750TIP3   OH2 5126   4.192   5.799   0.975
 1750TIP3    H1 5127   4.100   5.771   0.958
 1750TIP3    H2 5128   4.201   5.783   1.069
 1751TIP3   OH2 5129   4.369   5.831   0.522
 1751TIP3    H1 5130   4.322   5.907   0.482
 1751TIP3    H2 5131   4.455   5.844   0.478
 1752TIP3   OH2 5132   4.816   6.077   0.659
 1752TIP3    H1 5133   4.858   6.077   0.748
 1752TIP3    H2 5134   4.882   6.129   0.608
 1753TIP3   OH2 5135   4.995   6.229   0.519
 1753TIP3    H1 5136   5.069   6.175   0.485
 1753TIP3    H2 5137   5.043   6.288   0.581
 1754TIP3   OH2 5138   5.788   4.589   0.619
 1754TIP3    H1 5139   5.697   4.581   0.585
 1754TIP3    H2 5140   5.820   4.496   0.608
 1755TIP3   OH2 5141   4.046   6.089   0.544
 1755TIP3    H1 5142   3.957   6.123   0.522
 1755TIP3    H2 5143   4.057   6.125   0.633
 1756TIP3   OH2 5144   4.283   6.066   0.402
 1756TIP3    H1 5145   4.197   6.080   0.447
 1756TIP3    H2 5146   4.265   6.100   0.312
 1757TIP3   OH2 5147   4.716   6.097   0.198
 1757TIP3    H1 5148   4.637   6.114   0.142
 1757TIP3    H2 5149   4.726   6.184   0.243
 1758TIP3   OH2 5150   4.987   6.050   0.240
 1758TIP3    H1 5151   4.890   6.053   0.229
 1758TIP3    H2 5152   5.015   6.117   0.176
 1759TIP3   OH2 5153   3.956   5.882   0.291
 1759TIP3    H1 5154   3.985   5.857   0.382
 1759TIP3    H2 5155   4.029   5.839   0.240
 1760TIP3   OH2 5156   4.152   5.757   0.147
 1760TIP3    H1 5157   4.168   5.670   0.189
 1760TIP3    H2 5158   4.243   5.792   0.140
 1761TIP3   OH2 5159   4.418   5.852   0.147
 1761TIP3    H1 5160   4.448   5.761   0.131
 1761TIP3    H2 5161   4.461   5.869   0.233
 1762TIP3   OH2 5162   4.992   4.507   0.241
 1762TIP3    H1 5163   4.951   4.432   0.288
 1762TIP3    H2 5164   5.065   4.464   0.192
 1763TIP3   OH2 5165   5.511   4.401   0.160
 1763TIP3    H1 5166   5.551   4.430   0.075
 1763TIP3    H2 5167   5.416   4.403   0.139
 1764TIP3   OH2 5168   5.632   4.449  -0.086
 1764TIP3    H1 5169   5.727   4.434  -0.085
 1764TIP3    H2 5170   5.631   4.545  -0.102
 1765TIP3   OH2 5171   4.242   4.216   0.257
 1765TIP3    H1 5172   4.150   4.181   0.256
 1765TIP3    H2 5173   4.292   4.132   0.252
 1766TIP3   OH2 5174   4.012   4.084  -0.102
 1766TIP3    H1 5175   4.057   4.139  -0.169
 1766TIP3    H2 5176   3.998   4.149  -0.030
 1767TIP3   OH2 5177   4.678   4.255   0.139
 1767TIP3    H1 5178   4.734   4.296   0.071
 1767TIP3    H2 5179   4.722   4.284   0.220
 1768TIP3   OH2 5180   5.231   4.395   0.116
 1768TIP3    H1 5181   5.231   4.363   0.024
 1768TIP3    H2 5182   5.217   4.312   0.167
 1769TIP3   OH2 5183   4.137   4.262  -0.314
 1769TIP3    H1 5184   4.174   4.181  -0.350
 1769TIP3    H2 5185   4.219   4.311  -0.288
 1770TIP3   OH2 5186   4.627   4.402  -0.174
 1770TIP3    H1 5187   4.703   4.349  -0.145
 1770TIP3    H2 5188   4.674   4.483  -0.201
 1771TIP3   OH2 5189   4.443   4.453   1.167
 1771TIP3    H1 5190   4.485   4.411   1.244
 1771TIP3    H2 5191   4.522   4.500   1.137
 1772TIP3   OH2 5192   4.702   4.495   1.259
 1772TIP3    H1 5193   4.787   4.471   1.217
 1772TIP3    H2 5194   4.698   4.430   1.332
 1773TIP3   OH2 5195   5.524   4.554   1.052
 1773TIP3    H1 5196   5.544   4.521   1.142
 1773TIP3    H2 5197   5.612   4.548   1.009
 1774TIP3   OH2 5198   5.465   6.107   0.544
 1774TIP3    H1 5199   5.379   6.080   0.504
 1774TIP3    H2 5200   5.450   6.203   0.554
 1775TIP3   OH2 5201   6.248   4.841   0.162
 1775TIP3    H1 5202   6.281   4.922   0.119
 1775TIP3    H2 5203   6.202   4.875   0.242
 1776TIP3   OH2 5204   6.177   5.486   0.322
 1776TIP3    H1 5205   6.181   5.576   0.358
 1776TIP3    H2 5206   6.081   5.469   0.320
 1777TIP3   OH2 5207   5.773   5.634   0.251
 1777TIP3    H1 5208   5.761   5.622   0.155
 1777TIP3    H2 5209   5.812   5.548   0.281
 1778TIP3   OH2 5210   6.018   5.762   0.254
 1778TIP3    H1 5211   6.075   5.759   0.334
 1778TIP3    H2 5212   5.942   5.708   0.279
 1779TIP3   OH2 5213   6.930   4.804   0.262
 1779TIP3    H1 5214   7.005   4.753   0.295
 1779TIP3    H2 5215   6.858   4.740   0.267
 1780TIP3   OH2 5216   6.887   5.422   0.413
 1780TIP3    H1 5217   6.859   5.333   0.444
 1780TIP3    H2 5218   6.973   5.400   0.375
 1781TIP3   OH2 5219   6.097   5.192   0.267
 1781TIP3    H1 5220   6.170   5.251   0.285
 1781TIP3    H2 5221   6.125   5.108   0.306
 1782TIP3   OH2 5222   6.167   5.736   0.478
 1782TIP3    H1 5223   6.242   5.770   0.531
 1782TIP3    H2 5224   6.096   5.738   0.545
 1783TIP3   OH2 5225   5.902   5.438   0.384
 1783TIP3    H1 5226   5.936   5.420   0.474
 1783TIP3    H2 5227   5.843   5.361   0.371
 1784TIP3   OH2 5228   6.624   5.510   0.437
 1784TIP3    H1 5229   6.563   5.473   0.370
 1784TIP3    H2 5230   6.711   5.480   0.404
 1785TIP3   OH2 5231   6.121   4.930   0.392
 1785TIP3    H1 5232   6.025   4.937   0.400
 1785TIP3    H2 5233   6.143   4.864   0.461
 1786TIP3   OH2 5234   6.078   4.546  -0.015
 1786TIP3    H1 5235   6.076   4.492  -0.095
 1786TIP3    H2 5236   6.093   4.478   0.054
 1787TIP3   OH2 5237   5.817   6.298   0.437
 1787TIP3    H1 5238   5.903   6.311   0.481
 1787TIP3    H2 5239   5.799   6.204   0.456
 1788TIP3   OH2 5240   6.346   6.291   0.475
 1788TIP3    H1 5241   6.400   6.214   0.502
 1788TIP3    H2 5242   6.316   6.261   0.389
 1789TIP3   OH2 5243   5.950   5.727   0.647
 1789TIP3    H1 5244   5.966   5.631   0.649
 1789TIP3    H2 5245   5.863   5.731   0.602
 1790TIP3   OH2 5246   6.568   5.778   0.459
 1790TIP3    H1 5247   6.523   5.785   0.372
 1790TIP3    H2 5248   6.585   5.681   0.463
 1791TIP3   OH2 5249   6.067   5.463   0.623
 1791TIP3    H1 5250   6.142   5.411   0.593
 1791TIP3    H2 5251   6.096   5.493   0.711
 1792TIP3   OH2 5252   6.399   5.339   0.283
 1792TIP3    H1 5253   6.324   5.398   0.306
 1792TIP3    H2 5254   6.425   5.380   0.199
 1793TIP3   OH2 5255   6.986   5.747   0.461
 1793TIP3    H1 5256   7.021   5.699   0.386
 1793TIP3    H2 5257   6.945   5.676   0.513
 1794TIP3   OH2 5258   6.530   5.153   0.430
 1794TIP3    H1 5259   6.521   5.067   0.383
 1794TIP3    H2 5260   6.484   5.213   0.366
 1795TIP3   OH2 5261   6.507   4.931   0.278
 1795TIP3    H1 5262   6.563   4.917   0.199
 1795TIP3    H2 5263   6.423   4.892   0.249
 1796TIP3   OH2 5264   7.176   5.434   0.493
 1796TIP3    H1 5265   7.173   5.337   0.485
 1796TIP3    H2 5266   7.222   5.458   0.412
 1797TIP3   OH2 5267   6.403   5.255   0.651
 1797TIP3    H1 5268   6.336   5.184   0.659
 1797TIP3    H2 5269   6.443   5.233   0.564
 1798TIP3   OH2 5270   6.793   5.181   0.501
 1798TIP3    H1 5271   6.777   5.169   0.596
 1798TIP3    H2 5272   6.701   5.165   0.468
 1799TIP3   OH2 5273   7.046   5.176   0.374
 1799TIP3    H1 5274   6.959   5.148   0.409
 1799TIP3    H2 5275   7.101   5.099   0.394
 1800TIP3   OH2 5276   7.296   5.089   0.515
 1800TIP3    H1 5277   7.281   4.993   0.520
 1800TIP3    H2 5278   7.266   5.120   0.603
 1801TIP3   OH2 5279   6.247   5.031   0.695
 1801TIP3    H1 5280   6.252   4.942   0.655
 1801TIP3    H2 5281   6.283   5.014   0.784
 1802TIP3   OH2 5282   6.755   4.695   0.530
 1802TIP3    H1 5283   6.829   4.630   0.531
 1802TIP3    H2 5284   6.699   4.656   0.462
 1803TIP3   OH2 5285   6.824   4.907   0.700
 1803TIP3    H1 5286   6.803   4.841   0.631
 1803TIP3    H2 5287   6.748   4.969   0.693
 1804TIP3   OH2 5288   5.979   5.081   0.668
 1804TIP3    H1 5289   6.077   5.074   0.664
 1804TIP3    H2 5290   5.956   4.995   0.708
 1805TIP3   OH2 5291   5.936   4.805   0.062
 1805TIP3    H1 5292   6.003   4.740   0.088
 1805TIP3    H2 5293   5.992   4.875   0.021
 1806TIP3   OH2 5294   5.758   5.053   0.058
 1806TIP3    H1 5295   5.824   4.983   0.049
 1806TIP3    H2 5296   5.815   5.128   0.077
 1807TIP3   OH2 5297   5.949   4.637   0.388
 1807TIP3    H1 5298   5.898   4.623   0.470
 1807TIP3    H2 5299   5.878   4.667   0.328
 1808TIP3   OH2 5300   5.982   6.047   0.464
 1808TIP3    H1 5301   5.890   6.018   0.452
 1808TIP3    H2 5302   5.997   6.029   0.557
 1809TIP3   OH2 5303   6.244   4.753   0.635
 1809TIP3    H1 5304   6.213   4.680   0.691
 1809TIP3    H2 5305   6.339   4.754   0.658
 1810TIP3   OH2 5306   6.495   4.752   0.753
 1810TIP3    H1 5307   6.579   4.726   0.712
 1810TIP3    H2 5308   6.482   4.679   0.818
 1811TIP3   OH2 5309   7.309   4.807   0.549
 1811TIP3    H1 5310   7.336   4.777   0.639
 1811TIP3    H2 5311   7.395   4.808   0.502
 1812TIP3   OH2 5312  -0.226   5.871   2.234
 1812TIP3    H1 5313  -0.259   5.779   2.233
 1812TIP3    H2 5314  -0.283   5.916   2.299
 1813TIP3   OH2 5315   0.285   5.736   2.115
 1813TIP3    H1 5316   0.329   5.663   2.067
 1813TIP3    H2 5317   0.244   5.787   2.041
 1814TIP3   OH2 5318   0.133   5.871   1.936
 1814TIP3    H1 5319   0.063   5.915   1.989
 1814TIP3    H2 5320   0.085   5.796   1.894
 1815TIP3   OH2 5321   0.042   5.633   1.828
 1815TIP3    H1 5322  -0.007   5.639   1.742
 1815TIP3    H2 5323   0.080   5.544   1.817
 1816TIP3   OH2 5324  -0.239   5.591   2.232
 1816TIP3    H1 5325  -0.218   5.564   2.324
 1816TIP3    H2 5326  -0.150   5.594   2.192
 1817TIP3   OH2 5327   1.794   6.064   0.916
 1817TIP3    H1 5328   1.823   6.148   0.958
 1817TIP3    H2 5329   1.809   6.084   0.822
 1818TIP3   OH2 5330   1.133   6.238   0.966
 1818TIP3    H1 5331   1.182   6.158   0.991
 1818TIP3    H2 5332   1.183   6.265   0.887
 1819TIP3   OH2 5333   1.865   6.275   1.085
 1819TIP3    H1 5334   1.781   6.322   1.063
 1819TIP3    H2 5335   1.875   6.300   1.178
 1820TIP3   OH2 5336   0.535   5.888   1.367
 1820TIP3    H1 5337   0.463   5.858   1.309
 1820TIP3    H2 5338   0.487   5.908   1.450
 1821TIP3   OH2 5339   1.419   6.006   0.711
 1821TIP3    H1 5340   1.424   5.945   0.785
 1821TIP3    H2 5341   1.484   6.074   0.734
 1822TIP3   OH2 5342   1.579   5.976   1.080
 1822TIP3    H1 5343   1.491   5.998   1.045
 1822TIP3    H2 5344   1.639   6.002   1.007
 1823TIP3   OH2 5345   0.899   5.626   1.096
 1823TIP3    H1 5346   0.870   5.560   1.029
 1823TIP3    H2 5347   0.811   5.659   1.122
 1824TIP3   OH2 5348   1.512   6.988   1.066
 1824TIP3    H1 5349   1.510   6.918   0.998
 1824TIP3    H2 5350   1.476   7.064   1.015
 1825TIP3   OH2 5351   1.710   6.617   0.906
 1825TIP3    H1 5352   1.637   6.681   0.912
 1825TIP3    H2 5353   1.737   6.635   0.813
 1826TIP3   OH2 5354   1.401   6.499   1.199
 1826TIP3    H1 5355   1.392   6.578   1.256
 1826TIP3    H2 5356   1.310   6.493   1.163
 1827TIP3   OH2 5357   1.766   7.319   1.120
 1827TIP3    H1 5358   1.758   7.223   1.131
 1827TIP3    H2 5359   1.677   7.349   1.147
 1828TIP3   OH2 5360   1.642   6.456   1.380
 1828TIP3    H1 5361   1.564   6.466   1.324
 1828TIP3    H2 5362   1.660   6.360   1.370
 1829TIP3   OH2 5363   0.633   5.683   1.190
 1829TIP3    H1 5364   0.549   5.661   1.147
 1829TIP3    H2 5365   0.619   5.776   1.214
 1830TIP3   OH2 5366   1.174   5.813   1.389
 1830TIP3    H1 5367   1.241   5.773   1.448
 1830TIP3    H2 5368   1.090   5.780   1.426
 1831TIP3   OH2 5369   1.417   6.233   1.305
 1831TIP3    H1 5370   1.365   6.229   1.389
 1831TIP3    H2 5371   1.388   6.317   1.267
 1832TIP3   OH2 5372   1.122   6.456   1.544
 1832TIP3    H1 5373   1.102   6.380   1.603
 1832TIP3    H2 5374   1.217   6.469   1.562
 1833TIP3   OH2 5375   1.143   6.458   1.127
 1833TIP3    H1 5376   1.136   6.385   1.061
 1833TIP3    H2 5377   1.091   6.417   1.199
 1834TIP3   OH2 5378   1.271   5.991   0.995
 1834TIP3    H1 5379   1.233   5.996   1.085
 1834TIP3    H2 5380   1.209   5.925   0.956
 1835TIP3   OH2 5381   0.878   6.051   1.185
 1835TIP3    H1 5382   0.821   6.130   1.194
 1835TIP3    H2 5383   0.967   6.089   1.181
 1836TIP3   OH2 5384   1.483   6.781   0.870
 1836TIP3    H1 5385   1.509   6.773   0.777
 1836TIP3    H2 5386   1.423   6.706   0.879
 1837TIP3   OH2 5387   0.881   6.582   1.573
 1837TIP3    H1 5388   0.832   6.516   1.524
 1837TIP3    H2 5389   0.974   6.555   1.555
 1838TIP3   OH2 5390   1.768   7.027   1.147
 1838TIP3    H1 5391   1.670   7.027   1.141
 1838TIP3    H2 5392   1.790   7.000   1.055
 1839TIP3   OH2 5393   0.404   5.947   1.598
 1839TIP3    H1 5394   0.309   5.929   1.603
 1839TIP3    H2 5395   0.437   5.884   1.665
 1840TIP3   OH2 5396   1.189   6.053   1.256
 1840TIP3    H1 5397   1.279   6.077   1.283
 1840TIP3    H2 5398   1.176   5.967   1.302
 1841TIP3   OH2 5399   1.043   6.300   1.325
 1841TIP3    H1 5400   1.075   6.344   1.406
 1841TIP3    H2 5401   1.093   6.217   1.324
 1842TIP3   OH2 5402   1.683   6.190   1.300
 1842TIP3    H1 5403   1.585   6.188   1.308
 1842TIP3    H2 5404   1.692   6.145   1.215
 1843TIP3   OH2 5405   1.313   6.315   0.761
 1843TIP3    H1 5406   1.338   6.347   0.671
 1843TIP3    H2 5407   1.403   6.292   0.793
 1844TIP3   OH2 5408   1.219   7.245   1.397
 1844TIP3    H1 5409   1.185   7.180   1.462
 1844TIP3    H2 5410   1.285   7.295   1.448
 1845TIP3   OH2 5411   0.811   6.857   1.596
 1845TIP3    H1 5412   0.763   6.859   1.513
 1845TIP3    H2 5413   0.853   6.768   1.593
 1846TIP3   OH2 5414   1.302   6.872   1.203
 1846TIP3    H1 5415   1.382   6.921   1.175
 1846TIP3    H2 5416   1.253   6.938   1.254
 1847TIP3   OH2 5417   0.379   6.588   1.816
 1847TIP3    H1 5418   0.352   6.498   1.792
 1847TIP3    H2 5419   0.388   6.585   1.913
 1848TIP3   OH2 5420   1.172   6.789   1.602
 1848TIP3    H1 5421   1.256   6.774   1.558
 1848TIP3    H2 5422   1.172   6.721   1.672
 1849TIP3   OH2 5423   0.775   6.183   1.578
 1849TIP3    H1 5424   0.785   6.088   1.551
 1849TIP3    H2 5425   0.756   6.219   1.490
 1850TIP3   OH2 5426   0.789   5.959   1.423
 1850TIP3    H1 5427   0.826   5.985   1.335
 1850TIP3    H2 5428   0.696   5.938   1.398
 1851TIP3   OH2 5429   1.394   6.471   1.652
 1851TIP3    H1 5430   1.437   6.385   1.653
 1851TIP3    H2 5431   1.463   6.528   1.615
 1852TIP3   OH2 5432   1.435   6.720   1.387
 1852TIP3    H1 5433   1.377   6.769   1.326
 1852TIP3    H2 5434   1.523   6.739   1.347
 1853TIP3   OH2 5435   0.669   6.292   1.814
 1853TIP3    H1 5436   0.589   6.238   1.832
 1853TIP3    H2 5437   0.695   6.258   1.726
 1854TIP3   OH2 5438   0.920   5.726   1.468
 1854TIP3    H1 5439   0.869   5.807   1.448
 1854TIP3    H2 5440   0.855   5.656   1.445
 1855TIP3   OH2 5441   1.038   6.236   1.679
 1855TIP3    H1 5442   1.028   6.225   1.776
 1855TIP3    H2 5443   0.948   6.211   1.650
 1856TIP3   OH2 5444   1.283   6.194   1.537
 1856TIP3    H1 5445   1.205   6.184   1.595
 1856TIP3    H2 5446   1.355   6.157   1.591
 1857TIP3   OH2 5447   1.510   6.126   1.686
 1857TIP3    H1 5448   1.521   6.030   1.703
 1857TIP3    H2 5449   1.506   6.163   1.776
 1858TIP3   OH2 5450   0.502   6.079   1.878
 1858TIP3    H1 5451   0.506   5.992   1.834
 1858TIP3    H2 5452   0.537   6.057   1.967
 1859TIP3   OH2 5453   1.000   5.737   1.727
 1859TIP3    H1 5454   1.072   5.672   1.718
 1859TIP3    H2 5455   0.965   5.734   1.635
 1860TIP3   OH2 5456   1.073   5.955   1.880
 1860TIP3    H1 5457   1.052   5.884   1.815
 1860TIP3    H2 5458   0.996   6.015   1.872
 1861TIP3   OH2 5459   1.627   7.127   1.446
 1861TIP3    H1 5460   1.555   7.134   1.513
 1861TIP3    H2 5461   1.669   7.214   1.452
 1862TIP3   OH2 5462   1.674   6.789   1.274
 1862TIP3    H1 5463   1.746   6.721   1.269
 1862TIP3    H2 5464   1.709   6.859   1.217
 1863TIP3   OH2 5465   1.858   6.596   1.300
 1863TIP3    H1 5466   1.784   6.542   1.336
 1863TIP3    H2 5467   1.932   6.532   1.312
 1864TIP3   OH2 5468   1.567   6.241   0.818
 1864TIP3    H1 5469   1.649   6.272   0.772
 1864TIP3    H2 5470   1.583   6.281   0.906
 1865TIP3   OH2 5471   1.615   6.396   1.042
 1865TIP3    H1 5472   1.538   6.431   1.090
 1865TIP3    H2 5473   1.647   6.476   0.994
 1866TIP3   OH2 5474   0.242   6.093   1.800
 1866TIP3    H1 5475   0.335   6.109   1.828
 1866TIP3    H2 5476   0.203   6.054   1.880
 1867TIP3   OH2 5477   2.063   5.988   1.599
 1867TIP3    H1 5478   2.122   5.923   1.556
 1867TIP3    H2 5479   2.036   6.044   1.523
 1868TIP3   OH2 5480   1.505   5.805   0.343
 1868TIP3    H1 5481   1.545   5.814   0.431
 1868TIP3    H2 5482   1.431   5.746   0.361
 1869TIP3   OH2 5483   1.935   6.129   1.405
 1869TIP3    H1 5484   1.847   6.168   1.420
 1869TIP3    H2 5485   1.911   6.056   1.345
 1870TIP3   OH2 5486   0.220   5.726   1.575
 1870TIP3    H1 5487   0.185   5.660   1.637
 1870TIP3    H2 5488   0.157   5.715   1.502
 1871TIP3   OH2 5489   1.834   5.892   1.283
 1871TIP3    H1 5490   1.743   5.883   1.249
 1871TIP3    H2 5491   1.866   5.799   1.271
 1872TIP3   OH2 5492   1.075   5.814   0.923
 1872TIP3    H1 5493   0.999   5.770   0.964
 1872TIP3    H2 5494   1.101   5.750   0.856
 1873TIP3   OH2 5495   1.569   5.700   0.816
 1873TIP3    H1 5496   1.601   5.747   0.736
 1873TIP3    H2 5497   1.472   5.703   0.802
 1874TIP3   OH2 5498   1.658   5.793   0.573
 1874TIP3    H1 5499   1.730   5.741   0.532
 1874TIP3    H2 5500   1.691   5.885   0.556
 1875TIP3   OH2 5501   1.296   5.682   0.773
 1875TIP3    H1 5502   1.292   5.632   0.691
 1875TIP3    H2 5503   1.270   5.613   0.839
 1876TIP3   OH2 5504   0.493   5.790   1.809
 1876TIP3    H1 5505   0.461   5.722   1.870
 1876TIP3    H2 5506   0.588   5.794   1.834
 1877TIP3   OH2 5507   0.746   5.787   1.924
 1877TIP3    H1 5508   0.827   5.795   1.871
 1877TIP3    H2 5509   0.760   5.700   1.961
 1878TIP3   OH2 5510   1.571   5.855   1.716
 1878TIP3    H1 5511   1.591   5.824   1.806
 1878TIP3    H2 5512   1.659   5.851   1.673
 1879TIP3   OH2 5513   1.512   7.410   1.203
 1879TIP3    H1 5514   1.432   7.360   1.183
 1879TIP3    H2 5515   1.479   7.500   1.208
 1880TIP3   OH2 5516   2.761   6.782   0.013
 1880TIP3    H1 5517   2.740   6.877  -0.002
 1880TIP3    H2 5518   2.691   6.739  -0.038
 1881TIP3   OH2 5519   2.773   6.783   0.356
 1881TIP3    H1 5520   2.802   6.745   0.441
 1881TIP3    H2 5521   2.732   6.707   0.312
 1882TIP3   OH2 5522   2.090   6.673   0.721
 1882TIP3    H1 5523   2.118   6.604   0.784
 1882TIP3    H2 5524   2.172   6.723   0.708
 1883TIP3   OH2 5525   3.035   7.060   0.035
 1883TIP3    H1 5526   3.006   7.002   0.106
 1883TIP3    H2 5527   3.049   7.144   0.081
 1884TIP3   OH2 5528   2.054   7.067   0.496
 1884TIP3    H1 5529   2.080   6.973   0.501
 1884TIP3    H2 5530   2.134   7.104   0.454
 1885TIP3   OH2 5531   1.838   6.609   0.402
 1885TIP3    H1 5532   1.878   6.524   0.429
 1885TIP3    H2 5533   1.814   6.591   0.309
 1886TIP3   OH2 5534   2.697   7.540   0.045
 1886TIP3    H1 5535   2.726   7.449   0.031
 1886TIP3    H2 5536   2.663   7.534   0.135
 1887TIP3   OH2 5537   2.577   7.005   0.406
 1887TIP3    H1 5538   2.610   6.929   0.356
 1887TIP3    H2 5539   2.662   7.047   0.428
 1888TIP3   OH2 5540   3.583   6.326   0.402
 1888TIP3    H1 5541   3.613   6.407   0.449
 1888TIP3    H2 5542   3.610   6.347   0.311
 1889TIP3   OH2 5543   2.980   6.504   0.440
 1889TIP3    H1 5544   3.024   6.419   0.458
 1889TIP3    H2 5545   2.950   6.490   0.349
 1890TIP3   OH2 5546   2.322   6.166   0.402
 1890TIP3    H1 5547   2.302   6.239   0.340
 1890TIP3    H2 5548   2.276   6.092   0.356
 1891TIP3   OH2 5549   3.013   6.254   0.030
 1891TIP3    H1 5550   3.089   6.237   0.089
 1891TIP3    H2 5551   3.061   6.289  -0.049
 1892TIP3   OH2 5552   1.955   6.366   0.504
 1892TIP3    H1 5553   2.036   6.348   0.554
 1892TIP3    H2 5554   1.971   6.312   0.424
 1893TIP3   OH2 5555   2.401   6.563   0.305
 1893TIP3    H1 5556   2.495   6.537   0.315
 1893TIP3    H2 5557   2.362   6.482   0.266
 1894TIP3   OH2 5558   3.657   6.532   0.571
 1894TIP3    H1 5559   3.574   6.580   0.553
 1894TIP3    H2 5560   3.674   6.560   0.662
 1895TIP3   OH2 5561   2.318   6.149   0.836
 1895TIP3    H1 5562   2.259   6.186   0.767
 1895TIP3    H2 5563   2.266   6.168   0.916
 1896TIP3   OH2 5564   2.678   7.020  -0.100
 1896TIP3    H1 5565   2.680   6.967  -0.180
 1896TIP3    H2 5566   2.605   7.083  -0.114
 1897TIP3   OH2 5567   2.427   6.925   0.633
 1897TIP3    H1 5568   2.363   6.990   0.670
 1897TIP3    H2 5569   2.465   6.975   0.558
 1898TIP3   OH2 5570   3.232   6.258   0.195
 1898TIP3    H1 5571   3.215   6.211   0.278
 1898TIP3    H2 5572   3.280   6.337   0.226
 1899TIP3   OH2 5573   2.189   6.264   0.620
 1899TIP3    H1 5574   2.251   6.336   0.643
 1899TIP3    H2 5575   2.237   6.223   0.545
 1900TIP3   OH2 5576   2.255   7.116   0.736
 1900TIP3    H1 5577   2.224   7.190   0.681
 1900TIP3    H2 5578   2.175   7.101   0.789
 1901TIP3   OH2 5579   3.089   7.326   0.202
 1901TIP3    H1 5580   3.002   7.309   0.243
 1901TIP3    H2 5581   3.076   7.417   0.171
 1902TIP3   OH2 5582   3.377   6.225   0.567
 1902TIP3    H1 5583   3.289   6.254   0.537
 1902TIP3    H2 5584   3.436   6.257   0.496
 1903TIP3   OH2 5585   2.677   5.869   0.550
 1903TIP3    H1 5586   2.662   5.774   0.565
 1903TIP3    H2 5587   2.599   5.907   0.595
 1904TIP3   OH2 5588   3.313   7.236   0.549
 1904TIP3    H1 5589   3.302   7.159   0.490
 1904TIP3    H2 5590   3.297   7.311   0.488
 1905TIP3   OH2 5591   2.612   6.633  -0.187
 1905TIP3    H1 5592   2.518   6.653  -0.182
 1905TIP3    H2 5593   2.626   6.621  -0.282
 1906TIP3   OH2 5594   3.507   6.872   0.391
 1906TIP3    H1 5595   3.424   6.925   0.398
 1906TIP3    H2 5596   3.536   6.897   0.301
 1907TIP3   OH2 5597   2.920   6.655  -0.167
 1907TIP3    H1 5598   2.887   6.696  -0.084
 1907TIP3    H2 5599   3.017   6.658  -0.154
 1908TIP3   OH2 5600   3.188   6.753   0.687
 1908TIP3    H1 5601   3.185   6.837   0.737
 1908TIP3    H2 5602   3.101   6.756   0.642
 1909TIP3   OH2 5603   2.192   6.709   0.202
 1909TIP3    H1 5604   2.158   6.652   0.132
 1909TIP3    H2 5605   2.274   6.660   0.226
 1910TIP3   OH2 5606   2.312   7.089   0.378
 1910TIP3    H1 5607   2.299   7.081   0.283
 1910TIP3    H2 5608   2.407   7.068   0.386
 1911TIP3   OH2 5609   2.336   6.677   0.554
 1911TIP3    H1 5610   2.360   6.657   0.461
 1911TIP3    H2 5611   2.370   6.768   0.566
 1912TIP3   OH2 5612   2.847   7.319   0.320
 1912TIP3    H1 5613   2.836   7.399   0.375
 1912TIP3    H2 5614   2.834   7.246   0.385
 1913TIP3   OH2 5615   2.460   7.242   0.871
 1913TIP3    H1 5616   2.399   7.303   0.918
 1913TIP3    H2 5617   2.395   7.187   0.823
 1914TIP3   OH2 5618   2.215   6.795   0.976
 1914TIP3    H1 5619   2.218   6.883   1.018
 1914TIP3    H2 5620   2.119   6.777   0.978
 1915TIP3   OH2 5621   2.253   7.410   0.959
 1915TIP3    H1 5622   2.218   7.405   0.868
 1915TIP3    H2 5623   2.174   7.386   1.012
 1916TIP3   OH2 5624   1.829   6.927   0.897
 1916TIP3    H1 5625   1.815   6.890   0.808
 1916TIP3    H2 5626   1.871   6.850   0.941
 1917TIP3   OH2 5627   3.551   7.581   0.594
 1917TIP3    H1 5628   3.550   7.485   0.607
 1917TIP3    H2 5629   3.468   7.607   0.639
 1918TIP3   OH2 5630   2.657   7.370   0.729
 1918TIP3    H1 5631   2.658   7.461   0.764
 1918TIP3    H2 5632   2.587   7.329   0.784
 1919TIP3   OH2 5633   3.440   6.713   0.868
 1919TIP3    H1 5634   3.360   6.726   0.816
 1919TIP3    H2 5635   3.455   6.617   0.858
 1920TIP3   OH2 5636   2.035   7.118   0.897
 1920TIP3    H1 5637   2.086   7.100   0.979
 1920TIP3    H2 5638   1.960   7.055   0.904
 1921TIP3   OH2 5639   2.437   5.944   0.677
 1921TIP3    H1 5640   2.348   5.913   0.651
 1921TIP3    H2 5641   2.413   6.027   0.721
 1922TIP3   OH2 5642   2.970   6.060   0.872
 1922TIP3    H1 5643   3.038   6.032   0.936
 1922TIP3    H2 5644   2.886   6.040   0.918
 1923TIP3   OH2 5645   3.210   6.489   0.790
 1923TIP3    H1 5646   3.161   6.485   0.875
 1923TIP3    H2 5647   3.185   6.576   0.754
 1924TIP3   OH2 5648   2.611   5.986  -0.360
 1924TIP3    H1 5649   2.578   6.011  -0.272
 1924TIP3    H2 5650   2.555   5.910  -0.379
 1925TIP3   OH2 5651   2.370   6.455   0.700
 1925TIP3    H1 5652   2.319   6.479   0.779
 1925TIP3    H2 5653   2.359   6.536   0.644
 1926TIP3   OH2 5654   2.251   6.345   0.213
 1926TIP3    H1 5655   2.156   6.327   0.223
 1926TIP3    H2 5656   2.267   6.310   0.123
 1927TIP3   OH2 5657   2.743   6.428  -0.062
 1927TIP3    H1 5658   2.690   6.503  -0.096
 1927TIP3    H2 5659   2.815   6.427  -0.127
 1928TIP3   OH2 5660   2.917   6.712   1.025
 1928TIP3    H1 5661   2.895   6.638   1.086
 1928TIP3    H2 5662   3.012   6.725   1.046
 1929TIP3   OH2 5663   2.901   6.460   0.179
 1929TIP3    H1 5664   2.841   6.490   0.108
 1929TIP3    H2 5665   2.934   6.378   0.135
 1930TIP3   OH2 5666   2.189   6.488   0.909
 1930TIP3    H1 5667   2.220   6.549   0.977
 1930TIP3    H2 5668   2.177   6.405   0.959
 1931TIP3   OH2 5669   2.258   5.992  -0.370
 1931TIP3    H1 5670   2.261   5.963  -0.278
 1931TIP3    H2 5671   2.165   5.972  -0.388
 1932TIP3   OH2 5672   1.777   6.020   0.483
 1932TIP3    H1 5673   1.857   6.044   0.535
 1932TIP3    H2 5674   1.813   5.979   0.402
 1933TIP3   OH2 5675   2.913   6.707   0.603
 1933TIP3    H1 5676   2.943   6.635   0.543
 1933TIP3    H2 5677   2.882   6.655   0.679
 1934TIP3   OH2 5678   2.579   6.166   0.273
 1934TIP3    H1 5679   2.496   6.166   0.324
 1934TIP3    H2 5680   2.646   6.169   0.343
 1935TIP3   OH2 5681   2.010   6.212   0.282
 1935TIP3    H1 5682   1.925   6.200   0.239
 1935TIP3    H2 5683   2.056   6.128   0.263
 1936TIP3   OH2 5684   2.289   6.209  -0.023
 1936TIP3    H1 5685   2.385   6.225  -0.030
 1936TIP3    H2 5686   2.255   6.258  -0.101
 1937TIP3   OH2 5687   3.072   6.243   0.473
 1937TIP3    H1 5688   3.037   6.255   0.564
 1937TIP3    H2 5689   3.005   6.182   0.436
 1938TIP3   OH2 5690   3.240   7.933   0.693
 1938TIP3    H1 5691   3.237   7.959   0.599
 1938TIP3    H2 5692   3.320   7.980   0.723
 1939TIP3   OH2 5693   2.197   7.043   1.115
 1939TIP3    H1 5694   2.278   7.073   1.161
 1939TIP3    H2 5695   2.134   7.043   1.189
 1940TIP3   OH2 5696   2.665   6.493   0.369
 1940TIP3    H1 5697   2.737   6.455   0.317
 1940TIP3    H2 5698   2.677   6.452   0.456
 1941TIP3   OH2 5699   2.183   5.988   0.246
 1941TIP3    H1 5700   2.153   5.905   0.289
 1941TIP3    H2 5701   2.223   5.954   0.164
 1942TIP3   OH2 5702   2.640   6.389   0.662
 1942TIP3    H1 5703   2.550   6.426   0.673
 1942TIP3    H2 5704   2.697   6.452   0.710
 1943TIP3   OH2 5705   3.273   7.017   0.387
 1943TIP3    H1 5706   3.299   7.063   0.304
 1943TIP3    H2 5707   3.187   6.977   0.363
 1944TIP3   OH2 5708   2.778   7.103   0.750
 1944TIP3    H1 5709   2.797   7.078   0.841
 1944TIP3    H2 5710   2.737   7.190   0.759
 1945TIP3   OH2 5711   2.093   6.805   0.441
 1945TIP3    H1 5712   2.125   6.772   0.354
 1945TIP3    H2 5713   2.110   6.728   0.497
 1946TIP3   OH2 5714   1.945   6.732   1.046
 1946TIP3    H1 5715   1.970   6.714   1.139
 1946TIP3    H2 5716   1.883   6.659   1.027
 1947TIP3   OH2 5717   2.673   6.839   1.064
 1947TIP3    H1 5718   2.615   6.783   1.010
 1947TIP3    H2 5719   2.762   6.806   1.035
 1948TIP3   OH2 5720   2.936   7.364   0.645
 1948TIP3    H1 5721   2.840   7.359   0.658
 1948TIP3    H2 5722   2.964   7.414   0.724
 1949TIP3   OH2 5723   3.564   7.290   0.637
 1949TIP3    H1 5724   3.466   7.285   0.630
 1949TIP3    H2 5725   3.589   7.260   0.547
 1950TIP3   OH2 5726   3.035   6.889   0.308
 1950TIP3    H1 5727   2.942   6.862   0.319
 1950TIP3    H2 5728   3.072   6.807   0.270
 1951TIP3   OH2 5729   2.332   6.881   0.033
 1951TIP3    H1 5730   2.288   6.966   0.024
 1951TIP3    H2 5731   2.279   6.834   0.100
 1952TIP3   OH2 5732   2.452   7.455   0.551
 1952TIP3    H1 5733   2.495   7.523   0.495
 1952TIP3    H2 5734   2.528   7.419   0.599
 1953TIP3   OH2 5735   2.831   7.089   0.481
 1953TIP3    H1 5736   2.821   7.086   0.579
 1953TIP3    H2 5737   2.907   7.032   0.467
 1954TIP3   OH2 5738   3.076   7.620   0.534
 1954TIP3    H1 5739   2.998   7.562   0.526
 1954TIP3    H2 5740   3.058   7.687   0.465
 1955TIP3   OH2 5741   2.160   6.233   1.052
 1955TIP3    H1 5742   2.063   6.235   1.063
 1955TIP3    H2 5743   2.186   6.170   1.121
 1956TIP3   OH2 5744   1.866   7.291   0.687
 1956TIP3    H1 5745   1.933   7.224   0.706
 1956TIP3    H2 5746   1.894   7.363   0.746
 1957TIP3   OH2 5747   2.996   6.297   0.732
 1957TIP3    H1 5748   3.077   6.334   0.771
 1957TIP3    H2 5749   2.982   6.216   0.786
 1958TIP3   OH2 5750   2.854   6.068  -0.108
 1958TIP3    H1 5751   2.852   6.095  -0.201
 1958TIP3    H2 5752   2.913   6.136  -0.069
 1959TIP3   OH2 5753   2.563   6.224  -0.000
 1959TIP3    H1 5754   2.631   6.292  -0.023
 1959TIP3    H2 5755   2.573   6.219   0.097
 1960TIP3   OH2 5756   2.835   6.546   0.808
 1960TIP3    H1 5757   2.856   6.600   0.887
 1960TIP3    H2 5758   2.891   6.467   0.820
 1961TIP3   OH2 5759   2.714   5.956   0.101
 1961TIP3    H1 5760   2.704   6.034   0.158
 1961TIP3    H2 5761   2.769   5.995   0.028
 1962TIP3   OH2 5762   2.233   5.948  -0.084
 1962TIP3    H1 5763   2.230   6.043  -0.059
 1962TIP3    H2 5764   2.329   5.934  -0.081
 1963TIP3   OH2 5765   3.477   6.446   0.788
 1963TIP3    H1 5766   3.379   6.444   0.795
 1963TIP3    H2 5767   3.488   6.406   0.700
 1964TIP3   OH2 5768   3.118   6.644   0.208
 1964TIP3    H1 5769   3.045   6.580   0.207
 1964TIP3    H2 5770   3.191   6.592   0.247
 1965TIP3   OH2 5771   3.105   7.602   0.149
 1965TIP3    H1 5772   3.064   7.581   0.062
 1965TIP3    H2 5773   3.195   7.630   0.121
 1966TIP3   OH2 5774   2.172   5.864   0.654
 1966TIP3    H1 5775   2.141   5.832   0.566
 1966TIP3    H2 5776   2.162   5.785   0.710
 1967TIP3   OH2 5777   1.868   7.609   1.112
 1967TIP3    H1 5778   1.952   7.603   1.160
 1967TIP3    H2 5779   1.842   7.515   1.104
 1968TIP3   OH2 5780   2.349   7.592   1.149
 1968TIP3    H1 5781   2.443   7.571   1.157
 1968TIP3    H2 5782   2.323   7.532   1.075
 1969TIP3   OH2 5783   2.987   7.496   0.883
 1969TIP3    H1 5784   2.979   7.425   0.951
 1969TIP3    H2 5785   3.066   7.545   0.913
 1970TIP3   OH2 5786   1.997   7.030   1.307
 1970TIP3    H1 5787   2.016   6.934   1.309
 1970TIP3    H2 5788   1.911   7.031   1.260
 1971TIP3   OH2 5789   2.604   7.114   1.079
 1971TIP3    H1 5790   2.564   7.130   0.991
 1971TIP3    H2 5791   2.636   7.022   1.071
 1972TIP3   OH2 5792   3.098   7.122   0.686
 1972TIP3    H1 5793   3.173   7.168   0.641
 1972TIP3    H2 5794   3.026   7.186   0.671
 1973TIP3   OH2 5795   2.115   6.762   1.287
 1973TIP3    H1 5796   2.192   6.710   1.263
 1973TIP3    H2 5797   2.142   6.796   1.375
 1974TIP3   OH2 5798   2.451   6.649   0.949
 1974TIP3    H1 5799   2.374   6.710   0.951
 1974TIP3    H2 5800   2.501   6.683   0.871
 1975TIP3   OH2 5801   2.969   7.052   1.083
 1975TIP3    H1 5802   3.049   7.029   1.034
 1975TIP3    H2 5803   2.967   6.984   1.153
 1976TIP3   OH2 5804   2.574   6.437   1.076
 1976TIP3    H1 5805   2.575   6.357   1.019
 1976TIP3    H2 5806   2.532   6.503   1.017
 1977TIP3   OH2 5807   2.577   6.223   0.883
 1977TIP3    H1 5808   2.605   6.265   0.799
 1977TIP3    H2 5809   2.484   6.201   0.864
 1978TIP3   OH2 5810   2.607   6.762   0.758
 1978TIP3    H1 5811   2.687   6.766   0.705
 1978TIP3    H2 5812   2.549   6.827   0.713
 1979TIP3   OH2 5813   3.188   6.727   1.138
 1979TIP3    H1 5814   3.237   6.644   1.146
 1979TIP3    H2 5815   3.256   6.786   1.102
 1980TIP3   OH2 5816   3.229   6.979   0.873
 1980TIP3    H1 5817   3.171   7.032   0.813
 1980TIP3    H2 5818   3.316   6.999   0.833
 1981TIP3   OH2 5819   2.452   6.551   1.305
 1981TIP3    H1 5820   2.384   6.481   1.318
 1981TIP3    H2 5821   2.487   6.527   1.218
 1982TIP3   OH2 5822   2.710   5.988   0.949
 1982TIP3    H1 5823   2.661   6.070   0.926
 1982TIP3    H2 5824   2.640   5.920   0.936
 1983TIP3   OH2 5825   2.836   6.493   1.165
 1983TIP3    H1 5826   2.825   6.481   1.261
 1983TIP3    H2 5827   2.746   6.468   1.135
 1984TIP3   OH2 5828   3.075   6.442   1.020
 1984TIP3    H1 5829   3.000   6.443   1.081
 1984TIP3    H2 5830   3.149   6.411   1.077
 1985TIP3   OH2 5831   3.303   6.381   1.171
 1985TIP3    H1 5832   3.316   6.286   1.190
 1985TIP3    H2 5833   3.300   6.421   1.261
 1986TIP3   OH2 5834   2.292   6.331   1.357
 1986TIP3    H1 5835   2.298   6.241   1.321
 1986TIP3    H2 5836   2.328   6.317   1.447
 1987TIP3   OH2 5837   2.804   5.997   1.206
 1987TIP3    H1 5838   2.872   5.927   1.200
 1987TIP3    H2 5839   2.764   5.991   1.117
 1988TIP3   OH2 5840   2.869   6.212   1.366
 1988TIP3    H1 5841   2.848   6.141   1.301
 1988TIP3    H2 5842   2.792   6.271   1.358
 1989TIP3   OH2 5843   3.356   7.697   0.087
 1989TIP3    H1 5844   3.379   7.710   0.181
 1989TIP3    H2 5845   3.438   7.724   0.044
 1990TIP3   OH2 5846   3.376   7.705   0.364
 1990TIP3    H1 5847   3.336   7.616   0.366
 1990TIP3    H2 5848   3.455   7.689   0.418
 1991TIP3   OH2 5849   3.423   7.384   0.936
 1991TIP3    H1 5850   3.351   7.392   1.001
 1991TIP3    H2 5851   3.465   7.472   0.941
 1992TIP3   OH2 5852   3.419   7.144   0.195
 1992TIP3    H1 5853   3.472   7.082   0.141
 1992TIP3    H2 5854   3.437   7.230   0.151
 1993TIP3   OH2 5855   3.255   7.455   0.391
 1993TIP3    H1 5856   3.184   7.499   0.442
 1993TIP3    H2 5857   3.204   7.408   0.321
 1994TIP3   OH2 5858   3.181   6.612  -0.053
 1994TIP3    H1 5859   3.192   6.516  -0.055
 1994TIP3    H2 5860   3.167   6.632   0.041
 1995TIP3   OH2 5861   1.831   6.732   0.675
 1995TIP3    H1 5862   1.813   6.696   0.586
 1995TIP3    H2 5863   1.927   6.715   0.682
 1996TIP3   OH2 5864   3.471   7.045   0.764
 1996TIP3    H1 5865   3.543   6.979   0.755
 1996TIP3    H2 5866   3.499   7.115   0.703
 1997TIP3   OH2 5867   3.655   6.851   0.782
 1997TIP3    H1 5868   3.582   6.800   0.821
 1997TIP3    H2 5869   3.729   6.788   0.795
 1998TIP3   OH2 5870   3.177   6.336  -0.166
 1998TIP3    H1 5871   3.220   6.248  -0.173
 1998TIP3    H2 5872   3.236   6.390  -0.221
 1999TIP3   OH2 5873   3.341   6.509   0.298
 1999TIP3    H1 5874   3.425   6.537   0.256
 1999TIP3    H2 5875   3.354   6.546   0.387
 2000TIP3   OH2 5876   3.407   6.654   0.529
 2000TIP3    H1 5877   3.329   6.688   0.578
 2000TIP3    H2 5878   3.439   6.735   0.484
 2001TIP3   OH2 5879   2.025   6.384   1.333
 2001TIP3    H1 5880   2.122   6.376   1.330
 2001TIP3    H2 5881   2.001   6.297   1.371
 2002TIP3   OH2 5882   3.859   6.244   1.086
 2002TIP3    H1 5883   3.918   6.179   1.043
 2002TIP3    H2 5884   3.832   6.300   1.010
 2003TIP3   OH2 5885   3.288   6.087  -0.158
 2003TIP3    H1 5886   3.337   6.074  -0.075
 2003TIP3    H2 5887   3.226   6.011  -0.152
 2004TIP3   OH2 5888   1.987   6.070   0.657
 2004TIP3    H1 5889   2.051   5.997   0.668
 2004TIP3    H2 5890   2.047   6.147   0.652
 2005TIP3   OH2 5891   1.804   6.349   0.736
 2005TIP3    H1 5892   1.847   6.341   0.649
 2005TIP3    H2 5893   1.821   6.442   0.756
 2006TIP3   OH2 5894   3.732   6.386   0.892
 2006TIP3    H1 5895   3.645   6.426   0.913
 2006TIP3    H2 5896   3.703   6.314   0.833
 2007TIP3   OH2 5897   1.762   5.881   0.234
 2007TIP3    H1 5898   1.671   5.856   0.257
 2007TIP3    H2 5899   1.759   5.888   0.138
 2008TIP3   OH2 5900   1.996   5.930   1.051
 2008TIP3    H1 5901   1.942   5.924   1.131
 2008TIP3    H2 5902   1.930   5.968   0.989
 2009TIP3   OH2 5903   2.037   7.358   1.127
 2009TIP3    H1 5904   1.945   7.331   1.109
 2009TIP3    H2 5905   2.045   7.337   1.220
 2010TIP3   OH2 5906   2.205   7.393   0.679
 2010TIP3    H1 5907   2.157   7.455   0.623
 2010TIP3    H2 5908   2.296   7.407   0.647
 2011TIP3   OH2 5909   2.656   7.636   0.812
 2011TIP3    H1 5910   2.698   7.635   0.900
 2011TIP3    H2 5911   2.724   7.684   0.760
 2012TIP3   OH2 5912   2.839   7.782   0.672
 2012TIP3    H1 5913   2.911   7.733   0.629
 2012TIP3    H2 5914   2.890   7.841   0.731
 2013TIP3   OH2 5915   3.630   6.149   0.769
 2013TIP3    H1 5916   3.539   6.143   0.735
 2013TIP3    H2 5917   3.660   6.056   0.757
 2014TIP3   OH2 5918   2.555   7.650   0.361
 2014TIP3    H1 5919   2.486   7.668   0.296
 2014TIP3    H2 5920   2.569   7.742   0.395
 2015TIP3   OH2 5921   2.822   7.591   0.402
 2015TIP3    H1 5922   2.727   7.610   0.388
 2015TIP3    H2 5923   2.864   7.671   0.366
 2016TIP3   OH2 5924   3.018   7.790   0.328
 2016TIP3    H1 5925   3.020   7.877   0.284
 2016TIP3    H2 5926   3.050   7.730   0.257
 2017TIP3   OH2 5927   2.296   7.463   0.334
 2017TIP3    H1 5928   2.337   7.399   0.273
 2017TIP3    H2 5929   2.345   7.440   0.416
 2018TIP3   OH2 5930   2.838   6.065   0.391
 2018TIP3    H1 5931   2.792   5.995   0.440
 2018TIP3    H2 5932   2.906   6.016   0.342
 2019TIP3   OH2 5933   3.354   5.941   0.299
 2019TIP3    H1 5934   3.391   5.992   0.223
 2019TIP3    H2 5935   3.259   5.960   0.292
 2020TIP3   OH2 5936   3.446   6.038   0.063
 2020TIP3    H1 5937   3.519   5.987   0.021
 2020TIP3    H2 5938   3.482   6.129   0.056
 2021TIP3   OH2 5939   2.084   5.772   0.406
 2021TIP3    H1 5940   1.992   5.738   0.405
 2021TIP3    H2 5941   2.134   5.688   0.400
 2022TIP3   OH2 5942   1.888   5.618   0.079
 2022TIP3    H1 5943   1.888   5.683   0.004
 2022TIP3    H2 5944   1.833   5.667   0.142
 2023TIP3   OH2 5945   2.529   5.802   0.285
 2023TIP3    H1 5946   2.585   5.854   0.225
 2023TIP3    H2 5947   2.546   5.844   0.370
 2024TIP3   OH2 5948   3.076   5.951   0.267
 2024TIP3    H1 5949   3.069   5.921   0.176
 2024TIP3    H2 5950   3.059   5.868   0.318
 2025TIP3   OH2 5951   3.125   5.873  -0.120
 2025TIP3    H1 5952   3.066   5.889  -0.197
 2025TIP3    H2 5953   3.092   5.787  -0.087
 2026TIP3   OH2 5954   2.085   5.792  -0.282
 2026TIP3    H1 5955   2.043   5.710  -0.255
 2026TIP3    H2 5956   2.098   5.837  -0.196
 2027TIP3   OH2 5957   2.506   5.971  -0.087
 2027TIP3    H1 5958   2.570   5.930  -0.026
 2027TIP3    H2 5959   2.523   6.065  -0.065
 2028TIP3   OH2 5960   2.291   6.054   1.297
 2028TIP3    H1 5961   2.258   5.982   1.353
 2028TIP3    H2 5962   2.385   6.054   1.322
 2029TIP3   OH2 5963   2.540   6.051   1.415
 2029TIP3    H1 5964   2.625   6.027   1.374
 2029TIP3    H2 5965   2.529   5.979   1.481
 2030TIP3   OH2 5966   3.365   6.111   1.202
 2030TIP3    H1 5967   3.385   6.079   1.293
 2030TIP3    H2 5968   3.453   6.107   1.160
 2031TIP3   OH2 5969   3.305   7.664   0.695
 2031TIP3    H1 5970   3.226   7.633   0.647
 2031TIP3    H2 5971   3.286   7.760   0.697
 2032TIP3   OH2 5972   3.871   6.929   0.207
 2032TIP3    H1 5973   3.908   6.873   0.277
 2032TIP3    H2 5974   3.932   7.004   0.206
 2033TIP3   OH2 5975   3.742   6.610  -0.013
 2033TIP3    H1 5976   3.828   6.605   0.032
 2033TIP3    H2 5977   3.761   6.561  -0.094
 2034TIP3   OH2 5978   4.110   6.401   0.322
 2034TIP3    H1 5979   4.054   6.441   0.254
 2034TIP3    H2 5980   4.059   6.422   0.403
 2035TIP3   OH2 5981   3.989   6.517   0.096
 2035TIP3    H1 5982   4.050   6.586   0.129
 2035TIP3    H2 5983   4.028   6.499   0.008
 2036TIP3   OH2 5984   4.054   7.311   0.256
 2036TIP3    H1 5985   4.034   7.375   0.185
 2036TIP3    H2 5986   3.975   7.322   0.311
 2037TIP3   OH2 5987   4.480   6.115   0.054
 2037TIP3    H1 5988   4.453   6.024   0.077
 2037TIP3    H2 5989   4.399   6.164   0.076
 2038TIP3   OH2 5990   4.233   7.456   0.419
 2038TIP3    H1 5991   4.204   7.548   0.408
 2038TIP3    H2 5992   4.180   7.410   0.351
 2039TIP3   OH2 5993   4.005   7.049   0.460
 2039TIP3    H1 5994   4.015   7.139   0.497
 2039TIP3    H2 5995   3.910   7.033   0.476
 2040TIP3   OH2 5996   4.037   7.681   0.441
 2040TIP3    H1 5997   4.001   7.645   0.359
 2040TIP3    H2 5998   3.968   7.654   0.506
 2041TIP3   OH2 5999   3.627   7.192   0.392
 2041TIP3    H1 6000   3.564   7.164   0.324
 2041TIP3    H2 6001   3.666   7.106   0.422
 2042TIP3   OH2 6002   3.528   7.375   0.084
 2042TIP3    H1 6003   3.617   7.362   0.048
 2042TIP3    H2 6004   3.547   7.451   0.142
 2043TIP3   OH2 6005   5.264   6.996   0.359
 2043TIP3    H1 6006   5.175   7.005   0.321
 2043TIP3    H2 6007   5.279   6.900   0.350
 2044TIP3   OH2 6008   3.824   7.385   0.389
 2044TIP3    H1 6009   3.873   7.369   0.472
 2044TIP3    H2 6010   3.751   7.319   0.395
 2045TIP3   OH2 6011   4.230   6.202   0.164
 2045TIP3    H1 6012   4.140   6.171   0.142
 2045TIP3    H2 6013   4.206   6.282   0.215
 2046TIP3   OH2 6014   4.767   6.315   0.356
 2046TIP3    H1 6015   4.835   6.291   0.421
 2046TIP3    H2 6016   4.683   6.295   0.403
 2047TIP3   OH2 6017   5.001   6.717   0.285
 2047TIP3    H1 6018   4.977   6.697   0.378
 2047TIP3    H2 6019   4.917   6.751   0.253
 2048TIP3   OH2 6020   4.173   6.696   0.219
 2048TIP3    H1 6021   4.119   6.727   0.294
 2048TIP3    H2 6022   4.136   6.748   0.144
 2049TIP3   OH2 6023   4.712   6.966   0.507
 2049TIP3    H1 6024   4.691   6.893   0.570
 2049TIP3    H2 6025   4.806   6.981   0.529
 2050TIP3   OH2 6026   3.973   6.747   0.403
 2050TIP3    H1 6027   4.007   6.811   0.467
 2050TIP3    H2 6028   3.966   6.665   0.456
 2051TIP3   OH2 6029   3.601   6.251   0.000
 2051TIP3    H1 6030   3.649   6.302   0.069
 2051TIP3    H2 6031   3.676   6.203  -0.039
 2052TIP3   OH2 6032   3.989   7.298   0.599
 2052TIP3    H1 6033   4.073   7.331   0.637
 2052TIP3    H2 6034   3.932   7.299   0.677
 2053TIP3   OH2 6035   4.447   6.619   0.178
 2053TIP3    H1 6036   4.362   6.667   0.183
 2053TIP3    H2 6037   4.510   6.688   0.206
 2054TIP3   OH2 6038   4.528   7.302   0.275
 2054TIP3    H1 6039   4.556   7.294   0.368
 2054TIP3    H2 6040   4.541   7.397   0.262
 2055TIP3   OH2 6041   3.742   6.984   0.532
 2055TIP3    H1 6042   3.767   6.971   0.626
 2055TIP3    H2 6043   3.676   6.914   0.519
 2056TIP3   OH2 6044   4.471   7.092   0.554
 2056TIP3    H1 6045   4.416   7.046   0.488
 2056TIP3    H2 6046   4.560   7.060   0.528
 2057TIP3   OH2 6047   3.956   6.489   0.540
 2057TIP3    H1 6048   3.860   6.491   0.554
 2057TIP3    H2 6049   3.986   6.429   0.610
 2058TIP3   OH2 6050   3.671   7.568   0.205
 2058TIP3    H1 6051   3.741   7.513   0.244
 2058TIP3    H2 6052   3.704   7.657   0.218
 2059TIP3   OH2 6053   4.777   6.563   0.236
 2059TIP3    H1 6054   4.873   6.571   0.239
 2059TIP3    H2 6055   4.766   6.472   0.273
 2060TIP3   OH2 6056   4.639   6.805   0.282
 2060TIP3    H1 6057   4.656   6.862   0.360
 2060TIP3    H2 6058   4.683   6.721   0.309
 2061TIP3   OH2 6059   3.967   6.122   0.145
 2061TIP3    H1 6060   3.933   6.088   0.058
 2061TIP3    H2 6061   3.958   6.043   0.202
 2062TIP3   OH2 6062   3.663   7.878   0.597
 2062TIP3    H1 6063   3.750   7.877   0.642
 2062TIP3    H2 6064   3.644   7.783   0.591
 2063TIP3   OH2 6065   4.146   7.848   0.637
 2063TIP3    H1 6066   4.241   7.829   0.640
 2063TIP3    H2 6067   4.119   7.795   0.559
 2064TIP3   OH2 6068   4.779   7.725   0.358
 2064TIP3    H1 6069   4.766   7.678   0.443
 2064TIP3    H2 6070   4.853   7.783   0.376
 2065TIP3   OH2 6071   3.793   7.287   0.795
 2065TIP3    H1 6072   3.811   7.191   0.797
 2065TIP3    H2 6073   3.706   7.289   0.749
 2066TIP3   OH2 6074   4.423   7.367   0.580
 2066TIP3    H1 6075   4.360   7.389   0.507
 2066TIP3    H2 6076   4.438   7.271   0.568
 2067TIP3   OH2 6077   3.912   7.018   0.773
 2067TIP3    H1 6078   3.990   6.966   0.752
 2067TIP3    H2 6079   3.936   7.053   0.861
 2068TIP3   OH2 6080   4.235   6.897   0.441
 2068TIP3    H1 6081   4.163   6.963   0.447
 2068TIP3    H2 6082   4.293   6.938   0.374
 2069TIP3   OH2 6083   4.763   7.295   0.564
 2069TIP3    H1 6084   4.856   7.285   0.538
 2069TIP3    H2 6085   4.758   7.234   0.639
 2070TIP3   OH2 6086   4.371   6.693   0.565
 2070TIP3    H1 6087   4.368   6.610   0.513
 2070TIP3    H2 6088   4.323   6.756   0.506
 2071TIP3   OH2 6089   4.366   6.469   0.392
 2071TIP3    H1 6090   4.400   6.513   0.311
 2071TIP3    H2 6091   4.273   6.449   0.365
 2072TIP3   OH2 6092   4.405   7.022   0.278
 2072TIP3    H1 6093   4.451   6.965   0.215
 2072TIP3    H2 6094   4.414   7.111   0.240
 2073TIP3   OH2 6095   4.983   6.982   0.628
 2073TIP3    H1 6096   5.031   6.899   0.637
 2073TIP3    H2 6097   5.050   7.040   0.587
 2074TIP3   OH2 6098   5.026   7.216   0.373
 2074TIP3    H1 6099   4.954   7.224   0.308
 2074TIP3    H2 6100   5.091   7.279   0.336
 2075TIP3   OH2 6101   4.247   6.808   0.792
 2075TIP3    H1 6102   4.180   6.738   0.805
 2075TIP3    H2 6103   4.284   6.784   0.705
 2076TIP3   OH2 6104   4.509   6.239   0.435
 2076TIP3    H1 6105   4.457   6.321   0.421
 2076TIP3    H2 6106   4.440   6.170   0.423
 2077TIP3   OH2 6107   4.630   6.751   0.654
 2077TIP3    H1 6108   4.620   6.739   0.750
 2077TIP3    H2 6109   4.540   6.725   0.624
 2078TIP3   OH2 6110   4.870   6.695   0.520
 2078TIP3    H1 6111   4.793   6.701   0.579
 2078TIP3    H2 6112   4.942   6.667   0.581
 2079TIP3   OH2 6113   5.101   6.637   0.660
 2079TIP3    H1 6114   5.113   6.541   0.679
 2079TIP3    H2 6115   5.099   6.677   0.750
 2080TIP3   OH2 6116   4.087   6.587   0.844
 2080TIP3    H1 6117   4.096   6.496   0.809
 2080TIP3    H2 6118   4.124   6.575   0.934
 2081TIP3   OH2 6119   4.600   6.253   0.693
 2081TIP3    H1 6120   4.669   6.183   0.688
 2081TIP3    H2 6121   4.562   6.246   0.603
 2082TIP3   OH2 6122   4.665   6.468   0.853
 2082TIP3    H1 6123   4.644   6.398   0.788
 2082TIP3    H2 6124   4.588   6.528   0.845
 2083TIP3   OH2 6125   5.213   7.660   0.468
 2083TIP3    H1 6126   5.136   7.672   0.528
 2083TIP3    H2 6127   5.228   7.750   0.437
 2084TIP3   OH2 6128   3.611   6.948   0.140
 2084TIP3    H1 6129   3.617   6.927   0.047
 2084TIP3    H2 6130   3.707   6.945   0.165
 2085TIP3   OH2 6131   3.820   6.637   0.814
 2085TIP3    H1 6132   3.918   6.632   0.816
 2085TIP3    H2 6133   3.797   6.553   0.856
 2086TIP3   OH2 6134   5.690   6.493   0.588
 2086TIP3    H1 6135   5.730   6.431   0.524
 2086TIP3    H2 6136   5.629   6.544   0.530
 2087TIP3   OH2 6137   3.792   6.336   0.172
 2087TIP3    H1 6138   3.853   6.259   0.173
 2087TIP3    H2 6139   3.854   6.407   0.149
 2088TIP3   OH2 6140   3.585   6.604   0.217
 2088TIP3    H1 6141   3.637   6.600   0.134
 2088TIP3    H2 6142   3.617   6.686   0.257
 2089TIP3   OH2 6143   5.505   6.633   0.455
 2089TIP3    H1 6144   5.416   6.665   0.435
 2089TIP3    H2 6145   5.541   6.630   0.364
 2090TIP3   OH2 6146   3.789   6.187   0.535
 2090TIP3    H1 6147   3.739   6.182   0.618
 2090TIP3    H2 6148   3.723   6.225   0.475
 2091TIP3   OH2 6149   3.830   7.613   0.615
 2091TIP3    H1 6150   3.739   7.585   0.595
 2091TIP3    H2 6151   3.837   7.597   0.709
 2092TIP3   OH2 6152   5.420   6.378   0.305
 2092TIP3    H1 6153   5.369   6.423   0.236
 2092TIP3    H2 6154   5.486   6.328   0.255
 2093TIP3   OH2 6155   3.663   7.895   0.163
 2093TIP3    H1 6156   3.578   7.944   0.163
 2093TIP3    H2 6157   3.708   7.936   0.239
 2094TIP3   OH2 6158   3.873   6.027  -0.092
 2094TIP3    H1 6159   3.784   5.989  -0.111
 2094TIP3    H2 6160   3.929   5.948  -0.111
 2095TIP3   OH2 6161   4.087   6.309   0.781
 2095TIP3    H1 6162   4.054   6.239   0.839
 2095TIP3    H2 6163   4.182   6.310   0.808
 2096TIP3   OH2 6164   4.336   6.307   0.901
 2096TIP3    H1 6165   4.421   6.283   0.861
 2096TIP3    H2 6166   4.325   6.235   0.967
 2097TIP3   OH2 6167   5.155   6.367   0.694
 2097TIP3    H1 6168   5.175   6.336   0.785
 2097TIP3    H2 6169   5.245   6.364   0.654
 2098TIP3   OH2 6170   6.140   6.580   0.417
 2098TIP3    H1 6171   6.188   6.541   0.344
 2098TIP3    H2 6172   6.100   6.503   0.461
 2099TIP3   OH2 6173   1.719   7.817   1.213
 2099TIP3    H1 6174   1.766   7.733   1.194
 2099TIP3    H2 6175   1.693   7.844   1.124
 2100TIP3   OH2 6176   3.230   8.330   0.251
 2100TIP3    H1 6177   3.245   8.409   0.196
 2100TIP3    H2 6178   3.292   8.350   0.323
 2101TIP3   OH2 6179   3.041   8.049   0.234
 2101TIP3    H1 6180   2.964   8.103   0.254
 2101TIP3    H2 6181   3.030   8.036   0.137
 2102TIP3   OH2 6182   3.080   8.525   0.549
 2102TIP3    H1 6183   3.055   8.529   0.453
 2102TIP3    H2 6184   3.093   8.429   0.559
 2103TIP3   OH2 6185   2.617   7.872   0.521
 2103TIP3    H1 6186   2.686   7.843   0.584
 2103TIP3    H2 6187   2.534   7.853   0.569
 2104TIP3   OH2 6188   2.851   8.318   0.430
 2104TIP3    H1 6189   2.812   8.294   0.518
 2104TIP3    H2 6190   2.790   8.388   0.405
 2105TIP3   OH2 6191   2.598   8.561   0.751
 2105TIP3    H1 6192   2.555   8.473   0.748
 2105TIP3    H2 6193   2.692   8.539   0.740
 2106TIP3   OH2 6194   2.647   8.108   0.364
 2106TIP3    H1 6195   2.700   8.142   0.437
 2106TIP3    H2 6196   2.616   8.023   0.402
 2107TIP3   OH2 6197   3.105   8.239   0.478
 2107TIP3    H1 6198   3.009   8.251   0.467
 2107TIP3    H2 6199   3.134   8.241   0.385
 2108TIP3   OH2 6200   2.878   8.549   0.765
 2108TIP3    H1 6201   2.897   8.459   0.795
 2108TIP3    H2 6202   2.957   8.569   0.713
 2109TIP3   OH2 6203   2.341   7.818   0.588
 2109TIP3    H1 6204   2.314   7.881   0.520
 2109TIP3    H2 6205   2.277   7.745   0.574
 2110TIP3   OH2 6206   2.487   8.303   0.801
 2110TIP3    H1 6207   2.490   8.305   0.898
 2110TIP3    H2 6208   2.393   8.290   0.787
 2111TIP3   OH2 6209   2.723   8.259   0.655
 2111TIP3    H1 6210   2.640   8.261   0.707
 2111TIP3    H2 6211   2.789   8.228   0.721
 2112TIP3   OH2 6212   2.942   8.197   0.815
 2112TIP3    H1 6213   2.956   8.101   0.831
 2112TIP3    H2 6214   2.940   8.235   0.905
 2113TIP3   OH2 6215   2.045   8.187   0.991
 2113TIP3    H1 6216   1.989   8.139   0.929
 2113TIP3    H2 6217   2.011   8.158   1.078
 2114TIP3   OH2 6218   2.442   7.814   0.845
 2114TIP3    H1 6219   2.508   7.742   0.838
 2114TIP3    H2 6220   2.401   7.810   0.756
 2115TIP3   OH2 6221   2.502   8.028   1.006
 2115TIP3    H1 6222   2.486   7.955   0.941
 2115TIP3    H2 6223   2.428   8.088   0.989
 2116TIP3   OH2 6224   3.283   8.668   0.429
 2116TIP3    H1 6225   3.212   8.619   0.474
 2116TIP3    H2 6226   3.359   8.607   0.443
 2117TIP3   OH2 6227   3.048   8.556   0.278
 2117TIP3    H1 6228   2.970   8.536   0.223
 2117TIP3    H2 6229   3.100   8.613   0.219
 2118TIP3   OH2 6230   3.495   8.058   0.722
 2118TIP3    H1 6231   3.555   7.993   0.681
 2118TIP3    H2 6232   3.472   8.116   0.646
 2119TIP3   OH2 6233   3.369   8.202   0.529
 2119TIP3    H1 6234   3.277   8.230   0.549
 2119TIP3    H2 6235   3.350   8.124   0.474
 2120TIP3   OH2 6236   3.275   7.967   0.409
 2120TIP3    H1 6237   3.185   7.977   0.371
 2120TIP3    H2 6238   3.293   7.871   0.396
 2121TIP3   OH2 6239   1.976   7.771   0.915
 2121TIP3    H1 6240   1.939   7.720   0.990
 2121TIP3    H2 6241   2.053   7.814   0.957
 2122TIP3   OH2 6242   2.187   7.875   1.065
 2122TIP3    H1 6243   2.270   7.848   1.023
 2122TIP3    H2 6244   2.174   7.802   1.130
 2123TIP3   OH2 6245   3.002   7.926   0.840
 2123TIP3    H1 6246   3.023   7.894   0.931
 2123TIP3    H2 6247   3.091   7.922   0.797
 2124TIP3   OH2 6248   3.569   8.799   0.421
 2124TIP3    H1 6249   3.621   8.734   0.471
 2124TIP3    H2 6250   3.553   8.870   0.488
 2125TIP3   OH2 6251   3.854   8.632   0.402
 2125TIP3    H1 6252   3.802   8.553   0.430
 2125TIP3    H2 6253   3.907   8.596   0.329
 2126TIP3   OH2 6254   3.724   8.407   0.489
 2126TIP3    H1 6255   3.730   8.328   0.431
 2126TIP3    H2 6256   3.761   8.374   0.573
 2127TIP3   OH2 6257   4.276   8.264   0.469
 2127TIP3    H1 6258   4.241   8.235   0.383
 2127TIP3    H2 6259   4.222   8.344   0.484
 2128TIP3   OH2 6260   3.453   8.456   0.457
 2128TIP3    H1 6261   3.550   8.450   0.447
 2128TIP3    H2 6262   3.435   8.369   0.497
 2129TIP3   OH2 6263   3.407   8.002   0.160
 2129TIP3    H1 6264   3.374   7.987   0.250
 2129TIP3    H2 6265   3.356   8.079   0.132
 2130TIP3   OH2 6266   3.722   8.110   0.426
 2130TIP3    H1 6267   3.697   8.039   0.487
 2130TIP3    H2 6268   3.815   8.124   0.450
 2131TIP3   OH2 6269   3.968   8.128   0.548
 2131TIP3    H1 6270   4.048   8.108   0.496
 2131TIP3    H2 6271   3.963   8.051   0.608
 2132TIP3   OH2 6272   1.640  -0.097   4.781
 2132TIP3    H1 6273   1.565  -0.156   4.773
 2132TIP3    H2 6274   1.606  -0.013   4.743
 2133TIP3   OH2 6275   1.856   0.254   4.849
 2133TIP3    H1 6276   1.855   0.159   4.869
 2133TIP3    H2 6277   1.774   0.283   4.894
 2134TIP3   OH2 6278   1.543   0.604   4.948
 2134TIP3    H1 6279   1.542   0.632   4.854
 2134TIP3    H2 6280   1.619   0.654   4.982
 2135TIP3   OH2 6281   1.877  -0.033   4.894
 2135TIP3    H1 6282   1.779  -0.040   4.888
 2135TIP3    H2 6283   1.899  -0.062   4.803
 2136TIP3   OH2 6284   1.387   0.288   4.779
 2136TIP3    H1 6285   1.302   0.253   4.808
 2136TIP3    H2 6286   1.361   0.361   4.718
 2137TIP3   OH2 6287   1.362   0.151   5.097
 2137TIP3    H1 6288   1.273   0.142   5.135
 2137TIP3    H2 6289   1.402   0.214   5.158
 2138TIP3   OH2 6290   1.642   0.356   4.326
 2138TIP3    H1 6291   1.662   0.389   4.416
 2138TIP3    H2 6292   1.708   0.403   4.273
 2139TIP3   OH2 6293   1.683   0.379   4.612
 2139TIP3    H1 6294   1.644   0.290   4.613
 2139TIP3    H2 6295   1.755   0.367   4.676
 2140TIP3   OH2 6296   1.741   0.050   5.182
 2140TIP3    H1 6297   1.667   0.056   5.246
 2140TIP3    H2 6298   1.777   0.140   5.188
 2141TIP3   OH2 6299   1.553   0.128   4.644
 2141TIP3    H1 6300   1.499   0.184   4.704
 2141TIP3    H2 6301   1.487   0.098   4.581
 2142TIP3   OH2 6302   1.783  -0.280   5.014
 2142TIP3    H1 6303   1.848  -0.351   5.003
 2142TIP3    H2 6304   1.813  -0.211   4.952
 2143TIP3   OH2 6305   1.950  -0.499   5.026
 2143TIP3    H1 6306   1.891  -0.556   5.077
 2143TIP3    H2 6307   2.037  -0.519   5.063
 2144TIP3   OH2 6308   1.143   0.470   4.905
 2144TIP3    H1 6309   1.201   0.395   4.920
 2144TIP3    H2 6310   1.175   0.530   4.975
 2145TIP3   OH2 6311   1.347   0.463   4.570
 2145TIP3    H1 6312   1.314   0.551   4.542
 2145TIP3    H2 6313   1.368   0.424   4.485
 2146TIP3   OH2 6314   1.615   0.338   4.949
 2146TIP3    H1 6315   1.533   0.299   4.916
 2146TIP3    H2 6316   1.589   0.432   4.954
 2147TIP3   OH2 6317   2.909  -0.265   3.770
 2147TIP3    H1 6318   2.895  -0.169   3.759
 2147TIP3    H2 6319   2.831  -0.300   3.725
 2148TIP3   OH2 6320   2.858  -0.297   4.104
 2148TIP3    H1 6321   2.908  -0.303   4.187
 2148TIP3    H2 6322   2.830  -0.390   4.094
 2149TIP3   OH2 6323   2.171  -0.402   4.449
 2149TIP3    H1 6324   2.201  -0.458   4.523
 2149TIP3    H2 6325   2.248  -0.345   4.437
 2150TIP3   OH2 6326   3.112   0.006   3.782
 2150TIP3    H1 6327   3.110  -0.060   3.853
 2150TIP3    H2 6328   3.141   0.086   3.829
 2151TIP3   OH2 6329   2.155  -0.008   4.190
 2151TIP3    H1 6330   2.168  -0.086   4.244
 2151TIP3    H2 6331   2.247   0.025   4.184
 2152TIP3   OH2 6332   2.761   0.474   3.795
 2152TIP3    H1 6333   2.810   0.403   3.746
 2152TIP3    H2 6334   2.762   0.440   3.885
 2153TIP3   OH2 6335   2.675  -0.070   4.142
 2153TIP3    H1 6336   2.722  -0.149   4.107
 2153TIP3    H2 6337   2.755  -0.017   4.165
 2154TIP3   OH2 6338   3.094  -0.554   4.177
 2154TIP3    H1 6339   3.116  -0.640   4.216
 2154TIP3    H2 6340   3.051  -0.580   4.094
 2155TIP3   OH2 6341   3.731  -0.563   4.333
 2155TIP3    H1 6342   3.669  -0.491   4.309
 2155TIP3    H2 6343   3.780  -0.526   4.408
 2156TIP3   OH2 6344   2.776  -0.018   3.639
 2156TIP3    H1 6345   2.800  -0.044   3.549
 2156TIP3    H2 6346   2.727   0.066   3.623
 2157TIP3   OH2 6347   2.526  -0.151   4.380
 2157TIP3    H1 6348   2.464  -0.085   4.418
 2157TIP3    H2 6349   2.572  -0.099   4.312
 2158TIP3   OH2 6350   2.350   0.045   4.464
 2158TIP3    H1 6351   2.329   0.136   4.433
 2158TIP3    H2 6352   2.274   0.032   4.526
 2159TIP3   OH2 6353   3.186   0.252   3.946
 2159TIP3    H1 6354   3.096   0.246   3.985
 2159TIP3    H2 6355   3.180   0.339   3.901
 2160TIP3   OH2 6356   2.884   0.303   3.621
 2160TIP3    H1 6357   2.935   0.221   3.601
 2160TIP3    H2 6358   2.945   0.368   3.579
 2161TIP3   OH2 6359   3.039   0.097   3.530
 2161TIP3    H1 6360   3.055   0.022   3.470
 2161TIP3    H2 6361   3.069   0.059   3.615
 2162TIP3   OH2 6362   3.413   0.167   4.291
 2162TIP3    H1 6363   3.403   0.091   4.230
 2162TIP3    H2 6364   3.396   0.243   4.232
 2163TIP3   OH2 6365   3.607  -0.200   4.136
 2163TIP3    H1 6366   3.525  -0.147   4.140
 2163TIP3    H2 6367   3.638  -0.176   4.046
 2164TIP3   OH2 6368   3.059  -0.332   3.549
 2164TIP3    H1 6369   3.048  -0.306   3.643
 2164TIP3    H2 6370   3.146  -0.377   3.551
 2165TIP3   OH2 6371   3.283  -0.312   4.426
 2165TIP3    H1 6372   3.281  -0.228   4.477
 2165TIP3    H2 6373   3.201  -0.302   4.373
 2166TIP3   OH2 6374   2.417   0.047   4.089
 2166TIP3    H1 6375   2.407   0.001   4.005
 2166TIP3    H2 6376   2.509   0.023   4.113
 2167TIP3   OH2 6377   2.423  -0.392   4.289
 2167TIP3    H1 6378   2.467  -0.414   4.205
 2167TIP3    H2 6379   2.467  -0.307   4.314
 2168TIP3   OH2 6380   2.944   0.249   4.066
 2168TIP3    H1 6381   2.932   0.332   4.117
 2168TIP3    H2 6382   2.930   0.179   4.133
 2169TIP3   OH2 6383   2.558   0.169   4.612
 2169TIP3    H1 6384   2.501   0.231   4.661
 2169TIP3    H2 6385   2.490   0.116   4.566
 2170TIP3   OH2 6386   2.295  -0.270   4.711
 2170TIP3    H1 6387   2.304  -0.187   4.762
 2170TIP3    H2 6388   2.199  -0.287   4.723
 2171TIP3   OH2 6389   2.619   0.211   3.620
 2171TIP3    H1 6390   2.701   0.260   3.639
 2171TIP3    H2 6391   2.564   0.278   3.576
 2172TIP3   OH2 6392   2.353   0.336   4.700
 2172TIP3    H1 6393   2.315   0.337   4.610
 2172TIP3    H2 6394   2.274   0.316   4.756
 2173TIP3   OH2 6395   3.223   0.116   2.941
 2173TIP3    H1 6396   3.234   0.211   2.962
 2173TIP3    H2 6397   3.313   0.081   2.950
 2174TIP3   OH2 6398   1.942  -0.135   4.649
 2174TIP3    H1 6399   1.883  -0.162   4.577
 2174TIP3    H2 6400   1.971  -0.221   4.685
 2175TIP3   OH2 6401   1.802   0.051   4.272
 2175TIP3    H1 6402   1.892   0.083   4.285
 2175TIP3    H2 6403   1.752   0.120   4.317
 2176TIP3   OH2 6404   3.652   0.512   4.337
 2176TIP3    H1 6405   3.649   0.416   4.351
 2176TIP3    H2 6406   3.569   0.540   4.381
 2177TIP3   OH2 6407   2.755   0.299   4.469
 2177TIP3    H1 6408   2.757   0.392   4.502
 2177TIP3    H2 6409   2.686   0.260   4.526
 2178TIP3   OH2 6410   2.510   0.427   3.429
 2178TIP3    H1 6411   2.449   0.413   3.355
 2178TIP3    H2 6412   2.491   0.519   3.453
 2179TIP3   OH2 6413   2.769   0.392   3.342
 2179TIP3    H1 6414   2.678   0.389   3.377
 2179TIP3    H2 6415   2.817   0.336   3.405
 2180TIP3   OH2 6416   3.543  -0.360   4.623
 2180TIP3    H1 6417   3.469  -0.327   4.570
 2180TIP3    H2 6418   3.559  -0.447   4.585
 2181TIP3   OH2 6419   2.140   0.051   4.635
 2181TIP3    H1 6420   2.188   0.040   4.719
 2181TIP3    H2 6421   2.065  -0.011   4.647
 2182TIP3   OH2 6422   3.213  -0.496   4.625
 2182TIP3    H1 6423   3.257  -0.579   4.604
 2182TIP3    H2 6424   3.229  -0.440   4.547
 2183TIP3   OH2 6425   2.482  -0.610   4.454
 2183TIP3    H1 6426   2.410  -0.596   4.519
 2183TIP3    H2 6427   2.458  -0.544   4.386
 2184TIP3   OH2 6428   3.014  -0.312   4.727
 2184TIP3    H1 6429   2.991  -0.360   4.811
 2184TIP3    H2 6430   3.109  -0.326   4.728
 2185TIP3   OH2 6431   3.001  -0.617   3.918
 2185TIP3    H1 6432   2.964  -0.560   3.848
 2185TIP3    H2 6433   3.055  -0.679   3.866
 2186TIP3   OH2 6434   2.287  -0.573   4.648
 2186TIP3    H1 6435   2.305  -0.509   4.718
 2186TIP3    H2 6436   2.252  -0.649   4.697
 2187TIP3   OH2 6437   3.010  -0.353   4.339
 2187TIP3    H1 6438   3.040  -0.429   4.283
 2187TIP3    H2 6439   2.980  -0.398   4.419
 2188TIP3   OH2 6440   3.340   0.862   4.435
 2188TIP3    H1 6441   3.340   0.887   4.341
 2188TIP3    H2 6442   3.419   0.910   4.467
 2189TIP3   OH2 6443   2.301  -0.030   4.855
 2189TIP3    H1 6444   2.380   0.001   4.903
 2189TIP3    H2 6445   2.235  -0.026   4.928
 2190TIP3   OH2 6446   2.790  -0.563   4.128
 2190TIP3    H1 6447   2.830  -0.625   4.066
 2190TIP3    H2 6448   2.772  -0.618   4.206
 2191TIP3   OH2 6449   2.744  -0.689   4.416
 2191TIP3    H1 6450   2.655  -0.650   4.425
 2191TIP3    H2 6451   2.798  -0.630   4.472
 2192TIP3   OH2 6452   3.378  -0.051   4.126
 2192TIP3    H1 6453   3.403  -0.001   4.045
 2192TIP3    H2 6454   3.292  -0.091   4.100
 2193TIP3   OH2 6455   2.871   0.031   4.493
 2193TIP3    H1 6456   2.899   0.012   4.584
 2193TIP3    H2 6457   2.838   0.122   4.501
 2194TIP3   OH2 6458   2.036  -0.347   4.795
 2194TIP3    H1 6459   2.081  -0.341   4.883
 2194TIP3    H2 6460   1.981  -0.425   4.811
 2195TIP3   OH2 6461   2.765  -0.220   4.803
 2195TIP3    H1 6462   2.699  -0.279   4.762
 2195TIP3    H2 6463   2.847  -0.245   4.755
 2196TIP3   OH2 6464   3.035   0.284   4.391
 2196TIP3    H1 6465   2.938   0.291   4.402
 2196TIP3    H2 6466   3.065   0.339   4.466
 2197TIP3   OH2 6467   3.664   0.216   4.382
 2197TIP3    H1 6468   3.566   0.215   4.372
 2197TIP3    H2 6469   3.690   0.191   4.290
 2198TIP3   OH2 6470   3.143   0.177   3.202
 2198TIP3    H1 6471   3.129   0.110   3.269
 2198TIP3    H2 6472   3.143   0.125   3.119
 2199TIP3   OH2 6473   3.142  -0.189   4.045
 2199TIP3    H1 6474   3.049  -0.213   4.052
 2199TIP3    H2 6475   3.178  -0.268   3.999
 2200TIP3   OH2 6476   2.539   0.382   4.266
 2200TIP3    H1 6477   2.579   0.457   4.217
 2200TIP3    H2 6478   2.615   0.351   4.318
 2201TIP3   OH2 6479   2.925   0.014   4.225
 2201TIP3    H1 6480   2.916   0.016   4.323
 2201TIP3    H2 6481   3.011  -0.028   4.214
 2202TIP3   OH2 6482   3.174   0.550   4.274
 2202TIP3    H1 6483   3.094   0.497   4.264
 2202TIP3    H2 6484   3.161   0.617   4.203
 2203TIP3   OH2 6485   3.244   0.393   2.926
 2203TIP3    H1 6486   3.290   0.474   2.896
 2203TIP3    H2 6487   3.160   0.433   2.958
 2204TIP3   OH2 6488   3.077  -0.119   3.375
 2204TIP3    H1 6489   3.091  -0.202   3.424
 2204TIP3    H2 6490   3.146  -0.128   3.306
 2205TIP3   OH2 6491   1.980   0.242   4.427
 2205TIP3    H1 6492   2.034   0.175   4.472
 2205TIP3    H2 6493   1.996   0.319   4.482
 2206TIP3   OH2 6494   2.928  -0.537   4.571
 2206TIP3    H1 6495   2.938  -0.459   4.628
 2206TIP3    H2 6496   3.017  -0.575   4.577
 2207TIP3   OH2 6497   3.226  -0.428   3.918
 2207TIP3    H1 6498   3.158  -0.491   3.947
 2207TIP3    H2 6499   3.305  -0.465   3.963
 2208TIP3   OH2 6500   3.195   0.524   3.868
 2208TIP3    H1 6501   3.153   0.571   3.793
 2208TIP3    H2 6502   3.289   0.544   3.848
 2209TIP3   OH2 6503   1.967   0.554   4.846
 2209TIP3    H1 6504   2.052   0.555   4.895
 2209TIP3    H2 6505   1.946   0.459   4.848
 2210TIP3   OH2 6506   2.449   0.521   4.891
 2210TIP3    H1 6507   2.543   0.503   4.901
 2210TIP3    H2 6508   2.426   0.461   4.817
 2211TIP3   OH2 6509   3.091   0.423   4.622
 2211TIP3    H1 6510   3.080   0.356   4.693
 2211TIP3    H2 6511   3.167   0.475   4.654
 2212TIP3   OH2 6512   2.105  -0.034   5.046
 2212TIP3    H1 6513   2.110  -0.127   5.072
 2212TIP3    H2 6514   2.015  -0.030   5.007
 2213TIP3   OH2 6515   2.706   0.048   4.821
 2213TIP3    H1 6516   2.665   0.060   4.734
 2213TIP3    H2 6517   2.735  -0.046   4.819
 2214TIP3   OH2 6518   3.198   0.051   4.426
 2214TIP3    H1 6519   3.272   0.097   4.383
 2214TIP3    H2 6520   3.128   0.119   4.417
 2215TIP3   OH2 6521   2.208  -0.323   5.029
 2215TIP3    H1 6522   2.292  -0.369   5.012
 2215TIP3    H2 6523   2.230  -0.281   5.115
 2216TIP3   OH2 6524   2.548  -0.368   4.679
 2216TIP3    H1 6525   2.461  -0.323   4.687
 2216TIP3    H2 6526   2.567  -0.360   4.584
 2217TIP3   OH2 6527   3.069  -0.014   4.830
 2217TIP3    H1 6528   3.140  -0.048   4.775
 2217TIP3    H2 6529   3.061  -0.083   4.899
 2218TIP3   OH2 6530   2.657  -0.572   4.816
 2218TIP3    H1 6531   2.646  -0.656   4.766
 2218TIP3    H2 6532   2.626  -0.505   4.751
 2219TIP3   OH2 6533   2.738  -0.311   4.462
 2219TIP3    H1 6534   2.813  -0.285   4.407
 2219TIP3    H2 6535   2.675  -0.238   4.446
 2220TIP3   OH2 6536   3.294  -0.336   4.892
 2220TIP3    H1 6537   3.329  -0.424   4.874
 2220TIP3    H2 6538   3.354  -0.278   4.843
 2221TIP3   OH2 6539   3.331  -0.093   4.613
 2221TIP3    H1 6540   3.270  -0.038   4.557
 2221TIP3    H2 6541   3.417  -0.067   4.574
 2222TIP3   OH2 6542   2.523  -0.495   5.050
 2222TIP3    H1 6543   2.465  -0.573   5.050
 2222TIP3    H2 6544   2.579  -0.513   4.972
 2223TIP3   OH2 6545   2.977  -0.467   4.936
 2223TIP3    H1 6546   2.932  -0.485   5.020
 2223TIP3    H2 6547   3.004  -0.556   4.909
 2224TIP3   OH2 6548   3.446   0.619   3.824
 2224TIP3    H1 6549   3.475   0.653   3.910
 2224TIP3    H2 6550   3.510   0.660   3.763
 2225TIP3   OH2 6551   3.476   0.638   4.106
 2225TIP3    H1 6552   3.436   0.549   4.102
 2225TIP3    H2 6553   3.554   0.620   4.161
 2226TIP3   OH2 6554   3.530   0.307   4.686
 2226TIP3    H1 6555   3.451   0.321   4.743
 2226TIP3    H2 6556   3.567   0.398   4.684
 2227TIP3   OH2 6557   3.350  -0.151   3.309
 2227TIP3    H1 6558   3.428  -0.097   3.285
 2227TIP3    H2 6559   3.389  -0.214   3.374
 2228TIP3   OH2 6560   3.476  -0.310   3.498
 2228TIP3    H1 6561   3.404  -0.351   3.552
 2228TIP3    H2 6562   3.531  -0.266   3.566
 2229TIP3   OH2 6563   3.520   0.085   3.935
 2229TIP3    H1 6564   3.573   0.022   3.882
 2229TIP3    H2 6565   3.515   0.162   3.875
 2230TIP3   OH2 6566   3.353   0.384   4.133
 2230TIP3    H1 6567   3.283   0.431   4.182
 2230TIP3    H2 6568   3.302   0.339   4.062
 2231TIP3   OH2 6569   3.293  -0.454   3.653
 2231TIP3    H1 6570   3.284  -0.550   3.650
 2231TIP3    H2 6571   3.276  -0.435   3.748
 2232TIP3   OH2 6572   3.576  -0.028   4.509
 2232TIP3    H1 6573   3.650  -0.091   4.494
 2232TIP3    H2 6574   3.598   0.045   4.447
 2233TIP3   OH2 6575   3.761  -0.232   4.524
 2233TIP3    H1 6576   3.692  -0.280   4.572
 2233TIP3    H2 6577   3.841  -0.280   4.551
 2234TIP3   OH2 6578   3.445  -0.524   4.044
 2234TIP3    H1 6579   3.534  -0.516   4.004
 2234TIP3    H2 6580   3.465  -0.507   4.137
 2235TIP3   OH2 6581   3.507  -0.406   4.292
 2235TIP3    H1 6582   3.424  -0.364   4.322
 2235TIP3    H2 6583   3.543  -0.336   4.233
 2236TIP3   OH2 6584   3.035   0.481   3.486
 2236TIP3    H1 6585   3.083   0.466   3.401
 2236TIP3    H2 6586   3.090   0.549   3.528
 2237TIP3   OH2 6587   2.134   0.282   4.866
 2237TIP3    H1 6588   2.040   0.259   4.852
 2237TIP3    H2 6589   2.144   0.270   4.961
 2238TIP3   OH2 6590   2.311   0.315   4.411
 2238TIP3    H1 6591   2.262   0.391   4.375
 2238TIP3    H2 6592   2.397   0.333   4.369
 2239TIP3   OH2 6593   2.757   0.564   4.551
 2239TIP3    H1 6594   2.797   0.565   4.640
 2239TIP3    H2 6595   2.823   0.616   4.500
 2240TIP3   OH2 6596   2.937   0.715   4.410
 2240TIP3    H1 6597   3.010   0.666   4.371
 2240TIP3    H2 6598   2.986   0.774   4.472
 2241TIP3   OH2 6599   1.987   0.573   4.440
 2241TIP3    H1 6600   1.898   0.609   4.417
 2241TIP3    H2 6601   2.000   0.616   4.526
 2242TIP3   OH2 6602   2.223   0.552   4.296
 2242TIP3    H1 6603   2.137   0.567   4.341
 2242TIP3    H2 6604   2.205   0.589   4.207
 2243TIP3   OH2 6605   2.649   0.584   4.094
 2243TIP3    H1 6606   2.582   0.606   4.028
 2243TIP3    H2 6607   2.663   0.671   4.138
 2244TIP3   OH2 6608   2.918   0.522   4.143
 2244TIP3    H1 6609   2.824   0.541   4.125
 2244TIP3    H2 6610   2.962   0.599   4.105
 2245TIP3   OH2 6611   3.124   0.715   4.061
 2245TIP3    H1 6612   3.111   0.801   4.014
 2245TIP3    H2 6613   3.152   0.657   3.987
 2246TIP3   OH2 6614   1.911   0.375   4.187
 2246TIP3    H1 6615   1.921   0.349   4.280
 2246TIP3    H2 6616   1.992   0.331   4.151
 2247TIP3   OH2 6617   2.111   0.243   4.065
 2247TIP3    H1 6618   2.132   0.156   4.103
 2247TIP3    H2 6619   2.200   0.281   4.047
 2248TIP3   OH2 6620   2.370   0.344   4.041
 2248TIP3    H1 6621   2.407   0.256   4.024
 2248TIP3    H2 6622   2.412   0.364   4.127
 2249TIP3   OH2 6623   3.176   0.445   3.249
 2249TIP3    H1 6624   3.166   0.347   3.236
 2249TIP3    H2 6625   3.130   0.478   3.169
 2250TIP3   OH2 6626   3.406   0.594   4.435
 2250TIP3    H1 6627   3.325   0.564   4.388
 2250TIP3    H2 6628   3.387   0.690   4.439
 2251TIP3   OH2 6629   4.669  -0.037   3.207
 2251TIP3    H1 6630   4.642   0.055   3.188
 2251TIP3    H2 6631   4.593  -0.084   3.169
 2252TIP3   OH2 6632   4.665  -0.033   3.580
 2252TIP3    H1 6633   4.703  -0.066   3.663
 2252TIP3    H2 6634   4.625  -0.112   3.543
 2253TIP3   OH2 6635   3.968  -0.134   3.951
 2253TIP3    H1 6636   4.010  -0.198   4.012
 2253TIP3    H2 6637   4.043  -0.077   3.931
 2254TIP3   OH2 6638   4.915   0.263   3.267
 2254TIP3    H1 6639   4.901   0.198   3.337
 2254TIP3    H2 6640   4.941   0.342   3.316
 2255TIP3   OH2 6641   3.939   0.269   3.676
 2255TIP3    H1 6642   3.933   0.171   3.678
 2255TIP3    H2 6643   4.036   0.280   3.667
 2256TIP3   OH2 6644   3.639  -0.532   3.455
 2256TIP3    H1 6645   3.609  -0.440   3.467
 2256TIP3    H2 6646   3.555  -0.578   3.470
 2257TIP3   OH2 6647   3.711  -0.240   3.632
 2257TIP3    H1 6648   3.762  -0.315   3.669
 2257TIP3    H2 6649   3.772  -0.206   3.565
 2258TIP3   OH2 6650   4.557   0.723   3.276
 2258TIP3    H1 6651   4.614   0.662   3.225
 2258TIP3    H2 6652   4.563   0.689   3.366
 2259TIP3   OH2 6653   4.468   0.189   3.636
 2259TIP3    H1 6654   4.506   0.116   3.585
 2259TIP3    H2 6655   4.551   0.236   3.658
 2260TIP3   OH2 6656   4.874  -0.299   3.665
 2260TIP3    H1 6657   4.920  -0.381   3.686
 2260TIP3    H2 6658   4.848  -0.315   3.572
 2261TIP3   OH2 6659   3.853  -0.450   3.738
 2261TIP3    H1 6660   3.934  -0.474   3.789
 2261TIP3    H2 6661   3.872  -0.502   3.657
 2262TIP3   OH2 6662   4.293  -0.246   3.536
 2262TIP3    H1 6663   4.385  -0.277   3.547
 2262TIP3    H2 6664   4.248  -0.328   3.504
 2263TIP3   OH2 6665   5.531  -0.306   3.819
 2263TIP3    H1 6666   5.466  -0.237   3.798
 2263TIP3    H2 6667   5.575  -0.272   3.899
 2264TIP3   OH2 6668   4.552   0.179   3.080
 2264TIP3    H1 6669   4.525   0.170   2.988
 2264TIP3    H2 6670   4.520   0.270   3.100
 2265TIP3   OH2 6671   4.322   0.109   3.864
 2265TIP3    H1 6672   4.259   0.176   3.899
 2265TIP3    H2 6673   4.363   0.157   3.790
 2266TIP3   OH2 6674   4.093  -0.543   3.834
 2266TIP3    H1 6675   4.157  -0.473   3.859
 2266TIP3    H2 6676   4.135  -0.584   3.758
 2267TIP3   OH2 6677   4.149   0.303   3.957
 2267TIP3    H1 6678   4.125   0.389   3.915
 2267TIP3    H2 6679   4.069   0.290   4.013
 2268TIP3   OH2 6680   3.554   0.000   3.200
 2268TIP3    H1 6681   3.506   0.022   3.118
 2268TIP3    H2 6682   3.576   0.089   3.236
 2269TIP3   OH2 6683   4.984   0.511   3.435
 2269TIP3    H1 6684   4.894   0.503   3.473
 2269TIP3    H2 6685   4.976   0.595   3.386
 2270TIP3   OH2 6686   4.705   0.578   3.092
 2270TIP3    H1 6687   4.742   0.489   3.072
 2270TIP3    H2 6688   4.769   0.633   3.042
 2271TIP3   OH2 6689   4.815   0.337   3.018
 2271TIP3    H1 6690   4.805   0.257   2.964
 2271TIP3    H2 6691   4.856   0.302   3.100
 2272TIP3   OH2 6692   5.209   0.423   3.778
 2272TIP3    H1 6693   5.198   0.347   3.717
 2272TIP3    H2 6694   5.191   0.499   3.718
 2273TIP3   OH2 6695   4.501  -0.183   3.034
 2273TIP3    H1 6696   4.422  -0.130   3.012
 2273TIP3    H2 6697   4.548  -0.185   2.949
 2274TIP3   OH2 6698   4.457  -0.383   2.768
 2274TIP3    H1 6699   4.538  -0.343   2.807
 2274TIP3    H2 6700   4.496  -0.460   2.723
 2275TIP3   OH2 6701   5.405   0.058   3.623
 2275TIP3    H1 6702   5.321   0.109   3.628
 2275TIP3    H2 6703   5.433   0.082   3.532
 2276TIP3   OH2 6704   4.847  -0.102   3.007
 2276TIP3    H1 6705   4.795  -0.075   3.086
 2276TIP3    H2 6706   4.932  -0.127   3.049
 2277TIP3   OH2 6707   5.085  -0.035   3.884
 2277TIP3    H1 6708   5.084   0.041   3.945
 2277TIP3    H2 6709   4.996  -0.028   3.844
 2278TIP3   OH2 6710   4.081  -0.102   3.425
 2278TIP3    H1 6711   4.040  -0.160   3.358
 2278TIP3    H2 6712   4.158  -0.156   3.454
 2279TIP3   OH2 6713   4.207   0.303   3.574
 2279TIP3    H1 6714   4.190   0.267   3.486
 2279TIP3    H2 6715   4.299   0.274   3.591
 2280TIP3   OH2 6716   4.217  -0.132   3.779
 2280TIP3    H1 6717   4.248  -0.157   3.689
 2280TIP3    H2 6718   4.261  -0.046   3.794
 2281TIP3   OH2 6719   4.742   0.507   3.553
 2281TIP3    H1 6720   4.728   0.588   3.605
 2281TIP3    H2 6721   4.727   0.435   3.618
 2282TIP3   OH2 6722   4.354   0.424   4.102
 2282TIP3    H1 6723   4.295   0.488   4.147
 2282TIP3    H2 6724   4.288   0.373   4.051
 2283TIP3   OH2 6725   4.693  -0.248   2.832
 2283TIP3    H1 6726   4.753  -0.191   2.886
 2283TIP3    H2 6727   4.719  -0.221   2.741
 2284TIP3   OH2 6728   4.093  -0.013   4.206
 2284TIP3    H1 6729   4.100   0.073   4.251
 2284TIP3    H2 6730   3.998  -0.030   4.213
 2285TIP3   OH2 6731   4.433   0.444   3.107
 2285TIP3    H1 6732   4.510   0.500   3.126
 2285TIP3    H2 6733   4.371   0.508   3.069
 2286TIP3   OH2 6734   4.149   0.593   4.186
 2286TIP3    H1 6735   4.114   0.594   4.095
 2286TIP3    H2 6736   4.070   0.571   4.240
 2287TIP3   OH2 6737   3.951  -0.252   3.232
 2287TIP3    H1 6738   3.889  -0.201   3.175
 2287TIP3    H2 6739   3.915  -0.341   3.231
 2288TIP3   OH2 6740   4.993   0.372   2.414
 2288TIP3    H1 6741   5.008   0.469   2.410
 2288TIP3    H2 6742   5.085   0.339   2.413
 2289TIP3   OH2 6743   3.725   0.126   4.135
 2289TIP3    H1 6744   3.662   0.106   4.063
 2289TIP3    H2 6745   3.761   0.038   4.158
 2290TIP3   OH2 6746   3.583   0.315   3.772
 2290TIP3    H1 6747   3.678   0.311   3.757
 2290TIP3    H2 6748   3.575   0.397   3.823
 2291TIP3   OH2 6749   5.448   0.768   3.823
 2291TIP3    H1 6750   5.445   0.672   3.838
 2291TIP3    H2 6751   5.365   0.796   3.868
 2292TIP3   OH2 6752   4.553   0.554   3.958
 2292TIP3    H1 6753   4.553   0.648   3.989
 2292TIP3    H2 6754   4.482   0.516   4.013
 2293TIP3   OH2 6755   4.302   0.681   2.916
 2293TIP3    H1 6756   4.270   0.670   2.825
 2293TIP3    H2 6757   4.277   0.773   2.936
 2294TIP3   OH2 6758   3.751   0.528   3.291
 2294TIP3    H1 6759   3.802   0.524   3.376
 2294TIP3    H2 6760   3.692   0.452   3.303
 2295TIP3   OH2 6761   4.510   0.582   2.545
 2295TIP3    H1 6762   4.574   0.515   2.513
 2295TIP3    H2 6763   4.544   0.599   2.636
 2296TIP3   OH2 6764   4.554   0.621   2.812
 2296TIP3    H1 6765   4.480   0.635   2.874
 2296TIP3    H2 6766   4.631   0.615   2.871
 2297TIP3   OH2 6767   5.345  -0.100   4.109
 2297TIP3    H1 6768   5.262  -0.076   4.066
 2297TIP3    H2 6769   5.352  -0.194   4.086
 2298TIP3   OH2 6770   3.934   0.306   4.122
 2298TIP3    H1 6771   3.982   0.293   4.206
 2298TIP3    H2 6772   3.858   0.244   4.131
 2299TIP3   OH2 6773   5.055  -0.207   4.098
 2299TIP3    H1 6774   5.038  -0.302   4.102
 2299TIP3    H2 6775   5.014  -0.180   4.015
 2300TIP3   OH2 6776   4.761  -0.193   2.573
 2300TIP3    H1 6777   4.735  -0.224   2.485
 2300TIP3    H2 6778   4.845  -0.147   2.550
 2301TIP3   OH2 6779   4.265  -0.355   3.928
 2301TIP3    H1 6780   4.209  -0.331   4.005
 2301TIP3    H2 6781   4.252  -0.275   3.872
 2302TIP3   OH2 6782   4.136  -0.445   3.436
 2302TIP3    H1 6783   4.059  -0.497   3.466
 2302TIP3    H2 6784   4.160  -0.493   3.353
 2303TIP3   OH2 6785   4.644  -0.380   3.164
 2303TIP3    H1 6786   4.591  -0.307   3.124
 2303TIP3    H2 6787   4.691  -0.415   3.087
 2304TIP3   OH2 6788   4.809  -0.067   4.242
 2304TIP3    H1 6789   4.819  -0.019   4.159
 2304TIP3    H2 6790   4.902  -0.086   4.266
 2305TIP3   OH2 6791   4.798  -0.351   3.405
 2305TIP3    H1 6792   4.742  -0.319   3.331
 2305TIP3    H2 6793   4.833  -0.432   3.365
 2306TIP3   OH2 6794   4.089  -0.314   4.134
 2306TIP3    H1 6795   4.097  -0.252   4.208
 2306TIP3    H2 6796   4.045  -0.391   4.173
 2307TIP3   OH2 6797   4.817  -0.088   3.820
 2307TIP3    H1 6798   4.847  -0.162   3.763
 2307TIP3    H2 6799   4.770  -0.139   3.889
 2308TIP3   OH2 6800   3.904  -0.592   3.509
 2308TIP3    H1 6801   3.812  -0.575   3.478
 2308TIP3    H2 6802   3.916  -0.685   3.486
 2309TIP3   OH2 6803   4.196  -0.578   3.205
 2309TIP3    H1 6804   4.285  -0.594   3.170
 2309TIP3    H2 6805   4.141  -0.572   3.124
 2310TIP3   OH2 6806   4.022  -0.536   2.992
 2310TIP3    H1 6807   3.960  -0.598   2.953
 2310TIP3    H2 6808   4.075  -0.511   2.914
 2311TIP3   OH2 6809   5.136   1.118   3.921
 2311TIP3    H1 6810   5.135   1.144   3.828
 2311TIP3    H2 6811   5.215   1.167   3.954
 2312TIP3   OH2 6812   4.093   0.226   4.346
 2312TIP3    H1 6813   4.175   0.258   4.389
 2312TIP3    H2 6814   4.030   0.236   4.420
 2313TIP3   OH2 6815   4.561  -0.316   3.599
 2313TIP3    H1 6816   4.627  -0.357   3.542
 2313TIP3    H2 6817   4.563  -0.374   3.676
 2314TIP3   OH2 6818   4.520  -0.452   3.926
 2314TIP3    H1 6819   4.437  -0.405   3.909
 2314TIP3    H2 6820   4.581  -0.379   3.947
 2315TIP3   OH2 6821   4.270  -0.030   2.981
 2315TIP3    H1 6822   4.196  -0.093   2.973
 2315TIP3    H2 6823   4.256   0.005   3.073
 2316TIP3   OH2 6824   5.173   0.205   3.614
 2316TIP3    H1 6825   5.197   0.255   3.533
 2316TIP3    H2 6826   5.088   0.164   3.588
 2317TIP3   OH2 6827   4.672   0.290   3.982
 2317TIP3    H1 6828   4.690   0.273   4.075
 2317TIP3    H2 6829   4.635   0.381   3.983
 2318TIP3   OH2 6830   4.789  -0.492   2.944
 2318TIP3    H1 6831   4.887  -0.484   2.955
 2318TIP3    H2 6832   4.771  -0.415   2.887
 2319TIP3   OH2 6833   3.963  -0.012   3.660
 2319TIP3    H1 6834   4.001  -0.035   3.572
 2319TIP3    H2 6835   4.007  -0.076   3.717
 2320TIP3   OH2 6836   4.415   0.118   2.799
 2320TIP3    H1 6837   4.369   0.205   2.806
 2320TIP3    H2 6838   4.365   0.065   2.864
 2321TIP3   OH2 6839   3.835  -0.087   4.277
 2321TIP3    H1 6840   3.859  -0.105   4.370
 2321TIP3    H2 6841   3.765  -0.152   4.260
 2322TIP3   OH2 6842   4.555   0.029   4.306
 2322TIP3    H1 6843   4.494  -0.022   4.250
 2322TIP3    H2 6844   4.641  -0.010   4.279
 2323TIP3   OH2 6845   4.832   0.542   3.878
 2323TIP3    H1 6846   4.736   0.547   3.888
 2323TIP3    H2 6847   4.861   0.598   3.954
 2324TIP3   OH2 6848   5.240  -0.385   2.784
 2324TIP3    H1 6849   5.176  -0.430   2.724
 2324TIP3    H2 6850   5.242  -0.298   2.739
 2325TIP3   OH2 6851   5.459   0.473   3.867
 2325TIP3    H1 6852   5.361   0.471   3.857
 2325TIP3    H2 6853   5.485   0.446   3.776
 2326TIP3   OH2 6854   5.001   0.377   2.699
 2326TIP3    H1 6855   4.923   0.388   2.754
 2326TIP3    H2 6856   4.967   0.384   2.609
 2327TIP3   OH2 6857   4.938   0.068   3.534
 2327TIP3    H1 6858   4.844   0.045   3.543
 2327TIP3    H2 6859   4.972  -0.010   3.487
 2328TIP3   OH2 6860   4.065   0.296   3.285
 2328TIP3    H1 6861   4.070   0.377   3.231
 2328TIP3    H2 6862   3.970   0.284   3.291
 2329TIP3   OH2 6863   3.671  -0.354   3.027
 2329TIP3    H1 6864   3.726  -0.274   3.040
 2329TIP3    H2 6865   3.600  -0.337   3.089
 2330TIP3   OH2 6866   4.202   0.060   3.227
 2330TIP3    H1 6867   4.169   0.151   3.246
 2330TIP3    H2 6868   4.168   0.011   3.304
 2331TIP3   OH2 6869   4.333   0.640   3.753
 2331TIP3    H1 6870   4.373   0.713   3.701
 2331TIP3    H2 6871   4.411   0.608   3.801
 2332TIP3   OH2 6872   3.986   0.534   3.135
 2332TIP3    H1 6873   3.901   0.545   3.181
 2332TIP3    H2 6874   4.021   0.626   3.139
 2333TIP3   OH2 6875   4.722   0.273   3.712
 2333TIP3    H1 6876   4.716   0.272   3.810
 2333TIP3    H2 6877   4.804   0.223   3.698
 2334TIP3   OH2 6878   4.692   0.165   2.599
 2334TIP3    H1 6879   4.751   0.142   2.674
 2334TIP3    H2 6880   4.606   0.144   2.638
 2335TIP3   OH2 6881   4.971   0.808   3.760
 2335TIP3    H1 6882   4.890   0.755   3.750
 2335TIP3    H2 6883   4.958   0.875   3.688
 2336TIP3   OH2 6884   5.038   0.642   2.420
 2336TIP3    H1 6885   5.070   0.718   2.369
 2336TIP3    H2 6886   4.958   0.685   2.458
 2337TIP3   OH2 6887   4.852   0.102   2.816
 2337TIP3    H1 6888   4.851   0.032   2.884
 2337TIP3    H2 6889   4.949   0.107   2.797
 2338TIP3   OH2 6890   3.770   0.503   3.914
 2338TIP3    H1 6891   3.827   0.430   3.943
 2338TIP3    H2 6892   3.802   0.575   3.970
 2339TIP3   OH2 6893   4.058   0.147   2.593
 2339TIP3    H1 6894   4.081   0.055   2.570
 2339TIP3    H2 6895   4.042   0.139   2.689
 2340TIP3   OH2 6896   4.008   0.153   2.867
 2340TIP3    H1 6897   4.082   0.126   2.923
 2340TIP3    H2 6898   4.013   0.251   2.875
 2341TIP3   OH2 6899   3.769  -0.113   3.080
 2341TIP3    H1 6900   3.701  -0.069   3.135
 2341TIP3    H2 6901   3.777  -0.049   3.007
 2342TIP3   OH2 6902   4.270   0.347   2.810
 2342TIP3    H1 6903   4.187   0.381   2.849
 2342TIP3    H2 6904   4.301   0.426   2.763
 2343TIP3   OH2 6905   4.483  -0.592   3.228
 2343TIP3    H1 6906   4.528  -0.509   3.205
 2343TIP3    H2 6907   4.450  -0.574   3.317
 2344TIP3   OH2 6908   4.728  -0.270   3.991
 2344TIP3    H1 6909   4.757  -0.249   4.081
 2344TIP3    H2 6910   4.789  -0.343   3.970
 2345TIP3   OH2 6911   4.010   0.425   2.881
 2345TIP3    H1 6912   3.986   0.497   2.819
 2345TIP3    H2 6913   4.001   0.469   2.968
 2346TIP3   OH2 6914   5.022  -0.169   3.405
 2346TIP3    H1 6915   4.952  -0.235   3.417
 2346TIP3    H2 6916   5.098  -0.212   3.452
 2347TIP3   OH2 6917   3.735   0.068   2.869
 2347TIP3    H1 6918   3.805   0.136   2.877
 2347TIP3    H2 6919   3.781   0.005   2.810
 2348TIP3   OH2 6920   4.993   0.782   3.353
 2348TIP3    H1 6921   4.949   0.832   3.281
 2348TIP3    H2 6922   5.086   0.797   3.330
 2349TIP3   OH2 6923   3.605   0.266   3.266
 2349TIP3    H1 6924   3.532   0.302   3.318
 2349TIP3    H2 6925   3.588   0.308   3.178
 2350TIP3   OH2 6926   3.763   0.811   4.334
 2350TIP3    H1 6927   3.849   0.813   4.382
 2350TIP3    H2 6928   3.743   0.716   4.334
 2351TIP3   OH2 6929   4.244   0.776   4.379
 2351TIP3    H1 6930   4.339   0.762   4.387
 2351TIP3    H2 6931   4.222   0.718   4.304
 2352TIP3   OH2 6932   4.223   0.353   2.502
 2352TIP3    H1 6933   4.173   0.280   2.546
 2352TIP3    H2 6934   4.303   0.305   2.474
 2353TIP3   OH2 6935   4.884   0.681   4.111
 2353TIP3    H1 6936   4.876   0.613   4.181
 2353TIP3    H2 6937   4.962   0.733   4.141
 2354TIP3   OH2 6938   4.662   0.389   2.414
 2354TIP3    H1 6939   4.709   0.330   2.475
 2354TIP3    H2 6940   4.725   0.396   2.339
 2355TIP3   OH2 6941   3.893   0.210   4.540
 2355TIP3    H1 6942   3.910   0.115   4.529
 2355TIP3    H2 6943   3.806   0.220   4.494
 2356TIP3   OH2 6944   3.872  -0.133   2.748
 2356TIP3    H1 6945   3.938  -0.158   2.815
 2356TIP3    H2 6946   3.929  -0.132   2.667
 2357TIP3   OH2 6947   4.502   0.306   4.308
 2357TIP3    H1 6948   4.460   0.322   4.221
 2357TIP3    H2 6949   4.529   0.212   4.302
 2358TIP3   OH2 6950   4.369   0.061   2.533
 2358TIP3    H1 6951   4.381   0.078   2.629
 2358TIP3    H2 6952   4.372  -0.037   2.531
 2359TIP3   OH2 6953   4.994   0.309   3.914
 2359TIP3    H1 6954   5.068   0.354   3.869
 2359TIP3    H2 6955   4.923   0.376   3.903
 2360TIP3   OH2 6956   4.012  -0.059   4.522
 2360TIP3    H1 6957   4.094  -0.102   4.496
 2360TIP3    H2 6958   4.037  -0.024   4.610
 2361TIP3   OH2 6959   4.071  -0.227   2.946
 2361TIP3    H1 6960   4.057  -0.269   3.032
 2361TIP3    H2 6961   4.113  -0.300   2.895
 2362TIP3   OH2 6962   4.333  -0.125   4.156
 2362TIP3    H1 6963   4.251  -0.072   4.169
 2362TIP3    H2 6964   4.365  -0.093   4.070
 2363TIP3   OH2 6965   4.184  -0.433   2.792
 2363TIP3    H1 6966   4.177  -0.484   2.710
 2363TIP3    H2 6967   4.280  -0.414   2.794
 2364TIP3   OH2 6968   4.862   0.237   4.309
 2364TIP3    H1 6969   4.951   0.227   4.272
 2364TIP3    H2 6970   4.861   0.168   4.377
 2365TIP3   OH2 6971   5.001  -0.115   2.429
 2365TIP3    H1 6972   5.058  -0.124   2.350
 2365TIP3    H2 6973   4.962  -0.026   2.409
 2366TIP3   OH2 6974   4.465  -0.305   4.305
 2366TIP3    H1 6975   4.459  -0.393   4.264
 2366TIP3    H2 6976   4.398  -0.255   4.250
 2367TIP3   OH2 6977   4.533  -0.027   3.966
 2367TIP3    H1 6978   4.594  -0.024   3.892
 2367TIP3    H2 6979   4.466   0.038   3.938
 2368TIP3   OH2 6980   5.085  -0.072   4.375
 2368TIP3    H1 6981   5.133  -0.157   4.371
 2368TIP3    H2 6982   5.139  -0.016   4.320
 2369TIP3   OH2 6983   5.126   0.166   4.100
 2369TIP3    H1 6984   5.067   0.220   4.042
 2369TIP3    H2 6985   5.213   0.187   4.059
 2370TIP3   OH2 6986   4.322  -0.238   4.539
 2370TIP3    H1 6987   4.260  -0.313   4.534
 2370TIP3    H2 6988   4.377  -0.252   4.459
 2371TIP3   OH2 6989   4.826  -0.358   4.227
 2371TIP3    H1 6990   4.865  -0.329   4.310
 2371TIP3    H2 6991   4.731  -0.347   4.245
 2372TIP3   OH2 6992   3.983   0.620   2.688
 2372TIP3    H1 6993   4.081   0.620   2.679
 2372TIP3    H2 6994   3.960   0.678   2.613
 2373TIP3   OH2 6995   3.475   0.007   2.929
 2373TIP3    H1 6996   3.564   0.040   2.904
 2373TIP3    H2 6997   3.455  -0.052   2.855
 2374TIP3   OH2 6998   3.376   0.618   3.324
 2374TIP3    H1 6999   3.309   0.555   3.291
 2374TIP3    H2 7000   3.423   0.564   3.391
 2375TIP3   OH2 7001   3.516   0.474   3.509
 2375TIP3    H1 7002   3.506   0.401   3.572
 2375TIP3    H2 7003   3.569   0.536   3.564
 2376TIP3   OH2 7004   5.253   0.863   3.310
 2376TIP3    H1 7005   5.268   0.902   3.399
 2376TIP3    H2 7006   5.288   0.932   3.253
 2377TIP3   OH2 7007   5.273   0.894   3.592
 2377TIP3    H1 7008   5.231   0.805   3.589
 2377TIP3    H2 7009   5.346   0.876   3.652
 2378TIP3   OH2 7010   5.321   0.568   4.167
 2378TIP3    H1 7011   5.246   0.580   4.230
 2378TIP3    H2 7012   5.361   0.657   4.168
 2379TIP3   OH2 7013   5.135   0.076   2.785
 2379TIP3    H1 7014   5.193   0.150   2.758
 2379TIP3    H2 7015   5.182   0.041   2.864
 2380TIP3   OH2 7016   5.268  -0.052   2.991
 2380TIP3    H1 7017   5.198  -0.091   3.048
 2380TIP3    H2 7018   5.326  -0.009   3.056
 2381TIP3   OH2 7019   5.318   0.342   3.425
 2381TIP3    H1 7020   5.368   0.278   3.371
 2381TIP3    H2 7021   5.310   0.418   3.364
 2382TIP3   OH2 7022   5.150   0.642   3.619
 2382TIP3    H1 7023   5.079   0.688   3.669
 2382TIP3    H2 7024   5.100   0.596   3.549
 2383TIP3   OH2 7025   5.194  -0.148   2.631
 2383TIP3    H1 7026   5.124  -0.141   2.563
 2383TIP3    H2 7027   5.172  -0.070   2.686
 2384TIP3   OH2 7028   5.066  -0.475   2.592
 2384TIP3    H1 7029   5.076  -0.407   2.523
 2384TIP3    H2 7030   5.044  -0.550   2.536
 2385TIP3   OH2 7031   5.079  -0.190   3.138
 2385TIP3    H1 7032   5.087  -0.287   3.137
 2385TIP3    H2 7033   5.064  -0.173   3.234
 2386TIP3   OH2 7034   3.704  -0.124   3.886
 2386TIP3    H1 7035   3.703  -0.151   3.791
 2386TIP3    H2 7036   3.801  -0.118   3.901
 2387TIP3   OH2 7037   5.371   0.227   3.994
 2387TIP3    H1 7038   5.444   0.163   3.979
 2387TIP3    H2 7039   5.393   0.299   3.932
 2388TIP3   OH2 7040   5.559   0.027   4.004
 2388TIP3    H1 7041   5.488  -0.021   4.052
 2388TIP3    H2 7042   5.638  -0.018   4.038
 2389TIP3   OH2 7043   5.060  -0.475   2.985
 2389TIP3    H1 7044   5.109  -0.510   3.062
 2389TIP3    H2 7045   5.131  -0.442   2.927
 2390TIP3   OH2 7046   5.240  -0.272   3.531
 2390TIP3    H1 7047   5.329  -0.262   3.491
 2390TIP3    H2 7048   5.261  -0.249   3.624
 2391TIP3   OH2 7049   5.306  -0.151   3.774
 2391TIP3    H1 7050   5.224  -0.106   3.806
 2391TIP3    H2 7051   5.344  -0.080   3.717
 2392TIP3   OH2 7052   3.699  -0.462   3.965
 2392TIP3    H1 7053   3.745  -0.474   3.880
 2392TIP3    H2 7054   3.718  -0.369   3.983
 2393TIP3   OH2 7055   3.931   0.536   4.354
 2393TIP3    H1 7056   3.836   0.516   4.340
 2393TIP3    H2 7057   3.938   0.533   4.450
 2394TIP3   OH2 7058   4.106   0.575   3.900
 2394TIP3    H1 7059   4.060   0.651   3.861
 2394TIP3    H2 7060   4.193   0.588   3.857
 2395TIP3   OH2 7061   4.553   0.821   4.039
 2395TIP3    H1 7062   4.594   0.823   4.127
 2395TIP3    H2 7063   4.618   0.872   3.987
 2396TIP3   OH2 7064   4.732   0.972   3.898
 2396TIP3    H1 7065   4.804   0.923   3.855
 2396TIP3    H2 7066   4.783   1.030   3.959
 2397TIP3   OH2 7067   3.782   0.830   3.926
 2397TIP3    H1 7068   3.694   0.867   3.902
 2397TIP3    H2 7069   3.795   0.872   4.013
 2398TIP3   OH2 7070   4.019   0.810   3.783
 2398TIP3    H1 7071   3.933   0.824   3.826
 2398TIP3    H2 7072   4.002   0.844   3.693
 2399TIP3   OH2 7073   4.445   0.840   3.583
 2399TIP3    H1 7074   4.381   0.861   3.512
 2399TIP3    H2 7075   4.459   0.929   3.622
 2400TIP3   OH2 7076   4.715   0.780   3.631
 2400TIP3    H1 7077   4.620   0.798   3.612
 2400TIP3    H2 7078   4.758   0.855   3.588
 2401TIP3   OH2 7079   4.923   0.973   3.546
 2401TIP3    H1 7080   4.907   1.058   3.500
 2401TIP3    H2 7081   4.946   0.915   3.471
 2402TIP3   OH2 7082   3.693   0.626   3.670
 2402TIP3    H1 7083   3.722   0.603   3.761
 2402TIP3    H2 7084   3.766   0.584   3.619
 2403TIP3   OH2 7085   3.887   0.498   3.526
 2403TIP3    H1 7086   3.906   0.415   3.575
 2403TIP3    H2 7087   3.977   0.537   3.521
 2404TIP3   OH2 7088   4.150   0.593   3.531
 2404TIP3    H1 7089   4.187   0.504   3.516
 2404TIP3    H2 7090   4.197   0.617   3.613
 2405TIP3   OH2 7091   3.485   0.397   3.062
 2405TIP3    H1 7092   3.400   0.366   3.027
 2405TIP3    H2 7093   3.474   0.493   3.054
 2406TIP3   OH2 7094   4.254   0.589   2.645
 2406TIP3    H1 7095   4.344   0.610   2.613
 2406TIP3    H2 7096   4.234   0.514   2.585
 2407TIP3   OH2 7097   3.560   0.427   2.699
 2407TIP3    H1 7098   3.560   0.451   2.793
 2407TIP3    H2 7099   3.647   0.383   2.689
 2408TIP3   OH2 7100   5.202   0.851   3.921
 2408TIP3    H1 7101   5.122   0.820   3.874
 2408TIP3    H2 7102   5.183   0.947   3.926
 2409TIP3   OH2 7103   6.465   0.223   2.697
 2409TIP3    H1 7104   6.437   0.314   2.674
 2409TIP3    H2 7105   6.389   0.173   2.661
 2410TIP3   OH2 7106   6.459   0.223   3.072
 2410TIP3    H1 7107   6.498   0.193   3.156
 2410TIP3    H2 7108   6.420   0.141   3.038
 2411TIP3   OH2 7109   5.766   0.121   3.432
 2411TIP3    H1 7110   5.801   0.057   3.497
 2411TIP3    H2 7111   5.842   0.181   3.425
 2412TIP3   OH2 7112   6.706   0.524   2.753
 2412TIP3    H1 7113   6.697   0.455   2.819
 2412TIP3    H2 7114   6.737   0.600   2.806
 2413TIP3   OH2 7115   5.735   0.526   3.158
 2413TIP3    H1 7116   5.719   0.429   3.157
 2413TIP3    H2 7117   5.822   0.529   3.201
 2414TIP3   OH2 7118   5.435  -0.280   2.954
 2414TIP3    H1 7119   5.388  -0.196   2.967
 2414TIP3    H2 7120   5.373  -0.325   2.894
 2415TIP3   OH2 7121   5.509   0.019   3.120
 2415TIP3    H1 7122   5.556  -0.060   3.156
 2415TIP3    H2 7123   5.557   0.036   3.038
 2416TIP3   OH2 7124   6.353   0.985   2.768
 2416TIP3    H1 7125   6.398   0.913   2.719
 2416TIP3    H2 7126   6.358   0.955   2.859
 2417TIP3   OH2 7127   6.264   0.449   3.117
 2417TIP3    H1 7128   6.303   0.370   3.076
 2417TIP3    H2 7129   6.348   0.495   3.141
 2418TIP3   OH2 7130   6.677  -0.043   3.153
 2418TIP3    H1 7131   6.713  -0.129   3.179
 2418TIP3    H2 7132   6.648  -0.060   3.061
 2419TIP3   OH2 7133   5.650  -0.193   3.225
 2419TIP3    H1 7134   5.730  -0.218   3.276
 2419TIP3    H2 7135   5.665  -0.247   3.145
 2420TIP3   OH2 7136   6.089   0.011   3.020
 2420TIP3    H1 7137   6.180  -0.021   3.033
 2420TIP3    H2 7138   6.044  -0.071   2.990
 2421TIP3   OH2 7139   7.326  -0.048   3.304
 2421TIP3    H1 7140   7.263   0.023   3.283
 2421TIP3    H2 7141   7.371  -0.014   3.383
 2422TIP3   OH2 7142   6.352   0.438   2.562
 2422TIP3    H1 7143   6.317   0.424   2.473
 2422TIP3    H2 7144   6.316   0.526   2.584
 2423TIP3   OH2 7145   6.122   0.364   3.354
 2423TIP3    H1 7146   6.057   0.429   3.390
 2423TIP3    H2 7147   6.167   0.416   3.285
 2424TIP3   OH2 7148   5.891  -0.285   3.324
 2424TIP3    H1 7149   5.956  -0.216   3.344
 2424TIP3    H2 7150   5.927  -0.327   3.245
 2425TIP3   OH2 7151   5.940   0.559   3.434
 2425TIP3    H1 7152   5.920   0.652   3.409
 2425TIP3    H2 7153   5.865   0.542   3.495
 2426TIP3   OH2 7154   5.342   0.251   2.679
 2426TIP3    H1 7155   5.288   0.276   2.601
 2426TIP3    H2 7156   5.364   0.339   2.717
 2427TIP3   OH2 7157   6.779   0.766   2.921
 2427TIP3    H1 7158   6.688   0.759   2.959
 2427TIP3    H2 7159   6.773   0.852   2.875
 2428TIP3   OH2 7160   6.473   0.810   2.589
 2428TIP3    H1 7161   6.526   0.729   2.569
 2428TIP3    H2 7162   6.535   0.878   2.552
 2429TIP3   OH2 7163   6.619   0.596   2.501
 2429TIP3    H1 7164   6.599   0.515   2.453
 2429TIP3    H2 7165   6.657   0.562   2.585
 2430TIP3   OH2 7166   7.006   0.680   3.265
 2430TIP3    H1 7167   6.994   0.604   3.203
 2430TIP3    H2 7168   6.987   0.756   3.205
 2431TIP3   OH2 7169   6.298   0.078   2.522
 2431TIP3    H1 7170   6.212   0.123   2.508
 2431TIP3    H2 7171   6.328   0.070   2.430
 2432TIP3   OH2 7172   6.257  -0.066   2.260
 2432TIP3    H1 7173   6.339  -0.086   2.306
 2432TIP3    H2 7174   6.247  -0.145   2.203
 2433TIP3   OH2 7175   7.200   0.313   3.109
 2433TIP3    H1 7176   7.117   0.366   3.114
 2433TIP3    H2 7177   7.230   0.339   3.019
 2434TIP3   OH2 7178   6.648   0.161   2.507
 2434TIP3    H1 7179   6.596   0.185   2.587
 2434TIP3    H2 7180   6.734   0.134   2.547
 2435TIP3   OH2 7181   6.876   0.201   3.399
 2435TIP3    H1 7182   6.874   0.284   3.451
 2435TIP3    H2 7183   6.792   0.209   3.349
 2436TIP3   OH2 7184   5.881   0.157   2.907
 2436TIP3    H1 7185   5.833   0.099   2.843
 2436TIP3    H2 7186   5.952   0.098   2.938
 2437TIP3   OH2 7187   6.016   0.563   3.014
 2437TIP3    H1 7188   5.994   0.469   3.011
 2437TIP3    H2 7189   6.107   0.557   3.049
 2438TIP3   OH2 7190   6.019   0.120   3.268
 2438TIP3    H1 7191   6.048   0.097   3.177
 2438TIP3    H2 7192   6.063   0.206   3.283
 2439TIP3   OH2 7193   6.535   0.763   3.039
 2439TIP3    H1 7194   6.525   0.845   3.090
 2439TIP3    H2 7195   6.524   0.692   3.105
 2440TIP3   OH2 7196   6.149   0.681   3.585
 2440TIP3    H1 7197   6.092   0.744   3.634
 2440TIP3    H2 7198   6.082   0.628   3.539
 2441TIP3   OH2 7199   6.511   0.037   2.317
 2441TIP3    H1 7200   6.560   0.077   2.393
 2441TIP3    H2 7201   6.487   0.118   2.270
 2442TIP3   OH2 7202   5.889   0.247   3.685
 2442TIP3    H1 7203   5.896   0.330   3.736
 2442TIP3    H2 7204   5.795   0.224   3.701
 2443TIP3   OH2 7205   6.210   0.712   2.608
 2443TIP3    H1 7206   6.299   0.750   2.618
 2443TIP3    H2 7207   6.168   0.774   2.546
 2444TIP3   OH2 7208   5.945   0.848   3.674
 2444TIP3    H1 7209   5.906   0.850   3.585
 2444TIP3    H2 7210   5.867   0.828   3.730
 2445TIP3   OH2 7211   5.740   0.005   2.717
 2445TIP3    H1 7212   5.671   0.044   2.659
 2445TIP3    H2 7213   5.709  -0.086   2.727
 2446TIP3   OH2 7214   6.796   0.623   1.919
 2446TIP3    H1 7215   6.800   0.720   1.902
 2446TIP3    H2 7216   6.874   0.592   1.871
 2447TIP3   OH2 7217   5.523   0.382   3.620
 2447TIP3    H1 7218   5.456   0.362   3.552
 2447TIP3    H2 7219   5.557   0.294   3.644
 2448TIP3   OH2 7220   5.376   0.571   3.264
 2448TIP3    H1 7221   5.471   0.577   3.254
 2448TIP3    H2 7222   5.354   0.656   3.306
 2449TIP3   OH2 7223   7.244   1.025   3.311
 2449TIP3    H1 7224   7.240   0.929   3.323
 2449TIP3    H2 7225   7.160   1.052   3.355
 2450TIP3   OH2 7226   6.347   0.812   3.442
 2450TIP3    H1 7227   6.349   0.904   3.476
 2450TIP3    H2 7228   6.278   0.773   3.500
 2451TIP3   OH2 7229   6.108   0.935   2.401
 2451TIP3    H1 7230   6.068   0.919   2.313
 2451TIP3    H2 7231   6.078   1.025   2.422
 2452TIP3   OH2 7232   5.559   0.782   2.774
 2452TIP3    H1 7233   5.566   0.776   2.870
 2452TIP3    H2 7234   5.487   0.717   2.759
 2453TIP3   OH2 7235   6.309   0.842   2.038
 2453TIP3    H1 7236   6.369   0.774   2.000
 2453TIP3    H2 7237   6.346   0.851   2.128
 2454TIP3   OH2 7238   6.361   0.891   2.308
 2454TIP3    H1 7239   6.273   0.899   2.350
 2454TIP3    H2 7240   6.415   0.855   2.380
 2455TIP3   OH2 7241   7.136   0.152   3.600
 2455TIP3    H1 7242   7.063   0.188   3.547
 2455TIP3    H2 7243   7.153   0.067   3.557
 2456TIP3   OH2 7244   5.731   0.562   3.607
 2456TIP3    H1 7245   5.779   0.550   3.692
 2456TIP3    H2 7246   5.656   0.499   3.617
 2457TIP3   OH2 7247   6.805   0.017   3.599
 2457TIP3    H1 7248   6.849  -0.066   3.577
 2457TIP3    H2 7249   6.820   0.072   3.520
 2458TIP3   OH2 7250   6.068  -0.099   3.420
 2458TIP3    H1 7251   6.008  -0.078   3.494
 2458TIP3    H2 7252   6.053  -0.021   3.362
 2459TIP3   OH2 7253   5.930  -0.187   2.921
 2459TIP3    H1 7254   5.853  -0.239   2.952
 2459TIP3    H2 7255   5.953  -0.235   2.839
 2460TIP3   OH2 7256   6.433  -0.116   2.665
 2460TIP3    H1 7257   6.382  -0.045   2.620
 2460TIP3    H2 7258   6.483  -0.154   2.590
 2461TIP3   OH2 7259   6.606   0.200   3.702
 2461TIP3    H1 7260   6.584   0.153   3.786
 2461TIP3    H2 7261   6.702   0.186   3.701
 2462TIP3   OH2 7262   6.597  -0.094   2.893
 2462TIP3    H1 7263   6.535  -0.068   2.821
 2462TIP3    H2 7264   6.632  -0.177   2.856
 2463TIP3   OH2 7265   5.884  -0.057   3.620
 2463TIP3    H1 7266   5.893   0.002   3.697
 2463TIP3    H2 7267   5.840  -0.134   3.657
 2464TIP3   OH2 7268   6.606   0.158   3.318
 2464TIP3    H1 7269   6.633   0.082   3.261
 2464TIP3    H2 7270   6.572   0.112   3.396
 2465TIP3   OH2 7271   5.700  -0.335   2.995
 2465TIP3    H1 7272   5.606  -0.317   2.972
 2465TIP3    H2 7273   5.707  -0.429   2.977
 2466TIP3   OH2 7274   5.989  -0.316   2.687
 2466TIP3    H1 7275   6.077  -0.336   2.652
 2466TIP3    H2 7276   5.931  -0.323   2.608
 2467TIP3   OH2 7277   5.814  -0.310   2.469
 2467TIP3    H1 7278   5.732  -0.342   2.429
 2467TIP3    H2 7279   5.854  -0.261   2.395
 2468TIP3   OH2 7280   6.934   1.373   3.407
 2468TIP3    H1 7281   6.929   1.401   3.314
 2468TIP3    H2 7282   7.004   1.431   3.442
 2469TIP3   OH2 7283   5.890   0.485   3.831
 2469TIP3    H1 7284   5.971   0.515   3.878
 2469TIP3    H2 7285   5.826   0.489   3.904
 2470TIP3   OH2 7286   6.358  -0.057   3.089
 2470TIP3    H1 7287   6.418  -0.108   3.035
 2470TIP3    H2 7288   6.356  -0.109   3.171
 2471TIP3   OH2 7289   6.335  -0.176   3.394
 2471TIP3    H1 7290   6.247  -0.134   3.397
 2471TIP3    H2 7291   6.390  -0.116   3.448
 2472TIP3   OH2 7292   6.069   0.227   2.466
 2472TIP3    H1 7293   5.996   0.162   2.456
 2472TIP3    H2 7294   6.051   0.259   2.558
 2473TIP3   OH2 7295   6.970   0.461   3.100
 2473TIP3    H1 7296   6.994   0.511   3.019
 2473TIP3    H2 7297   6.884   0.421   3.074
 2474TIP3   OH2 7298   6.465   0.545   3.467
 2474TIP3    H1 7299   6.490   0.524   3.557
 2474TIP3    H2 7300   6.430   0.636   3.474
 2475TIP3   OH2 7301   6.584  -0.203   2.455
 2475TIP3    H1 7302   6.680  -0.214   2.474
 2475TIP3    H2 7303   6.583  -0.122   2.401
 2476TIP3   OH2 7304   5.769   0.254   3.146
 2476TIP3    H1 7305   5.800   0.217   3.062
 2476TIP3    H2 7306   5.793   0.184   3.209
 2477TIP3   OH2 7307   6.218   0.377   2.293
 2477TIP3    H1 7308   6.168   0.463   2.297
 2477TIP3    H2 7309   6.162   0.322   2.352
 2478TIP3   OH2 7310   5.634   0.168   3.761
 2478TIP3    H1 7311   5.655   0.152   3.855
 2478TIP3    H2 7312   5.562   0.104   3.746
 2479TIP3   OH2 7313   6.357   0.293   3.777
 2479TIP3    H1 7314   6.292   0.233   3.737
 2479TIP3    H2 7315   6.439   0.269   3.728
 2480TIP3   OH2 7316   6.627   0.799   3.363
 2480TIP3    H1 7317   6.531   0.804   3.375
 2480TIP3    H2 7318   6.657   0.853   3.440
 2481TIP3   OH2 7319   7.256   0.730   3.354
 2481TIP3    H1 7320   7.158   0.728   3.344
 2481TIP3    H2 7321   7.282   0.704   3.263
 2482TIP3   OH2 7322   6.723   0.696   2.177
 2482TIP3    H1 7323   6.729   0.626   2.243
 2482TIP3    H2 7324   6.760   0.654   2.097
 2483TIP3   OH2 7325   6.735   0.324   3.021
 2483TIP3    H1 7326   6.641   0.300   3.031
 2483TIP3    H2 7327   6.769   0.245   2.974
 2484TIP3   OH2 7328   5.447  -0.154   2.498
 2484TIP3    H1 7329   5.479  -0.062   2.501
 2484TIP3    H2 7330   5.355  -0.143   2.529
 2485TIP3   OH2 7331   6.004   0.312   2.712
 2485TIP3    H1 7332   6.002   0.400   2.751
 2485TIP3    H2 7333   5.967   0.256   2.783
 2486TIP3   OH2 7334   6.131   0.895   3.236
 2486TIP3    H1 7335   6.172   0.971   3.190
 2486TIP3    H2 7336   6.205   0.864   3.290
 2487TIP3   OH2 7337   6.517   0.530   3.198
 2487TIP3    H1 7338   6.509   0.530   3.296
 2487TIP3    H2 7339   6.599   0.480   3.185
 2488TIP3   OH2 7340   6.456   0.413   2.111
 2488TIP3    H1 7341   6.516   0.398   2.187
 2488TIP3    H2 7342   6.369   0.408   2.154
 2489TIP3   OH2 7343   6.768   1.063   3.247
 2489TIP3    H1 7344   6.687   1.009   3.238
 2489TIP3    H2 7345   6.754   1.130   3.176
 2490TIP3   OH2 7346   6.831   0.900   1.898
 2490TIP3    H1 7347   6.870   0.977   1.853
 2490TIP3    H2 7348   6.750   0.943   1.933
 2491TIP3   OH2 7349   6.639   0.349   2.304
 2491TIP3    H1 7350   6.645   0.291   2.381
 2491TIP3    H2 7351   6.734   0.353   2.280
 2492TIP3   OH2 7352   5.579   0.759   3.395
 2492TIP3    H1 7353   5.620   0.685   3.443
 2492TIP3    H2 7354   5.591   0.832   3.457
 2493TIP3   OH2 7355   5.861   0.403   2.080
 2493TIP3    H1 7356   5.865   0.311   2.048
 2493TIP3    H2 7357   5.836   0.390   2.174
 2494TIP3   OH2 7358   5.806   0.412   2.352
 2494TIP3    H1 7359   5.880   0.380   2.406
 2494TIP3    H2 7360   5.813   0.509   2.362
 2495TIP3   OH2 7361   5.542   0.110   2.555
 2495TIP3    H1 7362   5.474   0.152   2.612
 2495TIP3    H2 7363   5.553   0.179   2.487
 2496TIP3   OH2 7364   6.071   0.605   2.307
 2496TIP3    H1 7365   5.987   0.640   2.340
 2496TIP3    H2 7366   6.089   0.667   2.234
 2497TIP3   OH2 7367   6.279  -0.337   2.715
 2497TIP3    H1 7368   6.321  -0.250   2.699
 2497TIP3    H2 7369   6.239  -0.324   2.802
 2498TIP3   OH2 7370   6.522  -0.023   3.542
 2498TIP3    H1 7371   6.531   0.054   3.601
 2498TIP3    H2 7372   6.610  -0.062   3.550
 2499TIP3   OH2 7373   5.811   0.690   2.371
 2499TIP3    H1 7374   5.789   0.738   2.288
 2499TIP3    H2 7375   5.776   0.754   2.434
 2500TIP3   OH2 7376   6.818   0.087   2.892
 2500TIP3    H1 7377   6.746   0.022   2.905
 2500TIP3    H2 7378   6.893   0.044   2.939
 2501TIP3   OH2 7379   5.528   0.315   2.361
 2501TIP3    H1 7380   5.589   0.389   2.366
 2501TIP3    H2 7381   5.576   0.258   2.297
 2502TIP3   OH2 7382   5.449  -0.429   2.487
 2502TIP3    H1 7383   5.481  -0.336   2.488
 2502TIP3    H2 7384   5.354  -0.410   2.491
 2503TIP3   OH2 7385   6.787   1.036   2.841
 2503TIP3    H1 7386   6.745   1.084   2.766
 2503TIP3    H2 7387   6.882   1.056   2.821
 2504TIP3   OH2 7388   5.405   0.532   2.751
 2504TIP3    H1 7389   5.330   0.552   2.809
 2504TIP3    H2 7390   5.371   0.564   2.665
 2505TIP3   OH2 7391   5.560   1.067   3.820
 2505TIP3    H1 7392   5.645   1.070   3.869
 2505TIP3    H2 7393   5.539   0.972   3.822
 2506TIP3   OH2 7394   6.041   1.032   3.868
 2506TIP3    H1 7395   6.137   1.018   3.874
 2506TIP3    H2 7396   6.018   0.975   3.792
 2507TIP3   OH2 7397   6.018   0.615   2.004
 2507TIP3    H1 7398   5.969   0.535   2.032
 2507TIP3    H2 7399   6.096   0.576   1.959
 2508TIP3   OH2 7400   6.683   0.935   3.595
 2508TIP3    H1 7401   6.673   0.869   3.667
 2508TIP3    H2 7402   6.757   0.991   3.628
 2509TIP3   OH2 7403   6.464   0.656   1.913
 2509TIP3    H1 7404   6.530   0.608   1.965
 2509TIP3    H2 7405   6.508   0.661   1.825
 2510TIP3   OH2 7406   5.690   0.473   4.021
 2510TIP3    H1 7407   5.706   0.377   4.026
 2510TIP3    H2 7408   5.602   0.476   3.978
 2511TIP3   OH2 7409   5.666   0.129   2.220
 2511TIP3    H1 7410   5.722   0.092   2.289
 2511TIP3    H2 7411   5.727   0.127   2.143
 2512TIP3   OH2 7412   6.298   0.562   3.795
 2512TIP3    H1 7413   6.256   0.573   3.707
 2512TIP3    H2 7414   6.328   0.468   3.792
 2513TIP3   OH2 7415   6.170   0.316   2.024
 2513TIP3    H1 7416   6.169   0.325   2.121
 2513TIP3    H2 7417   6.147   0.223   2.010
 2514TIP3   OH2 7418   6.790   0.565   3.401
 2514TIP3    H1 7419   6.864   0.612   3.356
 2514TIP3    H2 7420   6.719   0.631   3.390
 2515TIP3   OH2 7421   5.808   0.201   4.005
 2515TIP3    H1 7422   5.885   0.146   3.986
 2515TIP3    H2 7423   5.832   0.236   4.093
 2516TIP3   OH2 7424   5.875   0.036   2.447
 2516TIP3    H1 7425   5.846  -0.008   2.529
 2516TIP3    H2 7426   5.908  -0.040   2.394
 2517TIP3   OH2 7427   6.140   0.144   3.651
 2517TIP3    H1 7428   6.053   0.189   3.661
 2517TIP3    H2 7429   6.161   0.160   3.558
 2518TIP3   OH2 7430   5.969  -0.163   2.285
 2518TIP3    H1 7431   5.963  -0.247   2.234
 2518TIP3    H2 7432   6.048  -0.122   2.248
 2519TIP3   OH2 7433   6.661   0.499   3.804
 2519TIP3    H1 7434   6.733   0.466   3.750
 2519TIP3    H2 7435   6.654   0.430   3.873
 2520TIP3   OH2 7436   6.252  -0.056   3.790
 2520TIP3    H1 7437   6.233  -0.140   3.743
 2520TIP3    H2 7438   6.217   0.011   3.728
 2521TIP3   OH2 7439   6.329   0.204   3.437
 2521TIP3    H1 7440   6.404   0.229   3.382
 2521TIP3    H2 7441   6.265   0.275   3.418
 2522TIP3   OH2 7442   6.884   0.178   3.866
 2522TIP3    H1 7443   6.923   0.091   3.850
 2522TIP3    H2 7444   6.945   0.238   3.821
 2523TIP3   OH2 7445   6.924   0.420   3.585
 2523TIP3    H1 7446   6.863   0.474   3.529
 2523TIP3    H2 7447   7.010   0.446   3.545
 2524TIP3   OH2 7448   6.122   0.020   4.025
 2524TIP3    H1 7449   6.059  -0.055   4.024
 2524TIP3    H2 7450   6.175   0.001   3.946
 2525TIP3   OH2 7451   6.572   0.047   3.912
 2525TIP3    H1 7452   6.521   0.028   3.993
 2525TIP3    H2 7453   6.594  -0.042   3.881
 2526TIP3   OH2 7454   5.783   0.878   2.177
 2526TIP3    H1 7455   5.879   0.883   2.159
 2526TIP3    H2 7456   5.750   0.928   2.100
 2527TIP3   OH2 7457   5.257   0.264   2.396
 2527TIP3    H1 7458   5.353   0.283   2.383
 2527TIP3    H2 7459   5.248   0.176   2.356
 2528TIP3   OH2 7460   5.164   0.868   2.804
 2528TIP3    H1 7461   5.076   0.824   2.799
 2528TIP3    H2 7462   5.210   0.812   2.869
 2529TIP3   OH2 7463   5.325   0.734   2.990
 2529TIP3    H1 7464   5.282   0.665   3.043
 2529TIP3    H2 7465   5.356   0.794   3.060
 2530TIP3   OH2 7466   7.039   1.129   2.798
 2530TIP3    H1 7467   7.067   1.166   2.884
 2530TIP3    H2 7468   7.099   1.174   2.736
 2531TIP3   OH2 7469   7.068   1.151   3.080
 2531TIP3    H1 7470   7.027   1.063   3.074
 2531TIP3    H2 7471   7.145   1.131   3.135
 2532TIP3   OH2 7472   7.118   0.825   3.655
 2532TIP3    H1 7473   7.043   0.835   3.717
 2532TIP3    H2 7474   7.157   0.914   3.656
 2533TIP3   OH2 7475   6.910   0.345   2.282
 2533TIP3    H1 7476   6.972   0.415   2.252
 2533TIP3    H2 7477   6.968   0.293   2.341
 2534TIP3   OH2 7478   7.058   0.198   2.476
 2534TIP3    H1 7479   6.992   0.159   2.536
 2534TIP3    H2 7480   7.123   0.238   2.537
 2535TIP3   OH2 7481   7.114   0.599   2.910
 2535TIP3    H1 7482   7.165   0.536   2.855
 2535TIP3    H2 7483   7.107   0.676   2.851
 2536TIP3   OH2 7484   6.946   0.898   3.106
 2536TIP3    H1 7485   6.876   0.945   3.155
 2536TIP3    H2 7486   6.895   0.853   3.036
 2537TIP3   OH2 7487   6.873   0.060   2.626
 2537TIP3    H1 7488   6.884  -0.035   2.621
 2537TIP3    H2 7489   6.859   0.075   2.723
 2538TIP3   OH2 7490   5.501   0.133   3.372
 2538TIP3    H1 7491   5.499   0.104   3.278
 2538TIP3    H2 7492   5.598   0.136   3.387
 2539TIP3   OH2 7493   7.168   0.484   3.479
 2539TIP3    H1 7494   7.241   0.421   3.464
 2539TIP3    H2 7495   7.190   0.557   3.419
 2540TIP3   OH2 7496   7.353   0.280   3.490
 2540TIP3    H1 7497   7.285   0.235   3.543
 2540TIP3    H2 7498   7.434   0.241   3.526
 2541TIP3   OH2 7499   7.038  -0.012   3.019
 2541TIP3    H1 7500   7.127  -0.004   2.979
 2541TIP3    H2 7501   7.057   0.006   3.112
 2542TIP3   OH2 7502   7.100   0.107   3.266
 2542TIP3    H1 7503   7.016   0.148   3.296
 2542TIP3    H2 7504   7.135   0.177   3.207
 2543TIP3   OH2 7505   5.494  -0.206   3.451
 2543TIP3    H1 7506   5.539  -0.218   3.366
 2543TIP3    H2 7507   5.514  -0.114   3.470
 2544TIP3   OH2 7508   6.623   0.993   2.458
 2544TIP3    H1 7509   6.674   0.980   2.375
 2544TIP3    H2 7510   6.676   1.062   2.501
 2545TIP3   OH2 7511   5.727   0.794   3.839
 2545TIP3    H1 7512   5.632   0.772   3.826
 2545TIP3    H2 7513   5.735   0.787   3.935
 2546TIP3   OH2 7514   5.905   0.828   3.383
 2546TIP3    H1 7515   5.854   0.905   3.350
 2546TIP3    H2 7516   5.991   0.848   3.342
 2547TIP3   OH2 7517   6.350   1.076   3.525
 2547TIP3    H1 7518   6.390   1.080   3.614
 2547TIP3    H2 7519   6.415   1.128   3.472
 2548TIP3   OH2 7520   6.526   1.225   3.379
 2548TIP3    H1 7521   6.602   1.177   3.342
 2548TIP3    H2 7522   6.574   1.282   3.444
 2549TIP3   OH2 7523   5.581   1.088   3.414
 2549TIP3    H1 7524   5.492   1.121   3.390
 2549TIP3    H2 7525   5.593   1.133   3.499
 2550TIP3   OH2 7526   5.811   1.059   3.263
 2550TIP3    H1 7527   5.729   1.076   3.314
 2550TIP3    H2 7528   5.793   1.107   3.180
 2551TIP3   OH2 7529   6.240   1.097   3.068
 2551TIP3    H1 7530   6.177   1.125   3.000
 2551TIP3    H2 7531   6.256   1.183   3.114
 2552TIP3   OH2 7532   6.511   1.035   3.115
 2552TIP3    H1 7533   6.416   1.055   3.099
 2552TIP3    H2 7534   6.554   1.114   3.080
 2553TIP3   OH2 7535   6.718   1.229   3.034
 2553TIP3    H1 7536   6.705   1.315   2.988
 2553TIP3    H2 7537   6.744   1.170   2.960
 2554TIP3   OH2 7538   5.501   0.888   3.156
 2554TIP3    H1 7539   5.515   0.865   3.250
 2554TIP3    H2 7540   5.570   0.835   3.115
 2555TIP3   OH2 7541   5.710   0.732   2.995
 2555TIP3    H1 7542   5.706   0.652   3.054
 2555TIP3    H2 7543   5.775   0.787   3.044
 2556TIP3   OH2 7544   5.958   0.840   3.009
 2556TIP3    H1 7545   6.009   0.757   3.019
 2556TIP3    H2 7546   5.993   0.888   3.088
 2557TIP3   OH2 7547   5.284   0.653   2.547
 2557TIP3    H1 7548   5.199   0.615   2.517
 2557TIP3    H2 7549   5.262   0.747   2.538
 2558TIP3   OH2 7550   6.053   0.851   2.133
 2558TIP3    H1 7551   6.141   0.871   2.095
 2558TIP3    H2 7552   6.029   0.775   2.075
 2559TIP3   OH2 7553   6.768   0.960   2.223
 2559TIP3    H1 7554   6.754   0.864   2.209
 2559TIP3    H2 7555   6.724   0.997   2.144
 2560TIP3   OH2 7556   5.356   0.686   2.186
 2560TIP3    H1 7557   5.345   0.706   2.280
 2560TIP3    H2 7558   5.443   0.642   2.182
 2561TIP3   OH2 7559   6.997   1.106   3.411
 2561TIP3    H1 7560   6.918   1.075   3.362
 2561TIP3    H2 7561   6.979   1.202   3.414
 2562TIP3   OH2 7562   8.222   0.477   2.553
 2562TIP3    H1 7563   8.284   0.457   2.625
 2562TIP3    H2 7564   8.210   0.392   2.509
 2563TIP3   OH2 7565   7.564   0.376   2.920
 2563TIP3    H1 7566   7.602   0.314   2.986
 2563TIP3    H2 7567   7.629   0.448   2.923
 2564TIP3   OH2 7568   7.533   0.785   2.652
 2564TIP3    H1 7569   7.523   0.688   2.658
 2564TIP3    H2 7570   7.629   0.793   2.636
 2565TIP3   OH2 7571   7.300   0.276   2.604
 2565TIP3    H1 7572   7.364   0.214   2.646
 2565TIP3    H2 7573   7.350   0.305   2.527
 2566TIP3   OH2 7574   8.146   1.247   2.252
 2566TIP3    H1 7575   8.215   1.183   2.225
 2566TIP3    H2 7576   8.126   1.219   2.342
 2567TIP3   OH2 7577   8.059   0.703   2.610
 2567TIP3    H1 7578   8.101   0.627   2.565
 2567TIP3    H2 7579   8.140   0.753   2.632
 2568TIP3   OH2 7580   7.466   0.099   2.729
 2568TIP3    H1 7581   7.542   0.063   2.781
 2568TIP3    H2 7582   7.461   0.032   2.658
 2569TIP3   OH2 7583   7.915   0.621   2.842
 2569TIP3    H1 7584   7.851   0.687   2.877
 2569TIP3    H2 7585   7.953   0.669   2.766
 2570TIP3   OH2 7586   7.684  -0.031   2.823
 2570TIP3    H1 7587   7.756   0.029   2.850
 2570TIP3    H2 7588   7.729  -0.095   2.767
 2571TIP3   OH2 7589   7.742   0.815   2.932
 2571TIP3    H1 7590   7.717   0.899   2.888
 2571TIP3    H2 7591   7.662   0.803   2.988
 2572TIP3   OH2 7592   7.084   0.544   2.190
 2572TIP3    H1 7593   7.130   0.521   2.109
 2572TIP3    H2 7594   7.147   0.607   2.229
 2573TIP3   OH2 7595   8.569   1.021   2.408
 2573TIP3    H1 7596   8.478   1.013   2.445
 2573TIP3    H2 7597   8.564   1.111   2.371
 2574TIP3   OH2 7598   8.340   1.093   2.144
 2574TIP3    H1 7599   8.352   1.000   2.116
 2574TIP3    H2 7600   8.380   1.143   2.070
 2575TIP3   OH2 7601   8.676   0.462   2.870
 2575TIP3    H1 7602   8.681   0.526   2.942
 2575TIP3    H2 7603   8.586   0.476   2.837
 2576TIP3   OH2 7604   7.668   0.431   2.417
 2576TIP3    H1 7605   7.616   0.422   2.334
 2576TIP3    H2 7606   7.734   0.361   2.402
 2577TIP3   OH2 7607   7.796   0.813   2.546
 2577TIP3    H1 7608   7.777   0.785   2.455
 2577TIP3    H2 7609   7.888   0.782   2.559
 2578TIP3   OH2 7610   7.823   0.379   2.752
 2578TIP3    H1 7611   7.840   0.385   2.658
 2578TIP3    H2 7612   7.855   0.467   2.784
 2579TIP3   OH2 7613   8.328   1.019   2.527
 2579TIP3    H1 7614   8.312   1.102   2.576
 2579TIP3    H2 7615   8.311   0.949   2.592
 2580TIP3   OH2 7616   7.947   0.938   3.074
 2580TIP3    H1 7617   7.888   1.001   3.120
 2580TIP3    H2 7618   7.880   0.886   3.024
 2581TIP3   OH2 7619   7.685   0.502   3.171
 2581TIP3    H1 7620   7.693   0.587   3.220
 2581TIP3    H2 7621   7.591   0.480   3.189
 2582TIP3   OH2 7622   7.963   0.991   2.129
 2582TIP3    H1 7623   8.056   1.016   2.130
 2582TIP3    H2 7624   7.926   1.051   2.062
 2583TIP3   OH2 7625   7.742   1.108   3.161
 2583TIP3    H1 7626   7.707   1.107   3.070
 2583TIP3    H2 7627   7.663   1.085   3.214
 2584TIP3   OH2 7628   7.319   0.638   3.108
 2584TIP3    H1 7629   7.254   0.620   3.037
 2584TIP3    H2 7630   7.354   0.549   3.129
 2585TIP3   OH2 7631   7.175   0.828   2.747
 2585TIP3    H1 7632   7.270   0.827   2.731
 2585TIP3    H2 7633   7.164   0.912   2.794
 2586TIP3   OH2 7634   8.147   1.066   2.932
 2586TIP3    H1 7635   8.146   1.159   2.963
 2586TIP3    H2 7636   8.074   1.028   2.986
 2587TIP3   OH2 7637   7.903   1.200   1.885
 2587TIP3    H1 7638   7.835   1.173   1.822
 2587TIP3    H2 7639   7.875   1.289   1.912
 2588TIP3   OH2 7640   7.343   1.048   2.266
 2588TIP3    H1 7641   7.392   1.038   2.351
 2588TIP3    H2 7642   7.290   0.966   2.268
 2589TIP3   OH2 7643   8.161   1.152   1.823
 2589TIP3    H1 7644   8.068   1.177   1.842
 2589TIP3    H2 7645   8.148   1.061   1.793
 2590TIP3   OH2 7646   7.526   0.819   3.097
 2590TIP3    H1 7647   7.575   0.804   3.181
 2590TIP3    H2 7648   7.451   0.757   3.105
 2591TIP3   OH2 7649   7.858   0.159   2.908
 2591TIP3    H1 7650   7.800   0.184   2.983
 2591TIP3    H2 7651   7.847   0.237   2.849
 2592TIP3   OH2 7652   8.421   0.439   3.185
 2592TIP3    H1 7653   8.391   0.397   3.269
 2592TIP3    H2 7654   8.513   0.456   3.209
 2593TIP3   OH2 7655   7.679   0.200   3.111
 2593TIP3    H1 7656   7.688   0.259   3.187
 2593TIP3    H2 7657   7.636   0.122   3.148
 2594TIP3   OH2 7658   8.389   0.402   2.788
 2594TIP3    H1 7659   8.442   0.324   2.770
 2594TIP3    H2 7660   8.355   0.377   2.876
 2595TIP3   OH2 7661   8.722   1.638   2.892
 2595TIP3    H1 7662   8.724   1.656   2.796
 2595TIP3    H2 7663   8.792   1.696   2.924
 2596TIP3   OH2 7664   7.687   0.740   3.318
 2596TIP3    H1 7665   7.767   0.772   3.364
 2596TIP3    H2 7666   7.622   0.744   3.391
 2597TIP3   OH2 7667   8.116   0.064   2.920
 2597TIP3    H1 7668   8.041   0.116   2.887
 2597TIP3    H2 7669   8.183   0.133   2.934
 2598TIP3   OH2 7670   8.272   0.805   2.956
 2598TIP3    H1 7671   8.281   0.781   3.049
 2598TIP3    H2 7672   8.228   0.891   2.960
 2599TIP3   OH2 7673   7.550   0.508   2.650
 2599TIP3    H1 7674   7.589   0.485   2.563
 2599TIP3    H2 7675   7.583   0.436   2.706
 2600TIP3   OH2 7676   7.431   0.423   3.248
 2600TIP3    H1 7677   7.452   0.408   3.342
 2600TIP3    H2 7678   7.359   0.360   3.233
 2601TIP3   OH2 7679   8.159   0.545   3.261
 2601TIP3    H1 7680   8.089   0.488   3.224
 2601TIP3    H2 7681   8.237   0.518   3.209
 2602TIP3   OH2 7682   8.424   1.055   2.852
 2602TIP3    H1 7683   8.328   1.058   2.863
 2602TIP3    H2 7684   8.453   1.111   2.927
 2603TIP3   OH2 7685   7.657   0.807   2.264
 2603TIP3    H1 7686   7.670   0.885   2.206
 2603TIP3    H2 7687   7.562   0.794   2.254
 2604TIP3   OH2 7688   7.835   0.581   2.246
 2604TIP3    H1 7689   7.800   0.668   2.218
 2604TIP3    H2 7690   7.764   0.550   2.303
 2605TIP3   OH2 7691   7.926   1.153   2.727
 2605TIP3    H1 7692   7.963   1.226   2.675
 2605TIP3    H2 7693   8.004   1.122   2.775
 2606TIP3   OH2 7694   7.582   1.048   2.113
 2606TIP3    H1 7695   7.494   1.055   2.154
 2606TIP3    H2 7696   7.612   1.141   2.115
 2607TIP3   OH2 7697   8.312   0.788   2.687
 2607TIP3    H1 7698   8.304   0.790   2.785
 2607TIP3    H2 7699   8.395   0.741   2.675
 2608TIP3   OH2 7700   8.552   1.318   2.734
 2608TIP3    H1 7701   8.469   1.269   2.718
 2608TIP3    H2 7702   8.547   1.385   2.663
 2609TIP3   OH2 7703   7.364   1.017   2.887
 2609TIP3    H1 7704   7.418   0.942   2.916
 2609TIP3    H2 7705   7.394   1.087   2.946
 2610TIP3   OH2 7706   8.338   0.240   3.009
 2610TIP3    H1 7707   8.345   0.311   3.076
 2610TIP3    H2 7708   8.378   0.166   3.056
 2611TIP3   OH2 7709   7.550   0.945   1.849
 2611TIP3    H1 7710   7.561   1.027   1.798
 2611TIP3    H2 7711   7.578   0.970   1.938
 2612TIP3   OH2 7712   8.606   1.300   2.338
 2612TIP3    H1 7713   8.559   1.347   2.264
 2612TIP3    H2 7714   8.680   1.257   2.290
 2613TIP3   OH2 7715   7.209   0.798   2.242
 2613TIP3    H1 7716   7.126   0.815   2.288
 2613TIP3    H2 7717   7.185   0.826   2.151
 2614TIP3   OH2 7718   7.354   1.323   3.308
 2614TIP3    H1 7719   7.441   1.322   3.354
 2614TIP3    H2 7720   7.333   1.228   3.306
 2615TIP3   OH2 7721   7.838   1.290   3.352
 2615TIP3    H1 7722   7.932   1.271   3.359
 2615TIP3    H2 7723   7.813   1.232   3.278
 2616TIP3   OH2 7724   8.479   1.193   3.085
 2616TIP3    H1 7725   8.467   1.124   3.154
 2616TIP3    H2 7726   8.552   1.246   3.121
 2617TIP3   OH2 7727   7.486   0.731   3.509
 2617TIP3    H1 7728   7.502   0.635   3.514
 2617TIP3    H2 7729   7.398   0.734   3.465
 2618TIP3   OH2 7730   8.095   0.817   3.282
 2618TIP3    H1 7731   8.050   0.831   3.196
 2618TIP3    H2 7732   8.125   0.724   3.277
 2619TIP3   OH2 7733   8.591   0.824   2.881
 2619TIP3    H1 7734   8.640   0.876   2.815
 2619TIP3    H2 7735   8.511   0.879   2.887
 2620TIP3   OH2 7736   7.603   0.455   3.493
 2620TIP3    H1 7737   7.681   0.403   3.473
 2620TIP3    H2 7738   7.628   0.492   3.580
 2621TIP3   OH2 7739   7.937   0.400   3.139
 2621TIP3    H1 7740   7.849   0.445   3.149
 2621TIP3    H2 7741   7.959   0.418   3.046
 2622TIP3   OH2 7742   8.454   0.752   3.289
 2622TIP3    H1 7743   8.536   0.729   3.245
 2622TIP3    H2 7744   8.450   0.687   3.361
 2623TIP3   OH2 7745   8.048   0.199   3.277
 2623TIP3    H1 7746   8.028   0.115   3.230
 2623TIP3    H2 7747   8.010   0.265   3.215
 2624TIP3   OH2 7748   8.125   0.467   2.926
 2624TIP3    H1 7749   8.193   0.489   2.861
 2624TIP3    H2 7750   8.057   0.534   2.905
 2625TIP3   OH2 7751   8.674   0.432   3.335
 2625TIP3    H1 7752   8.723   0.349   3.338
 2625TIP3    H2 7753   8.744   0.498   3.319
 2626TIP3   OH2 7754   8.736   0.688   3.066
 2626TIP3    H1 7755   8.668   0.736   3.012
 2626TIP3    H2 7756   8.815   0.707   3.012
 2627TIP3   OH2 7757   7.915   0.277   3.510
 2627TIP3    H1 7758   7.854   0.201   3.509
 2627TIP3    H2 7759   7.971   0.257   3.433
 2628TIP3   OH2 7760   8.360   0.304   3.403
 2628TIP3    H1 7761   8.313   0.293   3.487
 2628TIP3    H2 7762   8.375   0.211   3.379
 2629TIP3   OH2 7763   7.590   1.158   1.670
 2629TIP3    H1 7764   7.644   1.236   1.685
 2629TIP3    H2 7765   7.536   1.191   1.596
 2630TIP3   OH2 7766   6.972   1.134   2.297
 2630TIP3    H1 7767   6.904   1.071   2.263
 2630TIP3    H2 7768   7.017   1.078   2.363
 2631TIP3   OH2 7769   7.105   0.990   2.486
 2631TIP3    H1 7770   7.098   0.913   2.544
 2631TIP3    H2 7771   7.160   1.050   2.541
 2632TIP3   OH2 7772   8.723   1.116   2.625
 2632TIP3    H1 7773   8.656   1.176   2.661
 2632TIP3    H2 7774   8.676   1.074   2.550
 2633TIP3   OH2 7775   7.297   0.387   2.860
 2633TIP3    H1 7776   7.292   0.363   2.765
 2633TIP3    H2 7777   7.395   0.391   2.871
 2634TIP3   OH2 7778   7.292   0.052   2.941
 2634TIP3    H1 7779   7.345   0.050   2.859
 2634TIP3    H2 7780   7.302   0.145   2.966
 2635TIP3   OH2 7781   8.458   1.236   1.937
 2635TIP3    H1 7782   8.447   1.243   1.840
 2635TIP3    H2 7783   8.452   1.329   1.963
 2636TIP3   OH2 7784   7.523   1.053   3.328
 2636TIP3    H1 7785   7.430   1.030   3.311
 2636TIP3    H2 7786   7.529   1.041   3.423
 2637TIP3   OH2 7787   7.700   1.088   2.876
 2637TIP3    H1 7788   7.650   1.163   2.836
 2637TIP3    H2 7789   7.785   1.103   2.830
 2638TIP3   OH2 7790   8.145   1.332   3.012
 2638TIP3    H1 7791   8.186   1.335   3.101
 2638TIP3    H2 7792   8.211   1.384   2.960
 2639TIP3   OH2 7793   8.324   1.484   2.872
 2639TIP3    H1 7794   8.396   1.436   2.828
 2639TIP3    H2 7795   8.375   1.542   2.933
 2640TIP3   OH2 7796   7.376   1.345   2.900
 2640TIP3    H1 7797   7.288   1.380   2.873
 2640TIP3    H2 7798   7.382   1.382   2.988
 2641TIP3   OH2 7799   7.613   1.324   2.757
 2641TIP3    H1 7800   7.526   1.338   2.801
 2641TIP3    H2 7801   7.594   1.358   2.667
 2642TIP3   OH2 7802   8.039   1.354   2.553
 2642TIP3    H1 7803   7.969   1.373   2.486
 2642TIP3    H2 7804   8.051   1.443   2.592
 2643TIP3   OH2 7805   8.305   1.292   2.605
 2643TIP3    H1 7806   8.210   1.310   2.585
 2643TIP3    H2 7807   8.348   1.368   2.563
 2644TIP3   OH2 7808   8.512   1.482   2.525
 2644TIP3    H1 7809   8.494   1.569   2.481
 2644TIP3    H2 7810   8.542   1.428   2.449
 2645TIP3   OH2 7811   7.286   1.140   2.644
 2645TIP3    H1 7812   7.314   1.115   2.735
 2645TIP3    H2 7813   7.358   1.098   2.592
 2646TIP3   OH2 7814   7.480   1.013   2.501
 2646TIP3    H1 7815   7.498   0.928   2.548
 2646TIP3    H2 7816   7.570   1.051   2.494
 2647TIP3   OH2 7817   7.744   1.110   2.502
 2647TIP3    H1 7818   7.779   1.023   2.479
 2647TIP3    H2 7819   7.789   1.126   2.587
 2648TIP3   OH2 7820   7.075   0.908   2.033
 2648TIP3    H1 7821   6.987   0.880   2.001
 2648TIP3    H2 7822   7.067   1.004   2.022
 2649TIP3   OH2 7823   7.171   0.966   1.697
 2649TIP3    H1 7824   7.148   1.002   1.784
 2649TIP3    H2 7825   7.248   0.909   1.719
 2650TIP3   OH2 7826   8.762   1.368   2.909
 2650TIP3    H1 7827   8.696   1.328   2.849
 2650TIP3    H2 7828   8.739   1.463   2.899
 2651TIP3   OH2 7829   0.955   1.553   3.940
 2651TIP3    H1 7830   0.954   1.498   4.019
 2651TIP3    H2 7831   0.986   1.638   3.976
 2652TIP3   OH2 7832   0.600   2.029   3.944
 2652TIP3    H1 7833   0.647   1.958   3.894
 2652TIP3    H2 7834   0.601   1.993   4.033
 2653TIP3   OH2 7835   0.515   1.491   4.317
 2653TIP3    H1 7836   0.527   1.443   4.234
 2653TIP3    H2 7837   0.605   1.526   4.333
 2654TIP3   OH2 7838   1.525   0.813   4.296
 2654TIP3    H1 7839   1.555   0.895   4.338
 2654TIP3    H2 7840   1.547   0.830   4.203
 2655TIP3   OH2 7841   1.599   1.020   4.466
 2655TIP3    H1 7842   1.517   1.070   4.447
 2655TIP3    H2 7843   1.617   1.050   4.556
 2656TIP3   OH2 7844   0.369   1.412   4.537
 2656TIP3    H1 7845   0.303   1.478   4.563
 2656TIP3    H2 7846   0.411   1.453   4.458
 2657TIP3   OH2 7847   0.188   1.608   4.622
 2657TIP3    H1 7848   0.164   1.697   4.589
 2657TIP3    H2 7849   0.109   1.586   4.675
 2658TIP3   OH2 7850   1.028   1.812   4.094
 2658TIP3    H1 7851   0.939   1.803   4.135
 2658TIP3    H2 7852   1.021   1.900   4.053
 2659TIP3   OH2 7853   1.318   0.710   4.456
 2659TIP3    H1 7854   1.241   0.768   4.446
 2659TIP3    H2 7855   1.379   0.743   4.386
 2660TIP3   OH2 7856   0.745   1.855   3.787
 2660TIP3    H1 7857   0.818   1.792   3.787
 2660TIP3    H2 7858   0.780   1.924   3.726
 2661TIP3   OH2 7859   1.254   1.727   4.441
 2661TIP3    H1 7860   1.244   1.649   4.382
 2661TIP3    H2 7861   1.238   1.801   4.379
 2662TIP3   OH2 7862   1.449   1.360   4.284
 2662TIP3    H1 7863   1.367   1.414   4.290
 2662TIP3    H2 7864   1.479   1.385   4.194
 2663TIP3   OH2 7865   1.134   1.245   4.580
 2663TIP3    H1 7866   1.128   1.327   4.632
 2663TIP3    H2 7867   1.045   1.243   4.539
 2664TIP3   OH2 7868   0.788   1.807   4.218
 2664TIP3    H1 7869   0.775   1.887   4.271
 2664TIP3    H2 7870   0.773   1.735   4.281
 2665TIP3   OH2 7871   0.400   1.728   4.762
 2665TIP3    H1 7872   0.339   1.789   4.809
 2665TIP3    H2 7873   0.336   1.672   4.713
 2666TIP3   OH2 7874   0.150   1.289   4.850
 2666TIP3    H1 7875   0.149   1.371   4.902
 2666TIP3    H2 7876   0.057   1.268   4.839
 2667TIP3   OH2 7877   0.192   1.893   4.852
 2667TIP3    H1 7878   0.158   1.897   4.761
 2667TIP3    H2 7879   0.111   1.875   4.904
 2668TIP3   OH2 7880   1.491   2.069   4.484
 2668TIP3    H1 7881   1.490   1.973   4.499
 2668TIP3    H2 7882   1.409   2.095   4.531
 2669TIP3   OH2 7883   0.595   1.858   4.619
 2669TIP3    H1 7884   0.597   1.950   4.653
 2669TIP3    H2 7885   0.525   1.818   4.675
 2670TIP3   OH2 7886   1.382   1.202   4.759
 2670TIP3    H1 7887   1.299   1.213   4.711
 2670TIP3    H2 7888   1.395   1.105   4.754
 2671TIP3   OH2 7889  -0.031   1.592   4.793
 2671TIP3    H1 7890   0.031   1.593   4.868
 2671TIP3    H2 7891  -0.106   1.542   4.831
 2672TIP3   OH2 7892   0.911   0.558   4.772
 2672TIP3    H1 7893   0.991   0.524   4.817
 2672TIP3    H2 7894   0.841   0.537   4.835
 2673TIP3   OH2 7895   1.157   0.980   4.683
 2673TIP3    H1 7896   1.105   0.969   4.766
 2673TIP3    H2 7897   1.123   1.064   4.649
 2674TIP3   OH2 7898   0.860   1.210   4.927
 2674TIP3    H1 7899   0.842   1.131   4.983
 2674TIP3    H2 7900   0.956   1.218   4.940
 2675TIP3   OH2 7901   0.877   1.203   4.484
 2675TIP3    H1 7902   0.870   1.124   4.430
 2675TIP3    H2 7903   0.844   1.166   4.569
 2676TIP3   OH2 7904   1.181   2.421   4.585
 2676TIP3    H1 7905   1.180   2.444   4.490
 2676TIP3    H2 7906   1.259   2.470   4.617
 2677TIP3   OH2 7907   0.141   1.543   5.007
 2677TIP3    H1 7908   0.228   1.582   5.028
 2677TIP3    H2 7909   0.123   1.504   5.094
 2678TIP3   OH2 7910   1.219   1.510   4.275
 2678TIP3    H1 7911   1.247   1.560   4.195
 2678TIP3    H2 7912   1.132   1.474   4.248
 2679TIP3   OH2 7913   0.727   1.598   4.638
 2679TIP3    H1 7914   0.733   1.558   4.726
 2679TIP3    H2 7915   0.677   1.679   4.654
 2680TIP3   OH2 7916   0.611   1.329   4.957
 2680TIP3    H1 7917   0.549   1.271   4.909
 2680TIP3    H2 7918   0.697   1.294   4.927
 2681TIP3   OH2 7919   0.877   1.854   4.535
 2681TIP3    H1 7920   0.781   1.846   4.552
 2681TIP3    H2 7921   0.905   1.903   4.616
 2682TIP3   OH2 7922   1.505   1.779   4.529
 2682TIP3    H1 7923   1.407   1.774   4.521
 2682TIP3    H2 7924   1.530   1.749   4.439
 2683TIP3   OH2 7925   0.982   1.383   4.194
 2683TIP3    H1 7926   0.901   1.362   4.241
 2683TIP3    H2 7927   1.018   1.292   4.181
 2684TIP3   OH2 7928   0.380   1.936   4.423
 2684TIP3    H1 7929   0.418   2.009   4.370
 2684TIP3    H2 7930   0.458   1.904   4.470
 2685TIP3   OH2 7931   0.776   1.567   4.374
 2685TIP3    H1 7932   0.758   1.575   4.471
 2685TIP3    H2 7933   0.867   1.536   4.376
 2686TIP3   OH2 7934   1.016   2.110   4.426
 2686TIP3    H1 7935   0.938   2.052   4.420
 2686TIP3    H2 7936   0.999   2.173   4.353
 2687TIP3   OH2 7937  -0.188   1.793   4.603
 2687TIP3    H1 7938  -0.125   1.724   4.626
 2687TIP3    H2 7939  -0.148   1.872   4.640
 2688TIP3   OH2 7940   0.934   0.788   4.620
 2688TIP3    H1 7941   1.014   0.821   4.664
 2688TIP3    H2 7942   0.919   0.703   4.666
 2689TIP3   OH2 7943   0.806   1.055   4.693
 2689TIP3    H1 7944   0.795   1.091   4.782
 2689TIP3    H2 7945   0.821   0.961   4.708
 2690TIP3   OH2 7946   1.421   0.931   4.683
 2690TIP3    H1 7947   1.323   0.932   4.690
 2690TIP3    H2 7948   1.432   0.904   4.591
 2691TIP3   OH2 7949   1.041   1.121   4.153
 2691TIP3    H1 7950   0.994   1.043   4.123
 2691TIP3    H2 7951   1.131   1.084   4.170
 2692TIP3   OH2 7952   1.035   2.082   4.017
 2692TIP3    H1 7953   0.993   2.133   3.943
 2692TIP3    H2 7954   1.129   2.103   3.998
 2693TIP3   OH2 7955  -0.176   2.120   4.978
 2693TIP3    H1 7956  -0.099   2.126   5.038
 2693TIP3    H2 7957  -0.204   2.029   4.993
 2694TIP3   OH2 7958   0.290   2.080   5.041
 2694TIP3    H1 7959   0.384   2.060   5.052
 2694TIP3    H2 7960   0.267   2.020   4.967
 2695TIP3   OH2 7961   0.930   1.982   4.774
 2695TIP3    H1 7962   0.919   1.913   4.843
 2695TIP3    H2 7963   1.006   2.033   4.806
 2696TIP3   OH2 7964   0.545   1.601   4.970
 2696TIP3    H1 7965   0.506   1.616   4.882
 2696TIP3    H2 7966   0.577   1.508   4.965
 2697TIP3   OH2 7967   1.039   1.607   4.572
 2697TIP3    H1 7968   1.111   1.658   4.533
 2697TIP3    H2 7969   0.966   1.671   4.569
 2698TIP3   OH2 7970   0.397   1.152   4.854
 2698TIP3    H1 7971   0.308   1.192   4.843
 2698TIP3    H2 7972   0.440   1.174   4.768
 2699TIP3   OH2 7973   0.911   1.542   4.977
 2699TIP3    H1 7974   0.989   1.515   4.928
 2699TIP3    H2 7975   0.904   1.471   5.044
 2700TIP3   OH2 7976   0.552   0.941   4.953
 2700TIP3    H1 7977   0.494   0.871   4.916
 2700TIP3    H2 7978   0.494   1.018   4.933
 2701TIP3   OH2 7979   0.555   1.256   4.656
 2701TIP3    H1 7980   0.624   1.248   4.590
 2701TIP3    H2 7981   0.490   1.315   4.611
 2702TIP3   OH2 7982   1.128   1.216   5.029
 2702TIP3    H1 7983   1.175   1.132   5.042
 2702TIP3    H2 7984   1.199   1.273   4.997
 2703TIP3   OH2 7985   1.169   1.469   4.765
 2703TIP3    H1 7986   1.111   1.520   4.704
 2703TIP3    H2 7987   1.257   1.488   4.724
 2704TIP3   OH2 7988   0.799   0.982   5.060
 2704TIP3    H1 7989   0.789   0.980   5.156
 2704TIP3    H2 7990   0.707   0.963   5.028
 2705TIP3   OH2 7991   1.024   0.927   4.910
 2705TIP3    H1 7992   0.947   0.934   4.970
 2705TIP3    H2 7993   1.095   0.897   4.970
 2706TIP3   OH2 7994   1.251   0.869   5.064
 2706TIP3    H1 7995   1.260   0.774   5.084
 2706TIP3    H2 7996   1.242   0.910   5.153
 2707TIP3   OH2 7997   1.285   2.177   3.973
 2707TIP3    H1 7998   1.316   2.215   4.058
 2707TIP3    H2 7999   1.352   2.210   3.911
 2708TIP3   OH2 8000   1.319   2.196   4.258
 2708TIP3    H1 8001   1.275   2.109   4.251
 2708TIP3    H2 8002   1.392   2.173   4.318
 2709TIP3   OH2 8003   1.364   1.872   4.829
 2709TIP3    H1 8004   1.291   1.880   4.894
 2709TIP3    H2 8005   1.405   1.960   4.834
 2710TIP3   OH2 8006   1.315   1.252   3.640
 2710TIP3    H1 8007   1.258   1.209   3.704
 2710TIP3    H2 8008   1.388   1.287   3.695
 2711TIP3   OH2 8009   1.361   1.643   4.085
 2711TIP3    H1 8010   1.415   1.579   4.034
 2711TIP3    H2 8011   1.358   1.720   4.024
 2712TIP3   OH2 8012   1.194   1.945   4.280
 2712TIP3    H1 8013   1.123   1.987   4.332
 2712TIP3    H2 8014   1.144   1.897   4.211
 2713TIP3   OH2 8015   1.412   1.533   4.656
 2713TIP3    H1 8016   1.485   1.468   4.648
 2713TIP3    H2 8017   1.441   1.603   4.595
 2714TIP3   OH2 8018   1.598   1.340   4.674
 2714TIP3    H1 8019   1.523   1.290   4.713
 2714TIP3    H2 8020   1.670   1.275   4.688
 2715TIP3   OH2 8021   1.285   1.009   4.194
 2715TIP3    H1 8022   1.371   1.028   4.150
 2715TIP3    H2 8023   1.306   1.042   4.283
 2716TIP3   OH2 8024   1.351   1.144   4.426
 2716TIP3    H1 8025   1.274   1.178   4.475
 2716TIP3    H2 8026   1.382   1.225   4.380
 2717TIP3   OH2 8027   1.803   0.734   4.979
 2717TIP3    H1 8028   1.860   0.668   4.935
 2717TIP3    H2 8029   1.773   0.789   4.904
 2718TIP3   OH2 8030   1.674   0.874   4.786
 2718TIP3    H1 8031   1.588   0.914   4.809
 2718TIP3    H2 8032   1.643   0.803   4.726
 2719TIP3   OH2 8033   0.865   2.049   3.637
 2719TIP3    H1 8034   0.912   2.029   3.553
 2719TIP3    H2 8035   0.926   2.110   3.680
 2720TIP3   OH2 8036  -0.038   1.839   5.018
 2720TIP3    H1 8037  -0.115   1.782   5.008
 2720TIP3    H2 8038  -0.021   1.836   5.113
 2721TIP3   OH2 8039   0.149   1.878   4.566
 2721TIP3    H1 8040   0.103   1.955   4.527
 2721TIP3    H2 8041   0.237   1.891   4.524
 2722TIP3   OH2 8042   0.597   2.124   4.703
 2722TIP3    H1 8043   0.639   2.123   4.792
 2722TIP3    H2 8044   0.664   2.174   4.651
 2723TIP3   OH2 8045   0.776   2.274   4.560
 2723TIP3    H1 8046   0.848   2.222   4.520
 2723TIP3    H2 8047   0.827   2.331   4.622
 2724TIP3   OH2 8048   1.575   0.638   4.661
 2724TIP3    H1 8049   1.482   0.634   4.631
 2724TIP3    H2 8050   1.602   0.544   4.649
 2725TIP3   OH2 8051  -0.170   2.144   4.584
 2725TIP3    H1 8052  -0.263   2.171   4.569
 2725TIP3    H2 8053  -0.161   2.165   4.678
 2726TIP3   OH2 8054   0.068   2.120   4.451
 2726TIP3    H1 8055  -0.018   2.135   4.495
 2726TIP3    H2 8056   0.045   2.128   4.357
 2727TIP3   OH2 8057   0.491   2.143   4.245
 2727TIP3    H1 8058   0.429   2.170   4.176
 2727TIP3    H2 8059   0.506   2.228   4.292
 2728TIP3   OH2 8060   0.759   2.081   4.293
 2728TIP3    H1 8061   0.665   2.099   4.275
 2728TIP3    H2 8062   0.802   2.158   4.253
 2729TIP3   OH2 8063   0.967   2.274   4.210
 2729TIP3    H1 8064   0.953   2.359   4.163
 2729TIP3    H2 8065   0.994   2.215   4.137
 2730TIP3   OH2 8066   0.206   1.948   4.191
 2730TIP3    H1 8067   0.205   1.869   4.134
 2730TIP3    H2 8068   0.249   1.916   4.272
 2731TIP3   OH2 8069   1.006   2.000   3.400
 2731TIP3    H1 8070   1.033   1.914   3.364
 2731TIP3    H2 8071   0.979   2.038   3.314
 2732TIP3   OH2 8072   1.302   0.598   5.098
 2732TIP3    H1 8073   1.323   0.568   5.189
 2732TIP3    H2 8074   1.390   0.592   5.055
 2733TIP3   OH2 8075   1.247   2.152   4.586
 2733TIP3    H1 8076   1.167   2.120   4.539
 2733TIP3    H2 8077   1.226   2.248   4.591
 2734TIP3   OH2 8078   2.515   1.533   3.353
 2734TIP3    H1 8079   2.478   1.620   3.330
 2734TIP3    H2 8080   2.443   1.475   3.321
 2735TIP3   OH2 8081   2.514   1.523   3.733
 2735TIP3    H1 8082   2.541   1.496   3.823
 2735TIP3    H2 8083   2.469   1.443   3.703
 2736TIP3   OH2 8084   1.810   1.419   4.098
 2736TIP3    H1 8085   1.839   1.351   4.162
 2736TIP3    H2 8086   1.887   1.478   4.098
 2737TIP3   OH2 8087   2.801   1.801   3.434
 2737TIP3    H1 8088   2.737   1.754   3.492
 2737TIP3    H2 8089   2.792   1.893   3.470
 2738TIP3   OH2 8090   1.781   1.829   3.823
 2738TIP3    H1 8091   1.768   1.732   3.826
 2738TIP3    H2 8092   1.878   1.833   3.829
 2739TIP3   OH2 8093   1.548   1.320   3.781
 2739TIP3    H1 8094   1.598   1.244   3.818
 2739TIP3    H2 8095   1.598   1.341   3.701
 2740TIP3   OH2 8096   2.403   2.276   3.436
 2740TIP3    H1 8097   2.456   2.222   3.374
 2740TIP3    H2 8098   2.414   2.226   3.517
 2741TIP3   OH2 8099   2.310   1.752   3.779
 2741TIP3    H1 8100   2.345   1.673   3.735
 2741TIP3    H2 8101   2.394   1.794   3.806
 2742TIP3   OH2 8102   3.319   1.071   3.778
 2742TIP3    H1 8103   3.350   1.152   3.823
 2742TIP3    H2 8104   3.351   1.085   3.688
 2743TIP3   OH2 8105   2.723   1.254   3.813
 2743TIP3    H1 8106   2.764   1.168   3.836
 2743TIP3    H2 8107   2.691   1.236   3.723
 2744TIP3   OH2 8108   2.061   0.912   3.783
 2744TIP3    H1 8109   2.036   0.982   3.719
 2744TIP3    H2 8110   2.015   0.835   3.744
 2745TIP3   OH2 8111   2.752   0.999   3.403
 2745TIP3    H1 8112   2.823   0.983   3.469
 2745TIP3    H2 8113   2.805   1.037   3.331
 2746TIP3   OH2 8114   1.695   1.114   3.889
 2746TIP3    H1 8115   1.776   1.096   3.940
 2746TIP3    H2 8116   1.710   1.055   3.812
 2747TIP3   OH2 8117   2.135   1.311   3.675
 2747TIP3    H1 8118   2.228   1.284   3.692
 2747TIP3    H2 8119   2.095   1.225   3.647
 2748TIP3   OH2 8120   3.394   1.276   3.950
 2748TIP3    H1 8121   3.309   1.323   3.934
 2748TIP3    H2 8122   3.412   1.301   4.042
 2749TIP3   OH2 8123   2.055   0.893   4.214
 2749TIP3    H1 8124   1.994   0.932   4.148
 2749TIP3    H2 8125   2.004   0.911   4.296
 2750TIP3   OH2 8126   2.416   1.757   3.222
 2750TIP3    H1 8127   2.365   1.725   3.146
 2750TIP3    H2 8128   2.364   1.838   3.245
 2751TIP3   OH2 8129   2.163   1.668   4.012
 2751TIP3    H1 8130   2.094   1.728   4.050
 2751TIP3    H2 8131   2.203   1.725   3.944
 2752TIP3   OH2 8132   2.963   1.004   3.573
 2752TIP3    H1 8133   2.954   0.954   3.655
 2752TIP3    H2 8134   3.020   1.078   3.601
 2753TIP3   OH2 8135   1.925   1.009   4.000
 2753TIP3    H1 8136   1.985   1.083   4.025
 2753TIP3    H2 8137   1.976   0.970   3.926
 2754TIP3   OH2 8138   1.977   1.849   4.101
 2754TIP3    H1 8139   1.955   1.941   4.075
 2754TIP3    H2 8140   1.905   1.835   4.166
 2755TIP3   OH2 8141   1.391   1.558   3.347
 2755TIP3    H1 8142   1.346   1.590   3.268
 2755TIP3    H2 8143   1.423   1.641   3.387
 2756TIP3   OH2 8144   2.818   2.062   3.571
 2756TIP3    H1 8145   2.732   2.060   3.619
 2756TIP3    H2 8146   2.815   2.153   3.533
 2757TIP3   OH2 8147   3.115   0.969   3.946
 2757TIP3    H1 8148   3.028   1.000   3.917
 2757TIP3    H2 8149   3.174   1.001   3.875
 2758TIP3   OH2 8150   2.414   0.613   3.926
 2758TIP3    H1 8151   2.401   0.519   3.949
 2758TIP3    H2 8152   2.336   0.653   3.972
 2759TIP3   OH2 8153   2.551   2.133   3.256
 2759TIP3    H1 8154   2.594   2.055   3.215
 2759TIP3    H2 8155   2.579   2.204   3.195
 2760TIP3   OH2 8156   2.682   1.888   3.166
 2760TIP3    H1 8157   2.612   1.837   3.121
 2760TIP3    H2 8158   2.678   1.852   3.255
 2761TIP3   OH2 8159   3.049   1.984   3.929
 2761TIP3    H1 8160   3.040   1.906   3.870
 2761TIP3    H2 8161   3.033   2.058   3.867
 2762TIP3   OH2 8162   2.348   1.385   3.188
 2762TIP3    H1 8163   2.261   1.426   3.169
 2762TIP3    H2 8164   2.382   1.372   3.098
 2763TIP3   OH2 8165   2.331   1.127   2.996
 2763TIP3    H1 8166   2.394   1.202   2.995
 2763TIP3    H2 8167   2.372   1.069   2.932
 2764TIP3   OH2 8168   3.245   1.616   3.772
 2764TIP3    H1 8169   3.164   1.672   3.778
 2764TIP3    H2 8170   3.275   1.637   3.682
 2765TIP3   OH2 8171   2.693   1.469   3.158
 2765TIP3    H1 8172   2.634   1.487   3.234
 2765TIP3    H2 8173   2.771   1.430   3.203
 2766TIP3   OH2 8174   2.925   1.500   4.066
 2766TIP3    H1 8175   2.921   1.580   4.121
 2766TIP3    H2 8176   2.836   1.502   4.025
 2767TIP3   OH2 8177   1.923   1.453   3.569
 2767TIP3    H1 8178   1.885   1.393   3.503
 2767TIP3    H2 8179   2.000   1.402   3.601
 2768TIP3   OH2 8180   2.059   1.876   3.719
 2768TIP3    H1 8181   2.028   1.829   3.641
 2768TIP3    H2 8182   2.146   1.835   3.736
 2769TIP3   OH2 8183   2.060   1.426   3.925
 2769TIP3    H1 8184   2.094   1.409   3.835
 2769TIP3    H2 8185   2.103   1.511   3.949
 2770TIP3   OH2 8186   2.586   2.063   3.708
 2770TIP3    H1 8187   2.574   2.141   3.765
 2770TIP3    H2 8188   2.570   1.989   3.770
 2771TIP3   OH2 8189   2.179   2.022   4.206
 2771TIP3    H1 8190   2.141   2.055   4.289
 2771TIP3    H2 8191   2.141   1.932   4.202
 2772TIP3   OH2 8192   2.544   1.310   2.991
 2772TIP3    H1 8193   2.596   1.378   3.038
 2772TIP3    H2 8194   2.559   1.337   2.897
 2773TIP3   OH2 8195   1.946   1.544   4.349
 2773TIP3    H1 8196   1.951   1.630   4.395
 2773TIP3    H2 8197   1.852   1.522   4.362
 2774TIP3   OH2 8198   2.274   1.998   3.264
 2774TIP3    H1 8199   2.345   2.061   3.279
 2774TIP3    H2 8200   2.213   2.050   3.210
 2775TIP3   OH2 8201   1.980   2.166   4.346
 2775TIP3    H1 8202   1.949   2.143   4.257
 2775TIP3    H2 8203   1.904   2.138   4.402
 2776TIP3   OH2 8204   3.047   0.558   3.027
 2776TIP3    H1 8205   2.966   0.572   3.081
 2776TIP3    H2 8206   3.056   0.645   2.985
 2777TIP3   OH2 8207   1.793   1.284   3.369
 2777TIP3    H1 8208   1.727   1.349   3.335
 2777TIP3    H2 8209   1.735   1.216   3.407
 2778TIP3   OH2 8210   2.842   1.922   2.576
 2778TIP3    H1 8211   2.848   2.020   2.564
 2778TIP3    H2 8212   2.937   1.897   2.568
 2779TIP3   OH2 8213   1.569   1.683   4.284
 2779TIP3    H1 8214   1.505   1.659   4.214
 2779TIP3    H2 8215   1.606   1.596   4.310
 2780TIP3   OH2 8216   1.422   1.873   3.923
 2780TIP3    H1 8217   1.517   1.873   3.907
 2780TIP3    H2 8218   1.409   1.958   3.968
 2781TIP3   OH2 8219   3.287   2.324   3.972
 2781TIP3    H1 8220   3.287   2.228   3.990
 2781TIP3    H2 8221   3.205   2.351   4.018
 2782TIP3   OH2 8222   2.413   2.112   4.112
 2782TIP3    H1 8223   2.400   2.205   4.135
 2782TIP3    H2 8224   2.329   2.074   4.148
 2783TIP3   OH2 8225   2.147   2.239   3.061
 2783TIP3    H1 8226   2.107   2.231   2.973
 2783TIP3    H2 8227   2.128   2.332   3.085
 2784TIP3   OH2 8228   1.595   2.091   3.443
 2784TIP3    H1 8229   1.635   2.081   3.532
 2784TIP3    H2 8230   1.531   2.018   3.443
 2785TIP3   OH2 8231   2.356   2.145   2.699
 2785TIP3    H1 8232   2.417   2.076   2.665
 2785TIP3    H2 8233   2.380   2.144   2.795
 2786TIP3   OH2 8234   2.386   2.136   2.969
 2786TIP3    H1 8235   2.308   2.174   3.015
 2786TIP3    H2 8236   2.453   2.205   2.989
 2787TIP3   OH2 8237   3.178   1.458   4.247
 2787TIP3    H1 8238   3.095   1.468   4.197
 2787TIP3    H2 8239   3.194   1.362   4.239
 2788TIP3   OH2 8240   1.772   1.868   4.277
 2788TIP3    H1 8241   1.823   1.849   4.359
 2788TIP3    H2 8242   1.699   1.802   4.283
 2789TIP3   OH2 8243   2.175   0.689   4.058
 2789TIP3    H1 8244   2.085   0.659   4.031
 2789TIP3    H2 8245   2.151   0.772   4.103
 2790TIP3   OH2 8246   2.707   0.803   4.251
 2790TIP3    H1 8247   2.775   0.778   4.317
 2790TIP3    H2 8248   2.623   0.784   4.299
 2791TIP3   OH2 8249   2.946   1.234   4.170
 2791TIP3    H1 8250   2.898   1.228   4.255
 2791TIP3    H2 8251   2.919   1.322   4.137
 2792TIP3   OH2 8252   2.619   1.365   2.732
 2792TIP3    H1 8253   2.580   1.356   2.643
 2792TIP3    H2 8254   2.696   1.422   2.715
 2793TIP3   OH2 8255   2.104   1.203   4.074
 2793TIP3    H1 8256   2.061   1.229   4.158
 2793TIP3    H2 8257   2.089   1.285   4.021
 2794TIP3   OH2 8258   1.987   1.090   3.592
 2794TIP3    H1 8259   1.891   1.072   3.600
 2794TIP3    H2 8260   2.005   1.050   3.503
 2795TIP3   OH2 8261   2.486   1.185   3.316
 2795TIP3    H1 8262   2.428   1.252   3.275
 2795TIP3    H2 8263   2.530   1.147   3.237
 2796TIP3   OH2 8264   2.666   1.455   4.399
 2796TIP3    H1 8265   2.632   1.387   4.461
 2796TIP3    H2 8266   2.758   1.464   4.430
 2797TIP3   OH2 8267   2.640   1.207   3.554
 2797TIP3    H1 8268   2.578   1.232   3.483
 2797TIP3    H2 8269   2.673   1.124   3.514
 2798TIP3   OH2 8270   1.919   1.234   4.284
 2798TIP3    H1 8271   1.961   1.296   4.345
 2798TIP3    H2 8272   1.911   1.153   4.339
 2799TIP3   OH2 8273   2.651   1.454   3.979
 2799TIP3    H1 8274   2.682   1.380   3.922
 2799TIP3    H2 8275   2.620   1.403   4.057
 2800TIP3   OH2 8276   2.318   0.918   3.652
 2800TIP3    H1 8277   2.235   0.914   3.704
 2800TIP3    H2 8278   2.386   0.911   3.721
 2801TIP3   OH2 8279   1.748   0.962   3.669
 2801TIP3    H1 8280   1.661   0.970   3.625
 2801TIP3    H2 8281   1.779   0.876   3.636
 2802TIP3   OH2 8282   2.052   0.979   3.355
 2802TIP3    H1 8283   2.149   0.983   3.343
 2802TIP3    H2 8284   2.018   1.024   3.277
 2803TIP3   OH2 8285   2.807   0.989   3.849
 2803TIP3    H1 8286   2.776   1.001   3.942
 2803TIP3    H2 8287   2.740   0.927   3.816
 2804TIP3   OH2 8288   2.976   2.677   4.071
 2804TIP3    H1 8289   2.976   2.703   3.977
 2804TIP3    H2 8290   3.055   2.725   4.104
 2805TIP3   OH2 8291   1.934   1.788   4.492
 2805TIP3    H1 8292   2.016   1.815   4.538
 2805TIP3    H2 8293   1.871   1.787   4.567
 2806TIP3   OH2 8294   2.399   1.243   3.750
 2806TIP3    H1 8295   2.470   1.198   3.702
 2806TIP3    H2 8296   2.406   1.203   3.838
 2807TIP3   OH2 8297   1.949   0.707   3.636
 2807TIP3    H1 8298   1.969   0.615   3.659
 2807TIP3    H2 8299   2.007   0.719   3.560
 2808TIP3   OH2 8300   2.376   1.139   4.040
 2808TIP3    H1 8301   2.287   1.176   4.053
 2808TIP3    H2 8302   2.434   1.200   4.090
 2809TIP3   OH2 8303   2.119   1.545   3.137
 2809TIP3    H1 8304   2.068   1.461   3.137
 2809TIP3    H2 8305   2.100   1.577   3.228
 2810TIP3   OH2 8306   3.018   1.771   3.754
 2810TIP3    H1 8307   3.029   1.816   3.669
 2810TIP3    H2 8308   2.930   1.728   3.744
 2811TIP3   OH2 8309   2.552   0.845   2.972
 2811TIP3    H1 8310   2.463   0.849   3.006
 2811TIP3    H2 8311   2.591   0.930   3.003
 2812TIP3   OH2 8312   2.516   1.847   4.137
 2812TIP3    H1 8313   2.507   1.814   4.227
 2812TIP3    H2 8314   2.472   1.934   4.145
 2813TIP3   OH2 8315   2.647   1.074   3.090
 2813TIP3    H1 8316   2.740   1.089   3.114
 2813TIP3    H2 8317   2.623   1.158   3.044
 2814TIP3   OH2 8318   1.807   1.553   3.811
 2814TIP3    H1 8319   1.842   1.520   3.725
 2814TIP3    H2 8320   1.843   1.488   3.874
 2815TIP3   OH2 8321   2.265   1.690   2.962
 2815TIP3    H1 8322   2.214   1.774   2.966
 2815TIP3    H2 8323   2.210   1.633   3.019
 2816TIP3   OH2 8324   1.683   1.473   4.424
 2816TIP3    H1 8325   1.706   1.459   4.518
 2816TIP3    H2 8326   1.616   1.404   4.409
 2817TIP3   OH2 8327   2.672   2.117   4.021
 2817TIP3    H1 8328   2.577   2.102   4.039
 2817TIP3    H2 8329   2.696   2.166   4.102
 2818TIP3   OH2 8330   3.078   1.177   2.941
 2818TIP3    H1 8331   3.015   1.132   2.880
 2818TIP3    H2 8332   3.080   1.264   2.896
 2819TIP3   OH2 8333   3.300   2.035   4.018
 2819TIP3    H1 8334   3.202   2.030   4.011
 2819TIP3    H2 8335   3.325   2.006   3.928
 2820TIP3   OH2 8336   2.786   1.988   2.847
 2820TIP3    H1 8337   2.746   1.921   2.904
 2820TIP3    H2 8338   2.793   1.944   2.761
 2821TIP3   OH2 8339   2.777   1.628   3.672
 2821TIP3    H1 8340   2.685   1.603   3.694
 2821TIP3    H2 8341   2.811   1.542   3.641
 2822TIP3   OH2 8342   1.904   1.856   3.436
 2822TIP3    H1 8343   1.902   1.936   3.380
 2822TIP3    H2 8344   1.810   1.835   3.442
 2823TIP3   OH2 8345   2.049   1.625   3.385
 2823TIP3    H1 8346   2.010   1.713   3.402
 2823TIP3    H2 8347   2.009   1.572   3.456
 2824TIP3   OH2 8348   1.827   2.089   3.286
 2824TIP3    H1 8349   1.741   2.100   3.332
 2824TIP3    H2 8350   1.861   2.181   3.289
 2825TIP3   OH2 8351   2.566   1.832   3.866
 2825TIP3    H1 8352   2.552   1.833   3.964
 2825TIP3    H2 8353   2.644   1.776   3.860
 2826TIP3   OH2 8354   2.540   1.717   2.740
 2826TIP3    H1 8355   2.588   1.694   2.823
 2826TIP3    H2 8356   2.449   1.699   2.767
 2827TIP3   OH2 8357   2.814   2.367   3.911
 2827TIP3    H1 8358   2.735   2.308   3.909
 2827TIP3    H2 8359   2.795   2.429   3.838
 2828TIP3   OH2 8360   2.877   2.196   2.560
 2828TIP3    H1 8361   2.907   2.272   2.508
 2828TIP3    H2 8362   2.804   2.240   2.610
 2829TIP3   OH2 8363   1.899   0.975   4.432
 2829TIP3    H1 8364   1.803   0.981   4.446
 2829TIP3    H2 8365   1.926   0.916   4.505
 2830TIP3   OH2 8366   2.699   1.655   2.954
 2830TIP3    H1 8367   2.685   1.594   3.029
 2830TIP3    H2 8368   2.796   1.657   2.951
 2831TIP3   OH2 8369   1.620   2.061   4.067
 2831TIP3    H1 8370   1.666   1.982   4.098
 2831TIP3    H2 8371   1.642   2.123   4.138
 2832TIP3   OH2 8372   1.912   1.718   2.746
 2832TIP3    H1 8373   1.912   1.629   2.709
 2832TIP3    H2 8374   1.895   1.702   2.841
 2833TIP3   OH2 8375   1.871   1.709   3.011
 2833TIP3    H1 8376   1.925   1.679   3.085
 2833TIP3    H2 8377   1.868   1.806   3.025
 2834TIP3   OH2 8378   1.613   1.437   3.241
 2834TIP3    H1 8379   1.532   1.458   3.291
 2834TIP3    H2 8380   1.604   1.505   3.171
 2835TIP3   OH2 8381   2.737   1.036   4.108
 2835TIP3    H1 8382   2.811   1.079   4.154
 2835TIP3    H2 8383   2.720   0.958   4.164
 2836TIP3   OH2 8384   2.610   0.797   3.272
 2836TIP3    H1 8385   2.603   0.829   3.181
 2836TIP3    H2 8386   2.653   0.874   3.317
 2837TIP3   OH2 8387   2.114   1.912   2.961
 2837TIP3    H1 8388   2.025   1.937   2.994
 2837TIP3    H2 8389   2.144   1.997   2.925
 2838TIP3   OH2 8390   2.325   0.972   3.381
 2838TIP3    H1 8391   2.385   1.048   3.366
 2838TIP3    H2 8392   2.322   0.966   3.479
 2839TIP3   OH2 8393   2.575   1.294   4.186
 2839TIP3    H1 8394   2.590   1.353   4.263
 2839TIP3    H2 8395   2.629   1.217   4.210
 2840TIP3   OH2 8396   2.456   0.698   3.486
 2840TIP3    H1 8397   2.448   0.775   3.544
 2840TIP3    H2 8398   2.511   0.736   3.413
 2841TIP3   OH2 8399   1.854   1.980   3.033
 2841TIP3    H1 8400   1.827   2.052   2.971
 2841TIP3    H2 8401   1.840   2.024   3.120
 2842TIP3   OH2 8402   3.213   1.191   4.167
 2842TIP3    H1 8403   3.115   1.189   4.174
 2842TIP3    H2 8404   3.224   1.149   4.080
 2843TIP3   OH2 8405   2.866   1.389   3.555
 2843TIP3    H1 8406   2.790   1.329   3.567
 2843TIP3    H2 8407   2.937   1.340   3.603
 2844TIP3   OH2 8408   1.596   1.648   3.062
 2844TIP3    H1 8409   1.648   1.729   3.054
 2844TIP3    H2 8410   1.607   1.609   2.975
 2845TIP3   OH2 8411   2.832   2.336   3.502
 2845TIP3    H1 8412   2.788   2.388   3.431
 2845TIP3    H2 8413   2.926   2.357   3.481
 2846TIP3   OH2 8414   1.911   0.603   4.030
 2846TIP3    H1 8415   1.868   0.559   3.956
 2846TIP3    H2 8416   1.907   0.533   4.099
 2847TIP3   OH2 8417   1.450   1.833   3.414
 2847TIP3    H1 8418   1.372   1.859   3.465
 2847TIP3    H2 8419   1.425   1.866   3.325
 2848TIP3   OH2 8420   1.603   2.367   4.483
 2848TIP3    H1 8421   1.688   2.367   4.531
 2848TIP3    H2 8422   1.581   2.273   4.483
 2849TIP3   OH2 8423   2.082   2.348   4.527
 2849TIP3    H1 8424   2.170   2.316   4.550
 2849TIP3    H2 8425   2.056   2.285   4.456
 2850TIP3   OH2 8426   2.077   1.911   2.654
 2850TIP3    H1 8427   2.013   1.854   2.702
 2850TIP3    H2 8428   2.157   1.857   2.663
 2851TIP3   OH2 8429   2.730   2.232   4.266
 2851TIP3    H1 8430   2.765   2.156   4.313
 2851TIP3    H2 8431   2.792   2.302   4.294
 2852TIP3   OH2 8432   2.503   1.951   2.568
 2852TIP3    H1 8433   2.551   1.893   2.629
 2852TIP3    H2 8434   2.563   1.955   2.491
 2853TIP3   OH2 8435   1.735   1.775   4.685
 2853TIP3    H1 8436   1.752   1.679   4.690
 2853TIP3    H2 8437   1.647   1.777   4.641
 2854TIP3   OH2 8438   2.244   1.647   2.697
 2854TIP3    H1 8439   2.249   1.664   2.794
 2854TIP3    H2 8440   2.212   1.555   2.700
 2855TIP3   OH2 8441   2.835   1.860   4.060
 2855TIP3    H1 8442   2.906   1.916   4.021
 2855TIP3    H2 8443   2.759   1.920   4.055
 2856TIP3   OH2 8444   1.853   1.509   4.665
 2856TIP3    H1 8445   1.928   1.451   4.646
 2856TIP3    H2 8446   1.878   1.542   4.754
 2857TIP3   OH2 8447   2.000   1.303   3.158
 2857TIP3    H1 8448   1.939   1.297   3.234
 2857TIP3    H2 8449   1.948   1.259   3.089
 2858TIP3   OH2 8450   2.181   1.380   4.320
 2858TIP3    H1 8451   2.117   1.453   4.329
 2858TIP3    H2 8452   2.243   1.417   4.253
 2859TIP3   OH2 8453   2.735   1.830   4.481
 2859TIP3    H1 8454   2.799   1.790   4.420
 2859TIP3    H2 8455   2.689   1.750   4.510
 2860TIP3   OH2 8456   2.851   1.468   2.610
 2860TIP3    H1 8457   2.825   1.419   2.531
 2860TIP3    H2 8458   2.816   1.557   2.587
 2861TIP3   OH2 8459   2.312   1.181   4.455
 2861TIP3    H1 8460   2.312   1.101   4.399
 2861TIP3    H2 8461   2.268   1.247   4.397
 2862TIP3   OH2 8462   2.315   0.966   4.259
 2862TIP3    H1 8463   2.341   1.011   4.177
 2862TIP3    H2 8464   2.220   0.946   4.242
 2863TIP3   OH2 8465   2.337   1.488   4.123
 2863TIP3    H1 8466   2.424   1.509   4.089
 2863TIP3    H2 8467   2.282   1.561   4.087
 2864TIP3   OH2 8468   2.924   1.471   4.517
 2864TIP3    H1 8469   2.974   1.389   4.532
 2864TIP3    H2 8470   2.994   1.530   4.485
 2865TIP3   OH2 8471   2.966   1.725   4.254
 2865TIP3    H1 8472   2.908   1.775   4.191
 2865TIP3    H2 8473   3.054   1.743   4.213
 2866TIP3   OH2 8474   2.190   1.295   4.684
 2866TIP3    H1 8475   2.120   1.229   4.699
 2866TIP3    H2 8476   2.224   1.268   4.596
 2867TIP3   OH2 8477   2.446   0.731   4.327
 2867TIP3    H1 8478   2.398   0.814   4.305
 2867TIP3    H2 8479   2.376   0.665   4.317
 2868TIP3   OH2 8480   2.573   1.241   4.544
 2868TIP3    H1 8481   2.564   1.227   4.639
 2868TIP3    H2 8482   2.483   1.215   4.514
 2869TIP3   OH2 8483   2.811   1.179   4.397
 2869TIP3    H1 8484   2.736   1.188   4.459
 2869TIP3    H2 8485   2.884   1.151   4.456
 2870TIP3   OH2 8486   3.039   1.125   4.550
 2870TIP3    H1 8487   3.053   1.030   4.570
 2870TIP3    H2 8488   3.036   1.166   4.639
 2871TIP3   OH2 8489   2.029   1.075   4.737
 2871TIP3    H1 8490   2.037   0.985   4.702
 2871TIP3    H2 8491   2.064   1.063   4.827
 2872TIP3   OH2 8492   2.541   0.741   4.585
 2872TIP3    H1 8493   2.609   0.671   4.580
 2872TIP3    H2 8494   2.502   0.735   4.496
 2873TIP3   OH2 8495   2.606   0.957   4.745
 2873TIP3    H1 8496   2.584   0.886   4.680
 2873TIP3    H2 8497   2.529   1.017   4.738
 2874TIP3   OH2 8498   1.825   2.175   2.839
 2874TIP3    H1 8499   1.921   2.180   2.823
 2874TIP3    H2 8500   1.792   2.231   2.767
 2875TIP3   OH2 8501   1.215   2.180   3.478
 2875TIP3    H1 8502   1.154   2.113   3.443
 2875TIP3    H2 8503   1.268   2.128   3.541
 2876TIP3   OH2 8504   1.358   2.034   3.659
 2876TIP3    H1 8505   1.350   1.960   3.721
 2876TIP3    H2 8506   1.408   2.098   3.714
 2877TIP3   OH2 8507   3.087   2.424   3.462
 2877TIP3    H1 8508   3.110   2.461   3.549
 2877TIP3    H2 8509   3.137   2.482   3.402
 2878TIP3   OH2 8510   3.113   2.452   3.743
 2878TIP3    H1 8511   3.074   2.362   3.739
 2878TIP3    H2 8512   3.189   2.434   3.801
 2879TIP3   OH2 8513   3.157   2.130   4.314
 2879TIP3    H1 8514   3.087   2.138   4.382
 2879TIP3    H2 8515   3.201   2.217   4.320
 2880TIP3   OH2 8516   2.983   1.641   2.951
 2880TIP3    H1 8517   3.043   1.709   2.914
 2880TIP3    H2 8518   3.041   1.595   3.012
 2881TIP3   OH2 8519   3.118   1.868   3.506
 2881TIP3    H1 8520   3.208   1.829   3.512
 2881TIP3    H2 8521   3.142   1.964   3.494
 2882TIP3   OH2 8522   2.989   2.198   3.765
 2882TIP3    H1 8523   2.921   2.244   3.819
 2882TIP3    H2 8524   2.935   2.156   3.695
 2883TIP3   OH2 8525   3.044   1.420   2.795
 2883TIP3    H1 8526   2.975   1.418   2.724
 2883TIP3    H2 8527   3.014   1.500   2.841
 2884TIP3   OH2 8528   2.906   1.095   2.745
 2884TIP3    H1 8529   2.902   1.125   2.653
 2884TIP3    H2 8530   2.887   0.999   2.737
 2885TIP3   OH2 8531   2.914   1.368   3.286
 2885TIP3    H1 8532   2.932   1.274   3.270
 2885TIP3    H2 8533   2.905   1.371   3.383
 2886TIP3   OH2 8534   1.545   1.439   4.034
 2886TIP3    H1 8535   1.543   1.408   3.940
 2886TIP3    H2 8536   1.642   1.440   4.049
 2887TIP3   OH2 8537   3.208   1.790   4.141
 2887TIP3    H1 8538   3.280   1.723   4.135
 2887TIP3    H2 8539   3.241   1.861   4.084
 2888TIP3   OH2 8540   3.393   1.597   4.161
 2888TIP3    H1 8541   3.319   1.545   4.201
 2888TIP3    H2 8542   3.467   1.534   4.175
 2889TIP3   OH2 8543   2.855   0.829   2.738
 2889TIP3    H1 8544   2.943   0.803   2.774
 2889TIP3    H2 8545   2.795   0.774   2.790
 2890TIP3   OH2 8546   2.917   1.084   3.181
 2890TIP3    H1 8547   2.955   0.995   3.200
 2890TIP3    H2 8548   2.977   1.111   3.109
 2891TIP3   OH2 8549   3.075   1.260   3.675
 2891TIP3    H1 8550   3.163   1.285   3.636
 2891TIP3    H2 8551   3.090   1.292   3.766
 2892TIP3   OH2 8552   3.144   1.398   3.910
 2892TIP3    H1 8553   3.067   1.432   3.960
 2892TIP3    H2 8554   3.178   1.479   3.866
 2893TIP3   OH2 8555   1.761   1.125   4.705
 2893TIP3    H1 8556   1.859   1.119   4.709
 2893TIP3    H2 8557   1.738   1.041   4.749
 2894TIP3   OH2 8558   3.592   0.987   4.464
 2894TIP3    H1 8559   3.655   0.924   4.423
 2894TIP3    H2 8560   3.569   1.046   4.389
 2895TIP3   OH2 8561   3.021   0.833   3.221
 2895TIP3    H1 8562   3.072   0.817   3.302
 2895TIP3    H2 8563   2.962   0.754   3.220
 2896TIP3   OH2 8564   1.725   0.815   4.058
 2896TIP3    H1 8565   1.791   0.743   4.056
 2896TIP3    H2 8566   1.781   0.892   4.036
 2897TIP3   OH2 8567   1.532   1.093   4.113
 2897TIP3    H1 8568   1.581   1.087   4.029
 2897TIP3    H2 8569   1.560   1.180   4.145
 2898TIP3   OH2 8570   3.470   1.133   4.269
 2898TIP3    H1 8571   3.383   1.171   4.294
 2898TIP3    H2 8572   3.440   1.059   4.212
 2899TIP3   OH2 8573   3.103   0.777   2.845
 2899TIP3    H1 8574   3.150   0.702   2.804
 2899TIP3    H2 8575   3.174   0.844   2.851
 2900TIP3   OH2 8576   1.731   0.672   4.425
 2900TIP3    H1 8577   1.682   0.670   4.509
 2900TIP3    H2 8578   1.665   0.714   4.367
 2901TIP3   OH2 8579   1.768   2.102   4.509
 2901TIP3    H1 8580   1.677   2.073   4.489
 2901TIP3    H2 8581   1.777   2.079   4.602
 2902TIP3   OH2 8582   1.933   2.121   4.058
 2902TIP3    H1 8583   1.890   2.195   4.013
 2902TIP3    H2 8584   2.027   2.134   4.039
 2903TIP3   OH2 8585   2.394   2.386   4.189
 2903TIP3    H1 8586   2.455   2.367   4.262
 2903TIP3    H2 8587   2.455   2.433   4.127
 2904TIP3   OH2 8588   2.585   2.518   4.050
 2904TIP3    H1 8589   2.660   2.477   4.006
 2904TIP3    H2 8590   2.630   2.584   4.107
 2905TIP3   OH2 8591   3.367   0.894   4.149
 2905TIP3    H1 8592   3.275   0.888   4.116
 2905TIP3    H2 8593   3.398   0.801   4.137
 2906TIP3   OH2 8594   1.649   2.396   4.069
 2906TIP3    H1 8595   1.561   2.421   4.033
 2906TIP3    H2 8596   1.636   2.422   4.161
 2907TIP3   OH2 8597   1.882   2.395   3.913
 2907TIP3    H1 8598   1.817   2.398   3.987
 2907TIP3    H2 8599   1.818   2.401   3.838
 2908TIP3   OH2 8600   2.557   2.343   3.772
 2908TIP3    H1 8601   2.469   2.368   3.744
 2908TIP3    H2 8602   2.611   2.417   3.740
 2909TIP3   OH2 8603   2.757   2.528   3.695
 2909TIP3    H1 8604   2.745   2.615   3.651
 2909TIP3    H2 8605   2.786   2.472   3.619
 2910TIP3   OH2 8606   1.528   2.174   3.830
 2910TIP3    H1 8607   1.566   2.148   3.917
 2910TIP3    H2 8608   1.601   2.146   3.771
 2911TIP3   OH2 8609   1.727   2.058   3.681
 2911TIP3    H1 8610   1.742   1.973   3.728
 2911TIP3    H2 8611   1.819   2.086   3.660
 2912TIP3   OH2 8612   1.994   2.145   3.671
 2912TIP3    H1 8613   2.031   2.059   3.644
 2912TIP3    H2 8614   2.007   2.139   3.766
 2913TIP3   OH2 8615   2.570   0.808   3.764
 2913TIP3    H1 8616   2.528   0.739   3.818
 2913TIP3    H2 8617   2.643   0.759   3.722
 2914TIP3   OH2 8618   3.096   0.689   3.673
 2914TIP3    H1 8619   3.133   0.740   3.599
 2914TIP3    H2 8620   3.000   0.706   3.665
 2915TIP3   OH2 8621   3.190   0.790   3.435
 2915TIP3    H1 8622   3.263   0.736   3.396
 2915TIP3    H2 8623   3.226   0.880   3.420
 2916TIP3   OH2 8624   2.244   0.576   3.654
 2916TIP3    H1 8625   2.318   0.612   3.602
 2916TIP3    H2 8626   2.280   0.577   3.743
 2917TIP3   OH2 8627   2.811   0.694   3.646
 2917TIP3    H1 8628   2.811   0.656   3.558
 2917TIP3    H2 8629   2.797   0.614   3.702
 2918TIP3   OH2 8630   2.844   0.616   3.207
 2918TIP3    H1 8631   2.754   0.651   3.211
 2918TIP3    H2 8632   2.830   0.530   3.253
 2919TIP3   OH2 8633   1.309   1.951   3.212
 2919TIP3    H1 8634   1.222   1.918   3.180
 2919TIP3    H2 8635   1.306   2.042   3.176
 2920TIP3   OH2 8636   2.240   0.723   3.308
 2920TIP3    H1 8637   2.300   0.676   3.368
 2920TIP3    H2 8638   2.275   0.814   3.319
 2921TIP3   OH2 8639   2.096   2.152   2.793
 2921TIP3    H1 8640   2.186   2.173   2.760
 2921TIP3    H2 8641   2.077   2.075   2.735
 2922TIP3   OH2 8642   2.856   2.255   2.860
 2922TIP3    H1 8643   2.827   2.161   2.867
 2922TIP3    H2 8644   2.771   2.297   2.840
 2923TIP3   OH2 8645   2.029   0.795   4.672
 2923TIP3    H1 8646   1.993   0.727   4.732
 2923TIP3    H2 8647   2.123   0.797   4.701
 2924TIP3   OH2 8648   2.276   0.794   4.794
 2924TIP3    H1 8649   2.363   0.770   4.756
 2924TIP3    H2 8650   2.264   0.724   4.861
 2925TIP3   OH2 8651   1.415   2.011   2.856
 2925TIP3    H1 8652   1.383   2.021   2.947
 2925TIP3    H2 8653   1.484   1.943   2.864
 2926TIP3   OH2 8654   3.102   0.854   4.582
 2926TIP3    H1 8655   3.121   0.824   4.673
 2926TIP3    H2 8656   3.191   0.851   4.541
 2927TIP3   OH2 8657   3.043   2.410   4.072
 2927TIP3    H1 8658   2.963   2.380   4.024
 2927TIP3    H2 8659   3.025   2.506   4.077
 2928TIP3   OH2 8660   4.310   1.783   2.842
 2928TIP3    H1 8661   4.277   1.872   2.821
 2928TIP3    H2 8662   4.236   1.728   2.812
 2929TIP3   OH2 8663   4.298   1.783   3.224
 2929TIP3    H1 8664   4.335   1.751   3.308
 2929TIP3    H2 8665   4.268   1.700   3.183
 2930TIP3   OH2 8666   3.601   1.679   3.592
 2930TIP3    H1 8667   3.633   1.609   3.653
 2930TIP3    H2 8668   3.683   1.728   3.577
 2931TIP3   OH2 8669   4.547   2.085   2.902
 2931TIP3    H1 8670   4.537   2.011   2.964
 2931TIP3    H2 8671   4.580   2.156   2.960
 2932TIP3   OH2 8672   3.574   2.084   3.307
 2932TIP3    H1 8673   3.566   1.986   3.311
 2932TIP3    H2 8674   3.670   2.094   3.313
 2933TIP3   OH2 8675   3.281   1.300   3.091
 2933TIP3    H1 8676   3.239   1.370   3.141
 2933TIP3    H2 8677   3.207   1.243   3.064
 2934TIP3   OH2 8678   3.340   1.575   3.264
 2934TIP3    H1 8679   3.387   1.499   3.304
 2934TIP3    H2 8680   3.402   1.600   3.195
 2935TIP3   OH2 8681   4.193   2.541   2.917
 2935TIP3    H1 8682   4.242   2.471   2.869
 2935TIP3    H2 8683   4.199   2.510   3.008
 2936TIP3   OH2 8684   4.105   2.007   3.269
 2936TIP3    H1 8685   4.144   1.928   3.228
 2936TIP3    H2 8686   4.189   2.052   3.292
 2937TIP3   OH2 8687   5.120   1.326   3.268
 2937TIP3    H1 8688   5.147   1.410   3.310
 2937TIP3    H2 8689   5.137   1.345   3.174
 2938TIP3   OH2 8690   4.515   1.509   3.302
 2938TIP3    H1 8691   4.560   1.424   3.323
 2938TIP3    H2 8692   4.487   1.492   3.210
 2939TIP3   OH2 8693   3.841   1.184   3.253
 2939TIP3    H1 8694   3.830   1.225   3.165
 2939TIP3    H2 8695   3.798   1.098   3.232
 2940TIP3   OH2 8696   4.547   1.254   2.889
 2940TIP3    H1 8697   4.617   1.241   2.957
 2940TIP3    H2 8698   4.601   1.291   2.817
 2941TIP3   OH2 8699   3.488   1.375   3.379
 2941TIP3    H1 8700   3.572   1.355   3.424
 2941TIP3    H2 8701   3.499   1.314   3.301
 2942TIP3   OH2 8702   3.931   1.560   3.164
 2942TIP3    H1 8703   4.026   1.548   3.184
 2942TIP3    H2 8704   3.914   1.477   3.116
 2943TIP3   OH2 8705   5.192   1.534   3.437
 2943TIP3    H1 8706   5.108   1.581   3.419
 2943TIP3    H2 8707   5.206   1.559   3.530
 2944TIP3   OH2 8708   3.852   1.151   3.701
 2944TIP3    H1 8709   3.792   1.185   3.632
 2944TIP3    H2 8710   3.799   1.170   3.782
 2945TIP3   OH2 8711   4.197   2.001   2.714
 2945TIP3    H1 8712   4.160   1.976   2.629
 2945TIP3    H2 8713   4.153   2.086   2.732
 2946TIP3   OH2 8714   3.958   1.925   3.496
 2946TIP3    H1 8715   3.896   1.991   3.535
 2946TIP3    H2 8716   4.004   1.977   3.428
 2947TIP3   OH2 8717   4.754   1.264   3.061
 2947TIP3    H1 8718   4.771   1.194   3.124
 2947TIP3    H2 8719   4.815   1.334   3.090
 2948TIP3   OH2 8720   3.721   1.265   3.485
 2948TIP3    H1 8721   3.787   1.335   3.507
 2948TIP3    H2 8722   3.763   1.231   3.402
 2949TIP3   OH2 8723   3.783   2.119   3.591
 2949TIP3    H1 8724   3.759   2.208   3.558
 2949TIP3    H2 8725   3.706   2.103   3.650
 2950TIP3   OH2 8726   3.175   1.808   2.835
 2950TIP3    H1 8727   3.140   1.834   2.748
 2950TIP3    H2 8728   3.207   1.894   2.869
 2951TIP3   OH2 8729   4.619   2.325   3.072
 2951TIP3    H1 8730   4.528   2.316   3.109
 2951TIP3    H2 8731   4.612   2.411   3.026
 2952TIP3   OH2 8732   4.910   1.229   3.436
 2952TIP3    H1 8733   4.822   1.252   3.402
 2952TIP3    H2 8734   4.968   1.255   3.362
 2953TIP3   OH2 8735   4.210   0.871   3.416
 2953TIP3    H1 8736   4.196   0.775   3.429
 2953TIP3    H2 8737   4.131   0.908   3.461
 2954TIP3   OH2 8738   4.318   2.370   2.741
 2954TIP3    H1 8739   4.369   2.288   2.722
 2954TIP3    H2 8740   4.380   2.436   2.703
 2955TIP3   OH2 8741   4.461   2.156   2.651
 2955TIP3    H1 8742   4.438   2.074   2.607
 2955TIP3    H2 8743   4.498   2.123   2.736
 2956TIP3   OH2 8744   4.846   2.239   3.414
 2956TIP3    H1 8745   4.836   2.161   3.355
 2956TIP3    H2 8746   4.831   2.313   3.352
 2957TIP3   OH2 8747   4.135   1.637   2.668
 2957TIP3    H1 8748   4.054   1.681   2.637
 2957TIP3    H2 8749   4.188   1.629   2.587
 2958TIP3   OH2 8750   4.097   1.419   2.383
 2958TIP3    H1 8751   4.163   1.466   2.437
 2958TIP3    H2 8752   4.153   1.353   2.340
 2959TIP3   OH2 8753   5.042   1.875   3.258
 2959TIP3    H1 8754   4.959   1.927   3.264
 2959TIP3    H2 8755   5.071   1.898   3.167
 2960TIP3   OH2 8756   4.485   1.715   2.643
 2960TIP3    H1 8757   4.431   1.737   2.723
 2960TIP3    H2 8758   4.568   1.686   2.686
 2961TIP3   OH2 8759   4.721   1.754   3.554
 2961TIP3    H1 8760   4.718   1.837   3.605
 2961TIP3    H2 8761   4.635   1.759   3.508
 2962TIP3   OH2 8762   3.721   1.717   3.062
 2962TIP3    H1 8763   3.672   1.660   2.999
 2962TIP3    H2 8764   3.795   1.659   3.090
 2963TIP3   OH2 8765   3.853   2.126   3.200
 2963TIP3    H1 8766   3.835   2.059   3.132
 2963TIP3    H2 8767   3.943   2.099   3.228
 2964TIP3   OH2 8768   3.846   1.686   3.413
 2964TIP3    H1 8769   3.885   1.659   3.327
 2964TIP3    H2 8770   3.896   1.768   3.434
 2965TIP3   OH2 8771   4.375   2.322   3.189
 2965TIP3    H1 8772   4.367   2.401   3.245
 2965TIP3    H2 8773   4.365   2.248   3.253
 2966TIP3   OH2 8774   3.992   2.241   3.736
 2966TIP3    H1 8775   3.933   2.303   3.785
 2966TIP3    H2 8776   3.925   2.187   3.689
 2967TIP3   OH2 8777   4.324   1.576   2.470
 2967TIP3    H1 8778   4.385   1.631   2.524
 2967TIP3    H2 8779   4.353   1.599   2.378
 2968TIP3   OH2 8780   3.747   1.801   3.837
 2968TIP3    H1 8781   3.750   1.886   3.885
 2968TIP3    H2 8782   3.652   1.779   3.847
 2969TIP3   OH2 8783   4.061   2.263   2.734
 2969TIP3    H1 8784   4.148   2.299   2.760
 2969TIP3    H2 8785   4.011   2.342   2.714
 2970TIP3   OH2 8786   3.785   2.408   3.824
 2970TIP3    H1 8787   3.749   2.407   3.733
 2970TIP3    H2 8788   3.706   2.388   3.879
 2971TIP3   OH2 8789   4.836   0.808   2.492
 2971TIP3    H1 8790   4.784   0.811   2.575
 2971TIP3    H2 8791   4.838   0.902   2.468
 2972TIP3   OH2 8792   3.575   1.561   2.881
 2972TIP3    H1 8793   3.511   1.586   2.812
 2972TIP3    H2 8794   3.577   1.465   2.874
 2973TIP3   OH2 8795   4.641   2.181   2.066
 2973TIP3    H1 8796   4.649   2.278   2.050
 2973TIP3    H2 8797   4.733   2.152   2.053
 2974TIP3   OH2 8798   3.365   1.935   3.774
 2974TIP3    H1 8799   3.320   1.898   3.698
 2974TIP3    H2 8800   3.410   1.856   3.812
 2975TIP3   OH2 8801   3.220   2.122   3.421
 2975TIP3    H1 8802   3.315   2.127   3.399
 2975TIP3    H2 8803   3.206   2.209   3.461
 2976TIP3   OH2 8804   5.084   2.582   3.459
 2976TIP3    H1 8805   5.083   2.486   3.473
 2976TIP3    H2 8806   5.001   2.607   3.505
 2977TIP3   OH2 8807   4.188   2.372   3.592
 2977TIP3    H1 8808   4.189   2.464   3.626
 2977TIP3    H2 8809   4.119   2.331   3.649
 2978TIP3   OH2 8810   3.925   2.488   2.547
 2978TIP3    H1 8811   3.912   2.486   2.450
 2978TIP3    H2 8812   3.917   2.583   2.568
 2979TIP3   OH2 8813   3.385   2.347   2.921
 2979TIP3    H1 8814   3.444   2.339   2.998
 2979TIP3    H2 8815   3.321   2.277   2.940
 2980TIP3   OH2 8816   4.147   2.395   2.190
 2980TIP3    H1 8817   4.207   2.329   2.149
 2980TIP3    H2 8818   4.188   2.408   2.278
 2981TIP3   OH2 8819   4.195   2.449   2.463
 2981TIP3    H1 8820   4.113   2.448   2.514
 2981TIP3    H2 8821   4.259   2.413   2.527
 2982TIP3   OH2 8822   4.974   1.715   3.733
 2982TIP3    H1 8823   4.893   1.725   3.681
 2982TIP3    H2 8824   4.990   1.619   3.725
 2983TIP3   OH2 8825   3.570   2.122   3.760
 2983TIP3    H1 8826   3.621   2.108   3.843
 2983TIP3    H2 8827   3.496   2.058   3.772
 2984TIP3   OH2 8828   3.968   0.944   3.544
 2984TIP3    H1 8829   3.878   0.915   3.519
 2984TIP3    H2 8830   3.946   1.028   3.587
 2985TIP3   OH2 8831   4.504   1.061   3.738
 2985TIP3    H1 8832   4.572   1.034   3.802
 2985TIP3    H2 8833   4.420   1.041   3.784
 2986TIP3   OH2 8834   4.743   1.489   3.657
 2986TIP3    H1 8835   4.693   1.486   3.742
 2986TIP3    H2 8836   4.718   1.577   3.621
 2987TIP3   OH2 8837   4.398   1.623   2.211
 2987TIP3    H1 8838   4.370   1.593   2.122
 2987TIP3    H2 8839   4.482   1.668   2.189
 2988TIP3   OH2 8840   4.110   1.001   2.512
 2988TIP3    H1 8841   4.085   1.003   2.607
 2988TIP3    H2 8842   4.079   0.912   2.489
 2989TIP3   OH2 8843   3.899   1.462   3.562
 2989TIP3    H1 8844   3.851   1.485   3.644
 2989TIP3    H2 8845   3.882   1.543   3.508
 2990TIP3   OH2 8846   4.298   1.460   2.809
 2990TIP3    H1 8847   4.225   1.509   2.767
 2990TIP3    H2 8848   4.328   1.402   2.737
 2991TIP3   OH2 8849   4.450   1.713   3.892
 2991TIP3    H1 8850   4.429   1.639   3.953
 2991TIP3    H2 8851   4.545   1.726   3.912
 2992TIP3   OH2 8852   4.434   1.462   3.044
 2992TIP3    H1 8853   4.377   1.486   2.967
 2992TIP3    H2 8854   4.468   1.378   3.008
 2993TIP3   OH2 8855   3.715   1.492   3.773
 2993TIP3    H1 8856   3.756   1.551   3.838
 2993TIP3    H2 8857   3.709   1.408   3.822
 2994TIP3   OH2 8858   3.763   0.963   2.478
 2994TIP3    H1 8859   3.769   0.963   2.576
 2994TIP3    H2 8860   3.686   1.020   2.465
 2995TIP3   OH2 8861   3.318   1.012   3.349
 2995TIP3    H1 8862   3.388   1.049   3.407
 2995TIP3    H2 8863   3.367   0.988   3.270
 2996TIP3   OH2 8864   3.285   0.992   2.871
 2996TIP3    H1 8865   3.335   1.027   2.794
 2996TIP3    H2 8866   3.232   1.070   2.893
 2997TIP3   OH2 8867   4.441   1.708   3.466
 2997TIP3    H1 8868   4.475   1.636   3.408
 2997TIP3    H2 8869   4.415   1.655   3.544
 2998TIP3   OH2 8870   4.122   1.128   3.156
 2998TIP3    H1 8871   4.032   1.158   3.177
 2998TIP3    H2 8872   4.175   1.170   3.225
 2999TIP3   OH2 8873   3.535   1.211   3.173
 2999TIP3    H1 8874   3.459   1.225   3.113
 2999TIP3    H2 8875   3.592   1.148   3.125
 3000TIP3   OH2 8876   4.603   1.248   3.347
 3000TIP3    H1 8877   4.562   1.257   3.435
 3000TIP3    H2 8878   4.543   1.183   3.306
 3001TIP3   OH2 8879   3.601   1.289   2.594
 3001TIP3    H1 8880   3.565   1.222   2.534
 3001TIP3    H2 8881   3.692   1.298   2.562
 3002TIP3   OH2 8882   4.773   2.934   3.558
 3002TIP3    H1 8883   4.772   2.958   3.464
 3002TIP3    H2 8884   4.851   2.984   3.590
 3003TIP3   OH2 8885   3.731   2.046   3.980
 3003TIP3    H1 8886   3.812   2.074   4.027
 3003TIP3    H2 8887   3.668   2.045   4.055
 3004TIP3   OH2 8888   4.194   1.498   3.234
 3004TIP3    H1 8889   4.263   1.459   3.177
 3004TIP3    H2 8890   4.211   1.454   3.320
 3005TIP3   OH2 8891   3.707   0.986   3.126
 3005TIP3    H1 8892   3.711   0.890   3.137
 3005TIP3    H2 8893   3.762   1.006   3.047
 3006TIP3   OH2 8894   4.172   1.391   3.529
 3006TIP3    H1 8895   4.083   1.431   3.540
 3006TIP3    H2 8896   4.231   1.452   3.577
 3007TIP3   OH2 8897   3.896   1.792   2.613
 3007TIP3    H1 8898   3.832   1.717   2.611
 3007TIP3    H2 8899   3.888   1.820   2.707
 3008TIP3   OH2 8900   4.809   2.022   3.250
 3008TIP3    H1 8901   4.834   2.070   3.168
 3008TIP3    H2 8902   4.725   1.979   3.225
 3009TIP3   OH2 8903   4.362   1.105   2.464
 3009TIP3    H1 8904   4.268   1.085   2.488
 3009TIP3    H2 8905   4.379   1.192   2.504
 3010TIP3   OH2 8906   4.304   2.101   3.618
 3010TIP3    H1 8907   4.335   2.080   3.707
 3010TIP3    H2 8908   4.271   2.192   3.627
 3011TIP3   OH2 8909   4.438   1.340   2.580
 3011TIP3    H1 8910   4.532   1.345   2.604
 3011TIP3    H2 8911   4.422   1.425   2.535
 3012TIP3   OH2 8912   3.598   1.805   3.296
 3012TIP3    H1 8913   3.637   1.778   3.210
 3012TIP3    H2 8914   3.646   1.746   3.357
 3013TIP3   OH2 8915   4.047   1.938   2.439
 3013TIP3    H1 8916   3.996   2.020   2.453
 3013TIP3    H2 8917   3.998   1.876   2.498
 3014TIP3   OH2 8918   3.479   1.732   3.913
 3014TIP3    H1 8919   3.508   1.719   4.005
 3014TIP3    H2 8920   3.417   1.659   3.901
 3015TIP3   OH2 8921   4.207   1.841   3.929
 3015TIP3    H1 8922   4.151   1.782   3.876
 3015TIP3    H2 8923   4.297   1.808   3.903
 3016TIP3   OH2 8924   4.468   2.363   3.512
 3016TIP3    H1 8925   4.371   2.363   3.525
 3016TIP3    H2 8926   4.497   2.414   3.590
 3017TIP3   OH2 8927   4.881   1.432   2.421
 3017TIP3    H1 8928   4.817   1.387   2.361
 3017TIP3    H2 8929   4.877   1.521   2.380
 3018TIP3   OH2 8930   5.097   2.292   3.503
 3018TIP3    H1 8931   4.999   2.286   3.495
 3018TIP3    H2 8932   5.122   2.262   3.413
 3019TIP3   OH2 8933   4.571   2.253   2.328
 3019TIP3    H1 8934   4.559   2.180   2.389
 3019TIP3    H2 8935   4.592   2.209   2.244
 3020TIP3   OH2 8936   4.575   1.883   3.169
 3020TIP3    H1 8937   4.482   1.857   3.181
 3020TIP3    H2 8938   4.610   1.803   3.125
 3021TIP3   OH2 8939   3.692   2.102   2.907
 3021TIP3    H1 8940   3.722   2.193   2.907
 3021TIP3    H2 8941   3.601   2.108   2.937
 3022TIP3   OH2 8942   3.255   1.417   2.615
 3022TIP3    H1 8943   3.314   1.492   2.638
 3022TIP3    H2 8944   3.189   1.422   2.687
 3023TIP3   OH2 8945   3.844   1.875   2.864
 3023TIP3    H1 8946   3.798   1.960   2.877
 3023TIP3    H2 8947   3.811   1.823   2.939
 3024TIP3   OH2 8948   3.970   2.454   3.390
 3024TIP3    H1 8949   4.014   2.527   3.340
 3024TIP3    H2 8950   4.046   2.419   3.440
 3025TIP3   OH2 8951   4.360   2.090   3.348
 3025TIP3    H1 8952   4.351   2.086   3.446
 3025TIP3    H2 8953   4.439   2.036   3.334
 3026TIP3   OH2 8954   4.333   1.978   2.234
 3026TIP3    H1 8955   4.389   1.955   2.311
 3026TIP3    H2 8956   4.246   1.952   2.267
 3027TIP3   OH2 8957   4.608   2.623   3.400
 3027TIP3    H1 8958   4.529   2.566   3.392
 3027TIP3    H2 8959   4.592   2.687   3.328
 3028TIP3   OH2 8960   4.673   2.456   2.052
 3028TIP3    H1 8961   4.712   2.526   1.997
 3028TIP3    H2 8962   4.594   2.504   2.083
 3029TIP3   OH2 8963   3.694   1.235   3.918
 3029TIP3    H1 8964   3.598   1.237   3.934
 3029TIP3    H2 8965   3.724   1.175   3.989
 3030TIP3   OH2 8966   4.493   1.917   2.452
 3030TIP3    H1 8967   4.484   1.849   2.521
 3030TIP3    H2 8968   4.590   1.913   2.437
 3031TIP3   OH2 8969   3.412   2.316   3.549
 3031TIP3    H1 8970   3.465   2.244   3.585
 3031TIP3    H2 8971   3.436   2.388   3.609
 3032TIP3   OH2 8972   3.698   1.963   2.233
 3032TIP3    H1 8973   3.717   1.875   2.196
 3032TIP3    H2 8974   3.676   1.940   2.325
 3033TIP3   OH2 8975   3.656   1.977   2.513
 3033TIP3    H1 8976   3.705   1.914   2.568
 3033TIP3    H2 8977   3.723   2.047   2.500
 3034TIP3   OH2 8978   3.377   1.656   2.702
 3034TIP3    H1 8979   3.318   1.704   2.764
 3034TIP3    H2 8980   3.399   1.727   2.640
 3035TIP3   OH2 8981   4.522   1.304   3.606
 3035TIP3    H1 8982   4.609   1.336   3.635
 3035TIP3    H2 8983   4.514   1.219   3.655
 3036TIP3   OH2 8984   4.401   1.054   2.763
 3036TIP3    H1 8985   4.403   1.077   2.669
 3036TIP3    H2 8986   4.447   1.131   2.804
 3037TIP3   OH2 8987   3.876   2.165   2.456
 3037TIP3    H1 8988   3.872   2.248   2.505
 3037TIP3    H2 8989   3.923   2.194   2.375
 3038TIP3   OH2 8990   4.368   1.547   3.674
 3038TIP3    H1 8991   4.392   1.597   3.754
 3038TIP3    H2 8992   4.423   1.467   3.682
 3039TIP3   OH2 8993   4.236   0.959   2.967
 3039TIP3    H1 8994   4.215   1.033   3.027
 3039TIP3    H2 8995   4.301   1.001   2.905
 3040TIP3   OH2 8996   3.753   0.951   2.750
 3040TIP3    H1 8997   3.753   1.037   2.799
 3040TIP3    H2 8998   3.847   0.928   2.765
 3041TIP3   OH2 8999   5.009   1.447   3.652
 3041TIP3    H1 9000   4.911   1.446   3.660
 3041TIP3    H2 9001   5.019   1.404   3.566
 3042TIP3   OH2 9002   4.659   1.643   3.043
 3042TIP3    H1 9003   4.584   1.581   3.051
 3042TIP3    H2 9004   4.731   1.594   3.089
 3043TIP3   OH2 9005   3.376   1.873   2.510
 3043TIP3    H1 9006   3.448   1.938   2.521
 3043TIP3    H2 9007   3.416   1.815   2.442
 3044TIP3   OH2 9008   3.314   1.139   2.642
 3044TIP3    H1 9009   3.330   1.235   2.636
 3044TIP3    H2 9010   3.227   1.129   2.602
 3045TIP3   OH2 9011   4.627   2.596   2.991
 3045TIP3    H1 9012   4.586   2.644   2.916
 3045TIP3    H2 9013   4.722   2.615   2.972
 3046TIP3   OH2 9014   3.701   0.869   3.523
 3046TIP3    H1 9015   3.672   0.836   3.434
 3046TIP3    H2 9016   3.692   0.788   3.578
 3047TIP3   OH2 9017   3.232   2.075   2.900
 3047TIP3    H1 9018   3.166   2.116   2.957
 3047TIP3    H2 9019   3.215   2.120   2.815
 3048TIP3   OH2 9020   3.401   2.625   3.971
 3048TIP3    H1 9021   3.487   2.627   4.019
 3048TIP3    H2 9022   3.383   2.529   3.971
 3049TIP3   OH2 9023   3.881   2.592   4.016
 3049TIP3    H1 9024   3.975   2.575   4.026
 3049TIP3    H2 9025   3.859   2.533   3.941
 3050TIP3   OH2 9026   3.869   2.165   2.150
 3050TIP3    H1 9027   3.812   2.090   2.180
 3050TIP3    H2 9028   3.940   2.118   2.103
 3051TIP3   OH2 9029   4.521   2.495   3.748
 3051TIP3    H1 9030   4.512   2.426   3.817
 3051TIP3    H2 9031   4.599   2.546   3.779
 3052TIP3   OH2 9032   4.298   2.207   2.054
 3052TIP3    H1 9033   4.350   2.148   2.112
 3052TIP3    H2 9034   4.352   2.211   1.973
 3053TIP3   OH2 9035   3.531   2.032   4.172
 3053TIP3    H1 9036   3.549   1.936   4.179
 3053TIP3    H2 9037   3.443   2.033   4.129
 3054TIP3   OH2 9038   3.508   1.684   2.367
 3054TIP3    H1 9039   3.559   1.641   2.437
 3054TIP3    H2 9040   3.576   1.687   2.295
 3055TIP3   OH2 9041   4.138   2.115   3.945
 3055TIP3    H1 9042   4.100   2.130   3.857
 3055TIP3    H2 9043   4.171   2.023   3.939
 3056TIP3   OH2 9044   4.009   1.876   2.171
 3056TIP3    H1 9045   4.018   1.890   2.267
 3056TIP3    H2 9046   4.013   1.778   2.166
 3057TIP3   OH2 9047   4.630   2.125   3.550
 3057TIP3    H1 9048   4.706   2.168   3.507
 3057TIP3    H2 9049   4.561   2.192   3.536
 3058TIP3   OH2 9050   3.650   1.764   4.151
 3058TIP3    H1 9051   3.726   1.707   4.132
 3058TIP3    H2 9052   3.674   1.798   4.240
 3059TIP3   OH2 9053   3.717   1.582   2.589
 3059TIP3    H1 9054   3.699   1.533   2.671
 3059TIP3    H2 9055   3.752   1.509   2.533
 3060TIP3   OH2 9056   3.980   1.646   3.811
 3060TIP3    H1 9057   3.908   1.712   3.816
 3060TIP3    H2 9058   4.034   1.681   3.736
 3061TIP3   OH2 9059   3.818   1.381   2.429
 3061TIP3    H1 9060   3.794   1.382   2.335
 3061TIP3    H2 9061   3.916   1.385   2.425
 3062TIP3   OH2 9062   4.501   2.052   3.948
 3062TIP3    H1 9063   4.583   2.031   3.902
 3062TIP3    H2 9064   4.500   1.986   4.019
 3063TIP3   OH2 9065   4.636   1.711   2.090
 3063TIP3    H1 9066   4.618   1.665   2.006
 3063TIP3    H2 9067   4.605   1.801   2.066
 3064TIP3   OH2 9068   4.105   1.437   3.943
 3064TIP3    H1 9069   4.109   1.357   3.887
 3064TIP3    H2 9070   4.064   1.502   3.883
 3065TIP3   OH2 9071   4.110   1.224   3.750
 3065TIP3    H1 9072   4.140   1.265   3.666
 3065TIP3    H2 9073   4.017   1.202   3.729
 3066TIP3   OH2 9074   4.137   1.759   3.623
 3066TIP3    H1 9075   4.222   1.763   3.576
 3066TIP3    H2 9076   4.085   1.828   3.577
 3067TIP3   OH2 9077   4.720   1.728   4.003
 3067TIP3    H1 9078   4.768   1.644   4.015
 3067TIP3    H2 9079   4.791   1.785   3.969
 3068TIP3   OH2 9080   4.761   1.981   3.739
 3068TIP3    H1 9081   4.704   2.034   3.679
 3068TIP3    H2 9082   4.849   2.000   3.699
 3069TIP3   OH2 9083   3.982   1.553   4.169
 3069TIP3    H1 9084   3.915   1.484   4.185
 3069TIP3    H2 9085   4.020   1.525   4.084
 3070TIP3   OH2 9086   4.243   0.989   3.816
 3070TIP3    H1 9087   4.195   1.072   3.792
 3070TIP3    H2 9088   4.174   0.922   3.802
 3071TIP3   OH2 9089   4.368   1.495   4.032
 3071TIP3    H1 9090   4.361   1.482   4.128
 3071TIP3    H2 9091   4.278   1.468   4.004
 3072TIP3   OH2 9092   4.609   1.445   3.887
 3072TIP3    H1 9093   4.533   1.444   3.949
 3072TIP3    H2 9094   4.683   1.413   3.943
 3073TIP3   OH2 9095   4.833   1.381   4.038
 3073TIP3    H1 9096   4.848   1.286   4.057
 3073TIP3    H2 9097   4.832   1.422   4.127
 3074TIP3   OH2 9098   3.824   1.332   4.224
 3074TIP3    H1 9099   3.834   1.241   4.189
 3074TIP3    H2 9100   3.862   1.320   4.314
 3075TIP3   OH2 9101   4.336   0.997   4.073
 3075TIP3    H1 9102   4.405   0.928   4.067
 3075TIP3    H2 9103   4.298   0.992   3.983
 3076TIP3   OH2 9104   4.402   1.213   4.232
 3076TIP3    H1 9105   4.380   1.142   4.168
 3076TIP3    H2 9106   4.325   1.273   4.225
 3077TIP3   OH2 9107   3.616   2.447   2.357
 3077TIP3    H1 9108   3.710   2.434   2.328
 3077TIP3    H2 9109   3.582   2.486   2.271
 3078TIP3   OH2 9110   3.106   1.824   2.551
 3078TIP3    H1 9111   3.200   1.848   2.537
 3078TIP3    H2 9112   3.103   1.735   2.509
 3079TIP3   OH2 9113   3.023   2.443   2.962
 3079TIP3    H1 9114   2.959   2.381   2.919
 3079TIP3    H2 9115   3.061   2.384   3.029
 3080TIP3   OH2 9116   3.161   2.288   3.143
 3080TIP3    H1 9117   3.138   2.220   3.207
 3080TIP3    H2 9118   3.210   2.351   3.200
 3081TIP3   OH2 9119   4.878   2.691   2.947
 3081TIP3    H1 9120   4.908   2.723   3.035
 3081TIP3    H2 9121   4.943   2.731   2.888
 3082TIP3   OH2 9122   4.910   2.709   3.230
 3082TIP3    H1 9123   4.868   2.620   3.226
 3082TIP3    H2 9124   4.986   2.688   3.286
 3083TIP3   OH2 9125   4.956   2.386   3.802
 3083TIP3    H1 9126   4.883   2.393   3.867
 3083TIP3    H2 9127   4.997   2.474   3.807
 3084TIP3   OH2 9128   4.771   1.900   2.424
 3084TIP3    H1 9129   4.841   1.962   2.395
 3084TIP3    H2 9130   4.814   1.860   2.503
 3085TIP3   OH2 9131   4.899   1.767   2.627
 3085TIP3    H1 9132   4.835   1.723   2.686
 3085TIP3    H2 9133   4.965   1.803   2.689
 3086TIP3   OH2 9134   4.953   2.156   3.057
 3086TIP3    H1 9135   5.008   2.092   3.009
 3086TIP3    H2 9136   4.948   2.231   2.994
 3087TIP3   OH2 9137   4.787   2.458   3.254
 3087TIP3    H1 9138   4.716   2.499   3.306
 3087TIP3    H2 9139   4.737   2.409   3.185
 3088TIP3   OH2 9140   4.839   1.674   2.274
 3088TIP3    H1 9141   4.766   1.677   2.207
 3088TIP3    H2 9142   4.812   1.749   2.330
 3089TIP3   OH2 9143   4.707   1.346   2.229
 3089TIP3    H1 9144   4.668   1.382   2.149
 3089TIP3    H2 9145   4.683   1.251   2.221
 3090TIP3   OH2 9146   4.714   1.620   2.773
 3090TIP3    H1 9147   4.722   1.524   2.769
 3090TIP3    H2 9148   4.701   1.635   2.869
 3091TIP3   OH2 9149   3.341   1.710   3.517
 3091TIP3    H1 9150   3.346   1.671   3.426
 3091TIP3    H2 9151   3.437   1.705   3.540
 3092TIP3   OH2 9152   5.004   2.046   3.630
 3092TIP3    H1 9153   5.076   1.980   3.622
 3092TIP3    H2 9154   5.033   2.116   3.568
 3093TIP3   OH2 9155   5.190   1.854   3.650
 3093TIP3    H1 9156   5.115   1.802   3.688
 3093TIP3    H2 9157   5.263   1.789   3.662
 3094TIP3   OH2 9158   4.655   1.079   2.212
 3094TIP3    H1 9159   4.735   1.056   2.263
 3094TIP3    H2 9160   4.587   1.020   2.248
 3095TIP3   OH2 9161   4.710   1.333   2.669
 3095TIP3    H1 9162   4.750   1.245   2.688
 3095TIP3    H2 9163   4.771   1.365   2.600
 3096TIP3   OH2 9164   4.874   1.517   3.163
 3096TIP3    H1 9165   4.961   1.542   3.124
 3096TIP3    H2 9166   4.888   1.550   3.254
 3097TIP3   OH2 9167   4.942   1.656   3.397
 3097TIP3    H1 9168   4.863   1.690   3.444
 3097TIP3    H2 9169   4.974   1.737   3.351
 3098TIP3   OH2 9170   3.558   1.384   4.193
 3098TIP3    H1 9171   3.656   1.377   4.196
 3098TIP3    H2 9172   3.534   1.299   4.235
 3099TIP3   OH2 9173   5.389   1.242   3.950
 3099TIP3    H1 9174   5.451   1.180   3.907
 3099TIP3    H2 9175   5.365   1.302   3.877
 3100TIP3   OH2 9176   4.825   1.083   2.709
 3100TIP3    H1 9177   4.865   1.060   2.795
 3100TIP3    H2 9178   4.762   1.008   2.700
 3101TIP3   OH2 9179   3.516   1.077   3.536
 3101TIP3    H1 9180   3.577   1.001   3.538
 3101TIP3    H2 9181   3.580   1.149   3.518
 3102TIP3   OH2 9182   3.318   1.354   3.595
 3102TIP3    H1 9183   3.371   1.341   3.513
 3102TIP3    H2 9184   3.366   1.426   3.636
 3103TIP3   OH2 9185   5.265   1.388   3.757
 3103TIP3    H1 9186   5.179   1.428   3.780
 3103TIP3    H2 9187   5.235   1.316   3.699
 3104TIP3   OH2 9188   4.901   1.035   2.327
 3104TIP3    H1 9189   4.940   0.952   2.292
 3104TIP3    H2 9190   4.977   1.096   2.326
 3105TIP3   OH2 9191   3.302   0.838   3.092
 3105TIP3    H1 9192   3.212   0.850   3.128
 3105TIP3    H2 9193   3.306   0.906   3.021
 3106TIP3   OH2 9194   4.461   2.555   2.605
 3106TIP3    H1 9195   4.514   2.540   2.523
 3106TIP3    H2 9196   4.517   2.619   2.652
 3107TIP3   OH2 9197   3.525   0.932   3.914
 3107TIP3    H1 9198   3.476   0.928   3.998
 3107TIP3    H2 9199   3.459   0.969   3.854
 3108TIP3   OH2 9200   3.566   2.358   3.990
 3108TIP3    H1 9201   3.473   2.330   3.976
 3108TIP3    H2 9202   3.579   2.341   4.084
 3109TIP3   OH2 9203   3.743   2.389   3.536
 3109TIP3    H1 9204   3.697   2.467   3.499
 3109TIP3    H2 9205   3.830   2.403   3.494
 3110TIP3   OH2 9206   4.190   2.637   3.676
 3110TIP3    H1 9207   4.232   2.637   3.765
 3110TIP3    H2 9208   4.257   2.687   3.625
 3111TIP3   OH2 9209   4.369   2.787   3.533
 3111TIP3    H1 9210   4.442   2.736   3.494
 3111TIP3    H2 9211   4.419   2.845   3.595
 3112TIP3   OH2 9212   5.163   1.151   3.635
 3112TIP3    H1 9213   5.072   1.148   3.600
 3112TIP3    H2 9214   5.192   1.058   3.622
 3113TIP3   OH2 9215   3.420   2.648   3.561
 3113TIP3    H1 9216   3.330   2.681   3.541
 3113TIP3    H2 9217   3.434   2.687   3.649
 3114TIP3   OH2 9218   3.656   2.626   3.419
 3114TIP3    H1 9219   3.570   2.638   3.465
 3114TIP3    H2 9220   3.636   2.659   3.330
 3115TIP3   OH2 9221   4.083   2.655   3.217
 3115TIP3    H1 9222   4.016   2.680   3.151
 3115TIP3    H2 9223   4.098   2.741   3.263
 3116TIP3   OH2 9224   4.352   2.594   3.267
 3116TIP3    H1 9225   4.258   2.613   3.248
 3116TIP3    H2 9226   4.396   2.672   3.229
 3117TIP3   OH2 9227   4.557   2.786   3.184
 3117TIP3    H1 9228   4.545   2.871   3.137
 3117TIP3    H2 9229   4.585   2.727   3.112
 3118TIP3   OH2 9230   3.336   2.441   3.304
 3118TIP3    H1 9231   3.360   2.418   3.396
 3118TIP3    H2 9232   3.408   2.396   3.255
 3119TIP3   OH2 9233   3.528   2.310   3.155
 3119TIP3    H1 9234   3.541   2.227   3.207
 3119TIP3    H2 9235   3.617   2.349   3.159
 3120TIP3   OH2 9236   3.792   2.404   3.168
 3120TIP3    H1 9237   3.826   2.312   3.164
 3120TIP3    H2 9238   3.836   2.433   3.250
 3121TIP3   OH2 9239   4.389   1.068   3.273
 3121TIP3    H1 9240   4.328   0.999   3.305
 3121TIP3    H2 9241   4.446   1.020   3.211
 3122TIP3   OH2 9242   4.892   0.965   3.179
 3122TIP3    H1 9243   4.932   0.985   3.091
 3122TIP3    H2 9244   4.798   0.957   3.154
 3123TIP3   OH2 9245   4.995   1.060   2.939
 3123TIP3    H1 9246   5.047   0.994   2.889
 3123TIP3    H2 9247   5.030   1.145   2.906
 3124TIP3   OH2 9248   3.613   0.763   3.286
 3124TIP3    H1 9249   3.521   0.732   3.279
 3124TIP3    H2 9250   3.664   0.680   3.275
 3125TIP3   OH2 9251   3.390   0.641   2.914
 3125TIP3    H1 9252   3.432   0.700   2.849
 3125TIP3    H2 9253   3.369   0.705   2.986
 3126TIP3   OH2 9254   4.061   0.802   3.154
 3126TIP3    H1 9255   4.110   0.855   3.089
 3126TIP3    H2 9256   4.081   0.850   3.236
 3127TIP3   OH2 9257   4.608   0.948   3.132
 3127TIP3    H1 9258   4.617   0.913   3.042
 3127TIP3    H2 9259   4.591   0.867   3.184
 3128TIP3   OH2 9260   4.631   0.884   2.681
 3128TIP3    H1 9261   4.541   0.903   2.713
 3128TIP3    H2 9262   4.658   0.811   2.742
 3129TIP3   OH2 9263   3.129   2.212   2.691
 3129TIP3    H1 9264   3.042   2.176   2.665
 3129TIP3    H2 9265   3.106   2.306   2.693
 3130TIP3   OH2 9266   3.520   0.804   2.679
 3130TIP3    H1 9267   3.576   0.744   2.627
 3130TIP3    H2 9268   3.589   0.862   2.718
 3131TIP3   OH2 9269   4.032   0.987   2.780
 3131TIP3    H1 9270   4.102   0.966   2.844
 3131TIP3    H2 9271   3.991   1.065   2.824
 3132TIP3   OH2 9272   3.883   2.406   2.284
 3132TIP3    H1 9273   3.971   2.430   2.248
 3132TIP3    H2 9274   3.864   2.330   2.224
 3133TIP3   OH2 9275   4.608   2.519   2.374
 3133TIP3    H1 9276   4.599   2.422   2.359
 3133TIP3    H2 9277   4.567   2.554   2.292
 3134TIP3   OH2 9278   3.824   1.053   4.160
 3134TIP3    H1 9279   3.791   0.984   4.219
 3134TIP3    H2 9280   3.919   1.054   4.187
 3135TIP3   OH2 9281   4.072   1.051   4.280
 3135TIP3    H1 9282   4.158   1.028   4.241
 3135TIP3    H2 9283   4.062   0.980   4.348
 3136TIP3   OH2 9284   3.193   2.235   2.335
 3136TIP3    H1 9285   3.179   2.254   2.429
 3136TIP3    H2 9286   3.280   2.189   2.334
 3137TIP3   OH2 9287   4.898   1.111   4.069
 3137TIP3    H1 9288   4.918   1.081   4.160
 3137TIP3    H2 9289   4.987   1.108   4.027
 3138TIP3   OH2 9290   4.838   2.666   3.561
 3138TIP3    H1 9291   4.759   2.634   3.513
 3138TIP3    H2 9292   4.819   2.761   3.564
 3139TIP3   OH2 9293   6.104   2.038   2.327
 3139TIP3    H1 9294   6.076   2.129   2.307
 3139TIP3    H2 9295   6.027   1.988   2.294
 3140TIP3   OH2 9296   6.102   2.037   2.708
 3140TIP3    H1 9297   6.134   2.007   2.795
 3140TIP3    H2 9298   6.061   1.956   2.674
 3141TIP3   OH2 9299   5.402   1.932   3.074
 3141TIP3    H1 9300   5.432   1.865   3.137
 3141TIP3    H2 9301   5.480   1.988   3.068
 3142TIP3   OH2 9302   6.344   2.339   2.389
 3142TIP3    H1 9303   6.332   2.269   2.454
 3142TIP3    H2 9304   6.374   2.413   2.444
 3143TIP3   OH2 9305   5.372   2.342   2.799
 3143TIP3    H1 9306   5.364   2.244   2.801
 3143TIP3    H2 9307   5.469   2.351   2.793
 3144TIP3   OH2 9308   5.082   1.549   2.583
 3144TIP3    H1 9309   5.030   1.630   2.596
 3144TIP3    H2 9310   5.012   1.489   2.550
 3145TIP3   OH2 9311   5.139   1.832   2.754
 3145TIP3    H1 9312   5.187   1.756   2.792
 3145TIP3    H2 9313   5.198   1.860   2.683
 3146TIP3   OH2 9314   5.994   2.800   2.404
 3146TIP3    H1 9315   6.042   2.729   2.357
 3146TIP3    H2 9316   5.988   2.764   2.493
 3147TIP3   OH2 9317   5.902   2.263   2.756
 3147TIP3    H1 9318   5.939   2.186   2.710
 3147TIP3    H2 9319   5.986   2.307   2.780
 3148TIP3   OH2 9320   6.914   1.583   2.754
 3148TIP3    H1 9321   6.943   1.666   2.796
 3148TIP3    H2 9322   6.939   1.600   2.661
 3149TIP3   OH2 9323   6.313   1.765   2.789
 3149TIP3    H1 9324   6.356   1.680   2.809
 3149TIP3    H2 9325   6.284   1.749   2.697
 3150TIP3   OH2 9326   5.651   1.423   2.754
 3150TIP3    H1 9327   5.631   1.497   2.693
 3150TIP3    H2 9328   5.603   1.350   2.710
 3151TIP3   OH2 9329   6.345   1.515   2.377
 3151TIP3    H1 9330   6.418   1.498   2.442
 3151TIP3    H2 9331   6.396   1.550   2.302
 3152TIP3   OH2 9332   5.285   1.627   2.860
 3152TIP3    H1 9333   5.368   1.606   2.908
 3152TIP3    H2 9334   5.296   1.569   2.782
 3153TIP3   OH2 9335   5.726   1.824   2.653
 3153TIP3    H1 9336   5.820   1.798   2.667
 3153TIP3    H2 9337   5.687   1.740   2.621
 3154TIP3   OH2 9338   6.988   1.791   2.924
 3154TIP3    H1 9339   6.904   1.838   2.903
 3154TIP3    H2 9340   6.995   1.810   3.018
 3155TIP3   OH2 9341   5.648   1.405   3.188
 3155TIP3    H1 9342   5.587   1.444   3.122
 3155TIP3    H2 9343   5.598   1.425   3.270
 3156TIP3   OH2 9344   6.003   2.264   2.191
 3156TIP3    H1 9345   5.953   2.236   2.114
 3156TIP3    H2 9346   5.954   2.344   2.218
 3157TIP3   OH2 9347   5.754   2.183   2.983
 3157TIP3    H1 9348   5.691   2.247   3.022
 3157TIP3    H2 9349   5.795   2.235   2.911
 3158TIP3   OH2 9350   6.556   1.515   2.549
 3158TIP3    H1 9351   6.544   1.471   2.633
 3158TIP3    H2 9352   6.611   1.592   2.573
 3159TIP3   OH2 9353   5.518   1.522   2.973
 3159TIP3    H1 9354   5.580   1.595   2.996
 3159TIP3    H2 9355   5.567   1.482   2.898
 3160TIP3   OH2 9356   5.582   2.376   3.082
 3160TIP3    H1 9357   5.555   2.461   3.042
 3160TIP3    H2 9358   5.503   2.359   3.138
 3161TIP3   OH2 9359   4.977   2.066   2.318
 3161TIP3    H1 9360   4.938   2.093   2.233
 3161TIP3    H2 9361   5.008   2.151   2.354
 3162TIP3   OH2 9362   6.417   2.581   2.557
 3162TIP3    H1 9363   6.327   2.573   2.597
 3162TIP3    H2 9364   6.409   2.668   2.512
 3163TIP3   OH2 9365   6.708   1.482   2.920
 3163TIP3    H1 9366   6.620   1.512   2.891
 3163TIP3    H2 9367   6.766   1.515   2.849
 3164TIP3   OH2 9368   6.007   1.135   2.900
 3164TIP3    H1 9369   5.997   1.040   2.914
 3164TIP3    H2 9370   5.929   1.170   2.947
 3165TIP3   OH2 9371   6.121   2.627   2.232
 3165TIP3    H1 9372   6.173   2.545   2.211
 3165TIP3    H2 9373   6.181   2.694   2.191
 3166TIP3   OH2 9374   6.264   2.407   2.134
 3166TIP3    H1 9375   6.201   2.337   2.114
 3166TIP3    H2 9376   6.300   2.377   2.220
 3167TIP3   OH2 9377   6.644   2.496   2.901
 3167TIP3    H1 9378   6.632   2.417   2.843
 3167TIP3    H2 9379   6.626   2.569   2.839
 3168TIP3   OH2 9380   5.934   1.890   2.157
 3168TIP3    H1 9381   5.853   1.940   2.134
 3168TIP3    H2 9382   5.980   1.884   2.071
 3169TIP3   OH2 9383   5.894   1.671   1.876
 3169TIP3    H1 9384   5.962   1.723   1.922
 3169TIP3    H2 9385   5.950   1.608   1.827
 3170TIP3   OH2 9386   6.839   2.133   2.746
 3170TIP3    H1 9387   6.755   2.184   2.751
 3170TIP3    H2 9388   6.866   2.155   2.654
 3171TIP3   OH2 9389   6.281   1.972   2.131
 3171TIP3    H1 9390   6.227   1.995   2.209
 3171TIP3    H2 9391   6.365   1.944   2.174
 3172TIP3   OH2 9392   6.520   2.011   3.038
 3172TIP3    H1 9393   6.513   2.091   3.093
 3172TIP3    H2 9394   6.431   2.012   2.996
 3173TIP3   OH2 9395   5.514   1.970   2.546
 3173TIP3    H1 9396   5.472   1.912   2.479
 3173TIP3    H2 9397   5.591   1.916   2.575
 3174TIP3   OH2 9398   5.643   2.380   2.695
 3174TIP3    H1 9399   5.622   2.337   2.611
 3174TIP3    H2 9400   5.734   2.347   2.713
 3175TIP3   OH2 9401   5.651   1.940   2.901
 3175TIP3    H1 9402   5.684   1.919   2.811
 3175TIP3    H2 9403   5.694   2.026   2.920
 3176TIP3   OH2 9404   6.175   2.578   2.677
 3176TIP3    H1 9405   6.162   2.657   2.732
 3176TIP3    H2 9406   6.162   2.505   2.740
 3177TIP3   OH2 9407   5.787   2.498   3.224
 3177TIP3    H1 9408   5.727   2.560   3.270
 3177TIP3    H2 9409   5.722   2.444   3.175
 3178TIP3   OH2 9410   6.122   1.830   1.955
 3178TIP3    H1 9411   6.182   1.888   2.007
 3178TIP3    H2 9412   6.149   1.853   1.862
 3179TIP3   OH2 9413   5.541   2.057   3.322
 3179TIP3    H1 9414   5.545   2.142   3.370
 3179TIP3    H2 9415   5.447   2.034   3.334
 3180TIP3   OH2 9416   5.865   2.509   2.232
 3180TIP3    H1 9417   5.942   2.564   2.250
 3180TIP3    H2 9418   5.803   2.571   2.190
 3181TIP3   OH2 9419   5.582   2.667   3.312
 3181TIP3    H1 9420   5.547   2.665   3.220
 3181TIP3    H2 9421   5.503   2.645   3.365
 3182TIP3   OH2 9422   6.640   1.071   2.005
 3182TIP3    H1 9423   6.557   1.091   2.054
 3182TIP3    H2 9424   6.653   1.153   1.954
 3183TIP3   OH2 9425   5.380   1.812   2.352
 3183TIP3    H1 9426   5.314   1.856   2.294
 3183TIP3    H2 9427   5.339   1.725   2.365
 3184TIP3   OH2 9428   6.437   2.439   1.555
 3184TIP3    H1 9429   6.441   2.536   1.538
 3184TIP3    H2 9430   6.529   2.413   1.544
 3185TIP3   OH2 9431   5.161   2.196   3.258
 3185TIP3    H1 9432   5.097   2.171   3.188
 3185TIP3    H2 9433   5.199   2.109   3.285
 3186TIP3   OH2 9434   5.015   2.388   2.891
 3186TIP3    H1 9435   5.111   2.380   2.881
 3186TIP3    H2 9436   5.009   2.467   2.947
 3187TIP3   OH2 9437   6.881   2.839   2.948
 3187TIP3    H1 9438   6.879   2.742   2.959
 3187TIP3    H2 9439   6.796   2.864   2.992
 3188TIP3   OH2 9440   5.986   2.626   3.082
 3188TIP3    H1 9441   5.985   2.719   3.114
 3188TIP3    H2 9442   5.914   2.587   3.135
 3189TIP3   OH2 9443   5.746   2.755   2.033
 3189TIP3    H1 9444   5.701   2.736   1.949
 3189TIP3    H2 9445   5.714   2.844   2.055
 3190TIP3   OH2 9446   5.183   2.605   2.417
 3190TIP3    H1 9447   5.232   2.595   2.501
 3190TIP3    H2 9448   5.126   2.526   2.421
 3191TIP3   OH2 9449   5.948   2.657   1.674
 3191TIP3    H1 9450   6.007   2.588   1.637
 3191TIP3    H2 9451   5.982   2.665   1.765
 3192TIP3   OH2 9452   5.998   2.703   1.945
 3192TIP3    H1 9453   5.909   2.714   1.985
 3192TIP3    H2 9454   6.047   2.664   2.018
 3193TIP3   OH2 9455   6.771   1.975   3.216
 3193TIP3    H1 9456   6.685   1.983   3.172
 3193TIP3    H2 9457   6.784   1.878   3.216
 3194TIP3   OH2 9458   5.366   2.379   3.248
 3194TIP3    H1 9459   5.416   2.361   3.330
 3194TIP3    H2 9460   5.292   2.315   3.255
 3195TIP3   OH2 9461   5.766   1.200   3.030
 3195TIP3    H1 9462   5.675   1.174   3.005
 3195TIP3    H2 9463   5.746   1.285   3.074
 3196TIP3   OH2 9464   6.299   1.316   3.223
 3196TIP3    H1 9465   6.368   1.294   3.289
 3196TIP3    H2 9466   6.216   1.300   3.271
 3197TIP3   OH2 9467   6.534   1.742   3.157
 3197TIP3    H1 9468   6.491   1.759   3.244
 3197TIP3    H2 9469   6.514   1.826   3.113
 3198TIP3   OH2 9470   6.202   1.882   1.701
 3198TIP3    H1 9471   6.167   1.853   1.615
 3198TIP3    H2 9472   6.286   1.924   1.674
 3199TIP3   OH2 9473   5.909   1.252   2.001
 3199TIP3    H1 9474   5.878   1.249   2.094
 3199TIP3    H2 9475   5.872   1.168   1.967
 3200TIP3   OH2 9476   5.696   1.717   3.049
 3200TIP3    H1 9477   5.648   1.739   3.132
 3200TIP3    H2 9478   5.681   1.798   2.996
 3201TIP3   OH2 9479   5.581   1.603   2.564
 3201TIP3    H1 9480   5.488   1.577   2.581
 3201TIP3    H2 9481   5.595   1.563   2.475
 3202TIP3   OH2 9482   6.072   1.690   2.291
 3202TIP3    H1 9483   6.019   1.761   2.248
 3202TIP3    H2 9484   6.126   1.659   2.216
 3203TIP3   OH2 9485   6.229   1.718   2.530
 3203TIP3    H1 9486   6.169   1.747   2.458
 3203TIP3    H2 9487   6.263   1.637   2.488
 3204TIP3   OH2 9488   5.516   1.747   3.259
 3204TIP3    H1 9489   5.551   1.807   3.327
 3204TIP3    H2 9490   5.506   1.664   3.309
 3205TIP3   OH2 9491   5.565   1.223   1.968
 3205TIP3    H1 9492   5.558   1.221   2.065
 3205TIP3    H2 9493   5.487   1.276   1.945
 3206TIP3   OH2 9494   5.111   1.279   2.831
 3206TIP3    H1 9495   5.189   1.302   2.887
 3206TIP3    H2 9496   5.148   1.236   2.753
 3207TIP3   OH2 9497   5.087   1.250   2.358
 3207TIP3    H1 9498   5.132   1.290   2.280
 3207TIP3    H2 9499   5.024   1.322   2.379
 3208TIP3   OH2 9500   6.240   1.964   2.955
 3208TIP3    H1 9501   6.273   1.893   2.897
 3208TIP3    H2 9502   6.212   1.912   3.033
 3209TIP3   OH2 9503   5.907   1.425   2.625
 3209TIP3    H1 9504   5.825   1.425   2.677
 3209TIP3    H2 9505   5.975   1.428   2.694
 3210TIP3   OH2 9506   5.343   1.481   2.633
 3210TIP3    H1 9507   5.248   1.489   2.607
 3210TIP3    H2 9508   5.364   1.389   2.611
 3211TIP3   OH2 9509   5.613   1.478   2.321
 3211TIP3    H1 9510   5.707   1.493   2.299
 3211TIP3    H2 9511   5.566   1.501   2.237
 3212TIP3   OH2 9512   6.402   1.501   2.823
 3212TIP3    H1 9513   6.370   1.513   2.916
 3212TIP3    H2 9514   6.333   1.441   2.788
 3213TIP3   OH2 9515   5.452   1.511   2.100
 3213TIP3    H1 9516   5.380   1.467   2.052
 3213TIP3    H2 9517   5.504   1.547   2.025
 3214TIP3   OH2 9518   6.570   3.190   3.044
 3214TIP3    H1 9519   6.566   3.214   2.949
 3214TIP3    H2 9520   6.646   3.243   3.074
 3215TIP3   OH2 9521   5.527   2.302   3.467
 3215TIP3    H1 9522   5.607   2.331   3.516
 3215TIP3    H2 9523   5.463   2.299   3.541
 3216TIP3   OH2 9524   5.991   1.753   2.722
 3216TIP3    H1 9525   6.065   1.715   2.673
 3216TIP3    H2 9526   6.001   1.712   2.810
 3217TIP3   OH2 9527   5.517   1.241   2.601
 3217TIP3    H1 9528   5.481   1.161   2.644
 3217TIP3    H2 9529   5.566   1.204   2.526
 3218TIP3   OH2 9530   5.966   1.649   3.009
 3218TIP3    H1 9531   5.877   1.686   3.025
 3218TIP3    H2 9532   6.025   1.708   3.062
 3219TIP3   OH2 9533   5.704   2.042   2.107
 3219TIP3    H1 9534   5.632   1.977   2.096
 3219TIP3    H2 9535   5.686   2.075   2.198
 3220TIP3   OH2 9536   6.606   2.278   2.737
 3220TIP3    H1 9537   6.630   2.327   2.655
 3220TIP3    H2 9538   6.521   2.236   2.713
 3221TIP3   OH2 9539   6.164   1.351   1.974
 3221TIP3    H1 9540   6.067   1.337   1.976
 3221TIP3    H2 9541   6.173   1.447   1.991
 3222TIP3   OH2 9542   6.107   2.361   3.103
 3222TIP3    H1 9543   6.124   2.335   3.194
 3222TIP3    H2 9544   6.065   2.449   3.112
 3223TIP3   OH2 9545   6.233   1.602   2.074
 3223TIP3    H1 9546   6.329   1.606   2.087
 3223TIP3    H2 9547   6.215   1.679   2.017
 3224TIP3   OH2 9548   5.397   2.064   2.784
 3224TIP3    H1 9549   5.435   2.035   2.698
 3224TIP3    H2 9550   5.436   2.000   2.845
 3225TIP3   OH2 9551   5.850   2.192   1.929
 3225TIP3    H1 9552   5.803   2.278   1.934
 3225TIP3    H2 9553   5.795   2.136   1.988
 3226TIP3   OH2 9554   5.276   1.986   3.397
 3226TIP3    H1 9555   5.300   1.971   3.491
 3226TIP3    H2 9556   5.210   1.917   3.382
 3227TIP3   OH2 9557   6.004   2.093   3.416
 3227TIP3    H1 9558   5.940   2.034   3.372
 3227TIP3    H2 9559   6.088   2.056   3.386
 3228TIP3   OH2 9560   6.266   2.622   2.999
 3228TIP3    H1 9561   6.169   2.617   3.011
 3228TIP3    H2 9562   6.291   2.673   3.078
 3229TIP3   OH2 9563   6.666   1.671   1.921
 3229TIP3    H1 9564   6.606   1.628   1.855
 3229TIP3    H2 9565   6.680   1.754   1.873
 3230TIP3   OH2 9566   6.894   2.551   2.989
 3230TIP3    H1 9567   6.796   2.543   2.981
 3230TIP3    H2 9568   6.920   2.519   2.899
 3231TIP3   OH2 9569   6.385   2.507   1.821
 3231TIP3    H1 9570   6.333   2.447   1.875
 3231TIP3    H2 9571   6.383   2.466   1.732
 3232TIP3   OH2 9572   6.371   2.140   2.655
 3232TIP3    H1 9573   6.278   2.114   2.669
 3232TIP3    H2 9574   6.406   2.060   2.610
 3233TIP3   OH2 9575   5.498   2.367   2.408
 3233TIP3    H1 9576   5.499   2.448   2.354
 3233TIP3    H2 9577   5.403   2.351   2.415
 3234TIP3   OH2 9578   5.060   1.672   2.109
 3234TIP3    H1 9579   5.108   1.755   2.130
 3234TIP3    H2 9580   4.984   1.678   2.171
 3235TIP3   OH2 9581   5.639   2.134   2.353
 3235TIP3    H1 9582   5.603   2.223   2.371
 3235TIP3    H2 9583   5.602   2.083   2.427
 3236TIP3   OH2 9584   5.766   2.711   2.877
 3236TIP3    H1 9585   5.807   2.784   2.826
 3236TIP3    H2 9586   5.844   2.676   2.925
 3237TIP3   OH2 9587   5.418   2.606   2.261
 3237TIP3    H1 9588   5.332   2.615   2.306
 3237TIP3    H2 9589   5.450   2.699   2.263
 3238TIP3   OH2 9590   6.157   2.345   2.835
 3238TIP3    H1 9591   6.148   2.343   2.933
 3238TIP3    H2 9592   6.236   2.291   2.822
 3239TIP3   OH2 9593   6.127   2.240   1.717
 3239TIP3    H1 9594   6.177   2.208   1.795
 3239TIP3    H2 9595   6.037   2.212   1.741
 3240TIP3   OH2 9596   6.405   2.880   2.887
 3240TIP3    H1 9597   6.326   2.823   2.879
 3240TIP3    H2 9598   6.389   2.944   2.814
 3241TIP3   OH2 9599   6.469   2.712   1.538
 3241TIP3    H1 9600   6.506   2.783   1.482
 3241TIP3    H2 9601   6.389   2.760   1.571
 3242TIP3   OH2 9602   5.490   1.488   3.403
 3242TIP3    H1 9603   5.394   1.495   3.420
 3242TIP3    H2 9604   5.519   1.433   3.477
 3243TIP3   OH2 9605   6.280   2.166   1.935
 3243TIP3    H1 9606   6.263   2.099   2.005
 3243TIP3    H2 9607   6.372   2.184   1.951
 3244TIP3   OH2 9608   5.204   2.574   3.037
 3244TIP3    H1 9609   5.257   2.498   3.067
 3244TIP3    H2 9610   5.235   2.642   3.098
 3245TIP3   OH2 9611   5.497   2.218   1.718
 3245TIP3    H1 9612   5.511   2.127   1.688
 3245TIP3    H2 9613   5.477   2.205   1.813
 3246TIP3   OH2 9614   5.441   2.223   1.991
 3246TIP3    H1 9615   5.514   2.197   2.049
 3246TIP3    H2 9616   5.446   2.321   1.996
 3247TIP3   OH2 9617   5.177   1.917   2.193
 3247TIP3    H1 9618   5.112   1.962   2.250
 3247TIP3    H2 9619   5.193   1.986   2.126
 3248TIP3   OH2 9620   6.328   1.554   3.082
 3248TIP3    H1 9621   6.402   1.599   3.127
 3248TIP3    H2 9622   6.315   1.474   3.137
 3249TIP3   OH2 9623   6.205   1.305   2.250
 3249TIP3    H1 9624   6.191   1.327   2.156
 3249TIP3    H2 9625   6.244   1.388   2.285
 3250TIP3   OH2 9626   5.707   2.421   1.940
 3250TIP3    H1 9627   5.620   2.449   1.974
 3250TIP3    H2 9628   5.723   2.491   1.875
 3251TIP3   OH2 9629   5.896   1.484   2.352
 3251TIP3    H1 9630   5.961   1.555   2.334
 3251TIP3    H2 9631   5.901   1.477   2.450
 3252TIP3   OH2 9632   6.154   1.796   3.157
 3252TIP3    H1 9633   6.184   1.833   3.243
 3252TIP3    H2 9634   6.213   1.719   3.154
 3253TIP3   OH2 9635   6.042   1.212   2.457
 3253TIP3    H1 9636   6.035   1.290   2.514
 3253TIP3    H2 9637   6.102   1.248   2.386
 3254TIP3   OH2 9638   5.450   2.496   2.006
 3254TIP3    H1 9639   5.421   2.565   1.942
 3254TIP3    H2 9640   5.434   2.541   2.092
 3255TIP3   OH2 9641   5.552   1.209   2.246
 3255TIP3    H1 9642   5.549   1.300   2.281
 3255TIP3    H2 9643   5.648   1.192   2.253
 3256TIP3   OH2 9644   6.803   1.703   3.139
 3256TIP3    H1 9645   6.707   1.700   3.157
 3256TIP3    H2 9646   6.805   1.662   3.052
 3257TIP3   OH2 9647   6.457   1.899   2.526
 3257TIP3    H1 9648   6.381   1.839   2.539
 3257TIP3    H2 9649   6.529   1.852   2.574
 3258TIP3   OH2 9650   5.167   2.128   1.999
 3258TIP3    H1 9651   5.232   2.200   2.007
 3258TIP3    H2 9652   5.214   2.073   1.932
 3259TIP3   OH2 9653   5.115   1.403   2.132
 3259TIP3    H1 9654   5.113   1.501   2.127
 3259TIP3    H2 9655   5.030   1.379   2.093
 3260TIP3   OH2 9656   6.424   2.853   2.479
 3260TIP3    H1 9657   6.382   2.900   2.404
 3260TIP3    H2 9658   6.519   2.871   2.458
 3261TIP3   OH2 9659   5.503   1.122   3.003
 3261TIP3    H1 9660   5.466   1.090   2.918
 3261TIP3    H2 9661   5.487   1.046   3.063
 3262TIP3   OH2 9662   5.042   2.341   2.388
 3262TIP3    H1 9663   4.968   2.373   2.441
 3262TIP3    H2 9664   5.020   2.380   2.301
 3263TIP3   OH2 9665   5.195   2.880   3.458
 3263TIP3    H1 9666   5.282   2.879   3.504
 3263TIP3    H2 9667   5.174   2.785   3.456
 3264TIP3   OH2 9668   5.680   2.848   3.502
 3264TIP3    H1 9669   5.774   2.825   3.508
 3264TIP3    H2 9670   5.652   2.790   3.429
 3265TIP3   OH2 9671   5.661   2.423   1.632
 3265TIP3    H1 9672   5.604   2.351   1.669
 3265TIP3    H2 9673   5.734   2.371   1.596
 3266TIP3   OH2 9674   6.314   2.755   3.238
 3266TIP3    H1 9675   6.308   2.682   3.305
 3266TIP3    H2 9676   6.393   2.803   3.267
 3267TIP3   OH2 9677   6.097   2.466   1.542
 3267TIP3    H1 9678   6.139   2.397   1.597
 3267TIP3    H2 9679   6.149   2.465   1.460
 3268TIP3   OH2 9680   5.327   2.289   3.658
 3268TIP3    H1 9681   5.344   2.193   3.665
 3268TIP3    H2 9682   5.239   2.290   3.614
 3269TIP3   OH2 9683   5.303   1.940   1.851
 3269TIP3    H1 9684   5.358   1.907   1.923
 3269TIP3    H2 9685   5.370   1.945   1.779
 3270TIP3   OH2 9686   5.935   2.373   3.431
 3270TIP3    H1 9687   5.893   2.386   3.344
 3270TIP3    H2 9688   5.967   2.280   3.426
 3271TIP3   OH2 9689   5.814   2.138   1.659
 3271TIP3    H1 9690   5.815   2.150   1.756
 3271TIP3    H2 9691   5.814   2.040   1.653
 3272TIP3   OH2 9692   6.428   2.380   3.039
 3272TIP3    H1 9693   6.501   2.426   2.994
 3272TIP3    H2 9694   6.355   2.444   3.025
 3273TIP3   OH2 9695   5.447   2.022   3.638
 3273TIP3    H1 9696   5.521   1.962   3.619
 3273TIP3    H2 9697   5.471   2.054   3.727
 3274TIP3   OH2 9698   5.513   1.842   2.074
 3274TIP3    H1 9699   5.487   1.799   2.157
 3274TIP3    H2 9700   5.549   1.767   2.023
 3275TIP3   OH2 9701   5.781   1.913   3.299
 3275TIP3    H1 9702   5.703   1.972   3.301
 3275TIP3    H2 9703   5.831   1.947   3.222
 3276TIP3   OH2 9704   5.612   1.636   1.915
 3276TIP3    H1 9705   5.586   1.638   1.820
 3276TIP3    H2 9706   5.710   1.641   1.907
 3277TIP3   OH2 9707   6.300   2.307   3.436
 3277TIP3    H1 9708   6.377   2.278   3.386
 3277TIP3    H2 9709   6.298   2.241   3.508
 3278TIP3   OH2 9710   6.443   1.975   1.580
 3278TIP3    H1 9711   6.427   1.919   1.501
 3278TIP3    H2 9712   6.403   2.059   1.548
 3279TIP3   OH2 9713   5.865   1.685   3.435
 3279TIP3    H1 9714   5.907   1.615   3.382
 3279TIP3    H2 9715   5.850   1.756   3.371
 3280TIP3   OH2 9716   5.911   1.472   3.226
 3280TIP3    H1 9717   5.935   1.522   3.146
 3280TIP3    H2 9718   5.815   1.460   3.215
 3281TIP3   OH2 9719   5.936   2.021   3.108
 3281TIP3    H1 9720   6.018   2.022   3.057
 3281TIP3    H2 9721   5.881   2.087   3.061
 3282TIP3   OH2 9722   6.572   1.994   3.538
 3282TIP3    H1 9723   6.509   1.929   3.499
 3282TIP3    H2 9724   6.606   2.033   3.457
 3283TIP3   OH2 9725   6.559   2.240   3.230
 3283TIP3    H1 9726   6.501   2.291   3.168
 3283TIP3    H2 9727   6.646   2.257   3.188
 3284TIP3   OH2 9728   5.776   1.814   3.659
 3284TIP3    H1 9729   5.710   1.745   3.678
 3284TIP3    H2 9730   5.811   1.781   3.574
 3285TIP3   OH2 9731   6.039   1.242   3.300
 3285TIP3    H1 9732   5.994   1.326   3.277
 3285TIP3    H2 9733   5.966   1.178   3.291
 3286TIP3   OH2 9734   6.695   1.635   3.544
 3286TIP3    H1 9735   6.649   1.549   3.547
 3286TIP3    H2 9736   6.648   1.685   3.613
 3287TIP3   OH2 9737   5.619   1.590   3.713
 3287TIP3    H1 9738   5.636   1.504   3.672
 3287TIP3    H2 9739   5.657   1.577   3.802
 3288TIP3   OH2 9740   6.132   1.251   3.558
 3288TIP3    H1 9741   6.202   1.183   3.552
 3288TIP3    H2 9742   6.094   1.247   3.468
 3289TIP3   OH2 9743   6.197   1.467   3.722
 3289TIP3    H1 9744   6.172   1.401   3.653
 3289TIP3    H2 9745   6.124   1.532   3.714
 3290TIP3   OH2 9746   5.419   2.697   1.819
 3290TIP3    H1 9747   5.515   2.695   1.800
 3290TIP3    H2 9748   5.388   2.746   1.740
 3291TIP3   OH2 9749   4.900   2.080   2.036
 3291TIP3    H1 9750   4.994   2.103   2.022
 3291TIP3    H2 9751   4.895   1.992   1.994
 3292TIP3   OH2 9752   4.812   2.693   2.449
 3292TIP3    H1 9753   4.746   2.629   2.413
 3292TIP3    H2 9754   4.858   2.636   2.515
 3293TIP3   OH2 9755   4.949   2.546   2.635
 3293TIP3    H1 9756   4.941   2.471   2.696
 3293TIP3    H2 9757   5.001   2.607   2.691
 3294TIP3   OH2 9758   6.677   2.943   2.435
 3294TIP3    H1 9759   6.704   2.981   2.521
 3294TIP3    H2 9760   6.736   2.990   2.374
 3295TIP3   OH2 9761   6.705   2.966   2.718
 3295TIP3    H1 9762   6.663   2.877   2.712
 3295TIP3    H2 9763   6.783   2.943   2.772
 3296TIP3   OH2 9764   6.755   2.643   3.290
 3296TIP3    H1 9765   6.680   2.649   3.353
 3296TIP3    H2 9766   6.794   2.733   3.296
 3297TIP3   OH2 9767   6.699   2.029   2.094
 3297TIP3    H1 9768   6.629   1.991   2.151
 3297TIP3    H2 9769   6.762   2.066   2.160
 3298TIP3   OH2 9770   6.751   2.413   2.546
 3298TIP3    H1 9771   6.804   2.349   2.496
 3298TIP3    H2 9772   6.744   2.488   2.483
 3299TIP3   OH2 9773   6.583   2.714   2.741
 3299TIP3    H1 9774   6.511   2.756   2.792
 3299TIP3    H2 9775   6.534   2.666   2.671
 3300TIP3   OH2 9776   6.503   1.609   1.715
 3300TIP3    H1 9777   6.474   1.641   1.629
 3300TIP3    H2 9778   6.478   1.514   1.710
 3301TIP3   OH2 9779   6.514   1.881   2.255
 3301TIP3    H1 9780   6.522   1.784   2.249
 3301TIP3    H2 9781   6.503   1.895   2.352
 3302TIP3   OH2 9782   5.137   1.954   3.006
 3302TIP3    H1 9783   5.136   1.923   2.913
 3302TIP3    H2 9784   5.234   1.955   3.024
 3303TIP3   OH2 9785   6.802   2.304   3.118
 3303TIP3    H1 9786   6.873   2.237   3.109
 3303TIP3    H2 9787   6.827   2.371   3.053
 3304TIP3   OH2 9788   6.989   2.111   3.135
 3304TIP3    H1 9789   6.912   2.061   3.172
 3304TIP3    H2 9790   7.059   2.045   3.150
 3305TIP3   OH2 9791   6.445   1.346   1.717
 3305TIP3    H1 9792   6.523   1.307   1.761
 3305TIP3    H2 9793   6.377   1.278   1.723
 3306TIP3   OH2 9794   6.508   1.595   2.156
 3306TIP3    H1 9795   6.547   1.506   2.173
 3306TIP3    H2 9796   6.565   1.623   2.082
 3307TIP3   OH2 9797   6.668   1.769   2.649
 3307TIP3    H1 9798   6.755   1.795   2.609
 3307TIP3    H2 9799   6.682   1.806   2.739
 3308TIP3   OH2 9800   6.737   1.911   2.881
 3308TIP3    H1 9801   6.661   1.946   2.932
 3308TIP3    H2 9802   6.770   1.993   2.838
 3309TIP3   OH2 9803   5.354   1.640   3.680
 3309TIP3    H1 9804   5.452   1.634   3.684
 3309TIP3    H2 9805   5.330   1.555   3.723
 3310TIP3   OH2 9806   7.196   1.508   3.439
 3310TIP3    H1 9807   7.249   1.439   3.395
 3310TIP3    H2 9808   7.162   1.560   3.363
 3311TIP3   OH2 9809   6.615   1.345   2.195
 3311TIP3    H1 9810   6.665   1.329   2.277
 3311TIP3    H2 9811   6.556   1.267   2.192
 3312TIP3   OH2 9812   5.317   1.329   3.011
 3312TIP3    H1 9813   5.381   1.256   3.023
 3312TIP3    H2 9814   5.378   1.406   3.007
 3313TIP3   OH2 9815   5.121   1.605   3.086
 3313TIP3    H1 9816   5.168   1.597   3.001
 3313TIP3    H2 9817   5.153   1.690   3.117
 3314TIP3   OH2 9818   7.061   1.644   3.246
 3314TIP3    H1 9819   6.977   1.685   3.274
 3314TIP3    H2 9820   7.027   1.575   3.186
 3315TIP3   OH2 9821   6.698   1.284   1.833
 3315TIP3    H1 9822   6.729   1.211   1.774
 3315TIP3    H2 9823   6.767   1.352   1.820
 3316TIP3   OH2 9824   5.105   1.115   2.592
 3316TIP3    H1 9825   5.011   1.104   2.618
 3316TIP3    H2 9826   5.098   1.169   2.511
 3317TIP3   OH2 9827   6.263   2.810   2.093
 3317TIP3    H1 9828   6.312   2.797   2.010
 3317TIP3    H2 9829   6.315   2.879   2.137
 3318TIP3   OH2 9830   5.321   1.181   3.398
 3318TIP3    H1 9831   5.274   1.183   3.483
 3318TIP3    H2 9832   5.255   1.226   3.340
 3319TIP3   OH2 9833   5.362   2.617   3.479
 3319TIP3    H1 9834   5.271   2.587   3.460
 3319TIP3    H2 9835   5.371   2.594   3.573
 3320TIP3   OH2 9836   5.540   2.647   3.026
 3320TIP3    H1 9837   5.492   2.723   2.986
 3320TIP3    H2 9838   5.626   2.660   2.982
 3321TIP3   OH2 9839   5.987   2.892   3.166
 3321TIP3    H1 9840   6.030   2.895   3.254
 3321TIP3    H2 9841   6.052   2.942   3.112
 3322TIP3   OH2 9842   6.164   3.043   3.022
 3322TIP3    H1 9843   6.235   2.993   2.978
 3322TIP3    H2 9844   6.217   3.100   3.082
 3323TIP3   OH2 9845   6.959   1.408   3.121
 3323TIP3    H1 9846   6.868   1.405   3.088
 3323TIP3    H2 9847   6.987   1.315   3.110
 3324TIP3   OH2 9848   5.217   2.905   3.048
 3324TIP3    H1 9849   5.128   2.939   3.024
 3324TIP3    H2 9850   5.225   2.939   3.138
 3325TIP3   OH2 9851   5.454   2.883   2.906
 3325TIP3    H1 9852   5.367   2.896   2.951
 3325TIP3    H2 9853   5.434   2.916   2.816
 3326TIP3   OH2 9854   5.879   2.912   2.704
 3326TIP3    H1 9855   5.811   2.932   2.638
 3326TIP3    H2 9856   5.892   3.000   2.746
 3327TIP3   OH2 9857   6.148   2.853   2.756
 3327TIP3    H1 9858   6.054   2.869   2.736
 3327TIP3    H2 9859   6.191   2.928   2.713
 3328TIP3   OH2 9860   6.356   3.044   2.671
 3328TIP3    H1 9861   6.341   3.128   2.624
 3328TIP3    H2 9862   6.382   2.984   2.598
 3329TIP3   OH2 9863   5.127   2.698   2.795
 3329TIP3    H1 9864   5.155   2.673   2.885
 3329TIP3    H2 9865   5.199   2.655   2.743
 3330TIP3   OH2 9866   5.321   2.570   2.650
 3330TIP3    H1 9867   5.338   2.486   2.699
 3330TIP3    H2 9868   5.412   2.607   2.645
 3331TIP3   OH2 9869   5.587   2.665   2.653
 3331TIP3    H1 9870   5.619   2.574   2.640
 3331TIP3    H2 9871   5.631   2.686   2.737
 3332TIP3   OH2 9872   6.165   1.323   2.739
 3332TIP3    H1 9873   6.121   1.254   2.792
 3332TIP3    H2 9874   6.237   1.274   2.696
 3333TIP3   OH2 9875   6.688   1.199   2.646
 3333TIP3    H1 9876   6.726   1.252   2.573
 3333TIP3    H2 9877   6.593   1.221   2.640
 3334TIP3   OH2 9878   6.783   1.302   2.410
 3334TIP3    H1 9879   6.856   1.251   2.369
 3334TIP3    H2 9880   6.816   1.394   2.395
 3335TIP3   OH2 9881   5.411   1.025   2.760
 3335TIP3    H1 9882   5.319   0.993   2.757
 3335TIP3    H2 9883   5.460   0.941   2.746
 3336TIP3   OH2 9884   5.198   0.900   2.402
 3336TIP3    H1 9885   5.227   0.961   2.332
 3336TIP3    H2 9886   5.169   0.961   2.472
 3337TIP3   OH2 9887   5.860   1.069   2.637
 3337TIP3    H1 9888   5.917   1.117   2.575
 3337TIP3    H2 9889   5.874   1.117   2.719
 3338TIP3   OH2 9890   6.403   1.208   2.623
 3338TIP3    H1 9891   6.401   1.175   2.532
 3338TIP3    H2 9892   6.389   1.126   2.675
 3339TIP3   OH2 9893   6.433   1.131   2.184
 3339TIP3    H1 9894   6.346   1.174   2.192
 3339TIP3    H2 9895   6.417   1.046   2.229
 3340TIP3   OH2 9896   4.915   2.470   2.188
 3340TIP3    H1 9897   4.831   2.438   2.151
 3340TIP3    H2 9898   4.906   2.565   2.167
 3341TIP3   OH2 9899   5.315   1.063   2.166
 3341TIP3    H1 9900   5.363   0.998   2.111
 3341TIP3    H2 9901   5.389   1.115   2.204
 3342TIP3   OH2 9902   5.829   1.233   2.269
 3342TIP3    H1 9903   5.890   1.187   2.329
 3342TIP3    H2 9904   5.851   1.326   2.292
 3343TIP3   OH2 9905   5.689   2.660   1.768
 3343TIP3    H1 9906   5.776   2.683   1.731
 3343TIP3    H2 9907   5.666   2.585   1.708
 3344TIP3   OH2 9908   6.407   2.778   1.860
 3344TIP3    H1 9909   6.402   2.680   1.847
 3344TIP3    H2 9910   6.362   2.810   1.779
 3345TIP3   OH2 9911   5.621   1.305   3.642
 3345TIP3    H1 9912   5.586   1.240   3.705
 3345TIP3    H2 9913   5.714   1.310   3.673
 3346TIP3   OH2 9914   5.866   1.307   3.767
 3346TIP3    H1 9915   5.954   1.291   3.730
 3346TIP3    H2 9916   5.858   1.235   3.833
 3347TIP3   OH2 9917   4.991   2.492   1.824
 3347TIP3    H1 9918   4.995   2.526   1.915
 3347TIP3    H2 9919   5.081   2.453   1.812
 3348TIP3   OH2 9920   6.689   1.351   3.553
 3348TIP3    H1 9921   6.711   1.335   3.647
 3348TIP3    H2 9922   6.778   1.365   3.514
 3349TIP3   OH2 9923   6.633   2.921   3.050
 3349TIP3    H1 9924   6.556   2.889   2.999
 3349TIP3    H2 9925   6.615   3.018   3.050
 3350TIP3   OH2 9926   7.902   2.301   1.814
 3350TIP3    H1 9927   7.867   2.388   1.789
 3350TIP3    H2 9928   7.831   2.242   1.783
 3351TIP3   OH2 9929   7.899   2.296   2.195
 3351TIP3    H1 9930   7.927   2.259   2.280
 3351TIP3    H2 9931   7.862   2.218   2.151
 3352TIP3   OH2 9932   7.197   2.192   2.562
 3352TIP3    H1 9933   7.228   2.122   2.623
 3352TIP3    H2 9934   7.279   2.241   2.548
 3353TIP3   OH2 9935   8.148   2.595   1.873
 3353TIP3    H1 9936   8.122   2.524   1.933
 3353TIP3    H2 9937   8.167   2.668   1.934
 3354TIP3   OH2 9938   7.170   2.598   2.286
 3354TIP3    H1 9939   7.160   2.500   2.289
 3354TIP3    H2 9940   7.266   2.605   2.279
 3355TIP3   OH2 9941   6.874   1.807   2.059
 3355TIP3    H1 9942   6.824   1.887   2.081
 3355TIP3    H2 9943   6.803   1.742   2.045
 3356TIP3   OH2 9944   6.938   2.088   2.236
 3356TIP3    H1 9945   6.981   2.010   2.278
 3356TIP3    H2 9946   7.005   2.112   2.171
 3357TIP3   OH2 9947   7.791   3.058   1.891
 3357TIP3    H1 9948   7.838   2.986   1.844
 3357TIP3    H2 9949   7.781   3.020   1.980
 3358TIP3   OH2 9950   7.698   2.519   2.243
 3358TIP3    H1 9951   7.734   2.441   2.198
 3358TIP3    H2 9952   7.782   2.563   2.265
 3359TIP3   OH2 9953   8.645   1.861   2.254
 3359TIP3    H1 9954   8.708   1.917   2.304
 3359TIP3    H2 9955   8.682   1.866   2.165
 3360TIP3   OH2 9956   8.115   2.024   2.275
 3360TIP3    H1 9957   8.152   1.936   2.292
 3360TIP3    H2 9958   8.075   2.010   2.187
 3361TIP3   OH2 9959   7.425   1.689   2.241
 3361TIP3    H1 9960   7.476   1.728   2.166
 3361TIP3    H2 9961   7.378   1.619   2.191
 3362TIP3   OH2 9962   8.142   1.762   1.866
 3362TIP3    H1 9963   8.216   1.745   1.928
 3362TIP3    H2 9964   8.189   1.805   1.793
 3363TIP3   OH2 9965   7.081   1.886   2.352
 3363TIP3    H1 9966   7.164   1.866   2.399
 3363TIP3    H2 9967   7.093   1.828   2.273
 3364TIP3   OH2 9968   7.526   2.065   2.128
 3364TIP3    H1 9969   7.619   2.060   2.156
 3364TIP3    H2 9970   7.521   1.981   2.077
 3365TIP3   OH2 9971   8.781   2.046   2.406
 3365TIP3    H1 9972   8.696   2.095   2.403
 3365TIP3    H2 9973   8.821   2.079   2.489
 3366TIP3   OH2 9974   7.445   1.665   2.677
 3366TIP3    H1 9975   7.385   1.699   2.607
 3366TIP3    H2 9976   7.391   1.684   2.756
 3367TIP3   OH2 9977   7.797   2.521   1.680
 3367TIP3    H1 9978   7.748   2.490   1.603
 3367TIP3    H2 9979   7.748   2.602   1.703
 3368TIP3   OH2 9980   7.552   2.439   2.471
 3368TIP3    H1 9981   7.488   2.503   2.509
 3368TIP3    H2 9982   7.592   2.490   2.398
 3369TIP3   OH2 9983   8.360   1.768   2.034
 3369TIP3    H1 9984   8.337   1.725   2.118
 3369TIP3    H2 9985   8.407   1.847   2.064
 3370TIP3   OH2 9986   7.312   1.781   2.466
 3370TIP3    H1 9987   7.379   1.851   2.483
 3370TIP3    H2 9988   7.349   1.744   2.382
 3371TIP3   OH2 9989   7.379   2.632   2.569
 3371TIP3    H1 9990   7.352   2.717   2.529
 3371TIP3    H2 9991   7.300   2.616   2.625
 3372TIP3   OH2 9992   8.216   2.839   2.045
 3372TIP3    H1 9993   8.127   2.829   2.085
 3372TIP3    H2 9994   8.205   2.924   1.998
 3373TIP3   OH2 9995   8.480   1.732   2.421
 3373TIP3    H1 9996   8.392   1.755   2.388
 3373TIP3    H2 9997   8.538   1.773   2.353
 3374TIP3   OH2 9998   7.804   1.382   2.391
 3374TIP3    H1 9999   7.785   1.287   2.405
 3374TIP3    H210000   7.725   1.422   2.434
 3375TIP3   OH210001   7.918   2.884   1.721
 3375TIP3    H110002   7.967   2.802   1.699
 3375TIP3    H210003   7.978   2.950   1.678
 3376TIP3   OH210004   8.061   2.669   1.622
 3376TIP3    H110005   8.007   2.594   1.592
 3376TIP3    H210006   8.097   2.635   1.706
 3377TIP3   OH210007   8.439   2.751   2.386
 3377TIP3    H110008   8.423   2.673   2.329
 3377TIP3    H210009   8.418   2.826   2.326
 3378TIP3   OH210010   7.729   2.155   1.645
 3378TIP3    H110011   7.647   2.200   1.615
 3378TIP3    H210012   7.775   2.138   1.561
 3379TIP3   OH210013   7.686   1.931   1.366
 3379TIP3    H110014   7.762   1.975   1.409
 3379TIP3    H210015   7.729   1.858   1.318
 3380TIP3   OH210016   8.633   2.392   2.237
 3380TIP3    H110017   8.547   2.441   2.240
 3380TIP3    H210018   8.658   2.404   2.143
 3381TIP3   OH210019   8.078   2.232   1.617
 3381TIP3    H110020   8.021   2.253   1.694
 3381TIP3    H210021   8.158   2.199   1.663
 3382TIP3   OH210022   8.313   2.269   2.526
 3382TIP3    H110023   8.306   2.353   2.574
 3382TIP3    H210024   8.225   2.267   2.482
 3383TIP3   OH210025   7.316   2.227   2.038
 3383TIP3    H110026   7.261   2.171   1.980
 3383TIP3    H210027   7.389   2.166   2.063
 3384TIP3   OH210028   7.440   2.637   2.182
 3384TIP3    H110029   7.418   2.594   2.098
 3384TIP3    H210030   7.530   2.602   2.199
 3385TIP3   OH210031   7.443   2.196   2.386
 3385TIP3    H110032   7.477   2.171   2.298
 3385TIP3    H210033   7.489   2.281   2.404
 3386TIP3   OH210034   7.975   2.835   2.165
 3386TIP3    H110035   7.958   2.914   2.219
 3386TIP3    H210036   7.959   2.761   2.226
 3387TIP3   OH210037   7.584   2.754   2.712
 3387TIP3    H110038   7.523   2.816   2.757
 3387TIP3    H210039   7.519   2.700   2.662
 3388TIP3   OH210040   7.922   2.078   1.449
 3388TIP3    H110041   7.976   2.139   1.504
 3388TIP3    H210042   7.949   2.107   1.358
 3389TIP3   OH210043   7.339   2.311   2.813
 3389TIP3    H110044   7.341   2.397   2.858
 3389TIP3    H210045   7.244   2.290   2.818
 3390TIP3   OH210046   7.660   2.766   1.719
 3390TIP3    H110047   7.737   2.822   1.738
 3390TIP3    H210048   7.599   2.827   1.677
 3391TIP3   OH210049   7.379   2.924   2.799
 3391TIP3    H110050   7.344   2.922   2.707
 3391TIP3    H210051   7.299   2.901   2.851
 3392TIP3   OH210052   7.141   2.080   1.851
 3392TIP3    H110053   7.157   2.102   1.758
 3392TIP3    H210054   7.148   1.984   1.851
 3393TIP3   OH210055   8.229   2.697   1.036
 3393TIP3    H110056   8.233   2.794   1.025
 3393TIP3    H210057   8.322   2.671   1.025
 3394TIP3   OH210058   6.958   2.452   2.745
 3394TIP3    H110059   6.892   2.430   2.676
 3394TIP3    H210060   6.995   2.365   2.769
 3395TIP3   OH210061   6.811   2.644   2.379
 3395TIP3    H110062   6.907   2.640   2.369
 3395TIP3    H210063   6.800   2.725   2.431
 3396TIP3   OH210064   8.672   3.100   2.430
 3396TIP3    H110065   8.673   3.004   2.442
 3396TIP3    H210066   8.589   3.122   2.479
 3397TIP3   OH210067   7.783   2.881   2.569
 3397TIP3    H110068   7.781   2.974   2.601
 3397TIP3    H210069   7.710   2.843   2.622
 3398TIP3   OH210070   7.544   3.013   1.519
 3398TIP3    H110071   7.496   2.992   1.437
 3398TIP3    H210072   7.510   3.101   1.542
 3399TIP3   OH210073   6.982   2.864   1.903
 3399TIP3    H110074   7.027   2.853   1.990
 3399TIP3    H210075   6.928   2.782   1.902
 3400TIP3   OH210076   7.745   2.914   1.160
 3400TIP3    H110077   7.804   2.844   1.124
 3400TIP3    H210078   7.777   2.922   1.252
 3401TIP3   OH210079   7.795   2.960   1.431
 3401TIP3    H110080   7.705   2.971   1.470
 3401TIP3    H210081   7.842   2.917   1.504
 3402TIP3   OH210082   8.574   2.233   2.699
 3402TIP3    H110083   8.490   2.242   2.651
 3402TIP3    H210084   8.589   2.137   2.692
 3403TIP3   OH210085   7.162   2.636   2.735
 3403TIP3    H110086   7.212   2.617   2.817
 3403TIP3    H210087   7.088   2.571   2.741
 3404TIP3   OH210088   7.563   1.456   2.517
 3404TIP3    H110089   7.472   1.427   2.492
 3404TIP3    H210090   7.541   1.543   2.555
 3405TIP3   OH210091   8.095   1.576   2.711
 3405TIP3    H110092   8.161   1.546   2.777
 3405TIP3    H210093   8.010   1.554   2.755
 3406TIP3   OH210094   8.335   2.005   2.632
 3406TIP3    H110095   8.284   2.001   2.716
 3406TIP3    H210096   8.308   2.090   2.593
 3407TIP3   OH210097   8.004   2.142   1.201
 3407TIP3    H110098   7.960   2.107   1.120
 3407TIP3    H210099   8.074   2.195   1.161
 3408TIP3   OH210100   7.732   1.505   1.501
 3408TIP3    H110101   7.696   1.525   1.590
 3408TIP3    H210102   7.672   1.433   1.474
 3409TIP3   OH210103   7.496   1.977   2.539
 3409TIP3    H110104   7.441   1.996   2.618
 3409TIP3    H210105   7.476   2.055   2.483
 3410TIP3   OH210106   7.905   1.978   1.778
 3410TIP3    H110107   7.820   2.018   1.752
 3410TIP3    H210108   7.918   1.911   1.709
 3411TIP3   OH210109   8.043   2.228   2.869
 3411TIP3    H110110   8.020   2.153   2.928
 3411TIP3    H210111   8.139   2.235   2.886
 3412TIP3   OH210112   8.034   1.978   2.015
 3412TIP3    H110113   7.977   2.004   1.939
 3412TIP3    H210114   8.060   1.890   1.981
 3413TIP3   OH210115   7.312   2.005   2.745
 3413TIP3    H110116   7.337   2.066   2.815
 3413TIP3    H210117   7.300   1.921   2.794
 3414TIP3   OH210118   7.360   1.480   1.458
 3414TIP3    H110119   7.347   1.479   1.556
 3414TIP3    H210120   7.280   1.527   1.429
 3415TIP3   OH210121   6.906   1.526   2.326
 3415TIP3    H110122   6.982   1.561   2.377
 3415TIP3    H210123   6.947   1.497   2.244
 3416TIP3   OH210124   6.883   1.505   1.848
 3416TIP3    H110125   6.923   1.550   1.771
 3416TIP3    H210126   6.818   1.573   1.874
 3417TIP3   OH210127   8.043   2.222   2.442
 3417TIP3    H110128   8.073   2.150   2.381
 3417TIP3    H210129   8.009   2.168   2.516
 3418TIP3   OH210130   7.127   1.725   2.142
 3418TIP3    H110131   7.046   1.738   2.089
 3418TIP3    H210132   7.176   1.655   2.096
 3419TIP3   OH210133   8.193   1.757   2.315
 3419TIP3    H110134   8.155   1.771   2.404
 3419TIP3    H210135   8.127   1.695   2.278
 3420TIP3   OH210136   7.221   1.784   1.585
 3420TIP3    H110137   7.175   1.729   1.519
 3420TIP3    H210138   7.296   1.815   1.531
 3421TIP3   OH210139   8.365   3.447   2.531
 3421TIP3    H110140   8.361   3.468   2.435
 3421TIP3    H210141   8.444   3.498   2.558
 3422TIP3   OH210142   7.323   2.558   2.954
 3422TIP3    H110143   7.403   2.588   3.002
 3422TIP3    H210144   7.258   2.555   3.027
 3423TIP3   OH210145   7.791   2.019   2.216
 3423TIP3    H110146   7.826   1.960   2.148
 3423TIP3    H210147   7.797   1.963   2.295
 3424TIP3   OH210148   7.304   1.499   2.078
 3424TIP3    H110149   7.277   1.418   2.127
 3424TIP3    H210150   7.379   1.468   2.025
 3425TIP3   OH210151   7.764   1.903   2.507
 3425TIP3    H110152   7.674   1.940   2.513
 3425TIP3    H210153   7.820   1.970   2.551
 3426TIP3   OH210154   7.492   2.301   1.590
 3426TIP3    H110155   7.422   2.233   1.584
 3426TIP3    H210156   7.480   2.333   1.682
 3427TIP3   OH210157   8.399   2.533   2.224
 3427TIP3    H110158   8.418   2.580   2.140
 3427TIP3    H210159   8.313   2.489   2.203
 3428TIP3   OH210160   7.945   1.640   1.390
 3428TIP3    H110161   7.872   1.590   1.434
 3428TIP3    H210162   7.972   1.705   1.458
 3429TIP3   OH210163   7.908   2.621   2.590
 3429TIP3    H110164   7.917   2.590   2.680
 3429TIP3    H210165   7.862   2.706   2.599
 3430TIP3   OH210166   8.036   1.843   1.550
 3430TIP3    H110167   8.128   1.861   1.577
 3430TIP3    H210168   8.009   1.929   1.512
 3431TIP3   OH210169   7.193   2.319   2.270
 3431TIP3    H110170   7.233   2.292   2.185
 3431TIP3    H210171   7.233   2.256   2.332
 3432TIP3   OH210172   7.647   2.449   1.417
 3432TIP3    H110173   7.600   2.535   1.422
 3432TIP3    H210174   7.590   2.393   1.474
 3433TIP3   OH210175   7.073   2.241   2.883
 3433TIP3    H110176   7.091   2.225   2.978
 3433TIP3    H210177   7.004   2.174   2.865
 3434TIP3   OH210178   7.798   2.354   2.903
 3434TIP3    H110179   7.737   2.297   2.853
 3434TIP3    H210180   7.885   2.319   2.874
 3435TIP3   OH210181   8.063   2.881   2.484
 3435TIP3    H110182   7.967   2.872   2.497
 3435TIP3    H210183   8.088   2.931   2.565
 3436TIP3   OH210184   8.468   1.948   1.407
 3436TIP3    H110185   8.417   1.886   1.352
 3436TIP3    H210186   8.454   2.030   1.356
 3437TIP3   OH210187   8.691   2.798   2.467
 3437TIP3    H110188   8.592   2.797   2.464
 3437TIP3    H210189   8.710   2.763   2.377
 3438TIP3   OH210190   8.179   2.765   1.306
 3438TIP3    H110191   8.142   2.701   1.369
 3438TIP3    H210192   8.179   2.716   1.222
 3439TIP3   OH210193   8.167   2.395   2.146
 3439TIP3    H110194   8.074   2.370   2.158
 3439TIP3    H210195   8.200   2.316   2.097
 3440TIP3   OH210196   7.293   2.624   1.896
 3440TIP3    H110197   7.295   2.705   1.841
 3440TIP3    H210198   7.198   2.609   1.904
 3441TIP3   OH210199   7.433   2.391   1.838
 3441TIP3    H110200   7.397   2.479   1.857
 3441TIP3    H210201   7.402   2.340   1.915
 3442TIP3   OH210202   7.563   2.968   2.365
 3442TIP3    H110203   7.603   3.041   2.313
 3442TIP3    H210204   7.640   2.933   2.411
 3443TIP3   OH210205   7.215   2.862   1.747
 3443TIP3    H110206   7.129   2.871   1.793
 3443TIP3    H210207   7.246   2.956   1.750
 3444TIP3   OH210208   7.954   2.603   2.321
 3444TIP3    H110209   7.945   2.601   2.419
 3444TIP3    H210210   8.028   2.542   2.307
 3445TIP3   OH210211   7.926   2.494   1.202
 3445TIP3    H110212   7.977   2.468   1.282
 3445TIP3    H210213   7.837   2.466   1.228
 3446TIP3   OH210214   8.202   3.137   2.373
 3446TIP3    H110215   8.123   3.079   2.366
 3446TIP3    H210216   8.185   3.200   2.300
 3447TIP3   OH210217   8.265   2.971   1.024
 3447TIP3    H110218   8.295   3.045   0.967
 3447TIP3    H210219   8.185   3.014   1.062
 3448TIP3   OH210220   7.285   1.749   2.893
 3448TIP3    H110221   7.188   1.752   2.905
 3448TIP3    H210222   7.311   1.685   2.962
 3449TIP3   OH210223   8.085   2.428   1.418
 3449TIP3    H110224   8.072   2.363   1.491
 3449TIP3    H210225   8.182   2.428   1.411
 3450TIP3   OH210226   7.002   2.831   2.523
 3450TIP3    H110227   7.054   2.755   2.555
 3450TIP3    H210228   7.031   2.900   2.583
 3451TIP3   OH210229   7.294   2.475   1.205
 3451TIP3    H110230   7.306   2.383   1.174
 3451TIP3    H210231   7.272   2.461   1.299
 3452TIP3   OH210232   7.237   2.479   1.479
 3452TIP3    H110233   7.312   2.454   1.534
 3452TIP3    H210234   7.241   2.577   1.484
 3453TIP3   OH210235   8.119   1.816   2.577
 3453TIP3    H110236   8.205   1.845   2.611
 3453TIP3    H210237   8.105   1.732   2.625
 3454TIP3   OH210238   7.971   1.582   1.733
 3454TIP3    H110239   7.990   1.597   1.640
 3454TIP3    H210240   8.030   1.647   1.777
 3455TIP3   OH210241   7.504   2.679   1.428
 3455TIP3    H110242   7.417   2.705   1.462
 3455TIP3    H210243   7.518   2.746   1.360
 3456TIP3   OH210244   7.961   2.062   2.646
 3456TIP3    H110245   7.982   2.111   2.728
 3456TIP3    H210246   8.013   1.981   2.654
 3457TIP3   OH210247   7.836   1.478   1.945
 3457TIP3    H110248   7.825   1.562   1.993
 3457TIP3    H210249   7.891   1.511   1.869
 3458TIP3   OH210250   7.247   2.753   1.492
 3458TIP3    H110251   7.217   2.822   1.429
 3458TIP3    H210252   7.230   2.797   1.579
 3459TIP3   OH210253   7.349   1.467   1.731
 3459TIP3    H110254   7.331   1.553   1.771
 3459TIP3    H210255   7.446   1.461   1.745
 3460TIP3   OH210256   8.600   1.962   2.627
 3460TIP3    H110257   8.502   1.959   2.633
 3460TIP3    H210258   8.613   1.929   2.537
 3461TIP3   OH210259   8.246   2.162   2.011
 3461TIP3    H110260   8.170   2.100   2.021
 3461TIP3    H210261   8.316   2.114   2.060
 3462TIP3   OH210262   6.953   2.394   1.476
 3462TIP3    H110263   7.023   2.459   1.491
 3462TIP3    H210264   7.004   2.330   1.422
 3463TIP3   OH210265   6.883   1.675   1.626
 3463TIP3    H110266   6.942   1.728   1.571
 3463TIP3    H210267   6.844   1.614   1.562
 3464TIP3   OH210268   8.222   3.109   1.966
 3464TIP3    H110269   8.178   3.155   1.891
 3464TIP3    H210270   8.315   3.129   1.945
 3465TIP3   OH210271   7.296   1.379   2.494
 3465TIP3    H110272   7.266   1.348   2.406
 3465TIP3    H210273   7.285   1.300   2.550
 3466TIP3   OH210274   6.849   2.617   1.881
 3466TIP3    H110275   6.767   2.631   1.930
 3466TIP3    H210276   6.821   2.639   1.790
 3467TIP3   OH210277   6.991   3.135   2.948
 3467TIP3    H110278   7.078   3.133   2.992
 3467TIP3    H210279   6.970   3.041   2.942
 3468TIP3   OH210280   7.477   3.104   2.990
 3468TIP3    H110281   7.571   3.080   2.994
 3468TIP3    H210282   7.448   3.047   2.916
 3469TIP3   OH210283   7.455   2.681   1.121
 3469TIP3    H110284   7.401   2.607   1.156
 3469TIP3    H210285   7.529   2.632   1.081
 3470TIP3   OH210286   8.112   3.012   2.724
 3470TIP3    H110287   8.103   2.940   2.791
 3470TIP3    H210288   8.191   3.060   2.755
 3471TIP3   OH210289   7.896   2.723   1.032
 3471TIP3    H110290   7.938   2.654   1.086
 3471TIP3    H210291   7.948   2.721   0.949
 3472TIP3   OH210292   7.123   2.545   3.146
 3472TIP3    H110293   7.141   2.449   3.148
 3472TIP3    H210294   7.036   2.547   3.101
 3473TIP3   OH210295   7.100   2.199   1.340
 3473TIP3    H110296   7.155   2.161   1.410
 3473TIP3    H210297   7.165   2.202   1.266
 3474TIP3   OH210298   7.731   2.629   2.918
 3474TIP3    H110299   7.687   2.645   2.832
 3474TIP3    H210300   7.760   2.536   2.911
 3475TIP3   OH210301   7.612   2.392   1.148
 3475TIP3    H110302   7.611   2.404   1.245
 3475TIP3    H210303   7.614   2.294   1.141
 3476TIP3   OH210304   8.226   2.636   2.527
 3476TIP3    H110305   8.296   2.685   2.481
 3476TIP3    H210306   8.150   2.695   2.513
 3477TIP3   OH210307   7.242   2.283   3.126
 3477TIP3    H110308   7.312   2.220   3.105
 3477TIP3    H210309   7.268   2.312   3.216
 3478TIP3   OH210310   7.307   2.087   1.576
 3478TIP3    H110311   7.322   2.023   1.646
 3478TIP3    H210312   7.337   2.032   1.500
 3479TIP3   OH210313   7.579   2.167   2.793
 3479TIP3    H110314   7.499   2.224   2.792
 3479TIP3    H210315   7.626   2.198   2.712
 3480TIP3   OH210316   7.406   1.896   1.405
 3480TIP3    H110317   7.380   1.892   1.311
 3480TIP3    H210318   7.503   1.898   1.398
 3481TIP3   OH210319   8.097   2.568   2.925
 3481TIP3    H110320   8.172   2.540   2.871
 3481TIP3    H210321   8.090   2.496   2.990
 3482TIP3   OH210322   8.231   2.220   1.039
 3482TIP3    H110323   8.192   2.178   0.959
 3482TIP3    H210324   8.198   2.312   1.025
 3483TIP3   OH210325   7.702   1.951   2.915
 3483TIP3    H110326   7.700   1.871   2.859
 3483TIP3    H210327   7.657   2.017   2.857
 3484TIP3   OH210328   7.703   1.737   2.725
 3484TIP3    H110329   7.731   1.779   2.640
 3484TIP3    H210330   7.610   1.714   2.705
 3485TIP3   OH210331   7.732   2.278   2.599
 3485TIP3    H110332   7.811   2.277   2.543
 3485TIP3    H210333   7.675   2.342   2.552
 3486TIP3   OH210334   8.318   2.242   2.982
 3486TIP3    H110335   8.361   2.155   2.980
 3486TIP3    H210336   8.386   2.298   2.943
 3487TIP3   OH210337   8.354   2.496   2.718
 3487TIP3    H110338   8.296   2.547   2.656
 3487TIP3    H210339   8.441   2.512   2.675
 3488TIP3   OH210340   7.580   2.064   3.146
 3488TIP3    H110341   7.510   1.997   3.159
 3488TIP3    H210342   7.613   2.041   3.057
 3489TIP3   OH210343   7.836   1.502   2.789
 3489TIP3    H110344   7.787   1.584   2.765
 3489TIP3    H210345   7.766   1.434   2.776
 3490TIP3   OH210346   7.960   2.008   3.005
 3490TIP3    H110347   7.945   1.994   3.100
 3490TIP3    H210348   7.871   1.982   2.972
 3491TIP3   OH210349   8.203   1.963   2.864
 3491TIP3    H110350   8.125   1.957   2.922
 3491TIP3    H210351   8.274   1.926   2.920
 3492TIP3   OH210352   8.432   1.896   3.016
 3492TIP3    H110353   8.442   1.800   3.032
 3492TIP3    H210354   8.428   1.934   3.106
 3493TIP3   OH210355   7.419   1.845   3.197
 3493TIP3    H110356   7.423   1.755   3.160
 3493TIP3    H210357   7.454   1.830   3.287
 3494TIP3   OH210358   7.931   1.512   3.046
 3494TIP3    H110359   7.997   1.440   3.039
 3494TIP3    H210360   7.890   1.507   2.957
 3495TIP3   OH210361   7.997   1.727   3.204
 3495TIP3    H110362   7.974   1.656   3.141
 3495TIP3    H210363   7.918   1.786   3.198
 3496TIP3   OH210364   7.216   2.956   1.306
 3496TIP3    H110365   7.311   2.953   1.285
 3496TIP3    H210366   7.183   3.003   1.227
 3497TIP3   OH210367   6.722   2.285   1.573
 3497TIP3    H110368   6.791   2.343   1.534
 3497TIP3    H210369   6.695   2.233   1.494
 3498TIP3   OH210370   6.610   2.951   1.934
 3498TIP3    H110371   6.543   2.888   1.899
 3498TIP3    H210372   6.654   2.894   2.001
 3499TIP3   OH210373   6.742   2.806   2.125
 3499TIP3    H110374   6.735   2.729   2.183
 3499TIP3    H210375   6.796   2.865   2.180
 3500TIP3   OH210376   8.477   3.195   1.922
 3500TIP3    H110377   8.498   3.237   2.008
 3500TIP3    H210378   8.528   3.250   1.861
 3501TIP3   OH210379   8.501   3.222   2.206
 3501TIP3    H110380   8.459   3.134   2.200
 3501TIP3    H210381   8.578   3.199   2.260
 3502TIP3   OH210382   8.550   2.899   2.776
 3502TIP3    H110383   8.476   2.906   2.839
 3502TIP3    H210384   8.590   2.988   2.782
 3503TIP3   OH210385   8.365   2.416   1.393
 3503TIP3    H110386   8.438   2.478   1.374
 3503TIP3    H210387   8.400   2.372   1.474
 3504TIP3   OH210388   8.476   2.280   1.598
 3504TIP3    H110389   8.410   2.233   1.654
 3504TIP3    H210390   8.534   2.321   1.666
 3505TIP3   OH210391   8.547   2.665   2.029
 3505TIP3    H110392   8.586   2.613   1.958
 3505TIP3    H210393   8.528   2.749   1.984
 3506TIP3   OH210394   8.379   2.970   2.228
 3506TIP3    H110395   8.308   3.015   2.279
 3506TIP3    H210396   8.327   2.924   2.159
 3507TIP3   OH210397   8.401   2.179   1.253
 3507TIP3    H110398   8.335   2.185   1.181
 3507TIP3    H210399   8.372   2.254   1.309
 3508TIP3   OH210400   8.282   1.848   1.221
 3508TIP3    H110401   8.306   1.901   1.144
 3508TIP3    H210402   8.308   1.759   1.194
 3509TIP3   OH210403   8.308   2.131   1.746
 3509TIP3    H110404   8.312   2.034   1.742
 3509TIP3    H210405   8.291   2.146   1.842
 3510TIP3   OH210406   6.934   2.209   2.491
 3510TIP3    H110407   6.934   2.179   2.398
 3510TIP3    H210408   7.030   2.211   2.510
 3511TIP3   OH210409   8.597   2.558   2.604
 3511TIP3    H110410   8.671   2.495   2.594
 3511TIP3    H210411   8.622   2.629   2.542
 3512TIP3   OH210412   8.794   2.374   2.625
 3512TIP3    H110413   8.714   2.326   2.658
 3512TIP3    H210414   8.858   2.300   2.633
 3513TIP3   OH210415   8.307   1.849   1.641
 3513TIP3    H110416   8.349   1.762   1.661
 3513TIP3    H210417   8.369   1.882   1.573
 3514TIP3   OH210418   8.455   2.040   2.130
 3514TIP3    H110419   8.538   2.074   2.091
 3514TIP3    H210420   8.474   2.052   2.225
 3515TIP3   OH210421   8.535   2.171   2.376
 3515TIP3    H110422   8.453   2.202   2.419
 3515TIP3    H210423   8.563   2.251   2.327
 3516TIP3   OH210424   7.152   1.898   3.172
 3516TIP3    H110425   7.250   1.887   3.170
 3516TIP3    H210426   7.125   1.812   3.211
 3517TIP3   OH210427   8.418   1.600   1.692
 3517TIP3    H110428   8.452   1.592   1.783
 3517TIP3    H210429   8.354   1.526   1.692
 3518TIP3   OH210430   7.111   1.588   2.506
 3518TIP3    H110431   7.174   1.513   2.510
 3518TIP3    H210432   7.173   1.663   2.494
 3519TIP3   OH210433   6.914   1.862   2.573
 3519TIP3    H110434   6.965   1.852   2.489
 3519TIP3    H210435   6.948   1.947   2.604
 3520TIP3   OH210436   8.843   1.889   2.748
 3520TIP3    H110437   8.763   1.943   2.767
 3520TIP3    H210438   8.806   1.830   2.680
 3521TIP3   OH210439   6.897   1.361   2.077
 3521TIP3    H110440   6.803   1.361   2.099
 3521TIP3    H210441   6.900   1.420   1.999
 3522TIP3   OH210442   8.060   3.065   1.580
 3522TIP3    H110443   8.111   3.053   1.497
 3522TIP3    H210444   8.109   3.137   1.623
 3523TIP3   OH210445   7.119   1.445   2.888
 3523TIP3    H110446   7.068   1.441   2.971
 3523TIP3    H210447   7.053   1.483   2.827
 3524TIP3   OH210448   7.159   2.873   2.966
 3524TIP3    H110449   7.068   2.843   2.945
 3524TIP3    H210450   7.166   2.851   3.060
 3525TIP3   OH210451   7.337   2.904   2.514
 3525TIP3    H110452   7.287   2.978   2.474
 3525TIP3    H210453   7.422   2.918   2.468
 3526TIP3   OH210454   7.783   3.148   2.652
 3526TIP3    H110455   7.825   3.150   2.740
 3526TIP3    H210456   7.848   3.198   2.598
 3527TIP3   OH210457   7.961   3.300   2.510
 3527TIP3    H110458   8.030   3.249   2.465
 3527TIP3    H210459   8.014   3.357   2.568
 3528TIP3   OH210460   8.747   1.665   2.613
 3528TIP3    H110461   8.661   1.669   2.570
 3528TIP3    H210462   8.780   1.579   2.583
 3529TIP3   OH210463   7.014   3.160   2.537
 3529TIP3    H110464   6.925   3.193   2.511
 3529TIP3    H210465   7.024   3.204   2.623
 3530TIP3   OH210466   7.250   3.140   2.393
 3530TIP3    H110467   7.164   3.152   2.438
 3530TIP3    H210468   7.230   3.173   2.304
 3531TIP3   OH210469   7.676   3.169   2.191
 3531TIP3    H110470   7.606   3.188   2.125
 3531TIP3    H210471   7.687   3.258   2.232
 3532TIP3   OH210472   7.944   3.110   2.244
 3532TIP3    H110473   7.849   3.125   2.223
 3532TIP3    H210474   7.986   3.185   2.199
 3533TIP3   OH210475   8.152   3.301   2.158
 3533TIP3    H110476   8.138   3.386   2.111
 3533TIP3    H210477   8.177   3.241   2.084
 3534TIP3   OH210478   6.925   2.956   2.281
 3534TIP3    H110479   6.951   2.930   2.372
 3534TIP3    H210480   6.996   2.911   2.230
 3535TIP3   OH210481   7.118   2.826   2.138
 3535TIP3    H110482   7.134   2.742   2.186
 3535TIP3    H210483   7.208   2.863   2.132
 3536TIP3   OH210484   7.385   2.922   2.139
 3536TIP3    H110485   7.415   2.831   2.126
 3536TIP3    H210486   7.427   2.942   2.224
 3537TIP3   OH210487   7.984   1.579   2.242
 3537TIP3    H110488   7.918   1.521   2.283
 3537TIP3    H210489   8.029   1.521   2.180
 3538TIP3   OH210490   8.486   1.451   2.147
 3538TIP3    H110491   8.523   1.501   2.071
 3538TIP3    H210492   8.390   1.468   2.136
 3539TIP3   OH210493   8.587   1.552   1.913
 3539TIP3    H110494   8.660   1.524   1.856
 3539TIP3    H210495   8.596   1.649   1.907
 3540TIP3   OH210496   7.210   1.287   2.247
 3540TIP3    H110497   7.117   1.255   2.245
 3540TIP3    H210498   7.258   1.201   2.243
 3541TIP3   OH210499   6.998   1.153   1.887
 3541TIP3    H110500   7.025   1.214   1.816
 3541TIP3    H210501   6.967   1.215   1.956
 3542TIP3   OH210502   7.654   1.319   2.121
 3542TIP3    H110503   7.711   1.375   2.066
 3542TIP3    H210504   7.664   1.360   2.208
 3543TIP3   OH210505   8.216   1.460   2.096
 3543TIP3    H110506   8.191   1.438   2.004
 3543TIP3    H210507   8.187   1.381   2.147
 3544TIP3   OH210508   8.220   1.423   1.781
 3544TIP3    H110509   8.168   1.435   1.700
 3544TIP3    H210510   8.216   1.325   1.790
 3545TIP3   OH210511   6.711   2.722   1.672
 3545TIP3    H110512   6.624   2.695   1.638
 3545TIP3    H210513   6.705   2.818   1.657
 3546TIP3   OH210514   7.112   1.315   1.662
 3546TIP3    H110515   7.157   1.259   1.597
 3546TIP3    H210516   7.186   1.367   1.698
 3547TIP3   OH210517   7.624   1.511   1.767
 3547TIP3    H110518   7.694   1.482   1.828
 3547TIP3    H210519   7.608   1.600   1.805
 3548TIP3   OH210520   7.484   2.918   1.254
 3548TIP3    H110521   7.572   2.940   1.216
 3548TIP3    H210522   7.461   2.842   1.195
 3549TIP3   OH210523   8.206   3.033   1.346
 3549TIP3    H110524   8.198   2.936   1.334
 3549TIP3    H210525   8.157   3.066   1.268
 3550TIP3   OH210526   7.417   1.569   3.136
 3550TIP3    H110527   7.382   1.498   3.193
 3550TIP3    H210528   7.511   1.568   3.163
 3551TIP3   OH210529   7.666   1.565   3.256
 3551TIP3    H110530   7.750   1.539   3.214
 3551TIP3    H210531   7.653   1.494   3.321
 3552TIP3   OH210532   6.788   2.751   1.311
 3552TIP3    H110533   6.789   2.781   1.403
 3552TIP3    H210534   6.878   2.711   1.301
 3553TIP3   OH210535   8.489   1.625   3.047
 3553TIP3    H110536   8.512   1.595   3.138
 3553TIP3    H210537   8.576   1.622   3.002
 3554TIP3   OH210538   8.427   3.178   2.537
 3554TIP3    H110539   8.350   3.146   2.487
 3554TIP3    H210540   8.408   3.274   2.537
 3555TIP3   OH210541   8.654   2.068   1.574
 3555TIP3    H110542   8.580   2.132   1.576
 3555TIP3    H210543   8.611   1.996   1.524
 3556TIP3   OH210544   8.711   2.350   1.727
 3556TIP3    H110545   8.732   2.264   1.765
 3556TIP3    H210546   8.744   2.339   1.636
 3557TIP3   OH210547   8.576   2.582   1.300
 3557TIP3    H110548   8.522   2.605   1.224
 3557TIP3    H210549   8.601   2.672   1.333
 3558TIP3   OH210550   8.752   2.693   2.219
 3558TIP3    H110551   8.678   2.665   2.161
 3558TIP3    H210552   8.784   2.607   2.256
 3559TIP3   OH210553   8.612   2.903   1.868
 3559TIP3    H110554   8.708   2.915   1.865
 3559TIP3    H210555   8.585   2.984   1.914
 3560TIP3   OH210556   8.747   3.119   1.408
 3560TIP3    H110557   8.803   3.119   1.488
 3560TIP3    H210558   8.683   3.050   1.430
 3561TIP3   OH210559   8.897   2.917   2.245
 3561TIP3    H110560   8.926   2.892   2.333
 3561TIP3    H210561   8.833   2.845   2.226
 3562TIP3   OH210562   8.662   1.806   1.851
 3562TIP3    H110563   8.733   1.843   1.905
 3562TIP3    H210564   8.698   1.816   1.761
 3563TIP3   OH210565   8.855   2.489   2.374
 3563TIP3    H110566   8.870   2.457   2.465
 3563TIP3    H210567   8.785   2.427   2.344
 3564TIP3   OH210568   8.646   2.257   1.163
 3564TIP3    H110569   8.608   2.343   1.146
 3564TIP3    H210570   8.570   2.213   1.207
 3565TIP3   OH210571   8.799   3.089   2.015
 3565TIP3    H110572   8.835   3.023   2.077
 3565TIP3    H210573   8.822   3.172   2.059
 3566TIP3   OH210574   8.623   2.844   1.362
 3566TIP3    H110575   8.553   2.878   1.420
 3566TIP3    H210576   8.605   2.895   1.280
 3567TIP3   OH210577   8.784   3.389   2.438
 3567TIP3    H110578   8.875   3.371   2.469
 3567TIP3    H210579   8.753   3.297   2.428
 3568TIP3   OH210580   8.917   2.828   2.620
 3568TIP3    H110581   8.945   2.743   2.657
 3568TIP3    H210582   8.832   2.806   2.575
 3569TIP3   OH210583   8.490   2.597   1.003
 3569TIP3    H110584   8.587   2.598   1.000
 3569TIP3    H210585   8.470   2.511   0.959
 3570TIP3   OH210586   8.408   3.205   1.421
 3570TIP3    H110587   8.339   3.145   1.386
 3570TIP3    H210588   8.450   3.147   1.488
 3571TIP3   OH210589   8.544   3.052   1.608
 3571TIP3    H110590   8.523   2.985   1.676
 3571TIP3    H210591   8.593   3.116   1.662
 3572TIP3   OH210592   8.760   2.450   1.980
 3572TIP3    H110593   8.732   2.426   1.890
 3572TIP3    H210594   8.837   2.507   1.963
 3573TIP3   OH210595   8.930   2.140   2.637
 3573TIP3    H110596   9.022   2.173   2.649
 3573TIP3    H210597   8.927   2.064   2.697
 3574TIP3   OH210598   8.701   2.141   2.028
 3574TIP3    H110599   8.763   2.068   2.036
 3574TIP3    H210600   8.749   2.217   2.064
 3575TIP3   OH210601   8.950   3.137   2.474
 3575TIP3    H110602   8.870   3.103   2.433
 3575TIP3    H210603   8.951   3.092   2.560
 3576TIP3   OH210604   8.801   3.407   2.030
 3576TIP3    H110605   8.716   3.445   1.997
 3576TIP3    H210606   8.815   3.464   2.107
 3577TIP3   OH210607   9.048   3.390   1.888
 3577TIP3    H110608   8.959   3.401   1.924
 3577TIP3    H210609   9.039   3.432   1.800
 3578TIP3   OH210610   8.721   3.210   1.763
 3578TIP3    H110611   8.747   3.191   1.856
 3578TIP3    H210612   8.801   3.177   1.716
 3579TIP3   OH210613   8.927   3.101   1.613
 3579TIP3    H110614   8.950   3.007   1.619
 3579TIP3    H210615   9.016   3.142   1.622
 3580TIP3   OH210616   8.512   2.978   1.154
 3580TIP3    H110617   8.424   2.952   1.123
 3580TIP3    H210618   8.504   3.075   1.145
 3581TIP3   OH210619   8.603   3.022   0.809
 3581TIP3    H110620   8.564   3.057   0.891
 3581TIP3    H210621   8.666   2.956   0.842
 3582TIP3   OH210622   0.370   3.100   3.527
 3582TIP3    H110623   0.338   3.189   3.499
 3582TIP3    H210624   0.298   3.046   3.489
 3583TIP3   OH210625   0.351   3.087   3.885
 3583TIP3    H110626   0.381   3.050   3.970
 3583TIP3    H210627   0.318   3.009   3.838
 3584TIP3   OH210628  -0.350   2.979   4.246
 3584TIP3    H110629  -0.324   2.909   4.308
 3584TIP3    H210630  -0.278   3.043   4.259
 3585TIP3   OH210631   0.596   3.383   3.564
 3585TIP3    H110632   0.575   3.313   3.627
 3585TIP3    H210633   0.620   3.457   3.622
 3586TIP3   OH210634  -0.372   3.386   3.971
 3586TIP3    H110635  -0.387   3.290   3.979
 3586TIP3    H210636  -0.274   3.390   3.969
 3587TIP3   OH210637   0.242   3.846   3.583
 3587TIP3    H110638   0.290   3.776   3.534
 3587TIP3    H210639   0.238   3.808   3.672
 3588TIP3   OH210640   0.150   3.308   3.932
 3588TIP3    H110641   0.189   3.232   3.885
 3588TIP3    H210642   0.233   3.352   3.958
 3589TIP3   OH210643   1.159   2.627   3.933
 3589TIP3    H110644   1.193   2.709   3.975
 3589TIP3    H210645   1.186   2.640   3.840
 3590TIP3   OH210646   0.557   2.808   3.970
 3590TIP3    H110647   0.604   2.724   3.989
 3590TIP3    H210648   0.531   2.795   3.877
 3591TIP3   OH210649   5.504   8.149   9.563
 3591TIP3    H110650   5.487   8.210   9.490
 3591TIP3    H210651   5.443   8.077   9.541
 3592TIP3   OH210652   0.594   2.577   3.576
 3592TIP3    H110653   0.672   2.557   3.633
 3592TIP3    H210654   0.638   2.612   3.497
 3593TIP3   OH210655  -0.474   2.651   4.036
 3593TIP3    H110656  -0.397   2.638   4.095
 3593TIP3    H210657  -0.432   2.666   3.950
 3594TIP3   OH210658  -0.019   2.871   3.823
 3594TIP3    H110659   0.074   2.848   3.842
 3594TIP3    H210660  -0.054   2.786   3.796
 3595TIP3   OH210661   1.236   2.838   4.098
 3595TIP3    H110662   1.149   2.882   4.084
 3595TIP3    H210663   1.251   2.857   4.192
 3596TIP3   OH210664  -0.108   2.444   4.361
 3596TIP3    H110665  -0.171   2.487   4.300
 3596TIP3    H210666  -0.153   2.462   4.446
 3597TIP3   OH210667   0.254   3.307   3.380
 3597TIP3    H110668   0.210   3.284   3.296
 3597TIP3    H210669   0.205   3.388   3.403
 3598TIP3   OH210670   0.004   3.225   4.161
 3598TIP3    H110671  -0.060   3.289   4.200
 3598TIP3    H210672   0.044   3.279   4.090
 3599TIP3   OH210673   0.813   2.558   3.728
 3599TIP3    H110674   0.809   2.507   3.810
 3599TIP3    H210675   0.866   2.636   3.755
 3600TIP3   OH210676  -0.234   2.573   4.154
 3600TIP3    H110677  -0.173   2.645   4.179
 3600TIP3    H210678  -0.192   2.539   4.073
 3601TIP3   OH210679  -0.167   3.417   4.255
 3601TIP3    H110680  -0.191   3.505   4.218
 3601TIP3    H210681  -0.245   3.404   4.314
 3602TIP3   OH210682   0.668   3.625   3.735
 3602TIP3    H110683   0.578   3.617   3.775
 3602TIP3    H210684   0.659   3.710   3.688
 3603TIP3   OH210685   0.955   2.529   4.098
 3603TIP3    H110686   0.868   2.557   4.066
 3603TIP3    H210687   1.015   2.560   4.027
 3604TIP3   OH210688   0.233   2.181   4.059
 3604TIP3    H110689   0.240   2.085   4.081
 3604TIP3    H210690   0.177   2.209   4.135
 3605TIP3   OH210691   0.369   3.675   3.411
 3605TIP3    H110692   0.417   3.592   3.389
 3605TIP3    H210693   0.429   3.740   3.367
 3606TIP3   OH210694   0.510   3.460   3.313
 3606TIP3    H110695   0.470   3.382   3.273
 3606TIP3    H210696   0.546   3.423   3.397
 3607TIP3   OH210697   0.891   3.541   4.078
 3607TIP3    H110698   0.878   3.463   4.019
 3607TIP3    H210699   0.872   3.616   4.018
 3608TIP3   OH210700   0.204   2.971   3.359
 3608TIP3    H110701   0.113   3.002   3.336
 3608TIP3    H210702   0.252   2.996   3.278
 3609TIP3   OH210703   1.079   3.173   3.913
 3609TIP3    H110704   1.008   3.238   3.935
 3609TIP3    H210705   1.062   3.160   3.819
 3610TIP3   OH210706   0.535   3.029   3.315
 3610TIP3    H110707   0.485   3.054   3.396
 3610TIP3    H210708   0.615   2.990   3.355
 3611TIP3   OH210709   0.765   3.056   4.217
 3611TIP3    H110710   0.763   3.139   4.269
 3611TIP3    H210711   0.678   3.061   4.172
 3612TIP3   OH210712  -0.227   3.026   3.727
 3612TIP3    H110713  -0.280   2.955   3.686
 3612TIP3    H210714  -0.148   2.976   3.756
 3613TIP3   OH210715  -0.104   3.428   3.869
 3613TIP3    H110716  -0.128   3.386   3.785
 3613TIP3    H210717  -0.015   3.391   3.886
 3614TIP3   OH210718  -0.095   2.984   4.074
 3614TIP3    H110719  -0.062   2.973   3.983
 3614TIP3    H210720  -0.058   3.071   4.100
 3615TIP3   OH210721   0.426   3.622   3.854
 3615TIP3    H110722   0.411   3.702   3.908
 3615TIP3    H210723   0.410   3.549   3.917
 3616TIP3   OH210724   0.036   3.541   4.401
 3616TIP3    H110725  -0.022   3.605   4.447
 3616TIP3    H210726  -0.030   3.489   4.351
 3617TIP3   OH210727   0.369   2.898   3.136
 3617TIP3    H110728   0.442   2.936   3.189
 3617TIP3    H210729   0.409   2.891   3.047
 3618TIP3   OH210730  -0.198   3.103   4.492
 3618TIP3    H110731  -0.196   3.191   4.535
 3618TIP3    H210732  -0.290   3.076   4.511
 3619TIP3   OH210733   0.114   3.554   3.407
 3619TIP3    H110734   0.191   3.610   3.427
 3619TIP3    H210735   0.049   3.617   3.374
 3620TIP3   OH210736  -0.164   3.714   4.489
 3620TIP3    H110737  -0.201   3.707   4.399
 3620TIP3    H210738  -0.235   3.675   4.545
 3621TIP3   OH210739   0.686   3.489   2.727
 3621TIP3    H110740   0.697   3.586   2.714
 3621TIP3    H210741   0.777   3.458   2.707
 3622TIP3   OH210742  -0.586   3.256   4.427
 3622TIP3    H110743  -0.648   3.221   4.362
 3622TIP3    H210744  -0.560   3.174   4.473
 3623TIP3   OH210745   1.129   3.883   4.123
 3623TIP3    H110746   1.127   3.787   4.140
 3623TIP3    H210747   1.045   3.910   4.169
 3624TIP3   OH210748   0.234   3.671   4.257
 3624TIP3    H110749   0.233   3.763   4.291
 3624TIP3    H210750   0.162   3.631   4.312
 3625TIP3   OH210751  -0.005   3.801   3.210
 3625TIP3    H110752  -0.053   3.786   3.127
 3625TIP3    H210753  -0.036   3.890   3.238
 3626TIP3   OH210754  -0.542   3.636   3.569
 3626TIP3    H110755  -0.503   3.618   3.657
 3626TIP3    H210756  -0.598   3.557   3.556
 3627TIP3   OH210757   0.204   3.699   2.851
 3627TIP3    H110758   0.265   3.632   2.814
 3627TIP3    H210759   0.238   3.708   2.942
 3628TIP3   OH210760   0.247   3.749   3.121
 3628TIP3    H110761   0.160   3.758   3.165
 3628TIP3    H210762   0.298   3.702   3.189
 3629TIP3   OH210763   1.019   3.016   4.398
 3629TIP3    H110764   0.937   3.028   4.349
 3629TIP3    H210765   1.035   2.920   4.387
 3630TIP3   OH210766  -0.376   3.428   4.423
 3630TIP3    H110767  -0.333   3.421   4.511
 3630TIP3    H210768  -0.449   3.363   4.430
 3631TIP3   OH210769   0.003   2.260   4.186
 3631TIP3    H110770  -0.083   2.217   4.178
 3631TIP3    H210771  -0.019   2.335   4.245
 3632TIP3   OH210772   0.549   2.360   4.401
 3632TIP3    H110773   0.618   2.335   4.466
 3632TIP3    H210774   0.466   2.342   4.449
 3633TIP3   OH210775   0.787   2.792   4.320
 3633TIP3    H110776   0.739   2.786   4.406
 3633TIP3    H210777   0.761   2.879   4.286
 3634TIP3   OH210778   0.465   2.913   2.871
 3634TIP3    H110779   0.382   2.922   2.822
 3634TIP3    H210780   0.512   2.995   2.850
 3635TIP3   OH210781  -0.051   2.764   4.226
 3635TIP3    H110782  -0.102   2.785   4.307
 3635TIP3    H210783  -0.068   2.846   4.172
 3636TIP3   OH210784   0.307   2.747   3.482
 3636TIP3    H110785   0.263   2.823   3.437
 3636TIP3    H210786   0.375   2.724   3.415
 3637TIP3   OH210787   0.495   3.013   4.553
 3637TIP3    H110788   0.473   2.940   4.615
 3637TIP3    H210789   0.588   3.028   4.576
 3638TIP3   OH210790   0.467   2.775   3.714
 3638TIP3    H110791   0.409   2.800   3.639
 3638TIP3    H210792   0.506   2.693   3.674
 3639TIP3   OH210793  -0.230   2.793   4.433
 3639TIP3    H110794  -0.226   2.859   4.503
 3639TIP3    H210795  -0.247   2.711   4.482
 3640TIP3   OH210796   0.488   3.010   4.132
 3640TIP3    H110797   0.521   2.937   4.075
 3640TIP3    H210798   0.459   2.959   4.210
 3641TIP3   OH210799   0.143   2.426   3.871
 3641TIP3    H110800   0.077   2.498   3.866
 3641TIP3    H210801   0.227   2.475   3.874
 3642TIP3   OH210802   0.652   2.548   4.004
 3642TIP3    H110803   0.616   2.559   4.095
 3642TIP3    H210804   0.588   2.485   3.966
 3643TIP3   OH210805   0.818   4.235   4.222
 3643TIP3    H110806   0.817   4.259   4.127
 3643TIP3    H210807   0.897   4.283   4.253
 3644TIP3   OH210808  -0.215   3.339   4.643
 3644TIP3    H110809  -0.138   3.376   4.690
 3644TIP3    H210810  -0.283   3.348   4.711
 3645TIP3   OH210811   0.234   2.777   3.892
 3645TIP3    H110812   0.318   2.766   3.845
 3645TIP3    H210813   0.257   2.751   3.983
 3646TIP3   OH210814   0.217   2.692   4.192
 3646TIP3    H110815   0.128   2.733   4.204
 3646TIP3    H210816   0.276   2.754   4.241
 3647TIP3   OH210817  -0.041   3.066   3.298
 3647TIP3    H110818  -0.125   3.047   3.252
 3647TIP3    H210819  -0.072   3.117   3.377
 3648TIP3   OH210820   0.853   3.325   3.913
 3648TIP3    H110821   0.875   3.366   3.827
 3648TIP3    H210822   0.768   3.280   3.893
 3649TIP3   OH210823   0.356   3.405   4.281
 3649TIP3    H110824   0.374   3.381   4.372
 3649TIP3    H210825   0.313   3.493   4.289
 3650TIP3   OH210826   0.497   2.678   3.302
 3650TIP3    H110827   0.594   2.669   3.293
 3650TIP3    H210828   0.469   2.684   3.209
 3651TIP3   OH210829  -0.356   3.107   3.961
 3651TIP3    H110830  -0.312   3.082   3.878
 3651TIP3    H210831  -0.319   3.046   4.026
 3652TIP3   OH210832   0.101   3.253   3.154
 3652TIP3    H110833   0.050   3.336   3.139
 3652TIP3    H210834   0.036   3.199   3.203
 3653TIP3   OH210835  -0.442   3.018   4.575
 3653TIP3    H110836  -0.436   3.019   4.672
 3653TIP3    H210837  -0.536   2.994   4.560
 3654TIP3   OH210838   0.251   3.142   4.593
 3654TIP3    H110839   0.191   3.082   4.546
 3654TIP3    H210840   0.338   3.108   4.564
 3655TIP3   OH210841   0.514   3.665   4.175
 3655TIP3    H110842   0.418   3.662   4.189
 3655TIP3    H210843   0.542   3.715   4.254
 3656TIP3   OH210844   0.925   2.735   3.081
 3656TIP3    H110845   0.870   2.692   3.013
 3656TIP3    H210846   0.918   2.828   3.051
 3657TIP3   OH210847   1.142   3.591   4.168
 3657TIP3    H110848   1.044   3.587   4.159
 3657TIP3    H210849   1.168   3.564   4.077
 3658TIP3   OH210850   0.616   3.556   2.991
 3658TIP3    H110851   0.603   3.484   3.055
 3658TIP3    H210852   0.637   3.509   2.908
 3659TIP3   OH210853   0.622   3.184   3.836
 3659TIP3    H110854   0.527   3.162   3.848
 3659TIP3    H210855   0.653   3.105   3.789
 3660TIP3   OH210856  -0.250   3.415   3.586
 3660TIP3    H110857  -0.250   3.493   3.527
 3660TIP3    H210858  -0.344   3.392   3.587
 3661TIP3   OH210859  -0.112   3.183   3.529
 3661TIP3    H110860  -0.147   3.273   3.543
 3661TIP3    H210861  -0.153   3.135   3.604
 3662TIP3   OH210862   0.016   3.758   4.051
 3662TIP3    H110863   0.061   3.830   4.002
 3662TIP3    H210864   0.090   3.721   4.102
 3663TIP3   OH210865  -0.311   3.655   3.428
 3663TIP3    H110866  -0.400   3.654   3.470
 3663TIP3    H210867  -0.290   3.750   3.432
 3664TIP3   OH210868   0.405   3.390   4.012
 3664TIP3    H110869   0.395   3.389   4.110
 3664TIP3    H210870   0.484   3.336   4.001
 3665TIP3   OH210871   0.375   3.280   2.887
 3665TIP3    H110872   0.419   3.261   2.973
 3665TIP3    H210873   0.289   3.234   2.899
 3666TIP3   OH210874   0.654   3.923   4.062
 3666TIP3    H110875   0.575   3.867   4.056
 3666TIP3    H210876   0.637   3.988   3.990
 3667TIP3   OH210877   0.717   3.763   2.712
 3667TIP3    H110878   0.765   3.840   2.676
 3667TIP3    H210879   0.636   3.808   2.743
 3668TIP3   OH210880  -0.251   2.527   4.588
 3668TIP3    H110881  -0.341   2.546   4.619
 3668TIP3    H210882  -0.220   2.466   4.658
 3669TIP3   OH210883   0.540   3.218   3.109
 3669TIP3    H110884   0.529   3.154   3.183
 3669TIP3    H210885   0.637   3.217   3.100
 3670TIP3   OH210886  -0.507   3.643   4.205
 3670TIP3    H110887  -0.484   3.550   4.216
 3670TIP3    H210888  -0.516   3.672   4.297
 3671TIP3   OH210889  -0.234   3.274   3.183
 3671TIP3    H110890  -0.300   3.221   3.229
 3671TIP3    H210891  -0.286   3.354   3.161
 3672TIP3   OH210892   0.574   2.597   4.262
 3672TIP3    H110893   0.653   2.637   4.301
 3672TIP3    H210894   0.560   2.517   4.317
 3673TIP3   OH210895   0.535   2.376   3.404
 3673TIP3    H110896   0.454   2.406   3.360
 3673TIP3    H210897   0.549   2.447   3.470
 3674TIP3   OH210898  -0.039   3.483   3.090
 3674TIP3    H110899  -0.122   3.472   3.140
 3674TIP3    H210900  -0.037   3.578   3.075
 3675TIP3   OH210901   0.218   2.489   3.539
 3675TIP3    H110902   0.252   2.579   3.517
 3675TIP3    H210903   0.125   2.509   3.559
 3676TIP3   OH210904   0.414   2.847   4.337
 3676TIP3    H110905   0.432   2.902   4.416
 3676TIP3    H210906   0.470   2.769   4.354
 3677TIP3   OH210907   0.332   2.254   3.659
 3677TIP3    H110908   0.281   2.327   3.695
 3677TIP3    H210909   0.388   2.302   3.597
 3678TIP3   OH210910  -0.301   3.547   3.174
 3678TIP3    H110911  -0.315   3.628   3.122
 3678TIP3    H210912  -0.311   3.580   3.265
 3679TIP3   OH210913   1.054   2.749   4.314
 3679TIP3    H110914   0.957   2.748   4.323
 3679TIP3    H210915   1.063   2.700   4.231
 3680TIP3   OH210916   0.703   2.944   3.711
 3680TIP3    H110917   0.626   2.886   3.720
 3680TIP3    H210918   0.773   2.893   3.758
 3681TIP3   OH210919   0.673   3.897   3.655
 3681TIP3    H110920   0.631   3.944   3.580
 3681TIP3    H210921   0.767   3.917   3.635
 3682TIP3   OH210922   4.949   9.077   9.194
 3682TIP3    H110923   4.852   9.083   9.187
 3682TIP3    H210924   4.970   9.036   9.107
 3683TIP3   OH210925  -0.074   3.901   4.676
 3683TIP3    H110926   0.018   3.874   4.688
 3683TIP3    H210927  -0.102   3.838   4.605
 3684TIP3   OH210928   0.567   3.797   4.411
 3684TIP3    H110929   0.557   3.728   4.480
 3684TIP3    H210930   0.644   3.848   4.443
 3685TIP3   OH210931   0.355   3.513   2.720
 3685TIP3    H110932   0.370   3.438   2.781
 3685TIP3    H210933   0.433   3.510   2.663
 3686TIP3   OH210934  -0.407   3.318   4.840
 3686TIP3    H110935  -0.373   3.227   4.842
 3686TIP3    H210936  -0.501   3.299   4.823
 3687TIP3   OH210937   0.185   3.418   4.607
 3687TIP3    H110938   0.141   3.433   4.522
 3687TIP3    H210939   0.215   3.325   4.601
 3688TIP3   OH210940   0.676   3.424   4.213
 3688TIP3    H110941   0.750   3.473   4.172
 3688TIP3    H210942   0.603   3.487   4.202
 3689TIP3   OH210943  -0.317   3.051   4.835
 3689TIP3    H110944  -0.236   3.008   4.803
 3689TIP3    H210945  -0.288   3.087   4.921
 3690TIP3   OH210946   0.036   2.955   4.480
 3690TIP3    H110947  -0.045   3.011   4.480
 3690TIP3    H210948   0.082   2.987   4.399
 3691TIP3   OH210949   0.546   3.353   4.613
 3691TIP3    H110950   0.628   3.332   4.568
 3691TIP3    H210951   0.543   3.287   4.684
 3692TIP3   OH210952   0.696   3.017   2.710
 3692TIP3    H110953   0.651   3.004   2.625
 3692TIP3    H210954   0.664   3.108   2.728
 3693TIP3   OH210955   0.152   2.740   4.606
 3693TIP3    H110956   0.151   2.660   4.550
 3693TIP3    H210957   0.110   2.807   4.548
 3694TIP3   OH210958   0.152   2.523   4.411
 3694TIP3    H110959   0.180   2.569   4.329
 3694TIP3    H210960   0.058   2.503   4.392
 3695TIP3   OH210961   0.185   3.060   4.280
 3695TIP3    H110962   0.268   3.075   4.233
 3695TIP3    H210963   0.127   3.128   4.240
 3696TIP3   OH210964   0.764   3.029   4.666
 3696TIP3    H110965   0.814   2.946   4.680
 3696TIP3    H210966   0.834   3.088   4.634
 3697TIP3   OH210967   0.807   3.280   4.401
 3697TIP3    H110968   0.748   3.334   4.342
 3697TIP3    H210969   0.894   3.301   4.360
 3698TIP3   OH210970   0.029   2.854   4.834
 3698TIP3    H110971  -0.039   2.785   4.849
 3698TIP3    H210972   0.065   2.828   4.747
 3699TIP3   OH210973   0.289   2.291   4.476
 3699TIP3    H110974   0.239   2.373   4.457
 3699TIP3    H210975   0.218   2.224   4.470
 3700TIP3   OH210976   0.414   2.795   4.695
 3700TIP3    H110977   0.405   2.784   4.791
 3700TIP3    H210978   0.323   2.771   4.667
 3701TIP3   OH210979   0.652   2.741   4.549
 3701TIP3    H110980   0.578   2.745   4.611
 3701TIP3    H210981   0.726   2.712   4.606
 3702TIP3   OH210982   0.881   2.683   4.700
 3702TIP3    H110983   0.894   2.588   4.720
 3702TIP3    H210984   0.877   2.724   4.789
 3703TIP3   OH210985  -0.132   2.636   4.888
 3703TIP3    H110986  -0.123   2.545   4.853
 3703TIP3    H210987  -0.093   2.624   4.977
 3704TIP3   OH210988   0.382   2.300   4.735
 3704TIP3    H110989   0.450   2.230   4.731
 3704TIP3    H210990   0.344   2.293   4.646
 3705TIP3   OH210991   0.448   2.515   4.895
 3705TIP3    H110992   0.425   2.444   4.831
 3705TIP3    H210993   0.370   2.574   4.889
 3706TIP3   OH210994  -0.312   3.769   3.010
 3706TIP3    H110995  -0.223   3.763   2.971
 3706TIP3    H210996  -0.365   3.795   2.933
 3707TIP3   OH210997   0.925   3.990   3.613
 3707TIP3    H110998   0.955   4.026   3.698
 3707TIP3    H210999   0.987   4.031   3.550
 3708TIP3   OH211000   0.955   4.011   3.895
 3708TIP3    H111001   0.913   3.923   3.889
 3708TIP3    H211002   1.031   3.989   3.951
 3709TIP3   OH211003   1.001   3.686   4.465
 3709TIP3    H111004   0.928   3.694   4.530
 3709TIP3    H211005   1.043   3.774   4.471
 3710TIP3   OH211006   0.823   3.202   3.087
 3710TIP3    H111007   0.904   3.256   3.076
 3710TIP3    H211008   0.854   3.148   3.162
 3711TIP3   OH211009   0.932   3.047   3.285
 3711TIP3    H111010   0.872   3.018   3.357
 3711TIP3    H211011   0.981   3.122   3.322
 3712TIP3   OH211012   1.011   3.444   3.712
 3712TIP3    H111013   1.037   3.412   3.625
 3712TIP3    H211014   0.987   3.536   3.688
 3713TIP3   OH211015   0.831   3.759   3.919
 3713TIP3    H111016   0.762   3.804   3.971
 3713TIP3    H211017   0.778   3.713   3.850
 3714TIP3   OH211018   0.878   2.973   2.939
 3714TIP3    H111019   0.810   2.981   2.870
 3714TIP3    H211020   0.861   3.052   2.993
 3715TIP3   OH211021   0.762   2.654   2.864
 3715TIP3    H111022   0.673   2.691   2.873
 3715TIP3    H211023   0.748   2.560   2.887
 3716TIP3   OH211024   0.752   2.918   3.443
 3716TIP3    H111025   0.766   2.822   3.432
 3716TIP3    H211026   0.742   2.929   3.540
 3717TIP3   OH211027  -0.605   3.027   4.146
 3717TIP3    H111028  -0.594   2.948   4.092
 3717TIP3    H211029  -0.519   3.027   4.194
 3718TIP3   OH211030   1.049   3.348   4.292
 3718TIP3    H111031   1.122   3.282   4.284
 3718TIP3    H211032   1.080   3.420   4.235
 3719TIP3   OH211033   1.233   3.154   4.308
 3719TIP3    H111034   1.160   3.103   4.349
 3719TIP3    H211035   1.307   3.091   4.324
 3720TIP3   OH211036   0.772   2.641   3.336
 3720TIP3    H111037   0.807   2.550   3.351
 3720TIP3    H211038   0.831   2.670   3.264
 3721TIP3   OH211039   0.912   2.810   3.830
 3721TIP3    H111040   0.997   2.836   3.786
 3721TIP3    H211041   0.929   2.847   3.919
 3722TIP3   OH211042   0.984   2.958   4.060
 3722TIP3    H111043   0.906   2.989   4.110
 3722TIP3    H211044   1.015   3.040   4.017
 3723TIP3   OH211045  -0.406   2.652   4.859
 3723TIP3    H111046  -0.314   2.679   4.845
 3723TIP3    H211047  -0.396   2.597   4.938
 3724TIP3   OH211048   1.438   2.547   4.615
 3724TIP3    H111049   1.496   2.481   4.572
 3724TIP3    H211050   1.411   2.603   4.539
 3725TIP3   OH211051   0.865   2.384   3.368
 3725TIP3    H111052   0.919   2.374   3.450
 3725TIP3    H211053   0.810   2.305   3.371
 3726TIP3   OH211054  -0.599   2.656   4.291
 3726TIP3    H111055  -0.576   2.654   4.197
 3726TIP3    H211056  -0.647   2.739   4.299
 3727TIP3   OH211057   1.310   2.689   4.421
 3727TIP3    H111058   1.224   2.728   4.444
 3727TIP3    H211059   1.280   2.617   4.362
 3728TIP3   OH211060   1.010   2.321   3.021
 3728TIP3    H111061   1.017   2.249   2.958
 3728TIP3    H211062   1.068   2.391   2.985
 3729TIP3   OH211063   0.508   3.859   3.267
 3729TIP3    H111064   0.559   3.841   3.186
 3729TIP3    H211065   0.566   3.920   3.315
 3730TIP3   OH211066  -0.434   2.236   4.588
 3730TIP3    H111067  -0.488   2.223   4.667
 3730TIP3    H211068  -0.495   2.285   4.532
 3731TIP3   OH211069  -0.357   3.623   4.658
 3731TIP3    H111070  -0.441   3.670   4.644
 3731TIP3    H211071  -0.358   3.613   4.755
 3732TIP3   OH211072  -0.201   3.686   4.207
 3732TIP3    H111073  -0.264   3.750   4.170
 3732TIP3    H211074  -0.121   3.711   4.156
 3733TIP3   OH211075   0.235   3.937   4.340
 3733TIP3    H111076   0.277   3.937   4.429
 3733TIP3    H211077   0.302   3.988   4.289
 3734TIP3   OH211078   0.414   4.089   4.197
 3734TIP3    H111079   0.485   4.037   4.158
 3734TIP3    H211080   0.465   4.146   4.259
 3735TIP3   OH211081   1.206   2.450   4.300
 3735TIP3    H111082   1.115   2.442   4.266
 3735TIP3    H211083   1.239   2.358   4.288
 3736TIP3   OH211084  -0.301   3.931   4.091
 3736TIP3    H111085  -0.389   3.931   4.130
 3736TIP3    H211086  -0.319   3.961   4.000
 3737TIP3   OH211087   0.130   3.958   3.880
 3737TIP3    H111088   0.060   3.979   3.815
 3737TIP3    H211089   0.142   4.045   3.925
 3738TIP3   OH211090   0.397   3.896   3.932
 3738TIP3    H111091   0.303   3.913   3.912
 3738TIP3    H211092   0.440   3.973   3.891
 3739TIP3   OH211093   0.604   4.089   3.848
 3739TIP3    H111094   0.590   4.173   3.800
 3739TIP3    H211095   0.631   4.028   3.775
 3740TIP3   OH211096  -0.571   3.768   3.958
 3740TIP3    H111097  -0.553   3.727   4.046
 3740TIP3    H211098  -0.518   3.707   3.903
 3741TIP3   OH211099  -0.420   3.599   3.810
 3741TIP3    H111100  -0.409   3.517   3.865
 3741TIP3    H211101  -0.329   3.634   3.812
 3742TIP3   OH211102  -0.158   3.713   3.829
 3742TIP3    H111103  -0.129   3.621   3.814
 3742TIP3    H211104  -0.115   3.729   3.915
 3743TIP3   OH211105   0.423   2.372   3.922
 3743TIP3    H111106   0.382   2.297   3.967
 3743TIP3    H211107   0.487   2.327   3.864
 3744TIP3   OH211108   0.938   2.253   3.827
 3744TIP3    H111109   0.975   2.304   3.751
 3744TIP3    H211110   0.842   2.268   3.816
 3745TIP3   OH211111   1.031   2.352   3.586
 3745TIP3    H111112   1.104   2.298   3.548
 3745TIP3    H211113   1.072   2.442   3.578
 3746TIP3   OH211114   0.652   2.254   3.800
 3746TIP3    H111115   0.656   2.217   3.711
 3746TIP3    H211116   0.638   2.174   3.855
 3747TIP3   OH211117  -0.054   3.717   2.936
 3747TIP3    H111118   0.039   3.718   2.905
 3747TIP3    H211119  -0.092   3.649   2.877
 3748TIP3   OH211120   0.653   3.821   3.035
 3748TIP3    H111121   0.644   3.723   3.024
 3748TIP3    H211122   0.611   3.852   2.953
 3749TIP3   OH211123  -0.133   2.358   4.826
 3749TIP3    H111124  -0.167   2.284   4.880
 3749TIP3    H211125  -0.039   2.356   4.854
 3750TIP3   OH211126   0.118   2.350   4.944
 3750TIP3    H111127   0.203   2.327   4.905
 3750TIP3    H211128   0.106   2.278   5.009
 3751TIP3   OH211129   0.942   2.412   4.732
 3751TIP3    H111130   0.962   2.382   4.824
 3751TIP3    H211131   1.031   2.408   4.691
 3752TIP3   OH211132   0.883   3.967   4.224
 3752TIP3    H111133   0.804   3.935   4.176
 3752TIP3    H211134   0.863   4.063   4.228
 3753TIP3   OH211135   2.149   3.340   2.989
 3753TIP3    H111136   2.122   3.432   2.971
 3753TIP3    H211137   2.070   3.291   2.964
 3754TIP3   OH211138   2.147   3.336   3.370
 3754TIP3    H111139   2.179   3.311   3.458
 3754TIP3    H211140   2.105   3.255   3.339
 3755TIP3   OH211141   2.388   3.640   3.053
 3755TIP3    H111142   2.377   3.572   3.120
 3755TIP3    H211143   2.418   3.716   3.106
 3756TIP3   OH211144   1.418   3.641   3.462
 3756TIP3    H111145   1.409   3.546   3.476
 3756TIP3    H211146   1.515   3.652   3.455
 3757TIP3   OH211147   1.125   2.850   3.256
 3757TIP3    H111148   1.073   2.933   3.256
 3757TIP3    H211149   1.057   2.789   3.224
 3758TIP3   OH211150   1.220   3.154   3.445
 3758TIP3    H111151   1.228   3.060   3.426
 3758TIP3    H211152   1.193   3.189   3.357
 3759TIP3   OH211153   2.036   4.101   3.065
 3759TIP3    H111154   2.086   4.029   3.021
 3759TIP3    H211155   2.032   4.069   3.157
 3760TIP3   OH211156   1.946   3.563   3.420
 3760TIP3    H111157   1.985   3.487   3.373
 3760TIP3    H211158   2.030   3.609   3.445
 3761TIP3   OH211159   2.959   2.884   3.419
 3761TIP3    H111160   2.987   2.967   3.463
 3761TIP3    H211161   2.975   2.905   3.326
 3762TIP3   OH211162   2.359   3.065   3.454
 3762TIP3    H111163   2.404   2.980   3.470
 3762TIP3    H211164   2.328   3.052   3.362
 3763TIP3   OH211165   1.722   2.718   3.407
 3763TIP3    H111166   1.680   2.795   3.366
 3763TIP3    H211167   1.643   2.663   3.422
 3764TIP3   OH211168   2.388   2.816   3.040
 3764TIP3    H111169   2.458   2.797   3.107
 3764TIP3    H211170   2.443   2.848   2.967
 3765TIP3   OH211171   1.376   2.944   3.544
 3765TIP3    H111172   1.411   2.866   3.595
 3765TIP3    H211173   1.363   2.894   3.461
 3766TIP3   OH211174   1.769   3.124   3.325
 3766TIP3    H111175   1.863   3.097   3.333
 3766TIP3    H211176   1.728   3.042   3.288
 3767TIP3   OH211177   3.031   3.091   3.589
 3767TIP3    H111178   2.948   3.139   3.571
 3767TIP3    H211179   3.051   3.121   3.679
 3768TIP3   OH211180   1.695   2.715   3.855
 3768TIP3    H111181   1.622   2.709   3.789
 3768TIP3    H211182   1.642   2.742   3.932
 3769TIP3   OH211183   2.048   3.566   2.853
 3769TIP3    H111184   1.992   3.538   2.780
 3769TIP3    H211185   2.002   3.647   2.882
 3770TIP3   OH211186   1.794   3.476   3.645
 3770TIP3    H111187   1.735   3.543   3.686
 3770TIP3    H211188   1.840   3.529   3.577
 3771TIP3   OH211189   2.599   2.822   3.208
 3771TIP3    H111190   2.611   2.753   3.274
 3771TIP3    H211191   2.654   2.894   3.243
 3772TIP3   OH211192   1.626   3.675   3.742
 3772TIP3    H111193   1.602   3.763   3.705
 3772TIP3    H211194   1.549   3.662   3.802
 3773TIP3   OH211195   2.461   3.881   3.219
 3773TIP3    H111196   2.372   3.874   3.259
 3773TIP3    H211197   2.454   3.968   3.175
 3774TIP3   OH211198   2.752   2.784   3.586
 3774TIP3    H111199   2.664   2.809   3.552
 3774TIP3    H211200   2.811   2.812   3.513
 3775TIP3   OH211201   2.048   2.435   3.651
 3775TIP3    H111202   2.061   2.347   3.611
 3775TIP3    H211203   1.963   2.461   3.611
 3776TIP3   OH211204   2.167   3.927   2.895
 3776TIP3    H111205   2.219   3.847   2.873
 3776TIP3    H211206   2.225   3.996   2.854
 3777TIP3   OH211207   2.310   3.708   2.798
 3777TIP3    H111208   2.243   3.640   2.783
 3777TIP3    H211209   2.347   3.679   2.884
 3778TIP3   OH211210   2.687   3.796   3.564
 3778TIP3    H111211   2.676   3.719   3.505
 3778TIP3    H211212   2.670   3.872   3.504
 3779TIP3   OH211213   1.978   3.187   2.818
 3779TIP3    H111214   1.895   3.238   2.804
 3779TIP3    H211215   2.017   3.191   2.729
 3780TIP3   OH211216   1.936   2.972   2.539
 3780TIP3    H111217   2.003   3.015   2.595
 3780TIP3    H211218   1.992   2.909   2.490
 3781TIP3   OH211219   2.882   3.431   3.407
 3781TIP3    H111220   2.800   3.484   3.413
 3781TIP3    H211221   2.914   3.457   3.317
 3782TIP3   OH211222   2.327   3.270   2.797
 3782TIP3    H111223   2.271   3.296   2.874
 3782TIP3    H211224   2.410   3.244   2.843
 3783TIP3   OH211225   2.562   3.311   3.706
 3783TIP3    H111226   2.560   3.394   3.756
 3783TIP3    H211227   2.476   3.317   3.659
 3784TIP3   OH211228   1.560   3.274   3.211
 3784TIP3    H111229   1.513   3.219   3.144
 3784TIP3    H211230   1.634   3.216   3.237
 3785TIP3   OH211231   1.684   3.674   3.361
 3785TIP3    H111232   1.669   3.640   3.272
 3785TIP3    H211233   1.777   3.646   3.378
 3786TIP3   OH211234   1.681   3.236   3.561
 3786TIP3    H111235   1.729   3.209   3.480
 3786TIP3    H211236   1.731   3.315   3.592
 3787TIP3   OH211237   2.220   3.879   3.341
 3787TIP3    H111238   2.206   3.960   3.393
 3787TIP3    H211239   2.205   3.807   3.405
 3788TIP3   OH211240   1.833   3.798   3.887
 3788TIP3    H111241   1.774   3.860   3.935
 3788TIP3    H211242   1.766   3.745   3.839
 3789TIP3   OH211243   2.178   3.132   2.616
 3789TIP3    H111244   2.229   3.187   2.681
 3789TIP3    H211245   2.191   3.182   2.534
 3790TIP3   OH211246   1.584   3.356   3.987
 3790TIP3    H111247   1.590   3.444   4.029
 3790TIP3    H211248   1.490   3.336   4.003
 3791TIP3   OH211249   1.911   3.809   2.894
 3791TIP3    H111250   1.988   3.865   2.914
 3791TIP3    H211251   1.847   3.873   2.858
 3792TIP3   OH211252   1.627   3.966   3.974
 3792TIP3    H111253   1.591   3.965   3.883
 3792TIP3    H211254   1.548   3.945   4.028
 3793TIP3   OH211255   2.673   2.368   2.665
 3793TIP3    H111256   2.602   2.382   2.730
 3793TIP3    H211257   2.684   2.457   2.627
 3794TIP3   OH211258   1.434   3.111   3.001
 3794TIP3    H111259   1.362   3.165   2.963
 3794TIP3    H211260   1.383   3.046   3.050
 3795TIP3   OH211261   2.477   3.736   2.213
 3795TIP3    H111262   2.487   3.833   2.200
 3795TIP3    H211263   2.569   3.706   2.193
 3796TIP3   OH211264   1.203   3.496   3.922
 3796TIP3    H111265   1.138   3.470   3.853
 3796TIP3    H211266   1.238   3.409   3.951
 3797TIP3   OH211267   1.062   3.687   3.567
 3797TIP3    H111268   1.156   3.688   3.544
 3797TIP3    H211269   1.051   3.773   3.610
 3798TIP3   OH211270   2.925   4.140   3.610
 3798TIP3    H111271   2.923   4.044   3.625
 3798TIP3    H211272   2.842   4.167   3.655
 3799TIP3   OH211273   2.031   3.927   3.744
 3799TIP3    H111274   2.031   4.020   3.777
 3799TIP3    H211275   1.960   3.888   3.800
 3800TIP3   OH211276   1.791   4.059   2.696
 3800TIP3    H111277   1.743   4.042   2.613
 3800TIP3    H211278   1.758   4.147   2.722
 3801TIP3   OH211279   1.236   3.918   3.080
 3801TIP3    H111280   1.279   3.903   3.166
 3801TIP3    H211281   1.182   3.835   3.074
 3802TIP3   OH211282   1.993   3.956   2.336
 3802TIP3    H111283   2.052   3.886   2.303
 3802TIP3    H211284   2.026   3.968   2.428
 3803TIP3   OH211285   2.042   4.004   2.605
 3803TIP3    H111286   1.954   4.016   2.648
 3803TIP3    H211287   2.094   3.968   2.679
 3804TIP3   OH211288   2.816   3.272   3.885
 3804TIP3    H111289   2.735   3.286   3.834
 3804TIP3    H211290   2.830   3.176   3.874
 3805TIP3   OH211291   1.412   3.679   3.911
 3805TIP3    H111292   1.462   3.664   3.994
 3805TIP3    H211293   1.338   3.616   3.920
 3806TIP3   OH211294   1.791   2.514   3.688
 3806TIP3    H111295   1.706   2.488   3.649
 3806TIP3    H211296   1.765   2.602   3.722
 3807TIP3   OH211297   2.577   3.045   3.804
 3807TIP3    H111298   2.534   3.044   3.892
 3807TIP3    H211299   2.560   3.136   3.772
 3808TIP3   OH211300   2.297   3.214   2.335
 3808TIP3    H111301   2.248   3.153   2.274
 3808TIP3    H211302   2.246   3.296   2.318
 3809TIP3   OH211303   1.955   2.559   2.665
 3809TIP3    H111304   1.930   2.554   2.760
 3809TIP3    H211305   1.917   2.474   2.634
 3810TIP3   OH211306   1.764   3.028   3.721
 3810TIP3    H111307   1.689   3.019   3.782
 3810TIP3    H211308   1.730   3.097   3.661
 3811TIP3   OH211309   1.623   2.912   3.227
 3811TIP3    H111310   1.533   2.880   3.248
 3811TIP3    H211311   1.638   2.866   3.141
 3812TIP3   OH211312   2.119   2.994   2.957
 3812TIP3    H111313   2.064   3.062   2.913
 3812TIP3    H211314   2.169   2.957   2.883
 3813TIP3   OH211315   2.291   3.269   4.039
 3813TIP3    H111316   2.270   3.198   4.103
 3813TIP3    H211317   2.384   3.287   4.063
 3814TIP3   OH211318   2.274   3.020   3.194
 3814TIP3    H111319   2.214   3.047   3.122
 3814TIP3    H211320   2.308   2.938   3.153
 3815TIP3   OH211321   1.547   3.044   3.902
 3815TIP3    H111322   1.577   3.113   3.962
 3815TIP3    H211323   1.539   2.967   3.961
 3816TIP3   OH211324   1.590   2.519   2.627
 3816TIP3    H111325   1.618   2.509   2.720
 3816TIP3    H211326   1.517   2.581   2.642
 3817TIP3   OH211327   1.176   2.574   3.521
 3817TIP3    H111328   1.269   2.594   3.544
 3817TIP3    H211329   1.183   2.543   3.428
 3818TIP3   OH211330   1.141   2.564   3.005
 3818TIP3    H111331   1.203   2.615   2.951
 3818TIP3    H211332   1.083   2.634   3.042
 3819TIP3   OH211333   2.283   3.266   3.616
 3819TIP3    H111334   2.317   3.194   3.558
 3819TIP3    H211335   2.255   3.215   3.694
 3820TIP3   OH211336   1.962   2.725   3.281
 3820TIP3    H111337   1.873   2.726   3.324
 3820TIP3    H211338   2.021   2.734   3.357
 3821TIP3   OH211339   1.391   2.790   3.299
 3821TIP3    H111340   1.295   2.788   3.275
 3821TIP3    H211341   1.418   2.697   3.284
 3822TIP3   OH211342   1.659   2.779   2.989
 3822TIP3    H111343   1.754   2.794   2.970
 3822TIP3    H211344   1.614   2.799   2.904
 3823TIP3   OH211345   2.448   2.805   3.490
 3823TIP3    H111346   2.410   2.812   3.580
 3823TIP3    H211347   2.388   2.741   3.449
 3824TIP3   OH211348   1.500   2.793   2.762
 3824TIP3    H111349   1.405   2.794   2.743
 3824TIP3    H211350   1.540   2.843   2.688
 3825TIP3   OH211351   2.615   4.491   3.709
 3825TIP3    H111352   2.613   4.516   3.614
 3825TIP3    H211353   2.693   4.540   3.740
 3826TIP3   OH211354   1.573   3.602   4.131
 3826TIP3    H111355   1.653   3.632   4.178
 3826TIP3    H211356   1.509   3.602   4.204
 3827TIP3   OH211357   2.037   3.055   3.385
 3827TIP3    H111358   2.108   3.015   3.333
 3827TIP3    H211359   2.049   3.013   3.472
 3828TIP3   OH211360   1.542   2.547   3.253
 3828TIP3    H111361   1.507   2.471   3.304
 3828TIP3    H211362   1.610   2.505   3.200
 3829TIP3   OH211363   2.019   2.939   3.695
 3829TIP3    H111364   1.928   2.976   3.696
 3829TIP3    H211365   2.072   3.012   3.731
 3830TIP3   OH211366   1.752   3.342   2.772
 3830TIP3    H111367   1.679   3.277   2.760
 3830TIP3    H211368   1.732   3.377   2.863
 3831TIP3   OH211369   2.651   3.578   3.400
 3831TIP3    H111370   2.675   3.628   3.319
 3831TIP3    H211371   2.565   3.538   3.376
 3832TIP3   OH211372   2.206   2.659   2.620
 3832TIP3    H111373   2.112   2.638   2.641
 3832TIP3    H211374   2.218   2.748   2.658
 3833TIP3   OH211375   2.147   3.660   3.768
 3833TIP3    H111376   2.173   3.640   3.859
 3833TIP3    H211377   2.111   3.750   3.775
 3834TIP3   OH211378   2.277   2.900   2.736
 3834TIP3    H111379   2.372   2.905   2.757
 3834TIP3    H211380   2.261   2.981   2.685
 3835TIP3   OH211381   1.445   3.322   3.480
 3835TIP3    H111382   1.430   3.331   3.384
 3835TIP3    H211383   1.544   3.319   3.485
 3836TIP3   OH211384   1.895   3.492   2.591
 3836TIP3    H111385   1.848   3.578   2.596
 3836TIP3    H211386   1.840   3.437   2.651
 3837TIP3   OH211387   1.321   3.288   4.062
 3837TIP3    H111388   1.351   3.278   4.154
 3837TIP3    H211389   1.258   3.213   4.054
 3838TIP3   OH211390   2.048   3.398   4.079
 3838TIP3    H111391   1.989   3.341   4.028
 3838TIP3    H211392   2.136   3.366   4.051
 3839TIP3   OH211393   2.310   3.917   3.664
 3839TIP3    H111394   2.213   3.919   3.676
 3839TIP3    H211395   2.339   3.970   3.741
 3840TIP3   OH211396   2.704   2.977   2.580
 3840TIP3    H111397   2.684   2.908   2.515
 3840TIP3    H211398   2.754   3.042   2.528
 3841TIP3   OH211399   2.938   3.847   3.654
 3841TIP3    H111400   2.840   3.844   3.646
 3841TIP3    H211401   2.963   3.820   3.563
 3842TIP3   OH211402   2.404   3.813   2.473
 3842TIP3    H111403   2.406   3.747   2.543
 3842TIP3    H211404   2.436   3.765   2.395
 3843TIP3   OH211405   2.416   3.441   3.319
 3843TIP3    H111406   2.322   3.416   3.332
 3843TIP3    H211407   2.450   3.361   3.274
 3844TIP3   OH211408   1.542   3.668   3.072
 3844TIP3    H111409   1.539   3.750   3.019
 3844TIP3    H211410   1.448   3.647   3.079
 3845TIP3   OH211411   1.107   2.979   2.789
 3845TIP3    H111412   1.154   3.064   2.805
 3845TIP3    H211413   1.033   2.986   2.853
 3846TIP3   OH211414   1.685   3.436   3.016
 3846TIP3    H111415   1.647   3.525   3.034
 3846TIP3    H211416   1.646   3.384   3.089
 3847TIP3   OH211417   1.812   4.012   3.540
 3847TIP3    H111418   1.852   4.085   3.490
 3847TIP3    H211419   1.888   3.979   3.590
 3848TIP3   OH211420   1.464   3.907   2.923
 3848TIP3    H111421   1.379   3.917   2.970
 3848TIP3    H211422   1.498   3.999   2.926
 3849TIP3   OH211423   2.200   3.645   3.499
 3849TIP3    H111424   2.191   3.644   3.597
 3849TIP3    H211425   2.283   3.596   3.487
 3850TIP3   OH211426   2.166   3.512   2.383
 3850TIP3    H111427   2.219   3.503   2.465
 3850TIP3    H211428   2.076   3.514   2.420
 3851TIP3   OH211429   2.449   4.180   3.549
 3851TIP3    H111430   2.369   4.125   3.540
 3851TIP3    H211431   2.434   4.246   3.477
 3852TIP3   OH211432   2.511   4.015   2.200
 3852TIP3    H111433   2.558   4.091   2.160
 3852TIP3    H211434   2.431   4.061   2.232
 3853TIP3   OH211435   1.536   2.796   4.071
 3853TIP3    H111436   1.439   2.796   4.079
 3853TIP3    H211437   1.560   2.729   4.138
 3854TIP3   OH211438   2.338   3.448   2.585
 3854TIP3    H111439   2.328   3.404   2.672
 3854TIP3    H211440   2.433   3.469   2.587
 3855TIP3   OH211441   1.251   3.877   3.700
 3855TIP3    H111442   1.303   3.802   3.731
 3855TIP3    H211443   1.281   3.946   3.761
 3856TIP3   OH211444   1.544   3.519   2.379
 3856TIP3    H111445   1.554   3.427   2.351
 3856TIP3    H211446   1.524   3.509   2.475
 3857TIP3   OH211447   1.489   3.525   2.650
 3857TIP3    H111448   1.552   3.497   2.718
 3857TIP3    H211449   1.492   3.623   2.659
 3858TIP3   OH211450   1.223   3.219   2.842
 3858TIP3    H111451   1.187   3.244   2.931
 3858TIP3    H211452   1.221   3.304   2.795
 3859TIP3   OH211453   2.377   2.847   3.751
 3859TIP3    H111454   2.452   2.906   3.773
 3859TIP3    H211455   2.366   2.797   3.832
 3860TIP3   OH211456   2.217   2.628   2.918
 3860TIP3    H111457   2.240   2.629   2.824
 3860TIP3    H211458   2.280   2.693   2.955
 3861TIP3   OH211459   1.753   3.722   2.600
 3861TIP3    H111460   1.667   3.747   2.638
 3861TIP3    H211461   1.769   3.799   2.543
 3862TIP3   OH211462   1.938   2.788   3.014
 3862TIP3    H111463   2.008   2.854   2.998
 3862TIP3    H211464   1.946   2.776   3.111
 3863TIP3   OH211465   2.212   3.107   3.825
 3863TIP3    H111466   2.227   3.166   3.902
 3863TIP3    H211467   2.269   3.032   3.846
 3864TIP3   OH211468   2.081   2.513   3.123
 3864TIP3    H111469   2.072   2.593   3.179
 3864TIP3    H211470   2.138   2.550   3.052
 3865TIP3   OH211471   1.496   3.797   2.669
 3865TIP3    H111472   1.465   3.867   2.607
 3865TIP3    H211473   1.479   3.840   2.756
 3866TIP3   OH211474   1.603   2.510   2.903
 3866TIP3    H111475   1.594   2.597   2.947
 3866TIP3    H211476   1.699   2.494   2.918
 3867TIP3   OH211477   2.847   3.005   3.804
 3867TIP3    H111478   2.749   3.000   3.809
 3867TIP3    H211479   2.861   2.967   3.716
 3868TIP3   OH211480   2.501   3.199   3.194
 3868TIP3    H111481   2.425   3.139   3.205
 3868TIP3    H211482   2.573   3.152   3.241
 3869TIP3   OH211483   1.212   3.436   2.664
 3869TIP3    H111484   1.277   3.508   2.672
 3869TIP3    H211485   1.259   3.380   2.598
 3870TIP3   OH211486   1.184   2.721   2.763
 3870TIP3    H111487   1.158   2.812   2.787
 3870TIP3    H211488   1.101   2.672   2.775
 3871TIP3   OH211489   2.469   4.153   3.142
 3871TIP3    H111490   2.427   4.200   3.067
 3871TIP3    H211491   2.564   4.172   3.122
 3872TIP3   OH211492   1.101   3.684   3.065
 3872TIP3    H111493   1.023   3.647   3.107
 3872TIP3    H211494   1.076   3.680   2.971
 3873TIP3   OH211495   1.241   4.183   4.122
 3873TIP3    H111496   1.327   4.183   4.169
 3873TIP3    H211497   1.221   4.088   4.121
 3874TIP3   OH211498   1.722   4.150   4.165
 3874TIP3    H111499   1.817   4.132   4.175
 3874TIP3    H211500   1.700   4.090   4.091
 3875TIP3   OH211501   1.704   3.725   2.292
 3875TIP3    H111502   1.647   3.655   2.332
 3875TIP3    H211503   1.779   3.670   2.263
 3876TIP3   OH211504   2.364   4.053   3.897
 3876TIP3    H111505   2.354   3.984   3.967
 3876TIP3    H211506   2.440   4.105   3.930
 3877TIP3   OH211507   2.144   3.762   2.204
 3877TIP3    H111508   2.203   3.718   2.267
 3877TIP3    H211509   2.199   3.768   2.124
 3878TIP3   OH211510   1.372   3.590   4.322
 3878TIP3    H111511   1.389   3.495   4.329
 3878TIP3    H211512   1.284   3.592   4.279
 3879TIP3   OH211513   1.351   3.244   2.514
 3879TIP3    H111514   1.402   3.215   2.592
 3879TIP3    H211515   1.422   3.245   2.446
 3880TIP3   OH211516   1.980   3.674   4.095
 3880TIP3    H111517   1.939   3.690   4.008
 3880TIP3    H211518   2.011   3.581   4.088
 3881TIP3   OH211519   1.858   3.441   2.321
 3881TIP3    H111520   1.857   3.454   2.417
 3881TIP3    H211521   1.858   3.343   2.317
 3882TIP3   OH211522   2.471   3.681   3.700
 3882TIP3    H111523   2.546   3.727   3.657
 3882TIP3    H211524   2.401   3.748   3.689
 3883TIP3   OH211525   1.489   3.322   4.301
 3883TIP3    H111526   1.564   3.263   4.283
 3883TIP3    H211527   1.514   3.356   4.389
 3884TIP3   OH211528   1.560   3.146   2.740
 3884TIP3    H111529   1.524   3.114   2.825
 3884TIP3    H211530   1.591   3.064   2.697
 3885TIP3   OH211531   1.824   3.209   3.970
 3885TIP3    H111532   1.745   3.267   3.968
 3885TIP3    H211533   1.869   3.234   3.887
 3886TIP3   OH211534   1.651   2.932   2.578
 3886TIP3    H111535   1.628   2.938   2.483
 3886TIP3    H211536   1.749   2.940   2.573
 3887TIP3   OH211537   2.340   3.609   4.099
 3887TIP3    H111538   2.424   3.591   4.055
 3887TIP3    H211539   2.341   3.544   4.172
 3888TIP3   OH211540   1.953   2.999   4.090
 3888TIP3    H111541   1.940   2.918   4.040
 3888TIP3    H211542   1.905   3.065   4.035
 3889TIP3   OH211543   1.969   2.711   3.860
 3889TIP3    H111544   1.995   2.794   3.814
 3889TIP3    H211545   1.873   2.732   3.875
 3890TIP3   OH211546   1.980   3.318   3.772
 3890TIP3    H111547   2.063   3.328   3.723
 3890TIP3    H211548   1.923   3.385   3.730
 3891TIP3   OH211549   2.561   3.285   4.151
 3891TIP3    H111550   2.614   3.206   4.169
 3891TIP3    H211551   2.627   3.348   4.121
 3892TIP3   OH211552   2.603   3.536   3.886
 3892TIP3    H111553   2.544   3.590   3.828
 3892TIP3    H211554   2.690   3.558   3.847
 3893TIP3   OH211555   1.827   3.109   4.322
 3893TIP3    H111556   1.758   3.042   4.335
 3893TIP3    H211557   1.860   3.086   4.233
 3894TIP3   OH211558   2.212   3.051   4.182
 3894TIP3    H111559   2.201   3.042   4.278
 3894TIP3    H211560   2.121   3.029   4.153
 3895TIP3   OH211561   2.444   2.991   4.034
 3895TIP3    H111562   2.372   3.003   4.099
 3895TIP3    H211563   2.520   2.967   4.092
 3896TIP3   OH211564   2.672   2.938   4.186
 3896TIP3    H111565   2.688   2.844   4.208
 3896TIP3    H211566   2.671   2.981   4.274
 3897TIP3   OH211567   1.666   2.890   4.373
 3897TIP3    H111568   1.670   2.798   4.339
 3897TIP3    H211569   1.701   2.877   4.463
 3898TIP3   OH211570   2.179   2.562   4.228
 3898TIP3    H111571   2.249   2.493   4.220
 3898TIP3    H211572   2.133   2.553   4.144
 3899TIP3   OH211573   2.246   2.775   4.386
 3899TIP3    H111574   2.221   2.704   4.323
 3899TIP3    H211575   2.168   2.835   4.381
 3900TIP3   OH211576   1.463   4.000   2.481
 3900TIP3    H111577   1.559   3.997   2.464
 3900TIP3    H211578   1.434   4.048   2.402
 3901TIP3   OH211579   0.937   3.393   2.663
 3901TIP3    H111580   1.030   3.416   2.684
 3901TIP3    H211581   0.944   3.298   2.643
 3902TIP3   OH211582   0.856   3.996   3.108
 3902TIP3    H111583   0.790   3.930   3.076
 3902TIP3    H211584   0.901   3.943   3.178
 3903TIP3   OH211585   0.982   3.863   3.307
 3903TIP3    H111586   0.987   3.774   3.346
 3903TIP3    H211587   1.043   3.913   3.364
 3904TIP3   OH211588   2.721   4.245   3.100
 3904TIP3    H111589   2.750   4.281   3.185
 3904TIP3    H211590   2.781   4.290   3.038
 3905TIP3   OH211591   2.752   4.267   3.381
 3905TIP3    H111592   2.709   4.179   3.376
 3905TIP3    H211593   2.827   4.245   3.438
 3906TIP3   OH211594   2.797   3.942   3.953
 3906TIP3    H111595   2.724   3.951   4.017
 3906TIP3    H211596   2.839   4.031   3.957
 3907TIP3   OH211597   2.612   3.440   2.556
 3907TIP3    H111598   2.691   3.482   2.516
 3907TIP3    H211599   2.658   3.404   2.636
 3908TIP3   OH211600   2.738   3.315   2.773
 3908TIP3    H111601   2.675   3.279   2.839
 3908TIP3    H211602   2.802   3.364   2.828
 3909TIP3   OH211603   2.797   3.712   3.209
 3909TIP3    H111604   2.848   3.653   3.151
 3909TIP3    H211605   2.789   3.792   3.153
 3910TIP3   OH211606   2.627   4.015   3.405
 3910TIP3    H111607   2.557   4.059   3.456
 3910TIP3    H211608   2.576   3.968   3.335
 3911TIP3   OH211609   2.553   3.176   2.927
 3911TIP3    H111610   2.561   3.080   2.925
 3911TIP3    H211611   2.540   3.194   3.023
 3912TIP3   OH211612   2.844   3.604   3.779
 3912TIP3    H111613   2.918   3.539   3.771
 3912TIP3    H211614   2.873   3.676   3.720
 3913TIP3   OH211615   3.031   3.410   3.796
 3913TIP3    H111616   2.957   3.360   3.837
 3913TIP3    H211617   3.104   3.347   3.810
 3914TIP3   OH211618   2.495   2.650   2.371
 3914TIP3    H111619   2.571   2.617   2.422
 3914TIP3    H211620   2.423   2.589   2.394
 3915TIP3   OH211621   2.551   2.891   2.820
 3915TIP3    H111622   2.591   2.803   2.837
 3915TIP3    H211623   2.611   2.925   2.751
 3916TIP3   OH211624   2.715   3.072   3.314
 3916TIP3    H111625   2.802   3.098   3.275
 3916TIP3    H211626   2.728   3.108   3.404
 3917TIP3   OH211627   2.782   3.214   3.547
 3917TIP3    H111628   2.704   3.248   3.595
 3917TIP3    H211629   2.814   3.295   3.502
 3918TIP3   OH211630   1.399   2.942   4.347
 3918TIP3    H111631   1.497   2.935   4.346
 3918TIP3    H211632   1.376   2.857   4.388
 3919TIP3   OH211633   3.230   2.800   4.102
 3919TIP3    H111634   3.291   2.737   4.059
 3919TIP3    H211635   3.205   2.859   4.027
 3920TIP3   OH211636   2.664   2.640   2.868
 3920TIP3    H111637   2.718   2.639   2.951
 3920TIP3    H211638   2.608   2.563   2.890
 3921TIP3   OH211639   1.153   2.907   3.742
 3921TIP3    H111640   1.215   2.873   3.675
 3921TIP3    H211641   1.211   2.964   3.795
 3922TIP3   OH211642   3.106   2.946   3.908
 3922TIP3    H111643   3.021   2.986   3.934
 3922TIP3    H211644   3.075   2.874   3.850
 3923TIP3   OH211645   2.744   2.584   2.489
 3923TIP3    H111646   2.778   2.507   2.438
 3923TIP3    H211647   2.817   2.648   2.480
 3924TIP3   OH211648   1.137   2.456   3.270
 3924TIP3    H111649   1.051   2.410   3.271
 3924TIP3    H211650   1.151   2.471   3.175
 3925TIP3   OH211651   2.306   4.111   2.755
 3925TIP3    H111652   2.359   4.099   2.673
 3925TIP3    H211653   2.357   4.179   2.802
 3926TIP3   OH211654   1.374   2.490   4.071
 3926TIP3    H111655   1.317   2.486   4.149
 3926TIP3    H211656   1.312   2.524   4.004
 3927TIP3   OH211657   1.407   3.915   4.141
 3927TIP3    H111658   1.315   3.888   4.126
 3927TIP3    H211659   1.418   3.899   4.236
 3928TIP3   OH211660   1.584   3.946   3.688
 3928TIP3    H111661   1.537   4.023   3.649
 3928TIP3    H211662   1.671   3.961   3.644
 3929TIP3   OH211663   2.031   4.194   3.826
 3929TIP3    H111664   2.072   4.194   3.915
 3929TIP3    H211665   2.097   4.245   3.775
 3930TIP3   OH211666   2.210   4.344   3.685
 3930TIP3    H111667   2.282   4.294   3.644
 3930TIP3    H211668   2.261   4.402   3.746
 3931TIP3   OH211669   3.004   2.709   3.786
 3931TIP3    H111670   2.914   2.707   3.750
 3931TIP3    H211671   3.032   2.616   3.773
 3932TIP3   OH211672   1.261   4.205   3.712
 3932TIP3    H111673   1.173   4.240   3.689
 3932TIP3    H211674   1.272   4.242   3.801
 3933TIP3   OH211675   1.498   4.183   3.570
 3933TIP3    H111676   1.412   4.197   3.614
 3933TIP3    H211677   1.479   4.217   3.480
 3934TIP3   OH211678   1.924   4.214   3.368
 3934TIP3    H111679   1.856   4.234   3.301
 3934TIP3    H211680   1.937   4.301   3.409
 3935TIP3   OH211681   2.192   4.152   3.418
 3935TIP3    H111682   2.098   4.170   3.400
 3935TIP3    H211683   2.235   4.229   3.377
 3936TIP3   OH211684   2.401   4.345   3.335
 3936TIP3    H111685   2.386   4.430   3.288
 3936TIP3    H211686   2.426   4.286   3.261
 3937TIP3   OH211687   1.173   3.999   3.459
 3937TIP3    H111688   1.202   3.976   3.550
 3937TIP3    H211689   1.245   3.957   3.408
 3938TIP3   OH211690   1.366   3.872   3.316
 3938TIP3    H111691   1.384   3.787   3.362
 3938TIP3    H211692   1.457   3.910   3.310
 3939TIP3   OH211693   1.631   3.966   3.317
 3939TIP3    H111694   1.665   3.876   3.303
 3939TIP3    H211695   1.676   3.988   3.401
 3940TIP3   OH211696   2.216   2.625   3.409
 3940TIP3    H111697   2.187   2.549   3.459
 3940TIP3    H211698   2.287   2.587   3.353
 3941TIP3   OH211699   2.733   2.518   3.324
 3941TIP3    H111700   2.775   2.547   3.240
 3941TIP3    H211701   2.641   2.509   3.294
 3942TIP3   OH211702   2.841   2.617   3.086
 3942TIP3    H111703   2.904   2.558   3.041
 3942TIP3    H211704   2.875   2.706   3.061
 3943TIP3   OH211705   1.462   2.330   3.392
 3943TIP3    H111706   1.370   2.305   3.411
 3943TIP3    H211707   1.509   2.247   3.410
 3944TIP3   OH211708   1.278   2.190   3.077
 3944TIP3    H111709   1.294   2.251   3.003
 3944TIP3    H211710   1.197   2.225   3.115
 3945TIP3   OH211711   1.912   2.357   3.303
 3945TIP3    H111712   1.964   2.408   3.238
 3945TIP3    H211713   1.878   2.425   3.362
 3946TIP3   OH211714   2.438   2.509   3.286
 3946TIP3    H111715   2.465   2.480   3.197
 3946TIP3    H211716   2.425   2.424   3.332
 3947TIP3   OH211717   0.966   3.762   2.834
 3947TIP3    H111718   0.878   3.731   2.806
 3947TIP3    H211719   0.950   3.856   2.845
 3948TIP3   OH211720   1.357   2.379   2.826
 3948TIP3    H111721   1.401   2.310   2.771
 3948TIP3    H211722   1.434   2.422   2.867
 3949TIP3   OH211723   1.878   2.534   2.931
 3949TIP3    H111724   1.941   2.491   2.991
 3949TIP3    H211725   1.897   2.628   2.954
 3950TIP3   OH211726   1.732   3.961   2.431
 3950TIP3    H111727   1.821   3.983   2.395
 3950TIP3    H211728   1.711   3.886   2.371
 3951TIP3   OH211729   2.450   4.077   2.521
 3951TIP3    H111730   2.436   3.981   2.508
 3951TIP3    H211731   2.406   4.112   2.441
 3952TIP3   OH211732   1.666   2.613   4.314
 3952TIP3    H111733   1.630   2.542   4.369
 3952TIP3    H211734   1.760   2.613   4.343
 3953TIP3   OH211735   1.915   2.606   4.432
 3953TIP3    H111736   2.003   2.577   4.403
 3953TIP3    H211737   1.896   2.539   4.501
 3954TIP3   OH211738   1.038   3.800   2.490
 3954TIP3    H111739   1.037   3.813   2.586
 3954TIP3    H211740   1.125   3.757   2.476
 3955TIP3   OH211741   2.740   2.669   4.220
 3955TIP3    H111742   2.762   2.639   4.311
 3955TIP3    H211743   2.828   2.667   4.177
 3956TIP3   OH211744   2.679   4.223   3.710
 3956TIP3    H111745   2.600   4.191   3.663
 3956TIP3    H211746   2.660   4.319   3.714
 3957TIP3   OH211747   3.944   3.593   2.479
 3957TIP3    H111748   3.917   3.685   2.461
 3957TIP3    H211749   3.867   3.545   2.441
 3958TIP3   OH211750   3.947   3.599   2.856
 3958TIP3    H111751   3.973   3.572   2.946
 3958TIP3    H211752   3.905   3.519   2.821
 3959TIP3   OH211753   3.286   3.491   3.200
 3959TIP3    H111754   3.289   3.424   3.272
 3959TIP3    H211755   3.305   3.572   3.250
 3960TIP3   OH211756   4.185   3.898   2.539
 3960TIP3    H111757   4.174   3.828   2.604
 3960TIP3    H211758   4.215   3.972   2.594
 3961TIP3   OH211759   3.214   3.900   2.951
 3961TIP3    H111760   3.206   3.803   2.951
 3961TIP3    H211761   3.311   3.910   2.944
 3962TIP3   OH211762   2.922   3.100   2.727
 3962TIP3    H111763   2.884   3.190   2.736
 3962TIP3    H211764   2.842   3.047   2.739
 3963TIP3   OH211765   2.976   3.394   2.903
 3963TIP3    H111766   3.031   3.318   2.934
 3963TIP3    H211767   3.025   3.425   2.825
 3964TIP3   OH211768   3.834   4.359   2.555
 3964TIP3    H111769   3.882   4.288   2.508
 3964TIP3    H211770   3.829   4.324   2.645
 3965TIP3   OH211771   3.740   3.819   2.910
 3965TIP3    H111772   3.779   3.745   2.861
 3965TIP3    H211773   3.823   3.866   2.933
 3966TIP3   OH211774   4.753   3.141   2.903
 3966TIP3    H111775   4.783   3.223   2.947
 3966TIP3    H211776   4.778   3.159   2.811
 3967TIP3   OH211777   4.138   3.316   2.942
 3967TIP3    H111778   4.192   3.237   2.961
 3967TIP3    H211779   4.121   3.304   2.846
 3968TIP3   OH211780   3.491   2.986   2.909
 3968TIP3    H111781   3.473   3.056   2.842
 3968TIP3    H211782   3.444   2.911   2.867
 3969TIP3   OH211783   4.185   3.073   2.528
 3969TIP3    H111784   4.259   3.058   2.592
 3969TIP3    H211785   4.237   3.108   2.452
 3970TIP3   OH211786   3.122   3.184   3.008
 3970TIP3    H111787   3.198   3.152   3.061
 3970TIP3    H211788   3.135   3.130   2.927
 3971TIP3   OH211789   3.563   3.371   2.810
 3971TIP3    H111790   3.657   3.349   2.822
 3971TIP3    H211791   3.526   3.289   2.772
 3972TIP3   OH211792   4.827   3.347   3.075
 3972TIP3    H111793   4.745   3.396   3.056
 3972TIP3    H211794   4.845   3.376   3.166
 3973TIP3   OH211795   3.492   2.967   3.337
 3973TIP3    H111796   3.426   3.001   3.273
 3973TIP3    H211797   3.442   2.981   3.421
 3974TIP3   OH211798   3.839   3.816   2.347
 3974TIP3    H111799   3.793   3.793   2.265
 3974TIP3    H211800   3.794   3.900   2.370
 3975TIP3   OH211801   3.582   3.728   3.148
 3975TIP3    H111802   3.523   3.801   3.180
 3975TIP3    H211803   3.624   3.772   3.071
 3976TIP3   OH211804   4.397   3.074   2.699
 3976TIP3    H111805   4.392   3.028   2.784
 3976TIP3    H211806   4.453   3.150   2.721
 3977TIP3   OH211807   3.351   3.079   3.126
 3977TIP3    H111808   3.389   3.167   3.133
 3977TIP3    H211809   3.404   3.040   3.052
 3978TIP3   OH211810   3.419   3.934   3.231
 3978TIP3    H111811   3.396   4.021   3.192
 3978TIP3    H211812   3.341   3.922   3.289
 3979TIP3   OH211813   4.257   4.139   2.707
 3979TIP3    H111814   4.167   4.130   2.747
 3979TIP3    H211815   4.249   4.225   2.663
 3980TIP3   OH211816   4.549   3.038   3.069
 3980TIP3    H111817   4.462   3.073   3.041
 3980TIP3    H211818   4.609   3.072   2.999
 3981TIP3   OH211819   3.845   2.684   3.050
 3981TIP3    H111820   3.837   2.590   3.071
 3981TIP3    H211821   3.767   2.721   3.096
 3982TIP3   OH211822   3.961   4.187   2.382
 3982TIP3    H111823   4.011   4.104   2.362
 3982TIP3    H211824   4.021   4.252   2.340
 3983TIP3   OH211825   4.104   3.972   2.286
 3983TIP3    H111826   4.064   3.892   2.248
 3983TIP3    H211827   4.139   3.938   2.371
 3984TIP3   OH211828   4.482   4.054   3.051
 3984TIP3    H111829   4.473   3.976   2.993
 3984TIP3    H211830   4.467   4.128   2.989
 3985TIP3   OH211831   3.776   3.447   2.308
 3985TIP3    H111832   3.695   3.498   2.285
 3985TIP3    H211833   3.821   3.441   2.222
 3986TIP3   OH211834   3.733   3.232   2.030
 3986TIP3    H111835   3.807   3.281   2.071
 3986TIP3    H211836   3.782   3.163   1.981
 3987TIP3   OH211837   4.679   3.688   2.895
 3987TIP3    H111838   4.596   3.741   2.901
 3987TIP3    H211839   4.709   3.713   2.805
 3988TIP3   OH211840   4.121   3.530   2.280
 3988TIP3    H111841   4.068   3.554   2.359
 3988TIP3    H211842   4.206   3.504   2.322
 3989TIP3   OH211843   4.358   3.570   3.191
 3989TIP3    H111844   4.356   3.652   3.243
 3989TIP3    H211845   4.271   3.576   3.146
 3990TIP3   OH211846   3.355   3.526   2.700
 3990TIP3    H111847   3.316   3.471   2.629
 3990TIP3    H211848   3.430   3.472   2.731
 3991TIP3   OH211849   3.484   3.939   2.846
 3991TIP3    H111850   3.464   3.896   2.762
 3991TIP3    H211851   3.574   3.905   2.866
 3992TIP3   OH211852   4.015   4.136   2.827
 3992TIP3    H111853   4.003   4.215   2.882
 3992TIP3    H211854   4.002   4.062   2.890
 3993TIP3   OH211855   3.629   4.057   3.372
 3993TIP3    H111856   3.570   4.119   3.420
 3993TIP3    H211857   3.563   4.003   3.324
 3994TIP3   OH211858   3.963   3.387   2.105
 3994TIP3    H111859   4.022   3.446   2.157
 3994TIP3    H211860   3.989   3.412   2.013
 3995TIP3   OH211861   3.368   3.614   3.461
 3995TIP3    H111862   3.383   3.699   3.508
 3995TIP3    H211863   3.278   3.594   3.493
 3996TIP3   OH211864   3.706   4.066   2.380
 3996TIP3    H111865   3.784   4.121   2.401
 3996TIP3    H211866   3.644   4.130   2.344
 3997TIP3   OH211867   3.423   4.224   3.462
 3997TIP3    H111868   3.387   4.223   3.371
 3997TIP3    H211869   3.343   4.202   3.515
 3998TIP3   OH211870   4.480   2.628   2.154
 3998TIP3    H111871   4.398   2.651   2.203
 3998TIP3    H211872   4.494   2.710   2.102
 3999TIP3   OH211873   3.215   3.379   2.494
 3999TIP3    H111874   3.140   3.440   2.474
 3999TIP3    H211875   3.164   3.300   2.515
 4000TIP3   OH211876   4.279   4.000   1.697
 4000TIP3    H111877   4.291   4.095   1.677
 4000TIP3    H211878   4.371   3.966   1.688
 4001TIP3   OH211879   3.002   3.752   3.408
 4001TIP3    H111880   2.935   3.731   3.340
 4001TIP3    H211881   3.035   3.664   3.435
 4002TIP3   OH211882   2.858   3.941   3.050
 4002TIP3    H111883   2.952   3.942   3.032
 4002TIP3    H211884   2.846   4.026   3.096
 4003TIP3   OH211885   4.718   4.397   3.096
 4003TIP3    H111886   4.720   4.301   3.112
 4003TIP3    H211887   4.637   4.422   3.147
 4004TIP3   OH211888   3.826   4.186   3.230
 4004TIP3    H111889   3.825   4.278   3.264
 4004TIP3    H211890   3.756   4.145   3.284
 4005TIP3   OH211891   3.588   4.315   2.182
 4005TIP3    H111892   3.538   4.296   2.101
 4005TIP3    H211893   3.554   4.403   2.207
 4006TIP3   OH211894   3.031   4.172   2.566
 4006TIP3    H111895   3.074   4.158   2.653
 4006TIP3    H211896   2.977   4.089   2.562
 4007TIP3   OH211897   3.790   4.213   1.825
 4007TIP3    H111898   3.850   4.143   1.792
 4007TIP3    H211899   3.821   4.224   1.917
 4008TIP3   OH211900   3.838   4.261   2.093
 4008TIP3    H111901   3.750   4.272   2.135
 4008TIP3    H211902   3.889   4.220   2.165
 4009TIP3   OH211903   4.611   3.529   3.372
 4009TIP3    H111904   4.530   3.542   3.320
 4009TIP3    H211905   4.626   3.433   3.362
 4010TIP3   OH211906   3.207   3.936   3.400
 4010TIP3    H111907   3.256   3.920   3.482
 4010TIP3    H211908   3.132   3.873   3.408
 4011TIP3   OH211909   3.605   2.762   3.182
 4011TIP3    H111910   3.517   2.729   3.153
 4011TIP3    H211911   3.577   2.841   3.232
 4012TIP3   OH211912   4.141   2.871   3.376
 4012TIP3    H111913   4.212   2.848   3.440
 4012TIP3    H211914   4.059   2.853   3.426
 4013TIP3   OH211915   4.378   3.304   3.289
 4013TIP3    H111916   4.332   3.297   3.375
 4013TIP3    H211917   4.354   3.394   3.259
 4014TIP3   OH211918   4.038   3.440   1.850
 4014TIP3    H111919   4.006   3.409   1.763
 4014TIP3    H211920   4.123   3.481   1.825
 4015TIP3   OH211921   3.763   2.813   2.164
 4015TIP3    H111922   3.712   2.793   2.244
 4015TIP3    H211923   3.717   2.761   2.097
 4016TIP3   OH211924   3.423   3.157   2.710
 4016TIP3    H111925   3.329   3.135   2.726
 4016TIP3    H211926   3.435   3.118   2.621
 4017TIP3   OH211927   3.911   3.246   2.440
 4017TIP3    H111928   3.860   3.318   2.398
 4017TIP3    H211929   3.968   3.217   2.366
 4018TIP3   OH211930   4.066   3.276   2.679
 4018TIP3    H111931   4.011   3.307   2.604
 4018TIP3    H211932   4.101   3.194   2.637
 4019TIP3   OH211933   3.347   3.300   3.402
 4019TIP3    H111934   3.384   3.362   3.466
 4019TIP3    H211935   3.343   3.218   3.454
 4020TIP3   OH211936   3.394   2.769   2.132
 4020TIP3    H111937   3.385   2.786   2.226
 4020TIP3    H211938   3.341   2.838   2.091
 4021TIP3   OH211939   2.953   2.840   2.976
 4021TIP3    H111940   3.027   2.862   3.035
 4021TIP3    H211941   2.994   2.791   2.903
 4022TIP3   OH211942   2.928   2.804   2.511
 4022TIP3    H111943   2.964   2.841   2.428
 4022TIP3    H211944   2.895   2.885   2.552
 4023TIP3   OH211945   4.083   3.524   3.103
 4023TIP3    H111946   4.111   3.448   3.047
 4023TIP3    H211947   4.058   3.477   3.185
 4024TIP3   OH211948   3.748   2.980   2.772
 4024TIP3    H111949   3.669   2.982   2.829
 4024TIP3    H211950   3.821   2.980   2.836
 4025TIP3   OH211951   3.184   3.040   2.785
 4025TIP3    H111952   3.090   3.046   2.754
 4025TIP3    H211953   3.209   2.948   2.763
 4026TIP3   OH211954   3.454   3.031   2.468
 4026TIP3    H111955   3.548   3.052   2.450
 4026TIP3    H211956   3.408   3.060   2.385
 4027TIP3   OH211957   4.246   3.060   2.974
 4027TIP3    H111958   4.213   3.070   3.066
 4027TIP3    H211959   4.181   2.998   2.938
 4028TIP3   OH211960   3.292   3.061   2.245
 4028TIP3    H111961   3.225   3.021   2.187
 4028TIP3    H211962   3.348   3.105   2.178
 4029TIP3   OH211963   4.409   4.749   3.196
 4029TIP3    H111964   4.409   4.773   3.102
 4029TIP3    H211965   4.491   4.794   3.226
 4030TIP3   OH211966   3.369   3.856   3.617
 4030TIP3    H111967   3.450   3.886   3.663
 4030TIP3    H211968   3.305   3.858   3.691
 4031TIP3   OH211969   3.840   3.300   2.871
 4031TIP3    H111970   3.902   3.274   2.802
 4031TIP3    H211971   3.896   3.294   2.950
 4032TIP3   OH211972   3.355   2.805   2.754
 4032TIP3    H111973   3.325   2.722   2.797
 4032TIP3    H211974   3.408   2.773   2.680
 4033TIP3   OH211975   3.547   3.600   2.258
 4033TIP3    H111976   3.474   3.536   2.246
 4033TIP3    H211977   3.528   3.633   2.349
 4034TIP3   OH211978   4.448   3.836   2.887
 4034TIP3    H111979   4.472   3.885   2.806
 4034TIP3    H211980   4.362   3.795   2.862
 4035TIP3   OH211981   4.007   2.916   2.116
 4035TIP3    H111982   3.912   2.894   2.129
 4035TIP3    H211983   4.013   3.009   2.143
 4036TIP3   OH211984   3.948   3.914   3.252
 4036TIP3    H111985   3.960   3.873   3.339
 4036TIP3    H211986   3.909   4.000   3.273
 4037TIP3   OH211987   4.074   3.161   2.226
 4037TIP3    H111988   4.171   3.165   2.238
 4037TIP3    H211989   4.056   3.239   2.170
 4038TIP3   OH211990   3.236   3.622   2.937
 4038TIP3    H111991   3.275   3.593   2.851
 4038TIP3    H211992   3.268   3.555   2.998
 4039TIP3   OH211993   3.689   3.749   2.075
 4039TIP3    H111994   3.643   3.835   2.084
 4039TIP3    H211995   3.636   3.693   2.137
 4040TIP3   OH211996   3.116   3.540   3.548
 4040TIP3    H111997   3.138   3.527   3.643
 4040TIP3    H211998   3.047   3.473   3.536
 4041TIP3   OH211999   4.105   4.179   3.148
 4041TIP3    H112000   4.009   4.173   3.161
 4041TIP3    H212001   4.132   4.231   3.226
 4042TIP3   OH212002   4.515   3.249   2.060
 4042TIP3    H112003   4.452   3.204   1.999
 4042TIP3    H212004   4.514   3.337   2.017
 4043TIP3   OH212005   4.734   4.104   3.139
 4043TIP3    H112006   4.636   4.101   3.132
 4043TIP3    H212007   4.759   4.076   3.049
 4044TIP3   OH212008   4.211   4.069   1.964
 4044TIP3    H112009   4.192   4.001   2.031
 4044TIP3    H212010   4.228   4.017   1.884
 4045TIP3   OH212011   4.213   3.699   2.806
 4045TIP3    H112012   4.119   3.674   2.819
 4045TIP3    H212013   4.246   3.619   2.761
 4046TIP3   OH212014   3.338   3.924   2.557
 4046TIP3    H112015   3.335   4.006   2.505
 4046TIP3    H212016   3.244   3.904   2.566
 4047TIP3   OH212017   2.886   3.231   2.258
 4047TIP3    H112018   2.969   3.281   2.263
 4047TIP3    H212019   2.839   3.292   2.318
 4048TIP3   OH212020   3.478   3.691   2.504
 4048TIP3    H112021   3.444   3.781   2.521
 4048TIP3    H212022   3.441   3.642   2.579
 4049TIP3   OH212023   3.608   4.269   3.028
 4049TIP3    H112024   3.649   4.341   2.977
 4049TIP3    H212025   3.684   4.234   3.077
 4050TIP3   OH212026   3.259   4.164   2.409
 4050TIP3    H112027   3.174   4.172   2.457
 4050TIP3    H212028   3.290   4.257   2.412
 4051TIP3   OH212029   3.998   3.904   2.985
 4051TIP3    H112030   3.988   3.902   3.083
 4051TIP3    H212031   4.078   3.851   2.973
 4052TIP3   OH212032   3.969   3.801   1.869
 4052TIP3    H112033   4.024   3.775   1.946
 4052TIP3    H212034   3.883   3.768   1.898
 4053TIP3   OH212035   4.244   4.438   3.037
 4053TIP3    H112036   4.166   4.380   3.029
 4053TIP3    H212037   4.229   4.502   2.964
 4054TIP3   OH212038   4.305   4.287   1.661
 4054TIP3    H112039   4.362   4.366   1.651
 4054TIP3    H212040   4.228   4.328   1.707
 4055TIP3   OH212041   3.333   3.044   3.555
 4055TIP3    H112042   3.238   3.052   3.571
 4055TIP3    H212043   3.362   2.988   3.629
 4056TIP3   OH212044   4.130   3.731   2.084
 4056TIP3    H112045   4.119   3.664   2.155
 4056TIP3    H212046   4.228   3.728   2.073
 4057TIP3   OH212047   3.047   4.133   3.187
 4057TIP3    H112048   3.099   4.057   3.216
 4057TIP3    H212049   3.076   4.201   3.249
 4058TIP3   OH212050   3.337   3.776   1.866
 4058TIP3    H112051   3.353   3.684   1.840
 4058TIP3    H212052   3.319   3.766   1.961
 4059TIP3   OH212053   3.285   3.780   2.137
 4059TIP3    H112054   3.348   3.751   2.205
 4059TIP3    H212055   3.288   3.878   2.147
 4060TIP3   OH212056   4.165   3.103   3.228
 4060TIP3    H112057   4.234   3.155   3.272
 4060TIP3    H212058   4.155   3.027   3.289
 4061TIP3   OH212059   4.045   2.863   2.399
 4061TIP3    H112060   4.031   2.885   2.305
 4061TIP3    H212061   4.085   2.946   2.433
 4062TIP3   OH212062   3.549   3.980   2.088
 4062TIP3    H112063   3.462   4.005   2.126
 4062TIP3    H212064   3.563   4.054   2.028
 4063TIP3   OH212065   3.734   3.040   2.499
 4063TIP3    H112066   3.800   3.111   2.480
 4063TIP3    H212067   3.742   3.034   2.597
 4064TIP3   OH212068   4.012   3.385   3.325
 4064TIP3    H112069   3.989   3.432   3.407
 4064TIP3    H212070   4.058   3.307   3.359
 4065TIP3   OH212071   3.885   2.767   2.602
 4065TIP3    H112072   3.881   2.843   2.664
 4065TIP3    H212073   3.945   2.805   2.533
 4066TIP3   OH212074   3.292   4.054   2.156
 4066TIP3    H112075   3.260   4.124   2.094
 4066TIP3    H212076   3.275   4.096   2.243
 4067TIP3   OH212077   3.394   2.761   2.413
 4067TIP3    H112078   3.385   2.855   2.438
 4067TIP3    H212079   3.492   2.757   2.408
 4068TIP3   OH212080   4.646   3.262   3.292
 4068TIP3    H112081   4.548   3.259   3.298
 4068TIP3    H212082   4.659   3.224   3.204
 4069TIP3   OH212083   4.297   3.456   2.680
 4069TIP3    H112084   4.222   3.394   2.691
 4069TIP3    H212085   4.370   3.410   2.727
 4070TIP3   OH212086   2.998   3.712   2.121
 4070TIP3    H112087   3.071   3.764   2.157
 4070TIP3    H212088   3.048   3.640   2.079
 4071TIP3   OH212089   2.938   2.962   2.293
 4071TIP3    H112090   2.943   3.059   2.282
 4071TIP3    H212091   2.891   2.936   2.213
 4072TIP3   OH212092   4.265   4.411   2.629
 4072TIP3    H112093   4.223   4.457   2.553
 4072TIP3    H212094   4.360   4.430   2.609
 4073TIP3   OH212095   3.342   2.680   3.156
 4073TIP3    H112096   3.310   2.646   3.069
 4073TIP3    H212097   3.332   2.601   3.214
 4074TIP3   OH212098   2.899   3.935   2.556
 4074TIP3    H112099   2.809   3.924   2.589
 4074TIP3    H212100   2.885   3.922   2.460
 4075TIP3   OH212101   3.037   4.439   3.608
 4075TIP3    H112102   3.123   4.439   3.655
 4075TIP3    H212103   3.016   4.344   3.607
 4076TIP3   OH212104   3.520   4.406   3.652
 4076TIP3    H112105   3.614   4.385   3.660
 4076TIP3    H212106   3.494   4.348   3.578
 4077TIP3   OH212107   3.501   3.980   1.781
 4077TIP3    H112108   3.442   3.911   1.820
 4077TIP3    H212109   3.575   3.925   1.753
 4078TIP3   OH212110   4.160   4.313   3.386
 4078TIP3    H112111   4.144   4.242   3.453
 4078TIP3    H212112   4.242   4.353   3.419
 4079TIP3   OH212113   3.941   4.020   1.693
 4079TIP3    H112114   3.973   3.954   1.758
 4079TIP3    H212115   4.008   4.014   1.623
 4080TIP3   OH212116   3.168   3.847   3.808
 4080TIP3    H112117   3.184   3.751   3.815
 4080TIP3    H212118   3.080   3.849   3.766
 4081TIP3   OH212119   3.144   3.492   2.000
 4081TIP3    H112120   3.199   3.471   2.078
 4081TIP3    H212121   3.214   3.498   1.931
 4082TIP3   OH212122   3.780   3.927   3.581
 4082TIP3    H112123   3.737   3.941   3.495
 4082TIP3    H212124   3.816   3.837   3.571
 4083TIP3   OH212125   3.652   3.696   1.807
 4083TIP3    H112126   3.655   3.709   1.904
 4083TIP3    H212127   3.654   3.598   1.802
 4084TIP3   OH212128   4.269   3.936   3.188
 4084TIP3    H112129   4.342   3.983   3.143
 4084TIP3    H212130   4.196   3.999   3.176
 4085TIP3   OH212131   3.289   3.576   3.788
 4085TIP3    H112132   3.367   3.520   3.774
 4085TIP3    H212133   3.310   3.612   3.877
 4086TIP3   OH212134   3.352   3.405   2.223
 4086TIP3    H112135   3.319   3.369   2.308
 4086TIP3    H212136   3.388   3.326   2.178
 4087TIP3   OH212137   3.621   3.459   3.414
 4087TIP3    H112138   3.554   3.502   3.467
 4087TIP3    H212139   3.703   3.498   3.452
 4088TIP3   OH212140   3.453   3.192   2.069
 4088TIP3    H112141   3.428   3.191   1.975
 4088TIP3    H212142   3.551   3.198   2.062
 4089TIP3   OH212143   4.148   3.876   3.584
 4089TIP3    H112144   4.225   3.838   3.540
 4089TIP3    H212145   4.116   3.800   3.636
 4090TIP3   OH212146   4.272   3.528   1.727
 4090TIP3    H112147   4.257   3.478   1.645
 4090TIP3    H212148   4.241   3.617   1.698
 4091TIP3   OH212149   3.734   3.255   3.583
 4091TIP3    H112150   3.748   3.172   3.533
 4091TIP3    H212151   3.710   3.317   3.513
 4092TIP3   OH212152   3.748   3.041   3.389
 4092TIP3    H112153   3.781   3.065   3.301
 4092TIP3    H212154   3.655   3.018   3.371
 4093TIP3   OH212155   3.779   3.548   3.179
 4093TIP3    H112156   3.867   3.554   3.220
 4093TIP3    H212157   3.752   3.642   3.181
 4094TIP3   OH212158   4.379   3.551   3.663
 4094TIP3    H112159   4.409   3.460   3.650
 4094TIP3    H212160   4.437   3.601   3.605
 4095TIP3   OH212161   4.400   3.795   3.378
 4095TIP3    H112162   4.341   3.847   3.318
 4095TIP3    H212163   4.487   3.815   3.337
 4096TIP3   OH212164   3.613   3.371   3.806
 4096TIP3    H112165   3.550   3.299   3.823
 4096TIP3    H212166   3.657   3.339   3.724
 4097TIP3   OH212167   3.879   2.803   3.451
 4097TIP3    H112168   3.830   2.886   3.436
 4097TIP3    H212169   3.808   2.735   3.441
 4098TIP3   OH212170   4.015   3.291   3.654
 4098TIP3    H112171   4.020   3.311   3.749
 4098TIP3    H212172   3.919   3.289   3.641
 4099TIP3   OH212173   4.247   3.253   3.516
 4099TIP3    H112174   4.168   3.266   3.574
 4099TIP3    H212175   4.315   3.225   3.580
 4100TIP3   OH212176   4.477   3.199   3.676
 4100TIP3    H112177   4.487   3.103   3.695
 4100TIP3    H212178   4.471   3.238   3.766
 4101TIP3   OH212179   3.462   3.146   3.861
 4101TIP3    H112180   3.473   3.055   3.827
 4101TIP3    H212181   3.498   3.135   3.952
 4102TIP3   OH212182   3.974   2.812   3.709
 4102TIP3    H112183   4.043   2.743   3.705
 4102TIP3    H212184   3.936   2.804   3.619
 4103TIP3   OH212185   4.038   3.027   3.871
 4103TIP3    H112186   4.016   2.958   3.804
 4103TIP3    H212187   3.963   3.090   3.860
 4104TIP3   OH212188   3.260   4.259   1.969
 4104TIP3    H112189   3.356   4.254   1.950
 4104TIP3    H212190   3.230   4.306   1.889
 4105TIP3   OH212191   2.726   3.647   2.148
 4105TIP3    H112192   2.818   3.673   2.173
 4105TIP3    H212193   2.738   3.551   2.136
 4106TIP3   OH212194   2.654   4.252   2.594
 4106TIP3    H112195   2.587   4.187   2.563
 4106TIP3    H212196   2.698   4.199   2.665
 4107TIP3   OH212197   2.779   4.117   2.793
 4107TIP3    H112198   2.783   4.031   2.837
 4107TIP3    H212199   2.839   4.170   2.850
 4108TIP3   OH212200   4.516   4.506   2.585
 4108TIP3    H112201   4.544   4.537   2.673
 4108TIP3    H212202   4.582   4.548   2.527
 4109TIP3   OH212203   4.548   4.523   2.868
 4109TIP3    H112204   4.506   4.434   2.864
 4109TIP3    H212205   4.624   4.503   2.924
 4110TIP3   OH212206   4.606   4.194   3.428
 4110TIP3    H112207   4.522   4.208   3.472
 4110TIP3    H212208   4.647   4.283   3.432
 4111TIP3   OH212209   4.409   3.715   2.061
 4111TIP3    H112210   4.479   3.776   2.032
 4111TIP3    H212211   4.452   3.674   2.140
 4112TIP3   OH212212   4.536   3.582   2.263
 4112TIP3    H112213   4.472   3.538   2.324
 4112TIP3    H212214   4.603   3.618   2.325
 4113TIP3   OH212215   4.590   3.971   2.695
 4113TIP3    H112216   4.645   3.907   2.645
 4113TIP3    H212217   4.583   4.045   2.632
 4114TIP3   OH212218   4.424   4.272   2.890
 4114TIP3    H112219   4.352   4.313   2.943
 4114TIP3    H212220   4.373   4.223   2.822
 4115TIP3   OH212221   4.475   3.488   1.912
 4115TIP3    H112222   4.404   3.490   1.844
 4115TIP3    H212223   4.448   3.565   1.967
 4116TIP3   OH212224   4.341   3.165   1.870
 4116TIP3    H112225   4.311   3.199   1.785
 4116TIP3    H212226   4.321   3.069   1.860
 4117TIP3   OH212227   4.351   3.436   2.410
 4117TIP3    H112228   4.361   3.340   2.404
 4117TIP3    H212229   4.339   3.450   2.507
 4118TIP3   OH212230   2.992   3.502   3.159
 4118TIP3    H112231   2.976   3.476   3.066
 4118TIP3    H212232   3.089   3.511   3.159
 4119TIP3   OH212233   4.641   3.860   3.265
 4119TIP3    H112234   4.714   3.795   3.257
 4119TIP3    H212235   4.670   3.932   3.206
 4120TIP3   OH212236   4.826   3.667   3.284
 4120TIP3    H112237   4.752   3.616   3.325
 4120TIP3    H212238   4.900   3.604   3.299
 4121TIP3   OH212239   4.297   2.899   1.850
 4121TIP3    H112240   4.368   2.863   1.907
 4121TIP3    H212241   4.221   2.841   1.870
 4122TIP3   OH212242   4.348   3.152   2.306
 4122TIP3    H112243   4.389   3.064   2.322
 4122TIP3    H212244   4.406   3.185   2.235
 4123TIP3   OH212245   4.509   3.328   2.800
 4123TIP3    H112246   4.596   3.353   2.760
 4123TIP3    H212247   4.524   3.365   2.890
 4124TIP3   OH212248   4.577   3.470   3.033
 4124TIP3    H112249   4.500   3.505   3.082
 4124TIP3    H212250   4.611   3.551   2.988
 4125TIP3   OH212251   3.195   3.196   3.827
 4125TIP3    H112252   3.293   3.191   3.833
 4125TIP3    H212253   3.171   3.112   3.872
 4126TIP3   OH212254   5.031   3.061   3.590
 4126TIP3    H112255   5.089   2.995   3.546
 4126TIP3    H212256   5.003   3.116   3.513
 4127TIP3   OH212257   4.456   2.903   2.345
 4127TIP3    H112258   4.507   2.886   2.427
 4127TIP3    H212259   4.398   2.824   2.343
 4128TIP3   OH212260   3.154   2.884   3.160
 4128TIP3    H112261   3.216   2.809   3.171
 4128TIP3    H212262   3.215   2.959   3.160
 4129TIP3   OH212263   2.962   3.162   3.237
 4129TIP3    H112264   3.007   3.160   3.150
 4129TIP3    H212265   2.985   3.250   3.268
 4130TIP3   OH212266   4.902   3.201   3.396
 4130TIP3    H112267   4.816   3.241   3.419
 4130TIP3    H212268   4.872   3.130   3.336
 4131TIP3   OH212269   4.542   2.836   1.978
 4131TIP3    H112270   4.580   2.765   1.922
 4131TIP3    H212271   4.607   2.908   1.968
 4132TIP3   OH212272   2.945   2.664   2.742
 4132TIP3    H112273   2.852   2.656   2.769
 4132TIP3    H212274   2.938   2.717   2.660
 4133TIP3   OH212275   4.102   4.369   2.240
 4133TIP3    H112276   4.158   4.356   2.161
 4133TIP3    H212277   4.153   4.434   2.291
 4134TIP3   OH212278   3.162   2.741   3.549
 4134TIP3    H112279   3.114   2.741   3.634
 4134TIP3    H212280   3.095   2.783   3.491
 4135TIP3   OH212281   3.203   4.172   3.629
 4135TIP3    H112282   3.111   4.145   3.612
 4135TIP3    H212283   3.213   4.155   3.723
 4136TIP3   OH212284   3.380   4.205   3.176
 4136TIP3    H112285   3.333   4.281   3.136
 4136TIP3    H212286   3.467   4.219   3.132
 4137TIP3   OH212287   3.827   4.451   3.314
 4137TIP3    H112288   3.869   4.452   3.403
 4137TIP3    H212289   3.893   4.501   3.262
 4138TIP3   OH212290   4.006   4.601   3.171
 4138TIP3    H112291   4.077   4.550   3.129
 4138TIP3    H212292   4.057   4.659   3.231
 4139TIP3   OH212293   4.800   2.964   3.272
 4139TIP3    H112294   4.709   2.959   3.239
 4139TIP3    H212295   4.831   2.871   3.261
 4140TIP3   OH212296   3.058   4.463   3.198
 4140TIP3    H112297   2.969   4.497   3.175
 4140TIP3    H212298   3.067   4.497   3.288
 4141TIP3   OH212299   3.295   4.441   3.057
 4141TIP3    H112300   3.208   4.454   3.102
 4141TIP3    H212301   3.274   4.474   2.967
 4142TIP3   OH212302   3.721   4.471   2.854
 4142TIP3    H112303   3.651   4.492   2.789
 4142TIP3    H212304   3.733   4.558   2.897
 4143TIP3   OH212305   3.989   4.410   2.905
 4143TIP3    H112306   3.895   4.427   2.885
 4143TIP3    H212307   4.032   4.487   2.864
 4144TIP3   OH212308   4.196   4.602   2.822
 4144TIP3    H112309   4.183   4.686   2.774
 4144TIP3    H212310   4.223   4.541   2.749
 4145TIP3   OH212311   2.970   4.257   2.946
 4145TIP3    H112312   2.997   4.231   3.037
 4145TIP3    H212313   3.042   4.213   2.894
 4146TIP3   OH212314   3.163   4.129   2.803
 4146TIP3    H112315   3.179   4.044   2.849
 4146TIP3    H212316   3.254   4.165   2.797
 4147TIP3   OH212317   3.430   4.224   2.803
 4147TIP3    H112318   3.461   4.132   2.790
 4147TIP3    H212319   3.473   4.244   2.888
 4148TIP3   OH212320   3.998   2.878   2.885
 4148TIP3    H112321   3.960   2.806   2.940
 4148TIP3    H212322   4.077   2.835   2.846
 4149TIP3   OH212323   4.527   2.757   2.796
 4149TIP3    H112324   4.566   2.809   2.722
 4149TIP3    H212325   4.433   2.783   2.791
 4150TIP3   OH212326   4.623   2.860   2.561
 4150TIP3    H112327   4.696   2.808   2.521
 4150TIP3    H212328   4.657   2.951   2.546
 4151TIP3   OH212329   3.256   2.587   2.906
 4151TIP3    H112330   3.163   2.554   2.911
 4151TIP3    H212331   3.304   2.501   2.901
 4152TIP3   OH212332   3.046   2.460   2.551
 4152TIP3    H112333   3.070   2.520   2.479
 4152TIP3    H212334   3.014   2.521   2.620
 4153TIP3   OH212335   3.684   2.629   2.763
 4153TIP3    H112336   3.754   2.681   2.720
 4153TIP3    H212337   3.704   2.644   2.856
 4154TIP3   OH212338   4.237   2.768   2.775
 4154TIP3    H112339   4.248   2.733   2.686
 4154TIP3    H212340   4.227   2.685   2.828
 4155TIP3   OH212341   4.275   2.688   2.334
 4155TIP3    H112342   4.188   2.731   2.340
 4155TIP3    H212343   4.258   2.604   2.382
 4156TIP3   OH212344   2.758   4.020   2.326
 4156TIP3    H112345   2.672   3.989   2.295
 4156TIP3    H212346   2.743   4.116   2.331
 4157TIP3   OH212347   3.157   2.617   2.321
 4157TIP3    H112348   3.204   2.559   2.258
 4157TIP3    H212349   3.231   2.672   2.355
 4158TIP3   OH212350   3.666   2.783   2.432
 4158TIP3    H112351   3.742   2.752   2.484
 4158TIP3    H212352   3.681   2.880   2.442
 4159TIP3   OH212353   3.528   4.218   1.916
 4159TIP3    H112354   3.617   4.239   1.882
 4159TIP3    H212355   3.507   4.142   1.857
 4160TIP3   OH212356   4.250   4.334   2.006
 4160TIP3    H112357   4.238   4.237   1.997
 4160TIP3    H212358   4.198   4.366   1.929
 4161TIP3   OH212359   3.462   2.866   3.794
 4161TIP3    H112360   3.427   2.798   3.855
 4161TIP3    H212361   3.556   2.867   3.823
 4162TIP3   OH212362   3.709   2.864   3.916
 4162TIP3    H112363   3.797   2.845   3.880
 4162TIP3    H212364   3.699   2.794   3.983
 4163TIP3   OH212365   2.833   4.056   1.977
 4163TIP3    H112366   2.830   4.070   2.072
 4163TIP3    H212367   2.919   4.011   1.965
 4164TIP3   OH212368   4.534   2.925   3.706
 4164TIP3    H112369   4.554   2.895   3.797
 4164TIP3    H212370   4.623   2.922   3.664
 4165TIP3   OH212371   4.465   4.480   3.204
 4165TIP3    H112372   4.390   4.452   3.147
 4165TIP3    H212373   4.456   4.578   3.199
 4166TIP3   OH212374   5.740   3.852   1.966
 4166TIP3    H112375   5.711   3.943   1.945
 4166TIP3    H212376   5.667   3.801   1.926
 4167TIP3   OH212377   5.740   3.853   2.345
 4167TIP3    H112378   5.769   3.820   2.431
 4167TIP3    H212379   5.699   3.775   2.305
 4168TIP3   OH212380   5.038   3.748   2.712
 4168TIP3    H112381   5.071   3.680   2.774
 4168TIP3    H212382   5.118   3.803   2.701
 4169TIP3   OH212383   5.984   4.153   2.026
 4169TIP3    H112384   5.967   4.082   2.089
 4169TIP3    H212385   6.011   4.227   2.083
 4170TIP3   OH212386   5.009   4.156   2.435
 4170TIP3    H112387   5.001   4.058   2.438
 4170TIP3    H212388   5.106   4.165   2.430
 4171TIP3   OH212389   4.716   3.359   2.222
 4171TIP3    H112390   4.668   3.443   2.234
 4171TIP3    H212391   4.646   3.305   2.182
 4172TIP3   OH212392   4.776   3.646   2.390
 4172TIP3    H112393   4.825   3.570   2.428
 4172TIP3    H212394   4.836   3.675   2.320
 4173TIP3   OH212395   5.632   4.616   2.043
 4173TIP3    H112396   5.677   4.545   1.993
 4173TIP3    H212397   5.625   4.577   2.131
 4174TIP3   OH212398   5.538   4.077   2.394
 4174TIP3    H112399   5.574   4.001   2.346
 4174TIP3    H212400   5.623   4.121   2.417
 4175TIP3   OH212401   6.551   3.397   2.391
 4175TIP3    H112402   6.579   3.479   2.436
 4175TIP3    H212403   6.572   3.416   2.299
 4176TIP3   OH212404   5.950   3.579   2.427
 4176TIP3    H112405   5.993   3.494   2.446
 4176TIP3    H212406   5.920   3.565   2.335
 4177TIP3   OH212407   5.287   3.238   2.392
 4177TIP3    H112408   5.268   3.311   2.329
 4177TIP3    H212409   5.241   3.164   2.347
 4178TIP3   OH212410   5.982   3.330   2.015
 4178TIP3    H112411   6.056   3.314   2.078
 4178TIP3    H212412   6.032   3.365   1.939
 4179TIP3   OH212413   4.922   3.440   2.498
 4179TIP3    H112414   5.005   3.421   2.545
 4179TIP3    H212415   4.934   3.385   2.418
 4180TIP3   OH212416   5.363   3.638   2.293
 4180TIP3    H112417   5.457   3.613   2.303
 4180TIP3    H212418   5.324   3.555   2.258
 4181TIP3   OH212419   6.623   3.603   2.564
 4181TIP3    H112420   6.540   3.652   2.548
 4181TIP3    H212421   6.652   3.642   2.648
 4182TIP3   OH212422   5.285   3.222   2.825
 4182TIP3    H112423   5.225   3.258   2.758
 4182TIP3    H212424   5.233   3.240   2.906
 4183TIP3   OH212425   5.634   4.073   1.835
 4183TIP3    H112426   5.591   4.047   1.752
 4183TIP3    H212427   5.587   4.156   1.856
 4184TIP3   OH212428   5.392   3.996   2.622
 4184TIP3    H112429   5.329   4.062   2.659
 4184TIP3    H212430   5.434   4.047   2.549
 4185TIP3   OH212431   6.194   3.330   2.185
 4185TIP3    H112432   6.186   3.281   2.267
 4185TIP3    H212433   6.248   3.407   2.212
 4186TIP3   OH212434   5.155   3.336   2.610
 4186TIP3    H112435   5.218   3.409   2.633
 4186TIP3    H212436   5.204   3.296   2.535
 4187TIP3   OH212437   5.219   4.190   2.718
 4187TIP3    H112438   5.193   4.276   2.679
 4187TIP3    H212439   5.140   4.174   2.775
 4188TIP3   OH212440   4.613   3.880   1.955
 4188TIP3    H112441   4.578   3.907   1.868
 4188TIP3    H212442   4.647   3.965   1.991
 4189TIP3   OH212443   6.056   4.397   2.197
 4189TIP3    H112444   5.965   4.387   2.236
 4189TIP3    H212445   6.045   4.482   2.150
 4190TIP3   OH212446   6.344   3.296   2.557
 4190TIP3    H112447   6.256   3.326   2.526
 4190TIP3    H212448   6.403   3.329   2.486
 4191TIP3   OH212449   5.643   2.941   2.539
 4191TIP3    H112450   5.629   2.846   2.555
 4191TIP3    H212451   5.565   2.978   2.586
 4192TIP3   OH212452   5.756   4.444   1.870
 4192TIP3    H112453   5.805   4.360   1.849
 4192TIP3    H212454   5.817   4.508   1.828
 4193TIP3   OH212455   5.897   4.229   1.774
 4193TIP3    H112456   5.864   4.150   1.731
 4193TIP3    H212457   5.933   4.192   1.858
 4194TIP3   OH212458   6.280   4.310   2.537
 4194TIP3    H112459   6.268   4.232   2.479
 4194TIP3    H212460   6.262   4.384   2.475
 4195TIP3   OH212461   5.574   3.707   1.795
 4195TIP3    H112462   5.490   3.751   1.771
 4195TIP3    H212463   5.613   3.692   1.707
 4196TIP3   OH212464   5.545   3.489   1.526
 4196TIP3    H112465   5.621   3.540   1.558
 4196TIP3    H212466   5.588   3.420   1.474
 4197TIP3   OH212467   6.478   3.950   2.384
 4197TIP3    H112468   6.393   3.999   2.389
 4197TIP3    H212469   6.504   3.970   2.291
 4198TIP3   OH212470   5.920   3.789   1.768
 4198TIP3    H112471   5.864   3.812   1.846
 4198TIP3    H212472   6.002   3.761   1.812
 4199TIP3   OH212473   6.154   3.825   2.677
 4199TIP3    H112474   6.151   3.909   2.727
 4199TIP3    H212475   6.067   3.829   2.632
 4200TIP3   OH212476   5.150   3.785   2.185
 4200TIP3    H112477   5.107   3.727   2.118
 4200TIP3    H212478   5.227   3.731   2.212
 4201TIP3   OH212479   5.280   4.195   2.332
 4201TIP3    H112480   5.259   4.153   2.248
 4201TIP3    H212481   5.370   4.161   2.350
 4202TIP3   OH212482   5.287   3.755   2.538
 4202TIP3    H112483   5.319   3.732   2.449
 4202TIP3    H212484   5.331   3.840   2.557
 4203TIP3   OH212485   5.813   4.392   2.315
 4203TIP3    H112486   5.799   4.471   2.370
 4203TIP3    H212487   5.798   4.318   2.377
 4204TIP3   OH212488   5.425   4.311   2.861
 4204TIP3    H112489   5.365   4.374   2.908
 4204TIP3    H212490   5.359   4.258   2.813
 4205TIP3   OH212491   5.768   3.641   1.593
 4205TIP3    H112492   5.822   3.705   1.645
 4205TIP3    H212493   5.790   3.668   1.501
 4206TIP3   OH212494   5.180   3.868   2.963
 4206TIP3    H112495   5.184   3.955   3.007
 4206TIP3    H212496   5.084   3.849   2.971
 4207TIP3   OH212497   5.500   4.325   1.872
 4207TIP3    H112498   5.581   4.378   1.886
 4207TIP3    H212499   5.441   4.387   1.827
 4208TIP3   OH212500   5.219   4.480   2.949
 4208TIP3    H112501   5.183   4.478   2.859
 4208TIP3    H212502   5.141   4.458   3.004
 4209TIP3   OH212503   6.275   2.884   1.641
 4209TIP3    H112504   6.194   2.905   1.691
 4209TIP3    H212505   6.289   2.967   1.591
 4210TIP3   OH212506   5.011   3.627   2.000
 4210TIP3    H112507   4.953   3.671   1.933
 4210TIP3    H212508   4.975   3.538   2.000
 4211TIP3   OH212509   6.074   4.253   1.191
 4211TIP3    H112510   6.082   4.349   1.174
 4211TIP3    H212511   6.166   4.222   1.177
 4212TIP3   OH212512   4.798   4.010   2.895
 4212TIP3    H112513   4.734   3.986   2.825
 4212TIP3    H212514   4.836   3.923   2.921
 4213TIP3   OH212515   4.653   4.204   2.527
 4213TIP3    H112516   4.749   4.194   2.518
 4213TIP3    H212517   4.646   4.282   2.584
 4214TIP3   OH212518   6.517   4.654   2.580
 4214TIP3    H112519   6.517   4.557   2.595
 4214TIP3    H212520   6.434   4.678   2.627
 4215TIP3   OH212521   5.623   4.440   2.719
 4215TIP3    H112522   5.622   4.533   2.751
 4215TIP3    H212523   5.551   4.401   2.773
 4216TIP3   OH212524   5.382   4.569   1.670
 4216TIP3    H112525   5.338   4.549   1.586
 4216TIP3    H212526   5.350   4.659   1.690
 4217TIP3   OH212527   4.819   4.419   2.056
 4217TIP3    H112528   4.871   4.411   2.139
 4217TIP3    H212529   4.767   4.337   2.060
 4218TIP3   OH212530   5.585   4.470   1.311
 4218TIP3    H112531   5.643   4.401   1.274
 4218TIP3    H212532   5.620   4.478   1.402
 4219TIP3   OH212533   5.635   4.519   1.582
 4219TIP3    H112534   5.546   4.527   1.624
 4219TIP3    H212535   5.685   4.474   1.652
 4220TIP3   OH212536   6.416   3.789   2.852
 4220TIP3    H112537   6.332   3.800   2.804
 4220TIP3    H212538   6.429   3.692   2.846
 4221TIP3   OH212539   5.003   4.193   2.884
 4221TIP3    H112540   5.053   4.178   2.967
 4221TIP3    H212541   4.929   4.129   2.893
 4222TIP3   OH212542   5.403   3.016   2.667
 4222TIP3    H112543   5.313   2.986   2.641
 4222TIP3    H212544   5.379   3.099   2.712
 4223TIP3   OH212545   5.936   3.133   2.862
 4223TIP3    H112546   6.004   3.104   2.927
 4223TIP3    H212547   5.852   3.112   2.908
 4224TIP3   OH212548   6.176   3.561   2.780
 4224TIP3    H112549   6.127   3.558   2.865
 4224TIP3    H212550   6.152   3.648   2.744
 4225TIP3   OH212551   5.839   3.694   1.338
 4225TIP3    H112552   5.801   3.667   1.253
 4225TIP3    H212553   5.920   3.740   1.309
 4226TIP3   OH212554   5.552   3.062   1.640
 4226TIP3    H112555   5.514   3.061   1.730
 4226TIP3    H212556   5.510   2.982   1.604
 4227TIP3   OH212557   5.334   3.532   2.687
 4227TIP3    H112558   5.284   3.554   2.768
 4227TIP3    H212559   5.319   3.612   2.632
 4228TIP3   OH212560   5.219   3.418   2.200
 4228TIP3    H112561   5.126   3.393   2.216
 4228TIP3    H212562   5.233   3.380   2.110
 4229TIP3   OH212563   5.708   3.505   1.928
 4229TIP3    H112564   5.655   3.576   1.886
 4229TIP3    H212565   5.762   3.473   1.852
 4230TIP3   OH212566   5.883   3.783   3.015
 4230TIP3    H112567   5.862   3.710   3.077
 4230TIP3    H212568   5.978   3.797   3.036
 4231TIP3   OH212569   5.866   3.534   2.167
 4231TIP3    H112570   5.806   3.563   2.095
 4231TIP3    H212571   5.899   3.452   2.125
 4232TIP3   OH212572   5.153   3.562   2.896
 4232TIP3    H112573   5.181   3.625   2.963
 4232TIP3    H212574   5.143   3.480   2.947
 4233TIP3   OH212575   5.206   3.032   1.604
 4233TIP3    H112576   5.189   3.044   1.699
 4233TIP3    H212577   5.134   3.082   1.563
 4234TIP3   OH212578   4.746   3.084   2.478
 4234TIP3    H112579   4.823   3.115   2.529
 4234TIP3    H212580   4.785   3.052   2.395
 4235TIP3   OH212581   4.720   3.065   1.996
 4235TIP3    H112582   4.767   3.103   1.919
 4235TIP3    H212583   4.659   3.138   2.017
 4236TIP3   OH212584   5.878   3.779   2.592
 4236TIP3    H112585   5.910   3.707   2.532
 4236TIP3    H212586   5.848   3.726   2.668
 4237TIP3   OH212587   5.546   3.241   2.263
 4237TIP3    H112588   5.463   3.239   2.315
 4237TIP3    H212589   5.613   3.240   2.333
 4238TIP3   OH212590   4.979   3.295   2.272
 4238TIP3    H112591   4.885   3.302   2.244
 4238TIP3    H212592   5.004   3.205   2.246
 4239TIP3   OH212593   5.251   3.296   1.955
 4239TIP3    H112594   5.346   3.309   1.935
 4239TIP3    H212595   5.209   3.314   1.868
 4240TIP3   OH212596   6.037   3.316   2.464
 4240TIP3    H112597   6.001   3.328   2.555
 4240TIP3    H212598   5.972   3.255   2.427
 4241TIP3   OH212599   5.096   3.311   1.731
 4241TIP3    H112600   5.003   3.288   1.726
 4241TIP3    H212601   5.105   3.359   1.645
 4242TIP3   OH212602   6.205   5.004   2.682
 4242TIP3    H112603   6.202   5.027   2.588
 4242TIP3    H212604   6.276   5.062   2.715
 4243TIP3   OH212605   5.166   4.115   3.103
 4243TIP3    H112606   5.245   4.147   3.152
 4243TIP3    H212607   5.101   4.113   3.176
 4244TIP3   OH212608   5.629   3.568   2.359
 4244TIP3    H112609   5.701   3.530   2.306
 4244TIP3    H212610   5.641   3.525   2.446
 4245TIP3   OH212611   5.153   3.058   2.236
 4245TIP3    H112612   5.121   2.976   2.280
 4245TIP3    H212613   5.201   3.022   2.160
 4246TIP3   OH212614   5.605   3.462   2.652
 4246TIP3    H112615   5.516   3.500   2.663
 4246TIP3    H212616   5.663   3.525   2.700
 4247TIP3   OH212617   5.340   3.861   1.742
 4247TIP3    H112618   5.275   3.788   1.732
 4247TIP3    H212619   5.321   3.890   1.835
 4248TIP3   OH212620   6.243   4.091   2.375
 4248TIP3    H112621   6.266   4.140   2.293
 4248TIP3    H212622   6.157   4.049   2.350
 4249TIP3   OH212623   5.802   3.167   1.609
 4249TIP3    H112624   5.705   3.150   1.613
 4249TIP3    H212625   5.809   3.263   1.628
 4250TIP3   OH212626   5.745   4.176   2.741
 4250TIP3    H112627   5.762   4.151   2.832
 4250TIP3    H212628   5.702   4.263   2.749
 4251TIP3   OH212629   5.871   3.415   1.712
 4251TIP3    H112630   5.967   3.423   1.724
 4251TIP3    H212631   5.850   3.494   1.658
 4252TIP3   OH212632   5.033   3.877   2.421
 4252TIP3    H112633   5.071   3.850   2.335
 4252TIP3    H212634   5.075   3.814   2.481
 4253TIP3   OH212635   5.489   4.007   1.567
 4253TIP3    H112636   5.441   4.093   1.574
 4253TIP3    H212637   5.435   3.950   1.624
 4254TIP3   OH212638   4.914   3.800   3.034
 4254TIP3    H112639   4.936   3.785   3.128
 4254TIP3    H212640   4.846   3.731   3.019
 4255TIP3   OH212641   5.640   3.912   3.054
 4255TIP3    H112642   5.581   3.854   3.002
 4255TIP3    H212643   5.727   3.878   3.025
 4256TIP3   OH212644   5.903   4.437   2.634
 4256TIP3    H112645   5.807   4.432   2.648
 4256TIP3    H212646   5.930   4.487   2.715
 4257TIP3   OH212647   6.313   3.505   1.545
 4257TIP3    H112648   6.251   3.460   1.484
 4257TIP3    H212649   6.310   3.594   1.504
 4258TIP3   OH212650   6.531   4.363   2.626
 4258TIP3    H112651   6.433   4.357   2.618
 4258TIP3    H212652   6.557   4.332   2.536
 4259TIP3   OH212653   6.015   4.324   1.455
 4259TIP3    H112654   5.986   4.252   1.513
 4259TIP3    H212655   6.025   4.280   1.369
 4260TIP3   OH212656   6.009   3.953   2.295
 4260TIP3    H112657   5.915   3.928   2.306
 4260TIP3    H212658   6.042   3.874   2.248
 4261TIP3   OH212659   5.135   4.182   2.048
 4261TIP3    H112660   5.138   4.261   1.991
 4261TIP3    H212661   5.041   4.164   2.050
 4262TIP3   OH212662   4.697   3.486   1.746
 4262TIP3    H112663   4.746   3.569   1.765
 4262TIP3    H212664   4.622   3.493   1.808
 4263TIP3   OH212665   5.277   3.948   1.993
 4263TIP3    H112666   5.241   4.037   2.010
 4263TIP3    H212667   5.238   3.897   2.066
 4264TIP3   OH212668   5.403   4.526   2.514
 4264TIP3    H112669   5.445   4.598   2.464
 4264TIP3    H212670   5.480   4.491   2.563
 4265TIP3   OH212671   5.054   4.422   1.897
 4265TIP3    H112672   4.969   4.430   1.944
 4265TIP3    H212673   5.086   4.514   1.900
 4266TIP3   OH212674   5.794   4.160   2.472
 4266TIP3    H112675   5.785   4.158   2.570
 4266TIP3    H212676   5.872   4.104   2.458
 4267TIP3   OH212677   5.766   4.054   1.355
 4267TIP3    H112678   5.818   4.029   1.435
 4267TIP3    H212679   5.678   4.023   1.382
 4268TIP3   OH212680   6.042   4.694   2.524
 4268TIP3    H112681   5.964   4.636   2.518
 4268TIP3    H212682   6.025   4.757   2.451
 4269TIP3   OH212683   6.107   4.527   1.175
 4269TIP3    H112684   6.143   4.597   1.118
 4269TIP3    H212685   6.027   4.574   1.208
 4270TIP3   OH212686   5.127   3.304   3.042
 4270TIP3    H112687   5.031   3.308   3.056
 4270TIP3    H212688   5.155   3.244   3.113
 4271TIP3   OH212689   5.927   3.991   1.574
 4271TIP3    H112690   5.915   3.923   1.643
 4271TIP3    H212691   6.023   3.985   1.560
 4272TIP3   OH212692   4.841   4.388   2.674
 4272TIP3    H112693   4.896   4.314   2.704
 4272TIP3    H212694   4.870   4.457   2.736
 4273TIP3   OH212695   5.132   4.032   1.356
 4273TIP3    H112696   5.148   3.941   1.322
 4273TIP3    H212697   5.111   4.013   1.450
 4274TIP3   OH212698   5.073   4.040   1.634
 4274TIP3    H112699   5.152   4.006   1.679
 4274TIP3    H212700   5.086   4.137   1.639
 4275TIP3   OH212701   4.815   3.729   1.829
 4275TIP3    H112702   4.751   3.778   1.885
 4275TIP3    H212703   4.836   3.797   1.762
 4276TIP3   OH212704   5.961   3.370   2.724
 4276TIP3    H112705   6.043   3.406   2.760
 4276TIP3    H212706   5.948   3.289   2.777
 4277TIP3   OH212707   5.843   3.120   1.887
 4277TIP3    H112708   5.827   3.141   1.793
 4277TIP3    H212709   5.880   3.203   1.921
 4278TIP3   OH212710   5.345   4.236   1.579
 4278TIP3    H112711   5.257   4.265   1.612
 4278TIP3    H212712   5.360   4.300   1.508
 4279TIP3   OH212713   5.535   3.297   1.990
 4279TIP3    H112714   5.597   3.370   1.970
 4279TIP3    H212715   5.540   3.293   2.087
 4280TIP3   OH212716   5.801   3.618   2.798
 4280TIP3    H112717   5.822   3.671   2.877
 4280TIP3    H212718   5.857   3.539   2.809
 4281TIP3   OH212719   5.679   3.027   2.093
 4281TIP3    H112720   5.668   3.106   2.150
 4281TIP3    H212721   5.738   3.063   2.023
 4282TIP3   OH212722   5.088   4.314   1.642
 4282TIP3    H112723   5.057   4.383   1.580
 4282TIP3    H212724   5.072   4.356   1.729
 4283TIP3   OH212725   5.185   3.025   1.886
 4283TIP3    H112726   5.187   3.118   1.916
 4283TIP3    H212727   5.281   3.005   1.889
 4284TIP3   OH212728   6.444   3.517   2.783
 4284TIP3    H112729   6.346   3.515   2.785
 4284TIP3    H212730   6.460   3.485   2.693
 4285TIP3   OH212731   6.093   3.713   2.167
 4285TIP3    H112732   6.017   3.653   2.177
 4285TIP3    H212733   6.165   3.665   2.214
 4286TIP3   OH212734   4.805   3.944   1.634
 4286TIP3    H112735   4.879   4.008   1.645
 4286TIP3    H212736   4.850   3.883   1.570
 4287TIP3   OH212737   4.760   3.222   1.775
 4287TIP3    H112738   4.747   3.318   1.765
 4287TIP3    H212739   4.694   3.186   1.715
 4288TIP3   OH212740   6.063   4.669   2.117
 4288TIP3    H112741   6.019   4.716   2.042
 4288TIP3    H212742   6.157   4.684   2.094
 4289TIP3   OH212743   5.137   2.937   2.644
 4289TIP3    H112744   5.107   2.904   2.557
 4289TIP3    H212745   5.127   2.858   2.701
 4290TIP3   OH212746   4.681   4.158   2.026
 4290TIP3    H112747   4.605   4.188   2.077
 4290TIP3    H212748   4.660   4.194   1.937
 4291TIP3   OH212749   4.834   4.699   3.093
 4291TIP3    H112750   4.917   4.701   3.144
 4291TIP3    H212751   4.811   4.605   3.098
 4292TIP3   OH212752   5.320   4.663   3.137
 4292TIP3    H112753   5.413   4.638   3.144
 4292TIP3    H212754   5.291   4.604   3.064
 4293TIP3   OH212755   5.297   4.236   1.272
 4293TIP3    H112756   5.241   4.163   1.307
 4293TIP3    H212757   5.372   4.184   1.236
 4294TIP3   OH212758   5.955   4.567   2.872
 4294TIP3    H112759   5.945   4.497   2.941
 4294TIP3    H212760   6.032   4.617   2.904
 4295TIP3   OH212761   5.734   4.280   1.180
 4295TIP3    H112762   5.776   4.213   1.236
 4295TIP3    H212763   5.788   4.278   1.099
 4296TIP3   OH212764   4.966   4.093   3.290
 4296TIP3    H112765   4.981   3.997   3.292
 4296TIP3    H212766   4.877   4.099   3.250
 4297TIP3   OH212767   4.938   3.764   1.485
 4297TIP3    H112768   4.972   3.681   1.527
 4297TIP3    H212769   5.006   3.770   1.415
 4298TIP3   OH212770   5.575   4.187   3.067
 4298TIP3    H112771   5.530   4.203   2.981
 4298TIP3    H212772   5.604   4.094   3.060
 4299TIP3   OH212773   5.449   3.955   1.296
 4299TIP3    H112774   5.452   3.965   1.393
 4299TIP3    H212775   5.452   3.857   1.289
 4300TIP3   OH212776   6.065   4.194   2.676
 4300TIP3    H112777   6.138   4.241   2.631
 4300TIP3    H212778   5.992   4.257   2.662
 4301TIP3   OH212779   5.083   3.832   3.278
 4301TIP3    H112780   5.159   3.778   3.258
 4301TIP3    H212781   5.108   3.869   3.365
 4302TIP3   OH212782   5.169   3.651   1.717
 4302TIP3    H112783   5.133   3.593   1.785
 4302TIP3    H212784   5.157   3.596   1.636
 4303TIP3   OH212785   5.418   3.721   2.939
 4303TIP3    H112786   5.340   3.781   2.942
 4303TIP3    H212787   5.467   3.755   2.861
 4304TIP3   OH212788   5.935   4.124   3.073
 4304TIP3    H112789   6.016   4.101   3.025
 4304TIP3    H212790   5.933   4.056   3.143
 4305TIP3   OH212791   6.074   3.783   1.213
 4305TIP3    H112792   6.052   3.735   1.130
 4305TIP3    H212793   6.041   3.873   1.189
 4306TIP3   OH212794   5.542   3.509   3.065
 4306TIP3    H112795   5.542   3.429   3.009
 4306TIP3    H212796   5.498   3.575   3.007
 4307TIP3   OH212797   5.544   3.295   2.873
 4307TIP3    H112798   5.572   3.337   2.789
 4307TIP3    H212799   5.450   3.273   2.854
 4308TIP3   OH212800   5.572   3.832   2.747
 4308TIP3    H112801   5.654   3.839   2.696
 4308TIP3    H212802   5.516   3.899   2.702
 4309TIP3   OH212803   6.156   3.799   3.129
 4309TIP3    H112804   6.204   3.715   3.133
 4309TIP3    H212805   6.224   3.859   3.094
 4310TIP3   OH212806   6.195   4.051   2.864
 4310TIP3    H112807   6.137   4.104   2.804
 4310TIP3    H212808   6.283   4.070   2.823
 4311TIP3   OH212809   5.420   3.622   3.296
 4311TIP3    H112810   5.350   3.555   3.309
 4311TIP3    H212811   5.454   3.597   3.207
 4312TIP3   OH212812   5.676   3.060   2.939
 4312TIP3    H112813   5.627   3.142   2.916
 4312TIP3    H212814   5.607   2.992   2.927
 4313TIP3   OH212815   5.802   3.565   3.156
 4313TIP3    H112816   5.789   3.553   3.251
 4313TIP3    H212817   5.712   3.540   3.124
 4314TIP3   OH212818   6.042   3.516   3.011
 4314TIP3    H112819   5.966   3.515   3.072
 4314TIP3    H212820   6.115   3.483   3.068
 4315TIP3   OH212821   6.271   3.455   3.163
 4315TIP3    H112822   6.283   3.359   3.180
 4315TIP3    H212823   6.267   3.493   3.254
 4316TIP3   OH212824   5.258   3.403   3.347
 4316TIP3    H112825   5.265   3.312   3.312
 4316TIP3    H212826   5.294   3.390   3.438
 4317TIP3   OH212827   5.771   3.070   3.196
 4317TIP3    H112828   5.838   2.998   3.190
 4317TIP3    H212829   5.731   3.064   3.107
 4318TIP3   OH212830   5.836   3.284   3.356
 4318TIP3    H112831   5.814   3.213   3.291
 4318TIP3    H212832   5.759   3.344   3.349
 4319TIP3   OH212833   5.056   4.517   1.456
 4319TIP3    H112834   5.152   4.509   1.438
 4319TIP3    H212835   5.029   4.563   1.375
 4320TIP3   OH212836   4.537   3.896   1.673
 4320TIP3    H112837   4.632   3.918   1.657
 4320TIP3    H212838   4.532   3.806   1.633
 4321TIP3   OH212839   4.452   4.506   2.083
 4321TIP3    H112840   4.383   4.444   2.052
 4321TIP3    H212841   4.496   4.452   2.152
 4322TIP3   OH212842   4.585   4.362   2.274
 4322TIP3    H112843   4.577   4.286   2.334
 4322TIP3    H212844   4.638   4.422   2.329
 4323TIP3   OH212845   6.319   4.754   2.072
 4323TIP3    H112846   6.341   4.790   2.160
 4323TIP3    H212847   6.367   4.813   2.013
 4324TIP3   OH212848   6.346   4.778   2.355
 4324TIP3    H112849   6.298   4.692   2.347
 4324TIP3    H212850   6.413   4.752   2.419
 4325TIP3   OH212851   6.389   4.457   2.925
 4325TIP3    H112852   6.316   4.464   2.990
 4325TIP3    H212853   6.430   4.545   2.931
 4326TIP3   OH212854   6.206   3.969   1.548
 4326TIP3    H112855   6.275   4.032   1.518
 4326TIP3    H212856   6.249   3.929   1.627
 4327TIP3   OH212857   6.334   3.837   1.751
 4327TIP3    H112858   6.268   3.794   1.809
 4327TIP3    H212859   6.397   3.875   1.816
 4328TIP3   OH212860   6.389   4.228   2.185
 4328TIP3    H112861   6.441   4.162   2.135
 4328TIP3    H212862   6.379   4.300   2.120
 4329TIP3   OH212863   6.221   4.530   2.378
 4329TIP3    H112864   6.148   4.570   2.430
 4329TIP3    H212865   6.171   4.481   2.309
 4330TIP3   OH212866   6.273   3.745   1.398
 4330TIP3    H112867   6.202   3.746   1.330
 4330TIP3    H212868   6.243   3.820   1.453
 4331TIP3   OH212869   6.145   3.417   1.352
 4331TIP3    H112870   6.101   3.457   1.276
 4331TIP3    H212871   6.118   3.323   1.342
 4332TIP3   OH212872   6.150   3.692   1.897
 4332TIP3    H112873   6.156   3.596   1.890
 4332TIP3    H212874   6.135   3.705   1.994
 4333TIP3   OH212875   4.774   3.767   2.643
 4333TIP3    H112876   4.774   3.737   2.550
 4333TIP3    H212877   4.871   3.769   2.661
 4334TIP3   OH212878   6.437   4.116   2.754
 4334TIP3    H112879   6.511   4.052   2.745
 4334TIP3    H212880   6.464   4.187   2.692
 4335TIP3   OH212881   6.633   3.932   2.769
 4335TIP3    H112882   6.559   3.879   2.806
 4335TIP3    H212883   6.707   3.868   2.784
 4336TIP3   OH212884   6.087   3.152   1.340
 4336TIP3    H112885   6.160   3.118   1.396
 4336TIP3    H212886   6.012   3.094   1.361
 4337TIP3   OH212887   6.146   3.410   1.794
 4337TIP3    H112888   6.186   3.321   1.809
 4337TIP3    H212889   6.203   3.441   1.722
 4338TIP3   OH212890   6.307   3.584   2.288
 4338TIP3    H112891   6.392   3.610   2.247
 4338TIP3    H212892   6.320   3.620   2.377
 4339TIP3   OH212893   6.374   3.728   2.521
 4339TIP3    H112894   6.296   3.762   2.568
 4339TIP3    H212895   6.407   3.809   2.476
 4340TIP3   OH212896   4.991   3.453   3.317
 4340TIP3    H112897   5.089   3.447   3.319
 4340TIP3    H212898   4.967   3.368   3.360
 4341TIP3   OH212899   6.832   3.318   3.079
 4341TIP3    H112900   6.887   3.251   3.033
 4341TIP3    H212901   6.798   3.372   3.004
 4342TIP3   OH212902   6.254   3.159   1.830
 4342TIP3    H112903   6.301   3.142   1.914
 4342TIP3    H212904   6.192   3.082   1.828
 4343TIP3   OH212905   4.953   3.146   2.653
 4343TIP3    H112906   5.015   3.071   2.661
 4343TIP3    H212907   5.015   3.220   2.644
 4344TIP3   OH212908   4.756   3.419   2.722
 4344TIP3    H112909   4.805   3.412   2.638
 4344TIP3    H212910   4.786   3.505   2.754
 4345TIP3   OH212911   6.696   3.453   2.889
 4345TIP3    H112912   6.610   3.498   2.903
 4345TIP3    H212913   6.669   3.386   2.824
 4346TIP3   OH212914   6.337   3.093   1.465
 4346TIP3    H112915   6.374   3.022   1.409
 4346TIP3    H212916   6.402   3.164   1.454
 4347TIP3   OH212917   4.739   2.925   2.226
 4347TIP3    H112918   4.645   2.921   2.248
 4347TIP3    H212919   4.739   2.982   2.146
 4348TIP3   OH212920   5.899   4.626   1.730
 4348TIP3    H112921   5.947   4.609   1.646
 4348TIP3    H212922   5.955   4.693   1.771
 4349TIP3   OH212923   4.960   3.004   3.039
 4349TIP3    H112924   4.909   2.998   3.121
 4349TIP3    H212925   4.893   3.041   2.978
 4350TIP3   OH212926   5.000   4.426   3.119
 4350TIP3    H112927   4.907   4.401   3.101
 4350TIP3    H212928   5.005   4.413   3.215
 4351TIP3   OH212929   5.176   4.460   2.662
 4351TIP3    H112930   5.129   4.537   2.623
 4351TIP3    H212931   5.263   4.474   2.618
 4352TIP3   OH212932   5.624   4.706   2.801
 4352TIP3    H112933   5.665   4.708   2.889
 4352TIP3    H212934   5.689   4.757   2.749
 4353TIP3   OH212935   5.802   4.858   2.658
 4353TIP3    H112936   5.872   4.806   2.617
 4353TIP3    H212937   5.853   4.915   2.720
 4354TIP3   OH212938   6.595   3.220   2.759
 4354TIP3    H112939   6.505   3.216   2.724
 4354TIP3    H212940   6.625   3.127   2.746
 4355TIP3   OH212941   4.854   4.719   2.685
 4355TIP3    H112942   4.765   4.754   2.664
 4355TIP3    H212943   4.865   4.753   2.775
 4356TIP3   OH212944   5.091   4.698   2.544
 4356TIP3    H112945   5.004   4.711   2.589
 4356TIP3    H212946   5.071   4.731   2.454
 4357TIP3   OH212947   5.517   4.727   2.341
 4357TIP3    H112948   5.448   4.747   2.275
 4357TIP3    H212949   5.529   4.814   2.384
 4358TIP3   OH212950   5.785   4.668   2.393
 4358TIP3    H112951   5.690   4.682   2.373
 4358TIP3    H212952   5.826   4.744   2.350
 4359TIP3   OH212953   5.997   4.860   2.309
 4359TIP3    H112954   5.980   4.944   2.260
 4359TIP3    H212955   6.019   4.798   2.236
 4360TIP3   OH212956   4.765   4.513   2.431
 4360TIP3    H112957   4.792   4.488   2.522
 4360TIP3    H212958   4.837   4.469   2.381
 4361TIP3   OH212959   4.959   4.384   2.287
 4361TIP3    H112960   4.975   4.300   2.335
 4361TIP3    H212961   5.050   4.421   2.282
 4362TIP3   OH212962   5.225   4.480   2.290
 4362TIP3    H112963   5.256   4.389   2.276
 4362TIP3    H212964   5.268   4.500   2.375
 4363TIP3   OH212965   5.802   3.137   2.380
 4363TIP3    H112966   5.758   3.066   2.431
 4363TIP3    H212967   5.872   3.088   2.333
 4364TIP3   OH212968   6.325   3.016   2.285
 4364TIP3    H112969   6.362   3.068   2.210
 4364TIP3    H212970   6.230   3.034   2.277
 4365TIP3   OH212971   6.420   3.116   2.048
 4365TIP3    H112972   6.493   3.065   2.007
 4365TIP3    H212973   6.452   3.208   2.033
 4366TIP3   OH212974   5.050   2.844   2.396
 4366TIP3    H112975   4.958   2.812   2.395
 4366TIP3    H212976   5.099   2.759   2.392
 4367TIP3   OH212977   4.838   2.712   2.042
 4367TIP3    H112978   4.868   2.769   1.968
 4367TIP3    H212979   4.808   2.779   2.107
 4368TIP3   OH212980   5.493   2.876   2.276
 4368TIP3    H112981   5.550   2.926   2.215
 4368TIP3    H212982   5.516   2.916   2.361
 4369TIP3   OH212983   6.043   3.023   2.259
 4369TIP3    H112984   6.036   2.989   2.169
 4369TIP3    H212985   6.028   2.942   2.313
 4370TIP3   OH212986   6.070   2.945   1.821
 4370TIP3    H112987   5.983   2.988   1.830
 4370TIP3    H212988   6.054   2.861   1.868
 4371TIP3   OH212989   4.553   4.280   1.820
 4371TIP3    H112990   4.472   4.243   1.785
 4371TIP3    H212991   4.531   4.374   1.826
 4372TIP3   OH212992   4.955   2.870   1.812
 4372TIP3    H112993   5.002   2.810   1.751
 4372TIP3    H212994   5.029   2.925   1.845
 4373TIP3   OH212995   5.463   3.047   1.906
 4373TIP3    H112996   5.526   3.001   1.964
 4373TIP3    H212997   5.486   3.140   1.929
 4374TIP3   OH212998   5.324   4.476   1.403
 4374TIP3    H112999   5.413   4.496   1.368
 4374TIP3    H213000   5.303   4.399   1.345
 4375TIP3   OH213001   6.044   4.591   1.498
 4375TIP3    H113002   6.037   4.493   1.485
 4375TIP3    H213003   6.000   4.623   1.416
 4376TIP3   OH213004   5.258   3.126   3.286
 4376TIP3    H113005   5.224   3.055   3.343
 4376TIP3    H213006   5.352   3.126   3.312
 4377TIP3   OH213007   5.507   3.123   3.405
 4377TIP3    H113008   5.591   3.096   3.364
 4377TIP3    H213009   5.494   3.053   3.472
 4378TIP3   OH213010   4.641   4.330   1.470
 4378TIP3    H113011   4.647   4.327   1.566
 4378TIP3    H213012   4.718   4.275   1.443
 4379TIP3   OH213013   6.332   3.184   3.192
 4379TIP3    H113014   6.352   3.152   3.282
 4379TIP3    H213015   6.419   3.179   3.149
 4380TIP3   OH213016   6.273   4.737   2.683
 4380TIP3    H113017   6.194   4.702   2.637
 4380TIP3    H213018   6.249   4.831   2.688
 4381TIP3   OH213019   7.536   4.107   1.453
 4381TIP3    H113020   7.509   4.198   1.433
 4381TIP3    H213021   7.460   4.058   1.417
 4382TIP3   OH213022   7.534   4.109   1.832
 4382TIP3    H113023   7.565   4.076   1.917
 4382TIP3    H213024   7.493   4.030   1.793
 4383TIP3   OH213025   6.835   4.002   2.197
 4383TIP3    H113026   6.866   3.935   2.262
 4383TIP3    H213027   6.913   4.059   2.193
 4384TIP3   OH213028   7.775   4.409   1.513
 4384TIP3    H113029   7.767   4.339   1.580
 4384TIP3    H213030   7.812   4.482   1.565
 4385TIP3   OH213031   6.809   4.415   1.930
 4385TIP3    H113032   6.798   4.317   1.929
 4385TIP3    H213033   6.905   4.421   1.914
 4386TIP3   OH213034   6.513   3.618   1.709
 4386TIP3    H113035   6.462   3.700   1.721
 4386TIP3    H213036   6.444   3.561   1.670
 4387TIP3   OH213037   6.575   3.905   1.879
 4387TIP3    H113038   6.622   3.827   1.916
 4387TIP3    H213039   6.629   3.927   1.802
 4388TIP3   OH213040   7.429   4.872   1.532
 4388TIP3    H113041   7.473   4.804   1.477
 4388TIP3    H213042   7.427   4.828   1.618
 4389TIP3   OH213043   7.334   4.335   1.881
 4389TIP3    H113044   7.370   4.258   1.834
 4389TIP3    H213045   7.419   4.379   1.903
 4390TIP3   OH213046   8.347   3.651   1.875
 4390TIP3    H113047   8.374   3.732   1.922
 4390TIP3    H213048   8.373   3.672   1.783
 4391TIP3   OH213049   7.746   3.835   1.914
 4391TIP3    H113050   7.790   3.750   1.932
 4391TIP3    H213051   7.716   3.821   1.822
 4392TIP3   OH213052   7.085   3.495   1.878
 4392TIP3    H113053   7.063   3.567   1.816
 4392TIP3    H213054   7.037   3.421   1.834
 4393TIP3   OH213055   7.779   3.586   1.502
 4393TIP3    H113056   7.852   3.570   1.566
 4393TIP3    H213057   7.829   3.622   1.427
 4394TIP3   OH213058   6.718   3.697   1.985
 4394TIP3    H113059   6.801   3.676   2.032
 4394TIP3    H213060   6.730   3.640   1.905
 4395TIP3   OH213061   7.159   3.895   1.777
 4395TIP3    H113062   7.253   3.869   1.791
 4395TIP3    H213063   7.119   3.811   1.745
 4396TIP3   OH213064   8.409   3.847   2.061
 4396TIP3    H113065   8.337   3.906   2.029
 4396TIP3    H213066   8.448   3.902   2.130
 4397TIP3   OH213067   7.081   3.477   2.311
 4397TIP3    H113068   7.021   3.514   2.244
 4397TIP3    H213069   7.029   3.494   2.393
 4398TIP3   OH213070   7.426   4.326   1.323
 4398TIP3    H113071   7.387   4.308   1.236
 4398TIP3    H213072   7.384   4.411   1.346
 4399TIP3   OH213073   7.190   4.253   2.108
 4399TIP3    H113074   7.126   4.317   2.147
 4399TIP3    H213075   7.229   4.305   2.035
 4400TIP3   OH213076   7.991   3.585   1.672
 4400TIP3    H113077   7.979   3.538   1.755
 4400TIP3    H213078   8.039   3.665   1.701
 4401TIP3   OH213079   6.952   3.593   2.096
 4401TIP3    H113080   7.014   3.666   2.120
 4401TIP3    H213081   7.001   3.552   2.021
 4402TIP3   OH213082   7.016   4.445   2.210
 4402TIP3    H113083   6.985   4.524   2.163
 4402TIP3    H213084   6.937   4.426   2.265
 4403TIP3   OH213085   6.411   4.136   1.441
 4403TIP3    H113086   6.369   4.160   1.356
 4403TIP3    H213087   6.440   4.222   1.475
 4404TIP3   OH213088   7.849   4.654   1.687
 4404TIP3    H113089   7.757   4.645   1.721
 4404TIP3    H213090   7.843   4.737   1.636
 4405TIP3   OH213091   8.140   3.551   2.042
 4405TIP3    H113092   8.053   3.584   2.012
 4405TIP3    H213093   8.200   3.586   1.973
 4406TIP3   OH213094   7.440   3.198   2.028
 4406TIP3    H113095   7.425   3.103   2.042
 4406TIP3    H213096   7.361   3.236   2.073
 4407TIP3   OH213097   7.549   4.702   1.354
 4407TIP3    H113098   7.599   4.619   1.335
 4407TIP3    H213099   7.611   4.766   1.313
 4408TIP3   OH213100   7.689   4.486   1.263
 4408TIP3    H113101   7.660   4.405   1.217
 4408TIP3    H213102   7.726   4.450   1.346
 4409TIP3   OH213103   8.077   4.566   2.026
 4409TIP3    H113104   8.067   4.489   1.966
 4409TIP3    H213105   8.061   4.640   1.964
 4410TIP3   OH213106   7.367   3.960   1.282
 4410TIP3    H113107   7.287   4.011   1.260
 4410TIP3    H213108   7.413   3.957   1.196
 4411TIP3   OH213109   7.327   3.743   1.000
 4411TIP3    H113110   7.395   3.794   1.047
 4411TIP3    H213111   7.383   3.680   0.952
 4412TIP3   OH213112   8.269   4.201   1.876
 4412TIP3    H113113   8.189   4.257   1.870
 4412TIP3    H213114   8.305   4.208   1.786
 4413TIP3   OH213115   7.714   4.042   1.255
 4413TIP3    H113116   7.660   4.067   1.333
 4413TIP3    H213117   7.798   4.016   1.299
 4414TIP3   OH213118   7.949   4.082   2.165
 4414TIP3    H113119   7.946   4.169   2.208
 4414TIP3    H213120   7.862   4.083   2.118
 4415TIP3   OH213121   6.946   4.041   1.671
 4415TIP3    H113122   6.904   3.983   1.604
 4415TIP3    H213123   7.023   3.987   1.698
 4416TIP3   OH213124   7.075   4.449   1.821
 4416TIP3    H113125   7.054   4.410   1.735
 4416TIP3    H213126   7.166   4.416   1.837
 4417TIP3   OH213127   7.086   4.010   2.025
 4417TIP3    H113128   7.117   3.989   1.935
 4417TIP3    H213129   7.128   4.096   2.044
 4418TIP3   OH213130   7.603   4.651   1.801
 4418TIP3    H113131   7.596   4.728   1.860
 4418TIP3    H213132   7.593   4.575   1.862
 4419TIP3   OH213133   7.221   4.575   2.342
 4419TIP3    H113134   7.167   4.617   2.409
 4419TIP3    H213135   7.155   4.517   2.296
 4420TIP3   OH213136   7.556   3.899   1.080
 4420TIP3    H113137   7.614   3.959   1.132
 4420TIP3    H213138   7.582   3.922   0.988
 4421TIP3   OH213139   6.972   4.132   2.439
 4421TIP3    H113140   6.981   4.210   2.498
 4421TIP3    H213141   6.880   4.106   2.458
 4422TIP3   OH213142   7.296   4.583   1.361
 4422TIP3    H113143   7.378   4.635   1.371
 4422TIP3    H213144   7.238   4.643   1.313
 4423TIP3   OH213145   6.940   4.811   2.411
 4423TIP3    H113146   6.964   4.751   2.336
 4423TIP3    H213147   6.910   4.746   2.480
 4424TIP3   OH213148   8.072   3.140   1.129
 4424TIP3    H113149   7.990   3.160   1.178
 4424TIP3    H213150   8.085   3.224   1.079
 4425TIP3   OH213151   6.812   3.883   1.479
 4425TIP3    H113152   6.748   3.928   1.419
 4425TIP3    H213153   6.772   3.796   1.486
 4426TIP3   OH213154   7.865   4.505   0.676
 4426TIP3    H113155   7.872   4.602   0.663
 4426TIP3    H213156   7.959   4.478   0.664
 4427TIP3   OH213157   6.598   4.268   2.380
 4427TIP3    H113158   6.531   4.244   2.313
 4427TIP3    H213159   6.634   4.181   2.407
 4428TIP3   OH213160   6.445   4.458   2.016
 4428TIP3    H113161   6.541   4.454   2.004
 4428TIP3    H213162   6.432   4.541   2.063
 4429TIP3   OH213163   8.315   4.913   2.070
 4429TIP3    H113164   8.313   4.815   2.078
 4429TIP3    H213165   8.230   4.935   2.115
 4430TIP3   OH213166   7.421   4.700   2.203
 4430TIP3    H113167   7.419   4.792   2.237
 4430TIP3    H213168   7.349   4.658   2.256
 4431TIP3   OH213169   7.178   4.825   1.158
 4431TIP3    H113170   7.135   4.804   1.073
 4431TIP3    H213171   7.146   4.915   1.177
 4432TIP3   OH213172   6.617   4.677   1.540
 4432TIP3    H113173   6.663   4.664   1.626
 4432TIP3    H213174   6.561   4.597   1.539
 4433TIP3   OH213175   7.384   4.728   0.802
 4433TIP3    H113176   7.443   4.658   0.765
 4433TIP3    H213177   7.418   4.736   0.893
 4434TIP3   OH213178   7.431   4.777   1.070
 4434TIP3    H113179   7.343   4.784   1.112
 4434TIP3    H213180   7.483   4.732   1.139
 4435TIP3   OH213181   8.200   4.039   2.346
 4435TIP3    H113182   8.125   4.056   2.286
 4435TIP3    H213183   8.216   3.944   2.332
 4436TIP3   OH213184   6.798   4.457   2.377
 4436TIP3    H113185   6.849   4.432   2.457
 4436TIP3    H213186   6.726   4.389   2.379
 4437TIP3   OH213187   7.200   3.273   2.154
 4437TIP3    H113188   7.110   3.242   2.128
 4437TIP3    H213189   7.175   3.355   2.200
 4438TIP3   OH213190   7.732   3.390   2.350
 4438TIP3    H113191   7.798   3.359   2.414
 4438TIP3    H213192   7.647   3.369   2.393
 4439TIP3   OH213193   7.972   3.816   2.267
 4439TIP3    H113194   7.921   3.817   2.351
 4439TIP3    H213195   7.949   3.903   2.228
 4440TIP3   OH213196   7.633   3.946   0.825
 4440TIP3    H113197   7.600   3.921   0.736
 4440TIP3    H213198   7.705   4.006   0.803
 4441TIP3   OH213199   7.346   3.321   1.126
 4441TIP3    H113200   7.311   3.319   1.217
 4441TIP3    H213201   7.306   3.240   1.091
 4442TIP3   OH213202   7.130   3.788   2.175
 4442TIP3    H113203   7.081   3.811   2.257
 4442TIP3    H213204   7.114   3.869   2.121
 4443TIP3   OH213205   7.014   3.675   1.687
 4443TIP3    H113206   6.921   3.649   1.704
 4443TIP3    H213207   7.028   3.635   1.598
 4444TIP3   OH213208   7.505   3.761   1.415
 4444TIP3    H113209   7.452   3.832   1.373
 4444TIP3    H213210   7.559   3.731   1.339
 4445TIP3   OH213211   7.676   4.041   2.505
 4445TIP3    H113212   7.653   3.968   2.567
 4445TIP3    H213213   7.772   4.046   2.519
 4446TIP3   OH213214   7.662   3.790   1.654
 4446TIP3    H113215   7.603   3.821   1.583
 4446TIP3    H213216   7.695   3.708   1.612
 4447TIP3   OH213217   6.950   3.819   2.386
 4447TIP3    H113218   6.981   3.878   2.458
 4447TIP3    H213219   6.939   3.735   2.434
 4448TIP3   OH213220   7.001   3.296   1.092
 4448TIP3    H113221   6.990   3.293   1.189
 4448TIP3    H213222   6.922   3.346   1.066
 4449TIP3   OH213223   6.542   3.341   1.964
 4449TIP3    H113224   6.619   3.371   2.015
 4449TIP3    H213225   6.580   3.307   1.881
 4450TIP3   OH213226   6.518   3.322   1.483
 4450TIP3    H113227   6.562   3.360   1.404
 4450TIP3    H213228   6.456   3.394   1.504
 4451TIP3   OH213229   7.675   4.037   2.077
 4451TIP3    H113230   7.706   3.965   2.018
 4451TIP3    H213231   7.644   3.984   2.153
 4452TIP3   OH213232   7.342   3.497   1.749
 4452TIP3    H113233   7.258   3.495   1.800
 4452TIP3    H213234   7.407   3.498   1.821
 4453TIP3   OH213235   6.776   3.552   1.757
 4453TIP3    H113236   6.681   3.560   1.730
 4453TIP3    H213237   6.798   3.461   1.734
 4454TIP3   OH213238   7.047   3.550   1.445
 4454TIP3    H113239   7.140   3.565   1.421
 4454TIP3    H213240   6.999   3.572   1.362
 4455TIP3   OH213241   7.833   3.572   1.951
 4455TIP3    H113242   7.796   3.585   2.041
 4455TIP3    H213243   7.767   3.510   1.913
 4456TIP3   OH213244   6.887   3.583   1.225
 4456TIP3    H113245   6.814   3.538   1.178
 4456TIP3    H213246   6.938   3.618   1.150
 4457TIP3   OH213247   8.002   5.262   2.169
 4457TIP3    H113248   8.000   5.283   2.073
 4457TIP3    H213249   8.080   5.312   2.198
 4458TIP3   OH213250   6.959   4.378   2.591
 4458TIP3    H113251   7.041   4.393   2.642
 4458TIP3    H213252   6.896   4.366   2.665
 4459TIP3   OH213253   7.425   3.824   1.846
 4459TIP3    H113254   7.498   3.785   1.795
 4459TIP3    H213255   7.435   3.782   1.933
 4460TIP3   OH213256   6.951   3.313   1.724
 4460TIP3    H113257   6.915   3.234   1.769
 4460TIP3    H213258   6.997   3.274   1.648
 4461TIP3   OH213259   7.401   3.720   2.137
 4461TIP3    H113260   7.311   3.756   2.150
 4461TIP3    H213261   7.457   3.782   2.187
 4462TIP3   OH213262   7.138   4.114   1.231
 4462TIP3    H113263   7.066   4.047   1.220
 4462TIP3    H213264   7.120   4.147   1.323
 4463TIP3   OH213265   8.036   4.350   1.863
 4463TIP3    H113266   8.064   4.397   1.781
 4463TIP3    H213267   7.952   4.307   1.835
 4464TIP3   OH213268   7.597   3.425   1.093
 4464TIP3    H113269   7.500   3.408   1.100
 4464TIP3    H213270   7.606   3.520   1.116
 4465TIP3   OH213271   7.541   4.431   2.228
 4465TIP3    H113272   7.555   4.404   2.319
 4465TIP3    H213273   7.501   4.519   2.237
 4466TIP3   OH213274   7.666   3.672   1.197
 4466TIP3    H113275   7.763   3.679   1.212
 4466TIP3    H213276   7.647   3.752   1.144
 4467TIP3   OH213277   6.833   4.139   1.908
 4467TIP3    H113278   6.868   4.108   1.822
 4467TIP3    H213279   6.867   4.072   1.969
 4468TIP3   OH213280   7.284   4.263   1.053
 4468TIP3    H113281   7.237   4.349   1.059
 4468TIP3    H213282   7.229   4.207   1.112
 4469TIP3   OH213283   6.707   4.053   2.522
 4469TIP3    H113284   6.715   4.022   2.615
 4469TIP3    H213285   6.639   3.992   2.489
 4470TIP3   OH213286   7.434   4.171   2.540
 4470TIP3    H113287   7.371   4.109   2.500
 4470TIP3    H213288   7.519   4.134   2.510
 4471TIP3   OH213289   7.699   4.693   2.122
 4471TIP3    H113290   7.603   4.688   2.134
 4471TIP3    H213291   7.725   4.744   2.202
 4472TIP3   OH213292   8.109   3.760   1.032
 4472TIP3    H113293   8.046   3.716   0.970
 4472TIP3    H213294   8.105   3.850   0.992
 4473TIP3   OH213295   8.328   4.624   2.112
 4473TIP3    H113296   8.230   4.615   2.104
 4473TIP3    H213297   8.354   4.590   2.023
 4474TIP3   OH213298   7.793   4.584   0.937
 4474TIP3    H113299   7.792   4.513   1.002
 4474TIP3    H213300   7.818   4.540   0.854
 4475TIP3   OH213301   7.803   4.210   1.782
 4475TIP3    H113302   7.710   4.184   1.792
 4475TIP3    H213303   7.839   4.132   1.735
 4476TIP3   OH213304   6.931   4.441   1.538
 4476TIP3    H113305   6.933   4.519   1.480
 4476TIP3    H213306   6.837   4.418   1.535
 4477TIP3   OH213307   6.496   3.742   1.236
 4477TIP3    H113308   6.540   3.827   1.255
 4477TIP3    H213309   6.417   3.748   1.295
 4478TIP3   OH213310   7.070   4.205   1.478
 4478TIP3    H113311   7.037   4.295   1.497
 4478TIP3    H213312   7.033   4.154   1.551
 4479TIP3   OH213313   7.200   4.786   2.002
 4479TIP3    H113314   7.244   4.855   1.947
 4479TIP3    H213315   7.277   4.747   2.046
 4480TIP3   OH213316   6.852   4.677   1.386
 4480TIP3    H113317   6.765   4.686   1.430
 4480TIP3    H213318   6.883   4.770   1.386
 4481TIP3   OH213319   7.591   4.418   1.958
 4481TIP3    H113320   7.584   4.413   2.056
 4481TIP3    H213321   7.668   4.362   1.941
 4482TIP3   OH213322   7.562   4.304   0.843
 4482TIP3    H113323   7.613   4.284   0.924
 4482TIP3    H213324   7.472   4.281   0.872
 4483TIP3   OH213325   7.836   4.954   2.014
 4483TIP3    H113326   7.759   4.895   2.004
 4483TIP3    H213327   7.822   5.016   1.939
 4484TIP3   OH213328   7.893   4.779   0.681
 4484TIP3    H113329   7.925   4.812   0.596
 4484TIP3    H213330   7.818   4.838   0.702
 4485TIP3   OH213331   6.924   3.558   2.527
 4485TIP3    H113332   6.829   3.568   2.547
 4485TIP3    H213333   6.953   3.502   2.601
 4486TIP3   OH213334   7.723   4.243   1.061
 4486TIP3    H113335   7.714   4.176   1.132
 4486TIP3    H213336   7.820   4.241   1.047
 4487TIP3   OH213337   6.650   4.656   2.165
 4487TIP3    H113338   6.695   4.571   2.165
 4487TIP3    H213339   6.652   4.677   2.259
 4488TIP3   OH213340   6.930   4.292   0.844
 4488TIP3    H113341   6.941   4.202   0.808
 4488TIP3    H213342   6.910   4.273   0.937
 4489TIP3   OH213343   6.874   4.294   1.118
 4489TIP3    H113344   6.949   4.267   1.173
 4489TIP3    H213345   6.880   4.392   1.121
 4490TIP3   OH213346   6.613   3.989   1.317
 4490TIP3    H113347   6.545   4.033   1.373
 4490TIP3    H213348   6.626   4.058   1.249
 4491TIP3   OH213349   7.757   3.627   2.212
 4491TIP3    H113350   7.842   3.660   2.244
 4491TIP3    H213351   7.744   3.545   2.263
 4492TIP3   OH213352   7.641   3.376   1.373
 4492TIP3    H113353   7.625   3.399   1.280
 4492TIP3    H213354   7.678   3.460   1.409
 4493TIP3   OH213355   7.142   4.493   1.066
 4493TIP3    H113356   7.054   4.521   1.099
 4493TIP3    H213357   7.156   4.556   0.994
 4494TIP3   OH213358   7.332   3.554   1.476
 4494TIP3    H113359   7.395   3.627   1.458
 4494TIP3    H213360   7.335   3.549   1.574
 4495TIP3   OH213361   7.598   3.875   2.281
 4495TIP3    H113362   7.612   3.925   2.364
 4495TIP3    H213363   7.651   3.795   2.294
 4496TIP3   OH213364   7.475   3.285   1.581
 4496TIP3    H113365   7.464   3.364   1.637
 4496TIP3    H213366   7.535   3.320   1.511
 4497TIP3   OH213367   6.884   4.568   1.129
 4497TIP3    H113368   6.854   4.636   1.065
 4497TIP3    H213369   6.868   4.612   1.215
 4498TIP3   OH213370   6.984   3.280   1.369
 4498TIP3    H113371   6.982   3.371   1.404
 4498TIP3    H213372   7.080   3.262   1.376
 4499TIP3   OH213373   8.239   3.772   2.278
 4499TIP3    H113374   8.141   3.767   2.271
 4499TIP3    H213375   8.265   3.756   2.186
 4500TIP3   OH213376   7.887   3.970   1.654
 4500TIP3    H113377   7.811   3.910   1.663
 4500TIP3    H213378   7.957   3.922   1.704
 4501TIP3   OH213379   6.601   4.199   1.123
 4501TIP3    H113380   6.668   4.269   1.130
 4501TIP3    H213381   6.646   4.143   1.056
 4502TIP3   OH213382   6.547   3.473   1.257
 4502TIP3    H113383   6.544   3.570   1.252
 4502TIP3    H213384   6.466   3.448   1.211
 4503TIP3   OH213385   7.858   4.928   1.604
 4503TIP3    H113386   7.815   4.974   1.529
 4503TIP3    H213387   7.952   4.946   1.582
 4504TIP3   OH213388   6.935   3.194   2.130
 4504TIP3    H113389   6.903   3.161   2.043
 4504TIP3    H213390   6.923   3.115   2.187
 4505TIP3   OH213391   6.478   4.419   1.513
 4505TIP3    H113392   6.399   4.444   1.564
 4505TIP3    H213393   6.453   4.453   1.424
 4506TIP3   OH213394   6.643   4.941   2.574
 4506TIP3    H113395   6.714   4.939   2.641
 4506TIP3    H213396   6.610   4.849   2.578
 4507TIP3   OH213397   7.116   4.925   2.623
 4507TIP3    H113398   7.208   4.901   2.639
 4507TIP3    H213399   7.094   4.871   2.547
 4508TIP3   OH213400   7.097   4.492   0.761
 4508TIP3    H113401   7.037   4.422   0.795
 4508TIP3    H213402   7.169   4.437   0.725
 4509TIP3   OH213403   7.746   4.827   2.362
 4509TIP3    H113404   7.740   4.755   2.429
 4509TIP3    H213405   7.827   4.875   2.390
 4510TIP3   OH213406   7.529   4.535   0.673
 4510TIP3    H113407   7.578   4.476   0.732
 4510TIP3    H213408   7.586   4.535   0.592
 4511TIP3   OH213409   6.764   4.364   2.787
 4511TIP3    H113410   6.784   4.276   2.824
 4511TIP3    H213411   6.677   4.351   2.744
 4512TIP3   OH213412   6.736   4.013   0.975
 4512TIP3    H113413   6.792   3.977   1.046
 4512TIP3    H213414   6.802   4.017   0.902
 4513TIP3   OH213415   7.370   4.443   2.553
 4513TIP3    H113416   7.328   4.451   2.465
 4513TIP3    H213417   7.400   4.350   2.553
 4514TIP3   OH213418   7.249   4.212   0.780
 4514TIP3    H113419   7.249   4.223   0.878
 4514TIP3    H213420   7.245   4.114   0.774
 4515TIP3   OH213421   7.863   4.451   2.165
 4515TIP3    H113422   7.936   4.495   2.117
 4515TIP3    H213423   7.790   4.514   2.148
 4516TIP3   OH213424   6.949   3.913   1.200
 4516TIP3    H113425   6.919   3.868   1.281
 4516TIP3    H213426   6.983   3.838   1.147
 4517TIP3   OH213427   7.218   3.979   2.430
 4517TIP3    H113428   7.139   4.037   2.436
 4517TIP3    H213429   7.263   4.012   2.350
 4518TIP3   OH213430   7.045   3.707   1.039
 4518TIP3    H113431   7.018   3.710   0.944
 4518TIP3    H213432   7.142   3.713   1.030
 4519TIP3   OH213433   7.733   4.384   2.560
 4519TIP3    H113434   7.809   4.356   2.507
 4519TIP3    H213435   7.727   4.313   2.627
 4520TIP3   OH213436   7.876   4.039   0.691
 4520TIP3    H113437   7.839   3.988   0.618
 4520TIP3    H213438   7.839   4.128   0.673
 4521TIP3   OH213439   7.357   3.761   2.549
 4521TIP3    H113440   7.338   3.685   2.491
 4521TIP3    H213441   7.295   3.829   2.516
 4522TIP3   OH213442   7.340   3.547   2.355
 4522TIP3    H113443   7.366   3.593   2.273
 4522TIP3    H213444   7.246   3.527   2.338
 4523TIP3   OH213445   7.371   4.090   2.231
 4523TIP3    H113446   7.452   4.097   2.178
 4523TIP3    H213447   7.313   4.156   2.187
 4524TIP3   OH213448   7.973   4.045   2.636
 4524TIP3    H113449   8.003   3.964   2.591
 4524TIP3    H213450   8.024   4.113   2.590
 4525TIP3   OH213451   7.991   4.310   2.355
 4525TIP3    H113452   7.934   4.362   2.294
 4525TIP3    H213453   8.079   4.328   2.314
 4526TIP3   OH213454   7.473   3.316   2.426
 4526TIP3    H113455   7.424   3.398   2.402
 4526TIP3    H213456   7.404   3.248   2.414
 4527TIP3   OH213457   7.602   3.821   2.645
 4527TIP3    H113458   7.577   3.809   2.739
 4527TIP3    H213459   7.516   3.797   2.604
 4528TIP3   OH213460   7.843   3.783   2.504
 4528TIP3    H113461   7.761   3.777   2.558
 4528TIP3    H213462   7.908   3.739   2.561
 4529TIP3   OH213463   8.072   3.715   2.666
 4529TIP3    H113464   8.083   3.617   2.669
 4529TIP3    H213465   8.062   3.737   2.760
 4530TIP3   OH213466   7.039   3.651   2.844
 4530TIP3    H113467   7.066   3.570   2.798
 4530TIP3    H213468   7.089   3.644   2.927
 4531TIP3   OH213469   7.568   3.327   2.684
 4531TIP3    H113470   7.634   3.254   2.676
 4531TIP3    H213471   7.527   3.322   2.595
 4532TIP3   OH213472   7.637   3.542   2.840
 4532TIP3    H113473   7.613   3.471   2.777
 4532TIP3    H213474   7.559   3.602   2.835
 4533TIP3   OH213475   6.854   4.772   0.944
 4533TIP3    H113476   6.949   4.768   0.923
 4533TIP3    H213477   6.821   4.817   0.864
 4534TIP3   OH213478   6.333   4.150   1.162
 4534TIP3    H113479   6.428   4.172   1.145
 4534TIP3    H213480   6.327   4.062   1.119
 4535TIP3   OH213481   6.246   4.765   1.572
 4535TIP3    H113482   6.179   4.702   1.535
 4535TIP3    H213483   6.291   4.707   1.637
 4536TIP3   OH213484   6.382   4.620   1.761
 4536TIP3    H113485   6.370   4.541   1.816
 4536TIP3    H213486   6.430   4.679   1.822
 4537TIP3   OH213487   8.110   5.019   1.554
 4537TIP3    H113488   8.149   5.055   1.635
 4537TIP3    H213489   8.179   5.039   1.487
 4538TIP3   OH213490   8.140   5.038   1.845
 4538TIP3    H113491   8.096   4.952   1.832
 4538TIP3    H213492   8.218   5.009   1.895
 4539TIP3   OH213493   8.188   4.712   2.417
 4539TIP3    H113494   8.113   4.721   2.478
 4539TIP3    H213495   8.227   4.802   2.418
 4540TIP3   OH213496   8.004   4.224   1.034
 4540TIP3    H113497   8.069   4.292   1.008
 4540TIP3    H213498   8.047   4.186   1.114
 4541TIP3   OH213499   8.133   4.091   1.238
 4541TIP3    H113500   8.065   4.051   1.297
 4541TIP3    H213501   8.193   4.135   1.301
 4542TIP3   OH213502   8.174   4.479   1.671
 4542TIP3    H113503   8.233   4.415   1.626
 4542TIP3    H213504   8.190   4.562   1.620
 4543TIP3   OH213505   8.017   4.786   1.867
 4543TIP3    H113506   7.943   4.825   1.915
 4543TIP3    H213507   7.972   4.736   1.795
 4544TIP3   OH213508   8.070   4.000   0.884
 4544TIP3    H113509   7.999   4.005   0.816
 4544TIP3    H213510   8.044   4.076   0.940
 4545TIP3   OH213511   7.941   3.673   0.838
 4545TIP3    H113512   7.896   3.713   0.762
 4545TIP3    H213513   7.914   3.579   0.829
 4546TIP3   OH213514   7.944   3.950   1.385
 4546TIP3    H113515   7.953   3.853   1.381
 4546TIP3    H213516   7.932   3.966   1.481
 4547TIP3   OH213517   6.571   4.024   2.130
 4547TIP3    H113518   6.569   3.993   2.037
 4547TIP3    H213519   6.668   4.024   2.147
 4548TIP3   OH213520   8.233   4.374   2.243
 4548TIP3    H113521   8.306   4.309   2.233
 4548TIP3    H213522   8.255   4.438   2.173
 4549TIP3   OH213523   8.419   4.182   2.274
 4549TIP3    H113524   8.342   4.129   2.306
 4549TIP3    H213525   8.490   4.115   2.280
 4550TIP3   OH213526   7.882   3.408   0.827
 4550TIP3    H113527   7.955   3.376   0.883
 4550TIP3    H213528   7.807   3.350   0.849
 4551TIP3   OH213529   7.940   3.664   1.280
 4551TIP3    H113530   7.981   3.576   1.295
 4551TIP3    H213531   7.998   3.698   1.210
 4552TIP3   OH213532   8.090   3.833   1.782
 4552TIP3    H113533   8.169   3.865   1.732
 4552TIP3    H213534   8.110   3.872   1.869
 4553TIP3   OH213535   8.170   3.984   2.009
 4553TIP3    H113536   8.090   4.022   2.052
 4553TIP3    H213537   8.205   4.062   1.961
 4554TIP3   OH213538   6.778   3.702   2.789
 4554TIP3    H113539   6.875   3.712   2.801
 4554TIP3    H213540   6.764   3.622   2.843
 4555TIP3   OH213541   8.626   3.578   2.566
 4555TIP3    H113542   8.681   3.509   2.523
 4555TIP3    H213543   8.594   3.629   2.489
 4556TIP3   OH213544   8.051   3.414   1.316
 4556TIP3    H113545   8.098   3.399   1.401
 4556TIP3    H213546   7.989   3.339   1.315
 4557TIP3   OH213547   6.750   3.402   2.137
 4557TIP3    H113548   6.812   3.327   2.147
 4557TIP3    H213549   6.812   3.476   2.131
 4558TIP3   OH213550   6.552   3.677   2.210
 4558TIP3    H113551   6.600   3.667   2.125
 4558TIP3    H213552   6.586   3.762   2.240
 4559TIP3   OH213553   8.490   3.714   2.375
 4559TIP3    H113554   8.400   3.752   2.375
 4559TIP3    H213555   8.476   3.643   2.309
 4560TIP3   OH213556   8.132   3.350   0.951
 4560TIP3    H113557   8.170   3.280   0.895
 4560TIP3    H213558   8.196   3.422   0.942
 4561TIP3   OH213559   6.535   3.183   1.714
 4561TIP3    H113560   6.441   3.177   1.736
 4561TIP3    H213561   6.534   3.239   1.633
 4562TIP3   OH213562   7.694   4.885   1.218
 4562TIP3    H113563   7.741   4.864   1.135
 4562TIP3    H213564   7.758   4.944   1.261
 4563TIP3   OH213565   6.755   3.255   2.524
 4563TIP3    H113566   6.705   3.254   2.607
 4563TIP3    H213567   6.689   3.296   2.464
 4564TIP3   OH213568   6.796   4.687   2.610
 4564TIP3    H113569   6.707   4.652   2.591
 4564TIP3    H213570   6.811   4.651   2.699
 4565TIP3   OH213571   6.976   4.717   2.148
 4565TIP3    H113572   6.919   4.778   2.099
 4565TIP3    H213573   7.061   4.734   2.102
 4566TIP3   OH213574   7.417   4.967   2.290
 4566TIP3    H113575   7.462   4.965   2.377
 4566TIP3    H213576   7.483   5.014   2.236
 4567TIP3   OH213577   7.596   5.114   2.146
 4567TIP3    H113578   7.665   5.064   2.100
 4567TIP3    H213579   7.651   5.170   2.205
 4568TIP3   OH213580   8.392   3.477   2.248
 4568TIP3    H113581   8.302   3.475   2.210
 4568TIP3    H213582   8.421   3.384   2.233
 4569TIP3   OH213583   6.859   4.959   2.040
 4569TIP3    H113584   6.762   4.967   2.044
 4569TIP3    H213585   6.874   4.988   1.948
 4570TIP3   OH213586   7.310   4.982   1.832
 4570TIP3    H113587   7.247   5.002   1.760
 4570TIP3    H213588   7.326   5.071   1.869
 4571TIP3   OH213589   7.581   4.926   1.884
 4571TIP3    H113590   7.488   4.940   1.859
 4571TIP3    H213591   7.626   4.996   1.834
 4572TIP3   OH213592   7.789   5.116   1.795
 4572TIP3    H113593   7.775   5.199   1.746
 4572TIP3    H213594   7.816   5.055   1.723
 4573TIP3   OH213595   6.569   4.774   1.922
 4573TIP3    H113596   6.593   4.740   2.012
 4573TIP3    H213597   6.636   4.726   1.868
 4574TIP3   OH213598   6.755   4.640   1.776
 4574TIP3    H113599   6.772   4.554   1.821
 4574TIP3    H213600   6.845   4.676   1.768
 4575TIP3   OH213601   7.022   4.737   1.780
 4575TIP3    H113602   7.050   4.647   1.756
 4575TIP3    H213603   7.076   4.750   1.860
 4576TIP3   OH213604   7.600   3.393   1.868
 4576TIP3    H113605   7.553   3.324   1.919
 4576TIP3    H213606   7.668   3.343   1.820
 4577TIP3   OH213607   8.122   3.270   1.770
 4577TIP3    H113608   8.158   3.324   1.697
 4577TIP3    H213609   8.027   3.289   1.765
 4578TIP3   OH213610   8.216   3.371   1.534
 4578TIP3    H113611   8.291   3.322   1.493
 4578TIP3    H213612   8.247   3.464   1.521
 4579TIP3   OH213613   6.846   3.102   1.882
 4579TIP3    H113614   6.753   3.069   1.882
 4579TIP3    H213615   6.895   3.017   1.879
 4580TIP3   OH213616   6.635   2.969   1.529
 4580TIP3    H113617   6.663   3.027   1.456
 4580TIP3    H213618   6.604   3.034   1.595
 4581TIP3   OH213619   7.290   3.132   1.761
 4581TIP3    H113620   7.349   3.184   1.703
 4581TIP3    H213621   7.307   3.172   1.847
 4582TIP3   OH213622   7.841   3.279   1.746
 4582TIP3    H113623   7.831   3.245   1.656
 4582TIP3    H213624   7.825   3.199   1.800
 4583TIP3   OH213625   7.867   3.201   1.308
 4583TIP3    H113626   7.780   3.245   1.318
 4583TIP3    H213627   7.850   3.117   1.355
 4584TIP3   OH213628   6.349   4.541   1.311
 4584TIP3    H113629   6.265   4.506   1.276
 4584TIP3    H213630   6.338   4.635   1.288
 4585TIP3   OH213631   6.749   3.128   1.294
 4585TIP3    H113632   6.797   3.067   1.236
 4585TIP3    H213633   6.821   3.183   1.330
 4586TIP3   OH213634   7.262   3.305   1.391
 4586TIP3    H113635   7.321   3.257   1.451
 4586TIP3    H213636   7.284   3.397   1.416
 4587TIP3   OH213637   7.122   4.733   0.890
 4587TIP3    H113638   7.211   4.754   0.855
 4587TIP3    H213639   7.100   4.657   0.832
 4588TIP3   OH213640   7.835   4.849   0.986
 4588TIP3    H113641   7.834   4.751   0.975
 4588TIP3    H213642   7.791   4.875   0.903
 4589TIP3   OH213643   7.056   3.370   2.766
 4589TIP3    H113644   7.020   3.306   2.830
 4589TIP3    H213645   7.149   3.377   2.797
 4590TIP3   OH213646   7.302   3.381   2.894
 4590TIP3    H113647   7.384   3.354   2.850
 4590TIP3    H213648   7.289   3.309   2.958
 4591TIP3   OH213649   6.427   4.568   0.948
 4591TIP3    H113650   6.428   4.593   1.041
 4591TIP3    H213651   6.515   4.525   0.936
 4592TIP3   OH213652   8.128   3.444   2.679
 4592TIP3    H113653   8.147   3.410   2.769
 4592TIP3    H213654   8.216   3.436   2.635
 4593TIP3   OH213655   8.066   4.993   2.174
 4593TIP3    H113656   7.990   4.960   2.123
 4593TIP3    H213657   8.047   5.088   2.174
 4594TIP3   OH213658   8.633   4.321   1.673
 4594TIP3    H113659   8.622   4.230   1.708
 4594TIP3    H213660   8.729   4.331   1.675
 4595TIP3   OH213661   8.602   4.679   1.419
 4595TIP3    H113662   8.591   4.581   1.422
 4595TIP3    H213663   8.697   4.684   1.399
 4596TIP3   OH213664   8.312   3.873   1.189
 4596TIP3    H113665   8.264   3.955   1.210
 4596TIP3    H213666   8.238   3.819   1.155
 4597TIP3   OH213667   8.368   4.165   1.367
 4597TIP3    H113668   8.411   4.083   1.401
 4597TIP3    H213669   8.423   4.186   1.290
 4598TIP3   OH213670   9.123   5.072   1.024
 4598TIP3    H113671   9.202   5.086   0.968
 4598TIP3    H213672   9.162   5.071   1.112
 4599TIP3   OH213673   9.081   4.604   1.365
 4599TIP3    H113674   9.086   4.540   1.293
 4599TIP3    H213675   9.176   4.607   1.390
 4600TIP3   OH213676   8.887   3.752   1.356
 4600TIP3    H113677   8.872   3.821   1.288
 4600TIP3    H213678   8.840   3.676   1.315
 4601TIP3   OH213679   8.504   3.951   1.459
 4601TIP3    H113680   8.565   3.949   1.535
 4601TIP3    H213681   8.545   3.890   1.396
 4602TIP3   OH213682   8.916   4.170   1.252
 4602TIP3    H113683   9.010   4.148   1.269
 4602TIP3    H213684   8.882   4.082   1.224
 4603TIP3   OH213685   8.877   3.734   1.807
 4603TIP3    H113686   8.815   3.764   1.738
 4603TIP3    H213687   8.824   3.753   1.888
 4604TIP3   OH213688   8.955   4.520   1.590
 4604TIP3    H113689   8.896   4.587   1.632
 4604TIP3    H213690   8.995   4.571   1.518
 4605TIP3   OH213691   8.753   3.822   1.578
 4605TIP3    H113692   8.792   3.907   1.604
 4605TIP3    H213693   8.811   3.796   1.503
 4606TIP3   OH213694   8.805   4.712   1.700
 4606TIP3    H113695   8.775   4.794   1.657
 4606TIP3    H213696   8.725   4.693   1.754
 4607TIP3   OH213697   8.208   4.398   0.934
 4607TIP3    H113698   8.162   4.427   0.853
 4607TIP3    H213699   8.219   4.481   0.983
 4608TIP3   OH213700   8.721   4.313   1.133
 4608TIP3    H113701   8.683   4.249   1.070
 4608TIP3    H213702   8.794   4.260   1.173
 4609TIP3   OH213703   8.850   4.730   1.291
 4609TIP3    H113704   8.825   4.679   1.212
 4609TIP3    H213705   8.933   4.686   1.320
 4610TIP3   OH213706   8.901   4.263   1.519
 4610TIP3    H113707   8.895   4.252   1.423
 4610TIP3    H213708   8.908   4.360   1.529
 4611TIP3   OH213709   9.013   4.832   1.836
 4611TIP3    H113710   8.948   4.890   1.881
 4611TIP3    H213711   8.951   4.776   1.784
 4612TIP3   OH213712   8.772   4.377   1.942
 4612TIP3    H113713   8.770   4.462   1.990
 4612TIP3    H213714   8.678   4.366   1.920
 4613TIP3   OH213715   9.082   4.865   0.851
 4613TIP3    H113716   9.101   4.922   0.928
 4613TIP3    H213717   8.995   4.898   0.828
 4614TIP3   OH213718   8.806   5.000   1.924
 4614TIP3    H113719   8.776   4.994   1.831
 4614TIP3    H213720   8.725   4.971   1.973
 4615TIP3   OH213721   8.612   4.132   0.950
 4615TIP3    H113722   8.541   4.181   0.903
 4615TIP3    H213723   8.563   4.055   0.982
 4616TIP3   OH213724   8.391   4.527   1.867
 4616TIP3    H113725   8.332   4.504   1.793
 4616TIP3    H213726   8.426   4.439   1.895
 4617TIP3   OH213727   8.263   4.707   1.542
 4617TIP3    H113728   8.299   4.694   1.453
 4617TIP3    H213729   8.217   4.792   1.532
 4618TIP3   OH213730   9.203   4.957   1.689
 4618TIP3    H113731   9.200   5.049   1.721
 4618TIP3    H213732   9.132   4.915   1.742
 4619TIP3   OH213733   8.424   4.936   1.016
 4619TIP3    H113734   8.461   4.927   1.107
 4619TIP3    H213735   8.353   4.868   1.025
 4620TIP3   OH213736   8.592   4.713   1.869
 4620TIP3    H113737   8.643   4.682   1.947
 4620TIP3    H213738   8.520   4.647   1.864
 4621TIP3   OH213739   8.985   3.528   1.656
 4621TIP3    H113740   8.897   3.502   1.624
 4621TIP3    H213741   8.963   3.612   1.699
 4622TIP3   OH213742   8.934   4.028   1.654
 4622TIP3    H113743   8.887   4.043   1.737
 4622TIP3    H213744   8.916   4.113   1.606
 4623TIP3   OH213745   8.807   3.933   1.166
 4623TIP3    H113746   8.718   3.901   1.194
 4623TIP3    H213747   8.810   3.899   1.075
 4624TIP3   OH213748   8.818   4.071   1.964
 4624TIP3    H113749   8.772   4.156   1.962
 4624TIP3    H213750   8.752   4.018   1.915
 4625TIP3   OH213751   8.773   3.561   0.578
 4625TIP3    H113752   8.749   3.547   0.671
 4625TIP3    H213753   8.697   3.612   0.545
 4626TIP3   OH213754   8.338   3.595   1.449
 4626TIP3    H113755   8.410   3.630   1.506
 4626TIP3    H213756   8.385   3.568   1.369
 4627TIP3   OH213757   8.315   3.580   0.969
 4627TIP3    H113758   8.357   3.621   0.890
 4627TIP3    H213759   8.252   3.651   0.993
 4628TIP3   OH213760   8.576   3.807   1.232
 4628TIP3    H113761   8.479   3.816   1.213
 4628TIP3    H213762   8.593   3.713   1.217
 4629TIP3   OH213763   8.829   3.833   0.910
 4629TIP3    H113764   8.895   3.864   0.847
 4629TIP3    H213765   8.750   3.838   0.852
 4630TIP3   OH213766   8.661   3.841   0.702
 4630TIP3    H113767   8.591   3.797   0.651
 4630TIP3    H213768   8.725   3.863   0.631
 4631TIP3   OH213769   8.757   4.628   2.081
 4631TIP3    H113770   8.835   4.660   2.132
 4631TIP3    H213771   8.690   4.625   2.152
 4632TIP3   OH213772   8.739   3.568   1.202
 4632TIP3    H113773   8.704   3.495   1.257
 4632TIP3    H213774   8.797   3.523   1.141
 4633TIP3   OH213775   8.894   4.394   0.712
 4633TIP3    H113776   8.844   4.309   0.714
 4633TIP3    H213777   8.911   4.411   0.807
 4634TIP3   OH213778   9.289   4.690   1.728
 4634TIP3    H113779   9.319   4.664   1.816
 4634TIP3    H213780   9.264   4.783   1.740
 4635TIP3   OH213781   8.646   4.408   1.389
 4635TIP3    H113782   8.658   4.364   1.303
 4635TIP3    H213783   8.641   4.336   1.453
 4636TIP3   OH213784   8.498   4.318   2.009
 4636TIP3    H113785   8.523   4.293   2.100
 4636TIP3    H213786   8.444   4.242   1.980
 4637TIP3   OH213787   9.212   4.391   2.057
 4637TIP3    H113788   9.122   4.360   2.029
 4637TIP3    H213789   9.260   4.310   2.032
 4638TIP3   OH213790   8.725   4.692   1.015
 4638TIP3    H113791   8.717   4.775   0.964
 4638TIP3    H213792   8.632   4.672   1.031
 4639TIP3   OH213793   8.290   4.001   0.720
 4639TIP3    H113794   8.335   4.085   0.743
 4639TIP3    H213795   8.213   4.005   0.782
 4640TIP3   OH213796   8.898   4.477   0.989
 4640TIP3    H113797   8.843   4.558   0.986
 4640TIP3    H213798   8.839   4.418   1.040
 4641TIP3   OH213799   8.996   5.038   1.491
 4641TIP3    H113800   9.033   5.108   1.433
 4641TIP3    H213801   9.076   5.004   1.535
 4642TIP3   OH213802   8.655   4.930   0.872
 4642TIP3    H113803   8.567   4.935   0.917
 4642TIP3    H213804   8.680   5.025   0.875
 4643TIP3   OH213805   8.727   3.783   2.029
 4643TIP3    H113806   8.636   3.814   2.024
 4643TIP3    H213807   8.727   3.722   2.104
 4644TIP3   OH213808   8.447   4.924   1.650
 4644TIP3    H113809   8.448   4.827   1.647
 4644TIP3    H213810   8.486   4.943   1.736
 4645TIP3   OH213811   8.637   4.545   0.664
 4645TIP3    H113812   8.728   4.513   0.673
 4645TIP3    H213813   8.650   4.640   0.645
 4646TIP3   OH213814   8.405   4.246   0.813
 4646TIP3    H113815   8.338   4.292   0.869
 4646TIP3    H213816   8.418   4.314   0.745
 4647TIP3   OH213817   8.621   4.816   0.621
 4647TIP3    H113818   8.671   4.886   0.573
 4647TIP3    H213819   8.625   4.852   0.712
 4648TIP3   OH213820   8.784   3.545   0.860
 4648TIP3    H113821   8.751   3.623   0.908
 4648TIP3    H213822   8.866   3.584   0.821
 4649TIP3   OH213823   8.377   4.476   0.616
 4649TIP3    H113824   8.450   4.529   0.656
 4649TIP3    H213825   8.431   4.406   0.573
 4650TIP3   OH213826   8.349   3.733   0.743
 4650TIP3    H113827   8.339   3.831   0.742
 4650TIP3    H213828   8.267   3.704   0.701
 4651TIP3   OH213829   8.720   3.450   1.617
 4651TIP3    H113830   8.693   3.418   1.529
 4651TIP3    H213831   8.714   3.370   1.672
 4652TIP3   OH213832   8.423   5.206   2.069
 4652TIP3    H113833   8.511   5.197   2.111
 4652TIP3    H213834   8.396   5.113   2.064
 4653TIP3   OH213835   8.957   5.161   2.086
 4653TIP3    H113836   8.986   5.077   2.125
 4653TIP3    H213837   8.889   5.125   2.024
 4654TIP3   OH213838   8.556   4.614   2.269
 4654TIP3    H113839   8.572   4.517   2.270
 4654TIP3    H213840   8.468   4.617   2.224
 4655TIP3   OH213841   8.508   4.257   0.531
 4655TIP3    H113842   8.571   4.246   0.604
 4655TIP3    H213843   8.563   4.221   0.459
 4656TIP3   OH213844   9.148   4.693   2.044
 4656TIP3    H113845   9.116   4.714   1.953
 4656TIP3    H213846   9.173   4.600   2.037
 4657TIP3   OH213847   8.675   4.352   2.251
 4657TIP3    H113848   8.746   4.296   2.221
 4657TIP3    H213849   8.705   4.380   2.340
 4658TIP3   OH213850   8.745   4.162   0.691
 4658TIP3    H113851   8.711   4.125   0.775
 4658TIP3    H213852   8.770   4.082   0.641
 4659TIP3   OH213853   9.018   4.267   1.937
 4659TIP3    H113854   8.922   4.290   1.934
 4659TIP3    H213855   9.048   4.293   1.848
 4660TIP3   OH213856   8.847   3.945   0.529
 4660TIP3    H113857   8.810   3.952   0.439
 4660TIP3    H213858   8.937   3.979   0.516
 4661TIP3   OH213859   9.108   4.026   2.049
 4661TIP3    H113860   9.122   3.940   2.003
 4661TIP3    H213861   9.030   4.061   2.001
 4662TIP3   OH213862   9.126   3.821   1.866
 4662TIP3    H113863   9.161   3.816   1.776
 4662TIP3    H213864   9.036   3.785   1.853
 4663TIP3   OH213865   9.123   4.350   1.708
 4663TIP3    H113866   9.110   4.288   1.636
 4663TIP3    H213867   9.070   4.426   1.676
 4664TIP3   OH213868   8.995   4.148   2.268
 4664TIP3    H113869   8.928   4.077   2.277
 4664TIP3    H213870   9.031   4.126   2.179
 4665TIP3   OH213871   8.846   3.921   2.323
 4665TIP3    H113872   8.859   3.845   2.264
 4665TIP3    H213873   8.882   3.890   2.408
 4666TIP3   OH213874   8.120   4.400   0.659
 4666TIP3    H113875   8.209   4.438   0.647
 4666TIP3    H213876   8.126   4.318   0.606
 4667TIP3   OH213877   8.048   5.003   1.073
 4667TIP3    H113878   7.975   4.949   1.036
 4667TIP3    H213879   8.104   4.930   1.108
 4668TIP3   OH213880   8.363   4.292   1.617
 4668TIP3    H113881   8.363   4.250   1.529
 4668TIP3    H213882   8.459   4.306   1.633
 4669TIP3   OH213883   8.578   3.965   2.291
 4669TIP3    H113884   8.676   3.960   2.286
 4669TIP3    H213885   8.559   3.879   2.334
 4670TIP3   OH213886   8.538   3.658   1.626
 4670TIP3    H113887   8.603   3.586   1.635
 4670TIP3    H213888   8.600   3.734   1.620
 4671TIP3   OH213889   8.316   3.933   1.673
 4671TIP3    H113890   8.360   3.924   1.587
 4671TIP3    H213891   8.388   3.976   1.723
 4672TIP3   OH213892   8.332   3.430   1.193
 4672TIP3    H113893   8.239   3.431   1.224
 4672TIP3    H213894   8.329   3.492   1.117
 4673TIP3   OH213895   8.545   3.508   2.009
 4673TIP3    H113896   8.496   3.513   2.092
 4673TIP3    H213897   8.484   3.554   1.948
 4674TIP3   OH213898   8.592   4.948   2.097
 4674TIP3    H113899   8.505   4.916   2.067
 4674TIP3    H213900   8.594   4.916   2.188
 4675TIP3   OH213901   8.772   4.980   1.645
 4675TIP3    H113902   8.713   5.044   1.601
 4675TIP3    H213903   8.854   4.996   1.593
 4676TIP3   OH213904   9.233   5.231   1.754
 4676TIP3    H113905   9.262   5.214   1.846
 4676TIP3    H213906   9.314   5.263   1.712
 4677TIP3   OH213907   8.456   5.250   1.657
 4677TIP3    H113908   8.366   5.272   1.627
 4677TIP3    H213909   8.444   5.255   1.752
 4678TIP3   OH213910   8.689   5.217   1.517
 4678TIP3    H113911   8.603   5.228   1.564
 4678TIP3    H213912   8.663   5.241   1.426
 4679TIP3   OH213913   9.094   5.240   1.311
 4679TIP3    H113914   9.022   5.254   1.246
 4679TIP3    H213915   9.103   5.329   1.349
 4680TIP3   OH213916   9.357   5.206   1.362
 4680TIP3    H113917   9.260   5.196   1.349
 4680TIP3    H213918   9.375   5.280   1.303
 4681TIP3   OH213919   8.361   5.041   1.416
 4681TIP3    H113920   8.395   5.007   1.501
 4681TIP3    H213921   8.410   4.983   1.354
 4682TIP3   OH213922   8.548   4.904   1.260
 4682TIP3    H113923   8.554   4.819   1.308
 4682TIP3    H213924   8.641   4.933   1.258
 4683TIP3   OH213925   8.823   5.001   1.258
 4683TIP3    H113926   8.841   4.905   1.248
 4683TIP3    H213927   8.858   5.015   1.348
 4684TIP3   OH213928   8.637   3.363   1.361
 4684TIP3    H113929   8.543   3.336   1.363
 4684TIP3    H213930   8.680   3.275   1.365
 4685TIP3   OH213931   8.436   3.226   1.012
 4685TIP3    H113932   8.456   3.288   0.941
 4685TIP3    H213933   8.400   3.286   1.081
 4686TIP3   OH213934   8.162   4.780   0.755
 4686TIP3    H113935   8.068   4.753   0.757
 4686TIP3    H213936   8.158   4.862   0.805
 4687TIP3   OH213937   8.540   3.385   0.790
 4687TIP3    H113938   8.580   3.327   0.722
 4687TIP3    H213939   8.616   3.435   0.823
 4688TIP3   OH213940   8.810   3.619   2.249
 4688TIP3    H113941   8.787   3.552   2.315
 4688TIP3    H213942   8.904   3.635   2.271
 4689TIP3   OH213943   9.051   3.646   2.374
 4689TIP3    H113944   9.147   3.650   2.355
 4689TIP3    H213945   9.050   3.573   2.439
 4690TIP3   OH213946   8.238   4.835   0.497
 4690TIP3    H113947   8.222   4.840   0.594
 4690TIP3    H213948   8.329   4.804   0.493
 4691TIP3   OH213949  -0.012   4.893   3.137
 4691TIP3    H113950  -0.034   4.987   3.122
 4691TIP3    H213951  -0.098   4.853   3.120
 4692TIP3   OH213952   0.001   4.887   3.513
 4692TIP3    H113953   0.023   4.869   3.606
 4692TIP3    H213954  -0.053   4.810   3.489
 4693TIP3   OH213955   0.231   5.197   3.203
 4693TIP3    H113956   0.217   5.130   3.271
 4693TIP3    H213957   0.257   5.275   3.256
 4694TIP3   OH213958  -0.120   5.665   3.214
 4694TIP3    H113959  -0.075   5.586   3.178
 4694TIP3    H213960  -0.146   5.635   3.302
 4695TIP3   OH213961  -0.223   5.064   3.548
 4695TIP3    H113962  -0.140   5.025   3.515
 4695TIP3    H213963  -0.189   5.146   3.588
 4696TIP3   OH213964   0.798   4.442   3.567
 4696TIP3    H113965   0.828   4.524   3.611
 4696TIP3    H213966   0.823   4.461   3.475
 4697TIP3   OH213967   0.198   4.624   3.605
 4697TIP3    H113968   0.242   4.539   3.625
 4697TIP3    H213969   0.169   4.609   3.513
 4698TIP3   OH213970  -0.425   4.277   3.571
 4698TIP3    H113971  -0.469   4.356   3.534
 4698TIP3    H213972  -0.468   4.207   3.518
 4699TIP3   OH213973   0.230   4.373   3.189
 4699TIP3    H113974   0.301   4.357   3.256
 4699TIP3    H213975   0.285   4.409   3.116
 4700TIP3   OH213976  -0.385   4.691   3.482
 4700TIP3    H113977  -0.292   4.659   3.486
 4700TIP3    H213978  -0.431   4.615   3.443
 4701TIP3   OH213979   0.872   4.648   3.738
 4701TIP3    H113980   0.789   4.697   3.720
 4701TIP3    H213981   0.889   4.675   3.829
 4702TIP3   OH213982  -0.115   5.119   3.007
 4702TIP3    H113983  -0.159   5.100   2.923
 4702TIP3    H213984  -0.160   5.202   3.033
 4703TIP3   OH213985   0.440   4.377   3.361
 4703TIP3    H113986   0.436   4.325   3.443
 4703TIP3    H213987   0.495   4.452   3.387
 4704TIP3   OH213988   0.305   5.439   3.368
 4704TIP3    H113989   0.217   5.430   3.412
 4704TIP3    H213990   0.295   5.527   3.326
 4705TIP3   OH213991   0.593   4.342   3.733
 4705TIP3    H113992   0.506   4.374   3.703
 4705TIP3    H213993   0.653   4.374   3.663
 4706TIP3   OH213994  -0.110   3.982   3.713
 4706TIP3    H113995  -0.117   3.886   3.733
 4706TIP3    H213996  -0.183   4.016   3.768
 4707TIP3   OH213997   0.008   5.483   3.047
 4707TIP3    H113998   0.059   5.403   3.024
 4707TIP3    H213999   0.066   5.552   3.008
 4708TIP3   OH214000   0.151   5.270   2.948
 4708TIP3    H114001   0.102   5.194   2.916
 4708TIP3    H214002   0.186   5.237   3.034
 4709TIP3   OH214003   0.529   5.355   3.715
 4709TIP3    H114004   0.517   5.277   3.656
 4709TIP3    H214005   0.510   5.429   3.654
 4710TIP3   OH214006  -0.188   4.734   2.963
 4710TIP3    H114007  -0.262   4.795   2.946
 4710TIP3    H214008  -0.132   4.750   2.885
 4711TIP3   OH214009  -0.205   4.471   2.762
 4711TIP3    H114010  -0.157   4.556   2.774
 4711TIP3    H214011  -0.170   4.449   2.672
 4712TIP3   OH214012   0.723   4.989   3.558
 4712TIP3    H114013   0.641   5.042   3.564
 4712TIP3    H214014   0.753   5.014   3.468
 4713TIP3   OH214015   0.167   4.826   2.943
 4713TIP3    H114016   0.112   4.853   3.020
 4713TIP3    H214017   0.251   4.803   2.987
 4714TIP3   OH214018   0.402   4.870   3.855
 4714TIP3    H114019   0.401   4.954   3.906
 4714TIP3    H214020   0.316   4.877   3.808
 4715TIP3   OH214021  -0.456   4.785   3.726
 4715TIP3    H114022  -0.420   4.757   3.639
 4715TIP3    H214023  -0.417   4.872   3.738
 4716TIP3   OH214024   0.068   5.436   3.493
 4716TIP3    H114025   0.044   5.514   3.544
 4716TIP3    H214026   0.046   5.362   3.554
 4717TIP3   OH214027   0.006   4.686   2.769
 4717TIP3    H114028   0.066   4.746   2.819
 4717TIP3    H214029   0.030   4.710   2.676
 4718TIP3   OH214030  -0.251   5.369   3.047
 4718TIP3    H114031  -0.169   5.415   3.071
 4718TIP3    H214032  -0.300   5.439   3.002
 4719TIP3   OH214033   0.522   3.932   2.815
 4719TIP3    H114034   0.442   3.948   2.869
 4719TIP3    H214035   0.532   4.018   2.769
 4720TIP3   OH214036   0.322   5.299   2.364
 4720TIP3    H114037   0.329   5.396   2.353
 4720TIP3    H214038   0.414   5.271   2.344
 4721TIP3   OH214039   0.765   5.698   3.759
 4721TIP3    H114040   0.764   5.602   3.773
 4721TIP3    H214041   0.682   5.723   3.805
 4722TIP3   OH214042  -0.110   5.462   3.907
 4722TIP3    H114043  -0.103   5.557   3.937
 4722TIP3    H214044  -0.203   5.458   3.880
 4723TIP3   OH214045  -0.338   5.599   2.867
 4723TIP3    H114046  -0.378   5.577   2.781
 4723TIP3    H214047  -0.390   5.677   2.893
 4724TIP3   OH214048  -0.164   5.517   2.489
 4724TIP3    H114049  -0.108   5.447   2.449
 4724TIP3    H214050  -0.124   5.525   2.578
 4725TIP3   OH214051  -0.097   5.555   2.754
 4725TIP3    H114052  -0.182   5.565   2.802
 4725TIP3    H214053  -0.041   5.518   2.824
 4726TIP3   OH214054   0.656   4.830   4.035
 4726TIP3    H114055   0.575   4.843   3.983
 4726TIP3    H214056   0.672   4.734   4.025
 4727TIP3   OH214057  -0.353   4.061   3.846
 4727TIP3    H114058  -0.430   4.023   3.801
 4727TIP3    H214059  -0.361   4.155   3.822
 4728TIP3   OH214060   0.186   4.177   4.039
 4728TIP3    H114061   0.255   4.149   4.103
 4728TIP3    H214062   0.102   4.156   4.086
 4729TIP3   OH214063   0.423   4.605   3.956
 4729TIP3    H114064   0.375   4.601   4.042
 4729TIP3    H214065   0.400   4.694   3.922
 4730TIP3   OH214066   0.086   4.734   2.515
 4730TIP3    H114067   0.053   4.709   2.427
 4730TIP3    H214068   0.165   4.785   2.491
 4731TIP3   OH214069  -0.210   4.150   2.826
 4731TIP3    H114070  -0.221   4.110   2.916
 4731TIP3    H214071  -0.238   4.073   2.773
 4732TIP3   OH214072  -0.426   4.561   3.874
 4732TIP3    H114073  -0.477   4.593   3.949
 4732TIP3    H214074  -0.436   4.638   3.813
 4733TIP3   OH214075  -0.541   4.456   3.383
 4733TIP3    H114076  -0.636   4.467   3.376
 4733TIP3    H214077  -0.517   4.430   3.293
 4734TIP3   OH214078  -0.044   4.545   3.098
 4734TIP3    H114079  -0.092   4.620   3.058
 4734TIP3    H214080   0.019   4.522   3.027
 4735TIP3   OH214081   0.135   4.826   4.190
 4735TIP3    H114082   0.112   4.754   4.253
 4735TIP3    H214083   0.228   4.841   4.213
 4736TIP3   OH214084   0.114   4.576   3.346
 4736TIP3    H114085   0.058   4.611   3.275
 4736TIP3    H214086   0.147   4.495   3.302
 4737TIP3   OH214087  -0.488   4.116   2.816
 4737TIP3    H114088  -0.493   4.067   2.901
 4737TIP3    H214089  -0.573   4.087   2.777
 4738TIP3   OH214090   0.119   4.824   3.767
 4738TIP3    H114091   0.155   4.753   3.709
 4738TIP3    H214092   0.096   4.771   3.847
 4739TIP3   OH214093  -0.195   4.293   3.423
 4739TIP3    H114094  -0.274   4.290   3.481
 4739TIP3    H214095  -0.124   4.286   3.489
 4740TIP3   OH214096   0.286   4.362   3.640
 4740TIP3    H114097   0.252   4.373   3.732
 4740TIP3    H214098   0.222   4.299   3.604
 4741TIP3   OH214099  -0.664   4.411   2.871
 4741TIP3    H114100  -0.703   4.331   2.909
 4741TIP3    H214101  -0.634   4.375   2.786
 4742TIP3   OH214102   0.455   6.049   3.858
 4742TIP3    H114103   0.453   6.072   3.764
 4742TIP3    H214104   0.533   6.099   3.889
 4743TIP3   OH214105  -0.121   4.609   3.533
 4743TIP3    H114106  -0.045   4.574   3.484
 4743TIP3    H214107  -0.109   4.570   3.621
 4744TIP3   OH214108  -0.560   4.103   3.408
 4744TIP3    H114109  -0.634   4.041   3.427
 4744TIP3    H214110  -0.509   4.050   3.346
 4745TIP3   OH214111  -0.146   4.506   3.832
 4745TIP3    H114112  -0.234   4.545   3.842
 4745TIP3    H214113  -0.087   4.569   3.879
 4746TIP3   OH214114  -0.401   4.896   2.911
 4746TIP3    H114115  -0.476   4.832   2.908
 4746TIP3    H214116  -0.413   4.937   3.000
 4747TIP3   OH214117   0.492   5.137   3.551
 4747TIP3    H114118   0.515   5.186   3.470
 4747TIP3    H214119   0.406   5.096   3.526
 4748TIP3   OH214120   0.053   4.212   2.781
 4748TIP3    H114121  -0.044   4.203   2.788
 4748TIP3    H214122   0.068   4.308   2.799
 4749TIP3   OH214123  -0.011   5.208   3.923
 4749TIP3    H114124   0.015   5.202   4.015
 4749TIP3    H214125  -0.049   5.299   3.918
 4750TIP3   OH214126   0.120   4.459   2.883
 4750TIP3    H114127   0.216   4.465   2.901
 4750TIP3    H214128   0.103   4.539   2.829
 4751TIP3   OH214129  -0.251   5.046   2.741
 4751TIP3    H114130  -0.298   5.132   2.747
 4751TIP3    H214131  -0.309   4.990   2.797
 4752TIP3   OH214132  -0.100   4.963   4.238
 4752TIP3    H114133  -0.158   4.894   4.200
 4752TIP3    H214134  -0.013   4.933   4.206
 4753TIP3   OH214135   0.156   5.476   3.814
 4753TIP3    H114136   0.060   5.470   3.829
 4753TIP3    H214137   0.182   5.530   3.892
 4754TIP3   OH214138   0.561   4.550   2.725
 4754TIP3    H114139   0.495   4.505   2.667
 4754TIP3    H214140   0.559   4.638   2.682
 4755TIP3   OH214141   0.779   5.408   3.803
 4755TIP3    H114142   0.681   5.402   3.795
 4755TIP3    H214143   0.805   5.377   3.713
 4756TIP3   OH214144   0.271   5.368   2.633
 4756TIP3    H114145   0.232   5.304   2.695
 4756TIP3    H214146   0.270   5.320   2.549
 4757TIP3   OH214147   0.259   4.998   3.469
 4757TIP3    H114148   0.166   4.972   3.482
 4757TIP3    H214149   0.293   4.919   3.424
 4758TIP3   OH214150  -0.429   4.994   3.159
 4758TIP3    H114151  -0.440   5.088   3.174
 4758TIP3    H214152  -0.485   4.957   3.228
 4759TIP3   OH214153   0.045   5.202   3.651
 4759TIP3    H114154   0.030   5.200   3.748
 4759TIP3    H214155   0.127   5.152   3.642
 4760TIP3   OH214156   0.016   5.097   2.530
 4760TIP3    H114157   0.065   5.070   2.611
 4760TIP3    H214158  -0.074   5.070   2.554
 4761TIP3   OH214159   0.292   5.736   3.700
 4761TIP3    H114160   0.212   5.680   3.695
 4761TIP3    H214161   0.275   5.802   3.629
 4762TIP3   OH214162   0.367   5.575   2.356
 4762TIP3    H114163   0.388   5.646   2.294
 4762TIP3    H214164   0.285   5.614   2.394
 4763TIP3   OH214165   0.175   5.028   2.748
 4763TIP3    H114166   0.165   4.963   2.820
 4763TIP3    H214167   0.272   5.028   2.737
 4764TIP3   OH214168  -0.559   5.048   2.556
 4764TIP3    H114169  -0.550   4.959   2.516
 4764TIP3    H214170  -0.588   5.025   2.645
 4765TIP3   OH214171   0.210   4.413   3.899
 4765TIP3    H114172   0.290   4.452   3.937
 4765TIP3    H214173   0.197   4.333   3.954
 4766TIP3   OH214174   0.083   4.173   3.063
 4766TIP3    H114175   0.084   4.194   2.968
 4766TIP3    H214176   0.130   4.250   3.102
 4767TIP3   OH214177  -0.398   5.270   2.760
 4767TIP3    H114178  -0.489   5.294   2.782
 4767TIP3    H214179  -0.383   5.323   2.680
 4768TIP3   OH214180  -0.229   4.356   3.152
 4768TIP3    H114181  -0.160   4.426   3.145
 4768TIP3    H214182  -0.227   4.342   3.249
 4769TIP3   OH214183   0.047   4.664   3.976
 4769TIP3    H114184   0.070   4.717   4.055
 4769TIP3    H214185   0.103   4.586   3.988
 4770TIP3   OH214186  -0.066   4.073   3.275
 4770TIP3    H114187  -0.067   4.147   3.338
 4770TIP3    H214188  -0.008   4.110   3.205
 4771TIP3   OH214189  -0.520   4.016   3.064
 4771TIP3    H114190  -0.587   4.075   3.100
 4771TIP3    H214191  -0.433   4.053   3.091
 4772TIP3   OH214192   0.691   4.564   3.955
 4772TIP3    H114193   0.593   4.560   3.961
 4772TIP3    H214194   0.704   4.523   3.868
 4773TIP3   OH214195   0.343   4.757   3.342
 4773TIP3    H114196   0.267   4.697   3.358
 4773TIP3    H214197   0.415   4.711   3.390
 4774TIP3   OH214198   0.311   5.711   3.292
 4774TIP3    H114199   0.268   5.758   3.217
 4774TIP3    H214200   0.405   5.730   3.271
 4775TIP3   OH214201  -0.412   5.269   2.467
 4775TIP3    H114202  -0.467   5.193   2.494
 4775TIP3    H214203  -0.366   5.232   2.390
 4776TIP3   OH214204   0.213   5.610   4.047
 4776TIP3    H114205   0.202   5.540   4.115
 4776TIP3    H214206   0.286   5.663   4.084
 4777TIP3   OH214207  -0.015   5.325   2.359
 4777TIP3    H114208   0.024   5.255   2.414
 4777TIP3    H214209   0.038   5.322   2.277
 4778TIP3   OH214210  -0.162   5.238   4.236
 4778TIP3    H114211  -0.227   5.223   4.166
 4778TIP3    H214212  -0.132   5.146   4.252
 4779TIP3   OH214213  -0.278   4.992   2.468
 4779TIP3    H114214  -0.291   5.011   2.562
 4779TIP3    H214215  -0.285   4.894   2.468
 4780TIP3   OH214216   0.313   5.239   3.851
 4780TIP3    H114217   0.387   5.286   3.808
 4780TIP3    H214218   0.242   5.304   3.839
 4781TIP3   OH214219  -0.591   4.696   2.894
 4781TIP3    H114220  -0.630   4.653   2.971
 4781TIP3    H214221  -0.594   4.625   2.829
 4782TIP3   OH214222  -0.259   4.774   4.109
 4782TIP3    H114223  -0.348   4.813   4.108
 4782TIP3    H214224  -0.227   4.799   4.020
 4783TIP3   OH214225   0.182   5.161   4.251
 4783TIP3    H114226   0.263   5.144   4.202
 4783TIP3    H214227   0.185   5.095   4.323
 4784TIP3   OH214228   0.321   4.827   2.390
 4784TIP3    H114229   0.305   4.780   2.306
 4784TIP3    H214230   0.287   4.916   2.366
 4785TIP3   OH214231  -0.196   4.539   4.254
 4785TIP3    H114232  -0.211   4.464   4.194
 4785TIP3    H214233  -0.228   4.615   4.201
 4786TIP3   OH214234  -0.216   4.332   4.041
 4786TIP3    H114235  -0.178   4.380   3.965
 4786TIP3    H214236  -0.311   4.341   4.026
 4787TIP3   OH214237  -0.180   4.894   3.875
 4787TIP3    H114238  -0.088   4.881   3.848
 4787TIP3    H214239  -0.191   4.988   3.859
 4788TIP3   OH214240   0.403   4.844   4.304
 4788TIP3    H114241   0.451   4.760   4.315
 4788TIP3    H214242   0.471   4.903   4.270
 4789TIP3   OH214243   0.443   5.096   4.039
 4789TIP3    H114244   0.385   5.149   3.980
 4789TIP3    H214245   0.531   5.116   3.999
 4790TIP3   OH214246  -0.075   4.103   4.114
 4790TIP3    H114247  -0.126   4.184   4.091
 4790TIP3    H214248  -0.144   4.035   4.109
 4791TIP3   OH214249   0.055   4.611   4.335
 4791TIP3    H114250   0.042   4.601   4.431
 4791TIP3    H214251  -0.035   4.582   4.305
 4792TIP3   OH214252   0.290   4.558   4.186
 4792TIP3    H114253   0.215   4.560   4.249
 4792TIP3    H214254   0.364   4.527   4.243
 4793TIP3   OH214255   0.517   4.498   4.338
 4793TIP3    H114256   0.531   4.403   4.357
 4793TIP3    H214257   0.515   4.537   4.428
 4794TIP3   OH214258   0.021   4.115   4.372
 4794TIP3    H114259   0.088   4.044   4.368
 4794TIP3    H214260  -0.019   4.107   4.283
 4795TIP3   OH214261   0.085   4.329   4.532
 4795TIP3    H114262   0.063   4.258   4.468
 4795TIP3    H214263   0.010   4.390   4.522
 4796TIP3   OH214264   0.564   5.802   3.247
 4796TIP3    H114265   0.586   5.832   3.337
 4796TIP3    H214266   0.622   5.857   3.193
 4797TIP3   OH214267   0.594   5.821   3.527
 4797TIP3    H114268   0.548   5.735   3.526
 4797TIP3    H214269   0.666   5.800   3.589
 4798TIP3   OH214270   0.639   5.501   4.103
 4798TIP3    H114271   0.566   5.508   4.167
 4798TIP3    H214272   0.680   5.589   4.108
 4799TIP3   OH214273   0.458   5.014   2.724
 4799TIP3    H114274   0.530   5.076   2.702
 4799TIP3    H214275   0.495   4.972   2.805
 4800TIP3   OH214276   0.581   4.883   2.928
 4800TIP3    H114277   0.517   4.840   2.989
 4800TIP3    H214278   0.649   4.918   2.990
 4801TIP3   OH214279   0.637   5.273   3.360
 4801TIP3    H114280   0.691   5.208   3.310
 4801TIP3    H214281   0.623   5.344   3.295
 4802TIP3   OH214282   0.468   5.574   3.555
 4802TIP3    H114283   0.397   5.616   3.607
 4802TIP3    H214284   0.417   5.526   3.486
 4803TIP3   OH214285   0.520   4.787   2.574
 4803TIP3    H114286   0.449   4.792   2.506
 4803TIP3    H214287   0.493   4.863   2.630
 4804TIP3   OH214288   0.383   4.461   2.540
 4804TIP3    H114289   0.378   4.509   2.456
 4804TIP3    H214290   0.365   4.368   2.514
 4805TIP3   OH214291   0.397   4.737   3.074
 4805TIP3    H114292   0.408   4.641   3.071
 4805TIP3    H214293   0.383   4.753   3.170
 4806TIP3   OH214294   0.686   5.162   3.931
 4806TIP3    H114295   0.759   5.097   3.922
 4806TIP3    H214296   0.713   5.231   3.868
 4807TIP3   OH214297   0.872   4.969   3.949
 4807TIP3    H114298   0.797   4.918   3.988
 4807TIP3    H214299   0.945   4.904   3.963
 4808TIP3   OH214300   0.341   4.187   2.496
 4808TIP3    H114301   0.415   4.170   2.558
 4808TIP3    H214302   0.266   4.138   2.536
 4809TIP3   OH214303   0.391   4.451   2.969
 4809TIP3    H114304   0.433   4.363   2.984
 4809TIP3    H214305   0.452   4.486   2.901
 4810TIP3   OH214306   0.555   4.629   3.464
 4810TIP3    H114307   0.641   4.655   3.424
 4810TIP3    H214308   0.568   4.665   3.553
 4811TIP3   OH214309   0.622   4.771   3.697
 4811TIP3    H114310   0.545   4.806   3.745
 4811TIP3    H214311   0.655   4.852   3.651
 4812TIP3   OH214312   1.072   4.360   4.252
 4812TIP3    H114313   1.133   4.296   4.210
 4812TIP3    H214314   1.047   4.417   4.176
 4813TIP3   OH214315   0.501   4.203   3.007
 4813TIP3    H114316   0.552   4.188   3.090
 4813TIP3    H214317   0.442   4.124   3.007
 4814TIP3   OH214318   0.947   4.504   4.058
 4814TIP3    H114319   0.860   4.542   4.080
 4814TIP3    H214320   0.919   4.431   3.999
 4815TIP3   OH214321   0.581   4.145   2.631
 4815TIP3    H114322   0.631   4.069   2.597
 4815TIP3    H214323   0.650   4.214   2.634
 4816TIP3   OH214324   0.151   5.666   2.908
 4816TIP3    H114325   0.202   5.658   2.825
 4816TIP3    H214326   0.198   5.738   2.953
 4817TIP3   OH214327  -0.085   5.721   3.990
 4817TIP3    H114328  -0.090   5.770   4.074
 4817TIP3    H214329  -0.058   5.791   3.928
 4818TIP3   OH214330   0.047   5.912   3.833
 4818TIP3    H114331   0.112   5.850   3.796
 4818TIP3    H214332   0.103   5.962   3.896
 4819TIP3   OH214333   0.845   4.266   3.936
 4819TIP3    H114334   0.753   4.259   3.903
 4819TIP3    H214335   0.876   4.173   3.925
 4820TIP3   OH214336  -0.231   5.792   3.485
 4820TIP3    H114337  -0.328   5.803   3.481
 4820TIP3    H214338  -0.208   5.870   3.541
 4821TIP3   OH214339   0.033   5.715   3.568
 4821TIP3    H114340  -0.059   5.728   3.539
 4821TIP3    H214341   0.076   5.793   3.529
 4822TIP3   OH214342   0.247   5.903   3.487
 4822TIP3    H114343   0.231   5.988   3.441
 4822TIP3    H214344   0.268   5.843   3.412
 4823TIP3   OH214345   0.044   4.177   3.545
 4823TIP3    H114346   0.006   4.108   3.603
 4823TIP3    H214347   0.123   4.131   3.509
 4824TIP3   OH214348   0.573   4.061   3.461
 4824TIP3    H114349   0.611   4.112   3.386
 4824TIP3    H214350   0.478   4.079   3.453
 4825TIP3   OH214351   0.667   4.162   3.224
 4825TIP3    H114352   0.740   4.109   3.185
 4825TIP3    H214353   0.703   4.253   3.209
 4826TIP3   OH214354  -0.257   3.931   3.448
 4826TIP3    H114355  -0.191   3.977   3.393
 4826TIP3    H214356  -0.229   3.955   3.537
 4827TIP3   OH214357   0.287   4.067   3.435
 4827TIP3    H114358   0.293   4.027   3.348
 4827TIP3    H214359   0.275   3.988   3.493
 4828TIP3   OH214360   0.319   3.988   2.997
 4828TIP3    H114361   0.230   4.025   3.008
 4828TIP3    H214362   0.309   3.903   3.046
 4829TIP3   OH214363  -0.261   4.099   3.083
 4829TIP3    H114364  -0.208   4.046   3.147
 4829TIP3    H214365  -0.242   4.189   3.118
 4830TIP3   OH214366  -0.418   5.522   2.609
 4830TIP3    H114367  -0.330   5.528   2.565
 4830TIP3    H214368  -0.467   5.480   2.535
 4831TIP3   OH214369   0.298   5.637   2.673
 4831TIP3    H114370   0.288   5.539   2.662
 4831TIP3    H214371   0.246   5.669   2.596
 4832TIP3   OH214372  -0.248   4.144   4.569
 4832TIP3    H114373  -0.163   4.131   4.525
 4832TIP3    H214374  -0.238   4.087   4.647
 4833TIP3   OH214375   0.580   4.228   4.369
 4833TIP3    H114376   0.599   4.196   4.460
 4833TIP3    H214377   0.668   4.223   4.328
 4834TIP3   OH214378   0.520   5.781   3.861
 4834TIP3    H114379   0.441   5.747   3.814
 4834TIP3    H214380   0.499   5.876   3.864
 4835TIP3   OH214381   1.797   5.158   2.633
 4835TIP3    H114382   1.760   5.243   2.604
 4835TIP3    H214383   1.723   5.097   2.618
 4836TIP3   OH214384   1.780   5.157   3.007
 4836TIP3    H114385   1.809   5.117   3.091
 4836TIP3    H214386   1.744   5.079   2.962
 4837TIP3   OH214387   1.083   5.050   3.376
 4837TIP3    H114388   1.113   4.981   3.439
 4837TIP3    H214389   1.165   5.099   3.362
 4838TIP3   OH214390   2.027   5.458   2.689
 4838TIP3    H114391   2.011   5.383   2.747
 4838TIP3    H214392   2.058   5.526   2.751
 4839TIP3   OH214393   1.054   5.457   3.095
 4839TIP3    H114394   1.044   5.360   3.099
 4839TIP3    H214395   1.150   5.465   3.096
 4840TIP3   OH214396   0.761   4.662   2.885
 4840TIP3    H114397   0.713   4.745   2.899
 4840TIP3    H214398   0.690   4.607   2.847
 4841TIP3   OH214399   0.821   4.947   3.052
 4841TIP3    H114400   0.869   4.870   3.092
 4841TIP3    H214401   0.885   4.976   2.986
 4842TIP3   OH214402   1.676   5.917   2.707
 4842TIP3    H114403   1.722   5.846   2.656
 4842TIP3    H214404   1.672   5.877   2.794
 4843TIP3   OH214405   1.583   5.379   3.057
 4843TIP3    H114406   1.619   5.300   3.014
 4843TIP3    H214407   1.668   5.423   3.079
 4844TIP3   OH214408   2.596   4.698   3.055
 4844TIP3    H114409   2.625   4.781   3.098
 4844TIP3    H214410   2.616   4.718   2.962
 4845TIP3   OH214411   1.998   4.882   3.089
 4845TIP3    H114412   2.038   4.795   3.106
 4845TIP3    H214413   1.963   4.869   2.999
 4846TIP3   OH214414   1.326   4.542   3.057
 4846TIP3    H114415   1.311   4.616   2.994
 4846TIP3    H214416   1.281   4.469   3.010
 4847TIP3   OH214417   2.027   4.622   2.679
 4847TIP3    H114418   2.100   4.610   2.744
 4847TIP3    H214419   2.074   4.668   2.608
 4848TIP3   OH214420   0.967   4.741   3.160
 4848TIP3    H114421   1.050   4.723   3.209
 4848TIP3    H214422   0.981   4.686   3.081
 4849TIP3   OH214423   1.404   4.941   2.957
 4849TIP3    H114424   1.501   4.926   2.952
 4849TIP3    H214425   1.371   4.858   2.917
 4850TIP3   OH214426   2.670   4.906   3.224
 4850TIP3    H114427   2.586   4.953   3.205
 4850TIP3    H214428   2.683   4.930   3.317
 4851TIP3   OH214429   1.329   4.522   3.489
 4851TIP3    H114430   1.270   4.560   3.421
 4851TIP3    H214431   1.278   4.541   3.570
 4852TIP3   OH214432   1.686   5.379   2.493
 4852TIP3    H114433   1.625   5.316   2.453
 4852TIP3    H214434   1.629   5.457   2.509
 4853TIP3   OH214435   1.438   5.298   3.285
 4853TIP3    H114436   1.374   5.363   3.322
 4853TIP3    H214437   1.480   5.349   3.213
 4854TIP3   OH214438   2.242   4.631   2.848
 4854TIP3    H114439   2.225   4.585   2.931
 4854TIP3    H214440   2.291   4.710   2.877
 4855TIP3   OH214441   1.198   4.639   3.276
 4855TIP3    H114442   1.262   4.711   3.298
 4855TIP3    H214443   1.246   4.598   3.200
 4856TIP3   OH214444   1.263   5.491   3.381
 4856TIP3    H114445   1.237   5.578   3.344
 4856TIP3    H214446   1.185   5.474   3.438
 4857TIP3   OH214447   0.669   5.182   2.611
 4857TIP3    H114448   0.602   5.209   2.546
 4857TIP3    H214449   0.689   5.267   2.656
 4858TIP3   OH214450   2.098   5.698   2.861
 4858TIP3    H114451   2.008   5.688   2.899
 4858TIP3    H214452   2.089   5.783   2.814
 4859TIP3   OH214453   2.388   4.599   3.221
 4859TIP3    H114454   2.300   4.627   3.191
 4859TIP3    H214455   2.447   4.631   3.149
 4860TIP3   OH214456   1.689   4.242   3.204
 4860TIP3    H114457   1.673   4.147   3.219
 4860TIP3    H214458   1.610   4.281   3.248
 4861TIP3   OH214459   1.799   5.744   2.531
 4861TIP3    H114460   1.849   5.661   2.512
 4861TIP3    H214461   1.861   5.809   2.490
 4862TIP3   OH214462   1.945   5.531   2.437
 4862TIP3    H114463   1.894   5.453   2.408
 4862TIP3    H214464   1.982   5.497   2.522
 4863TIP3   OH214465   2.324   5.612   3.200
 4863TIP3    H114466   2.314   5.533   3.143
 4863TIP3    H214467   2.310   5.685   3.136
 4864TIP3   OH214468   1.621   5.074   2.417
 4864TIP3    H114469   1.542   5.029   2.448
 4864TIP3    H214470   1.678   4.999   2.394
 4865TIP3   OH214471   1.571   4.789   2.184
 4865TIP3    H114472   1.642   4.836   2.231
 4865TIP3    H214473   1.623   4.732   2.126
 4866TIP3   OH214474   2.520   5.247   3.046
 4866TIP3    H114475   2.436   5.299   3.052
 4866TIP3    H214476   2.548   5.271   2.955
 4867TIP3   OH214477   1.964   5.089   2.429
 4867TIP3    H114478   1.908   5.113   2.507
 4867TIP3    H214479   2.045   5.060   2.475
 4868TIP3   OH214480   2.200   5.127   3.341
 4868TIP3    H114481   2.195   5.210   3.390
 4868TIP3    H214482   2.112   5.128   3.296
 4869TIP3   OH214483   1.197   5.086   2.846
 4869TIP3    H114484   1.158   5.025   2.780
 4869TIP3    H214485   1.273   5.033   2.879
 4870TIP3   OH214486   1.329   5.499   2.994
 4870TIP3    H114487   1.307   5.449   2.913
 4870TIP3    H214488   1.419   5.465   3.014
 4871TIP3   OH214489   1.327   5.057   3.202
 4871TIP3    H114490   1.364   5.028   3.115
 4871TIP3    H214491   1.376   5.140   3.219
 4872TIP3   OH214492   1.854   5.695   2.977
 4872TIP3    H114493   1.845   5.771   3.037
 4872TIP3    H214494   1.843   5.618   3.038
 4873TIP3   OH214495   1.469   5.614   3.523
 4873TIP3    H114496   1.409   5.675   3.572
 4873TIP3    H214497   1.404   5.559   3.476
 4874TIP3   OH214498   1.813   4.933   2.258
 4874TIP3    H114499   1.863   4.998   2.312
 4874TIP3    H214500   1.835   4.963   2.168
 4875TIP3   OH214501   1.224   5.171   3.626
 4875TIP3    H114502   1.227   5.257   3.672
 4875TIP3    H214503   1.129   5.150   3.633
 4876TIP3   OH214504   1.542   5.630   2.522
 4876TIP3    H114505   1.626   5.673   2.547
 4876TIP3    H214506   1.485   5.705   2.501
 4877TIP3   OH214507   1.263   5.783   3.612
 4877TIP3    H114508   1.228   5.778   3.522
 4877TIP3    H214509   1.184   5.760   3.666
 4878TIP3   OH214510   2.318   4.188   2.302
 4878TIP3    H114511   2.238   4.205   2.356
 4878TIP3    H214512   2.329   4.274   2.258
 4879TIP3   OH214513   1.061   4.925   2.651
 4879TIP3    H114514   0.990   4.961   2.594
 4879TIP3    H214515   1.028   4.837   2.671
 4880TIP3   OH214516   2.118   5.553   1.854
 4880TIP3    H114517   2.127   5.650   1.838
 4880TIP3    H214518   2.211   5.524   1.840
 4881TIP3   OH214519   0.844   5.312   3.558
 4881TIP3    H114520   0.778   5.288   3.490
 4881TIP3    H214521   0.881   5.225   3.584
 4882TIP3   OH214522   0.696   5.508   3.184
 4882TIP3    H114523   0.793   5.499   3.186
 4882TIP3    H214524   0.683   5.583   3.244
 4883TIP3   OH214525   2.560   5.954   3.245
 4883TIP3    H114526   2.561   5.857   3.259
 4883TIP3    H214527   2.478   5.978   3.293
 4884TIP3   OH214528   1.666   5.744   3.380
 4884TIP3    H114529   1.666   5.835   3.415
 4884TIP3    H214530   1.595   5.703   3.436
 4885TIP3   OH214531   1.422   5.866   2.333
 4885TIP3    H114532   1.385   5.855   2.243
 4885TIP3    H214533   1.395   5.957   2.356
 4886TIP3   OH214534   0.855   5.715   2.722
 4886TIP3    H114535   0.918   5.708   2.797
 4886TIP3    H214536   0.782   5.664   2.759
 4887TIP3   OH214537   1.630   5.770   1.975
 4887TIP3    H114538   1.690   5.702   1.937
 4887TIP3    H214539   1.666   5.780   2.066
 4888TIP3   OH214540   1.679   5.820   2.247
 4888TIP3    H114541   1.591   5.827   2.290
 4888TIP3    H214542   1.731   5.778   2.317
 4889TIP3   OH214543   2.451   5.087   3.521
 4889TIP3    H114544   2.370   5.098   3.469
 4889TIP3    H214545   2.467   4.991   3.512
 4890TIP3   OH214546   1.048   5.496   3.549
 4890TIP3    H114547   1.098   5.478   3.631
 4890TIP3    H214548   0.974   5.431   3.556
 4891TIP3   OH214549   1.447   4.316   3.331
 4891TIP3    H114550   1.357   4.287   3.306
 4891TIP3    H214551   1.424   4.400   3.375
 4892TIP3   OH214552   1.982   4.434   3.525
 4892TIP3    H114553   2.049   4.406   3.590
 4892TIP3    H214554   1.897   4.413   3.571
 4893TIP3   OH214555   2.222   4.862   3.445
 4893TIP3    H114556   2.172   4.858   3.529
 4893TIP3    H214557   2.196   4.949   3.408
 4894TIP3   OH214558   1.876   4.998   2.000
 4894TIP3    H114559   1.840   4.969   1.914
 4894TIP3    H214560   1.958   5.043   1.973
 4895TIP3   OH214561   1.592   4.367   2.304
 4895TIP3    H114562   1.561   4.366   2.397
 4895TIP3    H214563   1.552   4.284   2.272
 4896TIP3   OH214564   1.377   4.834   3.350
 4896TIP3    H114565   1.329   4.856   3.432
 4896TIP3    H214566   1.362   4.914   3.296
 4897TIP3   OH214567   1.261   4.720   2.862
 4897TIP3    H114568   1.169   4.687   2.876
 4897TIP3    H214569   1.285   4.677   2.777
 4898TIP3   OH214570   1.928   5.086   3.680
 4898TIP3    H114571   1.906   5.012   3.741
 4898TIP3    H214572   2.023   5.098   3.700
 4899TIP3   OH214573   1.918   4.840   2.826
 4899TIP3    H114574   1.833   4.856   2.779
 4899TIP3    H214575   1.941   4.755   2.785
 4900TIP3   OH214576   1.196   4.863   3.560
 4900TIP3    H114577   1.229   4.925   3.627
 4900TIP3    H214578   1.187   4.780   3.610
 4901TIP3   OH214579   1.250   4.340   2.267
 4901TIP3    H114580   1.241   4.338   2.364
 4901TIP3    H214581   1.170   4.389   2.242
 4902TIP3   OH214582   0.792   4.385   3.138
 4902TIP3    H114583   0.866   4.417   3.193
 4902TIP3    H214584   0.836   4.350   3.059
 4903TIP3   OH214585   0.763   4.364   2.659
 4903TIP3    H114586   0.809   4.401   2.581
 4903TIP3    H214587   0.705   4.439   2.681
 4904TIP3   OH214588   1.926   5.081   3.256
 4904TIP3    H114589   1.956   5.010   3.195
 4904TIP3    H214590   1.895   5.027   3.332
 4905TIP3   OH214591   1.585   4.491   2.945
 4905TIP3    H114592   1.503   4.521   2.988
 4905TIP3    H214593   1.651   4.547   2.987
 4906TIP3   OH214594   1.024   4.596   2.932
 4906TIP3    H114595   0.929   4.601   2.907
 4906TIP3    H214596   1.048   4.503   2.912
 4907TIP3   OH214597   1.321   4.598   2.617
 4907TIP3    H114598   1.398   4.657   2.607
 4907TIP3    H214599   1.265   4.622   2.540
 4908TIP3   OH214600   2.082   4.616   3.128
 4908TIP3    H114601   2.046   4.630   3.218
 4908TIP3    H214602   2.014   4.555   3.092
 4909TIP3   OH214603   1.135   4.631   2.405
 4909TIP3    H114604   1.065   4.582   2.359
 4909TIP3    H214605   1.186   4.664   2.328
 4910TIP3   OH214606   2.251   6.308   3.346
 4910TIP3    H114607   2.254   6.327   3.250
 4910TIP3    H214608   2.332   6.353   3.377
 4911TIP3   OH214609   1.209   5.418   3.768
 4911TIP3    H114610   1.289   5.447   3.816
 4911TIP3    H214611   1.145   5.415   3.841
 4912TIP3   OH214612   1.677   4.881   3.030
 4912TIP3    H114613   1.703   4.831   2.951
 4912TIP3    H214614   1.700   4.822   3.103
 4913TIP3   OH214615   1.195   4.359   2.899
 4913TIP3    H114616   1.163   4.280   2.946
 4913TIP3    H214617   1.255   4.321   2.834
 4914TIP3   OH214618   1.650   4.758   3.322
 4914TIP3    H114619   1.562   4.801   3.325
 4914TIP3    H214620   1.708   4.824   3.363
 4915TIP3   OH214621   1.331   5.183   2.387
 4915TIP3    H114622   1.290   5.096   2.397
 4915TIP3    H214623   1.353   5.206   2.480
 4916TIP3   OH214624   2.287   5.394   3.038
 4916TIP3    H114625   2.311   5.442   2.955
 4916TIP3    H214626   2.203   5.350   3.014
 4917TIP3   OH214627   1.839   4.472   2.240
 4917TIP3    H114628   1.747   4.456   2.272
 4917TIP3    H214629   1.863   4.558   2.281
 4918TIP3   OH214630   1.790   5.478   3.403
 4918TIP3    H114631   1.809   5.449   3.493
 4918TIP3    H214632   1.746   5.564   3.416
 4919TIP3   OH214633   1.934   4.700   2.344
 4919TIP3    H114634   2.018   4.723   2.387
 4919TIP3    H214635   1.893   4.787   2.328
 4920TIP3   OH214636   1.078   5.178   3.083
 4920TIP3    H114637   1.118   5.150   2.998
 4920TIP3    H214638   1.122   5.119   3.145
 4921TIP3   OH214639   0.958   5.102   3.697
 4921TIP3    H114640   0.981   5.087   3.791
 4921TIP3    H214641   0.891   5.033   3.683
 4922TIP3   OH214642   1.685   5.214   3.716
 4922TIP3    H114643   1.627   5.155   3.665
 4922TIP3    H214644   1.773   5.180   3.690
 4923TIP3   OH214645   1.947   5.745   3.295
 4923TIP3    H114646   1.851   5.733   3.310
 4923TIP3    H214647   1.974   5.790   3.378
 4924TIP3   OH214648   2.359   4.806   2.209
 4924TIP3    H114649   2.296   4.761   2.147
 4924TIP3    H214650   2.354   4.895   2.169
 4925TIP3   OH214651   2.575   5.665   3.290
 4925TIP3    H114652   2.477   5.659   3.282
 4925TIP3    H214653   2.601   5.634   3.200
 4926TIP3   OH214654   2.051   5.626   2.117
 4926TIP3    H114655   2.035   5.554   2.180
 4926TIP3    H214656   2.070   5.579   2.034
 4927TIP3   OH214657   2.053   5.255   2.958
 4927TIP3    H114658   1.959   5.229   2.970
 4927TIP3    H214659   2.087   5.176   2.912
 4928TIP3   OH214660   1.179   5.481   2.710
 4928TIP3    H114661   1.179   5.559   2.651
 4928TIP3    H214662   1.085   5.472   2.730
 4929TIP3   OH214663   0.743   4.785   2.410
 4929TIP3    H114664   0.789   4.869   2.432
 4929TIP3    H214665   0.666   4.790   2.471
 4930TIP3   OH214666   1.326   5.249   2.653
 4930TIP3    H114667   1.285   5.336   2.670
 4930TIP3    H214668   1.292   5.197   2.727
 4931TIP3   OH214669   1.448   5.828   3.178
 4931TIP3    H114670   1.493   5.898   3.127
 4931TIP3    H214671   1.523   5.789   3.227
 4932TIP3   OH214672   1.096   5.714   2.570
 4932TIP3    H114673   1.011   5.733   2.613
 4932TIP3    H214674   1.130   5.805   2.555
 4933TIP3   OH214675   1.840   5.463   3.134
 4933TIP3    H114676   1.831   5.459   3.232
 4933TIP3    H214677   1.915   5.403   3.120
 4934TIP3   OH214678   1.815   5.350   2.019
 4934TIP3    H114679   1.875   5.321   2.092
 4934TIP3    H214680   1.730   5.344   2.063
 4935TIP3   OH214681   2.085   5.998   3.191
 4935TIP3    H114682   2.010   5.935   3.186
 4935TIP3    H214683   2.067   6.057   3.116
 4936TIP3   OH214684   2.151   5.828   1.839
 4936TIP3    H114685   2.190   5.899   1.784
 4936TIP3    H214686   2.072   5.875   1.871
 4937TIP3   OH214687   1.172   4.606   3.706
 4937TIP3    H114688   1.076   4.609   3.720
 4937TIP3    H214689   1.201   4.546   3.776
 4938TIP3   OH214690   1.972   5.285   2.231
 4938TIP3    H114691   1.958   5.222   2.304
 4938TIP3    H214692   2.070   5.282   2.224
 4939TIP3   OH214693   0.889   5.689   3.336
 4939TIP3    H114694   0.941   5.613   3.369
 4939TIP3    H214695   0.913   5.756   3.401
 4940TIP3   OH214696   1.218   5.305   2.028
 4940TIP3    H114697   1.151   5.262   1.974
 4940TIP3    H214698   1.171   5.318   2.114
 4941TIP3   OH214699   1.135   5.357   2.300
 4941TIP3    H114700   1.192   5.292   2.346
 4941TIP3    H214701   1.201   5.429   2.288
 4942TIP3   OH214702   0.860   5.027   2.488
 4942TIP3    H114703   0.798   5.080   2.543
 4942TIP3    H214704   0.912   5.093   2.441
 4943TIP3   OH214705   2.006   4.673   3.388
 4943TIP3    H114706   2.088   4.707   3.425
 4943TIP3    H214707   1.992   4.590   3.439
 4944TIP3   OH214708   1.894   4.420   2.545
 4944TIP3    H114709   1.874   4.456   2.457
 4944TIP3    H214710   1.929   4.500   2.591
 4945TIP3   OH214711   1.326   5.543   2.241
 4945TIP3    H114712   1.325   5.619   2.300
 4945TIP3    H214713   1.396   5.566   2.179
 4946TIP3   OH214714   1.846   4.920   3.461
 4946TIP3    H114715   1.868   4.971   3.541
 4946TIP3    H214716   1.901   4.840   3.471
 4947TIP3   OH214717   1.719   4.332   2.753
 4947TIP3    H114718   1.696   4.407   2.813
 4947TIP3    H214719   1.784   4.375   2.693
 4948TIP3   OH214720   1.235   4.326   2.543
 4948TIP3    H114721   1.238   4.416   2.580
 4948TIP3    H214722   1.329   4.301   2.552
 4949TIP3   OH214723   2.489   4.820   3.440
 4949TIP3    H114724   2.391   4.818   3.449
 4949TIP3    H214725   2.498   4.777   3.354
 4950TIP3   OH214726   2.139   5.017   2.829
 4950TIP3    H114727   2.061   4.958   2.835
 4950TIP3    H214728   2.208   4.966   2.878
 4951TIP3   OH214729   0.796   4.518   2.438
 4951TIP3    H114730   0.795   4.615   2.429
 4951TIP3    H214731   0.723   4.492   2.381
 4952TIP3   OH214732   2.105   5.972   2.780
 4952TIP3    H114733   2.064   6.022   2.707
 4952TIP3    H214734   2.200   5.990   2.761
 4953TIP3   OH214735   1.180   4.238   3.308
 4953TIP3    H114736   1.150   4.204   3.220
 4953TIP3    H214737   1.171   4.159   3.364
 4954TIP3   OH214738   0.701   5.443   2.689
 4954TIP3    H114739   0.652   5.479   2.764
 4954TIP3    H214740   0.683   5.508   2.619
 4955TIP3   OH214741   0.877   5.996   3.757
 4955TIP3    H114742   0.964   5.994   3.804
 4955TIP3    H214743   0.855   5.902   3.756
 4956TIP3   OH214744   1.363   5.966   3.800
 4956TIP3    H114745   1.456   5.940   3.810
 4956TIP3    H214746   1.335   5.906   3.728
 4957TIP3   OH214747   1.345   5.543   1.934
 4957TIP3    H114748   1.303   5.466   1.976
 4957TIP3    H214749   1.420   5.501   1.887
 4958TIP3   OH214750   1.998   5.869   3.537
 4958TIP3    H114751   1.989   5.798   3.604
 4958TIP3    H214752   2.077   5.917   3.567
 4959TIP3   OH214753   1.779   5.582   1.838
 4959TIP3    H114754   1.832   5.524   1.895
 4959TIP3    H214755   1.832   5.584   1.755
 4960TIP3   OH214756   1.009   5.404   3.959
 4960TIP3    H114757   1.026   5.308   3.965
 4960TIP3    H214758   0.921   5.406   3.915
 4961TIP3   OH214759   0.990   5.044   2.148
 4961TIP3    H114760   1.039   5.014   2.226
 4961TIP3    H214761   1.061   5.044   2.081
 4962TIP3   OH214762   1.616   5.488   3.732
 4962TIP3    H114763   1.576   5.502   3.645
 4962TIP3    H214764   1.649   5.395   3.727
 4963TIP3   OH214765   2.110   5.496   3.340
 4963TIP3    H114766   2.184   5.542   3.294
 4963TIP3    H214767   2.037   5.557   3.323
 4964TIP3   OH214768   1.128   5.137   3.939
 4964TIP3    H114769   1.203   5.079   3.920
 4964TIP3    H214770   1.153   5.170   4.028
 4965TIP3   OH214771   1.182   4.950   2.373
 4965TIP3    H114772   1.166   4.913   2.461
 4965TIP3    H214773   1.224   4.875   2.326
 4966TIP3   OH214774   1.461   5.021   3.601
 4966TIP3    H114775   1.385   5.084   3.604
 4966TIP3    H214776   1.512   5.056   3.525
 4967TIP3   OH214777   1.295   4.753   2.215
 4967TIP3    H114778   1.272   4.741   2.120
 4967TIP3    H214779   1.393   4.753   2.211
 4968TIP3   OH214780   1.981   5.426   3.737
 4968TIP3    H114781   2.060   5.401   3.688
 4968TIP3    H214782   1.977   5.358   3.807
 4969TIP3   OH214783   2.115   5.082   1.877
 4969TIP3    H114784   2.095   5.037   1.793
 4969TIP3    H214785   2.085   5.173   1.854
 4970TIP3   OH214786   1.585   4.810   3.730
 4970TIP3    H114787   1.587   4.730   3.674
 4970TIP3    H214788   1.542   4.875   3.670
 4971TIP3   OH214789   1.588   4.595   3.539
 4971TIP3    H114790   1.617   4.638   3.456
 4971TIP3    H214791   1.495   4.573   3.518
 4972TIP3   OH214792   1.616   5.134   3.412
 4972TIP3    H114793   1.698   5.134   3.360
 4972TIP3    H214794   1.562   5.200   3.365
 4973TIP3   OH214795   2.198   5.101   3.790
 4973TIP3    H114796   2.245   5.017   3.803
 4973TIP3    H214797   2.269   5.157   3.755
 4974TIP3   OH214798   2.240   5.354   3.528
 4974TIP3    H114799   2.183   5.406   3.468
 4974TIP3    H214800   2.328   5.372   3.487
 4975TIP3   OH214801   1.462   4.925   3.958
 4975TIP3    H114802   1.394   4.856   3.972
 4975TIP3    H214803   1.498   4.898   3.871
 4976TIP3   OH214804   1.721   4.361   3.602
 4976TIP3    H114805   1.673   4.443   3.580
 4976TIP3    H214806   1.652   4.293   3.590
 4977TIP3   OH214807   1.846   4.867   3.819
 4977TIP3    H114808   1.837   4.854   3.915
 4977TIP3    H214809   1.756   4.841   3.790
 4978TIP3   OH214810   2.087   4.816   3.674
 4978TIP3    H114811   2.011   4.816   3.736
 4978TIP3    H214812   2.160   4.784   3.731
 4979TIP3   OH214813   2.315   4.754   3.824
 4979TIP3    H114814   2.328   4.659   3.844
 4979TIP3    H214815   2.311   4.794   3.914
 4980TIP3   OH214816   1.303   4.704   4.011
 4980TIP3    H114817   1.311   4.614   3.976
 4980TIP3    H214818   1.340   4.692   4.101
 4981TIP3   OH214819   1.815   4.371   3.860
 4981TIP3    H114820   1.883   4.300   3.854
 4981TIP3    H214821   1.776   4.364   3.770
 4982TIP3   OH214822   1.881   4.586   4.018
 4982TIP3    H114823   1.859   4.515   3.954
 4982TIP3    H214824   1.803   4.645   4.012
 4983TIP3   OH214825   1.090   5.804   2.112
 4983TIP3    H114826   1.187   5.799   2.109
 4983TIP3    H214827   1.074   5.861   2.034
 4984TIP3   OH214828   0.587   5.194   2.318
 4984TIP3    H114829   0.682   5.179   2.322
 4984TIP3    H214830   0.558   5.106   2.288
 4985TIP3   OH214831   0.504   5.804   2.744
 4985TIP3    H114832   0.429   5.748   2.712
 4985TIP3    H214833   0.539   5.748   2.816
 4986TIP3   OH214834   0.642   5.654   2.931
 4986TIP3    H114835   0.622   5.587   2.998
 4986TIP3    H214836   0.685   5.720   2.988
 4987TIP3   OH214837   2.355   6.069   2.734
 4987TIP3    H114838   2.389   6.096   2.822
 4987TIP3    H214839   2.425   6.100   2.675
 4988TIP3   OH214840   2.389   6.083   3.019
 4988TIP3    H114841   2.345   5.995   3.014
 4988TIP3    H214842   2.466   6.058   3.073
 4989TIP3   OH214843   2.433   5.759   3.589
 4989TIP3    H114844   2.362   5.766   3.655
 4989TIP3    H214845   2.476   5.846   3.596
 4990TIP3   OH214846   2.251   5.271   2.211
 4990TIP3    H114847   2.321   5.334   2.183
 4990TIP3    H214848   2.292   5.231   2.291
 4991TIP3   OH214849   2.378   5.138   2.414
 4991TIP3    H114850   2.313   5.095   2.473
 4991TIP3    H214851   2.442   5.176   2.477
 4992TIP3   OH214852   2.432   5.529   2.846
 4992TIP3    H114853   2.486   5.464   2.797
 4992TIP3    H214854   2.424   5.602   2.781
 4993TIP3   OH214855   2.265   5.832   3.040
 4993TIP3    H114856   2.193   5.867   3.095
 4993TIP3    H214857   2.216   5.781   2.972
 4994TIP3   OH214858   2.316   5.045   2.061
 4994TIP3    H114859   2.244   5.050   1.994
 4994TIP3    H214860   2.290   5.120   2.118
 4995TIP3   OH214861   2.194   4.713   2.012
 4995TIP3    H114862   2.146   4.763   1.945
 4995TIP3    H214863   2.163   4.621   1.998
 4996TIP3   OH214864   2.194   4.994   2.560
 4996TIP3    H114865   2.199   4.897   2.555
 4996TIP3    H214866   2.179   5.009   2.657
 4997TIP3   OH214867   0.819   5.069   3.306
 4997TIP3    H114868   0.820   5.038   3.213
 4997TIP3    H214869   0.916   5.070   3.325
 4998TIP3   OH214870   2.482   5.419   3.417
 4998TIP3    H114871   2.554   5.352   3.409
 4998TIP3    H214872   2.511   5.488   3.355
 4999TIP3   OH214873   2.668   5.225   3.437
 4999TIP3    H114874   2.593   5.174   3.474
 4999TIP3    H214875   2.741   5.161   3.450
 5000TIP3   OH214876   2.133   4.440   1.981
 5000TIP3    H114877   2.209   4.427   2.042
 5000TIP3    H214878   2.061   4.397   2.030
 5001TIP3   OH214879   2.192   4.714   2.463
 5001TIP3    H114880   2.230   4.624   2.477
 5001TIP3    H214881   2.249   4.744   2.389
 5002TIP3   OH214882   2.352   4.883   2.951
 5002TIP3    H114883   2.437   4.910   2.911
 5002TIP3    H214884   2.364   4.920   3.040
 5003TIP3   OH214885   2.420   5.028   3.183
 5003TIP3    H114886   2.341   5.061   3.231
 5003TIP3    H214887   2.452   5.109   3.138
 5004TIP3   OH214888   1.036   4.755   3.981
 5004TIP3    H114889   1.134   4.748   3.983
 5004TIP3    H214890   1.012   4.670   4.023
 5005TIP3   OH214891   2.870   4.618   3.739
 5005TIP3    H114892   2.929   4.552   3.696
 5005TIP3    H214893   2.843   4.674   3.663
 5006TIP3   OH214894   2.300   4.459   2.491
 5006TIP3    H114895   2.347   4.445   2.576
 5006TIP3    H214896   2.237   4.384   2.492
 5007TIP3   OH214897   0.997   4.447   3.314
 5007TIP3    H114898   1.059   4.371   3.323
 5007TIP3    H214899   1.059   4.521   3.308
 5008TIP3   OH214900   0.800   4.721   3.385
 5008TIP3    H114901   0.851   4.713   3.302
 5008TIP3    H214902   0.833   4.805   3.419
 5009TIP3   OH214903   2.744   4.760   3.545
 5009TIP3    H114904   2.657   4.799   3.566
 5009TIP3    H214905   2.715   4.687   3.486
 5010TIP3   OH214906   2.376   4.402   2.116
 5010TIP3    H114907   2.425   4.325   2.082
 5010TIP3    H214908   2.447   4.469   2.122
 5011TIP3   OH214909   0.784   4.223   2.887
 5011TIP3    H114910   0.691   4.223   2.915
 5011TIP3    H214911   0.783   4.282   2.809
 5012TIP3   OH214912   1.945   5.930   2.394
 5012TIP3    H114913   1.988   5.908   2.309
 5012TIP3    H214914   2.009   5.990   2.433
 5013TIP3   OH214915   1.004   4.304   3.702
 5013TIP3    H114916   0.954   4.299   3.785
 5013TIP3    H214917   0.937   4.342   3.642
 5014TIP3   OH214918   1.044   5.733   3.780
 5014TIP3    H114919   0.953   5.703   3.762
 5014TIP3    H214920   1.054   5.709   3.873
 5015TIP3   OH214921   1.221   5.762   3.326
 5015TIP3    H114922   1.173   5.838   3.287
 5015TIP3    H214923   1.308   5.776   3.282
 5016TIP3   OH214924   1.669   6.011   3.464
 5016TIP3    H114925   1.711   6.009   3.553
 5016TIP3    H214926   1.736   6.060   3.412
 5017TIP3   OH214927   1.847   6.163   3.318
 5017TIP3    H114928   1.917   6.106   3.282
 5017TIP3    H214929   1.899   6.216   3.382
 5018TIP3   OH214930   2.641   4.522   3.423
 5018TIP3    H114931   2.550   4.517   3.389
 5018TIP3    H214932   2.671   4.429   3.411
 5019TIP3   OH214933   0.899   6.023   3.346
 5019TIP3    H114934   0.809   6.057   3.326
 5019TIP3    H214935   0.906   6.050   3.439
 5020TIP3   OH214936   1.137   6.002   3.208
 5020TIP3    H114937   1.050   6.013   3.253
 5020TIP3    H214938   1.115   6.032   3.118
 5021TIP3   OH214939   1.563   6.031   3.006
 5021TIP3    H114940   1.492   6.047   2.941
 5021TIP3    H214941   1.573   6.119   3.047
 5022TIP3   OH214942   1.830   5.970   3.058
 5022TIP3    H114943   1.736   5.983   3.035
 5022TIP3    H214944   1.872   6.044   3.012
 5023TIP3   OH214945   2.040   6.164   2.970
 5023TIP3    H114946   2.025   6.243   2.915
 5023TIP3    H214947   2.066   6.097   2.902
 5024TIP3   OH214948   0.814   5.815   3.092
 5024TIP3    H114949   0.836   5.788   3.184
 5024TIP3    H214950   0.885   5.769   3.044
 5025TIP3   OH214951   1.005   5.683   2.946
 5025TIP3    H114952   1.019   5.600   2.997
 5025TIP3    H214953   1.096   5.720   2.944
 5026TIP3   OH214954   1.271   5.780   2.954
 5026TIP3    H114955   1.301   5.688   2.942
 5026TIP3    H214956   1.314   5.800   3.039
 5027TIP3   OH214957   1.863   4.442   3.055
 5027TIP3    H114958   1.803   4.376   3.094
 5027TIP3    H214959   1.920   4.387   2.998
 5028TIP3   OH214960   2.372   4.314   2.946
 5028TIP3    H114961   2.407   4.369   2.873
 5028TIP3    H214962   2.276   4.334   2.941
 5029TIP3   OH214963   2.464   4.418   2.709
 5029TIP3    H114964   2.538   4.367   2.670
 5029TIP3    H214965   2.497   4.510   2.696
 5030TIP3   OH214966   1.092   4.148   3.058
 5030TIP3    H114967   1.001   4.111   3.060
 5030TIP3    H214968   1.144   4.065   3.056
 5031TIP3   OH214969   0.859   4.019   2.695
 5031TIP3    H114970   0.908   4.073   2.630
 5031TIP3    H214971   0.849   4.081   2.770
 5032TIP3   OH214972   1.538   4.177   2.938
 5032TIP3    H114973   1.589   4.236   2.881
 5032TIP3    H214974   1.553   4.220   3.024
 5033TIP3   OH214975   2.092   4.323   2.921
 5033TIP3    H114976   2.080   4.289   2.832
 5033TIP3    H214977   2.074   4.243   2.976
 5034TIP3   OH214978   2.114   4.247   2.483
 5034TIP3    H114979   2.029   4.294   2.498
 5034TIP3    H214980   2.098   4.163   2.531
 5035TIP3   OH214981   0.639   5.585   2.466
 5035TIP3    H114982   0.555   5.544   2.435
 5035TIP3    H214983   0.610   5.679   2.463
 5036TIP3   OH214984   0.998   4.175   2.470
 5036TIP3    H114985   1.046   4.111   2.413
 5036TIP3    H214986   1.071   4.229   2.505
 5037TIP3   OH214987   1.512   4.355   2.572
 5037TIP3    H114988   1.581   4.318   2.630
 5037TIP3    H214989   1.507   4.445   2.606
 5038TIP3   OH214990   1.369   5.785   2.068
 5038TIP3    H114991   1.458   5.802   2.031
 5038TIP3    H214992   1.345   5.706   2.015
 5039TIP3   OH214993   2.086   5.891   2.161
 5039TIP3    H114994   2.078   5.794   2.147
 5039TIP3    H214995   2.044   5.925   2.079
 5040TIP3   OH214996   1.302   4.426   3.949
 5040TIP3    H114997   1.269   4.356   4.007
 5040TIP3    H214998   1.397   4.427   3.975
 5041TIP3   OH214999   1.551   4.423   4.068
 5041TIP3    H115000   1.636   4.399   4.029
 5041TIP3    H215001   1.540   4.353   4.135
 5042TIP3   OH215002   0.715   5.605   2.195
 5042TIP3    H115003   0.665   5.684   2.167
 5042TIP3    H215004   0.771   5.581   2.116
 5043TIP3   OH215005   2.376   4.484   3.856
 5043TIP3    H115006   2.395   4.453   3.948
 5043TIP3    H215007   2.465   4.479   3.815
 5044TIP3   OH215008   2.316   6.038   3.349
 5044TIP3    H115009   2.237   6.005   3.302
 5044TIP3    H215010   2.295   6.134   3.353
 5045TIP3   OH215011   3.582   5.408   2.115
 5045TIP3    H115012   3.555   5.500   2.096
 5045TIP3    H215013   3.503   5.361   2.083
 5046TIP3   OH215014   3.579   5.408   2.495
 5046TIP3    H115015   3.611   5.382   2.583
 5046TIP3    H215016   3.538   5.327   2.463
 5047TIP3   OH215017   2.880   5.306   2.861
 5047TIP3    H115018   2.911   5.238   2.924
 5047TIP3    H215019   2.959   5.361   2.854
 5048TIP3   OH215020   3.823   5.711   2.177
 5048TIP3    H115021   3.811   5.642   2.244
 5048TIP3    H215022   3.852   5.786   2.230
 5049TIP3   OH215023   2.850   5.714   2.586
 5049TIP3    H115024   2.842   5.616   2.589
 5049TIP3    H215025   2.946   5.723   2.581
 5050TIP3   OH215026   2.559   4.920   2.371
 5050TIP3    H115027   2.510   5.002   2.386
 5050TIP3    H215028   2.488   4.863   2.337
 5051TIP3   OH215029   2.618   5.205   2.541
 5051TIP3    H115030   2.666   5.128   2.579
 5051TIP3    H215031   2.678   5.233   2.471
 5052TIP3   OH215032   3.471   6.173   2.193
 5052TIP3    H115033   3.518   6.102   2.144
 5052TIP3    H215034   3.469   6.137   2.282
 5053TIP3   OH215035   3.380   5.635   2.543
 5053TIP3    H115036   3.418   5.558   2.498
 5053TIP3    H215037   3.463   5.680   2.568
 5054TIP3   OH215038   4.390   4.956   2.541
 5054TIP3    H115039   4.420   5.037   2.587
 5054TIP3    H215040   4.414   4.977   2.449
 5055TIP3   OH215041   3.791   5.138   2.577
 5055TIP3    H115042   3.834   5.052   2.598
 5055TIP3    H215043   3.761   5.121   2.486
 5056TIP3   OH215044   3.128   4.796   2.542
 5056TIP3    H115045   3.108   4.869   2.479
 5056TIP3    H215046   3.080   4.722   2.498
 5057TIP3   OH215047   3.823   4.886   2.165
 5057TIP3    H115048   3.895   4.870   2.230
 5057TIP3    H215049   3.875   4.923   2.091
 5058TIP3   OH215050   2.763   4.999   2.648
 5058TIP3    H115051   2.846   4.978   2.696
 5058TIP3    H215052   2.776   4.942   2.569
 5059TIP3   OH215053   3.204   5.196   2.440
 5059TIP3    H115054   3.298   5.170   2.454
 5059TIP3    H215055   3.165   5.112   2.409
 5060TIP3   OH215056   4.464   5.161   2.712
 5060TIP3    H115057   4.381   5.210   2.694
 5060TIP3    H215058   4.481   5.186   2.804
 5061TIP3   OH215059   3.126   4.779   2.975
 5061TIP3    H115060   3.065   4.816   2.909
 5061TIP3    H215061   3.075   4.797   3.057
 5062TIP3   OH215062   3.474   5.630   1.984
 5062TIP3    H115063   3.431   5.610   1.900
 5062TIP3    H215064   3.431   5.715   2.008
 5063TIP3   OH215065   3.232   5.554   2.772
 5063TIP3    H115066   3.170   5.620   2.810
 5063TIP3    H215067   3.275   5.606   2.701
 5064TIP3   OH215068   4.035   4.888   2.335
 5064TIP3    H115069   4.023   4.842   2.419
 5064TIP3    H215070   4.088   4.966   2.362
 5065TIP3   OH215071   2.996   4.894   2.760
 5065TIP3    H115072   3.059   4.967   2.784
 5065TIP3    H215073   3.045   4.853   2.686
 5066TIP3   OH215074   3.059   5.748   2.869
 5066TIP3    H115075   3.034   5.834   2.830
 5066TIP3    H215076   2.980   5.733   2.926
 5067TIP3   OH215077   2.456   5.438   2.105
 5067TIP3    H115078   2.415   5.465   2.021
 5067TIP3    H215079   2.487   5.523   2.142
 5068TIP3   OH215080   3.894   5.953   2.344
 5068TIP3    H115081   3.804   5.945   2.383
 5068TIP3    H215082   3.887   6.040   2.300
 5069TIP3   OH215083   4.185   4.854   2.706
 5069TIP3    H115084   4.098   4.887   2.678
 5069TIP3    H215085   4.245   4.887   2.636
 5070TIP3   OH215086   3.483   4.499   2.689
 5070TIP3    H115087   3.471   4.404   2.707
 5070TIP3    H215088   3.405   4.536   2.736
 5071TIP3   OH215089   3.597   6.001   2.019
 5071TIP3    H115090   3.647   5.918   1.998
 5071TIP3    H215091   3.657   6.066   1.978
 5072TIP3   OH215092   3.739   5.786   1.925
 5072TIP3    H115093   3.701   5.706   1.886
 5072TIP3    H215094   3.775   5.751   2.009
 5073TIP3   OH215095   4.120   5.868   2.689
 5073TIP3    H115096   4.110   5.790   2.629
 5073TIP3    H215097   4.104   5.942   2.627
 5074TIP3   OH215098   3.411   5.260   1.944
 5074TIP3    H115099   3.331   5.312   1.923
 5074TIP3    H215100   3.458   5.259   1.859
 5075TIP3   OH215101   3.371   5.045   1.662
 5075TIP3    H115102   3.438   5.096   1.712
 5075TIP3    H215103   3.429   4.982   1.614
 5076TIP3   OH215104   4.315   5.502   2.531
 5076TIP3    H115105   4.233   5.555   2.538
 5076TIP3    H215106   4.346   5.527   2.441
 5077TIP3   OH215107   3.759   5.342   1.917
 5077TIP3    H115108   3.705   5.368   1.996
 5077TIP3    H215109   3.843   5.317   1.961
 5078TIP3   OH215110   3.995   5.383   2.829
 5078TIP3    H115111   3.993   5.466   2.880
 5078TIP3    H215112   3.909   5.389   2.783
 5079TIP3   OH215113   2.992   5.342   2.334
 5079TIP3    H115114   2.951   5.284   2.266
 5079TIP3    H215115   3.069   5.288   2.363
 5080TIP3   OH215116   3.121   5.752   2.483
 5080TIP3    H115117   3.102   5.709   2.399
 5080TIP3    H215118   3.212   5.720   2.502
 5081TIP3   OH215119   3.128   5.313   2.688
 5081TIP3    H115120   3.162   5.292   2.598
 5081TIP3    H215121   3.172   5.398   2.708
 5082TIP3   OH215122   3.652   5.950   2.464
 5082TIP3    H115123   3.640   6.030   2.518
 5082TIP3    H215124   3.639   5.877   2.529
 5083TIP3   OH215125   3.266   5.870   3.011
 5083TIP3    H115126   3.207   5.932   3.059
 5083TIP3    H215127   3.200   5.816   2.963
 5084TIP3   OH215128   3.601   5.201   1.743
 5084TIP3    H115129   3.660   5.260   1.795
 5084TIP3    H215130   3.628   5.225   1.651
 5085TIP3   OH215131   3.020   5.427   3.112
 5085TIP3    H115132   3.024   5.513   3.158
 5085TIP3    H215133   2.925   5.407   3.122
 5086TIP3   OH215134   3.342   5.882   2.019
 5086TIP3    H115135   3.422   5.935   2.036
 5086TIP3    H215136   3.282   5.947   1.980
 5087TIP3   OH215137   3.060   6.038   3.098
 5087TIP3    H115138   3.025   6.035   3.007
 5087TIP3    H215139   2.980   6.017   3.151
 5088TIP3   OH215140   4.112   4.444   1.787
 5088TIP3    H115141   4.033   4.459   1.843
 5088TIP3    H215142   4.125   4.532   1.748
 5089TIP3   OH215143   2.859   5.184   2.138
 5089TIP3    H115144   2.793   5.228   2.081
 5089TIP3    H215145   2.817   5.098   2.153
 5090TIP3   OH215146   3.914   5.810   1.339
 5090TIP3    H115147   3.923   5.907   1.325
 5090TIP3    H215148   4.007   5.781   1.327
 5091TIP3   OH215149   2.639   5.568   3.046
 5091TIP3    H115150   2.575   5.543   2.976
 5091TIP3    H215151   2.677   5.481   3.072
 5092TIP3   OH215152   2.494   5.763   2.676
 5092TIP3    H115153   2.589   5.749   2.666
 5092TIP3    H215154   2.492   5.838   2.736
 5093TIP3   OH215155   4.359   6.211   2.733
 5093TIP3    H115156   4.357   6.115   2.748
 5093TIP3    H215157   4.275   6.237   2.779
 5094TIP3   OH215158   3.464   5.999   2.868
 5094TIP3    H115159   3.463   6.092   2.900
 5094TIP3    H215160   3.393   5.960   2.923
 5095TIP3   OH215161   3.222   6.126   1.821
 5095TIP3    H115162   3.179   6.109   1.736
 5095TIP3    H215163   3.192   6.217   1.842
 5096TIP3   OH215164   2.661   5.977   2.205
 5096TIP3    H115165   2.711   5.968   2.289
 5096TIP3    H215166   2.606   5.896   2.207
 5097TIP3   OH215167   3.426   6.028   1.461
 5097TIP3    H115168   3.485   5.958   1.425
 5097TIP3    H215169   3.460   6.037   1.552
 5098TIP3   OH215170   3.475   6.076   1.732
 5098TIP3    H115171   3.387   6.085   1.775
 5098TIP3    H215172   3.528   6.037   1.803
 5099TIP3   OH215173   4.248   5.343   3.009
 5099TIP3    H115174   4.168   5.356   2.957
 5099TIP3    H215175   4.264   5.247   2.999
 5100TIP3   OH215176   2.843   5.752   3.036
 5100TIP3    H115177   2.895   5.734   3.118
 5100TIP3    H215178   2.770   5.687   3.043
 5101TIP3   OH215179   3.244   4.575   2.817
 5101TIP3    H115180   3.154   4.543   2.792
 5101TIP3    H215181   3.219   4.657   2.864
 5102TIP3   OH215182   3.777   4.690   3.012
 5102TIP3    H115183   3.845   4.662   3.077
 5102TIP3    H215184   3.693   4.669   3.059
 5103TIP3   OH215185   4.013   5.118   2.928
 5103TIP3    H115186   3.967   5.115   3.015
 5103TIP3    H215187   3.992   5.207   2.896
 5104TIP3   OH215188   3.676   5.247   1.487
 5104TIP3    H115189   3.644   5.223   1.398
 5104TIP3    H215190   3.756   5.299   1.463
 5105TIP3   OH215191   3.390   4.623   1.789
 5105TIP3    H115192   3.358   4.621   1.881
 5105TIP3    H215193   3.350   4.540   1.756
 5106TIP3   OH215194   3.175   5.090   2.836
 5106TIP3    H115195   3.125   5.112   2.918
 5106TIP3    H215196   3.159   5.171   2.783
 5107TIP3   OH215197   3.059   4.976   2.350
 5107TIP3    H115198   2.966   4.949   2.368
 5107TIP3    H215199   3.072   4.935   2.262
 5108TIP3   OH215200   3.550   5.062   2.077
 5108TIP3    H115201   3.496   5.133   2.037
 5108TIP3    H215202   3.604   5.033   2.002
 5109TIP3   OH215203   3.724   5.341   3.165
 5109TIP3    H115204   3.703   5.268   3.227
 5109TIP3    H215205   3.818   5.356   3.186
 5110TIP3   OH215206   3.707   5.090   2.318
 5110TIP3    H115207   3.648   5.122   2.247
 5110TIP3    H215208   3.739   5.008   2.275
 5111TIP3   OH215209   2.993   5.119   3.046
 5111TIP3    H115210   3.024   5.181   3.113
 5111TIP3    H215211   2.982   5.037   3.097
 5112TIP3   OH215212   3.043   4.595   1.755
 5112TIP3    H115213   3.037   4.593   1.853
 5112TIP3    H215214   2.965   4.649   1.733
 5113TIP3   OH215215   2.589   4.642   2.623
 5113TIP3    H115216   2.663   4.673   2.679
 5113TIP3    H215217   2.633   4.606   2.545
 5114TIP3   OH215218   2.560   4.621   2.144
 5114TIP3    H115219   2.608   4.660   2.067
 5114TIP3    H215220   2.501   4.696   2.166
 5115TIP3   OH215221   3.715   5.337   2.740
 5115TIP3    H115222   3.749   5.265   2.683
 5115TIP3    H215223   3.688   5.285   2.819
 5116TIP3   OH215224   3.385   4.799   2.412
 5116TIP3    H115225   3.303   4.797   2.465
 5116TIP3    H215226   3.453   4.798   2.481
 5117TIP3   OH215227   2.821   4.854   2.421
 5117TIP3    H115228   2.727   4.861   2.394
 5117TIP3    H215229   2.844   4.762   2.398
 5118TIP3   OH215230   3.091   4.850   2.108
 5118TIP3    H115231   3.185   4.865   2.088
 5118TIP3    H215232   3.045   4.873   2.025
 5119TIP3   OH215233   3.877   4.874   2.612
 5119TIP3    H115234   3.845   4.886   2.704
 5119TIP3    H215235   3.811   4.812   2.577
 5120TIP3   OH215236   2.930   4.883   1.887
 5120TIP3    H115237   2.858   4.840   1.839
 5120TIP3    H215238   2.982   4.920   1.813
 5121TIP3   OH215239   4.048   6.562   2.833
 5121TIP3    H115240   4.047   6.587   2.739
 5121TIP3    H215241   4.126   6.612   2.865
 5122TIP3   OH215242   3.005   5.674   3.255
 5122TIP3    H115243   3.086   5.703   3.302
 5122TIP3    H215244   2.942   5.672   3.329
 5123TIP3   OH215245   3.469   5.125   2.509
 5123TIP3    H115246   3.543   5.086   2.460
 5123TIP3    H215247   3.479   5.085   2.597
 5124TIP3   OH215248   2.993   4.614   2.387
 5124TIP3    H115249   2.958   4.535   2.434
 5124TIP3    H215250   3.048   4.574   2.319
 5125TIP3   OH215251   3.447   5.022   2.800
 5125TIP3    H115252   3.357   5.059   2.814
 5125TIP3    H215253   3.504   5.082   2.851
 5126TIP3   OH215254   3.183   5.414   1.894
 5126TIP3    H115255   3.110   5.349   1.883
 5126TIP3    H215256   3.165   5.448   1.985
 5127TIP3   OH215257   4.084   5.650   2.524
 5127TIP3    H115258   4.109   5.699   2.443
 5127TIP3    H215259   3.999   5.609   2.499
 5128TIP3   OH215260   3.640   4.728   1.752
 5128TIP3    H115261   3.544   4.712   1.763
 5128TIP3    H215262   3.651   4.822   1.778
 5129TIP3   OH215263   3.580   5.730   2.892
 5129TIP3    H115264   3.608   5.710   2.982
 5129TIP3    H215265   3.545   5.821   2.899
 5130TIP3   OH215266   3.711   4.972   1.858
 5130TIP3    H115267   3.807   4.980   1.876
 5130TIP3    H215268   3.693   5.053   1.807
 5131TIP3   OH215269   2.874   5.436   2.571
 5131TIP3    H115270   2.913   5.407   2.485
 5131TIP3    H215271   2.915   5.373   2.633
 5132TIP3   OH215272   3.328   5.563   1.714
 5132TIP3    H115273   3.281   5.649   1.720
 5132TIP3    H215274   3.274   5.508   1.775
 5133TIP3   OH215275   2.754   5.358   3.184
 5133TIP3    H115276   2.777   5.343   3.278
 5133TIP3    H215277   2.687   5.289   3.169
 5134TIP3   OH215278   3.481   5.469   3.203
 5134TIP3    H115279   3.423   5.410   3.152
 5134TIP3    H215280   3.570   5.437   3.176
 5135TIP3   OH215281   3.742   5.989   2.787
 5135TIP3    H115282   3.646   5.991   2.800
 5135TIP3    H215283   3.772   6.041   2.864
 5136TIP3   OH215284   4.151   5.064   1.697
 5136TIP3    H115285   4.090   5.020   1.633
 5136TIP3    H215286   4.150   5.153   1.657
 5137TIP3   OH215287   4.371   5.919   2.778
 5137TIP3    H115288   4.273   5.915   2.769
 5137TIP3    H215289   4.397   5.890   2.687
 5138TIP3   OH215290   3.850   5.883   1.603
 5138TIP3    H115291   3.829   5.812   1.665
 5138TIP3    H215292   3.865   5.835   1.519
 5139TIP3   OH215293   3.849   5.512   2.443
 5139TIP3    H115294   3.755   5.487   2.456
 5139TIP3    H215295   3.883   5.433   2.398
 5140TIP3   OH215296   2.976   5.739   2.195
 5140TIP3    H115297   2.978   5.820   2.141
 5140TIP3    H215298   2.881   5.724   2.203
 5141TIP3   OH215299   2.539   5.044   1.898
 5141TIP3    H115300   2.586   5.128   1.918
 5141TIP3    H215301   2.462   5.050   1.959
 5142TIP3   OH215302   3.115   5.505   2.139
 5142TIP3    H115303   3.081   5.595   2.158
 5142TIP3    H215304   3.080   5.455   2.215
 5143TIP3   OH215305   3.245   6.083   2.665
 5143TIP3    H115306   3.286   6.156   2.614
 5143TIP3    H215307   3.321   6.049   2.714
 5144TIP3   OH215308   2.896   5.979   2.048
 5144TIP3    H115309   2.810   5.988   2.093
 5144TIP3    H215310   2.928   6.072   2.050
 5145TIP3   OH215311   3.634   5.717   2.623
 5145TIP3    H115312   3.625   5.715   2.721
 5145TIP3    H215313   3.716   5.666   2.610
 5146TIP3   OH215314   3.607   5.608   1.506
 5146TIP3    H115315   3.661   5.584   1.585
 5146TIP3    H215316   3.518   5.584   1.537
 5147TIP3   OH215317   3.882   6.251   2.673
 5147TIP3    H115318   3.803   6.195   2.665
 5147TIP3    H215319   3.867   6.316   2.601
 5148TIP3   OH215320   3.948   6.085   1.326
 5148TIP3    H115321   3.987   6.158   1.274
 5148TIP3    H215322   3.868   6.132   1.358
 5149TIP3   OH215323   2.968   4.862   3.192
 5149TIP3    H115324   2.872   4.866   3.206
 5149TIP3    H215325   2.996   4.802   3.263
 5150TIP3   OH215326   3.768   5.543   1.723
 5150TIP3    H115327   3.758   5.477   1.794
 5150TIP3    H215328   3.865   5.542   1.710
 5151TIP3   OH215329   2.681   5.947   2.826
 5151TIP3    H115330   2.734   5.870   2.853
 5151TIP3    H215331   2.716   6.014   2.885
 5152TIP3   OH215332   2.974   5.591   1.505
 5152TIP3    H115333   2.989   5.499   1.476
 5152TIP3    H215334   2.955   5.578   1.600
 5153TIP3   OH215335   2.920   5.595   1.779
 5153TIP3    H115336   2.992   5.569   1.837
 5153TIP3    H215337   2.924   5.693   1.784
 5154TIP3   OH215338   2.655   5.289   1.980
 5154TIP3    H115339   2.590   5.334   2.037
 5154TIP3    H215340   2.671   5.359   1.914
 5155TIP3   OH215341   3.804   4.925   2.871
 5155TIP3    H115342   3.883   4.965   2.911
 5155TIP3    H215343   3.790   4.845   2.926
 5156TIP3   OH215344   3.688   4.677   2.035
 5156TIP3    H115345   3.671   4.704   1.943
 5156TIP3    H215346   3.725   4.759   2.074
 5157TIP3   OH215347   3.185   5.792   1.726
 5157TIP3    H115348   3.098   5.821   1.762
 5157TIP3    H215349   3.203   5.865   1.664
 5158TIP3   OH215350   3.374   4.856   2.140
 5158TIP3    H115351   3.439   4.928   2.123
 5158TIP3    H215352   3.379   4.849   2.237
 5159TIP3   OH215353   3.643   5.176   2.949
 5159TIP3    H115354   3.663   5.230   3.027
 5159TIP3    H215355   3.699   5.098   2.963
 5160TIP3   OH215356   3.519   4.585   2.243
 5160TIP3    H115357   3.514   4.661   2.304
 5160TIP3    H215358   3.580   4.622   2.174
 5161TIP3   OH215359   2.927   5.868   1.793
 5161TIP3    H115360   2.898   5.938   1.730
 5161TIP3    H215361   2.912   5.913   1.879
 5162TIP3   OH215362   3.029   4.582   2.031
 5162TIP3    H115363   3.028   4.672   2.069
 5162TIP3    H215364   3.125   4.562   2.040
 5163TIP3   OH215365   4.280   5.077   2.928
 5163TIP3    H115366   4.182   5.074   2.933
 5163TIP3    H215367   4.294   5.037   2.841
 5164TIP3   OH215368   3.934   5.271   2.316
 5164TIP3    H115369   3.859   5.211   2.330
 5164TIP3    H215370   4.007   5.225   2.364
 5165TIP3   OH215371   2.646   5.500   1.787
 5165TIP3    H115372   2.712   5.572   1.796
 5165TIP3    H215373   2.692   5.446   1.719
 5166TIP3   OH215374   2.592   4.775   1.918
 5166TIP3    H115375   2.594   4.873   1.914
 5166TIP3    H215376   2.504   4.755   1.886
 5167TIP3   OH215377   3.902   6.224   2.266
 5167TIP3    H115378   3.860   6.272   2.191
 5167TIP3    H215379   3.997   6.244   2.246
 5168TIP3   OH215380   2.978   4.494   2.794
 5168TIP3    H115381   2.947   4.461   2.707
 5168TIP3    H215382   2.968   4.416   2.851
 5169TIP3   OH215383   2.521   5.716   2.176
 5169TIP3    H115384   2.445   5.745   2.228
 5169TIP3    H215385   2.498   5.753   2.088
 5170TIP3   OH215386   2.673   6.253   3.248
 5170TIP3    H115387   2.760   6.253   3.293
 5170TIP3    H215388   2.655   6.158   3.244
 5171TIP3   OH215389   3.153   6.221   3.290
 5171TIP3    H115390   3.248   6.207   3.300
 5171TIP3    H215391   3.133   6.161   3.216
 5172TIP3   OH215392   3.138   5.795   1.418
 5172TIP3    H115393   3.082   5.724   1.456
 5172TIP3    H215394   3.213   5.743   1.385
 5173TIP3   OH215395   3.798   6.123   3.021
 5173TIP3    H115396   3.789   6.054   3.091
 5173TIP3    H215397   3.873   6.176   3.053
 5174TIP3   OH215398   3.573   5.836   1.329
 5174TIP3    H115399   3.621   5.775   1.387
 5174TIP3    H215400   3.630   5.837   1.249
 5175TIP3   OH215401   2.805   5.661   3.446
 5175TIP3    H115402   2.822   5.565   3.451
 5175TIP3    H215403   2.717   5.662   3.402
 5176TIP3   OH215404   2.781   5.312   1.639
 5176TIP3    H115405   2.837   5.279   1.711
 5176TIP3    H215406   2.848   5.317   1.567
 5177TIP3   OH215407   3.412   5.744   3.220
 5177TIP3    H115408   3.373   5.761   3.132
 5177TIP3    H215409   3.444   5.652   3.212
 5178TIP3   OH215410   3.289   5.509   1.445
 5178TIP3    H115411   3.293   5.523   1.542
 5178TIP3    H215412   3.289   5.411   1.441
 5179TIP3   OH215413   3.905   5.753   2.824
 5179TIP3    H115414   3.980   5.797   2.781
 5179TIP3    H215415   3.835   5.820   2.811
 5180TIP3   OH215416   2.924   5.394   3.426
 5180TIP3    H115417   2.998   5.336   3.407
 5180TIP3    H215418   2.949   5.427   3.515
 5181TIP3   OH215419   2.990   5.215   1.861
 5181TIP3    H115420   2.964   5.174   1.945
 5181TIP3    H215421   3.026   5.139   1.811
 5182TIP3   OH215422   3.258   5.278   3.088
 5182TIP3    H115423   3.182   5.340   3.091
 5182TIP3    H215424   3.308   5.312   3.010
 5183TIP3   OH215425   3.090   5.007   1.702
 5183TIP3    H115426   3.064   5.011   1.608
 5183TIP3    H215427   3.188   5.014   1.695
 5184TIP3   OH215428   3.775   5.681   3.223
 5184TIP3    H115429   3.857   5.661   3.177
 5184TIP3    H215430   3.774   5.614   3.294
 5185TIP3   OH215431   3.913   5.340   1.364
 5185TIP3    H115432   3.892   5.294   1.280
 5185TIP3    H215433   3.882   5.430   1.341
 5186TIP3   OH215434   3.382   5.067   3.216
 5186TIP3    H115435   3.383   4.987   3.160
 5186TIP3    H215436   3.338   5.133   3.158
 5187TIP3   OH215437   3.385   4.853   3.022
 5187TIP3    H115438   3.412   4.895   2.938
 5187TIP3    H215439   3.291   4.831   3.004
 5188TIP3   OH215440   3.412   5.388   2.895
 5188TIP3    H115441   3.496   5.397   2.848
 5188TIP3    H215442   3.357   5.457   2.852
 5189TIP3   OH215443   3.995   5.357   3.277
 5189TIP3    H115444   4.044   5.274   3.288
 5189TIP3    H215445   4.063   5.416   3.244
 5190TIP3   OH215446   4.035   5.609   3.012
 5190TIP3    H115447   3.978   5.662   2.953
 5190TIP3    H215448   4.123   5.629   2.972
 5191TIP3   OH215449   3.258   5.181   3.445
 5191TIP3    H115450   3.190   5.112   3.459
 5191TIP3    H215451   3.294   5.155   3.358
 5192TIP3   OH215452   3.517   4.618   3.088
 5192TIP3    H115453   3.468   4.700   3.067
 5192TIP3    H215454   3.447   4.550   3.077
 5193TIP3   OH215455   3.643   5.123   3.306
 5193TIP3    H115456   3.633   5.111   3.402
 5193TIP3    H215457   3.553   5.098   3.277
 5194TIP3   OH215458   3.881   5.070   3.159
 5194TIP3    H115459   3.807   5.073   3.222
 5194TIP3    H215460   3.956   5.041   3.216
 5195TIP3   OH215461   4.108   5.011   3.311
 5195TIP3    H115462   4.122   4.916   3.330
 5195TIP3    H215463   4.106   5.052   3.400
 5196TIP3   OH215464   3.099   4.961   3.498
 5196TIP3    H115465   3.106   4.870   3.463
 5196TIP3    H215466   3.136   4.948   3.588
 5197TIP3   OH215467   3.612   4.628   3.346
 5197TIP3    H115468   3.679   4.557   3.341
 5197TIP3    H215469   3.572   4.621   3.257
 5198TIP3   OH215470   3.677   4.842   3.506
 5198TIP3    H115471   3.655   4.771   3.441
 5198TIP3    H215472   3.600   4.901   3.499
 5199TIP3   OH215473   2.897   6.071   1.606
 5199TIP3    H115474   2.993   6.067   1.587
 5199TIP3    H215475   2.867   6.119   1.527
 5200TIP3   OH215476   2.378   5.453   1.823
 5200TIP3    H115477   2.472   5.475   1.809
 5200TIP3    H215478   2.372   5.364   1.782
 5201TIP3   OH215479   2.287   6.066   2.239
 5201TIP3    H115480   2.223   6.001   2.201
 5201TIP3    H215481   2.335   6.009   2.303
 5202TIP3   OH215482   2.426   5.919   2.424
 5202TIP3    H115483   2.419   5.842   2.483
 5202TIP3    H215484   2.480   5.979   2.478
 5203TIP3   OH215485   4.154   6.319   2.222
 5203TIP3    H115486   4.182   6.351   2.309
 5203TIP3    H215487   4.217   6.362   2.163
 5204TIP3   OH215488   4.184   6.338   2.504
 5204TIP3    H115489   4.143   6.249   2.500
 5204TIP3    H215490   4.260   6.318   2.560
 5205TIP3   OH215491   4.231   6.013   3.077
 5205TIP3    H115492   4.158   6.022   3.141
 5205TIP3    H215493   4.272   6.102   3.081
 5206TIP3   OH215494   4.047   5.527   1.697
 5206TIP3    H115495   4.115   5.591   1.669
 5206TIP3    H215496   4.091   5.488   1.776
 5207TIP3   OH215497   4.175   5.394   1.900
 5207TIP3    H115498   4.110   5.353   1.961
 5207TIP3    H215499   4.241   5.432   1.962
 5208TIP3   OH215500   4.227   5.785   2.332
 5208TIP3    H115501   4.282   5.722   2.282
 5208TIP3    H215502   4.221   5.861   2.271
 5209TIP3   OH215503   4.061   6.086   2.529
 5209TIP3    H115504   3.990   6.129   2.581
 5209TIP3    H215505   4.010   6.039   2.460
 5210TIP3   OH215506   4.113   5.301   1.549
 5210TIP3    H115507   4.042   5.305   1.481
 5210TIP3    H215508   4.087   5.377   1.604
 5211TIP3   OH215509   3.989   4.975   1.499
 5211TIP3    H115510   3.942   5.019   1.428
 5211TIP3    H215511   3.958   4.882   1.489
 5212TIP3   OH215512   3.989   5.250   2.048
 5212TIP3    H115513   3.998   5.154   2.045
 5212TIP3    H215514   3.975   5.267   2.144
 5213TIP3   OH215515   2.615   5.326   2.793
 5213TIP3    H115516   2.614   5.295   2.701
 5213TIP3    H215517   2.712   5.327   2.811
 5214TIP3   OH215518   4.277   5.675   2.904
 5214TIP3    H115519   4.350   5.610   2.896
 5214TIP3    H215520   4.306   5.746   2.844
 5215TIP3   OH215521   4.463   5.482   2.922
 5215TIP3    H115522   4.390   5.431   2.962
 5215TIP3    H215523   4.537   5.420   2.936
 5216TIP3   OH215524   3.928   4.712   1.494
 5216TIP3    H115525   4.004   4.672   1.541
 5216TIP3    H215526   3.854   4.652   1.511
 5217TIP3   OH215527   3.985   4.965   1.944
 5217TIP3    H115528   4.026   4.877   1.958
 5217TIP3    H215529   4.043   5.001   1.875
 5218TIP3   OH215530   4.147   5.141   2.437
 5218TIP3    H115531   4.233   5.168   2.397
 5218TIP3    H215532   4.160   5.178   2.527
 5219TIP3   OH215533   4.214   5.284   2.670
 5219TIP3    H115534   4.137   5.319   2.718
 5219TIP3    H215535   4.247   5.365   2.625
 5220TIP3   OH215536   2.833   5.013   3.470
 5220TIP3    H115537   2.931   5.005   3.471
 5220TIP3    H215538   2.809   4.927   3.510
 5221TIP3   OH215539   4.651   4.875   3.219
 5221TIP3    H115540   4.721   4.813   3.191
 5221TIP3    H215541   4.641   4.933   3.141
 5222TIP3   OH215542   4.096   4.714   1.977
 5222TIP3    H115543   4.144   4.701   2.062
 5222TIP3    H215544   4.033   4.639   1.980
 5223TIP3   OH215545   2.794   4.703   2.799
 5223TIP3    H115546   2.856   4.628   2.810
 5223TIP3    H215547   2.856   4.777   2.794
 5224TIP3   OH215548   2.598   4.977   2.873
 5224TIP3    H115549   2.646   4.970   2.789
 5224TIP3    H215550   2.629   5.063   2.905
 5225TIP3   OH215551   4.540   5.023   3.020
 5225TIP3    H115552   4.453   5.058   3.049
 5225TIP3    H215553   4.510   4.945   2.970
 5226TIP3   OH215554   4.194   4.648   1.593
 5226TIP3    H115555   4.277   4.597   1.605
 5226TIP3    H215556   4.231   4.738   1.598
 5227TIP3   OH215557   2.580   4.478   2.372
 5227TIP3    H115558   2.487   4.479   2.403
 5227TIP3    H215559   2.576   4.539   2.295
 5228TIP3   OH215560   3.738   6.184   1.879
 5228TIP3    H115561   3.790   6.169   1.797
 5228TIP3    H215562   3.792   6.249   1.926
 5229TIP3   OH215563   2.801   4.560   3.189
 5229TIP3    H115564   2.750   4.555   3.272
 5229TIP3    H215565   2.734   4.599   3.129
 5230TIP3   OH215566   2.839   5.991   3.265
 5230TIP3    H115567   2.749   5.958   3.249
 5230TIP3    H215568   2.853   5.967   3.358
 5231TIP3   OH215569   3.017   6.019   2.812
 5231TIP3    H115570   2.972   6.096   2.772
 5231TIP3    H215571   3.104   6.031   2.769
 5232TIP3   OH215572   3.462   6.266   2.948
 5232TIP3    H115573   3.505   6.264   3.037
 5232TIP3    H215574   3.530   6.316   2.898
 5233TIP3   OH215575   3.643   6.416   2.807
 5233TIP3    H115576   3.716   6.365   2.769
 5233TIP3    H215577   3.693   6.473   2.870
 5234TIP3   OH215578   4.438   4.779   2.910
 5234TIP3    H115579   4.346   4.772   2.877
 5234TIP3    H215580   4.469   4.686   2.898
 5235TIP3   OH215581   2.695   6.277   2.835
 5235TIP3    H115582   2.606   6.313   2.813
 5235TIP3    H215583   2.706   6.310   2.924
 5236TIP3   OH215584   2.931   6.255   2.693
 5236TIP3    H115585   2.845   6.268   2.738
 5236TIP3    H215586   2.913   6.288   2.603
 5237TIP3   OH215587   3.357   6.285   2.492
 5237TIP3    H115588   3.289   6.307   2.426
 5237TIP3    H215589   3.371   6.372   2.535
 5238TIP3   OH215590   3.626   6.223   2.542
 5238TIP3    H115591   3.532   6.241   2.523
 5238TIP3    H215592   3.670   6.300   2.502
 5239TIP3   OH215593   3.832   6.416   2.459
 5239TIP3    H115594   3.819   6.501   2.411
 5239TIP3    H215595   3.860   6.356   2.386
 5240TIP3   OH215596   2.605   6.070   2.583
 5240TIP3    H115597   2.634   6.045   2.674
 5240TIP3    H215598   2.677   6.027   2.531
 5241TIP3   OH215599   2.799   5.942   2.438
 5241TIP3    H115600   2.815   5.858   2.486
 5241TIP3    H215601   2.890   5.979   2.433
 5242TIP3   OH215602   3.065   6.037   2.441
 5242TIP3    H115603   3.097   5.946   2.428
 5242TIP3    H215604   3.110   6.059   2.525
 5243TIP3   OH215605   3.640   4.692   2.525
 5243TIP3    H115606   3.598   4.624   2.580
 5243TIP3    H215607   3.714   4.644   2.485
 5244TIP3   OH215608   4.165   4.569   2.430
 5244TIP3    H115609   4.202   4.624   2.358
 5244TIP3    H215610   4.071   4.592   2.428
 5245TIP3   OH215611   4.260   4.674   2.195
 5245TIP3    H115612   4.335   4.623   2.158
 5245TIP3    H215613   4.295   4.766   2.182
 5246TIP3   OH215614   2.889   4.404   2.544
 5246TIP3    H115615   2.797   4.368   2.547
 5246TIP3    H215616   2.940   4.320   2.543
 5247TIP3   OH215617   2.659   4.274   2.185
 5247TIP3    H115618   2.704   4.330   2.120
 5247TIP3    H215619   2.644   4.336   2.259
 5248TIP3   OH215620   3.333   4.436   2.424
 5248TIP3    H115621   3.393   4.487   2.367
 5248TIP3    H215622   3.354   4.471   2.512
 5249TIP3   OH215623   3.882   4.581   2.410
 5249TIP3    H115624   3.879   4.543   2.321
 5249TIP3    H215625   3.868   4.501   2.466
 5250TIP3   OH215626   3.911   4.501   1.970
 5250TIP3    H115627   3.826   4.546   1.984
 5250TIP3    H215628   3.896   4.418   2.019
 5251TIP3   OH215629   2.393   5.842   1.975
 5251TIP3    H115630   2.309   5.809   1.939
 5251TIP3    H215631   2.384   5.936   1.953
 5252TIP3   OH215632   2.794   4.434   1.953
 5252TIP3    H115633   2.844   4.369   1.900
 5252TIP3    H215634   2.866   4.487   1.991
 5253TIP3   OH215635   3.307   4.606   2.054
 5253TIP3    H115636   3.366   4.559   2.116
 5253TIP3    H215637   3.329   4.698   2.080
 5254TIP3   OH215638   3.166   6.032   1.555
 5254TIP3    H115639   3.255   6.054   1.519
 5254TIP3    H215640   3.144   5.957   1.495
 5255TIP3   OH215641   3.884   6.149   1.647
 5255TIP3    H115642   3.875   6.052   1.634
 5255TIP3    H215643   3.840   6.182   1.566
 5256TIP3   OH215644   3.099   4.683   3.436
 5256TIP3    H115645   3.065   4.613   3.493
 5256TIP3    H215646   3.193   4.684   3.463
 5257TIP3   OH215647   3.347   4.680   3.555
 5257TIP3    H115648   3.432   4.655   3.516
 5257TIP3    H215649   3.335   4.610   3.622
 5258TIP3   OH215650   2.471   5.867   1.612
 5258TIP3    H115651   2.473   5.895   1.704
 5258TIP3    H215652   2.559   5.826   1.599
 5259TIP3   OH215653   4.172   4.741   3.342
 5259TIP3    H115654   4.193   4.712   3.433
 5259TIP3    H215655   4.260   4.741   3.299
 5260TIP3   OH215656   4.113   6.294   2.834
 5260TIP3    H115657   4.033   6.262   2.787
 5260TIP3    H215658   4.094   6.390   2.838
 5261TIP3   OH215659   5.378   5.665   1.602
 5261TIP3    H115660   5.350   5.757   1.582
 5261TIP3    H215661   5.301   5.617   1.568
 5262TIP3   OH215662   5.377   5.665   1.981
 5262TIP3    H115663   5.407   5.637   2.069
 5262TIP3    H215664   5.335   5.585   1.946
 5263TIP3   OH215665   4.676   5.562   2.348
 5263TIP3    H115666   4.708   5.494   2.411
 5263TIP3    H215667   4.754   5.619   2.342
 5264TIP3   OH215668   5.620   5.967   1.663
 5264TIP3    H115669   5.606   5.899   1.730
 5264TIP3    H215670   5.647   6.043   1.717
 5265TIP3   OH215671   4.646   5.970   2.073
 5265TIP3    H115672   4.638   5.872   2.075
 5265TIP3    H215673   4.743   5.979   2.067
 5266TIP3   OH215674   4.354   5.172   1.858
 5266TIP3    H115675   4.310   5.258   1.873
 5266TIP3    H215676   4.280   5.121   1.820
 5267TIP3   OH215677   4.413   5.460   2.026
 5267TIP3    H115678   4.463   5.385   2.065
 5267TIP3    H215679   4.476   5.494   1.961
 5268TIP3   OH215680   5.265   6.427   1.679
 5268TIP3    H115681   5.315   6.356   1.632
 5268TIP3    H215682   5.265   6.395   1.770
 5269TIP3   OH215683   5.176   5.891   2.031
 5269TIP3    H115684   5.214   5.815   1.983
 5269TIP3    H215685   5.259   5.937   2.055
 5270TIP3   OH215686   6.187   5.213   2.027
 5270TIP3    H115687   6.216   5.296   2.069
 5270TIP3    H215688   6.207   5.231   1.934
 5271TIP3   OH215689   5.588   5.393   2.064
 5271TIP3    H115690   5.630   5.308   2.083
 5271TIP3    H215691   5.557   5.378   1.973
 5272TIP3   OH215692   4.924   5.052   2.029
 5272TIP3    H115693   4.905   5.125   1.966
 5272TIP3    H215694   4.875   4.979   1.984
 5273TIP3   OH215695   5.619   5.144   1.651
 5273TIP3    H115696   5.692   5.128   1.715
 5273TIP3    H215697   5.670   5.179   1.576
 5274TIP3   OH215698   4.559   5.255   2.135
 5274TIP3    H115699   4.642   5.236   2.183
 5274TIP3    H215700   4.573   5.200   2.055
 5275TIP3   OH215701   5.001   5.453   1.927
 5275TIP3    H115702   5.094   5.427   1.941
 5275TIP3    H215703   4.962   5.368   1.895
 5276TIP3   OH215704   6.264   5.422   2.196
 5276TIP3    H115705   6.180   5.468   2.176
 5276TIP3    H215706   6.273   5.444   2.290
 5277TIP3   OH215707   4.922   5.036   2.462
 5277TIP3    H115708   4.862   5.073   2.395
 5277TIP3    H215709   4.871   5.053   2.544
 5278TIP3   OH215710   5.270   5.887   1.472
 5278TIP3    H115711   5.228   5.867   1.387
 5278TIP3    H215712   5.227   5.972   1.495
 5279TIP3   OH215713   5.029   5.811   2.259
 5279TIP3    H115714   4.966   5.876   2.297
 5279TIP3    H215715   5.071   5.862   2.187
 5280TIP3   OH215716   5.831   5.145   1.821
 5280TIP3    H115717   5.822   5.095   1.903
 5280TIP3    H215718   5.884   5.221   1.849
 5281TIP3   OH215719   4.792   5.151   2.247
 5281TIP3    H115720   4.854   5.224   2.271
 5281TIP3    H215721   4.841   5.110   2.173
 5282TIP3   OH215722   4.855   6.004   2.355
 5282TIP3    H115723   4.831   6.090   2.316
 5282TIP3    H215724   4.777   5.989   2.412
 5283TIP3   OH215725   4.252   5.695   1.592
 5283TIP3    H115726   4.211   5.723   1.508
 5283TIP3    H215727   4.283   5.780   1.629
 5284TIP3   OH215728   5.691   6.209   1.831
 5284TIP3    H115729   5.601   6.202   1.870
 5284TIP3    H215730   5.684   6.296   1.786
 5285TIP3   OH215731   5.981   5.114   2.195
 5285TIP3    H115732   5.893   5.141   2.165
 5285TIP3    H215733   6.039   5.145   2.122
 5286TIP3   OH215734   5.279   4.755   2.175
 5286TIP3    H115735   5.267   4.660   2.194
 5286TIP3    H215736   5.201   4.793   2.222
 5287TIP3   OH215737   5.394   6.255   1.507
 5287TIP3    H115738   5.444   6.174   1.484
 5287TIP3    H215739   5.453   6.322   1.465
 5288TIP3   OH215740   5.536   6.042   1.411
 5288TIP3    H115741   5.497   5.962   1.372
 5288TIP3    H215742   5.572   6.007   1.495
 5289TIP3   OH215743   5.918   6.123   2.176
 5289TIP3    H115744   5.906   6.047   2.116
 5289TIP3    H215745   5.898   6.199   2.116
 5290TIP3   OH215746   5.208   5.517   1.432
 5290TIP3    H115747   5.128   5.569   1.409
 5290TIP3    H215748   5.255   5.514   1.346
 5291TIP3   OH215749   5.167   5.301   1.150
 5291TIP3    H115750   5.235   5.352   1.198
 5291TIP3    H215751   5.224   5.238   1.102
 5292TIP3   OH215752   6.113   5.761   2.020
 5292TIP3    H115753   6.029   5.812   2.025
 5292TIP3    H215754   6.142   5.785   1.929
 5293TIP3   OH215755   5.556   5.600   1.404
 5293TIP3    H115756   5.501   5.625   1.483
 5293TIP3    H215757   5.639   5.574   1.448
 5294TIP3   OH215758   5.791   5.640   2.314
 5294TIP3    H115759   5.788   5.724   2.364
 5294TIP3    H215760   5.705   5.644   2.269
 5295TIP3   OH215761   4.788   5.598   1.821
 5295TIP3    H115762   4.747   5.540   1.753
 5295TIP3    H215763   4.866   5.545   1.849
 5296TIP3   OH215764   4.917   6.007   1.970
 5296TIP3    H115765   4.898   5.966   1.885
 5296TIP3    H215766   5.008   5.976   1.989
 5297TIP3   OH215767   4.924   5.569   2.174
 5297TIP3    H115768   4.958   5.549   2.085
 5297TIP3    H215769   4.968   5.655   2.195
 5298TIP3   OH215770   5.450   6.206   1.951
 5298TIP3    H115771   5.436   6.288   2.003
 5298TIP3    H215772   5.435   6.135   2.016
 5299TIP3   OH215773   5.062   6.125   2.499
 5299TIP3    H115774   5.002   6.188   2.545
 5299TIP3    H215775   4.996   6.072   2.450
 5300TIP3   OH215776   5.396   5.458   1.230
 5300TIP3    H115777   5.455   5.517   1.282
 5300TIP3    H215778   5.422   5.482   1.138
 5301TIP3   OH215779   4.816   5.683   2.599
 5301TIP3    H115780   4.821   5.769   2.644
 5301TIP3    H215781   4.721   5.663   2.609
 5302TIP3   OH215782   5.138   6.139   1.506
 5302TIP3    H115783   5.218   6.192   1.524
 5302TIP3    H215784   5.078   6.204   1.467
 5303TIP3   OH215785   4.857   6.294   2.585
 5303TIP3    H115786   4.821   6.293   2.494
 5303TIP3    H215787   4.777   6.273   2.639
 5304TIP3   OH215788   5.913   4.700   1.279
 5304TIP3    H115789   5.831   4.719   1.328
 5304TIP3    H215790   5.925   4.783   1.227
 5305TIP3   OH215791   4.655   5.441   1.625
 5305TIP3    H115792   4.590   5.486   1.568
 5305TIP3    H215793   4.613   5.355   1.638
 5306TIP3   OH215794   5.709   6.066   0.825
 5306TIP3    H115795   5.719   6.163   0.815
 5306TIP3    H215796   5.802   6.037   0.814
 5307TIP3   OH215797   4.435   5.824   2.533
 5307TIP3    H115798   4.371   5.801   2.463
 5307TIP3    H215799   4.473   5.737   2.558
 5308TIP3   OH215800   4.290   6.017   2.167
 5308TIP3    H115801   4.386   6.011   2.156
 5308TIP3    H215802   4.281   6.096   2.221
 5309TIP3   OH215803   6.156   6.468   2.223
 5309TIP3    H115804   6.152   6.372   2.235
 5309TIP3    H215805   6.072   6.495   2.266
 5310TIP3   OH215806   5.261   6.255   2.356
 5310TIP3    H115807   5.260   6.347   2.388
 5310TIP3    H215808   5.189   6.216   2.410
 5311TIP3   OH215809   5.018   6.383   1.308
 5311TIP3    H115810   4.975   6.367   1.222
 5311TIP3    H215811   4.989   6.473   1.330
 5312TIP3   OH215812   4.458   6.234   1.691
 5312TIP3    H115813   4.507   6.224   1.776
 5312TIP3    H215814   4.399   6.156   1.697
 5313TIP3   OH215815   5.221   6.283   0.949
 5313TIP3    H115816   5.281   6.215   0.912
 5313TIP3    H215817   5.256   6.294   1.040
 5314TIP3   OH215818   5.271   6.332   1.218
 5314TIP3    H115819   5.183   6.342   1.262
 5314TIP3    H215820   5.325   6.296   1.290
 5315TIP3   OH215821   6.045   5.600   2.495
 5315TIP3    H115822   5.963   5.615   2.445
 5315TIP3    H215823   6.058   5.504   2.483
 5316TIP3   OH215824   4.640   6.007   2.522
 5316TIP3    H115825   4.690   5.991   2.604
 5316TIP3    H215826   4.566   5.944   2.530
 5317TIP3   OH215827   5.040   4.831   2.304
 5317TIP3    H115828   4.950   4.801   2.279
 5317TIP3    H215829   5.016   4.914   2.351
 5318TIP3   OH215830   5.573   4.947   2.499
 5318TIP3    H115831   5.641   4.919   2.564
 5318TIP3    H215832   5.489   4.926   2.545
 5319TIP3   OH215833   5.817   5.377   2.420
 5319TIP3    H115834   5.765   5.372   2.504
 5319TIP3    H215835   5.789   5.463   2.383
 5320TIP3   OH215836   5.472   5.508   0.975
 5320TIP3    H115837   5.439   5.480   0.887
 5320TIP3    H215838   5.554   5.554   0.950
 5321TIP3   OH215839   5.183   4.882   1.275
 5321TIP3    H115840   5.152   4.878   1.368
 5321TIP3    H215841   5.148   4.797   1.243
 5322TIP3   OH215842   4.971   5.346   2.323
 5322TIP3    H115843   4.922   5.369   2.405
 5322TIP3    H215844   4.955   5.427   2.269
 5323TIP3   OH215845   4.856   5.232   1.837
 5323TIP3    H115846   4.763   5.207   1.854
 5323TIP3    H215847   4.869   5.192   1.749
 5324TIP3   OH215848   5.346   5.318   1.565
 5324TIP3    H115849   5.293   5.389   1.523
 5324TIP3    H215850   5.401   5.288   1.490
 5325TIP3   OH215851   5.520   5.597   2.652
 5325TIP3    H115852   5.498   5.525   2.714
 5325TIP3    H215853   5.614   5.612   2.674
 5326TIP3   OH215854   5.503   5.348   1.805
 5326TIP3    H115855   5.444   5.378   1.733
 5326TIP3    H215856   5.536   5.266   1.762
 5327TIP3   OH215857   4.790   5.376   2.533
 5327TIP3    H115858   4.818   5.439   2.600
 5327TIP3    H215859   4.780   5.294   2.585
 5328TIP3   OH215860   4.837   4.851   1.242
 5328TIP3    H115861   4.833   4.850   1.339
 5328TIP3    H215862   4.762   4.909   1.220
 5329TIP3   OH215863   4.387   4.896   2.109
 5329TIP3    H115864   4.456   4.932   2.169
 5329TIP3    H215865   4.438   4.867   2.033
 5330TIP3   OH215866   4.351   4.879   1.632
 5330TIP3    H115867   4.400   4.916   1.555
 5330TIP3    H215868   4.295   4.956   1.654
 5331TIP3   OH215869   5.515   5.594   2.228
 5331TIP3    H115870   5.547   5.521   2.169
 5331TIP3    H215871   5.485   5.541   2.305
 5332TIP3   OH215872   5.182   5.057   1.900
 5332TIP3    H115873   5.100   5.053   1.953
 5332TIP3    H215874   5.251   5.054   1.968
 5333TIP3   OH215875   4.617   5.110   1.908
 5333TIP3    H115876   4.523   5.117   1.880
 5333TIP3    H215877   4.642   5.020   1.883
 5334TIP3   OH215878   4.887   5.106   1.595
 5334TIP3    H115879   4.982   5.121   1.576
 5334TIP3    H215880   4.842   5.130   1.511
 5335TIP3   OH215881   5.676   5.130   2.101
 5335TIP3    H115882   5.640   5.142   2.192
 5335TIP3    H215883   5.610   5.069   2.064
 5336TIP3   OH215884   4.726   5.140   1.373
 5336TIP3    H115885   4.656   5.096   1.321
 5336TIP3    H215886   4.780   5.178   1.300
 5337TIP3   OH215887   5.842   6.818   2.320
 5337TIP3    H115888   5.833   6.846   2.227
 5337TIP3    H215889   5.916   6.874   2.350
 5338TIP3   OH215890   4.802   5.929   2.742
 5338TIP3    H115891   4.882   5.960   2.789
 5338TIP3    H215892   4.737   5.929   2.815
 5339TIP3   OH215893   5.266   5.382   1.996
 5339TIP3    H115894   5.338   5.343   1.945
 5339TIP3    H215895   5.276   5.340   2.083
 5340TIP3   OH215896   4.787   4.872   1.873
 5340TIP3    H115897   4.758   4.791   1.919
 5340TIP3    H215898   4.846   4.836   1.804
 5341TIP3   OH215899   5.243   5.278   2.288
 5341TIP3    H115900   5.153   5.316   2.300
 5341TIP3    H215901   5.300   5.339   2.337
 5342TIP3   OH215902   4.979   5.671   1.380
 5342TIP3    H115903   4.906   5.606   1.370
 5342TIP3    H215904   4.961   5.704   1.472
 5343TIP3   OH215905   5.880   5.905   2.011
 5343TIP3    H115906   5.904   5.956   1.930
 5343TIP3    H215907   5.794   5.865   1.987
 5344TIP3   OH215908   5.437   4.982   1.245
 5344TIP3    H115909   5.340   4.967   1.250
 5344TIP3    H215910   5.447   5.077   1.266
 5345TIP3   OH215911   5.377   5.987   2.379
 5345TIP3    H115912   5.401   5.968   2.471
 5345TIP3    H215913   5.341   6.077   2.384
 5346TIP3   OH215914   5.507   5.230   1.347
 5346TIP3    H115915   5.604   5.236   1.361
 5346TIP3    H215916   5.489   5.309   1.292
 5347TIP3   OH215917   4.669   5.689   2.058
 5347TIP3    H115918   4.709   5.663   1.972
 5347TIP3    H215919   4.714   5.629   2.120
 5348TIP3   OH215920   5.124   5.820   1.201
 5348TIP3    H115921   5.077   5.906   1.207
 5348TIP3    H215922   5.070   5.765   1.262
 5349TIP3   OH215923   4.551   5.614   2.671
 5349TIP3    H115924   4.574   5.601   2.765
 5349TIP3    H215925   4.483   5.545   2.657
 5350TIP3   OH215926   5.277   5.726   2.690
 5350TIP3    H115927   5.218   5.667   2.640
 5350TIP3    H215928   5.365   5.693   2.662
 5351TIP3   OH215929   5.540   6.242   2.276
 5351TIP3    H115930   5.443   6.246   2.286
 5351TIP3    H215931   5.568   6.298   2.352
 5352TIP3   OH215932   5.950   5.319   1.183
 5352TIP3    H115933   5.887   5.274   1.122
 5352TIP3    H215934   5.948   5.408   1.141
 5353TIP3   OH215935   6.168   6.176   2.264
 5353TIP3    H115936   6.070   6.172   2.256
 5353TIP3    H215937   6.193   6.147   2.174
 5354TIP3   OH215938   5.650   6.139   1.091
 5354TIP3    H115939   5.623   6.070   1.153
 5354TIP3    H215940   5.661   6.091   1.007
 5355TIP3   OH215941   5.646   5.768   1.931
 5355TIP3    H115942   5.552   5.743   1.943
 5355TIP3    H215943   5.679   5.689   1.885
 5356TIP3   OH215944   4.772   5.995   1.681
 5356TIP3    H115945   4.775   6.077   1.628
 5356TIP3    H215946   4.677   5.982   1.691
 5357TIP3   OH215947   4.336   5.301   1.384
 5357TIP3    H115948   4.382   5.385   1.404
 5357TIP3    H215949   4.259   5.307   1.445
 5358TIP3   OH215950   4.911   5.761   1.626
 5358TIP3    H115951   4.877   5.851   1.644
 5358TIP3    H215952   4.875   5.712   1.702
 5359TIP3   OH215953   5.041   6.340   2.151
 5359TIP3    H115954   5.081   6.413   2.100
 5359TIP3    H215955   5.118   6.307   2.200
 5360TIP3   OH215956   4.692   6.235   1.534
 5360TIP3    H115957   4.606   6.244   1.580
 5360TIP3    H215958   4.725   6.328   1.537
 5361TIP3   OH215959   5.430   5.973   2.110
 5361TIP3    H115960   5.421   5.972   2.208
 5361TIP3    H215961   5.511   5.922   2.097
 5362TIP3   OH215962   5.404   5.865   0.992
 5362TIP3    H115963   5.457   5.841   1.071
 5362TIP3    H215964   5.316   5.840   1.022
 5363TIP3   OH215965   5.680   6.507   2.158
 5363TIP3    H115966   5.598   6.454   2.149
 5363TIP3    H215967   5.666   6.574   2.088
 5364TIP3   OH215968   5.744   6.340   0.817
 5364TIP3    H115969   5.765   6.402   0.745
 5364TIP3    H215970   5.666   6.386   0.854
 5365TIP3   OH215971   4.765   5.118   2.679
 5365TIP3    H115972   4.669   5.122   2.695
 5365TIP3    H215973   4.794   5.059   2.751
 5366TIP3   OH215974   5.563   5.801   1.210
 5366TIP3    H115975   5.554   5.734   1.280
 5366TIP3    H215976   5.661   5.799   1.197
 5367TIP3   OH215977   4.479   6.203   2.311
 5367TIP3    H115978   4.533   6.128   2.342
 5367TIP3    H215979   4.508   6.273   2.371
 5368TIP3   OH215980   4.770   5.848   0.992
 5368TIP3    H115981   4.786   5.756   0.963
 5368TIP3    H215982   4.752   5.835   1.087
 5369TIP3   OH215983   4.716   5.852   1.265
 5369TIP3    H115984   4.789   5.826   1.323
 5369TIP3    H215985   4.720   5.950   1.271
 5370TIP3   OH215986   4.451   5.545   1.467
 5370TIP3    H115987   4.386   5.591   1.524
 5370TIP3    H215988   4.467   5.615   1.400
 5371TIP3   OH215989   5.600   5.183   2.360
 5371TIP3    H115990   5.680   5.219   2.401
 5371TIP3    H215991   5.584   5.102   2.413
 5372TIP3   OH215992   5.477   4.936   1.524
 5372TIP3    H115993   5.465   4.957   1.430
 5372TIP3    H215994   5.518   5.018   1.559
 5373TIP3   OH215995   4.980   6.049   1.212
 5373TIP3    H115996   4.894   6.078   1.249
 5373TIP3    H215997   5.000   6.123   1.153
 5374TIP3   OH215998   5.169   5.114   1.627
 5374TIP3    H115999   5.234   5.184   1.608
 5374TIP3    H216000   5.175   5.106   1.724
 5375TIP3   OH216001   5.439   5.433   2.435
 5375TIP3    H116002   5.458   5.487   2.514
 5375TIP3    H216003   5.494   5.354   2.450
 5376TIP3   OH216004   5.314   4.842   1.729
 5376TIP3    H116005   5.309   4.918   1.790
 5376TIP3    H216006   5.374   4.877   1.660
 5377TIP3   OH216007   4.723   6.125   1.280
 5377TIP3    H116008   4.694   6.195   1.217
 5377TIP3    H216009   4.708   6.169   1.366
 5378TIP3   OH216010   4.824   4.839   1.519
 5378TIP3    H116011   4.825   4.929   1.555
 5378TIP3    H216012   4.919   4.817   1.527
 5379TIP3   OH216013   6.083   5.331   2.412
 5379TIP3    H116014   5.985   5.331   2.424
 5379TIP3    H216015   6.088   5.290   2.325
 5380TIP3   OH216016   5.731   5.527   1.803
 5380TIP3    H116017   5.655   5.467   1.815
 5380TIP3    H216018   5.802   5.479   1.851
 5381TIP3   OH216019   4.442   5.757   1.273
 5381TIP3    H116020   4.507   5.828   1.283
 5381TIP3    H216021   4.489   5.703   1.206
 5382TIP3   OH216022   4.386   5.031   1.408
 5382TIP3    H116023   4.393   5.129   1.403
 5382TIP3    H216024   4.300   5.017   1.366
 5383TIP3   OH216025   5.700   6.478   1.751
 5383TIP3    H116026   5.657   6.524   1.676
 5383TIP3    H216027   5.794   6.499   1.730
 5384TIP3   OH216028   4.774   4.752   2.281
 5384TIP3    H116029   4.744   4.717   2.195
 5384TIP3    H216030   4.765   4.673   2.339
 5385TIP3   OH216031   4.315   5.967   1.662
 5385TIP3    H116032   4.242   6.001   1.716
 5385TIP3    H216033   4.293   6.008   1.575
 5386TIP3   OH216034   4.470   6.510   2.732
 5386TIP3    H116035   4.556   6.510   2.779
 5386TIP3    H216036   4.450   6.415   2.731
 5387TIP3   OH216037   4.952   6.476   2.777
 5387TIP3    H116038   5.047   6.459   2.784
 5387TIP3    H216039   4.928   6.418   2.703
 5388TIP3   OH216040   4.933   6.051   0.905
 5388TIP3    H116041   4.877   5.981   0.943
 5388TIP3    H216042   5.009   5.999   0.874
 5389TIP3   OH216043   5.592   6.381   2.509
 5389TIP3    H116044   5.583   6.312   2.579
 5389TIP3    H216045   5.668   6.433   2.540
 5390TIP3   OH216046   5.369   6.092   0.817
 5390TIP3    H116047   5.415   6.028   0.875
 5390TIP3    H216048   5.428   6.096   0.739
 5391TIP3   OH216049   4.601   5.917   2.933
 5391TIP3    H116050   4.618   5.821   2.937
 5391TIP3    H216051   4.513   5.919   2.889
 5392TIP3   OH216052   4.578   5.568   1.126
 5392TIP3    H116053   4.634   5.536   1.198
 5392TIP3    H216054   4.644   5.573   1.054
 5393TIP3   OH216055   5.209   6.002   2.706
 5393TIP3    H116056   5.168   6.018   2.619
 5393TIP3    H216057   5.240   5.909   2.698
 5394TIP3   OH216058   5.085   5.767   0.932
 5394TIP3    H116059   5.090   5.779   1.029
 5394TIP3    H216060   5.086   5.668   0.927
 5395TIP3   OH216061   5.702   6.009   2.312
 5395TIP3    H116062   5.776   6.055   2.268
 5395TIP3    H216063   5.631   6.075   2.300
 5396TIP3   OH216064   4.720   5.649   2.914
 5396TIP3    H116065   4.795   5.592   2.894
 5396TIP3    H216066   4.744   5.684   3.002
 5397TIP3   OH216067   4.786   5.472   1.347
 5397TIP3    H116068   4.761   5.430   1.431
 5397TIP3    H216069   4.823   5.397   1.297
 5398TIP3   OH216070   5.054   5.535   2.575
 5398TIP3    H116071   4.978   5.596   2.578
 5398TIP3    H216072   5.104   5.569   2.497
 5399TIP3   OH216073   4.886   5.264   1.189
 5399TIP3    H116074   4.861   5.267   1.095
 5399TIP3    H216075   4.984   5.270   1.182
 5400TIP3   OH216076   5.571   5.937   2.711
 5400TIP3    H116077   5.652   5.915   2.663
 5400TIP3    H216078   5.570   5.870   2.781
 5401TIP3   OH216079   5.708   5.597   0.851
 5401TIP3    H116080   5.688   5.548   0.768
 5401TIP3    H216081   5.676   5.686   0.825
 5402TIP3   OH216082   5.179   5.324   2.703
 5402TIP3    H116083   5.179   5.244   2.647
 5402TIP3    H216084   5.135   5.390   2.644
 5403TIP3   OH216085   5.181   5.110   2.509
 5403TIP3    H116086   5.208   5.151   2.425
 5403TIP3    H216087   5.087   5.087   2.491
 5404TIP3   OH216088   5.209   5.646   2.382
 5404TIP3    H116089   5.292   5.655   2.334
 5404TIP3    H216090   5.153   5.713   2.339
 5405TIP3   OH216091   5.790   5.614   2.764
 5405TIP3    H116092   5.839   5.531   2.775
 5405TIP3    H216093   5.858   5.673   2.730
 5406TIP3   OH216094   5.832   5.866   2.500
 5406TIP3    H116095   5.773   5.919   2.441
 5406TIP3    H216096   5.919   5.886   2.459
 5407TIP3   OH216097   5.055   5.438   2.932
 5407TIP3    H116098   4.987   5.369   2.946
 5407TIP3    H216099   5.091   5.411   2.845
 5408TIP3   OH216100   5.313   4.874   2.575
 5408TIP3    H116101   5.264   4.956   2.553
 5408TIP3    H216102   5.244   4.806   2.564
 5409TIP3   OH216103   5.440   5.379   2.793
 5409TIP3    H116104   5.428   5.367   2.888
 5409TIP3    H216105   5.350   5.354   2.762
 5410TIP3   OH216106   5.679   5.327   2.647
 5410TIP3    H116107   5.603   5.329   2.708
 5410TIP3    H216108   5.751   5.296   2.705
 5411TIP3   OH216109   5.913   5.269   2.798
 5411TIP3    H116110   5.921   5.173   2.818
 5411TIP3    H216111   5.904   5.308   2.888
 5412TIP3   OH216112   4.896   5.217   2.984
 5412TIP3    H116113   4.903   5.125   2.951
 5412TIP3    H216114   4.933   5.206   3.074
 5413TIP3   OH216115   5.410   4.885   2.832
 5413TIP3    H116116   5.476   4.813   2.827
 5413TIP3    H216117   5.369   4.878   2.743
 5414TIP3   OH216118   5.475   5.100   2.992
 5414TIP3    H116119   5.452   5.028   2.928
 5414TIP3    H216120   5.396   5.158   2.986
 5415TIP3   OH216121   4.693   6.327   1.092
 5415TIP3    H116122   4.789   6.323   1.074
 5415TIP3    H216123   4.664   6.376   1.013
 5416TIP3   OH216124   4.174   5.709   1.310
 5416TIP3    H116125   4.269   5.732   1.296
 5416TIP3    H216126   4.169   5.620   1.268
 5417TIP3   OH216127   4.087   6.322   1.723
 5417TIP3    H116128   4.021   6.259   1.687
 5417TIP3    H216129   4.132   6.265   1.789
 5418TIP3   OH216130   4.224   6.174   1.909
 5418TIP3    H116131   4.214   6.100   1.971
 5418TIP3    H216132   4.276   6.236   1.964
 5419TIP3   OH216133   5.954   6.568   1.707
 5419TIP3    H116134   5.973   6.600   1.797
 5419TIP3    H216135   6.005   6.629   1.652
 5420TIP3   OH216136   5.983   6.585   1.982
 5420TIP3    H116137   5.941   6.497   1.985
 5420TIP3    H216138   6.052   6.574   2.049
 5421TIP3   OH216139   6.029   6.269   2.565
 5421TIP3    H116140   5.954   6.278   2.628
 5421TIP3    H216141   6.068   6.359   2.568
 5422TIP3   OH216142   5.843   5.784   1.185
 5422TIP3    H116143   5.912   5.848   1.157
 5422TIP3    H216144   5.886   5.744   1.264
 5423TIP3   OH216145   5.971   5.652   1.388
 5423TIP3    H116146   5.905   5.608   1.446
 5423TIP3    H216147   6.034   5.690   1.452
 5424TIP3   OH216148   6.026   6.043   1.822
 5424TIP3    H116149   6.077   5.979   1.769
 5424TIP3    H216150   6.016   6.118   1.760
 5425TIP3   OH216151   5.856   6.340   2.018
 5425TIP3    H116152   5.786   6.387   2.067
 5425TIP3    H216153   5.805   6.295   1.947
 5426TIP3   OH216154   5.910   5.559   1.034
 5426TIP3    H116155   5.838   5.561   0.967
 5426TIP3    H216156   5.881   5.635   1.090
 5427TIP3   OH216157   5.778   5.234   0.992
 5427TIP3    H116158   5.742   5.270   0.910
 5427TIP3    H216159   5.753   5.139   0.983
 5428TIP3   OH216160   5.786   5.507   1.534
 5428TIP3    H116161   5.793   5.410   1.528
 5428TIP3    H216162   5.772   5.521   1.631
 5429TIP3   OH216163   4.412   5.581   2.281
 5429TIP3    H116164   4.411   5.552   2.187
 5429TIP3    H216165   4.509   5.583   2.298
 5430TIP3   OH216166   6.074   5.932   2.391
 5430TIP3    H116167   6.147   5.867   2.382
 5430TIP3    H216168   6.099   6.002   2.329
 5431TIP3   OH216169   6.260   5.739   2.408
 5431TIP3    H116170   6.185   5.690   2.447
 5431TIP3    H216171   6.332   5.674   2.422
 5432TIP3   OH216172   5.723   4.968   0.980
 5432TIP3    H116173   5.799   4.934   1.031
 5432TIP3    H216174   5.651   4.906   1.000
 5433TIP3   OH216175   5.782   5.223   1.430
 5433TIP3    H116176   5.822   5.135   1.446
 5433TIP3    H216177   5.840   5.255   1.359
 5434TIP3   OH216178   5.944   5.398   1.925
 5434TIP3    H116179   6.030   5.424   1.885
 5434TIP3    H216180   5.957   5.435   2.014
 5435TIP3   OH216181   6.012   5.541   2.157
 5435TIP3    H116182   5.934   5.575   2.205
 5435TIP3    H216183   6.044   5.622   2.112
 5436TIP3   OH216184   4.631   5.273   2.954
 5436TIP3    H116185   4.729   5.264   2.957
 5436TIP3    H216186   4.605   5.187   2.992
 5437TIP3   OH216187   6.476   5.137   2.711
 5437TIP3    H116188   6.520   5.064   2.665
 5437TIP3    H216189   6.435   5.188   2.637
 5438TIP3   OH216190   5.890   4.973   1.468
 5438TIP3    H116191   5.938   4.956   1.552
 5438TIP3    H216192   5.830   4.896   1.466
 5439TIP3   OH216193   4.589   4.960   2.286
 5439TIP3    H116194   4.651   4.885   2.297
 5439TIP3    H216195   4.651   5.035   2.280
 5440TIP3   OH216196   4.393   5.233   2.359
 5440TIP3    H116197   4.444   5.229   2.275
 5440TIP3    H216198   4.421   5.319   2.394
 5441TIP3   OH216199   6.336   5.268   2.520
 5441TIP3    H116200   6.252   5.313   2.546
 5441TIP3    H216201   6.300   5.201   2.459
 5442TIP3   OH216202   5.973   4.908   1.100
 5442TIP3    H116203   6.011   4.835   1.045
 5442TIP3    H216204   6.040   4.978   1.090
 5443TIP3   OH216205   4.374   4.726   1.853
 5443TIP3    H116206   4.286   4.736   1.893
 5443TIP3    H216207   4.372   4.793   1.781
 5444TIP3   OH216208   5.532   6.436   1.364
 5444TIP3    H116209   5.589   6.428   1.285
 5444TIP3    H216210   5.579   6.505   1.416
 5445TIP3   OH216211   4.596   4.816   2.675
 5445TIP3    H116212   4.547   4.812   2.759
 5445TIP3    H216213   4.529   4.855   2.616
 5446TIP3   OH216214   4.637   6.243   2.752
 5446TIP3    H116215   4.545   6.216   2.736
 5446TIP3    H216216   4.646   6.226   2.847
 5447TIP3   OH216217   4.814   6.275   2.299
 5447TIP3    H116218   4.767   6.351   2.260
 5447TIP3    H216219   4.900   6.289   2.255
 5448TIP3   OH216220   5.260   6.520   2.438
 5448TIP3    H116221   5.302   6.523   2.526
 5448TIP3    H216222   5.326   6.571   2.385
 5449TIP3   OH216223   5.438   6.671   2.296
 5449TIP3    H116224   5.511   6.625   2.252
 5449TIP3    H216225   5.488   6.731   2.356
 5450TIP3   OH216226   6.232   5.034   2.398
 5450TIP3    H116227   6.141   5.029   2.364
 5450TIP3    H216228   6.261   4.941   2.385
 5451TIP3   OH216229   4.490   6.532   2.323
 5451TIP3    H116230   4.402   6.568   2.300
 5451TIP3    H216231   4.501   6.569   2.411
 5452TIP3   OH216232   4.727   6.510   2.180
 5452TIP3    H116233   4.640   6.524   2.225
 5452TIP3    H216234   4.708   6.545   2.091
 5453TIP3   OH216235   5.153   6.540   1.979
 5453TIP3    H116236   5.086   6.563   1.912
 5453TIP3    H216237   5.168   6.627   2.022
 5454TIP3   OH216238   5.423   6.479   2.029
 5454TIP3    H116239   5.329   6.499   2.010
 5454TIP3    H216240   5.467   6.557   1.989
 5455TIP3   OH216241   5.629   6.668   1.945
 5455TIP3    H116242   5.615   6.753   1.896
 5455TIP3    H216243   5.656   6.609   1.871
 5456TIP3   OH216244   4.402   6.327   2.068
 5456TIP3    H116245   4.429   6.302   2.159
 5456TIP3    H216246   4.474   6.283   2.018
 5457TIP3   OH216247   4.596   6.198   1.924
 5457TIP3    H116248   4.612   6.114   1.973
 5457TIP3    H216249   4.686   6.236   1.920
 5458TIP3   OH216250   4.861   6.294   1.928
 5458TIP3    H116251   4.894   6.203   1.915
 5458TIP3    H216252   4.905   6.316   2.012
 5459TIP3   OH216253   5.438   4.950   2.014
 5459TIP3    H116254   5.394   4.880   2.067
 5459TIP3    H216255   5.510   4.901   1.970
 5460TIP3   OH216256   5.963   4.834   1.924
 5460TIP3    H116257   5.998   4.883   1.846
 5460TIP3    H216258   5.867   4.847   1.914
 5461TIP3   OH216259   6.057   4.931   1.686
 5461TIP3    H116260   6.129   4.879   1.643
 5461TIP3    H216261   6.089   5.022   1.670
 5462TIP3   OH216262   4.687   4.658   2.031
 5462TIP3    H116263   4.595   4.623   2.036
 5462TIP3    H216264   4.738   4.574   2.030
 5463TIP3   OH216265   4.437   4.534   1.664
 5463TIP3    H116266   4.500   4.579   1.605
 5463TIP3    H216267   4.434   4.595   1.741
 5464TIP3   OH216268   5.127   4.694   1.913
 5464TIP3    H116269   5.187   4.741   1.852
 5464TIP3    H216270   5.155   4.729   1.999
 5465TIP3   OH216271   5.680   4.837   1.896
 5465TIP3    H116272   5.676   4.800   1.807
 5465TIP3    H216273   5.666   4.757   1.951
 5466TIP3   OH216274   5.708   4.760   1.459
 5466TIP3    H116275   5.619   4.800   1.467
 5466TIP3    H216276   5.693   4.674   1.505
 5467TIP3   OH216277   4.191   6.098   1.461
 5467TIP3    H116278   4.106   6.066   1.425
 5467TIP3    H216279   4.180   6.193   1.444
 5468TIP3   OH216280   4.591   4.686   1.442
 5468TIP3    H116281   4.643   4.624   1.388
 5468TIP3    H216282   4.663   4.742   1.479
 5469TIP3   OH216283   5.101   4.863   1.542
 5469TIP3    H116284   5.163   4.815   1.600
 5469TIP3    H216285   5.124   4.955   1.567
 5470TIP3   OH216286   4.962   6.289   1.041
 5470TIP3    H116287   5.051   6.311   1.006
 5470TIP3    H216288   4.940   6.214   0.982
 5471TIP3   OH216289   5.683   6.407   1.134
 5471TIP3    H116290   5.674   6.309   1.121
 5471TIP3    H216291   5.637   6.440   1.054
 5472TIP3   OH216292   4.895   4.939   2.923
 5472TIP3    H116293   4.861   4.868   2.980
 5472TIP3    H216294   4.989   4.940   2.950
 5473TIP3   OH216295   5.144   4.938   3.042
 5473TIP3    H116296   5.228   4.908   3.004
 5473TIP3    H216297   5.128   4.869   3.110
 5474TIP3   OH216298   4.266   6.124   1.099
 5474TIP3    H116299   4.268   6.152   1.191
 5474TIP3    H216300   4.355   6.083   1.087
 5475TIP3   OH216301   5.967   4.997   2.831
 5475TIP3    H116302   5.986   4.966   2.922
 5475TIP3    H216303   6.056   4.990   2.789
 5476TIP3   OH216304   5.909   6.550   2.321
 5476TIP3    H116305   5.830   6.519   2.273
 5476TIP3    H216306   5.891   6.647   2.323
 5477TIP3   OH216307   7.174   5.925   1.089
 5477TIP3    H116308   7.145   6.016   1.067
 5477TIP3    H216309   7.100   5.873   1.054
 5478TIP3   OH216310   7.173   5.923   1.468
 5478TIP3    H116311   7.204   5.892   1.555
 5478TIP3    H216312   7.131   5.843   1.432
 5479TIP3   OH216313   6.474   5.819   1.832
 5479TIP3    H116314   6.505   5.752   1.895
 5479TIP3    H216315   6.551   5.877   1.827
 5480TIP3   OH216316   7.417   6.227   1.149
 5480TIP3    H116317   7.401   6.155   1.211
 5480TIP3    H216318   7.444   6.299   1.208
 5481TIP3   OH216319   6.444   6.228   1.558
 5481TIP3    H116320   6.434   6.130   1.562
 5481TIP3    H216321   6.541   6.236   1.557
 5482TIP3   OH216322   6.151   5.433   1.346
 5482TIP3    H116323   6.100   5.515   1.358
 5482TIP3    H216324   6.082   5.376   1.307
 5483TIP3   OH216325   6.211   5.719   1.516
 5483TIP3    H116326   6.259   5.641   1.552
 5483TIP3    H216327   6.266   5.742   1.440
 5484TIP3   OH216328   7.063   6.687   1.166
 5484TIP3    H116329   7.114   6.615   1.122
 5484TIP3    H216330   7.055   6.654   1.256
 5485TIP3   OH216331   6.972   6.148   1.517
 5485TIP3    H116332   7.009   6.071   1.471
 5485TIP3    H216333   7.056   6.192   1.541
 5486TIP3   OH216334   7.982   5.469   1.515
 5486TIP3    H116335   8.014   5.551   1.557
 5486TIP3    H216336   8.006   5.485   1.422
 5487TIP3   OH216337   7.384   5.651   1.551
 5487TIP3    H116338   7.427   5.565   1.570
 5487TIP3    H216339   7.353   5.635   1.459
 5488TIP3   OH216340   6.722   5.309   1.516
 5488TIP3    H116341   6.701   5.381   1.453
 5488TIP3    H216342   6.675   5.235   1.471
 5489TIP3   OH216343   7.414   5.402   1.140
 5489TIP3    H116344   7.487   5.385   1.204
 5489TIP3    H216345   7.466   5.435   1.064
 5490TIP3   OH216346   6.355   5.511   1.622
 5490TIP3    H116347   6.438   5.490   1.669
 5490TIP3    H216348   6.366   5.455   1.543
 5491TIP3   OH216349   6.796   5.709   1.414
 5491TIP3    H116350   6.890   5.683   1.427
 5491TIP3    H216351   6.757   5.625   1.382
 5492TIP3   OH216352   8.059   5.677   1.683
 5492TIP3    H116353   7.974   5.723   1.665
 5492TIP3    H216354   8.070   5.699   1.777
 5493TIP3   OH216355   6.716   5.293   1.953
 5493TIP3    H116356   6.658   5.328   1.882
 5493TIP3    H216357   6.663   5.315   2.031
 5494TIP3   OH216358   7.073   6.148   0.955
 5494TIP3    H116359   7.024   6.120   0.875
 5494TIP3    H216360   7.025   6.230   0.978
 5495TIP3   OH216361   6.826   6.068   1.746
 5495TIP3    H116362   6.762   6.132   1.784
 5495TIP3    H216363   6.866   6.120   1.674
 5496TIP3   OH216364   7.626   5.403   1.308
 5496TIP3    H116365   7.625   5.346   1.386
 5496TIP3    H216366   7.682   5.478   1.337
 5497TIP3   OH216367   6.590   5.406   1.735
 5497TIP3    H116368   6.652   5.480   1.757
 5497TIP3    H216369   6.637   5.366   1.658
 5498TIP3   OH216370   6.652   6.260   1.842
 5498TIP3    H116371   6.627   6.347   1.804
 5498TIP3    H216372   6.574   6.244   1.898
 5499TIP3   OH216373   6.049   5.951   1.078
 5499TIP3    H116374   6.005   5.977   0.995
 5499TIP3    H216375   6.078   6.037   1.114
 5500TIP3   OH216376   7.487   6.466   1.317
 5500TIP3    H116377   7.398   6.457   1.358
 5500TIP3    H216378   7.478   6.554   1.274
 5501TIP3   OH216379   7.777   5.371   1.683
 5501TIP3    H116380   7.690   5.397   1.650
 5501TIP3    H216381   7.837   5.400   1.610
 5502TIP3   OH216382   7.077   5.012   1.662
 5502TIP3    H116383   7.065   4.917   1.676
 5502TIP3    H216384   6.998   5.048   1.708
 5503TIP3   OH216385   7.191   6.515   0.996
 5503TIP3    H116386   7.242   6.434   0.975
 5503TIP3    H216387   7.246   6.581   0.948
 5504TIP3   OH216388   7.338   6.306   0.898
 5504TIP3    H116389   7.295   6.228   0.859
 5504TIP3    H216390   7.370   6.269   0.983
 5505TIP3   OH216391   7.713   6.381   1.662
 5505TIP3    H116392   7.702   6.303   1.603
 5505TIP3    H216393   7.697   6.455   1.599
 5506TIP3   OH216394   7.007   5.777   0.918
 5506TIP3    H116395   6.922   5.822   0.899
 5506TIP3    H216396   7.040   5.760   0.828
 5507TIP3   OH216397   6.967   5.550   0.666
 5507TIP3    H116398   7.053   5.587   0.689
 5507TIP3    H216399   6.992   5.485   0.598
 5508TIP3   OH216400   7.909   6.018   1.506
 5508TIP3    H116401   7.825   6.069   1.512
 5508TIP3    H216402   7.936   6.040   1.415
 5509TIP3   OH216403   7.353   5.861   0.893
 5509TIP3    H116404   7.298   5.883   0.973
 5509TIP3    H216405   7.436   5.832   0.936
 5510TIP3   OH216406   7.587   5.897   1.801
 5510TIP3    H116407   7.584   5.980   1.852
 5510TIP3    H216408   7.501   5.900   1.756
 5511TIP3   OH216409   6.585   5.856   1.306
 5511TIP3    H116410   6.541   5.798   1.241
 5511TIP3    H216411   6.661   5.801   1.335
 5512TIP3   OH216412   6.717   6.270   1.454
 5512TIP3    H116413   6.692   6.221   1.374
 5512TIP3    H216414   6.806   6.233   1.473
 5513TIP3   OH216415   6.725   5.824   1.663
 5513TIP3    H116416   6.755   5.805   1.571
 5513TIP3    H216417   6.765   5.911   1.681
 5514TIP3   OH216418   7.247   6.463   1.438
 5514TIP3    H116419   7.232   6.542   1.493
 5514TIP3    H216420   7.232   6.390   1.501
 5515TIP3   OH216421   6.858   6.382   1.985
 5515TIP3    H116422   6.798   6.445   2.032
 5515TIP3    H216423   6.792   6.329   1.936
 5516TIP3   OH216424   7.205   5.715   0.717
 5516TIP3    H116425   7.256   5.771   0.780
 5516TIP3    H216426   7.221   5.761   0.633
 5517TIP3   OH216427   6.613   5.938   2.087
 5517TIP3    H116428   6.617   6.025   2.131
 5517TIP3    H216429   6.517   5.919   2.096
 5518TIP3   OH216430   6.935   6.391   0.990
 5518TIP3    H116431   7.004   6.450   1.025
 5518TIP3    H216432   6.865   6.452   0.963
 5519TIP3   OH216433   6.653   6.552   2.073
 5519TIP3    H116434   6.617   6.550   1.982
 5519TIP3    H216435   6.574   6.529   2.127
 5520TIP3   OH216436   7.696   4.948   0.768
 5520TIP3    H116437   7.618   4.966   0.825
 5520TIP3    H216438   7.707   5.035   0.724
 5521TIP3   OH216439   6.449   5.698   1.116
 5521TIP3    H116440   6.383   5.742   1.057
 5521TIP3    H216441   6.411   5.609   1.123
 5522TIP3   OH216442   6.232   6.081   2.019
 5522TIP3    H116443   6.165   6.060   1.951
 5522TIP3    H216444   6.268   5.992   2.042
 5523TIP3   OH216445   6.085   6.273   1.655
 5523TIP3    H116446   6.181   6.274   1.646
 5523TIP3    H216447   6.068   6.355   1.703
 5524TIP3   OH216448   7.951   6.723   1.707
 5524TIP3    H116449   7.949   6.627   1.723
 5524TIP3    H216450   7.868   6.750   1.753
 5525TIP3   OH216451   7.056   6.511   1.842
 5525TIP3    H116452   7.056   6.603   1.875
 5525TIP3    H216453   6.984   6.472   1.896
 5526TIP3   OH216454   6.804   6.651   0.801
 5526TIP3    H116455   6.739   6.624   0.736
 5526TIP3    H216456   6.779   6.742   0.823
 5527TIP3   OH216457   6.256   6.491   1.177
 5527TIP3    H116458   6.301   6.480   1.263
 5527TIP3    H216459   6.194   6.416   1.180
 5528TIP3   OH216460   7.052   6.552   0.748
 5528TIP3    H116461   6.960   6.577   0.771
 5528TIP3    H216462   7.083   6.512   0.831
 5529TIP3   OH216463   7.840   5.856   1.982
 5529TIP3    H116464   7.760   5.869   1.930
 5529TIP3    H216465   7.856   5.761   1.970
 5530TIP3   OH216466   6.437   6.263   2.008
 5530TIP3    H116467   6.486   6.247   2.092
 5530TIP3    H216468   6.362   6.200   2.016
 5531TIP3   OH216469   6.841   5.084   1.795
 5531TIP3    H116470   6.753   5.052   1.766
 5531TIP3    H216471   6.815   5.170   1.832
 5532TIP3   OH216472   7.371   5.204   1.986
 5532TIP3    H116473   7.441   5.174   2.048
 5532TIP3    H216474   7.288   5.182   2.033
 5533TIP3   OH216475   7.611   5.632   1.905
 5533TIP3    H116476   7.560   5.628   1.989
 5533TIP3    H216477   7.585   5.719   1.869
 5534TIP3   OH216478   6.981   5.135   0.764
 5534TIP3    H116479   6.946   5.131   0.855
 5534TIP3    H216480   6.942   5.053   0.727
 5535TIP3   OH216481   6.769   5.602   1.812
 5535TIP3    H116482   6.716   5.624   1.891
 5535TIP3    H216483   6.753   5.683   1.757
 5536TIP3   OH216484   6.652   5.489   1.325
 5536TIP3    H116485   6.559   5.462   1.342
 5536TIP3    H216486   6.666   5.450   1.236
 5537TIP3   OH216487   7.143   5.578   1.054
 5537TIP3    H116488   7.090   5.647   1.010
 5537TIP3    H216489   7.196   5.543   0.980
 5538TIP3   OH216490   7.317   5.854   2.138
 5538TIP3    H116491   7.295   5.781   2.200
 5538TIP3    H216492   7.411   5.868   2.160
 5539TIP3   OH216493   7.299   5.605   1.291
 5539TIP3    H116494   7.239   5.631   1.219
 5539TIP3    H216495   7.334   5.523   1.250
 5540TIP3   OH216496   6.588   5.634   2.019
 5540TIP3    H116497   6.607   5.700   2.087
 5540TIP3    H216498   6.573   5.554   2.073
 5541TIP3   OH216499   6.639   5.111   0.731
 5541TIP3    H116500   6.627   5.107   0.828
 5541TIP3    H216501   6.559   5.159   0.704
 5542TIP3   OH216502   6.178   5.156   1.601
 5542TIP3    H116503   6.257   5.185   1.651
 5542TIP3    H216504   6.214   5.122   1.518
 5543TIP3   OH216505   6.156   5.136   1.122
 5543TIP3    H116506   6.199   5.174   1.042
 5543TIP3    H216507   6.093   5.208   1.141
 5544TIP3   OH216508   7.311   5.851   1.715
 5544TIP3    H116509   7.343   5.778   1.656
 5544TIP3    H216510   7.281   5.798   1.792
 5545TIP3   OH216511   6.979   5.315   1.387
 5545TIP3    H116512   6.896   5.310   1.437
 5545TIP3    H216513   7.046   5.311   1.457
 5546TIP3   OH216514   6.413   5.366   1.395
 5546TIP3    H116515   6.318   5.375   1.367
 5546TIP3    H216516   6.435   5.275   1.370
 5547TIP3   OH216517   6.684   5.367   1.082
 5547TIP3    H116518   6.777   5.378   1.058
 5547TIP3    H216519   6.635   5.387   0.999
 5548TIP3   OH216520   7.471   5.388   1.590
 5548TIP3    H116521   7.433   5.399   1.680
 5548TIP3    H216522   7.408   5.325   1.550
 5549TIP3   OH216523   6.518   5.396   0.867
 5549TIP3    H116524   6.450   5.351   0.813
 5549TIP3    H216525   6.575   5.433   0.796
 5550TIP3   OH216526   7.637   7.078   1.806
 5550TIP3    H116527   7.639   7.100   1.711
 5550TIP3    H216528   7.719   7.121   1.838
 5551TIP3   OH216529   6.599   6.185   2.229
 5551TIP3    H116530   6.678   6.217   2.277
 5551TIP3    H216531   6.533   6.185   2.301
 5552TIP3   OH216532   7.063   5.640   1.483
 5552TIP3    H116533   7.133   5.600   1.430
 5552TIP3    H216534   7.075   5.596   1.569
 5553TIP3   OH216535   6.589   5.127   1.361
 5553TIP3    H116536   6.554   5.047   1.405
 5553TIP3    H216537   6.633   5.090   1.283
 5554TIP3   OH216538   7.039   5.532   1.779
 5554TIP3    H116539   6.949   5.572   1.788
 5554TIP3    H216540   7.096   5.596   1.825
 5555TIP3   OH216541   6.770   5.925   0.871
 5555TIP3    H116542   6.699   5.858   0.860
 5555TIP3    H216543   6.753   5.957   0.963
 5556TIP3   OH216544   7.676   6.163   1.498
 5556TIP3    H116545   7.699   6.212   1.416
 5556TIP3    H216546   7.591   6.121   1.474
 5557TIP3   OH216547   7.232   5.236   0.739
 5557TIP3    H116548   7.135   5.218   0.741
 5557TIP3    H216549   7.238   5.332   0.750
 5558TIP3   OH216550   7.178   6.247   1.864
 5558TIP3    H116551   7.196   6.222   1.956
 5558TIP3    H216552   7.135   6.334   1.873
 5559TIP3   OH216553   7.302   5.488   0.840
 5559TIP3    H116554   7.398   5.490   0.855
 5559TIP3    H216555   7.287   5.562   0.779
 5560TIP3   OH216556   6.471   5.951   1.545
 5560TIP3    H116557   6.506   5.920   1.459
 5560TIP3    H216558   6.504   5.883   1.606
 5561TIP3   OH216559   6.924   6.089   0.720
 5561TIP3    H116560   6.873   6.173   0.717
 5561TIP3    H216561   6.864   6.030   0.770
 5562TIP3   OH216562   6.349   5.867   2.156
 5562TIP3    H116563   6.366   5.854   2.251
 5562TIP3    H216564   6.277   5.803   2.140
 5563TIP3   OH216565   7.073   5.983   2.178
 5563TIP3    H116566   7.014   5.925   2.127
 5563TIP3    H216567   7.161   5.949   2.149
 5564TIP3   OH216568   7.336   6.508   1.759
 5564TIP3    H116569   7.240   6.503   1.773
 5564TIP3    H216570   7.363   6.558   1.839
 5565TIP3   OH216571   7.708   5.592   0.712
 5565TIP3    H116572   7.738   5.519   0.654
 5565TIP3    H216573   7.716   5.668   0.653
 5566TIP3   OH216574   7.963   6.433   1.751
 5566TIP3    H116575   7.865   6.428   1.743
 5566TIP3    H216576   7.989   6.403   1.661
 5567TIP3   OH216577   7.442   6.025   1.417
 5567TIP3    H116578   7.348   5.999   1.430
 5567TIP3    H216579   7.476   5.945   1.372
 5568TIP3   OH216580   6.566   6.252   1.165
 5568TIP3    H116581   6.563   6.335   1.114
 5568TIP3    H216582   6.473   6.236   1.181
 5569TIP3   OH216583   6.132   5.557   0.871
 5569TIP3    H116584   6.178   5.641   0.893
 5569TIP3    H216585   6.055   5.561   0.931
 5570TIP3   OH216586   6.710   6.020   1.116
 5570TIP3    H116587   6.671   6.108   1.133
 5570TIP3    H216588   6.672   5.968   1.189
 5571TIP3   OH216589   6.837   6.597   1.639
 5571TIP3    H116590   6.879   6.669   1.588
 5571TIP3    H216591   6.913   6.561   1.688
 5572TIP3   OH216592   6.488   6.491   1.023
 5572TIP3    H116593   6.402   6.497   1.068
 5572TIP3    H216594   6.518   6.585   1.026
 5573TIP3   OH216595   7.228   6.231   1.596
 5573TIP3    H116596   7.218   6.230   1.694
 5573TIP3    H216597   7.306   6.176   1.584
 5574TIP3   OH216598   7.149   6.188   0.532
 5574TIP3    H116599   7.179   6.150   0.617
 5574TIP3    H216600   7.068   6.135   0.514
 5575TIP3   OH216601   7.475   6.765   1.648
 5575TIP3    H116602   7.396   6.707   1.642
 5575TIP3    H216603   7.457   6.829   1.576
 5576TIP3   OH216604   6.555   5.377   2.169
 5576TIP3    H116605   6.458   5.389   2.174
 5576TIP3    H216606   6.565   5.295   2.220
 5577TIP3   OH216607   7.344   6.061   0.701
 5577TIP3    H116608   7.336   5.998   0.775
 5577TIP3    H216609   7.442   6.066   0.694
 5578TIP3   OH216610   6.280   6.459   1.794
 5578TIP3    H116611   6.330   6.384   1.832
 5578TIP3    H216612   6.298   6.528   1.860
 5579TIP3   OH216613   6.534   6.071   0.481
 5579TIP3    H116614   6.557   5.978   0.470
 5579TIP3    H216615   6.537   6.080   0.579
 5580TIP3   OH216616   6.517   6.109   0.750
 5580TIP3    H116617   6.579   6.076   0.816
 5580TIP3    H216618   6.521   6.206   0.764
 5581TIP3   OH216619   6.249   5.805   0.954
 5581TIP3    H116620   6.182   5.847   1.012
 5581TIP3    H216621   6.261   5.875   0.888
 5582TIP3   OH216622   7.393   5.443   1.849
 5582TIP3    H116623   7.477   5.477   1.883
 5582TIP3    H216624   7.382   5.360   1.901
 5583TIP3   OH216625   7.273   5.192   1.014
 5583TIP3    H116626   7.259   5.212   0.919
 5583TIP3    H216627   7.313   5.275   1.047
 5584TIP3   OH216628   6.776   6.320   0.680
 5584TIP3    H116629   6.696   6.339   0.733
 5584TIP3    H216630   6.742   6.336   0.590
 5585TIP3   OH216631   6.968   5.370   1.114
 5585TIP3    H116632   7.033   5.441   1.096
 5585TIP3    H216633   6.972   5.363   1.211
 5586TIP3   OH216634   7.235   5.689   1.921
 5586TIP3    H116635   7.256   5.742   2.001
 5586TIP3    H216636   7.291   5.610   1.932
 5587TIP3   OH216637   7.110   5.099   1.218
 5587TIP3    H116638   7.103   5.178   1.275
 5587TIP3    H216639   7.170   5.133   1.148
 5588TIP3   OH216640   6.525   6.378   0.775
 5588TIP3    H116641   6.496   6.447   0.710
 5588TIP3    H216642   6.505   6.421   0.860
 5589TIP3   OH216643   6.620   5.094   1.008
 5589TIP3    H116644   6.619   5.186   1.041
 5589TIP3    H216645   6.717   5.076   1.014
 5590TIP3   OH216646   7.878   5.590   1.900
 5590TIP3    H116647   7.780   5.588   1.908
 5590TIP3    H216648   7.886   5.544   1.815
 5591TIP3   OH216649   7.526   5.784   1.289
 5591TIP3    H116650   7.451   5.724   1.300
 5591TIP3    H216651   7.598   5.737   1.337
 5592TIP3   OH216652   6.235   6.023   0.767
 5592TIP3    H116653   6.301   6.093   0.774
 5592TIP3    H216654   6.282   5.963   0.705
 5593TIP3   OH216655   6.182   5.287   0.898
 5593TIP3    H116656   6.181   5.385   0.889
 5593TIP3    H216657   6.107   5.261   0.843
 5594TIP3   OH216658   7.494   6.738   1.240
 5594TIP3    H116659   7.450   6.784   1.165
 5594TIP3    H216660   7.588   6.759   1.221
 5595TIP3   OH216661   6.575   5.008   1.767
 5595TIP3    H116662   6.542   4.978   1.679
 5595TIP3    H216663   6.560   4.928   1.822
 5596TIP3   OH216664   6.111   6.226   1.147
 5596TIP3    H116665   6.041   6.257   1.207
 5596TIP3    H216666   6.083   6.267   1.062
 5597TIP3   OH216667   6.267   6.766   2.217
 5597TIP3    H116668   6.352   6.765   2.266
 5597TIP3    H216669   6.243   6.672   2.217
 5598TIP3   OH216670   6.753   6.734   2.262
 5598TIP3    H116671   6.846   6.708   2.268
 5598TIP3    H216672   6.723   6.676   2.189
 5599TIP3   OH216673   7.387   6.639   1.997
 5599TIP3    H116674   7.378   6.569   2.065
 5599TIP3    H216675   7.466   6.688   2.027
 5600TIP3   OH216676   6.398   6.173   2.419
 5600TIP3    H116677   6.413   6.077   2.423
 5600TIP3    H216678   6.310   6.177   2.376
 5601TIP3   OH216679   6.373   5.828   0.641
 5601TIP3    H116680   6.423   5.790   0.715
 5601TIP3    H216681   6.442   5.821   0.571
 5602TIP3   OH216682   7.006   6.258   2.192
 5602TIP3    H116683   6.962   6.274   2.106
 5602TIP3    H216684   7.036   6.165   2.185
 5603TIP3   OH216685   6.941   6.038   0.445
 5603TIP3    H116686   6.909   6.032   0.537
 5603TIP3    H216687   6.925   5.947   0.414
 5604TIP3   OH216688   7.498   6.265   1.799
 5604TIP3    H116689   7.572   6.312   1.755
 5604TIP3    H216690   7.426   6.328   1.786
 5605TIP3   OH216691   6.516   5.908   2.402
 5605TIP3    H116692   6.590   5.850   2.382
 5605TIP3    H216693   6.540   5.942   2.491
 5606TIP3   OH216694   6.579   5.729   0.839
 5606TIP3    H116695   6.554   5.683   0.921
 5606TIP3    H216696   6.621   5.656   0.788
 5607TIP3   OH216697   6.854   5.794   2.065
 5607TIP3    H116698   6.774   5.852   2.067
 5607TIP3    H216699   6.901   5.827   1.986
 5608TIP3   OH216700   6.691   5.523   0.699
 5608TIP3    H116701   6.664   5.510   0.605
 5608TIP3    H216702   6.788   5.526   0.690
 5609TIP3   OH216703   7.368   6.195   2.197
 5609TIP3    H116704   7.449   6.173   2.150
 5609TIP3    H216705   7.366   6.127   2.267
 5610TIP3   OH216706   6.972   5.578   2.189
 5610TIP3    H116707   6.975   5.501   2.129
 5610TIP3    H216708   6.931   5.647   2.132
 5611TIP3   OH216709   6.976   5.366   1.996
 5611TIP3    H116710   7.004   5.410   1.913
 5611TIP3    H216711   6.882   5.345   1.977
 5612TIP3   OH216712   7.006   5.904   1.870
 5612TIP3    H116713   7.087   5.910   1.819
 5612TIP3    H216714   6.948   5.970   1.826
 5613TIP3   OH216715   7.588   5.870   2.252
 5613TIP3    H116716   7.637   5.787   2.259
 5613TIP3    H216717   7.655   5.930   2.217
 5614TIP3   OH216718   7.628   6.122   1.987
 5614TIP3    H116719   7.570   6.175   1.927
 5614TIP3    H216720   7.716   6.142   1.946
 5615TIP3   OH216721   6.855   5.693   2.421
 5615TIP3    H116722   6.780   5.632   2.434
 5615TIP3    H216723   6.886   5.668   2.331
 5616TIP3   OH216724   7.109   5.135   2.066
 5616TIP3    H116725   7.064   5.218   2.040
 5616TIP3    H216726   7.041   5.069   2.046
 5617TIP3   OH216727   7.235   5.635   2.279
 5617TIP3    H116728   7.225   5.626   2.375
 5617TIP3    H216729   7.145   5.611   2.250
 5618TIP3   OH216730   7.475   5.586   2.134
 5618TIP3    H116731   7.400   5.586   2.196
 5618TIP3    H216732   7.549   5.554   2.191
 5619TIP3   OH216733   7.703   5.525   2.286
 5619TIP3    H116734   7.716   5.430   2.304
 5619TIP3    H216735   7.700   5.564   2.376
 5620TIP3   OH216736   6.688   5.477   2.472
 5620TIP3    H116737   6.725   5.406   2.418
 5620TIP3    H216738   6.727   5.459   2.560
 5621TIP3   OH216739   7.195   5.132   2.325
 5621TIP3    H116740   7.270   5.069   2.318
 5621TIP3    H216741   7.165   5.134   2.232
 5622TIP3   OH216742   7.265   5.353   2.480
 5622TIP3    H116743   7.244   5.284   2.413
 5622TIP3    H216744   7.191   5.416   2.471
 5623TIP3   OH216745   6.485   6.579   0.590
 5623TIP3    H116746   6.540   6.638   0.536
 5623TIP3    H216747   6.400   6.586   0.544
 5624TIP3   OH216748   5.968   5.966   0.798
 5624TIP3    H116749   6.062   5.990   0.784
 5624TIP3    H216750   5.963   5.877   0.757
 5625TIP3   OH216751   5.887   6.579   1.208
 5625TIP3    H116752   5.818   6.519   1.173
 5625TIP3    H216753   5.929   6.521   1.275
 5626TIP3   OH216754   6.023   6.431   1.395
 5626TIP3    H116755   6.006   6.358   1.457
 5626TIP3    H216756   6.070   6.493   1.454
 5627TIP3   OH216757   7.742   6.840   1.195
 5627TIP3    H116758   7.768   6.865   1.285
 5627TIP3    H216759   7.815   6.875   1.142
 5628TIP3   OH216760   7.777   6.850   1.475
 5628TIP3    H116761   7.735   6.761   1.476
 5628TIP3    H216762   7.852   6.831   1.534
 5629TIP3   OH216763   7.823   6.527   2.050
 5629TIP3    H116764   7.750   6.536   2.115
 5629TIP3    H216765   7.865   6.616   2.055
 5630TIP3   OH216766   7.617   6.053   0.674
 5630TIP3    H116767   7.691   6.110   0.646
 5630TIP3    H216768   7.661   5.996   0.740
 5631TIP3   OH216769   7.765   5.914   0.869
 5631TIP3    H116770   7.700   5.867   0.926
 5631TIP3    H216771   7.830   5.947   0.934
 5632TIP3   OH216772   7.821   6.299   1.306
 5632TIP3    H116773   7.875   6.234   1.258
 5632TIP3    H216774   7.810   6.371   1.241
 5633TIP3   OH216775   7.653   6.600   1.501
 5633TIP3    H116776   7.582   6.640   1.555
 5633TIP3    H216777   7.602   6.551   1.433
 5634TIP3   OH216778   7.584   5.765   1.020
 5634TIP3    H116779   7.588   5.668   1.013
 5634TIP3    H216780   7.570   5.778   1.116
 5635TIP3   OH216781   6.208   5.835   1.769
 5635TIP3    H116782   6.206   5.806   1.675
 5635TIP3    H216783   6.306   5.838   1.784
 5636TIP3   OH216784   7.870   6.188   1.878
 5636TIP3    H116785   7.943   6.123   1.869
 5636TIP3    H216786   7.899   6.259   1.817
 5637TIP3   OH216787   8.056   5.995   1.896
 5637TIP3    H116788   7.981   5.944   1.935
 5637TIP3    H216789   8.129   5.931   1.910
 5638TIP3   OH216790   7.519   5.246   0.497
 5638TIP3    H116791   7.589   5.199   0.546
 5638TIP3    H216792   7.442   5.188   0.514
 5639TIP3   OH216793   7.573   5.482   0.924
 5639TIP3    H116794   7.619   5.395   0.933
 5639TIP3    H216795   7.624   5.522   0.850
 5640TIP3   OH216796   7.740   5.657   1.411
 5640TIP3    H116797   7.826   5.682   1.371
 5640TIP3    H216798   7.754   5.691   1.501
 5641TIP3   OH216799   7.808   5.798   1.645
 5641TIP3    H116800   7.730   5.832   1.692
 5641TIP3    H216801   7.840   5.879   1.599
 5642TIP3   OH216802   6.421   5.524   2.444
 5642TIP3    H116803   6.519   5.518   2.445
 5642TIP3    H216804   6.397   5.439   2.485
 5643TIP3   OH216805   8.263   5.389   2.200
 5643TIP3    H116806   8.318   5.322   2.155
 5643TIP3    H216807   8.232   5.444   2.125
 5644TIP3   OH216808   7.689   5.230   0.951
 5644TIP3    H116809   7.736   5.213   1.035
 5644TIP3    H216810   7.626   5.155   0.950
 5645TIP3   OH216811   6.387   5.215   1.775
 5645TIP3    H116812   6.450   5.141   1.783
 5645TIP3    H216813   6.449   5.291   1.768
 5646TIP3   OH216814   6.192   5.490   1.849
 5646TIP3    H116815   6.239   5.482   1.763
 5646TIP3    H216816   6.217   5.579   1.876
 5647TIP3   OH216817   8.131   5.528   2.007
 5647TIP3    H116818   8.044   5.568   2.025
 5647TIP3    H216819   8.104   5.457   1.946
 5648TIP3   OH216820   7.754   5.164   0.616
 5648TIP3    H116821   7.824   5.125   0.560
 5648TIP3    H216822   7.773   5.259   0.605
 5649TIP3   OH216823   6.173   5.000   1.354
 5649TIP3    H116824   6.078   4.991   1.373
 5649TIP3    H216825   6.172   5.054   1.272
 5650TIP3   OH216826   7.333   6.698   0.851
 5650TIP3    H116827   7.404   6.662   0.798
 5650TIP3    H216828   7.377   6.768   0.902
 5651TIP3   OH216829   6.392   5.086   2.168
 5651TIP3    H116830   6.339   5.070   2.248
 5651TIP3    H216831   6.324   5.118   2.106
 5652TIP3   OH216832   6.435   6.496   2.240
 5652TIP3    H116833   6.342   6.473   2.221
 5652TIP3    H216834   6.439   6.483   2.336
 5653TIP3   OH216835   6.611   6.531   1.788
 5653TIP3    H116836   6.559   6.604   1.749
 5653TIP3    H216837   6.696   6.548   1.741
 5654TIP3   OH216838   7.059   6.777   1.925
 5654TIP3    H116839   7.099   6.779   2.014
 5654TIP3    H216840   7.125   6.828   1.874
 5655TIP3   OH216841   7.237   6.930   1.783
 5655TIP3    H116842   7.308   6.878   1.744
 5655TIP3    H216843   7.288   6.988   1.844
 5656TIP3   OH216844   8.028   5.290   1.885
 5656TIP3    H116845   7.938   5.283   1.848
 5656TIP3    H216846   8.061   5.198   1.872
 5657TIP3   OH216847   6.289   6.792   1.809
 5657TIP3    H116848   6.199   6.823   1.785
 5657TIP3    H216849   6.293   6.824   1.900
 5658TIP3   OH216850   6.524   6.770   1.667
 5658TIP3    H116851   6.439   6.782   1.714
 5658TIP3    H216852   6.502   6.802   1.578
 5659TIP3   OH216853   6.952   6.801   1.462
 5659TIP3    H116854   6.878   6.818   1.401
 5659TIP3    H216855   6.961   6.888   1.507
 5660TIP3   OH216856   7.218   6.738   1.516
 5660TIP3    H116857   7.124   6.755   1.496
 5660TIP3    H216858   7.261   6.815   1.476
 5661TIP3   OH216859   7.426   6.930   1.433
 5661TIP3    H116860   7.412   7.014   1.385
 5661TIP3    H216861   7.452   6.869   1.361
 5662TIP3   OH216862   6.202   6.586   1.553
 5662TIP3    H116863   6.224   6.559   1.645
 5662TIP3    H216864   6.273   6.539   1.504
 5663TIP3   OH216865   6.393   6.454   1.410
 5663TIP3    H116866   6.408   6.370   1.461
 5663TIP3    H216867   6.484   6.490   1.407
 5664TIP3   OH216868   6.661   6.551   1.412
 5664TIP3    H116869   6.690   6.458   1.402
 5664TIP3    H216870   6.701   6.572   1.498
 5665TIP3   OH216871   7.236   5.208   1.503
 5665TIP3    H116872   7.192   5.136   1.553
 5665TIP3    H216873   7.306   5.160   1.455
 5666TIP3   OH216874   7.757   5.095   1.413
 5666TIP3    H116875   7.794   5.139   1.333
 5666TIP3    H216876   7.661   5.104   1.398
 5667TIP3   OH216877   7.854   5.187   1.171
 5667TIP3    H116878   7.929   5.132   1.140
 5667TIP3    H216879   7.890   5.278   1.155
 5668TIP3   OH216880   6.483   4.916   1.521
 5668TIP3    H116881   6.390   4.884   1.519
 5668TIP3    H216882   6.531   4.831   1.516
 5669TIP3   OH216883   6.274   4.784   1.168
 5669TIP3    H116884   6.301   4.840   1.093
 5669TIP3    H216885   6.241   4.850   1.231
 5670TIP3   OH216886   6.927   4.948   1.398
 5670TIP3    H116887   6.984   4.996   1.336
 5670TIP3    H216888   6.952   4.988   1.483
 5671TIP3   OH216889   7.473   5.093   1.381
 5671TIP3    H116890   7.474   5.055   1.293
 5671TIP3    H216891   7.460   5.013   1.437
 5672TIP3   OH216892   7.501   5.018   0.949
 5672TIP3    H116893   7.412   5.057   0.956
 5672TIP3    H216894   7.488   4.933   0.996
 5673TIP3   OH216895   5.989   6.356   0.946
 5673TIP3    H116896   5.903   6.324   0.912
 5673TIP3    H216897   5.979   6.451   0.925
 5674TIP3   OH216898   6.385   4.943   0.932
 5674TIP3    H116899   6.433   4.880   0.873
 5674TIP3    H216900   6.459   4.996   0.967
 5675TIP3   OH216901   6.897   5.120   1.029
 5675TIP3    H116902   6.958   5.071   1.087
 5675TIP3    H216903   6.922   5.212   1.054
 5676TIP3   OH216904   6.729   5.129   2.388
 5676TIP3    H116905   6.653   5.115   2.447
 5676TIP3    H216906   6.787   5.186   2.442
 5677TIP3   OH216907   6.956   5.164   2.517
 5677TIP3    H116908   7.053   5.166   2.503
 5677TIP3    H216909   6.949   5.119   2.604
 5678TIP3   OH216910   6.060   6.377   0.584
 5678TIP3    H116911   6.042   6.415   0.671
 5678TIP3    H216912   6.149   6.342   0.593
 5679TIP3   OH216913   7.764   5.254   2.317
 5679TIP3    H116914   7.785   5.222   2.407
 5679TIP3    H216915   7.852   5.249   2.273
 5680TIP3   OH216916   7.705   6.810   1.807
 5680TIP3    H116917   7.625   6.777   1.761
 5680TIP3    H216918   7.684   6.905   1.813
 5681TIP3   OH216919   8.935   6.166   0.965
 5681TIP3    H116920   8.994   6.172   1.042
 5681TIP3    H216921   8.913   6.071   0.965
 5682TIP3   OH216922   8.268   6.075   1.321
 5682TIP3    H116923   8.298   6.007   1.384
 5682TIP3    H216924   8.348   6.129   1.313
 5683TIP3   OH216925   8.235   6.480   1.050
 5683TIP3    H116926   8.226   6.382   1.049
 5683TIP3    H216927   8.328   6.488   1.075
 5684TIP3   OH216928   7.937   5.687   0.832
 5684TIP3    H116929   7.900   5.776   0.842
 5684TIP3    H216930   7.856   5.636   0.818
 5685TIP3   OH216931   8.012   5.976   0.997
 5685TIP3    H116932   8.054   5.897   1.038
 5685TIP3    H216933   8.080   6.002   0.934
 5686TIP3   OH216934   8.761   6.403   1.000
 5686TIP3    H116935   8.797   6.315   0.981
 5686TIP3    H216936   8.846   6.447   1.025
 5687TIP3   OH216937   9.197   5.930   1.038
 5687TIP3    H116938   9.195   5.834   1.058
 5687TIP3    H216939   9.154   5.932   0.953
 5688TIP3   OH216940   8.507   5.561   1.013
 5688TIP3    H116941   8.482   5.638   0.959
 5688TIP3    H216942   8.463   5.489   0.963
 5689TIP3   OH216943   8.150   5.765   1.104
 5689TIP3    H116944   8.233   5.747   1.152
 5689TIP3    H216945   8.162   5.707   1.026
 5690TIP3   OH216946   8.611   5.974   0.916
 5690TIP3    H116947   8.704   5.944   0.922
 5690TIP3    H216948   8.566   5.893   0.884
 5691TIP3   OH216949   8.517   5.552   1.437
 5691TIP3    H116950   8.454   5.586   1.370
 5691TIP3    H216951   8.464   5.565   1.518
 5692TIP3   OH216952   8.623   6.325   1.234
 5692TIP3    H116953   8.558   6.388   1.274
 5692TIP3    H216954   8.668   6.382   1.169
 5693TIP3   OH216955   8.381   5.667   1.226
 5693TIP3    H116956   8.445   5.738   1.246
 5693TIP3    H216957   8.428   5.622   1.152
 5694TIP3   OH216958   8.445   6.517   1.323
 5694TIP3    H116959   8.421   6.608   1.294
 5694TIP3    H216960   8.370   6.500   1.384
 5695TIP3   OH216961   8.870   5.271   1.154
 5695TIP3    H116962   8.856   5.175   1.162
 5695TIP3    H216963   8.787   5.305   1.195
 5696TIP3   OH216964   8.349   6.058   0.830
 5696TIP3    H116965   8.342   6.115   0.751
 5696TIP3    H216966   8.444   6.036   0.836
 5697TIP3   OH216967   8.526   6.529   0.924
 5697TIP3    H116968   8.477   6.449   0.902
 5697TIP3    H216969   8.610   6.492   0.958
 5698TIP3   OH216970   8.517   6.082   1.155
 5698TIP3    H116971   8.549   6.058   1.066
 5698TIP3    H216972   8.561   6.168   1.171
 5699TIP3   OH216973   8.653   6.637   1.473
 5699TIP3    H116974   8.595   6.700   1.521
 5699TIP3    H216975   8.586   6.584   1.425
 5700TIP3   OH216976   8.409   6.197   1.572
 5700TIP3    H116977   8.413   6.282   1.619
 5700TIP3    H216978   8.314   6.176   1.582
 5701TIP3   OH216979   8.449   6.805   1.558
 5701TIP3    H116980   8.410   6.806   1.469
 5701TIP3    H216981   8.371   6.786   1.615
 5702TIP3   OH216982   8.028   6.337   1.506
 5702TIP3    H116983   7.962   6.313   1.438
 5702TIP3    H216984   8.065   6.251   1.532
 5703TIP3   OH216985   7.882   6.534   1.135
 5703TIP3    H116986   7.978   6.522   1.127
 5703TIP3    H216987   7.878   6.607   1.199
 5704TIP3   OH216988   8.849   6.767   1.328
 5704TIP3    H116989   8.852   6.859   1.362
 5704TIP3    H216990   8.780   6.728   1.387
 5705TIP3   OH216991   8.235   6.519   1.494
 5705TIP3    H116992   8.283   6.505   1.578
 5705TIP3    H216993   8.160   6.456   1.503
 5706TIP3   OH216994   8.631   5.345   1.276
 5706TIP3    H116995   8.543   5.311   1.250
 5706TIP3    H216996   8.603   5.426   1.324
 5707TIP3   OH216997   9.154   5.462   1.476
 5707TIP3    H116998   9.203   5.440   1.556
 5707TIP3    H216999   9.062   5.442   1.505
 5708TIP3   OH217000   8.567   5.858   1.299
 5708TIP3    H117001   8.515   5.877   1.380
 5708TIP3    H217002   8.549   5.939   1.246
 5709TIP3   OH217003   8.427   5.757   0.855
 5709TIP3    H117004   8.342   5.711   0.839
 5709TIP3    H217005   8.468   5.765   0.766
 5710TIP3   OH217006   9.115   6.112   1.624
 5710TIP3    H117007   9.090   6.039   1.685
 5710TIP3    H217008   9.209   6.124   1.647
 5711TIP3   OH217009   8.384   5.889   1.506
 5711TIP3    H117010   8.407   5.952   1.575
 5711TIP3    H217011   8.371   5.806   1.556
 5712TIP3   OH217012   7.974   5.418   1.086
 5712TIP3    H117013   8.054   5.441   1.139
 5712TIP3    H217014   8.009   5.373   1.008
 5713TIP3   OH217015   8.102   5.462   0.592
 5713TIP3    H117016   8.115   5.554   0.564
 5713TIP3    H217017   8.006   5.456   0.601
 5714TIP3   OH217018   9.077   6.114   1.198
 5714TIP3    H117019   9.136   6.056   1.145
 5714TIP3    H217020   9.066   6.058   1.277
 5715TIP3   OH217021   8.763   5.501   0.927
 5715TIP3    H117022   8.676   5.532   0.958
 5715TIP3    H217023   8.821   5.572   0.957
 5716TIP3   OH217024   8.195   5.607   0.865
 5716TIP3    H117025   8.097   5.613   0.857
 5716TIP3    H217026   8.213   5.512   0.856
 5717TIP3   OH217027   9.162   5.663   1.078
 5717TIP3    H117028   9.166   5.668   1.175
 5717TIP3    H217029   9.117   5.577   1.062
 5718TIP3   OH217030   8.395   6.443   1.715
 5718TIP3    H117031   8.474   6.473   1.764
 5718TIP3    H217032   8.330   6.442   1.788
 5719TIP3   OH217033   8.878   5.890   0.970
 5719TIP3    H117034   8.909   5.817   0.915
 5719TIP3    H217035   8.880   5.852   1.060
 5720TIP3   OH217036   8.388   5.378   0.848
 5720TIP3    H117037   8.347   5.301   0.894
 5720TIP3    H217038   8.461   5.337   0.801
 5721TIP3   OH217039   8.837   5.795   1.257
 5721TIP3    H117040   8.746   5.826   1.272
 5721TIP3    H217041   8.890   5.857   1.311
 5722TIP3   OH217042   8.969   6.503   1.352
 5722TIP3    H117043   8.985   6.483   1.445
 5722TIP3    H217044   8.934   6.594   1.356
 5723TIP3   OH217045   8.264   6.206   1.041
 5723TIP3    H117046   8.288   6.159   0.958
 5723TIP3    H217047   8.296   6.142   1.106
 5724TIP3   OH217048   8.144   6.126   1.644
 5724TIP3    H117049   8.165   6.113   1.738
 5724TIP3    H217050   8.075   6.059   1.629
 5725TIP3   OH217051   8.868   6.239   1.663
 5725TIP3    H117052   8.808   6.179   1.616
 5725TIP3    H217053   8.956   6.206   1.633
 5726TIP3   OH217054   9.134   6.768   1.239
 5726TIP3    H117055   9.038   6.761   1.248
 5726TIP3    H217056   9.159   6.812   1.323
 5727TIP3   OH217057   8.633   6.849   1.130
 5727TIP3    H117058   8.665   6.937   1.107
 5727TIP3    H217059   8.709   6.812   1.178
 5728TIP3   OH217060   9.009   6.471   1.080
 5728TIP3    H117061   9.005   6.487   1.177
 5728TIP3    H217062   9.103   6.453   1.068
 5729TIP3   OH217063   8.356   5.633   1.653
 5729TIP3    H117064   8.259   5.635   1.664
 5729TIP3    H217065   8.382   5.567   1.720
 5730TIP3   OH217066   8.069   6.716   1.287
 5730TIP3    H117067   8.123   6.642   1.318
 5730TIP3    H217068   8.096   6.786   1.349
 5731TIP3   OH217069   9.221   5.698   1.358
 5731TIP3    H117070   9.250   5.744   1.439
 5731TIP3    H217071   9.185   5.616   1.396
 5732TIP3   OH217072   9.034   5.944   1.409
 5732TIP3    H117073   9.045   6.004   1.486
 5732TIP3    H217074   9.093   5.872   1.432
 5733TIP3   OH217075   8.367   5.266   1.253
 5733TIP3    H117076   8.336   5.227   1.169
 5733TIP3    H217077   8.359   5.189   1.314
 5734TIP3   OH217078   8.064   7.023   1.705
 5734TIP3    H117079   8.149   7.026   1.754
 5734TIP3    H217080   8.045   6.928   1.707
 5735TIP3   OH217081   8.542   6.989   1.752
 5735TIP3    H117082   8.638   6.978   1.761
 5735TIP3    H217083   8.523   6.931   1.677
 5736TIP3   OH217084   9.199   6.884   1.482
 5736TIP3    H117085   9.169   6.816   1.546
 5736TIP3    H217086   9.256   6.938   1.537
 5737TIP3   OH217087   8.194   6.429   1.905
 5737TIP3    H117088   8.210   6.334   1.911
 5737TIP3    H217089   8.106   6.432   1.863
 5738TIP3   OH217090   8.804   6.515   1.678
 5738TIP3    H117091   8.759   6.531   1.593
 5738TIP3    H217092   8.832   6.422   1.671
 5739TIP3   OH217093   8.312   6.163   1.887
 5739TIP3    H117094   8.387   6.105   1.869
 5739TIP3    H217095   8.337   6.197   1.976
 5740TIP3   OH217096   8.650   6.051   1.551
 5740TIP3    H117097   8.570   6.109   1.553
 5740TIP3    H217098   8.696   6.083   1.470
 5741TIP3   OH217099   9.158   6.452   1.689
 5741TIP3    H117100   9.234   6.426   1.637
 5741TIP3    H217101   9.155   6.384   1.759
 5742TIP3   OH217102   8.771   5.837   1.676
 5742TIP3    H117103   8.768   5.758   1.619
 5742TIP3    H217104   8.727   5.904   1.619
 5743TIP3   OH217105   8.775   5.624   1.481
 5743TIP3    H117106   8.798   5.666   1.396
 5743TIP3    H217107   8.681   5.599   1.466
 5744TIP3   OH217108   8.805   6.158   1.353
 5744TIP3    H117109   8.887   6.166   1.302
 5744TIP3    H217110   8.748   6.226   1.312
 5745TIP3   OH217111   9.393   6.128   1.729
 5745TIP3    H117112   9.423   6.047   1.773
 5745TIP3    H217113   9.475   6.179   1.728
 5746TIP3   OH217114   8.646   5.952   1.904
 5746TIP3    H117115   8.579   5.883   1.919
 5746TIP3    H217116   8.683   5.924   1.817
 5747TIP3   OH217117   8.903   5.390   1.551
 5747TIP3    H117118   8.852   5.471   1.528
 5747TIP3    H217119   8.836   5.320   1.537
 5748TIP3   OH217120   9.037   5.891   1.758
 5748TIP3    H117121   9.043   5.884   1.855
 5748TIP3    H217122   8.942   5.868   1.744
 5749TIP3   OH217123   9.263   5.808   1.610
 5749TIP3    H117124   9.187   5.834   1.667
 5749TIP3    H217125   9.333   5.799   1.677
 5750TIP3   OH217126   9.478   5.760   1.792
 5750TIP3    H117127   9.515   5.689   1.846
 5750TIP3    H217128   9.475   5.832   1.859
 5751TIP3   OH217129   8.488   5.732   1.958
 5751TIP3    H117130   8.490   5.640   1.923
 5751TIP3    H217131   8.522   5.718   2.048
 5752TIP3   OH217132   8.997   5.371   1.808
 5752TIP3    H117133   9.071   5.315   1.780
 5752TIP3    H217134   8.948   5.378   1.724
 5753TIP3   OH217135   9.040   5.601   1.958
 5753TIP3    H117136   9.012   5.545   1.883
 5753TIP3    H217137   8.977   5.677   1.955
 5754TIP3   OH217138   7.811   6.686   0.904
 5754TIP3    H117139   7.805   6.615   0.970
 5754TIP3    H217140   7.856   6.754   0.957
 5755TIP3   OH217141   8.004   6.096   1.252
 5755TIP3    H117142   8.004   6.064   1.159
 5755TIP3    H217143   8.100   6.097   1.272
 5756TIP3   OH217144   8.221   5.782   1.932
 5756TIP3    H117145   8.319   5.775   1.931
 5756TIP3    H217146   8.197   5.696   1.972
 5757TIP3   OH217147   8.182   5.472   1.261
 5757TIP3    H117148   8.243   5.396   1.269
 5757TIP3    H217149   8.246   5.546   1.257
 5758TIP3   OH217150   7.986   5.748   1.333
 5758TIP3    H117151   8.035   5.737   1.249
 5758TIP3    H217152   8.020   5.833   1.365
 5759TIP3   OH217153   7.963   5.267   0.844
 5759TIP3    H117154   7.869   5.252   0.864
 5759TIP3    H217155   7.962   5.304   0.755
 5760TIP3   OH217156   8.192   5.338   1.654
 5760TIP3    H117157   8.137   5.325   1.733
 5760TIP3    H217158   8.124   5.367   1.590
 5761TIP3   OH217159   8.229   6.754   1.724
 5761TIP3    H117160   8.136   6.728   1.711
 5761TIP3    H217161   8.240   6.742   1.820
 5762TIP3   OH217162   8.402   6.786   1.271
 5762TIP3    H117163   8.355   6.862   1.232
 5762TIP3    H217164   8.490   6.801   1.229
 5763TIP3   OH217165   8.850   7.031   1.411
 5763TIP3    H117166   8.892   7.038   1.499
 5763TIP3    H217167   8.914   7.080   1.355
 5764TIP3   OH217168   9.024   7.173   1.256
 5764TIP3    H117169   9.109   7.151   1.217
 5764TIP3    H217170   9.055   7.226   1.333
 5765TIP3   OH217171   8.084   7.045   1.299
 5765TIP3    H117172   7.995   7.079   1.277
 5765TIP3    H217173   8.098   7.087   1.385
 5766TIP3   OH217174   8.315   7.029   1.150
 5766TIP3    H117175   8.233   7.041   1.204
 5766TIP3    H217176   8.282   7.050   1.062
 5767TIP3   OH217177   7.986   6.854   1.053
 5767TIP3    H117178   8.015   6.828   1.143
 5767TIP3    H217179   8.055   6.806   1.001
 5768TIP3   OH217180   8.179   6.718   0.919
 5768TIP3    H117181   8.195   6.632   0.965
 5768TIP3    H217182   8.269   6.756   0.918
 5769TIP3   OH217183   8.439   6.796   0.920
 5769TIP3    H117184   8.475   6.705   0.923
 5769TIP3    H217185   8.496   6.840   0.986
 5770TIP3   OH217186   9.054   5.421   0.985
 5770TIP3    H117187   8.980   5.384   1.037
 5770TIP3    H217188   9.063   5.350   0.920
 5771TIP3   OH217189   8.281   5.170   1.004
 5771TIP3    H117190   8.191   5.132   1.010
 5771TIP3    H217191   8.333   5.087   0.999
 5772TIP3   OH217192   8.102   5.058   0.681
 5772TIP3    H117193   8.054   5.071   0.597
 5772TIP3    H217194   8.047   5.102   0.747
 5773TIP3   OH217195   8.718   5.207   0.886
 5773TIP3    H117196   8.754   5.279   0.832
 5773TIP3    H217197   8.731   5.244   0.974
 5774TIP3   OH217198   8.483   5.460   1.902
 5774TIP3    H117199   8.449   5.384   1.951
 5774TIP3    H217200   8.578   5.457   1.926
 5775TIP3   OH217201   8.733   5.453   2.016
 5775TIP3    H117202   8.813   5.423   1.971
 5775TIP3    H217203   8.720   5.384   2.084
 5776TIP3   OH217204  -0.051   7.003   2.838
 5776TIP3    H117205  -0.026   6.958   2.920
 5776TIP3    H217206  -0.058   7.095   2.863
 5777TIP3   OH217207   0.441   6.259   3.203
 5777TIP3    H117208   0.468   6.342   3.246
 5777TIP3    H217209   0.454   6.282   3.109
 5778TIP3   OH217210  -0.086   6.435   3.230
 5778TIP3    H117211  -0.059   6.344   3.252
 5778TIP3    H217212  -0.120   6.421   3.140
 5779TIP3   OH217213  -0.135   6.189   2.831
 5779TIP3    H117214  -0.061   6.170   2.893
 5779TIP3    H217215  -0.085   6.221   2.754
 5780TIP3   OH217216   0.518   6.468   3.371
 5780TIP3    H117217   0.433   6.512   3.348
 5780TIP3    H217218   0.516   6.477   3.467
 5781TIP3   OH217219   0.083   6.187   2.998
 5781TIP3    H117220   0.055   6.149   3.083
 5781TIP3    H217221   0.134   6.265   3.025
 5782TIP3   OH217222   0.242   6.156   3.377
 5782TIP3    H117223   0.151   6.189   3.369
 5782TIP3    H217224   0.286   6.190   3.296
 5783TIP3   OH217225   0.182   7.178   3.356
 5783TIP3    H117226   0.142   7.097   3.319
 5783TIP3    H217227   0.158   7.244   3.287
 5784TIP3   OH217228   0.381   6.796   3.194
 5784TIP3    H117229   0.295   6.843   3.205
 5784TIP3    H217230   0.403   6.825   3.103
 5785TIP3   OH217231  -0.197   6.588   2.563
 5785TIP3    H117232  -0.251   6.647   2.618
 5785TIP3    H217233  -0.111   6.594   2.609
 5786TIP3   OH217234   0.062   6.711   3.459
 5786TIP3    H117235   0.048   6.772   3.535
 5786TIP3    H217236  -0.030   6.688   3.438
 5787TIP3   OH217237   0.163   5.741   2.455
 5787TIP3    H117238   0.080   5.760   2.504
 5787TIP3    H217239   0.175   5.826   2.407
 5788TIP3   OH217240   0.417   7.505   3.393
 5788TIP3    H117241   0.415   7.410   3.414
 5788TIP3    H217242   0.324   7.530   3.412
 5789TIP3   OH217243   0.298   6.650   3.667
 5789TIP3    H117244   0.213   6.658   3.620
 5789TIP3    H217245   0.307   6.553   3.669
 5790TIP3   OH217246  -0.169   5.981   3.673
 5790TIP3    H117247  -0.096   5.950   3.731
 5790TIP3    H217248  -0.244   5.979   3.735
 5791TIP3   OH217249   0.101   6.447   3.578
 5791TIP3    H117250   0.062   6.431   3.666
 5791TIP3    H217251   0.031   6.504   3.540
 5792TIP3   OH217252  -0.234   6.398   2.988
 5792TIP3    H117253  -0.317   6.418   2.941
 5792TIP3    H217254  -0.210   6.315   2.941
 5793TIP3   OH217255  -0.065   6.163   3.254
 5793TIP3    H117256  -0.061   6.163   3.352
 5793TIP3    H217257  -0.140   6.102   3.240
 5794TIP3   OH217258   0.154   6.937   3.190
 5794TIP3    H117259   0.173   6.993   3.113
 5794TIP3    H217260   0.057   6.931   3.190
 5795TIP3   OH217261  -0.358   6.034   2.422
 5795TIP3    H117262  -0.437   6.088   2.406
 5795TIP3    H217263  -0.291   6.106   2.428
 5796TIP3   OH217264  -0.213   6.261   2.481
 5796TIP3    H117265  -0.131   6.276   2.531
 5796TIP3    H217266  -0.257   6.346   2.489
 5797TIP3   OH217267   0.205   6.362   2.362
 5797TIP3    H117268   0.139   6.317   2.305
 5797TIP3    H217269   0.199   6.451   2.320
 5798TIP3   OH217270   0.428   7.224   3.442
 5798TIP3    H117271   0.330   7.218   3.434
 5798TIP3    H217272   0.452   7.192   3.352
 5799TIP3   OH217273  -0.106   6.821   3.083
 5799TIP3    H117274  -0.179   6.780   3.131
 5799TIP3    H217275  -0.062   6.742   3.045
 5800TIP3   OH217276  -0.035   6.187   3.518
 5800TIP3    H117277  -0.030   6.275   3.559
 5800TIP3    H217278  -0.096   6.140   3.580
 5801TIP3   OH217279  -0.253   5.966   2.685
 5801TIP3    H117280  -0.294   6.000   2.604
 5801TIP3    H217281  -0.239   6.046   2.738
 5802TIP3   OH217282   0.352   6.365   3.583
 5802TIP3    H117283   0.256   6.385   3.589
 5802TIP3    H217284   0.351   6.317   3.499
 5803TIP3   OH217285  -0.017   6.578   2.978
 5803TIP3    H117286  -0.093   6.517   2.980
 5803TIP3    H217287   0.051   6.528   3.028
 5804TIP3   OH217288  -0.017   7.413   2.933
 5804TIP3    H117289  -0.100   7.452   2.899
 5804TIP3    H217290   0.049   7.473   2.899
 5805TIP3   OH217291   0.056   6.665   3.921
 5805TIP3    H117292   0.094   6.582   3.950
 5805TIP3    H217293   0.126   6.729   3.938
 5806TIP3   OH217294   0.084   6.909   3.654
 5806TIP3    H117295   0.031   6.963   3.595
 5806TIP3    H217296   0.175   6.926   3.620
 5807TIP3   OH217297  -0.023   6.398   3.805
 5807TIP3    H117298  -0.103   6.364   3.849
 5807TIP3    H217299   0.047   6.365   3.866
 5808TIP3   OH217300   0.162   6.310   3.984
 5808TIP3    H117301   0.174   6.214   4.002
 5808TIP3    H217302   0.148   6.349   4.073
 5809TIP3   OH217303   0.266   7.771   2.881
 5809TIP3    H117304   0.259   7.712   2.958
 5809TIP3    H217305   0.306   7.713   2.814
 5810TIP3   OH217306   0.236   7.633   3.139
 5810TIP3    H117307   0.196   7.546   3.154
 5810TIP3    H217308   0.298   7.635   3.214
 5811TIP3   OH217309   0.268   7.320   3.736
 5811TIP3    H117310   0.216   7.320   3.818
 5811TIP3    H217311   0.314   7.407   3.742
 5812TIP3   OH217312   0.131   6.815   2.361
 5812TIP3    H117313   0.208   6.872   2.372
 5812TIP3    H217314   0.132   6.769   2.448
 5813TIP3   OH217315   0.229   6.686   2.579
 5813TIP3    H117316   0.160   6.643   2.635
 5813TIP3    H217317   0.286   6.730   2.645
 5814TIP3   OH217318   0.266   7.089   2.992
 5814TIP3    H117319   0.323   7.022   2.949
 5814TIP3    H217320   0.269   7.163   2.929
 5815TIP3   OH217321   0.090   7.378   3.182
 5815TIP3    H117322   0.026   7.431   3.232
 5815TIP3    H217323   0.049   7.376   3.093
 5816TIP3   OH217324   0.144   6.594   2.209
 5816TIP3    H117325   0.063   6.598   2.157
 5816TIP3    H217326   0.133   6.674   2.265
 5817TIP3   OH217327   0.025   6.272   2.178
 5817TIP3    H117328  -0.058   6.316   2.156
 5817TIP3    H217329   0.001   6.178   2.163
 5818TIP3   OH217330   0.044   6.546   2.715
 5818TIP3    H117331   0.042   6.449   2.708
 5818TIP3    H217332   0.026   6.561   2.810
 5819TIP3   OH217333   0.328   6.979   3.566
 5819TIP3    H117334   0.398   6.911   3.558
 5819TIP3    H217335   0.356   7.045   3.501
 5820TIP3   OH217336   0.513   6.785   3.583
 5820TIP3    H117337   0.436   6.735   3.619
 5820TIP3    H217338   0.584   6.719   3.600
 5821TIP3   OH217339  -0.011   5.997   2.140
 5821TIP3    H117340   0.051   5.979   2.213
 5821TIP3    H217341  -0.094   5.954   2.173
 5822TIP3   OH217342   0.036   6.270   2.616
 5822TIP3    H117343   0.075   6.180   2.628
 5822TIP3    H217344   0.090   6.303   2.543
 5823TIP3   OH217345   0.194   6.439   3.095
 5823TIP3    H117346   0.281   6.468   3.060
 5823TIP3    H217347   0.201   6.475   3.186
 5824TIP3   OH217348   0.268   6.580   3.327
 5824TIP3    H117349   0.192   6.616   3.377
 5824TIP3    H217350   0.302   6.662   3.284
 5825TIP3   OH217351   0.716   6.176   3.893
 5825TIP3    H117352   0.772   6.109   3.848
 5825TIP3    H217353   0.686   6.231   3.817
 5826TIP3   OH217354   0.142   6.017   2.642
 5826TIP3    H117355   0.186   6.001   2.728
 5826TIP3    H217356   0.078   5.943   2.639
 5827TIP3   OH217357   0.593   6.316   3.698
 5827TIP3    H117358   0.505   6.356   3.712
 5827TIP3    H217359   0.566   6.244   3.637
 5828TIP3   OH217360   0.227   5.952   2.282
 5828TIP3    H117361   0.264   5.883   2.224
 5828TIP3    H217362   0.290   6.025   2.271
 5829TIP3   OH217363   0.485   6.078   3.573
 5829TIP3    H117364   0.393   6.077   3.540
 5829TIP3    H217365   0.510   5.984   3.560
 5830TIP3   OH217366  -0.267   5.968   3.215
 5830TIP3    H117367  -0.285   5.890   3.270
 5830TIP3    H217368  -0.194   5.934   3.159
 5831TIP3   OH217369   0.216   5.872   3.095
 5831TIP3    H117370   0.250   5.928   3.022
 5831TIP3    H217371   0.120   5.891   3.091
 5832TIP3   OH217372   0.309   5.973   2.858
 5832TIP3    H117373   0.384   5.927   2.815
 5832TIP3    H217374   0.337   6.067   2.846
 5833TIP3   OH217375  -0.059   5.875   3.063
 5833TIP3    H117376  -0.070   5.841   2.973
 5833TIP3    H217377  -0.075   5.794   3.117
 5834TIP3   OH217378  -0.039   5.804   2.634
 5834TIP3    H117379  -0.123   5.853   2.648
 5834TIP3    H217380  -0.059   5.719   2.679
 5835TIP3   OH217381   0.219   6.043   4.009
 5835TIP3    H117382   0.238   6.009   4.099
 5835TIP3    H217383   0.306   6.035   3.965
 5836TIP3   OH217384   0.162   7.592   3.432
 5836TIP3    H117385   0.087   7.544   3.471
 5836TIP3    H217386   0.166   7.665   3.494
 5837TIP3   OH217387   1.421   6.967   2.267
 5837TIP3    H117388   1.393   7.058   2.245
 5837TIP3    H217389   1.346   6.917   2.230
 5838TIP3   OH217390   1.424   6.970   2.633
 5838TIP3    H117391   1.427   6.944   2.727
 5838TIP3    H217392   1.384   6.892   2.593
 5839TIP3   OH217393   0.721   6.862   3.008
 5839TIP3    H117394   0.753   6.795   3.071
 5839TIP3    H217395   0.796   6.923   3.007
 5840TIP3   OH217396   1.665   7.269   2.326
 5840TIP3    H117397   1.650   7.201   2.393
 5840TIP3    H217398   1.694   7.345   2.379
 5841TIP3   OH217399   0.693   7.270   2.740
 5841TIP3    H117400   0.686   7.172   2.741
 5841TIP3    H217401   0.790   7.280   2.732
 5842TIP3   OH217402   0.403   6.475   2.524
 5842TIP3    H117403   0.352   6.556   2.542
 5842TIP3    H217404   0.333   6.419   2.485
 5843TIP3   OH217405   0.466   6.769   2.698
 5843TIP3    H117406   0.513   6.689   2.731
 5843TIP3    H217407   0.514   6.786   2.615
 5844TIP3   OH217408   1.313   7.733   2.343
 5844TIP3    H117409   1.359   7.662   2.293
 5844TIP3    H217410   1.308   7.695   2.431
 5845TIP3   OH217411   1.219   7.191   2.696
 5845TIP3    H117412   1.256   7.122   2.639
 5845TIP3    H217413   1.303   7.236   2.720
 5846TIP3   OH217414   2.232   6.510   2.690
 5846TIP3    H117415   2.261   6.593   2.734
 5846TIP3    H217416   2.261   6.527   2.599
 5847TIP3   OH217417   0.971   6.355   2.693
 5847TIP3    H117418   0.949   6.426   2.629
 5847TIP3    H217419   0.923   6.281   2.650
 5848TIP3   OH217420   1.663   6.445   2.316
 5848TIP3    H117421   1.732   6.432   2.385
 5848TIP3    H217422   1.717   6.479   2.242
 5849TIP3   OH217423   0.604   6.556   2.798
 5849TIP3    H117424   0.687   6.534   2.846
 5849TIP3    H217425   0.615   6.499   2.719
 5850TIP3   OH217426   1.044   6.754   2.591
 5850TIP3    H117427   1.138   6.729   2.599
 5850TIP3    H217428   1.004   6.670   2.557
 5851TIP3   OH217429   2.300   6.714   2.869
 5851TIP3    H117430   2.222   6.769   2.849
 5851TIP3    H217431   2.333   6.757   2.950
 5852TIP3   OH217432   0.968   6.338   3.127
 5852TIP3    H117433   0.906   6.373   3.060
 5852TIP3    H217434   0.915   6.353   3.208
 5853TIP3   OH217435   1.313   7.187   2.135
 5853TIP3    H117436   1.273   7.167   2.050
 5853TIP3    H217437   1.270   7.272   2.158
 5854TIP3   OH217438   1.078   7.109   2.930
 5854TIP3    H117439   1.013   7.175   2.965
 5854TIP3    H217440   1.118   7.159   2.856
 5855TIP3   OH217441   1.866   6.447   2.500
 5855TIP3    H117442   1.910   6.368   2.533
 5855TIP3    H217443   1.933   6.517   2.513
 5856TIP3   OH217444   0.838   6.453   2.911
 5856TIP3    H117445   0.901   6.525   2.933
 5856TIP3    H217446   0.885   6.411   2.835
 5857TIP3   OH217447   0.901   7.304   3.018
 5857TIP3    H117448   0.876   7.390   2.979
 5857TIP3    H217449   0.822   7.289   3.075
 5858TIP3   OH217450   0.341   7.002   2.273
 5858TIP3    H117451   0.329   7.030   2.180
 5858TIP3    H217452   0.360   7.089   2.315
 5859TIP3   OH217453   1.735   7.510   2.495
 5859TIP3    H117454   1.645   7.503   2.534
 5859TIP3    H217455   1.729   7.596   2.449
 5860TIP3   OH217456   2.026   6.424   2.853
 5860TIP3    H117457   1.955   6.455   2.796
 5860TIP3    H217458   2.104   6.443   2.795
 5861TIP3   OH217459   1.325   6.055   2.843
 5861TIP3    H117460   1.312   5.960   2.858
 5861TIP3    H217461   1.245   6.091   2.888
 5862TIP3   OH217462   1.438   7.559   2.170
 5862TIP3    H117463   1.487   7.476   2.148
 5862TIP3    H217464   1.499   7.624   2.130
 5863TIP3   OH217465   1.579   7.344   2.074
 5863TIP3    H117466   1.546   7.264   2.031
 5863TIP3    H217467   1.615   7.308   2.158
 5864TIP3   OH217468   1.960   7.425   2.840
 5864TIP3    H117469   1.952   7.349   2.779
 5864TIP3    H217470   1.944   7.501   2.779
 5865TIP3   OH217471   1.255   6.819   2.096
 5865TIP3    H117472   1.173   6.870   2.075
 5865TIP3    H217473   1.299   6.817   2.010
 5866TIP3   OH217474   1.213   6.601   1.814
 5866TIP3    H117475   1.281   6.653   1.862
 5866TIP3    H217476   1.271   6.539   1.766
 5867TIP3   OH217477   2.156   7.057   2.682
 5867TIP3    H117478   2.075   7.112   2.687
 5867TIP3    H217479   2.188   7.082   2.593
 5868TIP3   OH217480   1.599   6.901   2.069
 5868TIP3    H117481   1.545   6.926   2.147
 5868TIP3    H217482   1.683   6.876   2.112
 5869TIP3   OH217483   1.834   6.951   2.973
 5869TIP3    H117484   1.843   7.024   3.037
 5869TIP3    H217485   1.755   6.979   2.925
 5870TIP3   OH217486   0.830   6.899   2.485
 5870TIP3    H117487   0.788   6.842   2.417
 5870TIP3    H217488   0.908   6.846   2.511
 5871TIP3   OH217489   0.961   7.309   2.634
 5871TIP3    H117490   0.941   7.269   2.548
 5871TIP3    H217491   1.051   7.276   2.652
 5872TIP3   OH217492   0.978   6.866   2.842
 5872TIP3    H117493   1.002   6.850   2.748
 5872TIP3    H217494   1.014   6.956   2.859
 5873TIP3   OH217495   1.494   7.508   2.616
 5873TIP3    H117496   1.480   7.589   2.668
 5873TIP3    H217497   1.478   7.436   2.680
 5874TIP3   OH217498   1.107   7.426   3.163
 5874TIP3    H117499   1.047   7.489   3.209
 5874TIP3    H217500   1.041   7.373   3.113
 5875TIP3   OH217501   1.442   6.758   1.893
 5875TIP3    H117502   1.500   6.818   1.945
 5875TIP3    H217503   1.467   6.783   1.801
 5876TIP3   OH217504   0.861   6.982   3.262
 5876TIP3    H117505   0.867   7.069   3.307
 5876TIP3    H217506   0.766   6.963   3.275
 5877TIP3   OH217507   1.183   7.443   2.176
 5877TIP3    H117508   1.264   7.496   2.187
 5877TIP3    H217509   1.124   7.504   2.129
 5878TIP3   OH217510   0.903   7.596   3.248
 5878TIP3    H117511   0.865   7.594   3.158
 5878TIP3    H217512   0.824   7.574   3.303
 5879TIP3   OH217513   1.958   6.001   1.941
 5879TIP3    H117514   1.876   6.022   1.991
 5879TIP3    H217515   1.970   6.083   1.890
 5880TIP3   OH217516   0.700   6.738   2.294
 5880TIP3    H117517   0.641   6.786   2.232
 5880TIP3    H217518   0.655   6.653   2.300
 5881TIP3   OH217519   1.755   7.367   1.490
 5881TIP3    H117520   1.763   7.464   1.474
 5881TIP3    H217521   1.848   7.338   1.476
 5882TIP3   OH217522   0.482   7.125   3.195
 5882TIP3    H117523   0.415   7.102   3.129
 5882TIP3    H217524   0.518   7.037   3.222
 5883TIP3   OH217525   0.338   7.324   2.838
 5883TIP3    H117526   0.425   7.298   2.805
 5883TIP3    H217527   0.363   7.395   2.900
 5884TIP3   OH217528   2.199   7.769   2.884
 5884TIP3    H117529   2.197   7.672   2.898
 5884TIP3    H217530   2.116   7.795   2.930
 5885TIP3   OH217531   1.306   7.555   3.019
 5885TIP3    H117532   1.305   7.648   3.051
 5885TIP3    H217533   1.234   7.516   3.074
 5886TIP3   OH217534   1.067   7.684   1.987
 5886TIP3    H117535   1.044   7.669   1.894
 5886TIP3    H217536   1.035   7.775   2.003
 5887TIP3   OH217537   0.514   7.508   2.358
 5887TIP3    H117538   0.570   7.521   2.438
 5887TIP3    H217539   0.465   7.429   2.387
 5888TIP3   OH217540   1.313   7.610   1.611
 5888TIP3    H117541   1.360   7.540   1.560
 5888TIP3    H217542   1.348   7.597   1.701
 5889TIP3   OH217543   1.322   7.636   1.891
 5889TIP3    H117544   1.233   7.641   1.931
 5889TIP3    H217545   1.372   7.593   1.962
 5890TIP3   OH217546   2.088   6.904   3.164
 5890TIP3    H117547   2.009   6.918   3.111
 5890TIP3    H217548   2.104   6.808   3.149
 5891TIP3   OH217549   0.686   7.308   3.185
 5891TIP3    H117550   0.735   7.293   3.268
 5891TIP3    H217551   0.612   7.245   3.192
 5892TIP3   OH217552   1.085   6.135   2.967
 5892TIP3    H117553   0.997   6.102   2.941
 5892TIP3    H217554   1.056   6.215   3.016
 5893TIP3   OH217555   1.615   6.267   3.155
 5893TIP3    H117556   1.686   6.232   3.213
 5893TIP3    H217557   1.535   6.235   3.201
 5894TIP3   OH217558   1.516   6.809   1.638
 5894TIP3    H117559   1.486   6.779   1.550
 5894TIP3    H217560   1.598   6.856   1.614
 5895TIP3   OH217561   1.228   6.182   1.939
 5895TIP3    H117562   1.196   6.179   2.031
 5895TIP3    H217563   1.192   6.098   1.906
 5896TIP3   OH217564   1.026   6.644   2.987
 5896TIP3    H117565   0.971   6.662   3.067
 5896TIP3    H217566   1.007   6.725   2.934
 5897TIP3   OH217567   0.901   6.534   2.501
 5897TIP3    H117568   0.808   6.509   2.518
 5897TIP3    H217569   0.914   6.494   2.412
 5898TIP3   OH217570   1.391   6.619   2.228
 5898TIP3    H117571   1.338   6.691   2.186
 5898TIP3    H217572   1.446   6.589   2.153
 5899TIP3   OH217573   1.564   6.897   3.306
 5899TIP3    H117574   1.540   6.830   3.374
 5899TIP3    H217575   1.655   6.919   3.333
 5900TIP3   OH217576   1.544   6.650   2.468
 5900TIP3    H117577   1.488   6.678   2.393
 5900TIP3    H217578   1.579   6.567   2.429
 5901TIP3   OH217579   0.842   6.675   3.194
 5901TIP3    H117580   0.852   6.740   3.265
 5901TIP3    H217581   0.822   6.594   3.244
 5902TIP3   OH217582   0.882   6.149   1.906
 5902TIP3    H117583   0.876   6.152   2.003
 5902TIP3    H217584   0.808   6.209   1.881
 5903TIP3   OH217585   0.428   6.200   2.775
 5903TIP3    H117586   0.504   6.231   2.829
 5903TIP3    H217587   0.469   6.169   2.693
 5904TIP3   OH217588   0.406   6.179   2.296
 5904TIP3    H117589   0.447   6.220   2.217
 5904TIP3    H217590   0.344   6.251   2.321
 5905TIP3   OH217591   1.536   6.901   2.888
 5905TIP3    H117592   1.588   6.849   2.826
 5905TIP3    H217593   1.553   6.859   2.973
 5906TIP3   OH217594   1.227   6.366   2.564
 5906TIP3    H117595   1.145   6.356   2.616
 5906TIP3    H217596   1.296   6.340   2.627
 5907TIP3   OH217597   0.663   6.412   2.572
 5907TIP3    H117598   0.569   6.421   2.544
 5907TIP3    H217599   0.684   6.320   2.547
 5908TIP3   OH217600   0.933   6.408   2.259
 5908TIP3    H117601   1.026   6.424   2.236
 5908TIP3    H217602   0.884   6.430   2.176
 5909TIP3   OH217603   0.774   6.438   2.040
 5909TIP3    H117604   0.698   6.400   1.993
 5909TIP3    H217605   0.824   6.475   1.964
 5910TIP3   OH217606   1.889   8.120   2.982
 5910TIP3    H117607   1.888   8.143   2.888
 5910TIP3    H217608   1.969   8.167   3.013
 5911TIP3   OH217609   0.847   7.230   3.404
 5911TIP3    H117610   0.926   7.261   3.453
 5911TIP3    H217611   0.783   7.228   3.478
 5912TIP3   OH217612   1.320   6.690   2.664
 5912TIP3    H117613   1.388   6.649   2.607
 5912TIP3    H217614   1.316   6.629   2.739
 5913TIP3   OH217615   0.837   6.173   2.538
 5913TIP3    H117616   0.803   6.093   2.583
 5913TIP3    H217617   0.885   6.136   2.463
 5914TIP3   OH217618   1.297   6.587   2.955
 5914TIP3    H117619   1.200   6.602   2.945
 5914TIP3    H217620   1.319   6.658   3.016
 5915TIP3   OH217621   1.027   6.969   2.048
 5915TIP3    H117622   0.952   6.906   2.035
 5915TIP3    H217623   1.006   7.004   2.138
 5916TIP3   OH217624   1.926   7.207   2.675
 5916TIP3    H117625   1.952   7.257   2.594
 5916TIP3    H217626   1.840   7.167   2.649
 5917TIP3   OH217627   1.483   6.282   1.910
 5917TIP3    H117628   1.385   6.268   1.914
 5917TIP3    H217629   1.493   6.378   1.929
 5918TIP3   OH217630   1.421   7.286   3.045
 5918TIP3    H117631   1.447   7.272   3.136
 5918TIP3    H217632   1.385   7.376   3.046
 5919TIP3   OH217633   1.552   6.532   2.010
 5919TIP3    H117634   1.649   6.538   2.024
 5919TIP3    H217635   1.533   6.611   1.956
 5920TIP3   OH217636   0.720   6.997   2.723
 5920TIP3    H117637   0.754   6.965   2.637
 5920TIP3    H217638   0.747   6.926   2.783
 5921TIP3   OH217639   1.170   7.120   1.872
 5921TIP3    H117640   1.123   7.206   1.882
 5921TIP3    H217641   1.115   7.063   1.930
 5922TIP3   OH217642   0.599   6.913   3.334
 5922TIP3    H117643   0.613   6.898   3.429
 5922TIP3    H217644   0.529   6.848   3.313
 5923TIP3   OH217645   1.321   7.027   3.355
 5923TIP3    H117646   1.259   6.966   3.312
 5923TIP3    H217647   1.407   6.995   3.322
 5924TIP3   OH217648   1.583   7.542   2.941
 5924TIP3    H117649   1.487   7.548   2.951
 5924TIP3    H217650   1.613   7.598   3.016
 5925TIP3   OH217651   1.994   6.621   1.847
 5925TIP3    H117652   1.931   6.576   1.786
 5925TIP3    H217653   1.991   6.710   1.805
 5926TIP3   OH217654   2.211   7.477   2.928
 5926TIP3    H117655   2.113   7.473   2.919
 5926TIP3    H217656   2.238   7.448   2.838
 5927TIP3   OH217657   1.695   7.440   1.754
 5927TIP3    H117658   1.670   7.369   1.815
 5927TIP3    H217659   1.707   7.394   1.669
 5928TIP3   OH217660   1.690   7.065   2.601
 5928TIP3    H117661   1.594   7.045   2.604
 5928TIP3    H217662   1.722   6.990   2.548
 5929TIP3   OH217663   0.819   7.298   2.347
 5929TIP3    H117664   0.825   7.378   2.292
 5929TIP3    H217665   0.724   7.283   2.350
 5930TIP3   OH217666   0.393   6.595   2.089
 5930TIP3    H117667   0.432   6.685   2.095
 5930TIP3    H217668   0.308   6.607   2.136
 5931TIP3   OH217669   0.957   7.063   2.293
 5931TIP3    H117670   0.923   7.153   2.310
 5931TIP3    H217671   0.917   7.013   2.366
 5932TIP3   OH217672   1.086   7.641   2.815
 5932TIP3    H117673   1.126   7.715   2.764
 5932TIP3    H217674   1.163   7.608   2.864
 5933TIP3   OH217675   0.744   7.533   2.195
 5933TIP3    H117676   0.658   7.540   2.242
 5933TIP3    H217677   0.777   7.626   2.200
 5934TIP3   OH217678   1.474   7.273   2.774
 5934TIP3    H117679   1.467   7.272   2.872
 5934TIP3    H217680   1.558   7.228   2.760
 5935TIP3   OH217681   1.452   7.167   1.654
 5935TIP3    H117682   1.498   7.141   1.737
 5935TIP3    H217683   1.361   7.139   1.675
 5936TIP3   OH217684   1.722   7.810   2.823
 5936TIP3    H117685   1.642   7.755   2.813
 5936TIP3    H217686   1.710   7.876   2.751
 5937TIP3   OH217687   1.788   7.644   1.472
 5937TIP3    H117688   1.829   7.718   1.424
 5937TIP3    H217689   1.709   7.690   1.508
 5938TIP3   OH217690   0.808   6.419   3.342
 5938TIP3    H117691   0.711   6.426   3.355
 5938TIP3    H217692   0.833   6.359   3.414
 5939TIP3   OH217693   1.608   7.104   1.876
 5939TIP3    H117694   1.599   7.035   1.945
 5939TIP3    H217695   1.705   7.101   1.861
 5940TIP3   OH217696   0.520   7.502   2.975
 5940TIP3    H117697   0.577   7.430   3.007
 5940TIP3    H217698   0.548   7.574   3.033
 5941TIP3   OH217699   0.789   7.146   1.652
 5941TIP3    H117700   0.828   7.061   1.625
 5941TIP3    H217701   0.788   7.137   1.750
 5942TIP3   OH217702   0.789   7.160   1.922
 5942TIP3    H117703   0.839   7.131   1.999
 5942TIP3    H217704   0.778   7.256   1.938
 5943TIP3   OH217705   0.510   6.841   2.133
 5943TIP3    H117706   0.454   6.889   2.197
 5943TIP3    H217707   0.522   6.913   2.066
 5944TIP3   OH217708   1.523   6.235   2.188
 5944TIP3    H117709   1.509   6.257   2.093
 5944TIP3    H217710   1.562   6.319   2.222
 5945TIP3   OH217711   1.031   7.351   1.905
 5945TIP3    H117712   0.940   7.380   1.924
 5945TIP3    H217713   1.053   7.407   1.829
 5946TIP3   OH217714   1.216   6.413   2.289
 5946TIP3    H117715   1.281   6.485   2.270
 5946TIP3    H217716   1.221   6.410   2.387
 5947TIP3   OH217717   1.535   6.698   3.113
 5947TIP3    H117718   1.492   6.782   3.138
 5947TIP3    H217719   1.584   6.685   3.198
 5948TIP3   OH217720   1.360   6.142   2.393
 5948TIP3    H117721   1.357   6.220   2.452
 5948TIP3    H217722   1.419   6.177   2.322
 5949TIP3   OH217723   0.764   7.436   1.942
 5949TIP3    H117724   0.755   7.518   1.890
 5949TIP3    H217725   0.754   7.470   2.034
 5950TIP3   OH217726   0.870   6.139   2.183
 5950TIP3    H117727   0.867   6.231   2.217
 5950TIP3    H217728   0.966   6.122   2.191
 5951TIP3   OH217729   2.110   6.642   3.083
 5951TIP3    H117730   2.029   6.592   3.093
 5951TIP3    H217731   2.142   6.613   2.996
 5952TIP3   OH217732   1.770   6.825   2.473
 5952TIP3    H117733   1.696   6.762   2.481
 5952TIP3    H217734   1.844   6.776   2.515
 5953TIP3   OH217735   0.517   7.069   1.988
 5953TIP3    H117736   0.512   7.161   1.959
 5953TIP3    H217737   0.555   7.028   1.907
 5954TIP3   OH217738   0.439   6.328   2.072
 5954TIP3    H117739   0.441   6.426   2.079
 5954TIP3    H217740   0.360   6.315   2.019
 5955TIP3   OH217741   1.744   7.782   2.417
 5955TIP3    H117742   1.701   7.830   2.343
 5955TIP3    H217743   1.838   7.802   2.397
 5956TIP3   OH217744   0.822   6.053   2.944
 5956TIP3    H117745   0.789   6.020   2.858
 5956TIP3    H217746   0.811   5.975   3.002
 5957TIP3   OH217747   0.356   7.271   2.326
 5957TIP3    H117748   0.293   7.326   2.375
 5957TIP3    H217749   0.361   7.312   2.239
 5958TIP3   OH217750   0.513   7.807   3.398
 5958TIP3    H117751   0.600   7.811   3.443
 5958TIP3    H217752   0.499   7.711   3.394
 5959TIP3   OH217753   0.997   7.778   3.441
 5959TIP3    H117754   1.092   7.761   3.448
 5959TIP3    H217755   0.973   7.719   3.366
 5960TIP3   OH217756   0.979   7.355   1.612
 5960TIP3    H117757   0.913   7.284   1.625
 5960TIP3    H217758   1.028   7.314   1.538
 5961TIP3   OH217759   1.637   7.683   3.173
 5961TIP3    H117760   1.628   7.613   3.242
 5961TIP3    H217761   1.714   7.734   3.204
 5962TIP3   OH217762   1.436   7.399   1.488
 5962TIP3    H117763   1.471   7.328   1.545
 5962TIP3    H217764   1.494   7.394   1.410
 5963TIP3   OH217765   0.651   7.218   3.599
 5963TIP3    H117766   0.667   7.122   3.602
 5963TIP3    H217767   0.564   7.221   3.553
 5964TIP3   OH217768   0.644   6.882   1.814
 5964TIP3    H117769   0.705   6.842   1.878
 5964TIP3    H217770   0.701   6.883   1.734
 5965TIP3   OH217771   1.255   7.304   3.369
 5965TIP3    H117772   1.212   7.321   3.283
 5965TIP3    H217773   1.285   7.211   3.361
 5966TIP3   OH217774   1.149   7.067   1.599
 5966TIP3    H117775   1.143   7.079   1.696
 5966TIP3    H217776   1.133   6.971   1.591
 5967TIP3   OH217777   1.745   7.310   2.973
 5967TIP3    H117778   1.821   7.353   2.930
 5967TIP3    H217779   1.677   7.379   2.963
 5968TIP3   OH217780   0.767   6.954   3.578
 5968TIP3    H117781   0.837   6.890   3.561
 5968TIP3    H217782   0.791   6.986   3.667
 5969TIP3   OH217783   0.836   6.770   2.014
 5969TIP3    H117784   0.803   6.728   2.094
 5969TIP3    H217785   0.871   6.694   1.963
 5970TIP3   OH217786   1.105   6.843   3.240
 5970TIP3    H117787   1.022   6.895   3.247
 5970TIP3    H217788   1.141   6.872   3.154
 5971TIP3   OH217789   0.932   6.563   1.854
 5971TIP3    H117790   0.905   6.568   1.760
 5971TIP3    H217791   1.030   6.571   1.845
 5972TIP3   OH217792   1.614   7.236   3.372
 5972TIP3    H117793   1.699   7.222   3.330
 5972TIP3    H217794   1.616   7.173   3.447
 5973TIP3   OH217795   1.753   6.898   1.514
 5973TIP3    H117796   1.734   6.851   1.431
 5973TIP3    H217797   1.721   6.988   1.489
 5974TIP3   OH217798   1.226   6.627   3.364
 5974TIP3    H117799   1.217   6.545   3.312
 5974TIP3    H217800   1.176   6.692   3.310
 5975TIP3   OH217801   1.225   6.412   3.171
 5975TIP3    H117802   1.244   6.448   3.082
 5975TIP3    H217803   1.130   6.386   3.161
 5976TIP3   OH217804   1.271   6.940   3.031
 5976TIP3    H117805   1.346   6.973   2.979
 5976TIP3    H217806   1.202   7.004   3.006
 5977TIP3   OH217807   1.834   6.912   3.425
 5977TIP3    H117808   1.888   6.833   3.444
 5977TIP3    H217809   1.902   6.974   3.394
 5978TIP3   OH217810   1.877   7.163   3.158
 5978TIP3    H117811   1.819   7.218   3.101
 5978TIP3    H217812   1.965   7.187   3.120
 5979TIP3   OH217813   1.101   6.739   3.595
 5979TIP3    H117814   1.032   6.671   3.611
 5979TIP3    H217815   1.136   6.711   3.508
 5980TIP3   OH217816   1.360   6.177   3.234
 5980TIP3    H117817   1.306   6.257   3.218
 5980TIP3    H217818   1.292   6.106   3.227
 5981TIP3   OH217819   1.486   6.681   3.453
 5981TIP3    H117820   1.481   6.669   3.550
 5981TIP3    H217821   1.393   6.656   3.430
 5982TIP3   OH217822   1.704   6.604   3.292
 5982TIP3    H117823   1.648   6.619   3.371
 5982TIP3    H217824   1.791   6.592   3.335
 5983TIP3   OH217825   1.943   6.570   3.453
 5983TIP3    H117826   1.960   6.476   3.474
 5983TIP3    H217827   1.942   6.611   3.542
 5984TIP3   OH217828   0.943   6.518   3.646
 5984TIP3    H117829   0.946   6.426   3.614
 5984TIP3    H217830   0.977   6.506   3.738
 5985TIP3   OH217831   1.454   6.188   3.494
 5985TIP3    H117832   1.521   6.116   3.492
 5985TIP3    H217833   1.414   6.177   3.405
 5986TIP3   OH217834   1.519   6.402   3.654
 5986TIP3    H117835   1.497   6.329   3.591
 5986TIP3    H217836   1.440   6.459   3.649
 5987TIP3   OH217837   0.294   7.458   2.552
 5987TIP3    H117838   0.249   7.400   2.615
 5987TIP3    H217839   0.330   7.526   2.612
 5988TIP3   OH217840   1.995   7.876   2.373
 5988TIP3    H117841   2.024   7.911   2.459
 5988TIP3    H217842   2.057   7.918   2.311
 5989TIP3   OH217843   2.025   7.897   2.656
 5989TIP3    H117844   1.983   7.808   2.650
 5989TIP3    H217845   2.103   7.875   2.709
 5990TIP3   OH217846   2.072   7.571   3.228
 5990TIP3    H117847   1.999   7.581   3.292
 5990TIP3    H217848   2.113   7.660   3.231
 5991TIP3   OH217849   1.887   7.085   1.848
 5991TIP3    H117850   1.956   7.149   1.818
 5991TIP3    H217851   1.931   7.046   1.926
 5992TIP3   OH217852   2.015   6.953   2.051
 5992TIP3    H117853   1.951   6.911   2.111
 5992TIP3    H217854   2.082   6.990   2.112
 5993TIP3   OH217855   2.068   7.342   2.483
 5993TIP3    H117856   2.122   7.279   2.432
 5993TIP3    H217857   2.063   7.419   2.422
 5994TIP3   OH217858   1.902   7.644   2.680
 5994TIP3    H117859   1.831   7.688   2.730
 5994TIP3    H217860   1.852   7.597   2.610
 5995TIP3   OH217861   1.954   6.860   1.699
 5995TIP3    H117862   1.882   6.862   1.631
 5995TIP3    H217863   1.927   6.936   1.754
 5996TIP3   OH217864   1.823   6.535   1.655
 5996TIP3    H117865   1.786   6.572   1.575
 5996TIP3    H217866   1.798   6.440   1.646
 5997TIP3   OH217867   1.829   6.809   2.200
 5997TIP3    H117868   1.837   6.713   2.192
 5997TIP3    H217869   1.815   6.821   2.297
 5998TIP3   OH217870   0.456   6.890   2.944
 5998TIP3    H117871   0.454   6.856   2.852
 5998TIP3    H217872   0.553   6.888   2.961
 5999TIP3   OH217873   2.119   7.233   3.054
 5999TIP3    H117874   2.192   7.169   3.045
 5999TIP3    H217875   2.147   7.304   2.993
 6000TIP3   OH217876   2.304   7.039   3.073
 6000TIP3    H117877   2.231   6.989   3.116
 6000TIP3    H217878   2.378   6.977   3.086
 6001TIP3   OH217879   1.768   6.269   1.643
 6001TIP3    H117880   1.844   6.235   1.694
 6001TIP3    H217881   1.696   6.207   1.663
 6002TIP3   OH217882   1.828   6.526   2.095
 6002TIP3    H117883   1.867   6.436   2.108
 6002TIP3    H217884   1.885   6.558   2.023
 6003TIP3   OH217885   1.989   6.703   2.591
 6003TIP3    H117886   2.074   6.726   2.546
 6003TIP3    H217887   2.007   6.744   2.678
 6004TIP3   OH217888   2.053   6.845   2.823
 6004TIP3    H117889   1.977   6.885   2.871
 6004TIP3    H217890   2.089   6.923   2.775
 6005TIP3   OH217891   0.677   6.572   3.625
 6005TIP3    H117892   0.774   6.562   3.623
 6005TIP3    H217893   0.651   6.486   3.662
 6006TIP3   OH217894   2.506   6.432   3.377
 6006TIP3    H117895   2.567   6.366   3.337
 6006TIP3    H217896   2.483   6.487   3.299
 6007TIP3   OH217897   1.933   6.275   2.132
 6007TIP3    H117898   1.985   6.255   2.213
 6007TIP3    H217899   1.873   6.197   2.129
 6008TIP3   OH217900   0.636   6.260   2.946
 6008TIP3    H117901   0.699   6.186   2.960
 6008TIP3    H217902   0.697   6.336   2.944
 6009TIP3   OH217903   0.442   6.532   3.025
 6009TIP3    H117904   0.489   6.530   2.939
 6009TIP3    H217905   0.468   6.618   3.060
 6010TIP3   OH217906   2.379   6.575   3.182
 6010TIP3    H117907   2.294   6.612   3.212
 6010TIP3    H217908   2.350   6.503   3.123
 6011TIP3   OH217909   2.018   6.209   1.764
 6011TIP3    H117910   2.056   6.137   1.710
 6011TIP3    H217911   2.084   6.280   1.755
 6012TIP3   OH217912   0.421   6.035   2.525
 6012TIP3    H117913   0.328   6.033   2.552
 6012TIP3    H217914   0.419   6.094   2.447
 6013TIP3   OH217915   1.584   7.739   2.032
 6013TIP3    H117916   1.632   7.724   1.949
 6013TIP3    H217917   1.637   7.808   2.075
 6014TIP3   OH217918   0.641   6.118   3.338
 6014TIP3    H117919   0.591   6.110   3.421
 6014TIP3    H217920   0.574   6.158   3.279
 6015TIP3   OH217921   0.688   7.544   3.417
 6015TIP3    H117922   0.596   7.517   3.398
 6015TIP3    H217923   0.694   7.527   3.512
 6016TIP3   OH217924   0.858   7.575   2.962
 6016TIP3    H117925   0.812   7.652   2.924
 6016TIP3    H217926   0.945   7.589   2.918
 6017TIP3   OH217927   1.305   7.821   3.100
 6017TIP3    H117928   1.347   7.823   3.189
 6017TIP3    H217929   1.371   7.873   3.049
 6018TIP3   OH217930   1.484   7.973   2.959
 6018TIP3    H117931   1.556   7.923   2.917
 6018TIP3    H217932   1.535   8.031   3.020
 6019TIP3   OH217933   2.276   6.333   3.061
 6019TIP3    H117934   2.186   6.314   3.030
 6019TIP3    H217935   2.317   6.243   3.051
 6020TIP3   OH217936   0.541   7.831   2.991
 6020TIP3    H117937   0.455   7.860   2.956
 6020TIP3    H217938   0.544   7.879   3.076
 6021TIP3   OH217939   0.775   7.812   2.844
 6021TIP3    H117940   0.690   7.826   2.892
 6021TIP3    H217941   0.754   7.847   2.755
 6022TIP3   OH217942   1.198   7.842   2.643
 6022TIP3    H117943   1.133   7.863   2.573
 6022TIP3    H217944   1.211   7.930   2.684
 6023TIP3   OH217945   1.467   7.781   2.694
 6023TIP3    H117946   1.372   7.798   2.674
 6023TIP3    H217947   1.510   7.856   2.650
 6024TIP3   OH217948   1.675   7.975   2.609
 6024TIP3    H117949   1.660   8.059   2.561
 6024TIP3    H217950   1.701   7.915   2.535
 6025TIP3   OH217951   0.451   7.617   2.731
 6025TIP3    H117952   0.481   7.589   2.820
 6025TIP3    H217953   0.522   7.574   2.677
 6026TIP3   OH217954   0.651   7.498   2.591
 6026TIP3    H117955   0.667   7.414   2.640
 6026TIP3    H217956   0.742   7.535   2.588
 6027TIP3   OH217957   0.912   7.597   2.591
 6027TIP3    H117958   0.945   7.506   2.577
 6027TIP3    H217959   0.956   7.617   2.676
 6028TIP3   OH217960   1.461   6.251   2.678
 6028TIP3    H117961   1.432   6.174   2.731
 6028TIP3    H217962   1.547   6.222   2.644
 6029TIP3   OH217963   2.006   6.148   2.594
 6029TIP3    H117964   2.044   6.183   2.510
 6029TIP3    H217965   1.910   6.145   2.575
 6030TIP3   OH217966   2.099   6.233   2.352
 6030TIP3    H117967   2.170   6.178   2.311
 6030TIP3    H217968   2.136   6.322   2.333
 6031TIP3   OH217969   0.733   5.960   2.694
 6031TIP3    H117970   0.641   5.929   2.696
 6031TIP3    H217971   0.781   5.874   2.692
 6032TIP3   OH217972   0.534   5.832   2.339
 6032TIP3    H117973   0.553   5.897   2.268
 6032TIP3    H217974   0.492   5.890   2.406
 6033TIP3   OH217975   1.173   5.991   2.574
 6033TIP3    H117976   1.233   6.039   2.515
 6033TIP3    H217977   1.197   6.027   2.661
 6034TIP3   OH217978   1.729   6.137   2.559
 6034TIP3    H117979   1.716   6.101   2.470
 6034TIP3    H217980   1.710   6.058   2.615
 6035TIP3   OH217981   1.752   6.061   2.122
 6035TIP3    H117982   1.664   6.102   2.130
 6035TIP3    H217983   1.737   5.976   2.169
 6036TIP3   OH217984   0.639   5.980   2.112
 6036TIP3    H117985   0.691   5.930   2.046
 6036TIP3    H217986   0.706   6.042   2.147
 6037TIP3   OH217987   1.147   6.163   2.205
 6037TIP3    H117988   1.208   6.117   2.265
 6037TIP3    H217989   1.169   6.256   2.230
 6038TIP3   OH217990   1.067   7.592   1.716
 6038TIP3    H117991   1.154   7.615   1.676
 6038TIP3    H217992   1.049   7.510   1.664
 6039TIP3   OH217993   1.726   7.707   1.799
 6039TIP3    H117994   1.718   7.609   1.785
 6039TIP3    H217995   1.681   7.740   1.718
 6040TIP3   OH217996   0.940   6.243   3.587
 6040TIP3    H117997   0.904   6.172   3.643
 6040TIP3    H217998   1.035   6.242   3.615
 6041TIP3   OH217999   1.190   6.238   3.706
 6041TIP3    H118000   1.274   6.208   3.668
 6041TIP3    H218001   1.174   6.169   3.774
 6042TIP3   OH218002   2.013   6.301   3.493
 6042TIP3    H118003   2.031   6.268   3.584
 6042TIP3    H218004   2.102   6.294   3.452
 6043TIP3   OH218005   1.952   7.852   2.986
 6043TIP3    H118006   1.874   7.820   2.937
 6043TIP3    H218007   1.934   7.948   2.988
 6044TIP3   OH218008   3.218   7.222   1.753
 6044TIP3    H118009   3.191   7.314   1.733
 6044TIP3    H218010   3.141   7.174   1.718
 6045TIP3   OH218011   3.215   7.224   2.133
 6045TIP3    H118012   3.248   7.195   2.219
 6045TIP3    H218013   3.176   7.143   2.097
 6046TIP3   OH218014   2.517   7.121   2.501
 6046TIP3    H118015   2.549   7.053   2.563
 6046TIP3    H218016   2.597   7.173   2.486
 6047TIP3   OH218017   3.459   7.525   1.814
 6047TIP3    H118018   3.449   7.456   1.880
 6047TIP3    H218019   3.490   7.600   1.868
 6048TIP3   OH218020   2.488   7.527   2.224
 6048TIP3    H118021   2.480   7.430   2.226
 6048TIP3    H218022   2.584   7.537   2.217
 6049TIP3   OH218023   2.193   6.730   2.010
 6049TIP3    H118024   2.146   6.815   2.022
 6049TIP3    H218025   2.123   6.678   1.968
 6050TIP3   OH218026   2.254   7.019   2.179
 6050TIP3    H118027   2.303   6.942   2.215
 6050TIP3    H218028   2.314   7.050   2.110
 6051TIP3   OH218029   3.108   7.987   1.830
 6051TIP3    H118030   3.155   7.916   1.781
 6051TIP3    H218031   3.106   7.951   1.919
 6052TIP3   OH218032   3.017   7.449   2.181
 6052TIP3    H118033   3.055   7.372   2.136
 6052TIP3    H218034   3.100   7.495   2.205
 6053TIP3   OH218035   4.028   6.770   2.178
 6053TIP3    H118036   4.057   6.852   2.222
 6053TIP3    H218037   4.052   6.789   2.085
 6054TIP3   OH218038   3.426   6.952   2.214
 6054TIP3    H118039   3.471   6.867   2.235
 6054TIP3    H218040   3.398   6.935   2.122
 6055TIP3   OH218041   2.764   6.610   2.180
 6055TIP3    H118042   2.746   6.683   2.117
 6055TIP3    H218043   2.718   6.537   2.134
 6056TIP3   OH218044   3.460   6.702   1.801
 6056TIP3    H118045   3.532   6.685   1.867
 6056TIP3    H218046   3.512   6.737   1.727
 6057TIP3   OH218047   2.399   6.812   2.286
 6057TIP3    H118048   2.483   6.793   2.333
 6057TIP3    H218049   2.413   6.757   2.205
 6058TIP3   OH218050   2.841   7.010   2.080
 6058TIP3    H118051   2.935   6.985   2.091
 6058TIP3    H218052   2.803   6.926   2.046
 6059TIP3   OH218053   4.102   6.976   2.349
 6059TIP3    H118054   4.019   7.024   2.330
 6059TIP3    H218055   4.118   7.003   2.440
 6060TIP3   OH218056   2.763   6.593   2.612
 6060TIP3    H118057   2.703   6.631   2.544
 6060TIP3    H218058   2.712   6.612   2.693
 6061TIP3   OH218059   3.109   7.444   1.623
 6061TIP3    H118060   3.069   7.424   1.537
 6061TIP3    H218061   3.067   7.529   1.646
 6062TIP3   OH218062   2.869   7.368   2.409
 6062TIP3    H118063   2.807   7.435   2.446
 6062TIP3    H218064   2.913   7.419   2.337
 6063TIP3   OH218065   3.671   6.703   1.972
 6063TIP3    H118066   3.664   6.655   2.056
 6063TIP3    H218067   3.726   6.779   1.998
 6064TIP3   OH218068   2.632   6.708   2.398
 6064TIP3    H118069   2.695   6.781   2.420
 6064TIP3    H218070   2.681   6.668   2.322
 6065TIP3   OH218071   2.696   7.562   2.506
 6065TIP3    H118072   2.672   7.648   2.466
 6065TIP3    H218073   2.617   7.548   2.562
 6066TIP3   OH218074   2.092   7.252   1.742
 6066TIP3    H118075   2.052   7.279   1.657
 6066TIP3    H218076   2.123   7.338   1.779
 6067TIP3   OH218077   3.531   7.768   1.982
 6067TIP3    H118078   3.441   7.760   2.021
 6067TIP3    H218079   3.524   7.854   1.937
 6068TIP3   OH218080   3.822   6.668   2.343
 6068TIP3    H118081   3.735   6.701   2.314
 6068TIP3    H218082   3.882   6.701   2.273
 6069TIP3   OH218083   3.119   6.313   2.324
 6069TIP3    H118084   3.109   6.218   2.343
 6069TIP3    H218085   3.042   6.350   2.372
 6070TIP3   OH218086   3.233   7.815   1.656
 6070TIP3    H118087   3.283   7.733   1.635
 6070TIP3    H218088   3.294   7.881   1.615
 6071TIP3   OH218089   3.375   7.600   1.562
 6071TIP3    H118090   3.343   7.520   1.520
 6071TIP3    H218091   3.411   7.565   1.647
 6072TIP3   OH218092   3.757   7.682   2.326
 6072TIP3    H118093   3.748   7.605   2.266
 6072TIP3    H218094   3.742   7.757   2.264
 6073TIP3   OH218095   3.049   7.075   1.582
 6073TIP3    H118096   2.969   7.127   1.558
 6073TIP3    H218097   3.097   7.072   1.497
 6074TIP3   OH218098   3.008   6.859   1.300
 6074TIP3    H118099   3.076   6.910   1.348
 6074TIP3    H218100   3.065   6.795   1.252
 6075TIP3   OH218101   3.953   7.317   2.169
 6075TIP3    H118102   3.870   7.370   2.175
 6075TIP3    H218103   3.983   7.341   2.079
 6076TIP3   OH218104   3.396   7.157   1.555
 6076TIP3    H118105   3.342   7.182   1.633
 6076TIP3    H218106   3.480   7.131   1.598
 6077TIP3   OH218107   3.632   7.198   2.466
 6077TIP3    H118108   3.630   7.280   2.518
 6077TIP3    H218109   3.546   7.204   2.419
 6078TIP3   OH218110   2.629   7.156   1.972
 6078TIP3    H118111   2.587   7.099   1.904
 6078TIP3    H218112   2.706   7.103   2.000
 6079TIP3   OH218113   2.757   7.565   2.121
 6079TIP3    H118114   2.739   7.524   2.035
 6079TIP3    H218115   2.848   7.533   2.139
 6080TIP3   OH218116   2.762   7.128   2.325
 6080TIP3    H118117   2.798   7.105   2.237
 6080TIP3    H218118   2.808   7.212   2.345
 6081TIP3   OH218119   3.289   7.765   2.102
 6081TIP3    H118120   3.277   7.844   2.156
 6081TIP3    H218121   3.276   7.692   2.165
 6082TIP3   OH218122   2.903   7.684   2.649
 6082TIP3    H118123   2.843   7.746   2.695
 6082TIP3    H218124   2.838   7.630   2.600
 6083TIP3   OH218125   3.237   7.016   1.380
 6083TIP3    H118126   3.297   7.075   1.432
 6083TIP3    H218127   3.264   7.040   1.288
 6084TIP3   OH218128   2.658   7.241   2.752
 6084TIP3    H118129   2.662   7.328   2.795
 6084TIP3    H218130   2.563   7.223   2.756
 6085TIP3   OH218131   2.979   7.697   1.657
 6085TIP3    H118132   3.059   7.749   1.673
 6085TIP3    H218133   2.920   7.762   1.616
 6086TIP3   OH218134   2.697   7.852   2.735
 6086TIP3    H118135   2.663   7.851   2.644
 6086TIP3    H218136   2.618   7.831   2.788
 6087TIP3   OH218137   3.753   6.257   1.428
 6087TIP3    H118138   3.672   6.278   1.479
 6087TIP3    H218139   3.766   6.341   1.378
 6088TIP3   OH218140   2.494   6.999   1.778
 6088TIP3    H118141   2.430   7.044   1.719
 6088TIP3    H218142   2.455   6.911   1.786
 6089TIP3   OH218143   3.552   7.624   0.977
 6089TIP3    H118144   3.560   7.721   0.962
 6089TIP3    H218145   3.645   7.595   0.964
 6090TIP3   OH218146   2.275   7.383   2.683
 6090TIP3    H118147   2.213   7.360   2.612
 6090TIP3    H218148   2.314   7.296   2.708
 6091TIP3   OH218149   2.131   7.573   2.320
 6091TIP3    H118150   2.226   7.567   2.306
 6091TIP3    H218151   2.124   7.655   2.371
 6092TIP3   OH218152   3.995   8.025   2.370
 6092TIP3    H118153   3.994   7.929   2.384
 6092TIP3    H218154   3.912   8.050   2.416
 6093TIP3   OH218155   3.101   7.813   2.505
 6093TIP3    H118156   3.101   7.906   2.538
 6093TIP3    H218157   3.030   7.774   2.560
 6094TIP3   OH218158   2.859   7.941   1.458
 6094TIP3    H118159   2.816   7.923   1.373
 6094TIP3    H218160   2.829   8.031   1.480
 6095TIP3   OH218161   2.298   7.792   1.842
 6095TIP3    H118162   2.348   7.782   1.926
 6095TIP3    H218163   2.241   7.713   1.846
 6096TIP3   OH218164   3.062   7.842   1.098
 6096TIP3    H118165   3.122   7.773   1.062
 6096TIP3    H218166   3.098   7.851   1.189
 6097TIP3   OH218167   3.112   7.891   1.369
 6097TIP3    H118168   3.024   7.899   1.412
 6097TIP3    H218169   3.165   7.851   1.440
 6098TIP3   OH218170   3.886   7.158   2.645
 6098TIP3    H118171   3.804   7.169   2.595
 6098TIP3    H218172   3.901   7.062   2.637
 6099TIP3   OH218173   2.481   7.566   2.673
 6099TIP3    H118174   2.532   7.548   2.755
 6099TIP3    H218175   2.407   7.502   2.681
 6100TIP3   OH218176   2.880   6.388   2.455
 6100TIP3    H118177   2.790   6.358   2.429
 6100TIP3    H218178   2.857   6.471   2.500
 6101TIP3   OH218179   3.415   6.504   2.649
 6101TIP3    H118180   3.485   6.477   2.713
 6101TIP3    H218181   3.332   6.483   2.697
 6102TIP3   OH218182   3.652   6.932   2.566
 6102TIP3    H118183   3.606   6.928   2.653
 6102TIP3    H218184   3.630   7.021   2.534
 6103TIP3   OH218185   3.313   7.064   1.125
 6103TIP3    H118186   3.280   7.037   1.037
 6103TIP3    H218187   3.395   7.112   1.100
 6104TIP3   OH218188   3.026   6.439   1.426
 6104TIP3    H118189   2.993   6.436   1.518
 6104TIP3    H218190   2.988   6.355   1.393
 6105TIP3   OH218191   2.810   6.904   2.473
 6105TIP3    H118192   2.763   6.928   2.555
 6105TIP3    H218193   2.796   6.985   2.419
 6106TIP3   OH218194   2.696   6.790   1.988
 6106TIP3    H118195   2.603   6.764   2.004
 6106TIP3    H218196   2.711   6.750   1.899
 6107TIP3   OH218197   3.187   6.876   1.714
 6107TIP3    H118198   3.134   6.947   1.673
 6107TIP3    H218199   3.242   6.846   1.640
 6108TIP3   OH218200   3.362   7.157   2.802
 6108TIP3    H118201   3.342   7.082   2.863
 6108TIP3    H218202   3.457   7.170   2.822
 6109TIP3   OH218203   3.343   6.905   1.955
 6109TIP3    H118204   3.285   6.935   1.883
 6109TIP3    H218205   3.377   6.823   1.913
 6110TIP3   OH218206   2.629   6.935   2.685
 6110TIP3    H118207   2.667   6.997   2.748
 6110TIP3    H218208   2.624   6.852   2.737
 6111TIP3   OH218209   2.681   6.410   1.392
 6111TIP3    H118210   2.673   6.408   1.490
 6111TIP3    H218211   2.602   6.463   1.368
 6112TIP3   OH218212   2.223   6.455   2.268
 6112TIP3    H118213   2.301   6.488   2.317
 6112TIP3    H218214   2.261   6.426   2.183
 6113TIP3   OH218215   2.199   6.436   1.784
 6113TIP3    H118216   2.244   6.474   1.705
 6113TIP3    H218217   2.138   6.510   1.804
 6114TIP3   OH218218   3.351   7.151   2.378
 6114TIP3    H118219   3.386   7.080   2.320
 6114TIP3    H218220   3.325   7.099   2.457
 6115TIP3   OH218221   3.022   6.614   2.050
 6115TIP3    H118222   2.941   6.611   2.105
 6115TIP3    H218223   3.092   6.611   2.117
 6116TIP3   OH218224   2.457   6.667   2.059
 6116TIP3    H118225   2.363   6.673   2.031
 6116TIP3    H218226   2.483   6.577   2.033
 6117TIP3   OH218227   2.728   6.665   1.746
 6117TIP3    H118228   2.822   6.679   1.726
 6117TIP3    H218229   2.683   6.688   1.661
 6118TIP3   OH218230   3.515   6.690   2.251
 6118TIP3    H118231   3.481   6.701   2.342
 6118TIP3    H218232   3.450   6.627   2.214
 6119TIP3   OH218233   2.567   6.699   1.524
 6119TIP3    H118234   2.496   6.653   1.475
 6119TIP3    H218235   2.620   6.735   1.450
 6120TIP3   OH218236   3.684   8.378   2.469
 6120TIP3    H118237   3.683   8.401   2.375
 6120TIP3    H218238   3.763   8.426   2.500
 6121TIP3   OH218239   2.642   7.487   2.893
 6121TIP3    H118240   2.723   7.517   2.938
 6121TIP3    H218241   2.578   7.489   2.967
 6122TIP3   OH218242   3.107   6.939   2.145
 6122TIP3    H118243   3.180   6.903   2.094
 6122TIP3    H218244   3.120   6.898   2.232
 6123TIP3   OH218245   2.630   6.430   2.023
 6123TIP3    H118246   2.599   6.349   2.068
 6123TIP3    H218247   2.684   6.394   1.951
 6124TIP3   OH218248   3.084   6.834   2.440
 6124TIP3    H118249   2.995   6.874   2.452
 6124TIP3    H218250   3.143   6.895   2.488
 6125TIP3   OH218251   2.819   7.229   1.530
 6125TIP3    H118252   2.747   7.163   1.520
 6125TIP3    H218253   2.802   7.262   1.622
 6126TIP3   OH218254   3.721   7.465   2.161
 6126TIP3    H118255   3.746   7.514   2.080
 6126TIP3    H218256   3.636   7.423   2.136
 6127TIP3   OH218257   3.279   6.541   1.393
 6127TIP3    H118258   3.182   6.525   1.401
 6127TIP3    H218259   3.289   6.635   1.416
 6128TIP3   OH218260   3.216   7.544   2.529
 6128TIP3    H118261   3.246   7.525   2.619
 6128TIP3    H218262   3.182   7.635   2.536
 6129TIP3   OH218263   3.348   6.788   1.496
 6129TIP3    H118264   3.445   6.793   1.512
 6129TIP3    H218265   3.331   6.867   1.443
 6130TIP3   OH218266   2.510   7.247   2.208
 6130TIP3    H118267   2.548   7.222   2.121
 6130TIP3    H218268   2.557   7.187   2.268
 6131TIP3   OH218269   2.965   7.378   1.351
 6131TIP3    H118270   2.918   7.464   1.358
 6131TIP3    H218271   2.911   7.322   1.412
 6132TIP3   OH218272   2.390   7.174   2.822
 6132TIP3    H118273   2.417   7.160   2.915
 6132TIP3    H218274   2.326   7.103   2.808
 6133TIP3   OH218275   3.119   7.283   2.841
 6133TIP3    H118276   3.064   7.226   2.785
 6133TIP3    H218277   3.209   7.252   2.816
 6134TIP3   OH218278   3.380   7.804   2.425
 6134TIP3    H118279   3.283   7.805   2.437
 6134TIP3    H218280   3.408   7.857   2.503
 6135TIP3   OH218281   3.790   6.877   1.334
 6135TIP3    H118282   3.728   6.832   1.272
 6135TIP3    H218283   3.787   6.966   1.292
 6136TIP3   OH218284   4.008   7.735   2.414
 6136TIP3    H118285   3.910   7.730   2.406
 6136TIP3    H218286   4.034   7.705   2.324
 6137TIP3   OH218287   3.487   7.697   1.240
 6137TIP3    H118288   3.467   7.625   1.301
 6137TIP3    H218289   3.503   7.651   1.156
 6138TIP3   OH218290   3.486   7.327   2.081
 6138TIP3    H118291   3.392   7.301   2.093
 6138TIP3    H218292   3.521   7.247   2.036
 6139TIP3   OH218293   2.613   7.554   1.833
 6139TIP3    H118294   2.616   7.635   1.779
 6139TIP3    H218295   2.518   7.538   1.839
 6140TIP3   OH218296   2.176   6.858   1.534
 6140TIP3    H118297   2.223   6.942   1.555
 6140TIP3    H218298   2.100   6.864   1.596
 6141TIP3   OH218299   2.752   7.319   1.777
 6141TIP3    H118300   2.718   7.409   1.795
 6141TIP3    H218301   2.716   7.270   1.852
 6142TIP3   OH218302   2.882   7.897   2.302
 6142TIP3    H118303   2.923   7.970   2.251
 6142TIP3    H218304   2.959   7.863   2.350
 6143TIP3   OH218305   2.533   7.793   1.684
 6143TIP3    H118306   2.447   7.802   1.731
 6143TIP3    H218307   2.565   7.886   1.688
 6144TIP3   OH218308   3.271   7.532   2.260
 6144TIP3    H118309   3.262   7.529   2.358
 6144TIP3    H218310   3.352   7.480   2.246
 6145TIP3   OH218311   3.244   7.423   1.143
 6145TIP3    H118312   3.298   7.399   1.222
 6145TIP3    H218313   3.156   7.397   1.174
 6146TIP3   OH218314   3.519   8.067   2.311
 6146TIP3    H118315   3.440   8.010   2.302
 6146TIP3    H218316   3.504   8.131   2.238
 6147TIP3   OH218317   3.585   7.900   0.963
 6147TIP3    H118318   3.625   7.971   0.911
 6147TIP3    H218319   3.505   7.947   0.995
 6148TIP3   OH218320   2.608   6.677   2.831
 6148TIP3    H118321   2.512   6.675   2.845
 6148TIP3    H218322   2.638   6.615   2.900
 6149TIP3   OH218323   3.405   7.360   1.361
 6149TIP3    H118324   3.395   7.292   1.431
 6149TIP3    H218325   3.502   7.357   1.347
 6150TIP3   OH218326   2.319   7.761   2.462
 6150TIP3    H118327   2.373   7.686   2.491
 6150TIP3    H218328   2.353   7.831   2.520
 6151TIP3   OH218329   2.610   7.406   1.142
 6151TIP3    H118330   2.626   7.315   1.112
 6151TIP3    H218331   2.592   7.392   1.237
 6152TIP3   OH218332   2.556   7.410   1.416
 6152TIP3    H118333   2.630   7.383   1.472
 6152TIP3    H218334   2.561   7.508   1.422
 6153TIP3   OH218335   2.293   7.104   1.617
 6153TIP3    H118336   2.227   7.149   1.674
 6153TIP3    H218337   2.308   7.173   1.550
 6154TIP3   OH218338   3.440   6.741   2.510
 6154TIP3    H118339   3.520   6.780   2.548
 6154TIP3    H218340   3.428   6.660   2.564
 6155TIP3   OH218341   3.320   6.493   1.674
 6155TIP3    H118342   3.308   6.516   1.580
 6155TIP3    H218343   3.360   6.575   1.710
 6156TIP3   OH218344   2.822   7.607   1.364
 6156TIP3    H118345   2.735   7.636   1.399
 6156TIP3    H218346   2.840   7.678   1.301
 6157TIP3   OH218347   3.010   6.671   1.777
 6157TIP3    H118348   3.075   6.742   1.758
 6157TIP3    H218349   3.016   6.664   1.874
 6158TIP3   OH218350   3.280   6.990   2.587
 6158TIP3    H118351   3.302   7.044   2.666
 6158TIP3    H218352   3.337   6.912   2.599
 6159TIP3   OH218353   3.156   6.399   1.879
 6159TIP3    H118354   3.153   6.474   1.941
 6159TIP3    H218355   3.216   6.435   1.810
 6160TIP3   OH218356   2.564   7.683   1.430
 6160TIP3    H118357   2.535   7.753   1.368
 6160TIP3    H218358   2.550   7.727   1.517
 6161TIP3   OH218359   2.666   6.396   1.669
 6161TIP3    H118360   2.665   6.487   1.705
 6161TIP3    H218361   2.762   6.377   1.677
 6162TIP3   OH218362   3.920   6.891   2.565
 6162TIP3    H118363   3.822   6.888   2.572
 6162TIP3    H218364   3.933   6.851   2.478
 6163TIP3   OH218365   3.571   7.086   1.954
 6163TIP3    H118366   3.496   7.024   1.966
 6163TIP3    H218367   3.644   7.039   2.001
 6164TIP3   OH218368   2.283   7.315   1.423
 6164TIP3    H118369   2.350   7.385   1.433
 6164TIP3    H218370   2.329   7.260   1.356
 6165TIP3   OH218371   2.227   6.588   1.559
 6165TIP3    H118372   2.227   6.686   1.553
 6165TIP3    H218373   2.148   6.565   1.510
 6166TIP3   OH218374   3.539   8.039   1.904
 6166TIP3    H118375   3.497   8.087   1.828
 6166TIP3    H218376   3.634   8.058   1.883
 6167TIP3   OH218377   2.613   6.310   2.432
 6167TIP3    H118378   2.585   6.276   2.345
 6167TIP3    H218379   2.605   6.230   2.489
 6168TIP3   OH218380   2.157   7.528   1.813
 6168TIP3    H118381   2.081   7.559   1.865
 6168TIP3    H218382   2.135   7.566   1.725
 6169TIP3   OH218383   2.311   8.068   2.884
 6169TIP3    H118384   2.398   8.068   2.930
 6169TIP3    H218385   2.292   7.973   2.881
 6170TIP3   OH218386   2.792   8.035   2.928
 6170TIP3    H118387   2.887   8.017   2.936
 6170TIP3    H218388   2.769   7.976   2.852
 6171TIP3   OH218389   2.775   7.610   1.056
 6171TIP3    H118390   2.719   7.537   1.094
 6171TIP3    H218391   2.851   7.558   1.023
 6172TIP3   OH218392   3.431   7.940   2.661
 6172TIP3    H118393   3.423   7.870   2.729
 6172TIP3    H218394   3.510   7.989   2.691
 6173TIP3   OH218395   3.210   7.651   0.966
 6173TIP3    H118396   3.257   7.589   1.024
 6173TIP3    H218397   3.267   7.651   0.886
 6174TIP3   OH218398   2.441   7.474   3.084
 6174TIP3    H118399   2.458   7.378   3.086
 6174TIP3    H218400   2.354   7.477   3.039
 6175TIP3   OH218401   2.418   7.127   1.276
 6175TIP3    H118402   2.474   7.093   1.348
 6175TIP3    H218403   2.485   7.131   1.204
 6176TIP3   OH218404   3.048   7.558   2.857
 6176TIP3    H118405   3.011   7.575   2.769
 6176TIP3    H218406   3.082   7.466   2.849
 6177TIP3   OH218407   2.925   7.324   1.083
 6177TIP3    H118408   2.931   7.337   1.179
 6177TIP3    H218409   2.927   7.226   1.077
 6178TIP3   OH218410   3.541   7.568   2.461
 6178TIP3    H118411   3.617   7.611   2.418
 6178TIP3    H218412   3.472   7.635   2.447
 6179TIP3   OH218413   2.560   7.204   3.065
 6179TIP3    H118414   2.640   7.157   3.039
 6179TIP3    H218415   2.586   7.240   3.152
 6180TIP3   OH218416   2.627   7.029   1.498
 6180TIP3    H118417   2.603   6.985   1.581
 6180TIP3    H218418   2.664   6.955   1.446
 6181TIP3   OH218419   2.892   7.090   2.722
 6181TIP3    H118420   2.819   7.155   2.727
 6181TIP3    H218421   2.945   7.125   2.647
 6182TIP3   OH218422   2.727   6.822   1.340
 6182TIP3    H118423   2.701   6.825   1.245
 6182TIP3    H218424   2.825   6.828   1.332
 6183TIP3   OH218425   3.413   7.495   2.861
 6183TIP3    H118426   3.494   7.473   2.813
 6183TIP3    H218427   3.413   7.428   2.931
 6184TIP3   OH218428   3.549   7.154   1.001
 6184TIP3    H118429   3.529   7.108   0.918
 6184TIP3    H218430   3.518   7.245   0.977
 6185TIP3   OH218431   3.015   6.881   2.856
 6185TIP3    H118432   3.021   6.801   2.799
 6185TIP3    H218433   2.975   6.946   2.795
 6186TIP3   OH218434   3.021   6.668   2.661
 6186TIP3    H118435   3.051   6.709   2.577
 6186TIP3    H218436   2.928   6.645   2.640
 6187TIP3   OH218437   3.049   7.203   2.534
 6187TIP3    H118438   3.133   7.209   2.487
 6187TIP3    H218439   2.995   7.271   2.489
 6188TIP3   OH218440   3.627   7.172   2.910
 6188TIP3    H118441   3.673   7.096   2.951
 6188TIP3    H218442   3.702   7.225   2.879
 6189TIP3   OH218443   3.673   7.424   2.649
 6189TIP3    H118444   3.615   7.478   2.589
 6189TIP3    H218445   3.761   7.444   2.609
 6190TIP3   OH218446   2.892   6.997   3.083
 6190TIP3    H118447   2.826   6.926   3.095
 6190TIP3    H218448   2.931   6.972   2.997
 6191TIP3   OH218449   3.154   6.432   2.725
 6191TIP3    H118450   3.106   6.515   2.703
 6191TIP3    H218451   3.085   6.364   2.714
 6192TIP3   OH218452   3.281   6.939   2.943
 6192TIP3    H118453   3.278   6.925   3.039
 6192TIP3    H218454   3.190   6.911   2.919
 6193TIP3   OH218455   3.518   6.883   2.795
 6193TIP3    H118456   3.446   6.886   2.860
 6193TIP3    H218457   3.595   6.855   2.850
 6194TIP3   OH218458   3.747   6.821   2.941
 6194TIP3    H118459   3.760   6.728   2.968
 6194TIP3    H218460   3.741   6.869   3.027
 6195TIP3   OH218461   2.734   6.775   3.137
 6195TIP3    H118462   2.744   6.686   3.099
 6195TIP3    H218463   2.773   6.762   3.226
 6196TIP3   OH218464   3.246   6.441   2.984
 6196TIP3    H118465   3.316   6.373   2.979
 6196TIP3    H218466   3.209   6.434   2.893
 6197TIP3   OH218467   3.313   6.655   3.144
 6197TIP3    H118468   3.292   6.584   3.080
 6197TIP3    H218469   3.236   6.715   3.135
 6198TIP3   OH218470   2.534   7.886   1.244
 6198TIP3    H118471   2.630   7.881   1.226
 6198TIP3    H218472   2.506   7.935   1.164
 6199TIP3   OH218473   2.015   7.267   1.461
 6199TIP3    H118474   2.110   7.289   1.446
 6199TIP3    H218475   2.010   7.178   1.419
 6200TIP3   OH218476   1.928   7.881   1.872
 6200TIP3    H118477   1.861   7.818   1.837
 6200TIP3    H218478   1.973   7.824   1.938
 6201TIP3   OH218479   2.064   7.734   2.059
 6201TIP3    H118480   2.053   7.658   2.119
 6201TIP3    H218481   2.117   7.794   2.115
 6202TIP3   OH218482   3.791   8.133   1.859
 6202TIP3    H118483   3.820   8.166   1.946
 6202TIP3    H218484   3.854   8.175   1.799
 6203TIP3   OH218485   3.822   8.152   2.142
 6203TIP3    H118486   3.779   8.064   2.137
 6203TIP3    H218487   3.898   8.130   2.197
 6204TIP3   OH218488   3.867   7.829   2.714
 6204TIP3    H118489   3.795   7.837   2.779
 6204TIP3    H218490   3.909   7.917   2.719
 6205TIP3   OH218491   3.684   7.342   1.335
 6205TIP3    H118492   3.752   7.405   1.306
 6205TIP3    H218493   3.727   7.303   1.414
 6206TIP3   OH218494   3.811   7.210   1.538
 6206TIP3    H118495   3.747   7.167   1.598
 6206TIP3    H218496   3.878   7.247   1.600
 6207TIP3   OH218497   3.864   7.599   1.969
 6207TIP3    H118498   3.919   7.535   1.920
 6207TIP3    H218499   3.859   7.675   1.907
 6208TIP3   OH218500   3.698   7.901   2.166
 6208TIP3    H118501   3.627   7.943   2.217
 6208TIP3    H218502   3.649   7.853   2.096
 6209TIP3   OH218503   3.750   7.116   1.186
 6209TIP3    H118504   3.679   7.119   1.118
 6209TIP3    H218505   3.723   7.192   1.241
 6210TIP3   OH218506   3.620   6.790   1.141
 6210TIP3    H118507   3.580   6.829   1.063
 6210TIP3    H218508   3.595   6.696   1.130
 6211TIP3   OH218509   3.625   7.065   1.685
 6211TIP3    H118510   3.635   6.968   1.680
 6211TIP3    H218511   3.613   7.080   1.781
 6212TIP3   OH218512   2.253   7.136   2.433
 6212TIP3    H118513   2.252   7.108   2.339
 6212TIP3    H218514   2.350   7.140   2.449
 6213TIP3   OH218515   3.915   7.490   2.541
 6213TIP3    H118516   3.988   7.424   2.533
 6213TIP3    H218517   3.944   7.559   2.480
 6214TIP3   OH218518   4.101   7.297   2.560
 6214TIP3    H118519   4.027   7.245   2.599
 6214TIP3    H218520   4.174   7.233   2.574
 6215TIP3   OH218521   3.565   6.524   1.126
 6215TIP3    H118522   3.641   6.494   1.179
 6215TIP3    H218523   3.493   6.464   1.152
 6216TIP3   OH218524   3.622   6.781   1.580
 6216TIP3    H118525   3.663   6.692   1.596
 6216TIP3    H218526   3.681   6.814   1.510
 6217TIP3   OH218527   3.784   6.957   2.074
 6217TIP3    H118528   3.870   6.982   2.034
 6217TIP3    H218529   3.798   6.993   2.164
 6218TIP3   OH218530   3.852   7.099   2.307
 6218TIP3    H118531   3.775   7.133   2.356
 6218TIP3    H218532   3.885   7.179   2.262
 6219TIP3   OH218533   2.467   6.824   3.100
 6219TIP3    H118534   2.565   6.820   3.103
 6219TIP3    H218535   2.445   6.739   3.144
 6220TIP3   OH218536   4.304   6.689   2.863
 6220TIP3    H118537   4.363   6.624   2.820
 6220TIP3    H218538   4.277   6.745   2.787
 6221TIP3   OH218539   3.731   6.531   1.618
 6221TIP3    H118540   3.780   6.515   1.701
 6221TIP3    H218541   3.671   6.453   1.617
 6222TIP3   OH218542   2.430   6.518   2.444
 6222TIP3    H118543   2.492   6.443   2.450
 6222TIP3    H218544   2.492   6.592   2.433
 6223TIP3   OH218545   2.234   6.792   2.510
 6223TIP3    H118546   2.283   6.782   2.426
 6223TIP3    H218547   2.263   6.879   2.538
 6224TIP3   OH218548   4.177   6.831   2.669
 6224TIP3    H118549   4.091   6.870   2.694
 6224TIP3    H218550   4.147   6.759   2.610
 6225TIP3   OH218551   3.813   6.467   1.249
 6225TIP3    H118552   3.854   6.394   1.198
 6225TIP3    H218553   3.880   6.537   1.244
 6226TIP3   OH218554   2.216   6.300   2.015
 6226TIP3    H118555   2.121   6.294   2.034
 6226TIP3    H218556   2.217   6.355   1.934
 6227TIP3   OH218557   3.375   7.998   1.517
 6227TIP3    H118558   3.426   7.983   1.434
 6227TIP3    H218559   3.431   8.064   1.562
 6228TIP3   OH218560   2.439   6.379   2.828
 6228TIP3    H118561   2.386   6.370   2.909
 6228TIP3    H218562   2.373   6.412   2.765
 6229TIP3   OH218563   2.477   7.801   2.902
 6229TIP3    H118564   2.385   7.773   2.886
 6229TIP3    H218565   2.487   7.785   2.997
 6230TIP3   OH218566   2.654   7.833   2.450
 6230TIP3    H118567   2.608   7.910   2.410
 6230TIP3    H218568   2.741   7.846   2.406
 6231TIP3   OH218569   3.101   8.080   2.588
 6231TIP3    H118570   3.144   8.080   2.677
 6231TIP3    H218571   3.168   8.130   2.536
 6232TIP3   OH218572   3.280   8.230   2.446
 6232TIP3    H118573   3.351   8.180   2.404
 6232TIP3    H218574   3.332   8.287   2.507
 6233TIP3   OH218575   4.074   6.593   2.546
 6233TIP3    H118576   3.983   6.587   2.514
 6233TIP3    H218577   4.105   6.500   2.535
 6234TIP3   OH218578   2.331   8.090   2.473
 6234TIP3    H118579   2.243   8.125   2.450
 6234TIP3    H218580   2.343   8.128   2.561
 6235TIP3   OH218581   2.568   8.069   2.331
 6235TIP3    H118582   2.482   8.082   2.375
 6235TIP3    H218583   2.550   8.103   2.241
 6236TIP3   OH218584   2.994   8.099   2.129
 6236TIP3    H118585   2.926   8.120   2.062
 6236TIP3    H218586   3.007   8.186   2.172
 6237TIP3   OH218587   3.263   8.038   2.181
 6237TIP3    H118588   3.169   8.056   2.160
 6237TIP3    H218589   3.307   8.114   2.138
 6238TIP3   OH218590   3.470   8.230   2.096
 6238TIP3    H118591   3.457   8.315   2.048
 6238TIP3    H218592   3.497   8.170   2.023
 6239TIP3   OH218593   2.243   7.884   2.219
 6239TIP3    H118594   2.270   7.860   2.310
 6239TIP3    H218595   2.315   7.841   2.168
 6240TIP3   OH218596   2.436   7.756   2.075
 6240TIP3    H118597   2.454   7.672   2.123
 6240TIP3    H218598   2.527   7.794   2.070
 6241TIP3   OH218599   2.702   7.852   2.078
 6241TIP3    H118600   2.735   7.761   2.064
 6241TIP3    H218601   2.747   7.873   2.162
 6242TIP3   OH218602   3.276   6.507   2.161
 6242TIP3    H118603   3.235   6.437   2.216
 6242TIP3    H218604   3.352   6.460   2.120
 6243TIP3   OH218605   3.803   6.386   2.070
 6243TIP3    H118606   3.840   6.439   1.996
 6243TIP3    H218607   3.708   6.407   2.064
 6244TIP3   OH218608   3.897   6.489   1.835
 6244TIP3    H118609   3.971   6.437   1.795
 6244TIP3    H218610   3.931   6.580   1.820
 6245TIP3   OH218611   2.528   6.217   2.183
 6245TIP3    H118612   2.436   6.184   2.183
 6245TIP3    H218613   2.577   6.132   2.180
 6246TIP3   OH218614   2.315   6.085   1.830
 6246TIP3    H118615   2.346   6.141   1.756
 6246TIP3    H218616   2.286   6.151   1.895
 6247TIP3   OH218617   2.970   6.250   2.063
 6247TIP3    H118618   3.028   6.299   2.003
 6247TIP3    H218619   2.997   6.286   2.149
 6248TIP3   OH218620   3.517   6.396   2.047
 6248TIP3    H118621   3.518   6.359   1.958
 6248TIP3    H218622   3.504   6.314   2.102
 6249TIP3   OH218623   3.548   6.317   1.608
 6249TIP3    H118624   3.461   6.359   1.619
 6249TIP3    H218625   3.534   6.232   1.655
 6250TIP3   OH218626   2.031   7.655   1.611
 6250TIP3    H118627   1.946   7.622   1.576
 6250TIP3    H218628   2.021   7.749   1.591
 6251TIP3   OH218629   2.431   6.244   1.595
 6251TIP3    H118630   2.479   6.183   1.537
 6251TIP3    H218631   2.504   6.299   1.630
 6252TIP3   OH218632   2.944   6.420   1.692
 6252TIP3    H118633   3.005   6.374   1.752
 6252TIP3    H218634   2.965   6.513   1.717
 6253TIP3   OH218635   2.803   7.847   1.191
 6253TIP3    H118636   2.892   7.868   1.156
 6253TIP3    H218637   2.781   7.771   1.132
 6254TIP3   OH218638   3.520   7.963   1.284
 6254TIP3    H118639   3.512   7.866   1.271
 6254TIP3    H218640   3.478   7.996   1.203
 6255TIP3   OH218641   2.735   6.497   3.073
 6255TIP3    H118642   2.703   6.425   3.130
 6255TIP3    H218643   2.830   6.498   3.098
 6256TIP3   OH218644   2.983   6.496   3.192
 6256TIP3    H118645   3.070   6.475   3.152
 6256TIP3    H218646   2.975   6.424   3.258
 6257TIP3   OH218647   2.109   7.685   1.250
 6257TIP3    H118648   2.109   7.707   1.344
 6257TIP3    H218649   2.197   7.641   1.237
 6258TIP3   OH218650   3.808   6.552   2.980
 6258TIP3    H118651   3.827   6.523   3.072
 6258TIP3    H218652   3.897   6.549   2.940
 6259TIP3   OH218653   3.749   8.109   2.473
 6259TIP3    H118654   3.670   8.077   2.424
 6259TIP3    H218655   3.730   8.205   2.475
 6260TIP3   OH218656   5.016   7.481   1.237
 6260TIP3    H118657   4.987   7.573   1.218
 6260TIP3    H218658   4.937   7.432   1.207
 6261TIP3   OH218659   5.010   7.481   1.621
 6261TIP3    H118660   5.046   7.452   1.708
 6261TIP3    H218661   4.973   7.398   1.587
 6262TIP3   OH218662   4.313   7.377   1.986
 6262TIP3    H118663   4.344   7.309   2.049
 6262TIP3    H218664   4.393   7.430   1.976
 6263TIP3   OH218665   5.256   7.783   1.300
 6263TIP3    H118666   5.244   7.712   1.364
 6263TIP3    H218667   5.286   7.856   1.356
 6264TIP3   OH218668   4.284   7.784   1.711
 6264TIP3    H118669   4.276   7.687   1.713
 6264TIP3    H218670   4.381   7.793   1.704
 6265TIP3   OH218671   3.991   6.988   1.496
 6265TIP3    H118672   3.943   7.072   1.509
 6265TIP3    H218673   3.920   6.934   1.457
 6266TIP3   OH218674   4.050   7.275   1.665
 6266TIP3    H118675   4.099   7.199   1.702
 6266TIP3    H218676   4.111   7.306   1.596
 6267TIP3   OH218677   4.907   8.245   1.317
 6267TIP3    H118678   4.953   8.173   1.268
 6267TIP3    H218679   4.899   8.206   1.405
 6268TIP3   OH218680   4.813   7.706   1.668
 6268TIP3    H118681   4.851   7.628   1.624
 6268TIP3    H218682   4.897   7.751   1.691
 6269TIP3   OH218683   5.832   7.028   1.670
 6269TIP3    H118684   5.849   7.109   1.722
 6269TIP3    H218685   5.839   7.061   1.579
 6270TIP3   OH218686   5.222   7.215   1.698
 6270TIP3    H118687   5.262   7.129   1.723
 6270TIP3    H218688   5.193   7.194   1.607
 6271TIP3   OH218689   4.560   6.867   1.667
 6271TIP3    H118690   4.542   6.940   1.604
 6271TIP3    H218691   4.513   6.794   1.621
 6272TIP3   OH218692   5.258   6.957   1.290
 6272TIP3    H118693   5.329   6.940   1.357
 6272TIP3    H218694   5.312   6.993   1.217
 6273TIP3   OH218695   4.196   7.069   1.772
 6273TIP3    H118696   4.279   7.050   1.820
 6273TIP3    H218697   4.209   7.014   1.692
 6274TIP3   OH218698   4.638   7.267   1.565
 6274TIP3    H118699   4.732   7.241   1.578
 6274TIP3    H218700   4.599   7.183   1.533
 6275TIP3   OH218701   5.896   7.238   1.838
 6275TIP3    H118702   5.812   7.283   1.812
 6275TIP3    H218703   5.865   7.205   1.924
 6276TIP3   OH218704   4.559   6.850   2.099
 6276TIP3    H118705   4.499   6.887   2.032
 6276TIP3    H218706   4.508   6.868   2.181
 6277TIP3   OH218707   4.911   7.706   1.105
 6277TIP3    H118708   4.863   7.681   1.025
 6277TIP3    H218709   4.864   7.787   1.131
 6278TIP3   OH218710   4.666   7.625   1.895
 6278TIP3    H118711   4.603   7.691   1.933
 6278TIP3    H218712   4.708   7.677   1.824
 6279TIP3   OH218713   5.469   6.957   1.466
 6279TIP3    H118714   5.453   6.920   1.554
 6279TIP3    H218715   5.520   7.037   1.489
 6280TIP3   OH218716   4.429   6.966   1.885
 6280TIP3    H118717   4.492   7.038   1.908
 6280TIP3    H218718   4.478   6.925   1.810
 6281TIP3   OH218719   4.493   7.819   1.993
 6281TIP3    H118720   4.467   7.904   1.953
 6281TIP3    H218721   4.414   7.803   2.050
 6282TIP3   OH218722   3.888   7.509   1.229
 6282TIP3    H118723   3.849   7.536   1.144
 6282TIP3    H218724   3.920   7.594   1.265
 6283TIP3   OH218725   5.328   8.025   1.469
 6283TIP3    H118726   5.238   8.016   1.508
 6283TIP3    H218727   5.319   8.111   1.424
 6284TIP3   OH218728   5.611   6.900   1.798
 6284TIP3    H118729   5.574   6.974   1.850
 6284TIP3    H218730   5.683   6.945   1.750
 6285TIP3   OH218731   4.916   6.570   1.812
 6285TIP3    H118732   4.904   6.475   1.831
 6285TIP3    H218733   4.839   6.607   1.859
 6286TIP3   OH218734   5.031   8.072   1.141
 6286TIP3    H118735   5.082   7.990   1.123
 6286TIP3    H218736   5.093   8.137   1.101
 6287TIP3   OH218737   5.176   7.856   1.045
 6287TIP3    H118738   5.125   7.780   1.015
 6287TIP3    H218739   5.211   7.823   1.131
 6288TIP3   OH218740   5.554   7.939   1.812
 6288TIP3    H118741   5.543   7.860   1.755
 6288TIP3    H218742   5.538   8.012   1.749
 6289TIP3   OH218743   4.844   7.332   1.069
 6289TIP3    H118744   4.764   7.383   1.046
 6289TIP3    H218745   4.891   7.328   0.984
 6290TIP3   OH218746   4.803   7.117   0.786
 6290TIP3    H118747   4.871   7.165   0.836
 6290TIP3    H218748   4.860   7.053   0.738
 6291TIP3   OH218749   5.754   7.584   1.656
 6291TIP3    H118750   5.667   7.631   1.663
 6291TIP3    H218751   5.778   7.605   1.563
 6292TIP3   OH218752   5.194   7.415   1.042
 6292TIP3    H118753   5.139   7.439   1.119
 6292TIP3    H218754   5.277   7.388   1.087
 6293TIP3   OH218755   5.441   7.471   1.940
 6293TIP3    H118756   5.425   7.546   2.000
 6293TIP3    H218757   5.353   7.457   1.903
 6294TIP3   OH218758   4.426   7.413   1.458
 6294TIP3    H118759   4.384   7.355   1.391
 6294TIP3    H218760   4.502   7.359   1.487
 6295TIP3   OH218761   4.555   7.823   1.607
 6295TIP3    H118762   4.534   7.781   1.522
 6295TIP3    H218763   4.645   7.790   1.625
 6296TIP3   OH218764   4.560   7.384   1.811
 6296TIP3    H118765   4.595   7.362   1.723
 6296TIP3    H218766   4.605   7.469   1.832
 6297TIP3   OH218767   5.086   8.022   1.589
 6297TIP3    H118768   5.074   8.100   1.645
 6297TIP3    H218769   5.073   7.947   1.651
 6298TIP3   OH218770   4.699   7.942   2.135
 6298TIP3    H118771   4.639   8.003   2.182
 6298TIP3    H218772   4.634   7.887   2.086
 6299TIP3   OH218773   5.033   7.272   0.871
 6299TIP3    H118774   5.093   7.332   0.921
 6299TIP3    H218775   5.055   7.297   0.778
 6300TIP3   OH218776   4.453   7.498   2.236
 6300TIP3    H118777   4.457   7.585   2.282
 6300TIP3    H218778   4.358   7.478   2.244
 6301TIP3   OH218779   4.776   7.952   1.148
 6301TIP3    H118780   4.853   8.009   1.162
 6301TIP3    H218781   4.716   8.009   1.099
 6302TIP3   OH218782   4.493   8.111   2.223
 6302TIP3    H118783   4.459   8.108   2.131
 6302TIP3    H218784   4.414   8.088   2.276
 6303TIP3   OH218785   5.550   6.513   0.916
 6303TIP3    H118786   5.468   6.534   0.965
 6303TIP3    H218787   5.563   6.596   0.865
 6304TIP3   OH218788   4.291   7.255   1.264
 6304TIP3    H118789   4.226   7.300   1.205
 6304TIP3    H218790   4.251   7.169   1.275
 6305TIP3   OH218791   4.072   7.639   2.170
 6305TIP3    H118792   4.009   7.615   2.099
 6305TIP3    H218793   4.110   7.552   2.195
 6306TIP3   OH218794   3.927   7.831   1.804
 6306TIP3    H118795   4.022   7.824   1.792
 6306TIP3    H218796   3.919   7.911   1.858
 6307TIP3   OH218797   5.791   8.282   1.857
 6307TIP3    H118798   5.791   8.185   1.870
 6307TIP3    H218799   5.708   8.306   1.903
 6308TIP3   OH218800   4.897   8.070   1.993
 6308TIP3    H118801   4.896   8.162   2.026
 6308TIP3    H218802   4.826   8.030   2.047
 6309TIP3   OH218803   4.658   8.198   0.942
 6309TIP3    H118804   4.614   8.177   0.857
 6309TIP3    H218805   4.624   8.287   0.962
 6310TIP3   OH218806   4.094   8.048   1.329
 6310TIP3    H118807   4.144   8.038   1.413
 6310TIP3    H218808   4.038   7.969   1.332
 6311TIP3   OH218809   4.854   8.096   0.603
 6311TIP3    H118810   4.912   8.033   0.560
 6311TIP3    H218811   4.891   8.103   0.693
 6312TIP3   OH218812   4.913   8.146   0.866
 6312TIP3    H118813   4.820   8.154   0.900
 6312TIP3    H218814   4.956   8.103   0.942
 6313TIP3   OH218815   5.672   7.415   2.127
 6313TIP3    H118816   5.593   7.426   2.072
 6313TIP3    H218817   5.682   7.317   2.120
 6314TIP3   OH218818   4.277   7.823   2.160
 6314TIP3    H118819   4.328   7.804   2.242
 6314TIP3    H218820   4.204   7.758   2.167
 6315TIP3   OH218821   4.677   6.645   1.942
 6315TIP3    H118822   4.587   6.615   1.916
 6315TIP3    H218823   4.654   6.728   1.987
 6316TIP3   OH218824   5.209   6.758   2.134
 6316TIP3    H118825   5.279   6.736   2.199
 6316TIP3    H218826   5.127   6.740   2.183
 6317TIP3   OH218827   5.096   7.321   0.615
 6317TIP3    H118828   5.072   7.284   0.527
 6317TIP3    H218829   5.183   7.361   0.595
 6318TIP3   OH218830   4.820   6.696   0.913
 6318TIP3    H118831   4.790   6.693   1.005
 6318TIP3    H218832   4.784   6.611   0.880
 6319TIP3   OH218833   4.607   7.161   1.960
 6319TIP3    H118834   4.559   7.184   2.042
 6319TIP3    H218835   4.592   7.242   1.906
 6320TIP3   OH218836   4.492   7.047   1.475
 6320TIP3    H118837   4.400   7.021   1.492
 6320TIP3    H218838   4.506   7.006   1.386
 6321TIP3   OH218839   4.983   7.133   1.201
 6321TIP3    H118840   4.930   7.204   1.160
 6321TIP3    H218841   5.037   7.102   1.126
 6322TIP3   OH218842   5.156   7.415   2.292
 6322TIP3    H118843   5.136   7.339   2.352
 6322TIP3    H218844   5.252   7.421   2.303
 6323TIP3   OH218845   5.139   7.162   1.440
 6323TIP3    H118846   5.080   7.188   1.367
 6323TIP3    H218847   5.174   7.079   1.402
 6324TIP3   OH218848   4.426   7.191   2.170
 6324TIP3    H118849   4.459   7.253   2.237
 6324TIP3    H218850   4.417   7.108   2.222
 6325TIP3   OH218851   4.476   6.666   0.879
 6325TIP3    H118852   4.470   6.665   0.977
 6325TIP3    H218853   4.398   6.720   0.856
 6326TIP3   OH218854   4.021   6.712   1.750
 6326TIP3    H118855   4.096   6.744   1.804
 6326TIP3    H218856   4.063   6.680   1.669
 6327TIP3   OH218857   3.994   6.693   1.269
 6327TIP3    H118858   4.040   6.731   1.192
 6327TIP3    H218859   3.934   6.767   1.291
 6328TIP3   OH218860   5.144   7.409   1.866
 6328TIP3    H118861   5.182   7.339   1.807
 6328TIP3    H218862   5.124   7.355   1.945
 6329TIP3   OH218863   4.817   6.871   1.536
 6329TIP3    H118864   4.737   6.869   1.592
 6329TIP3    H218865   4.888   6.867   1.601
 6330TIP3   OH218866   4.254   6.924   1.545
 6330TIP3    H118867   4.159   6.931   1.518
 6330TIP3    H218868   4.278   6.833   1.521
 6331TIP3   OH218869   4.524   6.921   1.233
 6331TIP3    H118870   4.619   6.936   1.213
 6331TIP3    H218871   4.479   6.945   1.148
 6332TIP3   OH218872   5.288   6.953   1.727
 6332TIP3    H118873   5.275   6.959   1.824
 6332TIP3    H218874   5.229   6.881   1.702
 6333TIP3   OH218875   4.363   6.954   1.011
 6333TIP3    H118876   4.292   6.910   0.962
 6333TIP3    H218877   4.416   6.991   0.938
 6334TIP3   OH218878   5.480   8.635   1.956
 6334TIP3    H118879   5.480   8.655   1.861
 6334TIP3    H218880   5.561   8.681   1.986
 6335TIP3   OH218881   4.438   7.745   2.379
 6335TIP3    H118882   4.519   7.774   2.426
 6335TIP3    H218883   4.374   7.743   2.453
 6336TIP3   OH218884   4.903   7.196   1.632
 6336TIP3    H118885   4.978   7.159   1.582
 6336TIP3    H218886   4.916   7.156   1.720
 6337TIP3   OH218887   4.425   6.686   1.510
 6337TIP3    H118888   4.394   6.606   1.556
 6337TIP3    H218889   4.480   6.649   1.440
 6338TIP3   OH218890   4.880   7.091   1.928
 6338TIP3    H118891   4.793   7.131   1.940
 6338TIP3    H218892   4.940   7.151   1.976
 6339TIP3   OH218893   4.616   7.486   1.017
 6339TIP3    H118894   4.544   7.420   1.006
 6339TIP3    H218895   4.598   7.519   1.109
 6340TIP3   OH218896   5.517   7.723   1.648
 6340TIP3    H118897   5.539   7.771   1.565
 6340TIP3    H218898   5.432   7.679   1.625
 6341TIP3   OH218899   5.074   6.797   0.880
 6341TIP3    H118900   4.977   6.782   0.888
 6341TIP3    H218901   5.085   6.891   0.903
 6342TIP3   OH218902   5.015   7.803   2.014
 6342TIP3    H118903   5.040   7.778   2.104
 6342TIP3    H218904   4.977   7.892   2.025
 6343TIP3   OH218905   5.144   7.043   0.984
 6343TIP3    H118906   5.241   7.048   1.000
 6343TIP3    H218907   5.127   7.123   0.931
 6344TIP3   OH218908   4.307   7.505   1.695
 6344TIP3    H118909   4.346   7.478   1.609
 6344TIP3    H218910   4.351   7.444   1.756
 6345TIP3   OH218911   4.762   7.635   0.839
 6345TIP3    H118912   4.718   7.723   0.848
 6345TIP3    H218913   4.707   7.580   0.898
 6346TIP3   OH218914   4.187   7.430   2.308
 6346TIP3    H118915   4.211   7.415   2.402
 6346TIP3    H218916   4.121   7.360   2.293
 6347TIP3   OH218917   4.914   7.541   2.327
 6347TIP3    H118918   4.857   7.483   2.275
 6347TIP3    H218919   5.003   7.508   2.303
 6348TIP3   OH218920   5.176   8.067   1.909
 6348TIP3    H118921   5.080   8.061   1.922
 6348TIP3    H218922   5.203   8.117   1.989
 6349TIP3   OH218923   5.586   7.130   0.820
 6349TIP3    H118924   5.525   7.088   0.756
 6349TIP3    H218925   5.583   7.221   0.783
 6350TIP3   OH218926   5.805   7.994   1.900
 6350TIP3    H118927   5.707   7.986   1.894
 6350TIP3    H218928   5.830   7.962   1.810
 6351TIP3   OH218929   5.296   7.947   0.722
 6351TIP3    H118930   5.259   7.898   0.797
 6351TIP3    H218931   5.288   7.883   0.651
 6352TIP3   OH218932   5.282   7.585   1.564
 6352TIP3    H118933   5.190   7.557   1.579
 6352TIP3    H218934   5.318   7.504   1.523
 6353TIP3   OH218935   4.409   7.810   1.320
 6353TIP3    H118936   4.412   7.891   1.265
 6353TIP3    H218937   4.314   7.794   1.326
 6354TIP3   OH218938   3.972   7.115   1.021
 6354TIP3    H118939   4.019   7.198   1.041
 6354TIP3    H218940   3.896   7.121   1.082
 6355TIP3   OH218941   4.549   7.577   1.264
 6355TIP3    H118942   4.514   7.666   1.282
 6355TIP3    H218943   4.513   7.526   1.339
 6356TIP3   OH218944   4.678   8.155   1.789
 6356TIP3    H118945   4.719   8.226   1.738
 6356TIP3    H218946   4.755   8.119   1.837
 6357TIP3   OH218947   4.329   8.049   1.172
 6357TIP3    H118948   4.243   8.058   1.217
 6357TIP3    H218949   4.361   8.142   1.174
 6358TIP3   OH218950   5.069   7.789   1.746
 6358TIP3    H118951   5.059   7.786   1.844
 6358TIP3    H218952   5.147   7.734   1.733
 6359TIP3   OH218953   5.018   7.682   0.649
 6359TIP3    H118954   5.073   7.653   0.725
 6359TIP3    H218955   4.930   7.654   0.680
 6360TIP3   OH218956   5.315   8.325   1.800
 6360TIP3    H118957   5.238   8.265   1.793
 6360TIP3    H218958   5.299   8.387   1.726
 6361TIP3   OH218959   4.402   6.933   2.316
 6361TIP3    H118960   4.305   6.937   2.331
 6361TIP3    H218961   4.430   6.873   2.387
 6362TIP3   OH218962   5.200   7.612   0.846
 6362TIP3    H118963   5.190   7.548   0.919
 6362TIP3    H218964   5.297   7.612   0.835
 6363TIP3   OH218965   4.116   8.018   1.949
 6363TIP3    H118966   4.169   7.941   1.977
 6363TIP3    H218967   4.148   8.086   2.009
 6364TIP3   OH218968   4.405   7.662   0.629
 6364TIP3    H118969   4.421   7.571   0.597
 6364TIP3    H218970   4.386   7.647   0.724
 6365TIP3   OH218971   4.353   7.666   0.904
 6365TIP3    H118972   4.426   7.641   0.961
 6365TIP3    H218973   4.357   7.764   0.908
 6366TIP3   OH218974   4.089   7.360   1.104
 6366TIP3    H118975   4.023   7.405   1.161
 6366TIP3    H218976   4.105   7.429   1.037
 6367TIP3   OH218977   5.247   6.997   1.998
 6367TIP3    H118978   5.313   7.038   2.057
 6367TIP3    H218979   5.226   6.916   2.048
 6368TIP3   OH218980   5.117   6.749   1.161
 6368TIP3    H118981   5.105   6.773   1.067
 6368TIP3    H218982   5.157   6.831   1.198
 6369TIP3   OH218983   4.623   7.866   0.860
 6369TIP3    H118984   4.536   7.900   0.888
 6369TIP3    H218985   4.625   7.893   0.767
 6370TIP3   OH218986   4.806   6.928   1.263
 6370TIP3    H118987   4.872   6.999   1.246
 6370TIP3    H218988   4.812   6.919   1.361
 6371TIP3   OH218989   5.077   7.245   2.076
 6371TIP3    H118990   5.097   7.300   2.154
 6371TIP3    H218991   5.141   7.172   2.088
 6372TIP3   OH218992   4.951   6.655   1.365
 6372TIP3    H118993   4.952   6.727   1.430
 6372TIP3    H218994   5.012   6.691   1.297
 6373TIP3   OH218995   4.361   7.940   0.915
 6373TIP3    H118996   4.332   8.010   0.853
 6373TIP3    H218997   4.346   7.984   1.002
 6374TIP3   OH218998   4.463   6.653   1.156
 6374TIP3    H118999   4.461   6.744   1.192
 6374TIP3    H219000   4.559   6.634   1.164
 6375TIP3   OH219001   5.368   7.342   1.439
 6375TIP3    H119002   5.293   7.282   1.455
 6375TIP3    H219003   5.440   7.296   1.487
 6376TIP3   OH219004   4.079   7.570   0.910
 6376TIP3    H119005   4.145   7.642   0.919
 6376TIP3    H219006   4.125   7.516   0.842
 6377TIP3   OH219007   4.024   6.845   1.044
 6377TIP3    H119008   4.025   6.943   1.039
 6377TIP3    H219009   3.941   6.824   1.001
 6378TIP3   OH219010   5.335   8.297   1.391
 6378TIP3    H119011   5.293   8.344   1.315
 6378TIP3    H219012   5.429   8.316   1.370
 6379TIP3   OH219013   4.411   6.566   1.918
 6379TIP3    H119014   4.381   6.532   1.831
 6379TIP3    H219015   4.401   6.487   1.975
 6380TIP3   OH219016   3.953   7.784   1.300
 6380TIP3    H119017   3.878   7.816   1.352
 6380TIP3    H219018   3.931   7.823   1.212
 6381TIP3   OH219019   4.106   8.324   2.371
 6381TIP3    H119020   4.194   8.323   2.416
 6381TIP3    H219021   4.086   8.229   2.367
 6382TIP3   OH219022   4.591   8.291   2.413
 6382TIP3    H119023   4.685   8.269   2.421
 6382TIP3    H219024   4.564   8.233   2.339
 6383TIP3   OH219025   4.589   7.862   0.577
 6383TIP3    H119026   4.521   7.792   0.588
 6383TIP3    H219027   4.621   7.841   0.488
 6384TIP3   OH219028   5.226   8.198   2.148
 6384TIP3    H119029   5.218   8.126   2.215
 6384TIP3    H219030   5.306   8.245   2.178
 6385TIP3   OH219031   4.238   7.732   2.570
 6385TIP3    H119032   4.255   7.636   2.575
 6385TIP3    H219033   4.150   7.733   2.526
 6386TIP3   OH219034   4.215   7.383   0.760
 6386TIP3    H119035   4.271   7.350   0.832
 6386TIP3    H219036   4.283   7.391   0.690
 6387TIP3   OH219037   4.845   7.816   2.343
 6387TIP3    H119038   4.805   7.831   2.255
 6387TIP3    H219039   4.877   7.723   2.337
 6388TIP3   OH219040   4.726   7.569   0.571
 6388TIP3    H119041   4.721   7.589   0.666
 6388TIP3    H219042   4.720   7.471   0.571
 6389TIP3   OH219043   5.338   7.826   1.950
 6389TIP3    H119044   5.414   7.869   1.905
 6389TIP3    H219045   5.267   7.890   1.934
 6390TIP3   OH219046   4.357   7.465   2.550
 6390TIP3    H119047   4.432   7.408   2.530
 6390TIP3    H219048   4.382   7.498   2.639
 6391TIP3   OH219049   4.425   7.286   0.986
 6391TIP3    H119050   4.398   7.243   1.069
 6391TIP3    H219051   4.460   7.211   0.934
 6392TIP3   OH219052   4.690   7.348   2.211
 6392TIP3    H119053   4.615   7.411   2.214
 6392TIP3    H219054   4.742   7.383   2.135
 6393TIP3   OH219055   4.523   7.078   0.828
 6393TIP3    H119056   4.496   7.080   0.734
 6393TIP3    H219057   4.621   7.085   0.819
 6394TIP3   OH219058   5.211   7.754   2.347
 6394TIP3    H119059   5.289   7.728   2.296
 6394TIP3    H219060   5.208   7.684   2.414
 6395TIP3   OH219061   5.340   7.421   0.528
 6395TIP3    H119062   5.373   7.397   0.439
 6395TIP3    H219063   5.314   7.514   0.513
 6396TIP3   OH219064   4.813   7.137   2.341
 6396TIP3    H119065   4.817   7.057   2.285
 6396TIP3    H219066   4.772   7.203   2.281
 6397TIP3   OH219067   4.818   6.924   2.147
 6397TIP3    H119068   4.847   6.966   2.064
 6397TIP3    H219069   4.724   6.902   2.127
 6398TIP3   OH219070   4.846   7.460   2.021
 6398TIP3    H119071   4.930   7.463   1.973
 6398TIP3    H219072   4.793   7.527   1.974
 6399TIP3   OH219073   5.433   7.426   2.404
 6399TIP3    H119074   5.475   7.339   2.398
 6399TIP3    H219075   5.499   7.482   2.363
 6400TIP3   OH219076   5.466   7.687   2.144
 6400TIP3    H119077   5.411   7.737   2.080
 6400TIP3    H219078   5.555   7.698   2.101
 6401TIP3   OH219079   4.692   7.252   2.569
 6401TIP3    H119080   4.624   7.183   2.583
 6401TIP3    H219081   4.728   7.226   2.482
 6402TIP3   OH219082   4.949   6.689   2.214
 6402TIP3    H119083   4.902   6.771   2.191
 6402TIP3    H219084   4.880   6.621   2.202
 6403TIP3   OH219085   5.074   7.198   2.433
 6403TIP3    H119086   5.064   7.183   2.529
 6403TIP3    H219087   4.985   7.170   2.402
 6404TIP3   OH219088   5.304   7.133   2.271
 6404TIP3    H119089   5.242   7.138   2.345
 6404TIP3    H219090   5.389   7.114   2.314
 6405TIP3   OH219091   5.545   7.087   2.439
 6405TIP3    H119092   5.556   6.991   2.454
 6405TIP3    H219093   5.544   7.123   2.530
 6406TIP3   OH219094   4.532   7.032   2.622
 6406TIP3    H119095   4.540   6.941   2.586
 6406TIP3    H219096   4.569   7.019   2.712
 6407TIP3   OH219097   5.044   6.697   2.471
 6407TIP3    H119098   5.113   6.628   2.465
 6407TIP3    H219099   5.005   6.692   2.382
 6408TIP3   OH219100   5.109   6.912   2.632
 6408TIP3    H119101   5.088   6.842   2.566
 6408TIP3    H219102   5.032   6.972   2.623
 6409TIP3   OH219103   4.329   8.145   0.728
 6409TIP3    H119104   4.424   8.142   0.708
 6409TIP3    H219105   4.295   8.181   0.644
 6410TIP3   OH219106   3.811   7.524   0.948
 6410TIP3    H119107   3.906   7.546   0.933
 6410TIP3    H219108   3.806   7.435   0.906
 6411TIP3   OH219109   3.724   8.136   1.360
 6411TIP3    H119110   3.658   8.073   1.324
 6411TIP3    H219111   3.769   8.079   1.426
 6412TIP3   OH219112   3.860   7.990   1.547
 6412TIP3    H119113   3.851   7.914   1.607
 6412TIP3    H219114   3.913   8.050   1.602
 6413TIP3   OH219115   5.586   8.392   1.346
 6413TIP3    H119116   5.617   8.423   1.433
 6413TIP3    H219117   5.652   8.429   1.286
 6414TIP3   OH219118   5.619   8.410   1.629
 6414TIP3    H119119   5.574   8.323   1.623
 6414TIP3    H219120   5.694   8.385   1.685
 6415TIP3   OH219121   5.664   8.086   2.200
 6415TIP3    H119122   5.591   8.093   2.265
 6415TIP3    H219123   5.705   8.175   2.207
 6416TIP3   OH219124   5.482   7.601   0.828
 6416TIP3    H119125   5.560   7.655   0.808
 6416TIP3    H219126   5.514   7.556   0.910
 6417TIP3   OH219127   5.606   7.466   1.027
 6417TIP3    H119128   5.542   7.421   1.086
 6417TIP3    H219129   5.672   7.502   1.089
 6418TIP3   OH219130   5.662   7.857   1.456
 6418TIP3    H119131   5.716   7.793   1.407
 6418TIP3    H219132   5.655   7.931   1.393
 6419TIP3   OH219133   5.495   8.159   1.651
 6419TIP3    H119134   5.422   8.197   1.704
 6419TIP3    H219135   5.445   8.109   1.582
 6420TIP3   OH219136   5.549   7.370   0.690
 6420TIP3    H119137   5.469   7.368   0.632
 6420TIP3    H219138   5.526   7.448   0.744
 6421TIP3   OH219139   5.418   7.054   0.615
 6421TIP3    H119140   5.361   7.073   0.539
 6421TIP3    H219141   5.394   6.960   0.630
 6422TIP3   OH219142   5.423   7.321   1.172
 6422TIP3    H119143   5.431   7.224   1.167
 6422TIP3    H219144   5.409   7.336   1.268
 6423TIP3   OH219145   4.049   7.396   1.918
 6423TIP3    H119146   4.048   7.366   1.825
 6423TIP3    H219147   4.146   7.398   1.935
 6424TIP3   OH219148   5.711   7.747   2.031
 6424TIP3    H119149   5.780   7.677   2.022
 6424TIP3    H219150   5.740   7.812   1.965
 6425TIP3   OH219151   5.895   7.551   2.048
 6425TIP3    H119152   5.819   7.498   2.080
 6425TIP3    H219153   5.967   7.486   2.063
 6426TIP3   OH219154   5.347   6.796   0.642
 6426TIP3    H119155   5.430   6.750   0.663
 6426TIP3    H219156   5.281   6.726   0.646
 6427TIP3   OH219157   5.419   7.037   1.067
 6427TIP3    H119158   5.458   6.948   1.083
 6427TIP3    H219159   5.478   7.068   0.996
 6428TIP3   OH219160   5.580   7.211   1.555
 6428TIP3    H119161   5.667   7.238   1.519
 6428TIP3    H219162   5.590   7.245   1.646
 6429TIP3   OH219163   5.647   7.356   1.780
 6429TIP3    H119164   5.575   7.382   1.842
 6429TIP3    H219165   5.678   7.443   1.749
 6430TIP3   OH219166   4.265   7.083   2.592
 6430TIP3    H119167   4.363   7.076   2.594
 6430TIP3    H219168   4.242   6.998   2.634
 6431TIP3   OH219169   6.107   6.950   2.350
 6431TIP3    H119170   6.159   6.882   2.302
 6431TIP3    H219171   6.070   7.003   2.275
 6432TIP3   OH219172   5.527   6.788   1.104
 6432TIP3    H119173   5.575   6.772   1.188
 6432TIP3    H219174   5.467   6.711   1.103
 6433TIP3   OH219175   4.227   6.774   1.925
 6433TIP3    H119176   4.289   6.700   1.934
 6433TIP3    H219177   4.289   6.849   1.918
 6434TIP3   OH219178   4.030   7.048   1.996
 6434TIP3    H119179   4.080   7.041   1.912
 6434TIP3    H219180   4.061   7.133   2.029
 6435TIP3   OH219181   5.976   7.090   2.161
 6435TIP3    H119182   5.886   7.128   2.172
 6435TIP3    H219183   5.950   7.018   2.100
 6436TIP3   OH219184   5.615   6.720   0.738
 6436TIP3    H119185   5.656   6.649   0.685
 6436TIP3    H219186   5.678   6.794   0.725
 6437TIP3   OH219187   4.013   6.551   1.498
 6437TIP3    H119188   3.920   6.549   1.523
 6437TIP3    H219189   4.012   6.610   1.419
 6438TIP3   OH219190   5.178   8.253   1.005
 6438TIP3    H119191   5.228   8.241   0.922
 6438TIP3    H219192   5.229   8.322   1.050
 6439TIP3   OH219193   4.233   6.631   2.312
 6439TIP3    H119194   4.183   6.627   2.395
 6439TIP3    H219195   4.166   6.669   2.252
 6440TIP3   OH219196   4.273   8.060   2.390
 6440TIP3    H119197   4.182   8.030   2.372
 6440TIP3    H219198   4.283   8.038   2.483
 6441TIP3   OH219199   4.451   8.090   1.937
 6441TIP3    H119200   4.404   8.166   1.897
 6441TIP3    H219201   4.537   8.103   1.893
 6442TIP3   OH219202   4.898   8.336   2.076
 6442TIP3    H119203   4.941   8.337   2.164
 6442TIP3    H219204   4.964   8.386   2.023
 6443TIP3   OH219205   5.076   8.487   1.932
 6443TIP3    H119206   5.146   8.435   1.891
 6443TIP3    H219207   5.129   8.543   1.993
 6444TIP3   OH219208   5.884   6.854   2.036
 6444TIP3    H119209   5.796   6.892   2.016
 6444TIP3    H219210   5.874   6.759   2.012
 6445TIP3   OH219211   4.128   8.348   1.959
 6445TIP3    H119212   4.039   8.383   1.936
 6445TIP3    H219213   4.136   8.381   2.049
 6446TIP3   OH219214   4.365   8.327   1.818
 6446TIP3    H119215   4.279   8.340   1.862
 6446TIP3    H219216   4.346   8.359   1.728
 6447TIP3   OH219217   4.791   8.356   1.616
 6447TIP3    H119218   4.722   8.376   1.549
 6447TIP3    H219219   4.803   8.444   1.657
 6448TIP3   OH219220   5.059   8.297   1.668
 6448TIP3    H119221   4.965   8.312   1.647
 6448TIP3    H219222   5.101   8.372   1.623
 6449TIP3   OH219223   5.269   8.489   1.583
 6449TIP3    H119224   5.253   8.572   1.534
 6449TIP3    H219225   5.294   8.427   1.510
 6450TIP3   OH219226   4.039   8.141   1.706
 6450TIP3    H119227   4.066   8.116   1.797
 6450TIP3    H219228   4.111   8.098   1.655
 6451TIP3   OH219229   4.233   8.013   1.562
 6451TIP3    H119230   4.249   7.929   1.610
 6451TIP3    H219231   4.323   8.050   1.556
 6452TIP3   OH219232   4.499   8.109   1.564
 6452TIP3    H119233   4.531   8.018   1.550
 6452TIP3    H219234   4.543   8.129   1.649
 6453TIP3   OH219235   5.068   6.760   1.644
 6453TIP3    H119236   5.031   6.691   1.701
 6453TIP3    H219237   5.148   6.717   1.607
 6454TIP3   OH219238   5.599   6.631   1.549
 6454TIP3    H119239   5.637   6.693   1.483
 6454TIP3    H219240   5.510   6.668   1.560
 6455TIP3   OH219241   5.696   6.748   1.319
 6455TIP3    H119242   5.770   6.698   1.279
 6455TIP3    H219243   5.727   6.840   1.306
 6456TIP3   OH219244   4.324   6.473   1.669
 6456TIP3    H119245   4.232   6.440   1.670
 6456TIP3    H219246   4.374   6.388   1.666
 6457TIP3   OH219247   4.108   6.342   1.315
 6457TIP3    H119248   4.140   6.400   1.244
 6457TIP3    H219249   4.081   6.407   1.383
 6458TIP3   OH219250   4.766   6.506   1.550
 6458TIP3    H119251   4.824   6.556   1.490
 6458TIP3    H219252   4.791   6.543   1.636
 6459TIP3   OH219253   5.307   6.652   1.536
 6459TIP3    H119254   5.316   6.617   1.447
 6459TIP3    H219255   5.297   6.569   1.589
 6460TIP3   OH219256   5.344   6.574   1.095
 6460TIP3    H119257   5.257   6.617   1.107
 6460TIP3    H219258   5.330   6.489   1.142
 6461TIP3   OH219259   3.827   7.913   1.099
 6461TIP3    H119260   3.743   7.880   1.063
 6461TIP3    H219261   3.817   8.007   1.080
 6462TIP3   OH219262   4.227   6.502   1.080
 6462TIP3    H119263   4.276   6.440   1.023
 6462TIP3    H219264   4.300   6.557   1.117
 6463TIP3   OH219265   4.740   6.677   1.179
 6463TIP3    H119266   4.802   6.631   1.239
 6463TIP3    H219267   4.761   6.770   1.204
 6464TIP3   OH219268   4.593   8.118   0.671
 6464TIP3    H119269   4.685   8.135   0.640
 6464TIP3    H219270   4.580   8.032   0.625
 6465TIP3   OH219271   5.322   8.217   0.769
 6465TIP3    H119272   5.310   8.120   0.755
 6465TIP3    H219273   5.274   8.254   0.691
 6466TIP3   OH219274   4.532   6.754   2.559
 6466TIP3    H119275   4.498   6.684   2.617
 6466TIP3    H219276   4.626   6.755   2.586
 6467TIP3   OH219277   4.780   6.751   2.679
 6467TIP3    H119278   4.866   6.728   2.639
 6467TIP3    H219279   4.769   6.680   2.745
 6468TIP3   OH219280   3.904   7.934   0.737
 6468TIP3    H119281   3.907   7.965   0.829
 6468TIP3    H219282   3.993   7.895   0.724
 6469TIP3   OH219283   5.604   6.812   2.467
 6469TIP3    H119284   5.626   6.781   2.557
 6469TIP3    H219285   5.691   6.809   2.423
 6470TIP3   OH219286   5.545   8.366   1.960
 6470TIP3    H119287   5.467   8.333   1.911
 6470TIP3    H219288   5.524   8.461   1.963
 6471TIP3   OH219289   6.804   7.734   1.104
 6471TIP3    H119290   6.842   7.713   1.191
 6471TIP3    H219291   6.763   7.650   1.079
 6472TIP3   OH219292   6.111   7.631   1.468
 6472TIP3    H119293   6.140   7.564   1.532
 6472TIP3    H219294   6.184   7.694   1.472
 6473TIP3   OH219295   6.080   8.042   1.200
 6473TIP3    H119296   6.072   7.944   1.201
 6473TIP3    H219297   6.176   8.051   1.190
 6474TIP3   OH219298   5.790   7.250   0.979
 6474TIP3    H119299   5.738   7.330   0.996
 6474TIP3    H219300   5.720   7.189   0.949
 6475TIP3   OH219301   5.847   7.532   1.149
 6475TIP3    H119302   5.894   7.456   1.189
 6475TIP3    H219303   5.910   7.563   1.084
 6476TIP3   OH219304   6.611   7.961   1.152
 6476TIP3    H119305   6.650   7.882   1.110
 6476TIP3    H219306   6.694   8.007   1.178
 6477TIP3   OH219307   7.621   7.279   1.156
 6477TIP3    H119308   7.647   7.359   1.207
 6477TIP3    H219309   7.658   7.299   1.069
 6478TIP3   OH219310   7.020   7.463   1.197
 6478TIP3    H119311   7.061   7.375   1.207
 6478TIP3    H219312   6.994   7.462   1.103
 6479TIP3   OH219313   6.361   7.124   1.152
 6479TIP3    H119314   6.337   7.196   1.090
 6479TIP3    H219315   6.312   7.049   1.111
 6480TIP3   OH219316   7.003   7.198   0.842
 6480TIP3    H119317   7.069   7.171   0.908
 6480TIP3    H219318   7.066   7.200   0.766
 6481TIP3   OH219319   5.994   7.328   1.257
 6481TIP3    H119320   6.075   7.306   1.307
 6481TIP3    H219321   6.004   7.269   1.180
 6482TIP3   OH219322   6.434   7.523   1.047
 6482TIP3    H119323   6.526   7.496   1.066
 6482TIP3    H219324   6.394   7.438   1.018
 6483TIP3   OH219325   7.688   7.487   1.323
 6483TIP3    H119326   7.604   7.537   1.313
 6483TIP3    H219327   7.721   7.522   1.407
 6484TIP3   OH219328   6.356   7.107   1.587
 6484TIP3    H119329   6.294   7.144   1.521
 6484TIP3    H219330   6.303   7.123   1.669
 6485TIP3   OH219331   6.463   7.883   1.383
 6485TIP3    H119332   6.398   7.946   1.422
 6485TIP3    H219333   6.501   7.936   1.311
 6486TIP3   OH219334   7.281   7.222   0.964
 6486TIP3    H119335   7.255   7.181   1.047
 6486TIP3    H219336   7.314   7.309   0.994
 6487TIP3   OH219337   6.227   7.223   1.371
 6487TIP3    H119338   6.289   7.296   1.395
 6487TIP3    H219339   6.276   7.181   1.297
 6488TIP3   OH219340   6.289   8.074   1.481
 6488TIP3    H119341   6.263   8.159   1.439
 6488TIP3    H219342   6.210   8.059   1.537
 6489TIP3   OH219343   5.687   7.767   0.719
 6489TIP3    H119344   5.605   7.790   0.673
 6489TIP3    H219345   5.696   7.839   0.784
 6490TIP3   OH219346   7.137   8.296   0.966
 6490TIP3    H119347   7.049   8.270   1.002
 6490TIP3    H219348   7.111   8.329   0.879
 6491TIP3   OH219349   7.411   7.181   1.317
 6491TIP3    H119350   7.324   7.213   1.289
 6491TIP3    H219351   7.471   7.215   1.247
 6492TIP3   OH219352   6.714   6.827   1.302
 6492TIP3    H119353   6.699   6.732   1.319
 6492TIP3    H219354   6.636   6.866   1.348
 6493TIP3   OH219355   7.348   8.195   1.299
 6493TIP3    H119356   7.341   8.121   1.237
 6493TIP3    H219357   7.334   8.273   1.241
 6494TIP3   OH219358   7.537   7.824   1.147
 6494TIP3    H119359   7.461   7.886   1.156
 6494TIP3    H219360   7.557   7.834   1.054
 6495TIP3   OH219361   7.224   7.710   1.438
 6495TIP3    H119362   7.221   7.792   1.491
 6495TIP3    H219363   7.137   7.716   1.392
 6496TIP3   OH219364   6.221   7.669   0.946
 6496TIP3    H119365   6.179   7.610   0.879
 6496TIP3    H219366   6.300   7.617   0.972
 6497TIP3   OH219367   6.348   8.080   1.097
 6497TIP3    H119368   6.321   8.048   1.009
 6497TIP3    H219369   6.437   8.041   1.108
 6498TIP3   OH219370   6.364   7.638   1.298
 6498TIP3    H119371   6.393   7.623   1.206
 6498TIP3    H219372   6.402   7.727   1.319
 6499TIP3   OH219373   6.887   8.270   1.068
 6499TIP3    H119374   6.869   8.352   1.118
 6499TIP3    H219375   6.870   8.200   1.135
 6500TIP3   OH219376   6.495   8.197   1.622
 6500TIP3    H119377   6.436   8.259   1.669
 6500TIP3    H219378   6.429   8.143   1.573
 6501TIP3   OH219379   6.248   7.754   1.720
 6501TIP3    H119380   6.254   7.839   1.767
 6501TIP3    H219381   6.154   7.733   1.735
 6502TIP3   OH219382   6.290   8.366   1.709
 6502TIP3    H119383   6.255   8.364   1.618
 6502TIP3    H219384   6.211   8.344   1.763
 6503TIP3   OH219385   6.084   7.505   0.766
 6503TIP3    H119386   6.027   7.550   0.701
 6503TIP3    H219387   6.029   7.431   0.792
 6504TIP3   OH219388   5.870   7.894   1.656
 6504TIP3    H119389   5.803   7.871   1.588
 6504TIP3    H219390   5.905   7.806   1.682
 6505TIP3   OH219391   5.723   8.088   1.289
 6505TIP3    H119392   5.819   8.081   1.278
 6505TIP3    H219393   5.715   8.167   1.344
 6506TIP3   OH219394   7.579   8.539   1.338
 6506TIP3    H119395   7.585   8.444   1.357
 6506TIP3    H219396   7.497   8.562   1.389
 6507TIP3   OH219397   6.694   8.325   1.480
 6507TIP3    H119398   6.693   8.418   1.512
 6507TIP3    H219399   6.622   8.286   1.534
 6508TIP3   OH219400   5.882   8.296   0.814
 6508TIP3    H119401   5.950   8.297   0.885
 6508TIP3    H219402   5.829   8.221   0.845
 6509TIP3   OH219403   7.477   7.667   1.622
 6509TIP3    H119404   7.398   7.685   1.570
 6509TIP3    H219405   7.491   7.572   1.606
 6510TIP3   OH219406   6.074   8.078   1.647
 6510TIP3    H119407   6.124   8.060   1.729
 6510TIP3    H219408   6.000   8.014   1.653
 6511TIP3   OH219409   6.475   6.904   1.426
 6511TIP3    H119410   6.385   6.871   1.402
 6511TIP3    H219411   6.448   6.985   1.475
 6512TIP3   OH219412   7.007   7.019   1.625
 6512TIP3    H119413   7.073   6.986   1.689
 6512TIP3    H219414   6.921   6.997   1.669
 6513TIP3   OH219415   7.241   7.446   1.542
 6513TIP3    H119416   7.195   7.448   1.629
 6513TIP3    H219417   7.220   7.533   1.504
 6514TIP3   OH219418   6.407   7.417   1.449
 6514TIP3    H119419   6.354   7.437   1.529
 6514TIP3    H219420   6.391   7.498   1.395
 6515TIP3   OH219421   6.290   7.299   0.958
 6515TIP3    H119422   6.196   7.277   0.980
 6515TIP3    H219423   6.296   7.259   0.869
 6516TIP3   OH219424   6.952   7.664   1.772
 6516TIP3    H119425   6.929   7.598   1.841
 6516TIP3    H219426   7.043   7.686   1.798
 6517TIP3   OH219427   6.928   7.445   0.936
 6517TIP3    H119428   6.901   7.493   0.855
 6517TIP3    H219429   6.946   7.355   0.900
 6518TIP3   OH219430   6.226   7.446   1.656
 6518TIP3    H119431   6.241   7.510   1.727
 6518TIP3    H219432   6.208   7.364   1.706
 6519TIP3   OH219433   5.815   6.975   1.232
 6519TIP3    H119434   5.892   7.000   1.287
 6519TIP3    H219435   5.855   6.932   1.154
 6520TIP3   OH219436   5.794   6.955   0.758
 6520TIP3    H119437   5.840   6.992   0.680
 6520TIP3    H219438   5.730   7.026   0.778
 6521TIP3   OH219439   6.945   7.668   1.351
 6521TIP3    H119440   6.979   7.595   1.295
 6521TIP3    H219441   6.914   7.616   1.429
 6522TIP3   OH219442   6.617   7.116   1.031
 6522TIP3    H119443   6.532   7.120   1.080
 6522TIP3    H219444   6.681   7.127   1.104
 6523TIP3   OH219445   6.051   7.182   1.028
 6523TIP3    H119446   5.956   7.191   1.004
 6523TIP3    H219447   6.069   7.088   1.010
 6524TIP3   OH219448   6.321   7.180   0.706
 6524TIP3    H119449   6.417   7.192   0.717
 6524TIP3    H219450   6.300   7.240   0.633
 6525TIP3   OH219451   7.107   7.199   1.222
 6525TIP3    H119452   7.075   7.213   1.314
 6525TIP3    H219453   7.038   7.139   1.189
 6526TIP3   OH219454   7.272   8.888   1.442
 6526TIP3    H119455   7.277   8.913   1.347
 6526TIP3    H219456   7.346   8.940   1.479
 6527TIP3   OH219457   6.236   8.001   1.865
 6527TIP3    H119458   6.315   8.031   1.915
 6527TIP3    H219459   6.171   7.997   1.938
 6528TIP3   OH219460   6.696   7.452   1.121
 6528TIP3    H119461   6.777   7.426   1.074
 6528TIP3    H219462   6.708   7.412   1.209
 6529TIP3   OH219463   6.228   6.939   1.000
 6529TIP3    H119464   6.186   6.864   1.047
 6529TIP3    H219465   6.273   6.895   0.927
 6530TIP3   OH219466   6.676   7.350   1.409
 6530TIP3    H119467   6.585   7.385   1.423
 6530TIP3    H219468   6.731   7.412   1.461
 6531TIP3   OH219469   7.315   7.984   1.117
 6531TIP3    H119470   7.287   8.033   1.039
 6531TIP3    H219471   7.234   7.928   1.130
 6532TIP3   OH219472   6.817   8.062   1.502
 6532TIP3    H119473   6.832   8.037   1.593
 6532TIP3    H219474   6.773   8.148   1.510
 6533TIP3   OH219475   6.103   7.762   1.183
 6533TIP3    H119476   6.143   7.734   1.098
 6533TIP3    H219477   6.141   7.698   1.245
 6534TIP3   OH219478   5.987   7.681   1.794
 6534TIP3    H119479   6.002   7.666   1.890
 6534TIP3    H219480   5.915   7.618   1.776
 6535TIP3   OH219481   6.709   7.797   1.814
 6535TIP3    H119482   6.647   7.738   1.768
 6535TIP3    H219483   6.795   7.764   1.781
 6536TIP3   OH219484   6.973   8.322   1.396
 6536TIP3    H119485   6.877   8.317   1.410
 6536TIP3    H219486   7.001   8.371   1.476
 6537TIP3   OH219487   7.598   8.247   1.393
 6537TIP3    H119488   7.500   8.245   1.387
 6537TIP3    H219489   7.621   8.219   1.302
 6538TIP3   OH219490   7.085   7.836   1.085
 6538TIP3    H119491   6.990   7.821   1.076
 6538TIP3    H219492   7.119   7.763   1.029
 6539TIP3   OH219493   6.221   8.077   0.824
 6539TIP3    H119494   6.229   8.168   0.789
 6539TIP3    H219495   6.145   8.044   0.771
 6540TIP3   OH219496   5.756   7.370   0.510
 6540TIP3    H119497   5.797   7.453   0.540
 6540TIP3    H219498   5.677   7.367   0.567
 6541TIP3   OH219499   6.366   7.842   0.774
 6541TIP3    H119500   6.320   7.928   0.782
 6541TIP3    H219501   6.312   7.788   0.834
 6542TIP3   OH219502   6.474   8.411   1.275
 6542TIP3    H119503   6.513   8.484   1.225
 6542TIP3    H219504   6.551   8.378   1.324
 6543TIP3   OH219505   6.865   8.042   1.233
 6543TIP3    H119506   6.855   8.044   1.331
 6543TIP3    H219507   6.946   7.991   1.223
 6544TIP3   OH219508   7.111   8.580   1.284
 6544TIP3    H119509   7.033   8.521   1.275
 6544TIP3    H219510   7.095   8.645   1.212
 6545TIP3   OH219511   6.192   7.190   1.802
 6545TIP3    H119512   6.096   7.201   1.818
 6545TIP3    H219513   6.216   7.129   1.874
 6546TIP3   OH219514   5.912   8.275   1.436
 6546TIP3    H119515   5.964   8.197   1.463
 6546TIP3    H219516   5.944   8.341   1.498
 6547TIP3   OH219517   5.878   7.595   0.603
 6547TIP3    H119518   5.818   7.653   0.654
 6547TIP3    H219519   5.918   7.660   0.540
 6548TIP3   OH219520   7.034   7.253   1.481
 6548TIP3    H119521   7.115   7.292   1.519
 6548TIP3    H219522   7.020   7.173   1.537
 6549TIP3   OH219523   6.587   7.190   0.766
 6549TIP3    H119524   6.660   7.246   0.734
 6549TIP3    H219525   6.604   7.186   0.863
 6550TIP3   OH219526   6.871   7.504   1.556
 6550TIP3    H119527   6.890   7.559   1.635
 6550TIP3    H219528   6.926   7.425   1.569
 6551TIP3   OH219529   6.760   6.933   0.858
 6551TIP3    H119530   6.730   6.995   0.927
 6551TIP3    H219531   6.843   6.976   0.832
 6552TIP3   OH219532   6.252   6.905   0.655
 6552TIP3    H119533   6.246   6.996   0.688
 6552TIP3    H219534   6.342   6.880   0.686
 6553TIP3   OH219535   7.509   7.403   1.542
 6553TIP3    H119536   7.411   7.400   1.542
 6553TIP3    H219537   7.528   7.366   1.455
 6554TIP3   OH219538   7.165   7.610   0.952
 6554TIP3    H119539   7.091   7.550   0.935
 6554TIP3    H219540   7.238   7.550   0.974
 6555TIP3   OH219541   5.826   7.105   0.519
 6555TIP3    H119542   5.795   7.198   0.514
 6555TIP3    H219543   5.754   7.058   0.476
 6556TIP3   OH219544   6.213   6.821   1.403
 6556TIP3    H119545   6.177   6.789   1.318
 6556TIP3    H219546   6.200   6.744   1.462
 6557TIP3   OH219547   5.730   8.049   0.828
 6557TIP3    H119548   5.654   8.107   0.846
 6557TIP3    H219549   5.743   8.055   0.732
 6558TIP3   OH219550   5.903   8.581   1.857
 6558TIP3    H119551   5.989   8.579   1.903
 6558TIP3    H219552   5.882   8.486   1.854
 6559TIP3   OH219553   6.386   8.549   1.899
 6559TIP3    H119554   6.480   8.527   1.908
 6559TIP3    H219555   6.361   8.490   1.826
 6560TIP3   OH219556   7.028   8.451   1.632
 6560TIP3    H119557   7.016   8.383   1.701
 6560TIP3    H219558   7.104   8.503   1.666
 6561TIP3   OH219559   6.035   7.989   2.056
 6561TIP3    H119560   6.052   7.893   2.061
 6561TIP3    H219561   5.947   7.990   2.012
 6562TIP3   OH219562   6.643   8.073   1.829
 6562TIP3    H119563   6.599   8.089   1.744
 6562TIP3    H219564   6.673   7.980   1.822
 6563TIP3   OH219565   7.135   8.078   1.434
 6563TIP3    H119566   7.208   8.129   1.394
 6563TIP3    H219567   7.061   8.140   1.425
 6564TIP3   OH219568   6.154   7.726   2.037
 6564TIP3    H119569   6.219   7.657   2.022
 6564TIP3    H219570   6.179   7.756   2.127
 6565TIP3   OH219571   6.492   7.610   1.703
 6565TIP3    H119572   6.410   7.665   1.704
 6565TIP3    H219573   6.537   7.643   1.622
 6566TIP3   OH219574   7.003   8.007   1.833
 6566TIP3    H119575   7.089   7.993   1.793
 6566TIP3    H219576   7.003   7.944   1.907
 6567TIP3   OH219577   6.620   7.397   1.822
 6567TIP3    H119578   6.610   7.315   1.769
 6567TIP3    H219579   6.571   7.463   1.768
 6568TIP3   OH219580   6.615   7.179   1.632
 6568TIP3    H119581   6.639   7.222   1.548
 6568TIP3    H219582   6.520   7.158   1.616
 6569TIP3   OH219583   6.644   7.718   1.504
 6569TIP3    H119584   6.725   7.729   1.453
 6569TIP3    H219585   6.585   7.785   1.463
 6570TIP3   OH219586   7.229   7.689   1.888
 6570TIP3    H119587   7.285   7.614   1.868
 6570TIP3    H219588   7.288   7.763   1.868
 6571TIP3   OH219589   7.266   7.933   1.620
 6571TIP3    H119590   7.207   7.987   1.563
 6571TIP3    H219591   7.353   7.956   1.580
 6572TIP3   OH219592   6.494   7.506   2.056
 6572TIP3    H119593   6.423   7.440   2.070
 6572TIP3    H219594   6.524   7.482   1.966
 6573TIP3   OH219595   6.747   6.944   1.697
 6573TIP3    H119596   6.697   7.026   1.676
 6573TIP3    H219597   6.676   6.877   1.688
 6574TIP3   OH219598   6.873   7.448   1.920
 6574TIP3    H119599   6.845   7.434   2.012
 6574TIP3    H219600   6.787   7.427   1.877
 6575TIP3   OH219601   7.114   7.398   1.780
 6575TIP3    H119602   7.030   7.413   1.829
 6575TIP3    H219603   7.148   7.320   1.825
 6576TIP3   OH219604   6.335   7.286   2.105
 6576TIP3    H119605   6.335   7.194   2.073
 6576TIP3    H219606   6.365   7.274   2.198
 6577TIP3   OH219607   6.843   6.955   1.954
 6577TIP3    H119608   6.908   6.883   1.949
 6577TIP3    H219609   6.801   6.947   1.866
 6578TIP3   OH219610   6.912   7.167   2.116
 6578TIP3    H119611   6.885   7.099   2.051
 6578TIP3    H219612   6.840   7.232   2.110
 6579TIP3   OH219613   5.515   8.398   0.847
 6579TIP3    H119614   5.451   8.333   0.811
 6579TIP3    H219615   5.560   8.345   0.916
 6580TIP3   OH219616   5.648   8.254   1.037
 6580TIP3    H119617   5.647   8.174   1.092
 6580TIP3    H219618   5.705   8.312   1.091
 6581TIP3   OH219619   7.428   8.667   1.121
 6581TIP3    H119620   7.380   8.583   1.110
 6581TIP3    H219621   7.500   8.635   1.179
 6582TIP3   OH219622   7.458   8.342   1.686
 6582TIP3    H119623   7.386   8.350   1.753
 6582TIP3    H219624   7.501   8.429   1.693
 6583TIP3   OH219625   7.295   8.420   1.146
 6583TIP3    H119626   7.226   8.461   1.202
 6583TIP3    H219627   7.241   8.375   1.077
 6584TIP3   OH219628   5.846   7.656   1.401
 6584TIP3    H119629   5.844   7.624   1.308
 6584TIP3    H219630   5.942   7.654   1.419
 6585TIP3   OH219631   7.507   8.002   1.511
 6585TIP3    H119632   7.581   7.937   1.505
 6585TIP3    H219633   7.539   8.075   1.456
 6586TIP3   OH219634   7.690   7.807   1.531
 6586TIP3    H119635   7.619   7.755   1.575
 6586TIP3    H219636   7.766   7.747   1.545
 6587TIP3   OH219637   7.385   7.466   1.047
 6587TIP3    H119638   7.462   7.504   1.002
 6587TIP3    H219639   7.394   7.506   1.136
 6588TIP3   OH219640   7.440   7.608   1.283
 6588TIP3    H119641   7.361   7.642   1.331
 6588TIP3    H219642   7.474   7.691   1.242
 6589TIP3   OH219643   6.070   7.350   2.098
 6589TIP3    H119644   6.165   7.330   2.090
 6589TIP3    H219645   6.035   7.262   2.122
 6590TIP3   OH219646   7.888   7.192   1.835
 6590TIP3    H119647   7.954   7.133   1.793
 6590TIP3    H219648   7.869   7.256   1.764
 6591TIP3   OH219649   6.026   7.028   1.399
 6591TIP3    H119650   6.088   6.955   1.418
 6591TIP3    H219651   6.086   7.105   1.404
 6592TIP3   OH219652   5.828   7.303   1.482
 6592TIP3    H119653   5.877   7.303   1.397
 6592TIP3    H219654   5.856   7.386   1.522
 6593TIP3   OH219655   7.768   7.344   1.642
 6593TIP3    H119656   7.681   7.382   1.663
 6593TIP3    H219657   7.742   7.269   1.585
 6594TIP3   OH219658   5.811   6.813   0.988
 6594TIP3    H119659   5.716   6.805   1.011
 6594TIP3    H219660   5.808   6.867   0.907
 6595TIP3   OH219661   6.032   6.884   1.798
 6595TIP3    H119662   5.985   6.880   1.883
 6595TIP3    H219663   5.964   6.928   1.742
 6596TIP3   OH219664   6.070   8.317   1.877
 6596TIP3    H119665   5.979   8.287   1.859
 6596TIP3    H219666   6.080   8.294   1.970
 6597TIP3   OH219667   6.247   8.346   1.424
 6597TIP3    H119668   6.199   8.422   1.385
 6597TIP3    H219669   6.333   8.360   1.379
 6598TIP3   OH219670   6.695   8.592   1.560
 6598TIP3    H119671   6.735   8.593   1.650
 6598TIP3    H219672   6.761   8.643   1.509
 6599TIP3   OH219673   6.877   8.742   1.417
 6599TIP3    H119674   6.950   8.687   1.388
 6599TIP3    H219675   6.923   8.801   1.481
 6600TIP3   OH219676   7.667   7.105   1.519
 6600TIP3    H119677   7.575   7.097   1.489
 6600TIP3    H219678   7.698   7.012   1.508
 6601TIP3   OH219679   5.925   8.605   1.445
 6601TIP3    H119680   5.836   8.641   1.422
 6601TIP3    H219681   5.932   8.636   1.536
 6602TIP3   OH219682   6.163   8.582   1.304
 6602TIP3    H119683   6.076   8.596   1.348
 6602TIP3    H219684   6.144   8.615   1.214
 6603TIP3   OH219685   6.594   8.613   1.103
 6603TIP3    H119686   6.517   8.624   1.041
 6603TIP3    H219687   6.598   8.702   1.143
 6604TIP3   OH219688   6.857   8.550   1.145
 6604TIP3    H119689   6.761   8.558   1.130
 6604TIP3    H219690   6.886   8.640   1.124
 6605TIP3   OH219691   7.068   8.755   1.064
 6605TIP3    H119692   7.024   8.830   1.023
 6605TIP3    H219693   7.092   8.700   0.989
 6606TIP3   OH219694   5.834   8.398   1.194
 6606TIP3    H119695   5.863   8.372   1.284
 6606TIP3    H219696   5.906   8.355   1.141
 6607TIP3   OH219697   6.028   8.273   1.048
 6607TIP3    H119698   6.044   8.186   1.092
 6607TIP3    H219699   6.120   8.308   1.042
 6608TIP3   OH219700   6.294   8.366   1.049
 6608TIP3    H119701   6.324   8.274   1.035
 6608TIP3    H219702   6.337   8.384   1.135
 6609TIP3   OH219703   6.876   7.017   1.140
 6609TIP3    H119704   6.829   6.950   1.192
 6609TIP3    H219705   6.948   6.966   1.100
 6610TIP3   OH219706   7.390   6.895   1.043
 6610TIP3    H119707   7.426   6.947   0.969
 6610TIP3    H219708   7.296   6.920   1.043
 6611TIP3   OH219709   7.513   6.970   0.806
 6611TIP3    H119710   7.604   6.946   0.824
 6611TIP3    H219711   7.522   7.067   0.804
 6612TIP3   OH219712   6.121   6.731   1.154
 6612TIP3    H119713   6.028   6.698   1.155
 6612TIP3    H219714   6.169   6.645   1.151
 6613TIP3   OH219715   5.923   6.600   0.806
 6613TIP3    H119716   5.940   6.657   0.729
 6613TIP3    H219717   5.881   6.662   0.868
 6614TIP3   OH219718   6.563   6.760   1.038
 6614TIP3    H119719   6.623   6.818   0.991
 6614TIP3    H219720   6.568   6.795   1.128
 6615TIP3   OH219721   7.110   6.908   1.018
 6615TIP3    H119722   7.116   6.867   0.930
 6615TIP3    H219723   7.096   6.828   1.075
 6616TIP3   OH219724   6.019   6.759   0.582
 6616TIP3    H119725   6.060   6.699   0.516
 6616TIP3    H219726   6.096   6.813   0.608
 6617TIP3   OH219727   6.516   6.920   0.723
 6617TIP3    H119728   6.591   6.889   0.776
 6617TIP3    H219729   6.531   7.017   0.727
 6618TIP3   OH219730   6.330   7.013   2.047
 6618TIP3    H119731   6.292   6.943   2.103
 6618TIP3    H219732   6.423   7.011   2.076
 6619TIP3   OH219733   6.579   7.008   2.168
 6619TIP3    H119734   6.661   6.977   2.128
 6619TIP3    H219735   6.562   6.938   2.234
 6620TIP3   OH219736   7.398   7.073   1.952
 6620TIP3    H119737   7.421   7.043   2.042
 6620TIP3    H219738   7.486   7.077   1.910
 6621TIP3   OH219739   7.340   8.621   1.448
 6621TIP3    H119740   7.261   8.588   1.400
 6621TIP3    H219741   7.321   8.717   1.448
 6622TIP3   OH219742   8.150   7.364   1.077
 6622TIP3    H119743   8.089   7.404   1.015
 6622TIP3    H219744   8.103   7.380   1.162
 6623TIP3   OH219745   8.052   8.002   1.213
 6623TIP3    H119746   8.052   8.088   1.260
 6623TIP3    H219747   7.956   7.985   1.210
 6624TIP3   OH219748   7.655   8.147   1.149
 6624TIP3    H119749   7.635   8.121   1.058
 6624TIP3    H219750   7.700   8.067   1.185
 6625TIP3   OH219751   7.877   8.315   1.138
 6625TIP3    H119752   7.918   8.283   1.221
 6625TIP3    H219753   7.794   8.266   1.135
 6626TIP3   OH219754   8.806   7.271   1.093
 6626TIP3    H119755   8.871   7.248   1.161
 6626TIP3    H219756   8.721   7.250   1.136
 6627TIP3   OH219757   7.988   7.687   1.153
 6627TIP3    H119758   8.036   7.763   1.187
 6627TIP3    H219759   8.014   7.615   1.213
 6628TIP3   OH219760   8.025   8.238   1.356
 6628TIP3    H119761   8.098   8.297   1.377
 6628TIP3    H219762   7.968   8.247   1.434
 6629TIP3   OH219763   7.779   7.946   1.283
 6629TIP3    H119764   7.817   7.939   1.373
 6629TIP3    H219765   7.720   7.869   1.282
 6630TIP3   OH219766   8.000   7.437   1.296
 6630TIP3    H119767   7.906   7.451   1.314
 6630TIP3    H219768   8.028   7.383   1.371
 6631TIP3   OH219769   7.981   7.084   0.890
 6631TIP3    H119770   7.981   7.036   0.805
 6631TIP3    H219771   7.988   7.010   0.954
 6632TIP3   OH219772   7.676   8.819   1.381
 6632TIP3    H119773   7.772   8.805   1.380
 6632TIP3    H219774   7.648   8.729   1.359
 6633TIP3   OH219775   7.828   8.243   1.547
 6633TIP3    H119776   7.844   8.147   1.556
 6633TIP3    H219777   7.740   8.244   1.503
 6634TIP3   OH219778   7.946   7.973   1.523
 6634TIP3    H119779   8.024   7.919   1.505
 6634TIP3    H219780   7.969   8.007   1.612
 6635TIP3   OH219781   8.277   7.854   1.177
 6635TIP3    H119782   8.206   7.916   1.206
 6635TIP3    H219783   8.274   7.866   1.082
 6636TIP3   OH219784   8.397   7.648   1.314
 6636TIP3    H119785   8.403   7.570   1.256
 6636TIP3    H219786   8.360   7.717   1.255
 6637TIP3   OH219787   8.408   7.435   1.118
 6637TIP3    H119788   8.429   7.472   1.031
 6637TIP3    H219789   8.315   7.406   1.105
 6638TIP3   OH219790   8.282   7.766   1.538
 6638TIP3    H119791   8.212   7.701   1.558
 6638TIP3    H219792   8.317   7.732   1.453
 6639TIP3   OH219793   8.541   7.198   1.184
 6639TIP3    H119794   8.498   7.285   1.166
 6639TIP3    H219795   8.466   7.137   1.175
 6640TIP3   OH219796   8.645   7.734   1.421
 6640TIP3    H119797   8.629   7.703   1.512
 6640TIP3    H219798   8.561   7.708   1.380
 6641TIP3   OH219799   8.122   7.545   1.595
 6641TIP3    H119800   8.138   7.456   1.562
 6641TIP3    H219801   8.158   7.538   1.686
 6642TIP3   OH219802   8.634   7.208   1.443
 6642TIP3    H119803   8.704   7.141   1.439
 6642TIP3    H219804   8.599   7.204   1.352
 6643TIP3   OH219805   8.692   7.420   1.607
 6643TIP3    H119806   8.675   7.353   1.539
 6643TIP3    H219807   8.616   7.481   1.597
 6644TIP3   OH219808   7.855   7.591   1.554
 6644TIP3    H119809   7.953   7.593   1.564
 6644TIP3    H219810   7.835   7.509   1.604
 6645TIP3   OH219811   7.848   7.320   0.942
 6645TIP3    H119812   7.900   7.237   0.953
 6645TIP3    H219813   7.907   7.370   0.884
 6646TIP3   OH219814   7.645   7.568   0.949
 6646TIP3    H119815   7.715   7.503   0.958
 6646TIP3    H219816   7.676   7.639   1.006
 6647TIP3   OH219817   7.827   7.141   1.285
 6647TIP3    H119818   7.780   7.137   1.370
 6647TIP3    H219819   7.758   7.180   1.229
 6648TIP3   OH219820   7.852   8.587   1.416
 6648TIP3    H119821   7.789   8.552   1.351
 6648TIP3    H219822   7.838   8.529   1.493
 6649TIP3   OH219823   8.124   7.262   1.528
 6649TIP3    H119824   8.091   7.195   1.591
 6649TIP3    H219825   8.218   7.266   1.557
 6650TIP3   OH219826   8.371   7.261   1.648
 6650TIP3    H119827   8.460   7.241   1.614
 6650TIP3    H219828   8.362   7.193   1.718
 6651TIP3   OH219829   9.141   7.298   1.464
 6651TIP3    H119830   9.191   7.301   1.548
 6651TIP3    H219831   9.198   7.347   1.404
 6652TIP3   OH219832   0.358   7.995   3.535
 6652TIP3    H119833   0.408   7.926   3.488
 6652TIP3    H219834   0.318   8.045   3.461
 6653TIP3   OH219835   0.221   8.131   3.334
 6653TIP3    H119836   0.130   8.157   3.353
 6653TIP3    H219837   0.207   8.057   3.273
 6654TIP3   OH219838   0.121   7.892   3.204
 6654TIP3    H119839   0.025   7.885   3.193
 6654TIP3    H219840   0.149   7.799   3.195
 6655TIP3   OH219841   1.869   8.326   2.327
 6655TIP3    H119842   1.900   8.408   2.370
 6655TIP3    H219843   1.891   8.343   2.234
 6656TIP3   OH219844   1.278   8.511   2.361
 6656TIP3    H119845   1.317   8.423   2.380
 6656TIP3    H219846   1.235   8.494   2.275
 6657TIP3   OH219847   1.299   8.250   1.953
 6657TIP3    H119848   1.368   8.236   2.022
 6657TIP3    H219849   1.356   8.285   1.882
 6658TIP3   OH219850   1.954   8.527   2.501
 6658TIP3    H119851   1.875   8.575   2.470
 6658TIP3    H219852   1.960   8.559   2.592
 6659TIP3   OH219853   0.607   8.145   2.770
 6659TIP3    H119854   0.553   8.181   2.696
 6659TIP3    H219855   0.552   8.170   2.847
 6660TIP3   OH219856   1.509   8.261   2.122
 6660TIP3    H119857   1.508   8.208   2.204
 6660TIP3    H219858   1.561   8.339   2.148
 6661TIP3   OH219859   0.488   8.250   2.550
 6661TIP3    H119860   0.532   8.336   2.564
 6661TIP3    H219861   0.493   8.244   2.453
 6662TIP3   OH219862   1.663   8.229   2.496
 6662TIP3    H119863   1.576   8.256   2.463
 6662TIP3    H219864   1.723   8.260   2.424
 6663TIP3   OH219865   0.960   7.872   2.474
 6663TIP3    H119866   0.949   7.777   2.492
 6663TIP3    H219867   0.883   7.909   2.524
 6664TIP3   OH219868   1.498   8.754   2.604
 6664TIP3    H119869   1.511   8.838   2.557
 6664TIP3    H219870   1.406   8.730   2.573
 6665TIP3   OH219871   1.600   7.817   1.580
 6665TIP3    H119872   1.513   7.833   1.622
 6665TIP3    H219873   1.610   7.897   1.525
 6666TIP3   OH219874   1.722   8.717   2.790
 6666TIP3    H119875   1.641   8.711   2.735
 6666TIP3    H219876   1.748   8.623   2.793
 6667TIP3   OH219877   0.722   7.948   2.606
 6667TIP3    H119878   0.633   7.916   2.580
 6667TIP3    H219879   0.696   8.028   2.656
 6668TIP3   OH219880   1.256   8.064   2.799
 6668TIP3    H119881   1.324   8.035   2.864
 6668TIP3    H219882   1.172   8.042   2.844
 6669TIP3   OH219883   1.498   8.480   2.722
 6669TIP3    H119884   1.448   8.475   2.807
 6669TIP3    H219885   1.467   8.564   2.684
 6670TIP3   OH219886   0.646   8.472   2.606
 6670TIP3    H119887   0.593   8.487   2.686
 6670TIP3    H219888   0.626   8.549   2.550
 6671TIP3   OH219889   1.211   8.701   2.950
 6671TIP3    H119890   1.199   8.624   3.010
 6671TIP3    H219891   1.302   8.728   2.971
 6672TIP3   OH219892   1.188   8.452   2.105
 6672TIP3    H119893   1.094   8.457   2.081
 6672TIP3    H219894   1.213   8.363   2.071
 6673TIP3   OH219895   0.481   8.494   2.856
 6673TIP3    H119896   0.452   8.531   2.941
 6673TIP3    H219897   0.459   8.400   2.873
 6674TIP3   OH219898   1.242   8.698   2.549
 6674TIP3    H119899   1.247   8.629   2.478
 6674TIP3    H219900   1.170   8.659   2.603
 6675TIP3   OH219901   0.905   8.179   2.202
 6675TIP3    H119902   0.809   8.160   2.201
 6675TIP3    H219903   0.929   8.170   2.295
 6676TIP3   OH219904   1.353   8.246   2.405
 6676TIP3    H119905   1.316   8.258   2.495
 6676TIP3    H219906   1.291   8.179   2.371
 6677TIP3   OH219907   0.961   8.503   2.282
 6677TIP3    H119908   1.001   8.416   2.266
 6677TIP3    H219909   0.948   8.501   2.378
 6678TIP3   OH219910   0.920   8.385   2.593
 6678TIP3    H119911   0.834   8.430   2.590
 6678TIP3    H219912   0.979   8.451   2.635
 6679TIP3   OH219913   0.956   8.715   3.063
 6679TIP3    H119914   0.889   8.772   3.020
 6679TIP3    H219915   1.019   8.698   2.991
 6680TIP3   OH219916   0.451   8.236   2.984
 6680TIP3    H119917   0.357   8.216   2.998
 6680TIP3    H219918   0.489   8.173   3.048
 6681TIP3   OH219919   1.276   8.305   2.666
 6681TIP3    H119920   1.363   8.334   2.697
 6681TIP3    H219921   1.263   8.220   2.714
 6682TIP3   OH219922   1.144   8.070   1.808
 6682TIP3    H119923   1.146   8.100   1.717
 6682TIP3    H219924   1.200   8.136   1.855
 6683TIP3   OH219925   1.110   8.542   2.733
 6683TIP3    H119926   1.144   8.592   2.809
 6683TIP3    H219927   1.165   8.461   2.734
 6684TIP3   OH219928   1.009   7.968   2.044
 6684TIP3    H119929   0.981   8.050   2.091
 6684TIP3    H219930   1.051   8.005   1.964
 6685TIP3   OH219931   1.766   8.451   2.718
 6685TIP3    H119932   1.668   8.443   2.725
 6685TIP3    H219933   1.779   8.410   2.631
 6686TIP3   OH219934   1.406   8.628   2.080
 6686TIP3    H119935   1.339   8.568   2.117
 6686TIP3    H219936   1.485   8.605   2.134
 6687TIP3   OH219937   0.461   7.854   2.585
 6687TIP3    H119938   0.426   7.813   2.505
 6687TIP3    H219939   0.456   7.780   2.649
 6688TIP3   OH219940   0.433   8.754   3.184
 6688TIP3    H119941   0.460   8.669   3.220
 6688TIP3    H219942   0.425   8.811   3.263
 6689TIP3   OH219943   0.741   8.609   2.835
 6689TIP3    H119944   0.644   8.601   2.844
 6689TIP3    H219945   0.753   8.607   2.738
 6690TIP3   OH219946   0.861   8.424   3.011
 6690TIP3    H119947   0.866   8.342   2.957
 6690TIP3    H219948   0.825   8.487   2.946
 6691TIP3   OH219949   0.865   8.221   2.813
 6691TIP3    H119950   0.891   8.267   2.730
 6691TIP3    H219951   0.771   8.199   2.795
 6692TIP3   OH219952   1.484   8.738   3.060
 6692TIP3    H119953   1.501   8.645   3.083
 6692TIP3    H219954   1.572   8.766   3.032
 6693TIP3   OH219955   0.723   8.561   3.226
 6693TIP3    H119956   0.667   8.481   3.237
 6693TIP3    H219957   0.774   8.538   3.146
 6694TIP3   OH219958   0.997   7.988   2.876
 6694TIP3    H119959   0.948   8.071   2.854
 6694TIP3    H219960   0.928   7.921   2.864
 6695TIP3   OH219961   1.130   8.479   3.093
 6695TIP3    H119962   1.118   8.477   3.189
 6695TIP3    H219963   1.036   8.465   3.066
 6696TIP3   OH219964   1.366   8.444   2.953
 6696TIP3    H119965   1.287   8.435   3.011
 6696TIP3    H219966   1.438   8.409   3.011
 6697TIP3   OH219967   1.594   8.385   3.102
 6697TIP3    H119968   1.605   8.289   3.120
 6697TIP3    H219969   1.588   8.424   3.191
 6698TIP3   OH219970   0.584   8.331   3.284
 6698TIP3    H119971   0.587   8.240   3.249
 6698TIP3    H219972   0.617   8.317   3.375
 6699TIP3   OH219973   1.090   7.999   3.134
 6699TIP3    H119974   1.158   7.928   3.128
 6699TIP3    H219975   1.051   7.993   3.045
 6700TIP3   OH219976   1.156   8.214   3.294
 6700TIP3    H119977   1.133   8.144   3.229
 6700TIP3    H219978   1.079   8.274   3.287
 6701TIP3   OH219979   1.470   8.616   1.818
 6701TIP3    H119980   1.491   8.521   1.820
 6701TIP3    H219981   1.457   8.636   1.913
 6702TIP3   OH219982   1.931   8.878   2.723
 6702TIP3    H119983   1.857   8.819   2.747
 6702TIP3    H219984   2.006   8.815   2.724
 6703TIP3   OH219985   1.462   8.337   1.751
 6703TIP3    H119986   1.505   8.251   1.770
 6703TIP3    H219987   1.468   8.332   1.653
 6704TIP3   OH219988   1.624   8.511   2.214
 6704TIP3    H119989   1.710   8.540   2.174
 6704TIP3    H219990   1.640   8.545   2.304
 6705TIP3   OH219991   1.702   8.638   2.447
 6705TIP3    H119992   1.626   8.669   2.499
 6705TIP3    H219993   1.751   8.722   2.432
 6706TIP3   OH219994   0.320   8.397   3.271
 6706TIP3    H119995   0.415   8.378   3.265
 6706TIP3    H219996   0.284   8.310   3.294
 6707TIP3   OH219997   2.141   8.245   3.013
 6707TIP3    H119998   2.203   8.181   2.972
 6707TIP3    H219999   2.119   8.303   2.937
 6708TIP3   OH220000   1.571   8.088   1.776
 6708TIP3    H120001   1.620   8.070   1.859
 6708TIP3    H220002   1.513   8.009   1.772
 6709TIP3   OH220003   0.280   8.073   2.561
 6709TIP3    H120004   0.332   8.000   2.600
 6709TIP3    H220005   0.340   8.148   2.574
 6710TIP3   OH220006   2.018   8.392   2.817
 6710TIP3    H120007   1.928   8.426   2.832
 6710TIP3    H220008   1.998   8.316   2.759
 6711TIP3   OH220009   1.671   8.020   1.395
 6711TIP3    H120010   1.701   7.947   1.337
 6711TIP3    H220011   1.738   8.088   1.380
 6712TIP3   OH220012   0.269   8.019   3.009
 6712TIP3    H120013   0.216   7.976   3.079
 6712TIP3    H220014   0.250   7.960   2.935
 6713TIP3   OH220015   1.915   8.151   2.698
 6713TIP3    H120016   1.824   8.144   2.663
 6713TIP3    H220017   1.947   8.058   2.686
 6714TIP3   OH220018   1.143   8.064   2.342
 6714TIP3    H120019   1.083   7.995   2.376
 6714TIP3    H220020   1.186   8.019   2.268
 6715TIP3   OH220021   1.647   7.948   2.224
 6715TIP3    H120022   1.683   7.999   2.149
 6715TIP3    H220023   1.550   7.960   2.214
 6716TIP3   OH220024   1.742   8.049   1.988
 6716TIP3    H120025   1.814   7.998   1.946
 6716TIP3    H220026   1.773   8.141   1.971
 6717TIP3   OH220027   0.812   7.802   2.214
 6717TIP3    H120028   0.861   7.853   2.148
 6717TIP3    H220029   0.842   7.843   2.297
 6718TIP3   OH220030   1.370   7.950   2.191
 6718TIP3    H120031   1.354   7.911   2.104
 6718TIP3    H220032   1.349   7.874   2.250
 6719TIP3   OH220033   1.390   7.877   1.763
 6719TIP3    H120034   1.298   7.906   1.761
 6719TIP3    H220035   1.380   7.790   1.807
 6720TIP3   OH220036   0.579   8.053   3.220
 6720TIP3    H120037   0.542   7.988   3.283
 6720TIP3    H220038   0.672   8.055   3.250
 6721TIP3   OH220039   0.825   8.052   3.343
 6721TIP3    H120040   0.911   8.029   3.304
 6721TIP3    H220041   0.814   7.981   3.410
 6722TIP3   OH220042   1.650   8.113   3.130
 6722TIP3    H120043   1.670   8.082   3.221
 6722TIP3    H220044   1.739   8.109   3.088
 6723TIP3   OH220045   1.818   8.548   1.642
 6723TIP3    H120046   1.796   8.634   1.679
 6723TIP3    H220047   1.759   8.490   1.692
 6724TIP3   OH220048   3.665   8.583   1.815
 6724TIP3    H120049   3.695   8.665   1.858
 6724TIP3    H220050   3.687   8.601   1.722
 6725TIP3   OH220051   3.062   8.773   1.849
 6725TIP3    H120052   3.106   8.689   1.872
 6725TIP3    H220053   3.029   8.751   1.760
 6726TIP3   OH220054   2.402   8.423   1.816
 6726TIP3    H120055   2.386   8.498   1.755
 6726TIP3    H220056   2.354   8.352   1.770
 6727TIP3   OH220057   3.097   8.513   1.440
 6727TIP3    H120058   3.171   8.498   1.504
 6727TIP3    H220059   3.148   8.549   1.364
 6728TIP3   OH220060   2.027   8.608   1.929
 6728TIP3    H120061   2.114   8.600   1.973
 6728TIP3    H220062   2.048   8.573   1.841
 6729TIP3   OH220063   2.485   8.826   1.717
 6729TIP3    H120064   2.575   8.790   1.736
 6729TIP3    H220065   2.439   8.750   1.677
 6730TIP3   OH220066   3.748   8.785   1.989
 6730TIP3    H120067   3.669   8.834   1.957
 6730TIP3    H220068   3.755   8.820   2.079
 6731TIP3   OH220069   2.398   8.408   2.250
 6731TIP3    H120070   2.337   8.441   2.181
 6731TIP3    H220071   2.346   8.426   2.331
 6732TIP3   OH220072   3.309   8.518   1.609
 6732TIP3    H120073   3.307   8.469   1.691
 6732TIP3    H220074   3.360   8.598   1.634
 6733TIP3   OH220075   2.269   8.517   2.035
 6733TIP3    H120076   2.329   8.593   2.052
 6733TIP3    H220077   2.317   8.475   1.960
 6734TIP3   OH220078   3.459   8.483   1.980
 6734TIP3    H120079   3.372   8.515   1.950
 6734TIP3    H220080   3.519   8.516   1.910
 6735TIP3   OH220081   2.757   8.128   1.961
 6735TIP3    H120082   2.745   8.033   1.980
 6735TIP3    H220083   2.680   8.165   2.009
 6736TIP3   OH220084   2.640   8.676   0.996
 6736TIP3    H120085   2.729   8.713   1.001
 6736TIP3    H220086   2.639   8.635   0.907
 6737TIP3   OH220087   3.291   8.996   2.088
 6737TIP3    H120088   3.306   9.089   2.067
 6737TIP3    H220089   3.198   8.984   2.058
 6738TIP3   OH220090   3.390   8.072   1.065
 6738TIP3    H120091   3.309   8.092   1.116
 6738TIP3    H220092   3.403   8.155   1.015
 6739TIP3   OH220093   3.532   8.977   2.246
 6739TIP3    H120094   3.440   8.969   2.217
 6739TIP3    H220095   3.552   8.885   2.271
 6740TIP3   OH220096   2.518   8.202   2.092
 6740TIP3    H120097   2.428   8.173   2.067
 6740TIP3    H220098   2.496   8.286   2.136
 6741TIP3   OH220099   3.053   8.319   2.285
 6741TIP3    H120100   3.121   8.291   2.350
 6741TIP3    H220101   2.969   8.301   2.332
 6742TIP3   OH220102   3.290   8.733   2.208
 6742TIP3    H120103   3.244   8.738   2.295
 6742TIP3    H220104   3.274   8.821   2.170
 6743TIP3   OH220105   2.660   8.254   1.061
 6743TIP3    H120106   2.633   8.252   1.154
 6743TIP3    H220107   2.627   8.167   1.032
 6744TIP3   OH220108   2.441   8.721   2.096
 6744TIP3    H120109   2.390   8.738   2.178
 6744TIP3    H220110   2.432   8.804   2.046
 6745TIP3   OH220111   2.334   8.605   1.628
 6745TIP3    H120112   2.241   8.578   1.640
 6745TIP3    H220113   2.352   8.567   1.540
 6746TIP3   OH220114   2.833   8.692   1.353
 6746TIP3    H120115   2.753   8.742   1.325
 6746TIP3    H220116   2.878   8.675   1.268
 6747TIP3   OH220117   3.026   8.947   2.592
 6747TIP3    H120118   2.995   8.854   2.593
 6747TIP3    H220119   3.105   8.937   2.535
 6748TIP3   OH220120   2.972   8.708   1.594
 6748TIP3    H120121   2.914   8.726   1.516
 6748TIP3    H220122   3.016   8.629   1.558
 6749TIP3   OH220123   2.281   8.749   2.343
 6749TIP3    H120124   2.254   8.787   2.428
 6749TIP3    H220125   2.253   8.657   2.357
 6750TIP3   OH220126   2.306   8.227   1.020
 6750TIP3    H120127   2.311   8.221   1.117
 6750TIP3    H220128   2.211   8.208   1.004
 6751TIP3   OH220129   1.860   8.278   1.894
 6751TIP3    H120130   1.935   8.304   1.951
 6751TIP3    H220131   1.901   8.233   1.819
 6752TIP3   OH220132   1.827   8.264   1.412
 6752TIP3    H120133   1.883   8.293   1.339
 6752TIP3    H220134   1.784   8.346   1.439
 6753TIP3   OH220135   3.026   8.964   2.038
 6753TIP3    H120136   3.031   8.898   1.966
 6753TIP3    H220137   2.976   8.911   2.104
 6754TIP3   OH220138   2.659   8.422   1.686
 6754TIP3    H120139   2.578   8.425   1.740
 6754TIP3    H220140   2.728   8.434   1.753
 6755TIP3   OH220141   2.092   8.485   1.687
 6755TIP3    H120142   1.999   8.481   1.658
 6755TIP3    H220143   2.124   8.394   1.673
 6756TIP3   OH220144   2.376   8.473   1.392
 6756TIP3    H120145   2.469   8.496   1.374
 6756TIP3    H220146   2.328   8.514   1.318
 6757TIP3   OH220147   3.149   8.508   1.890
 6757TIP3    H120148   3.112   8.516   1.981
 6757TIP3    H220149   3.088   8.443   1.852
 6758TIP3   OH220150   2.215   8.514   1.175
 6758TIP3    H120151   2.223   8.424   1.142
 6758TIP3    H220152   2.265   8.564   1.106
 6759TIP3   OH220153   2.739   8.736   1.777
 6759TIP3    H120154   2.821   8.718   1.729
 6759TIP3    H220155   2.762   8.718   1.869
 6760TIP3   OH220156   2.263   8.246   1.660
 6760TIP3    H120157   2.233   8.164   1.707
 6760TIP3    H220158   2.324   8.210   1.594
 6761TIP3   OH220159   2.719   8.642   2.083
 6761TIP3    H120160   2.634   8.689   2.074
 6761TIP3    H220161   2.778   8.710   2.124
 6762TIP3   OH220162   2.914   8.363   1.034
 6762TIP3    H120163   2.817   8.346   1.038
 6762TIP3    H220164   2.921   8.459   1.049
 6763TIP3   OH220165   2.985   8.623   1.119
 6763TIP3    H120166   3.076   8.609   1.150
 6763TIP3    H220167   2.995   8.704   1.066
 6764TIP3   OH220168   2.762   8.944   2.525
 6764TIP3    H120169   2.702   9.017   2.507
 6764TIP3    H220170   2.823   8.979   2.593
 6765TIP3   OH220171   3.426   8.685   0.976
 6765TIP3    H120172   3.363   8.645   0.911
 6765TIP3    H220173   3.429   8.775   0.940
 6766TIP3   OH220174   2.238   8.488   2.465
 6766TIP3    H120175   2.141   8.488   2.480
 6766TIP3    H220176   2.269   8.430   2.537
 6767TIP3   OH220177   3.072   8.559   2.150
 6767TIP3    H120178   3.158   8.593   2.181
 6767TIP3    H220179   3.062   8.477   2.203
 6768TIP3   OH220180   2.957   8.307   1.311
 6768TIP3    H120181   2.944   8.331   1.217
 6768TIP3    H220182   2.997   8.388   1.348
 6769TIP3   OH220183   2.655   8.484   1.415
 6769TIP3    H120184   2.723   8.553   1.397
 6769TIP3    H220185   2.658   8.477   1.513
 6770TIP3   OH220186   2.910   8.800   2.218
 6770TIP3    H120187   2.920   8.849   2.301
 6770TIP3    H220188   2.964   8.720   2.233
 6771TIP3   OH220189   2.792   8.213   1.517
 6771TIP3    H120190   2.784   8.289   1.577
 6771TIP3    H220191   2.853   8.250   1.448
 6772TIP3   OH220192   2.305   8.217   1.300
 6772TIP3    H120193   2.312   8.304   1.345
 6772TIP3    H220194   2.398   8.189   1.309
 6773TIP3   OH220195   3.561   8.698   2.205
 6773TIP3    H120196   3.463   8.692   2.212
 6773TIP3    H220197   3.574   8.664   2.115
 6774TIP3   OH220198   3.197   8.885   1.575
 6774TIP3    H120199   3.130   8.821   1.603
 6774TIP3    H220200   3.275   8.860   1.629
 6775TIP3   OH220201   2.253   8.123   2.068
 6775TIP3    H120202   2.222   8.090   1.982
 6775TIP3    H220203   2.243   8.044   2.125
 6776TIP3   OH220204   2.236   9.004   2.675
 6776TIP3    H120205   2.292   8.930   2.702
 6776TIP3    H220206   2.229   9.060   2.755
 6777TIP3   OH220207   2.531   8.882   2.316
 6777TIP3    H120208   2.436   8.862   2.319
 6777TIP3    H220209   2.553   8.871   2.221
 6778TIP3   OH220210   2.367   8.610   0.972
 6778TIP3    H120211   2.365   8.627   0.876
 6778TIP3    H220212   2.459   8.637   0.994
 6779TIP3   OH220213   2.629   8.677   2.497
 6779TIP3    H120214   2.630   8.594   2.445
 6779TIP3    H220215   2.615   8.745   2.429
 6780TIP3   OH220216   2.657   8.473   2.296
 6780TIP3    H120217   2.687   8.521   2.216
 6780TIP3    H220218   2.563   8.453   2.274
 6781TIP3   OH220219   3.369   9.014   2.522
 6781TIP3    H120220   3.377   8.921   2.546
 6781TIP3    H220221   3.329   9.053   2.602
 6782TIP3   OH220222   2.489   8.827   2.699
 6782TIP3    H120223   2.453   8.738   2.717
 6782TIP3    H220224   2.552   8.805   2.627
 6783TIP3   OH220225   2.794   8.245   2.364
 6783TIP3    H120226   2.745   8.327   2.342
 6783TIP3    H220227   2.724   8.178   2.351
 6784TIP3   OH220228   2.915   8.676   2.567
 6784TIP3    H120229   2.897   8.660   2.660
 6784TIP3    H220230   2.833   8.717   2.535
 6785TIP3   OH220231   3.156   8.714   2.442
 6785TIP3    H120232   3.077   8.675   2.486
 6785TIP3    H220233   3.229   8.677   2.496
 6786TIP3   OH220234   3.383   8.640   2.587
 6786TIP3    H120235   3.398   8.545   2.606
 6786TIP3    H220236   3.379   8.680   2.676
 6787TIP3   OH220237   2.371   8.589   2.774
 6787TIP3    H120238   2.382   8.501   2.736
 6787TIP3    H220239   2.409   8.575   2.864
 6788TIP3   OH220240   2.883   8.253   2.623
 6788TIP3    H120241   2.954   8.185   2.616
 6788TIP3    H220242   2.847   8.250   2.532
 6789TIP3   OH220243   2.952   8.466   2.786
 6789TIP3    H120244   2.928   8.398   2.717
 6789TIP3    H220245   2.867   8.519   2.788
 6790TIP3   OH220246   3.261   8.608   0.775
 6790TIP3    H120247   3.221   8.633   0.690
 6790TIP3    H220248   3.235   8.513   0.777
 6791TIP3   OH220249   3.294   8.859   1.322
 6791TIP3    H120250   3.294   8.763   1.332
 6791TIP3    H220251   3.270   8.887   1.413
 6792TIP3   OH220252   3.740   9.140   2.201
 6792TIP3    H120253   3.662   9.085   2.223
 6792TIP3    H220254   3.810   9.072   2.210
 6793TIP3   OH220255   3.199   8.345   0.775
 6793TIP3    H120256   3.278   8.309   0.819
 6793TIP3    H220257   3.131   8.277   0.788
 6794TIP3   OH220258   3.250   8.585   1.216
 6794TIP3    H120259   3.295   8.498   1.230
 6794TIP3    H220260   3.310   8.625   1.151
 6795TIP3   OH220261   3.419   8.767   1.700
 6795TIP3    H120262   3.504   8.795   1.659
 6795TIP3    H220263   3.435   8.804   1.789
 6796TIP3   OH220264   3.498   8.896   1.929
 6796TIP3    H120265   3.424   8.926   1.987
 6796TIP3    H220266   3.548   8.980   1.919
 6797TIP3   OH220267   2.102   8.652   2.749
 6797TIP3    H120268   2.200   8.641   2.746
 6797TIP3    H220269   2.077   8.565   2.787
 6798TIP3   OH220270   3.941   8.504   2.500
 6798TIP3    H120271   4.000   8.438   2.458
 6798TIP3    H220272   3.915   8.560   2.424
 6799TIP3   OH220273   3.370   8.343   1.254
 6799TIP3    H120274   3.418   8.328   1.338
 6799TIP3    H220275   3.309   8.266   1.254
 6800TIP3   OH220276   2.064   8.326   2.077
 6800TIP3    H120277   2.130   8.255   2.086
 6800TIP3    H220278   2.123   8.404   2.067
 6801TIP3   OH220279   1.872   8.613   2.154
 6801TIP3    H120280   1.919   8.602   2.069
 6801TIP3    H220281   1.894   8.705   2.175
 6802TIP3   OH220282   3.816   8.648   2.306
 6802TIP3    H120283   3.727   8.684   2.326
 6802TIP3    H220284   3.789   8.576   2.246
 6803TIP3   OH220285   3.450   8.281   0.885
 6803TIP3    H120286   3.491   8.207   0.834
 6803TIP3    H220287   3.519   8.350   0.879
 6804TIP3   OH220288   1.850   8.118   1.646
 6804TIP3    H120289   1.757   8.107   1.672
 6804TIP3    H220290   1.843   8.171   1.564
 6805TIP3   OH220291   2.074   8.190   2.463
 6805TIP3    H120292   2.023   8.185   2.545
 6805TIP3    H220293   2.008   8.227   2.402
 6806TIP3   OH220294   3.712   8.407   2.184
 6806TIP3    H120295   3.621   8.402   2.150
 6806TIP3    H220296   3.742   8.314   2.172
 6807TIP3   OH220297   2.918   8.323   1.802
 6807TIP3    H120298   2.873   8.253   1.853
 6807TIP3    H220299   2.990   8.274   1.758
 6808TIP3   OH220300   3.440   8.202   1.709
 6808TIP3    H120301   3.477   8.254   1.634
 6808TIP3    H220302   3.345   8.221   1.701
 6809TIP3   OH220303   3.535   8.303   1.473
 6809TIP3    H120304   3.608   8.251   1.432
 6809TIP3    H220305   3.568   8.394   1.457
 6810TIP3   OH220306   2.165   8.031   1.819
 6810TIP3    H120307   2.073   7.997   1.821
 6810TIP3    H220308   2.215   7.947   1.816
 6811TIP3   OH220309   1.955   7.895   1.468
 6811TIP3    H120310   1.987   7.953   1.396
 6811TIP3    H220311   1.920   7.959   1.532
 6812TIP3   OH220312   2.606   8.065   1.700
 6812TIP3    H120313   2.665   8.113   1.640
 6812TIP3    H220314   2.632   8.102   1.786
 6813TIP3   OH220315   3.156   8.209   1.684
 6813TIP3    H120316   3.155   8.173   1.595
 6813TIP3    H220317   3.142   8.129   1.739
 6814TIP3   OH220318   3.185   8.131   1.245
 6814TIP3    H120319   3.098   8.174   1.256
 6814TIP3    H220320   3.171   8.047   1.292
 6815TIP3   OH220321   2.069   8.059   1.245
 6815TIP3    H120322   2.114   7.997   1.184
 6815TIP3    H220323   2.146   8.110   1.278
 6816TIP3   OH220324   2.582   8.234   1.329
 6816TIP3    H120325   2.643   8.189   1.389
 6816TIP3    H220326   2.602   8.327   1.353
 6817TIP3   OH220327   2.372   8.310   2.709
 6817TIP3    H120328   2.340   8.240   2.768
 6817TIP3    H220329   2.467   8.313   2.735
 6818TIP3   OH220330   2.621   8.309   2.828
 6818TIP3    H120331   2.705   8.285   2.787
 6818TIP3    H220332   2.611   8.237   2.895
 6819TIP3   OH220333   3.447   8.370   2.618
 6819TIP3    H120334   3.467   8.338   2.708
 6819TIP3    H220335   3.535   8.365   2.575
 6820TIP3   OH220336   3.629   8.815   1.132
 6820TIP3    H120337   3.586   8.891   1.173
 6820TIP3    H220338   3.554   8.757   1.111
 6821TIP3   OH220339   5.460   8.840   1.301
 6821TIP3    H120340   5.493   8.921   1.344
 6821TIP3    H220341   5.483   8.858   1.208
 6822TIP3   OH220342   4.860   9.022   1.331
 6822TIP3    H120343   4.903   8.937   1.353
 6822TIP3    H220344   4.825   9.001   1.242
 6823TIP3   OH220345   4.200   8.681   1.302
 6823TIP3    H120346   4.181   8.754   1.240
 6823TIP3    H220347   4.152   8.608   1.257
 6824TIP3   OH220348   4.893   8.769   0.925
 6824TIP3    H120349   4.967   8.753   0.988
 6824TIP3    H220350   4.944   8.810   0.851
 6825TIP3   OH220351   3.825   8.868   1.419
 6825TIP3    H120352   3.913   8.854   1.458
 6825TIP3    H220353   3.838   8.832   1.330
 6826TIP3   OH220354   4.284   9.084   1.193
 6826TIP3    H120355   4.371   9.047   1.219
 6826TIP3    H220356   4.236   9.006   1.161
 6827TIP3   OH220357   5.547   9.042   1.473
 6827TIP3    H120358   5.467   9.089   1.443
 6827TIP3    H220359   5.549   9.068   1.566
 6828TIP3   OH220360   4.197   8.666   1.738
 6828TIP3    H120361   4.135   8.696   1.669
 6828TIP3    H220362   4.144   8.682   1.819
 6829TIP3   OH220363   5.103   8.775   1.096
 6829TIP3    H120364   5.101   8.724   1.178
 6829TIP3    H220365   5.155   8.853   1.122
 6830TIP3   OH220366   4.068   8.774   1.521
 6830TIP3    H120367   4.129   8.849   1.538
 6830TIP3    H220368   4.114   8.732   1.445
 6831TIP3   OH220369   5.255   8.744   1.470
 6831TIP3    H120370   5.167   8.769   1.437
 6831TIP3    H220371   5.314   8.774   1.397
 6832TIP3   OH220372   4.554   8.385   1.450
 6832TIP3    H120373   4.541   8.289   1.467
 6832TIP3    H220374   4.476   8.422   1.497
 6833TIP3   OH220375   5.091   9.267   1.577
 6833TIP3    H120376   5.102   9.352   1.531
 6833TIP3    H220377   5.000   9.242   1.547
 6834TIP3   OH220378   5.183   8.340   0.561
 6834TIP3    H120379   5.099   8.339   0.612
 6834TIP3    H220380   5.188   8.433   0.538
 6835TIP3   OH220381   5.314   9.231   1.764
 6835TIP3    H120382   5.233   9.225   1.709
 6835TIP3    H220383   5.341   9.137   1.767
 6836TIP3   OH220384   4.315   8.460   1.578
 6836TIP3    H120385   4.225   8.429   1.553
 6836TIP3    H220386   4.291   8.543   1.623
 6837TIP3   OH220387   4.848   8.577   1.773
 6837TIP3    H120388   4.915   8.547   1.836
 6837TIP3    H220389   4.764   8.555   1.818
 6838TIP3   OH220390   5.091   8.994   1.696
 6838TIP3    H120391   5.041   8.989   1.781
 6838TIP3    H220392   5.058   9.077   1.658
 6839TIP3   OH220393   4.482   8.494   0.547
 6839TIP3    H120394   4.442   8.506   0.634
 6839TIP3    H220395   4.434   8.417   0.514
 6840TIP3   OH220396   4.238   8.983   1.587
 6840TIP3    H120397   4.180   8.992   1.665
 6840TIP3    H220398   4.218   9.061   1.535
 6841TIP3   OH220399   4.131   8.861   1.113
 6841TIP3    H120400   4.038   8.835   1.128
 6841TIP3    H220401   4.144   8.824   1.023
 6842TIP3   OH220402   4.628   8.952   0.836
 6842TIP3    H120403   4.544   9.000   0.818
 6842TIP3    H220404   4.667   8.948   0.748
 6843TIP3   OH220405   4.804   9.213   1.922
 6843TIP3    H120406   4.792   9.137   1.983
 6843TIP3    H220407   4.895   9.241   1.944
 6844TIP3   OH220408   4.769   8.964   1.078
 6844TIP3    H120409   4.710   8.981   1.001
 6844TIP3    H220410   4.814   8.885   1.040
 6845TIP3   OH220411   4.081   9.006   1.831
 6845TIP3    H120412   4.036   9.047   1.906
 6845TIP3    H220413   4.053   8.913   1.845
 6846TIP3   OH220414   4.105   8.478   0.518
 6846TIP3    H120415   4.120   8.477   0.615
 6846TIP3    H220416   4.022   8.527   0.516
 6847TIP3   OH220417   3.657   8.527   1.386
 6847TIP3    H120418   3.731   8.560   1.441
 6847TIP3    H220419   3.701   8.493   1.307
 6848TIP3   OH220420   3.633   8.506   0.903
 6848TIP3    H120421   3.683   8.545   0.829
 6848TIP3    H220422   3.574   8.580   0.927
 6849TIP3   OH220423   4.837   9.208   1.524
 6849TIP3    H120424   4.837   9.142   1.450
 6849TIP3    H220425   4.764   9.171   1.578
 6850TIP3   OH220426   4.457   8.679   1.172
 6850TIP3    H120427   4.373   8.681   1.223
 6850TIP3    H220428   4.523   8.690   1.242
 6851TIP3   OH220429   3.891   8.743   1.178
 6851TIP3    H120430   3.796   8.748   1.153
 6851TIP3    H220431   3.915   8.651   1.158
 6852TIP3   OH220432   4.162   8.736   0.870
 6852TIP3    H120433   4.256   8.754   0.849
 6852TIP3    H220434   4.115   8.760   0.787
 6853TIP3   OH220435   4.947   8.761   1.378
 6853TIP3    H120436   4.909   8.771   1.468
 6853TIP3    H220437   4.885   8.697   1.339
 6854TIP3   OH220438   4.005   8.752   0.639
 6854TIP3    H120439   3.916   8.725   0.611
 6854TIP3    H220440   4.033   8.805   0.564
 6855TIP3   OH220441   4.534   8.992   1.264
 6855TIP3    H120442   4.617   8.971   1.218
 6855TIP3    H220443   4.556   8.977   1.357
 6856TIP3   OH220444   4.063   8.501   1.148
 6856TIP3    H120445   4.031   8.420   1.193
 6856TIP3    H220446   4.114   8.465   1.074
 6857TIP3   OH220447   4.515   8.899   1.569
 6857TIP3    H120448   4.428   8.942   1.562
 6857TIP3    H220449   4.571   8.967   1.611
 6858TIP3   OH220450   4.550   9.230   2.038
 6858TIP3    H120451   4.481   9.283   1.993
 6858TIP3    H220452   4.611   9.210   1.965
 6859TIP3   OH220453   4.033   8.744   1.951
 6859TIP3    H120454   3.937   8.746   1.968
 6859TIP3    H220455   4.064   8.686   2.023
 6860TIP3   OH220456   4.869   8.818   1.639
 6860TIP3    H120457   4.956   8.846   1.672
 6860TIP3    H220458   4.855   8.734   1.688
 6861TIP3   OH220459   4.751   8.572   0.788
 6861TIP3    H120460   4.721   8.610   0.705
 6861TIP3    H220461   4.797   8.648   0.830
 6862TIP3   OH220462   4.449   8.742   0.902
 6862TIP3    H120463   4.518   8.808   0.886
 6862TIP3    H220464   4.450   8.734   0.999
 6863TIP3   OH220465   4.702   9.055   1.707
 6863TIP3    H120466   4.737   9.105   1.783
 6863TIP3    H220467   4.757   8.974   1.708
 6864TIP3   OH220468   4.591   8.472   1.002
 6864TIP3    H120469   4.580   8.549   1.061
 6864TIP3    H220470   4.650   8.510   0.933
 6865TIP3   OH220471   4.101   8.467   0.796
 6865TIP3    H120472   4.099   8.559   0.829
 6865TIP3    H220473   4.197   8.448   0.806
 6866TIP3   OH220474   5.359   8.965   1.689
 6866TIP3    H120475   5.261   8.958   1.699
 6866TIP3    H220476   5.369   8.918   1.604
 6867TIP3   OH220477   4.990   9.144   1.070
 6867TIP3    H120478   4.923   9.078   1.092
 6867TIP3    H220479   5.066   9.115   1.124
 6868TIP3   OH220480   3.665   8.673   0.676
 6868TIP3    H120481   3.656   8.769   0.682
 6868TIP3    H220482   3.579   8.642   0.648
 6869TIP3   OH220483   4.050   8.380   1.555
 6869TIP3    H120484   4.019   8.347   1.468
 6869TIP3    H220485   4.039   8.301   1.612
 6870TIP3   OH220486   4.037   9.266   2.155
 6870TIP3    H120487   4.070   9.184   2.194
 6870TIP3    H220488   4.020   9.323   2.234
 6871TIP3   OH220489   4.331   9.125   1.810
 6871TIP3    H120490   4.237   9.097   1.817
 6871TIP3    H220491   4.348   9.116   1.715
 6872TIP3   OH220492   4.454   8.938   1.984
 6872TIP3    H120493   4.458   8.856   1.930
 6872TIP3    H220494   4.418   9.002   1.919
 6873TIP3   OH220495   4.456   8.735   1.786
 6873TIP3    H120496   4.483   8.780   1.703
 6873TIP3    H220497   4.362   8.713   1.767
 6874TIP3   OH220498   5.076   9.251   2.034
 6874TIP3    H120499   5.093   9.157   2.053
 6874TIP3    H220500   5.164   9.280   2.008
 6875TIP3   OH220501   4.320   9.070   2.204
 6875TIP3    H120502   4.260   8.993   2.212
 6875TIP3    H220503   4.366   9.050   2.120
 6876TIP3   OH220504   4.589   8.502   1.850
 6876TIP3    H120505   4.540   8.584   1.827
 6876TIP3    H220506   4.520   8.434   1.838
 6877TIP3   OH220507   4.722   8.992   2.066
 6877TIP3    H120508   4.709   8.990   2.162
 6877TIP3    H220509   4.629   8.977   2.038
 6878TIP3   OH220510   4.959   8.957   1.927
 6878TIP3    H120511   4.879   8.948   1.984
 6878TIP3    H220512   5.030   8.921   1.985
 6879TIP3   OH220513   5.187   8.899   2.077
 6879TIP3    H120514   5.198   8.803   2.093
 6879TIP3    H220515   5.181   8.936   2.167
 6880TIP3   OH220516   4.168   8.846   2.258
 6880TIP3    H120517   4.175   8.755   2.223
 6880TIP3    H220518   4.205   8.834   2.348
 6881TIP3   OH220519   4.682   8.513   2.108
 6881TIP3    H120520   4.750   8.442   2.102
 6881TIP3    H220521   4.643   8.507   2.018
 6882TIP3   OH220522   4.749   8.728   2.267
 6882TIP3    H120523   4.726   8.657   2.202
 6882TIP3    H220524   4.671   8.787   2.260
 6883TIP3   OH220525   5.113   9.118   0.829
 6883TIP3    H120526   5.108   9.021   0.827
 6883TIP3    H220527   5.079   9.138   0.919
 6884TIP3   OH220528   5.524   9.388   1.692
 6884TIP3    H120529   5.450   9.331   1.719
 6884TIP3    H220530   5.598   9.324   1.696
 6885TIP3   OH220531   5.068   8.856   0.731
 6885TIP3    H120532   5.101   8.764   0.740
 6885TIP3    H220533   5.105   8.880   0.646
 6886TIP3   OH220534   5.216   9.025   1.188
 6886TIP3    H120535   5.299   9.053   1.145
 6886TIP3    H220536   5.234   9.060   1.278
 6887TIP3   OH220537   5.295   9.154   1.419
 6887TIP3    H120538   5.220   9.184   1.472
 6887TIP3    H220539   5.344   9.238   1.404
 6888TIP3   OH220540   3.901   8.908   2.232
 6888TIP3    H120541   3.998   8.895   2.231
 6888TIP3    H220542   3.874   8.823   2.272
 6889TIP3   OH220543   5.735   8.760   1.986
 6889TIP3    H120544   5.796   8.694   1.945
 6889TIP3    H220545   5.712   8.816   1.910
 6890TIP3   OH220546   5.147   8.598   0.748
 6890TIP3    H120547   5.207   8.586   0.823
 6890TIP3    H220548   5.092   8.518   0.754
 6891TIP3   OH220549   3.861   8.584   1.565
 6891TIP3    H120550   3.927   8.512   1.572
 6891TIP3    H220551   3.920   8.661   1.554
 6892TIP3   OH220552   3.667   8.868   1.641
 6892TIP3    H120553   3.715   8.859   1.556
 6892TIP3    H220554   3.685   8.960   1.662
 6893TIP3   OH220555   5.611   8.905   1.790
 6893TIP3    H120556   5.521   8.939   1.806
 6893TIP3    H220557   5.589   8.829   1.733
 6894TIP3   OH220558   3.651   8.366   1.134
 6894TIP3    H120559   3.557   8.363   1.160
 6894TIP3    H220560   3.649   8.423   1.055
 6895TIP3   OH220561   3.871   8.447   1.950
 6895TIP3    H120562   3.820   8.442   2.032
 6895TIP3    H220563   3.805   8.484   1.889
 6896TIP3   OH220564   5.507   8.663   1.671
 6896TIP3    H120565   5.416   8.654   1.638
 6896TIP3    H220566   5.540   8.571   1.660
 6897TIP3   OH220567   4.717   8.580   1.293
 6897TIP3    H120568   4.669   8.511   1.342
 6897TIP3    H220569   4.785   8.529   1.245
 6898TIP3   OH220570   5.236   8.461   1.195
 6898TIP3    H120571   5.271   8.513   1.120
 6898TIP3    H220572   5.140   8.476   1.188
 6899TIP3   OH220573   5.328   8.564   0.959
 6899TIP3    H120574   5.401   8.511   0.920
 6899TIP3    H220575   5.361   8.655   0.942
 6900TIP3   OH220576   3.961   8.288   1.307
 6900TIP3    H120577   3.869   8.254   1.307
 6900TIP3    H220578   4.011   8.203   1.303
 6901TIP3   OH220579   3.746   8.156   0.953
 6901TIP3    H120580   3.778   8.213   0.881
 6901TIP3    H220581   3.719   8.222   1.020
 6902TIP3   OH220582   4.403   8.320   1.187
 6902TIP3    H120583   4.462   8.369   1.127
 6902TIP3    H220584   4.426   8.359   1.272
 6903TIP3   OH220585   4.955   8.466   1.170
 6903TIP3    H120586   4.948   8.429   1.080
 6903TIP3    H220587   4.940   8.385   1.225
 6904TIP3   OH220588   4.975   8.383   0.738
 6904TIP3    H120589   4.887   8.424   0.740
 6904TIP3    H220590   4.959   8.299   0.785
 6905TIP3   OH220591   3.864   8.316   0.723
 6905TIP3    H120592   3.910   8.252   0.664
 6905TIP3    H220593   3.940   8.368   0.756
 6906TIP3   OH220594   4.376   8.492   0.815
 6906TIP3    H120595   4.437   8.444   0.873
 6906TIP3    H220596   4.399   8.584   0.841
 6907TIP3   OH220597   4.169   8.569   2.198
 6907TIP3    H120598   4.135   8.498   2.255
 6907TIP3    H220599   4.263   8.570   2.224
 6908TIP3   OH220600   4.418   8.566   2.316
 6908TIP3    H120601   4.502   8.541   2.276
 6908TIP3    H220602   4.406   8.495   2.383
 6909TIP3   OH220603   5.243   8.628   2.104
 6909TIP3    H120604   5.262   8.595   2.195
 6909TIP3    H220605   5.331   8.622   2.061
 6910TIP3   OH220606   5.620   9.124   0.887
 6910TIP3    H120607   5.704   9.117   0.936
 6910TIP3    H220608   5.637   9.066   0.812
 6911TIP3   OH220609   5.991   8.925   1.222
 6911TIP3    H120610   5.930   8.952   1.151
 6911TIP3    H220611   5.937   8.941   1.302
 6912TIP3   OH220612   5.865   9.029   0.995
 6912TIP3    H120613   5.926   9.101   1.023
 6912TIP3    H220614   5.899   9.016   0.904
 6913TIP3   OH220615   6.361   8.625   0.959
 6913TIP3    H120616   6.326   8.537   0.981
 6913TIP3    H220617   6.282   8.681   0.972
 6914TIP3   OH220618   6.107   8.714   1.066
 6914TIP3    H120619   6.015   8.686   1.046
 6914TIP3    H220620   6.089   8.800   1.108
 6915TIP3   OH220621   6.645   8.837   1.257
 6915TIP3    H120622   6.709   8.808   1.325
 6915TIP3    H220623   6.559   8.816   1.300
 6916TIP3   OH220624   6.900   9.268   1.185
 6916TIP3    H120625   6.852   9.251   1.270
 6916TIP3    H220626   6.839   9.327   1.140
 6917TIP3   OH220627   6.025   9.236   1.068
 6917TIP3    H120628   5.980   9.251   1.152
 6917TIP3    H220629   6.037   9.325   1.031
 6918TIP3   OH220630   6.602   9.475   1.409
 6918TIP3    H120631   6.585   9.398   1.468
 6918TIP3    H220632   6.695   9.494   1.431
 6919TIP3   OH220633   5.873   9.265   1.318
 6919TIP3    H120634   5.836   9.302   1.399
 6919TIP3    H220635   5.847   9.171   1.331
 6920TIP3   OH220636   5.462   8.784   0.871
 6920TIP3    H120637   5.529   8.816   0.936
 6920TIP3    H220638   5.517   8.742   0.804
 6921TIP3   OH220639   6.307   9.149   1.077
 6921TIP3    H120640   6.231   9.196   1.040
 6921TIP3    H220641   6.370   9.221   1.097
 6922TIP3   OH220642   6.346   9.484   1.524
 6922TIP3    H120643   6.275   9.536   1.481
 6922TIP3    H220644   6.399   9.456   1.448
 6923TIP3   OH220645   5.829   9.003   1.438
 6923TIP3    H120646   5.732   9.002   1.453
 6923TIP3    H220647   5.860   8.943   1.508
 6924TIP3   OH220648   6.661   9.092   1.141
 6924TIP3    H120649   6.754   9.099   1.161
 6924TIP3    H220650   6.640   9.001   1.170
 6925TIP3   OH220651   6.499   9.314   1.197
 6925TIP3    H120652   6.545   9.358   1.271
 6925TIP3    H220653   6.552   9.233   1.184
 6926TIP3   OH220654   7.170   9.204   1.155
 6926TIP3    H120655   7.079   9.228   1.182
 6926TIP3    H220656   7.166   9.217   1.060
 6927TIP3   OH220657   5.842   8.638   1.047
 6927TIP3    H120658   5.811   8.604   0.959
 6927TIP3    H220659   5.834   8.557   1.102
 6928TIP3   OH220660   5.830   9.521   1.644
 6928TIP3    H120661   5.871   9.442   1.682
 6928TIP3    H220662   5.816   9.578   1.722
 6929TIP3   OH220663   6.125   9.381   1.296
 6929TIP3    H120664   6.031   9.358   1.295
 6929TIP3    H220665   6.152   9.380   1.202
 6930TIP3   OH220666   6.250   9.194   1.471
 6930TIP3    H120667   6.254   9.111   1.419
 6930TIP3    H220668   6.214   9.256   1.404
 6931TIP3   OH220669   6.249   8.985   1.284
 6931TIP3    H120670   6.279   9.036   1.204
 6931TIP3    H220671   6.156   8.966   1.259
 6932TIP3   OH220672   6.879   9.508   1.529
 6932TIP3    H120673   6.890   9.412   1.543
 6932TIP3    H220674   6.964   9.528   1.487
 6933TIP3   OH220675   6.112   9.328   1.687
 6933TIP3    H120676   6.055   9.250   1.698
 6933TIP3    H220677   6.162   9.306   1.606
 6934TIP3   OH220678   6.388   8.756   1.336
 6934TIP3    H120679   6.337   8.839   1.316
 6934TIP3    H220680   6.319   8.689   1.323
 6935TIP3   OH220681   6.519   9.251   1.551
 6935TIP3    H120682   6.505   9.246   1.647
 6935TIP3    H220683   6.427   9.234   1.522
 6936TIP3   OH220684   6.760   9.221   1.413
 6936TIP3    H120685   6.679   9.206   1.465
 6936TIP3    H220686   6.829   9.181   1.471
 6937TIP3   OH220687   6.975   9.151   1.566
 6937TIP3    H120688   6.989   9.056   1.584
 6937TIP3    H220689   6.977   9.190   1.656
 6938TIP3   OH220690   5.964   9.103   1.745
 6938TIP3    H120691   5.971   9.013   1.709
 6938TIP3    H220692   6.001   9.090   1.835
 6939TIP3   OH220693   6.479   8.770   1.594
 6939TIP3    H120694   6.545   8.698   1.588
 6939TIP3    H220695   6.439   8.764   1.505
 6940TIP3   OH220696   6.546   8.985   1.752
 6940TIP3    H120697   6.523   8.914   1.689
 6940TIP3    H220698   6.468   9.044   1.746
 6941TIP3   OH220699   5.696   9.166   1.724
 6941TIP3    H120700   5.793   9.154   1.720
 6941TIP3    H220701   5.671   9.079   1.760
 6942TIP3   OH220702   7.517   9.026   1.457
 6942TIP3    H120703   7.567   8.942   1.445
 6942TIP3    H220704   7.483   9.042   1.368
 6943TIP3   OH220705   5.660   8.845   1.052
 6943TIP3    H120706   5.720   8.768   1.060
 6943TIP3    H220707   5.724   8.916   1.038
 6944TIP3   OH220708   5.466   9.124   1.124
 6944TIP3    H120709   5.511   9.116   1.037
 6944TIP3    H220710   5.487   9.216   1.147
 6945TIP3   OH220711   5.668   8.706   1.438
 6945TIP3    H120712   5.615   8.697   1.519
 6945TIP3    H220713   5.601   8.740   1.376
 6946TIP3   OH220714   7.320   8.917   1.167
 6946TIP3    H120715   7.228   8.913   1.136
 6946TIP3    H220716   7.353   8.827   1.143
 6947TIP3   OH220717   5.752   8.542   0.808
 6947TIP3    H120718   5.663   8.505   0.795
 6947TIP3    H220719   5.806   8.462   0.790
 6948TIP3   OH220720   5.964   8.827   1.686
 6948TIP3    H120721   5.932   8.754   1.742
 6948TIP3    H220722   6.059   8.827   1.711
 6949TIP3   OH220723   6.214   8.823   1.803
 6949TIP3    H120724   6.298   8.797   1.763
 6949TIP3    H220725   6.202   8.753   1.870
 6950TIP3   OH220726   7.038   8.882   1.592
 6950TIP3    H120727   7.058   8.851   1.683
 6950TIP3    H220728   7.126   8.876   1.549
 6951TIP3   OH220729   1.761   0.212   6.067
 6951TIP3    H120730   1.698   0.175   6.130
 6951TIP3    H220731   1.787   0.295   6.112
 6952TIP3   OH220732   1.403   0.650   6.083
 6952TIP3    H120733   1.436   0.575   6.029
 6952TIP3    H220734   1.412   0.615   6.173
 6953TIP3   OH220735   1.816   0.442   6.240
 6953TIP3    H120736   1.732   0.446   6.288
 6953TIP3    H220737   1.820   0.532   6.200
 6954TIP3   OH220738   1.529   0.491   5.890
 6954TIP3    H120739   1.577   0.406   5.879
 6954TIP3    H220740   1.597   0.555   5.862
 6955TIP3   OH220741   1.655   0.256   5.812
 6955TIP3    H120742   1.685   0.183   5.753
 6955TIP3    H220743   1.704   0.237   5.894
 6956TIP3   OH220744   2.083   0.355   6.576
 6956TIP3    H120745   2.039   0.277   6.537
 6956TIP3    H220746   2.047   0.429   6.523
 6957TIP3   OH220747   2.276   0.006   6.426
 6957TIP3    H120748   2.180   0.021   6.439
 6957TIP3    H220749   2.286   0.025   6.331
 6958TIP3   OH220750   1.856   0.298   5.227
 6958TIP3    H120751   1.863   0.395   5.217
 6958TIP3    H220752   1.949   0.270   5.220
 6959TIP3   OH220753   2.298   0.701   6.624
 6959TIP3    H120754   2.299   0.605   6.639
 6959TIP3    H220755   2.215   0.725   6.672
 6960TIP3   OH220756   1.174   0.626   5.698
 6960TIP3    H120757   1.112   0.608   5.626
 6960TIP3    H220758   1.139   0.709   5.736
 6961TIP3   OH220759   1.371   0.518   5.357
 6961TIP3    H120760   1.432   0.450   5.320
 6961TIP3    H220761   1.404   0.526   5.449
 6962TIP3   OH220762   1.427   0.572   5.625
 6962TIP3    H120763   1.335   0.578   5.661
 6962TIP3    H220764   1.478   0.558   5.706
 6963TIP3   OH220765   1.985   1.050   6.725
 6963TIP3    H120766   1.984   1.073   6.630
 6963TIP3    H220767   2.060   1.102   6.758
 6964TIP3   OH220768   2.016   0.132   6.414
 6964TIP3    H120769   2.064   0.183   6.345
 6964TIP3    H220770   1.924   0.143   6.386
 6965TIP3   OH220771   2.324   0.418   6.666
 6965TIP3    H120772   2.226   0.408   6.664
 6965TIP3    H220773   2.345   0.383   6.577
 6966TIP3   OH220774   1.802   0.367   5.496
 6966TIP3    H120775   1.762   0.299   5.550
 6966TIP3    H220776   1.804   0.326   5.407
 6967TIP3   OH220777   1.575   0.107   5.391
 6967TIP3    H120778   1.605   0.077   5.478
 6967TIP3    H220779   1.477   0.100   5.401
 6968TIP3   OH220780   1.831   0.736   6.560
 6968TIP3    H120781   1.745   0.691   6.556
 6968TIP3    H220782   1.816   0.809   6.497
 6969TIP3   OH220783   1.889   0.574   5.218
 6969TIP3    H120784   1.926   0.648   5.168
 6969TIP3    H220785   1.808   0.618   5.252
 6970TIP3   OH220786   1.717   0.039   5.638
 6970TIP3    H120787   1.703  -0.045   5.684
 6970TIP3    H220788   1.811   0.030   5.613
 6971TIP3   OH220789   1.843   0.707   6.157
 6971TIP3    H120790   1.800   0.756   6.083
 6971TIP3    H220791   1.937   0.729   6.138
 6972TIP3   OH220792   1.810   0.590   6.886
 6972TIP3    H120793   1.717   0.582   6.915
 6972TIP3    H220794   1.841   0.663   6.941
 6973TIP3   OH220795   1.531   0.336   5.229
 6973TIP3    H120796   1.565   0.262   5.283
 6973TIP3    H220797   1.585   0.328   5.148
 6974TIP3   OH220798   1.895  -0.165   5.231
 6974TIP3    H120799   1.853  -0.216   5.159
 6974TIP3    H220800   1.848  -0.079   5.220
 6975TIP3   OH220801   2.094   0.805   6.115
 6975TIP3    H120802   2.121   0.835   6.204
 6975TIP3    H220803   2.156   0.852   6.057
 6976TIP3   OH220804   2.128   0.825   6.396
 6976TIP3    H120805   2.082   0.738   6.392
 6976TIP3    H220806   2.199   0.801   6.458
 6977TIP3   OH220807   2.189   0.497   6.961
 6977TIP3    H120808   2.110   0.500   7.018
 6977TIP3    H220809   2.221   0.589   6.969
 6978TIP3   OH220810   1.989   0.014   5.593
 6978TIP3    H120811   2.058   0.077   5.564
 6978TIP3    H220812   2.032  -0.027   5.672
 6979TIP3   OH220813   2.112  -0.115   5.806
 6979TIP3    H120814   2.041  -0.096   5.870
 6979TIP3    H220815   2.191  -0.076   5.851
 6980TIP3   OH220816   2.167   0.270   6.228
 6980TIP3    H120817   2.223   0.207   6.180
 6980TIP3    H220818   2.162   0.346   6.166
 6981TIP3   OH220819   2.003   0.575   6.420
 6981TIP3    H120820   1.936   0.621   6.476
 6981TIP3    H220821   1.947   0.528   6.355
 6982TIP3   OH220822   2.059  -0.208   5.439
 6982TIP3    H120823   1.993  -0.195   5.366
 6982TIP3    H220824   2.029  -0.138   5.500
 6983TIP3   OH220825   2.226   0.170   6.800
 6983TIP3    H120826   2.290   0.096   6.786
 6983TIP3    H220827   2.243   0.229   6.725
 6984TIP3   OH220828   2.395  -0.046   6.814
 6984TIP3    H120829   2.332  -0.114   6.840
 6984TIP3    H220830   2.480  -0.086   6.834
 6985TIP3   OH220831   1.686   0.671   5.771
 6985TIP3    H120832   1.736   0.661   5.688
 6985TIP3    H220833   1.734   0.742   5.816
 6986TIP3   OH220834   1.579   0.928   6.678
 6986TIP3    H120835   1.627   0.844   6.672
 6986TIP3    H220836   1.625   0.970   6.754
 6987TIP3   OH220837   1.337   0.788   6.368
 6987TIP3    H120838   1.243   0.781   6.345
 6987TIP3    H220839   1.336   0.871   6.421
 6988TIP3   OH220840   1.584   0.713   6.432
 6988TIP3    H120841   1.493   0.735   6.402
 6988TIP3    H220842   1.632   0.792   6.402
 6989TIP3   OH220843   1.781   0.908   6.350
 6989TIP3    H120844   1.762   0.992   6.302
 6989TIP3    H220845   1.802   0.848   6.276
 6990TIP3   OH220846   1.106   0.498   5.428
 6990TIP3    H120847   1.200   0.524   5.413
 6990TIP3    H220848   1.106   0.416   5.377
 6991TIP3   OH220849   1.828   0.637   5.538
 6991TIP3    H120850   1.820   0.539   5.525
 6991TIP3    H220851   1.780   0.670   5.459
 6992TIP3   OH220852   2.056   0.782   6.730
 6992TIP3    H120853   1.977   0.740   6.691
 6992TIP3    H220854   2.027   0.876   6.731
 6993TIP3   OH220855   3.322   0.151   5.488
 6993TIP3    H120856   3.296   0.244   5.476
 6993TIP3    H220857   3.239   0.107   5.465
 6994TIP3   OH220858   3.319   0.150   5.871
 6994TIP3    H120859   3.352   0.126   5.959
 6994TIP3    H220860   3.272   0.068   5.846
 6995TIP3   OH220861   2.616   0.052   6.234
 6995TIP3    H120862   2.651  -0.011   6.300
 6995TIP3    H220863   2.688   0.117   6.233
 6996TIP3   OH220864   3.559   0.447   5.555
 6996TIP3    H120865   3.547   0.389   5.631
 6996TIP3    H220866   3.594   0.528   5.597
 6997TIP3   OH220867   2.587   0.458   5.965
 6997TIP3    H120868   2.579   0.360   5.968
 6997TIP3    H220869   2.684   0.467   5.961
 6998TIP3   OH220870   2.288  -0.347   5.756
 6998TIP3    H120871   2.253  -0.258   5.775
 6998TIP3    H220872   2.209  -0.387   5.717
 6999TIP3   OH220873   2.359  -0.053   5.911
 6999TIP3    H120874   2.407  -0.127   5.956
 6999TIP3    H220875   2.427  -0.018   5.852
 7000TIP3   OH220876   3.208   0.918   5.573
 7000TIP3    H120877   3.255   0.848   5.523
 7000TIP3    H220878   3.206   0.880   5.662
 7001TIP3   OH220879   3.116   0.378   5.925
 7001TIP3    H120880   3.154   0.303   5.875
 7001TIP3    H220881   3.200   0.424   5.948
 7002TIP3   OH220882   3.534  -0.109   5.956
 7002TIP3    H120883   3.558  -0.196   5.991
 7002TIP3    H220884   3.501  -0.131   5.867
 7003TIP3   OH220885   2.503  -0.256   6.025
 7003TIP3    H120886   2.578  -0.283   6.083
 7003TIP3    H220887   2.522  -0.313   5.948
 7004TIP3   OH220888   2.943  -0.058   5.822
 7004TIP3    H120889   3.033  -0.091   5.838
 7004TIP3    H220890   2.897  -0.140   5.792
 7005TIP3   OH220891   4.174  -0.119   6.111
 7005TIP3    H120892   4.113  -0.047   6.086
 7005TIP3    H220893   4.225  -0.081   6.185
 7006TIP3   OH220894   3.211   0.373   5.361
 7006TIP3    H120895   3.162   0.356   5.280
 7006TIP3    H220896   3.170   0.458   5.390
 7007TIP3   OH220897   2.974   0.295   6.159
 7007TIP3    H120898   2.909   0.360   6.194
 7007TIP3    H220899   3.014   0.346   6.085
 7008TIP3   OH220900   2.743  -0.356   6.128
 7008TIP3    H120901   2.805  -0.284   6.150
 7008TIP3    H220902   2.780  -0.391   6.046
 7009TIP3   OH220903   2.797   0.490   6.248
 7009TIP3    H120904   2.772   0.576   6.209
 7009TIP3    H220905   2.718   0.475   6.305
 7010TIP3   OH220906   2.193   0.182   5.486
 7010TIP3    H120907   2.150   0.210   5.403
 7010TIP3    H220908   2.223   0.268   5.522
 7011TIP3   OH220909   3.632   0.696   5.728
 7011TIP3    H120910   3.541   0.690   5.764
 7011TIP3    H220911   3.627   0.779   5.677
 7012TIP3   OH220912   3.333   0.747   5.398
 7012TIP3    H120913   3.383   0.665   5.375
 7012TIP3    H220914   3.394   0.813   5.357
 7013TIP3   OH220915   3.469   0.529   5.304
 7013TIP3    H120916   3.423   0.450   5.274
 7013TIP3    H220917   3.514   0.498   5.385
 7014TIP3   OH220918   3.858   0.611   6.069
 7014TIP3    H120919   3.847   0.535   6.007
 7014TIP3    H220920   3.840   0.687   6.010
 7015TIP3   OH220921   3.147   0.002   5.322
 7015TIP3    H120922   3.065   0.054   5.308
 7015TIP3    H220923   3.185   0.003   5.233
 7016TIP3   OH220924   3.103  -0.205   5.044
 7016TIP3    H120925   3.179  -0.165   5.090
 7016TIP3    H220926   3.148  -0.278   4.997
 7017TIP3   OH220927   4.052   0.244   5.913
 7017TIP3    H120928   3.970   0.298   5.918
 7017TIP3    H220929   4.083   0.269   5.823
 7018TIP3   OH220930   3.505   0.086   5.298
 7018TIP3    H120931   3.441   0.113   5.369
 7018TIP3    H220932   3.578   0.053   5.355
 7019TIP3   OH220933   3.729   0.132   6.205
 7019TIP3    H120934   3.727   0.216   6.256
 7019TIP3    H220935   3.645   0.141   6.155
 7020TIP3   OH220936   2.730   0.086   5.713
 7020TIP3    H120937   2.688   0.028   5.646
 7020TIP3    H220938   2.806   0.030   5.742
 7021TIP3   OH220939   2.859   0.498   5.862
 7021TIP3    H120940   2.838   0.453   5.779
 7021TIP3    H220941   2.949   0.464   5.882
 7022TIP3   OH220942   2.873   0.052   6.070
 7022TIP3    H120943   2.901   0.032   5.979
 7022TIP3    H220944   2.914   0.139   6.088
 7023TIP3   OH220945   3.387   0.695   5.843
 7023TIP3    H120946   3.376   0.776   5.897
 7023TIP3    H220947   3.374   0.623   5.908
 7024TIP3   OH220948   3.002   0.615   6.390
 7024TIP3    H120949   2.943   0.676   6.439
 7024TIP3    H220950   2.936   0.560   6.342
 7025TIP3   OH220951   3.348  -0.069   5.126
 7025TIP3    H120952   3.397  -0.003   5.179
 7025TIP3    H220953   3.368  -0.039   5.034
 7026TIP3   OH220954   2.742   0.178   6.487
 7026TIP3    H120955   2.750   0.262   6.537
 7026TIP3    H220956   2.649   0.154   6.508
 7027TIP3   OH220957   3.081   0.626   5.398
 7027TIP3    H120958   3.161   0.679   5.414
 7027TIP3    H220959   3.019   0.692   5.362
 7028TIP3   OH220960   2.796   0.784   6.478
 7028TIP3    H120961   2.762   0.779   6.387
 7028TIP3    H220962   2.717   0.761   6.532
 7029TIP3   OH220963   2.596  -0.065   5.516
 7029TIP3    H120964   2.525  -0.028   5.459
 7029TIP3    H220965   2.566  -0.155   5.531
 7030TIP3   OH220966   3.653   0.553   4.715
 7030TIP3    H120967   3.659   0.651   4.705
 7030TIP3    H220968   3.747   0.528   4.704
 7031TIP3   OH220969   2.380   0.311   6.422
 7031TIP3    H120970   2.308   0.290   6.360
 7031TIP3    H220971   2.411   0.222   6.449
 7032TIP3   OH220972   2.229   0.504   6.059
 7032TIP3    H120973   2.325   0.499   6.050
 7032TIP3    H220974   2.218   0.584   6.113
 7033TIP3   OH220975   4.097   0.957   6.115
 7033TIP3    H120976   4.092   0.861   6.126
 7033TIP3    H220977   4.013   0.984   6.159
 7034TIP3   OH220978   3.201   0.743   6.248
 7034TIP3    H120979   3.200   0.835   6.281
 7034TIP3    H220980   3.129   0.703   6.303
 7035TIP3   OH220981   2.959   0.871   5.201
 7035TIP3    H120982   2.916   0.855   5.115
 7035TIP3    H220983   2.929   0.961   5.224
 7036TIP3   OH220984   2.399   0.722   5.584
 7036TIP3    H120985   2.448   0.712   5.669
 7036TIP3    H220986   2.339   0.645   5.590
 7037TIP3   OH220987   3.162   0.771   4.840
 7037TIP3    H120988   3.222   0.702   4.805
 7037TIP3    H220989   3.197   0.783   4.931
 7038TIP3   OH220990   3.211   0.821   5.110
 7038TIP3    H120991   3.125   0.829   5.156
 7038TIP3    H220992   3.268   0.784   5.179
 7039TIP3   OH220993   3.987   0.081   6.405
 7039TIP3    H120994   3.916   0.121   6.352
 7039TIP3    H220995   4.007  -0.000   6.357
 7040TIP3   OH220996   2.582   0.497   6.415
 7040TIP3    H120997   2.631   0.478   6.497
 7040TIP3    H220998   2.508   0.432   6.421
 7041TIP3   OH220999   3.649  -0.055   6.397
 7041TIP3    H121000   3.708  -0.130   6.385
 7041TIP3    H221001   3.674   0.006   6.325
 7042TIP3   OH221002   3.423  -0.013   4.869
 7042TIP3    H121003   3.380  -0.037   4.785
 7042TIP3    H221004   3.485   0.055   4.838
 7043TIP3   OH221005   2.920  -0.169   6.222
 7043TIP3    H121006   2.863  -0.147   6.299
 7043TIP3    H221007   2.906  -0.089   6.166
 7044TIP3   OH221008   2.783  -0.257   5.724
 7044TIP3    H121009   2.707  -0.309   5.756
 7044TIP3    H221010   2.806  -0.306   5.642
 7045TIP3   OH221011   3.292  -0.189   5.456
 7045TIP3    H121012   3.237  -0.117   5.417
 7045TIP3    H221013   3.335  -0.225   5.376
 7046TIP3   OH221014   3.457   0.131   6.506
 7046TIP3    H121015   3.434   0.085   6.590
 7046TIP3    H221016   3.553   0.118   6.508
 7047TIP3   OH221017   3.449  -0.164   5.696
 7047TIP3    H121018   3.388  -0.131   5.627
 7047TIP3    H221019   3.472  -0.250   5.658
 7048TIP3   OH221020   2.741  -0.127   6.425
 7048TIP3    H121021   2.742  -0.065   6.499
 7048TIP3    H221022   2.685  -0.198   6.458
 7049TIP3   OH221023   3.458   0.090   6.121
 7049TIP3    H121024   3.486   0.014   6.065
 7049TIP3    H221025   3.426   0.044   6.201
 7050TIP3   OH221026   2.554  -0.404   5.798
 7050TIP3    H121027   2.461  -0.385   5.773
 7050TIP3    H221028   2.562  -0.498   5.777
 7051TIP3   OH221029   2.841  -0.388   5.487
 7051TIP3    H121030   2.927  -0.409   5.448
 7051TIP3    H221031   2.781  -0.392   5.411
 7052TIP3   OH221032   2.658  -0.370   5.267
 7052TIP3    H121033   2.601  -0.421   5.206
 7052TIP3    H221034   2.720  -0.331   5.202
 7053TIP3   OH221035   3.784   1.307   6.212
 7053TIP3    H121036   3.783   1.330   6.117
 7053TIP3    H221037   3.863   1.356   6.243
 7054TIP3   OH221038   2.745   0.417   6.633
 7054TIP3    H121039   2.824   0.446   6.682
 7054TIP3    H221040   2.679   0.416   6.706
 7055TIP3   OH221041   3.211  -0.125   5.895
 7055TIP3    H121042   3.267  -0.184   5.843
 7055TIP3    H221043   3.206  -0.174   5.980
 7056TIP3   OH221044   3.188  -0.242   6.192
 7056TIP3    H121045   3.100  -0.203   6.200
 7056TIP3    H221046   3.242  -0.185   6.250
 7057TIP3   OH221047   2.921   0.157   5.275
 7057TIP3    H121048   2.848   0.093   5.264
 7057TIP3    H221049   2.902   0.192   5.365
 7058TIP3   OH221050   3.821   0.391   5.907
 7058TIP3    H121051   3.848   0.441   5.826
 7058TIP3    H221052   3.734   0.353   5.879
 7059TIP3   OH221053   3.320   0.478   6.271
 7059TIP3    H121054   3.342   0.456   6.362
 7059TIP3    H221055   3.281   0.566   6.278
 7060TIP3   OH221056   3.445  -0.310   5.232
 7060TIP3    H121057   3.541  -0.293   5.233
 7060TIP3    H221058   3.412  -0.235   5.179
 7061TIP3   OH221059   2.612   0.178   5.950
 7061TIP3    H121060   2.653   0.150   5.865
 7061TIP3    H221061   2.649   0.114   6.013
 7062TIP3   OH221062   3.065   0.307   5.094
 7062TIP3    H121063   3.017   0.393   5.099
 7062TIP3    H221064   3.011   0.252   5.155
 7063TIP3   OH221065   2.493   0.099   6.567
 7063TIP3    H121066   2.503   0.081   6.662
 7063TIP3    H221067   2.416   0.043   6.542
 7064TIP3   OH221068   3.208   0.225   6.580
 7064TIP3    H121069   3.143   0.163   6.541
 7064TIP3    H221070   3.290   0.201   6.530
 7065TIP3   OH221071   3.480   0.732   6.168
 7065TIP3    H121072   3.384   0.734   6.179
 7065TIP3    H221073   3.509   0.786   6.245
 7066TIP3   OH221074   4.108   0.661   6.159
 7066TIP3    H121075   4.010   0.660   6.148
 7066TIP3    H221076   4.134   0.635   6.068
 7067TIP3   OH221077   3.557   0.630   4.974
 7067TIP3    H121078   3.595   0.595   5.056
 7067TIP3    H221079   3.602   0.581   4.903
 7068TIP3   OH221080   3.585   0.256   5.824
 7068TIP3    H121081   3.492   0.230   5.836
 7068TIP3    H221082   3.619   0.177   5.777
 7069TIP3   OH221083   2.712   0.482   5.573
 7069TIP3    H121084   2.714   0.565   5.520
 7069TIP3    H221085   2.618   0.469   5.585
 7070TIP3   OH221086   2.273  -0.213   5.271
 7070TIP3    H121087   2.323  -0.132   5.293
 7070TIP3    H221088   2.201  -0.208   5.337
 7071TIP3   OH221089   2.854   0.250   5.519
 7071TIP3    H121090   2.817   0.339   5.537
 7071TIP3    H221091   2.817   0.198   5.593
 7072TIP3   OH221092   2.982   0.829   6.044
 7072TIP3    H121093   3.024   0.900   5.992
 7072TIP3    H221094   3.058   0.794   6.093
 7073TIP3   OH221095   2.633   0.723   5.427
 7073TIP3    H121096   2.547   0.731   5.473
 7073TIP3    H221097   2.664   0.816   5.430
 7074TIP3   OH221098   3.371   0.460   6.002
 7074TIP3    H121099   3.362   0.461   6.100
 7074TIP3    H221100   3.454   0.412   5.990
 7075TIP3   OH221101   3.340   0.342   4.883
 7075TIP3    H121102   3.394   0.325   4.963
 7075TIP3    H221103   3.251   0.331   4.918
 7076TIP3   OH221104   3.618   0.997   6.053
 7076TIP3    H121105   3.539   0.942   6.043
 7076TIP3    H221106   3.605   1.063   5.981
 7077TIP3   OH221107   3.683   0.830   4.704
 7077TIP3    H121108   3.726   0.905   4.660
 7077TIP3    H221109   3.602   0.875   4.736
 7078TIP3   OH221110   3.502   0.271   5.094
 7078TIP3    H121111   3.494   0.224   5.180
 7078TIP3    H221112   3.594   0.298   5.094
 7079TIP3   OH221113   2.422   0.691   6.203
 7079TIP3    H121114   2.473   0.614   6.234
 7079TIP3    H221115   2.447   0.757   6.268
 7080TIP3   OH221116   2.711   0.335   4.883
 7080TIP3    H121117   2.727   0.243   4.857
 7080TIP3    H221118   2.693   0.325   4.979
 7081TIP3   OH221119   2.658   0.340   5.156
 7081TIP3    H121120   2.726   0.313   5.219
 7081TIP3    H221121   2.661   0.438   5.163
 7082TIP3   OH221122   2.389   0.032   5.358
 7082TIP3    H121123   2.325   0.077   5.416
 7082TIP3    H221124   2.406   0.103   5.293
 7083TIP3   OH221125   2.922   0.537   5.103
 7083TIP3    H121126   2.836   0.564   5.141
 7083TIP3    H221127   2.942   0.613   5.048
 7084TIP3   OH221128   3.137  -0.407   5.521
 7084TIP3    H121129   3.176  -0.319   5.503
 7084TIP3    H221130   3.089  -0.392   5.604
 7085TIP3   OH221131   3.374  -0.094   6.347
 7085TIP3    H121132   3.378  -0.015   6.404
 7085TIP3    H221133   3.465  -0.126   6.356
 7086TIP3   OH221134   2.664   0.612   5.173
 7086TIP3    H121135   2.635   0.683   5.110
 7086TIP3    H221136   2.649   0.656   5.259
 7087TIP3   OH221137   3.672   0.019   5.692
 7087TIP3    H121138   3.599  -0.042   5.712
 7087TIP3    H221139   3.747  -0.023   5.741
 7088TIP3   OH221140   2.383   0.246   5.166
 7088TIP3    H121141   2.447   0.318   5.176
 7088TIP3    H221142   2.431   0.192   5.099
 7089TIP3   OH221143   2.302  -0.502   5.284
 7089TIP3    H121144   2.353  -0.419   5.282
 7089TIP3    H221145   2.222  -0.472   5.328
 7090TIP3   OH221146   3.640   0.971   5.647
 7090TIP3    H121147   3.597   1.017   5.572
 7090TIP3    H221148   3.734   0.990   5.626
 7091TIP3   OH221149   2.255   0.455   5.554
 7091TIP3    H121150   2.183   0.488   5.610
 7091TIP3    H221151   2.231   0.496   5.468
 7092TIP3   OH221152   2.410   0.996   6.622
 7092TIP3    H121153   2.496   0.990   6.669
 7092TIP3    H221154   2.384   0.902   6.621
 7093TIP3   OH221155   2.893   0.968   6.665
 7093TIP3    H121156   2.986   0.945   6.677
 7093TIP3    H221157   2.869   0.906   6.593
 7094TIP3   OH221158   2.873   0.540   4.796
 7094TIP3    H121159   2.818   0.469   4.836
 7094TIP3    H221160   2.950   0.488   4.768
 7095TIP3   OH221161   3.532   0.870   6.402
 7095TIP3    H121162   3.523   0.801   6.471
 7095TIP3    H221163   3.609   0.921   6.433
 7096TIP3   OH221164   3.310   0.579   4.707
 7096TIP3    H121165   3.365   0.532   4.772
 7096TIP3    H221166   3.369   0.583   4.629
 7097TIP3   OH221167   2.548   0.409   6.823
 7097TIP3    H121168   2.556   0.314   6.840
 7097TIP3    H221169   2.459   0.414   6.782
 7098TIP3   OH221170   2.518   0.057   5.017
 7098TIP3    H121171   2.571   0.023   5.092
 7098TIP3    H221172   2.588   0.062   4.948
 7099TIP3   OH221173   3.149   0.493   6.599
 7099TIP3    H121174   3.107   0.504   6.512
 7099TIP3    H221175   3.178   0.399   6.597
 7100TIP3   OH221176   3.024   0.256   4.825
 7100TIP3    H121177   3.029   0.270   4.922
 7100TIP3    H221178   3.026   0.158   4.822
 7101TIP3   OH221179   3.643   0.496   6.205
 7101TIP3    H121180   3.716   0.542   6.160
 7101TIP3    H221181   3.571   0.561   6.194
 7102TIP3   OH221182   2.657   0.125   6.812
 7102TIP3    H121183   2.738   0.076   6.793
 7102TIP3    H221184   2.681   0.165   6.899
 7103TIP3   OH221185   2.727  -0.039   5.242
 7103TIP3    H121186   2.701  -0.080   5.326
 7103TIP3    H221187   2.762  -0.116   5.192
 7104TIP3   OH221188   2.992   0.074   6.455
 7104TIP3    H121189   2.905   0.119   6.465
 7104TIP3    H221190   3.015   0.093   6.362
 7105TIP3   OH221191   2.825  -0.247   5.084
 7105TIP3    H121192   2.800  -0.247   4.990
 7105TIP3    H221193   2.923  -0.241   5.077
 7106TIP3   OH221194   3.513   0.430   6.608
 7106TIP3    H121195   3.585   0.397   6.554
 7106TIP3    H221196   3.506   0.362   6.677
 7107TIP3   OH221197   3.661   0.081   4.750
 7107TIP3    H121198   3.635   0.038   4.665
 7107TIP3    H221199   3.631   0.172   4.729
 7108TIP3   OH221200   3.105  -0.124   6.595
 7108TIP3    H121201   3.084  -0.207   6.547
 7108TIP3    H221202   3.067  -0.057   6.535
 7109TIP3   OH221203   3.182   0.137   6.243
 7109TIP3    H121204   3.256   0.162   6.187
 7109TIP3    H221205   3.116   0.207   6.222
 7110TIP3   OH221206   3.734   0.108   6.665
 7110TIP3    H121207   3.780   0.024   6.657
 7110TIP3    H221208   3.796   0.171   6.627
 7111TIP3   OH221209   3.776   0.350   6.388
 7111TIP3    H121210   3.715   0.405   6.333
 7111TIP3    H221211   3.862   0.377   6.349
 7112TIP3   OH221212   2.970  -0.052   6.829
 7112TIP3    H121213   2.908  -0.127   6.826
 7112TIP3    H221214   3.026  -0.070   6.751
 7113TIP3   OH221215   3.424  -0.021   6.717
 7113TIP3    H121216   3.374  -0.039   6.798
 7113TIP3    H221217   3.440  -0.110   6.684
 7114TIP3   OH221218   2.634   0.814   4.984
 7114TIP3    H121219   2.730   0.811   4.967
 7114TIP3    H221220   2.605   0.865   4.906
 7115TIP3   OH221221   2.116   0.199   5.202
 7115TIP3    H121222   2.210   0.222   5.190
 7115TIP3    H221223   2.112   0.110   5.161
 7116TIP3   OH221224   2.030   0.810   5.614
 7116TIP3    H121225   1.962   0.748   5.579
 7116TIP3    H221226   2.073   0.752   5.681
 7117TIP3   OH221227   2.166   0.662   5.802
 7117TIP3    H121228   2.154   0.588   5.864
 7117TIP3    H221229   2.216   0.724   5.858
 7118TIP3   OH221230   3.892   1.063   5.598
 7118TIP3    H121231   3.927   1.102   5.679
 7118TIP3    H221232   3.961   1.087   5.533
 7119TIP3   OH221233   3.920   1.084   5.887
 7119TIP3    H121234   3.880   0.996   5.877
 7119TIP3    H221235   4.000   1.061   5.937
 7120TIP3   OH221236   3.970   0.756   6.460
 7120TIP3    H121237   3.895   0.767   6.522
 7120TIP3    H221238   4.010   0.845   6.461
 7121TIP3   OH221239   3.788   0.233   5.066
 7121TIP3    H121240   3.830   0.313   5.029
 7121TIP3    H221241   3.830   0.235   5.155
 7122TIP3   OH221242   3.904   0.120   5.277
 7122TIP3    H121243   3.848   0.092   5.352
 7122TIP3    H221244   3.978   0.167   5.323
 7123TIP3   OH221245   3.961   0.521   5.716
 7123TIP3    H121246   4.012   0.466   5.654
 7123TIP3    H221247   3.966   0.609   5.672
 7124TIP3   OH221248   3.798   0.829   5.912
 7124TIP3    H121249   3.726   0.876   5.959
 7124TIP3    H221250   3.749   0.783   5.840
 7125TIP3   OH221251   3.725  -0.228   4.896
 7125TIP3    H121252   3.681  -0.203   4.814
 7125TIP3    H221253   3.712  -0.324   4.897
 7126TIP3   OH221254   3.727  -0.022   5.433
 7126TIP3    H121255   3.728  -0.116   5.454
 7126TIP3    H221256   3.711   0.014   5.524
 7127TIP3   OH221257   2.351   0.074   6.164
 7127TIP3    H121258   2.353   0.043   6.071
 7127TIP3    H221259   2.447   0.072   6.186
 7128TIP3   OH221260   4.020   0.415   6.283
 7128TIP3    H121261   4.094   0.352   6.268
 7128TIP3    H221262   4.041   0.488   6.223
 7129TIP3   OH221263   4.204   0.209   6.294
 7129TIP3    H121264   4.137   0.166   6.350
 7129TIP3    H221265   4.286   0.171   6.329
 7130TIP3   OH221266   3.719  -0.284   5.265
 7130TIP3    H121267   3.722  -0.341   5.345
 7130TIP3    H221268   3.808  -0.249   5.270
 7131TIP3   OH221269   3.889  -0.084   5.820
 7131TIP3    H121270   3.979  -0.072   5.783
 7131TIP3    H221271   3.905  -0.062   5.913
 7132TIP3   OH221272   3.950   0.038   6.067
 7132TIP3    H121273   3.867   0.080   6.099
 7132TIP3    H221274   3.986   0.110   6.010
 7133TIP3   OH221275   2.366  -0.288   6.265
 7133TIP3    H121276   2.400  -0.279   6.174
 7133TIP3    H221277   2.350  -0.198   6.292
 7134TIP3   OH221278   3.474   0.930   5.258
 7134TIP3    H121279   3.528   0.909   5.179
 7134TIP3    H221280   3.535   0.986   5.308
 7135TIP3   OH221281   2.576   0.736   6.648
 7135TIP3    H121282   2.486   0.704   6.628
 7135TIP3    H221283   2.587   0.707   6.740
 7136TIP3   OH221284   2.755   0.762   6.193
 7136TIP3    H121285   2.706   0.837   6.154
 7136TIP3    H221286   2.842   0.777   6.149
 7137TIP3   OH221287   3.202   1.009   6.330
 7137TIP3    H121288   3.244   1.008   6.419
 7137TIP3    H221289   3.269   1.059   6.278
 7138TIP3   OH221290   3.380   1.160   6.189
 7138TIP3    H121291   3.450   1.110   6.145
 7138TIP3    H221292   3.432   1.217   6.249
 7139TIP3   OH221293   2.432   1.024   6.213
 7139TIP3    H121294   2.344   1.059   6.190
 7139TIP3    H221295   2.434   1.045   6.307
 7140TIP3   OH221296   2.669   1.000   6.073
 7140TIP3    H121297   2.583   1.014   6.118
 7140TIP3    H221298   2.649   1.033   5.983
 7141TIP3   OH221299   3.094   1.029   5.872
 7141TIP3    H121300   3.026   1.050   5.805
 7141TIP3    H221301   3.107   1.117   5.913
 7142TIP3   OH221302   3.363   0.968   5.924
 7142TIP3    H121303   3.269   0.986   5.903
 7142TIP3    H221304   3.408   1.042   5.880
 7143TIP3   OH221305   3.569   1.160   5.838
 7143TIP3    H121306   3.556   1.245   5.791
 7143TIP3    H221307   3.598   1.101   5.766
 7144TIP3   OH221308   2.344   0.815   5.961
 7144TIP3    H121309   2.370   0.789   6.052
 7144TIP3    H221310   2.416   0.771   5.910
 7145TIP3   OH221311   2.537   0.686   5.817
 7145TIP3    H121312   2.553   0.602   5.866
 7145TIP3    H221313   2.627   0.723   5.813
 7146TIP3   OH221314   2.802   0.782   5.820
 7146TIP3    H121315   2.835   0.691   5.808
 7146TIP3    H221316   2.846   0.804   5.904
 7147TIP3   OH221317   2.133   0.585   5.352
 7147TIP3    H121318   2.047   0.553   5.318
 7147TIP3    H221319   2.121   0.681   5.337
 7148TIP3   OH221320   2.903   0.777   4.935
 7148TIP3    H121321   2.992   0.798   4.900
 7148TIP3    H221322   2.881   0.702   4.875
 7149TIP3   OH221323   3.615   0.899   5.022
 7149TIP3    H121324   3.611   0.801   5.016
 7149TIP3    H221325   3.570   0.924   4.939
 7150TIP3   OH221326   2.206   0.612   4.991
 7150TIP3    H121327   2.204   0.640   5.084
 7150TIP3    H221328   2.296   0.573   4.982
 7151TIP3   OH221329   3.849   1.038   6.215
 7151TIP3    H121330   3.770   1.007   6.166
 7151TIP3    H221331   3.831   1.134   6.217
 7152TIP3   OH221332   5.114   0.408   4.982
 7152TIP3    H121333   5.089   0.501   4.963
 7152TIP3    H221334   5.035   0.362   4.949
 7153TIP3   OH221335   5.115   0.409   5.359
 7153TIP3    H121336   5.146   0.378   5.445
 7153TIP3    H221337   5.069   0.330   5.325
 7154TIP3   OH221338   4.415   0.308   5.727
 7154TIP3    H121339   4.454   0.246   5.791
 7154TIP3    H221340   4.488   0.371   5.715
 7155TIP3   OH221341   5.357   0.709   5.043
 7155TIP3    H121342   5.343   0.644   5.113
 7155TIP3    H221343   5.385   0.787   5.094
 7156TIP3   OH221344   4.387   0.714   5.449
 7156TIP3    H121345   4.376   0.618   5.457
 7156TIP3    H221346   4.484   0.722   5.443
 7157TIP3   OH221347   4.092  -0.089   5.227
 7157TIP3    H121348   4.070   0.003   5.248
 7157TIP3    H221349   4.025  -0.137   5.276
 7158TIP3   OH221350   4.148   0.191   5.386
 7158TIP3    H121351   4.202   0.127   5.438
 7158TIP3    H221352   4.217   0.248   5.348
 7159TIP3   OH221353   5.003   1.171   5.057
 7159TIP3    H121354   5.053   1.103   5.009
 7159TIP3    H221355   5.003   1.136   5.147
 7160TIP3   OH221356   4.912   0.633   5.412
 7160TIP3    H121357   4.951   0.560   5.362
 7160TIP3    H221358   4.996   0.680   5.435
 7161TIP3   OH221359   5.323   0.144   5.445
 7161TIP3    H121360   5.360   0.059   5.470
 7161TIP3    H221361   5.296   0.129   5.353
 7162TIP3   OH221362   4.297  -0.005   5.513
 7162TIP3    H121363   4.376  -0.027   5.567
 7162TIP3    H221364   4.319  -0.058   5.434
 7163TIP3   OH221365   4.739   0.199   5.312
 7163TIP3    H121366   4.831   0.167   5.325
 7163TIP3    H221367   4.694   0.117   5.283
 7164TIP3   OH221368   5.974   0.140   5.596
 7164TIP3    H121369   5.912   0.211   5.573
 7164TIP3    H221370   6.019   0.174   5.676
 7165TIP3   OH221371   5.005   0.629   4.852
 7165TIP3    H121372   4.965   0.614   4.766
 7165TIP3    H221373   4.965   0.716   4.876
 7166TIP3   OH221374   4.768   0.552   5.645
 7166TIP3    H121375   4.704   0.618   5.680
 7166TIP3    H221376   4.808   0.602   5.571
 7167TIP3   OH221377   4.536  -0.094   5.611
 7167TIP3    H121378   4.602  -0.028   5.639
 7167TIP3    H221379   4.581  -0.140   5.539
 7168TIP3   OH221380   4.593   0.747   5.734
 7168TIP3    H121381   4.569   0.832   5.694
 7168TIP3    H221382   4.513   0.734   5.791
 7169TIP3   OH221383   3.982   0.433   4.972
 7169TIP3    H121384   3.949   0.477   4.892
 7169TIP3    H221385   4.004   0.510   5.028
 7170TIP3   OH221386   5.428   0.953   5.211
 7170TIP3    H121387   5.338   0.947   5.250
 7170TIP3    H221388   5.423   1.039   5.165
 7171TIP3   OH221389   5.135   1.006   4.881
 7171TIP3    H121390   5.184   0.924   4.859
 7171TIP3    H221391   5.198   1.073   4.845
 7172TIP3   OH221392   5.271   0.785   4.792
 7172TIP3    H121393   5.234   0.706   4.751
 7172TIP3    H221394   5.307   0.749   4.876
 7173TIP3   OH221395   5.654   0.867   5.556
 7173TIP3    H121396   5.642   0.792   5.494
 7173TIP3    H221397   5.635   0.943   5.497
 7174TIP3   OH221398   4.944   0.259   4.811
 7174TIP3    H121399   4.865   0.313   4.790
 7174TIP3    H221400   4.992   0.261   4.727
 7175TIP3   OH221401   4.904   0.041   4.539
 7175TIP3    H121402   4.972   0.096   4.582
 7175TIP3    H221403   4.962  -0.014   4.483
 7176TIP3   OH221404   5.848   0.502   5.401
 7176TIP3    H121405   5.765   0.554   5.405
 7176TIP3    H221406   5.878   0.526   5.311
 7177TIP3   OH221407   5.292   0.343   4.784
 7177TIP3    H121408   5.238   0.369   4.863
 7177TIP3    H221409   5.376   0.316   4.827
 7178TIP3   OH221410   5.525   0.389   5.690
 7178TIP3    H121411   5.523   0.474   5.737
 7178TIP3    H221412   5.441   0.396   5.639
 7179TIP3   OH221413   4.526   0.342   5.201
 7179TIP3    H121414   4.486   0.284   5.133
 7179TIP3    H221415   4.602   0.288   5.230
 7180TIP3   OH221416   4.654   0.750   5.350
 7180TIP3    H121417   4.635   0.713   5.263
 7180TIP3    H221418   4.745   0.718   5.367
 7181TIP3   OH221419   4.663   0.311   5.556
 7181TIP3    H121420   4.696   0.288   5.467
 7181TIP3    H221421   4.708   0.396   5.575
 7182TIP3   OH221422   5.187   0.951   5.331
 7182TIP3    H121423   5.172   1.032   5.383
 7182TIP3    H221424   5.171   0.880   5.396
 7183TIP3   OH221425   4.798   0.869   5.879
 7183TIP3    H121426   4.739   0.933   5.924
 7183TIP3    H221427   4.732   0.817   5.828
 7184TIP3   OH221428   5.134   0.197   4.610
 7184TIP3    H121429   5.195   0.253   4.664
 7184TIP3    H221430   5.162   0.222   4.519
 7185TIP3   OH221431   4.541   0.432   5.978
 7185TIP3    H121432   4.547   0.518   6.025
 7185TIP3    H221433   4.445   0.412   5.989
 7186TIP3   OH221434   4.878   0.883   4.885
 7186TIP3    H121435   4.956   0.939   4.902
 7186TIP3    H221436   4.815   0.946   4.847
 7187TIP3   OH221437   4.594   1.039   5.965
 7187TIP3    H121438   4.560   1.038   5.874
 7187TIP3    H221439   4.514   1.016   6.017
 7188TIP3   OH221440   4.396   0.189   4.997
 7188TIP3    H121441   4.324   0.231   4.946
 7188TIP3    H221442   4.357   0.104   5.020
 7189TIP3   OH221443   5.448   0.810   4.200
 7189TIP3    H121444   5.455   0.907   4.191
 7189TIP3    H221445   5.542   0.783   4.190
 7190TIP3   OH221446   4.171   0.570   5.913
 7190TIP3    H121447   4.109   0.555   5.839
 7190TIP3    H221448   4.206   0.481   5.931
 7191TIP3   OH221449   4.043   0.750   5.593
 7191TIP3    H121450   4.093   0.745   5.511
 7191TIP3    H221451   3.997   0.834   5.584
 7192TIP3   OH221452   5.893   1.214   5.602
 7192TIP3    H121453   5.889   1.117   5.613
 7192TIP3    H221454   5.809   1.240   5.645
 7193TIP3   OH221455   4.998   0.998   5.736
 7193TIP3    H121456   4.997   1.091   5.767
 7193TIP3    H221457   4.926   0.960   5.790
 7194TIP3   OH221458   4.755   1.127   4.688
 7194TIP3    H121459   4.712   1.111   4.602
 7194TIP3    H221460   4.726   1.217   4.710
 7195TIP3   OH221461   4.196   0.980   5.068
 7195TIP3    H121462   4.237   0.968   5.157
 7195TIP3    H221463   4.154   0.892   5.057
 7196TIP3   OH221464   4.957   1.027   4.328
 7196TIP3    H121465   5.018   0.959   4.291
 7196TIP3    H221466   4.994   1.040   4.418
 7197TIP3   OH221467   5.009   1.077   4.598
 7197TIP3    H121468   4.922   1.086   4.643
 7197TIP3    H221469   5.064   1.042   4.670
 7198TIP3   OH221470   5.783   0.339   5.891
 7198TIP3    H121471   5.711   0.376   5.837
 7198TIP3    H221472   5.802   0.255   5.847
 7199TIP3   OH221473   4.380   0.751   5.903
 7199TIP3    H121474   4.427   0.733   5.987
 7199TIP3    H221475   4.303   0.690   5.909
 7200TIP3   OH221476   5.449   0.206   5.890
 7200TIP3    H121477   5.494   0.124   5.870
 7200TIP3    H221478   5.469   0.262   5.813
 7201TIP3   OH221479   5.209   0.245   4.352
 7201TIP3    H121480   5.178   0.223   4.262
 7201TIP3    H221481   5.284   0.303   4.332
 7202TIP3   OH221482   4.715   0.089   5.709
 7202TIP3    H121483   4.656   0.111   5.784
 7202TIP3    H221484   4.701   0.167   5.651
 7203TIP3   OH221485   4.577   0.001   5.212
 7203TIP3    H121486   4.503  -0.050   5.249
 7203TIP3    H221487   4.601  -0.054   5.135
 7204TIP3   OH221488   5.088   0.066   4.943
 7204TIP3    H121489   5.035   0.138   4.902
 7204TIP3    H221490   5.138   0.033   4.866
 7205TIP3   OH221491   5.262   0.397   6.005
 7205TIP3    H121492   5.238   0.343   6.084
 7205TIP3    H221493   5.356   0.372   5.998
 7206TIP3   OH221494   5.245   0.093   5.184
 7206TIP3    H121495   5.187   0.127   5.113
 7206TIP3    H221496   5.276   0.012   5.143
 7207TIP3   OH221497   4.535   0.129   5.911
 7207TIP3    H121498   4.545   0.190   5.985
 7207TIP3    H221499   4.491   0.053   5.949
 7208TIP3   OH221500   5.255   0.344   5.612
 7208TIP3    H121501   5.282   0.270   5.552
 7208TIP3    H221502   5.217   0.295   5.686
 7209TIP3   OH221503   4.354  -0.150   5.285
 7209TIP3    H121504   4.264  -0.133   5.250
 7209TIP3    H221505   4.363  -0.245   5.270
 7210TIP3   OH221506   4.635  -0.138   4.973
 7210TIP3    H121507   4.725  -0.107   4.952
 7210TIP3    H221508   4.579  -0.106   4.900
 7211TIP3   OH221509   4.459  -0.115   4.753
 7211TIP3    H121510   4.396  -0.163   4.696
 7211TIP3    H221511   4.510  -0.068   4.684
 7212TIP3   OH221512   5.581   1.563   5.699
 7212TIP3    H121513   5.577   1.586   5.604
 7212TIP3    H221514   5.657   1.615   5.729
 7213TIP3   OH221515   4.538   0.670   6.123
 7213TIP3    H121516   4.618   0.703   6.168
 7213TIP3    H221517   4.474   0.676   6.197
 7214TIP3   OH221518   5.006   0.130   5.380
 7214TIP3    H121519   5.069   0.081   5.326
 7214TIP3    H221520   5.005   0.078   5.462
 7215TIP3   OH221521   4.981   0.010   5.690
 7215TIP3    H121522   4.895   0.055   5.686
 7215TIP3    H221523   5.036   0.074   5.739
 7216TIP3   OH221524   4.717   0.413   4.761
 7216TIP3    H121525   4.642   0.351   4.750
 7216TIP3    H221526   4.699   0.449   4.852
 7217TIP3   OH221527   5.617   0.648   5.392
 7217TIP3    H121528   5.643   0.699   5.312
 7217TIP3    H221529   5.531   0.609   5.366
 7218TIP3   OH221530   5.117   0.733   5.758
 7218TIP3    H121531   5.133   0.712   5.850
 7218TIP3    H221532   5.078   0.822   5.762
 7219TIP3   OH221533   5.229  -0.044   4.728
 7219TIP3    H121534   5.327  -0.039   4.737
 7219TIP3    H221535   5.212   0.028   4.665
 7220TIP3   OH221536   4.401   0.422   5.437
 7220TIP3    H121537   4.444   0.406   5.351
 7220TIP3    H221538   4.456   0.368   5.496
 7221TIP3   OH221539   4.861   0.563   4.580
 7221TIP3    H121540   4.814   0.650   4.586
 7221TIP3    H221541   4.807   0.510   4.642
 7222TIP3   OH221542   4.284   0.354   6.051
 7222TIP3    H121543   4.306   0.340   6.145
 7222TIP3    H221544   4.211   0.291   6.037
 7223TIP3   OH221545   5.004   0.485   6.065
 7223TIP3    H121546   4.939   0.423   6.028
 7223TIP3    H221547   5.088   0.451   6.030
 7224TIP3   OH221548   5.277   0.987   5.656
 7224TIP3    H121549   5.181   0.990   5.666
 7224TIP3    H221550   5.305   1.043   5.731
 7225TIP3   OH221551   5.688   0.061   4.562
 7225TIP3    H121552   5.630   0.013   4.499
 7225TIP3    H221553   5.685   0.149   4.520
 7226TIP3   OH221554   5.904   0.918   5.645
 7226TIP3    H121555   5.806   0.916   5.635
 7226TIP3    H221556   5.930   0.891   5.554
 7227TIP3   OH221557   5.366   0.872   4.459
 7227TIP3    H121558   5.364   0.806   4.529
 7227TIP3    H221559   5.397   0.824   4.380
 7228TIP3   OH221560   5.383   0.511   5.314
 7228TIP3    H121561   5.288   0.487   5.323
 7228TIP3    H221562   5.416   0.433   5.265
 7229TIP3   OH221563   4.507   0.738   5.060
 7229TIP3    H121564   4.508   0.821   5.008
 7229TIP3    H221565   4.412   0.726   5.072
 7230TIP3   OH221566   4.059   0.048   4.771
 7230TIP3    H121567   4.127   0.117   4.787
 7230TIP3    H221568   3.979   0.101   4.782
 7231TIP3   OH221569   4.648   0.506   5.006
 7231TIP3    H121570   4.612   0.595   5.022
 7231TIP3    H221571   4.612   0.457   5.082
 7232TIP3   OH221572   4.778   1.085   5.530
 7232TIP3    H121573   4.818   1.158   5.479
 7232TIP3    H221574   4.856   1.052   5.579
 7233TIP3   OH221575   4.429   0.979   4.914
 7233TIP3    H121576   4.343   0.987   4.961
 7233TIP3    H221577   4.460   1.072   4.917
 7234TIP3   OH221578   5.166   0.717   5.489
 7234TIP3    H121579   5.159   0.718   5.587
 7234TIP3    H221580   5.249   0.667   5.476
 7235TIP3   OH221581   5.140   0.603   4.372
 7235TIP3    H121582   5.193   0.583   4.452
 7235TIP3    H221583   5.050   0.587   4.405
 7236TIP3   OH221584   5.416   1.254   5.538
 7236TIP3    H121585   5.335   1.199   5.529
 7236TIP3    H221586   5.402   1.319   5.466
 7237TIP3   OH221587   5.481   1.086   4.193
 7237TIP3    H121588   5.522   1.161   4.147
 7237TIP3    H221589   5.400   1.132   4.226
 7238TIP3   OH221590   5.301   0.542   4.589
 7238TIP3    H121591   5.292   0.477   4.661
 7238TIP3    H221592   5.398   0.542   4.577
 7239TIP3   OH221593   4.226   0.970   5.692
 7239TIP3    H121594   4.240   0.875   5.703
 7239TIP3    H221595   4.269   1.007   5.769
 7240TIP3   OH221596   4.507   0.592   4.371
 7240TIP3    H121597   4.523   0.500   4.343
 7240TIP3    H221598   4.490   0.581   4.466
 7241TIP3   OH221599   4.455   0.595   4.643
 7241TIP3    H121600   4.524   0.573   4.706
 7241TIP3    H221601   4.455   0.694   4.649
 7242TIP3   OH221602   4.185   0.288   4.845
 7242TIP3    H121603   4.122   0.337   4.902
 7242TIP3    H221604   4.203   0.357   4.778
 7243TIP3   OH221605   4.718   0.793   4.592
 7243TIP3    H121606   4.632   0.822   4.628
 7243TIP3    H221607   4.738   0.868   4.533
 7244TIP3   OH221608   4.922  -0.143   4.993
 7244TIP3    H121609   4.975  -0.062   4.983
 7244TIP3    H221610   4.900  -0.142   5.088
 7245TIP3   OH221611   5.167   0.165   5.844
 7245TIP3    H121612   5.178   0.246   5.896
 7245TIP3    H221613   5.258   0.132   5.844
 7246TIP3   OH221614   4.459   0.868   4.659
 7246TIP3    H121615   4.431   0.939   4.597
 7246TIP3    H221616   4.444   0.912   4.746
 7247TIP3   OH221617   5.467   0.275   5.183
 7247TIP3    H121618   5.396   0.211   5.196
 7247TIP3    H221619   5.543   0.232   5.229
 7248TIP3   OH221620   4.178   0.499   4.653
 7248TIP3    H121621   4.236   0.576   4.667
 7248TIP3    H221622   4.229   0.452   4.585
 7249TIP3   OH221623   4.100  -0.249   4.773
 7249TIP3    H121624   4.149  -0.167   4.788
 7249TIP3    H221625   4.010  -0.217   4.783
 7250TIP3   OH221626   5.438   1.221   5.134
 7250TIP3    H121627   5.392   1.275   5.066
 7250TIP3    H221628   5.531   1.241   5.110
 7251TIP3   OH221629   4.083   0.729   5.031
 7251TIP3    H121630   4.017   0.719   5.104
 7251TIP3    H221631   4.024   0.760   4.960
 7252TIP3   OH221632   4.207   1.255   6.112
 7252TIP3    H121633   4.293   1.254   6.159
 7252TIP3    H221634   4.186   1.160   6.111
 7253TIP3   OH221635   4.689   1.221   6.158
 7253TIP3    H121636   4.784   1.203   6.163
 7253TIP3    H221637   4.664   1.163   6.083
 7254TIP3   OH221638   4.670   0.797   4.284
 7254TIP3    H121639   4.615   0.725   4.322
 7254TIP3    H221640   4.746   0.746   4.252
 7255TIP3   OH221641   5.330   1.126   5.887
 7255TIP3    H121642   5.319   1.058   5.958
 7255TIP3    H221643   5.406   1.179   5.920
 7256TIP3   OH221644   5.106   0.836   4.193
 7256TIP3    H121645   5.159   0.783   4.255
 7256TIP3    H221646   5.164   0.841   4.115
 7257TIP3   OH221647   4.338   0.660   6.314
 7257TIP3    H121648   4.353   0.564   6.315
 7257TIP3    H221649   4.250   0.665   6.269
 7258TIP3   OH221650   4.315   0.310   4.504
 7258TIP3    H121651   4.373   0.283   4.578
 7258TIP3    H221652   4.382   0.318   4.433
 7259TIP3   OH221653   4.947   0.752   6.086
 7259TIP3    H121654   4.903   0.766   6.000
 7259TIP3    H221655   4.973   0.657   6.082
 7260TIP3   OH221656   4.821   0.511   4.312
 7260TIP3    H121657   4.826   0.525   4.408
 7260TIP3    H221658   4.820   0.413   4.307
 7261TIP3   OH221659   5.439   0.753   5.693
 7261TIP3    H121660   5.512   0.800   5.647
 7261TIP3    H221661   5.367   0.817   5.682
 7262TIP3   OH221662   4.452   0.387   6.299
 7262TIP3    H121663   4.531   0.337   6.274
 7262TIP3    H221664   4.480   0.424   6.385
 7263TIP3   OH221665   4.520   0.216   4.725
 7263TIP3    H121666   4.497   0.180   4.813
 7263TIP3    H221667   4.561   0.140   4.680
 7264TIP3   OH221668   4.793   0.334   5.939
 7264TIP3    H121669   4.706   0.378   5.948
 7264TIP3    H221670   4.820   0.357   5.848
 7265TIP3   OH221671   4.627   0.004   4.575
 7265TIP3    H121672   4.596   0.011   4.482
 7265TIP3    H221673   4.724   0.013   4.563
 7266TIP3   OH221674   5.317   0.690   6.095
 7266TIP3    H121675   5.387   0.664   6.034
 7266TIP3    H221676   5.290   0.606   6.132
 7267TIP3   OH221677   5.448   0.340   4.230
 7267TIP3    H121678   5.424   0.296   4.145
 7267TIP3    H221679   5.417   0.431   4.209
 7268TIP3   OH221680   4.871   0.122   6.083
 7268TIP3    H121681   4.886   0.038   6.036
 7268TIP3    H221682   4.847   0.186   6.012
 7269TIP3   OH221683   4.974   0.390   5.724
 7269TIP3    H121684   5.050   0.420   5.673
 7269TIP3    H221685   4.909   0.461   5.706
 7270TIP3   OH221686   5.521   0.374   6.157
 7270TIP3    H121687   5.563   0.288   6.143
 7270TIP3    H221688   5.584   0.435   6.117
 7271TIP3   OH221689   5.571   0.608   5.876
 7271TIP3    H121690   5.511   0.662   5.820
 7271TIP3    H221691   5.658   0.633   5.837
 7272TIP3   OH221692   4.770   0.206   6.317
 7272TIP3    H121693   4.704   0.134   6.320
 7272TIP3    H221694   4.814   0.183   6.232
 7273TIP3   OH221695   5.204   0.222   6.192
 7273TIP3    H121696   5.170   0.184   6.274
 7273TIP3    H221697   5.243   0.145   6.149
 7274TIP3   OH221698   4.430   1.070   4.471
 7274TIP3    H121699   4.526   1.067   4.454
 7274TIP3    H221700   4.402   1.121   4.392
 7275TIP3   OH221701   3.910   0.454   4.685
 7275TIP3    H121702   4.005   0.478   4.676
 7275TIP3    H221703   3.909   0.366   4.643
 7276TIP3   OH221704   3.825   1.049   5.117
 7276TIP3    H121705   3.755   0.998   5.072
 7276TIP3    H221706   3.859   0.977   5.174
 7277TIP3   OH221707   5.692   1.308   5.088
 7277TIP3    H121708   5.718   1.352   5.170
 7277TIP3    H221709   5.735   1.363   5.021
 7278TIP3   OH221710   5.717   1.341   5.374
 7278TIP3    H121711   5.675   1.253   5.363
 7278TIP3    H221712   5.793   1.316   5.427
 7279TIP3   OH221713   5.766   1.013   5.946
 7279TIP3    H121714   5.691   1.023   6.008
 7279TIP3    H221715   5.805   1.102   5.947
 7280TIP3   OH221716   5.581   0.527   4.563
 7280TIP3    H121717   5.648   0.593   4.534
 7280TIP3    H221718   5.625   0.489   4.642
 7281TIP3   OH221719   5.710   0.393   4.766
 7281TIP3    H121720   5.643   0.353   4.826
 7281TIP3    H221721   5.772   0.434   4.829
 7282TIP3   OH221722   5.762   0.783   5.204
 7282TIP3    H121723   5.812   0.723   5.147
 7282TIP3    H221724   5.760   0.865   5.148
 7283TIP3   OH221725   5.594   1.086   5.398
 7283TIP3    H121726   5.523   1.133   5.445
 7283TIP3    H221727   5.545   1.041   5.326
 7284TIP3   OH221728   5.645   0.298   4.415
 7284TIP3    H121729   5.575   0.309   4.346
 7284TIP3    H221730   5.622   0.375   4.471
 7285TIP3   OH221731   5.526  -0.033   4.361
 7285TIP3    H121732   5.482   0.040   4.315
 7285TIP3    H221733   5.480  -0.109   4.325
 7286TIP3   OH221734   5.523   0.253   4.916
 7286TIP3    H121735   5.532   0.157   4.916
 7286TIP3    H221736   5.508   0.272   5.012
 7287TIP3   OH221737   4.151   0.309   5.662
 7287TIP3    H121738   4.150   0.300   5.565
 7287TIP3    H221739   4.248   0.319   5.678
 7288TIP3   OH221740   5.815   0.671   5.771
 7288TIP3    H121741   5.889   0.608   5.755
 7288TIP3    H221742   5.835   0.744   5.710
 7289TIP3   OH221743   6.001   0.468   5.781
 7289TIP3    H121744   5.933   0.423   5.835
 7289TIP3    H221745   6.082   0.430   5.817
 7290TIP3   OH221746   5.503  -0.028   4.763
 7290TIP3    H121747   5.551  -0.066   4.840
 7290TIP3    H221748   5.576   0.000   4.705
 7291TIP3   OH221749   5.686   0.173   5.310
 7291TIP3    H121750   5.775   0.183   5.269
 7291TIP3    H221751   5.706   0.196   5.402
 7292TIP3   OH221752   5.748   0.295   5.556
 7292TIP3    H121753   5.665   0.336   5.586
 7292TIP3    H221754   5.784   0.366   5.498
 7293TIP3   OH221755   4.141  -0.016   5.741
 7293TIP3    H121756   4.191  -0.025   5.657
 7293TIP3    H221757   4.157   0.076   5.762
 7294TIP3   OH221758   5.285   1.194   4.748
 7294TIP3    H121759   5.324   1.158   4.665
 7294TIP3    H221760   5.341   1.274   4.752
 7295TIP3   OH221761   4.375   0.984   6.133
 7295TIP3    H121762   4.282   0.961   6.116
 7295TIP3    H221763   4.380   0.974   6.229
 7296TIP3   OH221764   4.554   1.019   5.681
 7296TIP3    H121765   4.500   1.090   5.642
 7296TIP3    H221766   4.638   1.037   5.634
 7297TIP3   OH221767   4.997   1.264   5.816
 7297TIP3    H121768   5.039   1.267   5.905
 7297TIP3    H221769   5.063   1.316   5.765
 7298TIP3   OH221770   5.175   1.416   5.676
 7298TIP3    H121771   5.247   1.368   5.632
 7298TIP3    H221772   5.227   1.474   5.736
 7299TIP3   OH221773   4.233   1.290   5.701
 7299TIP3    H121774   4.142   1.316   5.675
 7299TIP3    H221775   4.233   1.312   5.794
 7300TIP3   OH221776   4.467   1.256   5.560
 7300TIP3    H121777   4.381   1.270   5.606
 7300TIP3    H221778   4.445   1.288   5.470
 7301TIP3   OH221779   4.891   1.285   5.359
 7301TIP3    H121780   4.822   1.305   5.292
 7301TIP3    H221781   4.903   1.373   5.400
 7302TIP3   OH221782   5.159   1.225   5.410
 7302TIP3    H121783   5.065   1.242   5.390
 7302TIP3    H221784   5.202   1.299   5.365
 7303TIP3   OH221785   5.368   1.418   5.324
 7303TIP3    H121786   5.351   1.503   5.277
 7303TIP3    H221787   5.392   1.360   5.249
 7304TIP3   OH221788   4.142   1.082   5.455
 7304TIP3    H121789   4.174   1.054   5.544
 7304TIP3    H221790   4.202   1.029   5.399
 7305TIP3   OH221791   4.330   0.942   5.304
 7305TIP3    H121792   4.346   0.860   5.355
 7305TIP3    H221793   4.420   0.981   5.301
 7306TIP3   OH221794   4.599   1.039   5.306
 7306TIP3    H121795   4.630   0.949   5.293
 7306TIP3    H221796   4.641   1.061   5.391
 7307TIP3   OH221797   3.929   0.835   4.831
 7307TIP3    H121798   3.839   0.809   4.802
 7307TIP3    H221799   3.919   0.931   4.834
 7308TIP3   OH221800   4.699   1.033   4.422
 7308TIP3    H121801   4.788   1.055   4.387
 7308TIP3    H221802   4.677   0.959   4.362
 7309TIP3   OH221803   5.406   1.134   4.515
 7309TIP3    H121804   5.395   1.040   4.487
 7309TIP3    H221805   5.383   1.183   4.435
 7310TIP3   OH221806   4.002   0.867   4.479
 7310TIP3    H121807   4.001   0.892   4.573
 7310TIP3    H221808   4.092   0.829   4.468
 7311TIP3   OH221809   5.645   1.294   5.702
 7311TIP3    H121810   5.567   1.263   5.652
 7311TIP3    H221811   5.626   1.390   5.704
 7312TIP3   OH221812   6.910   0.667   4.469
 7312TIP3    H121813   6.883   0.758   4.449
 7312TIP3    H221814   6.834   0.618   4.433
 7313TIP3   OH221815   6.908   0.669   4.843
 7313TIP3    H121816   6.944   0.639   4.928
 7313TIP3    H221817   6.863   0.589   4.810
 7314TIP3   OH221818   6.211   0.565   5.213
 7314TIP3    H121819   6.253   0.505   5.277
 7314TIP3    H221820   6.283   0.628   5.197
 7315TIP3   OH221821   7.154   0.967   4.529
 7315TIP3    H121822   7.138   0.899   4.596
 7315TIP3    H221823   7.180   1.043   4.583
 7316TIP3   OH221824   6.183   0.972   4.942
 7316TIP3    H121825   6.173   0.875   4.944
 7316TIP3    H221826   6.279   0.980   4.931
 7317TIP3   OH221827   5.882   0.164   4.732
 7317TIP3    H121828   5.836   0.249   4.746
 7317TIP3    H221829   5.817   0.120   4.673
 7318TIP3   OH221830   5.950   0.460   4.895
 7318TIP3    H121831   6.001   0.385   4.931
 7318TIP3    H221832   6.006   0.491   4.823
 7319TIP3   OH221833   6.803   1.433   4.546
 7319TIP3    H121834   6.849   1.361   4.497
 7319TIP3    H221835   6.792   1.394   4.633
 7320TIP3   OH221836   6.708   0.892   4.898
 7320TIP3    H121837   6.745   0.817   4.847
 7320TIP3    H221838   6.792   0.937   4.920
 7321TIP3   OH221839   7.119   0.402   4.928
 7321TIP3    H121840   7.160   0.319   4.955
 7321TIP3    H221841   7.092   0.383   4.836
 7322TIP3   OH221842   6.096   0.251   5.004
 7322TIP3    H121843   6.175   0.224   5.056
 7322TIP3    H221844   6.111   0.198   4.923
 7323TIP3   OH221845   6.533   0.454   4.799
 7323TIP3    H121846   6.625   0.423   4.810
 7323TIP3    H221847   6.488   0.373   4.767
 7324TIP3   OH221848   7.769   0.394   5.084
 7324TIP3    H121849   7.707   0.466   5.060
 7324TIP3    H221850   7.816   0.431   5.161
 7325TIP3   OH221851   6.805   0.889   4.337
 7325TIP3    H121852   6.760   0.866   4.255
 7325TIP3    H221853   6.761   0.973   4.361
 7326TIP3   OH221854   6.559   0.814   5.125
 7326TIP3    H121855   6.496   0.880   5.161
 7326TIP3    H221856   6.598   0.863   5.050
 7327TIP3   OH221857   6.339   0.153   5.102
 7327TIP3    H121858   6.400   0.227   5.122
 7327TIP3    H221859   6.371   0.123   5.016
 7328TIP3   OH221860   6.389   1.006   5.223
 7328TIP3    H121861   6.363   1.092   5.182
 7328TIP3    H221862   6.309   0.992   5.279
 7329TIP3   OH221863   5.784   0.695   4.458
 7329TIP3    H121864   5.744   0.724   4.375
 7329TIP3    H221865   5.813   0.781   4.496
 7330TIP3   OH221866   7.226   1.212   4.699
 7330TIP3    H121867   7.136   1.203   4.738
 7330TIP3    H221868   7.217   1.297   4.652
 7331TIP3   OH221869   6.929   1.258   4.375
 7331TIP3    H121870   6.977   1.176   4.352
 7331TIP3    H221871   6.988   1.324   4.333
 7332TIP3   OH221872   7.069   1.043   4.277
 7332TIP3    H121873   7.027   0.965   4.239
 7332TIP3    H221874   7.105   1.007   4.361
 7333TIP3   OH221875   7.450   1.124   5.042
 7333TIP3    H121876   7.439   1.048   4.981
 7333TIP3    H221877   7.432   1.200   4.982
 7334TIP3   OH221878   6.743   0.519   4.299
 7334TIP3    H121879   6.661   0.568   4.278
 7334TIP3    H221880   6.785   0.514   4.211
 7335TIP3   OH221881   6.695   0.308   4.020
 7335TIP3    H121882   6.773   0.352   4.060
 7335TIP3    H221883   6.739   0.236   3.972
 7336TIP3   OH221884   7.644   0.758   4.888
 7336TIP3    H121885   7.561   0.811   4.891
 7336TIP3    H221886   7.674   0.781   4.797
 7337TIP3   OH221887   7.089   0.602   4.271
 7337TIP3    H121888   7.034   0.627   4.349
 7337TIP3    H221889   7.172   0.575   4.315
 7338TIP3   OH221890   7.326   0.648   5.176
 7338TIP3    H121891   7.324   0.733   5.224
 7338TIP3    H221892   7.242   0.655   5.125
 7339TIP3   OH221893   6.321   0.600   4.688
 7339TIP3    H121894   6.277   0.543   4.620
 7339TIP3    H221895   6.397   0.543   4.714
 7340TIP3   OH221896   6.450   1.008   4.837
 7340TIP3    H121897   6.427   0.970   4.750
 7340TIP3    H221898   6.541   0.974   4.851
 7341TIP3   OH221899   6.464   0.566   5.045
 7341TIP3    H121900   6.490   0.545   4.953
 7341TIP3    H221901   6.501   0.656   5.057
 7342TIP3   OH221902   6.985   1.208   4.819
 7342TIP3    H121903   6.968   1.288   4.871
 7342TIP3    H221904   6.968   1.135   4.882
 7343TIP3   OH221905   6.595   1.127   5.367
 7343TIP3    H121906   6.534   1.190   5.412
 7343TIP3    H221907   6.530   1.074   5.316
 7344TIP3   OH221908   6.935   0.449   4.099
 7344TIP3    H121909   6.992   0.509   4.151
 7344TIP3    H221910   6.959   0.475   4.007
 7345TIP3   OH221911   6.335   0.689   5.466
 7345TIP3    H121912   6.341   0.775   5.514
 7345TIP3    H221913   6.240   0.669   5.478
 7346TIP3   OH221914   6.673   1.139   4.373
 7346TIP3    H121915   6.749   1.196   4.390
 7346TIP3    H221916   6.610   1.199   4.331
 7347TIP3   OH221917   6.390   1.297   5.453
 7347TIP3    H121918   6.356   1.296   5.361
 7347TIP3    H221919   6.310   1.273   5.505
 7348TIP3   OH221920   6.185   0.448   4.494
 7348TIP3    H121921   6.118   0.488   4.435
 7348TIP3    H221922   6.156   0.357   4.500
 7349TIP3   OH221923   7.243   1.067   3.692
 7349TIP3    H121924   7.250   1.164   3.678
 7349TIP3    H221925   7.336   1.039   3.680
 7350TIP3   OH221926   5.968   0.826   5.399
 7350TIP3    H121927   5.902   0.809   5.328
 7350TIP3    H221928   6.002   0.737   5.418
 7351TIP3   OH221929   5.823   1.010   5.055
 7351TIP3    H121930   5.910   1.019   5.014
 7351TIP3    H221931   5.804   1.101   5.081
 7352TIP3   OH221932   7.687   1.470   5.087
 7352TIP3    H121933   7.685   1.373   5.099
 7352TIP3    H221934   7.604   1.495   5.132
 7353TIP3   OH221935   6.795   1.254   5.224
 7353TIP3    H121936   6.793   1.347   5.255
 7353TIP3    H221937   6.722   1.215   5.277
 7354TIP3   OH221938   6.555   1.385   4.174
 7354TIP3    H121939   6.509   1.365   4.090
 7354TIP3    H221940   6.521   1.474   4.196
 7355TIP3   OH221941   5.990   1.233   4.558
 7355TIP3    H121942   6.040   1.225   4.642
 7355TIP3    H221943   5.914   1.177   4.581
 7356TIP3   OH221944   6.756   1.288   3.814
 7356TIP3    H121945   6.815   1.218   3.777
 7356TIP3    H221946   6.790   1.296   3.906
 7357TIP3   OH221947   6.806   1.333   4.085
 7357TIP3    H121948   6.716   1.345   4.125
 7357TIP3    H221949   6.853   1.291   4.158
 7358TIP3   OH221950   7.582   0.599   5.376
 7358TIP3    H121951   7.506   0.631   5.325
 7358TIP3    H221952   7.599   0.512   5.337
 7359TIP3   OH221953   6.174   1.008   5.390
 7359TIP3    H121954   6.222   0.991   5.473
 7359TIP3    H221955   6.099   0.946   5.396
 7360TIP3   OH221956   7.225   0.472   5.360
 7360TIP3    H121957   7.289   0.402   5.376
 7360TIP3    H221958   7.269   0.529   5.295
 7361TIP3   OH221959   7.009   0.499   3.841
 7361TIP3    H121960   6.971   0.480   3.753
 7361TIP3    H221961   7.082   0.560   3.817
 7362TIP3   OH221962   6.513   0.346   5.194
 7362TIP3    H121963   6.455   0.366   5.271
 7362TIP3    H221964   6.497   0.425   5.138
 7363TIP3   OH221965   6.379   0.251   4.701
 7363TIP3    H121966   6.299   0.204   4.728
 7363TIP3    H221967   6.399   0.209   4.615
 7364TIP3   OH221968   6.885   0.324   4.429
 7364TIP3    H121969   6.831   0.396   4.389
 7364TIP3    H221970   6.931   0.288   4.350
 7365TIP3   OH221971   7.116   0.700   5.587
 7365TIP3    H121972   7.122   0.703   5.491
 7365TIP3    H221973   7.206   0.665   5.606
 7366TIP3   OH221974   7.038   0.348   4.669
 7366TIP3    H121975   6.981   0.383   4.596
 7366TIP3    H221976   7.072   0.269   4.626
 7367TIP3   OH221977   6.333   0.386   5.399
 7367TIP3    H121978   6.336   0.448   5.474
 7367TIP3    H221979   6.280   0.313   5.433
 7368TIP3   OH221980   7.063   0.614   5.081
 7368TIP3    H121981   7.091   0.541   5.021
 7368TIP3    H221982   7.024   0.561   5.154
 7369TIP3   OH221983   6.145   0.109   4.773
 7369TIP3    H121984   6.051   0.128   4.751
 7369TIP3    H221985   6.151   0.015   4.751
 7370TIP3   OH221986   6.435   0.129   4.460
 7370TIP3    H121987   6.518   0.104   4.418
 7370TIP3    H221988   6.372   0.123   4.385
 7371TIP3   OH221989   6.252   0.143   4.243
 7371TIP3    H121990   6.194   0.093   4.183
 7371TIP3    H221991   6.313   0.182   4.176
 7372TIP3   OH221992   7.377   1.820   5.185
 7372TIP3    H121993   7.374   1.843   5.091
 7372TIP3    H221994   7.455   1.870   5.216
 7373TIP3   OH221995   6.335   0.928   5.610
 7373TIP3    H121996   6.414   0.961   5.657
 7373TIP3    H221997   6.270   0.931   5.683
 7374TIP3   OH221998   6.804   0.388   4.861
 7374TIP3    H121999   6.867   0.345   4.802
 7374TIP3    H222000   6.804   0.329   4.938
 7375TIP3   OH222001   6.775   0.257   5.193
 7375TIP3    H122002   6.687   0.299   5.183
 7375TIP3    H222003   6.834   0.333   5.204
 7376TIP3   OH222004   6.514   0.671   4.249
 7376TIP3    H122005   6.441   0.606   4.237
 7376TIP3    H222006   6.494   0.705   4.340
 7377TIP3   OH222007   7.413   0.906   4.878
 7377TIP3    H122008   7.438   0.956   4.797
 7377TIP3    H222009   7.328   0.865   4.852
 7378TIP3   OH222010   6.911   0.987   5.246
 7378TIP3    H122011   6.957   0.985   5.332
 7378TIP3    H222012   6.869   1.075   5.247
 7379TIP3   OH222013   7.030   0.206   4.208
 7379TIP3    H122014   7.128   0.217   4.218
 7379TIP3    H222015   7.007   0.282   4.153
 7380TIP3   OH222016   6.207   0.692   4.925
 7380TIP3    H122017   6.242   0.667   4.837
 7380TIP3    H222018   6.243   0.621   4.981
 7381TIP3   OH222019   6.658   0.822   4.069
 7381TIP3    H122020   6.610   0.908   4.074
 7381TIP3    H222021   6.603   0.766   4.129
 7382TIP3   OH222022   6.080   0.610   5.538
 7382TIP3    H122023   6.100   0.595   5.632
 7382TIP3    H222024   6.006   0.548   5.523
 7383TIP3   OH222025   6.799   0.725   5.555
 7383TIP3    H122026   6.720   0.676   5.524
 7383TIP3    H222027   6.863   0.704   5.486
 7384TIP3   OH222028   7.073   1.243   5.143
 7384TIP3    H122029   6.976   1.247   5.153
 7384TIP3    H222030   7.101   1.300   5.218
 7385TIP3   OH222031   7.484   0.318   4.048
 7385TIP3    H122032   7.427   0.269   3.985
 7385TIP3    H222033   7.481   0.406   4.006
 7386TIP3   OH222034   7.700   1.176   5.131
 7386TIP3    H122035   7.602   1.173   5.121
 7386TIP3    H222036   7.727   1.148   5.040
 7387TIP3   OH222037   7.186   1.140   3.958
 7387TIP3    H122038   7.156   1.070   4.018
 7387TIP3    H222039   7.195   1.093   3.873
 7388TIP3   OH222040   7.180   0.769   4.799
 7388TIP3    H122041   7.086   0.746   4.808
 7388TIP3    H222042   7.213   0.691   4.750
 7389TIP3   OH222043   6.304   0.997   4.549
 7389TIP3    H122044   6.304   1.078   4.495
 7389TIP3    H222045   6.209   0.982   4.558
 7390TIP3   OH222046   5.869   0.299   4.252
 7390TIP3    H122047   5.917   0.383   4.269
 7390TIP3    H222048   5.793   0.308   4.312
 7391TIP3   OH222049   6.446   0.764   4.495
 7391TIP3    H122050   6.409   0.853   4.511
 7391TIP3    H222051   6.407   0.713   4.568
 7392TIP3   OH222052   6.574   1.341   5.019
 7392TIP3    H122053   6.613   1.414   4.966
 7392TIP3    H222054   6.652   1.308   5.065
 7393TIP3   OH222055   6.226   1.234   4.403
 7393TIP3    H122056   6.139   1.241   4.446
 7393TIP3    H222057   6.256   1.327   4.404
 7394TIP3   OH222058   6.963   0.974   4.976
 7394TIP3    H122059   6.953   0.971   5.074
 7394TIP3    H222060   7.043   0.921   4.963
 7395TIP3   OH222061   6.937   0.863   3.858
 7395TIP3    H122062   6.988   0.840   3.939
 7395TIP3    H222063   6.847   0.842   3.888
 7396TIP3   OH222064   7.212   1.510   5.026
 7396TIP3    H122065   7.131   1.455   5.017
 7396TIP3    H222066   7.198   1.575   4.954
 7397TIP3   OH222067   7.276   1.343   3.679
 7397TIP3    H122068   7.311   1.414   3.622
 7397TIP3    H222069   7.197   1.389   3.713
 7398TIP3   OH222070   7.097   0.801   4.075
 7398TIP3    H122071   7.087   0.735   4.147
 7398TIP3    H222072   7.194   0.799   4.064
 7399TIP3   OH222073   6.017   1.209   5.177
 7399TIP3    H122074   6.061   1.128   5.204
 7399TIP3    H222075   6.048   1.272   5.243
 7400TIP3   OH222076   6.305   0.847   3.857
 7400TIP3    H122077   6.319   0.754   3.830
 7400TIP3    H222078   6.286   0.837   3.952
 7401TIP3   OH222079   6.251   0.853   4.128
 7401TIP3    H122080   6.319   0.827   4.192
 7401TIP3    H222081   6.253   0.951   4.136
 7402TIP3   OH222082   5.982   0.547   4.333
 7402TIP3    H122083   5.918   0.593   4.391
 7402TIP3    H222084   5.997   0.617   4.266
 7403TIP3   OH222085   6.515   1.052   4.079
 7403TIP3    H122086   6.428   1.078   4.115
 7403TIP3    H222087   6.531   1.126   4.018
 7404TIP3   OH222088   6.732   0.106   4.496
 7404TIP3    H122089   6.770   0.193   4.471
 7404TIP3    H222090   6.678   0.128   4.573
 7405TIP3   OH222091   6.967   0.446   5.280
 7405TIP3    H122092   6.913   0.485   5.349
 7405TIP3    H222093   7.058   0.443   5.319
 7406TIP3   OH222094   6.258   1.125   4.147
 7406TIP3    H122095   6.228   1.194   4.083
 7406TIP3    H222096   6.241   1.169   4.233
 7407TIP3   OH222097   7.263   0.532   4.669
 7407TIP3    H122098   7.192   0.467   4.682
 7407TIP3    H222099   7.339   0.489   4.716
 7408TIP3   OH222100   5.974   0.757   4.140
 7408TIP3    H122101   6.033   0.833   4.149
 7408TIP3    H222102   6.024   0.706   4.073
 7409TIP3   OH222103   5.895   0.008   4.258
 7409TIP3    H122104   5.939   0.094   4.258
 7409TIP3    H222105   5.811   0.031   4.299
 7410TIP3   OH222106   7.232   1.484   4.621
 7410TIP3    H122107   7.188   1.530   4.546
 7410TIP3    H222108   7.326   1.502   4.598
 7411TIP3   OH222109   5.840   0.954   4.526
 7411TIP3    H122110   5.791   1.004   4.593
 7411TIP3    H222111   5.818   1.005   4.445
 7412TIP3   OH222112   6.003   1.511   5.599
 7412TIP3    H122113   6.089   1.509   5.645
 7412TIP3    H222114   5.980   1.416   5.597
 7413TIP3   OH222115   6.489   1.478   5.643
 7413TIP3    H122116   6.583   1.454   5.648
 7413TIP3    H222117   6.459   1.421   5.569
 7414TIP3   OH222118   6.466   1.053   3.771
 7414TIP3    H122119   6.410   0.982   3.809
 7414TIP3    H222120   6.542   1.000   3.739
 7415TIP3   OH222121   7.130   1.387   5.369
 7415TIP3    H122122   7.118   1.323   5.442
 7415TIP3    H222123   7.205   1.441   5.402
 7416TIP3   OH222124   6.903   1.093   3.683
 7416TIP3    H122125   6.951   1.031   3.739
 7416TIP3    H222126   6.957   1.096   3.602
 7417TIP3   OH222127   6.134   0.918   5.799
 7417TIP3    H122128   6.150   0.822   5.805
 7417TIP3    H222129   6.046   0.921   5.755
 7418TIP3   OH222130   6.111   0.569   3.991
 7418TIP3    H122131   6.164   0.536   4.064
 7418TIP3    H222132   6.179   0.575   3.921
 7419TIP3   OH222133   6.740   1.003   5.573
 7419TIP3    H122134   6.701   1.022   5.485
 7419TIP3    H222135   6.765   0.909   5.564
 7420TIP3   OH222136   6.621   0.770   3.799
 7420TIP3    H122137   6.622   0.783   3.896
 7420TIP3    H222138   6.620   0.671   3.795
 7421TIP3   OH222139   7.234   1.012   5.180
 7421TIP3    H122140   7.308   1.055   5.133
 7421TIP3    H222141   7.163   1.078   5.165
 7422TIP3   OH222142   6.251   0.643   5.784
 7422TIP3    H122143   6.330   0.591   5.764
 7422TIP3    H222144   6.276   0.679   5.872
 7423TIP3   OH222145   6.321   0.473   4.216
 7423TIP3    H122146   6.295   0.429   4.299
 7423TIP3    H222147   6.356   0.398   4.164
 7424TIP3   OH222148   6.584   0.588   5.434
 7424TIP3    H122149   6.494   0.629   5.441
 7424TIP3    H222150   6.608   0.608   5.341
 7425TIP3   OH222151   6.418   0.267   4.058
 7425TIP3    H122152   6.392   0.266   3.964
 7425TIP3    H222153   6.515   0.271   4.051
 7426TIP3   OH222154   7.055   0.963   5.494
 7426TIP3    H122155   7.150   0.962   5.481
 7426TIP3    H222156   7.043   0.895   5.562
 7427TIP3   OH222157   7.246   0.597   3.715
 7427TIP3    H122158   7.220   0.553   3.631
 7427TIP3    H222159   7.214   0.688   3.695
 7428TIP3   OH222160   6.704   0.387   5.564
 7428TIP3    H122161   6.683   0.302   5.520
 7428TIP3    H222162   6.655   0.451   5.509
 7429TIP3   OH222163   6.761   0.660   5.225
 7429TIP3    H122164   6.832   0.679   5.163
 7429TIP3    H222165   6.692   0.723   5.195
 7430TIP3   OH222166   7.363   0.600   5.629
 7430TIP3    H122167   7.399   0.522   5.673
 7430TIP3    H222168   7.441   0.653   5.610
 7431TIP3   OH222169   7.366   0.865   5.361
 7431TIP3    H122170   7.309   0.921   5.303
 7431TIP3    H222171   7.455   0.889   5.325
 7432TIP3   OH222172   6.561   0.466   5.799
 7432TIP3    H122173   6.501   0.389   5.799
 7432TIP3    H222174   6.617   0.445   5.722
 7433TIP3   OH222175   5.173   9.745   3.672
 7433TIP3    H122176   5.195   9.804   3.746
 7433TIP3    H222177   5.107   9.796   3.625
 7434TIP3   OH222178   6.227   1.326   3.959
 7434TIP3    H122179   6.322   1.326   3.940
 7434TIP3    H222180   6.195   1.377   3.881
 7435TIP3   OH222181   5.707   0.710   4.176
 7435TIP3    H122182   5.802   0.733   4.164
 7435TIP3    H222183   5.703   0.621   4.134
 7436TIP3   OH222184   5.790   1.157   4.756
 7436TIP3    H122185   5.725   1.111   4.809
 7436TIP3    H222186   5.798   1.241   4.806
 7437TIP3   OH222187   7.485   1.574   4.575
 7437TIP3    H122188   7.512   1.609   4.662
 7437TIP3    H222189   7.545   1.619   4.514
 7438TIP3   OH222190   7.514   1.596   4.858
 7438TIP3    H122191   7.470   1.509   4.852
 7438TIP3    H222192   7.590   1.572   4.914
 7439TIP3   OH222193   7.561   1.271   5.431
 7439TIP3    H122194   7.488   1.280   5.495
 7439TIP3    H222195   7.602   1.360   5.435
 7440TIP3   OH222196   7.378   0.783   4.050
 7440TIP3    H122197   7.444   0.848   4.022
 7440TIP3    H222198   7.421   0.745   4.130
 7441TIP3   OH222199   7.506   0.650   4.254
 7441TIP3    H122200   7.439   0.609   4.313
 7441TIP3    H222201   7.570   0.690   4.316
 7442TIP3   OH222202   7.559   1.043   4.689
 7442TIP3    H122203   7.610   0.979   4.636
 7442TIP3    H222204   7.550   1.118   4.626
 7443TIP3   OH222205   7.391   1.344   4.884
 7443TIP3    H122206   7.318   1.388   4.933
 7443TIP3    H222207   7.341   1.297   4.813
 7444TIP3   OH222208   7.441   0.555   3.902
 7444TIP3    H122209   7.371   0.565   3.832
 7444TIP3    H222210   7.417   0.632   3.958
 7445TIP3   OH222211   7.325   0.225   3.845
 7445TIP3    H122212   7.277   0.299   3.805
 7445TIP3    H222213   7.275   0.150   3.811
 7446TIP3   OH222214   7.320   0.510   4.403
 7446TIP3    H122215   7.328   0.413   4.403
 7446TIP3    H222216   7.305   0.528   4.499
 7447TIP3   OH222217   5.946   0.572   5.151
 7447TIP3    H122218   5.942   0.549   5.056
 7447TIP3    H222219   6.043   0.580   5.164
 7448TIP3   OH222220   7.612   0.928   5.258
 7448TIP3    H122221   7.685   0.864   5.243
 7448TIP3    H222222   7.634   1.000   5.196
 7449TIP3   OH222223   7.799   0.726   5.268
 7449TIP3    H122224   7.730   0.679   5.320
 7449TIP3    H222225   7.880   0.687   5.304
 7450TIP3   OH222226   7.301   0.226   4.248
 7450TIP3    H122227   7.348   0.190   4.326
 7450TIP3    H222228   7.375   0.260   4.193
 7451TIP3   OH222229   7.481   0.430   4.796
 7451TIP3    H122230   7.570   0.440   4.755
 7451TIP3    H222231   7.503   0.452   4.888
 7452TIP3   OH222232   7.545   0.551   5.041
 7452TIP3    H122233   7.462   0.593   5.073
 7452TIP3    H222234   7.581   0.622   4.983
 7453TIP3   OH222235   5.940   0.239   5.231
 7453TIP3    H122236   5.985   0.227   5.145
 7453TIP3    H222237   5.955   0.333   5.246
 7454TIP3   OH222238   7.073   1.439   4.235
 7454TIP3    H122239   7.119   1.424   4.150
 7454TIP3    H222240   7.125   1.510   4.274
 7455TIP3   OH222241   6.171   1.242   5.621
 7455TIP3    H122242   6.079   1.218   5.601
 7455TIP3    H222243   6.176   1.228   5.716
 7456TIP3   OH222244   6.348   1.278   5.168
 7456TIP3    H122245   6.296   1.350   5.128
 7456TIP3    H222246   6.433   1.294   5.122
 7457TIP3   OH222247   6.795   1.520   5.305
 7457TIP3    H122248   6.837   1.524   5.393
 7457TIP3    H222249   6.859   1.572   5.252
 7458TIP3   OH222250   6.972   1.673   5.163
 7458TIP3    H122251   7.042   1.623   5.119
 7458TIP3    H222252   7.024   1.730   5.223
 7459TIP3   OH222253   6.028   1.538   5.191
 7459TIP3    H122254   5.940   1.568   5.161
 7459TIP3    H222255   6.026   1.569   5.282
 7460TIP3   OH222256   6.263   1.514   5.047
 7460TIP3    H122257   6.176   1.526   5.093
 7460TIP3    H222258   6.241   1.545   4.957
 7461TIP3   OH222259   6.687   1.542   4.845
 7461TIP3    H122260   6.617   1.560   4.780
 7461TIP3    H222261   6.698   1.631   4.885
 7462TIP3   OH222262   6.955   1.482   4.898
 7462TIP3    H122263   6.860   1.498   4.878
 7462TIP3    H222264   6.997   1.557   4.852
 7463TIP3   OH222265   7.167   1.676   4.812
 7463TIP3    H122266   7.149   1.759   4.764
 7463TIP3    H222267   7.189   1.615   4.739
 7464TIP3   OH222268   5.941   1.339   4.937
 7464TIP3    H122269   5.965   1.308   5.027
 7464TIP3    H222270   6.004   1.287   4.884
 7465TIP3   OH222271   6.129   1.201   4.791
 7465TIP3    H122272   6.144   1.117   4.841
 7465TIP3    H222273   6.220   1.238   4.786
 7466TIP3   OH222274   6.397   1.297   4.792
 7466TIP3    H122275   6.427   1.205   4.778
 7466TIP3    H222276   6.438   1.316   4.878
 7467TIP3   OH222277   5.728   1.097   4.323
 7467TIP3    H122278   5.642   1.065   4.292
 7467TIP3    H222279   5.714   1.193   4.314
 7468TIP3   OH222280   6.497   1.288   3.910
 7468TIP3    H122281   6.583   1.314   3.871
 7468TIP3    H222282   6.474   1.216   3.849
 7469TIP3   OH222283   7.215   1.407   4.001
 7469TIP3    H122284   7.207   1.310   3.987
 7469TIP3    H222285   7.168   1.440   3.921
 7470TIP3   OH222286   5.797   1.122   3.966
 7470TIP3    H122287   5.794   1.154   4.057
 7470TIP3    H222288   5.888   1.085   3.958
 7471TIP3   OH222289   7.441   1.551   5.189
 7471TIP3    H122290   7.362   1.519   5.140
 7471TIP3    H222291   7.421   1.647   5.191
 7472TIP3   OH222292   8.707   0.924   3.950
 7472TIP3    H122293   8.684   1.018   3.939
 7472TIP3    H222294   8.625   0.881   3.921
 7473TIP3   OH222295   8.694   0.917   4.335
 7473TIP3    H122296   8.735   0.894   4.420
 7473TIP3    H222297   8.654   0.832   4.309
 7474TIP3   OH222298   8.005   0.822   4.701
 7474TIP3    H122299   8.045   0.759   4.763
 7474TIP3    H222300   8.082   0.879   4.682
 7475TIP3   OH222301   8.946   1.224   4.019
 7475TIP3    H122302   8.944   1.156   4.088
 7475TIP3    H222303   8.976   1.301   4.071
 7476TIP3   OH222304   7.977   1.228   4.428
 7476TIP3    H122305   7.969   1.130   4.430
 7476TIP3    H222306   8.074   1.237   4.419
 7477TIP3   OH222307   7.677   0.421   4.219
 7477TIP3    H122308   7.631   0.506   4.233
 7477TIP3    H222309   7.613   0.376   4.160
 7478TIP3   OH222310   7.746   0.717   4.382
 7478TIP3    H122311   7.795   0.641   4.419
 7478TIP3    H222312   7.804   0.746   4.310
 7479TIP3   OH222313   8.609   1.696   4.037
 7479TIP3    H122314   8.651   1.626   3.983
 7479TIP3    H222315   8.593   1.648   4.119
 7480TIP3   OH222316   8.505   1.147   4.387
 7480TIP3    H122317   8.542   1.070   4.340
 7480TIP3    H222318   8.589   1.194   4.406
 7481TIP3   OH222319   8.923   0.666   4.411
 7481TIP3    H122320   8.947   0.581   4.449
 7481TIP3    H222321   8.894   0.643   4.321
 7482TIP3   OH222322   7.890   0.509   4.490
 7482TIP3    H122323   7.970   0.484   4.540
 7482TIP3    H222324   7.906   0.455   4.409
 7483TIP3   OH222325   8.330   0.711   4.287
 7483TIP3    H122326   8.422   0.679   4.299
 7483TIP3    H222327   8.285   0.629   4.255
 7484TIP3   OH222328   8.615   1.159   3.813
 7484TIP3    H122329   8.557   1.126   3.743
 7484TIP3    H222330   8.561   1.234   3.847
 7485TIP3   OH222331   8.364   1.065   4.618
 7485TIP3    H122332   8.299   1.130   4.653
 7485TIP3    H222333   8.403   1.114   4.543
 7486TIP3   OH222334   8.131   0.417   4.588
 7486TIP3    H122335   8.197   0.485   4.608
 7486TIP3    H222336   8.168   0.374   4.510
 7487TIP3   OH222337   8.187   1.260   4.709
 7487TIP3    H122338   8.161   1.345   4.667
 7487TIP3    H222339   8.107   1.246   4.766
 7488TIP3   OH222340   7.581   0.953   3.945
 7488TIP3    H122341   7.540   0.979   3.861
 7488TIP3    H222342   7.611   1.038   3.981
 7489TIP3   OH222343   9.010   1.450   4.178
 7489TIP3    H122344   8.919   1.452   4.215
 7489TIP3    H222345   9.014   1.534   4.130
 7490TIP3   OH222346   8.728   1.506   3.877
 7490TIP3    H122347   8.789   1.434   3.856
 7490TIP3    H222348   8.747   1.567   3.801
 7491TIP3   OH222349   8.883   1.255   3.753
 7491TIP3    H122350   8.791   1.225   3.759
 7491TIP3    H222351   8.912   1.246   3.846
 7492TIP3   OH222352   8.533   0.779   3.787
 7492TIP3    H122353   8.451   0.827   3.763
 7492TIP3    H222354   8.577   0.771   3.701
 7493TIP3   OH222355   8.493   0.567   3.504
 7493TIP3    H122356   8.570   0.610   3.546
 7493TIP3    H222357   8.537   0.491   3.459
 7494TIP3   OH222358   8.896   0.851   3.770
 7494TIP3    H122359   8.827   0.879   3.835
 7494TIP3    H222360   8.975   0.855   3.827
 7495TIP3   OH222361   9.128   0.907   4.652
 7495TIP3    H122362   9.110   0.979   4.714
 7495TIP3    H222363   9.044   0.901   4.604
 7496TIP3   OH222364   8.119   0.857   4.174
 7496TIP3    H122365   8.075   0.799   4.108
 7496TIP3    H222366   8.193   0.800   4.203
 7497TIP3   OH222367   8.246   1.265   4.324
 7497TIP3    H122368   8.225   1.225   4.238
 7497TIP3    H222369   8.336   1.232   4.341
 7498TIP3   OH222370   8.255   0.824   4.532
 7498TIP3    H122371   8.286   0.799   4.442
 7498TIP3    H222372   8.301   0.909   4.547
 7499TIP3   OH222373   8.772   1.468   4.305
 7499TIP3    H122374   8.763   1.544   4.364
 7499TIP3    H222375   8.763   1.391   4.365
 7500TIP3   OH222376   8.391   1.384   4.851
 7500TIP3    H122377   8.331   1.446   4.898
 7500TIP3    H222378   8.325   1.330   4.802
 7501TIP3   OH222379   8.726   0.708   3.592
 7501TIP3    H122380   8.792   0.759   3.644
 7501TIP3    H222381   8.756   0.726   3.500
 7502TIP3   OH222382   8.131   0.946   4.953
 7502TIP3    H122383   8.137   1.030   5.002
 7502TIP3    H222384   8.036   0.925   4.965
 7503TIP3   OH222385   8.470   1.398   3.862
 7503TIP3    H122386   8.552   1.450   3.873
 7503TIP3    H222387   8.414   1.459   3.811
 7504TIP3   OH222388   8.186   1.554   4.939
 7504TIP3    H122389   8.151   1.551   4.848
 7504TIP3    H222390   8.106   1.531   4.992
 7505TIP3   OH222391   7.982   0.706   3.981
 7505TIP3    H122392   7.912   0.741   3.921
 7505TIP3    H222393   7.957   0.613   3.989
 7506TIP3   OH222394   7.764   1.084   4.885
 7506TIP3    H122395   7.699   1.063   4.815
 7506TIP3    H222396   7.799   0.996   4.908
 7507TIP3   OH222397   7.619   1.273   4.522
 7507TIP3    H122398   7.714   1.269   4.508
 7507TIP3    H222399   7.609   1.355   4.572
 7508TIP3   OH222400   8.589   1.512   4.710
 7508TIP3    H122401   8.588   1.604   4.741
 7508TIP3    H222402   8.517   1.473   4.764
 7509TIP3   OH222403   8.318   1.633   3.671
 7509TIP3    H122404   8.305   1.618   3.576
 7509TIP3    H222405   8.315   1.730   3.680
 7510TIP3   OH222406   7.787   1.492   4.044
 7510TIP3    H122407   7.834   1.481   4.129
 7510TIP3    H222408   7.729   1.414   4.046
 7511TIP3   OH222409   8.559   1.541   3.311
 7511TIP3    H122410   8.612   1.470   3.269
 7511TIP3    H222411   8.609   1.557   3.393
 7512TIP3   OH222412   7.970   1.266   4.876
 7512TIP3    H122413   8.020   1.248   4.958
 7512TIP3    H222414   7.896   1.202   4.882
 7513TIP3   OH222415   8.803   0.752   3.329
 7513TIP3    H122416   8.778   0.734   3.236
 7513TIP3    H222417   8.841   0.840   3.323
 7514TIP3   OH222418   8.307   0.603   4.683
 7514TIP3    H122419   8.248   0.625   4.758
 7514TIP3    H222420   8.293   0.682   4.625
 7515TIP3   OH222421   8.171   0.514   4.185
 7515TIP3    H122422   8.095   0.461   4.216
 7515TIP3    H222423   8.194   0.466   4.102
 7516TIP3   OH222424   8.677   0.583   3.906
 7516TIP3    H122425   8.613   0.654   3.885
 7516TIP3    H222426   8.729   0.584   3.824
 7517TIP3   OH222427   8.863   0.885   4.960
 7517TIP3    H122428   8.826   0.844   5.042
 7517TIP3    H222429   8.955   0.896   4.989
 7518TIP3   OH222430   8.819   0.596   4.165
 7518TIP3    H122431   8.776   0.642   4.091
 7518TIP3    H222432   8.857   0.520   4.120
 7519TIP3   OH222433   8.125   0.644   4.884
 7519TIP3    H122434   8.136   0.702   4.961
 7519TIP3    H222435   8.083   0.566   4.921
 7520TIP3   OH222436   8.834   0.860   4.576
 7520TIP3    H122437   8.872   0.787   4.521
 7520TIP3    H222438   8.821   0.816   4.661
 7521TIP3   OH222439   7.941   0.366   4.260
 7521TIP3    H122440   7.847   0.383   4.237
 7521TIP3    H222441   7.949   0.271   4.242
 7522TIP3   OH222442   8.231   0.387   3.947
 7522TIP3    H122443   8.315   0.360   3.908
 7522TIP3    H222444   8.169   0.379   3.871
 7523TIP3   OH222445   8.047   0.401   3.728
 7523TIP3    H122446   7.989   0.350   3.669
 7523TIP3    H222447   8.108   0.439   3.662
 7524TIP3   OH222448   9.164   2.085   4.670
 7524TIP3    H122449   9.167   2.098   4.573
 7524TIP3    H222450   9.240   2.137   4.698
 7525TIP3   OH222451   8.130   1.187   5.096
 7525TIP3    H122452   8.211   1.216   5.142
 7525TIP3    H222453   8.066   1.188   5.170
 7526TIP3   OH222454   8.599   0.644   4.351
 7526TIP3    H122455   8.668   0.602   4.297
 7526TIP3    H222456   8.598   0.588   4.431
 7527TIP3   OH222457   8.571   0.518   4.664
 7527TIP3    H122458   8.485   0.564   4.662
 7527TIP3    H222459   8.627   0.580   4.716
 7528TIP3   OH222460   8.307   0.929   3.734
 7528TIP3    H122461   8.235   0.863   3.723
 7528TIP3    H222462   8.288   0.962   3.826
 7529TIP3   OH222463   8.722   1.252   4.731
 7529TIP3    H122464   8.726   1.223   4.823
 7529TIP3    H222465   8.671   1.335   4.736
 7530TIP3   OH222466   8.002   0.949   4.411
 7530TIP3    H122467   8.039   0.923   4.323
 7530TIP3    H222468   8.041   0.882   4.468
 7531TIP3   OH222469   8.453   1.077   3.554
 7531TIP3    H122470   8.406   1.163   3.560
 7531TIP3    H222471   8.398   1.022   3.614
 7532TIP3   OH222472   7.873   0.872   5.027
 7532TIP3    H122473   7.897   0.854   5.120
 7532TIP3    H222474   7.804   0.805   5.010
 7533TIP3   OH222475   8.603   0.991   5.037
 7533TIP3    H122476   8.534   0.933   5.001
 7533TIP3    H222477   8.678   0.968   4.980
 7534TIP3   OH222478   8.867   1.511   4.625
 7534TIP3    H122479   8.772   1.503   4.639
 7534TIP3    H222480   8.894   1.562   4.704
 7535TIP3   OH222481   8.999   1.337   3.419
 7535TIP3    H122482   8.978   1.360   3.510
 7535TIP3    H222483   8.925   1.376   3.372
 7536TIP3   OH222484   8.945   1.036   4.285
 7536TIP3    H122485   8.860   0.989   4.290
 7536TIP3    H222486   9.008   0.966   4.268
 7537TIP3   OH222487   8.102   1.254   4.037
 7537TIP3    H122488   8.104   1.334   3.982
 7537TIP3    H222489   8.007   1.237   4.041
 7538TIP3   OH222490   7.665   0.555   3.738
 7538TIP3    H122491   7.713   0.639   3.756
 7538TIP3    H222492   7.589   0.564   3.799
 7539TIP3   OH222493   8.244   1.021   3.981
 7539TIP3    H122494   8.206   1.109   4.000
 7539TIP3    H222495   8.206   0.968   4.054
 7540TIP3   OH222496   8.370   1.598   4.505
 7540TIP3    H122497   8.412   1.670   4.453
 7540TIP3    H222498   8.447   1.562   4.551
 7541TIP3   OH222499   8.021   1.492   3.889
 7541TIP3    H122500   7.935   1.501   3.933
 7541TIP3    H222501   8.052   1.585   3.888
 7542TIP3   OH222502   8.761   1.233   4.458
 7542TIP3    H122503   8.760   1.226   4.556
 7542TIP3    H222504   8.836   1.176   4.433
 7543TIP3   OH222505   8.720   1.126   3.347
 7543TIP3    H122506   8.782   1.094   3.416
 7543TIP3    H222507   8.635   1.103   3.386
 7544TIP3   OH222508   8.995   1.769   4.519
 7544TIP3    H122509   8.918   1.711   4.504
 7544TIP3    H222510   8.989   1.830   4.441
 7545TIP3   OH222511   8.894   1.028   3.542
 7545TIP3    H122512   8.887   0.979   3.626
 7545TIP3    H222513   8.944   1.107   3.570
 7546TIP3   OH222514   7.809   1.462   4.664
 7546TIP3    H122515   7.861   1.384   4.691
 7546TIP3    H222516   7.841   1.527   4.727
 7547TIP3   OH222517   8.102   1.105   3.345
 7547TIP3    H122518   8.113   1.013   3.316
 7547TIP3    H222519   8.082   1.093   3.440
 7548TIP3   OH222520   8.046   1.110   3.617
 7548TIP3    H122521   8.116   1.083   3.677
 7548TIP3    H222522   8.049   1.208   3.623
 7549TIP3   OH222523   7.778   0.802   3.818
 7549TIP3    H122524   7.714   0.848   3.876
 7549TIP3    H222525   7.795   0.873   3.752
 7550TIP3   OH222526   8.310   1.306   3.566
 7550TIP3    H122527   8.225   1.335   3.603
 7550TIP3    H222528   8.331   1.382   3.510
 7551TIP3   OH222529   8.527   0.361   3.978
 7551TIP3    H122530   8.566   0.449   3.960
 7551TIP3    H222531   8.480   0.376   4.061
 7552TIP3   OH222532   8.754   0.670   4.813
 7552TIP3    H122533   8.789   0.745   4.864
 7552TIP3    H222534   8.833   0.622   4.784
 7553TIP3   OH222535   8.052   1.382   3.633
 7553TIP3    H122536   8.024   1.452   3.570
 7553TIP3    H222537   8.039   1.427   3.719
 7554TIP3   OH222538   7.771   1.015   3.627
 7554TIP3    H122539   7.836   1.087   3.635
 7554TIP3    H222540   7.818   0.961   3.559
 7555TIP3   OH222541   7.691   0.264   3.744
 7555TIP3    H122542   7.736   0.350   3.744
 7555TIP3    H222543   7.608   0.288   3.787
 7556TIP3   OH222544   9.047   1.749   4.116
 7556TIP3    H122545   9.010   1.795   4.038
 7556TIP3    H222546   9.122   1.698   4.078
 7557TIP3   OH222547   7.645   1.229   4.016
 7557TIP3    H122548   7.570   1.259   4.068
 7557TIP3    H222549   7.621   1.267   3.928
 7558TIP3   OH222550   7.799   1.767   5.086
 7558TIP3    H122551   7.885   1.765   5.132
 7558TIP3    H222552   7.777   1.673   5.083
 7559TIP3   OH222553   8.284   1.736   5.127
 7559TIP3    H122554   8.377   1.711   5.137
 7559TIP3    H222555   8.256   1.677   5.055
 7560TIP3   OH222556   8.263   1.311   3.258
 7560TIP3    H122557   8.206   1.241   3.297
 7560TIP3    H222558   8.337   1.256   3.226
 7561TIP3   OH222559   8.917   1.642   4.866
 7561TIP3    H122560   8.907   1.569   4.932
 7561TIP3    H222561   8.997   1.687   4.898
 7562TIP3   OH222562   8.703   1.350   3.181
 7562TIP3    H122563   8.733   1.267   3.224
 7562TIP3    H222564   8.741   1.345   3.091
 7563TIP3   OH222565   7.930   1.175   5.287
 7563TIP3    H122566   7.947   1.079   5.292
 7563TIP3    H222567   7.843   1.176   5.241
 7564TIP3   OH222568   7.907   0.827   3.478
 7564TIP3    H122569   7.961   0.792   3.551
 7564TIP3    H222570   7.975   0.832   3.408
 7565TIP3   OH222571   8.538   1.261   5.060
 7565TIP3    H122572   8.495   1.273   4.973
 7565TIP3    H222573   8.568   1.168   5.056
 7566TIP3   OH222574   8.415   1.024   3.285
 7566TIP3    H122575   8.417   1.038   3.382
 7566TIP3    H222576   8.412   0.926   3.281
 7567TIP3   OH222577   9.039   1.272   4.665
 7567TIP3    H122578   9.083   1.310   4.588
 7567TIP3    H222579   8.955   1.321   4.663
 7568TIP3   OH222580   8.047   0.901   5.270
 7568TIP3    H122581   8.125   0.849   5.249
 7568TIP3    H222582   8.073   0.936   5.358
 7569TIP3   OH222583   8.117   0.731   3.704
 7569TIP3    H122584   8.091   0.687   3.787
 7569TIP3    H222585   8.151   0.655   3.651
 7570TIP3   OH222586   8.382   0.847   4.917
 7570TIP3    H122587   8.294   0.890   4.925
 7570TIP3    H222588   8.406   0.865   4.824
 7571TIP3   OH222589   8.214   0.525   3.545
 7571TIP3    H122590   8.189   0.522   3.450
 7571TIP3    H222591   8.311   0.530   3.537
 7572TIP3   OH222592   8.901   1.199   5.068
 7572TIP3    H122593   8.973   1.166   5.014
 7572TIP3    H222594   8.896   1.133   5.139
 7573TIP3   OH222595   8.489   0.643   5.056
 7573TIP3    H122596   8.474   0.560   5.008
 7573TIP3    H222597   8.458   0.710   4.991
 7574TIP3   OH222598   8.572   0.913   4.710
 7574TIP3    H122599   8.645   0.924   4.647
 7574TIP3    H222600   8.507   0.978   4.678
 7575TIP3   OH222601   9.122   0.873   5.122
 7575TIP3    H122602   9.167   0.790   5.106
 7575TIP3    H222603   9.186   0.939   5.094
 7576TIP3   OH222604   9.176   1.135   4.852
 7576TIP3    H122605   9.113   1.186   4.796
 7576TIP3    H222606   9.254   1.140   4.795
 7577TIP3   OH222607   8.359   0.721   5.289
 7577TIP3    H122608   8.299   0.644   5.287
 7577TIP3    H222609   8.414   0.702   5.210
 7578TIP3   OH222610   8.811   0.750   5.179
 7578TIP3    H122611   8.761   0.732   5.261
 7578TIP3    H222612   8.827   0.659   5.148
 7579TIP3   OH222613   8.023   1.585   3.445
 7579TIP3    H122614   8.119   1.583   3.430
 7579TIP3    H222615   7.994   1.633   3.365
 7580TIP3   OH222616   7.504   0.967   3.664
 7580TIP3    H122617   7.598   0.989   3.650
 7580TIP3    H222618   7.498   0.879   3.622
 7581TIP3   OH222619   7.417   1.581   4.075
 7581TIP3    H122620   7.350   1.519   4.039
 7581TIP3    H222621   7.461   1.523   4.141
 7582TIP3   OH222622   7.553   1.433   4.262
 7582TIP3    H122623   7.541   1.358   4.322
 7582TIP3    H222624   7.604   1.493   4.320
 7583TIP3   OH222625   9.163   1.551   4.396
 7583TIP3    H122626   9.093   1.611   4.425
 7583TIP3    H222627   9.121   1.507   4.319
 7584TIP3   OH222628   7.741   0.833   4.636
 7584TIP3    H122629   7.739   0.806   4.542
 7584TIP3    H222630   7.838   0.839   4.651
 7585TIP3   OH222631   7.734   0.496   4.717
 7585TIP3    H122632   7.780   0.482   4.631
 7585TIP3    H222633   7.756   0.588   4.733
 7586TIP3   OH222634   7.966   1.503   5.107
 7586TIP3    H122635   7.875   1.474   5.089
 7586TIP3    H222636   7.975   1.482   5.200
 7587TIP3   OH222637   8.144   1.534   4.654
 7587TIP3    H122638   8.095   1.609   4.614
 7587TIP3    H222639   8.230   1.547   4.610
 7588TIP3   OH222640   8.590   1.779   4.792
 7588TIP3    H122641   8.633   1.779   4.880
 7588TIP3    H222642   8.656   1.829   4.739
 7589TIP3   OH222643   8.768   1.931   4.649
 7589TIP3    H122644   8.836   1.878   4.603
 7589TIP3    H222645   8.823   1.987   4.708
 7590TIP3   OH222646   7.821   1.794   4.675
 7590TIP3    H122647   7.732   1.827   4.651
 7590TIP3    H222648   7.826   1.822   4.766
 7591TIP3   OH222649   8.058   1.771   4.535
 7591TIP3    H122650   7.971   1.784   4.579
 7591TIP3    H222651   8.038   1.802   4.444
 7592TIP3   OH222652   8.482   1.800   4.333
 7592TIP3    H122653   8.413   1.818   4.266
 7592TIP3    H222654   8.494   1.888   4.373
 7593TIP3   OH222655   8.749   1.740   4.387
 7593TIP3    H122656   8.656   1.754   4.363
 7593TIP3    H222657   8.794   1.811   4.338
 7594TIP3   OH222658   8.958   1.930   4.300
 7594TIP3    H122659   8.935   2.008   4.246
 7594TIP3    H222660   8.992   1.868   4.231
 7595TIP3   OH222661   7.732   1.586   4.422
 7595TIP3    H122662   7.759   1.560   4.513
 7595TIP3    H222663   7.803   1.542   4.371
 7596TIP3   OH222664   7.925   1.456   4.279
 7596TIP3    H122665   7.942   1.372   4.326
 7596TIP3    H222666   8.015   1.493   4.272
 7597TIP3   OH222667   8.191   1.554   4.280
 7597TIP3    H122668   8.223   1.463   4.263
 7597TIP3    H222669   8.235   1.571   4.365
 7598TIP3   OH222670   7.520   1.356   3.814
 7598TIP3    H122671   7.434   1.323   3.779
 7598TIP3    H222672   7.510   1.450   3.793
 7599TIP3   OH222673   8.295   1.548   3.396
 7599TIP3    H122674   8.386   1.565   3.362
 7599TIP3    H222675   8.270   1.474   3.337
 7600TIP3   OH222676   7.595   1.382   3.452
 7600TIP3    H122677   7.595   1.411   3.544
 7600TIP3    H222678   7.685   1.342   3.442
 7601TIP3   OH222679   9.206   1.814   4.690
 7601TIP3    H122680   9.144   1.771   4.628
 7601TIP3    H222681   9.181   1.907   4.676
 7602TIP3   OH222682   1.161   1.713   5.644
 7602TIP3    H122683   1.132   1.804   5.624
 7602TIP3    H222684   1.083   1.663   5.615
 7603TIP3   OH222685   1.157   1.711   6.025
 7603TIP3    H122686   1.189   1.683   6.112
 7603TIP3    H222687   1.116   1.630   5.992
 7604TIP3   OH222688   0.499   1.645   6.400
 7604TIP3    H122689   0.529   1.562   6.441
 7604TIP3    H222690   0.582   1.683   6.367
 7605TIP3   OH222691   1.401   2.014   5.706
 7605TIP3    H122692   1.387   1.944   5.771
 7605TIP3    H222693   1.430   2.088   5.762
 7606TIP3   OH222694   0.428   2.014   6.117
 7606TIP3    H122695   0.420   1.916   6.119
 7606TIP3    H222696   0.524   2.023   6.109
 7607TIP3   OH222697   1.049   2.475   5.722
 7607TIP3    H122698   1.097   2.404   5.674
 7607TIP3    H222699   1.046   2.440   5.812
 7608TIP3   OH222700   0.957   1.937   6.075
 7608TIP3    H122701   0.993   1.860   6.028
 7608TIP3    H222702   1.041   1.981   6.098
 7609TIP3   OH222703   1.971   1.258   6.071
 7609TIP3    H122704   1.999   1.341   6.114
 7609TIP3    H222705   1.990   1.279   5.978
 7610TIP3   OH222706   1.375   1.441   6.106
 7610TIP3    H122707   1.412   1.353   6.125
 7610TIP3    H222708   1.337   1.426   6.017
 7611TIP3   OH222709   1.402   1.189   5.695
 7611TIP3    H122710   1.474   1.172   5.759
 7611TIP3    H222711   1.453   1.226   5.621
 7612TIP3   OH222712   0.795   1.510   5.972
 7612TIP3    H122713   0.888   1.480   5.988
 7612TIP3    H222714   0.755   1.424   5.943
 7613TIP3   OH222715   2.044   1.466   6.240
 7613TIP3    H122716   1.961   1.513   6.219
 7613TIP3    H222717   2.051   1.486   6.335
 7614TIP3   OH222718   1.054   1.935   5.513
 7614TIP3    H122719   1.007   1.910   5.433
 7614TIP3    H222720   1.009   2.019   5.537
 7615TIP3   OH222721   0.812   1.857   6.303
 7615TIP3    H122722   0.750   1.924   6.340
 7615TIP3    H222723   0.856   1.907   6.231
 7616TIP3   OH222724   1.614   1.190   5.865
 7616TIP3    H122725   1.600   1.143   5.948
 7616TIP3    H222726   1.665   1.268   5.893
 7617TIP3   OH222727   0.635   2.050   6.402
 7617TIP3    H122728   0.611   2.135   6.361
 7617TIP3    H222729   0.553   2.030   6.450
 7618TIP3   OH222730   0.075   1.754   5.620
 7618TIP3    H122731  -0.004   1.774   5.568
 7618TIP3    H222732   0.070   1.820   5.691
 7619TIP3   OH222733   1.472   2.256   5.874
 7619TIP3    H122734   1.382   2.247   5.914
 7619TIP3    H222735   1.464   2.342   5.830
 7620TIP3   OH222736   1.762   1.161   6.236
 7620TIP3    H122737   1.674   1.189   6.207
 7620TIP3    H222738   1.820   1.192   6.164
 7621TIP3   OH222739   1.175   2.303   5.549
 7621TIP3    H122740   1.225   2.221   5.529
 7621TIP3    H222741   1.236   2.369   5.507
 7622TIP3   OH222742   1.319   2.088   5.454
 7622TIP3    H122743   1.275   2.009   5.418
 7622TIP3    H222744   1.354   2.054   5.539
 7623TIP3   OH222745   1.698   2.170   6.218
 7623TIP3    H122746   1.687   2.092   6.159
 7623TIP3    H222747   1.682   2.245   6.156
 7624TIP3   OH222748   0.990   1.564   5.474
 7624TIP3    H122749   0.908   1.614   5.452
 7624TIP3    H222750   1.035   1.561   5.388
 7625TIP3   OH222751   0.948   1.347   5.195
 7625TIP3    H122752   1.017   1.397   5.242
 7625TIP3    H222753   1.004   1.284   5.145
 7626TIP3   OH222754   1.894   1.806   6.062
 7626TIP3    H122755   1.811   1.858   6.068
 7626TIP3    H222756   1.923   1.831   5.972
 7627TIP3   OH222757   1.338   1.646   5.447
 7627TIP3    H122758   1.283   1.670   5.525
 7627TIP3    H222759   1.421   1.620   5.491
 7628TIP3   OH222760   1.573   1.686   6.357
 7628TIP3    H122761   1.570   1.770   6.407
 7628TIP3    H222762   1.486   1.688   6.312
 7629TIP3   OH222763   0.582   1.659   5.874
 7629TIP3    H122764   0.539   1.604   5.804
 7629TIP3    H222765   0.656   1.601   5.901
 7630TIP3   OH222766   0.698   2.053   6.014
 7630TIP3    H122767   0.678   2.009   5.930
 7630TIP3    H222768   0.789   2.021   6.032
 7631TIP3   OH222769   0.697   1.632   6.195
 7631TIP3    H122770   0.737   1.599   6.111
 7631TIP3    H222771   0.754   1.708   6.218
 7632TIP3   OH222772   1.230   2.253   5.994
 7632TIP3    H122773   1.218   2.332   6.049
 7632TIP3    H222774   1.217   2.179   6.057
 7633TIP3   OH222775   0.844   2.171   6.542
 7633TIP3    H122776   0.785   2.235   6.587
 7633TIP3    H222777   0.779   2.118   6.492
 7634TIP3   OH222778   1.180   1.503   5.273
 7634TIP3    H122779   1.238   1.563   5.326
 7634TIP3    H222780   1.205   1.528   5.181
 7635TIP3   OH222781   0.603   1.740   6.645
 7635TIP3    H122782   0.591   1.828   6.685
 7635TIP3    H222783   0.517   1.723   6.604
 7636TIP3   OH222784   0.920   2.185   5.547
 7636TIP3    H122785   0.999   2.237   5.567
 7636TIP3    H222786   0.859   2.250   5.511
 7637TIP3   OH222787   0.638   2.339   6.627
 7637TIP3    H122788   0.605   2.342   6.535
 7637TIP3    H222789   0.556   2.318   6.678
 7638TIP3   OH222790   1.694   0.745   5.321
 7638TIP3    H122791   1.612   0.764   5.372
 7638TIP3    H222792   1.706   0.830   5.273
 7639TIP3   OH222793   0.474   1.517   5.665
 7639TIP3    H122794   0.400   1.561   5.620
 7639TIP3    H222795   0.433   1.430   5.682
 7640TIP3   OH222796   1.492   2.112   4.868
 7640TIP3    H122797   1.500   2.209   4.855
 7640TIP3    H222798   1.585   2.084   4.856
 7641TIP3   OH222799   0.060   2.063   6.216
 7641TIP3    H122800   0.150   2.035   6.196
 7641TIP3    H222801   0.079   2.144   6.266
 7642TIP3   OH222802   1.936   2.513   6.263
 7642TIP3    H122803   1.935   2.417   6.279
 7642TIP3    H222804   1.853   2.539   6.309
 7643TIP3   OH222805   1.042   2.302   6.398
 7643TIP3    H122806   1.042   2.394   6.431
 7643TIP3    H222807   0.971   2.262   6.454
 7644TIP3   OH222808   0.801   2.430   5.350
 7644TIP3    H122809   0.756   2.412   5.266
 7644TIP3    H222810   0.769   2.519   5.373
 7645TIP3   OH222811   0.241   2.280   5.734
 7645TIP3    H122812   0.290   2.271   5.819
 7645TIP3    H222813   0.183   2.202   5.739
 7646TIP3   OH222814   1.003   2.330   4.991
 7646TIP3    H122815   1.063   2.261   4.955
 7646TIP3    H222816   1.037   2.340   5.082
 7647TIP3   OH222817   1.053   2.378   5.261
 7647TIP3    H122818   0.965   2.388   5.304
 7647TIP3    H222819   1.105   2.338   5.333
 7648TIP3   OH222820   1.826   1.646   6.538
 7648TIP3    H122821   1.745   1.660   6.487
 7648TIP3    H222822   1.840   1.550   6.526
 7649TIP3   OH222823   0.413   2.037   6.567
 7649TIP3    H122824   0.473   2.040   6.644
 7649TIP3    H222825   0.340   1.985   6.603
 7650TIP3   OH222826   1.346   0.991   6.556
 7650TIP3    H122827   1.433   0.968   6.597
 7650TIP3    H222828   1.288   0.975   6.632
 7651TIP3   OH222829   1.599   1.423   6.460
 7651TIP3    H122830   1.548   1.417   6.544
 7651TIP3    H222831   1.570   1.509   6.424
 7652TIP3   OH222832   1.255   1.552   5.017
 7652TIP3    H122833   1.221   1.526   4.929
 7652TIP3    H222834   1.335   1.601   4.992
 7653TIP3   OH222835   0.958   0.928   5.325
 7653TIP3    H122836   0.923   0.942   5.416
 7653TIP3    H222837   0.950   0.832   5.321
 7654TIP3   OH222838   0.808   1.441   6.358
 7654TIP3    H122839   0.731   1.405   6.405
 7654TIP3    H222840   0.765   1.497   6.291
 7655TIP3   OH222841   0.670   1.286   5.888
 7655TIP3    H122842   0.587   1.243   5.913
 7655TIP3    H222843   0.679   1.252   5.796
 7656TIP3   OH222844   1.136   1.373   5.608
 7656TIP3    H122845   1.078   1.440   5.566
 7656TIP3    H222846   1.184   1.338   5.531
 7657TIP3   OH222847   1.304   1.649   6.696
 7657TIP3    H122848   1.287   1.573   6.757
 7657TIP3    H222849   1.399   1.663   6.714
 7658TIP3   OH222850   1.289   1.394   5.847
 7658TIP3    H122851   1.227   1.424   5.776
 7658TIP3    H222852   1.319   1.311   5.805
 7659TIP3   OH222853   1.299   1.641   6.269
 7659TIP3    H122854   1.331   1.569   6.210
 7659TIP3    H222855   1.270   1.589   6.346
 7660TIP3   OH222856   0.975   1.124   5.941
 7660TIP3    H122857   0.886   1.106   5.975
 7660TIP3    H222858   1.032   1.102   6.016
 7661TIP3   OH222859   0.669   1.184   5.636
 7661TIP3    H122860   0.763   1.169   5.617
 7661TIP3    H222861   0.626   1.169   5.550
 7662TIP3   OH222862   1.455   1.175   6.143
 7662TIP3    H122863   1.423   1.188   6.235
 7662TIP3    H222864   1.389   1.112   6.111
 7663TIP3   OH222865   0.514   1.161   5.404
 7663TIP3    H122866   0.432   1.147   5.355
 7663TIP3    H222867   0.567   1.211   5.340
 7664TIP3   OH222868   1.625   2.865   6.363
 7664TIP3    H122869   1.625   2.890   6.268
 7664TIP3    H222870   1.704   2.913   6.395
 7665TIP3   OH222871   0.584   1.988   6.785
 7665TIP3    H122872   0.674   2.023   6.801
 7665TIP3    H222873   0.568   1.954   6.873
 7666TIP3   OH222874   1.054   1.435   6.045
 7666TIP3    H122875   1.113   1.380   5.992
 7666TIP3    H222876   1.056   1.389   6.131
 7667TIP3   OH222877   1.039   1.318   6.306
 7667TIP3    H122878   0.956   1.363   6.335
 7667TIP3    H222879   1.102   1.357   6.370
 7668TIP3   OH222880   0.759   1.717   5.423
 7668TIP3    H122881   0.687   1.652   5.412
 7668TIP3    H222882   0.742   1.750   5.514
 7669TIP3   OH222883   1.662   1.952   6.054
 7669TIP3    H122884   1.685   2.001   5.973
 7669TIP3    H222885   1.576   1.911   6.030
 7670TIP3   OH222886   1.212   1.032   5.279
 7670TIP3    H122887   1.116   1.017   5.294
 7670TIP3    H222888   1.226   1.125   5.307
 7671TIP3   OH222889   1.161   2.035   6.420
 7671TIP3    H122890   1.184   2.010   6.510
 7671TIP3    H222891   1.124   2.124   6.430
 7672TIP3   OH222892   1.289   1.273   5.387
 7672TIP3    H122893   1.385   1.281   5.405
 7672TIP3    H222894   1.271   1.355   5.336
 7673TIP3   OH222895   0.447   1.736   6.105
 7673TIP3    H122896   0.482   1.711   6.016
 7673TIP3    H222897   0.514   1.695   6.162
 7674TIP3   OH222898   0.905   1.865   5.244
 7674TIP3    H122899   0.858   1.951   5.251
 7674TIP3    H222900   0.852   1.810   5.304
 7675TIP3   OH222901   1.058   1.770   6.734
 7675TIP3    H122902   1.003   1.718   6.672
 7675TIP3    H222903   1.147   1.739   6.706
 7676TIP3   OH222904   1.321   2.294   6.316
 7676TIP3    H122905   1.225   2.293   6.329
 7676TIP3    H222906   1.349   2.346   6.395
 7677TIP3   OH222907   1.732   1.365   5.225
 7677TIP3    H122908   1.669   1.320   5.164
 7677TIP3    H222909   1.728   1.454   5.185
 7678TIP3   OH222910   1.948   2.221   6.308
 7678TIP3    H122911   1.850   2.217   6.299
 7678TIP3    H222912   1.973   2.193   6.217
 7679TIP3   OH222913   1.430   2.185   5.133
 7679TIP3    H122914   1.406   2.116   5.197
 7679TIP3    H222915   1.442   2.136   5.050
 7680TIP3   OH222916   1.427   1.814   5.973
 7680TIP3    H122917   1.333   1.788   5.987
 7680TIP3    H222918   1.461   1.734   5.928
 7681TIP3   OH222919   0.554   2.042   5.726
 7681TIP3    H122920   0.554   2.124   5.672
 7681TIP3    H222921   0.459   2.025   5.733
 7682TIP3   OH222922   0.695   1.810   5.667
 7682TIP3    H122923   0.658   1.899   5.688
 7682TIP3    H222924   0.664   1.759   5.744
 7683TIP3   OH222925   0.822   2.385   6.196
 7683TIP3    H122926   0.863   2.458   6.144
 7683TIP3    H222927   0.900   2.351   6.243
 7684TIP3   OH222928   0.473   2.281   5.576
 7684TIP3    H122929   0.388   2.290   5.623
 7684TIP3    H222930   0.506   2.374   5.580
 7685TIP3   OH222931   1.213   2.020   6.151
 7685TIP3    H122932   1.203   2.018   6.249
 7685TIP3    H222933   1.291   1.965   6.139
 7686TIP3   OH222934   1.185   1.912   5.035
 7686TIP3    H122935   1.239   1.887   5.114
 7686TIP3    H222936   1.097   1.886   5.066
 7687TIP3   OH222937   1.460   2.554   6.204
 7687TIP3    H122938   1.381   2.497   6.196
 7687TIP3    H222939   1.445   2.619   6.131
 7688TIP3   OH222940   1.526   2.388   4.855
 7688TIP3    H122941   1.564   2.462   4.805
 7688TIP3    H222942   1.445   2.433   4.889
 7689TIP3   OH222943   1.345   1.845   5.251
 7689TIP3    H122944   1.335   1.780   5.323
 7689TIP3    H222945   1.443   1.844   5.240
 7690TIP3   OH222946   0.255   2.241   6.355
 7690TIP3    H122947   0.319   2.174   6.384
 7690TIP3    H222948   0.282   2.317   6.409
 7691TIP3   OH222949   0.550   1.894   5.035
 7691TIP3    H122950   0.568   1.802   5.006
 7691TIP3    H222951   0.533   1.881   5.130
 7692TIP3   OH222952   0.496   1.897   5.309
 7692TIP3    H122953   0.569   1.869   5.366
 7692TIP3    H222954   0.502   1.995   5.315
 7693TIP3   OH222955   0.245   1.575   5.514
 7693TIP3    H122956   0.184   1.631   5.569
 7693TIP3    H222957   0.265   1.639   5.444
 7694TIP3   OH222958   1.384   1.223   6.404
 7694TIP3    H122959   1.462   1.261   6.446
 7694TIP3    H222960   1.365   1.145   6.460
 7695TIP3   OH222961   1.270   0.983   5.559
 7695TIP3    H122962   1.251   1.010   5.468
 7695TIP3    H222963   1.304   1.066   5.599
 7696TIP3   OH222964   0.762   2.095   5.255
 7696TIP3    H122965   0.676   2.123   5.292
 7696TIP3    H222966   0.780   2.169   5.195
 7697TIP3   OH222967   0.959   1.173   5.676
 7697TIP3    H122968   1.022   1.246   5.659
 7697TIP3    H222969   0.961   1.169   5.774
 7698TIP3   OH222970   1.227   1.480   6.475
 7698TIP3    H122971   1.236   1.533   6.556
 7698TIP3    H222972   1.280   1.401   6.496
 7699TIP3   OH222973   1.113   0.887   5.769
 7699TIP3    H122974   1.081   0.961   5.824
 7699TIP3    H222975   1.166   0.932   5.700
 7700TIP3   OH222976   0.505   2.171   5.323
 7700TIP3    H122977   0.476   2.241   5.260
 7700TIP3    H222978   0.490   2.214   5.410
 7701TIP3   OH222979   1.864   1.377   6.455
 7701TIP3    H122980   1.767   1.378   6.467
 7701TIP3    H222981   1.870   1.333   6.370
 7702TIP3   OH222982   1.513   1.573   5.846
 7702TIP3    H122983   1.436   1.514   5.859
 7702TIP3    H222984   1.583   1.525   5.895
 7703TIP3   OH222985   0.219   1.805   5.310
 7703TIP3    H122986   0.287   1.873   5.327
 7703TIP3    H222987   0.269   1.750   5.246
 7704TIP3   OH222988   1.480   2.527   5.796
 7704TIP3    H122989   1.438   2.574   5.720
 7704TIP3    H222990   1.575   2.546   5.776
 7705TIP3   OH222991   0.100   2.031   5.726
 7705TIP3    H122992   0.010   2.060   5.747
 7705TIP3    H222993   0.099   2.044   5.629
 7706TIP3   OH222994   0.268   2.566   6.758
 7706TIP3    H122995   0.345   2.569   6.818
 7706TIP3    H222996   0.240   2.474   6.766
 7707TIP3   OH222997   0.732   2.524   6.820
 7707TIP3    H122998   0.827   2.508   6.830
 7707TIP3    H222999   0.711   2.465   6.745
 7708TIP3   OH223000   0.715   2.097   4.948
 7708TIP3    H123001   0.659   2.027   4.987
 7708TIP3    H223002   0.791   2.044   4.918
 7709TIP3   OH223003   1.372   2.428   6.554
 7709TIP3    H123004   1.364   2.358   6.622
 7709TIP3    H223005   1.451   2.477   6.583
 7710TIP3   OH223006   1.152   2.138   4.859
 7710TIP3    H123007   1.196   2.075   4.918
 7710TIP3    H223008   1.210   2.138   4.780
 7711TIP3   OH223009   0.364   1.614   5.171
 7711TIP3    H123010   0.419   1.582   5.244
 7711TIP3    H223011   0.432   1.616   5.099
 7712TIP3   OH223012   0.987   2.044   6.750
 7712TIP3    H123013   0.952   2.064   6.661
 7712TIP3    H223014   1.021   1.953   6.741
 7713TIP3   OH223015   0.866   1.813   4.975
 7713TIP3    H123016   0.871   1.826   5.072
 7713TIP3    H223017   0.868   1.715   4.970
 7714TIP3   OH223018   1.483   2.055   6.355
 7714TIP3    H123019   1.558   2.101   6.311
 7714TIP3    H223020   1.412   2.121   6.341
 7715TIP3   OH223021   0.563   1.519   5.384
 7715TIP3    H123022   0.549   1.487   5.476
 7715TIP3    H223023   0.603   1.441   5.341
 7716TIP3   OH223024   0.823   1.580   6.623
 7716TIP3    H123025   0.756   1.651   6.624
 7716TIP3    H223026   0.875   1.600   6.542
 7717TIP3   OH223027   0.668   1.309   5.231
 7717TIP3    H123028   0.643   1.314   5.136
 7717TIP3    H223029   0.766   1.316   5.224
 7718TIP3   OH223030   1.353   1.984   6.754
 7718TIP3    H123031   1.434   1.963   6.705
 7718TIP3    H223032   1.353   1.916   6.823
 7719TIP3   OH223033   1.492   1.643   4.893
 7719TIP3    H123034   1.469   1.596   4.810
 7719TIP3    H223035   1.459   1.733   4.869
 7720TIP3   OH223036   0.997   1.389   6.731
 7720TIP3    H123037   0.946   1.313   6.698
 7720TIP3    H223038   0.934   1.460   6.707
 7721TIP3   OH223039   0.994   1.702   6.442
 7721TIP3    H123040   1.069   1.689   6.383
 7721TIP3    H223041   0.937   1.763   6.390
 7722TIP3   OH223042   1.572   1.660   6.807
 7722TIP3    H123043   1.621   1.577   6.818
 7722TIP3    H223044   1.641   1.719   6.774
 7723TIP3   OH223045   1.614   1.912   6.543
 7723TIP3    H123046   1.556   1.965   6.483
 7723TIP3    H223047   1.701   1.931   6.502
 7724TIP3   OH223048   1.244   1.428   6.839
 7724TIP3    H123049   1.235   1.422   6.936
 7724TIP3    H223050   1.152   1.410   6.807
 7725TIP3   OH223051   1.465   1.371   6.686
 7725TIP3    H123052   1.390   1.379   6.750
 7725TIP3    H223053   1.538   1.341   6.744
 7726TIP3   OH223054   1.692   1.315   6.841
 7726TIP3    H123055   1.703   1.219   6.859
 7726TIP3    H223056   1.685   1.353   6.931
 7727TIP3   OH223057   0.475   2.373   5.135
 7727TIP3    H123058   0.571   2.369   5.117
 7727TIP3    H223059   0.446   2.423   5.056
 7728TIP3   OH223060  -0.044   1.727   5.361
 7728TIP3    H123061   0.044   1.769   5.354
 7728TIP3    H223062  -0.024   1.637   5.328
 7729TIP3   OH223063  -0.122   2.362   5.752
 7729TIP3    H123064  -0.209   2.323   5.748
 7729TIP3    H223065  -0.083   2.316   5.829
 7730TIP3   OH223066  -0.006   2.231   5.959
 7730TIP3    H123067   0.003   2.150   6.011
 7730TIP3    H223068   0.051   2.292   6.011
 7731TIP3   OH223069   1.732   2.620   5.752
 7731TIP3    H123070   1.758   2.652   5.840
 7731TIP3    H223071   1.794   2.667   5.694
 7732TIP3   OH223072   1.762   2.640   6.033
 7732TIP3    H123073   1.721   2.551   6.030
 7732TIP3    H223074   1.838   2.620   6.091
 7733TIP3   OH223075   1.808   2.316   6.606
 7733TIP3    H123076   1.736   2.326   6.672
 7733TIP3    H223077   1.851   2.404   6.611
 7734TIP3   OH223078   1.626   1.829   5.227
 7734TIP3    H123079   1.695   1.893   5.200
 7734TIP3    H223080   1.667   1.790   5.307
 7735TIP3   OH223081   1.752   1.697   5.431
 7735TIP3    H123082   1.687   1.654   5.490
 7735TIP3    H223083   1.817   1.735   5.494
 7736TIP3   OH223084   1.806   2.088   5.863
 7736TIP3    H123085   1.860   2.024   5.812
 7736TIP3    H223086   1.798   2.163   5.800
 7737TIP3   OH223087   1.639   2.389   6.058
 7737TIP3    H123088   1.568   2.431   6.111
 7737TIP3    H223089   1.588   2.341   5.989
 7738TIP3   OH223090   1.691   1.604   5.078
 7738TIP3    H123091   1.619   1.608   5.011
 7738TIP3    H223092   1.664   1.680   5.134
 7739TIP3   OH223093   1.564   1.277   5.031
 7739TIP3    H123094   1.518   1.316   4.956
 7739TIP3    H223095   1.537   1.183   5.022
 7740TIP3   OH223096   1.568   1.552   5.577
 7740TIP3    H123097   1.574   1.456   5.573
 7740TIP3    H223098   1.553   1.568   5.674
 7741TIP3   OH223099   1.856   1.977   6.433
 7741TIP3    H123100   1.929   1.913   6.424
 7741TIP3    H223101   1.883   2.049   6.374
 7742TIP3   OH223102   2.042   1.783   6.450
 7742TIP3    H123103   1.966   1.735   6.490
 7742TIP3    H223104   2.114   1.719   6.466
 7743TIP3   OH223105   1.506   1.011   5.017
 7743TIP3    H123106   1.580   0.981   5.073
 7743TIP3    H223107   1.432   0.954   5.043
 7744TIP3   OH223108   1.563   1.269   5.473
 7744TIP3    H123109   1.603   1.180   5.489
 7744TIP3    H223110   1.622   1.301   5.403
 7745TIP3   OH223111   1.726   1.442   5.968
 7745TIP3    H123112   1.812   1.470   5.928
 7745TIP3    H223113   1.737   1.480   6.057
 7746TIP3   OH223114   1.794   1.587   6.200
 7746TIP3    H123115   1.715   1.620   6.248
 7746TIP3    H223116   1.825   1.668   6.155
 7747TIP3   OH223117   2.260   1.188   6.756
 7747TIP3    H123118   2.307   1.113   6.712
 7747TIP3    H223119   2.219   1.233   6.679
 7748TIP3   OH223120   1.673   1.019   5.509
 7748TIP3    H123121   1.720   1.003   5.594
 7748TIP3    H223122   1.611   0.943   5.508
 7749TIP3   OH223123   2.118   1.317   6.563
 7749TIP3    H123124   2.032   1.358   6.586
 7749TIP3    H223125   2.086   1.247   6.503
 7750TIP3   OH223126   1.754   0.955   5.142
 7750TIP3    H123127   1.794   0.882   5.091
 7750TIP3    H223128   1.822   1.025   5.136
 7751TIP3   OH223129   1.316   2.486   5.409
 7751TIP3    H123130   1.369   2.472   5.327
 7751TIP3    H223131   1.369   2.552   5.456
 7752TIP3   OH223132   0.411   2.279   6.789
 7752TIP3    H123133   0.328   2.231   6.783
 7752TIP3    H223134   0.426   2.289   6.884
 7753TIP3   OH223135   0.594   2.322   6.343
 7753TIP3    H123136   0.549   2.399   6.303
 7753TIP3    H223137   0.681   2.334   6.299
 7754TIP3   OH223138   1.042   2.568   6.481
 7754TIP3    H123139   1.084   2.568   6.569
 7754TIP3    H223140   1.108   2.618   6.428
 7755TIP3   OH223141   1.221   2.718   6.339
 7755TIP3    H123142   1.293   2.667   6.298
 7755TIP3    H223143   1.272   2.775   6.400
 7756TIP3   OH223144   2.016   1.080   6.439
 7756TIP3    H123145   1.924   1.074   6.408
 7756TIP3    H223146   2.046   0.987   6.428
 7757TIP3   OH223147   0.272   2.576   6.368
 7757TIP3    H123148   0.183   2.611   6.345
 7757TIP3    H223149   0.281   2.612   6.457
 7758TIP3   OH223150   0.509   2.557   6.224
 7758TIP3    H123151   0.422   2.571   6.268
 7758TIP3    H223152   0.490   2.591   6.134
 7759TIP3   OH223153   0.935   2.587   6.022
 7759TIP3    H123154   0.866   2.608   5.956
 7759TIP3    H223155   0.948   2.674   6.065
 7760TIP3   OH223156   1.203   2.526   6.072
 7760TIP3    H123157   1.109   2.544   6.053
 7760TIP3    H223158   1.247   2.603   6.032
 7761TIP3   OH223159   1.410   2.718   5.989
 7761TIP3    H123160   1.397   2.803   5.941
 7761TIP3    H223161   1.437   2.658   5.916
 7762TIP3   OH223162   0.182   2.368   6.108
 7762TIP3    H123163   0.205   2.350   6.201
 7762TIP3    H223164   0.258   2.324   6.062
 7763TIP3   OH223165   0.379   2.242   5.967
 7763TIP3    H123166   0.397   2.158   6.015
 7763TIP3    H223167   0.469   2.281   5.962
 7764TIP3   OH223168   0.644   2.339   5.970
 7764TIP3    H123169   0.676   2.248   5.957
 7764TIP3    H223170   0.688   2.361   6.054
 7765TIP3   OH223171   1.226   0.991   6.059
 7765TIP3    H123172   1.181   0.907   6.076
 7765TIP3    H223173   1.298   0.962   6.000
 7766TIP3   OH223174   1.746   0.873   5.963
 7766TIP3    H123175   1.781   0.928   5.890
 7766TIP3    H223176   1.650   0.891   5.958
 7767TIP3   OH223177   1.839   0.976   5.727
 7767TIP3    H123178   1.913   0.926   5.686
 7767TIP3    H223179   1.871   1.069   5.712
 7768TIP3   OH223180   1.464   0.879   5.941
 7768TIP3    H123181   1.447   0.844   5.853
 7768TIP3    H223182   1.448   0.800   5.997
 7769TIP3   OH223183   1.488   0.808   5.498
 7769TIP3    H123184   1.403   0.852   5.514
 7769TIP3    H223185   1.472   0.722   5.543
 7770TIP3   OH223186  -0.045   2.143   5.512
 7770TIP3    H123187  -0.096   2.104   5.441
 7770TIP3    H223188  -0.051   2.238   5.489
 7771TIP3   OH223189   0.868   0.939   5.583
 7771TIP3    H123190   0.913   0.870   5.634
 7771TIP3    H223191   0.907   1.021   5.621
 7772TIP3   OH223192   0.744   2.335   5.084
 7772TIP3    H123193   0.832   2.356   5.049
 7772TIP3    H223194   0.722   2.259   5.025
 7773TIP3   OH223195   1.464   2.452   5.177
 7773TIP3    H123196   1.455   2.354   5.164
 7773TIP3    H223197   1.418   2.484   5.097
 7774TIP3   OH223198   0.048   2.167   5.143
 7774TIP3    H123199   0.052   2.210   5.230
 7774TIP3    H223200   0.138   2.129   5.133
 7775TIP3   OH223201   1.747   1.045   6.876
 7775TIP3    H123202   1.768   1.012   6.966
 7775TIP3    H223203   1.833   1.035   6.830
 7776TIP3   OH223204   1.690   2.597   6.364
 7776TIP3    H123205   1.611   2.566   6.317
 7776TIP3    H223206   1.671   2.693   6.368
 7777TIP3   OH223207   2.959   1.967   5.132
 7777TIP3    H123208   2.932   2.060   5.117
 7777TIP3    H223209   2.880   1.920   5.100
 7778TIP3   OH223210   2.952   1.967   5.511
 7778TIP3    H123211   2.985   1.941   5.599
 7778TIP3    H223212   2.912   1.885   5.479
 7779TIP3   OH223213   2.255   1.864   5.876
 7779TIP3    H123214   2.285   1.797   5.940
 7779TIP3    H223215   2.332   1.923   5.872
 7780TIP3   OH223216   3.196   2.271   5.194
 7780TIP3    H123217   3.186   2.201   5.259
 7780TIP3    H223218   3.226   2.346   5.248
 7781TIP3   OH223219   2.224   2.273   5.601
 7781TIP3    H123220   2.216   2.175   5.604
 7781TIP3    H223221   2.320   2.282   5.601
 7782TIP3   OH223222   1.933   1.478   5.388
 7782TIP3    H123223   1.884   1.561   5.403
 7782TIP3    H223224   1.862   1.422   5.352
 7783TIP3   OH223225   1.992   1.764   5.558
 7783TIP3    H123226   2.040   1.687   5.596
 7783TIP3    H223227   2.051   1.792   5.488
 7784TIP3   OH223228   2.843   2.731   5.207
 7784TIP3    H123229   2.892   2.658   5.163
 7784TIP3    H223230   2.841   2.700   5.299
 7785TIP3   OH223231   2.754   2.193   5.559
 7785TIP3    H123232   2.794   2.116   5.515
 7785TIP3    H223233   2.837   2.239   5.584
 7786TIP3   OH223234   3.763   1.515   5.557
 7786TIP3    H123235   3.794   1.596   5.602
 7786TIP3    H223236   3.789   1.532   5.465
 7787TIP3   OH223237   3.165   1.696   5.594
 7787TIP3    H123238   3.209   1.611   5.614
 7787TIP3    H223239   3.135   1.680   5.502
 7788TIP3   OH223240   2.502   1.355   5.559
 7788TIP3    H123241   2.482   1.428   5.496
 7788TIP3    H223242   2.454   1.282   5.514
 7789TIP3   OH223243   3.196   1.446   5.180
 7789TIP3    H123244   3.268   1.430   5.247
 7789TIP3    H223245   3.250   1.481   5.107
 7790TIP3   OH223246   2.137   1.557   5.665
 7790TIP3    H123247   2.220   1.538   5.713
 7790TIP3    H223248   2.150   1.501   5.585
 7791TIP3   OH223249   2.579   1.755   5.456
 7791TIP3    H123250   2.672   1.729   5.471
 7791TIP3    H223251   2.539   1.670   5.425
 7792TIP3   OH223252   3.839   1.720   5.728
 7792TIP3    H123253   3.756   1.769   5.710
 7792TIP3    H223254   3.856   1.749   5.819
 7793TIP3   OH223255   2.500   1.339   5.993
 7793TIP3    H123256   2.440   1.376   5.925
 7793TIP3    H223257   2.448   1.357   6.074
 7794TIP3   OH223258   2.854   2.194   5.004
 7794TIP3    H123259   2.789   2.158   4.943
 7794TIP3    H223260   2.813   2.280   5.025
 7795TIP3   OH223261   2.607   2.113   5.789
 7795TIP3    H123262   2.543   2.178   5.827
 7795TIP3    H223263   2.649   2.166   5.719
 7796TIP3   OH223264   3.407   1.449   5.351
 7796TIP3    H123265   3.405   1.396   5.432
 7796TIP3    H223266   3.463   1.524   5.378
 7797TIP3   OH223267   2.370   1.453   5.777
 7797TIP3    H123268   2.433   1.526   5.800
 7797TIP3    H223269   2.419   1.413   5.702
 7798TIP3   OH223270   2.433   2.306   5.884
 7798TIP3    H123271   2.409   2.394   5.847
 7798TIP3    H223272   2.355   2.291   5.941
 7799TIP3   OH223273   1.831   1.997   5.121
 7799TIP3    H123274   1.787   2.026   5.039
 7799TIP3    H223275   1.861   2.083   5.159
 7800TIP3   OH223276   3.268   2.512   5.360
 7800TIP3    H123277   3.178   2.504   5.400
 7800TIP3    H223278   3.261   2.599   5.317
 7801TIP3   OH223279   3.559   1.414   5.724
 7801TIP3    H123280   3.472   1.445   5.694
 7801TIP3    H223281   3.619   1.446   5.654
 7802TIP3   OH223282   2.857   1.058   5.705
 7802TIP3    H123283   2.845   0.963   5.723
 7802TIP3    H223284   2.780   1.095   5.752
 7803TIP3   OH223285   2.972   2.557   5.035
 7803TIP3    H123286   3.023   2.476   5.014
 7803TIP3    H223287   3.031   2.625   4.995
 7804TIP3   OH223288   3.117   2.344   4.940
 7804TIP3    H123289   3.074   2.265   4.906
 7804TIP3    H223290   3.151   2.312   5.026
 7805TIP3   OH223291   3.494   2.427   5.705
 7805TIP3    H123292   3.484   2.349   5.646
 7805TIP3    H223293   3.478   2.501   5.644
 7806TIP3   OH223294   2.788   1.820   4.962
 7806TIP3    H123295   2.706   1.867   4.938
 7806TIP3    H223296   2.834   1.811   4.877
 7807TIP3   OH223297   2.744   1.597   4.689
 7807TIP3    H123298   2.814   1.653   4.727
 7807TIP3    H223299   2.799   1.537   4.635
 7808TIP3   OH223300   3.690   2.062   5.549
 7808TIP3    H123301   3.607   2.115   5.555
 7808TIP3    H223302   3.720   2.086   5.458
 7809TIP3   OH223303   3.133   1.903   4.933
 7809TIP3    H123304   3.080   1.927   5.012
 7809TIP3    H223305   3.218   1.876   4.976
 7810TIP3   OH223306   3.369   1.942   5.845
 7810TIP3    H123307   3.367   2.025   5.896
 7810TIP3    H223308   3.282   1.948   5.799
 7811TIP3   OH223309   2.368   1.901   5.349
 7811TIP3    H123310   2.325   1.843   5.283
 7811TIP3    H223311   2.444   1.847   5.379
 7812TIP3   OH223312   2.498   2.314   5.498
 7812TIP3    H123313   2.477   2.265   5.417
 7812TIP3    H223314   2.588   2.281   5.518
 7813TIP3   OH223315   2.504   1.871   5.704
 7813TIP3    H123316   2.537   1.852   5.614
 7813TIP3    H223317   2.546   1.957   5.725
 7814TIP3   OH223318   3.026   2.508   5.480
 7814TIP3    H123319   3.014   2.589   5.533
 7814TIP3    H223320   3.013   2.437   5.545
 7815TIP3   OH223321   2.640   2.427   6.029
 7815TIP3    H123322   2.581   2.490   6.076
 7815TIP3    H223323   2.574   2.374   5.980
 7816TIP3   OH223324   2.972   1.762   4.759
 7816TIP3    H123325   3.033   1.819   4.812
 7816TIP3    H223326   3.001   1.784   4.667
 7817TIP3   OH223327   2.394   1.984   6.129
 7817TIP3    H123328   2.399   2.072   6.174
 7817TIP3    H223329   2.299   1.966   6.139
 7818TIP3   OH223330   2.717   2.441   5.026
 7818TIP3    H123331   2.796   2.492   5.050
 7818TIP3    H223332   2.653   2.511   5.004
 7819TIP3   OH223333   2.435   2.595   6.115
 7819TIP3    H123334   2.398   2.595   6.025
 7819TIP3    H223335   2.356   2.575   6.171
 7820TIP3   OH223336   3.485   1.001   4.800
 7820TIP3    H123337   3.407   1.022   4.857
 7820TIP3    H223338   3.500   1.087   4.756
 7821TIP3   OH223339   2.233   1.743   5.155
 7821TIP3    H123340   2.166   1.787   5.099
 7821TIP3    H223341   2.191   1.657   5.170
 7822TIP3   OH223342   3.289   2.368   4.355
 7822TIP3    H123343   3.298   2.465   4.342
 7822TIP3    H223344   3.382   2.340   4.343
 7823TIP3   OH223345   2.013   2.126   6.063
 7823TIP3    H123346   1.948   2.104   5.993
 7823TIP3    H223347   2.050   2.039   6.087
 7824TIP3   OH223348   1.867   2.320   5.694
 7824TIP3    H123349   1.964   2.314   5.687
 7824TIP3    H223350   1.857   2.399   5.750
 7825TIP3   OH223351   3.733   2.770   5.750
 7825TIP3    H123352   3.731   2.674   5.765
 7825TIP3    H223353   3.650   2.796   5.796
 7826TIP3   OH223354   2.838   2.557   5.885
 7826TIP3    H123355   2.838   2.650   5.918
 7826TIP3    H223356   2.767   2.518   5.941
 7827TIP3   OH223357   2.596   2.688   4.839
 7827TIP3    H123358   2.552   2.677   4.753
 7827TIP3    H223359   2.568   2.777   4.866
 7828TIP3   OH223360   2.036   2.536   5.221
 7828TIP3    H123361   2.085   2.527   5.306
 7828TIP3    H223362   1.977   2.459   5.227
 7829TIP3   OH223363   2.799   2.583   4.479
 7829TIP3    H123364   2.860   2.515   4.442
 7829TIP3    H223365   2.836   2.596   4.569
 7830TIP3   OH223366   2.849   2.634   4.748
 7830TIP3    H123367   2.762   2.644   4.794
 7830TIP3    H223368   2.904   2.599   4.819
 7831TIP3   OH223369   3.622   1.902   6.026
 7831TIP3    H123370   3.542   1.915   5.973
 7831TIP3    H223371   3.638   1.806   6.014
 7832TIP3   OH223372   2.219   2.308   6.051
 7832TIP3    H123373   2.268   2.295   6.135
 7832TIP3    H223374   2.144   2.246   6.060
 7833TIP3   OH223375   2.618   1.133   5.834
 7833TIP3    H123376   2.528   1.103   5.809
 7833TIP3    H223377   2.594   1.216   5.879
 7834TIP3   OH223378   3.151   1.249   6.029
 7834TIP3    H123379   3.220   1.220   6.093
 7834TIP3    H223380   3.068   1.228   6.076
 7835TIP3   OH223381   3.391   1.677   5.943
 7835TIP3    H123382   3.343   1.673   6.029
 7835TIP3    H223383   3.368   1.766   5.910
 7836TIP3   OH223384   3.058   1.808   4.506
 7836TIP3    H123385   3.020   1.783   4.420
 7836TIP3    H223386   3.139   1.854   4.479
 7837TIP3   OH223387   2.763   1.183   4.806
 7837TIP3    H123388   2.732   1.181   4.898
 7837TIP3    H223389   2.725   1.099   4.773
 7838TIP3   OH223390   2.549   1.649   5.854
 7838TIP3    H123391   2.498   1.670   5.935
 7838TIP3    H223392   2.534   1.730   5.800
 7839TIP3   OH223393   2.433   1.535   5.367
 7839TIP3    H123394   2.340   1.508   5.385
 7839TIP3    H223395   2.446   1.494   5.279
 7840TIP3   OH223396   2.924   1.620   5.095
 7840TIP3    H123397   2.872   1.693   5.054
 7840TIP3    H223398   2.979   1.590   5.019
 7841TIP3   OH223399   3.101   1.901   6.178
 7841TIP3    H123400   3.083   1.826   6.237
 7841TIP3    H223401   3.194   1.919   6.199
 7842TIP3   OH223402   3.081   1.649   5.335
 7842TIP3    H123403   3.022   1.679   5.263
 7842TIP3    H223404   3.115   1.567   5.293
 7843TIP3   OH223405   2.369   1.678   6.062
 7843TIP3    H123406   2.393   1.743   6.130
 7843TIP3    H223407   2.357   1.597   6.114
 7844TIP3   OH223408   2.418   1.155   4.772
 7844TIP3    H123409   2.411   1.152   4.869
 7844TIP3    H223410   2.339   1.207   4.749
 7845TIP3   OH223411   1.962   1.201   5.641
 7845TIP3    H123412   2.037   1.232   5.696
 7845TIP3    H223413   2.003   1.167   5.561
 7846TIP3   OH223414   1.936   1.181   5.162
 7846TIP3    H123415   1.982   1.221   5.084
 7846TIP3    H223416   1.875   1.254   5.184
 7847TIP3   OH223417   3.089   1.897   5.757
 7847TIP3    H123418   3.123   1.824   5.699
 7847TIP3    H223419   3.061   1.844   5.835
 7848TIP3   OH223420   2.759   1.359   5.429
 7848TIP3    H123421   2.677   1.356   5.483
 7848TIP3    H223422   2.828   1.356   5.497
 7849TIP3   OH223423   2.195   1.413   5.437
 7849TIP3    H123424   2.100   1.420   5.410
 7849TIP3    H223425   2.218   1.321   5.414
 7850TIP3   OH223426   2.465   1.409   5.125
 7850TIP3    H123427   2.559   1.424   5.105
 7850TIP3    H223428   2.419   1.433   5.042
 7851TIP3   OH223429   3.252   1.434   5.632
 7851TIP3    H123430   3.216   1.445   5.722
 7851TIP3    H223431   3.188   1.372   5.594
 7852TIP3   OH223432   2.306   1.444   4.904
 7852TIP3    H123433   2.233   1.400   4.857
 7852TIP3    H223434   2.356   1.480   4.828
 7853TIP3   OH223435   3.422   3.121   5.849
 7853TIP3    H123436   3.420   3.147   5.755
 7853TIP3    H223437   3.499   3.171   5.882
 7854TIP3   OH223438   2.381   2.231   6.272
 7854TIP3    H123439   2.459   2.264   6.320
 7854TIP3    H223440   2.315   2.232   6.344
 7855TIP3   OH223441   2.844   1.684   5.525
 7855TIP3    H123442   2.917   1.646   5.475
 7855TIP3    H223443   2.855   1.644   5.613
 7856TIP3   OH223444   2.367   1.173   5.404
 7856TIP3    H123445   2.334   1.094   5.450
 7856TIP3    H223446   2.421   1.135   5.333
 7857TIP3   OH223447   2.820   1.579   5.819
 7857TIP3    H123448   2.731   1.618   5.831
 7857TIP3    H223449   2.878   1.641   5.868
 7858TIP3   OH223450   2.562   1.975   4.908
 7858TIP3    H123451   2.489   1.908   4.901
 7858TIP3    H223452   2.543   2.010   4.999
 7859TIP3   OH223453   3.458   2.209   5.541
 7859TIP3    H123454   3.483   2.258   5.459
 7859TIP3    H223455   3.373   2.168   5.516
 7860TIP3   OH223456   3.015   1.288   4.768
 7860TIP3    H123457   2.918   1.270   4.780
 7860TIP3    H223458   3.025   1.381   4.797
 7861TIP3   OH223459   2.955   2.290   5.909
 7861TIP3    H123460   2.981   2.272   6.000
 7861TIP3    H223461   2.918   2.380   5.915
 7862TIP3   OH223462   3.085   1.532   4.876
 7862TIP3    H123463   3.181   1.537   4.893
 7862TIP3    H223464   3.069   1.612   4.823
 7863TIP3   OH223465   2.249   1.994   5.587
 7863TIP3    H123466   2.288   1.966   5.503
 7863TIP3    H223467   2.288   1.931   5.650
 7864TIP3   OH223468   2.649   2.105   4.683
 7864TIP3    H123469   2.625   2.200   4.694
 7864TIP3    H223470   2.633   2.072   4.774
 7865TIP3   OH223471   2.130   1.914   6.198
 7865TIP3    H123472   2.148   1.903   6.294
 7865TIP3    H223473   2.059   1.848   6.184
 7866TIP3   OH223474   2.855   2.025   6.226
 7866TIP3    H123475   2.796   1.971   6.171
 7866TIP3    H223476   2.943   1.996   6.193
 7867TIP3   OH223477   3.116   2.548   5.804
 7867TIP3    H123478   3.020   2.550   5.817
 7867TIP3    H223479   3.146   2.600   5.881
 7868TIP3   OH223480   3.527   1.621   4.713
 7868TIP3    H123481   3.464   1.577   4.651
 7868TIP3    H223482   3.525   1.710   4.672
 7869TIP3   OH223483   3.745   2.478   5.795
 7869TIP3    H123484   3.647   2.474   5.786
 7869TIP3    H223485   3.771   2.449   5.704
 7870TIP3   OH223486   3.219   2.442   4.618
 7870TIP3    H123487   3.205   2.373   4.684
 7870TIP3    H223488   3.240   2.392   4.537
 7871TIP3   OH223489   3.223   2.071   5.459
 7871TIP3    H123490   3.130   2.046   5.473
 7871TIP3    H223491   3.257   1.991   5.415
 7872TIP3   OH223492   2.348   2.296   5.206
 7872TIP3    H123493   2.348   2.380   5.157
 7872TIP3    H223494   2.255   2.284   5.225
 7873TIP3   OH223495   1.913   1.602   4.914
 7873TIP3    H123496   1.959   1.686   4.935
 7873TIP3    H223497   1.836   1.608   4.975
 7874TIP3   OH223498   2.492   2.065   5.153
 7874TIP3    H123499   2.453   2.153   5.172
 7874TIP3    H223500   2.457   2.013   5.228
 7875TIP3   OH223501   2.619   2.642   5.681
 7875TIP3    H123502   2.660   2.716   5.632
 7875TIP3    H223503   2.695   2.609   5.731
 7876TIP3   OH223504   2.270   2.538   5.064
 7876TIP3    H123505   2.184   2.546   5.111
 7876TIP3    H223506   2.301   2.631   5.068
 7877TIP3   OH223507   3.008   2.276   5.640
 7877TIP3    H123508   2.998   2.275   5.738
 7877TIP3    H223509   3.090   2.226   5.628
 7878TIP3   OH223510   2.979   2.163   4.523
 7878TIP3    H123511   3.038   2.142   4.599
 7878TIP3    H223512   2.894   2.133   4.559
 7879TIP3   OH223513   3.257   2.809   5.690
 7879TIP3    H123514   3.177   2.754   5.682
 7879TIP3    H223515   3.241   2.875   5.618
 7880TIP3   OH223516   3.322   2.644   4.342
 7880TIP3    H123517   3.363   2.718   4.294
 7880TIP3    H223518   3.241   2.691   4.374
 7881TIP3   OH223519   2.340   1.421   6.210
 7881TIP3    H123520   2.243   1.427   6.220
 7881TIP3    H223521   2.364   1.355   6.277
 7882TIP3   OH223522   3.141   2.101   4.736
 7882TIP3    H123523   3.132   2.036   4.809
 7882TIP3    H223524   3.239   2.101   4.726
 7883TIP3   OH223525   2.058   2.504   5.841
 7883TIP3    H123526   2.111   2.431   5.875
 7883TIP3    H223527   2.083   2.575   5.901
 7884TIP3   OH223528   2.293   2.156   4.788
 7884TIP3    H123529   2.359   2.126   4.851
 7884TIP3    H223530   2.302   2.253   4.793
 7885TIP3   OH223531   2.030   1.848   4.997
 7885TIP3    H123532   1.964   1.892   5.055
 7885TIP3    H223533   2.043   1.918   4.930
 7886TIP3   OH223534   3.176   1.486   5.890
 7886TIP3    H123535   3.258   1.524   5.926
 7886TIP3    H223536   3.164   1.405   5.945
 7887TIP3   OH223537   3.057   1.238   5.053
 7887TIP3    H123538   3.045   1.262   4.959
 7887TIP3    H223539   3.097   1.319   5.091
 7888TIP3   OH223540   2.558   2.359   4.725
 7888TIP3    H123541   2.471   2.377   4.766
 7888TIP3    H223542   2.582   2.450   4.699
 7889TIP3   OH223543   2.747   1.416   5.156
 7889TIP3    H123544   2.813   1.487   5.139
 7889TIP3    H223545   2.753   1.408   5.254
 7890TIP3   OH223546   3.017   1.734   5.964
 7890TIP3    H123547   3.038   1.789   6.042
 7890TIP3    H223548   3.073   1.656   5.976
 7891TIP3   OH223549   2.892   1.143   5.259
 7891TIP3    H123550   2.889   1.218   5.321
 7891TIP3    H223551   2.953   1.180   5.190
 7892TIP3   OH223552   2.303   2.428   4.810
 7892TIP3    H123553   2.271   2.499   4.750
 7892TIP3    H223554   2.286   2.469   4.898
 7893TIP3   OH223555   2.404   1.141   5.048
 7893TIP3    H123556   2.401   1.231   5.086
 7893TIP3    H223557   2.500   1.122   5.057
 7894TIP3   OH223558   3.658   1.635   5.945
 7894TIP3    H123559   3.560   1.633   5.950
 7894TIP3    H223560   3.671   1.595   5.858
 7895TIP3   OH223561   3.308   1.830   5.333
 7895TIP3    H123562   3.233   1.769   5.346
 7895TIP3    H223563   3.381   1.784   5.380
 7896TIP3   OH223564   2.024   2.056   4.802
 7896TIP3    H123565   2.087   2.129   4.810
 7896TIP3    H223566   2.070   2.003   4.733
 7897TIP3   OH223567   1.966   1.333   4.935
 7897TIP3    H123568   1.965   1.431   4.932
 7897TIP3    H223569   1.880   1.311   4.898
 7898TIP3   OH223570   3.277   2.783   5.282
 7898TIP3    H123571   3.235   2.830   5.207
 7898TIP3    H223572   3.371   2.803   5.263
 7899TIP3   OH223573   2.353   1.054   5.811
 7899TIP3    H123574   2.322   1.020   5.724
 7899TIP3    H223575   2.343   0.975   5.868
 7900TIP3   OH223576   1.892   2.271   5.191
 7900TIP3    H123577   1.822   2.303   5.249
 7900TIP3    H223578   1.866   2.312   5.105
 7901TIP3   OH223579   2.048   2.812   6.262
 7901TIP3    H123580   2.134   2.813   6.310
 7901TIP3    H223581   2.029   2.717   6.262
 7902TIP3   OH223582   2.530   2.781   6.305
 7902TIP3    H123583   2.625   2.762   6.315
 7902TIP3    H223584   2.507   2.721   6.231
 7903TIP3   OH223585   3.172   2.682   6.038
 7903TIP3    H123586   3.162   2.614   6.108
 7903TIP3    H223587   3.247   2.735   6.070
 7904TIP3   OH223588   2.946   2.394   4.342
 7904TIP3    H123589   2.995   2.336   4.403
 7904TIP3    H223590   3.004   2.396   4.264
 7905TIP3   OH223591   2.179   2.218   6.460
 7905TIP3    H123592   2.194   2.122   6.465
 7905TIP3    H223593   2.090   2.222   6.419
 7906TIP3   OH223594   2.154   1.865   4.645
 7906TIP3    H123595   2.210   1.836   4.718
 7906TIP3    H223596   2.224   1.883   4.577
 7907TIP3   OH223597   2.789   2.303   6.235
 7907TIP3    H123598   2.746   2.321   6.149
 7907TIP3    H223599   2.819   2.211   6.226
 7908TIP3   OH223600   3.279   2.312   5.841
 7908TIP3    H123601   3.354   2.357   5.798
 7908TIP3    H223602   3.209   2.379   5.829
 7909TIP3   OH223603   2.292   1.954   6.444
 7909TIP3    H123604   2.357   1.885   6.430
 7909TIP3    H223605   2.320   1.989   6.532
 7910TIP3   OH223606   2.375   1.775   4.881
 7910TIP3    H123607   2.340   1.733   4.961
 7910TIP3    H223608   2.402   1.698   4.827
 7911TIP3   OH223609   2.635   1.838   6.114
 7911TIP3    H123610   2.557   1.897   6.112
 7911TIP3    H223611   2.684   1.868   6.033
 7912TIP3   OH223612   2.465   1.569   4.716
 7912TIP3    H123613   2.443   1.564   4.622
 7912TIP3    H223614   2.563   1.571   4.714
 7913TIP3   OH223615   3.148   2.238   6.240
 7913TIP3    H123616   3.231   2.222   6.194
 7913TIP3    H223617   3.150   2.172   6.311
 7914TIP3   OH223618   3.287   1.901   4.378
 7914TIP3    H123619   3.266   1.853   4.296
 7914TIP3    H223620   3.254   1.990   4.354
 7915TIP3   OH223621   2.770   1.618   6.248
 7915TIP3    H123622   2.761   1.545   6.183
 7915TIP3    H223623   2.716   1.688   6.206
 7916TIP3   OH223624   2.758   1.413   6.041
 7916TIP3    H123625   2.787   1.455   5.958
 7916TIP3    H223626   2.665   1.391   6.022
 7917TIP3   OH223627   2.787   1.948   5.914
 7917TIP3    H123628   2.870   1.957   5.865
 7917TIP3    H223629   2.730   2.016   5.871
 7918TIP3   OH223630   3.368   1.917   6.294
 7918TIP3    H123631   3.419   1.835   6.303
 7918TIP3    H223632   3.436   1.978   6.261
 7919TIP3   OH223633   3.409   2.167   6.028
 7919TIP3    H123634   3.352   2.221   5.969
 7919TIP3    H223635   3.497   2.188   5.988
 7920TIP3   OH223636   2.891   1.177   6.108
 7920TIP3    H123637   2.842   1.259   6.083
 7920TIP3    H223638   2.822   1.109   6.094
 7921TIP3   OH223639   3.029   1.679   6.318
 7921TIP3    H123640   3.035   1.684   6.415
 7921TIP3    H223641   2.935   1.660   6.300
 7922TIP3   OH223642   3.260   1.629   6.173
 7922TIP3    H123643   3.184   1.632   6.234
 7922TIP3    H223644   3.334   1.600   6.232
 7923TIP3   OH223645   3.481   1.569   6.330
 7923TIP3    H123646   3.498   1.474   6.348
 7923TIP3    H223647   3.479   1.609   6.419
 7924TIP3   OH223648   2.478   1.522   6.510
 7924TIP3    H123649   2.478   1.434   6.467
 7924TIP3    H223650   2.505   1.499   6.599
 7925TIP3   OH223651   2.992   1.185   6.362
 7925TIP3    H123652   3.058   1.112   6.355
 7925TIP3    H223653   2.950   1.179   6.273
 7926TIP3   OH223654   3.023   1.402   6.518
 7926TIP3    H123655   3.032   1.316   6.470
 7926TIP3    H223656   2.965   1.447   6.456
 7927TIP3   OH223657   2.270   2.627   4.621
 7927TIP3    H123658   2.366   2.637   4.609
 7927TIP3    H223659   2.237   2.679   4.545
 7928TIP3   OH223660   1.753   2.013   4.837
 7928TIP3    H123661   1.848   2.033   4.825
 7928TIP3    H223662   1.747   1.923   4.798
 7929TIP3   OH223663   1.667   2.624   5.252
 7929TIP3    H123664   1.599   2.562   5.217
 7929TIP3    H223665   1.711   2.567   5.319
 7930TIP3   OH223666   1.803   2.476   5.439
 7930TIP3    H123667   1.791   2.403   5.501
 7930TIP3    H223668   1.853   2.538   5.495
 7931TIP3   OH223669   3.528   2.877   5.238
 7931TIP3    H123670   3.554   2.909   5.327
 7931TIP3    H223671   3.591   2.923   5.181
 7932TIP3   OH223672   3.559   2.896   5.520
 7932TIP3    H123673   3.517   2.807   5.517
 7932TIP3    H223674   3.634   2.877   5.578
 7933TIP3   OH223675   3.605   2.572   6.094
 7933TIP3    H123676   3.532   2.581   6.158
 7933TIP3    H223677   3.646   2.661   6.098
 7934TIP3   OH223678   3.421   2.087   4.714
 7934TIP3    H123679   3.490   2.150   4.686
 7934TIP3    H223680   3.463   2.048   4.794
 7935TIP3   OH223681   3.547   1.955   4.917
 7935TIP3    H123682   3.483   1.912   4.978
 7935TIP3    H223683   3.614   1.991   4.979
 7936TIP3   OH223684   3.601   2.344   5.349
 7936TIP3    H123685   3.656   2.280   5.299
 7936TIP3    H223686   3.595   2.419   5.286
 7937TIP3   OH223687   3.435   2.645   5.545
 7937TIP3    H123688   3.364   2.688   5.597
 7937TIP3    H223689   3.384   2.597   5.476
 7938TIP3   OH223690   3.487   1.861   4.565
 7938TIP3    H123691   3.415   1.865   4.498
 7938TIP3    H223692   3.461   1.937   4.621
 7939TIP3   OH223693   3.357   1.534   4.519
 7939TIP3    H123694   3.315   1.572   4.441
 7939TIP3    H223695   3.333   1.440   4.511
 7940TIP3   OH223696   3.362   1.809   5.064
 7940TIP3    H123697   3.372   1.713   5.060
 7940TIP3    H223698   3.349   1.824   5.160
 7941TIP3   OH223699   1.990   1.883   5.811
 7941TIP3    H123700   1.988   1.853   5.717
 7941TIP3    H223701   2.087   1.885   5.827
 7942TIP3   OH223702   3.652   2.234   5.920
 7942TIP3    H123703   3.725   2.169   5.912
 7942TIP3    H223704   3.680   2.305   5.860
 7943TIP3   OH223705   3.837   2.040   5.939
 7943TIP3    H123706   3.763   1.990   5.979
 7943TIP3    H223707   3.911   1.977   5.953
 7944TIP3   OH223708   3.302   1.268   4.504
 7944TIP3    H123709   3.379   1.239   4.557
 7944TIP3    H223710   3.231   1.209   4.533
 7945TIP3   OH223711   3.358   1.524   4.959
 7945TIP3    H123712   3.399   1.436   4.976
 7945TIP3    H223713   3.419   1.557   4.890
 7946TIP3   OH223714   3.521   1.702   5.454
 7946TIP3    H123715   3.608   1.728   5.414
 7946TIP3    H223716   3.535   1.737   5.544
 7947TIP3   OH223717   3.589   1.844   5.688
 7947TIP3    H123718   3.511   1.878   5.735
 7947TIP3    H223719   3.622   1.924   5.642
 7948TIP3   OH223720   2.209   1.572   6.490
 7948TIP3    H123721   2.306   1.564   6.483
 7948TIP3    H223722   2.184   1.485   6.527
 7949TIP3   OH223723   4.040   1.433   6.243
 7949TIP3    H123724   4.100   1.368   6.199
 7949TIP3    H223725   4.013   1.489   6.167
 7950TIP3   OH223726   3.468   1.275   4.997
 7950TIP3    H123727   3.518   1.259   5.080
 7950TIP3    H223728   3.409   1.197   4.997
 7951TIP3   OH223729   2.168   1.262   5.815
 7951TIP3    H123730   2.231   1.187   5.826
 7951TIP3    H223731   2.230   1.337   5.810
 7952TIP3   OH223732   1.973   1.535   5.891
 7952TIP3    H123733   2.021   1.530   5.806
 7952TIP3    H223734   2.000   1.623   5.922
 7953TIP3   OH223735   3.913   1.575   6.049
 7953TIP3    H123736   3.826   1.615   6.069
 7953TIP3    H223737   3.886   1.503   5.989
 7954TIP3   OH223738   3.549   1.214   4.626
 7954TIP3    H123739   3.592   1.139   4.580
 7954TIP3    H223740   3.619   1.282   4.624
 7955TIP3   OH223741   1.954   1.039   5.390
 7955TIP3    H123742   1.861   1.036   5.418
 7955TIP3    H223743   1.951   1.098   5.312
 7956TIP3   OH223744   3.110   2.742   4.894
 7956TIP3    H123745   3.165   2.730   4.814
 7956TIP3    H223746   3.161   2.808   4.944
 7957TIP3   OH223747   2.175   1.122   6.206
 7957TIP3    H123748   2.123   1.113   6.288
 7957TIP3    H223749   2.109   1.159   6.145
 7958TIP3   OH223750   2.215   2.544   6.283
 7958TIP3    H123751   2.122   2.518   6.269
 7958TIP3    H223752   2.226   2.528   6.378
 7959TIP3   OH223753   2.392   2.576   5.828
 7959TIP3    H123754   2.344   2.653   5.790
 7959TIP3    H223755   2.478   2.591   5.784
 7960TIP3   OH223756   2.838   2.823   5.966
 7960TIP3    H123757   2.879   2.824   6.055
 7960TIP3    H223758   2.905   2.875   5.915
 7961TIP3   OH223759   3.018   2.974   5.825
 7961TIP3    H123760   3.091   2.924   5.787
 7961TIP3    H223761   3.067   3.033   5.887
 7962TIP3   OH223762   3.810   1.337   5.927
 7962TIP3    H123763   3.720   1.331   5.892
 7962TIP3    H223764   3.842   1.245   5.915
 7963TIP3   OH223765   2.069   2.835   5.853
 7963TIP3    H123766   1.980   2.869   5.830
 7963TIP3    H223767   2.081   2.873   5.941
 7964TIP3   OH223768   2.305   2.813   5.710
 7964TIP3    H123769   2.219   2.826   5.756
 7964TIP3    H223770   2.285   2.848   5.621
 7965TIP3   OH223771   2.732   2.844   5.506
 7965TIP3    H123772   2.661   2.866   5.443
 7965TIP3    H223773   2.745   2.930   5.552
 7966TIP3   OH223774   3.000   2.782   5.557
 7966TIP3    H123775   2.906   2.800   5.539
 7966TIP3    H223776   3.043   2.861   5.521
 7967TIP3   OH223777   3.207   2.975   5.476
 7967TIP3    H123778   3.194   3.060   5.429
 7967TIP3    H223779   3.233   2.915   5.403
 7968TIP3   OH223780   1.981   2.630   5.597
 7968TIP3    H123781   2.007   2.605   5.689
 7968TIP3    H223782   2.053   2.585   5.548
 7969TIP3   OH223783   2.174   2.500   5.453
 7969TIP3    H123784   2.190   2.417   5.503
 7969TIP3    H223785   2.265   2.538   5.451
 7970TIP3   OH223786   2.440   2.595   5.457
 7970TIP3    H123787   2.472   2.503   5.448
 7970TIP3    H223788   2.483   2.619   5.541
 7971TIP3   OH223789   3.013   1.251   5.541
 7971TIP3    H123790   2.973   1.182   5.595
 7971TIP3    H223791   3.089   1.205   5.500
 7972TIP3   OH223792   3.538   1.134   5.453
 7972TIP3    H123793   3.577   1.182   5.376
 7972TIP3    H223794   3.443   1.152   5.442
 7973TIP3   OH223795   3.635   1.232   5.214
 7973TIP3    H123796   3.709   1.177   5.181
 7973TIP3    H223797   3.671   1.323   5.198
 7974TIP3   OH223798   2.265   0.961   5.561
 7974TIP3    H123799   2.173   0.928   5.563
 7974TIP3    H223800   2.315   0.876   5.558
 7975TIP3   OH223801   2.050   0.830   5.208
 7975TIP3    H123802   2.080   0.890   5.137
 7975TIP3    H223803   2.021   0.894   5.276
 7976TIP3   OH223804   2.707   0.994   5.442
 7976TIP3    H123805   2.766   1.043   5.383
 7976TIP3    H223806   2.730   1.031   5.528
 7977TIP3   OH223807   3.253   1.140   5.426
 7977TIP3    H123808   3.259   1.101   5.337
 7977TIP3    H223809   3.240   1.059   5.481
 7978TIP3   OH223810   3.285   1.062   4.986
 7978TIP3    H123811   3.198   1.103   5.000
 7978TIP3    H223812   3.273   0.978   5.035
 7979TIP3   OH223813   1.770   2.400   4.988
 7979TIP3    H123814   1.685   2.367   4.954
 7979TIP3    H223815   1.758   2.495   4.975
 7980TIP3   OH223816   2.168   0.991   4.972
 7980TIP3    H123817   2.217   0.929   4.916
 7980TIP3    H223818   2.240   1.045   5.009
 7981TIP3   OH223819   2.681   1.165   5.072
 7981TIP3    H123820   2.742   1.119   5.132
 7981TIP3    H223821   2.702   1.257   5.097
 7982TIP3   OH223822   2.543   2.602   4.571
 7982TIP3    H123823   2.635   2.614   4.540
 7982TIP3    H223824   2.510   2.543   4.503
 7983TIP3   OH223825   3.259   2.708   4.663
 7983TIP3    H123826   3.247   2.611   4.650
 7983TIP3    H223827   3.215   2.742   4.582
 7984TIP3   OH223828   2.473   1.246   6.460
 7984TIP3    H123829   2.438   1.170   6.510
 7984TIP3    H223830   2.568   1.240   6.481
 7985TIP3   OH223831   2.725   1.246   6.578
 7985TIP3    H123832   2.806   1.212   6.535
 7985TIP3    H223833   2.709   1.174   6.643
 7986TIP3   OH223834   1.840   2.432   4.631
 7986TIP3    H123835   1.837   2.456   4.725
 7986TIP3    H223836   1.930   2.393   4.622
 7987TIP3   OH223837   3.546   1.300   6.360
 7987TIP3    H123838   3.567   1.268   6.451
 7987TIP3    H223839   3.635   1.295   6.318
 7988TIP3   OH223840   3.487   2.853   5.851
 7988TIP3    H123841   3.407   2.821   5.804
 7988TIP3    H223842   3.468   2.949   5.855
 7989TIP3   OH223843   4.752   2.225   4.619
 7989TIP3    H123844   4.724   2.316   4.599
 7989TIP3    H223845   4.675   2.175   4.586
 7990TIP3   OH223846   4.748   2.226   4.999
 7990TIP3    H123847   4.781   2.195   5.085
 7990TIP3    H223848   4.710   2.144   4.962
 7991TIP3   OH223849   4.050   2.121   5.365
 7991TIP3    H123850   4.081   2.053   5.428
 7991TIP3    H223851   4.129   2.177   5.357
 7992TIP3   OH223852   4.993   2.527   4.680
 7992TIP3    H123853   4.980   2.456   4.744
 7992TIP3    H223854   5.022   2.601   4.736
 7993TIP3   OH223855   4.020   2.529   5.088
 7993TIP3    H123856   4.012   2.431   5.092
 7993TIP3    H223857   4.117   2.538   5.085
 7994TIP3   OH223858   3.728   1.734   4.874
 7994TIP3    H123859   3.680   1.817   4.889
 7994TIP3    H223860   3.657   1.679   4.838
 7995TIP3   OH223861   3.787   2.019   5.043
 7995TIP3    H123862   3.835   1.943   5.082
 7995TIP3    H223863   3.849   2.050   4.976
 7996TIP3   OH223864   4.641   2.989   4.696
 7996TIP3    H123865   4.689   2.917   4.648
 7996TIP3    H223866   4.637   2.953   4.785
 7997TIP3   OH223867   4.550   2.450   5.047
 7997TIP3    H123868   4.588   2.373   5.002
 7997TIP3    H223869   4.634   2.496   5.071
 7998TIP3   OH223870   5.563   1.770   5.047
 7998TIP3    H123871   5.592   1.856   5.082
 7998TIP3    H223872   5.590   1.777   4.954
 7999TIP3   OH223873   4.960   1.952   5.081
 7999TIP3    H123874   5.007   1.868   5.101
 7999TIP3    H223875   4.932   1.936   4.989
 8000TIP3   OH223876   4.298   1.612   5.046
 8000TIP3    H123877   4.279   1.684   4.983
 8000TIP3    H223878   4.250   1.538   5.001
 8001TIP3   OH223879   4.990   1.702   4.666
 8001TIP3    H123880   5.060   1.687   4.735
 8001TIP3    H223881   5.046   1.736   4.593
 8002TIP3   OH223882   3.933   1.814   5.151
 8002TIP3    H123883   4.016   1.794   5.200
 8002TIP3    H223884   3.947   1.758   5.072
 8003TIP3   OH223885   4.375   2.012   4.944
 8003TIP3    H123886   4.468   1.986   4.958
 8003TIP3    H223887   4.336   1.927   4.913
 8004TIP3   OH223888   5.640   1.982   5.214
 8004TIP3    H123889   5.555   2.026   5.193
 8004TIP3    H223890   5.645   2.000   5.309
 8005TIP3   OH223891   4.297   1.596   5.479
 8005TIP3    H123892   4.236   1.631   5.412
 8005TIP3    H223893   4.246   1.612   5.560
 8006TIP3   OH223894   4.644   2.447   4.489
 8006TIP3    H123895   4.601   2.424   4.405
 8006TIP3    H223896   4.600   2.531   4.511
 8007TIP3   OH223897   4.403   2.370   5.275
 8007TIP3    H123898   4.340   2.435   5.313
 8007TIP3    H223899   4.445   2.422   5.204
 8008TIP3   OH223900   5.194   1.708   4.841
 8008TIP3    H123901   5.219   1.637   4.902
 8008TIP3    H223902   5.262   1.775   4.860
 8009TIP3   OH223903   4.166   1.710   5.264
 8009TIP3    H123904   4.229   1.782   5.287
 8009TIP3    H223905   4.215   1.669   5.189
 8010TIP3   OH223906   4.229   2.563   5.371
 8010TIP3    H123907   4.204   2.650   5.333
 8010TIP3    H223908   4.151   2.548   5.429
 8011TIP3   OH223909   3.626   2.254   4.609
 8011TIP3    H123910   3.586   2.283   4.525
 8011TIP3    H223911   3.658   2.339   4.647
 8012TIP3   OH223912   5.066   2.769   4.849
 8012TIP3    H123913   4.976   2.760   4.888
 8012TIP3    H223914   5.057   2.855   4.804
 8013TIP3   OH223915   5.355   1.675   5.215
 8013TIP3    H123916   5.267   1.696   5.180
 8013TIP3    H223917   5.414   1.701   5.141
 8014TIP3   OH223918   4.654   1.314   5.193
 8014TIP3    H123919   4.640   1.219   5.211
 8014TIP3    H223920   4.576   1.352   5.239
 8015TIP3   OH223921   4.767   2.816   4.523
 8015TIP3    H123922   4.817   2.734   4.502
 8015TIP3    H223923   4.828   2.882   4.481
 8016TIP3   OH223924   4.910   2.602   4.428
 8016TIP3    H123925   4.873   2.522   4.388
 8016TIP3    H223926   4.945   2.567   4.512
 8017TIP3   OH223927   5.292   2.684   5.191
 8017TIP3    H123928   5.280   2.606   5.133
 8017TIP3    H223929   5.274   2.758   5.130
 8018TIP3   OH223930   4.582   2.077   4.448
 8018TIP3    H123931   4.502   2.128   4.424
 8018TIP3    H223932   4.630   2.073   4.363
 8019TIP3   OH223933   4.541   1.861   4.165
 8019TIP3    H123934   4.609   1.911   4.215
 8019TIP3    H223935   4.598   1.797   4.118
 8020TIP3   OH223936   5.487   2.323   5.039
 8020TIP3    H123937   5.403   2.373   5.043
 8020TIP3    H223938   5.514   2.342   4.946
 8021TIP3   OH223939   4.930   2.159   4.421
 8021TIP3    H123940   4.876   2.183   4.500
 8021TIP3    H223941   5.013   2.132   4.464
 8022TIP3   OH223942   5.165   2.199   5.331
 8022TIP3    H123943   5.161   2.283   5.381
 8022TIP3    H223944   5.078   2.202   5.285
 8023TIP3   OH223945   4.163   2.157   4.837
 8023TIP3    H123946   4.122   2.099   4.770
 8023TIP3    H223947   4.240   2.104   4.867
 8024TIP3   OH223948   4.292   2.569   4.986
 8024TIP3    H123949   4.272   2.524   4.902
 8024TIP3    H223950   4.383   2.535   5.005
 8025TIP3   OH223951   4.298   2.129   5.191
 8025TIP3    H123952   4.332   2.107   5.102
 8025TIP3    H223953   4.342   2.214   5.211
 8026TIP3   OH223954   4.824   2.766   4.968
 8026TIP3    H123955   4.810   2.845   5.022
 8026TIP3    H223956   4.809   2.692   5.031
 8027TIP3   OH223957   4.436   2.685   5.515
 8027TIP3    H123958   4.377   2.747   5.562
 8027TIP3    H223959   4.370   2.631   5.466
 8028TIP3   OH223960   4.770   2.018   4.246
 8028TIP3    H123961   4.830   2.076   4.299
 8028TIP3    H223962   4.797   2.042   4.154
 8029TIP3   OH223963   4.190   2.242   5.615
 8029TIP3    H123964   4.195   2.329   5.661
 8029TIP3    H223965   4.095   2.223   5.625
 8030TIP3   OH223966   4.512   2.698   4.521
 8030TIP3    H123967   4.592   2.751   4.540
 8030TIP3    H223968   4.452   2.763   4.484
 8031TIP3   OH223969   4.231   2.853   5.602
 8031TIP3    H123970   4.195   2.852   5.511
 8031TIP3    H223971   4.151   2.832   5.656
 8032TIP3   OH223972   5.287   1.258   4.290
 8032TIP3    H123973   5.209   1.276   4.347
 8032TIP3    H223974   5.300   1.345   4.248
 8033TIP3   OH223975   4.029   2.000   4.642
 8033TIP3    H123976   3.962   2.043   4.585
 8033TIP3    H223977   3.989   1.913   4.656
 8034TIP3   OH223978   5.084   2.626   3.843
 8034TIP3    H123979   5.093   2.722   3.829
 8034TIP3    H223980   5.177   2.596   3.830
 8035TIP3   OH223981   3.809   2.383   5.549
 8035TIP3    H123982   3.745   2.359   5.480
 8035TIP3    H223983   3.847   2.297   5.575
 8036TIP3   OH223984   3.664   2.577   5.182
 8036TIP3    H123985   3.760   2.570   5.173
 8036TIP3    H223986   3.655   2.655   5.237
 8037TIP3   OH223987   5.529   3.027   5.236
 8037TIP3    H123988   5.528   2.931   5.251
 8037TIP3    H223989   5.446   3.053   5.282
 8038TIP3   OH223990   4.634   2.814   5.372
 8038TIP3    H123991   4.634   2.906   5.405
 8038TIP3    H223992   4.563   2.775   5.427
 8039TIP3   OH223993   4.393   2.943   4.324
 8039TIP3    H123994   4.349   2.925   4.239
 8039TIP3    H223995   4.362   3.033   4.347
 8040TIP3   OH223996   3.832   2.792   4.708
 8040TIP3    H123997   3.882   2.784   4.792
 8040TIP3    H223998   3.773   2.715   4.715
 8041TIP3   OH223999   4.596   2.843   3.964
 8041TIP3    H124000   4.655   2.774   3.928
 8041TIP3    H224001   4.630   2.853   4.056
 8042TIP3   OH224002   4.645   2.892   4.235
 8042TIP3    H124003   4.557   2.901   4.278
 8042TIP3    H224004   4.697   2.851   4.306
 8043TIP3   OH224005   5.419   2.159   5.511
 8043TIP3    H124006   5.338   2.173   5.459
 8043TIP3    H224007   5.434   2.063   5.499
 8044TIP3   OH224008   4.014   2.566   5.538
 8044TIP3    H124009   4.064   2.550   5.621
 8044TIP3    H224010   3.940   2.503   5.547
 8045TIP3   OH224011   4.414   1.390   5.320
 8045TIP3    H124012   4.324   1.359   5.295
 8045TIP3    H224013   4.389   1.472   5.367
 8046TIP3   OH224014   4.947   1.505   5.515
 8046TIP3    H124015   5.015   1.478   5.581
 8046TIP3    H224016   4.863   1.485   5.561
 8047TIP3   OH224017   5.190   1.935   5.437
 8047TIP3    H124018   5.138   1.931   5.520
 8047TIP3    H224019   5.163   2.021   5.399
 8048TIP3   OH224020   4.845   2.067   3.990
 8048TIP3    H124021   4.814   2.039   3.903
 8048TIP3    H224022   4.928   2.113   3.966
 8049TIP3   OH224023   4.557   1.441   4.292
 8049TIP3    H124024   4.527   1.438   4.385
 8049TIP3    H224025   4.522   1.357   4.260
 8050TIP3   OH224026   4.345   1.906   5.340
 8050TIP3    H124027   4.295   1.927   5.422
 8050TIP3    H224028   4.329   1.987   5.286
 8051TIP3   OH224029   4.229   1.792   4.854
 8051TIP3    H124030   4.137   1.765   4.872
 8051TIP3    H224031   4.243   1.751   4.766
 8052TIP3   OH224032   4.720   1.877   4.581
 8052TIP3    H124033   4.667   1.949   4.539
 8052TIP3    H224034   4.776   1.847   4.507
 8053TIP3   OH224035   4.894   2.157   5.669
 8053TIP3    H124036   4.872   2.083   5.731
 8053TIP3    H224037   4.989   2.170   5.690
 8054TIP3   OH224038   4.877   1.907   4.821
 8054TIP3    H124039   4.818   1.934   4.748
 8054TIP3    H224040   4.912   1.825   4.780
 8055TIP3   OH224041   4.163   1.935   5.549
 8055TIP3    H124042   4.193   1.998   5.617
 8055TIP3    H224043   4.154   1.852   5.601
 8056TIP3   OH224044   4.212   1.410   4.258
 8056TIP3    H124045   4.208   1.409   4.356
 8056TIP3    H224046   4.134   1.464   4.237
 8057TIP3   OH224047   3.758   1.457   5.128
 8057TIP3    H124048   3.833   1.489   5.183
 8057TIP3    H224049   3.802   1.423   5.049
 8058TIP3   OH224050   3.732   1.437   4.649
 8058TIP3    H124051   3.779   1.475   4.572
 8058TIP3    H224052   3.672   1.511   4.670
 8059TIP3   OH224053   4.888   2.153   5.244
 8059TIP3    H124054   4.920   2.080   5.186
 8059TIP3    H224055   4.859   2.100   5.322
 8060TIP3   OH224056   4.554   1.617   4.916
 8060TIP3    H124057   4.474   1.613   4.971
 8060TIP3    H224058   4.625   1.611   4.982
 8061TIP3   OH224059   3.991   1.669   4.924
 8061TIP3    H124060   3.897   1.675   4.897
 8061TIP3    H224061   4.016   1.577   4.902
 8062TIP3   OH224062   4.261   1.666   4.612
 8062TIP3    H124063   4.356   1.680   4.594
 8062TIP3    H224064   4.217   1.689   4.528
 8063TIP3   OH224065   5.051   1.693   5.126
 8063TIP3    H124066   5.007   1.702   5.213
 8063TIP3    H224067   4.993   1.630   5.080
 8064TIP3   OH224068   4.099   1.700   4.390
 8064TIP3    H124069   4.028   1.656   4.341
 8064TIP3    H224070   4.152   1.736   4.316
 8065TIP3   OH224071   5.218   3.378   5.336
 8065TIP3    H124072   5.216   3.402   5.242
 8065TIP3    H224073   5.295   3.428   5.368
 8066TIP3   OH224074   4.176   2.488   5.758
 8066TIP3    H124075   4.256   2.519   5.806
 8066TIP3    H224076   4.111   2.488   5.832
 8067TIP3   OH224077   4.640   1.942   5.012
 8067TIP3    H124078   4.713   1.903   4.961
 8067TIP3    H224079   4.651   1.899   5.099
 8068TIP3   OH224080   4.162   1.430   4.890
 8068TIP3    H124081   4.129   1.351   4.937
 8068TIP3    H224082   4.219   1.392   4.822
 8069TIP3   OH224083   4.616   1.836   5.305
 8069TIP3    H124084   4.527   1.874   5.317
 8069TIP3    H224085   4.674   1.898   5.354
 8070TIP3   OH224086   4.352   2.231   4.396
 8070TIP3    H124087   4.280   2.165   4.387
 8070TIP3    H224088   4.335   2.264   4.488
 8071TIP3   OH224089   5.253   2.466   5.028
 8071TIP3    H124090   5.277   2.515   4.946
 8071TIP3    H224091   5.169   2.423   5.003
 8072TIP3   OH224092   4.811   1.543   4.257
 8072TIP3    H124093   4.714   1.528   4.267
 8072TIP3    H224094   4.823   1.637   4.283
 8073TIP3   OH224095   4.754   2.548   5.395
 8073TIP3    H124096   4.775   2.525   5.486
 8073TIP3    H224097   4.714   2.636   5.403
 8074TIP3   OH224098   4.881   1.788   4.362
 8074TIP3    H124099   4.978   1.793   4.380
 8074TIP3    H224100   4.866   1.868   4.309
 8075TIP3   OH224101   4.044   2.249   5.074
 8075TIP3    H124102   4.083   2.222   4.989
 8075TIP3    H224103   4.087   2.189   5.136
 8076TIP3   OH224104   4.497   2.379   4.216
 8076TIP3    H124105   4.450   2.465   4.223
 8076TIP3    H224106   4.444   2.323   4.278
 8077TIP3   OH224107   3.925   2.173   5.687
 8077TIP3    H124108   3.948   2.160   5.782
 8077TIP3    H224109   3.857   2.105   5.673
 8078TIP3   OH224110   4.651   2.285   5.707
 8078TIP3    H124111   4.592   2.227   5.656
 8078TIP3    H224112   4.739   2.252   5.679
 8079TIP3   OH224113   4.914   2.808   5.289
 8079TIP3    H124114   4.817   2.805   5.302
 8079TIP3    H224115   4.941   2.859   5.368
 8080TIP3   OH224116   5.322   1.877   4.200
 8080TIP3    H124117   5.259   1.833   4.138
 8080TIP3    H224118   5.321   1.966   4.159
 8081TIP3   OH224119   5.542   2.737   5.280
 8081TIP3    H124120   5.444   2.731   5.272
 8081TIP3    H224121   5.567   2.706   5.190
 8082TIP3   OH224122   5.023   2.698   4.107
 8082TIP3    H124123   4.999   2.628   4.169
 8082TIP3    H224124   5.035   2.651   4.023
 8083TIP3   OH224125   5.020   2.327   4.947
 8083TIP3    H124126   4.926   2.302   4.960
 8083TIP3    H224127   5.054   2.247   4.902
 8084TIP3   OH224128   4.146   2.554   4.697
 8084TIP3    H124129   4.148   2.636   4.645
 8084TIP3    H224130   4.051   2.541   4.709
 8085TIP3   OH224131   3.707   1.860   4.399
 8085TIP3    H124132   3.756   1.942   4.421
 8085TIP3    H224133   3.632   1.865   4.462
 8086TIP3   OH224134   4.286   2.321   4.642
 8086TIP3    H124135   4.250   2.410   4.661
 8086TIP3    H224136   4.251   2.270   4.718
 8087TIP3   OH224137   4.415   2.899   5.168
 8087TIP3    H124138   4.456   2.972   5.118
 8087TIP3    H224139   4.491   2.864   5.217
 8088TIP3   OH224140   4.066   2.794   4.550
 8088TIP3    H124141   3.980   2.802   4.597
 8088TIP3    H224142   4.098   2.887   4.554
 8089TIP3   OH224143   4.805   2.533   5.126
 8089TIP3    H124144   4.796   2.531   5.224
 8089TIP3    H224145   4.884   2.479   5.113
 8090TIP3   OH224146   4.777   2.425   4.010
 8090TIP3    H124147   4.832   2.400   4.088
 8090TIP3    H224148   4.690   2.399   4.041
 8091TIP3   OH224149   5.053   3.067   5.177
 8091TIP3    H124150   4.974   3.010   5.171
 8091TIP3    H224151   5.036   3.131   5.105
 8092TIP3   OH224152   5.118   2.901   3.829
 8092TIP3    H124153   5.155   2.973   3.776
 8092TIP3    H224154   5.038   2.947   3.863
 8093TIP3   OH224155   4.138   1.678   5.696
 8093TIP3    H124156   4.042   1.680   5.709
 8093TIP3    H224157   4.167   1.616   5.765
 8094TIP3   OH224158   4.938   2.360   4.227
 8094TIP3    H124159   4.928   2.293   4.297
 8094TIP3    H224160   5.035   2.358   4.214
 8095TIP3   OH224161   3.854   2.761   5.327
 8095TIP3    H124162   3.907   2.687   5.360
 8095TIP3    H224163   3.881   2.831   5.388
 8096TIP3   OH224164   4.143   2.406   4.008
 8096TIP3    H124165   4.161   2.315   3.981
 8096TIP3    H224166   4.125   2.394   4.104
 8097TIP3   OH224167   4.089   2.411   4.282
 8097TIP3    H124168   4.162   2.383   4.339
 8097TIP3    H224169   4.094   2.509   4.289
 8098TIP3   OH224170   3.825   2.104   4.484
 8098TIP3    H124171   3.760   2.149   4.542
 8098TIP3    H224172   3.842   2.174   4.418
 8099TIP3   OH224173   4.968   1.746   5.383
 8099TIP3    H124174   5.054   1.779   5.414
 8099TIP3    H224175   4.957   1.663   5.433
 8100TIP3   OH224176   4.852   1.494   4.540
 8100TIP3    H124177   4.843   1.518   4.446
 8100TIP3    H224178   4.893   1.575   4.578
 8101TIP3   OH224179   4.354   2.608   4.229
 8101TIP3    H124180   4.268   2.636   4.265
 8101TIP3    H224181   4.373   2.683   4.170
 8102TIP3   OH224182   4.542   1.673   4.643
 8102TIP3    H124183   4.609   1.743   4.625
 8102TIP3    H224184   4.549   1.664   4.741
 8103TIP3   OH224185   4.812   1.992   5.451
 8103TIP3    H124186   4.834   2.043   5.531
 8103TIP3    H224187   4.867   1.912   5.461
 8104TIP3   OH224188   4.688   1.400   4.745
 8104TIP3    H124189   4.689   1.473   4.809
 8104TIP3    H224190   4.749   1.436   4.676
 8105TIP3   OH224191   4.097   2.684   4.297
 8105TIP3    H124192   4.068   2.754   4.234
 8105TIP3    H224193   4.082   2.728   4.383
 8106TIP3   OH224194   4.200   1.398   4.535
 8106TIP3    H124195   4.198   1.488   4.572
 8106TIP3    H224196   4.296   1.378   4.544
 8107TIP3   OH224197   5.456   1.891   5.428
 8107TIP3    H124198   5.358   1.891   5.439
 8107TIP3    H224199   5.462   1.846   5.342
 8108TIP3   OH224200   5.104   2.087   4.820
 8108TIP3    H124201   5.030   2.025   4.831
 8108TIP3    H224202   5.177   2.040   4.867
 8109TIP3   OH224203   3.816   2.316   4.289
 8109TIP3    H124204   3.882   2.387   4.300
 8109TIP3    H224205   3.863   2.262   4.223
 8110TIP3   OH224206   3.762   1.590   4.423
 8110TIP3    H124207   3.762   1.688   4.418
 8110TIP3    H224208   3.677   1.567   4.384
 8111TIP3   OH224209   5.073   3.041   4.770
 8111TIP3    H124210   5.030   3.088   4.695
 8111TIP3    H224211   5.167   3.059   4.749
 8112TIP3   OH224212   4.148   1.312   5.297
 8112TIP3    H124213   4.117   1.275   5.212
 8112TIP3    H224214   4.139   1.235   5.357
 8113TIP3   OH224215   3.688   2.526   4.678
 8113TIP3    H124216   3.617   2.560   4.734
 8113TIP3    H224217   3.666   2.567   4.592
 8114TIP3   OH224218   3.844   3.069   5.748
 8114TIP3    H124219   3.930   3.069   5.796
 8114TIP3    H224220   3.824   2.974   5.748
 8115TIP3   OH224221   4.327   3.036   5.793
 8115TIP3    H124222   4.422   3.016   5.801
 8115TIP3    H224223   4.302   2.977   5.719
 8116TIP3   OH224224   4.307   2.611   3.921
 8116TIP3    H124225   4.251   2.539   3.960
 8116TIP3    H224226   4.383   2.558   3.891
 8117TIP3   OH224227   4.966   2.940   5.526
 8117TIP3    H124228   4.957   2.871   5.595
 8117TIP3    H224229   5.043   2.991   5.557
 8118TIP3   OH224230   4.744   2.651   3.832
 8118TIP3    H124231   4.789   2.588   3.891
 8118TIP3    H224232   4.801   2.651   3.753
 8119TIP3   OH224233   3.975   2.476   5.949
 8119TIP3    H124234   3.992   2.380   5.954
 8119TIP3    H224235   3.887   2.478   5.906
 8120TIP3   OH224236   3.951   2.127   4.142
 8120TIP3    H124237   4.006   2.094   4.215
 8120TIP3    H224238   4.019   2.132   4.071
 8121TIP3   OH224239   4.583   2.561   5.722
 8121TIP3    H124240   4.542   2.576   5.636
 8121TIP3    H224241   4.614   2.468   5.715
 8122TIP3   OH224242   4.457   2.325   3.948
 8122TIP3    H124243   4.463   2.338   4.045
 8122TIP3    H224244   4.460   2.227   3.944
 8123TIP3   OH224245   5.076   2.568   5.329
 8123TIP3    H124246   5.150   2.614   5.285
 8123TIP3    H224247   5.004   2.632   5.316
 8124TIP3   OH224248   4.094   2.208   5.931
 8124TIP3    H124249   4.169   2.152   5.911
 8124TIP3    H224250   4.118   2.243   6.019
 8125TIP3   OH224251   4.159   2.031   4.364
 8125TIP3    H124252   4.135   1.989   4.448
 8125TIP3    H224253   4.196   1.955   4.314
 8126TIP3   OH224254   4.428   2.094   5.592
 8126TIP3    H124255   4.352   2.155   5.595
 8126TIP3    H224256   4.478   2.128   5.515
 8127TIP3   OH224257   4.261   1.824   4.206
 8127TIP3    H124258   4.235   1.826   4.111
 8127TIP3    H224259   4.358   1.829   4.199
 8128TIP3   OH224260   4.946   2.497   5.727
 8128TIP3    H124261   5.026   2.474   5.679
 8128TIP3    H224262   4.943   2.430   5.797
 8129TIP3   OH224263   5.082   2.156   3.867
 8129TIP3    H124264   5.062   2.109   3.784
 8129TIP3    H224265   5.050   2.246   3.842
 8130TIP3   OH224266   4.552   1.883   5.720
 8130TIP3    H124267   4.553   1.802   5.663
 8130TIP3    H224268   4.509   1.948   5.661
 8131TIP3   OH224269   4.555   1.669   5.527
 8131TIP3    H124270   4.583   1.710   5.442
 8131TIP3    H224271   4.462   1.646   5.508
 8132TIP3   OH224272   4.583   2.205   5.400
 8132TIP3    H124273   4.666   2.211   5.351
 8132TIP3    H224274   4.527   2.273   5.355
 8133TIP3   OH224275   5.165   2.173   5.782
 8133TIP3    H124276   5.213   2.089   5.790
 8133TIP3    H224277   5.233   2.231   5.746
 8134TIP3   OH224278   5.206   2.425   5.517
 8134TIP3    H124279   5.148   2.478   5.458
 8134TIP3    H224280   5.293   2.445   5.477
 8135TIP3   OH224281   4.430   1.996   5.949
 8135TIP3    H124282   4.361   1.928   5.963
 8135TIP3    H224283   4.465   1.970   5.861
 8136TIP3   OH224284   4.687   1.433   5.593
 8136TIP3    H124285   4.638   1.516   5.570
 8136TIP3    H224286   4.618   1.366   5.581
 8137TIP3   OH224287   4.813   1.938   5.809
 8137TIP3    H124288   4.801   1.927   5.905
 8137TIP3    H224289   4.723   1.913   5.779
 8138TIP3   OH224290   5.054   1.889   5.665
 8138TIP3    H124291   4.977   1.889   5.726
 8138TIP3    H224292   5.126   1.856   5.722
 8139TIP3   OH224293   5.285   1.828   5.816
 8139TIP3    H124294   5.295   1.732   5.835
 8139TIP3    H224295   5.279   1.867   5.905
 8140TIP3   OH224296   4.269   1.777   6.001
 8140TIP3    H124297   4.275   1.686   5.966
 8140TIP3    H224298   4.305   1.764   6.092
 8141TIP3   OH224299   4.782   1.442   5.850
 8141TIP3    H124300   4.849   1.372   5.843
 8141TIP3    H224301   4.742   1.437   5.761
 8142TIP3   OH224302   4.847   1.658   6.010
 8142TIP3    H124303   4.825   1.587   5.945
 8142TIP3    H224304   4.770   1.717   6.003
 8143TIP3   OH224305   4.067   2.885   4.109
 8143TIP3    H124306   4.163   2.882   4.091
 8143TIP3    H224307   4.038   2.936   4.030
 8144TIP3   OH224308   3.548   2.269   4.325
 8144TIP3    H124309   3.642   2.292   4.312
 8144TIP3    H224310   3.544   2.180   4.285
 8145TIP3   OH224311   3.463   2.880   4.739
 8145TIP3    H124312   3.395   2.818   4.704
 8145TIP3    H224313   3.507   2.824   4.806
 8146TIP3   OH224314   3.599   2.733   4.926
 8146TIP3    H124315   3.588   2.659   4.988
 8146TIP3    H224316   3.650   2.795   4.981
 8147TIP3   OH224317   5.325   3.132   4.725
 8147TIP3    H124318   5.351   3.164   4.813
 8147TIP3    H224319   5.386   3.181   4.667
 8148TIP3   OH224320   5.356   3.153   5.007
 8148TIP3    H124321   5.311   3.065   5.003
 8148TIP3    H224322   5.429   3.130   5.067
 8149TIP3   OH224323   5.401   2.829   5.580
 8149TIP3    H124324   5.328   2.838   5.645
 8149TIP3    H224325   5.442   2.918   5.585
 8150TIP3   OH224326   5.217   2.344   4.201
 8150TIP3    H124327   5.287   2.406   4.173
 8150TIP3    H224328   5.258   2.304   4.281
 8151TIP3   OH224329   5.342   2.214   4.406
 8151TIP3    H124330   5.278   2.168   4.464
 8151TIP3    H224331   5.408   2.249   4.470
 8152TIP3   OH224332   5.400   2.602   4.838
 8152TIP3    H124333   5.452   2.536   4.788
 8152TIP3    H224334   5.390   2.674   4.773
 8153TIP3   OH224335   5.232   2.903   5.032
 8153TIP3    H124336   5.160   2.944   5.084
 8153TIP3    H224337   5.181   2.854   4.963
 8154TIP3   OH224338   5.284   2.119   4.051
 8154TIP3    H124339   5.211   2.121   3.984
 8154TIP3    H224340   5.255   2.194   4.107
 8155TIP3   OH224341   5.151   1.792   4.006
 8155TIP3    H124342   5.112   1.827   3.925
 8155TIP3    H224343   5.128   1.697   3.999
 8156TIP3   OH224344   5.159   2.066   4.551
 8156TIP3    H124345   5.167   1.969   4.544
 8156TIP3    H224346   5.146   2.079   4.648
 8157TIP3   OH224347   3.786   2.141   5.297
 8157TIP3    H124348   3.785   2.110   5.204
 8157TIP3    H224349   3.883   2.142   5.315
 8158TIP3   OH224350   5.448   2.491   5.408
 8158TIP3    H124351   5.521   2.425   5.399
 8158TIP3    H224352   5.475   2.560   5.345
 8159TIP3   OH224353   5.635   2.298   5.426
 8159TIP3    H124354   5.560   2.248   5.464
 8159TIP3    H224355   5.707   2.233   5.441
 8160TIP3   OH224356   5.098   1.526   3.991
 8160TIP3    H124357   5.177   1.498   4.042
 8160TIP3    H224358   5.029   1.465   4.021
 8161TIP3   OH224359   5.154   1.784   4.447
 8161TIP3    H124360   5.193   1.694   4.463
 8161TIP3    H224361   5.215   1.814   4.376
 8162TIP3   OH224362   5.319   1.964   4.941
 8162TIP3    H124363   5.406   1.988   4.902
 8162TIP3    H224364   5.333   1.994   5.032
 8163TIP3   OH224365   5.388   2.101   5.176
 8163TIP3    H124366   5.308   2.134   5.222
 8163TIP3    H224367   5.419   2.182   5.130
 8164TIP3   OH224368   4.002   1.827   5.972
 8164TIP3    H124369   4.100   1.821   5.973
 8164TIP3    H224370   3.979   1.742   6.014
 8165TIP3   OH224371   5.841   1.693   5.730
 8165TIP3    H124372   5.897   1.626   5.685
 8165TIP3    H224373   5.810   1.747   5.654
 8166TIP3   OH224374   5.260   1.535   4.483
 8166TIP3    H124375   5.324   1.514   4.555
 8166TIP3    H224376   5.205   1.454   4.484
 8167TIP3   OH224377   3.963   1.519   5.304
 8167TIP3    H124378   4.024   1.443   5.314
 8167TIP3    H224379   4.026   1.593   5.298
 8168TIP3   OH224380   3.767   1.793   5.376
 8168TIP3    H124381   3.817   1.786   5.292
 8168TIP3    H224382   3.798   1.878   5.409
 8169TIP3   OH224383   5.709   1.831   5.536
 8169TIP3    H124384   5.622   1.872   5.556
 8169TIP3    H224385   5.681   1.760   5.476
 8170TIP3   OH224386   5.344   1.472   4.109
 8170TIP3    H124387   5.389   1.396   4.067
 8170TIP3    H224388   5.415   1.538   4.114
 8171TIP3   OH224389   3.750   1.294   4.878
 8171TIP3    H124390   3.657   1.293   4.905
 8171TIP3    H224391   3.749   1.353   4.800
 8172TIP3   OH224392   4.909   2.999   4.383
 8172TIP3    H124393   4.961   2.984   4.301
 8172TIP3    H224394   4.963   3.066   4.428
 8173TIP3   OH224395   3.972   1.380   5.695
 8173TIP3    H124396   3.919   1.372   5.776
 8173TIP3    H224397   3.905   1.413   5.632
 8174TIP3   OH224398   4.011   2.802   5.769
 8174TIP3    H124399   3.919   2.775   5.752
 8174TIP3    H224400   4.020   2.785   5.864
 8175TIP3   OH224401   4.188   2.834   5.316
 8175TIP3    H124402   4.140   2.910   5.277
 8175TIP3    H224403   4.274   2.848   5.272
 8176TIP3   OH224404   4.635   3.080   5.454
 8176TIP3    H124405   4.676   3.081   5.543
 8176TIP3    H224406   4.701   3.131   5.402
 8177TIP3   OH224407   4.813   3.231   5.312
 8177TIP3    H124408   4.885   3.180   5.272
 8177TIP3    H224409   4.864   3.289   5.373
 8178TIP3   OH224410   5.606   1.595   5.414
 8178TIP3    H124411   5.516   1.591   5.377
 8178TIP3    H224412   5.636   1.502   5.401
 8179TIP3   OH224413   3.865   3.092   5.339
 8179TIP3    H124414   3.776   3.126   5.317
 8179TIP3    H224415   3.876   3.128   5.428
 8180TIP3   OH224416   4.101   3.070   5.197
 8180TIP3    H124417   4.015   3.084   5.242
 8180TIP3    H224418   4.082   3.104   5.108
 8181TIP3   OH224419   4.528   3.101   4.995
 8181TIP3    H124420   4.458   3.122   4.929
 8181TIP3    H224421   4.540   3.187   5.038
 8182TIP3   OH224422   4.796   3.040   5.046
 8182TIP3    H124423   4.702   3.056   5.027
 8182TIP3    H224424   4.838   3.117   5.005
 8183TIP3   OH224425   5.006   3.233   4.963
 8183TIP3    H124426   4.991   3.317   4.915
 8183TIP3    H224427   5.030   3.172   4.890
 8184TIP3   OH224428   3.777   2.886   5.084
 8184TIP3    H124429   3.803   2.861   5.176
 8184TIP3    H224430   3.849   2.842   5.034
 8185TIP3   OH224431   3.970   2.757   4.940
 8185TIP3    H124432   3.986   2.673   4.990
 8185TIP3    H224433   4.061   2.794   4.937
 8186TIP3   OH224434   4.236   2.853   4.944
 8186TIP3    H124435   4.268   2.761   4.932
 8186TIP3    H224436   4.279   2.875   5.028
 8187TIP3   OH224437   4.806   1.507   5.025
 8187TIP3    H124438   4.769   1.437   5.081
 8187TIP3    H224439   4.885   1.464   4.986
 8188TIP3   OH224440   5.331   1.411   4.973
 8188TIP3    H124441   5.385   1.433   4.893
 8188TIP3    H224442   5.241   1.410   4.936
 8189TIP3   OH224443   4.059   1.217   5.047
 8189TIP3    H124444   3.969   1.181   5.054
 8189TIP3    H224445   4.110   1.133   5.046
 8190TIP3   OH224446   3.836   1.088   4.690
 8190TIP3    H124447   3.875   1.147   4.622
 8190TIP3    H224448   3.816   1.151   4.761
 8191TIP3   OH224449   4.503   1.251   4.928
 8191TIP3    H124450   4.562   1.300   4.869
 8191TIP3    H224451   4.526   1.288   5.014
 8192TIP3   OH224452   5.044   1.396   4.912
 8192TIP3    H124453   5.057   1.361   4.823
 8192TIP3    H224454   5.033   1.314   4.965
 8193TIP3   OH224455   5.080   1.316   4.470
 8193TIP3    H124456   4.994   1.359   4.485
 8193TIP3    H224457   5.068   1.232   4.520
 8194TIP3   OH224458   3.565   2.656   4.477
 8194TIP3    H124459   3.480   2.625   4.442
 8194TIP3    H224460   3.554   2.752   4.464
 8195TIP3   OH224461   3.964   1.249   4.458
 8195TIP3    H124462   4.014   1.185   4.403
 8195TIP3    H224463   4.037   1.302   4.495
 8196TIP3   OH224464   4.477   1.421   4.559
 8196TIP3    H124465   4.538   1.376   4.619
 8196TIP3    H224466   4.498   1.514   4.583
 8197TIP3   OH224467   4.336   2.847   4.058
 8197TIP3    H124468   4.425   2.870   4.023
 8197TIP3    H224469   4.314   2.772   3.999
 8198TIP3   OH224470   5.056   2.965   4.151
 8198TIP3    H124471   5.047   2.867   4.138
 8198TIP3    H224472   5.010   2.997   4.070
 8199TIP3   OH224473   4.268   1.502   5.942
 8199TIP3    H124474   4.235   1.429   5.997
 8199TIP3    H224475   4.363   1.501   5.967
 8200TIP3   OH224476   4.518   1.496   6.059
 8200TIP3    H124477   4.602   1.471   6.018
 8200TIP3    H224478   4.506   1.424   6.125
 8201TIP3   OH224479   3.640   2.682   4.115
 8201TIP3    H124480   3.642   2.710   4.208
 8201TIP3    H224481   3.729   2.642   4.103
 8202TIP3   OH224482   5.342   1.556   5.847
 8202TIP3    H124483   5.362   1.525   5.938
 8202TIP3    H224484   5.431   1.551   5.804
 8203TIP3   OH224485   5.284   3.110   5.337
 8203TIP3    H124486   5.204   3.077   5.291
 8203TIP3    H224487   5.263   3.205   5.342
 8204TIP3   OH224488   6.546   2.488   4.104
 8204TIP3    H124489   6.502   2.572   4.081
 8204TIP3    H224490   6.480   2.424   4.073
 8205TIP3   OH224491   6.544   2.483   4.485
 8205TIP3    H124492   6.577   2.452   4.571
 8205TIP3    H224493   6.504   2.402   4.450
 8206TIP3   OH224494   5.847   2.378   4.850
 8206TIP3    H124495   5.877   2.309   4.912
 8206TIP3    H224496   5.926   2.434   4.844
 8207TIP3   OH224497   5.817   2.788   4.575
 8207TIP3    H124498   5.807   2.690   4.578
 8207TIP3    H224499   5.914   2.795   4.576
 8208TIP3   OH224500   5.528   2.005   4.360
 8208TIP3    H124501   5.467   2.080   4.368
 8208TIP3    H224502   5.467   1.932   4.341
 8209TIP3   OH224503   5.587   2.279   4.533
 8209TIP3    H124504   5.632   2.200   4.570
 8209TIP3    H224505   5.636   2.293   4.451
 8210TIP3   OH224506   6.437   3.216   4.161
 8210TIP3    H124507   6.530   3.188   4.161
 8210TIP3    H224508   6.418   3.224   4.256
 8211TIP3   OH224509   6.348   2.708   4.529
 8211TIP3    H124510   6.382   2.626   4.491
 8211TIP3    H224511   6.434   2.748   4.556
 8212TIP3   OH224512   7.359   2.027   4.532
 8212TIP3    H124513   7.388   2.111   4.573
 8212TIP3    H224514   7.379   2.044   4.438
 8213TIP3   OH224515   6.761   2.210   4.566
 8213TIP3    H124516   6.801   2.124   4.586
 8213TIP3    H224517   6.727   2.195   4.476
 8214TIP3   OH224518   6.098   1.870   4.531
 8214TIP3    H124519   6.073   1.941   4.468
 8214TIP3    H224520   6.051   1.794   4.488
 8215TIP3   OH224521   6.789   1.962   4.157
 8215TIP3    H124522   6.865   1.945   4.218
 8215TIP3    H224523   6.836   1.995   4.079
 8216TIP3   OH224524   5.728   2.070   4.639
 8216TIP3    H124525   5.812   2.046   4.683
 8216TIP3    H224526   5.732   2.009   4.562
 8217TIP3   OH224527   6.170   2.269   4.431
 8217TIP3    H124528   6.263   2.241   4.445
 8217TIP3    H224529   6.129   2.185   4.399
 8218TIP3   OH224530   7.434   2.237   4.700
 8218TIP3    H124531   7.349   2.282   4.680
 8218TIP3    H224532   7.442   2.256   4.795
 8219TIP3   OH224533   6.093   1.853   4.967
 8219TIP3    H124534   6.031   1.885   4.898
 8219TIP3    H224535   6.040   1.870   5.047
 8220TIP3   OH224536   6.443   2.723   3.989
 8220TIP3    H124537   6.404   2.675   3.914
 8220TIP3    H224538   6.383   2.800   3.995
 8221TIP3   OH224539   6.201   2.628   4.763
 8221TIP3    H124540   6.135   2.689   4.803
 8221TIP3    H224541   6.238   2.683   4.692
 8222TIP3   OH224542   7.004   1.960   4.324
 8222TIP3    H124543   6.993   1.908   4.405
 8222TIP3    H224544   7.056   2.036   4.355
 8223TIP3   OH224545   5.963   1.965   4.749
 8223TIP3    H124546   6.027   2.037   4.772
 8223TIP3    H224547   6.010   1.924   4.674
 8224TIP3   OH224548   6.026   2.819   4.859
 8224TIP3    H124549   5.999   2.905   4.822
 8224TIP3    H224550   5.948   2.802   4.916
 8225TIP3   OH224551   5.423   2.510   4.095
 8225TIP3    H124552   5.380   2.536   4.011
 8225TIP3    H224553   5.452   2.596   4.131
 8226TIP3   OH224554   6.838   3.020   4.300
 8226TIP3    H124555   6.763   3.021   4.364
 8226TIP3    H224556   6.848   3.115   4.280
 8227TIP3   OH224557   7.151   1.930   4.700
 8227TIP3    H124558   7.062   1.955   4.668
 8227TIP3    H224559   7.209   1.959   4.626
 8228TIP3   OH224560   6.452   1.572   4.683
 8228TIP3    H124561   6.435   1.477   4.695
 8228TIP3    H224562   6.373   1.609   4.727
 8229TIP3   OH224563   6.718   2.833   3.979
 8229TIP3    H124564   6.653   2.807   3.911
 8229TIP3    H224565   6.801   2.806   3.937
 8230TIP3   OH224566   7.088   2.940   4.679
 8230TIP3    H124567   7.077   2.862   4.621
 8230TIP3    H224568   7.073   3.014   4.617
 8231TIP3   OH224569   6.383   2.340   3.936
 8231TIP3    H124570   6.298   2.380   3.908
 8231TIP3    H224571   6.426   2.322   3.850
 8232TIP3   OH224572   6.332   2.117   3.646
 8232TIP3    H124573   6.413   2.156   3.684
 8232TIP3    H224574   6.369   2.037   3.605
 8233TIP3   OH224575   7.283   2.578   4.524
 8233TIP3    H124576   7.199   2.629   4.530
 8233TIP3    H224577   7.310   2.599   4.433
 8234TIP3   OH224578   6.729   2.423   3.907
 8234TIP3    H124579   6.672   2.438   3.985
 8234TIP3    H224580   6.809   2.385   3.949
 8235TIP3   OH224581   6.961   2.456   4.817
 8235TIP3    H124582   6.957   2.539   4.867
 8235TIP3    H224583   6.874   2.458   4.772
 8236TIP3   OH224584   5.960   2.416   4.321
 8236TIP3    H124585   5.914   2.357   4.257
 8236TIP3    H224586   6.034   2.359   4.351
 8237TIP3   OH224587   6.093   2.831   4.468
 8237TIP3    H124588   6.064   2.780   4.391
 8237TIP3    H224589   6.180   2.792   4.487
 8238TIP3   OH224590   6.100   2.382   4.681
 8238TIP3    H124591   6.127   2.362   4.589
 8238TIP3    H224592   6.139   2.470   4.696
 8239TIP3   OH224593   6.610   3.014   4.441
 8239TIP3    H124594   6.599   3.097   4.493
 8239TIP3    H224595   6.602   2.945   4.511
 8240TIP3   OH224596   6.232   2.942   5.000
 8240TIP3    H124597   6.173   3.004   5.048
 8240TIP3    H224598   6.166   2.888   4.953
 8241TIP3   OH224599   6.559   2.281   3.730
 8241TIP3    H124600   6.626   2.331   3.782
 8241TIP3    H224601   6.589   2.300   3.638
 8242TIP3   OH224602   5.987   2.499   5.102
 8242TIP3    H124603   5.990   2.585   5.149
 8242TIP3    H224604   5.892   2.478   5.111
 8243TIP3   OH224605   6.337   2.981   4.013
 8243TIP3    H124606   6.338   3.066   4.061
 8243TIP3    H224607   6.260   2.992   3.956
 8244TIP3   OH224608   6.027   3.110   5.090
 8244TIP3    H124609   5.990   3.107   4.999
 8244TIP3    H224610   5.948   3.088   5.144
 8245TIP3   OH224611   7.083   1.514   3.783
 8245TIP3    H124612   7.000   1.534   3.831
 8245TIP3    H224613   7.096   1.596   3.732
 8246TIP3   OH224614   5.823   2.258   4.133
 8246TIP3    H124615   5.756   2.298   4.074
 8246TIP3    H224616   5.788   2.169   4.145
 8247TIP3   OH224617   6.881   2.885   3.335
 8247TIP3    H124618   6.890   2.981   3.313
 8247TIP3    H224619   6.973   2.853   3.319
 8248TIP3   OH224620   5.607   2.640   5.035
 8248TIP3    H124621   5.540   2.617   4.967
 8248TIP3    H224622   5.643   2.552   5.060
 8249TIP3   OH224623   5.459   2.834   4.667
 8249TIP3    H124624   5.555   2.828   4.661
 8249TIP3    H224625   5.447   2.913   4.722
 8250TIP3   OH224626   7.325   3.283   4.723
 8250TIP3    H124627   7.324   3.187   4.739
 8250TIP3    H224628   7.242   3.309   4.769
 8251TIP3   OH224629   6.429   3.071   4.858
 8251TIP3    H124630   6.429   3.163   4.892
 8251TIP3    H224631   6.358   3.031   4.913
 8252TIP3   OH224632   6.193   3.200   3.810
 8252TIP3    H124633   6.146   3.178   3.728
 8252TIP3    H224634   6.158   3.288   3.833
 8253TIP3   OH224635   5.629   3.049   4.193
 8253TIP3    H124636   5.675   3.039   4.280
 8253TIP3    H224637   5.571   2.971   4.195
 8254TIP3   OH224638   6.393   3.101   3.450
 8254TIP3    H124639   6.451   3.031   3.413
 8254TIP3    H224640   6.427   3.109   3.542
 8255TIP3   OH224641   6.445   3.150   3.720
 8255TIP3    H124642   6.356   3.158   3.761
 8255TIP3    H224643   6.499   3.121   3.795
 8256TIP3   OH224644   7.214   2.416   4.998
 8256TIP3    H124645   7.133   2.429   4.947
 8256TIP3    H224646   7.230   2.320   4.987
 8257TIP3   OH224647   5.811   2.823   5.025
 8257TIP3    H124648   5.860   2.806   5.108
 8257TIP3    H224649   5.737   2.759   5.032
 8258TIP3   OH224650   6.211   1.647   4.807
 8258TIP3    H124651   6.122   1.615   4.780
 8258TIP3    H224652   6.184   1.729   4.853
 8259TIP3   OH224653   6.742   1.764   5.003
 8259TIP3    H124654   6.809   1.734   5.068
 8259TIP3    H224655   6.658   1.742   5.047
 8260TIP3   OH224656   6.987   2.193   4.925
 8260TIP3    H124657   6.934   2.188   5.007
 8260TIP3    H224658   6.958   2.277   4.886
 8261TIP3   OH224659   6.645   2.336   3.479
 8261TIP3    H124660   6.608   2.297   3.397
 8261TIP3    H224661   6.730   2.371   3.446
 8262TIP3   OH224662   6.364   1.692   3.790
 8262TIP3    H124663   6.319   1.683   3.876
 8262TIP3    H224664   6.317   1.625   3.737
 8263TIP3   OH224665   6.144   2.161   4.829
 8263TIP3    H124666   6.090   2.180   4.909
 8263TIP3    H224667   6.128   2.241   4.775
 8264TIP3   OH224668   6.025   2.051   4.341
 8264TIP3    H124669   5.933   2.021   4.358
 8264TIP3    H224670   6.039   2.010   4.252
 8265TIP3   OH224671   6.517   2.140   4.074
 8265TIP3    H124672   6.463   2.205   4.025
 8265TIP3    H224673   6.575   2.106   4.001
 8266TIP3   OH224674   6.691   2.414   5.156
 8266TIP3    H124675   6.667   2.340   5.218
 8266TIP3    H224676   6.785   2.426   5.178
 8267TIP3   OH224677   6.675   2.165   4.306
 8267TIP3    H124678   6.612   2.187   4.234
 8267TIP3    H224679   6.711   2.083   4.267
 8268TIP3   OH224680   5.962   2.191   5.035
 8268TIP3    H124681   5.981   2.254   5.106
 8268TIP3    H224682   5.948   2.108   5.084
 8269TIP3   OH224683   6.000   1.651   3.751
 8269TIP3    H124684   5.992   1.664   3.847
 8269TIP3    H224685   5.938   1.718   3.716
 8270TIP3   OH224686   5.590   1.746   4.577
 8270TIP3    H124687   5.629   1.757   4.666
 8270TIP3    H224688   5.550   1.658   4.587
 8271TIP3   OH224689   5.528   1.697   4.135
 8271TIP3    H124690   5.573   1.737   4.057
 8271TIP3    H224691   5.467   1.770   4.158
 8272TIP3   OH224692   6.687   2.411   4.730
 8272TIP3    H124693   6.718   2.338   4.672
 8272TIP3    H224694   6.656   2.359   4.807
 8273TIP3   OH224695   6.354   1.874   4.404
 8273TIP3    H124696   6.269   1.870   4.451
 8273TIP3    H224697   6.418   1.869   4.477
 8274TIP3   OH224698   5.790   1.927   4.408
 8274TIP3    H124699   5.693   1.933   4.390
 8274TIP3    H224700   5.805   1.831   4.400
 8275TIP3   OH224701   6.058   1.928   4.098
 8275TIP3    H124702   6.152   1.937   4.073
 8275TIP3    H224703   6.010   1.946   4.014
 8276TIP3   OH224704   6.845   1.946   4.606
 8276TIP3    H124705   6.807   1.958   4.696
 8276TIP3    H224706   6.780   1.884   4.568
 8277TIP3   OH224707   5.896   1.957   3.879
 8277TIP3    H124708   5.825   1.911   3.831
 8277TIP3    H224709   5.948   1.991   3.804
 8278TIP3   OH224710   7.014   3.634   4.823
 8278TIP3    H124711   7.013   3.659   4.728
 8278TIP3    H224712   7.092   3.684   4.855
 8279TIP3   OH224713   5.973   2.746   5.245
 8279TIP3    H124714   6.051   2.776   5.294
 8279TIP3    H224715   5.907   2.743   5.317
 8280TIP3   OH224716   6.438   2.202   4.503
 8280TIP3    H124717   6.504   2.155   4.449
 8280TIP3    H224718   6.444   2.156   4.588
 8281TIP3   OH224719   5.969   1.684   4.380
 8281TIP3    H124720   5.928   1.608   4.426
 8281TIP3    H224721   6.004   1.643   4.299
 8282TIP3   OH224722   6.413   2.095   4.787
 8282TIP3    H124723   6.322   2.128   4.802
 8282TIP3    H224724   6.468   2.156   4.840
 8283TIP3   OH224725   6.147   2.490   3.885
 8283TIP3    H124726   6.078   2.421   3.873
 8283TIP3    H224727   6.129   2.519   3.978
 8284TIP3   OH224728   7.050   2.724   4.515
 8284TIP3    H124729   7.073   2.770   4.431
 8284TIP3    H224730   6.966   2.679   4.492
 8285TIP3   OH224731   6.610   1.796   3.758
 8285TIP3    H124732   6.515   1.769   3.758
 8285TIP3    H224733   6.606   1.886   3.721
 8286TIP3   OH224734   6.556   2.810   4.877
 8286TIP3    H124735   6.567   2.776   4.967
 8286TIP3    H224736   6.508   2.894   4.891
 8287TIP3   OH224737   6.680   2.064   3.868
 8287TIP3    H124738   6.775   2.049   3.862
 8287TIP3    H224739   6.659   2.111   3.786
 8288TIP3   OH224740   5.848   2.514   4.561
 8288TIP3    H124741   5.881   2.479   4.476
 8288TIP3    H224742   5.872   2.442   4.622
 8289TIP3   OH224743   6.297   2.639   3.711
 8289TIP3    H124744   6.248   2.724   3.716
 8289TIP3    H224745   6.240   2.581   3.766
 8290TIP3   OH224746   5.723   2.427   5.173
 8290TIP3    H124747   5.740   2.413   5.268
 8290TIP3    H224748   5.652   2.363   5.155
 8291TIP3   OH224749   6.446   2.542   5.194
 8291TIP3    H124750   6.385   2.483   5.147
 8291TIP3    H224751   6.533   2.507   5.165
 8292TIP3   OH224752   6.708   3.073   4.769
 8292TIP3    H124753   6.613   3.062   4.788
 8292TIP3    H224754   6.738   3.117   4.851
 8293TIP3   OH224755   7.122   2.135   3.686
 8293TIP3    H124756   7.060   2.089   3.624
 8293TIP3    H224757   7.117   2.223   3.644
 8294TIP3   OH224758   7.338   2.993   4.768
 8294TIP3    H124759   7.240   2.988   4.761
 8294TIP3    H224760   7.363   2.963   4.677
 8295TIP3   OH224761   6.820   2.945   3.599
 8295TIP3    H124762   6.794   2.860   3.635
 8295TIP3    H224763   6.836   2.921   3.505
 8296TIP3   OH224764   6.817   2.581   4.442
 8296TIP3    H124765   6.724   2.555   4.452
 8296TIP3    H224766   6.851   2.504   4.392
 8297TIP3   OH224767   5.941   2.812   4.182
 8297TIP3    H124768   5.934   2.895   4.131
 8297TIP3    H224769   5.848   2.791   4.196
 8298TIP3   OH224770   5.504   2.117   3.886
 8298TIP3    H124771   5.552   2.200   3.909
 8298TIP3    H224772   5.428   2.121   3.949
 8299TIP3   OH224773   6.089   2.583   4.135
 8299TIP3    H124774   6.044   2.668   4.152
 8299TIP3    H224775   6.050   2.527   4.204
 8300TIP3   OH224776   6.211   3.156   4.656
 8300TIP3    H124777   6.253   3.229   4.607
 8300TIP3    H224778   6.286   3.121   4.707
 8301TIP3   OH224779   5.864   3.049   4.040
 8301TIP3    H124780   5.777   3.058   4.084
 8301TIP3    H224781   5.894   3.143   4.041
 8302TIP3   OH224782   6.606   2.789   4.610
 8302TIP3    H124783   6.594   2.792   4.708
 8302TIP3    H224784   6.682   2.730   4.603
 8303TIP3   OH224785   6.575   2.685   3.498
 8303TIP3    H124786   6.623   2.659   3.579
 8303TIP3    H224787   6.486   2.651   3.517
 8304TIP3   OH224788   6.850   3.323   4.663
 8304TIP3    H124789   6.772   3.263   4.660
 8304TIP3    H224790   6.830   3.386   4.591
 8305TIP3   OH224791   6.914   3.158   3.317
 8305TIP3    H124792   6.947   3.226   3.256
 8305TIP3    H224793   6.834   3.206   3.350
 8306TIP3   OH224794   5.933   1.936   5.183
 8306TIP3    H124795   5.836   1.939   5.193
 8306TIP3    H224796   5.957   1.871   5.251
 8307TIP3   OH224797   6.740   2.639   3.729
 8307TIP3    H124798   6.723   2.561   3.786
 8307TIP3    H224799   6.833   2.620   3.703
 8308TIP3   OH224800   5.652   3.019   4.813
 8308TIP3    H124801   5.701   2.942   4.845
 8308TIP3    H224802   5.676   3.085   4.880
 8309TIP3   OH224803   5.943   2.662   3.495
 8309TIP3    H124804   5.953   2.570   3.464
 8309TIP3    H224805   5.921   2.648   3.589
 8310TIP3   OH224806   5.886   2.668   3.767
 8310TIP3    H124807   5.955   2.637   3.827
 8310TIP3    H224808   5.892   2.766   3.776
 8311TIP3   OH224809   5.623   2.362   3.970
 8311TIP3    H124810   5.556   2.405   4.028
 8311TIP3    H224811   5.636   2.432   3.903
 8312TIP3   OH224812   6.769   2.001   4.865
 8312TIP3    H124813   6.851   2.033   4.904
 8312TIP3    H224814   6.753   1.919   4.916
 8313TIP3   OH224815   6.648   1.750   4.029
 8313TIP3    H124816   6.630   1.769   3.934
 8313TIP3    H224817   6.684   1.835   4.059
 8314TIP3   OH224818   6.158   2.873   3.729
 8314TIP3    H124819   6.066   2.896   3.754
 8314TIP3    H224820   6.168   2.929   3.651
 8315TIP3   OH224821   6.343   1.928   4.130
 8315TIP3    H124822   6.409   1.999   4.112
 8315TIP3    H224823   6.346   1.924   4.228
 8316TIP3   OH224824   6.610   2.250   4.936
 8316TIP3    H124825   6.629   2.302   5.017
 8316TIP3    H224826   6.663   2.169   4.949
 8317TIP3   OH224827   6.487   1.659   4.236
 8317TIP3    H124828   6.473   1.740   4.288
 8317TIP3    H224829   6.546   1.693   4.164
 8318TIP3   OH224830   5.898   2.941   3.784
 8318TIP3    H124831   5.866   3.009   3.720
 8318TIP3    H224832   5.878   2.985   3.869
 8319TIP3   OH224833   5.992   1.654   4.029
 8319TIP3    H124834   5.991   1.746   4.064
 8319TIP3    H224835   6.088   1.636   4.033
 8320TIP3   OH224836   7.253   2.148   4.916
 8320TIP3    H124837   7.155   2.149   4.927
 8320TIP3    H224838   7.258   2.102   4.831
 8321TIP3   OH224839   6.900   2.344   4.307
 8321TIP3    H124840   6.824   2.284   4.317
 8321TIP3    H224841   6.971   2.295   4.354
 8322TIP3   OH224842   5.612   2.572   3.776
 8322TIP3    H124843   5.678   2.644   3.784
 8322TIP3    H224844   5.658   2.516   3.710
 8323TIP3   OH224845   5.560   1.849   3.908
 8323TIP3    H124846   5.556   1.946   3.903
 8323TIP3    H224847   5.476   1.822   3.869
 8324TIP3   OH224848   6.869   3.292   4.254
 8324TIP3    H124849   6.828   3.343   4.181
 8324TIP3    H224850   6.963   3.312   4.236
 8325TIP3   OH224851   5.947   1.572   4.784
 8325TIP3    H124852   5.915   1.538   4.697
 8325TIP3    H224853   5.935   1.493   4.841
 8326TIP3   OH224854   5.487   2.789   4.165
 8326TIP3    H124855   5.414   2.816   4.222
 8326TIP3    H224856   5.459   2.827   4.079
 8327TIP3   OH224857   5.640   3.326   5.234
 8327TIP3    H124858   5.725   3.324   5.282
 8327TIP3    H224859   5.617   3.231   5.234
 8328TIP3   OH224860   6.126   3.296   5.275
 8328TIP3    H124861   6.218   3.270   5.287
 8328TIP3    H224862   6.098   3.234   5.204
 8329TIP3   OH224863   6.107   2.866   3.414
 8329TIP3    H124864   6.049   2.793   3.446
 8329TIP3    H224865   6.179   2.815   3.373
 8330TIP3   OH224866   6.767   3.193   5.008
 8330TIP3    H124867   6.754   3.126   5.079
 8330TIP3    H224868   6.840   3.246   5.044
 8331TIP3   OH224869   6.541   2.910   3.320
 8331TIP3    H124870   6.586   2.843   3.375
 8331TIP3    H224871   6.594   2.909   3.238
 8332TIP3   OH224872   5.772   2.732   5.435
 8332TIP3    H124873   5.788   2.635   5.440
 8332TIP3    H224874   5.684   2.735   5.392
 8333TIP3   OH224875   5.748   2.386   3.628
 8333TIP3    H124876   5.800   2.347   3.700
 8333TIP3    H224877   5.816   2.389   3.557
 8334TIP3   OH224878   6.382   2.818   5.208
 8334TIP3    H124879   6.336   2.832   5.123
 8334TIP3    H224880   6.410   2.724   5.202
 8335TIP3   OH224881   6.262   2.580   3.438
 8335TIP3    H124882   6.260   2.591   3.535
 8335TIP3    H224883   6.260   2.482   3.430
 8336TIP3   OH224884   6.873   2.822   4.816
 8336TIP3    H124885   6.945   2.872   4.772
 8336TIP3    H224886   6.798   2.883   4.805
 8337TIP3   OH224887   5.891   2.468   5.418
 8337TIP3    H124888   5.962   2.406   5.400
 8337TIP3    H224889   5.916   2.501   5.507
 8338TIP3   OH224890   5.961   2.288   3.855
 8338TIP3    H124891   5.930   2.242   3.934
 8338TIP3    H224892   5.995   2.214   3.801
 8339TIP3   OH224893   6.228   2.355   5.084
 8339TIP3    H124894   6.147   2.411   5.085
 8339TIP3    H224895   6.274   2.387   5.003
 8340TIP3   OH224896   6.056   2.083   3.695
 8340TIP3    H124897   6.030   2.075   3.601
 8340TIP3    H224898   6.154   2.085   3.686
 8341TIP3   OH224899   6.743   2.755   5.214
 8341TIP3    H124900   6.824   2.730   5.167
 8341TIP3    H224901   6.737   2.687   5.283
 8342TIP3   OH224902   6.881   2.413   3.354
 8342TIP3    H124903   6.860   2.364   3.272
 8342TIP3    H224904   6.848   2.502   3.328
 8343TIP3   OH224905   6.351   2.140   5.205
 8343TIP3    H124906   6.348   2.059   5.149
 8343TIP3    H224907   6.305   2.205   5.148
 8344TIP3   OH224908   6.352   1.926   5.012
 8344TIP3    H124909   6.378   1.966   4.927
 8344TIP3    H224910   6.258   1.903   4.995
 8345TIP3   OH224911   6.381   2.465   4.888
 8345TIP3    H124912   6.460   2.466   4.833
 8345TIP3    H224913   6.323   2.530   4.843
 8346TIP3   OH224914   6.963   2.429   5.270
 8346TIP3    H124915   7.010   2.344   5.272
 8346TIP3    H224916   7.030   2.488   5.234
 8347TIP3   OH224917   7.003   2.681   5.005
 8347TIP3    H124918   6.944   2.734   4.945
 8347TIP3    H224919   7.090   2.701   4.963
 8348TIP3   OH224920   6.229   2.251   5.436
 8348TIP3    H124921   6.159   2.185   5.450
 8348TIP3    H224922   6.261   2.228   5.347
 8349TIP3   OH224923   6.483   1.691   5.080
 8349TIP3    H124924   6.434   1.772   5.056
 8349TIP3    H224925   6.414   1.622   5.067
 8350TIP3   OH224926   6.609   2.195   5.296
 8350TIP3    H124927   6.594   2.183   5.391
 8350TIP3    H224928   6.520   2.170   5.263
 8351TIP3   OH224929   6.850   2.146   5.152
 8351TIP3    H124930   6.772   2.145   5.212
 8351TIP3    H224931   6.921   2.112   5.210
 8352TIP3   OH224932   7.082   2.085   5.304
 8352TIP3    H124933   7.092   1.989   5.321
 8352TIP3    H224934   7.076   2.123   5.394
 8353TIP3   OH224935   6.067   2.033   5.487
 8353TIP3    H124936   6.070   1.942   5.452
 8353TIP3    H224937   6.101   2.019   5.578
 8354TIP3   OH224938   6.580   1.700   5.336
 8354TIP3    H124939   6.645   1.628   5.329
 8354TIP3    H224940   6.538   1.695   5.248
 8355TIP3   OH224941   6.644   1.915   5.496
 8355TIP3    H124942   6.622   1.844   5.431
 8355TIP3    H224943   6.566   1.974   5.489
 8356TIP3   OH224944   5.864   3.144   3.597
 8356TIP3    H124945   5.960   3.141   3.576
 8356TIP3    H224946   5.832   3.191   3.518
 8357TIP3   OH224947   5.344   2.525   3.813
 8357TIP3    H124948   5.439   2.546   3.799
 8357TIP3    H224949   5.338   2.436   3.772
 8358TIP3   OH224950   5.259   3.138   4.225
 8358TIP3    H124951   5.191   3.076   4.190
 8358TIP3    H224952   5.303   3.080   4.292
 8359TIP3   OH224953   5.395   2.990   4.413
 8359TIP3    H124954   5.382   2.916   4.473
 8359TIP3    H224955   5.444   3.051   4.471
 8360TIP3   OH224956   7.119   3.388   4.214
 8360TIP3    H124957   7.148   3.424   4.300
 8360TIP3    H224958   7.178   3.434   4.152
 8361TIP3   OH224959   7.152   3.410   4.495
 8361TIP3    H124960   7.110   3.322   4.491
 8361TIP3    H224961   7.227   3.390   4.553
 8362TIP3   OH224962   7.197   3.086   5.067
 8362TIP3    H124963   7.124   3.094   5.131
 8362TIP3    H224964   7.238   3.175   5.072
 8363TIP3   OH224965   7.012   2.603   3.690
 8363TIP3    H124966   7.083   2.662   3.658
 8363TIP3    H224967   7.057   2.560   3.767
 8364TIP3   OH224968   7.140   2.470   3.893
 8364TIP3    H124969   7.076   2.422   3.950
 8364TIP3    H224970   7.206   2.503   3.957
 8365TIP3   OH224971   7.191   2.857   4.319
 8365TIP3    H124972   7.248   2.792   4.273
 8365TIP3    H224973   7.193   2.933   4.257
 8366TIP3   OH224974   7.027   3.158   4.518
 8366TIP3    H124975   6.958   3.202   4.572
 8366TIP3    H224976   6.976   3.113   4.449
 8367TIP3   OH224977   7.080   2.377   3.539
 8367TIP3    H124978   7.010   2.375   3.471
 8367TIP3    H224979   7.049   2.452   3.593
 8368TIP3   OH224980   6.955   2.048   3.491
 8368TIP3    H124981   6.903   2.084   3.418
 8368TIP3    H224982   6.930   1.953   3.485
 8369TIP3   OH224983   6.957   2.321   4.037
 8369TIP3    H124984   6.961   2.224   4.026
 8369TIP3    H224985   6.943   2.330   4.134
 8370TIP3   OH224986   5.582   2.397   4.784
 8370TIP3    H124987   5.580   2.365   4.691
 8370TIP3    H224988   5.679   2.398   4.801
 8371TIP3   OH224989   7.245   2.748   4.894
 8371TIP3    H124990   7.317   2.681   4.886
 8371TIP3    H224991   7.273   2.817   4.833
 8372TIP3   OH224992   7.431   2.554   4.913
 8372TIP3    H124993   7.356   2.504   4.951
 8372TIP3    H224994   7.503   2.489   4.927
 8373TIP3   OH224995   6.907   1.782   3.473
 8373TIP3    H124996   6.971   1.749   3.539
 8373TIP3    H224997   6.826   1.732   3.495
 8374TIP3   OH224998   6.959   2.041   3.935
 8374TIP3    H124999   6.996   1.951   3.952
 8374TIP3    H225000   7.014   2.068   3.860
 8375TIP3   OH225001   7.114   2.215   4.428
 8375TIP3    H125002   7.200   2.241   4.388
 8375TIP3    H225003   7.127   2.250   4.518
 8376TIP3   OH225004   7.183   2.357   4.662
 8376TIP3    H125005   7.104   2.390   4.709
 8376TIP3    H225006   7.214   2.438   4.616
 8377TIP3   OH225007   5.800   2.086   5.465
 8377TIP3    H125008   5.898   2.077   5.462
 8377TIP3    H225009   5.775   1.999   5.502
 8378TIP3   OH225010   7.634   1.948   5.217
 8378TIP3    H125011   7.692   1.882   5.174
 8378TIP3    H225012   7.606   2.003   5.140
 8379TIP3   OH225013   7.061   1.788   3.971
 8379TIP3    H125014   7.107   1.771   4.056
 8379TIP3    H225015   6.999   1.713   3.968
 8380TIP3   OH225016   5.757   1.778   4.812
 8380TIP3    H125017   5.814   1.699   4.807
 8380TIP3    H225018   5.821   1.848   4.790
 8381TIP3   OH225019   5.565   2.052   4.864
 8381TIP3    H125020   5.612   2.035   4.780
 8381TIP3    H225021   5.600   2.138   4.888
 8382TIP3   OH225022   7.506   2.088   5.022
 8382TIP3    H125023   7.418   2.128   5.041
 8382TIP3    H225024   7.478   2.016   4.963
 8383TIP3   OH225025   7.149   1.722   3.610
 8383TIP3    H125026   7.182   1.651   3.550
 8383TIP3    H225027   7.212   1.794   3.593
 8384TIP3   OH225028   5.551   1.526   4.344
 8384TIP3    H125029   5.474   1.539   4.401
 8384TIP3    H225030   5.548   1.603   4.285
 8385TIP3   OH225031   6.701   3.237   3.880
 8385TIP3    H125032   6.749   3.227   3.795
 8385TIP3    H225033   6.750   3.310   3.921
 8386TIP3   OH225034   5.768   1.633   5.181
 8386TIP3    H125035   5.714   1.629   5.262
 8386TIP3    H225036   5.703   1.671   5.118
 8387TIP3   OH225037   5.808   3.059   5.258
 8387TIP3    H125038   5.716   3.032   5.239
 8387TIP3    H225039   5.815   3.040   5.352
 8388TIP3   OH225040   5.984   3.090   4.804
 8388TIP3    H125041   5.934   3.164   4.765
 8388TIP3    H225042   6.070   3.105   4.759
 8389TIP3   OH225043   6.431   3.337   4.940
 8389TIP3    H125044   6.471   3.336   5.030
 8389TIP3    H225045   6.499   3.388   4.890
 8390TIP3   OH225046   6.613   3.486   4.797
 8390TIP3    H125047   6.687   3.435   4.763
 8390TIP3    H225048   6.659   3.546   4.860
 8391TIP3   OH225049   7.403   1.850   4.900
 8391TIP3    H125050   7.312   1.845   4.866
 8391TIP3    H225051   7.434   1.758   4.888
 8392TIP3   OH225052   5.663   3.352   4.825
 8392TIP3    H125053   5.574   3.385   4.801
 8392TIP3    H225054   5.668   3.379   4.917
 8393TIP3   OH225055   5.899   3.329   4.684
 8393TIP3    H125056   5.813   3.341   4.730
 8393TIP3    H225057   5.877   3.361   4.594
 8394TIP3   OH225058   6.328   3.361   4.473
 8394TIP3    H125059   6.249   3.379   4.418
 8394TIP3    H225060   6.338   3.446   4.520
 8395TIP3   OH225061   6.593   3.289   4.516
 8395TIP3    H125062   6.499   3.312   4.507
 8395TIP3    H225063   6.636   3.373   4.492
 8396TIP3   OH225064   6.798   3.488   4.448
 8396TIP3    H125065   6.785   3.574   4.403
 8396TIP3    H225066   6.825   3.431   4.374
 8397TIP3   OH225067   5.574   3.144   4.572
 8397TIP3    H125068   5.600   3.117   4.663
 8397TIP3    H225069   5.644   3.099   4.521
 8398TIP3   OH225070   5.766   3.014   4.428
 8398TIP3    H125071   5.781   2.930   4.477
 8398TIP3    H225072   5.857   3.050   4.423
 8399TIP3   OH225073   6.035   3.109   4.428
 8399TIP3    H125074   6.063   3.016   4.420
 8399TIP3    H225075   6.075   3.129   4.515
 8400TIP3   OH225076   6.612   1.768   4.526
 8400TIP3    H125077   6.565   1.698   4.575
 8400TIP3    H225078   6.675   1.717   4.472
 8401TIP3   OH225079   7.134   1.650   4.428
 8401TIP3    H125080   7.169   1.699   4.351
 8401TIP3    H225081   7.038   1.661   4.417
 8402TIP3   OH225082   7.228   1.746   4.190
 8402TIP3    H125083   7.300   1.696   4.147
 8402TIP3    H225084   7.259   1.838   4.173
 8403TIP3   OH225085   5.863   1.478   4.537
 8403TIP3    H125086   5.768   1.461   4.536
 8403TIP3    H225087   5.902   1.388   4.531
 8404TIP3   OH225088   5.641   1.338   4.174
 8404TIP3    H125089   5.672   1.401   4.107
 8404TIP3    H225090   5.610   1.401   4.244
 8405TIP3   OH225091   6.304   1.502   4.414
 8405TIP3    H125092   6.361   1.556   4.356
 8405TIP3    H225093   6.315   1.547   4.499
 8406TIP3   OH225094   6.855   1.653   4.398
 8406TIP3    H125095   6.841   1.619   4.308
 8406TIP3    H225096   6.837   1.573   4.452
 8407TIP3   OH225097   6.879   1.576   3.963
 8407TIP3    H125098   6.791   1.617   3.964
 8407TIP3    H225099   6.861   1.491   4.009
 8408TIP3   OH225100   5.362   2.914   3.963
 8408TIP3    H125101   5.277   2.880   3.929
 8408TIP3    H225102   5.349   3.008   3.945
 8409TIP3   OH225103   5.760   1.504   3.945
 8409TIP3    H125104   5.810   1.443   3.888
 8409TIP3    H225105   5.831   1.558   3.984
 8410TIP3   OH225106   6.268   1.677   4.052
 8410TIP3    H125107   6.331   1.629   4.108
 8410TIP3    H225108   6.294   1.769   4.072
 8411TIP3   OH225109   6.133   3.106   3.544
 8411TIP3    H125110   6.221   3.128   3.507
 8411TIP3    H225111   6.110   3.030   3.486
 8412TIP3   OH225112   6.847   3.218   3.642
 8412TIP3    H125113   6.840   3.121   3.625
 8412TIP3    H225114   6.805   3.254   3.561
 8413TIP3   OH225115   6.065   1.758   5.429
 8413TIP3    H125116   6.031   1.686   5.484
 8413TIP3    H225117   6.159   1.757   5.455
 8414TIP3   OH225118   6.315   1.754   5.547
 8414TIP3    H125119   6.398   1.724   5.505
 8414TIP3    H225120   6.301   1.682   5.613
 8415TIP3   OH225121   5.437   2.942   3.602
 8415TIP3    H125122   5.435   2.967   3.695
 8415TIP3    H225123   5.526   2.900   3.592
 8416TIP3   OH225124   7.139   1.814   5.334
 8416TIP3    H125125   7.159   1.782   5.424
 8416TIP3    H225126   7.227   1.808   5.291
 8417TIP3   OH225127   7.080   3.367   4.824
 8417TIP3    H125128   7.000   3.334   4.778
 8417TIP3    H225129   7.060   3.462   4.829
 8418TIP3   OH225130   8.344   2.737   3.595
 8418TIP3    H125131   8.315   2.828   3.572
 8418TIP3    H225132   8.270   2.687   3.557
 8419TIP3   OH225133   8.352   2.735   3.965
 8419TIP3    H125134   8.364   2.711   4.058
 8419TIP3    H225135   8.303   2.659   3.931
 8420TIP3   OH225136   7.642   2.634   4.337
 8420TIP3    H125137   7.673   2.566   4.400
 8420TIP3    H225138   7.720   2.690   4.331
 8421TIP3   OH225139   8.590   3.039   3.653
 8421TIP3    H125140   8.565   2.974   3.719
 8421TIP3    H225141   8.615   3.116   3.707
 8422TIP3   OH225142   7.613   3.043   4.064
 8422TIP3    H125143   7.605   2.946   4.066
 8422TIP3    H225144   7.710   3.052   4.058
 8423TIP3   OH225145   7.320   2.250   3.850
 8423TIP3    H125146   7.267   2.331   3.859
 8423TIP3    H225147   7.254   2.190   3.813
 8424TIP3   OH225148   7.381   2.535   4.020
 8424TIP3    H125149   7.428   2.457   4.056
 8424TIP3    H225150   7.435   2.556   3.943
 8425TIP3   OH225151   8.239   3.508   3.671
 8425TIP3    H125152   8.283   3.435   3.622
 8425TIP3    H225153   8.226   3.467   3.758
 8426TIP3   OH225154   8.141   2.965   4.021
 8426TIP3    H125155   8.175   2.893   3.965
 8426TIP3    H225156   8.226   3.006   4.046
 8427TIP3   OH225157   9.060   2.326   4.010
 8427TIP3    H125158   9.121   2.372   4.072
 8427TIP3    H225159   9.121   2.314   3.935
 8428TIP3   OH225160   7.892   2.125   4.019
 8428TIP3    H125161   7.870   2.196   3.955
 8428TIP3    H225162   7.845   2.050   3.975
 8429TIP3   OH225163   8.653   2.211   3.684
 8429TIP3    H125164   8.655   2.120   3.650
 8429TIP3    H225165   8.648   2.259   3.598
 8430TIP3   OH225166   7.526   2.327   4.125
 8430TIP3    H125167   7.608   2.305   4.172
 8430TIP3    H225168   7.536   2.270   4.046
 8431TIP3   OH225169   7.967   2.524   3.918
 8431TIP3    H125170   8.059   2.497   3.931
 8431TIP3    H225171   7.925   2.441   3.886
 8432TIP3   OH225172   9.211   2.480   4.193
 8432TIP3    H125173   9.136   2.542   4.184
 8432TIP3    H225174   9.266   2.522   4.263
 8433TIP3   OH225175   7.889   2.109   4.453
 8433TIP3    H125176   7.828   2.144   4.386
 8433TIP3    H225177   7.837   2.126   4.534
 8434TIP3   OH225178   8.236   2.958   3.464
 8434TIP3    H125179   8.195   2.936   3.379
 8434TIP3    H225180   8.192   3.042   3.485
 8435TIP3   OH225181   7.996   2.884   4.250
 8435TIP3    H125182   7.932   2.948   4.288
 8435TIP3    H225183   8.036   2.935   4.177
 8436TIP3   OH225184   7.759   2.223   4.237
 8436TIP3    H125185   7.823   2.295   4.260
 8436TIP3    H225186   7.807   2.181   4.162
 8437TIP3   OH225187   7.822   3.076   4.346
 8437TIP3    H125188   7.796   3.162   4.307
 8437TIP3    H225189   7.744   3.060   4.403
 8438TIP3   OH225190   7.217   2.766   3.582
 8438TIP3    H125191   7.177   2.790   3.496
 8438TIP3    H225192   7.247   2.853   3.615
 8439TIP3   OH225193   8.659   3.282   3.822
 8439TIP3    H125194   8.569   3.273   3.862
 8439TIP3    H225195   8.650   3.368   3.776
 8440TIP3   OH225196   8.914   2.176   4.182
 8440TIP3    H125197   8.877   2.256   4.221
 8440TIP3    H225198   8.981   2.213   4.120
 8441TIP3   OH225199   8.246   1.828   4.167
 8441TIP3    H125200   8.234   1.733   4.183
 8441TIP3    H225201   8.167   1.864   4.213
 8442TIP3   OH225202   8.361   3.331   3.499
 8442TIP3    H125203   8.408   3.248   3.477
 8442TIP3    H225204   8.421   3.395   3.455
 8443TIP3   OH225205   8.500   3.116   3.402
 8443TIP3    H125206   8.469   3.037   3.356
 8443TIP3    H225207   8.537   3.078   3.485
 8444TIP3   OH225208   8.881   3.197   4.165
 8444TIP3    H125209   8.869   3.119   4.105
 8444TIP3    H225210   8.863   3.272   4.104
 8445TIP3   OH225211   8.178   2.590   3.425
 8445TIP3    H125212   8.096   2.639   3.403
 8445TIP3    H225213   8.221   2.584   3.338
 8446TIP3   OH225214   8.134   2.372   3.142
 8446TIP3    H125215   8.204   2.425   3.184
 8446TIP3    H225216   8.189   2.308   3.093
 8447TIP3   OH225217   9.076   2.829   4.011
 8447TIP3    H125218   8.995   2.883   4.016
 8447TIP3    H225219   9.106   2.848   3.919
 8448TIP3   OH225220   8.519   2.674   3.393
 8448TIP3    H125221   8.466   2.698   3.472
 8448TIP3    H225222   8.604   2.647   3.435
 8449TIP3   OH225223   8.754   2.715   4.307
 8449TIP3    H125224   8.757   2.797   4.360
 8449TIP3    H225225   8.666   2.724   4.265
 8450TIP3   OH225226   7.754   2.671   3.811
 8450TIP3    H125227   7.710   2.614   3.744
 8450TIP3    H225228   7.830   2.616   3.838
 8451TIP3   OH225229   7.883   3.082   3.959
 8451TIP3    H125230   7.861   3.040   3.875
 8451TIP3    H225231   7.973   3.048   3.977
 8452TIP3   OH225232   7.894   2.640   4.167
 8452TIP3    H125233   7.922   2.620   4.075
 8452TIP3    H225234   7.934   2.727   4.185
 8453TIP3   OH225235   8.418   3.278   3.943
 8453TIP3    H125236   8.402   3.359   3.995
 8453TIP3    H225237   8.401   3.206   4.006
 8454TIP3   OH225238   8.028   3.198   4.489
 8454TIP3    H125239   7.969   3.260   4.536
 8454TIP3    H225240   7.962   3.145   4.440
 8455TIP3   OH225241   8.363   2.527   3.220
 8455TIP3    H125242   8.421   2.588   3.271
 8455TIP3    H225243   8.388   2.551   3.127
 8456TIP3   OH225244   7.783   2.755   4.589
 8456TIP3    H125245   7.787   2.841   4.635
 8456TIP3    H225246   7.688   2.735   4.599
 8457TIP3   OH225247   8.106   3.210   3.499
 8457TIP3    H125248   8.184   3.266   3.514
 8457TIP3    H225249   8.044   3.269   3.454
 8458TIP3   OH225250   7.823   3.367   4.576
 8458TIP3    H125251   7.787   3.365   4.485
 8458TIP3    H225252   7.744   3.345   4.630
 8459TIP3   OH225253   8.892   1.793   3.299
 8459TIP3    H125254   8.801   1.793   3.334
 8459TIP3    H225255   8.885   1.853   3.224
 8460TIP3   OH225256   7.618   2.514   3.620
 8460TIP3    H125257   7.554   2.558   3.560
 8460TIP3    H225258   7.581   2.425   3.627
 8461TIP3   OH225259   8.676   3.140   2.817
 8461TIP3    H125260   8.684   3.237   2.801
 8461TIP3    H225261   8.769   3.112   2.803
 8462TIP3   OH225262   7.402   2.896   4.523
 8462TIP3    H125263   7.339   2.871   4.453
 8462TIP3    H225264   7.440   2.809   4.550
 8463TIP3   OH225265   7.256   3.087   4.160
 8463TIP3    H125266   7.351   3.082   4.146
 8463TIP3    H225267   7.248   3.170   4.211
 8464TIP3   OH225268   9.114   3.545   4.205
 8464TIP3    H125269   9.119   3.449   4.220
 8464TIP3    H225270   9.033   3.567   4.256
 8465TIP3   OH225271   8.227   3.327   4.346
 8465TIP3    H125272   8.226   3.419   4.378
 8465TIP3    H225273   8.155   3.287   4.400
 8466TIP3   OH225274   7.988   3.457   3.296
 8466TIP3    H125275   7.941   3.433   3.215
 8466TIP3    H225276   7.950   3.542   3.320
 8467TIP3   OH225277   7.425   3.306   3.681
 8467TIP3    H125278   7.472   3.295   3.766
 8467TIP3    H225279   7.366   3.228   3.682
 8468TIP3   OH225280   8.190   3.359   2.938
 8468TIP3    H125281   8.248   3.289   2.901
 8468TIP3    H225282   8.224   3.366   3.029
 8469TIP3   OH225283   8.241   3.407   3.209
 8469TIP3    H125284   8.151   3.415   3.249
 8469TIP3    H225285   8.287   3.358   3.279
 8470TIP3   OH225286   9.019   2.677   4.481
 8470TIP3    H125287   8.939   2.687   4.428
 8470TIP3    H225288   9.035   2.580   4.474
 8471TIP3   OH225289   7.607   3.079   4.512
 8471TIP3    H125290   7.657   3.063   4.595
 8471TIP3    H225291   7.533   3.016   4.520
 8472TIP3   OH225292   8.006   1.904   4.295
 8472TIP3    H125293   7.918   1.871   4.267
 8472TIP3    H225294   7.979   1.985   4.341
 8473TIP3   OH225295   8.539   2.024   4.486
 8473TIP3    H125296   8.607   1.992   4.549
 8473TIP3    H225297   8.455   2.002   4.532
 8474TIP3   OH225298   8.779   2.448   4.402
 8474TIP3    H125299   8.731   2.442   4.487
 8474TIP3    H225300   8.757   2.539   4.372
 8475TIP3   OH225301   8.440   2.582   2.967
 8475TIP3    H125302   8.405   2.554   2.880
 8475TIP3    H225303   8.523   2.626   2.939
 8476TIP3   OH225304   8.153   1.952   3.267
 8476TIP3    H125305   8.117   1.948   3.358
 8476TIP3    H225306   8.113   1.870   3.231
 8477TIP3   OH225307   7.940   2.418   4.316
 8477TIP3    H125308   7.887   2.437   4.396
 8477TIP3    H225309   7.924   2.498   4.262
 8478TIP3   OH225310   7.821   2.306   3.828
 8478TIP3    H125311   7.728   2.279   3.845
 8478TIP3    H225312   7.835   2.266   3.739
 8479TIP3   OH225313   8.319   2.390   3.558
 8479TIP3    H125314   8.262   2.460   3.520
 8479TIP3    H225315   8.368   2.362   3.478
 8480TIP3   OH225316   8.485   2.668   4.642
 8480TIP3    H125317   8.462   2.597   4.705
 8480TIP3    H225318   8.578   2.684   4.665
 8481TIP3   OH225319   8.491   2.426   3.797
 8481TIP3    H125320   8.422   2.469   3.742
 8481TIP3    H225321   8.504   2.345   3.746
 8482TIP3   OH225322   7.758   2.448   4.522
 8482TIP3    H125323   7.780   2.511   4.592
 8482TIP3    H225324   7.745   2.365   4.573
 8483TIP3   OH225325   7.809   1.927   3.232
 8483TIP3    H125326   7.798   1.922   3.329
 8483TIP3    H225327   7.728   1.975   3.207
 8484TIP3   OH225328   7.349   1.973   4.104
 8484TIP3    H125329   7.428   2.000   4.154
 8484TIP3    H225330   7.383   1.936   4.021
 8485TIP3   OH225331   7.328   1.953   3.625
 8485TIP3    H125332   7.370   1.991   3.545
 8485TIP3    H225333   7.264   2.024   3.644
 8486TIP3   OH225334   8.483   2.661   4.218
 8486TIP3    H125335   8.501   2.579   4.171
 8486TIP3    H225336   8.451   2.625   4.303
 8487TIP3   OH225337   8.150   2.147   3.892
 8487TIP3    H125338   8.067   2.131   3.942
 8487TIP3    H225339   8.217   2.114   3.954
 8488TIP3   OH225340   7.583   2.182   3.898
 8488TIP3    H125341   7.489   2.189   3.871
 8488TIP3    H225342   7.606   2.090   3.874
 8489TIP3   OH225343   7.853   2.183   3.586
 8489TIP3    H125344   7.947   2.193   3.561
 8489TIP3    H225345   7.805   2.202   3.502
 8490TIP3   OH225346   7.693   2.214   3.366
 8490TIP3    H125347   7.621   2.168   3.320
 8490TIP3    H225348   7.744   2.248   3.290
 8491TIP3   OH225349   8.810   3.892   4.309
 8491TIP3    H125350   8.809   3.915   4.215
 8491TIP3    H225351   8.888   3.941   4.341
 8492TIP3   OH225352   7.769   3.002   4.732
 8492TIP3    H125353   7.848   3.033   4.780
 8492TIP3    H225354   7.703   3.000   4.805
 8493TIP3   OH225355   8.242   2.460   3.998
 8493TIP3    H125356   8.295   2.398   3.946
 8493TIP3    H225357   8.233   2.412   4.083
 8494TIP3   OH225358   7.759   1.943   3.865
 8494TIP3    H125359   7.723   1.864   3.910
 8494TIP3    H225360   7.807   1.903   3.791
 8495TIP3   OH225361   8.209   2.357   4.268
 8495TIP3    H125362   8.118   2.386   4.288
 8495TIP3    H225363   8.263   2.413   4.327
 8496TIP3   OH225364   7.946   2.743   3.373
 8496TIP3    H125365   7.875   2.677   3.361
 8496TIP3    H225366   7.927   2.776   3.464
 8497TIP3   OH225367   8.846   2.978   4.001
 8497TIP3    H125368   8.868   3.026   3.918
 8497TIP3    H225369   8.759   2.938   3.979
 8498TIP3   OH225370   8.403   2.054   3.239
 8498TIP3    H125371   8.306   2.036   3.240
 8498TIP3    H225372   8.409   2.150   3.254
 8499TIP3   OH225373   8.348   3.062   4.368
 8499TIP3    H125374   8.365   3.038   4.460
 8499TIP3    H225375   8.306   3.149   4.376
 8500TIP3   OH225376   8.478   2.306   3.345
 8500TIP3    H125377   8.576   2.309   3.342
 8500TIP3    H225378   8.453   2.378   3.285
 8501TIP3   OH225379   7.640   2.767   4.049
 8501TIP3    H125380   7.675   2.737   3.962
 8501TIP3    H225381   7.673   2.699   4.109
 8502TIP3   OH225382   8.092   2.893   3.195
 8502TIP3    H125383   8.044   2.979   3.201
 8502TIP3    H225384   8.037   2.837   3.254
 8503TIP3   OH225385   7.518   2.685   4.660
 8503TIP3    H125386   7.538   2.671   4.755
 8503TIP3    H225387   7.449   2.619   4.645
 8504TIP3   OH225388   8.242   2.799   4.681
 8504TIP3    H125389   8.181   2.739   4.633
 8504TIP3    H225390   8.329   2.765   4.651
 8505TIP3   OH225391   8.506   3.319   4.264
 8505TIP3    H125392   8.410   3.318   4.277
 8505TIP3    H225393   8.534   3.371   4.342
 8506TIP3   OH225394   8.907   2.385   3.186
 8506TIP3    H125395   8.850   2.339   3.121
 8506TIP3    H225396   8.932   2.460   3.129
 8507TIP3   OH225397   9.133   3.240   4.246
 8507TIP3    H125398   9.035   3.241   4.242
 8507TIP3    H225399   9.154   3.207   4.156
 8508TIP3   OH225400   8.616   3.210   3.082
 8508TIP3    H125401   8.591   3.137   3.140
 8508TIP3    H225402   8.629   3.166   2.996
 8509TIP3   OH225403   8.610   2.841   3.924
 8509TIP3    H125404   8.517   2.816   3.937
 8509TIP3    H225405   8.639   2.772   3.863
 8510TIP3   OH225406   7.738   3.068   3.674
 8510TIP3    H125407   7.738   3.149   3.619
 8510TIP3    H225408   7.644   3.050   3.679
 8511TIP3   OH225409   7.303   2.372   3.376
 8511TIP3    H125410   7.348   2.457   3.396
 8511TIP3    H225411   7.225   2.378   3.436
 8512TIP3   OH225412   7.881   2.835   3.620
 8512TIP3    H125413   7.844   2.924   3.637
 8512TIP3    H225414   7.840   2.784   3.692
 8513TIP3   OH225415   8.007   3.412   4.142
 8513TIP3    H125416   8.048   3.485   4.091
 8513TIP3    H225417   8.084   3.378   4.191
 8514TIP3   OH225418   7.659   3.306   3.526
 8514TIP3    H125419   7.572   3.315   3.570
 8514TIP3    H225420   7.690   3.400   3.527
 8515TIP3   OH225421   8.397   3.044   4.100
 8515TIP3    H125422   8.387   3.045   4.198
 8515TIP3    H225423   8.480   2.995   4.090
 8516TIP3   OH225424   8.370   2.940   2.982
 8516TIP3    H125425   8.421   2.916   3.062
 8516TIP3    H225426   8.282   2.910   3.008
 8517TIP3   OH225427   8.645   3.580   4.150
 8517TIP3    H125428   8.566   3.523   4.143
 8517TIP3    H225429   8.629   3.645   4.078
 8518TIP3   OH225430   8.709   3.416   2.804
 8518TIP3    H125431   8.742   3.486   2.745
 8518TIP3    H225432   8.630   3.460   2.839
 8519TIP3   OH225433   7.730   2.192   4.669
 8519TIP3    H125434   7.633   2.195   4.681
 8519TIP3    H225435   7.756   2.129   4.739
 8520TIP3   OH225436   8.528   2.879   3.203
 8520TIP3    H125437   8.518   2.808   3.270
 8520TIP3    H225438   8.625   2.874   3.186
 8521TIP3   OH225439   7.446   3.275   4.301
 8521TIP3    H125440   7.498   3.199   4.331
 8521TIP3    H225441   7.475   3.343   4.364
 8522TIP3   OH225442   7.738   2.920   2.982
 8522TIP3    H125443   7.750   2.829   2.951
 8522TIP3    H225444   7.717   2.906   3.077
 8523TIP3   OH225445   7.683   2.925   3.255
 8523TIP3    H125446   7.754   2.897   3.314
 8523TIP3    H225447   7.688   3.023   3.261
 8524TIP3   OH225448   7.420   2.620   3.458
 8524TIP3    H125449   7.352   2.663   3.514
 8524TIP3    H225450   7.432   2.688   3.390
 8525TIP3   OH225451   8.559   2.269   4.353
 8525TIP3    H125452   8.648   2.290   4.386
 8525TIP3    H225453   8.546   2.179   4.389
 8526TIP3   OH225454   8.435   2.021   3.514
 8526TIP3    H125455   8.420   2.013   3.417
 8526TIP3    H225456   8.469   2.111   3.518
 8527TIP3   OH225457   7.950   3.124   3.207
 8527TIP3    H125458   7.862   3.151   3.240
 8527TIP3    H225459   7.961   3.187   3.134
 8528TIP3   OH225460   8.138   2.185   3.617
 8528TIP3    H125461   8.202   2.258   3.600
 8528TIP3    H225462   8.140   2.180   3.715
 8529TIP3   OH225463   8.406   2.507   4.425
 8529TIP3    H125464   8.426   2.555   4.507
 8529TIP3    H225465   8.459   2.425   4.434
 8530TIP3   OH225466   8.279   1.916   3.719
 8530TIP3    H125467   8.284   1.986   3.786
 8530TIP3    H225468   8.336   1.953   3.648
 8531TIP3   OH225469   7.693   3.198   3.270
 8531TIP3    H125470   7.661   3.266   3.207
 8531TIP3    H225471   7.674   3.241   3.356
 8532TIP3   OH225472   7.791   1.910   3.509
 8532TIP3    H125473   7.789   2.000   3.546
 8532TIP3    H225474   7.887   1.891   3.517
 8533TIP3   OH225475   9.045   2.407   4.416
 8533TIP3    H125476   8.947   2.405   4.406
 8533TIP3    H225477   9.076   2.397   4.325
 8534TIP3   OH225478   8.703   2.604   3.792
 8534TIP3    H125479   8.624   2.548   3.808
 8534TIP3    H225480   8.761   2.585   3.866
 8535TIP3   OH225481   7.409   2.828   3.264
 8535TIP3    H125482   7.474   2.900   3.270
 8535TIP3    H225483   7.454   2.773   3.197
 8536TIP3   OH225484   7.354   2.103   3.397
 8536TIP3    H125485   7.350   2.200   3.392
 8536TIP3    H225486   7.273   2.077   3.353
 8537TIP3   OH225487   8.666   3.553   3.744
 8537TIP3    H125488   8.622   3.600   3.670
 8537TIP3    H225489   8.760   3.573   3.723
 8538TIP3   OH225490   7.742   1.824   4.271
 8538TIP3    H125491   7.710   1.791   4.184
 8538TIP3    H225492   7.731   1.745   4.328
 8539TIP3   OH225493   7.282   3.044   3.653
 8539TIP3    H125494   7.206   3.076   3.703
 8539TIP3    H225495   7.261   3.081   3.565
 8540TIP3   OH225496   7.436   3.582   4.722
 8540TIP3    H125497   7.522   3.581   4.769
 8540TIP3    H225498   7.415   3.487   4.721
 8541TIP3   OH225499   7.920   3.550   4.766
 8541TIP3    H125500   8.014   3.528   4.774
 8541TIP3    H225501   7.894   3.491   4.693
 8542TIP3   OH225502   7.903   3.124   2.899
 8542TIP3    H125503   7.845   3.052   2.934
 8542TIP3    H225504   7.975   3.071   2.861
 8543TIP3   OH225505   8.560   3.453   4.499
 8543TIP3    H125506   8.549   3.384   4.568
 8543TIP3    H225507   8.636   3.504   4.531
 8544TIP3   OH225508   8.337   3.167   2.808
 8544TIP3    H125509   8.381   3.100   2.864
 8544TIP3    H225510   8.391   3.164   2.726
 8545TIP3   OH225511   7.568   2.989   4.923
 8545TIP3    H125512   7.584   2.893   4.928
 8545TIP3    H225513   7.480   2.992   4.880
 8546TIP3   OH225514   7.544   2.643   3.115
 8546TIP3    H125515   7.598   2.605   3.186
 8546TIP3    H225516   7.611   2.646   3.043
 8547TIP3   OH225517   8.176   3.074   4.695
 8547TIP3    H125518   8.133   3.090   4.610
 8547TIP3    H225519   8.206   2.981   4.689
 8548TIP3   OH225520   8.055   2.840   2.924
 8548TIP3    H125521   8.056   2.851   3.021
 8548TIP3    H225522   8.055   2.742   2.917
 8549TIP3   OH225523   8.668   3.080   4.301
 8549TIP3    H125524   8.741   3.128   4.258
 8549TIP3    H225525   8.596   3.145   4.291
 8550TIP3   OH225526   7.687   2.724   4.904
 8550TIP3    H125527   7.759   2.663   4.886
 8550TIP3    H225528   7.711   2.757   4.993
 8551TIP3   OH225529   7.757   2.543   3.341
 8551TIP3    H125530   7.726   2.497   3.421
 8551TIP3    H225531   7.791   2.468   3.287
 8552TIP3   OH225532   8.023   2.610   4.569
 8552TIP3    H125533   7.943   2.668   4.571
 8552TIP3    H225534   8.070   2.643   4.489
 8553TIP3   OH225535   7.852   2.338   3.179
 8553TIP3    H125536   7.826   2.338   3.085
 8553TIP3    H225537   7.950   2.342   3.170
 8554TIP3   OH225538   8.537   3.009   4.699
 8554TIP3    H125539   8.622   2.992   4.657
 8554TIP3    H225540   8.536   2.944   4.771
 8555TIP3   OH225541   8.676   2.670   2.840
 8555TIP3    H125542   8.653   2.621   2.758
 8555TIP3    H225543   8.642   2.759   2.815
 8556TIP3   OH225544   8.147   2.396   4.692
 8556TIP3    H125545   8.144   2.316   4.636
 8556TIP3    H225546   8.101   2.462   4.635
 8557TIP3   OH225547   8.147   2.185   4.498
 8557TIP3    H125548   8.174   2.220   4.411
 8557TIP3    H225549   8.054   2.160   4.482
 8558TIP3   OH225550   8.176   2.720   4.373
 8558TIP3    H125551   8.255   2.729   4.319
 8558TIP3    H225552   8.116   2.787   4.332
 8559TIP3   OH225553   8.776   2.676   4.775
 8559TIP3    H125554   8.813   2.595   4.736
 8559TIP3    H225555   8.833   2.745   4.738
 8560TIP3   OH225556   8.798   2.935   4.488
 8560TIP3    H125557   8.741   2.990   4.430
 8560TIP3    H225558   8.886   2.956   4.449
 8561TIP3   OH225559   8.024   2.509   4.923
 8561TIP3    H125560   7.954   2.441   4.937
 8561TIP3    H225561   8.057   2.484   4.834
 8562TIP3   OH225562   8.280   1.948   4.566
 8562TIP3    H125563   8.230   2.029   4.544
 8562TIP3    H225564   8.212   1.879   4.554
 8563TIP3   OH225565   8.405   2.451   4.783
 8563TIP3    H125566   8.387   2.438   4.878
 8563TIP3    H225567   8.317   2.426   4.748
 8564TIP3   OH225568   8.652   2.408   4.640
 8564TIP3    H125569   8.571   2.403   4.694
 8564TIP3    H225570   8.719   2.370   4.701
 8565TIP3   OH225571   8.875   2.346   4.810
 8565TIP3    H125572   8.887   2.249   4.808
 8565TIP3    H225573   8.860   2.363   4.904
 8566TIP3   OH225574   7.863   2.290   4.974
 8566TIP3    H125575   7.867   2.198   4.940
 8566TIP3    H225576   7.898   2.276   5.065
 8567TIP3   OH225577   8.376   1.958   4.824
 8567TIP3    H125578   8.442   1.886   4.818
 8567TIP3    H225579   8.335   1.951   4.735
 8568TIP3   OH225580   8.444   2.175   4.979
 8568TIP3    H125581   8.421   2.102   4.918
 8568TIP3    H225582   8.364   2.232   4.975
 8569TIP3   OH225583   7.661   3.402   3.085
 8569TIP3    H125584   7.756   3.399   3.061
 8569TIP3    H225585   7.626   3.447   3.006
 8570TIP3   OH225586   7.141   2.780   3.303
 8570TIP3    H125587   7.235   2.802   3.286
 8570TIP3    H225588   7.133   2.692   3.260
 8571TIP3   OH225589   7.053   3.394   3.712
 8571TIP3    H125590   6.985   3.332   3.677
 8571TIP3    H225591   7.098   3.337   3.778
 8572TIP3   OH225592   7.190   3.248   3.900
 8572TIP3    H125593   7.182   3.172   3.960
 8572TIP3    H225594   7.241   3.309   3.955
 8573TIP3   OH225595   8.918   3.646   3.699
 8573TIP3    H125596   8.947   3.680   3.786
 8573TIP3    H225597   8.981   3.688   3.639
 8574TIP3   OH225598   8.947   3.667   3.983
 8574TIP3    H125599   8.905   3.579   3.977
 8574TIP3    H225600   9.023   3.644   4.039
 8575TIP3   OH225601   8.993   3.343   4.553
 8575TIP3    H125602   8.920   3.351   4.618
 8575TIP3    H225603   9.034   3.431   4.558
 8576TIP3   OH225604   8.803   2.860   3.173
 8576TIP3    H125605   8.872   2.925   3.148
 8576TIP3    H225606   8.846   2.817   3.250
 8577TIP3   OH225607   8.924   2.725   3.374
 8577TIP3    H125608   8.857   2.680   3.430
 8577TIP3    H225609   8.984   2.764   3.440
 8578TIP3   OH225610   8.988   3.108   3.806
 8578TIP3    H125611   9.036   3.055   3.740
 8578TIP3    H225612   8.977   3.192   3.757
 8579TIP3   OH225613   8.823   3.415   4.005
 8579TIP3    H125614   8.753   3.459   4.058
 8579TIP3    H225615   8.771   3.369   3.937
 8580TIP3   OH225616   8.881   2.640   3.019
 8580TIP3    H125617   8.805   2.634   2.957
 8580TIP3    H225618   8.849   2.711   3.077
 8581TIP3   OH225619   8.734   2.306   2.991
 8581TIP3    H125620   8.718   2.342   2.904
 8581TIP3    H225621   8.713   2.211   2.978
 8582TIP3   OH225622   8.747   2.578   3.519
 8582TIP3    H125623   8.759   2.482   3.507
 8582TIP3    H225624   8.741   2.588   3.617
 8583TIP3   OH225625   7.377   2.657   4.271
 8583TIP3    H125626   7.376   2.624   4.178
 8583TIP3    H225627   7.474   2.657   4.288
 8584TIP3   OH225628   9.041   3.002   4.380
 8584TIP3    H125629   9.116   2.940   4.372
 8584TIP3    H225630   9.068   3.075   4.322
 8585TIP3   OH225631   9.238   2.818   4.404
 8585TIP3    H125632   9.159   2.770   4.439
 8585TIP3    H225633   9.304   2.745   4.412
 8586TIP3   OH225634   8.685   2.040   2.971
 8586TIP3    H125635   8.762   2.004   3.020
 8586TIP3    H225636   8.613   1.978   2.991
 8587TIP3   OH225637   8.755   2.301   3.420
 8587TIP3    H125638   8.793   2.212   3.435
 8587TIP3    H225639   8.809   2.331   3.343
 8588TIP3   OH225640   8.979   2.620   4.163
 8588TIP3    H125641   8.897   2.657   4.200
 8588TIP3    H225642   9.008   2.689   4.101
 8589TIP3   OH225643   7.596   2.342   4.950
 8589TIP3    H125644   7.694   2.333   4.949
 8589TIP3    H225645   7.571   2.256   4.989
 8590TIP3   OH225646   8.843   2.049   3.477
 8590TIP3    H125647   8.891   2.010   3.553
 8590TIP3    H225648   8.790   1.971   3.447
 8591TIP3   OH225649   7.558   2.032   4.279
 8591TIP3    H125650   7.619   1.956   4.287
 8591TIP3    H225651   7.621   2.106   4.272
 8592TIP3   OH225652   7.361   2.307   4.351
 8592TIP3    H125653   7.408   2.296   4.266
 8592TIP3    H225654   7.394   2.392   4.380
 8593TIP3   OH225655   9.286   2.332   4.527
 8593TIP3    H125656   9.203   2.384   4.538
 8593TIP3    H225657   9.256   2.271   4.457
 8594TIP3   OH225658   8.937   1.969   3.079
 8594TIP3    H125659   8.980   1.882   3.063
 8594TIP3    H225660   8.991   2.025   3.019
 8595TIP3   OH225661   7.342   1.818   3.858
 8595TIP3    H125662   7.248   1.806   3.876
 8595TIP3    H225663   7.341   1.870   3.775
 8596TIP3   OH225664   8.502   3.515   3.357
 8596TIP3    H125665   8.550   3.495   3.274
 8596TIP3    H225666   8.561   3.578   3.400
 8597TIP3   OH225667   7.564   1.891   4.667
 8597TIP3    H125668   7.511   1.884   4.749
 8597TIP3    H225669   7.497   1.928   4.606
 8598TIP3   OH225670   7.603   3.316   4.743
 8598TIP3    H125671   7.512   3.288   4.725
 8598TIP3    H225672   7.612   3.297   4.838
 8599TIP3   OH225673   7.780   3.347   4.290
 8599TIP3    H125674   7.732   3.423   4.251
 8599TIP3    H225675   7.866   3.362   4.246
 8600TIP3   OH225676   8.227   3.593   4.427
 8600TIP3    H125677   8.268   3.594   4.516
 8600TIP3    H225678   8.293   3.644   4.376
 8601TIP3   OH225679   8.406   3.745   4.285
 8601TIP3    H125680   8.477   3.693   4.246
 8601TIP3    H225681   8.457   3.802   4.347
 8602TIP3   OH225682   9.192   2.104   4.393
 8602TIP3    H125683   9.105   2.091   4.352
 8602TIP3    H225684   9.237   2.022   4.365
 8603TIP3   OH225685   7.458   3.606   4.313
 8603TIP3    H125686   7.369   3.640   4.289
 8603TIP3    H225687   7.466   3.640   4.403
 8604TIP3   OH225688   7.695   3.585   4.171
 8604TIP3    H125689   7.608   3.597   4.216
 8604TIP3    H225690   7.674   3.617   4.081
 8605TIP3   OH225691   8.121   3.614   3.968
 8605TIP3    H125692   8.050   3.634   3.904
 8605TIP3    H225693   8.132   3.701   4.012
 8606TIP3   OH225694   8.389   3.552   4.020
 8606TIP3    H125695   8.294   3.569   4.000
 8606TIP3    H225696   8.431   3.629   3.979
 8607TIP3   OH225697   8.597   3.746   3.936
 8607TIP3    H125698   8.583   3.830   3.888
 8607TIP3    H225699   8.622   3.685   3.863
 8608TIP3   OH225700   7.368   3.399   4.059
 8608TIP3    H125701   7.395   3.374   4.150
 8608TIP3    H225702   7.440   3.356   4.008
 8609TIP3   OH225703   7.562   3.271   3.916
 8609TIP3    H125704   7.578   3.187   3.964
 8609TIP3    H225705   7.652   3.308   3.909
 8610TIP3   OH225706   7.829   3.367   3.916
 8610TIP3    H125707   7.859   3.276   3.903
 8610TIP3    H225708   7.872   3.386   4.002
 8611TIP3   OH225709   8.386   2.016   3.988
 8611TIP3    H125710   8.353   1.953   4.055
 8611TIP3    H225711   8.467   1.973   3.957
 8612TIP3   OH225712   8.918   1.930   3.937
 8612TIP3    H125713   8.961   1.943   3.850
 8612TIP3    H225714   8.831   1.897   3.909
 8613TIP3   OH225715   9.014   2.007   3.695
 8613TIP3    H125716   9.091   1.951   3.673
 8613TIP3    H225717   9.050   2.096   3.674
 8614TIP3   OH225718   7.653   1.732   4.024
 8614TIP3    H125719   7.561   1.700   4.023
 8614TIP3    H225720   7.702   1.647   4.019
 8615TIP3   OH225721   7.446   1.599   3.671
 8615TIP3    H125722   7.470   1.656   3.596
 8615TIP3    H225723   7.409   1.663   3.734
 8616TIP3   OH225724   8.091   1.768   3.903
 8616TIP3    H125725   8.156   1.804   3.840
 8616TIP3    H225726   8.123   1.801   3.988
 8617TIP3   OH225727   8.643   1.908   3.868
 8617TIP3    H125728   8.661   1.849   3.791
 8617TIP3    H225729   8.629   1.837   3.936
 8618TIP3   OH225730   8.652   1.853   3.416
 8618TIP3    H125731   8.561   1.864   3.448
 8618TIP3    H225732   8.688   1.795   3.489
 8619TIP3   OH225733   7.156   3.173   3.453
 8619TIP3    H125734   7.072   3.139   3.416
 8619TIP3    H225735   7.147   3.266   3.428
 8620TIP3   OH225736   7.556   1.759   3.433
 8620TIP3    H125737   7.604   1.697   3.376
 8620TIP3    H225738   7.629   1.813   3.470
 8621TIP3   OH225739   8.068   1.935   3.531
 8621TIP3    H125740   8.124   1.883   3.591
 8621TIP3    H225741   8.093   2.026   3.559
 8622TIP3   OH225742   7.930   3.363   3.030
 8622TIP3    H125743   8.018   3.382   2.994
 8622TIP3    H225744   7.906   3.287   2.972
 8623TIP3   OH225745   8.648   3.476   3.126
 8623TIP3    H125746   8.640   3.378   3.113
 8623TIP3    H225747   8.602   3.508   3.046
 8624TIP3   OH225748   7.861   2.014   4.915
 8624TIP3    H125749   7.827   1.942   4.970
 8624TIP3    H225750   7.956   2.013   4.941
 8625TIP3   OH225751   8.112   2.010   5.033
 8625TIP3    H125752   8.194   1.980   4.992
 8625TIP3    H225753   8.097   1.939   5.100
 8626TIP3   OH225754   7.234   3.197   3.088
 8626TIP3    H125755   7.233   3.228   3.180
 8626TIP3    H225756   7.322   3.156   3.079
 8627TIP3   OH225757   8.933   2.077   4.822
 8627TIP3    H125758   8.955   2.039   4.909
 8627TIP3    H225759   9.019   2.069   4.774
 8628TIP3   OH225760   8.872   3.623   4.314
 8628TIP3    H125761   8.794   3.591   4.265
 8628TIP3    H225762   8.853   3.719   4.317
 8629TIP3   OH225763   9.095   2.504   3.352
 8629TIP3    H125764   9.029   2.577   3.349
 8629TIP3    H225765   9.048   2.436   3.301
 8630TIP3   OH225766   9.154   2.794   3.510
 8630TIP3    H125767   9.183   2.709   3.544
 8630TIP3    H225768   9.190   2.791   3.419
 8631TIP3   OH225769   9.007   3.030   3.093
 8631TIP3    H125770   8.990   3.034   2.997
 8631TIP3    H225771   9.040   3.119   3.111
 8632TIP3   OH225772   9.193   3.139   3.999
 8632TIP3    H125773   9.124   3.108   3.937
 8632TIP3    H225774   9.229   3.054   4.034
 8633TIP3   OH225775   9.056   3.345   3.649
 8633TIP3    H125776   9.152   3.351   3.639
 8633TIP3    H225777   9.038   3.427   3.696
 8634TIP3   OH225778   9.189   3.567   3.188
 8634TIP3    H125779   9.245   3.561   3.268
 8634TIP3    H225780   9.145   3.480   3.188
 8635TIP3   OH225781   9.340   3.362   4.024
 8635TIP3    H125782   9.375   3.333   4.110
 8635TIP3    H225783   9.276   3.290   4.006
 8636TIP3   OH225784   9.105   2.250   3.621
 8636TIP3    H125785   9.182   2.290   3.664
 8636TIP3    H225786   9.119   2.273   3.528
 8637TIP3   OH225787   9.297   2.935   4.150
 8637TIP3    H125788   9.319   2.906   4.240
 8637TIP3    H225789   9.229   2.870   4.125
 8638TIP3   OH225790   9.078   2.700   2.838
 8638TIP3    H125791   9.150   2.694   2.904
 8638TIP3    H225792   9.001   2.677   2.894
 8639TIP3   OH225793   9.238   3.536   3.793
 8639TIP3    H125794   9.278   3.463   3.844
 8639TIP3    H225795   9.268   3.613   3.844
 8640TIP3   OH225796   9.075   3.300   3.142
 8640TIP3    H125797   8.994   3.324   3.189
 8640TIP3    H225798   9.057   3.340   3.054
 8641TIP3   OH225799   9.228   3.833   4.210
 8641TIP3    H125800   9.318   3.819   4.246
 8641TIP3    H225801   9.199   3.740   4.205
 8642TIP3   OH225802   9.362   3.273   4.396
 8642TIP3    H125803   9.391   3.189   4.436
 8642TIP3    H225804   9.277   3.249   4.352
 8643TIP3   OH225805   8.935   3.044   2.780
 8643TIP3    H125806   9.032   3.034   2.788
 8643TIP3    H225807   8.914   2.961   2.731
 8644TIP3   OH225808   8.843   3.654   3.202
 8644TIP3    H125809   8.781   3.587   3.165
 8644TIP3    H225810   8.893   3.598   3.265
 8645TIP3   OH225811   8.978   3.505   3.391
 8645TIP3    H125812   8.970   3.429   3.450
 8645TIP3    H225813   9.035   3.563   3.444
 8646TIP3   OH225814   9.199   2.908   3.758
 8646TIP3    H125815   9.174   2.871   3.671
 8646TIP3    H225816   9.283   2.951   3.737
 8647TIP3   OH225817   9.375   2.584   4.411
 8647TIP3    H125818   9.466   2.618   4.423
 8647TIP3    H225819   9.373   2.509   4.474
 8648TIP3   OH225820   9.150   2.589   3.791
 8648TIP3    H125821   9.192   2.507   3.817
 8648TIP3    H225822   9.187   2.653   3.853
 8649TIP3   OH225823   9.098   2.118   3.321
 8649TIP3    H125824   9.003   2.098   3.325
 8649TIP3    H225825   9.109   2.133   3.226
 8650TIP3   OH225826   9.394   3.584   4.252
 8650TIP3    H125827   9.315   3.545   4.210
 8650TIP3    H225828   9.398   3.538   4.337
 8651TIP3   OH225829   9.244   3.855   3.803
 8651TIP3    H125830   9.158   3.895   3.777
 8651TIP3    H225831   9.261   3.902   3.886
 8652TIP3   OH225832   9.495   3.843   3.670
 8652TIP3    H125833   9.403   3.847   3.702
 8652TIP3    H225834   9.486   3.874   3.578
 8653TIP3   OH225835   9.166   3.654   3.543
 8653TIP3    H125836   9.194   3.634   3.635
 8653TIP3    H225837   9.244   3.619   3.495
 8654TIP3   OH225838   9.372   3.542   3.392
 8654TIP3    H125839   9.397   3.449   3.392
 8654TIP3    H225840   9.460   3.585   3.399
 8655TIP3   OH225841   8.953   3.425   2.937
 8655TIP3    H125842   8.867   3.393   2.902
 8655TIP3    H225843   8.944   3.519   2.919
 8656TIP3   OH225844   9.057   3.472   2.588
 8656TIP3    H125845   9.019   3.491   2.675
 8656TIP3    H225846   9.107   3.391   2.605
 8657TIP3   OH225847   0.797   3.525   5.282
 8657TIP3    H125848   0.770   3.618   5.263
 8657TIP3    H225849   0.719   3.477   5.251
 8658TIP3   OH225850   0.794   3.526   5.662
 8658TIP3    H125851   0.826   3.498   5.749
 8658TIP3    H225852   0.753   3.444   5.629
 8659TIP3   OH225853   0.092   3.423   6.022
 8659TIP3    H125854   0.119   3.353   6.084
 8659TIP3    H225855   0.172   3.478   6.020
 8660TIP3   OH225856   1.037   3.829   5.344
 8660TIP3    H125857   1.026   3.758   5.409
 8660TIP3    H225858   1.069   3.903   5.399
 8661TIP3   OH225859   0.075   3.834   5.756
 8661TIP3    H125860   0.060   3.736   5.758
 8661TIP3    H225861   0.172   3.836   5.750
 8662TIP3   OH225862  -0.246   3.033   5.541
 8662TIP3    H125863  -0.273   3.124   5.554
 8662TIP3    H225864  -0.285   2.989   5.618
 8663TIP3   OH225865  -0.154   3.328   5.715
 8663TIP3    H125866  -0.108   3.249   5.750
 8663TIP3    H225867  -0.111   3.342   5.630
 8664TIP3   OH225868   0.687   4.290   5.361
 8664TIP3    H125869   0.733   4.220   5.310
 8664TIP3    H225870   0.686   4.251   5.450
 8665TIP3   OH225871   0.595   3.753   5.710
 8665TIP3    H125872   0.632   3.675   5.665
 8665TIP3    H225873   0.679   3.797   5.734
 8666TIP3   OH225874   1.606   3.073   5.708
 8666TIP3    H125875   1.635   3.154   5.754
 8666TIP3    H225876   1.628   3.094   5.616
 8667TIP3   OH225877   1.006   3.255   5.744
 8667TIP3    H125878   1.049   3.169   5.765
 8667TIP3    H225879   0.976   3.238   5.653
 8668TIP3   OH225880   0.344   2.913   5.709
 8668TIP3    H125881   0.323   2.986   5.647
 8668TIP3    H225882   0.295   2.840   5.665
 8669TIP3   OH225883   1.038   3.003   5.331
 8669TIP3    H125884   1.110   2.987   5.397
 8669TIP3    H225885   1.090   3.039   5.258
 8670TIP3   OH225886  -0.021   3.111   5.810
 8670TIP3    H125887   0.056   3.094   5.867
 8670TIP3    H225888  -0.001   3.053   5.734
 8671TIP3   OH225889   0.420   3.313   5.604
 8671TIP3    H125890   0.513   3.287   5.621
 8671TIP3    H225891   0.380   3.229   5.575
 8672TIP3   OH225892   1.679   3.277   5.880
 8672TIP3    H125893   1.596   3.327   5.862
 8672TIP3    H225894   1.700   3.309   5.969
 8673TIP3   OH225895   0.341   2.895   6.143
 8673TIP3    H125896   0.281   2.933   6.075
 8673TIP3    H225897   0.290   2.916   6.224
 8674TIP3   OH225898   0.690   3.748   5.151
 8674TIP3    H125899   0.644   3.725   5.069
 8674TIP3    H225900   0.646   3.832   5.174
 8675TIP3   OH225901   0.449   3.671   5.939
 8675TIP3    H125902   0.385   3.735   5.977
 8675TIP3    H225903   0.490   3.723   5.867
 8676TIP3   OH225904   1.250   3.005   5.502
 8676TIP3    H125905   1.239   2.958   5.586
 8676TIP3    H225906   1.303   3.082   5.529
 8677TIP3   OH225907   0.211   3.011   5.929
 8677TIP3    H125908   0.273   3.084   5.951
 8677TIP3    H225909   0.259   2.970   5.854
 8678TIP3   OH225910   0.277   3.863   6.035
 8678TIP3    H125911   0.251   3.948   5.995
 8678TIP3    H225912   0.199   3.848   6.092
 8679TIP3   OH225913  -0.309   3.553   5.253
 8679TIP3    H125914  -0.398   3.586   5.226
 8679TIP3    H225915  -0.292   3.608   5.331
 8680TIP3   OH225916   1.108   4.070   5.512
 8680TIP3    H125917   1.018   4.062   5.550
 8680TIP3    H225918   1.101   4.156   5.467
 8681TIP3   OH225919   1.400   2.970   5.873
 8681TIP3    H125920   1.313   3.003   5.844
 8681TIP3    H225921   1.460   3.004   5.803
 8682TIP3   OH225922   0.698   2.616   5.855
 8682TIP3    H125923   0.686   2.521   5.873
 8682TIP3    H225924   0.621   2.654   5.902
 8683TIP3   OH225925   0.811   4.119   5.185
 8683TIP3    H125926   0.861   4.036   5.166
 8683TIP3    H225927   0.872   4.184   5.144
 8684TIP3   OH225928   0.954   3.904   5.092
 8684TIP3    H125929   0.913   3.824   5.055
 8684TIP3    H225930   0.990   3.869   5.176
 8685TIP3   OH225931   1.334   3.985   5.856
 8685TIP3    H125932   1.326   3.907   5.796
 8685TIP3    H225933   1.321   4.059   5.793
 8686TIP3   OH225934   0.626   3.377   5.111
 8686TIP3    H125935   0.546   3.429   5.090
 8686TIP3    H225936   0.673   3.376   5.026
 8687TIP3   OH225937   0.586   3.162   4.828
 8687TIP3    H125938   0.653   3.212   4.878
 8687TIP3    H225939   0.643   3.098   4.781
 8688TIP3   OH225940   1.529   3.617   5.697
 8688TIP3    H125941   1.448   3.672   5.704
 8688TIP3    H225942   1.561   3.644   5.608
 8689TIP3   OH225943   0.974   3.460   5.084
 8689TIP3    H125944   0.920   3.485   5.163
 8689TIP3    H225945   1.058   3.434   5.128
 8690TIP3   OH225946   1.210   3.500   5.996
 8690TIP3    H125947   1.209   3.583   6.047
 8690TIP3    H225948   1.124   3.506   5.950
 8691TIP3   OH225949   0.208   3.458   5.498
 8691TIP3    H125950   0.166   3.400   5.431
 8691TIP3    H225951   0.284   3.405   5.528
 8692TIP3   OH225952   0.342   3.874   5.646
 8692TIP3    H125953   0.317   3.825   5.567
 8692TIP3    H225954   0.431   3.838   5.666
 8693TIP3   OH225955   0.352   3.426   5.857
 8693TIP3    H125956   0.379   3.410   5.764
 8693TIP3    H225957   0.389   3.515   5.875
 8694TIP3   OH225958   0.865   4.068   5.631
 8694TIP3    H125959   0.856   4.146   5.688
 8694TIP3    H225960   0.854   3.993   5.694
 8695TIP3   OH225961   0.481   3.988   6.178
 8695TIP3    H125962   0.422   4.050   6.225
 8695TIP3    H225963   0.416   3.933   6.130
 8696TIP3   OH225964   0.816   3.318   4.910
 8696TIP3    H125965   0.875   3.377   4.963
 8696TIP3    H225966   0.842   3.342   4.818
 8697TIP3   OH225967   0.246   3.546   6.275
 8697TIP3    H125968   0.247   3.634   6.316
 8697TIP3    H225969   0.152   3.522   6.286
 8698TIP3   OH225970   0.558   3.998   5.185
 8698TIP3    H125971   0.637   4.052   5.203
 8698TIP3    H225972   0.496   4.062   5.148
 8699TIP3   OH225973   0.278   4.159   6.265
 8699TIP3    H125974   0.242   4.150   6.175
 8699TIP3    H225975   0.208   4.118   6.321
 8700TIP3   OH225976   1.331   2.559   4.958
 8700TIP3    H125977   1.250   2.579   5.009
 8700TIP3    H225978   1.343   2.644   4.909
 8701TIP3   OH225979   0.075   3.300   5.304
 8701TIP3    H125980   0.010   3.345   5.246
 8701TIP3    H225981   0.029   3.218   5.323
 8702TIP3   OH225982   1.129   3.926   4.505
 8702TIP3    H125983   1.138   4.023   4.492
 8702TIP3    H225984   1.222   3.898   4.493
 8703TIP3   OH225985  -0.143   3.700   6.207
 8703TIP3    H125986  -0.191   3.660   6.133
 8703TIP3    H225987  -0.111   3.620   6.252
 8704TIP3   OH225988   1.565   4.327   5.896
 8704TIP3    H125989   1.569   4.231   5.913
 8704TIP3    H225990   1.485   4.351   5.947
 8705TIP3   OH225991   0.677   4.117   6.034
 8705TIP3    H125992   0.677   4.209   6.068
 8705TIP3    H225993   0.607   4.076   6.090
 8706TIP3   OH225994   0.438   4.244   4.987
 8706TIP3    H125995   0.393   4.225   4.903
 8706TIP3    H225996   0.407   4.334   5.008
 8707TIP3   OH225997  -0.088   4.085   5.345
 8707TIP3    H125998  -0.064   4.055   5.435
 8707TIP3    H225999  -0.168   4.034   5.324
 8708TIP3   OH226000   0.641   4.145   4.628
 8708TIP3    H126001   0.700   4.075   4.592
 8708TIP3    H226002   0.675   4.154   4.719
 8709TIP3   OH226003   0.690   4.193   4.899
 8709TIP3    H126004   0.602   4.201   4.942
 8709TIP3    H226005   0.742   4.151   4.969
 8710TIP3   OH226006   1.462   3.459   6.177
 8710TIP3    H126007   1.383   3.472   6.124
 8710TIP3    H226008   1.478   3.363   6.167
 8711TIP3   OH226009   0.065   3.875   6.202
 8711TIP3    H126010   0.112   3.862   6.287
 8711TIP3    H226011  -0.005   3.806   6.207
 8712TIP3   OH226012   0.460   2.691   5.985
 8712TIP3    H126013   0.371   2.659   5.960
 8712TIP3    H226014   0.435   2.774   6.029
 8713TIP3   OH226015   0.993   2.806   6.179
 8713TIP3    H126016   1.061   2.779   6.244
 8713TIP3    H226017   0.909   2.786   6.226
 8714TIP3   OH226018   1.230   3.234   6.096
 8714TIP3    H126019   1.183   3.231   6.182
 8714TIP3    H226020   1.208   3.323   6.062
 8715TIP3   OH226021   0.890   3.366   4.654
 8715TIP3    H126022   0.859   3.339   4.565
 8715TIP3    H226023   0.971   3.416   4.630
 8716TIP3   OH226024   0.604   2.741   4.956
 8716TIP3    H126025   0.572   2.739   5.048
 8716TIP3    H226026   0.566   2.658   4.923
 8717TIP3   OH226027   0.393   3.204   6.005
 8717TIP3    H126028   0.340   3.226   6.085
 8717TIP3    H226029   0.378   3.285   5.951
 8718TIP3   OH226030   0.274   3.092   5.518
 8718TIP3    H126031   0.181   3.067   5.534
 8718TIP3    H226032   0.287   3.051   5.429
 8719TIP3   OH226033   0.765   3.179   5.245
 8719TIP3    H126034   0.711   3.250   5.204
 8719TIP3    H226035   0.819   3.149   5.169
 8720TIP3   OH226036   0.939   3.458   6.332
 8720TIP3    H126037   0.918   3.385   6.394
 8720TIP3    H226038   1.033   3.473   6.353
 8721TIP3   OH226039   0.922   3.207   5.485
 8721TIP3    H126040   0.863   3.238   5.414
 8721TIP3    H226041   0.955   3.125   5.442
 8722TIP3   OH226042   0.213   3.237   6.210
 8722TIP3    H126043   0.228   3.302   6.280
 8722TIP3    H226044   0.199   3.155   6.261
 8723TIP3   OH226045   0.258   2.712   4.922
 8723TIP3    H126046   0.252   2.710   5.020
 8723TIP3    H226047   0.180   2.766   4.900
 8724TIP3   OH226048  -0.204   2.772   5.765
 8724TIP3    H126049  -0.145   2.797   5.839
 8724TIP3    H226050  -0.152   2.701   5.724
 8725TIP3   OH226051  -0.211   2.766   5.326
 8725TIP3    H126052  -0.175   2.788   5.238
 8725TIP3    H226053  -0.263   2.845   5.344
 8726TIP3   OH226054   0.930   3.454   5.907
 8726TIP3    H126055   0.964   3.382   5.850
 8726TIP3    H226056   0.903   3.402   5.986
 8727TIP3   OH226057   0.600   2.915   5.579
 8727TIP3    H126058   0.518   2.914   5.632
 8727TIP3    H226059   0.668   2.915   5.648
 8728TIP3   OH226060   0.033   2.970   5.579
 8728TIP3    H126061  -0.060   2.970   5.551
 8728TIP3    H226062   0.061   2.878   5.565
 8729TIP3   OH226063   0.306   2.966   5.275
 8729TIP3    H126064   0.400   2.983   5.255
 8729TIP3    H226065   0.259   2.990   5.192
 8730TIP3   OH226066   1.092   2.991   5.779
 8730TIP3    H126067   1.059   3.003   5.871
 8730TIP3    H226068   1.026   2.929   5.744
 8731TIP3   OH226069   0.146   2.999   5.054
 8731TIP3    H126070   0.074   2.956   5.005
 8731TIP3    H226071   0.198   3.036   4.980
 8732TIP3   OH226072   1.262   4.682   5.999
 8732TIP3    H126073   1.263   4.702   5.904
 8732TIP3    H226074   1.343   4.726   6.030
 8733TIP3   OH226075   0.228   3.786   6.419
 8733TIP3    H126076   0.307   3.819   6.466
 8733TIP3    H226077   0.161   3.796   6.489
 8734TIP3   OH226078   0.685   3.242   5.676
 8734TIP3    H126079   0.758   3.203   5.627
 8734TIP3    H226080   0.695   3.202   5.764
 8735TIP3   OH226081   0.208   2.732   5.555
 8735TIP3    H126082   0.174   2.652   5.601
 8735TIP3    H226083   0.260   2.694   5.483
 8736TIP3   OH226084   0.662   3.138   5.968
 8736TIP3    H126085   0.572   3.174   5.981
 8736TIP3    H226086   0.719   3.199   6.018
 8737TIP3   OH226087   0.398   3.532   5.061
 8737TIP3    H126088   0.327   3.465   5.050
 8737TIP3    H226089   0.381   3.565   5.152
 8738TIP3   OH226090   1.300   3.768   5.691
 8738TIP3    H126091   1.325   3.816   5.609
 8738TIP3    H226092   1.214   3.726   5.666
 8739TIP3   OH226093   0.856   2.845   4.919
 8739TIP3    H126094   0.759   2.828   4.930
 8739TIP3    H226095   0.866   2.938   4.947
 8740TIP3   OH226096   0.797   3.849   6.058
 8740TIP3    H126097   0.822   3.824   6.148
 8740TIP3    H226098   0.759   3.937   6.068
 8741TIP3   OH226099   0.926   3.089   5.026
 8741TIP3    H126100   1.022   3.095   5.043
 8741TIP3    H226101   0.909   3.170   4.974
 8742TIP3   OH226102   0.099   3.562   5.738
 8742TIP3    H126103   0.133   3.524   5.654
 8742TIP3    H226104   0.114   3.490   5.801
 8743TIP3   OH226105   0.542   3.680   4.880
 8743TIP3    H126106   0.495   3.766   4.888
 8743TIP3    H226107   0.488   3.625   4.941
 8744TIP3   OH226108  -0.007   3.478   6.351
 8744TIP3    H126109   0.003   3.464   6.447
 8744TIP3    H226110  -0.096   3.441   6.333
 8745TIP3   OH226111   0.696   3.586   6.371
 8745TIP3    H126112   0.636   3.528   6.321
 8745TIP3    H226113   0.783   3.553   6.343
 8746TIP3   OH226114   0.957   4.111   5.953
 8746TIP3    H126115   0.861   4.107   5.966
 8746TIP3    H226116   0.986   4.161   6.032
 8747TIP3   OH226117   1.368   3.179   4.863
 8747TIP3    H126118   1.306   3.135   4.801
 8747TIP3    H226119   1.365   3.268   4.823
 8748TIP3   OH226120   1.585   4.037   5.946
 8748TIP3    H126121   1.487   4.032   5.937
 8748TIP3    H226122   1.611   4.008   5.856
 8749TIP3   OH226123   1.064   4.000   4.770
 8749TIP3    H126124   1.044   3.930   4.833
 8749TIP3    H226125   1.080   3.951   4.687
 8750TIP3   OH226126   1.063   3.629   5.610
 8750TIP3    H126127   0.970   3.603   5.623
 8750TIP3    H226128   1.098   3.550   5.565
 8751TIP3   OH226129   0.194   3.856   5.360
 8751TIP3    H126130   0.195   3.937   5.305
 8751TIP3    H226131   0.100   3.843   5.373
 8752TIP3   OH226132  -0.249   3.163   5.076
 8752TIP3    H126133  -0.192   3.243   5.082
 8752TIP3    H226134  -0.310   3.182   5.150
 8753TIP3   OH226135   0.332   3.622   5.306
 8753TIP3    H126136   0.297   3.712   5.326
 8753TIP3    H226137   0.295   3.571   5.380
 8754TIP3   OH226138   0.460   4.202   5.831
 8754TIP3    H126139   0.505   4.272   5.780
 8754TIP3    H226140   0.535   4.164   5.880
 8755TIP3   OH226141   0.139   4.099   5.203
 8755TIP3    H126142   0.053   4.103   5.251
 8755TIP3    H226143   0.164   4.194   5.206
 8756TIP3   OH226144   0.850   3.835   5.789
 8756TIP3    H126145   0.841   3.832   5.887
 8756TIP3    H226146   0.930   3.782   5.776
 8757TIP3   OH226147   0.822   3.726   4.672
 8757TIP3    H126148   0.876   3.701   4.751
 8757TIP3    H226149   0.734   3.700   4.703
 8758TIP3   OH226150   1.096   4.371   5.843
 8758TIP3    H126151   1.019   4.311   5.834
 8758TIP3    H226152   1.081   4.433   5.769
 8759TIP3   OH226153   1.163   4.202   4.493
 8759TIP3    H126154   1.203   4.276   4.443
 8759TIP3    H226155   1.082   4.248   4.525
 8760TIP3   OH226156   0.191   2.976   6.366
 8760TIP3    H126157   0.097   2.982   6.385
 8760TIP3    H226158   0.221   2.911   6.432
 8761TIP3   OH226159   0.983   3.660   4.888
 8761TIP3    H126160   0.973   3.594   4.961
 8761TIP3    H226161   1.080   3.658   4.877
 8762TIP3   OH226162  -0.081   4.083   5.984
 8762TIP3    H126163  -0.049   3.992   5.986
 8762TIP3    H226164  -0.061   4.112   6.074
 8763TIP3   OH226165   0.189   3.708   4.671
 8763TIP3    H126166   0.203   3.616   4.642
 8763TIP3    H226167   0.172   3.696   4.766
 8764TIP3   OH226168   0.138   3.713   4.944
 8764TIP3    H126169   0.208   3.685   5.005
 8764TIP3    H226170   0.144   3.811   4.950
 8765TIP3   OH226171  -0.119   3.403   5.137
 8765TIP3    H126172  -0.190   3.446   5.190
 8765TIP3    H226173  -0.105   3.475   5.073
 8766TIP3   OH226174   1.019   3.042   6.038
 8766TIP3    H126175   1.098   3.082   6.078
 8766TIP3    H226176   1.006   2.962   6.094
 8767TIP3   OH226177   0.900   2.795   5.203
 8767TIP3    H126178   0.886   2.820   5.110
 8767TIP3    H226179   0.939   2.877   5.241
 8768TIP3   OH226180   0.401   3.911   4.893
 8768TIP3    H126181   0.314   3.937   4.928
 8768TIP3    H226182   0.417   3.982   4.830
 8769TIP3   OH226183   0.589   2.973   5.306
 8769TIP3    H126184   0.654   3.045   5.290
 8769TIP3    H226185   0.593   2.966   5.404
 8770TIP3   OH226186   0.858   3.293   6.115
 8770TIP3    H126187   0.878   3.347   6.194
 8770TIP3    H226188   0.914   3.215   6.130
 8771TIP3   OH226189   0.733   2.702   5.409
 8771TIP3    H126190   0.728   2.777   5.471
 8771TIP3    H226191   0.794   2.738   5.341
 8772TIP3   OH226192   0.143   3.985   4.955
 8772TIP3    H126193   0.112   4.056   4.895
 8772TIP3    H226194   0.137   4.029   5.043
 8773TIP3   OH226195   0.245   2.698   5.198
 8773TIP3    H126196   0.242   2.789   5.235
 8773TIP3    H226197   0.341   2.680   5.208
 8774TIP3   OH226198   1.498   3.193   6.097
 8774TIP3    H126199   1.400   3.189   6.101
 8774TIP3    H226200   1.512   3.157   6.008
 8775TIP3   OH226201   1.149   3.388   5.484
 8775TIP3    H126202   1.074   3.327   5.497
 8775TIP3    H226203   1.222   3.341   5.531
 8776TIP3   OH226204  -0.126   3.622   4.958
 8776TIP3    H126205  -0.052   3.685   4.963
 8776TIP3    H226206  -0.092   3.564   4.886
 8777TIP3   OH226207  -0.193   2.893   5.084
 8777TIP3    H126208  -0.194   2.990   5.089
 8777TIP3    H226209  -0.273   2.874   5.035
 8778TIP3   OH226210   1.117   4.343   5.433
 8778TIP3    H126211   1.075   4.390   5.358
 8778TIP3    H226212   1.211   4.363   5.414
 8779TIP3   OH226213   0.197   2.607   5.962
 8779TIP3    H126214   0.163   2.577   5.875
 8779TIP3    H226215   0.181   2.529   6.019
 8780TIP3   OH226216  -0.241   3.802   5.380
 8780TIP3    H126217  -0.331   3.834   5.364
 8780TIP3    H226218  -0.204   3.814   5.292
 8781TIP3   OH226219   0.366   4.347   6.454
 8781TIP3    H126220   0.459   4.322   6.468
 8781TIP3    H226221   0.342   4.284   6.383
 8782TIP3   OH226222   0.353   3.912   4.586
 8782TIP3    H126223   0.296   3.841   4.623
 8782TIP3    H226224   0.428   3.859   4.555
 8783TIP3   OH226225   1.008   4.243   6.191
 8783TIP3    H126226   1.000   4.172   6.259
 8783TIP3    H226227   1.088   4.291   6.220
 8784TIP3   OH226228   0.789   3.953   4.496
 8784TIP3    H126229   0.834   3.890   4.555
 8784TIP3    H226230   0.847   3.953   4.417
 8785TIP3   OH226231   0.038   3.762   6.621
 8785TIP3    H126232   0.074   3.671   6.617
 8785TIP3    H226233  -0.056   3.741   6.603
 8786TIP3   OH226234  -0.001   3.431   4.805
 8786TIP3    H126235   0.052   3.398   4.879
 8786TIP3    H226236   0.067   3.434   4.735
 8787TIP3   OH226237   0.626   3.861   6.386
 8787TIP3    H126238   0.587   3.876   6.298
 8787TIP3    H226239   0.659   3.768   6.380
 8788TIP3   OH226240   0.505   3.627   4.612
 8788TIP3    H126241   0.508   3.639   4.708
 8788TIP3    H226242   0.504   3.529   4.607
 8789TIP3   OH226243   1.120   3.870   5.991
 8789TIP3    H126244   1.195   3.914   5.948
 8789TIP3    H226245   1.050   3.936   5.977
 8790TIP3   OH226246   0.128   3.495   6.609
 8790TIP3    H126247   0.207   3.452   6.573
 8790TIP3    H226248   0.161   3.528   6.695
 8791TIP3   OH226249   0.207   3.332   5.029
 8791TIP3    H126250   0.177   3.293   5.113
 8791TIP3    H226251   0.241   3.254   4.981
 8792TIP3   OH226252   0.479   3.398   6.259
 8792TIP3    H126253   0.399   3.455   6.258
 8792TIP3    H226254   0.526   3.430   6.178
 8793TIP3   OH226255   0.305   3.123   4.869
 8793TIP3    H126256   0.279   3.128   4.775
 8793TIP3    H226257   0.402   3.131   4.861
 8794TIP3   OH226258   0.991   3.798   6.390
 8794TIP3    H126259   1.073   3.777   6.344
 8794TIP3    H226260   0.990   3.731   6.461
 8795TIP3   OH226261   1.128   3.457   4.530
 8795TIP3    H126262   1.105   3.410   4.447
 8795TIP3    H226263   1.096   3.547   4.506
 8796TIP3   OH226264   0.596   3.184   6.385
 8796TIP3    H126265   0.597   3.105   6.327
 8796TIP3    H226266   0.554   3.251   6.326
 8797TIP3   OH226267   0.600   2.970   6.190
 8797TIP3    H126268   0.627   3.012   6.106
 8797TIP3    H226269   0.506   2.948   6.171
 8798TIP3   OH226270   0.630   3.507   6.063
 8798TIP3    H126271   0.712   3.514   6.012
 8798TIP3    H226272   0.572   3.573   6.019
 8799TIP3   OH226273   1.209   3.474   6.444
 8799TIP3    H126274   1.259   3.391   6.456
 8799TIP3    H226275   1.278   3.533   6.411
 8800TIP3   OH226276   1.251   3.725   6.179
 8800TIP3    H126277   1.193   3.779   6.119
 8800TIP3    H226278   1.339   3.746   6.139
 8801TIP3   OH226279   0.472   3.299   6.613
 8801TIP3    H126280   0.406   3.228   6.625
 8801TIP3    H226281   0.509   3.276   6.525
 8802TIP3   OH226282   0.732   2.735   6.256
 8802TIP3    H126283   0.684   2.817   6.233
 8802TIP3    H226284   0.662   2.667   6.244
 8803TIP3   OH226285   0.858   3.240   6.472
 8803TIP3    H126286   0.849   3.228   6.569
 8803TIP3    H226287   0.768   3.214   6.444
 8804TIP3   OH226288   1.097   3.187   6.326
 8804TIP3    H126289   1.022   3.190   6.389
 8804TIP3    H226290   1.171   3.158   6.383
 8805TIP3   OH226291   1.322   3.127   6.478
 8805TIP3    H126292   1.338   3.032   6.498
 8805TIP3    H226293   1.321   3.168   6.568
 8806TIP3   OH226294   0.313   3.080   6.666
 8806TIP3    H126295   0.322   2.990   6.628
 8806TIP3    H226296   0.351   3.065   6.755
 8807TIP3   OH226297   0.825   2.743   6.514
 8807TIP3    H126298   0.894   2.674   6.508
 8807TIP3    H226299   0.787   2.737   6.424
 8808TIP3   OH226300   0.891   2.958   6.674
 8808TIP3    H126301   0.869   2.888   6.609
 8808TIP3    H226302   0.814   3.018   6.666
 8809TIP3   OH226303   0.112   4.191   4.773
 8809TIP3    H126304   0.208   4.185   4.754
 8809TIP3    H226305   0.083   4.237   4.693
 8810TIP3   OH226306  -0.399   3.591   4.924
 8810TIP3    H126307  -0.311   3.602   4.965
 8810TIP3    H226308  -0.405   3.494   4.918
 8811TIP3   OH226309   1.366   4.443   5.388
 8811TIP3    H126310   1.400   4.468   5.476
 8811TIP3    H226311   1.438   4.473   5.330
 8812TIP3   OH226312   1.399   4.455   5.672
 8812TIP3    H126313   1.358   4.366   5.669
 8812TIP3    H226314   1.479   4.434   5.724
 8813TIP3   OH226315   1.444   4.132   6.243
 8813TIP3    H126316   1.373   4.140   6.310
 8813TIP3    H226317   1.487   4.219   6.249
 8814TIP3   OH226318   1.262   3.644   4.864
 8814TIP3    H126319   1.331   3.708   4.837
 8814TIP3    H226320   1.305   3.605   4.944
 8815TIP3   OH226321   1.389   3.511   5.067
 8815TIP3    H126322   1.325   3.469   5.128
 8815TIP3    H226323   1.456   3.548   5.128
 8816TIP3   OH226324   1.440   3.901   5.496
 8816TIP3    H126325   1.497   3.838   5.448
 8816TIP3    H226326   1.436   3.977   5.436
 8817TIP3   OH226327   1.276   4.204   5.694
 8817TIP3    H126328   1.205   4.243   5.748
 8817TIP3    H226329   1.226   4.154   5.626
 8818TIP3   OH226330   1.328   3.418   4.715
 8818TIP3    H126331   1.256   3.422   4.648
 8818TIP3    H226332   1.302   3.494   4.771
 8819TIP3   OH226333   1.199   3.091   4.669
 8819TIP3    H126334   1.155   3.131   4.593
 8819TIP3    H226335   1.174   2.997   4.659
 8820TIP3   OH226336   1.203   3.367   5.215
 8820TIP3    H126337   1.213   3.270   5.211
 8820TIP3    H226338   1.190   3.383   5.311
 8821TIP3   OH226339  -0.169   3.484   5.942
 8821TIP3    H126340  -0.170   3.434   5.858
 8821TIP3    H226341  -0.078   3.463   5.974
 8822TIP3   OH226342   1.493   3.792   6.070
 8822TIP3    H126343   1.565   3.726   6.063
 8822TIP3    H226344   1.523   3.863   6.011
 8823TIP3   OH226345   1.677   3.598   6.090
 8823TIP3    H126346   1.604   3.546   6.130
 8823TIP3    H226347   1.751   3.535   6.103
 8824TIP3   OH226348   1.143   2.825   4.654
 8824TIP3    H126349   1.219   2.796   4.709
 8824TIP3    H226350   1.071   2.767   4.682
 8825TIP3   OH226351   1.199   3.082   5.110
 8825TIP3    H126352   1.240   2.994   5.125
 8825TIP3    H226353   1.259   3.116   5.041
 8826TIP3   OH226354   1.362   3.259   5.604
 8826TIP3    H126355   1.448   3.285   5.564
 8826TIP3    H226356   1.375   3.295   5.694
 8827TIP3   OH226357   1.429   3.401   5.837
 8827TIP3    H126358   1.352   3.436   5.885
 8827TIP3    H226359   1.462   3.481   5.791
 8828TIP3   OH226360   0.040   3.110   6.646
 8828TIP3    H126361   0.135   3.128   6.629
 8828TIP3    H226362   0.048   3.037   6.707
 8829TIP3   OH226363   1.879   2.989   6.393
 8829TIP3    H126364   1.940   2.925   6.351
 8829TIP3    H226365   1.854   3.047   6.318
 8830TIP3   OH226366   1.309   2.833   5.147
 8830TIP3    H126367   1.358   2.818   5.231
 8830TIP3    H226368   1.249   2.756   5.147
 8831TIP3   OH226369   0.006   2.809   5.950
 8831TIP3    H126370   0.075   2.742   5.968
 8831TIP3    H226371   0.057   2.891   5.961
 8832TIP3   OH226372  -0.152   3.106   6.064
 8832TIP3    H126373  -0.131   3.090   5.971
 8832TIP3    H226374  -0.190   3.194   6.062
 8833TIP3   OH226375   1.754   3.133   6.199
 8833TIP3    H126376   1.668   3.173   6.222
 8833TIP3    H226377   1.725   3.061   6.140
 8834TIP3   OH226378   1.390   2.770   4.778
 8834TIP3    H126379   1.431   2.697   4.728
 8834TIP3    H226380   1.458   2.840   4.774
 8835TIP3   OH226381  -0.212   2.582   5.520
 8835TIP3    H126382  -0.290   2.616   5.564
 8835TIP3    H226383  -0.200   2.649   5.449
 8836TIP3   OH226384   0.953   4.303   5.046
 8836TIP3    H126385   1.004   4.286   4.964
 8836TIP3    H226386   1.010   4.365   5.093
 8837TIP3   OH226387   0.013   2.687   6.371
 8837TIP3    H126388  -0.053   2.673   6.440
 8837TIP3    H226389  -0.041   2.720   6.298
 8838TIP3   OH226390   0.088   4.067   6.441
 8838TIP3    H126391   0.002   4.109   6.425
 8838TIP3    H226392   0.090   4.064   6.538
 8839TIP3   OH226393   0.237   4.134   5.983
 8839TIP3    H126394   0.187   4.207   5.943
 8839TIP3    H226395   0.323   4.149   5.937
 8840TIP3   OH226396   0.679   4.384   6.119
 8840TIP3    H126397   0.722   4.382   6.207
 8840TIP3    H226398   0.747   4.432   6.066
 8841TIP3   OH226399   0.858   4.533   5.975
 8841TIP3    H126400   0.929   4.481   5.934
 8841TIP3    H226401   0.910   4.590   6.036
 8842TIP3   OH226402   1.653   2.895   6.076
 8842TIP3    H126403   1.561   2.890   6.043
 8842TIP3    H226404   1.683   2.802   6.064
 8843TIP3   OH226405   0.142   4.374   5.868
 8843TIP3    H126406   0.054   4.377   5.906
 8843TIP3    H226407   0.126   4.407   5.777
 8844TIP3   OH226408   0.573   4.402   5.659
 8844TIP3    H126409   0.507   4.425   5.591
 8844TIP3    H226410   0.587   4.489   5.703
 8845TIP3   OH226411   0.841   4.341   5.711
 8845TIP3    H126412   0.748   4.358   5.689
 8845TIP3    H226413   0.886   4.416   5.668
 8846TIP3   OH226414   1.046   4.533   5.625
 8846TIP3    H126415   1.034   4.617   5.577
 8846TIP3    H226416   1.075   4.472   5.554
 8847TIP3   OH226417  -0.135   4.207   5.745
 8847TIP3    H126418  -0.113   4.166   5.831
 8847TIP3    H226419  -0.080   4.151   5.687
 8848TIP3   OH226420   0.021   4.043   5.594
 8848TIP3    H126421   0.034   3.962   5.649
 8848TIP3    H226422   0.112   4.079   5.592
 8849TIP3   OH226423   0.286   4.156   5.608
 8849TIP3    H126424   0.315   4.064   5.593
 8849TIP3    H226425   0.331   4.172   5.693
 8850TIP3   OH226426   0.856   2.810   5.693
 8850TIP3    H126427   0.813   2.741   5.747
 8850TIP3    H226428   0.930   2.761   5.651
 8851TIP3   OH226429   1.381   2.687   5.599
 8851TIP3    H126430   1.417   2.742   5.526
 8851TIP3    H226431   1.286   2.709   5.595
 8852TIP3   OH226432   1.476   2.791   5.364
 8852TIP3    H126433   1.550   2.740   5.324
 8852TIP3    H226434   1.509   2.883   5.350
 8853TIP3   OH226435   0.105   2.519   5.711
 8853TIP3    H126436   0.014   2.483   5.710
 8853TIP3    H226437   0.156   2.435   5.709
 8854TIP3   OH226438  -0.095   2.382   5.368
 8854TIP3    H126439  -0.080   2.439   5.290
 8854TIP3    H226440  -0.134   2.447   5.431
 8855TIP3   OH226441   0.549   2.551   5.592
 8855TIP3    H126442   0.607   2.602   5.534
 8855TIP3    H226443   0.569   2.589   5.678
 8856TIP3   OH226444   1.096   2.697   5.577
 8856TIP3    H126445   1.095   2.660   5.488
 8856TIP3    H226446   1.083   2.617   5.632
 8857TIP3   OH226447   1.126   2.619   5.138
 8857TIP3    H126448   1.039   2.662   5.150
 8857TIP3    H226449   1.112   2.535   5.185
 8858TIP3   OH226450   0.009   2.551   5.118
 8858TIP3    H126451   0.060   2.487   5.065
 8858TIP3    H226452   0.081   2.603   5.159
 8859TIP3   OH226453   0.523   2.722   5.221
 8859TIP3    H126454   0.582   2.676   5.283
 8859TIP3    H226455   0.543   2.815   5.247
 8860TIP3   OH226456   0.381   4.150   4.721
 8860TIP3    H126457   0.470   4.171   4.686
 8860TIP3    H226458   0.359   4.074   4.662
 8861TIP3   OH226459   1.099   4.266   4.814
 8861TIP3    H126460   1.090   4.168   4.801
 8861TIP3    H226461   1.055   4.298   4.733
 8862TIP3   OH226462   0.311   2.802   6.604
 8862TIP3    H126463   0.277   2.728   6.658
 8862TIP3    H226464   0.405   2.800   6.631
 8863TIP3   OH226465   0.562   2.795   6.723
 8863TIP3    H126466   0.647   2.777   6.680
 8863TIP3    H226467   0.555   2.719   6.784
 8864TIP3   OH226468  -0.297   3.992   4.816
 8864TIP3    H126469  -0.274   4.084   4.838
 8864TIP3    H226470  -0.212   3.954   4.782
 8865TIP3   OH226471   1.387   2.857   6.510
 8865TIP3    H126472   1.407   2.826   6.601
 8865TIP3    H226473   1.476   2.854   6.468
 8866TIP3   OH226474   1.323   4.411   6.006
 8866TIP3    H126475   1.246   4.380   5.955
 8866TIP3    H226476   1.307   4.508   6.006
 8867TIP3   OH226477   2.593   3.781   4.768
 8867TIP3    H126478   2.568   3.874   4.751
 8867TIP3    H226479   2.512   3.736   4.739
 8868TIP3   OH226480   2.591   3.780   5.148
 8868TIP3    H126481   2.623   3.754   5.236
 8868TIP3    H226482   2.548   3.699   5.117
 8869TIP3   OH226483   1.891   3.679   5.514
 8869TIP3    H126484   1.923   3.612   5.577
 8869TIP3    H226485   1.965   3.741   5.515
 8870TIP3   OH226486   2.834   4.083   4.828
 8870TIP3    H126487   2.823   4.020   4.900
 8870TIP3    H226488   2.860   4.164   4.877
 8871TIP3   OH226489   1.854   4.085   5.233
 8871TIP3    H126490   1.851   3.987   5.238
 8871TIP3    H226491   1.946   4.102   5.259
 8872TIP3   OH226492   1.570   3.290   5.024
 8872TIP3    H126493   1.524   3.375   5.040
 8872TIP3    H226494   1.497   3.237   4.988
 8873TIP3   OH226495   1.627   3.577   5.193
 8873TIP3    H126496   1.677   3.501   5.232
 8873TIP3    H226497   1.692   3.614   5.133
 8874TIP3   OH226498   2.478   4.549   4.841
 8874TIP3    H126499   2.530   4.472   4.809
 8874TIP3    H226500   2.478   4.535   4.937
 8875TIP3   OH226501   2.391   4.006   5.195
 8875TIP3    H126502   2.432   3.931   5.150
 8875TIP3    H226503   2.472   4.055   5.219
 8876TIP3   OH226504   3.402   3.329   5.195
 8876TIP3    H126505   3.431   3.411   5.241
 8876TIP3    H226506   3.424   3.351   5.103
 8877TIP3   OH226507   2.802   3.512   5.231
 8877TIP3    H126508   2.845   3.427   5.253
 8877TIP3    H226509   2.772   3.495   5.140
 8878TIP3   OH226510   2.140   3.169   5.196
 8878TIP3    H126511   2.120   3.242   5.134
 8878TIP3    H226512   2.090   3.096   5.152
 8879TIP3   OH226513   2.834   3.258   4.818
 8879TIP3    H126514   2.906   3.243   4.884
 8879TIP3    H226515   2.886   3.296   4.745
 8880TIP3   OH226516   1.774   3.372   5.302
 8880TIP3    H126517   1.856   3.354   5.350
 8880TIP3    H226518   1.788   3.316   5.223
 8881TIP3   OH226519   2.217   3.569   5.091
 8881TIP3    H126520   2.310   3.543   5.107
 8881TIP3    H226521   2.177   3.485   5.062
 8882TIP3   OH226522   3.475   3.535   5.366
 8882TIP3    H126523   3.392   3.584   5.347
 8882TIP3    H226524   3.492   3.563   5.457
 8883TIP3   OH226525   2.137   3.152   5.629
 8883TIP3    H126526   2.077   3.191   5.563
 8883TIP3    H226527   2.086   3.170   5.711
 8884TIP3   OH226528   2.489   4.005   4.636
 8884TIP3    H126529   2.440   3.985   4.555
 8884TIP3    H226530   2.446   4.089   4.662
 8885TIP3   OH226531   2.242   3.929   5.427
 8885TIP3    H126532   2.177   3.993   5.463
 8885TIP3    H226533   2.283   3.983   5.356
 8886TIP3   OH226534   3.046   3.261   4.990
 8886TIP3    H126535   3.031   3.218   5.075
 8886TIP3    H226536   3.099   3.339   5.015
 8887TIP3   OH226537   2.007   3.268   5.414
 8887TIP3    H126538   2.068   3.341   5.438
 8887TIP3    H226539   2.057   3.228   5.340
 8888TIP3   OH226540   2.064   4.124   5.500
 8888TIP3    H126541   2.101   4.214   5.511
 8888TIP3    H226542   1.990   4.126   5.565
 8889TIP3   OH226543   1.467   3.812   4.759
 8889TIP3    H126544   1.426   3.841   4.676
 8889TIP3    H226545   1.499   3.896   4.797
 8890TIP3   OH226546   2.898   4.308   4.975
 8890TIP3    H126547   2.816   4.309   5.028
 8890TIP3    H226548   2.911   4.404   4.960
 8891TIP3   OH226549   3.197   3.226   5.359
 8891TIP3    H126550   3.110   3.260   5.333
 8891TIP3    H226551   3.256   3.261   5.289
 8892TIP3   OH226552   2.494   2.873   5.342
 8892TIP3    H126553   2.481   2.778   5.361
 8892TIP3    H226554   2.417   2.911   5.390
 8893TIP3   OH226555   2.609   4.371   4.670
 8893TIP3    H126556   2.662   4.291   4.650
 8893TIP3    H226557   2.668   4.440   4.631
 8894TIP3   OH226558   2.756   4.157   4.575
 8894TIP3    H126559   2.705   4.080   4.547
 8894TIP3    H226560   2.790   4.126   4.662
 8895TIP3   OH226561   2.421   3.631   4.597
 8895TIP3    H126562   2.342   3.685   4.577
 8895TIP3    H226563   2.469   3.634   4.513
 8896TIP3   OH226564   2.382   3.419   4.314
 8896TIP3    H126565   2.447   3.469   4.367
 8896TIP3    H226566   2.441   3.356   4.268
 8897TIP3   OH226567   3.330   3.874   5.185
 8897TIP3    H126568   3.246   3.925   5.192
 8897TIP3    H226569   3.359   3.901   5.095
 8898TIP3   OH226570   2.770   3.715   4.571
 8898TIP3    H126571   2.716   3.741   4.649
 8898TIP3    H226572   2.854   3.691   4.616
 8899TIP3   OH226573   3.007   3.756   5.482
 8899TIP3    H126574   3.004   3.837   5.538
 8899TIP3    H226575   2.921   3.763   5.437
 8900TIP3   OH226576   2.004   3.714   4.987
 8900TIP3    H126577   1.964   3.656   4.919
 8900TIP3    H226578   2.081   3.662   5.016
 8901TIP3   OH226579   2.138   4.135   5.130
 8901TIP3    H126580   2.115   4.079   5.054
 8901TIP3    H226581   2.225   4.100   5.156
 8902TIP3   OH226582   2.141   3.687   5.340
 8902TIP3    H126583   2.176   3.670   5.250
 8902TIP3    H226584   2.182   3.773   5.363
 8903TIP3   OH226585   2.671   4.317   5.118
 8903TIP3    H126586   2.656   4.409   5.151
 8903TIP3    H226587   2.641   4.261   5.191
 8904TIP3   OH226588   2.613   3.574   4.397
 8904TIP3    H126589   2.671   3.633   4.450
 8904TIP3    H226590   2.639   3.599   4.305
 8905TIP3   OH226591   2.030   3.797   5.766
 8905TIP3    H126592   2.037   3.886   5.808
 8905TIP3    H226593   1.935   3.781   5.777
 8906TIP3   OH226594   2.355   4.254   4.668
 8906TIP3    H126595   2.433   4.307   4.692
 8906TIP3    H226596   2.292   4.322   4.640
 8907TIP3   OH226597   3.126   2.816   4.444
 8907TIP3    H126598   3.046   2.837   4.496
 8907TIP3    H226599   3.140   2.901   4.396
 8908TIP3   OH226600   1.872   3.556   4.788
 8908TIP3    H126601   1.804   3.601   4.733
 8908TIP3    H226602   1.827   3.473   4.808
 8909TIP3   OH226603   2.925   4.183   3.991
 8909TIP3    H126604   2.933   4.280   3.979
 8909TIP3    H226605   3.018   4.154   3.980
 8910TIP3   OH226606   1.647   3.940   5.702
 8910TIP3    H126607   1.587   3.915   5.629
 8910TIP3    H226608   1.687   3.854   5.728
 8911TIP3   OH226609   1.507   4.135   5.333
 8911TIP3    H126610   1.602   4.123   5.321
 8911TIP3    H226611   1.505   4.212   5.392
 8912TIP3   OH226612   2.233   4.501   4.473
 8912TIP3    H126613   2.188   4.485   4.388
 8912TIP3    H226614   2.202   4.591   4.497
 8913TIP3   OH226615   1.672   4.350   4.859
 8913TIP3    H126616   1.723   4.343   4.942
 8913TIP3    H226617   1.615   4.272   4.866
 8914TIP3   OH226618   2.437   4.401   4.115
 8914TIP3    H126619   2.496   4.332   4.080
 8914TIP3    H226620   2.470   4.411   4.207
 8915TIP3   OH226621   2.486   4.449   4.386
 8915TIP3    H126622   2.398   4.458   4.429
 8915TIP3    H226623   2.538   4.412   4.459
 8916TIP3   OH226624   3.260   3.717   5.661
 8916TIP3    H126625   3.176   3.729   5.614
 8916TIP3    H226626   3.274   3.620   5.653
 8917TIP3   OH226627   1.854   4.125   5.685
 8917TIP3    H126628   1.908   4.114   5.766
 8917TIP3    H226629   1.784   4.058   5.699
 8918TIP3   OH226630   2.255   2.948   5.471
 8918TIP3    H126631   2.165   2.918   5.446
 8918TIP3    H226632   2.232   3.031   5.517
 8919TIP3   OH226633   2.788   3.061   5.666
 8919TIP3    H126634   2.856   3.037   5.732
 8919TIP3    H226635   2.704   3.043   5.713
 8920TIP3   OH226636   3.028   3.492   5.584
 8920TIP3    H126637   2.979   3.487   5.670
 8920TIP3    H226638   3.003   3.581   5.551
 8921TIP3   OH226639   2.686   3.620   4.140
 8921TIP3    H126640   2.655   3.596   4.050
 8921TIP3    H226641   2.765   3.673   4.118
 8922TIP3   OH226642   2.401   3.000   4.444
 8922TIP3    H126643   2.370   2.997   4.536
 8922TIP3    H226644   2.362   2.917   4.411
 8923TIP3   OH226645   2.185   3.463   5.489
 8923TIP3    H126646   2.140   3.487   5.572
 8923TIP3    H226647   2.170   3.545   5.436
 8924TIP3   OH226648   2.071   3.348   5.004
 8924TIP3    H126649   1.978   3.323   5.022
 8924TIP3    H226650   2.083   3.307   4.916
 8925TIP3   OH226651   2.560   3.434   4.730
 8925TIP3    H126652   2.507   3.506   4.691
 8925TIP3    H226653   2.615   3.406   4.655
 8926TIP3   OH226654   2.739   3.708   5.809
 8926TIP3    H126655   2.714   3.643   5.877
 8926TIP3    H226656   2.828   3.734   5.840
 8927TIP3   OH226657   2.718   3.463   4.973
 8927TIP3    H126658   2.659   3.496   4.902
 8927TIP3    H226659   2.749   3.381   4.929
 8928TIP3   OH226660   2.002   3.492   5.699
 8928TIP3    H126661   2.037   3.557   5.762
 8928TIP3    H226662   1.995   3.412   5.754
 8929TIP3   OH226663   2.054   2.968   4.409
 8929TIP3    H126664   2.047   2.967   4.506
 8929TIP3    H226665   1.976   3.023   4.386
 8930TIP3   OH226666   1.599   3.015   5.279
 8930TIP3    H126667   1.673   3.047   5.334
 8930TIP3    H226668   1.643   2.982   5.199
 8931TIP3   OH226669   1.573   2.996   4.798
 8931TIP3    H126670   1.619   3.035   4.721
 8931TIP3    H226671   1.512   3.069   4.821
 8932TIP3   OH226672   2.725   3.712   5.395
 8932TIP3    H126673   2.760   3.640   5.338
 8932TIP3    H226674   2.699   3.660   5.474
 8933TIP3   OH226675   2.395   3.170   5.065
 8933TIP3    H126676   2.313   3.170   5.119
 8933TIP3    H226677   2.464   3.172   5.133
 8934TIP3   OH226678   1.832   3.227   5.074
 8934TIP3    H126679   1.737   3.235   5.048
 8934TIP3    H226680   1.855   3.135   5.051
 8935TIP3   OH226681   2.103   3.221   4.762
 8935TIP3    H126682   2.196   3.240   4.743
 8935TIP3    H226683   2.056   3.246   4.679
 8936TIP3   OH226684   2.889   3.247   5.263
 8936TIP3    H126685   2.859   3.259   5.357
 8936TIP3    H226686   2.821   3.187   5.230
 8937TIP3   OH226687   1.942   3.255   4.541
 8937TIP3    H126688   1.869   3.213   4.494
 8937TIP3    H226689   1.993   3.292   4.467
 8938TIP3   OH226690   3.068   5.017   5.488
 8938TIP3    H126691   3.070   4.949   5.420
 8938TIP3    H226692   3.100   4.970   5.565
 8939TIP3   OH226693   2.013   4.042   5.909
 8939TIP3    H126694   2.094   4.075   5.953
 8939TIP3    H226695   1.949   4.048   5.982
 8940TIP3   OH226696   2.480   3.498   5.163
 8940TIP3    H126697   2.556   3.461   5.115
 8940TIP3    H226698   2.490   3.459   5.251
 8941TIP3   OH226699   2.003   2.988   5.041
 8941TIP3    H126700   1.969   2.908   5.088
 8941TIP3    H226701   2.058   2.949   4.972
 8942TIP3   OH226702   2.458   3.396   5.454
 8942TIP3    H126703   2.368   3.434   5.469
 8942TIP3    H226704   2.516   3.456   5.505
 8943TIP3   OH226705   2.195   3.787   4.547
 8943TIP3    H126706   2.121   3.723   4.537
 8943TIP3    H226707   2.177   3.821   4.638
 8944TIP3   OH226708   3.098   4.016   5.185
 8944TIP3    H126709   3.121   4.078   5.113
 8944TIP3    H226710   3.010   3.984   5.158
 8945TIP3   OH226711   2.653   3.102   4.402
 8945TIP3    H126712   2.557   3.086   4.416
 8945TIP3    H226713   2.665   3.195   4.432
 8946TIP3   OH226714   2.723   3.345   4.510
 8946TIP3    H126715   2.819   3.352   4.530
 8946TIP3    H226716   2.705   3.427   4.461
 8947TIP3   OH226717   1.880   3.801   5.225
 8947TIP3    H126718   1.924   3.778   5.140
 8947TIP3    H226719   1.928   3.747   5.289
 8948TIP3   OH226720   2.338   3.935   4.366
 8948TIP3    H126721   2.291   4.022   4.373
 8948TIP3    H226722   2.285   3.881   4.428
 8949TIP3   OH226723   1.765   3.731   5.839
 8949TIP3    H126724   1.792   3.719   5.932
 8949TIP3    H226725   1.699   3.661   5.828
 8950TIP3   OH226726   2.488   3.823   5.873
 8950TIP3    H126727   2.435   3.788   5.800
 8950TIP3    H226728   2.578   3.820   5.833
 8951TIP3   OH226729   3.165   3.436   4.350
 8951TIP3    H126730   3.102   3.391   4.288
 8951TIP3    H226731   3.161   3.525   4.310
 8952TIP3   OH226732   2.863   4.257   4.257
 8952TIP3    H126733   2.839   4.189   4.322
 8952TIP3    H226734   2.875   4.205   4.175
 8953TIP3   OH226735   2.855   3.886   5.100
 8953TIP3    H126736   2.762   3.857   5.109
 8953TIP3    H226737   2.893   3.809   5.053
 8954TIP3   OH226738   1.985   4.107   4.839
 8954TIP3    H126739   1.989   4.193   4.794
 8954TIP3    H226740   1.892   4.102   4.864
 8955TIP3   OH226741   1.548   3.418   4.549
 8955TIP3    H126742   1.596   3.500   4.571
 8955TIP3    H226743   1.473   3.423   4.612
 8956TIP3   OH226744   2.128   3.877   4.792
 8956TIP3    H126745   2.091   3.966   4.808
 8956TIP3    H226746   2.092   3.828   4.869
 8957TIP3   OH226747   1.905   4.354   4.699
 8957TIP3    H126748   1.821   4.361   4.747
 8957TIP3    H226749   1.938   4.446   4.706
 8958TIP3   OH226750   2.645   4.087   5.285
 8958TIP3    H126751   2.663   4.081   5.379
 8958TIP3    H226752   2.722   4.042   5.247
 8959TIP3   OH226753   2.618   3.981   4.159
 8959TIP3    H126754   2.672   3.956   4.237
 8959TIP3    H226755   2.530   3.959   4.192
 8960TIP3   OH226756   2.959   4.459   3.979
 8960TIP3    H126757   2.998   4.532   3.929
 8960TIP3    H226758   2.879   4.504   4.013
 8961TIP3   OH226759   1.981   3.234   5.847
 8961TIP3    H126760   1.885   3.239   5.862
 8961TIP3    H226761   2.009   3.176   5.919
 8962TIP3   OH226762   2.778   3.911   4.372
 8962TIP3    H126763   2.769   3.850   4.447
 8962TIP3    H226764   2.876   3.914   4.364
 8963TIP3   OH226765   1.695   4.319   5.483
 8963TIP3    H126766   1.748   4.244   5.515
 8963TIP3    H226767   1.737   4.391   5.532
 8964TIP3   OH226768   1.985   3.964   4.158
 8964TIP3    H126769   2.001   3.872   4.131
 8964TIP3    H226770   1.968   3.953   4.254
 8965TIP3   OH226771   1.931   3.969   4.431
 8965TIP3    H126772   2.001   3.943   4.493
 8965TIP3    H226773   1.935   4.067   4.438
 8966TIP3   OH226774   1.666   3.662   4.634
 8966TIP3    H126775   1.601   3.707   4.692
 8966TIP3    H226776   1.682   3.732   4.568
 8967TIP3   OH226777   2.819   3.295   5.522
 8967TIP3    H126778   2.892   3.339   5.568
 8967TIP3    H226779   2.802   3.217   5.579
 8968TIP3   OH226780   2.699   3.050   4.689
 8968TIP3    H126781   2.684   3.078   4.597
 8968TIP3    H226782   2.737   3.132   4.729
 8969TIP3   OH226783   2.195   4.165   4.377
 8969TIP3    H126784   2.110   4.193   4.416
 8969TIP3    H226785   2.215   4.242   4.322
 8970TIP3   OH226786   2.385   3.229   4.792
 8970TIP3    H126787   2.449   3.301   4.776
 8970TIP3    H226788   2.390   3.221   4.890
 8971TIP3   OH226789   2.653   3.548   5.601
 8971TIP3    H126790   2.672   3.608   5.677
 8971TIP3    H226791   2.709   3.472   5.622
 8972TIP3   OH226792   2.531   2.957   4.896
 8972TIP3    H126793   2.526   3.032   4.959
 8972TIP3    H226794   2.591   2.995   4.828
 8973TIP3   OH226795   1.938   4.242   4.447
 8973TIP3    H126796   1.908   4.312   4.385
 8973TIP3    H226797   1.923   4.285   4.534
 8974TIP3   OH226798   2.042   2.955   4.685
 8974TIP3    H126799   2.038   3.045   4.722
 8974TIP3    H226800   2.138   2.938   4.695
 8975TIP3   OH226801   3.295   3.448   5.583
 8975TIP3    H126802   3.197   3.446   5.590
 8975TIP3    H226803   3.306   3.412   5.494
 8976TIP3   OH226804   2.946   3.644   4.969
 8976TIP3    H126805   2.870   3.584   4.985
 8976TIP3    H226806   3.018   3.598   5.018
 8977TIP3   OH226807   1.657   3.874   4.440
 8977TIP3    H126808   1.722   3.946   4.451
 8977TIP3    H226809   1.704   3.821   4.373
 8978TIP3   OH226810   1.604   3.148   4.572
 8978TIP3    H126811   1.602   3.246   4.568
 8978TIP3    H226812   1.518   3.125   4.535
 8979TIP3   OH226813   2.930   4.588   4.929
 8979TIP3    H126814   2.875   4.639   4.867
 8979TIP3    H226815   3.019   4.617   4.902
 8980TIP3   OH226816   1.990   2.868   5.447
 8980TIP3    H126817   1.958   2.834   5.361
 8980TIP3    H226818   1.980   2.790   5.506
 8981TIP3   OH226819   1.529   4.084   4.829
 8981TIP3    H126820   1.457   4.117   4.884
 8981TIP3    H226821   1.507   4.125   4.742
 8982TIP3   OH226822   1.684   4.625   5.903
 8982TIP3    H126823   1.773   4.622   5.943
 8982TIP3    H226824   1.668   4.530   5.894
 8983TIP3   OH226825   2.173   4.600   5.923
 8983TIP3    H126826   2.254   4.552   5.950
 8983TIP3    H226827   2.176   4.576   5.828
 8984TIP3   OH226828   2.148   4.169   4.070
 8984TIP3    H126829   2.092   4.099   4.111
 8984TIP3    H226830   2.224   4.116   4.041
 8985TIP3   OH226831   2.585   4.209   3.982
 8985TIP3    H126832   2.631   4.147   4.042
 8985TIP3    H226833   2.642   4.210   3.904
 8986TIP3   OH226834   1.814   4.034   6.102
 8986TIP3    H126835   1.833   3.939   6.104
 8986TIP3    H226836   1.727   4.036   6.056
 8987TIP3   OH226837   1.793   3.686   4.292
 8987TIP3    H126838   1.848   3.653   4.366
 8987TIP3    H226839   1.861   3.690   4.221
 8988TIP3   OH226840   2.300   3.882   4.098
 8988TIP3    H126841   2.304   3.897   4.195
 8988TIP3    H226842   2.299   3.784   4.094
 8989TIP3   OH226843   2.916   4.126   5.474
 8989TIP3    H126844   2.976   4.161   5.407
 8989TIP3    H226845   2.857   4.201   5.491
 8990TIP3   OH226846   1.933   3.763   6.081
 8990TIP3    H126847   2.012   3.714   6.058
 8990TIP3    H226848   1.958   3.799   6.169
 8991TIP3   OH226849   2.000   3.589   4.514
 8991TIP3    H126850   1.974   3.550   4.600
 8991TIP3    H226851   2.036   3.511   4.466
 8992TIP3   OH226852   2.263   3.643   5.735
 8992TIP3    H126853   2.192   3.711   5.745
 8992TIP3    H226854   2.318   3.682   5.664
 8993TIP3   OH226855   2.101   3.379   4.356
 8993TIP3    H126856   2.075   3.385   4.262
 8993TIP3    H226857   2.199   3.388   4.348
 8994TIP3   OH226858   2.780   4.032   5.868
 8994TIP3    H126859   2.871   4.056   5.848
 8994TIP3    H226860   2.788   3.983   5.951
 8995TIP3   OH226861   2.925   3.713   4.017
 8995TIP3    H126862   2.901   3.668   3.934
 8995TIP3    H226863   2.893   3.804   3.994
 8996TIP3   OH226864   2.393   3.441   5.870
 8996TIP3    H126865   2.394   3.361   5.814
 8996TIP3    H226866   2.349   3.507   5.812
 8997TIP3   OH226867   2.396   3.225   5.675
 8997TIP3    H126868   2.423   3.269   5.592
 8997TIP3    H226869   2.302   3.204   5.657
 8998TIP3   OH226870   2.421   3.762   5.551
 8998TIP3    H126871   2.502   3.768   5.499
 8998TIP3    H226872   2.364   3.829   5.508
 8999TIP3   OH226873   3.006   3.730   5.934
 8999TIP3    H126874   3.058   3.650   5.943
 8999TIP3    H226875   3.071   3.794   5.900
 9000TIP3   OH226876   3.051   3.979   5.661
 9000TIP3    H126877   2.990   4.033   5.606
 9000TIP3    H226878   3.138   4.004   5.622
 9001TIP3   OH226879   2.270   3.554   6.100
 9001TIP3    H126880   2.201   3.485   6.112
 9001TIP3    H226881   2.306   3.531   6.013
 9002TIP3   OH226882   2.528   2.990   5.741
 9002TIP3    H126883   2.480   3.073   5.720
 9002TIP3    H226884   2.457   2.923   5.731
 9003TIP3   OH226885   2.656   3.495   5.959
 9003TIP3    H126886   2.646   3.486   6.055
 9003TIP3    H226887   2.565   3.474   5.930
 9004TIP3   OH226888   2.892   3.436   5.811
 9004TIP3    H126889   2.818   3.447   5.873
 9004TIP3    H226890   2.966   3.411   5.871
 9005TIP3   OH226891   3.123   3.385   5.965
 9005TIP3    H126892   3.134   3.289   5.985
 9005TIP3    H226893   3.118   3.425   6.054
 9006TIP3   OH226894   2.109   3.333   6.152
 9006TIP3    H126895   2.119   3.243   6.117
 9006TIP3    H226896   2.146   3.323   6.242
 9007TIP3   OH226897   2.623   3.001   5.999
 9007TIP3    H126898   2.691   2.930   5.994
 9007TIP3    H226899   2.583   2.994   5.910
 9008TIP3   OH226900   2.688   3.215   6.160
 9008TIP3    H126901   2.665   3.145   6.095
 9008TIP3    H226902   2.611   3.276   6.153
 9009TIP3   OH226903   1.908   4.444   4.258
 9009TIP3    H126904   2.004   4.440   4.241
 9009TIP3    H226905   1.880   4.494   4.179
 9010TIP3   OH226906   1.389   3.828   4.475
 9010TIP3    H126907   1.484   3.850   4.463
 9010TIP3    H226908   1.385   3.738   4.435
 9011TIP3   OH226909   1.302   4.439   4.890
 9011TIP3    H126910   1.236   4.375   4.855
 9011TIP3    H226911   1.347   4.382   4.957
 9012TIP3   OH226912   1.439   4.291   5.076
 9012TIP3    H126913   1.431   4.217   5.138
 9012TIP3    H226914   1.493   4.352   5.131
 9013TIP3   OH226915   3.181   4.696   4.888
 9013TIP3    H126916   3.206   4.765   4.951
 9013TIP3    H226917   3.217   4.732   4.806
 9014TIP3   OH226918   3.244   4.386   5.735
 9014TIP3    H126919   3.164   4.395   5.792
 9014TIP3    H226920   3.275   4.479   5.735
 9015TIP3   OH226921   3.059   3.900   4.351
 9015TIP3    H126922   3.128   3.964   4.324
 9015TIP3    H226923   3.101   3.861   4.431
 9016TIP3   OH226924   3.186   3.767   4.554
 9016TIP3    H126925   3.120   3.726   4.615
 9016TIP3    H226926   3.251   3.806   4.616
 9017TIP3   OH226927   3.238   4.154   4.987
 9017TIP3    H126928   3.292   4.091   4.936
 9017TIP3    H226929   3.218   4.223   4.921
 9018TIP3   OH226930   3.124   3.675   4.202
 9018TIP3    H126931   3.052   3.679   4.135
 9018TIP3    H226932   3.098   3.750   4.258
 9019TIP3   OH226933   2.996   3.347   4.156
 9019TIP3    H126934   2.952   3.389   4.081
 9019TIP3    H226935   2.970   3.254   4.144
 9020TIP3   OH226936   3.000   3.624   4.702
 9020TIP3    H126937   3.010   3.527   4.699
 9020TIP3    H226938   2.986   3.641   4.798
 9021TIP3   OH226939   1.627   3.699   5.448
 9021TIP3    H126940   1.626   3.670   5.354
 9021TIP3    H226941   1.724   3.700   5.465
 9022TIP3   OH226942   3.292   4.054   5.554
 9022TIP3    H126943   3.361   3.984   5.552
 9022TIP3    H226944   3.305   4.098   5.469
 9023TIP3   OH226945   3.473   3.856   5.575
 9023TIP3    H126946   3.400   3.804   5.615
 9023TIP3    H226947   3.547   3.793   5.589
 9024TIP3   OH226948   2.941   3.080   4.139
 9024TIP3    H126949   3.017   3.054   4.194
 9024TIP3    H226950   2.869   3.024   4.172
 9025TIP3   OH226951   2.995   3.339   4.597
 9025TIP3    H126952   3.036   3.250   4.612
 9025TIP3    H226953   3.055   3.374   4.529
 9026TIP3   OH226954   3.158   3.514   5.091
 9026TIP3    H126955   3.245   3.540   5.051
 9026TIP3    H226956   3.171   3.552   5.180
 9027TIP3   OH226957   3.225   3.657   5.323
 9027TIP3    H126958   3.148   3.692   5.372
 9027TIP3    H226959   3.258   3.738   5.278
 9028TIP3   OH226960   1.842   3.383   6.118
 9028TIP3    H126961   1.940   3.379   6.123
 9028TIP3    H226962   1.819   3.299   6.163
 9029TIP3   OH226963   3.678   3.248   5.880
 9029TIP3    H126964   3.737   3.182   5.837
 9029TIP3    H226965   3.651   3.304   5.805
 9030TIP3   OH226966   3.106   3.089   4.633
 9030TIP3    H126967   3.155   3.075   4.717
 9030TIP3    H226968   3.045   3.012   4.634
 9031TIP3   OH226969   1.805   3.076   5.452
 9031TIP3    H126970   1.868   3.002   5.464
 9031TIP3    H226971   1.866   3.151   5.447
 9032TIP3   OH226972   1.608   3.350   5.526
 9032TIP3    H126973   1.658   3.346   5.443
 9032TIP3    H226974   1.637   3.435   5.562
 9033TIP3   OH226975   3.551   3.390   5.687
 9033TIP3    H126976   3.465   3.430   5.711
 9033TIP3    H226977   3.520   3.319   5.627
 9034TIP3   OH226978   3.186   3.027   4.265
 9034TIP3    H126979   3.230   2.954   4.217
 9034TIP3    H226980   3.254   3.097   4.262
 9035TIP3   OH226981   1.591   2.851   5.026
 9035TIP3    H126982   1.498   2.851   5.054
 9035TIP3    H226983   1.589   2.911   4.948
 9036TIP3   OH226984   2.748   4.559   4.531
 9036TIP3    H126985   2.804   4.545   4.452
 9036TIP3    H226986   2.801   4.619   4.585
 9037TIP3   OH226987   1.811   2.932   5.841
 9037TIP3    H126988   1.762   2.928   5.925
 9037TIP3    H226989   1.744   2.972   5.782
 9038TIP3   OH226990   1.837   4.368   5.943
 9038TIP3    H126991   1.756   4.328   5.911
 9038TIP3    H226992   1.847   4.332   6.031
 9039TIP3   OH226993   3.449   3.152   5.563
 9039TIP3    H126994   3.357   3.148   5.531
 9039TIP3    H226995   3.478   3.059   5.551
 9040TIP3   OH226996   1.701   4.645   5.481
 9040TIP3    H126997   1.614   4.689   5.469
 9040TIP3    H226998   1.723   4.672   5.571
 9041TIP3   OH226999   1.946   4.646   5.339
 9041TIP3    H127000   1.864   4.636   5.389
 9041TIP3    H227001   1.917   4.673   5.251
 9042TIP3   OH227002   2.377   4.686   5.113
 9042TIP3    H127003   2.287   4.695   5.078
 9042TIP3    H227004   2.371   4.735   5.196
 9043TIP3   OH227005   2.632   4.587   5.151
 9043TIP3    H127006   2.538   4.599   5.174
 9043TIP3    H227007   2.658   4.677   5.136
 9044TIP3   OH227008   1.616   4.442   5.236
 9044TIP3    H127009   1.647   4.423   5.328
 9044TIP3    H227010   1.690   4.399   5.186
 9045TIP3   OH227011   1.810   4.315   5.089
 9045TIP3    H127012   1.826   4.231   5.138
 9045TIP3    H227013   1.901   4.352   5.086
 9046TIP3   OH227014   2.072   4.412   5.094
 9046TIP3    H127015   2.111   4.322   5.094
 9046TIP3    H227016   2.096   4.443   5.183
 9047TIP3   OH227017   2.651   3.065   5.176
 9047TIP3    H127018   2.609   2.998   5.233
 9047TIP3    H227019   2.727   3.017   5.139
 9048TIP3   OH227020   3.177   2.941   5.084
 9048TIP3    H127021   3.214   2.997   5.012
 9048TIP3    H227022   3.083   2.967   5.083
 9049TIP3   OH227023   3.272   3.048   4.850
 9049TIP3    H127024   3.346   2.997   4.811
 9049TIP3    H227025   3.305   3.139   4.836
 9050TIP3   OH227026   1.902   2.775   5.198
 9050TIP3    H127027   1.810   2.742   5.200
 9050TIP3    H227028   1.952   2.690   5.195
 9051TIP3   OH227029   1.686   2.645   4.845
 9051TIP3    H127030   1.717   2.704   4.774
 9051TIP3    H227031   1.658   2.709   4.913
 9052TIP3   OH227032   2.345   2.808   5.079
 9052TIP3    H127033   2.403   2.860   5.022
 9052TIP3    H227034   2.363   2.845   5.166
 9053TIP3   OH227035   2.892   2.954   5.065
 9053TIP3    H127036   2.892   2.918   4.976
 9053TIP3    H227037   2.878   2.873   5.119
 9054TIP3   OH227038   2.921   2.876   4.624
 9054TIP3    H127039   2.836   2.922   4.639
 9054TIP3    H227040   2.906   2.792   4.673
 9055TIP3   OH227041   1.406   4.214   4.627
 9055TIP3    H127042   1.321   4.182   4.592
 9055TIP3    H227043   1.395   4.309   4.612
 9056TIP3   OH227044   1.805   2.806   4.609
 9056TIP3    H127045   1.855   2.744   4.554
 9056TIP3    H227046   1.876   2.861   4.647
 9057TIP3   OH227047   2.320   2.978   4.709
 9057TIP3    H127048   2.381   2.935   4.773
 9057TIP3    H227049   2.338   3.072   4.733
 9058TIP3   OH227050   2.176   4.406   4.207
 9058TIP3    H127051   2.266   4.427   4.173
 9058TIP3    H227052   2.155   4.330   4.149
 9059TIP3   OH227053   2.898   4.523   4.300
 9059TIP3    H127054   2.888   4.425   4.289
 9059TIP3    H227055   2.851   4.555   4.221
 9060TIP3   OH227056   2.110   3.054   6.087
 9060TIP3    H127057   2.076   2.985   6.147
 9060TIP3    H227058   2.204   3.056   6.115
 9061TIP3   OH227059   2.358   3.053   6.208
 9061TIP3    H127060   2.444   3.029   6.171
 9061TIP3    H227061   2.346   2.983   6.276
 9062TIP3   OH227062   1.481   4.242   4.266
 9062TIP3    H127063   1.482   4.267   4.359
 9062TIP3    H227064   1.570   4.201   4.254
 9063TIP3   OH227065   3.183   3.113   5.997
 9063TIP3    H127066   3.202   3.083   6.088
 9063TIP3    H227067   3.272   3.110   5.956
 9064TIP3   OH227068   4.387   4.042   4.259
 9064TIP3    H127069   4.356   4.133   4.241
 9064TIP3    H227070   4.316   3.990   4.219
 9065TIP3   OH227071   4.384   4.041   4.637
 9065TIP3    H127072   4.418   4.011   4.723
 9065TIP3    H227073   4.345   3.959   4.602
 9066TIP3   OH227074   3.689   3.933   4.997
 9066TIP3    H127075   3.719   3.866   5.062
 9066TIP3    H227076   3.761   3.997   5.002
 9067TIP3   OH227077   4.622   4.354   4.305
 9067TIP3    H127078   4.619   4.280   4.367
 9067TIP3    H227079   4.655   4.427   4.363
 9068TIP3   OH227080   3.662   4.346   4.724
 9068TIP3    H127081   3.647   4.249   4.729
 9068TIP3    H227082   3.759   4.347   4.720
 9069TIP3   OH227083   3.366   3.548   4.511
 9069TIP3    H127084   3.319   3.631   4.528
 9069TIP3    H227085   3.294   3.494   4.474
 9070TIP3   OH227086   3.425   3.834   4.679
 9070TIP3    H127087   3.474   3.758   4.719
 9070TIP3    H227088   3.488   3.863   4.611
 9071TIP3   OH227089   4.271   4.804   4.329
 9071TIP3    H127090   4.324   4.729   4.295
 9071TIP3    H227091   4.270   4.787   4.425
 9072TIP3   OH227092   4.189   4.266   4.683
 9072TIP3    H127093   4.225   4.186   4.640
 9072TIP3    H227094   4.273   4.309   4.706
 9073TIP3   OH227095   5.200   3.586   4.682
 9073TIP3    H127096   5.228   3.669   4.725
 9073TIP3    H227097   5.218   3.606   4.589
 9074TIP3   OH227098   4.599   3.768   4.717
 9074TIP3    H127099   4.641   3.682   4.738
 9074TIP3    H227100   4.568   3.751   4.626
 9075TIP3   OH227101   3.936   3.426   4.682
 9075TIP3    H127102   3.916   3.499   4.620
 9075TIP3    H227103   3.887   3.353   4.638
 9076TIP3   OH227104   4.630   3.517   4.306
 9076TIP3    H127105   4.704   3.501   4.369
 9076TIP3    H227106   4.681   3.553   4.230
 9077TIP3   OH227107   3.570   3.629   4.788
 9077TIP3    H127108   3.653   3.610   4.837
 9077TIP3    H227109   3.584   3.572   4.709
 9078TIP3   OH227110   4.013   3.827   4.579
 9078TIP3    H127111   4.106   3.800   4.594
 9078TIP3    H227112   3.973   3.742   4.549
 9079TIP3   OH227113   5.274   3.794   4.851
 9079TIP3    H127114   5.190   3.841   4.831
 9079TIP3    H227115   5.284   3.816   4.945
 9080TIP3   OH227116   3.933   3.409   5.116
 9080TIP3    H127117   3.873   3.447   5.049
 9080TIP3    H227118   3.882   3.426   5.198
 9081TIP3   OH227119   4.290   4.270   4.113
 9081TIP3    H127120   4.228   4.226   4.052
 9081TIP3    H227121   4.236   4.348   4.141
 9082TIP3   OH227122   4.041   4.185   4.912
 9082TIP3    H127123   3.979   4.252   4.949
 9082TIP3    H227124   4.083   4.236   4.840
 9083TIP3   OH227125   4.843   3.518   4.476
 9083TIP3    H127126   4.831   3.471   4.559
 9083TIP3    H227127   4.896   3.595   4.503
 9084TIP3   OH227128   3.803   3.525   4.901
 9084TIP3    H127129   3.865   3.597   4.925
 9084TIP3    H227130   3.853   3.484   4.826
 9085TIP3   OH227131   3.872   4.391   4.987
 9085TIP3    H127132   3.816   4.454   4.940
 9085TIP3    H227133   3.806   4.364   5.056
 9086TIP3   OH227134   3.264   4.068   4.245
 9086TIP3    H127135   3.222   4.097   4.163
 9086TIP3    H227136   3.294   4.153   4.283
 9087TIP3   OH227137   4.689   4.568   4.464
 9087TIP3    H127138   4.608   4.574   4.519
 9087TIP3    H227139   4.706   4.662   4.446
 9088TIP3   OH227140   4.993   3.486   4.848
 9088TIP3    H127141   4.905   3.515   4.819
 9088TIP3    H227142   5.051   3.518   4.776
 9089TIP3   OH227143   4.290   3.129   4.829
 9089TIP3    H127144   4.278   3.034   4.847
 9089TIP3    H227145   4.213   3.167   4.876
 9090TIP3   OH227146   4.404   4.628   4.155
 9090TIP3    H127147   4.463   4.552   4.168
 9090TIP3    H227148   4.467   4.696   4.120
 9091TIP3   OH227149   4.538   4.372   4.047
 9091TIP3    H127150   4.476   4.313   4.095
 9091TIP3    H227151   4.606   4.380   4.118
 9092TIP3   OH227152   4.909   4.480   4.833
 9092TIP3    H127153   4.908   4.409   4.765
 9092TIP3    H227154   4.901   4.561   4.782
 9093TIP3   OH227155   4.223   3.896   4.086
 9093TIP3    H127156   4.140   3.939   4.058
 9093TIP3    H227157   4.268   3.883   4.001
 9094TIP3   OH227158   4.178   3.667   3.814
 9094TIP3    H127159   4.250   3.722   3.849
 9094TIP3    H227160   4.231   3.606   3.758
 9095TIP3   OH227161   5.124   4.130   4.673
 9095TIP3    H127162   5.040   4.181   4.677
 9095TIP3    H227163   5.155   4.154   4.583
 9096TIP3   OH227164   4.562   3.960   4.064
 9096TIP3    H127165   4.513   3.992   4.142
 9096TIP3    H227166   4.651   3.946   4.101
 9097TIP3   OH227167   4.802   4.013   4.968
 9097TIP3    H127168   4.800   4.095   5.020
 9097TIP3    H227169   4.716   4.019   4.923
 9098TIP3   OH227170   3.801   3.973   4.473
 9098TIP3    H127171   3.758   3.914   4.407
 9098TIP3    H227172   3.877   3.918   4.502
 9099TIP3   OH227173   3.935   4.387   4.621
 9099TIP3    H127174   3.909   4.340   4.541
 9099TIP3    H227175   4.023   4.348   4.640
 9100TIP3   OH227176   3.940   3.941   4.827
 9100TIP3    H127177   3.972   3.922   4.737
 9100TIP3    H227178   3.980   4.028   4.848
 9101TIP3   OH227179   4.461   4.585   4.612
 9101TIP3    H127180   4.439   4.656   4.673
 9101TIP3    H227181   4.448   4.504   4.666
 9102TIP3   OH227182   4.076   4.489   5.151
 9102TIP3    H127183   4.039   4.572   5.186
 9102TIP3    H227184   4.000   4.452   5.102
 9103TIP3   OH227185   4.406   3.832   3.882
 9103TIP3    H127186   4.467   3.888   3.936
 9103TIP3    H227187   4.433   3.858   3.791
 9104TIP3   OH227188   3.825   4.055   5.251
 9104TIP3    H127189   3.834   4.140   5.298
 9104TIP3    H227190   3.729   4.040   5.261
 9105TIP3   OH227191   4.151   4.507   4.157
 9105TIP3    H127192   4.224   4.567   4.180
 9105TIP3    H227193   4.085   4.568   4.122
 9106TIP3   OH227194   4.923   3.073   3.932
 9106TIP3    H127195   4.842   3.093   3.983
 9106TIP3    H227196   4.936   3.156   3.882
 9107TIP3   OH227197   3.665   3.814   4.280
 9107TIP3    H127198   3.599   3.858   4.222
 9107TIP3    H227199   3.625   3.728   4.294
 9108TIP3   OH227200   4.704   4.441   3.481
 9108TIP3    H127201   4.717   4.539   3.474
 9108TIP3    H227202   4.798   4.415   3.489
 9109TIP3   OH227203   3.472   4.184   5.151
 9109TIP3    H127204   3.388   4.163   5.106
 9109TIP3    H227205   3.490   4.103   5.204
 9110TIP3   OH227206   3.301   4.396   4.808
 9110TIP3    H127207   3.395   4.380   4.825
 9110TIP3    H227208   3.279   4.467   4.870
 9111TIP3   OH227209   4.040   4.762   3.954
 9111TIP3    H127210   3.985   4.742   3.876
 9111TIP3    H227211   4.003   4.848   3.984
 9112TIP3   OH227212   3.469   4.607   4.344
 9112TIP3    H127213   3.517   4.597   4.429
 9112TIP3    H227214   3.410   4.529   4.348
 9113TIP3   OH227215   4.237   4.653   3.599
 9113TIP3    H127216   4.300   4.586   3.566
 9113TIP3    H227217   4.268   4.668   3.690
 9114TIP3   OH227218   4.289   4.685   3.877
 9114TIP3    H127219   4.196   4.704   3.906
 9114TIP3    H227220   4.334   4.689   3.963
 9115TIP3   OH227221   5.057   3.973   5.149
 9115TIP3    H127222   4.974   3.988   5.101
 9115TIP3    H227223   5.070   3.877   5.137
 9116TIP3   OH227224   3.684   4.349   5.166
 9116TIP3    H127225   3.719   4.332   5.256
 9116TIP3    H227226   3.603   4.294   5.162
 9117TIP3   OH227227   4.051   3.205   4.958
 9117TIP3    H127228   3.961   3.174   4.933
 9117TIP3    H227229   4.027   3.287   5.004
 9118TIP3   OH227230   4.584   3.319   5.153
 9118TIP3    H127231   4.652   3.293   5.218
 9118TIP3    H227232   4.500   3.300   5.199
 9119TIP3   OH227233   4.826   3.750   5.073
 9119TIP3    H127234   4.776   3.745   5.157
 9119TIP3    H227235   4.800   3.837   5.037
 9120TIP3   OH227236   4.487   3.892   3.628
 9120TIP3    H127237   4.450   3.860   3.544
 9120TIP3    H227238   4.575   3.923   3.600
 9121TIP3   OH227239   4.195   3.253   3.929
 9121TIP3    H127240   4.164   3.250   4.021
 9121TIP3    H227241   4.157   3.170   3.896
 9122TIP3   OH227242   3.982   3.719   4.978
 9122TIP3    H127243   3.933   3.741   5.059
 9122TIP3    H227244   3.966   3.800   4.924
 9123TIP3   OH227245   3.867   3.606   4.491
 9123TIP3    H127246   3.774   3.580   4.509
 9123TIP3    H227247   3.880   3.566   4.402
 9124TIP3   OH227248   4.357   3.692   4.218
 9124TIP3    H127249   4.305   3.764   4.176
 9124TIP3    H227250   4.412   3.662   4.144
 9125TIP3   OH227251   4.530   3.966   5.300
 9125TIP3    H127252   4.511   3.896   5.366
 9125TIP3    H227253   4.620   3.992   5.326
 9126TIP3   OH227254   4.515   3.721   4.458
 9126TIP3    H127255   4.455   3.750   4.386
 9126TIP3    H227256   4.548   3.639   4.416
 9127TIP3   OH227257   3.801   3.749   5.187
 9127TIP3    H127258   3.828   3.813   5.253
 9127TIP3    H227259   3.790   3.667   5.239
 9128TIP3   OH227260   3.844   3.221   3.897
 9128TIP3    H127261   3.842   3.221   3.995
 9128TIP3    H227262   3.772   3.283   3.877
 9129TIP3   OH227263   3.395   3.271   4.765
 9129TIP3    H127264   3.469   3.304   4.821
 9129TIP3    H227265   3.441   3.239   4.686
 9130TIP3   OH227266   3.368   3.252   4.285
 9130TIP3    H127267   3.414   3.290   4.208
 9130TIP3    H227268   3.308   3.326   4.308
 9131TIP3   OH227269   4.522   3.968   4.880
 9131TIP3    H127270   4.557   3.895   4.823
 9131TIP3    H227271   4.496   3.916   4.959
 9132TIP3   OH227272   4.193   3.429   4.553
 9132TIP3    H127273   4.111   3.427   4.606
 9132TIP3    H227274   4.261   3.428   4.622
 9133TIP3   OH227275   3.629   3.484   4.561
 9133TIP3    H127276   3.534   3.491   4.534
 9133TIP3    H227277   3.652   3.392   4.538
 9134TIP3   OH227278   3.898   3.481   4.248
 9134TIP3    H127279   3.993   3.495   4.229
 9134TIP3    H227280   3.853   3.503   4.164
 9135TIP3   OH227281   4.686   3.504   4.753
 9135TIP3    H127282   4.653   3.516   4.845
 9135TIP3    H227283   4.620   3.442   4.718
 9136TIP3   OH227284   3.739   3.513   4.024
 9136TIP3    H127285   3.665   3.472   3.975
 9136TIP3    H227286   3.791   3.551   3.951
 9137TIP3   OH227287   3.818   4.298   5.401
 9137TIP3    H127288   3.897   4.330   5.448
 9137TIP3    H227289   3.752   4.301   5.472
 9138TIP3   OH227290   4.277   3.756   4.650
 9138TIP3    H127291   4.350   3.716   4.600
 9138TIP3    H227292   4.287   3.715   4.738
 9139TIP3   OH227293   3.800   3.245   4.527
 9139TIP3    H127294   3.768   3.165   4.573
 9139TIP3    H227295   3.854   3.207   4.456
 9140TIP3   OH227296   4.254   3.652   4.940
 9140TIP3    H127297   4.164   3.689   4.955
 9140TIP3    H227298   4.311   3.713   4.991
 9141TIP3   OH227299   3.989   4.047   4.033
 9141TIP3    H127300   3.919   3.980   4.021
 9141TIP3    H227301   3.971   4.078   4.125
 9142TIP3   OH227302   4.892   4.272   4.659
 9142TIP3    H127303   4.916   4.323   4.579
 9142TIP3    H227304   4.805   4.233   4.636
 9143TIP3   OH227305   4.450   3.353   3.901
 9143TIP3    H127306   4.353   3.339   3.904
 9143TIP3    H227307   4.459   3.450   3.914
 9144TIP3   OH227308   4.401   4.373   5.040
 9144TIP3    H127309   4.431   4.323   5.117
 9144TIP3    H227310   4.331   4.428   5.077
 9145TIP3   OH227311   4.518   3.604   4.002
 9145TIP3    H127312   4.614   3.612   4.016
 9145TIP3    H227313   4.498   3.681   3.945
 9146TIP3   OH227314   3.683   4.066   4.712
 9146TIP3    H127315   3.722   4.035   4.628
 9146TIP3    H227316   3.719   4.003   4.776
 9147TIP3   OH227317   4.141   4.202   3.864
 9147TIP3    H127318   4.087   4.285   3.867
 9147TIP3    H227319   4.084   4.141   3.915
 9148TIP3   OH227320   3.557   3.990   5.329
 9148TIP3    H127321   3.580   3.972   5.422
 9148TIP3    H227322   3.492   3.920   5.311
 9149TIP3   OH227323   4.288   4.094   5.344
 9149TIP3    H127324   4.232   4.034   5.292
 9149TIP3    H227325   4.378   4.065   5.316
 9150TIP3   OH227326   4.962   3.692   3.836
 9150TIP3    H127327   4.899   3.648   3.775
 9150TIP3    H227328   4.958   3.782   3.796
 9151TIP3   OH227329   4.654   4.141   4.584
 9151TIP3    H127330   4.561   4.115   4.596
 9151TIP3    H227331   4.690   4.062   4.539
 9152TIP3   OH227332   3.782   4.369   4.335
 9152TIP3    H127333   3.781   4.452   4.282
 9152TIP3    H227334   3.688   4.353   4.346
 9153TIP3   OH227335   3.345   3.674   4.036
 9153TIP3    H127336   3.392   3.757   4.058
 9153TIP3    H227337   3.269   3.679   4.099
 9154TIP3   OH227338   3.926   4.138   4.281
 9154TIP3    H127339   3.887   4.226   4.299
 9154TIP3    H227340   3.890   4.085   4.354
 9155TIP3   OH227341   3.704   4.608   4.189
 9155TIP3    H127342   3.617   4.616   4.234
 9155TIP3    H227343   3.735   4.702   4.192
 9156TIP3   OH227344   4.444   4.351   4.766
 9156TIP3    H127345   4.436   4.347   4.864
 9156TIP3    H227346   4.522   4.295   4.750
 9157TIP3   OH227347   4.730   4.711   3.452
 9157TIP3    H127348   4.810   4.767   3.453
 9157TIP3    H227349   4.664   4.776   3.481
 9158TIP3   OH227350   3.776   3.491   5.333
 9158TIP3    H127351   3.680   3.496   5.348
 9158TIP3    H227352   3.804   3.432   5.405
 9159TIP3   OH227353   3.780   4.220   3.645
 9159TIP3    H127354   3.796   4.129   3.616
 9159TIP3    H227355   3.762   4.207   3.740
 9160TIP3   OH227356   3.727   4.226   3.918
 9160TIP3    H127357   3.797   4.197   3.978
 9160TIP3    H227358   3.732   4.323   3.926
 9161TIP3   OH227359   3.463   3.918   4.120
 9161TIP3    H127360   3.397   3.963   4.178
 9161TIP3    H227361   3.478   3.988   4.054
 9162TIP3   OH227362   4.612   3.555   5.012
 9162TIP3    H127363   4.690   3.594   5.055
 9162TIP3    H227364   4.596   3.475   5.067
 9163TIP3   OH227365   4.491   3.308   4.178
 9163TIP3    H127366   4.477   3.331   4.084
 9163TIP3    H227367   4.529   3.391   4.213
 9164TIP3   OH227368   3.993   4.429   3.867
 9164TIP3    H127369   3.906   4.452   3.904
 9164TIP3    H227370   4.002   4.497   3.800
 9165TIP3   OH227371   4.181   3.486   4.280
 9165TIP3    H127372   4.246   3.557   4.261
 9165TIP3    H227373   4.187   3.480   4.378
 9166TIP3   OH227374   4.450   3.806   5.087
 9166TIP3    H127375   4.470   3.862   5.166
 9166TIP3    H227376   4.505   3.728   5.104
 9167TIP3   OH227377   4.326   3.215   4.383
 9167TIP3    H127378   4.320   3.291   4.443
 9167TIP3    H227379   4.386   3.251   4.314
 9168TIP3   OH227380   3.737   4.499   3.935
 9168TIP3    H127381   3.706   4.568   3.872
 9168TIP3    H227382   3.719   4.542   4.021
 9169TIP3   OH227383   3.836   3.212   4.174
 9169TIP3    H127384   3.835   3.303   4.210
 9169TIP3    H227385   3.932   3.193   4.182
 9170TIP3   OH227386   5.092   3.705   5.067
 9170TIP3    H127387   4.994   3.705   5.077
 9170TIP3    H227388   5.099   3.664   4.980
 9171TIP3   OH227389   4.741   3.901   4.458
 9171TIP3    H127390   4.666   3.840   4.470
 9171TIP3    H227391   4.813   3.854   4.505
 9172TIP3   OH227392   3.454   4.129   3.926
 9172TIP3    H127393   3.518   4.201   3.936
 9172TIP3    H227394   3.500   4.075   3.859
 9173TIP3   OH227395   3.398   3.404   4.059
 9173TIP3    H127396   3.400   3.502   4.055
 9173TIP3    H227397   3.311   3.385   4.023
 9174TIP3   OH227398   4.717   4.846   4.402
 9174TIP3    H127399   4.674   4.898   4.331
 9174TIP3    H227400   4.810   4.872   4.391
 9175TIP3   OH227401   3.786   3.125   4.935
 9175TIP3    H127402   3.755   3.091   4.848
 9175TIP3    H227403   3.776   3.046   4.992
 9176TIP3   OH227404   3.326   4.343   4.315
 9176TIP3    H127405   3.255   4.373   4.373
 9176TIP3    H227406   3.299   4.383   4.229
 9177TIP3   OH227407   3.945   4.423   3.560
 9177TIP3    H127408   3.887   4.352   3.597
 9177TIP3    H227409   4.019   4.370   3.526
 9178TIP3   OH227410   4.412   4.457   3.478
 9178TIP3    H127411   4.508   4.451   3.494
 9178TIP3    H227412   4.415   4.475   3.382
 9179TIP3   OH227413   3.611   4.285   5.585
 9179TIP3    H127414   3.638   4.191   5.588
 9179TIP3    H227415   3.515   4.278   5.597
 9180TIP3   OH227416   3.590   3.942   3.777
 9180TIP3    H127417   3.644   3.907   3.850
 9180TIP3    H227418   3.658   3.943   3.706
 9181TIP3   OH227419   4.214   4.363   5.362
 9181TIP3    H127420   4.174   4.387   5.277
 9181TIP3    H227421   4.247   4.272   5.349
 9182TIP3   OH227422   4.098   4.146   3.587
 9182TIP3    H127423   4.110   4.158   3.684
 9182TIP3    H227424   4.106   4.048   3.581
 9183TIP3   OH227425   4.707   4.362   4.969
 9183TIP3    H127426   4.779   4.412   4.925
 9183TIP3    H227427   4.635   4.426   4.972
 9184TIP3   OH227428   3.731   4.023   5.570
 9184TIP3    H127429   3.806   3.967   5.548
 9184TIP3    H227430   3.757   4.056   5.658
 9185TIP3   OH227431   3.801   3.845   4.001
 9185TIP3    H127432   3.774   3.801   4.083
 9185TIP3    H227433   3.835   3.771   3.947
 9186TIP3   OH227434   4.065   3.907   5.228
 9186TIP3    H127435   3.989   3.969   5.233
 9186TIP3    H227436   4.115   3.942   5.151
 9187TIP3   OH227437   3.899   3.637   3.839
 9187TIP3    H127438   3.882   3.626   3.743
 9187TIP3    H227439   3.997   3.642   3.838
 9188TIP3   OH227440   4.575   4.287   5.340
 9188TIP3    H127441   4.668   4.308   5.327
 9188TIP3    H227442   4.575   4.246   5.428
 9189TIP3   OH227443   4.723   3.964   3.503
 9189TIP3    H127444   4.700   3.920   3.419
 9189TIP3    H227445   4.697   4.057   3.478
 9190TIP3   OH227446   4.190   3.697   5.357
 9190TIP3    H127447   4.190   3.617   5.301
 9190TIP3    H227448   4.146   3.763   5.299
 9191TIP3   OH227449   4.192   3.483   5.162
 9191TIP3    H127450   4.219   3.525   5.078
 9191TIP3    H227451   4.098   3.461   5.144
 9192TIP3   OH227452   4.220   4.019   5.037
 9192TIP3    H127453   4.302   4.024   4.986
 9192TIP3    H227454   4.163   4.086   4.992
 9193TIP3   OH227455   4.802   3.987   5.421
 9193TIP3    H127456   4.852   3.905   5.428
 9193TIP3    H227457   4.867   4.048   5.384
 9194TIP3   OH227458   4.851   4.233   5.155
 9194TIP3    H127459   4.787   4.283   5.099
 9194TIP3    H227460   4.935   4.260   5.114
 9195TIP3   OH227461   4.067   3.811   5.586
 9195TIP3    H127462   3.998   3.743   5.600
 9195TIP3    H227463   4.102   3.785   5.499
 9196TIP3   OH227464   4.324   3.247   5.229
 9196TIP3    H127465   4.276   3.330   5.207
 9196TIP3    H227466   4.255   3.180   5.218
 9197TIP3   OH227467   4.452   3.751   5.447
 9197TIP3    H127468   4.440   3.741   5.543
 9197TIP3    H227469   4.361   3.727   5.417
 9198TIP3   OH227470   4.690   3.697   5.300
 9198TIP3    H127471   4.614   3.703   5.362
 9198TIP3    H227472   4.762   3.669   5.359
 9199TIP3   OH227473   4.922   3.642   5.452
 9199TIP3    H127474   4.932   3.546   5.472
 9199TIP3    H227475   4.915   3.682   5.542
 9200TIP3   OH227476   3.906   3.590   5.638
 9200TIP3    H127477   3.914   3.499   5.604
 9200TIP3    H227478   3.942   3.579   5.728
 9201TIP3   OH227479   4.419   3.257   5.486
 9201TIP3    H127480   4.487   3.187   5.481
 9201TIP3    H227481   4.379   3.251   5.397
 9202TIP3   OH227482   4.485   3.472   5.647
 9202TIP3    H127483   4.462   3.402   5.582
 9202TIP3    H227484   4.407   3.532   5.640
 9203TIP3   OH227485   3.704   4.701   3.747
 9203TIP3    H127486   3.800   4.698   3.727
 9203TIP3    H227487   3.673   4.749   3.668
 9204TIP3   OH227488   3.185   4.084   3.962
 9204TIP3    H127489   3.280   4.106   3.950
 9204TIP3    H227490   3.180   3.994   3.922
 9205TIP3   OH227491   3.100   4.695   4.376
 9205TIP3    H127492   3.032   4.634   4.341
 9205TIP3    H227493   3.143   4.638   4.443
 9206TIP3   OH227494   3.234   4.547   4.563
 9206TIP3    H127495   3.225   4.472   4.625
 9206TIP3    H227496   3.290   4.606   4.617
 9207TIP3   OH227497   4.977   4.949   4.382
 9207TIP3    H127498   4.987   5.033   4.431
 9207TIP3    H227499   5.009   4.977   4.295
 9208TIP3   OH227500   5.044   4.641   5.225
 9208TIP3    H127501   4.966   4.651   5.284
 9208TIP3    H227502   5.080   4.732   5.224
 9209TIP3   OH227503   4.862   4.154   3.830
 9209TIP3    H127504   4.928   4.223   3.808
 9209TIP3    H227505   4.899   4.118   3.913
 9210TIP3   OH227506   4.984   4.024   4.042
 9210TIP3    H127507   4.916   3.982   4.100
 9210TIP3    H227508   5.045   4.064   4.106
 9211TIP3   OH227509   5.031   4.411   4.470
 9211TIP3    H127510   5.087   4.349   4.421
 9211TIP3    H227511   5.029   4.489   4.411
 9212TIP3   OH227512   4.922   3.928   3.688
 9212TIP3    H127513   4.849   3.932   3.621
 9212TIP3    H227514   4.897   4.006   3.742
 9213TIP3   OH227515   4.794   3.603   3.643
 9213TIP3    H127516   4.750   3.644   3.568
 9213TIP3    H227517   4.766   3.510   3.632
 9214TIP3   OH227518   4.800   3.881   4.190
 9214TIP3    H127519   4.804   3.784   4.182
 9214TIP3    H227520   4.784   3.894   4.286
 9215TIP3   OH227521   3.423   3.950   4.933
 9215TIP3    H127522   3.423   3.922   4.840
 9215TIP3    H227523   3.519   3.955   4.951
 9216TIP3   OH227524   5.086   4.312   5.043
 9216TIP3    H127525   5.161   4.250   5.029
 9216TIP3    H227526   5.086   4.368   4.964
 9217TIP3   OH227527   5.272   4.113   5.063
 9217TIP3    H127528   5.196   4.065   5.102
 9217TIP3    H227529   5.343   4.048   5.078
 9218TIP3   OH227530   4.736   3.337   3.627
 9218TIP3    H127531   4.810   3.308   3.685
 9218TIP3    H227532   4.661   3.282   3.654
 9219TIP3   OH227533   4.793   3.597   4.085
 9219TIP3    H127534   4.834   3.508   4.100
 9219TIP3    H227535   4.851   3.630   4.014
 9220TIP3   OH227536   4.955   3.771   4.578
 9220TIP3    H127537   5.042   3.797   4.538
 9220TIP3    H227538   4.968   3.808   4.668
 9221TIP3   OH227539   5.022   3.913   4.811
 9221TIP3    H127540   4.945   3.948   4.860
 9221TIP3    H227541   5.055   3.994   4.766
 9222TIP3   OH227542   3.639   3.641   5.607
 9222TIP3    H127543   3.737   3.636   5.610
 9222TIP3    H227544   3.615   3.557   5.650
 9223TIP3   OH227545   5.475   3.506   5.366
 9223TIP3    H127546   5.533   3.440   5.324
 9223TIP3    H227547   5.447   3.561   5.290
 9224TIP3   OH227548   4.903   3.346   4.120
 9224TIP3    H127549   4.950   3.330   4.205
 9224TIP3    H227550   4.841   3.270   4.119
 9225TIP3   OH227551   3.601   3.332   4.939
 9225TIP3    H127552   3.664   3.259   4.951
 9225TIP3    H227553   3.662   3.408   4.934
 9226TIP3   OH227554   3.405   3.606   5.014
 9226TIP3    H127555   3.455   3.603   4.930
 9226TIP3    H227556   3.429   3.693   5.047
 9227TIP3   OH227557   5.347   3.647   5.171
 9227TIP3    H127558   5.261   3.687   5.196
 9227TIP3    H227559   5.316   3.575   5.113
 9228TIP3   OH227560   4.984   3.282   3.754
 9228TIP3    H127561   5.023   3.210   3.701
 9228TIP3    H227562   5.051   3.353   3.746
 9229TIP3   OH227563   3.387   3.106   4.512
 9229TIP3    H127564   3.295   3.108   4.542
 9229TIP3    H227565   3.385   3.167   4.435
 9230TIP3   OH227566   4.546   4.809   4.016
 9230TIP3    H127567   4.598   4.795   3.933
 9230TIP3    H227568   4.599   4.877   4.061
 9231TIP3   OH227569   3.607   3.189   5.328
 9231TIP3    H127570   3.558   3.185   5.412
 9231TIP3    H227571   3.540   3.229   5.269
 9232TIP3   OH227572   5.245   3.409   5.049
 9232TIP3    H127573   5.153   3.404   5.017
 9232TIP3    H227574   5.274   3.315   5.038
 9233TIP3   OH227575   4.157   4.910   4.622
 9233TIP3    H127576   4.093   4.950   4.561
 9233TIP3    H227577   4.199   4.987   4.663
 9234TIP3   OH227578   4.602   5.063   4.585
 9234TIP3    H127579   4.614   5.149   4.540
 9234TIP3    H227580   4.628   4.997   4.519
 9235TIP3   OH227581   3.414   4.703   4.715
 9235TIP3    H127582   3.447   4.700   4.806
 9235TIP3    H227583   3.486   4.655   4.668
 9236TIP3   OH227584   3.605   4.569   4.577
 9236TIP3    H127585   3.623   4.485   4.625
 9236TIP3    H227586   3.696   4.606   4.568
 9237TIP3   OH227587   3.868   4.661   4.571
 9237TIP3    H127588   3.903   4.570   4.564
 9237TIP3    H227589   3.913   4.693   4.650
 9238TIP3   OH227590   4.448   3.323   4.667
 9238TIP3    H127591   4.405   3.254   4.721
 9238TIP3    H227592   4.521   3.274   4.625
 9239TIP3   OH227593   4.974   3.203   4.575
 9239TIP3    H127594   5.009   3.256   4.500
 9239TIP3    H227595   4.878   3.221   4.568
 9240TIP3   OH227596   5.068   3.304   4.338
 9240TIP3    H127597   5.141   3.253   4.297
 9240TIP3    H227598   5.100   3.396   4.323
 9241TIP3   OH227599   3.698   3.032   4.685
 9241TIP3    H127600   3.606   2.998   4.687
 9241TIP3    H227601   3.748   2.947   4.683
 9242TIP3   OH227602   3.479   2.901   4.330
 9242TIP3    H127603   3.513   2.960   4.261
 9242TIP3    H227604   3.454   2.966   4.400
 9243TIP3   OH227605   4.140   3.065   4.566
 9243TIP3    H127606   4.199   3.115   4.507
 9243TIP3    H227607   4.163   3.102   4.652
 9244TIP3   OH227608   4.690   3.211   4.550
 9244TIP3    H127609   4.686   3.175   4.461
 9244TIP3    H227610   4.676   3.130   4.605
 9245TIP3   OH227611   4.718   3.133   4.112
 9245TIP3    H127612   4.632   3.176   4.122
 9245TIP3    H227613   4.703   3.049   4.159
 9246TIP3   OH227614   3.203   4.471   4.113
 9246TIP3    H127615   3.117   4.438   4.079
 9246TIP3    H227616   3.191   4.566   4.099
 9247TIP3   OH227617   3.601   3.062   4.096
 9247TIP3    H127618   3.652   3.000   4.040
 9247TIP3    H227619   3.673   3.117   4.134
 9248TIP3   OH227620   4.114   3.235   4.196
 9248TIP3    H127621   4.175   3.190   4.256
 9248TIP3    H227622   4.135   3.328   4.220
 9249TIP3   OH227623   3.973   4.661   3.692
 9249TIP3    H127624   4.059   4.685   3.654
 9249TIP3    H227625   3.950   4.586   3.633
 9250TIP3   OH227626   4.679   4.755   3.782
 9250TIP3    H127627   4.758   4.702   3.755
 9250TIP3    H227628   4.651   4.794   3.697
 9251TIP3   OH227629   3.906   3.312   5.575
 9251TIP3    H127630   3.872   3.243   5.634
 9251TIP3    H227631   4.001   3.313   5.603
 9252TIP3   OH227632   4.154   3.310   5.695
 9252TIP3    H127633   4.240   3.284   5.657
 9252TIP3    H227634   4.142   3.240   5.763
 9253TIP3   OH227635   3.278   4.499   3.752
 9253TIP3    H127636   3.276   4.524   3.846
 9253TIP3    H227637   3.367   4.458   3.742
 9254TIP3   OH227638   4.979   3.370   5.484
 9254TIP3    H127639   4.998   3.339   5.575
 9254TIP3    H227640   5.068   3.366   5.442
 9255TIP3   OH227641   6.184   4.295   3.745
 9255TIP3    H127642   6.157   4.387   3.723
 9255TIP3    H227643   6.109   4.246   3.707
 9256TIP3   OH227644   6.183   4.298   4.123
 9256TIP3    H127645   6.214   4.260   4.207
 9256TIP3    H227646   6.141   4.222   4.080
 9257TIP3   OH227647   5.486   4.184   4.476
 9257TIP3    H127648   5.515   4.121   4.544
 9257TIP3    H227649   5.547   4.257   4.491
 9258TIP3   OH227650   6.427   4.598   3.802
 9258TIP3    H127651   6.414   4.531   3.870
 9258TIP3    H227652   6.455   4.676   3.854
 9259TIP3   OH227653   5.461   4.604   4.218
 9259TIP3    H127654   5.447   4.507   4.221
 9259TIP3    H227655   5.557   4.606   4.201
 9260TIP3   OH227656   5.163   3.805   3.999
 9260TIP3    H127657   5.113   3.888   4.013
 9260TIP3    H227658   5.093   3.750   3.961
 9261TIP3   OH227659   5.225   4.093   4.167
 9261TIP3    H127660   5.272   4.015   4.204
 9261TIP3    H227661   5.278   4.113   4.089
 9262TIP3   OH227662   6.072   5.060   3.817
 9262TIP3    H127663   6.122   4.987   3.774
 9262TIP3    H227664   6.080   5.037   3.911
 9263TIP3   OH227665   5.983   4.523   4.173
 9263TIP3    H127666   6.017   4.446   4.123
 9263TIP3    H227667   6.068   4.568   4.191
 9264TIP3   OH227668   6.996   3.841   4.169
 9264TIP3    H127669   7.024   3.925   4.211
 9264TIP3    H227670   7.015   3.860   4.076
 9265TIP3   OH227671   6.395   4.024   4.205
 9265TIP3    H127672   6.437   3.938   4.223
 9265TIP3    H227673   6.364   4.010   4.113
 9266TIP3   OH227674   5.734   3.683   4.169
 9266TIP3    H127675   5.711   3.755   4.107
 9266TIP3    H227676   5.686   3.609   4.126
 9267TIP3   OH227677   6.427   3.774   3.793
 9267TIP3    H127678   6.502   3.759   3.856
 9267TIP3    H227679   6.476   3.809   3.716
 9268TIP3   OH227680   5.366   3.885   4.275
 9268TIP3    H127681   5.448   3.865   4.323
 9268TIP3    H227682   5.378   3.828   4.196
 9269TIP3   OH227683   5.808   4.083   4.065
 9269TIP3    H127684   5.901   4.056   4.080
 9269TIP3    H227685   5.767   3.999   4.035
 9270TIP3   OH227686   7.070   4.048   4.340
 9270TIP3    H127687   6.987   4.097   4.318
 9270TIP3    H227688   7.084   4.077   4.431
 9271TIP3   OH227689   5.730   3.666   4.604
 9271TIP3    H127690   5.670   3.703   4.536
 9271TIP3    H227691   5.678   3.683   4.685
 9272TIP3   OH227692   6.077   4.516   3.613
 9272TIP3    H127693   6.035   4.496   3.529
 9272TIP3    H227694   6.034   4.601   3.636
 9273TIP3   OH227695   5.838   4.444   4.405
 9273TIP3    H127696   5.773   4.506   4.443
 9273TIP3    H227697   5.873   4.494   4.328
 9274TIP3   OH227698   6.639   3.773   3.964
 9274TIP3    H127699   6.631   3.729   4.049
 9274TIP3    H227700   6.693   3.851   3.987
 9275TIP3   OH227701   5.601   3.781   4.388
 9275TIP3    H127702   5.663   3.854   4.410
 9275TIP3    H227703   5.649   3.740   4.312
 9276TIP3   OH227704   5.652   4.630   4.504
 9276TIP3    H127705   5.612   4.706   4.458
 9276TIP3    H227706   5.575   4.594   4.551
 9277TIP3   OH227707   5.061   4.322   3.725
 9277TIP3    H127708   5.010   4.334   3.643
 9277TIP3    H227709   5.051   4.414   3.759
 9278TIP3   OH227710   6.488   4.832   3.954
 9278TIP3    H127711   6.399   4.828   3.997
 9278TIP3    H227712   6.486   4.923   3.918
 9279TIP3   OH227713   6.788   3.741   4.335
 9279TIP3    H127714   6.701   3.771   4.304
 9279TIP3    H227715   6.848   3.774   4.264
 9280TIP3   OH227716   6.089   3.384   4.321
 9280TIP3    H127717   6.070   3.289   4.336
 9280TIP3    H227718   6.010   3.424   4.364
 9281TIP3   OH227719   6.201   4.887   3.647
 9281TIP3    H127720   6.251   4.805   3.625
 9281TIP3    H227721   6.261   4.953   3.605
 9282TIP3   OH227722   6.344   4.673   3.550
 9282TIP3    H127723   6.308   4.593   3.509
 9282TIP3    H227724   6.379   4.638   3.635
 9283TIP3   OH227725   6.731   4.739   4.329
 9283TIP3    H127726   6.721   4.675   4.256
 9283TIP3    H227727   6.721   4.824   4.281
 9284TIP3   OH227728   6.017   4.148   3.573
 9284TIP3    H127729   5.936   4.199   3.551
 9284TIP3    H227730   6.062   4.145   3.487
 9285TIP3   OH227731   5.975   3.931   3.291
 9285TIP3    H127732   6.043   3.983   3.337
 9285TIP3    H227733   6.032   3.867   3.242
 9286TIP3   OH227734   6.919   4.388   4.162
 9286TIP3    H127735   6.836   4.440   4.164
 9286TIP3    H227736   6.950   4.410   4.071
 9287TIP3   OH227737   6.361   4.230   3.545
 9287TIP3    H127738   6.308   4.255   3.624
 9287TIP3    H227739   6.446   4.205   3.588
 9288TIP3   OH227740   6.599   4.268   4.455
 9288TIP3    H127741   6.599   4.353   4.502
 9288TIP3    H227742   6.513   4.272   4.409
 9289TIP3   OH227743   5.594   4.228   3.961
 9289TIP3    H127744   5.552   4.171   3.893
 9289TIP3    H227745   5.672   4.174   3.987
 9290TIP3   OH227746   5.726   4.638   4.111
 9290TIP3    H127747   5.702   4.601   4.025
 9290TIP3    H227748   5.816   4.601   4.125
 9291TIP3   OH227749   5.748   4.195   4.317
 9291TIP3    H127750   5.768   4.180   4.222
 9291TIP3    H227751   5.777   4.287   4.332
 9292TIP3   OH227752   6.255   4.830   4.085
 9292TIP3    H127753   6.240   4.922   4.117
 9292TIP3    H227754   6.237   4.773   4.161
 9293TIP3   OH227755   5.869   4.729   4.649
 9293TIP3    H127756   5.849   4.823   4.659
 9293TIP3    H227757   5.790   4.697   4.602
 9294TIP3   OH227758   6.204   4.087   3.370
 9294TIP3    H127759   6.263   4.147   3.422
 9294TIP3    H227760   6.230   4.112   3.278
 9295TIP3   OH227761   5.619   4.302   4.726
 9295TIP3    H127762   5.634   4.384   4.779
 9295TIP3    H227763   5.522   4.292   4.741
 9296TIP3   OH227764   5.946   4.768   3.649
 9296TIP3    H127765   6.024   4.824   3.666
 9296TIP3    H227766   5.885   4.830   3.607
 9297TIP3   OH227767   6.721   3.330   3.421
 9297TIP3    H127768   6.639   3.351   3.468
 9297TIP3    H227769   6.735   3.411   3.368
 9298TIP3   OH227770   5.461   4.071   3.767
 9298TIP3    H127771   5.397   4.118   3.710
 9298TIP3    H227772   5.417   3.986   3.778
 9299TIP3   OH227773   6.518   4.697   2.965
 9299TIP3    H127774   6.528   4.794   2.953
 9299TIP3    H227775   6.610   4.667   2.954
 9300TIP3   OH227776   5.292   4.414   4.605
 9300TIP3    H127777   5.199   4.403   4.580
 9300TIP3    H227778   5.303   4.351   4.679
 9301TIP3   OH227779   5.093   4.643   4.317
 9301TIP3    H127780   5.189   4.641   4.305
 9301TIP3    H227781   5.075   4.734   4.345
 9302TIP3   OH227782   5.829   5.015   3.447
 9302TIP3    H127783   5.781   4.995   3.365
 9302TIP3    H227784   5.795   5.103   3.472
 9303TIP3   OH227785   5.260   4.858   3.821
 9303TIP3    H127786   5.295   4.840   3.911
 9303TIP3    H227787   5.185   4.796   3.816
 9304TIP3   OH227788   6.030   4.915   3.088
 9304TIP3    H127789   6.089   4.845   3.053
 9304TIP3    H227790   6.063   4.924   3.180
 9305TIP3   OH227791   6.080   4.963   3.358
 9305TIP3    H127792   5.991   4.973   3.399
 9305TIP3    H227793   6.129   4.921   3.431
 9306TIP3   OH227794   6.854   4.231   4.635
 9306TIP3    H127795   6.773   4.244   4.584
 9306TIP3    H227796   6.868   4.135   4.625
 9307TIP3   OH227797   5.848   3.463   4.443
 9307TIP3    H127798   5.759   3.430   4.418
 9307TIP3    H227799   5.822   3.544   4.490
 9308TIP3   OH227800   6.381   3.576   4.640
 9308TIP3    H127801   6.447   3.548   4.706
 9308TIP3    H227802   6.296   3.556   4.685
 9309TIP3   OH227803   6.620   4.003   4.558
 9309TIP3    H127804   6.572   4.004   4.644
 9309TIP3    H227805   6.599   4.091   4.521
 9310TIP3   OH227806   6.280   4.138   3.115
 9310TIP3    H127807   6.248   4.111   3.027
 9310TIP3    H227808   6.364   4.182   3.092
 9311TIP3   OH227809   5.993   3.510   3.416
 9311TIP3    H127810   5.959   3.507   3.508
 9311TIP3    H227811   5.954   3.427   3.382
 9312TIP3   OH227812   5.782   3.975   4.468
 9312TIP3    H127813   5.725   3.995   4.546
 9312TIP3    H227814   5.766   4.055   4.412
 9313TIP3   OH227815   5.663   3.862   3.978
 9313TIP3    H127816   5.570   3.838   3.995
 9313TIP3    H227817   5.676   3.823   3.889
 9314TIP3   OH227818   6.154   3.949   3.706
 9314TIP3    H127819   6.101   4.020   3.664
 9314TIP3    H227820   6.208   3.919   3.630
 9315TIP3   OH227821   6.334   4.244   4.860
 9315TIP3    H127822   6.312   4.152   4.888
 9315TIP3    H227823   6.432   4.236   4.848
 9316TIP3   OH227824   6.311   3.978   3.945
 9316TIP3    H127825   6.252   4.009   3.874
 9316TIP3    H227826   6.344   3.897   3.902
 9317TIP3   OH227827   5.603   4.004   4.675
 9317TIP3    H127828   5.607   4.073   4.743
 9317TIP3    H227829   5.587   3.924   4.727
 9318TIP3   OH227830   5.648   3.483   3.383
 9318TIP3    H127831   5.638   3.480   3.480
 9318TIP3    H227832   5.569   3.535   3.358
 9319TIP3   OH227833   5.190   3.528   4.254
 9319TIP3    H127834   5.267   3.559   4.306
 9319TIP3    H227835   5.230   3.495   4.172
 9320TIP3   OH227836   5.166   3.510   3.773
 9320TIP3    H127837   5.211   3.549   3.695
 9320TIP3    H227838   5.104   3.582   3.794
 9321TIP3   OH227839   6.322   4.225   4.369
 9321TIP3    H127840   6.356   4.155   4.308
 9321TIP3    H227841   6.293   4.170   4.444
 9322TIP3   OH227842   5.991   3.682   4.041
 9322TIP3    H127843   5.905   3.682   4.088
 9322TIP3    H227844   6.054   3.689   4.114
 9323TIP3   OH227845   5.424   3.740   4.048
 9323TIP3    H127846   5.330   3.749   4.021
 9323TIP3    H227847   5.445   3.648   4.024
 9324TIP3   OH227848   5.696   3.738   3.735
 9324TIP3    H127849   5.788   3.753   3.711
 9324TIP3    H227850   5.646   3.760   3.653
 9325TIP3   OH227851   6.481   3.759   4.244
 9325TIP3    H127852   6.444   3.773   4.334
 9325TIP3    H227853   6.414   3.699   4.206
 9326TIP3   OH227854   5.536   3.768   3.516
 9326TIP3    H127855   5.462   3.726   3.469
 9326TIP3    H227856   5.586   3.805   3.441
 9327TIP3   OH227857   5.639   4.520   4.891
 9327TIP3    H127858   5.704   4.568   4.946
 9327TIP3    H227859   5.572   4.495   4.955
 9328TIP3   OH227860   6.074   4.012   4.138
 9328TIP3    H127861   6.146   3.973   4.086
 9328TIP3    H227862   6.084   3.968   4.224
 9329TIP3   OH227863   5.600   3.500   4.016
 9329TIP3    H127864   5.563   3.421   4.061
 9329TIP3    H227865   5.643   3.461   3.938
 9330TIP3   OH227866   6.049   3.907   4.426
 9330TIP3    H127867   5.959   3.941   4.439
 9330TIP3    H227868   6.105   3.969   4.476
 9331TIP3   OH227869   5.788   4.301   3.523
 9331TIP3    H127870   5.716   4.235   3.511
 9331TIP3    H227871   5.769   4.334   3.614
 9332TIP3   OH227872   6.687   4.532   4.151
 9332TIP3    H127873   6.710   4.582   4.070
 9332TIP3    H227874   6.600   4.493   4.127
 9333TIP3   OH227875   6.246   3.611   3.388
 9333TIP3    H127876   6.149   3.596   3.391
 9333TIP3    H227877   6.255   3.707   3.406
 9334TIP3   OH227878   6.200   4.645   4.534
 9334TIP3    H127879   6.198   4.579   4.605
 9334TIP3    H227880   6.117   4.692   4.549
 9335TIP3   OH227881   6.315   3.861   3.488
 9335TIP3    H127882   6.412   3.867   3.500
 9335TIP3    H227883   6.296   3.939   3.432
 9336TIP3   OH227884   5.486   4.328   4.201
 9336TIP3    H127885   5.518   4.293   4.116
 9336TIP3    H227886   5.506   4.257   4.263
 9337TIP3   OH227887   5.932   4.450   3.343
 9337TIP3    H127888   5.884   4.537   3.349
 9337TIP3    H227889   5.877   4.395   3.403
 9338TIP3   OH227890   5.357   4.243   4.815
 9338TIP3    H127891   5.382   4.233   4.910
 9338TIP3    H227892   5.287   4.176   4.806
 9339TIP3   OH227893   6.085   4.360   4.833
 9339TIP3    H127894   6.009   4.306   4.804
 9339TIP3    H227895   6.158   4.310   4.792
 9340TIP3   OH227896   6.758   3.947   3.326
 9340TIP3    H127897   6.692   3.903   3.266
 9340TIP3    H227898   6.753   4.036   3.284
 9341TIP3   OH227899   6.459   4.769   3.231
 9341TIP3    H127900   6.432   4.700   3.294
 9341TIP3    H227901   6.468   4.720   3.148
 9342TIP3   OH227902   6.450   4.396   4.077
 9342TIP3    H127903   6.356   4.370   4.083
 9342TIP3    H227904   6.487   4.320   4.027
 9343TIP3   OH227905   5.581   4.628   3.827
 9343TIP3    H127906   5.582   4.709   3.772
 9343TIP3    H227907   5.486   4.608   3.825
 9344TIP3   OH227908   5.144   3.931   3.525
 9344TIP3    H127909   5.188   4.016   3.545
 9344TIP3    H227910   5.066   3.936   3.585
 9345TIP3   OH227911   5.720   4.393   3.769
 9345TIP3    H127912   5.685   4.483   3.787
 9345TIP3    H227913   5.680   4.343   3.842
 9346TIP3   OH227914   5.501   4.863   3.677
 9346TIP3    H127915   5.414   4.870   3.720
 9346TIP3    H227916   5.531   4.957   3.679
 9347TIP3   OH227917   6.241   4.610   4.260
 9347TIP3    H127918   6.240   4.599   4.357
 9347TIP3    H227919   6.314   4.551   4.232
 9348TIP3   OH227920   6.211   4.498   3.132
 9348TIP3    H127921   6.264   4.473   3.212
 9348TIP3    H227922   6.123   4.470   3.161
 9349TIP3   OH227923   6.552   4.974   2.951
 9349TIP3    H127924   6.588   5.051   2.904
 9349TIP3    H227925   6.471   5.015   2.987
 9350TIP3   OH227926   5.571   3.748   4.821
 9350TIP3    H127927   5.474   3.753   4.833
 9350TIP3    H227928   5.596   3.686   4.891
 9351TIP3   OH227929   6.371   4.433   3.351
 9351TIP3    H127930   6.361   4.365   3.420
 9351TIP3    H227931   6.468   4.430   3.337
 9352TIP3   OH227932   5.579   4.478   3.130
 9352TIP3    H127933   5.592   4.385   3.102
 9352TIP3    H227934   5.560   4.466   3.226
 9353TIP3   OH227935   5.527   4.482   3.402
 9353TIP3    H127936   5.594   4.455   3.466
 9353TIP3    H227937   5.529   4.579   3.410
 9354TIP3   OH227938   5.262   4.177   3.607
 9354TIP3    H127939   5.196   4.222   3.664
 9354TIP3    H227940   5.271   4.246   3.538
 9355TIP3   OH227941   6.404   3.816   4.505
 9355TIP3    H127942   6.489   3.849   4.537
 9355TIP3    H227943   6.392   3.733   4.555
 9356TIP3   OH227944   6.287   3.565   3.665
 9356TIP3    H127945   6.271   3.585   3.571
 9356TIP3    H227946   6.325   3.649   3.698
 9357TIP3   OH227947   5.790   4.681   3.354
 9357TIP3    H127948   5.703   4.707   3.390
 9357TIP3    H227949   5.805   4.752   3.291
 9358TIP3   OH227950   5.981   3.741   3.767
 9358TIP3    H127951   6.044   3.814   3.748
 9358TIP3    H227952   5.983   3.738   3.865
 9359TIP3   OH227953   6.249   4.060   4.573
 9359TIP3    H127954   6.250   4.090   4.665
 9359TIP3    H227955   6.301   3.978   4.577
 9360TIP3   OH227956   6.125   3.474   3.874
 9360TIP3    H127957   6.107   3.555   3.925
 9360TIP3    H227958   6.183   3.509   3.803
 9361TIP3   OH227959   5.533   4.755   3.421
 9361TIP3    H127960   5.502   4.824   3.358
 9361TIP3    H227961   5.515   4.798   3.507
 9362TIP3   OH227962   5.632   3.468   3.661
 9362TIP3    H127963   5.630   3.560   3.694
 9362TIP3    H227964   5.729   3.450   3.667
 9363TIP3   OH227965   6.888   3.962   4.556
 9363TIP3    H127966   6.790   3.959   4.563
 9363TIP3    H227967   6.900   3.926   4.467
 9364TIP3   OH227968   6.538   4.157   3.946
 9364TIP3    H127969   6.462   4.097   3.955
 9364TIP3    H227970   6.610   4.109   3.992
 9365TIP3   OH227971   5.246   4.382   3.415
 9365TIP3    H127972   5.301   4.461   3.426
 9365TIP3    H227973   5.298   4.335   3.347
 9366TIP3   OH227974   5.196   3.661   3.547
 9366TIP3    H127975   5.194   3.759   3.543
 9366TIP3    H227976   5.111   3.639   3.507
 9367TIP3   OH227977   6.510   5.099   3.883
 9367TIP3    H127978   6.465   5.153   3.814
 9367TIP3    H227979   6.603   5.121   3.864
 9368TIP3   OH227980   5.585   3.381   4.420
 9368TIP3    H127981   5.551   3.348   4.335
 9368TIP3    H227982   5.573   3.303   4.479
 9369TIP3   OH227983   5.742   4.682   3.046
 9369TIP3    H127984   5.684   4.611   3.083
 9369TIP3    H227985   5.816   4.628   3.014
 9370TIP3   OH227986   6.179   4.723   2.957
 9370TIP3    H127987   6.220   4.656   3.016
 9370TIP3    H227988   6.237   4.720   2.878
 9371TIP3   OH227989   5.386   4.199   3.263
 9371TIP3    H127990   5.439   4.166   3.337
 9371TIP3    H227991   5.455   4.202   3.193
 9372TIP3   OH227992   6.025   4.630   4.846
 9372TIP3    H127993   5.966   4.655   4.771
 9372TIP3    H227994   6.031   4.533   4.836
 9373TIP3   OH227995   5.895   4.397   3.073
 9373TIP3    H127996   5.897   4.410   3.170
 9373TIP3    H227997   5.894   4.299   3.067
 9374TIP3   OH227998   6.511   4.632   4.459
 9374TIP3    H127999   6.586   4.676   4.412
 9374TIP3    H228000   6.436   4.686   4.434
 9375TIP3   OH228001   5.537   4.270   5.046
 9375TIP3    H128002   5.610   4.207   5.052
 9375TIP3    H228003   5.540   4.312   5.134
 9376TIP3   OH228004   5.598   4.101   3.491
 9376TIP3    H128005   5.565   4.059   3.572
 9376TIP3    H228006   5.631   4.025   3.439
 9377TIP3   OH228007   5.871   4.179   4.726
 9377TIP3    H128008   5.782   4.222   4.723
 9377TIP3    H228009   5.909   4.205   4.640
 9378TIP3   OH228010   5.694   3.893   3.330
 9378TIP3    H128011   5.667   3.897   3.235
 9378TIP3    H228012   5.791   3.900   3.321
 9379TIP3   OH228013   6.422   4.521   4.874
 9379TIP3    H128014   6.399   4.594   4.816
 9379TIP3    H228015   6.520   4.517   4.868
 9380TIP3   OH228016   6.518   4.229   2.989
 9380TIP3    H128017   6.496   4.180   2.908
 9380TIP3    H228018   6.484   4.318   2.965
 9381TIP3   OH228019   5.988   3.954   4.838
 9381TIP3    H128020   5.983   3.873   4.785
 9381TIP3    H228021   5.940   4.019   4.782
 9382TIP3   OH228022   5.988   3.740   4.650
 9382TIP3    H128023   6.014   3.780   4.565
 9382TIP3    H228024   5.894   3.716   4.633
 9383TIP3   OH228025   6.029   4.289   4.526
 9383TIP3    H128026   6.096   4.282   4.457
 9383TIP3    H228027   5.962   4.346   4.482
 9384TIP3   OH228028   6.606   4.255   4.896
 9384TIP3    H128029   6.647   4.173   4.925
 9384TIP3    H228030   6.684   4.309   4.874
 9385TIP3   OH228031   6.644   4.490   4.641
 9385TIP3    H128032   6.587   4.544   4.582
 9385TIP3    H228033   6.732   4.512   4.603
 9386TIP3   OH228034   5.873   4.065   5.070
 9386TIP3    H128035   5.799   4.003   5.088
 9386TIP3    H228036   5.899   4.038   4.980
 9387TIP3   OH228037   6.121   3.504   4.713
 9387TIP3    H128038   6.071   3.586   4.693
 9387TIP3    H228039   6.050   3.436   4.705
 9388TIP3   OH228040   6.241   4.006   4.929
 9388TIP3    H128041   6.230   3.986   5.024
 9388TIP3    H228042   6.151   3.982   4.898
 9389TIP3   OH228043   6.486   3.970   4.792
 9389TIP3    H128044   6.411   3.955   4.852
 9389TIP3    H228045   6.562   3.935   4.843
 9390TIP3   OH228046   6.712   3.896   4.937
 9390TIP3    H128047   6.726   3.801   4.958
 9390TIP3    H228048   6.709   3.937   5.026
 9391TIP3   OH228049   5.706   3.849   5.124
 9391TIP3    H128050   5.707   3.758   5.089
 9391TIP3    H228051   5.741   3.833   5.215
 9392TIP3   OH228052   6.218   3.517   4.971
 9392TIP3    H128053   6.283   3.444   4.968
 9392TIP3    H228054   6.176   3.507   4.883
 9393TIP3   OH228055   6.284   3.733   5.128
 9393TIP3    H128056   6.260   3.659   5.067
 9393TIP3    H228057   6.203   3.788   5.126
 9394TIP3   OH228058   5.502   4.959   3.234
 9394TIP3    H128059   5.597   4.955   3.213
 9394TIP3    H228060   5.469   5.006   3.155
 9395TIP3   OH228061   4.976   4.329   3.442
 9395TIP3    H128062   5.069   4.359   3.438
 9395TIP3    H228063   4.980   4.242   3.399
 9396TIP3   OH228064   4.883   4.948   3.864
 9396TIP3    H128065   4.836   4.876   3.819
 9396TIP3    H228066   4.938   4.894   3.926
 9397TIP3   OH228067   5.031   4.819   4.050
 9397TIP3    H128068   5.019   4.730   4.087
 9397TIP3    H228069   5.091   4.862   4.113
 9398TIP3   OH228070   6.762   5.202   3.832
 9398TIP3    H128071   6.761   5.273   3.898
 9398TIP3    H228072   6.808   5.245   3.759
 9399TIP3   OH228073   6.845   4.900   4.714
 9399TIP3    H128074   6.756   4.921   4.744
 9399TIP3    H228075   6.883   4.990   4.705
 9400TIP3   OH228076   6.648   4.417   3.327
 9400TIP3    H128077   6.719   4.477   3.296
 9400TIP3    H228078   6.693   4.373   3.402
 9401TIP3   OH228079   6.779   4.282   3.528
 9401TIP3    H128080   6.712   4.239   3.585
 9401TIP3    H228081   6.840   4.322   3.593
 9402TIP3   OH228082   6.817   4.662   3.952
 9402TIP3    H128083   6.876   4.606   3.899
 9402TIP3    H228084   6.812   4.743   3.898
 9403TIP3   OH228085   6.653   4.936   4.154
 9403TIP3    H128086   6.602   5.011   4.188
 9403TIP3    H228087   6.597   4.903   4.081
 9404TIP3   OH228088   6.703   4.176   3.194
 9404TIP3    H128089   6.649   4.182   3.112
 9404TIP3    H228090   6.686   4.264   3.232
 9405TIP3   OH228091   6.577   3.860   3.143
 9405TIP3    H128092   6.560   3.904   3.059
 9405TIP3    H228093   6.555   3.767   3.122
 9406TIP3   OH228094   6.593   4.138   3.675
 9406TIP3    H128095   6.601   4.042   3.667
 9406TIP3    H228096   6.580   4.151   3.771
 9407TIP3   OH228097   5.213   4.199   4.420
 9407TIP3    H128098   5.215   4.173   4.326
 9407TIP3    H228099   5.309   4.212   4.438
 9408TIP3   OH228100   6.879   4.568   4.532
 9408TIP3    H128101   6.957   4.511   4.512
 9408TIP3    H228102   6.872   4.626   4.454
 9409TIP3   OH228103   7.070   4.371   4.550
 9409TIP3    H128104   6.993   4.324   4.588
 9409TIP3    H228105   7.140   4.304   4.563
 9410TIP3   OH228106   6.531   3.594   3.116
 9410TIP3    H128107   6.605   3.563   3.172
 9410TIP3    H228108   6.458   3.535   3.140
 9411TIP3   OH228109   6.590   3.855   3.572
 9411TIP3    H128110   6.631   3.766   3.585
 9411TIP3    H228111   6.646   3.888   3.499
 9412TIP3   OH228112   6.752   4.027   4.065
 9412TIP3    H128113   6.838   4.054   4.025
 9412TIP3    H228114   6.765   4.065   4.154
 9413TIP3   OH228115   6.819   4.171   4.298
 9413TIP3    H128116   6.741   4.206   4.345
 9413TIP3    H228117   6.853   4.251   4.252
 9414TIP3   OH228118   5.438   3.899   5.098
 9414TIP3    H128119   5.535   3.890   5.098
 9414TIP3    H228120   5.412   3.814   5.138
 9415TIP3   OH228121   7.272   3.762   4.854
 9415TIP3    H128122   7.329   3.696   4.810
 9415TIP3    H228123   7.243   3.817   4.778
 9416TIP3   OH228124   6.699   3.604   3.609
 9416TIP3    H128125   6.746   3.586   3.692
 9416TIP3    H228126   6.638   3.527   3.606
 9417TIP3   OH228127   5.399   3.589   4.426
 9417TIP3    H128128   5.461   3.515   4.437
 9417TIP3    H228129   5.460   3.664   4.422
 9418TIP3   OH228130   5.203   3.863   4.502
 9418TIP3    H128131   5.250   3.858   4.417
 9418TIP3    H228132   5.224   3.953   4.530
 9419TIP3   OH228133   7.143   3.903   4.660
 9419TIP3    H128134   7.057   3.943   4.682
 9419TIP3    H228135   7.113   3.831   4.600
 9420TIP3   OH228136   6.782   3.537   3.243
 9420TIP3    H128137   6.819   3.467   3.185
 9420TIP3    H228138   6.843   3.611   3.227
 9421TIP3   OH228139   5.184   3.369   4.003
 9421TIP3    H128140   5.090   3.365   4.028
 9421TIP3    H228141   5.181   3.426   3.923
 9422TIP3   OH228142   6.344   5.069   3.507
 9422TIP3    H128143   6.396   5.056   3.425
 9422TIP3    H228144   6.395   5.137   3.553
 9423TIP3   OH228145   5.405   3.448   4.816
 9423TIP3    H128146   5.354   3.441   4.898
 9423TIP3    H228147   5.338   3.486   4.756
 9424TIP3   OH228148   7.041   3.666   4.537
 9424TIP3    H128149   6.950   3.662   4.503
 9424TIP3    H228150   7.070   3.573   4.525
 9425TIP3   OH228151   5.962   5.195   4.095
 9425TIP3    H128152   5.884   5.206   4.037
 9425TIP3    H228153   5.968   5.282   4.140
 9426TIP3   OH228154   6.222   5.096   4.127
 9426TIP3    H128155   6.140   5.147   4.117
 9426TIP3    H228156   6.287   5.163   4.156
 9427TIP3   OH228157   6.459   5.318   4.073
 9427TIP3    H128158   6.437   5.402   4.028
 9427TIP3    H228159   6.453   5.251   4.003
 9428TIP3   OH228160   5.210   4.956   4.208
 9428TIP3    H128161   5.252   4.967   4.294
 9428TIP3    H228162   5.282   4.913   4.156
 9429TIP3   OH228163   5.398   4.825   4.064
 9429TIP3    H128164   5.420   4.742   4.112
 9429TIP3    H228165   5.487   4.864   4.049
 9430TIP3   OH228166   5.663   4.920   4.057
 9430TIP3    H128167   5.700   4.832   4.043
 9430TIP3    H228168   5.698   4.942   4.144
 9431TIP3   OH228169   6.251   3.584   4.165
 9431TIP3    H128170   6.201   3.515   4.211
 9431TIP3    H228171   6.312   3.533   4.108
 9432TIP3   OH228172   6.769   3.459   4.065
 9432TIP3    H128173   6.808   3.509   3.990
 9432TIP3    H228174   6.674   3.479   4.056
 9433TIP3   OH228175   6.864   3.558   3.828
 9433TIP3    H128176   6.936   3.508   3.785
 9433TIP3    H228177   6.896   3.650   3.812
 9434TIP3   OH228178   5.494   3.289   4.172
 9434TIP3    H128179   5.402   3.256   4.173
 9434TIP3    H228180   5.543   3.203   4.169
 9435TIP3   OH228181   5.282   3.158   3.820
 9435TIP3    H128182   5.310   3.216   3.747
 9435TIP3    H228183   5.251   3.223   3.886
 9436TIP3   OH228184   5.940   3.318   4.051
 9436TIP3    H128185   5.997   3.372   3.994
 9436TIP3    H228186   5.951   3.361   4.137
 9437TIP3   OH228187   6.485   3.458   4.037
 9437TIP3    H128188   6.480   3.443   3.942
 9437TIP3    H228189   6.464   3.370   4.073
 9438TIP3   OH228190   6.515   3.391   3.600
 9438TIP3    H128191   6.427   3.434   3.606
 9438TIP3    H228192   6.497   3.305   3.642
 9439TIP3   OH228193   5.397   3.318   3.584
 9439TIP3    H128194   5.445   3.255   3.527
 9439TIP3    H228195   5.470   3.372   3.620
 9440TIP3   OH228196   5.910   3.492   3.682
 9440TIP3    H128197   5.969   3.444   3.742
 9440TIP3    H228198   5.933   3.584   3.707
 9441TIP3   OH228199   5.770   4.919   3.181
 9441TIP3    H128200   5.858   4.941   3.145
 9441TIP3    H228201   5.748   4.844   3.122
 9442TIP3   OH228202   6.491   5.036   3.274
 9442TIP3    H128203   6.481   4.938   3.262
 9442TIP3    H228204   6.442   5.068   3.195
 9443TIP3   OH228205   5.703   3.573   5.065
 9443TIP3    H128206   5.667   3.501   5.120
 9443TIP3    H228207   5.797   3.571   5.093
 9444TIP3   OH228208   5.953   3.567   5.184
 9444TIP3    H128209   6.036   3.534   5.147
 9444TIP3    H228210   5.936   3.499   5.253
 9445TIP3   OH228211   5.072   4.759   3.238
 9445TIP3    H128212   5.060   4.778   3.332
 9445TIP3    H228213   5.161   4.718   3.235
 9446TIP3   OH228214   6.775   3.627   4.971
 9446TIP3    H128215   6.794   3.596   5.062
 9446TIP3    H228216   6.864   3.622   4.929
 9447TIP3   OH228217   7.981   4.550   3.230
 9447TIP3    H128218   7.955   4.643   3.211
 9447TIP3    H228219   7.903   4.505   3.191
 9448TIP3   OH228220   7.985   4.550   3.608
 9448TIP3    H128221   8.012   4.522   3.697
 9448TIP3    H228222   7.935   4.473   3.576
 9449TIP3   OH228223   7.282   4.441   3.964
 9449TIP3    H128224   7.311   4.377   4.031
 9449TIP3    H228225   7.352   4.508   3.972
 9450TIP3   OH228226   8.226   4.849   3.292
 9450TIP3    H128227   8.207   4.786   3.362
 9450TIP3    H228228   8.252   4.928   3.341
 9451TIP3   OH228229   7.264   4.863   3.712
 9451TIP3    H128230   7.246   4.766   3.713
 9451TIP3    H228231   7.356   4.862   3.681
 9452TIP3   OH228232   6.956   4.061   3.489
 9452TIP3    H128233   6.907   4.144   3.498
 9452TIP3    H228234   6.889   4.007   3.443
 9453TIP3   OH228235   7.023   4.351   3.652
 9453TIP3    H128236   7.069   4.272   3.689
 9453TIP3    H228237   7.071   4.364   3.569
 9454TIP3   OH228238   7.871   5.316   3.306
 9454TIP3    H128239   7.918   5.246   3.257
 9454TIP3    H228240   7.866   5.278   3.395
 9455TIP3   OH228241   7.778   4.779   3.660
 9455TIP3    H128242   7.811   4.705   3.608
 9455TIP3    H228243   7.864   4.821   3.683
 9456TIP3   OH228244   8.788   4.100   3.652
 9456TIP3    H128245   8.819   4.181   3.699
 9456TIP3    H228246   8.821   4.117   3.562
 9457TIP3   OH228247   8.197   4.285   3.691
 9457TIP3    H128248   8.232   4.196   3.713
 9457TIP3    H228249   8.163   4.270   3.601
 9458TIP3   OH228250   7.532   3.939   3.655
 9458TIP3    H128251   7.506   4.011   3.593
 9458TIP3    H228252   7.484   3.864   3.612
 9459TIP3   OH228253   7.161   4.140   3.763
 9459TIP3    H128254   7.244   4.121   3.810
 9459TIP3    H228255   7.173   4.084   3.683
 9460TIP3   OH228256   7.603   4.340   3.552
 9460TIP3    H128257   7.695   4.311   3.570
 9460TIP3    H228258   7.562   4.256   3.522
 9461TIP3   OH228259   8.864   4.305   3.824
 9461TIP3    H128260   8.780   4.353   3.807
 9461TIP3    H228261   8.879   4.329   3.917
 9462TIP3   OH228262   7.526   3.923   4.090
 9462TIP3    H128263   7.466   3.959   4.023
 9462TIP3    H228264   7.474   3.940   4.171
 9463TIP3   OH228265   7.875   4.773   3.100
 9463TIP3    H128266   7.831   4.751   3.016
 9463TIP3    H228267   7.830   4.857   3.123
 9464TIP3   OH228268   7.633   4.704   3.890
 9464TIP3    H128269   7.573   4.771   3.928
 9464TIP3    H228270   7.672   4.751   3.814
 9465TIP3   OH228271   8.437   4.052   3.398
 9465TIP3    H128272   8.410   3.986   3.464
 9465TIP3    H228273   8.480   4.118   3.456
 9466TIP3   OH228274   7.397   4.037   3.874
 9466TIP3    H128275   7.459   4.110   3.896
 9466TIP3    H228276   7.446   3.996   3.798
 9467TIP3   OH228277   7.452   4.896   3.987
 9467TIP3    H128278   7.407   4.941   3.915
 9467TIP3    H228279   7.378   4.854   4.034
 9468TIP3   OH228280   6.849   4.580   3.220
 9468TIP3    H128281   6.811   4.605   3.133
 9468TIP3    H228282   6.885   4.664   3.252
 9469TIP3   OH228283   8.295   5.096   3.459
 9469TIP3    H128284   8.204   5.089   3.497
 9469TIP3    H228285   8.288   5.182   3.413
 9470TIP3   OH228286   8.586   4.000   3.822
 9470TIP3    H128287   8.498   4.029   3.792
 9470TIP3    H228288   8.645   4.030   3.750
 9471TIP3   OH228289   7.884   3.645   3.805
 9471TIP3    H128290   7.871   3.549   3.819
 9471TIP3    H228291   7.805   3.681   3.851
 9472TIP3   OH228292   7.999   5.144   3.136
 9472TIP3    H128293   8.047   5.062   3.112
 9472TIP3    H228294   8.059   5.210   3.093
 9473TIP3   OH228295   8.138   4.929   3.040
 9473TIP3    H128296   8.103   4.851   2.995
 9473TIP3    H228297   8.174   4.890   3.123
 9474TIP3   OH228298   8.521   5.010   3.804
 9474TIP3    H128299   8.511   4.933   3.743
 9474TIP3    H228300   8.503   5.085   3.744
 9475TIP3   OH228301   7.810   4.406   3.066
 9475TIP3    H128302   7.728   4.454   3.043
 9475TIP3    H228303   7.853   4.397   2.978
 9476TIP3   OH228304   7.775   4.187   2.776
 9476TIP3    H128305   7.844   4.240   2.820
 9476TIP3    H228306   7.830   4.119   2.735
 9477TIP3   OH228307   8.716   4.646   3.646
 9477TIP3    H128308   8.633   4.699   3.652
 9477TIP3    H228309   8.746   4.671   3.556
 9478TIP3   OH228310   8.159   4.486   3.032
 9478TIP3    H128311   8.103   4.513   3.108
 9478TIP3    H228312   8.238   4.451   3.077
 9479TIP3   OH228313   8.395   4.527   3.942
 9479TIP3    H128314   8.392   4.610   3.993
 9479TIP3    H228315   8.308   4.530   3.898
 9480TIP3   OH228316   7.390   4.486   3.446
 9480TIP3    H128317   7.345   4.427   3.381
 9480TIP3    H228318   7.466   4.430   3.473
 9481TIP3   OH228319   7.520   4.893   3.598
 9481TIP3    H128320   7.497   4.856   3.511
 9481TIP3    H228321   7.610   4.857   3.612
 9482TIP3   OH228322   7.544   4.452   3.805
 9482TIP3    H128323   7.562   4.438   3.710
 9482TIP3    H228324   7.574   4.544   3.821
 9483TIP3   OH228325   8.053   5.094   3.579
 9483TIP3    H128326   8.039   5.175   3.631
 9483TIP3    H228327   8.039   5.022   3.643
 9484TIP3   OH228328   7.997   4.334   2.865
 9484TIP3    H128329   8.062   4.389   2.914
 9484TIP3    H228330   8.026   4.351   2.772
 9485TIP3   OH228331   7.413   4.566   4.216
 9485TIP3    H128332   7.418   4.620   4.295
 9485TIP3    H228333   7.317   4.544   4.218
 9486TIP3   OH228334   7.743   5.025   3.136
 9486TIP3    H128335   7.821   5.081   3.151
 9486TIP3    H228336   7.681   5.085   3.092
 9487TIP3   OH228337   8.518   3.589   2.912
 9487TIP3    H128338   8.436   3.611   2.962
 9487TIP3    H228339   8.525   3.666   2.852
 9488TIP3   OH228340   7.257   4.322   3.263
 9488TIP3    H128341   7.201   4.380   3.207
 9488TIP3    H228342   7.210   4.238   3.255
 9489TIP3   OH228343   8.314   4.954   2.455
 9489TIP3    H128344   8.322   5.051   2.438
 9489TIP3    H228345   8.406   4.924   2.441
 9490TIP3   OH228346   7.064   4.668   4.086
 9490TIP3    H128347   6.970   4.661   4.065
 9490TIP3    H228348   7.077   4.606   4.160
 9491TIP3   OH228349   6.888   4.900   3.797
 9491TIP3    H128350   6.984   4.902   3.792
 9491TIP3    H228351   6.863   4.988   3.828
 9492TIP3   OH228352   8.760   5.355   3.851
 9492TIP3    H128353   8.756   5.258   3.861
 9492TIP3    H228354   8.676   5.381   3.894
 9493TIP3   OH228355   7.882   5.141   3.985
 9493TIP3    H128356   7.883   5.236   4.008
 9493TIP3    H228357   7.821   5.106   4.050
 9494TIP3   OH228358   7.624   5.270   2.935
 9494TIP3    H128359   7.579   5.252   2.851
 9494TIP3    H228360   7.592   5.360   2.958
 9495TIP3   OH228361   7.062   5.121   3.318
 9495TIP3    H128362   7.108   5.110   3.404
 9495TIP3    H228363   7.006   5.040   3.317
 9496TIP3   OH228364   7.825   5.171   2.576
 9496TIP3    H128365   7.884   5.102   2.538
 9496TIP3    H228366   7.860   5.180   2.666
 9497TIP3   OH228367   7.876   5.220   2.846
 9497TIP3    H128368   7.787   5.229   2.887
 9497TIP3    H228369   7.926   5.178   2.917
 9498TIP3   OH228370   8.648   4.488   4.122
 9498TIP3    H128371   8.566   4.499   4.071
 9498TIP3    H228372   8.664   4.391   4.113
 9499TIP3   OH228373   7.644   3.719   3.931
 9499TIP3    H128374   7.555   3.686   3.905
 9499TIP3    H228375   7.618   3.800   3.978
 9500TIP3   OH228376   8.176   3.834   4.127
 9500TIP3    H128377   8.244   3.806   4.191
 9500TIP3    H228378   8.092   3.813   4.173
 9501TIP3   OH228379   8.418   4.263   4.045
 9501TIP3    H128380   8.368   4.258   4.130
 9501TIP3    H228381   8.391   4.350   4.010
 9502TIP3   OH228382   8.077   4.388   2.608
 9502TIP3    H128383   8.042   4.365   2.520
 9502TIP3    H228384   8.156   4.439   2.582
 9503TIP3   OH228385   7.808   3.757   2.904
 9503TIP3    H128386   7.762   3.760   2.991
 9503TIP3    H228387   7.760   3.682   2.864
 9504TIP3   OH228388   7.578   4.230   3.954
 9504TIP3    H128389   7.523   4.251   4.033
 9504TIP3    H228390   7.564   4.311   3.900
 9505TIP3   OH228391   7.460   4.118   3.465
 9505TIP3    H128392   7.366   4.097   3.481
 9505TIP3    H228393   7.471   4.082   3.375
 9506TIP3   OH228394   7.959   4.207   3.181
 9506TIP3    H128395   7.893   4.278   3.169
 9506TIP3    H228396   7.990   4.203   3.089
 9507TIP3   OH228397   8.124   4.485   4.280
 9507TIP3    H128398   8.101   4.412   4.342
 9507TIP3    H228399   8.218   4.497   4.302
 9508TIP3   OH228400   8.115   4.238   3.430
 9508TIP3    H128401   8.059   4.275   3.359
 9508TIP3    H228402   8.112   4.145   3.408
 9509TIP3   OH228403   7.397   4.261   4.161
 9509TIP3    H128404   7.408   4.325   4.233
 9509TIP3    H228405   7.382   4.178   4.210
 9510TIP3   OH228406   7.449   3.740   2.869
 9510TIP3    H128407   7.430   3.743   2.964
 9510TIP3    H228408   7.368   3.779   2.833
 9511TIP3   OH228409   6.985   3.782   3.744
 9511TIP3    H128410   7.064   3.815   3.793
 9511TIP3    H228411   7.021   3.755   3.658
 9512TIP3   OH228412   6.962   3.772   3.253
 9512TIP3    H128413   7.011   3.809   3.179
 9512TIP3    H228414   6.898   3.844   3.272
 9513TIP3   OH228415   8.118   4.482   3.857
 9513TIP3    H128416   8.151   4.410   3.798
 9513TIP3    H228417   8.089   4.429   3.934
 9514TIP3   OH228418   7.789   3.947   3.529
 9514TIP3    H128419   7.701   3.942   3.572
 9514TIP3    H228420   7.848   3.939   3.605
 9515TIP3   OH228421   7.219   3.997   3.536
 9515TIP3    H128422   7.125   4.007   3.508
 9515TIP3    H228423   7.240   3.906   3.509
 9516TIP3   OH228424   7.493   3.998   3.220
 9516TIP3    H128425   7.583   4.012   3.187
 9516TIP3    H228426   7.438   4.012   3.140
 9517TIP3   OH228427   8.270   4.019   3.722
 9517TIP3    H128428   8.244   4.030   3.816
 9517TIP3    H228429   8.207   3.950   3.694
 9518TIP3   OH228430   7.332   4.009   3.002
 9518TIP3    H128431   7.239   4.026   2.974
 9518TIP3    H228432   7.378   4.049   2.926
 9519TIP3   OH228433   8.447   5.705   3.947
 9519TIP3    H128434   8.445   5.731   3.853
 9519TIP3    H228435   8.525   5.755   3.978
 9520TIP3   OH228436   7.869   4.271   3.630
 9520TIP3    H128437   7.936   4.218   3.585
 9520TIP3    H228438   7.870   4.232   3.720
 9521TIP3   OH228439   7.399   3.756   3.502
 9521TIP3    H128440   7.361   3.677   3.547
 9521TIP3    H228441   7.434   3.718   3.420
 9522TIP3   OH228442   7.847   4.169   3.908
 9522TIP3    H128443   7.756   4.200   3.926
 9522TIP3    H228444   7.902   4.227   3.964
 9523TIP3   OH228445   7.585   4.560   3.012
 9523TIP3    H128446   7.517   4.490   3.001
 9523TIP3    H228447   7.565   4.592   3.103
 9524TIP3   OH228448   8.484   4.793   3.638
 9524TIP3    H128449   8.508   4.843   3.557
 9524TIP3    H228450   8.398   4.753   3.614
 9525TIP3   OH228451   8.031   3.909   2.891
 9525TIP3    H128452   7.943   3.865   2.885
 9525TIP3    H228453   8.027   3.969   2.814
 9526TIP3   OH228454   7.974   4.868   4.010
 9526TIP3    H128455   8.013   4.847   4.096
 9526TIP3    H228456   7.967   4.965   4.013
 9527TIP3   OH228457   7.285   4.588   3.688
 9527TIP3    H128458   7.314   4.551   3.602
 9527TIP3    H228459   7.298   4.513   3.748
 9528TIP3   OH228460   7.729   4.707   2.832
 9528TIP3    H128461   7.681   4.793   2.837
 9528TIP3    H228462   7.675   4.652   2.891
 9529TIP3   OH228463   7.155   4.499   4.297
 9529TIP3    H128464   7.178   4.489   4.392
 9529TIP3    H228465   7.084   4.433   4.286
 9530TIP3   OH228466   7.881   4.612   4.319
 9530TIP3    H128467   7.820   4.552   4.273
 9530TIP3    H228468   7.968   4.577   4.289
 9531TIP3   OH228469   8.148   5.126   3.904
 9531TIP3    H128470   8.051   5.133   3.911
 9531TIP3    H228471   8.175   5.183   3.980
 9532TIP3   OH228472   8.562   4.210   2.804
 9532TIP3    H128473   8.494   4.163   2.749
 9532TIP3    H228474   8.552   4.298   2.763
 9533TIP3   OH228475   8.772   5.063   3.892
 9533TIP3    H128476   8.674   5.059   3.884
 9533TIP3    H228477   8.797   5.034   3.802
 9534TIP3   OH228478   8.255   5.025   2.719
 9534TIP3    H128479   8.226   4.953   2.777
 9534TIP3    H228480   8.265   4.981   2.633
 9535TIP3   OH228481   8.247   4.657   3.560
 9535TIP3    H128482   8.154   4.630   3.572
 9535TIP3    H228483   8.283   4.579   3.514
 9536TIP3   OH228484   7.375   4.885   3.316
 9536TIP3    H128485   7.375   4.964   3.258
 9536TIP3    H228486   7.282   4.860   3.314
 9537TIP3   OH228487   7.520   4.652   3.259
 9537TIP3    H128488   7.481   4.740   3.276
 9537TIP3    H228489   7.476   4.598   3.328
 9538TIP3   OH228490   7.661   5.241   3.818
 9538TIP3    H128491   7.678   5.306   3.746
 9538TIP3    H228492   7.742   5.190   3.816
 9539TIP3   OH228493   7.296   5.121   3.163
 9539TIP3    H128494   7.210   5.129   3.208
 9539TIP3    H228495   7.328   5.214   3.165
 9540TIP3   OH228496   8.034   4.860   3.738
 9540TIP3    H128497   8.024   4.852   3.835
 9540TIP3    H228498   8.114   4.808   3.722
 9541TIP3   OH228499   8.006   4.754   2.620
 9541TIP3    H128500   8.058   4.729   2.699
 9541TIP3    H228501   7.917   4.726   2.647
 9542TIP3   OH228502   8.282   5.394   3.786
 9542TIP3    H128503   8.201   5.342   3.774
 9542TIP3    H228504   8.271   5.462   3.716
 9543TIP3   OH228505   8.348   5.230   2.440
 9543TIP3    H128506   8.381   5.302   2.384
 9543TIP3    H228507   8.267   5.273   2.474
 9544TIP3   OH228508   7.367   4.004   4.307
 9544TIP3    H128509   7.270   4.009   4.320
 9544TIP3    H228510   7.394   3.944   4.378
 9545TIP3   OH228511   8.167   4.692   2.839
 9545TIP3    H128512   8.155   4.621   2.905
 9545TIP3    H228513   8.263   4.687   2.824
 9546TIP3   OH228514   7.367   4.732   2.616
 9546TIP3    H128515   7.389   4.641   2.590
 9546TIP3    H228516   7.351   4.720   2.712
 9547TIP3   OH228517   7.317   4.742   2.890
 9547TIP3    H128518   7.384   4.707   2.950
 9547TIP3    H228519   7.327   4.839   2.901
 9548TIP3   OH228520   7.087   4.468   3.114
 9548TIP3    H128521   6.999   4.481   3.155
 9548TIP3    H228522   7.074   4.513   3.029
 9549TIP3   OH228523   8.207   4.067   3.983
 9549TIP3    H128524   8.284   4.106   4.028
 9549TIP3    H228525   8.189   3.988   4.039
 9550TIP3   OH228526   8.079   3.830   3.152
 9550TIP3    H128527   8.050   3.833   3.058
 9550TIP3    H228528   8.092   3.924   3.166
 9551TIP3   OH228529   7.586   4.937   2.842
 9551TIP3    H128530   7.499   4.965   2.877
 9551TIP3    H228531   7.602   5.006   2.776
 9552TIP3   OH228532   7.787   3.995   3.254
 9552TIP3    H128533   7.842   4.073   3.236
 9552TIP3    H228534   7.778   3.996   3.352
 9553TIP3   OH228535   8.044   4.319   4.063
 9553TIP3    H128536   8.061   4.374   4.142
 9553TIP3    H228537   8.098   4.241   4.080
 9554TIP3   OH228538   7.916   3.728   3.363
 9554TIP3    H128539   7.900   3.808   3.416
 9554TIP3    H228540   7.973   3.763   3.292
 9555TIP3   OH228541   7.330   5.014   2.908
 9555TIP3    H128542   7.298   5.084   2.845
 9555TIP3    H228543   7.312   5.057   2.994
 9556TIP3   OH228544   7.427   3.722   3.150
 9556TIP3    H128545   7.422   3.816   3.176
 9556TIP3    H228546   7.524   3.708   3.153
 9557TIP3   OH228547   8.685   4.220   4.042
 9557TIP3    H128548   8.587   4.218   4.051
 9557TIP3    H228549   8.695   4.176   3.957
 9558TIP3   OH228550   8.334   4.421   3.434
 9558TIP3    H128551   8.258   4.361   3.447
 9558TIP3    H228552   8.405   4.376   3.484
 9559TIP3   OH228553   7.044   4.649   2.892
 9559TIP3    H128554   7.118   4.711   2.908
 9559TIP3    H228555   7.090   4.587   2.831
 9560TIP3   OH228556   8.303   5.367   3.381
 9560TIP3    H128557   8.260   5.414   3.306
 9560TIP3    H228558   8.397   5.386   3.360
 9561TIP3   OH228559   7.381   3.638   3.908
 9561TIP3    H128560   7.348   3.605   3.821
 9561TIP3    H228561   7.368   3.559   3.965
 9562TIP3   OH228562   6.923   4.867   3.291
 9562TIP3    H128563   6.845   4.887   3.344
 9562TIP3    H228564   6.894   4.899   3.202
 9563TIP3   OH228565   7.537   4.937   2.534
 9563TIP3    H128566   7.482   4.863   2.570
 9563TIP3    H228567   7.613   4.887   2.499
 9564TIP3   OH228568   8.193   5.267   4.137
 9564TIP3    H128569   8.186   5.199   4.207
 9564TIP3    H228570   8.270   5.320   4.167
 9565TIP3   OH228571   7.974   4.981   2.444
 9565TIP3    H128572   8.019   4.915   2.499
 9565TIP3    H228573   8.027   4.980   2.362
 9566TIP3   OH228574   7.179   4.464   2.748
 9566TIP3    H128575   7.203   4.396   2.812
 9566TIP3    H228576   7.255   4.460   2.686
 9567TIP3   OH228577   7.808   4.880   4.317
 9567TIP3    H128578   7.769   4.851   4.234
 9567TIP3    H228579   7.856   4.798   4.341
 9568TIP3   OH228580   7.688   4.655   2.562
 9568TIP3    H128581   7.693   4.665   2.659
 9568TIP3    H228582   7.690   4.557   2.555
 9569TIP3   OH228583   8.305   4.897   3.939
 9569TIP3    H128584   8.382   4.938   3.895
 9569TIP3    H228585   8.238   4.966   3.923
 9570TIP3   OH228586   7.344   4.526   4.524
 9570TIP3    H128587   7.412   4.461   4.544
 9570TIP3    H228588   7.339   4.575   4.609
 9571TIP3   OH228589   7.410   4.355   2.987
 9571TIP3    H128590   7.350   4.316   3.053
 9571TIP3    H228591   7.427   4.279   2.928
 9572TIP3   OH228592   7.664   4.428   4.207
 9572TIP3    H128593   7.579   4.477   4.202
 9572TIP3    H228594   7.709   4.457   4.125
 9573TIP3   OH228595   7.489   4.149   2.818
 9573TIP3    H128596   7.456   4.152   2.726
 9573TIP3    H228597   7.585   4.158   2.805
 9574TIP3   OH228598   8.174   4.824   4.337
 9574TIP3    H128599   8.256   4.801   4.291
 9574TIP3    H228600   8.173   4.758   4.408
 9575TIP3   OH228601   8.314   4.483   2.480
 9575TIP3    H128602   8.295   4.435   2.396
 9575TIP3    H228603   8.281   4.572   2.455
 9576TIP3   OH228604   7.783   4.210   4.330
 9576TIP3    H128605   7.781   4.130   4.274
 9576TIP3    H228606   7.738   4.276   4.273
 9577TIP3   OH228607   7.785   3.997   4.135
 9577TIP3    H128608   7.810   4.037   4.050
 9577TIP3    H228609   7.691   3.974   4.119
 9578TIP3   OH228610   7.814   4.535   4.008
 9578TIP3    H128611   7.895   4.542   3.957
 9578TIP3    H228612   7.756   4.601   3.965
 9579TIP3   OH228613   8.394   4.500   4.391
 9579TIP3    H128614   8.441   4.416   4.405
 9579TIP3    H228615   8.465   4.557   4.358
 9580TIP3   OH228616   8.435   4.753   4.127
 9580TIP3    H128617   8.377   4.807   4.068
 9580TIP3    H228618   8.523   4.772   4.087
 9581TIP3   OH228619   7.660   4.324   4.559
 9581TIP3    H128620   7.591   4.256   4.574
 9581TIP3    H228621   7.694   4.297   4.471
 9582TIP3   OH228622   7.917   3.761   4.202
 9582TIP3    H128623   7.867   3.843   4.180
 9582TIP3    H228624   7.847   3.693   4.191
 9583TIP3   OH228625   8.043   4.267   4.420
 9583TIP3    H128626   8.031   4.253   4.516
 9583TIP3    H228627   7.953   4.241   4.390
 9584TIP3   OH228628   8.282   4.214   4.274
 9584TIP3    H128629   8.207   4.216   4.336
 9584TIP3    H228630   8.355   4.183   4.331
 9585TIP3   OH228631   8.512   4.155   4.425
 9585TIP3    H128632   8.524   4.059   4.444
 9585TIP3    H228633   8.507   4.194   4.514
 9586TIP3   OH228634   7.500   4.104   4.612
 9586TIP3    H128635   7.505   4.013   4.577
 9586TIP3    H228636   7.535   4.091   4.702
 9587TIP3   OH228637   8.013   3.772   4.459
 9587TIP3    H128638   8.079   3.700   4.455
 9587TIP3    H228639   7.972   3.764   4.371
 9588TIP3   OH228640   8.078   3.986   4.619
 9588TIP3    H128641   8.055   3.915   4.555
 9588TIP3    H228642   7.999   4.045   4.613
 9589TIP3   OH228643   7.296   5.214   2.718
 9589TIP3    H128644   7.393   5.208   2.703
 9589TIP3    H228645   7.272   5.267   2.639
 9590TIP3   OH228646   6.778   4.599   2.936
 9590TIP3    H128647   6.873   4.620   2.921
 9590TIP3    H228648   6.772   4.509   2.897
 9591TIP3   OH228649   6.693   5.209   3.347
 9591TIP3    H128650   6.624   5.148   3.313
 9591TIP3    H228651   6.736   5.152   3.414
 9592TIP3   OH228652   6.826   5.063   3.536
 9592TIP3    H128653   6.810   4.986   3.592
 9592TIP3    H228654   6.880   5.119   3.593
 9593TIP3   OH228655   8.556   5.457   3.337
 9593TIP3    H128656   8.581   5.497   3.422
 9593TIP3    H228657   8.611   5.506   3.275
 9594TIP3   OH228658   8.582   5.481   3.619
 9594TIP3    H128659   8.543   5.392   3.613
 9594TIP3    H228660   8.660   5.462   3.673
 9595TIP3   OH228661   8.631   5.156   4.193
 9595TIP3    H128662   8.557   5.164   4.256
 9595TIP3    H228663   8.669   5.247   4.195
 9596TIP3   OH228664   8.446   4.672   2.812
 9596TIP3    H128665   8.513   4.736   2.781
 9596TIP3    H228666   8.493   4.632   2.889
 9597TIP3   OH228667   8.576   4.539   3.016
 9597TIP3    H128668   8.508   4.506   3.076
 9597TIP3    H228669   8.642   4.579   3.075
 9598TIP3   OH228670   8.628   4.928   3.448
 9598TIP3    H128671   8.681   4.866   3.395
 9598TIP3    H228672   8.622   5.005   3.388
 9599TIP3   OH228673   8.461   5.228   3.645
 9599TIP3    H128674   8.390   5.274   3.693
 9599TIP3    H228675   8.411   5.182   3.574
 9600TIP3   OH228676   8.513   4.446   2.664
 9600TIP3    H128677   8.443   4.445   2.595
 9600TIP3    H228678   8.482   4.523   2.715
 9601TIP3   OH228679   8.385   4.121   2.620
 9601TIP3    H128680   8.348   4.160   2.540
 9601TIP3    H228681   8.355   4.028   2.612
 9602TIP3   OH228682   8.394   4.365   3.178
 9602TIP3    H128683   8.481   4.342   3.211
 9602TIP3    H228684   8.354   4.407   3.257
 9603TIP3   OH228685   7.009   4.446   3.908
 9603TIP3    H128686   7.012   4.425   3.812
 9603TIP3    H228687   7.104   4.465   3.925
 9604TIP3   OH228688   8.678   4.818   4.019
 9604TIP3    H128689   8.751   4.753   4.010
 9604TIP3    H228690   8.704   4.887   3.956
 9605TIP3   OH228691   8.864   4.626   4.038
 9605TIP3    H128692   8.789   4.575   4.076
 9605TIP3    H228693   8.937   4.561   4.052
 9606TIP3   OH228694   8.322   3.858   2.619
 9606TIP3    H128695   8.399   3.813   2.658
 9606TIP3    H228696   8.250   3.793   2.626
 9607TIP3   OH228697   8.547   4.284   3.547
 9607TIP3    H128698   8.635   4.311   3.512
 9607TIP3    H228699   8.557   4.317   3.639
 9608TIP3   OH228700   8.613   4.427   3.782
 9608TIP3    H128701   8.537   4.461   3.832
 9608TIP3    H228702   8.647   4.508   3.739
 9609TIP3   OH228703   7.232   4.154   4.583
 9609TIP3    H128704   7.330   4.148   4.584
 9609TIP3    H228705   7.208   4.069   4.625
 9610TIP3   OH228706   9.069   4.019   4.341
 9610TIP3    H128707   9.125   3.951   4.298
 9610TIP3    H228708   9.040   4.073   4.264
 9611TIP3   OH228709   7.195   3.846   3.916
 9611TIP3    H128710   7.258   3.771   3.924
 9611TIP3    H228711   7.256   3.921   3.909
 9612TIP3   OH228712   6.999   4.120   3.990
 9612TIP3    H128713   7.046   4.113   3.904
 9612TIP3    H228714   7.019   4.212   4.013
 9613TIP3   OH228715   8.939   4.159   4.147
 9613TIP3    H128716   8.851   4.198   4.167
 9613TIP3    H228717   8.912   4.087   4.087
 9614TIP3   OH228718   8.583   3.793   2.735
 9614TIP3    H128719   8.614   3.722   2.675
 9614TIP3    H228720   8.641   3.867   2.712
 9615TIP3   OH228721   6.980   3.633   3.487
 9615TIP3    H128722   6.886   3.625   3.509
 9615TIP3    H228723   6.977   3.688   3.406
 9616TIP3   OH228724   8.140   5.325   2.995
 9616TIP3    H128725   8.190   5.311   2.911
 9616TIP3    H228726   8.192   5.395   3.037
 9617TIP3   OH228727   7.201   3.703   4.303
 9617TIP3    H128728   7.150   3.699   4.385
 9617TIP3    H228729   7.135   3.742   4.242
 9618TIP3   OH228730   7.849   5.399   4.072
 9618TIP3    H128731   7.897   5.407   4.158
 9618TIP3    H228732   7.908   5.455   4.016
 9619TIP3   OH228733   8.033   5.552   3.932
 9619TIP3    H128734   8.104   5.507   3.882
 9619TIP3    H228735   8.087   5.611   3.989
 9620TIP3   OH228736   8.837   3.921   4.024
 9620TIP3    H128737   8.745   3.913   3.992
 9620TIP3    H228738   8.869   3.829   4.013
 9621TIP3   OH228739   7.089   5.415   3.929
 9621TIP3    H128740   7.000   5.456   3.925
 9621TIP3    H228741   7.105   5.416   4.024
 9622TIP3   OH228742   7.345   5.414   3.807
 9622TIP3    H128743   7.260   5.405   3.855
 9622TIP3    H228744   7.313   5.444   3.719
 9623TIP3   OH228745   7.755   5.425   3.609
 9623TIP3    H128746   7.688   5.444   3.540
 9623TIP3    H228747   7.768   5.514   3.648
 9624TIP3   OH228748   8.025   5.367   3.661
 9624TIP3    H128749   7.931   5.385   3.638
 9624TIP3    H228750   8.070   5.439   3.615
 9625TIP3   OH228751   8.231   5.558   3.573
 9625TIP3    H128752   8.218   5.644   3.527
 9625TIP3    H228753   8.258   5.500   3.499
 9626TIP3   OH228754   7.008   5.217   3.690
 9626TIP3    H128755   7.049   5.238   3.776
 9626TIP3    H228756   7.081   5.170   3.644
 9627TIP3   OH228757   7.201   5.084   3.553
 9627TIP3    H128758   7.220   5.000   3.600
 9627TIP3    H228759   7.290   5.121   3.541
 9628TIP3   OH228760   7.464   5.182   3.552
 9628TIP3    H128761   7.501   5.093   3.541
 9628TIP3    H228762   7.487   5.201   3.644
 9629TIP3   OH228763   8.047   3.837   3.644
 9629TIP3    H128764   7.998   3.771   3.697
 9629TIP3    H228765   8.111   3.781   3.596
 9630TIP3   OH228766   8.567   3.719   3.552
 9630TIP3    H128767   8.604   3.767   3.475
 9630TIP3    H228768   8.471   3.731   3.541
 9631TIP3   OH228769   8.656   3.825   3.315
 9631TIP3    H128770   8.722   3.764   3.274
 9631TIP3    H228771   8.701   3.910   3.297
 9632TIP3   OH228772   7.291   3.546   3.661
 9632TIP3    H128773   7.198   3.514   3.659
 9632TIP3    H228774   7.338   3.460   3.656
 9633TIP3   OH228775   7.085   3.414   3.309
 9633TIP3    H128776   7.110   3.469   3.233
 9633TIP3    H228777   7.048   3.480   3.370
 9634TIP3   OH228778   7.736   3.575   3.539
 9634TIP3    H128779   7.796   3.626   3.482
 9634TIP3    H228780   7.750   3.615   3.625
 9635TIP3   OH228781   8.286   3.722   3.513
 9635TIP3    H128782   8.283   3.672   3.431
 9635TIP3    H228783   8.271   3.649   3.578
 9636TIP3   OH228784   8.307   3.646   3.082
 9636TIP3    H128785   8.216   3.678   3.090
 9636TIP3    H228786   8.301   3.562   3.132
 9637TIP3   OH228787   6.796   4.983   3.084
 9637TIP3    H128788   6.711   4.949   3.052
 9637TIP3    H228789   6.781   5.078   3.073
 9638TIP3   OH228790   7.195   3.570   3.079
 9638TIP3    H128791   7.240   3.510   3.016
 9638TIP3    H228792   7.269   3.625   3.111
 9639TIP3   OH228793   7.705   3.750   3.165
 9639TIP3    H128794   7.756   3.697   3.228
 9639TIP3    H228795   7.730   3.840   3.194
 9640TIP3   OH228796   7.565   5.175   2.668
 9640TIP3    H128797   7.654   5.198   2.633
 9640TIP3    H228798   7.544   5.100   2.609
 9641TIP3   OH228799   8.284   5.292   2.762
 9641TIP3    H128800   8.276   5.195   2.749
 9641TIP3    H228801   8.239   5.325   2.681
 9642TIP3   OH228802   7.498   3.827   4.551
 9642TIP3    H128803   7.464   3.756   4.608
 9642TIP3    H228804   7.593   3.827   4.578
 9643TIP3   OH228805   7.748   3.824   4.670
 9643TIP3    H128806   7.832   3.796   4.631
 9643TIP3    H228807   7.734   3.754   4.737
 9644TIP3   OH228808   6.874   5.018   2.731
 9644TIP3    H128809   6.862   5.037   2.825
 9644TIP3    H228810   6.960   4.970   2.730
 9645TIP3   OH228811   8.572   3.884   4.457
 9645TIP3    H128812   8.591   3.853   4.549
 9645TIP3    H228813   8.660   3.879   4.416
 9646TIP3   OH228814   8.512   5.437   3.950
 9646TIP3    H128815   8.433   5.407   3.900
 9646TIP3    H228816   8.494   5.533   3.951
 9647TIP3   OH228817   9.078   4.703   3.460
 9647TIP3    H128818   9.109   4.635   3.522
 9647TIP3    H228819   9.153   4.764   3.460
 9648TIP3   OH228820   9.041   5.114   3.194
 9648TIP3    H128821   9.037   5.016   3.195
 9648TIP3    H228822   9.135   5.128   3.175
 9649TIP3   OH228823   8.745   4.311   2.980
 9649TIP3    H128824   8.701   4.398   2.985
 9649TIP3    H228825   8.682   4.265   2.921
 9650TIP3   OH228826   8.814   4.605   3.142
 9650TIP3    H128827   8.863   4.528   3.178
 9650TIP3    H228828   8.871   4.633   3.070
 9651TIP3   OH228829   9.563   5.499   2.824
 9651TIP3    H128830   9.636   5.527   2.766
 9651TIP3    H228831   9.589   5.539   2.908
 9652TIP3   OH228832   9.527   5.046   3.140
 9652TIP3    H128833   9.535   4.988   3.063
 9652TIP3    H228834   9.621   5.052   3.166
 9653TIP3   OH228835   9.306   4.199   3.154
 9653TIP3    H128836   9.309   4.264   3.081
 9653TIP3    H228837   9.278   4.119   3.105
 9654TIP3   OH228838   8.958   4.399   3.248
 9654TIP3    H128839   9.040   4.378   3.298
 9654TIP3    H228840   8.973   4.343   3.168
 9655TIP3   OH228841   9.361   4.614   3.031
 9655TIP3    H128842   9.456   4.593   3.043
 9655TIP3    H228843   9.327   4.526   3.001
 9656TIP3   OH228844   9.317   4.179   3.582
 9656TIP3    H128845   9.257   4.213   3.513
 9656TIP3    H228846   9.265   4.198   3.662
 9657TIP3   OH228847   9.402   4.963   3.366
 9657TIP3    H128848   9.344   5.032   3.407
 9657TIP3    H228849   9.443   5.013   3.293
 9658TIP3   OH228850   9.183   4.295   3.370
 9658TIP3    H128851   9.249   4.365   3.390
 9658TIP3    H228852   9.228   4.253   3.293
 9659TIP3   OH228853   9.250   5.157   3.474
 9659TIP3    H128854   9.224   5.242   3.435
 9659TIP3    H228855   9.171   5.140   3.530
 9660TIP3   OH228856   8.651   4.838   2.706
 9660TIP3    H128857   8.609   4.863   2.621
 9660TIP3    H228858   8.680   4.924   2.741
 9661TIP3   OH228859   9.162   4.759   2.921
 9661TIP3    H128860   9.123   4.698   2.855
 9661TIP3    H228861   9.237   4.706   2.955
 9662TIP3   OH228862   9.287   5.164   3.075
 9662TIP3    H128863   9.272   5.125   2.987
 9662TIP3    H228864   9.374   5.127   3.100
 9663TIP3   OH228865   9.336   4.709   3.293
 9663TIP3    H128866   9.346   4.697   3.196
 9663TIP3    H228867   9.356   4.804   3.306
 9664TIP3   OH228868   9.460   5.270   3.614
 9664TIP3    H128869   9.400   5.333   3.660
 9664TIP3    H228870   9.395   5.218   3.563
 9665TIP3   OH228871   9.211   4.830   3.712
 9665TIP3    H128872   9.214   4.916   3.759
 9665TIP3    H228873   9.116   4.807   3.724
 9666TIP3   OH228874   9.509   5.311   2.638
 9666TIP3    H128875   9.514   5.373   2.713
 9666TIP3    H228876   9.455   5.362   2.575
 9667TIP3   OH228877   9.257   5.438   3.699
 9667TIP3    H128878   9.221   5.438   3.609
 9667TIP3    H228879   9.177   5.415   3.753
 9668TIP3   OH228880   9.050   4.581   2.737
 9668TIP3    H128881   8.985   4.627   2.680
 9668TIP3    H228882   9.010   4.494   2.747
 9669TIP3   OH228883   8.834   4.967   3.647
 9669TIP3    H128884   8.770   4.946   3.577
 9669TIP3    H228885   8.871   4.879   3.671
 9670TIP3   OH228886   8.689   5.158   3.285
 9670TIP3    H128887   8.785   5.157   3.271
 9670TIP3    H228888   8.677   5.242   3.332
 9671TIP3   OH228889   9.656   5.401   3.476
 9671TIP3    H128890   9.654   5.495   3.504
 9671TIP3    H228891   9.580   5.364   3.527
 9672TIP3   OH228892   9.400   5.514   2.453
 9672TIP3    H128893   9.395   5.526   2.356
 9672TIP3    H228894   9.398   5.608   2.479
 9673TIP3   OH228895   8.857   5.376   2.804
 9673TIP3    H128896   8.906   5.367   2.889
 9673TIP3    H228897   8.797   5.301   2.810
 9674TIP3   OH228898   9.037   5.151   3.639
 9674TIP3    H128899   9.087   5.134   3.721
 9674TIP3    H228900   8.963   5.087   3.645
 9675TIP3   OH228901   9.427   3.970   3.433
 9675TIP3    H128902   9.339   3.944   3.400
 9675TIP3    H228903   9.405   4.055   3.476
 9676TIP3   OH228904   9.374   4.481   3.432
 9676TIP3    H128905   9.326   4.503   3.514
 9676TIP3    H228906   9.362   4.564   3.381
 9677TIP3   OH228907   9.253   4.375   2.949
 9677TIP3    H128908   9.163   4.344   2.973
 9677TIP3    H228909   9.259   4.343   2.856
 9678TIP3   OH228910   9.190   4.515   3.645
 9678TIP3    H128911   9.221   4.575   3.715
 9678TIP3    H228912   9.178   4.432   3.695
 9679TIP3   OH228913   9.230   4.015   2.358
 9679TIP3    H128914   9.189   3.984   2.439
 9679TIP3    H228915   9.155   4.051   2.308
 9680TIP3   OH228916   8.771   4.050   3.225
 9680TIP3    H128917   8.850   4.077   3.278
 9680TIP3    H228918   8.813   4.011   3.145
 9681TIP3   OH228919   8.763   4.024   2.749
 9681TIP3    H128920   8.802   4.061   2.667
 9681TIP3    H228921   8.697   4.095   2.767
 9682TIP3   OH228922   9.014   4.255   3.021
 9682TIP3    H128923   8.919   4.255   2.995
 9682TIP3    H228924   9.042   4.164   3.001
 9683TIP3   OH228925   9.268   4.281   2.690
 9683TIP3    H128926   9.339   4.289   2.625
 9683TIP3    H228927   9.191   4.287   2.629
 9684TIP3   OH228928   9.102   4.286   2.482
 9684TIP3    H128929   9.039   4.238   2.425
 9684TIP3    H228930   9.168   4.313   2.415
 9685TIP3   OH228931   9.201   5.072   3.857
 9685TIP3    H128932   9.280   5.103   3.907
 9685TIP3    H228933   9.135   5.072   3.929
 9686TIP3   OH228934   9.185   4.017   2.982
 9686TIP3    H128935   9.153   3.939   3.032
 9686TIP3    H228936   9.241   3.976   2.914
 9687TIP3   OH228937   9.333   4.836   2.491
 9687TIP3    H128938   9.285   4.751   2.494
 9687TIP3    H228939   9.362   4.850   2.582
 9688TIP3   OH228940   9.736   5.136   3.503
 9688TIP3    H128941   9.763   5.113   3.594
 9688TIP3    H228942   9.698   5.224   3.513
 9689TIP3   OH228943   9.073   4.838   3.175
 9689TIP3    H128944   9.100   4.812   3.085
 9689TIP3    H228945   9.105   4.765   3.230
 9690TIP3   OH228946   8.951   4.756   3.784
 9690TIP3    H128947   8.973   4.742   3.879
 9690TIP3    H228948   8.883   4.688   3.769
 9691TIP3   OH228949   9.644   4.828   3.825
 9691TIP3    H128950   9.559   4.790   3.795
 9691TIP3    H228951   9.702   4.753   3.804
 9692TIP3   OH228952   9.171   5.138   2.796
 9692TIP3    H128953   9.175   5.219   2.741
 9692TIP3    H228954   9.076   5.123   2.800
 9693TIP3   OH228955   8.738   4.443   2.502
 9693TIP3    H128956   8.781   4.529   2.520
 9693TIP3    H228957   8.658   4.449   2.558
 9694TIP3   OH228958   9.344   4.920   2.775
 9694TIP3    H128959   9.291   5.002   2.764
 9694TIP3    H228960   9.280   4.864   2.822
 9695TIP3   OH228961   9.440   5.482   3.266
 9695TIP3    H128962   9.475   5.555   3.212
 9695TIP3    H228963   9.520   5.452   3.313
 9696TIP3   OH228964   9.093   5.376   2.651
 9696TIP3    H128965   9.007   5.389   2.696
 9696TIP3    H228966   9.128   5.468   2.652
 9697TIP3   OH228967   9.162   4.263   3.798
 9697TIP3    H128968   9.066   4.264   3.809
 9697TIP3    H228969   9.189   4.197   3.865
 9698TIP3   OH228970   8.879   5.347   3.425
 9698TIP3    H128971   8.931   5.272   3.458
 9698TIP3    H228972   8.908   5.418   3.484
 9699TIP3   OH228973   9.161   4.973   2.116
 9699TIP3    H128974   9.179   4.881   2.087
 9699TIP3    H228975   9.159   4.962   2.213
 9700TIP3   OH228976   9.118   4.993   2.388
 9700TIP3    H128977   9.203   4.957   2.423
 9700TIP3    H228978   9.132   5.090   2.399
 9701TIP3   OH228979   8.852   4.691   2.582
 9701TIP3    H128980   8.785   4.736   2.638
 9701TIP3    H228981   8.867   4.760   2.515
 9702TIP3   OH228982   9.356   5.198   2.327
 9702TIP3    H128983   9.287   5.246   2.375
 9702TIP3    H228984   9.406   5.270   2.285
 9703TIP3   OH228985   9.099   5.277   2.397
 9703TIP3    H128986   9.079   5.357   2.346
 9703TIP3    H228987   9.096   5.311   2.489
 9704TIP3   OH228988   9.228   3.987   2.642
 9704TIP3    H128989   9.194   4.070   2.680
 9704TIP3    H228990   9.309   4.020   2.599
 9705TIP3   OH228991   8.844   4.905   2.389
 9705TIP3    H128992   8.921   4.963   2.406
 9705TIP3    H228993   8.885   4.845   2.323
 9706TIP3   OH228994   8.786   4.173   2.526
 9706TIP3    H128995   8.784   4.271   2.518
 9706TIP3    H228996   8.717   4.147   2.463
 9707TIP3   OH228997   9.159   3.896   3.397
 9707TIP3    H128998   9.138   3.861   3.308
 9707TIP3    H228999   9.160   3.815   3.452
 9708TIP3   OH229000   8.713   5.111   2.776
 9708TIP3    H129001   8.640   5.144   2.830
 9708TIP3    H229002   8.692   5.151   2.689
 9709TIP3   OH229003   8.870   5.653   3.846
 9709TIP3    H129004   8.955   5.652   3.896
 9709TIP3    H229005   8.848   5.559   3.845
 9710TIP3   OH229006   9.350   5.621   3.893
 9710TIP3    H129007   9.445   5.606   3.902
 9710TIP3    H229008   9.327   5.561   3.820
 9711TIP3   OH229009   9.285   5.191   2.020
 9711TIP3    H129010   9.261   5.100   2.052
 9711TIP3    H229011   9.383   5.183   2.030
 9712TIP3   OH229012   9.001   5.062   4.049
 9712TIP3    H129013   9.017   4.966   4.052
 9712TIP3    H229014   8.913   5.064   4.004
 9713TIP3   OH229015   8.974   4.717   2.247
 9713TIP3    H129016   9.031   4.679   2.316
 9713TIP3    H229017   9.037   4.719   2.171
 9714TIP3   OH229018   9.594   5.138   3.824
 9714TIP3    H129019   9.559   5.163   3.736
 9714TIP3    H229020   9.608   5.043   3.815
 9715TIP3   OH229021   9.122   4.792   4.024
 9715TIP3    H129022   9.197   4.735   4.006
 9715TIP3    H229023   9.145   4.824   4.114
 9716TIP3   OH229024   9.184   4.606   2.468
 9716TIP3    H129025   9.153   4.567   2.551
 9716TIP3    H229026   9.217   4.528   2.419
 9717TIP3   OH229027   9.433   4.679   3.708
 9717TIP3    H129028   9.352   4.736   3.706
 9717TIP3    H229029   9.479   4.714   3.628
 9718TIP3   OH229030   9.284   4.402   2.315
 9718TIP3    H129031   9.246   4.400   2.225
 9718TIP3    H229032   9.378   4.415   2.296
 9719TIP3   OH229033   9.544   4.469   3.841
 9719TIP3    H129034   9.568   4.386   3.792
 9719TIP3    H229035   9.493   4.518   3.774
 9720TIP3   OH229036   9.564   4.280   3.639
 9720TIP3    H129037   9.611   4.259   3.556
 9720TIP3    H229038   9.480   4.231   3.626
 9721TIP3   OH229039   9.556   4.797   3.507
 9721TIP3    H129040   9.579   4.743   3.430
 9721TIP3    H229041   9.508   4.871   3.464
 9722TIP3   OH229042   9.423   4.602   4.043
 9722TIP3    H129043   9.368   4.523   4.064
 9722TIP3    H229044   9.471   4.569   3.964
 9723TIP3   OH229045   9.295   4.364   4.100
 9723TIP3    H129046   9.303   4.277   4.057
 9723TIP3    H229047   9.329   4.344   4.190
 9724TIP3   OH229048   9.101   5.442   2.165
 9724TIP3    H129049   9.173   5.503   2.195
 9724TIP3    H229050   9.059   5.508   2.105
 9725TIP3   OH229051   8.574   4.851   2.425
 9725TIP3    H129052   8.669   4.873   2.409
 9725TIP3    H229053   8.567   4.762   2.383
 9726TIP3   OH229054   8.488   5.464   2.835
 9726TIP3    H129055   8.420   5.403   2.800
 9726TIP3    H229056   8.532   5.407   2.902
 9727TIP3   OH229057   8.625   5.317   3.022
 9727TIP3    H129058   8.611   5.244   3.084
 9727TIP3    H229059   8.676   5.379   3.078
 9728TIP3   OH229060   8.812   4.722   3.396
 9728TIP3    H129061   8.811   4.694   3.302
 9728TIP3    H229062   8.909   4.725   3.412
 9729TIP3   OH229063   9.028   4.412   4.071
 9729TIP3    H129064   9.125   4.404   4.071
 9729TIP3    H229065   9.004   4.326   4.112
 9730TIP3   OH229066   8.981   4.105   3.402
 9730TIP3    H129067   9.042   4.028   3.410
 9730TIP3    H229068   9.046   4.177   3.397
 9731TIP3   OH229069   8.790   4.379   3.470
 9731TIP3    H129070   8.845   4.372   3.389
 9731TIP3    H229071   8.823   4.462   3.507
 9732TIP3   OH229072   8.781   3.895   2.982
 9732TIP3    H129073   8.694   3.856   2.970
 9732TIP3    H229074   8.791   3.947   2.899
 9733TIP3   OH229075   8.993   3.964   3.789
 9733TIP3    H129076   8.943   3.956   3.873
 9733TIP3    H229077   8.924   3.999   3.729
 9734TIP3   OH229078   9.038   5.381   3.866
 9734TIP3    H129079   8.946   5.358   3.844
 9734TIP3    H229080   9.037   5.375   3.962
 9735TIP3   OH229081   9.213   5.422   3.415
 9735TIP3    H129082   9.164   5.496   3.375
 9735TIP3    H229083   9.298   5.435   3.367
 9736TIP3   OH229084   9.674   5.669   3.543
 9736TIP3    H129085   9.695   5.662   3.639
 9736TIP3    H229086   9.747   5.724   3.513
 9737TIP3   OH229087   8.892   5.674   3.440
 9737TIP3    H129088   8.804   5.707   3.412
 9737TIP3    H229089   8.900   5.718   3.526
 9738TIP3   OH229090   9.128   5.655   3.295
 9738TIP3    H129091   9.042   5.669   3.340
 9738TIP3    H229092   9.108   5.689   3.206
 9739TIP3   OH229093   9.544   5.681   3.087
 9739TIP3    H129094   9.472   5.701   3.024
 9739TIP3    H229095   9.557   5.769   3.129
 9740TIP3   OH229096   9.817   5.648   3.128
 9740TIP3    H129097   9.720   5.633   3.121
 9740TIP3    H229098   9.825   5.735   3.088
 9741TIP3   OH229099   8.801   5.470   3.182
 9741TIP3    H129100   8.828   5.445   3.273
 9741TIP3    H229101   8.874   5.427   3.131
 9742TIP3   OH229102   8.994   5.341   3.038
 9742TIP3    H129103   9.012   5.258   3.088
 9742TIP3    H229104   9.084   5.380   3.032
 9743TIP3   OH229105   9.257   5.442   3.040
 9743TIP3    H129106   9.283   5.349   3.026
 9743TIP3    H229107   9.301   5.460   3.125
 9744TIP3   OH229108   9.080   3.810   3.141
 9744TIP3    H129109   8.987   3.780   3.142
 9744TIP3    H229110   9.125   3.722   3.145
 9745TIP3   OH229111   8.879   3.668   2.789
 9745TIP3    H129112   8.905   3.726   2.714
 9745TIP3    H229113   8.850   3.733   2.855
 9746TIP3   OH229114   8.592   5.241   2.573
 9746TIP3    H129115   8.506   5.209   2.540
 9746TIP3    H229116   8.580   5.336   2.558
 9747TIP3   OH229117   8.984   3.830   2.569
 9747TIP3    H129118   9.021   3.767   2.503
 9747TIP3    H229119   9.063   3.877   2.601
 9748TIP3   OH229120   9.445   5.382   2.144
 9748TIP3    H129121   9.426   5.478   2.154
 9748TIP3    H229122   9.383   5.358   2.075
 9749TIP3   OH229123   9.261   4.079   4.018
 9749TIP3    H129124   9.227   4.012   4.080
 9749TIP3    H229125   9.355   4.082   4.047
 9750TIP3   OH229126   9.496   4.086   4.150
 9750TIP3    H129127   9.593   4.091   4.137
 9750TIP3    H229128   9.493   4.014   4.217
 9751TIP3   OH229129   8.676   5.276   2.216
 9751TIP3    H129130   8.645   5.310   2.302
 9751TIP3    H229131   8.749   5.218   2.241
 9752TIP3   OH229132   0.433   5.339   4.919
 9752TIP3    H129133   0.406   5.431   4.900
 9752TIP3    H229134   0.356   5.291   4.886
 9753TIP3   OH229135   0.441   5.336   5.293
 9753TIP3    H129136   0.466   5.309   5.383
 9753TIP3    H229137   0.396   5.257   5.260
 9754TIP3   OH229138   0.675   5.643   4.980
 9754TIP3    H129139   0.662   5.572   5.045
 9754TIP3    H229140   0.704   5.717   5.036
 9755TIP3   OH229141   0.323   6.108   4.993
 9755TIP3    H129142   0.368   6.032   4.950
 9755TIP3    H229143   0.305   6.073   5.081
 9756TIP3   OH229144   0.220   5.512   5.327
 9756TIP3    H129145   0.300   5.465   5.295
 9756TIP3    H229146   0.261   5.592   5.364
 9757TIP3   OH229147   1.240   4.888   5.344
 9757TIP3    H129148   1.272   4.968   5.388
 9757TIP3    H229149   1.269   4.904   5.252
 9758TIP3   OH229150   0.640   5.069   5.383
 9758TIP3    H129151   0.686   4.984   5.402
 9758TIP3    H229152   0.613   5.054   5.290
 9759TIP3   OH229153   0.018   4.724   5.350
 9759TIP3    H129154  -0.022   4.802   5.307
 9759TIP3    H229155  -0.023   4.653   5.297
 9760TIP3   OH229156   0.674   4.819   4.968
 9760TIP3    H129157   0.746   4.803   5.034
 9760TIP3    H229158   0.727   4.853   4.894
 9761TIP3   OH229159   0.056   5.136   5.262
 9761TIP3    H129160   0.149   5.106   5.264
 9761TIP3    H229161   0.012   5.061   5.217
 9762TIP3   OH229162   1.316   5.092   5.515
 9762TIP3    H129163   1.233   5.141   5.498
 9762TIP3    H229164   1.333   5.117   5.607
 9763TIP3   OH229165   0.326   5.562   4.788
 9763TIP3    H129166   0.286   5.540   4.703
 9763TIP3    H229167   0.281   5.645   4.811
 9764TIP3   OH229168   0.885   4.821   5.139
 9764TIP3    H129169   0.884   4.768   5.220
 9764TIP3    H229170   0.942   4.896   5.165
 9765TIP3   OH229171   0.749   5.885   5.149
 9765TIP3    H129172   0.659   5.876   5.190
 9765TIP3    H229173   0.739   5.971   5.104
 9766TIP3   OH229174   1.037   4.787   5.511
 9766TIP3    H129175   0.950   4.818   5.480
 9766TIP3    H229176   1.097   4.819   5.441
 9767TIP3   OH229177   0.333   4.426   5.490
 9767TIP3    H129178   0.329   4.330   5.508
 9767TIP3    H229179   0.262   4.458   5.548
 9768TIP3   OH229180   0.449   5.931   4.824
 9768TIP3    H129181   0.499   5.848   4.803
 9768TIP3    H229182   0.509   5.997   4.784
 9769TIP3   OH229183   0.591   5.718   4.728
 9769TIP3    H129184   0.556   5.637   4.687
 9769TIP3    H229185   0.627   5.682   4.813
 9770TIP3   OH229186   0.973   5.799   5.492
 9770TIP3    H129187   0.962   5.721   5.434
 9770TIP3    H229188   0.956   5.873   5.430
 9771TIP3   OH229189   0.265   5.191   4.748
 9771TIP3    H129190   0.185   5.241   4.723
 9771TIP3    H229191   0.314   5.188   4.664
 9772TIP3   OH229192   0.224   4.975   4.468
 9772TIP3    H129193   0.292   5.026   4.515
 9772TIP3    H229194   0.281   4.912   4.420
 9773TIP3   OH229195   1.168   5.435   5.337
 9773TIP3    H129196   1.085   5.488   5.342
 9773TIP3    H229197   1.197   5.457   5.246
 9774TIP3   OH229198   0.611   5.274   4.722
 9774TIP3    H129199   0.557   5.299   4.800
 9774TIP3    H229200   0.695   5.248   4.765
 9775TIP3   OH229201   0.846   5.315   5.633
 9775TIP3    H129202   0.845   5.398   5.684
 9775TIP3    H229203   0.761   5.321   5.585
 9776TIP3   OH229204  -0.014   5.231   5.506
 9776TIP3    H129205   0.018   5.198   5.419
 9776TIP3    H229206   0.034   5.314   5.514
 9777TIP3   OH229207   0.508   5.882   5.270
 9777TIP3    H129208   0.490   5.958   5.328
 9777TIP3    H229209   0.492   5.806   5.329
 9778TIP3   OH229210   0.453   5.133   4.547
 9778TIP3    H129211   0.512   5.192   4.599
 9778TIP3    H229212   0.479   5.157   4.455
 9779TIP3   OH229213   0.191   5.817   4.829
 9779TIP3    H129214   0.276   5.860   4.846
 9779TIP3    H229215   0.146   5.885   4.775
 9780TIP3   OH229216   0.968   4.374   4.594
 9780TIP3    H129217   0.887   4.394   4.646
 9780TIP3    H229218   0.980   4.458   4.545
 9781TIP3   OH229219   0.767   5.741   4.143
 9781TIP3    H129220   0.775   5.838   4.129
 9781TIP3    H229221   0.859   5.712   4.131
 9782TIP3   OH229222   1.209   6.143   5.536
 9782TIP3    H129223   1.209   6.046   5.550
 9782TIP3    H229224   1.126   6.167   5.583
 9783TIP3   OH229225   0.336   5.909   5.685
 9783TIP3    H129226   0.339   6.003   5.713
 9783TIP3    H229227   0.243   5.897   5.664
 9784TIP3   OH229228   0.104   6.041   4.648
 9784TIP3    H129229   0.070   6.016   4.560
 9784TIP3    H229230   0.068   6.130   4.659
 9785TIP3   OH229231   0.281   5.960   4.266
 9785TIP3    H129232   0.337   5.890   4.227
 9785TIP3    H229233   0.321   5.969   4.355
 9786TIP3   OH229234   0.346   6.003   4.532
 9786TIP3    H129235   0.262   6.006   4.583
 9786TIP3    H229236   0.404   5.960   4.597
 9787TIP3   OH229237   1.100   5.275   5.813
 9787TIP3    H129238   1.020   5.286   5.758
 9787TIP3    H229239   1.117   5.179   5.802
 9788TIP3   OH229240   0.086   4.509   5.626
 9788TIP3    H129241   0.016   4.470   5.573
 9788TIP3    H229242   0.085   4.601   5.595
 9789TIP3   OH229243   0.631   4.622   5.816
 9789TIP3    H129244   0.701   4.593   5.879
 9789TIP3    H229245   0.549   4.599   5.864
 9790TIP3   OH229246   0.866   5.048   5.732
 9790TIP3    H129247   0.819   5.046   5.819
 9790TIP3    H229248   0.845   5.137   5.700
 9791TIP3   OH229249   0.528   5.180   4.291
 9791TIP3    H129250   0.495   5.154   4.203
 9791TIP3    H229251   0.609   5.229   4.267
 9792TIP3   OH229252   0.242   4.556   4.593
 9792TIP3    H129253   0.211   4.552   4.685
 9792TIP3    H229254   0.204   4.473   4.559
 9793TIP3   OH229255   0.017   5.005   5.651
 9793TIP3    H129256  -0.030   5.039   5.728
 9793TIP3    H229257   0.008   5.081   5.590
 9794TIP3   OH229258  -0.096   4.897   5.159
 9794TIP3    H129259  -0.190   4.910   5.145
 9794TIP3    H229260  -0.071   4.855   5.074
 9795TIP3   OH229261   0.402   4.992   4.881
 9795TIP3    H129262   0.350   5.064   4.840
 9795TIP3    H229263   0.458   4.962   4.807
 9796TIP3   OH229264   0.579   5.272   5.969
 9796TIP3    H129265   0.557   5.199   6.031
 9796TIP3    H229266   0.674   5.284   5.990
 9797TIP3   OH229267   0.558   5.022   5.123
 9797TIP3    H129268   0.500   5.052   5.050
 9797TIP3    H229269   0.592   4.940   5.080
 9798TIP3   OH229270  -0.099   4.532   4.563
 9798TIP3    H129271  -0.110   4.527   4.660
 9798TIP3    H229272  -0.190   4.538   4.532
 9799TIP3   OH229273   0.563   5.268   5.546
 9799TIP3    H129274   0.599   5.198   5.487
 9799TIP3    H229275   0.541   5.214   5.625
 9800TIP3   OH229276   0.254   4.735   5.210
 9800TIP3    H129277   0.173   4.734   5.265
 9800TIP3    H229278   0.324   4.727   5.278
 9801TIP3   OH229279  -0.052   4.787   4.909
 9801TIP3    H129280   0.045   4.799   4.896
 9801TIP3    H229281  -0.091   4.821   4.827
 9802TIP3   OH229282   0.730   4.807   5.420
 9802TIP3    H129283   0.693   4.817   5.511
 9802TIP3    H229284   0.668   4.744   5.381
 9803TIP3   OH229285  -0.233   4.842   4.688
 9803TIP3    H129286  -0.271   4.754   4.670
 9803TIP3    H229287  -0.173   4.856   4.611
 9804TIP3   OH229288   0.899   6.495   5.636
 9804TIP3    H129289   0.899   6.517   5.541
 9804TIP3    H229290   0.979   6.542   5.667
 9805TIP3   OH229291   0.324   5.056   5.311
 9805TIP3    H129292   0.396   5.020   5.257
 9805TIP3    H229293   0.339   5.013   5.397
 9806TIP3   OH229294  -0.118   4.547   5.194
 9806TIP3    H129295  -0.186   4.477   5.208
 9806TIP3    H229296  -0.076   4.515   5.113
 9807TIP3   OH229297   0.299   4.947   5.612
 9807TIP3    H129298   0.211   4.989   5.619
 9807TIP3    H229299   0.358   5.012   5.656
 9808TIP3   OH229300   0.041   5.339   4.685
 9808TIP3    H129301  -0.035   5.277   4.682
 9808TIP3    H229302   0.030   5.377   4.776
 9809TIP3   OH229303   0.936   5.582   5.329
 9809TIP3    H129304   0.960   5.630   5.247
 9809TIP3    H229305   0.851   5.540   5.304
 9810TIP3   OH229306   0.494   4.658   4.559
 9810TIP3    H129307   0.397   4.642   4.567
 9810TIP3    H229308   0.504   4.752   4.584
 9811TIP3   OH229309   0.431   5.652   5.701
 9811TIP3    H129310   0.461   5.645   5.792
 9811TIP3    H229311   0.397   5.743   5.698
 9812TIP3   OH229312   0.563   4.905   4.664
 9812TIP3    H129313   0.660   4.910   4.680
 9812TIP3    H229314   0.546   4.984   4.610
 9813TIP3   OH229315   0.191   5.490   4.517
 9813TIP3    H129316   0.145   5.577   4.526
 9813TIP3    H229317   0.133   5.434   4.574
 9814TIP3   OH229318   0.344   5.407   6.015
 9814TIP3    H129319   0.287   5.337   5.977
 9814TIP3    H229320   0.432   5.377   5.984
 9815TIP3   OH229321   0.601   5.925   5.590
 9815TIP3    H129322   0.505   5.915   5.607
 9815TIP3    H229323   0.627   5.976   5.670
 9816TIP3   OH229324   1.005   4.994   4.501
 9816TIP3    H129325   0.943   4.949   4.439
 9816TIP3    H229326   1.002   5.083   4.459
 9817TIP3   OH229327   1.224   5.854   5.580
 9817TIP3    H129328   1.126   5.847   5.573
 9817TIP3    H229329   1.249   5.822   5.491
 9818TIP3   OH229330   0.707   5.813   4.409
 9818TIP3    H129331   0.680   5.742   4.469
 9818TIP3    H229332   0.717   5.767   4.323
 9819TIP3   OH229333   0.703   5.442   5.249
 9819TIP3    H129334   0.609   5.416   5.259
 9819TIP3    H229335   0.737   5.363   5.202
 9820TIP3   OH229336   0.012   5.437   4.934
 9820TIP3    H129337   0.000   5.531   4.951
 9820TIP3    H229338  -0.035   5.397   5.007
 9821TIP3   OH229339   0.491   5.651   5.428
 9821TIP3    H129340   0.477   5.644   5.525
 9821TIP3    H229341   0.568   5.594   5.416
 9822TIP3   OH229342   0.461   5.542   4.308
 9822TIP3    H129343   0.510   5.517   4.389
 9822TIP3    H229344   0.371   5.513   4.332
 9823TIP3   OH229345   0.735   6.183   5.480
 9823TIP3    H129346   0.658   6.125   5.475
 9823TIP3    H229347   0.718   6.246   5.407
 9824TIP3   OH229348   0.800   6.017   4.130
 9824TIP3    H129349   0.836   6.088   4.075
 9824TIP3    H229350   0.720   6.061   4.163
 9825TIP3   OH229351   0.620   5.477   4.529
 9825TIP3    H129352   0.610   5.409   4.598
 9825TIP3    H229353   0.716   5.473   4.515
 9826TIP3   OH229354  -0.118   5.494   4.336
 9826TIP3    H129355  -0.104   5.408   4.290
 9826TIP3    H229356  -0.147   5.462   4.422
 9827TIP3   OH229357   0.651   4.861   5.680
 9827TIP3    H129358   0.735   4.897   5.712
 9827TIP3    H229359   0.642   4.779   5.733
 9828TIP3   OH229360   0.533   4.611   4.841
 9828TIP3    H129361   0.523   4.633   4.747
 9828TIP3    H229362   0.575   4.693   4.877
 9829TIP3   OH229363   0.049   5.719   4.541
 9829TIP3    H129364  -0.045   5.734   4.557
 9829TIP3    H229365   0.061   5.756   4.451
 9830TIP3   OH229366   0.223   4.791   4.943
 9830TIP3    H129367   0.290   4.860   4.923
 9830TIP3    H229368   0.235   4.780   5.040
 9831TIP3   OH229369   0.491   5.108   5.754
 9831TIP3    H129370   0.516   5.159   5.834
 9831TIP3    H229371   0.547   5.029   5.762
 9832TIP3   OH229372   0.372   4.517   5.048
 9832TIP3    H129373   0.367   4.594   5.107
 9832TIP3    H229374   0.432   4.552   4.978
 9833TIP3   OH229375  -0.111   4.529   4.846
 9833TIP3    H129376  -0.090   4.617   4.884
 9833TIP3    H229377  -0.021   4.490   4.846
 9834TIP3   OH229378   1.135   5.010   5.732
 9834TIP3    H129379   1.037   5.005   5.737
 9834TIP3    H229380   1.149   4.965   5.648
 9835TIP3   OH229381   0.786   5.202   5.121
 9835TIP3    H129382   0.711   5.141   5.133
 9835TIP3    H229383   0.859   5.156   5.168
 9836TIP3   OH229384   0.754   6.158   5.071
 9836TIP3    H129385   0.712   6.205   4.996
 9836TIP3    H229386   0.848   6.176   5.050
 9837TIP3   OH229387   0.036   5.712   4.254
 9837TIP3    H129388  -0.021   5.635   4.275
 9837TIP3    H229389   0.078   5.682   4.172
 9838TIP3   OH229390   0.653   6.057   5.827
 9838TIP3    H129391   0.645   5.984   5.893
 9838TIP3    H229392   0.731   6.106   5.860
 9839TIP3   OH229393   0.430   5.770   4.134
 9839TIP3    H129394   0.471   5.703   4.192
 9839TIP3    H229395   0.484   5.766   4.054
 9840TIP3   OH229396   0.282   5.683   6.013
 9840TIP3    H129397   0.219   5.665   5.943
 9840TIP3    H229398   0.314   5.592   6.031
 9841TIP3   OH229399   0.164   5.433   4.245
 9841TIP3    H129400   0.155   5.451   4.340
 9841TIP3    H229401   0.156   5.335   4.243
 9842TIP3   OH229402   0.758   5.684   5.629
 9842TIP3    H129403   0.833   5.729   5.585
 9842TIP3    H229404   0.687   5.750   5.614
 9843TIP3   OH229405  -0.150   5.142   4.670
 9843TIP3    H129406  -0.183   5.085   4.740
 9843TIP3    H229407  -0.117   5.076   4.605
 9844TIP3   OH229408   0.185   5.218   5.887
 9844TIP3    H129409   0.098   5.262   5.886
 9844TIP3    H229410   0.219   5.243   5.798
 9845TIP3   OH229411  -0.053   4.938   4.506
 9845TIP3    H129412  -0.077   4.947   4.411
 9845TIP3    H229413   0.045   4.944   4.500
 9846TIP3   OH229414   0.627   5.607   6.028
 9846TIP3    H129415   0.708   5.587   5.979
 9846TIP3    H229416   0.630   5.540   6.100
 9847TIP3   OH229417   0.765   5.272   4.168
 9847TIP3    H129418   0.744   5.225   4.085
 9847TIP3    H229419   0.733   5.362   4.144
 9848TIP3   OH229420   0.245   4.982   6.032
 9848TIP3    H129421   0.235   4.908   5.970
 9848TIP3    H229422   0.216   5.059   5.978
 9849TIP3   OH229423   0.228   4.777   5.821
 9849TIP3    H129424   0.269   4.824   5.745
 9849TIP3    H229425   0.134   4.783   5.800
 9850TIP3   OH229426   0.264   5.339   5.653
 9850TIP3    H129427   0.355   5.321   5.626
 9850TIP3    H229428   0.258   5.434   5.636
 9851TIP3   OH229429   0.848   5.288   6.082
 9851TIP3    H129430   0.894   5.204   6.092
 9851TIP3    H229431   0.917   5.345   6.046
 9852TIP3   OH229432   0.888   5.541   5.818
 9852TIP3    H129433   0.830   5.595   5.758
 9852TIP3    H229434   0.975   5.560   5.778
 9853TIP3   OH229435   0.370   4.549   5.893
 9853TIP3    H129436   0.319   4.629   5.870
 9853TIP3    H229437   0.302   4.479   5.886
 9854TIP3   OH229438   0.497   5.056   6.112
 9854TIP3    H129439   0.487   5.046   6.209
 9854TIP3    H229440   0.408   5.026   6.085
 9855TIP3   OH229441   0.735   5.005   5.965
 9855TIP3    H129442   0.660   5.004   6.028
 9855TIP3    H229443   0.809   4.973   6.021
 9856TIP3   OH229444   0.960   4.942   6.116
 9856TIP3    H129445   0.976   4.847   6.133
 9856TIP3    H229446   0.960   4.981   6.206
 9857TIP3   OH229447   0.463   4.559   6.151
 9857TIP3    H129448   0.533   4.490   6.148
 9857TIP3    H229449   0.426   4.551   6.061
 9858TIP3   OH229450   0.529   4.773   6.310
 9858TIP3    H129451   0.508   4.702   6.246
 9858TIP3    H229452   0.454   4.835   6.299
 9859TIP3   OH229453   1.006   6.252   5.025
 9859TIP3    H129454   1.035   6.280   5.114
 9859TIP3    H229455   1.072   6.292   4.967
 9860TIP3   OH229456   1.039   6.268   5.308
 9860TIP3    H129457   0.993   6.181   5.303
 9860TIP3    H229458   1.112   6.244   5.366
 9861TIP3   OH229459   1.083   5.946   5.880
 9861TIP3    H129460   1.010   5.953   5.945
 9861TIP3    H229461   1.124   6.034   5.886
 9862TIP3   OH229462   0.899   5.459   4.502
 9862TIP3    H129463   0.968   5.521   4.473
 9862TIP3    H229464   0.941   5.419   4.581
 9863TIP3   OH229465   1.026   5.327   4.705
 9863TIP3    H129466   0.962   5.284   4.765
 9863TIP3    H229467   1.092   5.363   4.768
 9864TIP3   OH229468   1.080   5.717   5.137
 9864TIP3    H129469   1.134   5.652   5.089
 9864TIP3    H229470   1.071   5.789   5.073
 9865TIP3   OH229471   0.913   6.019   5.332
 9865TIP3    H129472   0.841   6.058   5.385
 9865TIP3    H229473   0.864   5.969   5.263
 9866TIP3   OH229474   0.965   5.233   4.352
 9866TIP3    H129475   0.894   5.236   4.285
 9866TIP3    H229476   0.938   5.309   4.408
 9867TIP3   OH229477   0.835   4.907   4.307
 9867TIP3    H129478   0.794   4.945   4.229
 9867TIP3    H229479   0.810   4.812   4.298
 9868TIP3   OH229480   0.841   5.182   4.852
 9868TIP3    H129481   0.851   5.085   4.847
 9868TIP3    H229482   0.828   5.196   4.948
 9869TIP3   OH229483   1.130   5.607   5.709
 9869TIP3    H129484   1.203   5.540   5.701
 9869TIP3    H229485   1.158   5.675   5.645
 9870TIP3   OH229486   1.316   5.414   5.729
 9870TIP3    H129487   1.242   5.362   5.767
 9870TIP3    H229488   1.389   5.349   5.742
 9871TIP3   OH229489   0.780   4.641   4.293
 9871TIP3    H129490   0.857   4.611   4.346
 9871TIP3    H229491   0.709   4.580   4.319
 9872TIP3   OH229492   0.837   4.897   4.747
 9872TIP3    H129493   0.877   4.809   4.763
 9872TIP3    H229494   0.896   4.930   4.677
 9873TIP3   OH229495   0.999   5.075   5.241
 9873TIP3    H129496   1.085   5.100   5.201
 9873TIP3    H229497   1.014   5.109   5.331
 9874TIP3   OH229498   1.067   5.216   5.475
 9874TIP3    H129499   0.989   5.251   5.522
 9874TIP3    H229500   1.100   5.296   5.429
 9875TIP3   OH229501   1.516   4.805   6.030
 9875TIP3    H129502   1.578   4.738   5.991
 9875TIP3    H229503   1.495   4.860   5.953
 9876TIP3   OH229504   0.945   4.648   4.785
 9876TIP3    H129505   0.995   4.632   4.868
 9876TIP3    H229506   0.886   4.570   4.784
 9877TIP3   OH229507   1.391   4.949   5.834
 9877TIP3    H129508   1.302   4.985   5.852
 9877TIP3    H229509   1.368   4.874   5.777
 9878TIP3   OH229510   1.027   4.584   4.415
 9878TIP3    H129511   1.069   4.511   4.366
 9878TIP3    H229512   1.096   4.654   4.411
 9879TIP3   OH229513   0.593   6.115   4.686
 9879TIP3    H129514   0.641   6.099   4.602
 9879TIP3    H229515   0.650   6.181   4.728
 9880TIP3   OH229516   0.350   6.169   5.762
 9880TIP3    H129517   0.365   6.204   5.852
 9880TIP3    H229518   0.393   6.238   5.708
 9881TIP3   OH229519   0.492   6.356   5.610
 9881TIP3    H129520   0.557   6.295   5.570
 9881TIP3    H229521   0.549   6.405   5.674
 9882TIP3   OH229522   1.289   4.708   5.715
 9882TIP3    H129523   1.198   4.698   5.681
 9882TIP3    H229524   1.323   4.616   5.704
 9883TIP3   OH229525   0.218   6.237   5.262
 9883TIP3    H129526   0.122   6.247   5.253
 9883TIP3    H229527   0.240   6.316   5.316
 9884TIP3   OH229528   0.478   6.163   5.349
 9884TIP3    H129529   0.388   6.173   5.312
 9884TIP3    H229530   0.526   6.233   5.304
 9885TIP3   OH229531   0.687   6.348   5.264
 9885TIP3    H129532   0.675   6.432   5.216
 9885TIP3    H229533   0.713   6.287   5.191
 9886TIP3   OH229534   0.493   4.624   5.331
 9886TIP3    H129535   0.452   4.551   5.381
 9886TIP3    H229536   0.568   4.579   5.287
 9887TIP3   OH229537   1.017   4.505   5.238
 9887TIP3    H129538   1.055   4.556   5.163
 9887TIP3    H229539   0.922   4.524   5.229
 9888TIP3   OH229540   1.112   4.607   5.002
 9888TIP3    H129541   1.185   4.554   4.963
 9888TIP3    H229542   1.147   4.697   4.986
 9889TIP3   OH229543   0.192   4.372   5.228
 9889TIP3    H129544   0.250   4.420   5.167
 9889TIP3    H229545   0.225   4.400   5.315
 9890TIP3   OH229546   0.730   4.512   5.214
 9890TIP3    H129547   0.735   4.474   5.125
 9890TIP3    H229548   0.719   4.432   5.270
 9891TIP3   OH229549   0.763   4.434   4.775
 9891TIP3    H129550   0.675   4.474   4.785
 9891TIP3    H229551   0.750   4.349   4.823
 9892TIP3   OH229552  -0.320   4.286   4.802
 9892TIP3    H129553  -0.321   4.269   4.707
 9892TIP3    H229554  -0.295   4.379   4.806
 9893TIP3   OH229555   0.166   4.537   4.859
 9893TIP3    H129556   0.225   4.490   4.919
 9893TIP3    H229557   0.188   4.630   4.883
 9894TIP3   OH229558   0.029   5.976   4.389
 9894TIP3    H129559   0.116   5.970   4.343
 9894TIP3    H229560  -0.028   5.939   4.317
 9895TIP3   OH229561   0.736   6.080   4.452
 9895TIP3    H129562   0.729   5.983   4.439
 9895TIP3    H229563   0.692   6.113   4.371
 9896TIP3   OH229564   0.195   4.586   6.345
 9896TIP3    H129565   0.280   4.578   6.298
 9896TIP3    H229566   0.212   4.529   6.422
 9897TIP3   OH229567   1.024   4.673   6.147
 9897TIP3    H129568   1.045   4.640   6.237
 9897TIP3    H229569   1.113   4.668   6.104
 9898TIP3   OH229570   0.964   6.226   5.639
 9898TIP3    H129571   0.886   6.192   5.592
 9898TIP3    H229572   0.943   6.321   5.642
 9899TIP3   OH229573   2.231   5.598   4.406
 9899TIP3    H129574   2.201   5.689   4.386
 9899TIP3    H229575   2.154   5.547   4.374
 9900TIP3   OH229576   2.225   5.598   4.789
 9900TIP3    H129577   2.260   5.567   4.874
 9900TIP3    H229578   2.187   5.516   4.752
 9901TIP3   OH229579   1.527   5.494   5.154
 9901TIP3    H129580   1.558   5.425   5.216
 9901TIP3    H229581   1.609   5.544   5.142
 9902TIP3   OH229582   2.470   5.900   4.468
 9902TIP3    H129583   2.459   5.827   4.530
 9902TIP3    H229584   2.502   5.972   4.525
 9903TIP3   OH229585   1.499   5.902   4.878
 9903TIP3    H129586   1.490   5.804   4.879
 9903TIP3    H229587   1.596   5.910   4.873
 9904TIP3   OH229588   1.206   5.107   4.662
 9904TIP3    H129589   1.157   5.190   4.676
 9904TIP3    H229590   1.135   5.050   4.625
 9905TIP3   OH229591   1.266   5.392   4.832
 9905TIP3    H129592   1.314   5.315   4.870
 9905TIP3    H229593   1.326   5.419   4.761
 9906TIP3   OH229594   2.122   6.362   4.485
 9906TIP3    H129595   2.168   6.292   4.434
 9906TIP3    H229596   2.114   6.320   4.572
 9907TIP3   OH229597   2.028   5.824   4.834
 9907TIP3    H129598   2.064   5.744   4.791
 9907TIP3    H229599   2.113   5.867   4.857
 9908TIP3   OH229600   3.040   5.146   4.827
 9908TIP3    H129601   3.068   5.228   4.873
 9908TIP3    H229602   3.064   5.167   4.735
 9909TIP3   OH229603   2.441   5.328   4.867
 9909TIP3    H129604   2.482   5.242   4.890
 9909TIP3    H229605   2.409   5.309   4.777
 9910TIP3   OH229606   1.774   4.985   4.833
 9910TIP3    H129607   1.756   5.057   4.769
 9910TIP3    H229608   1.728   4.910   4.788
 9911TIP3   OH229609   2.471   5.074   4.454
 9911TIP3    H129610   2.542   5.057   4.521
 9911TIP3    H229611   2.525   5.110   4.381
 9912TIP3   OH229612   1.411   5.186   4.939
 9912TIP3    H129613   1.494   5.166   4.987
 9912TIP3    H229614   1.425   5.130   4.859
 9913TIP3   OH229615   1.852   5.384   4.733
 9913TIP3    H129616   1.946   5.359   4.747
 9913TIP3    H229617   1.814   5.300   4.701
 9914TIP3   OH229618   3.117   5.353   4.998
 9914TIP3    H129619   3.031   5.397   4.981
 9914TIP3    H229620   3.116   5.355   5.095
 9915TIP3   OH229621   1.774   4.966   5.265
 9915TIP3    H129622   1.712   5.002   5.199
 9915TIP3    H229623   1.724   4.981   5.347
 9916TIP3   OH229624   2.122   5.819   4.276
 9916TIP3    H129625   2.079   5.795   4.193
 9916TIP3    H229626   2.077   5.903   4.298
 9917TIP3   OH229627   1.882   5.743   5.062
 9917TIP3    H129628   1.818   5.807   5.100
 9917TIP3    H229629   1.923   5.794   4.990
 9918TIP3   OH229630   2.682   5.077   4.625
 9918TIP3    H129631   2.671   5.027   4.707
 9918TIP3    H229632   2.736   5.152   4.654
 9919TIP3   OH229633   1.643   5.083   5.051
 9919TIP3    H129634   1.708   5.153   5.075
 9919TIP3    H229635   1.692   5.040   4.977
 9920TIP3   OH229636   1.708   5.936   5.161
 9920TIP3    H129637   1.681   6.021   5.121
 9920TIP3    H229638   1.629   5.918   5.217
 9921TIP3   OH229639   1.104   5.626   4.396
 9921TIP3    H129640   1.062   5.652   4.312
 9921TIP3    H229641   1.134   5.711   4.432
 9922TIP3   OH229642   2.542   6.142   4.638
 9922TIP3    H129643   2.452   6.133   4.676
 9922TIP3    H229644   2.534   6.227   4.591
 9923TIP3   OH229645   2.851   5.061   5.020
 9923TIP3    H129646   2.758   5.062   4.989
 9923TIP3    H229647   2.900   5.075   4.936
 9924TIP3   OH229648   2.123   4.688   4.973
 9924TIP3    H129649   2.121   4.594   4.999
 9924TIP3    H229650   2.047   4.723   5.025
 9925TIP3   OH229651   2.244   6.190   4.310
 9925TIP3    H129652   2.294   6.107   4.291
 9925TIP3    H229653   2.306   6.254   4.268
 9926TIP3   OH229654   2.387   5.975   4.216
 9926TIP3    H129655   2.351   5.895   4.175
 9926TIP3    H229656   2.422   5.940   4.300
 9927TIP3   OH229657   2.768   6.057   4.978
 9927TIP3    H129658   2.759   5.977   4.921
 9927TIP3    H229659   2.756   6.129   4.914
 9928TIP3   OH229660   2.060   5.450   4.235
 9928TIP3    H129661   1.980   5.500   4.211
 9928TIP3    H229662   2.108   5.445   4.150
 9929TIP3   OH229663   2.019   5.233   3.953
 9929TIP3    H129664   2.087   5.283   4.002
 9929TIP3    H229665   2.075   5.169   3.906
 9930TIP3   OH229666   2.964   5.693   4.823
 9930TIP3    H129667   2.881   5.745   4.829
 9930TIP3    H229668   2.993   5.715   4.732
 9931TIP3   OH229669   2.408   5.532   4.208
 9931TIP3    H129670   2.354   5.556   4.287
 9931TIP3    H229671   2.491   5.504   4.251
 9932TIP3   OH229672   2.644   5.572   5.118
 9932TIP3    H129673   2.640   5.655   5.169
 9932TIP3    H229674   2.557   5.574   5.073
 9933TIP3   OH229675   1.641   5.530   4.624
 9933TIP3    H129676   1.599   5.472   4.558
 9933TIP3    H229677   1.717   5.476   4.654
 9934TIP3   OH229678   1.771   5.943   4.773
 9934TIP3    H129679   1.749   5.897   4.690
 9934TIP3    H229680   1.861   5.908   4.791
 9935TIP3   OH229681   1.773   5.501   4.979
 9935TIP3    H129682   1.809   5.476   4.891
 9935TIP3    H229683   1.820   5.585   4.998
 9936TIP3   OH229684   2.299   6.142   4.758
 9936TIP3    H129685   2.290   6.215   4.821
 9936TIP3    H229686   2.288   6.063   4.815
 9937TIP3   OH229687   1.913   6.060   5.300
 9937TIP3    H129688   1.853   6.120   5.349
 9937TIP3    H229689   1.849   6.004   5.253
 9938TIP3   OH229690   2.248   5.390   4.034
 9938TIP3    H129691   2.308   5.448   4.086
 9938TIP3    H229692   2.275   5.414   3.942
 9939TIP3   OH229693   1.668   5.618   5.402
 9939TIP3    H129694   1.671   5.703   5.450
 9939TIP3    H229695   1.574   5.595   5.410
 9940TIP3   OH229696   1.990   6.070   4.310
 9940TIP3    H129697   2.070   6.123   4.327
 9940TIP3    H229698   1.930   6.134   4.270
 9941TIP3   OH229699   1.707   6.229   5.391
 9941TIP3    H129700   1.673   6.224   5.299
 9941TIP3    H229701   1.628   6.205   5.444
 9942TIP3   OH229702   2.764   4.630   4.081
 9942TIP3    H129703   2.683   4.649   4.133
 9942TIP3    H229704   2.776   4.715   4.033
 9943TIP3   OH229705   1.506   5.373   4.431
 9943TIP3    H129706   1.439   5.415   4.372
 9943TIP3    H229707   1.469   5.285   4.443
 9944TIP3   OH229708   2.563   5.998   3.631
 9944TIP3    H129709   2.573   6.094   3.616
 9944TIP3    H229710   2.656   5.967   3.618
 9945TIP3   OH229711   1.288   5.757   5.336
 9945TIP3    H129712   1.223   5.732   5.267
 9945TIP3    H229713   1.325   5.670   5.362
 9946TIP3   OH229714   1.141   5.950   4.967
 9946TIP3    H129715   1.237   5.939   4.959
 9946TIP3    H229716   1.134   6.027   5.025
 9947TIP3   OH229717   3.004   6.399   5.023
 9947TIP3    H129718   3.005   6.302   5.038
 9947TIP3    H229719   2.922   6.423   5.071
 9948TIP3   OH229720   2.110   6.188   5.158
 9948TIP3    H129721   2.109   6.279   5.193
 9948TIP3    H229722   2.039   6.146   5.212
 9949TIP3   OH229723   1.872   6.316   4.111
 9949TIP3    H129724   1.826   6.296   4.028
 9949TIP3    H229725   1.839   6.405   4.133
 9950TIP3   OH229726   1.310   6.165   4.496
 9950TIP3    H129727   1.358   6.155   4.581
 9950TIP3    H229728   1.255   6.085   4.496
 9951TIP3   OH229729   2.074   6.216   3.752
 9951TIP3    H129730   2.133   6.146   3.715
 9951TIP3    H229731   2.108   6.225   3.843
 9952TIP3   OH229732   2.124   6.265   4.022
 9952TIP3    H129733   2.036   6.273   4.065
 9952TIP3    H229734   2.174   6.220   4.092
 9953TIP3   OH229735   2.895   5.532   5.299
 9953TIP3    H129736   2.815   5.540   5.245
 9953TIP3    H229737   2.916   5.437   5.288
 9954TIP3   OH229738   1.492   5.941   5.328
 9954TIP3    H129739   1.543   5.921   5.409
 9954TIP3    H229740   1.419   5.875   5.333
 9955TIP3   OH229741   1.885   4.768   5.096
 9955TIP3    H129742   1.794   4.737   5.077
 9955TIP3    H229743   1.865   4.845   5.152
 9956TIP3   OH229744   2.430   4.881   5.324
 9956TIP3    H129745   2.468   4.805   5.373
 9956TIP3    H229746   2.334   4.864   5.341
 9957TIP3   OH229747   2.663   5.306   5.223
 9957TIP3    H129748   2.618   5.303   5.310
 9957TIP3    H229749   2.639   5.393   5.189
 9958TIP3   OH229750   2.324   5.440   3.779
 9958TIP3    H129751   2.291   5.412   3.692
 9958TIP3    H229752   2.407   5.485   3.753
 9959TIP3   OH229753   2.037   4.813   4.080
 9959TIP3    H129754   2.006   4.810   4.173
 9959TIP3    H229755   2.000   4.729   4.047
 9960TIP3   OH229756   1.822   5.278   5.128
 9960TIP3    H129757   1.774   5.299   5.210
 9960TIP3    H229758   1.806   5.358   5.074
 9961TIP3   OH229759   1.706   5.166   4.641
 9961TIP3    H129760   1.614   5.137   4.659
 9961TIP3    H229761   1.721   5.123   4.553
 9962TIP3   OH229762   2.199   5.250   4.369
 9962TIP3    H129763   2.145   5.321   4.327
 9962TIP3    H229764   2.253   5.219   4.294
 9963TIP3   OH229765   2.373   5.532   5.460
 9963TIP3    H129766   2.351   5.456   5.519
 9963TIP3    H229767   2.469   5.541   5.478
 9964TIP3   OH229768   2.357   5.279   4.607
 9964TIP3    H129769   2.296   5.306   4.536
 9964TIP3    H229770   2.390   5.196   4.567
 9965TIP3   OH229771   1.640   5.308   5.338
 9965TIP3    H129772   1.677   5.366   5.406
 9965TIP3    H229773   1.632   5.223   5.386
 9966TIP3   OH229774   1.692   4.784   4.045
 9966TIP3    H129775   1.686   4.781   4.143
 9966TIP3    H229776   1.612   4.836   4.023
 9967TIP3   OH229777   1.236   4.830   4.916
 9967TIP3    H129778   1.311   4.861   4.971
 9967TIP3    H229779   1.278   4.795   4.837
 9968TIP3   OH229780   1.209   4.809   4.436
 9968TIP3    H129781   1.256   4.848   4.359
 9968TIP3    H229782   1.149   4.883   4.457
 9969TIP3   OH229783   2.365   5.526   5.032
 9969TIP3    H129784   2.399   5.454   4.973
 9969TIP3    H229785   2.338   5.473   5.109
 9970TIP3   OH229786   2.032   4.994   4.704
 9970TIP3    H129787   1.953   4.986   4.761
 9970TIP3    H229788   2.104   4.978   4.767
 9971TIP3   OH229789   1.469   5.041   4.711
 9971TIP3    H129790   1.375   5.046   4.684
 9971TIP3    H229791   1.495   4.950   4.689
 9972TIP3   OH229792   1.739   5.038   4.400
 9972TIP3    H129793   1.834   5.052   4.381
 9972TIP3    H229794   1.695   5.061   4.315
 9973TIP3   OH229795   2.523   5.064   4.906
 9973TIP3    H129796   2.490   5.072   4.998
 9973TIP3    H229797   2.463   4.997   4.871
 9974TIP3   OH229798   1.577   5.074   4.178
 9974TIP3    H129799   1.506   5.028   4.130
 9974TIP3    H229800   1.630   5.108   4.103
 9975TIP3   OH229801   2.695   6.752   5.115
 9975TIP3    H129802   2.701   6.776   5.021
 9975TIP3    H229803   2.771   6.798   5.153
 9976TIP3   OH229804   1.653   5.864   5.546
 9976TIP3    H129805   1.734   5.891   5.594
 9976TIP3    H229806   1.589   5.859   5.620
 9977TIP3   OH229807   2.118   5.317   4.802
 9977TIP3    H129808   2.187   5.270   4.754
 9977TIP3    H229809   2.122   5.273   4.890
 9978TIP3   OH229810   1.639   4.803   4.677
 9978TIP3    H129811   1.608   4.723   4.725
 9978TIP3    H229812   1.700   4.764   4.612
 9979TIP3   OH229813   2.096   5.217   5.077
 9979TIP3    H129814   2.006   5.244   5.104
 9979TIP3    H229815   2.153   5.268   5.138
 9980TIP3   OH229816   1.829   5.604   4.183
 9980TIP3    H129817   1.759   5.536   4.174
 9980TIP3    H229818   1.813   5.636   4.276
 9981TIP3   OH229819   2.732   5.840   4.815
 9981TIP3    H129820   2.756   5.887   4.733
 9981TIP3    H229821   2.647   5.796   4.790
 9982TIP3   OH229822   2.289   4.916   4.043
 9982TIP3    H129823   2.193   4.899   4.055
 9982TIP3    H229824   2.299   5.009   4.071
 9983TIP3   OH229825   2.235   5.923   5.180
 9983TIP3    H129826   2.254   5.891   5.269
 9983TIP3    H229827   2.191   6.008   5.196
 9984TIP3   OH229828   2.359   5.161   4.150
 9984TIP3    H129829   2.455   5.165   4.167
 9984TIP3    H229830   2.343   5.241   4.097
 9985TIP3   OH229831   1.523   5.624   4.861
 9985TIP3    H129832   1.561   5.595   4.776
 9985TIP3    H229833   1.564   5.562   4.923
 9986TIP3   OH229834   1.975   5.751   4.004
 9986TIP3    H129835   1.929   5.837   4.012
 9986TIP3    H229836   1.922   5.695   4.065
 9987TIP3   OH229837   1.402   5.548   5.476
 9987TIP3    H129838   1.426   5.531   5.569
 9987TIP3    H229839   1.337   5.477   5.459
 9988TIP3   OH229840   2.129   5.659   5.493
 9988TIP3    H129841   2.072   5.599   5.443
 9988TIP3    H229842   2.218   5.624   5.468
 9989TIP3   OH229843   2.390   6.192   5.072
 9989TIP3    H129844   2.296   6.177   5.090
 9989TIP3    H229845   2.418   6.236   5.155
 9990TIP3   OH229846   2.802   5.250   3.987
 9990TIP3    H129847   2.739   5.205   3.926
 9990TIP3    H229848   2.799   5.339   3.946
 9991TIP3   OH229849   3.019   6.110   5.067
 9991TIP3    H129850   2.921   6.103   5.060
 9991TIP3    H229851   3.045   6.079   4.978
 9992TIP3   OH229852   2.499   6.071   3.895
 9992TIP3    H129853   2.478   5.999   3.956
 9992TIP3    H229854   2.514   6.024   3.811
 9993TIP3   OH229855   2.497   5.700   4.733
 9993TIP3    H129856   2.404   5.673   4.747
 9993TIP3    H229857   2.533   5.620   4.690
 9994TIP3   OH229858   1.623   5.928   4.488
 9994TIP3    H129859   1.624   6.008   4.432
 9994TIP3    H229860   1.529   5.909   4.494
 9995TIP3   OH229861   1.186   5.232   4.188
 9995TIP3    H129862   1.234   5.315   4.209
 9995TIP3    H229863   1.110   5.237   4.250
 9996TIP3   OH229864   1.764   5.694   4.430
 9996TIP3    H129865   1.728   5.783   4.450
 9996TIP3    H229866   1.729   5.642   4.505
 9997TIP3   OH229867   1.893   6.272   4.957
 9997TIP3    H129868   1.936   6.342   4.904
 9997TIP3    H229869   1.969   6.234   5.003
 9998TIP3   OH229870   1.543   6.167   4.338
 9998TIP3    H129871   1.458   6.174   4.385
 9998TIP3    H229872   1.574   6.260   4.341
 9999TIP3   OH229873   2.285   5.908   4.912
 9999TIP3    H129874   2.275   5.904   5.010
 9999TIP3    H229875   2.361   5.849   4.898
10000TIP3   OH229876   2.255   5.799   3.797
10000TIP3    H129877   2.310   5.774   3.875
10000TIP3    H229878   2.168   5.770   3.827
10001TIP3   OH229879   2.531   6.441   4.968
10001TIP3    H129880   2.456   6.379   4.961
10001TIP3    H229881   2.513   6.502   4.893
10002TIP3   OH229882   2.596   6.273   3.616
10002TIP3    H129883   2.636   6.345   3.565
10002TIP3    H229884   2.516   6.320   3.648
10003TIP3   OH229885   1.617   5.052   5.483
10003TIP3    H129886   1.521   5.050   5.496
10003TIP3    H229887   1.647   4.990   5.551
10004TIP3   OH229888   2.416   5.734   4.014
10004TIP3    H129889   2.405   5.667   4.084
10004TIP3    H229890   2.513   5.730   4.001
10005TIP3   OH229891   1.332   6.135   5.115
10005TIP3    H129892   1.382   6.057   5.142
10005TIP3    H229893   1.362   6.199   5.181
10006TIP3   OH229894   1.621   5.779   3.796
10006TIP3    H129895   1.637   5.688   3.766
10006TIP3    H229896   1.603   5.766   3.891
10007TIP3   OH229897   1.568   5.784   4.069
10007TIP3    H129898   1.640   5.754   4.126
10007TIP3    H229899   1.574   5.881   4.077
10008TIP3   OH229900   1.303   5.477   4.271
10008TIP3    H129901   1.238   5.521   4.328
10008TIP3    H229902   1.319   5.547   4.205
10009TIP3   OH229903   2.449   5.112   5.169
10009TIP3    H129904   2.532   5.147   5.204
10009TIP3    H229905   2.436   5.032   5.224
10010TIP3   OH229906   2.333   4.867   4.327
10010TIP3    H129907   2.321   4.891   4.233
10010TIP3    H229908   2.372   4.948   4.365
10011TIP3   OH229909   1.833   5.981   4.018
10011TIP3    H129910   1.747   6.009   4.053
10011TIP3    H229911   1.849   6.052   3.953
10012TIP3   OH229912   2.020   5.046   4.431
10012TIP3    H129913   2.087   5.116   4.415
10012TIP3    H229914   2.026   5.036   4.529
10013TIP3   OH229915   2.293   5.364   5.239
10013TIP3    H129916   2.314   5.413   5.321
10013TIP3    H229917   2.345   5.283   5.248
10014TIP3   OH229918   2.167   4.772   4.532
10014TIP3    H129919   2.174   4.840   4.601
10014TIP3    H229920   2.227   4.809   4.463
10015TIP3   OH229921   1.577   6.057   4.084
10015TIP3    H129922   1.546   6.127   4.022
10015TIP3    H229923   1.560   6.100   4.171
10016TIP3   OH229924   1.678   4.770   4.321
10016TIP3    H129925   1.676   4.859   4.361
10016TIP3    H229926   1.773   4.750   4.331
10017TIP3   OH229927   2.931   5.270   5.207
10017TIP3    H129928   2.834   5.267   5.225
10017TIP3    H229929   2.933   5.210   5.131
10018TIP3   OH229930   2.582   5.460   4.608
10018TIP3    H129931   2.507   5.399   4.620
10018TIP3    H229932   2.655   5.413   4.655
10019TIP3   OH229933   1.295   5.689   4.077
10019TIP3    H129934   1.363   5.758   4.087
10019TIP3    H229935   1.340   5.632   4.010
10020TIP3   OH229936   1.240   4.963   4.211
10020TIP3    H129937   1.239   5.060   4.205
10020TIP3    H229938   1.156   4.939   4.170
10021TIP3   OH229939   2.550   6.415   4.558
10021TIP3    H129940   2.508   6.463   4.483
10021TIP3    H229941   2.644   6.433   4.538
10022TIP3   OH229942   1.620   4.683   5.087
10022TIP3    H129943   1.594   4.646   5.000
10022TIP3    H229944   1.617   4.604   5.145
10023TIP3   OH229945   1.169   5.906   4.466
10023TIP3    H129946   1.094   5.932   4.521
10023TIP3    H229947   1.143   5.942   4.379
10024TIP3   OH229948   1.322   6.440   5.535
10024TIP3    H129949   1.408   6.437   5.581
10024TIP3    H229950   1.299   6.346   5.533
10025TIP3   OH229951   1.812   6.413   5.574
10025TIP3    H129952   1.901   6.378   5.586
10025TIP3    H229953   1.779   6.353   5.504
10026TIP3   OH229954   1.786   5.983   3.710
10026TIP3    H129955   1.729   5.911   3.748
10026TIP3    H229956   1.861   5.930   3.679
10027TIP3   OH229957   2.437   6.318   5.317
10027TIP3    H129958   2.432   6.244   5.383
10027TIP3    H229959   2.520   6.363   5.344
10028TIP3   OH229960   2.223   6.024   3.621
10028TIP3    H129961   2.265   5.959   3.680
10028TIP3    H229962   2.281   6.022   3.542
10029TIP3   OH229963   1.453   5.848   5.737
10029TIP3    H129964   1.471   5.753   5.742
10029TIP3    H229965   1.365   5.850   5.692
10030TIP3   OH229966   1.430   5.501   3.930
10030TIP3    H129967   1.484   5.465   4.002
10030TIP3    H229968   1.498   5.504   3.858
10031TIP3   OH229969   2.060   5.933   5.510
10031TIP3    H129970   2.020   5.944   5.422
10031TIP3    H229971   2.093   5.840   5.506
10032TIP3   OH229972   1.936   5.698   3.736
10032TIP3    H129973   1.941   5.710   3.833
10032TIP3    H229974   1.939   5.600   3.730
10033TIP3   OH229975   2.554   5.940   5.116
10033TIP3    H129976   2.628   5.986   5.072
10033TIP3    H229977   2.482   6.002   5.100
10034TIP3   OH229978   1.573   5.583   5.716
10034TIP3    H129979   1.646   5.524   5.696
10034TIP3    H229980   1.598   5.614   5.806
10035TIP3   OH229981   1.639   5.403   4.152
10035TIP3    H129982   1.613   5.360   4.236
10035TIP3    H229983   1.675   5.327   4.101
10036TIP3   OH229984   1.904   5.467   5.380
10036TIP3    H129985   1.829   5.529   5.381
10036TIP3    H229986   1.957   5.501   5.303
10037TIP3   OH229987   1.738   5.197   3.993
10037TIP3    H129988   1.713   5.198   3.898
10037TIP3    H229989   1.836   5.201   3.986
10038TIP3   OH229990   2.426   5.871   5.514
10038TIP3    H129991   2.506   5.844   5.465
10038TIP3    H229992   2.421   5.802   5.583
10039TIP3   OH229993   2.560   5.529   3.655
10039TIP3    H129994   2.540   5.481   3.572
10039TIP3    H229995   2.528   5.619   3.629
10040TIP3   OH229996   2.028   5.257   5.511
10040TIP3    H129997   2.030   5.176   5.454
10040TIP3    H229998   1.986   5.321   5.450
10041TIP3   OH229999   2.024   5.059   5.319
10041TIP3    H130000   2.061   5.075   5.231
10041TIP3    H230001   1.935   5.023   5.297
10042TIP3   OH230002   2.061   5.579   5.190
10042TIP3    H130003   2.143   5.577   5.139
10042TIP3    H230004   2.007   5.645   5.141
10043TIP3   OH230005   2.643   5.547   5.569
10043TIP3    H130006   2.684   5.460   5.585
10043TIP3    H230007   2.717   5.597   5.531
10044TIP3   OH230008   2.684   5.799   5.307
10044TIP3    H130009   2.627   5.851   5.245
10044TIP3    H230010   2.772   5.816   5.266
10045TIP3   OH230011   1.904   5.371   5.736
10045TIP3    H130012   1.838   5.299   5.750
10045TIP3    H230013   1.943   5.344   5.650
10046TIP3   OH230014   2.170   4.817   5.343
10046TIP3    H130015   2.106   4.887   5.358
10046TIP3    H230016   2.119   4.737   5.370
10047TIP3   OH230017   2.290   5.312   5.596
10047TIP3    H130018   2.284   5.298   5.692
10047TIP3    H230019   2.200   5.285   5.570
10048TIP3   OH230020   2.540   5.265   5.460
10048TIP3    H130021   2.461   5.257   5.516
10048TIP3    H230022   2.609   5.220   5.514
10049TIP3   OH230023   2.756   5.172   5.624
10049TIP3    H130024   2.765   5.088   5.674
10049TIP3    H230025   2.757   5.235   5.699
10050TIP3   OH230026   1.748   5.149   5.790
10050TIP3    H130027   1.753   5.058   5.754
10050TIP3    H230028   1.786   5.134   5.879
10051TIP3   OH230029   2.310   5.013   5.794
10051TIP3    H130030   2.303   4.964   5.711
10051TIP3    H230031   2.242   5.083   5.786
10052TIP3   OH230032   1.546   6.262   3.897
10052TIP3    H130033   1.642   6.256   3.878
10052TIP3    H230034   1.516   6.308   3.817
10053TIP3   OH230035   1.026   5.641   4.113
10053TIP3    H130036   1.121   5.662   4.100
10053TIP3    H230037   1.021   5.552   4.073
10054TIP3   OH230038   0.940   6.254   4.526
10054TIP3    H130039   0.873   6.191   4.491
10054TIP3    H230040   0.984   6.197   4.592
10055TIP3   OH230041   1.075   6.107   4.714
10055TIP3    H130042   1.065   6.031   4.773
10055TIP3    H230043   1.127   6.167   4.772
10056TIP3   OH230044   2.800   6.513   4.512
10056TIP3    H130045   2.832   6.538   4.601
10056TIP3    H230046   2.871   6.547   4.455
10057TIP3   OH230047   2.834   6.526   4.795
10057TIP3    H130048   2.790   6.438   4.791
10057TIP3    H230049   2.909   6.504   4.852
10058TIP3   OH230050   2.877   6.203   5.367
10058TIP3    H130051   2.806   6.211   5.433
10058TIP3    H230052   2.920   6.291   5.373
10059TIP3   OH230053   2.695   5.716   3.989
10059TIP3    H130054   2.765   5.778   3.960
10059TIP3    H230055   2.737   5.676   4.068
10060TIP3   OH230056   2.822   5.584   4.192
10060TIP3    H130057   2.758   5.540   4.252
10060TIP3    H230058   2.888   5.619   4.254
10061TIP3   OH230059   2.875   5.973   4.622
10061TIP3    H130060   2.931   5.908   4.576
10061TIP3    H230061   2.869   6.046   4.557
10062TIP3   OH230062   2.710   6.276   4.817
10062TIP3    H130063   2.639   6.311   4.873
10062TIP3    H230064   2.661   6.226   4.749
10063TIP3   OH230065   2.761   5.490   3.839
10063TIP3    H130066   2.689   5.493   3.772
10063TIP3    H230067   2.734   5.566   3.895
10064TIP3   OH230068   2.631   5.164   3.793
10064TIP3    H130069   2.590   5.200   3.714
10064TIP3    H230070   2.607   5.069   3.785
10065TIP3   OH230071   2.637   5.438   4.339
10065TIP3    H130072   2.646   5.341   4.334
10065TIP3    H230073   2.624   5.452   4.435
10066TIP3   OH230074   1.263   5.514   5.084
10066TIP3    H130075   1.263   5.482   4.992
10066TIP3    H230076   1.360   5.515   5.102
10067TIP3   OH230077   2.926   5.864   5.195
10067TIP3    H130078   2.998   5.796   5.188
10067TIP3    H230079   2.957   5.932   5.133
10068TIP3   OH230080   3.112   5.671   5.216
10068TIP3    H130081   3.037   5.618   5.252
10068TIP3    H230082   3.185   5.606   5.229
10069TIP3   OH230083   2.576   4.898   3.780
10069TIP3    H130084   2.652   4.867   3.834
10069TIP3    H230085   2.504   4.838   3.806
10070TIP3   OH230086   2.633   5.154   4.233
10070TIP3    H130087   2.673   5.065   4.250
10070TIP3    H230088   2.693   5.186   4.164
10071TIP3   OH230089   2.795   5.331   4.726
10071TIP3    H130090   2.882   5.357   4.688
10071TIP3    H230091   2.808   5.363   4.818
10072TIP3   OH230092   2.864   5.472   4.959
10072TIP3    H130093   2.786   5.505   5.009
10072TIP3    H230094   2.896   5.554   4.916
10073TIP3   OH230095   1.482   5.202   5.763
10073TIP3    H130096   1.579   5.193   5.761
10073TIP3    H230097   1.457   5.115   5.801
10074TIP3   OH230098   3.354   5.080   5.511
10074TIP3    H130099   3.351   4.988   5.482
10074TIP3    H230100   3.292   5.121   5.448
10075TIP3   OH230101   2.742   4.904   4.271
10075TIP3    H130102   2.790   4.889   4.355
10075TIP3    H230103   2.682   4.827   4.271
10076TIP3   OH230104   1.440   4.893   5.093
10076TIP3    H130105   1.501   4.816   5.102
10076TIP3    H230106   1.505   4.965   5.085
10077TIP3   OH230107   1.244   5.167   5.162
10077TIP3    H130108   1.294   5.156   5.079
10077TIP3    H230109   1.280   5.250   5.196
10078TIP3   OH230110   3.195   5.210   5.318
10078TIP3    H130111   3.113   5.230   5.366
10078TIP3    H230112   3.164   5.131   5.268
10079TIP3   OH230113   2.824   4.841   3.902
10079TIP3    H130114   2.865   4.767   3.852
10079TIP3    H230115   2.892   4.910   3.897
10080TIP3   OH230116   1.228   4.668   4.665
10080TIP3    H130117   1.134   4.666   4.690
10080TIP3    H230118   1.227   4.727   4.586
10081TIP3   OH230119   2.387   6.374   4.170
10081TIP3    H130120   2.437   6.355   4.088
10081TIP3    H230121   2.446   6.435   4.216
10082TIP3   OH230122   1.448   4.757   5.483
10082TIP3    H130123   1.396   4.743   5.564
10082TIP3    H230124   1.379   4.786   5.421
10083TIP3   OH230125   1.488   6.180   5.559
10083TIP3    H130126   1.398   6.147   5.539
10083TIP3    H230127   1.499   6.152   5.651
10084TIP3   OH230128   1.666   6.208   5.106
10084TIP3    H130129   1.618   6.283   5.065
10084TIP3    H230130   1.752   6.220   5.061
10085TIP3   OH230131   2.117   6.455   5.245
10085TIP3    H130132   2.158   6.449   5.333
10085TIP3    H230133   2.187   6.501   5.195
10086TIP3   OH230134   2.306   6.601   5.105
10086TIP3    H130135   2.342   6.537   5.042
10086TIP3    H230136   2.387   6.643   5.136
10087TIP3   OH230137   3.089   4.984   5.183
10087TIP3    H130138   2.998   4.998   5.151
10087TIP3    H230139   3.093   4.888   5.195
10088TIP3   OH230140   1.344   6.469   5.124
10088TIP3    H130141   1.255   6.503   5.102
10088TIP3    H230142   1.350   6.493   5.217
10089TIP3   OH230143   1.581   6.446   4.985
10089TIP3    H130144   1.495   6.458   5.030
10089TIP3    H230145   1.561   6.476   4.895
10090TIP3   OH230146   2.005   6.474   4.782
10090TIP3    H130147   1.936   6.492   4.716
10090TIP3    H230148   2.017   6.562   4.822
10091TIP3   OH230149   2.273   6.423   4.844
10091TIP3    H130150   2.180   6.431   4.814
10091TIP3    H230151   2.318   6.486   4.787
10092TIP3   OH230152   2.480   6.604   4.749
10092TIP3    H130153   2.468   6.688   4.700
10092TIP3    H230154   2.510   6.544   4.678
10093TIP3   OH230155   1.255   6.260   4.874
10093TIP3    H130156   1.283   6.233   4.964
10093TIP3    H230157   1.326   6.215   4.822
10094TIP3   OH230158   1.448   6.130   4.730
10094TIP3    H130159   1.463   6.045   4.777
10094TIP3    H230160   1.539   6.165   4.724
10095TIP3   OH230161   1.715   6.226   4.731
10095TIP3    H130162   1.746   6.134   4.717
10095TIP3    H230163   1.759   6.244   4.816
10096TIP3   OH230164   2.280   4.875   4.805
10096TIP3    H130165   2.244   4.812   4.871
10096TIP3    H230166   2.362   4.830   4.777
10097TIP3   OH230167   2.818   4.756   4.724
10097TIP3    H130168   2.851   4.810   4.650
10097TIP3    H230169   2.723   4.774   4.723
10098TIP3   OH230170   2.909   4.864   4.487
10098TIP3    H130171   2.982   4.812   4.447
10098TIP3    H230172   2.943   4.956   4.472
10099TIP3   OH230173   1.540   4.590   4.835
10099TIP3    H130174   1.448   4.555   4.838
10099TIP3    H230175   1.590   4.506   4.833
10100TIP3   OH230176   1.320   4.459   4.481
10100TIP3    H130177   1.355   4.517   4.411
10100TIP3    H230178   1.296   4.524   4.550
10101TIP3   OH230179   1.979   4.627   4.719
10101TIP3    H130180   2.041   4.674   4.661
10101TIP3    H230181   2.009   4.656   4.806
10102TIP3   OH230182   2.532   4.770   4.702
10102TIP3    H130183   2.530   4.729   4.615
10102TIP3    H230184   2.516   4.691   4.759
10103TIP3   OH230185   2.559   4.690   4.261
10103TIP3    H130186   2.472   4.732   4.275
10103TIP3    H230187   2.546   4.606   4.310
10104TIP3   OH230188   1.043   6.029   4.263
10104TIP3    H130189   0.958   5.995   4.229
10104TIP3    H230190   1.031   6.124   4.245
10105TIP3   OH230191   1.442   4.620   4.246
10105TIP3    H130192   1.491   4.557   4.191
10105TIP3    H230193   1.515   4.674   4.283
10106TIP3   OH230194   1.956   4.794   4.346
10106TIP3    H130195   2.015   4.748   4.407
10106TIP3    H230196   1.977   4.887   4.372
10107TIP3   OH230197   1.814   6.221   3.844
10107TIP3    H130198   1.903   6.241   3.809
10107TIP3    H230199   1.792   6.144   3.786
10108TIP3   OH230200   2.533   6.337   3.938
10108TIP3    H130201   2.525   6.239   3.926
10108TIP3    H230202   2.489   6.368   3.857
10109TIP3   OH230203   1.745   4.875   5.729
10109TIP3    H130204   1.714   4.799   5.782
10109TIP3    H230205   1.841   4.872   5.752
10110TIP3   OH230206   1.994   4.869   5.849
10110TIP3    H130207   2.076   4.834   5.810
10110TIP3    H230208   1.977   4.799   5.917
10111TIP3   OH230209   1.120   6.059   3.903
10111TIP3    H130210   1.117   6.081   3.997
10111TIP3    H230211   1.208   6.016   3.893
10112TIP3   OH230212   2.759   6.485   5.128
10112TIP3    H130213   2.681   6.453   5.079
10112TIP3    H230214   2.738   6.581   5.130
10113TIP3   OH230215   4.026   5.852   3.893
10113TIP3    H130216   3.999   5.944   3.874
10113TIP3    H230217   3.948   5.804   3.861
10114TIP3   OH230218   4.023   5.853   4.273
10114TIP3    H130219   4.055   5.824   4.360
10114TIP3    H230220   3.983   5.772   4.239
10115TIP3   OH230221   3.323   5.750   4.640
10115TIP3    H130222   3.354   5.682   4.702
10115TIP3    H230223   3.404   5.803   4.629
10116TIP3   OH230224   4.267   6.154   3.954
10116TIP3    H130225   4.255   6.086   4.021
10116TIP3    H230226   4.296   6.230   4.008
10117TIP3   OH230227   3.294   6.158   4.364
10117TIP3    H130228   3.286   6.060   4.366
10117TIP3    H230229   3.390   6.168   4.358
10118TIP3   OH230230   3.003   5.364   4.148
10118TIP3    H130231   2.953   5.446   4.162
10118TIP3    H230232   2.932   5.307   4.113
10119TIP3   OH230233   3.061   5.649   4.318
10119TIP3    H130234   3.110   5.572   4.357
10119TIP3    H230235   3.123   5.677   4.249
10120TIP3   OH230236   3.913   6.615   3.977
10120TIP3    H130237   3.958   6.549   3.920
10120TIP3    H230238   3.922   6.574   4.064
10121TIP3   OH230239   3.824   6.080   4.322
10121TIP3    H130240   3.862   6.002   4.276
10121TIP3    H230241   3.908   6.125   4.345
10122TIP3   OH230242   4.840   5.404   4.312
10122TIP3    H130243   4.866   5.487   4.356
10122TIP3    H230244   4.864   5.422   4.220
10123TIP3   OH230245   4.237   5.583   4.354
10123TIP3    H130246   4.278   5.497   4.375
10123TIP3    H230247   4.205   5.567   4.263
10124TIP3   OH230248   3.573   5.241   4.319
10124TIP3    H130249   3.552   5.314   4.256
10124TIP3    H230250   3.524   5.168   4.276
10125TIP3   OH230251   4.267   5.330   3.941
10125TIP3    H130252   4.339   5.315   4.007
10125TIP3    H230253   4.319   5.367   3.868
10126TIP3   OH230254   3.208   5.443   4.425
10126TIP3    H130255   3.291   5.423   4.473
10126TIP3    H230256   3.221   5.387   4.346
10127TIP3   OH230257   3.648   5.641   4.219
10127TIP3    H130258   3.742   5.615   4.233
10127TIP3    H230259   3.610   5.556   4.187
10128TIP3   OH230260   4.912   5.607   4.489
10128TIP3    H130261   4.827   5.652   4.468
10128TIP3    H230262   4.922   5.633   4.582
10129TIP3   OH230263   3.577   5.220   4.751
10129TIP3    H130264   3.515   5.257   4.685
10129TIP3    H230265   3.529   5.243   4.833
10130TIP3   OH230266   3.918   6.074   3.763
10130TIP3    H130267   3.876   6.056   3.678
10130TIP3    H230268   3.876   6.159   3.788
10131TIP3   OH230269   3.677   5.999   4.549
10131TIP3    H130270   3.615   6.064   4.587
10131TIP3    H230271   3.720   6.050   4.478
10132TIP3   OH230272   4.477   5.333   4.113
10132TIP3    H130273   4.468   5.286   4.197
10132TIP3    H230274   4.533   5.409   4.138
10133TIP3   OH230275   3.441   5.339   4.538
10133TIP3    H130276   3.504   5.410   4.562
10133TIP3    H230277   3.491   5.297   4.464
10134TIP3   OH230278   3.503   6.192   4.647
10134TIP3    H130279   3.478   6.278   4.607
10134TIP3    H230280   3.425   6.176   4.704
10135TIP3   OH230281   2.900   5.882   3.882
10135TIP3    H130282   2.860   5.909   3.798
10135TIP3    H230283   2.932   5.967   3.919
10136TIP3   OH230284   4.339   6.398   4.123
10136TIP3    H130285   4.249   6.390   4.162
10136TIP3    H230286   4.331   6.484   4.077
10137TIP3   OH230287   4.629   5.322   4.480
10137TIP3    H130288   4.539   5.339   4.448
10137TIP3    H230289   4.686   5.345   4.404
10138TIP3   OH230290   3.924   4.951   4.457
10138TIP3    H130291   3.917   4.856   4.477
10138TIP3    H230292   3.846   4.986   4.507
10139TIP3   OH230293   4.040   6.444   3.799
10139TIP3    H130294   4.091   6.363   3.776
10139TIP3    H230295   4.100   6.511   3.758
10140TIP3   OH230296   4.184   6.229   3.702
10140TIP3    H130297   4.146   6.150   3.663
10140TIP3    H230298   4.219   6.195   3.787
10141TIP3   OH230299   4.565   6.312   4.466
10141TIP3    H130300   4.554   6.235   4.407
10141TIP3    H230301   4.548   6.387   4.405
10142TIP3   OH230302   3.856   5.705   3.722
10142TIP3    H130303   3.776   5.757   3.699
10142TIP3    H230304   3.904   5.703   3.637
10143TIP3   OH230305   3.815   5.489   3.439
10143TIP3    H130306   3.882   5.540   3.489
10143TIP3    H230307   3.873   5.426   3.392
10144TIP3   OH230308   4.761   5.949   4.310
10144TIP3    H130309   4.678   6.001   4.316
10144TIP3    H230310   4.790   5.972   4.220
10145TIP3   OH230311   4.204   5.787   3.695
10145TIP3    H130312   4.149   5.812   3.774
10145TIP3    H230313   4.288   5.761   3.739
10146TIP3   OH230314   4.440   5.828   4.605
10146TIP3    H130315   4.436   5.912   4.655
10146TIP3    H230316   4.353   5.831   4.560
10147TIP3   OH230317   3.437   5.786   4.112
10147TIP3    H130318   3.395   5.728   4.045
10147TIP3    H230319   3.513   5.733   4.141
10148TIP3   OH230320   3.565   6.196   4.261
10148TIP3    H130321   3.546   6.153   4.177
10148TIP3    H230322   3.656   6.164   4.280
10149TIP3   OH230323   3.570   5.758   4.466
10149TIP3    H130324   3.605   5.735   4.377
10149TIP3    H230325   3.616   5.842   4.486
10150TIP3   OH230326   4.097   6.395   4.243
10150TIP3    H130327   4.085   6.474   4.298
10150TIP3    H230328   4.083   6.322   4.306
10151TIP3   OH230329   3.710   6.315   4.789
10151TIP3    H130330   3.651   6.377   4.836
10151TIP3    H230331   3.645   6.260   4.741
10152TIP3   OH230332   4.045   5.646   3.521
10152TIP3    H130333   4.104   5.705   3.573
10152TIP3    H230334   4.071   5.670   3.429
10153TIP3   OH230335   3.465   5.872   4.890
10153TIP3    H130336   3.468   5.958   4.936
10153TIP3    H230337   3.370   5.851   4.898
10154TIP3   OH230338   3.790   6.324   3.803
10154TIP3    H130339   3.873   6.375   3.816
10154TIP3    H230340   3.729   6.392   3.773
10155TIP3   OH230341   3.504   6.483   4.876
10155TIP3    H130342   3.469   6.480   4.785
10155TIP3    H230343   3.425   6.462   4.930
10156TIP3   OH230344   4.559   4.895   3.569
10156TIP3    H130345   4.480   4.917   3.623
10156TIP3    H230346   4.573   4.978   3.519
10157TIP3   OH230347   3.303   5.629   3.917
10157TIP3    H130348   3.236   5.672   3.859
10157TIP3    H230349   3.263   5.542   3.930
10158TIP3   OH230350   4.358   6.254   3.116
10158TIP3    H130351   4.367   6.351   3.103
10158TIP3    H230352   4.451   6.225   3.104
10159TIP3   OH230353   3.083   6.012   4.823
10159TIP3    H130354   3.020   5.987   4.753
10159TIP3    H230355   3.122   5.926   4.851
10160TIP3   OH230356   2.939   6.207   4.454
10160TIP3    H130357   3.034   6.193   4.444
10160TIP3    H230358   2.936   6.283   4.514
10161TIP3   OH230359   4.803   6.656   4.512
10161TIP3    H130360   4.801   6.559   4.525
10161TIP3    H230361   4.719   6.681   4.557
10162TIP3   OH230362   3.908   6.444   4.646
10162TIP3    H130363   3.907   6.536   4.679
10162TIP3    H230364   3.837   6.404   4.701
10163TIP3   OH230365   3.103   6.426   3.984
10163TIP3    H130366   3.154   6.415   4.068
10163TIP3    H230367   3.053   6.342   3.983
10164TIP3   OH230368   3.869   6.472   3.237
10164TIP3    H130369   3.930   6.402   3.204
10164TIP3    H230370   3.899   6.481   3.331
10165TIP3   OH230371   3.913   6.524   3.510
10165TIP3    H130372   3.842   6.569   3.561
10165TIP3    H230373   3.968   6.487   3.581
10166TIP3   OH230374   4.696   5.783   4.786
10166TIP3    H130375   4.613   5.803   4.740
10166TIP3    H230376   4.707   5.688   4.766
10167TIP3   OH230377   3.287   6.197   4.814
10167TIP3    H130378   3.339   6.178   4.895
10167TIP3    H230379   3.215   6.131   4.821
10168TIP3   OH230380   3.693   5.022   4.589
10168TIP3    H130381   3.603   4.987   4.573
10168TIP3    H230382   3.670   5.096   4.648
10169TIP3   OH230383   4.213   5.135   4.795
10169TIP3    H130384   4.285   5.097   4.849
10169TIP3    H230385   4.137   5.127   4.854
10170TIP3   OH230386   4.463   5.564   4.713
10170TIP3    H130387   4.414   5.559   4.798
10170TIP3    H230388   4.436   5.650   4.677
10171TIP3   OH230389   4.119   5.693   3.264
10171TIP3    H130390   4.088   5.667   3.176
10171TIP3    H230391   4.200   5.743   3.241
10172TIP3   OH230392   3.833   5.069   3.567
10172TIP3    H130393   3.801   5.066   3.659
10172TIP3    H230394   3.795   4.985   3.534
10173TIP3   OH230395   3.620   5.534   4.614
10173TIP3    H130396   3.571   5.555   4.696
10173TIP3    H230397   3.603   5.615   4.561
10174TIP3   OH230398   3.503   5.421   4.127
10174TIP3    H130399   3.410   5.394   4.146
10174TIP3    H230400   3.516   5.380   4.040
10175TIP3   OH230401   3.994   5.506   3.855
10175TIP3    H130402   3.941   5.577   3.814
10175TIP3    H230403   4.049   5.477   3.780
10176TIP3   OH230404   4.170   5.785   4.944
10176TIP3    H130405   4.148   5.712   5.006
10176TIP3    H230406   4.265   5.799   4.965
10177TIP3   OH230407   4.153   5.535   4.095
10177TIP3    H130408   4.092   5.566   4.024
10177TIP3    H230409   4.185   5.453   4.053
10178TIP3   OH230410   3.437   5.565   4.823
10178TIP3    H130411   3.469   5.625   4.892
10178TIP3    H230412   3.426   5.481   4.872
10179TIP3   OH230413   3.488   5.040   3.533
10179TIP3    H130414   3.481   5.038   3.630
10179TIP3    H230415   3.409   5.092   3.510
10180TIP3   OH230416   3.033   5.088   4.401
10180TIP3    H130417   3.108   5.118   4.456
10180TIP3    H230418   3.076   5.052   4.322
10181TIP3   OH230419   3.006   5.066   3.923
10181TIP3    H130420   3.052   5.105   3.845
10181TIP3    H230421   2.945   5.140   3.945
10182TIP3   OH230422   4.162   5.782   4.519
10182TIP3    H130423   4.195   5.710   4.460
10182TIP3    H230424   4.133   5.729   4.596
10183TIP3   OH230425   3.829   5.243   4.190
10183TIP3    H130426   3.747   5.241   4.245
10183TIP3    H230427   3.898   5.242   4.258
10184TIP3   OH230428   3.266   5.298   4.198
10184TIP3    H130429   3.171   5.304   4.171
10184TIP3    H230430   3.289   5.206   4.176
10185TIP3   OH230431   3.536   5.294   3.886
10185TIP3    H130432   3.630   5.310   3.866
10185TIP3    H230433   3.490   5.318   3.802
10186TIP3   OH230434   4.322   5.321   4.391
10186TIP3    H130435   4.290   5.331   4.483
10186TIP3    H230436   4.258   5.257   4.355
10187TIP3   OH230437   3.374   5.329   3.665
10187TIP3    H130438   3.302   5.284   3.617
10187TIP3    H230439   3.426   5.364   3.590
10188TIP3   OH230440   4.492   7.007   4.610
10188TIP3    H130441   4.490   7.030   4.516
10188TIP3    H230442   4.571   7.056   4.641
10189TIP3   OH230443   3.449   6.119   5.032
10189TIP3    H130444   3.530   6.148   5.080
10189TIP3    H230445   3.386   6.116   5.106
10190TIP3   OH230446   3.913   5.571   4.287
10190TIP3    H130447   3.987   5.529   4.241
10190TIP3    H230448   3.919   5.530   4.376
10191TIP3   OH230449   3.436   5.059   4.164
10191TIP3    H130450   3.403   4.980   4.212
10191TIP3    H230451   3.491   5.021   4.095
10192TIP3   OH230452   3.893   5.474   4.563
10192TIP3    H130453   3.802   5.500   4.588
10192TIP3    H230454   3.948   5.525   4.625
10193TIP3   OH230455   3.626   5.859   3.671
10193TIP3    H130456   3.554   5.793   3.661
10193TIP3    H230457   3.609   5.892   3.762
10194TIP3   OH230458   4.528   6.094   4.302
10194TIP3    H130459   4.553   6.144   4.221
10194TIP3    H230460   4.443   6.053   4.277
10195TIP3   OH230461   4.086   5.171   3.532
10195TIP3    H130462   3.989   5.156   3.541
10195TIP3    H230463   4.097   5.265   3.557
10196TIP3   OH230464   4.026   6.176   4.669
10196TIP3    H130465   4.050   6.153   4.760
10196TIP3    H230466   3.989   6.265   4.677
10197TIP3   OH230467   4.156   5.417   3.636
10197TIP3    H130468   4.252   5.423   3.653
10197TIP3    H230469   4.138   5.498   3.584
10198TIP3   OH230470   3.318   5.880   4.348
10198TIP3    H130471   3.357   5.852   4.263
10198TIP3    H230472   3.361   5.819   4.410
10199TIP3   OH230473   3.771   6.009   3.491
10199TIP3    H130474   3.724   6.096   3.497
10199TIP3    H230475   3.718   5.955   3.552
10200TIP3   OH230476   3.198   5.803   4.963
10200TIP3    H130477   3.221   5.788   5.056
10200TIP3    H230478   3.132   5.733   4.946
10201TIP3   OH230479   3.926   5.914   4.982
10201TIP3    H130480   3.867   5.856   4.930
10201TIP3    H230481   4.014   5.881   4.953
10202TIP3   OH230482   4.188   6.435   4.565
10202TIP3    H130483   4.091   6.435   4.577
10202TIP3    H230484   4.215   6.488   4.643
10203TIP3   OH230485   4.598   5.507   3.474
10203TIP3    H130486   4.536   5.462   3.413
10203TIP3    H230487   4.595   5.596   3.433
10204TIP3   OH230488   4.816   6.365   4.555
10204TIP3    H130489   4.718   6.360   4.547
10204TIP3    H230490   4.841   6.335   4.465
10205TIP3   OH230491   4.298   6.327   3.381
10205TIP3    H130492   4.272   6.259   3.444
10205TIP3    H230493   4.310   6.279   3.297
10206TIP3   OH230494   4.293   5.956   4.222
10206TIP3    H130495   4.200   5.931   4.234
10206TIP3    H230496   4.328   5.877   4.176
10207TIP3   OH230497   3.421   6.184   3.974
10207TIP3    H130498   3.424   6.264   3.920
10207TIP3    H230499   3.326   6.167   3.979
10208TIP3   OH230500   2.983   5.488   3.674
10208TIP3    H130501   3.030   5.571   3.696
10208TIP3    H230502   2.907   5.494   3.737
10209TIP3   OH230503   3.559   5.949   3.917
10209TIP3    H130504   3.526   6.039   3.936
10209TIP3    H230505   3.524   5.899   3.992
10210TIP3   OH230506   3.688   6.528   4.442
10210TIP3    H130507   3.730   6.601   4.390
10210TIP3    H230508   3.765   6.494   4.490
10211TIP3   OH230509   3.340   6.426   3.826
10211TIP3    H130510   3.254   6.434   3.873
10211TIP3    H230511   3.372   6.518   3.830
10212TIP3   OH230512   4.079   6.162   4.400
10212TIP3    H130513   4.070   6.159   4.498
10212TIP3    H230514   4.159   6.109   4.387
10213TIP3   OH230515   4.052   6.052   3.284
10213TIP3    H130516   4.106   6.027   3.363
10213TIP3    H230517   3.963   6.029   3.316
10214TIP3   OH230518   4.326   6.697   4.451
10214TIP3    H130519   4.247   6.640   4.443
10214TIP3    H230520   4.312   6.761   4.379
10215TIP3   OH230521   4.392   6.530   3.103
10215TIP3    H130522   4.431   6.603   3.052
10215TIP3    H230523   4.312   6.575   3.137
10216TIP3   OH230524   3.405   5.317   4.962
10216TIP3    H130525   3.308   5.325   4.975
10216TIP3    H230526   3.425   5.240   5.016
10217TIP3   OH230527   4.212   5.987   3.500
10217TIP3    H130528   4.203   5.921   3.572
10217TIP3    H230529   4.309   5.986   3.488
10218TIP3   OH230530   3.126   6.392   4.602
10218TIP3    H130531   3.179   6.314   4.627
10218TIP3    H230532   3.159   6.457   4.666
10219TIP3   OH230533   3.417   6.034   3.283
10219TIP3    H130534   3.434   5.942   3.255
10219TIP3    H230535   3.399   6.022   3.378
10220TIP3   OH230536   3.363   6.039   3.557
10220TIP3    H130537   3.438   6.013   3.612
10220TIP3    H230538   3.368   6.137   3.563
10221TIP3   OH230539   3.100   5.733   3.757
10221TIP3    H130540   3.034   5.778   3.815
10221TIP3    H230541   3.117   5.803   3.692
10222TIP3   OH230542   4.248   5.371   4.652
10222TIP3    H130543   4.331   5.404   4.689
10222TIP3    H230544   4.232   5.290   4.704
10223TIP3   OH230545   4.130   5.121   3.814
10223TIP3    H130546   4.116   5.146   3.721
10223TIP3    H230547   4.169   5.203   3.851
10224TIP3   OH230548   3.628   6.240   3.502
10224TIP3    H130549   3.540   6.267   3.535
10224TIP3    H230550   3.649   6.318   3.447
10225TIP3   OH230551   3.818   5.301   3.917
10225TIP3    H130552   3.883   5.372   3.900
10225TIP3    H230553   3.823   5.293   4.015
10226TIP3   OH230554   4.088   5.621   4.726
10226TIP3    H130555   4.109   5.673   4.806
10226TIP3    H230556   4.142   5.541   4.737
10227TIP3   OH230557   3.964   5.029   4.020
10227TIP3    H130558   3.960   5.104   4.083
10227TIP3    H230559   4.023   5.066   3.951
10228TIP3   OH230560   3.368   6.312   3.571
10228TIP3    H130561   3.344   6.383   3.506
10228TIP3    H230562   3.356   6.358   3.656
10229TIP3   OH230563   3.474   5.026   3.809
10229TIP3    H130564   3.472   5.116   3.846
10229TIP3    H230565   3.570   5.008   3.818
10230TIP3   OH230566   4.730   5.514   4.701
10230TIP3    H130567   4.633   5.515   4.717
10230TIP3    H230568   4.730   5.469   4.616
10231TIP3   OH230569   4.379   5.715   4.094
10231TIP3    H130570   4.303   5.655   4.107
10231TIP3    H230571   4.451   5.668   4.142
10232TIP3   OH230572   3.090   5.946   3.563
10232TIP3    H130573   3.159   6.015   3.573
10232TIP3    H230574   3.136   5.890   3.497
10233TIP3   OH230575   3.037   5.219   3.697
10233TIP3    H130576   3.035   5.317   3.692
10233TIP3    H230577   2.952   5.195   3.657
10234TIP3   OH230578   4.347   6.670   4.045
10234TIP3    H130579   4.304   6.717   3.970
10234TIP3    H230580   4.441   6.688   4.023
10235TIP3   OH230581   3.424   4.941   4.570
10235TIP3    H130582   3.393   4.908   4.483
10235TIP3    H230583   3.413   4.862   4.627
10236TIP3   OH230584   2.968   6.165   3.954
10236TIP3    H130585   2.890   6.190   4.006
10236TIP3    H230586   2.943   6.199   3.866
10237TIP3   OH230587   3.118   6.698   5.024
10237TIP3    H130588   3.205   6.698   5.070
10237TIP3    H230589   3.099   6.602   5.022
10238TIP3   OH230590   3.600   6.665   5.067
10238TIP3    H130591   3.694   6.647   5.076
10238TIP3    H230592   3.576   6.606   4.993
10239TIP3   OH230593   3.582   6.235   3.190
10239TIP3    H130594   3.526   6.165   3.232
10239TIP3    H230595   3.658   6.182   3.162
10240TIP3   OH230596   4.239   6.570   4.801
10240TIP3    H130597   4.230   6.500   4.870
10240TIP3    H230598   4.317   6.620   4.831
10241TIP3   OH230599   4.018   6.279   3.106
10241TIP3    H130600   4.065   6.218   3.165
10241TIP3    H230601   4.076   6.280   3.027
10242TIP3   OH230602   3.249   6.105   5.224
10242TIP3    H130603   3.267   6.009   5.228
10242TIP3    H230604   3.162   6.106   5.179
10243TIP3   OH230605   3.225   5.757   3.417
10243TIP3    H130606   3.281   5.723   3.489
10243TIP3    H230607   3.292   5.762   3.345
10244TIP3   OH230608   3.856   6.189   4.997
10244TIP3    H130609   3.817   6.204   4.909
10244TIP3    H230610   3.889   6.096   4.990
10245TIP3   OH230611   3.732   5.954   3.222
10245TIP3    H130612   3.737   5.968   3.319
10245TIP3    H230613   3.733   5.856   3.218
10246TIP3   OH230614   4.350   6.198   4.603
10246TIP3    H130615   4.424   6.242   4.558
10246TIP3    H230616   4.279   6.263   4.589
10247TIP3   OH230617   3.368   5.842   5.204
10247TIP3    H130618   3.438   5.779   5.184
10247TIP3    H230619   3.394   5.872   5.293
10248TIP3   OH230620   3.434   5.659   3.639
10248TIP3    H130621   3.409   5.617   3.723
10248TIP3    H230622   3.471   5.584   3.588
10249TIP3   OH230623   3.703   5.724   4.868
10249TIP3    H130624   3.626   5.784   4.869
10249TIP3    H230625   3.753   5.756   4.790
10250TIP3   OH230626   3.535   5.452   3.480
10250TIP3    H130627   3.509   5.455   3.385
10250TIP3    H230628   3.632   5.458   3.473
10251TIP3   OH230629   4.220   6.126   5.002
10251TIP3    H130630   4.300   6.102   4.953
10251TIP3    H230631   4.218   6.058   5.072
10252TIP3   OH230632   4.357   5.784   3.141
10252TIP3    H130633   4.336   5.738   3.058
10252TIP3    H230634   4.325   5.875   3.118
10253TIP3   OH230635   3.824   5.510   4.997
10253TIP3    H130636   3.828   5.431   4.938
10253TIP3    H230637   3.783   5.576   4.938
10254TIP3   OH230638   3.834   5.316   4.804
10254TIP3    H130639   3.857   5.332   4.711
10254TIP3    H230640   3.749   5.268   4.796
10255TIP3   OH230641   3.857   5.835   4.676
10255TIP3    H130642   3.939   5.838   4.626
10255TIP3    H230643   3.802   5.902   4.630
10256TIP3   OH230644   4.436   5.799   5.054
10256TIP3    H130645   4.483   5.725   5.099
10256TIP3    H230646   4.509   5.853   5.021
10257TIP3   OH230647   4.481   6.054   4.791
10257TIP3    H130648   4.422   6.107   4.732
10257TIP3    H230649   4.568   6.075   4.750
10258TIP3   OH230650   3.706   5.625   5.224
10258TIP3    H130651   3.634   5.560   5.239
10258TIP3    H230652   3.738   5.598   5.136
10259TIP3   OH230653   4.089   5.564   5.081
10259TIP3    H130654   4.082   5.558   5.178
10259TIP3    H230655   3.997   5.541   5.055
10260TIP3   OH230656   4.331   5.510   4.945
10260TIP3    H130657   4.250   5.521   5.000
10260TIP3    H230658   4.395   5.477   5.010
10261TIP3   OH230659   3.547   5.405   5.275
10261TIP3    H130660   3.588   5.330   5.230
10261TIP3    H230661   3.575   5.390   5.368
10262TIP3   OH230662   4.100   5.266   5.281
10262TIP3    H130663   4.102   5.238   5.189
10262TIP3    H230664   4.038   5.343   5.279
10263TIP3   OH230665   3.341   6.514   3.384
10263TIP3    H130666   3.439   6.510   3.375
10263TIP3    H230667   3.320   6.563   3.302
10264TIP3   OH230668   2.822   5.898   3.601
10264TIP3    H130669   2.917   5.920   3.586
10264TIP3    H230670   2.817   5.808   3.560
10265TIP3   OH230671   2.735   6.511   4.013
10265TIP3    H130672   2.669   6.447   3.978
10265TIP3    H230673   2.781   6.455   4.080
10266TIP3   OH230674   2.869   6.367   4.203
10266TIP3    H130675   2.863   6.289   4.260
10266TIP3    H230676   2.923   6.425   4.259
10267TIP3   OH230677   4.600   6.759   4.000
10267TIP3    H130678   4.627   6.795   4.087
10267TIP3    H230679   4.659   6.807   3.940
10268TIP3   OH230680   4.629   6.783   4.283
10268TIP3    H130681   4.586   6.695   4.277
10268TIP3    H230682   4.705   6.760   4.339
10269TIP3   OH230683   4.676   6.458   4.855
10269TIP3    H130684   4.602   6.467   4.919
10269TIP3    H230685   4.716   6.547   4.859
10270TIP3   OH230686   4.491   5.972   3.475
10270TIP3    H130687   4.560   6.035   3.447
10270TIP3    H230688   4.534   5.932   3.555
10271TIP3   OH230689   4.619   5.839   3.679
10271TIP3    H130690   4.554   5.797   3.738
10271TIP3    H230691   4.684   5.877   3.741
10272TIP3   OH230692   4.673   6.230   4.111
10272TIP3    H130693   4.726   6.166   4.060
10272TIP3    H230694   4.666   6.305   4.049
10273TIP3   OH230695   4.506   6.531   4.307
10273TIP3    H130696   4.434   6.573   4.357
10273TIP3    H230697   4.456   6.483   4.237
10274TIP3   OH230698   4.558   5.746   3.326
10274TIP3    H130699   4.486   5.749   3.259
10274TIP3    H230700   4.531   5.822   3.381
10275TIP3   OH230701   4.428   5.420   3.281
10275TIP3    H130702   4.387   5.458   3.203
10275TIP3    H230703   4.403   5.326   3.272
10276TIP3   OH230704   4.433   5.695   3.826
10276TIP3    H130705   4.443   5.598   3.821
10276TIP3    H230706   4.420   5.710   3.922
10277TIP3   OH230707   3.059   5.773   4.570
10277TIP3    H130708   3.059   5.740   4.478
10277TIP3    H230709   3.156   5.773   4.589
10278TIP3   OH230710   4.723   6.120   4.682
10278TIP3    H130711   4.796   6.054   4.673
10278TIP3    H230712   4.749   6.189   4.620
10279TIP3   OH230713   4.908   5.926   4.701
10279TIP3    H130714   4.834   5.875   4.739
10279TIP3    H230715   4.981   5.862   4.714
10280TIP3   OH230716   4.373   5.154   3.266
10280TIP3    H130717   4.451   5.124   3.317
10280TIP3    H230718   4.303   5.093   3.293
10281TIP3   OH230719   4.429   5.411   3.721
10281TIP3    H130720   4.469   5.323   3.736
10281TIP3    H230721   4.488   5.444   3.651
10282TIP3   OH230722   4.592   5.586   4.215
10282TIP3    H130723   4.678   5.612   4.175
10282TIP3    H230724   4.605   5.622   4.305
10283TIP3   OH230725   4.661   5.729   4.448
10283TIP3    H130726   4.582   5.762   4.496
10283TIP3    H230727   4.692   5.810   4.403
10284TIP3   OH230728   3.280   5.463   5.255
10284TIP3    H130729   3.377   5.447   5.252
10284TIP3    H230730   3.250   5.375   5.285
10285TIP3   OH230731   5.157   5.327   4.997
10285TIP3    H130732   5.125   5.235   4.994
10285TIP3    H230733   5.089   5.374   4.944
10286TIP3   OH230734   4.537   5.162   3.759
10286TIP3    H130735   4.587   5.147   3.842
10286TIP3    H230736   4.479   5.083   3.759
10287TIP3   OH230737   3.239   5.148   4.576
10287TIP3    H130738   3.300   5.073   4.589
10287TIP3    H230739   3.301   5.222   4.571
10288TIP3   OH230740   3.041   5.422   4.649
10288TIP3    H130741   3.091   5.415   4.565
10288TIP3    H230742   3.077   5.505   4.685
10289TIP3   OH230743   4.984   5.465   4.827
10289TIP3    H130744   4.891   5.485   4.846
10289TIP3    H230745   4.974   5.405   4.752
10290TIP3   OH230746   4.619   5.098   3.388
10290TIP3    H130747   4.661   5.022   3.342
10290TIP3    H230748   4.690   5.165   3.384
10291TIP3   OH230749   3.025   4.924   4.151
10291TIP3    H130750   2.931   4.922   4.178
10291TIP3    H230751   3.022   4.983   4.073
10292TIP3   OH230752   4.191   6.617   3.658
10292TIP3    H130753   4.242   6.609   3.575
10292TIP3    H230754   4.228   6.697   3.697
10293TIP3   OH230755   3.241   5.001   4.955
10293TIP3    H130756   3.201   5.005   5.044
10293TIP3    H230757   3.173   5.046   4.901
10294TIP3   OH230758   3.283   6.435   5.043
10294TIP3    H130759   3.193   6.402   5.026
10294TIP3    H230760   3.297   6.411   5.136
10295TIP3   OH230761   3.461   6.464   4.590
10295TIP3    H130762   3.416   6.541   4.550
10295TIP3    H230763   3.549   6.475   4.547
10296TIP3   OH230764   3.908   6.710   4.729
10296TIP3    H130765   3.951   6.710   4.818
10296TIP3    H230766   3.974   6.760   4.677
10297TIP3   OH230767   4.087   6.860   4.586
10297TIP3    H130768   4.158   6.810   4.544
10297TIP3    H230769   4.139   6.917   4.647
10298TIP3   OH230770   3.139   6.725   4.610
10298TIP3    H130771   3.049   6.759   4.592
10298TIP3    H230772   3.152   6.754   4.701
10299TIP3   OH230773   3.376   6.700   4.471
10299TIP3    H130774   3.290   6.714   4.515
10299TIP3    H230775   3.357   6.729   4.380
10300TIP3   OH230776   3.800   6.728   4.273
10300TIP3    H130777   3.744   6.751   4.196
10300TIP3    H230778   3.814   6.817   4.312
10301TIP3   OH230779   4.070   6.669   4.322
10301TIP3    H130780   3.975   6.685   4.301
10301TIP3    H230781   4.113   6.743   4.276
10302TIP3   OH230782   4.279   6.861   4.236
10302TIP3    H130783   4.263   6.945   4.188
10302TIP3    H230784   4.304   6.801   4.163
10303TIP3   OH230785   3.050   6.520   4.360
10303TIP3    H130786   3.079   6.494   4.450
10303TIP3    H230787   3.121   6.476   4.308
10304TIP3   OH230788   3.242   6.387   4.216
10304TIP3    H130789   3.258   6.302   4.264
10304TIP3    H230790   3.334   6.423   4.212
10305TIP3   OH230791   3.508   6.482   4.221
10305TIP3    H130792   3.541   6.392   4.204
10305TIP3    H230793   3.557   6.502   4.303
10306TIP3   OH230794   4.084   5.138   4.300
10306TIP3    H130795   4.039   5.070   4.355
10306TIP3    H230796   4.159   5.088   4.264
10307TIP3   OH230797   4.613   5.013   4.210
10307TIP3    H130798   4.647   5.068   4.136
10307TIP3    H230799   4.518   5.036   4.210
10308TIP3   OH230800   4.702   5.121   3.976
10308TIP3    H130801   4.773   5.065   3.936
10308TIP3    H230802   4.739   5.211   3.960
10309TIP3   OH230803   3.336   4.847   4.321
10309TIP3    H130804   3.244   4.813   4.324
10309TIP3    H230805   3.385   4.762   4.319
10310TIP3   OH230806   3.119   4.716   3.969
10310TIP3    H130807   3.151   4.774   3.898
10310TIP3    H230808   3.092   4.780   4.037
10311TIP3   OH230809   3.779   4.878   4.203
10311TIP3    H130810   3.837   4.932   4.146
10311TIP3    H230811   3.797   4.917   4.290
10312TIP3   OH230812   4.328   5.027   4.190
10312TIP3    H130813   4.322   4.993   4.100
10312TIP3    H230814   4.311   4.945   4.243
10313TIP3   OH230815   4.352   4.947   3.750
10313TIP3    H130816   4.266   4.992   3.764
10313TIP3    H230817   4.339   4.863   3.798
10314TIP3   OH230818   2.838   6.285   3.751
10314TIP3    H130819   2.754   6.251   3.716
10314TIP3    H230820   2.827   6.379   3.731
10315TIP3   OH230821   3.238   4.877   3.733
10315TIP3    H130822   3.287   4.814   3.677
10315TIP3    H230823   3.311   4.930   3.770
10316TIP3   OH230824   3.752   5.050   3.833
10316TIP3    H130825   3.812   5.005   3.894
10316TIP3    H230826   3.772   5.143   3.858
10317TIP3   OH230827   3.605   6.470   3.327
10317TIP3    H130828   3.694   6.500   3.301
10317TIP3    H230829   3.593   6.395   3.265
10318TIP3   OH230830   4.332   6.594   3.422
10318TIP3    H130831   4.322   6.497   3.411
10318TIP3    H230832   4.284   6.627   3.343
10319TIP3   OH230833   3.793   5.153   5.345
10319TIP3    H130834   3.888   5.136   5.337
10319TIP3    H230835   3.767   5.083   5.410
10320TIP3   OH230836   2.915   6.313   3.390
10320TIP3    H130837   2.921   6.336   3.484
10320TIP3    H230838   3.003   6.270   3.374
10321TIP3   OH230839   4.556   6.739   4.613
10321TIP3    H130840   4.478   6.707   4.564
10321TIP3    H230841   4.537   6.834   4.616
10322TIP3   OH230842   5.823   6.110   3.379
10322TIP3    H130843   5.795   6.202   3.359
10322TIP3    H230844   5.745   6.061   3.348
10323TIP3   OH230845   5.822   6.109   3.759
10323TIP3    H130846   5.851   6.080   3.847
10323TIP3    H230847   5.778   6.029   3.725
10324TIP3   OH230848   5.121   6.007   4.126
10324TIP3    H130849   5.152   5.939   4.188
10324TIP3    H230850   5.200   6.061   4.115
10325TIP3   OH230851   6.065   6.411   3.441
10325TIP3    H130852   6.050   6.343   3.508
10325TIP3    H230853   6.092   6.487   3.495
10326TIP3   OH230854   5.091   6.415   3.851
10326TIP3    H130855   5.083   6.317   3.853
10326TIP3    H230856   5.188   6.424   3.845
10327TIP3   OH230857   4.799   5.620   3.636
10327TIP3    H130858   4.749   5.703   3.650
10327TIP3    H230859   4.729   5.564   3.599
10328TIP3   OH230860   4.858   5.906   3.806
10328TIP3    H130861   4.907   5.829   3.843
10328TIP3    H230862   4.917   5.934   3.735
10329TIP3   OH230863   5.712   6.874   3.457
10329TIP3    H130864   5.760   6.803   3.409
10329TIP3    H230865   5.707   6.838   3.546
10330TIP3   OH230866   5.620   6.336   3.808
10330TIP3    H130867   5.657   6.259   3.761
10330TIP3    H230868   5.704   6.380   3.832
10331TIP3   OH230869   6.642   5.659   3.803
10331TIP3    H130870   6.665   5.743   3.847
10331TIP3    H230871   6.654   5.683   3.709
10332TIP3   OH230872   6.036   5.841   3.840
10332TIP3    H130873   6.074   5.754   3.861
10332TIP3    H230874   6.001   5.825   3.750
10333TIP3   OH230875   5.370   5.497   3.805
10333TIP3    H130876   5.348   5.570   3.743
10333TIP3    H230877   5.321   5.424   3.762
10334TIP3   OH230878   6.064   5.587   3.429
10334TIP3    H130879   6.136   5.571   3.494
10334TIP3    H230880   6.115   5.624   3.355
10335TIP3   OH230881   5.004   5.699   3.913
10335TIP3    H130882   5.087   5.679   3.960
10335TIP3    H230883   5.016   5.643   3.833
10336TIP3   OH230884   5.444   5.897   3.706
10336TIP3    H130885   5.538   5.872   3.720
10336TIP3    H230886   5.406   5.813   3.674
10337TIP3   OH230887   6.712   5.870   3.970
10337TIP3    H130888   6.627   5.914   3.946
10337TIP3    H230889   6.698   5.864   4.066
10338TIP3   OH230890   5.365   5.471   4.243
10338TIP3    H130891   5.313   5.513   4.173
10338TIP3    H230892   5.316   5.499   4.323
10339TIP3   OH230893   5.716   6.333   3.248
10339TIP3    H130894   5.671   6.311   3.166
10339TIP3    H230895   5.672   6.416   3.272
10340TIP3   OH230896   5.474   6.255   4.037
10340TIP3    H130897   5.410   6.320   4.074
10340TIP3    H230898   5.515   6.307   3.964
10341TIP3   OH230899   6.277   5.588   3.600
10341TIP3    H130900   6.261   5.542   3.683
10341TIP3    H230901   6.327   5.667   3.629
10342TIP3   OH230902   5.239   5.595   4.025
10342TIP3    H130903   5.302   5.666   4.049
10342TIP3    H230904   5.288   5.552   3.952
10343TIP3   OH230905   5.301   6.448   4.133
10343TIP3    H130906   5.275   6.534   4.094
10343TIP3    H230907   5.222   6.433   4.190
10344TIP3   OH230908   4.697   6.139   3.369
10344TIP3    H130909   4.655   6.166   3.286
10344TIP3    H230910   4.727   6.225   3.406
10345TIP3   OH230911   6.136   6.654   3.609
10345TIP3    H130912   6.046   6.646   3.649
10345TIP3    H230913   6.128   6.741   3.564
10346TIP3   OH230914   6.421   5.572   3.963
10346TIP3    H130915   6.332   5.595   3.934
10346TIP3    H230916   6.478   5.600   3.889
10347TIP3   OH230917   5.722   5.205   3.950
10347TIP3    H130918   5.705   5.110   3.962
10347TIP3    H230919   5.643   5.243   3.996
10348TIP3   OH230920   5.839   6.701   3.285
10348TIP3    H130921   5.889   6.619   3.263
10348TIP3    H230922   5.899   6.767   3.243
10349TIP3   OH230923   5.981   6.486   3.189
10349TIP3    H130924   5.938   6.408   3.152
10349TIP3    H230925   6.016   6.451   3.273
10350TIP3   OH230926   6.362   6.568   3.953
10350TIP3    H130927   6.350   6.491   3.894
10350TIP3    H230928   6.344   6.643   3.892
10351TIP3   OH230929   5.652   5.961   3.209
10351TIP3    H130930   5.572   6.013   3.188
10351TIP3    H230931   5.698   5.960   3.123
10352TIP3   OH230932   5.611   5.746   2.927
10352TIP3    H130933   5.679   5.796   2.976
10352TIP3    H230934   5.669   5.682   2.879
10353TIP3   OH230935   6.558   6.207   3.796
10353TIP3    H130936   6.474   6.258   3.802
10353TIP3    H230937   6.586   6.231   3.706
10354TIP3   OH230938   6.000   6.044   3.182
10354TIP3    H130939   5.945   6.069   3.260
10354TIP3    H230940   6.084   6.019   3.227
10355TIP3   OH230941   6.237   6.083   4.093
10355TIP3    H130942   6.233   6.168   4.141
10355TIP3    H230943   6.151   6.085   4.048
10356TIP3   OH230944   5.233   6.043   3.598
10356TIP3    H130945   5.191   5.985   3.531
10356TIP3    H230946   5.309   5.989   3.627
10357TIP3   OH230947   5.362   6.453   3.747
10357TIP3    H130948   5.341   6.411   3.663
10357TIP3    H230949   5.452   6.420   3.765
10358TIP3   OH230950   5.369   6.013   3.954
10358TIP3    H130951   5.402   5.991   3.864
10358TIP3    H230952   5.412   6.099   3.972
10359TIP3   OH230953   5.895   6.651   3.729
10359TIP3    H130954   5.880   6.731   3.783
10359TIP3    H230955   5.880   6.578   3.793
10360TIP3   OH230956   5.506   6.570   4.277
10360TIP3    H130957   5.446   6.633   4.323
10360TIP3    H230958   5.441   6.517   4.227
10361TIP3   OH230959   5.843   5.901   3.008
10361TIP3    H130960   5.900   5.962   3.060
10361TIP3    H230961   5.868   5.926   2.915
10362TIP3   OH230962   5.262   6.126   4.379
10362TIP3    H130963   5.265   6.213   4.423
10362TIP3    H230964   5.166   6.107   4.384
10363TIP3   OH230965   5.583   6.583   3.284
10363TIP3    H130966   5.662   6.637   3.302
10363TIP3    H230967   5.522   6.645   3.243
10364TIP3   OH230968   5.301   6.739   4.363
10364TIP3    H130969   5.266   6.737   4.272
10364TIP3    H230970   5.222   6.717   4.417
10365TIP3   OH230971   6.356   5.143   3.055
10365TIP3    H130972   6.275   5.162   3.107
10365TIP3    H230973   6.368   5.228   3.008
10366TIP3   OH230974   5.099   5.885   3.403
10366TIP3    H130975   5.033   5.930   3.346
10366TIP3    H230976   5.058   5.799   3.417
10367TIP3   OH230977   6.154   6.511   2.603
10367TIP3    H130978   6.162   6.608   2.589
10367TIP3    H230979   6.247   6.483   2.591
10368TIP3   OH230980   4.880   6.269   4.310
10368TIP3    H130981   4.815   6.247   4.241
10368TIP3    H230982   4.917   6.182   4.334
10369TIP3   OH230983   4.734   6.461   3.945
10369TIP3    H130984   4.830   6.456   3.934
10369TIP3    H230985   4.723   6.542   3.997
10370TIP3   OH230986   6.600   6.912   4.000
10370TIP3    H130987   6.597   6.816   4.012
10370TIP3    H230988   6.516   6.939   4.044
10371TIP3   OH230989   5.705   6.699   4.134
10371TIP3    H130990   5.704   6.792   4.166
10371TIP3    H230991   5.633   6.660   4.188
10372TIP3   OH230992   5.464   6.828   3.085
10372TIP3    H130993   5.420   6.809   3.001
10372TIP3    H230994   5.433   6.918   3.107
10373TIP3   OH230995   4.903   6.678   3.469
10373TIP3    H130996   4.951   6.668   3.554
10373TIP3    H230997   4.843   6.601   3.473
10374TIP3   OH230998   5.667   6.729   2.726
10374TIP3    H130999   5.726   6.660   2.689
10374TIP3    H231000   5.701   6.738   2.817
10375TIP3   OH231001   5.716   6.777   2.997
10375TIP3    H131002   5.628   6.786   3.038
10375TIP3    H231003   5.767   6.737   3.069
10376TIP3   OH231004   6.491   6.042   4.278
10376TIP3    H131005   6.411   6.058   4.226
10376TIP3    H231006   6.511   5.949   4.253
10377TIP3   OH231007   5.085   6.452   4.300
10377TIP3    H131008   5.135   6.435   4.382
10377TIP3    H231009   5.011   6.388   4.307
10378TIP3   OH231010   5.490   5.279   4.076
10378TIP3    H131011   5.399   5.249   4.061
10378TIP3    H231012   5.474   5.352   4.140
10379TIP3   OH231013   6.005   5.394   4.288
10379TIP3    H131014   6.074   5.359   4.347
10379TIP3    H231015   5.924   5.383   4.339
10380TIP3   OH231016   6.252   5.816   4.196
10380TIP3    H131017   6.206   5.816   4.283
10380TIP3    H231018   6.234   5.905   4.161
10381TIP3   OH231019   5.918   5.948   2.752
10381TIP3    H131020   5.884   5.923   2.663
10381TIP3    H231021   5.996   6.001   2.727
10382TIP3   OH231022   5.631   5.324   3.054
10382TIP3    H131023   5.598   5.322   3.145
10382TIP3    H231024   5.591   5.242   3.020
10383TIP3   OH231025   5.416   5.789   4.103
10383TIP3    H131026   5.363   5.811   4.182
10383TIP3    H231027   5.403   5.870   4.048
10384TIP3   OH231028   5.299   5.678   3.614
10384TIP3    H131029   5.206   5.651   3.632
10384TIP3    H231030   5.312   5.637   3.526
10385TIP3   OH231031   5.791   5.763   3.342
10385TIP3    H131032   5.737   5.834   3.302
10385TIP3    H231033   5.844   5.733   3.267
10386TIP3   OH231034   5.967   6.041   4.430
10386TIP3    H131035   5.945   5.969   4.494
10386TIP3    H231036   6.061   6.056   4.452
10387TIP3   OH231037   5.950   5.793   3.582
10387TIP3    H131038   5.888   5.823   3.513
10387TIP3    H231039   5.981   5.710   3.539
10388TIP3   OH231040   5.235   5.821   4.311
10388TIP3    H131041   5.257   5.885   4.380
10388TIP3    H231042   5.223   5.738   4.361
10389TIP3   OH231043   5.285   5.298   3.020
10389TIP3    H131044   5.278   5.294   3.117
10389TIP3    H231045   5.206   5.349   2.997
10390TIP3   OH231046   4.827   5.345   3.893
10390TIP3    H131047   4.906   5.374   3.943
10390TIP3    H231048   4.863   5.310   3.810
10391TIP3   OH231049   4.803   5.322   3.410
10391TIP3    H131050   4.849   5.361   3.332
10391TIP3    H231051   4.742   5.395   3.431
10392TIP3   OH231052   5.960   6.038   4.008
10392TIP3    H131053   5.992   5.966   3.948
10392TIP3    H231054   5.927   5.984   4.083
10393TIP3   OH231055   5.626   5.499   3.678
10393TIP3    H131056   5.542   5.497   3.729
10393TIP3    H231057   5.692   5.502   3.749
10394TIP3   OH231058   5.062   5.555   3.685
10394TIP3    H131059   4.967   5.561   3.658
10394TIP3    H231060   5.084   5.463   3.663
10395TIP3   OH231061   5.332   5.551   3.373
10395TIP3    H131062   5.426   5.567   3.351
10395TIP3    H231063   5.285   5.574   3.290
10396TIP3   OH231064   6.116   5.576   3.876
10396TIP3    H131065   6.083   5.588   3.968
10396TIP3    H231066   6.050   5.513   3.841
10397TIP3   OH231067   5.171   5.585   3.153
10397TIP3    H131068   5.098   5.541   3.106
10397TIP3    H231069   5.222   5.620   3.077
10398TIP3   OH231070   6.289   7.263   4.097
10398TIP3    H131071   6.286   7.287   4.002
10398TIP3    H231072   6.366   7.314   4.128
10399TIP3   OH231073   5.246   6.374   4.519
10399TIP3    H131074   5.326   6.405   4.567
10399TIP3    H231075   5.181   6.373   4.592
10400TIP3   OH231076   5.709   5.830   3.773
10400TIP3    H131077   5.782   5.782   3.732
10400TIP3    H231078   5.709   5.793   3.865
10401TIP3   OH231079   5.234   5.315   3.652
10401TIP3    H131080   5.199   5.235   3.698
10401TIP3    H231081   5.284   5.276   3.579
10402TIP3   OH231082   5.693   5.744   4.034
10402TIP3    H131083   5.603   5.745   4.070
10402TIP3    H231084   5.747   5.780   4.107
10403TIP3   OH231085   5.424   6.115   3.159
10403TIP3    H131086   5.351   6.050   3.148
10403TIP3    H231087   5.406   6.149   3.250
10404TIP3   OH231088   6.325   6.350   3.789
10404TIP3    H131089   6.348   6.400   3.708
10404TIP3    H231090   6.239   6.309   3.765
10405TIP3   OH231091   5.882   5.429   3.018
10405TIP3    H131092   5.785   5.411   3.028
10405TIP3    H231093   5.891   5.522   3.044
10406TIP3   OH231094   5.825   6.434   4.155
10406TIP3    H131095   5.843   6.411   4.247
10406TIP3    H231096   5.785   6.522   4.163
10407TIP3   OH231097   5.952   5.674   3.123
10407TIP3    H131098   6.048   5.681   3.140
10407TIP3    H231099   5.932   5.754   3.072
10408TIP3   OH231100   5.116   6.137   3.835
10408TIP3    H131101   5.153   6.109   3.749
10408TIP3    H231102   5.156   6.073   3.896
10409TIP3   OH231103   5.569   6.264   2.980
10409TIP3    H131104   5.522   6.351   2.986
10409TIP3    H231105   5.514   6.209   3.040
10410TIP3   OH231106   4.996   6.057   4.448
10410TIP3    H131107   5.016   6.044   4.543
10410TIP3    H231108   4.927   5.991   4.432
10411TIP3   OH231109   5.722   6.169   4.469
10411TIP3    H131110   5.662   6.116   4.414
10411TIP3    H231111   5.809   6.137   4.438
10412TIP3   OH231112   5.984   6.692   4.051
10412TIP3    H131113   5.888   6.690   4.063
10412TIP3    H231114   6.012   6.744   4.130
10413TIP3   OH231115   6.396   5.763   2.959
10413TIP3    H131116   6.333   5.719   2.898
10413TIP3    H231117   6.391   5.853   2.920
10414TIP3   OH231118   6.612   6.621   4.042
10414TIP3    H131119   6.514   6.616   4.034
10414TIP3    H231120   6.638   6.591   3.952
10415TIP3   OH231121   6.096   6.583   2.869
10415TIP3    H131122   6.067   6.514   2.930
10415TIP3    H231123   6.105   6.536   2.784
10416TIP3   OH231124   6.090   6.213   3.709
10416TIP3    H131125   5.996   6.187   3.721
10416TIP3    H231126   6.124   6.133   3.663
10417TIP3   OH231127   5.216   6.440   3.459
10417TIP3    H131128   5.217   6.521   3.406
10417TIP3    H231129   5.121   6.425   3.468
10418TIP3   OH231130   4.779   5.745   3.161
10418TIP3    H131131   4.826   5.829   3.182
10418TIP3    H231132   4.703   5.751   3.223
10419TIP3   OH231133   5.357   6.207   3.405
10419TIP3    H131134   5.321   6.296   3.422
10419TIP3    H231135   5.320   6.156   3.479
10420TIP3   OH231136   5.485   6.785   3.929
10420TIP3    H131137   5.526   6.857   3.878
10420TIP3    H231138   5.562   6.750   3.978
10421TIP3   OH231139   5.137   6.679   3.313
10421TIP3    H131140   5.051   6.687   3.358
10421TIP3    H231141   5.168   6.772   3.315
10422TIP3   OH231142   5.875   6.418   3.887
10422TIP3    H131143   5.866   6.417   3.985
10422TIP3    H231144   5.955   6.365   3.874
10423TIP3   OH231145   5.848   6.308   2.770
10423TIP3    H131146   5.900   6.284   2.850
10423TIP3    H231147   5.759   6.285   2.799
10424TIP3   OH231148   6.124   6.953   3.938
10424TIP3    H131149   6.044   6.897   3.930
10424TIP3    H231150   6.108   7.018   3.866
10425TIP3   OH231151   6.188   6.787   2.589
10425TIP3    H131152   6.223   6.858   2.533
10425TIP3    H231153   6.108   6.832   2.624
10426TIP3   OH231154   5.208   5.567   4.458
10426TIP3    H131155   5.112   5.571   4.471
10426TIP3    H231156   5.236   5.503   4.525
10427TIP3   OH231157   6.008   6.244   2.987
10427TIP3    H131158   5.998   6.179   3.059
10427TIP3    H231159   6.105   6.243   2.975
10428TIP3   OH231160   4.925   6.648   4.088
10428TIP3    H131161   4.976   6.571   4.119
10428TIP3    H231162   4.954   6.716   4.150
10429TIP3   OH231163   5.216   6.291   2.769
10429TIP3    H131164   5.229   6.199   2.741
10429TIP3    H231165   5.196   6.279   2.864
10430TIP3   OH231166   5.161   6.296   3.042
10430TIP3    H131167   5.232   6.270   3.102
10430TIP3    H231168   5.165   6.394   3.048
10431TIP3   OH231169   4.896   5.990   3.245
10431TIP3    H131170   4.830   6.035   3.302
10431TIP3    H231171   4.911   6.060   3.178
10432TIP3   OH231172   6.044   5.627   4.138
10432TIP3    H131173   6.128   5.665   4.169
10432TIP3    H231174   6.033   5.547   4.193
10433TIP3   OH231175   5.927   5.378   3.300
10433TIP3    H131176   5.911   5.403   3.207
10433TIP3    H231177   5.964   5.461   3.338
10434TIP3   OH231178   5.426   6.494   2.991
10434TIP3    H131179   5.339   6.522   3.026
10434TIP3    H231180   5.443   6.565   2.928
10435TIP3   OH231181   5.616   5.557   3.405
10435TIP3    H131182   5.680   5.630   3.388
10435TIP3    H231183   5.619   5.551   3.503
10436TIP3   OH231184   5.884   5.876   4.215
10436TIP3    H131185   5.907   5.931   4.292
10436TIP3    H231186   5.943   5.800   4.223
10437TIP3   OH231187   5.760   5.287   3.509
10437TIP3    H131188   5.751   5.364   3.567
10437TIP3    H231189   5.820   5.323   3.439
10438TIP3   OH231190   5.169   6.569   3.058
10438TIP3    H131191   5.139   6.639   2.995
10438TIP3    H231192   5.153   6.613   3.144
10439TIP3   OH231193   5.271   5.283   3.296
10439TIP3    H131194   5.268   5.373   3.333
10439TIP3    H231195   5.367   5.264   3.305
10440TIP3   OH231196   6.525   5.790   4.164
10440TIP3    H131197   6.434   5.781   4.199
10440TIP3    H231198   6.524   5.714   4.104
10441TIP3   OH231199   6.176   5.971   3.581
10441TIP3    H131200   6.099   5.913   3.594
10441TIP3    H231201   6.247   5.923   3.630
10442TIP3   OH231202   4.886   6.201   3.051
10442TIP3    H131203   4.951   6.273   3.060
10442TIP3    H231204   4.933   6.147   2.984
10443TIP3   OH231205   4.833   5.476   3.184
10443TIP3    H131206   4.831   5.574   3.179
10443TIP3    H231207   4.749   5.452   3.144
10444TIP3   OH231208   6.143   6.926   3.531
10444TIP3    H131209   6.101   6.973   3.456
10444TIP3    H231210   6.238   6.945   3.510
10445TIP3   OH231211   5.219   5.196   4.057
10445TIP3    H131212   5.190   5.164   3.969
10445TIP3    H231213   5.206   5.117   4.112
10446TIP3   OH231214   4.759   6.414   3.439
10446TIP3    H131215   4.687   6.445   3.495
10446TIP3    H231216   4.735   6.453   3.353
10447TIP3   OH231217   4.914   6.954   4.510
10447TIP3    H131218   5.001   6.954   4.557
10447TIP3    H231219   4.894   6.859   4.508
10448TIP3   OH231220   5.397   6.921   4.555
10448TIP3    H131221   5.492   6.902   4.561
10448TIP3    H231222   5.372   6.863   4.480
10449TIP3   OH231223   5.379   6.496   2.684
10449TIP3    H131224   5.322   6.424   2.721
10449TIP3    H231225   5.453   6.444   2.649
10450TIP3   OH231226   6.036   6.826   4.287
10450TIP3    H131227   6.027   6.756   4.356
10450TIP3    H231228   6.113   6.877   4.318
10451TIP3   OH231229   5.814   6.537   2.593
10451TIP3    H131230   5.862   6.474   2.650
10451TIP3    H231231   5.869   6.539   2.512
10452TIP3   OH231232   5.046   6.361   4.710
10452TIP3    H131233   5.062   6.265   4.714
10452TIP3    H231234   4.958   6.364   4.666
10453TIP3   OH231235   5.022   6.014   2.903
10453TIP3    H131236   5.077   5.980   2.976
10453TIP3    H231237   5.090   6.018   2.831
10454TIP3   OH231238   5.654   6.446   4.483
10454TIP3    H131239   5.611   6.462   4.397
10454TIP3    H231240   5.684   6.353   4.476
10455TIP3   OH231241   5.532   6.211   2.710
10455TIP3    H131242   5.534   6.224   2.807
10455TIP3    H231243   5.530   6.113   2.705
10456TIP3   OH231244   6.147   6.453   4.090
10456TIP3    H131245   6.220   6.500   4.046
10456TIP3    H231246   6.074   6.517   4.077
10457TIP3   OH231247   5.163   6.095   4.692
10457TIP3    H131248   5.237   6.036   4.672
10457TIP3    H231249   5.189   6.129   4.781
10458TIP3   OH231250   5.232   5.916   3.127
10458TIP3    H131251   5.204   5.874   3.210
10458TIP3    H231252   5.267   5.839   3.076
10459TIP3   OH231253   5.501   5.981   4.358
10459TIP3    H131254   5.422   6.039   4.358
10459TIP3    H231255   5.549   6.013   4.278
10460TIP3   OH231256   5.331   5.708   2.966
10460TIP3    H131257   5.304   5.712   2.872
10460TIP3    H231258   5.428   5.715   2.959
10461TIP3   OH231259   6.016   6.382   4.489
10461TIP3    H131260   6.095   6.359   4.439
10461TIP3    H231261   6.015   6.314   4.559
10462TIP3   OH231262   6.156   6.041   2.627
10462TIP3    H131263   6.132   5.995   2.545
10462TIP3    H231264   6.124   6.131   2.605
10463TIP3   OH231265   5.624   5.770   4.477
10463TIP3    H131266   5.597   5.694   4.423
10463TIP3    H231267   5.584   5.844   4.426
10464TIP3   OH231268   5.654   6.095   4.167
10464TIP3    H131269   5.733   6.093   4.111
10464TIP3    H231270   5.597   6.160   4.119
10465TIP3   OH231271   6.234   6.059   4.543
10465TIP3    H131272   6.286   5.980   4.568
10465TIP3    H231273   6.302   6.116   4.503
10466TIP3   OH231274   6.276   6.311   4.279
10466TIP3    H131275   6.218   6.364   4.219
10466TIP3    H231276   6.364   6.331   4.238
10467TIP3   OH231277   5.506   5.881   4.712
10467TIP3    H131278   5.434   5.815   4.727
10467TIP3    H231279   5.533   5.859   4.621
10468TIP3   OH231280   5.887   5.818   4.570
10468TIP3    H131281   5.874   5.818   4.666
10468TIP3    H231282   5.795   5.801   4.540
10469TIP3   OH231283   6.123   5.771   4.432
10469TIP3    H131284   6.042   5.782   4.487
10469TIP3    H231285   6.185   5.730   4.494
10470TIP3   OH231286   5.340   5.667   4.761
10470TIP3    H131287   5.339   5.575   4.728
10470TIP3    H231288   5.373   5.653   4.852
10471TIP3   OH231289   5.885   5.518   4.768
10471TIP3    H131290   5.905   5.509   4.674
10471TIP3    H231291   5.830   5.599   4.770
10472TIP3   OH231292   5.138   6.771   2.871
10472TIP3    H131293   5.234   6.768   2.852
10472TIP3    H231294   5.108   6.820   2.792
10473TIP3   OH231295   4.618   6.154   3.087
10473TIP3    H131296   4.713   6.176   3.074
10473TIP3    H231297   4.613   6.065   3.046
10474TIP3   OH231298   4.535   6.766   3.498
10474TIP3    H131299   4.466   6.705   3.463
10474TIP3    H231300   4.577   6.709   3.566
10475TIP3   OH231301   4.670   6.619   3.686
10475TIP3    H131302   4.655   6.545   3.747
10475TIP3    H231303   4.720   6.680   3.743
10476TIP3   OH231304   6.396   7.016   3.487
10476TIP3    H131305   6.421   7.053   3.573
10476TIP3    H231306   6.454   7.065   3.426
10477TIP3   OH231307   6.424   7.039   3.769
10477TIP3    H131308   6.382   6.950   3.764
10477TIP3    H231309   6.501   7.018   3.824
10478TIP3   OH231310   6.473   6.714   4.343
10478TIP3    H131311   6.398   6.723   4.406
10478TIP3    H231312   6.513   6.803   4.346
10479TIP3   OH231313   6.289   6.227   2.962
10479TIP3    H131314   6.356   6.292   2.934
10479TIP3    H231315   6.331   6.188   3.041
10480TIP3   OH231316   6.416   6.094   3.165
10480TIP3    H131317   6.350   6.053   3.224
10480TIP3    H231318   6.479   6.134   3.229
10481TIP3   OH231319   6.470   6.487   3.599
10481TIP3    H131320   6.522   6.424   3.546
10481TIP3    H231321   6.461   6.562   3.537
10482TIP3   OH231322   6.302   6.787   3.794
10482TIP3    H131323   6.230   6.831   3.844
10482TIP3    H231324   6.251   6.740   3.724
10483TIP3   OH231325   6.354   6.002   2.813
10483TIP3    H131326   6.283   6.006   2.745
10483TIP3    H231327   6.327   6.078   2.868
10484TIP3   OH231328   6.228   5.674   2.766
10484TIP3    H131329   6.181   5.717   2.693
10484TIP3    H231330   6.200   5.580   2.753
10485TIP3   OH231331   6.231   5.951   3.313
10485TIP3    H131332   6.237   5.854   3.308
10485TIP3    H231333   6.216   5.967   3.409
10486TIP3   OH231334   4.856   6.025   4.059
10486TIP3    H131335   4.855   5.995   3.966
10486TIP3    H231336   4.953   6.027   4.076
10487TIP3   OH231337   6.519   6.376   4.169
10487TIP3    H131338   6.592   6.311   4.160
10487TIP3    H231339   6.545   6.445   4.107
10488TIP3   OH231340   6.704   6.182   4.187
10488TIP3    H131341   6.630   6.132   4.227
10488TIP3    H231342   6.776   6.115   4.198
10489TIP3   OH231343   6.171   5.406   2.749
10489TIP3    H131344   6.242   5.379   2.810
10489TIP3    H231345   6.094   5.353   2.777
10490TIP3   OH231346   6.226   5.667   3.209
10490TIP3    H131347   6.266   5.578   3.223
10490TIP3    H231348   6.284   5.700   3.138
10491TIP3   OH231349   6.389   5.838   3.701
10491TIP3    H131350   6.474   5.867   3.662
10491TIP3    H231351   6.400   5.878   3.791
10492TIP3   OH231352   6.455   5.987   3.927
10492TIP3    H131353   6.379   6.018   3.981
10492TIP3    H231354   6.487   6.070   3.887
10493TIP3   OH231355   5.072   5.712   4.735
10493TIP3    H131356   5.170   5.706   4.735
10493TIP3    H231357   5.049   5.630   4.783
10494TIP3   OH231358   6.337   5.416   3.243
10494TIP3    H131359   6.382   5.401   3.329
10494TIP3    H231360   6.274   5.341   3.243
10495TIP3   OH231361   5.036   5.405   4.066
10495TIP3    H131362   5.098   5.330   4.075
10495TIP3    H231363   5.099   5.479   4.059
10496TIP3   OH231364   4.839   5.678   4.138
10496TIP3    H131365   4.887   5.670   4.054
10496TIP3    H231366   4.868   5.765   4.168
10497TIP3   OH231367   6.418   5.354   2.878
10497TIP3    H131368   6.459   5.282   2.826
10497TIP3    H231369   6.483   5.426   2.871
10498TIP3   OH231370   4.823   5.193   3.647
10498TIP3    H131371   4.728   5.180   3.664
10498TIP3    H231372   4.821   5.241   3.561
10499TIP3   OH231373   5.981   6.883   3.145
10499TIP3    H131374   6.031   6.870   3.062
10499TIP3    H231375   6.033   6.952   3.188
10500TIP3   OH231376   5.004   5.229   4.456
10500TIP3    H131377   4.961   5.255   4.537
10500TIP3    H231378   4.962   5.290   4.392
10501TIP3   OH231379   5.081   6.688   4.530
10501TIP3    H131380   4.990   6.660   4.513
10501TIP3    H231381   5.089   6.670   4.625
10502TIP3   OH231382   5.259   6.720   4.078
10502TIP3    H131383   5.210   6.795   4.038
10502TIP3    H231384   5.345   6.734   4.033
10503TIP3   OH231385   5.705   6.965   4.215
10503TIP3    H131386   5.747   6.967   4.304
10503TIP3    H231387   5.771   7.016   4.163
10504TIP3   OH231388   5.883   7.117   4.073
10504TIP3    H131389   5.955   7.066   4.031
10504TIP3    H231390   5.935   7.174   4.134
10505TIP3   OH231391   4.936   6.979   4.100
10505TIP3    H131392   4.847   7.013   4.076
10505TIP3    H231393   4.944   7.012   4.190
10506TIP3   OH231394   5.173   6.956   3.958
10506TIP3    H131395   5.086   6.969   4.003
10506TIP3    H231396   5.153   6.989   3.868
10507TIP3   OH231397   5.598   6.986   3.756
10507TIP3    H131398   5.529   7.006   3.690
10507TIP3    H231399   5.611   7.073   3.798
10508TIP3   OH231400   5.867   6.925   3.808
10508TIP3    H131401   5.772   6.942   3.788
10508TIP3    H231402   5.910   7.001   3.766
10509TIP3   OH231403   6.074   7.117   3.723
10509TIP3    H131404   6.060   7.202   3.676
10509TIP3    H231405   6.100   7.057   3.650
10510TIP3   OH231406   4.848   6.773   3.846
10510TIP3    H131407   4.874   6.747   3.937
10510TIP3    H231408   4.919   6.728   3.795
10511TIP3   OH231409   5.040   6.643   3.702
10511TIP3    H131410   5.056   6.559   3.751
10511TIP3    H231411   5.131   6.680   3.697
10512TIP3   OH231412   5.306   6.739   3.705
10512TIP3    H131413   5.338   6.647   3.692
10512TIP3    H231414   5.350   6.759   3.789
10513TIP3   OH231415   5.886   5.395   3.793
10513TIP3    H131416   5.837   5.328   3.844
10513TIP3    H231417   5.955   5.343   3.750
10514TIP3   OH231418   6.410   5.272   3.697
10514TIP3    H131419   6.442   5.327   3.622
10514TIP3    H231420   6.314   5.290   3.695
10515TIP3   OH231421   6.502   5.375   3.461
10515TIP3    H131422   6.575   5.325   3.419
10515TIP3    H231423   6.534   5.468   3.447
10516TIP3   OH231424   5.131   5.102   3.809
10516TIP3    H131425   5.039   5.070   3.807
10516TIP3    H231426   5.179   5.016   3.803
10517TIP3   OH231427   4.899   4.973   3.434
10517TIP3    H131428   4.942   5.037   3.375
10517TIP3    H231429   4.894   5.022   3.518
10518TIP3   OH231430   5.574   5.135   3.689
10518TIP3    H131431   5.634   5.186   3.632
10518TIP3    H231432   5.587   5.177   3.775
10519TIP3   OH231433   6.128   5.280   3.674
10519TIP3    H131434   6.118   5.244   3.585
10519TIP3    H231435   6.110   5.201   3.730
10520TIP3   OH231436   6.152   5.204   3.235
10520TIP3    H131437   6.065   5.247   3.247
10520TIP3    H231438   6.137   5.119   3.283
10521TIP3   OH231439   4.636   6.542   3.237
10521TIP3    H131440   4.550   6.509   3.203
10521TIP3    H231441   4.624   6.637   3.222
10522TIP3   OH231442   5.035   5.137   3.217
10522TIP3    H131443   5.083   5.071   3.164
10522TIP3    H231444   5.109   5.189   3.255
10523TIP3   OH231445   5.548   5.307   3.319
10523TIP3    H131446   5.606   5.259   3.380
10523TIP3    H231447   5.570   5.399   3.345
10524TIP3   OH231448   5.407   6.733   2.820
10524TIP3    H131449   5.495   6.756   2.783
10524TIP3    H231450   5.385   6.659   2.760
10525TIP3   OH231451   6.126   6.850   2.912
10525TIP3    H131452   6.118   6.753   2.899
10525TIP3    H231453   6.080   6.884   2.832
10526TIP3   OH231454   5.341   5.403   4.699
10526TIP3    H131455   5.295   5.330   4.742
10526TIP3    H231456   5.433   5.387   4.729
10527TIP3   OH231457   5.598   5.367   4.810
10527TIP3    H131458   5.691   5.390   4.825
10527TIP3    H231459   5.576   5.319   4.894
10528TIP3   OH231460   4.711   6.569   2.876
10528TIP3    H131461   4.711   6.596   2.969
10528TIP3    H231462   4.799   6.528   2.865
10529TIP3   OH231463   6.353   6.995   4.100
10529TIP3    H131464   6.274   6.963   4.051
10529TIP3    H231465   6.334   7.091   4.102
10530TIP3   OH231466   7.618   6.365   2.867
10530TIP3    H131467   7.592   6.458   2.848
10530TIP3    H231468   7.540   6.318   2.834
10531TIP3   OH231469   7.618   6.366   3.244
10531TIP3    H131470   7.648   6.338   3.333
10531TIP3    H231471   7.574   6.286   3.212
10532TIP3   OH231472   6.918   6.262   3.610
10532TIP3    H131473   6.950   6.196   3.674
10532TIP3    H231474   6.994   6.323   3.607
10533TIP3   OH231475   7.859   6.669   2.928
10533TIP3    H131476   7.847   6.601   2.995
10533TIP3    H231477   7.889   6.745   2.981
10534TIP3   OH231478   6.888   6.672   3.337
10534TIP3    H131479   6.879   6.574   3.340
10534TIP3    H231480   6.985   6.681   3.332
10535TIP3   OH231481   6.596   5.876   3.123
10535TIP3    H131482   6.548   5.959   3.138
10535TIP3    H231483   6.525   5.821   3.086
10536TIP3   OH231484   6.655   6.163   3.293
10536TIP3    H131485   6.704   6.086   3.330
10536TIP3    H231486   6.714   6.192   3.222
10537TIP3   OH231487   7.506   7.128   2.943
10537TIP3    H131488   7.556   7.057   2.898
10537TIP3    H231489   7.503   7.097   3.034
10538TIP3   OH231490   7.416   6.592   3.295
10538TIP3    H131491   7.455   6.517   3.247
10538TIP3    H231492   7.500   6.637   3.320
10539TIP3   OH231493   8.430   5.912   3.293
10539TIP3    H131494   8.457   5.995   3.337
10539TIP3    H231495   8.450   5.932   3.200
10540TIP3   OH231496   7.828   6.094   3.329
10540TIP3    H131497   7.871   6.008   3.348
10540TIP3    H231498   7.798   6.080   3.237
10541TIP3   OH231499   7.166   5.753   3.293
10541TIP3    H131500   7.145   5.827   3.231
10541TIP3    H231501   7.117   5.680   3.249
10542TIP3   OH231502   7.860   5.844   2.916
10542TIP3    H131503   7.933   5.829   2.980
10542TIP3    H231504   7.911   5.880   2.841
10543TIP3   OH231505   6.800   5.956   3.399
10543TIP3    H131506   6.883   5.936   3.447
10543TIP3    H231507   6.812   5.900   3.320
10544TIP3   OH231508   7.241   6.153   3.190
10544TIP3    H131509   7.335   6.127   3.205
10544TIP3    H231510   7.202   6.069   3.159
10545TIP3   OH231511   8.501   6.118   3.466
10545TIP3    H131512   8.419   6.168   3.445
10545TIP3    H231513   8.523   6.154   3.553
10546TIP3   OH231514   7.164   5.737   3.727
10546TIP3    H131515   7.104   5.775   3.660
10546TIP3    H231516   7.112   5.755   3.809
10547TIP3   OH231517   7.512   6.588   2.736
10547TIP3    H131518   7.467   6.567   2.653
10547TIP3    H231519   7.469   6.673   2.759
10548TIP3   OH231520   7.270   6.512   3.524
10548TIP3    H131521   7.206   6.577   3.562
10548TIP3    H231522   7.311   6.563   3.452
10549TIP3   OH231523   8.072   5.845   3.087
10549TIP3    H131524   8.061   5.800   3.171
10549TIP3    H231525   8.125   5.923   3.112
10550TIP3   OH231526   7.034   5.852   3.512
10550TIP3    H131527   7.095   5.925   3.535
10550TIP3    H231528   7.083   5.812   3.437
10551TIP3   OH231529   7.097   6.705   3.619
10551TIP3    H131530   7.071   6.791   3.581
10551TIP3    H231531   7.018   6.690   3.676
10552TIP3   OH231532   6.494   6.396   2.856
10552TIP3    H131533   6.450   6.423   2.774
10552TIP3    H231534   6.522   6.482   2.893
10553TIP3   OH231535   7.931   6.910   3.094
10553TIP3    H131536   7.841   6.903   3.134
10553TIP3    H231537   7.925   6.997   3.050
10554TIP3   OH231538   8.222   5.809   3.458
10554TIP3    H131539   8.135   5.842   3.429
10554TIP3    H231540   8.282   5.843   3.388
10555TIP3   OH231541   7.522   5.457   3.443
10555TIP3    H131542   7.505   5.362   3.456
10555TIP3    H231543   7.443   5.496   3.486
10556TIP3   OH231544   7.636   6.958   2.771
10556TIP3    H131545   7.686   6.876   2.749
10556TIP3    H231546   7.696   7.025   2.729
10557TIP3   OH231547   7.777   6.743   2.675
10557TIP3    H131548   7.737   6.663   2.637
10557TIP3    H231549   7.812   6.708   2.760
10558TIP3   OH231550   8.157   6.825   3.441
10558TIP3    H131551   8.147   6.748   3.380
10558TIP3    H231552   8.140   6.900   3.380
10559TIP3   OH231553   7.448   6.217   2.696
10559TIP3    H131554   7.368   6.270   2.675
10559TIP3    H231555   7.495   6.216   2.611
10560TIP3   OH231556   7.408   6.002   2.414
10560TIP3    H131557   7.475   6.053   2.463
10560TIP3    H231558   7.466   5.939   2.366
10561TIP3   OH231559   8.352   6.458   3.283
10561TIP3    H131560   8.270   6.513   3.289
10561TIP3    H231561   8.383   6.485   3.193
10562TIP3   OH231562   7.796   6.300   2.669
10562TIP3    H131563   7.741   6.326   2.747
10562TIP3    H231564   7.880   6.276   2.712
10563TIP3   OH231565   8.032   6.340   3.580
10563TIP3    H131566   8.030   6.424   3.630
10563TIP3    H231567   7.945   6.346   3.534
10564TIP3   OH231568   7.029   6.299   3.085
10564TIP3    H131569   6.987   6.241   3.017
10564TIP3    H231570   7.106   6.246   3.113
10565TIP3   OH231571   7.159   6.710   3.234
10565TIP3    H131572   7.138   6.666   3.150
10565TIP3    H231573   7.249   6.677   3.252
10566TIP3   OH231574   7.169   6.269   3.439
10566TIP3    H131575   7.200   6.251   3.348
10566TIP3    H231576   7.209   6.356   3.459
10567TIP3   OH231577   7.690   6.908   3.216
10567TIP3    H131578   7.676   6.989   3.268
10567TIP3    H231579   7.675   6.836   3.280
10568TIP3   OH231580   7.302   6.826   3.764
10568TIP3    H131581   7.243   6.889   3.810
10568TIP3    H231582   7.237   6.773   3.714
10569TIP3   OH231583   7.638   6.158   2.494
10569TIP3    H131584   7.696   6.218   2.547
10569TIP3    H231585   7.664   6.183   2.402
10570TIP3   OH231586   7.057   6.382   3.864
10570TIP3    H131587   7.062   6.469   3.908
10570TIP3    H231588   6.961   6.363   3.874
10571TIP3   OH231589   7.382   6.838   2.769
10571TIP3    H131590   7.460   6.893   2.789
10571TIP3    H231591   7.318   6.902   2.738
10572TIP3   OH231592   7.098   6.995   3.850
10572TIP3    H131593   7.062   6.995   3.759
10572TIP3    H231594   7.018   6.973   3.903
10573TIP3   OH231595   8.153   5.400   2.543
10573TIP3    H131596   8.072   5.421   2.593
10573TIP3    H231597   8.166   5.483   2.493
10574TIP3   OH231598   6.896   6.141   2.888
10574TIP3    H131599   6.830   6.188   2.832
10574TIP3    H231600   6.851   6.057   2.904
10575TIP3   OH231601   7.952   6.768   2.089
10575TIP3    H131602   7.961   6.865   2.077
10575TIP3    H231603   8.045   6.739   2.078
10576TIP3   OH231604   6.676   6.525   3.797
10576TIP3    H131605   6.610   6.504   3.728
10576TIP3    H231606   6.712   6.437   3.820
10577TIP3   OH231607   6.530   6.718   3.432
10577TIP3    H131608   6.626   6.715   3.422
10577TIP3    H231609   6.518   6.799   3.483
10578TIP3   OH231610   8.392   7.169   3.489
10578TIP3    H131611   8.392   7.073   3.501
10578TIP3    H231612   8.311   7.194   3.537
10579TIP3   OH231613   7.502   6.954   3.621
10579TIP3    H131614   7.500   7.047   3.652
10579TIP3    H231615   7.429   6.915   3.675
10580TIP3   OH231616   7.263   7.095   2.566
10580TIP3    H131617   7.201   7.066   2.497
10580TIP3    H231618   7.221   7.172   2.605
10581TIP3   OH231619   6.700   6.934   2.954
10581TIP3    H131620   6.747   6.925   3.040
10581TIP3    H231621   6.638   6.860   2.961
10582TIP3   OH231622   7.463   6.986   2.214
10582TIP3    H131623   7.521   6.917   2.174
10582TIP3    H231624   7.501   6.993   2.304
10583TIP3   OH231625   7.515   7.034   2.482
10583TIP3    H131626   7.427   7.042   2.526
10583TIP3    H231627   7.568   6.995   2.554
10584TIP3   OH231628   8.285   6.299   3.762
10584TIP3    H131629   8.206   6.315   3.709
10584TIP3    H231630   8.298   6.203   3.749
10585TIP3   OH231631   6.882   6.707   3.786
10585TIP3    H131632   6.930   6.692   3.869
10585TIP3    H231633   6.807   6.644   3.794
10586TIP3   OH231634   7.280   5.534   3.565
10586TIP3    H131635   7.190   5.504   3.540
10586TIP3    H231636   7.257   5.616   3.611
10587TIP3   OH231637   7.811   5.646   3.766
10587TIP3    H131638   7.879   5.619   3.830
10587TIP3    H231639   7.727   5.625   3.813
10588TIP3   OH231640   8.053   6.076   3.681
10588TIP3    H131641   8.004   6.073   3.766
10588TIP3    H231642   8.031   6.164   3.646
10589TIP3   OH231643   7.713   6.207   2.238
10589TIP3    H131644   7.680   6.181   2.150
10589TIP3    H231645   7.793   6.256   2.215
10590TIP3   OH231646   7.424   5.582   2.540
10590TIP3    H131647   7.393   5.580   2.632
10590TIP3    H231648   7.388   5.497   2.508
10591TIP3   OH231649   7.213   6.047   3.588
10591TIP3    H131650   7.161   6.068   3.669
10591TIP3    H231651   7.198   6.128   3.535
10592TIP3   OH231652   7.097   5.933   3.102
10592TIP3    H131653   7.003   5.908   3.119
10592TIP3    H231654   7.109   5.892   3.013
10593TIP3   OH231655   7.586   6.019   2.829
10593TIP3    H131656   7.533   6.091   2.788
10593TIP3    H231657   7.641   5.990   2.753
10594TIP3   OH231658   7.761   6.296   3.915
10594TIP3    H131659   7.741   6.225   3.979
10594TIP3    H231660   7.854   6.315   3.937
10595TIP3   OH231661   7.744   6.048   3.070
10595TIP3    H131662   7.685   6.081   2.999
10595TIP3    H231663   7.776   5.967   3.026
10596TIP3   OH231664   7.033   6.077   3.796
10596TIP3    H131665   7.051   6.142   3.865
10596TIP3    H231666   7.017   5.996   3.848
10597TIP3   OH231667   7.077   5.549   2.507
10597TIP3    H131668   7.072   5.552   2.604
10597TIP3    H231669   7.003   5.608   2.482
10598TIP3   OH231670   6.625   5.600   3.376
10598TIP3    H131671   6.700   5.631   3.430
10598TIP3    H231672   6.667   5.567   3.295
10599TIP3   OH231673   6.600   5.581   2.895
10599TIP3    H131674   6.643   5.622   2.817
10599TIP3    H231675   6.537   5.652   2.919
10600TIP3   OH231676   7.753   6.295   3.492
10600TIP3    H131677   7.786   6.222   3.434
10600TIP3    H231678   7.724   6.242   3.570
10601TIP3   OH231679   7.422   5.753   3.164
10601TIP3    H131680   7.339   5.753   3.215
10601TIP3    H231681   7.489   5.759   3.234
10602TIP3   OH231682   6.858   5.812   3.172
10602TIP3    H131683   6.763   5.820   3.145
10602TIP3    H231684   6.879   5.720   3.148
10603TIP3   OH231685   7.129   5.806   2.860
10603TIP3    H131686   7.222   5.824   2.838
10603TIP3    H231687   7.081   5.831   2.777
10604TIP3   OH231688   7.916   5.830   3.364
10604TIP3    H131689   7.881   5.843   3.455
10604TIP3    H231690   7.848   5.770   3.328
10605TIP3   OH231691   6.970   5.839   2.640
10605TIP3    H131692   6.896   5.797   2.592
10605TIP3    H231693   7.020   5.877   2.565
10606TIP3   OH231694   8.082   7.522   3.582
10606TIP3    H131695   8.083   7.546   3.487
10606TIP3    H231696   8.161   7.570   3.614
10607TIP3   OH231697   7.043   6.629   4.006
10607TIP3    H131698   7.122   6.661   4.054
10607TIP3    H231699   6.977   6.630   4.079
10608TIP3   OH231700   7.506   6.082   3.260
10608TIP3    H131701   7.581   6.046   3.209
10608TIP3    H231702   7.519   6.042   3.347
10609TIP3   OH231703   7.031   5.571   3.139
10609TIP3    H131704   6.996   5.492   3.184
10609TIP3    H231705   7.082   5.533   3.066
10610TIP3   OH231706   7.483   5.977   3.556
10610TIP3    H131707   7.394   6.015   3.566
10610TIP3    H231708   7.540   6.041   3.603
10611TIP3   OH231709   7.221   6.372   2.646
10611TIP3    H131710   7.148   6.306   2.635
10611TIP3    H231711   7.202   6.405   2.737
10612TIP3   OH231712   8.122   6.607   3.275
10612TIP3    H131713   8.146   6.657   3.194
10612TIP3    H231714   8.036   6.567   3.250
10613TIP3   OH231715   7.678   5.683   2.508
10613TIP3    H131716   7.581   5.669   2.514
10613TIP3    H231717   7.689   5.778   2.530
10614TIP3   OH231718   7.618   6.688   3.644
10614TIP3    H131719   7.641   6.670   3.735
10614TIP3    H231720   7.581   6.778   3.648
10615TIP3   OH231721   7.748   5.931   2.610
10615TIP3    H131722   7.845   5.937   2.626
10615TIP3    H231723   7.729   6.011   2.557
10616TIP3   OH231724   6.913   6.393   3.323
10616TIP3    H131725   6.950   6.364   3.237
10616TIP3    H231726   6.950   6.329   3.385
10617TIP3   OH231727   7.364   6.520   2.465
10617TIP3    H131728   7.318   6.607   2.474
10617TIP3    H231729   7.311   6.465   2.526
10618TIP3   OH231730   6.793   6.312   3.934
10618TIP3    H131731   6.811   6.299   4.029
10618TIP3    H231732   6.722   6.247   3.918
10619TIP3   OH231733   7.518   6.426   3.956
10619TIP3    H131734   7.458   6.370   3.905
10619TIP3    H231735   7.605   6.394   3.925
10620TIP3   OH231736   7.780   6.945   3.541
10620TIP3    H131737   7.683   6.947   3.551
10620TIP3    H231738   7.807   7.000   3.617
10621TIP3   OH231739   8.190   6.020   2.447
10621TIP3    H131740   8.128   5.976   2.386
10621TIP3    H231741   8.187   6.110   2.407
10622TIP3   OH231742   8.407   6.876   3.530
10622TIP3    H131743   8.309   6.873   3.520
10622TIP3    H231744   8.433   6.848   3.439
10623TIP3   OH231745   7.883   6.840   2.353
10623TIP3    H131746   7.867   6.769   2.417
10623TIP3    H231747   7.902   6.792   2.270
10624TIP3   OH231748   7.886   6.469   3.196
10624TIP3    H131749   7.792   6.444   3.207
10624TIP3    H231750   7.920   6.390   3.149
10625TIP3   OH231751   7.012   6.695   2.944
10625TIP3    H131752   7.012   6.778   2.892
10625TIP3    H231753   6.917   6.682   2.958
10626TIP3   OH231754   6.577   6.001   2.651
10626TIP3    H131755   6.622   6.086   2.670
10626TIP3    H231756   6.499   6.007   2.710
10627TIP3   OH231757   7.153   6.463   2.891
10627TIP3    H131758   7.117   6.552   2.908
10627TIP3    H231759   7.116   6.413   2.966
10628TIP3   OH231760   7.282   7.041   3.416
10628TIP3    H131761   7.321   7.115   3.365
10628TIP3    H231762   7.359   7.008   3.464
10629TIP3   OH231763   6.933   6.935   2.798
10629TIP3    H131764   6.847   6.942   2.844
10629TIP3    H231765   6.964   7.028   2.803
10630TIP3   OH231766   7.671   6.674   3.374
10630TIP3    H131767   7.662   6.673   3.472
10630TIP3    H231768   7.752   6.624   3.361
10631TIP3   OH231769   7.643   6.567   2.257
10631TIP3    H131770   7.697   6.543   2.336
10631TIP3    H231771   7.555   6.541   2.287
10632TIP3   OH231772   7.918   7.211   3.425
10632TIP3    H131773   7.839   7.155   3.413
10632TIP3    H231774   7.906   7.276   3.352
10633TIP3   OH231775   7.986   7.044   2.077
10633TIP3    H131776   8.029   7.119   2.033
10633TIP3    H231777   7.904   7.089   2.106
10634TIP3   OH231778   7.003   5.817   3.942
10634TIP3    H131779   6.907   5.831   3.959
10634TIP3    H231780   7.029   5.761   4.017
10635TIP3   OH231781   7.804   6.500   2.473
10635TIP3    H131782   7.795   6.435   2.545
10635TIP3    H231783   7.902   6.499   2.461
10636TIP3   OH231784   6.721   6.903   3.575
10636TIP3    H131785   6.774   6.830   3.610
10636TIP3    H231786   6.748   6.975   3.634
10637TIP3   OH231787   7.012   6.550   2.256
10637TIP3    H131788   7.025   6.458   2.226
10637TIP3    H231789   6.993   6.537   2.351
10638TIP3   OH231790   6.959   6.554   2.527
10638TIP3    H131791   7.026   6.526   2.591
10638TIP3    H231792   6.962   6.651   2.536
10639TIP3   OH231793   6.693   6.248   2.732
10639TIP3    H131794   6.627   6.292   2.789
10639TIP3    H231795   6.706   6.317   2.665
10640TIP3   OH231796   7.841   5.882   3.622
10640TIP3    H131797   7.919   5.923   3.663
10640TIP3    H231798   7.826   5.803   3.679
10641TIP3   OH231799   7.721   5.636   2.788
10641TIP3    H131800   7.707   5.659   2.694
10641TIP3    H231801   7.759   5.718   2.824
10642TIP3   OH231802   7.223   6.751   2.479
10642TIP3    H131803   7.136   6.778   2.514
10642TIP3    H231804   7.236   6.815   2.408
10643TIP3   OH231805   7.412   5.813   2.891
10643TIP3    H131806   7.476   5.885   2.872
10643TIP3    H231807   7.416   5.807   2.988
10644TIP3   OH231808   7.679   6.133   3.700
10644TIP3    H131809   7.699   6.190   3.777
10644TIP3    H231810   7.736   6.056   3.715
10645TIP3   OH231811   7.556   5.543   2.995
10645TIP3    H131812   7.545   5.621   3.052
10645TIP3    H231813   7.616   5.579   2.926
10646TIP3   OH231814   6.967   6.827   2.545
10646TIP3    H131815   6.933   6.895   2.483
10646TIP3    H231816   6.948   6.868   2.632
10647TIP3   OH231817   7.066   5.540   2.784
10647TIP3    H131818   7.064   5.631   2.819
10647TIP3    H231819   7.162   5.522   2.792
10648TIP3   OH231820   8.320   6.031   3.682
10648TIP3    H131821   8.222   6.029   3.686
10648TIP3    H231822   8.335   6.003   3.591
10649TIP3   OH231823   7.972   6.228   3.068
10649TIP3    H131824   7.896   6.168   3.081
10649TIP3    H231825   8.043   6.181   3.116
10650TIP3   OH231826   6.683   6.457   2.539
10650TIP3    H131827   6.745   6.531   2.547
10650TIP3    H231828   6.730   6.404   2.471
10651TIP3   OH231829   6.629   5.732   2.668
10651TIP3    H131830   6.628   5.829   2.666
10651TIP3    H231831   6.541   5.711   2.633
10652TIP3   OH231832   7.940   7.180   3.018
10652TIP3    H131833   7.897   7.227   2.943
10652TIP3    H231834   8.034   7.201   2.998
10653TIP3   OH231835   7.017   5.453   3.542
10653TIP3    H131836   6.984   5.422   3.455
10653TIP3    H231837   7.004   5.374   3.597
10654TIP3   OH231838   6.554   6.668   2.925
10654TIP3    H131839   6.484   6.700   2.983
10654TIP3    H231840   6.529   6.710   2.840
10655TIP3   OH231841   6.710   7.210   3.998
10655TIP3    H131842   6.797   7.210   4.045
10655TIP3    H231843   6.690   7.116   3.996
10656TIP3   OH231844   7.193   7.177   4.042
10656TIP3    H131845   7.288   7.159   4.049
10656TIP3    H231846   7.168   7.119   3.968
10657TIP3   OH231847   7.175   6.755   2.175
10657TIP3    H131848   7.118   6.683   2.209
10657TIP3    H231849   7.249   6.703   2.140
10658TIP3   OH231850   7.832   7.083   3.776
10658TIP3    H131851   7.819   7.010   3.842
10658TIP3    H231852   7.914   7.123   3.807
10659TIP3   OH231853   7.610   6.795   2.081
10659TIP3    H131854   7.656   6.733   2.141
10659TIP3    H231855   7.669   6.796   2.002
10660TIP3   OH231856   6.842   6.618   4.197
10660TIP3    H131857   6.858   6.522   4.200
10660TIP3    H231858   6.754   6.621   4.154
10661TIP3   OH231859   6.819   6.271   2.389
10661TIP3    H131860   6.874   6.237   2.462
10661TIP3    H231861   6.887   6.275   2.318
10662TIP3   OH231862   7.450   6.703   3.970
10662TIP3    H131863   7.407   6.720   3.884
10662TIP3    H231864   7.480   6.610   3.962
10663TIP3   OH231865   7.327   6.468   2.196
10663TIP3    H131866   7.330   6.480   2.293
10663TIP3    H231867   7.326   6.370   2.191
10664TIP3   OH231868   7.942   6.710   3.577
10664TIP3    H131869   8.017   6.754   3.532
10664TIP3    H231870   7.872   6.777   3.563
10665TIP3   OH231871   6.960   6.352   4.179
10665TIP3    H131872   7.033   6.293   4.160
10665TIP3    H231873   6.985   6.386   4.268
10666TIP3   OH231874   7.029   6.173   2.613
10666TIP3    H131875   7.000   6.132   2.697
10666TIP3    H231876   7.063   6.096   2.563
10667TIP3   OH231877   7.298   6.238   3.843
10667TIP3    H131878   7.219   6.295   3.844
10667TIP3    H231879   7.345   6.271   3.763
10668TIP3   OH231880   7.127   5.964   2.453
10668TIP3    H131881   7.100   5.969   2.359
10668TIP3    H231882   7.224   5.971   2.446
10669TIP3   OH231883   7.811   6.638   3.974
10669TIP3    H131884   7.894   6.619   3.928
10669TIP3    H231885   7.812   6.572   4.046
10670TIP3   OH231886   7.950   6.298   2.115
10670TIP3    H131887   7.928   6.251   2.032
10670TIP3    H231888   7.918   6.388   2.091
10671TIP3   OH231889   7.423   6.025   3.965
10671TIP3    H131890   7.418   5.946   3.907
10671TIP3    H231891   7.378   6.092   3.910
10672TIP3   OH231892   7.425   5.807   3.776
10672TIP3    H131893   7.451   5.851   3.692
10672TIP3    H231894   7.331   5.785   3.758
10673TIP3   OH231895   7.451   6.347   3.646
10673TIP3    H131896   7.533   6.358   3.597
10673TIP3    H231897   7.393   6.414   3.604
10674TIP3   OH231898   8.032   6.314   4.029
10674TIP3    H131899   8.085   6.234   4.038
10674TIP3    H231900   8.096   6.378   3.995
10675TIP3   OH231901   8.073   6.565   3.763
10675TIP3    H131902   8.014   6.619   3.704
10675TIP3    H231903   8.160   6.587   3.723
10676TIP3   OH231904   7.302   6.134   4.199
10676TIP3    H131905   7.229   6.071   4.212
10676TIP3    H231906   7.331   6.112   4.108
10677TIP3   OH231907   7.558   5.576   3.858
10677TIP3    H131908   7.514   5.660   3.834
10677TIP3    H231909   7.487   5.512   3.833
10678TIP3   OH231910   7.683   6.075   4.057
10678TIP3    H131911   7.666   6.075   4.153
10678TIP3    H231912   7.592   6.056   4.025
10679TIP3   OH231913   7.918   6.024   3.909
10679TIP3    H131914   7.844   6.033   3.972
10679TIP3    H231915   7.992   5.999   3.968
10680TIP3   OH231916   8.143   5.967   4.064
10680TIP3    H131917   8.159   5.873   4.084
10680TIP3    H231918   8.142   6.010   4.152
10681TIP3   OH231919   7.135   5.920   4.248
10681TIP3    H131920   7.141   5.829   4.213
10681TIP3    H231921   7.171   5.907   4.338
10682TIP3   OH231922   7.684   5.778   4.249
10682TIP3    H131923   7.686   5.768   4.153
10682TIP3    H231924   7.626   5.857   4.259
10683TIP3   OH231925   6.936   7.031   2.358
10683TIP3    H131926   7.029   7.027   2.330
10683TIP3    H231927   6.897   7.075   2.281
10684TIP3   OH231928   6.414   6.410   2.574
10684TIP3    H131929   6.509   6.432   2.561
10684TIP3    H231930   6.409   6.322   2.532
10685TIP3   OH231931   6.330   7.022   2.986
10685TIP3    H131932   6.261   6.961   2.951
10685TIP3    H231933   6.373   6.965   3.053
10686TIP3   OH231934   6.467   6.874   3.172
10686TIP3    H131935   6.452   6.802   3.235
10686TIP3    H231936   6.516   6.936   3.229
10687TIP3   OH231937   8.190   7.275   2.974
10687TIP3    H131938   8.219   7.314   3.058
10687TIP3    H231939   8.251   7.318   2.911
10688TIP3   OH231940   8.218   7.296   3.258
10688TIP3    H131941   8.181   7.205   3.252
10688TIP3    H231942   8.299   7.277   3.307
10689TIP3   OH231943   8.268   6.973   3.831
10689TIP3    H131944   8.197   6.983   3.898
10689TIP3    H231945   8.310   7.061   3.833
10690TIP3   OH231946   8.084   6.485   2.448
10690TIP3    H131947   8.153   6.549   2.420
10690TIP3    H231948   8.127   6.446   2.528
10691TIP3   OH231949   8.211   6.352   2.651
10691TIP3    H131950   8.146   6.310   2.712
10691TIP3    H231951   8.277   6.390   2.712
10692TIP3   OH231952   8.265   6.743   3.084
10692TIP3    H131953   8.318   6.680   3.032
10692TIP3    H231954   8.259   6.820   3.024
10693TIP3   OH231955   8.097   7.042   3.281
10693TIP3    H131956   8.026   7.087   3.330
10693TIP3    H231957   8.048   6.996   3.210
10694TIP3   OH231958   8.150   6.259   2.300
10694TIP3    H131959   8.078   6.263   2.232
10694TIP3    H231960   8.124   6.336   2.355
10695TIP3   OH231961   8.021   5.933   2.254
10695TIP3    H131962   7.979   5.973   2.177
10695TIP3    H231963   7.995   5.839   2.244
10696TIP3   OH231964   8.025   6.208   2.799
10696TIP3    H131965   8.034   6.112   2.795
10696TIP3    H231966   8.012   6.223   2.896
10697TIP3   OH231967   6.653   6.280   3.546
10697TIP3    H131968   6.651   6.252   3.452
10697TIP3    H231969   6.750   6.283   3.561
10698TIP3   OH231970   8.314   6.633   3.655
10698TIP3    H131971   8.388   6.568   3.646
10698TIP3    H231972   8.342   6.704   3.595
10699TIP3   OH231973   8.499   6.438   3.673
10699TIP3    H131974   8.426   6.388   3.714
10699TIP3    H231975   8.573   6.376   3.686
10700TIP3   OH231976   7.964   5.667   2.241
10700TIP3    H131977   8.040   5.636   2.295
10700TIP3    H231978   7.892   5.607   2.265
10701TIP3   OH231979   8.022   5.924   2.695
10701TIP3    H131980   8.063   5.835   2.710
10701TIP3    H231981   8.080   5.958   2.625
10702TIP3   OH231982   8.185   6.098   3.189
10702TIP3    H131983   8.270   6.125   3.149
10702TIP3    H231984   8.198   6.137   3.278
10703TIP3   OH231985   8.252   6.242   3.423
10703TIP3    H131986   8.174   6.277   3.469
10703TIP3    H231987   8.285   6.322   3.376
10704TIP3   OH231988   6.867   5.968   4.227
10704TIP3    H131989   6.964   5.956   4.227
10704TIP3    H231990   6.836   5.892   4.279
10705TIP3   OH231991   8.701   5.830   3.977
10705TIP3    H131992   8.762   5.767   3.934
10705TIP3    H231993   8.673   5.887   3.902
10706TIP3   OH231994   8.132   5.674   2.732
10706TIP3    H131995   8.180   5.658   2.816
10706TIP3    H231996   8.071   5.597   2.731
10707TIP3   OH231997   6.832   5.660   3.548
10707TIP3    H131998   6.896   5.587   3.559
10707TIP3    H231999   6.892   5.736   3.545
10708TIP3   OH232000   6.636   5.933   3.625
10708TIP3    H132001   6.684   5.931   3.540
10708TIP3    H232002   6.660   6.020   3.658
10709TIP3   OH232003   8.576   5.974   3.785
10709TIP3    H132004   8.490   6.015   3.809
10709TIP3    H232005   8.544   5.904   3.724
10710TIP3   OH232006   8.213   5.609   2.365
10710TIP3    H132007   8.253   5.538   2.310
10710TIP3    H232008   8.279   5.681   2.357
10711TIP3   OH232009   6.617   5.437   3.124
10711TIP3    H132010   6.524   5.435   3.153
10711TIP3    H232011   6.613   5.497   3.047
10712TIP3   OH232012   7.771   7.145   2.628
10712TIP3    H132013   7.826   7.129   2.549
10712TIP3    H232014   7.825   7.209   2.678
10713TIP3   OH232015   6.820   5.499   3.944
10713TIP3    H132016   6.775   5.526   4.025
10713TIP3    H232017   6.765   5.548   3.878
10714TIP3   OH232018   6.878   6.942   4.017
10714TIP3    H132019   6.786   6.917   3.999
10714TIP3    H232020   6.885   6.928   4.112
10715TIP3   OH232021   7.055   6.976   3.564
10715TIP3    H132022   7.006   7.051   3.526
10715TIP3    H232023   7.141   6.991   3.519
10716TIP3   OH232024   7.501   7.220   3.701
10716TIP3    H132025   7.542   7.223   3.790
10716TIP3    H232026   7.566   7.271   3.649
10717TIP3   OH232027   7.680   7.371   3.562
10717TIP3    H132028   7.751   7.324   3.515
10717TIP3    H232029   7.732   7.431   3.619
10718TIP3   OH232030   8.473   5.738   3.661
10718TIP3    H132031   8.383   5.737   3.625
10718TIP3    H232032   8.501   5.644   3.647
10719TIP3   OH232033   6.732   7.231   3.590
10719TIP3    H132034   6.644   7.266   3.563
10719TIP3    H232035   6.741   7.274   3.676
10720TIP3   OH232036   6.968   7.211   3.444
10720TIP3    H132037   6.882   7.225   3.490
10720TIP3    H232038   6.948   7.248   3.356
10721TIP3   OH232039   7.395   7.242   3.241
10721TIP3    H132040   7.324   7.263   3.178
10721TIP3    H232041   7.407   7.329   3.285
10722TIP3   OH232042   7.663   7.181   3.294
10722TIP3    H132043   7.569   7.200   3.275
10722TIP3    H232044   7.707   7.257   3.253
10723TIP3   OH232045   7.867   7.372   3.210
10723TIP3    H132046   7.855   7.458   3.164
10723TIP3    H232047   7.896   7.314   3.136
10724TIP3   OH232048   6.643   7.028   3.332
10724TIP3    H132049   6.669   7.003   3.423
10724TIP3    H232050   6.715   6.984   3.282
10725TIP3   OH232051   6.837   6.899   3.188
10725TIP3    H132052   6.853   6.816   3.239
10725TIP3    H232053   6.927   6.937   3.185
10726TIP3   OH232054   7.103   6.994   3.191
10726TIP3    H132055   7.135   6.903   3.181
10726TIP3    H232056   7.144   7.018   3.275
10727TIP3   OH232057   7.682   5.652   3.282
10727TIP3    H132058   7.636   5.583   3.332
10727TIP3    H232059   7.751   5.603   3.235
10728TIP3   OH232060   8.204   5.530   3.187
10728TIP3    H132061   8.240   5.582   3.112
10728TIP3    H232062   8.108   5.549   3.180
10729TIP3   OH232063   8.298   5.630   2.950
10729TIP3    H132064   8.371   5.580   2.907
10729TIP3    H232065   8.330   5.722   2.935
10730TIP3   OH232066   6.928   5.360   3.296
10730TIP3    H132067   6.835   5.327   3.297
10730TIP3    H232068   6.976   5.274   3.293
10731TIP3   OH232069   6.713   5.229   2.944
10731TIP3    H132070   6.739   5.290   2.873
10731TIP3    H232071   6.682   5.292   3.013
10732TIP3   OH232072   7.371   5.391   3.176
10732TIP3    H132073   7.430   5.442   3.117
10732TIP3    H232074   7.387   5.433   3.261
10733TIP3   OH232075   7.921   5.538   3.160
10733TIP3    H132076   7.915   5.504   3.070
10733TIP3    H232077   7.905   5.457   3.214
10734TIP3   OH232078   7.948   5.461   2.723
10734TIP3    H132079   7.861   5.504   2.733
10734TIP3    H232080   7.932   5.376   2.769
10735TIP3   OH232081   6.432   6.799   2.724
10735TIP3    H132082   6.347   6.767   2.690
10735TIP3    H232083   6.421   6.894   2.706
10736TIP3   OH232084   6.833   5.391   2.699
10736TIP3    H132085   6.894   5.328   2.660
10736TIP3    H232086   6.894   5.452   2.744
10737TIP3   OH232087   7.344   5.563   2.806
10737TIP3    H132088   7.404   5.517   2.867
10737TIP3    H232089   7.364   5.656   2.831
10738TIP3   OH232090   7.203   7.004   2.292
10738TIP3    H132091   7.298   7.006   2.266
10738TIP3    H232092   7.176   6.925   2.240
10739TIP3   OH232093   7.918   7.105   2.398
10739TIP3    H132094   7.909   7.008   2.384
10739TIP3    H232095   7.880   7.139   2.315
10740TIP3   OH232096   7.132   5.651   4.182
10740TIP3    H132097   7.088   5.589   4.242
10740TIP3    H232098   7.226   5.640   4.209
10741TIP3   OH232099   7.383   5.630   4.300
10741TIP3    H132100   7.478   5.646   4.301
10741TIP3    H232101   7.371   5.573   4.379
10742TIP3   OH232102   6.507   6.827   2.363
10742TIP3    H132103   6.502   6.855   2.455
10742TIP3    H232104   6.597   6.787   2.357
10743TIP3   OH232105   8.208   5.696   4.094
10743TIP3    H132106   8.229   5.667   4.185
10743TIP3    H232107   8.296   5.695   4.051
10744TIP3   OH232108   8.139   7.252   3.600
10744TIP3    H132109   8.066   7.221   3.542
10744TIP3    H232110   8.128   7.349   3.591
10745TIP3   OH232111   9.422   6.615   2.339
10745TIP3    H132112   9.402   6.709   2.327
10745TIP3    H232113   9.336   6.575   2.319
10746TIP3   OH232114   9.366   6.623   2.744
10746TIP3    H132115   9.432   6.608   2.814
10746TIP3    H232116   9.370   6.543   2.692
10747TIP3   OH232117   8.714   6.521   3.100
10747TIP3    H132118   8.747   6.454   3.162
10747TIP3    H232119   8.791   6.578   3.090
10748TIP3   OH232120   8.683   6.926   2.825
10748TIP3    H132121   8.677   6.829   2.828
10748TIP3    H232122   8.780   6.937   2.817
10749TIP3   OH232123   8.391   6.130   2.610
10749TIP3    H132124   8.345   6.215   2.625
10749TIP3    H232125   8.319   6.078   2.570
10750TIP3   OH232126   8.449   6.418   2.778
10750TIP3    H132127   8.500   6.342   2.816
10750TIP3    H232128   8.512   6.454   2.714
10751TIP3   OH232129   9.306   7.376   2.442
10751TIP3    H132130   9.346   7.290   2.422
10751TIP3    H232131   9.280   7.363   2.534
10752TIP3   OH232132   9.208   6.849   2.785
10752TIP3    H132133   9.251   6.766   2.754
10752TIP3    H232134   9.290   6.901   2.802
10753TIP3   OH232135   9.632   6.372   2.815
10753TIP3    H132136   9.629   6.276   2.833
10753TIP3    H232137   9.611   6.370   2.719
10754TIP3   OH232138   8.961   6.009   2.781
10754TIP3    H132139   8.942   6.083   2.720
10754TIP3    H232140   8.913   5.937   2.735
10755TIP3   OH232141   9.651   6.100   2.426
10755TIP3    H132142   9.729   6.068   2.472
10755TIP3    H232143   9.691   6.165   2.365
10756TIP3   OH232144   8.595   6.212   2.887
10756TIP3    H132145   8.679   6.194   2.934
10756TIP3    H232146   8.609   6.157   2.807
10757TIP3   OH232147   9.038   6.410   2.679
10757TIP3    H132148   9.132   6.384   2.691
10757TIP3    H232149   8.999   6.326   2.647
10758TIP3   OH232150   8.958   5.994   3.215
10758TIP3    H132151   8.900   6.032   3.146
10758TIP3    H232152   8.906   6.014   3.295
10759TIP3   OH232153   9.312   6.852   2.221
10759TIP3    H132154   9.260   6.826   2.144
10759TIP3    H232155   9.269   6.937   2.244
10760TIP3   OH232156   9.066   6.767   3.012
10760TIP3    H132157   9.004   6.835   3.047
10760TIP3    H232158   9.109   6.816   2.939
10761TIP3   OH232159   8.829   6.108   2.999
10761TIP3    H132160   8.891   6.182   3.021
10761TIP3    H232161   8.878   6.068   2.923
10762TIP3   OH232162   8.892   6.962   3.106
10762TIP3    H132163   8.870   7.048   3.066
10762TIP3    H232164   8.813   6.949   3.163
10763TIP3   OH232165   8.289   6.652   2.343
10763TIP3    H132166   8.248   6.682   2.260
10763TIP3    H232167   8.319   6.737   2.382
10764TIP3   OH232168   9.313   5.712   2.930
10764TIP3    H132169   9.297   5.616   2.937
10764TIP3    H232170   9.233   5.747   2.975
10765TIP3   OH232171   9.436   7.213   2.238
10765TIP3    H132172   9.510   7.158   2.266
10765TIP3    H232173   9.471   7.303   2.244
10766TIP3   OH232174   9.236   6.467   2.175
10766TIP3    H132175   9.155   6.522   2.168
10766TIP3    H232176   9.277   6.482   2.089
10767TIP3   OH232177   9.201   6.262   1.896
10767TIP3    H132178   9.260   6.299   1.963
10767TIP3    H232179   9.256   6.191   1.859
10768TIP3   OH232180   8.825   6.555   2.572
10768TIP3    H132181   8.786   6.498   2.504
10768TIP3    H232182   8.903   6.503   2.601
10769TIP3   OH232183   8.953   6.959   2.724
10769TIP3    H132184   8.938   6.920   2.637
10769TIP3    H232185   9.045   6.931   2.743
10770TIP3   OH232186   8.962   6.527   2.925
10770TIP3    H132187   8.997   6.507   2.836
10770TIP3    H232188   9.005   6.613   2.946
10771TIP3   OH232189   9.454   7.167   2.690
10771TIP3    H132190   9.478   7.248   2.738
10771TIP3    H232191   9.468   7.098   2.757
10772TIP3   OH232192   9.097   7.079   3.256
10772TIP3    H132193   9.037   7.145   3.298
10772TIP3    H232194   9.033   7.029   3.202
10773TIP3   OH232195   9.448   6.421   1.988
10773TIP3    H132196   9.485   6.484   2.052
10773TIP3    H232197   9.471   6.462   1.904
10774TIP3   OH232198   8.854   6.637   3.354
10774TIP3    H132199   8.860   6.725   3.395
10774TIP3    H232200   8.758   6.621   3.360
10775TIP3   OH232201   9.170   7.096   2.253
10775TIP3    H132202   9.243   7.152   2.281
10775TIP3    H232203   9.106   7.161   2.221
10776TIP3   OH232204   8.894   7.252   3.336
10776TIP3    H132205   8.859   7.253   3.245
10776TIP3    H232206   8.814   7.230   3.388
10777TIP3   OH232207   8.693   6.398   2.373
10777TIP3    H132208   8.626   6.444   2.319
10777TIP3    H232209   8.650   6.313   2.389
10778TIP3   OH232210   8.471   6.782   3.285
10778TIP3    H132211   8.408   6.760   3.214
10778TIP3    H232212   8.509   6.694   3.308
10779TIP3   OH232213   8.327   6.974   2.920
10779TIP3    H132214   8.422   6.970   2.907
10779TIP3    H232215   8.318   7.055   2.972
10780TIP3   OH232216   9.297   7.209   3.110
10780TIP3    H132217   9.297   7.303   3.139
10780TIP3    H232218   9.225   7.172   3.165
10781TIP3   OH232219   9.058   7.350   2.054
10781TIP3    H132220   9.001   7.336   1.976
10781TIP3    H232221   9.027   7.437   2.087
10782TIP3   OH232222   8.495   7.188   2.441
10782TIP3    H132223   8.547   7.182   2.524
10782TIP3    H232224   8.429   7.119   2.457
10783TIP3   OH232225   9.268   7.244   1.713
10783TIP3    H132226   9.337   7.180   1.695
10783TIP3    H232227   9.288   7.265   1.807
10784TIP3   OH232228   9.305   7.279   1.979
10784TIP3    H132229   9.216   7.303   2.013
10784TIP3    H232230   9.344   7.240   2.059
10785TIP3   OH232231   8.678   6.964   3.273
10785TIP3    H132232   8.727   6.949   3.356
10785TIP3    H232233   8.603   6.901   3.282
10786TIP3   OH232234   9.077   5.787   3.058
10786TIP3    H132235   8.988   5.757   3.031
10786TIP3    H232236   9.053   5.872   3.099
10787TIP3   OH232237   9.600   5.902   3.255
10787TIP3    H132238   9.643   5.899   3.342
10787TIP3    H232239   9.507   5.883   3.280
10788TIP3   OH232240   9.205   5.879   2.001
10788TIP3    H132241   9.200   5.884   2.098
10788TIP3    H232242   9.212   5.783   1.994
10789TIP3   OH232243   9.008   6.304   3.073
10789TIP3    H132244   8.958   6.327   3.154
10789TIP3    H232245   8.994   6.385   3.019
10790TIP3   OH232246   8.892   6.190   2.593
10790TIP3    H132247   8.799   6.165   2.608
10790TIP3    H232248   8.906   6.154   2.502
10791TIP3   OH232249   9.382   6.275   2.311
10791TIP3    H132250   9.329   6.348   2.273
10791TIP3    H232251   9.438   6.248   2.237
10792TIP3   OH232252   9.560   6.552   3.400
10792TIP3    H132253   9.535   6.484   3.465
10792TIP3    H232254   9.653   6.569   3.425
10793TIP3   OH232255   9.518   6.303   2.572
10793TIP3    H132256   9.488   6.351   2.493
10793TIP3    H232257   9.557   6.225   2.530
10794TIP3   OH232258   8.828   6.334   3.284
10794TIP3    H132259   8.851   6.401   3.350
10794TIP3    H232260   8.817   6.254   3.338
10795TIP3   OH232261   8.872   5.810   1.991
10795TIP3    H132262   8.869   5.810   2.089
10795TIP3    H232263   8.795   5.867   1.970
10796TIP3   OH232264   8.420   5.854   2.866
10796TIP3    H132265   8.495   5.888   2.918
10796TIP3    H232266   8.462   5.826   2.783
10797TIP3   OH232267   8.395   5.837   2.384
10797TIP3    H132268   8.440   5.876   2.306
10797TIP3    H232269   8.334   5.910   2.405
10798TIP3   OH232270   9.525   6.559   2.977
10798TIP3    H132271   9.580   6.501   2.920
10798TIP3    H232272   9.512   6.501   3.054
10799TIP3   OH232273   9.219   6.005   2.652
10799TIP3    H132274   9.134   6.007   2.699
10799TIP3    H232275   9.279   6.039   2.719
10800TIP3   OH232276   8.653   6.067   2.661
10800TIP3    H132277   8.559   6.074   2.632
10800TIP3    H232278   8.677   5.977   2.633
10801TIP3   OH232279   8.919   6.074   2.349
10801TIP3    H132280   9.015   6.081   2.331
10801TIP3    H232281   8.878   6.092   2.262
10802TIP3   OH232282   9.614   6.102   2.855
10802TIP3    H132283   9.610   6.108   2.952
10802TIP3    H232284   9.558   6.024   2.834
10803TIP3   OH232285   8.763   6.094   2.124
10803TIP3    H132286   8.689   6.054   2.075
10803TIP3    H232287   8.815   6.132   2.050
10804TIP3   OH232288   8.839   6.884   3.494
10804TIP3    H132289   8.919   6.918   3.539
10804TIP3    H232290   8.774   6.888   3.567
10805TIP3   OH232291   9.296   6.317   2.740
10805TIP3    H132292   9.377   6.306   2.687
10805TIP3    H232293   9.327   6.298   2.830
10806TIP3   OH232294   8.828   5.831   2.622
10806TIP3    H132295   8.798   5.748   2.665
10806TIP3    H232296   8.888   5.799   2.553
10807TIP3   OH232297   9.281   6.230   3.053
10807TIP3    H132298   9.192   6.271   3.049
10807TIP3    H232299   9.335   6.300   3.093
10808TIP3   OH232300   9.015   6.626   2.135
10808TIP3    H132301   8.941   6.563   2.123
10808TIP3    H232302   8.996   6.662   2.225
10809TIP3   OH232303   9.467   5.966   1.966
10809TIP3    H132304   9.379   5.940   2.001
10809TIP3    H232305   9.492   6.039   2.026
10810TIP3   OH232306   9.412   6.942   3.136
10810TIP3    H132307   9.428   6.934   3.230
10810TIP3    H232308   9.382   7.035   3.127
10811TIP3   OH232309   9.570   6.192   2.082
10811TIP3    H132310   9.656   6.227   2.109
10811TIP3    H232311   9.532   6.269   2.034
10812TIP3   OH232312   8.704   6.643   2.809
10812TIP3    H132313   8.745   6.621   2.723
10812TIP3    H232314   8.754   6.586   2.870
10813TIP3   OH232315   9.155   6.774   1.952
10813TIP3    H132316   9.111   6.862   1.958
10813TIP3    H232317   9.100   6.722   2.015
10814TIP3   OH232318   8.589   6.570   3.422
10814TIP3    H132319   8.611   6.558   3.516
10814TIP3    H232320   8.519   6.503   3.409
10815TIP3   OH232321   9.313   6.681   3.443
10815TIP3    H132322   9.253   6.628   3.388
10815TIP3    H232323   9.400   6.652   3.408
10816TIP3   OH232324   9.579   7.199   3.030
10816TIP3    H132325   9.483   7.206   3.024
10816TIP3    H232326   9.599   7.257   3.106
10817TIP3   OH232327   8.808   6.951   2.427
10817TIP3    H132328   8.810   7.036   2.379
10817TIP3    H232329   8.713   6.944   2.446
10818TIP3   OH232330   8.372   6.258   2.136
10818TIP3    H132331   8.418   6.342   2.156
10818TIP3    H232332   8.295   6.264   2.197
10819TIP3   OH232333   8.947   6.719   2.376
10819TIP3    H132334   8.911   6.809   2.393
10819TIP3    H232335   8.914   6.671   2.454
10820TIP3   OH232336   9.078   7.298   2.902
10820TIP3    H132337   9.117   7.371   2.850
10820TIP3    H232338   9.158   7.264   2.947
10821TIP3   OH232339   8.732   7.192   2.285
10821TIP3    H132340   8.646   7.203   2.329
10821TIP3    H232341   8.767   7.284   2.291
10822TIP3   OH232342   9.463   6.934   2.862
10822TIP3    H132343   9.458   6.935   2.960
10822TIP3    H232344   9.541   6.879   2.847
10823TIP3   OH232345   8.801   6.075   3.432
10823TIP3    H132346   8.705   6.081   3.445
10823TIP3    H232347   8.828   6.016   3.504
10824TIP3   OH232348   8.514   7.160   3.064
10824TIP3    H132349   8.572   7.089   3.096
10824TIP3    H232350   8.547   7.235   3.115
10825TIP3   OH232351   8.807   6.803   1.742
10825TIP3    H132352   8.821   6.710   1.717
10825TIP3    H232353   8.791   6.795   1.838
10826TIP3   OH232354   8.755   6.810   2.014
10826TIP3    H132355   8.820   6.785   2.080
10826TIP3    H232356   8.756   6.908   2.021
10827TIP3   OH232357   8.488   6.504   2.219
10827TIP3    H132358   8.423   6.549   2.277
10827TIP3    H232359   8.502   6.574   2.152
10828TIP3   OH232360   9.671   6.140   3.138
10828TIP3    H132361   9.696   6.188   3.220
10828TIP3    H232362   9.632   6.059   3.176
10829TIP3   OH232363   9.470   5.940   2.279
10829TIP3    H132364   9.508   5.890   2.206
10829TIP3    H232365   9.547   5.985   2.321
10830TIP3   OH232366   9.017   7.008   1.960
10830TIP3    H132367   8.933   7.033   2.001
10830TIP3    H232368   9.034   7.088   1.907
10831TIP3   OH232369   9.199   6.076   2.382
10831TIP3    H132370   9.272   6.138   2.359
10831TIP3    H232371   9.210   6.070   2.479
10832TIP3   OH232372   9.476   6.387   3.188
10832TIP3    H132373   9.489   6.451   3.260
10832TIP3    H232374   9.542   6.320   3.208
10833TIP3   OH232375   9.371   5.804   2.508
10833TIP3    H132376   9.328   5.887   2.535
10833TIP3    H232377   9.408   5.831   2.421
10834TIP3   OH232378   8.760   7.081   2.033
10834TIP3    H132379   8.731   7.151   1.970
10834TIP3    H232380   8.746   7.126   2.119
10835TIP3   OH232381   8.850   5.798   2.268
10835TIP3    H132382   8.838   5.888   2.302
10835TIP3    H232383   8.945   5.786   2.291
10836TIP3   OH232384   8.478   6.714   2.025
10836TIP3    H132385   8.539   6.789   2.035
10836TIP3    H232386   8.528   6.663   1.958
10837TIP3   OH232387   8.425   5.988   2.157
10837TIP3    H132388   8.424   6.086   2.153
10837TIP3    H232389   8.340   5.966   2.117
10838TIP3   OH232390   8.813   5.709   3.032
10838TIP3    H132391   8.781   5.678   2.945
10838TIP3    H232392   8.800   5.630   3.088
10839TIP3   OH232393   8.348   6.916   2.414
10839TIP3    H132394   8.279   6.956   2.469
10839TIP3    H232395   8.332   6.962   2.328
10840TIP3   OH232396   8.508   7.466   3.485
10840TIP3    H132397   8.595   7.467   3.531
10840TIP3    H232398   8.490   7.371   3.482
10841TIP3   OH232399   8.988   7.433   3.530
10841TIP3    H132400   9.083   7.419   3.535
10841TIP3    H232401   8.965   7.377   3.454
10842TIP3   OH232402   8.969   7.007   1.654
10842TIP3    H132403   8.909   6.941   1.697
10842TIP3    H232404   9.042   6.949   1.630
10843TIP3   OH232405   9.633   7.337   3.264
10843TIP3    H132406   9.609   7.264   3.326
10843TIP3    H232407   9.708   7.377   3.309
10844TIP3   OH232408   8.637   6.873   3.684
10844TIP3    H132409   8.654   6.777   3.687
10844TIP3    H232410   8.550   6.877   3.640
10845TIP3   OH232411   8.615   6.526   1.875
10845TIP3    H132412   8.669   6.494   1.950
10845TIP3    H232413   8.684   6.531   1.806
10846TIP3   OH232414   9.248   6.959   3.457
10846TIP3    H132415   9.204   6.979   3.371
10846TIP3    H232416   9.275   6.866   3.446
10847TIP3   OH232417   9.121   6.726   1.682
10847TIP3    H132418   9.132   6.742   1.778
10847TIP3    H232419   9.115   6.628   1.682
10848TIP3   OH232420   8.755   6.604   3.668
10848TIP3    H132421   8.834   6.555   3.645
10848TIP3    H232422   8.780   6.641   3.755
10849TIP3   OH232423   8.822   6.429   2.100
10849TIP3    H132424   8.796   6.391   2.185
10849TIP3    H232425   8.857   6.351   2.052
10850TIP3   OH232426   9.094   6.493   3.326
10850TIP3    H132427   9.016   6.553   3.330
10850TIP3    H232428   9.142   6.527   3.247
10851TIP3   OH232429   8.921   6.221   1.939
10851TIP3    H132430   8.893   6.225   1.845
10851TIP3    H232431   9.018   6.231   1.931
10852TIP3   OH232432   9.600   6.895   3.469
10852TIP3    H132433   9.675   6.874   3.412
10852TIP3    H232434   9.602   6.826   3.537
10853TIP3   OH232435   9.218   6.282   3.451
10853TIP3    H132436   9.214   6.203   3.395
10853TIP3    H232437   9.174   6.350   3.395
10854TIP3   OH232438   9.217   6.062   3.263
10854TIP3    H132439   9.243   6.113   3.182
10854TIP3    H232440   9.123   6.043   3.244
10855TIP3   OH232441   9.251   6.604   3.132
10855TIP3    H132442   9.331   6.613   3.079
10855TIP3    H232443   9.192   6.671   3.091
10856TIP3   OH232444   9.836   6.575   3.512
10856TIP3    H132445   9.873   6.491   3.544
10856TIP3    H232446   9.916   6.628   3.502
10857TIP3   OH232447   9.095   6.393   3.684
10857TIP3    H132448   9.024   6.327   3.696
10857TIP3    H232449   9.128   6.370   3.594
10858TIP3   OH232450   9.348   5.830   3.323
10858TIP3    H132451   9.298   5.913   3.303
10858TIP3    H232452   9.278   5.763   3.312
10859TIP3   OH232453   9.480   6.334   3.540
10859TIP3    H132454   9.466   6.327   3.637
10859TIP3    H232455   9.389   6.313   3.510
10860TIP3   OH232456   9.706   6.249   3.389
10860TIP3    H132457   9.630   6.278   3.444
10860TIP3    H232458   9.776   6.241   3.457
10861TIP3   OH232459   9.920   6.205   3.570
10861TIP3    H132460   9.975   6.141   3.616
10861TIP3    H232461   9.916   6.276   3.638
10862TIP3   OH232462   8.930   6.175   3.735
10862TIP3    H132463   8.939   6.084   3.701
10862TIP3    H232464   8.965   6.165   3.826
10863TIP3   OH232465   9.447   5.842   3.580
10863TIP3    H132466   9.509   5.767   3.573
10863TIP3    H232467   9.402   5.836   3.493
10864TIP3   OH232468   9.511   6.057   3.743
10864TIP3    H132469   9.486   5.989   3.678
10864TIP3    H232470   9.434   6.119   3.739
10865TIP3   OH232471   8.729   7.277   1.841
10865TIP3    H132472   8.825   7.280   1.824
10865TIP3    H232473   8.698   7.332   1.766
10866TIP3   OH232474   8.210   6.667   2.059
10866TIP3    H132475   8.305   6.690   2.048
10866TIP3    H232476   8.206   6.578   2.019
10867TIP3   OH232477   8.124   7.275   2.473
10867TIP3    H132478   8.057   7.212   2.439
10867TIP3    H232479   8.170   7.220   2.540
10868TIP3   OH232480   8.263   7.129   2.658
10868TIP3    H132481   8.252   7.058   2.724
10868TIP3    H232482   8.315   7.193   2.711
10869TIP3   OH232483   8.449   6.535   3.033
10869TIP3    H132484   8.448   6.509   2.939
10869TIP3    H232485   8.546   6.539   3.049
10870TIP3   OH232486   8.663   6.223   3.701
10870TIP3    H132487   8.761   6.220   3.706
10870TIP3    H232488   8.641   6.139   3.747
10871TIP3   OH232489   8.627   5.917   3.040
10871TIP3    H132490   8.691   5.843   3.048
10871TIP3    H232491   8.688   5.993   3.032
10872TIP3   OH232492   8.431   6.190   3.113
10872TIP3    H132493   8.480   6.185   3.028
10872TIP3    H232494   8.456   6.279   3.143
10873TIP3   OH232495   8.413   5.693   2.611
10873TIP3    H132496   8.319   5.692   2.637
10873TIP3    H232497   8.412   5.752   2.533
10874TIP3   OH232498   8.633   5.770   3.426
10874TIP3    H132499   8.583   5.771   3.509
10874TIP3    H232500   8.569   5.812   3.365
10875TIP3   OH232501   8.673   7.198   3.504
10875TIP3    H132502   8.580   7.172   3.489
10875TIP3    H232503   8.682   7.186   3.600
10876TIP3   OH232504   8.852   7.232   3.051
10876TIP3    H132505   8.805   7.309   3.011
10876TIP3    H232506   8.938   7.246   3.006
10877TIP3   OH232507   9.294   7.474   3.192
10877TIP3    H132508   9.339   7.486   3.278
10877TIP3    H232509   9.354   7.524   3.133
10878TIP3   OH232510   9.460   7.622   3.037
10878TIP3    H132511   9.537   7.588   2.989
10878TIP3    H232512   9.503   7.674   3.109
10879TIP3   OH232513   8.525   7.484   3.079
10879TIP3    H132514   8.438   7.521   3.051
10879TIP3    H232515   8.538   7.532   3.161
10880TIP3   OH232516   8.763   7.464   2.932
10880TIP3    H132517   8.676   7.481   2.975
10880TIP3    H232518   8.748   7.500   2.842
10881TIP3   OH232519   9.201   7.493   2.724
10881TIP3    H132520   9.123   7.508   2.666
10881TIP3    H232521   9.207   7.581   2.768
10882TIP3   OH232522   9.465   7.435   2.778
10882TIP3    H132523   9.369   7.450   2.763
10882TIP3    H232524   9.502   7.518   2.746
10883TIP3   OH232525   8.437   7.283   2.818
10883TIP3    H132526   8.465   7.261   2.909
10883TIP3    H232527   8.511   7.242   2.768
10884TIP3   OH232528   8.630   7.154   2.674
10884TIP3    H132529   8.649   7.072   2.725
10884TIP3    H232530   8.720   7.194   2.670
10885TIP3   OH232531   8.890   7.243   2.682
10885TIP3    H132532   8.931   7.155   2.674
10885TIP3    H232533   8.937   7.278   2.759
10886TIP3   OH232534   9.487   5.871   2.772
10886TIP3    H132535   9.423   5.813   2.816
10886TIP3    H232536   9.486   5.836   2.682
10887TIP3   OH232537   8.724   5.616   2.785
10887TIP3    H132538   8.632   5.584   2.784
10887TIP3    H232539   8.773   5.531   2.780
10888TIP3   OH232540   8.515   5.485   2.428
10888TIP3    H132541   8.541   5.545   2.356
10888TIP3    H232542   8.482   5.548   2.495
10889TIP3   OH232543   9.164   5.645   2.664
10889TIP3    H132544   9.214   5.691   2.595
10889TIP3    H232545   9.189   5.695   2.743
10890TIP3   OH232546   8.229   7.055   2.213
10890TIP3    H132547   8.143   7.026   2.176
10890TIP3    H232548   8.219   7.151   2.202
10891TIP3   OH232549   8.623   5.643   2.197
10891TIP3    H132550   8.672   5.585   2.136
10891TIP3    H232551   8.695   5.701   2.231
10892TIP3   OH232552   9.112   5.817   2.335
10892TIP3    H132553   9.189   5.766   2.302
10892TIP3    H232554   9.152   5.904   2.354
10893TIP3   OH232555   8.998   7.246   1.789
10893TIP3    H132556   9.085   7.272   1.753
10893TIP3    H232557   8.976   7.172   1.729
10894TIP3   OH232558   8.931   5.895   3.672
10894TIP3    H132559   8.896   5.826   3.731
10894TIP3    H232560   9.025   5.897   3.700
10895TIP3   OH232561   9.179   5.891   3.794
10895TIP3    H132562   9.266   5.873   3.755
10895TIP3    H232563   9.169   5.816   3.856
10896TIP3   OH232564   8.301   7.080   1.850
10896TIP3    H132565   8.303   7.112   1.941
10896TIP3    H232566   8.391   7.042   1.840
10897TIP3   OH232567   0.373   7.458   4.609
10897TIP3    H132568   0.421   7.408   4.676
10897TIP3    H232569   0.396   7.549   4.629
10898TIP3   OH232570   0.879   6.706   4.979
10898TIP3    H132571   0.916   6.787   5.021
10898TIP3    H232572   0.909   6.716   4.888
10899TIP3   OH232573   0.363   6.881   5.011
10899TIP3    H132574   0.384   6.787   5.030
10899TIP3    H232575   0.330   6.871   4.920
10900TIP3   OH232576   0.307   6.634   4.610
10900TIP3    H132577   0.384   6.616   4.669
10900TIP3    H232578   0.353   6.664   4.530
10901TIP3   OH232579   0.959   6.915   5.145
10901TIP3    H132580   0.877   6.966   5.131
10901TIP3    H232581   0.970   6.923   5.241
10902TIP3   OH232582   0.525   6.632   4.773
10902TIP3    H132583   0.508   6.588   4.857
10902TIP3    H232584   0.583   6.706   4.799
10903TIP3   OH232585   0.685   6.607   5.158
10903TIP3    H132586   0.593   6.629   5.136
10903TIP3    H232587   0.734   6.632   5.076
10904TIP3   OH232588   0.242   7.537   4.351
10904TIP3    H132589   0.202   7.465   4.301
10904TIP3    H232590   0.289   7.489   4.421
10905TIP3   OH232591   0.627   7.613   5.134
10905TIP3    H132592   0.571   7.543   5.094
10905TIP3    H232593   0.599   7.689   5.079
10906TIP3   OH232594   0.258   7.086   4.350
10906TIP3    H132595   0.196   7.117   4.419
10906TIP3    H232596   0.336   7.060   4.402
10907TIP3   OH232597   0.498   7.176   5.242
10907TIP3    H132598   0.453   7.208   5.322
10907TIP3    H232599   0.423   7.131   5.200
10908TIP3   OH232600   0.163   6.908   4.162
10908TIP3    H132601   0.174   6.976   4.231
10908TIP3    H232602   0.117   6.960   4.094
10909TIP3   OH232603   0.606   6.189   4.232
10909TIP3    H132604   0.525   6.208   4.283
10909TIP3    H232605   0.618   6.272   4.183
10910TIP3   OH232606   0.404   7.556   3.775
10910TIP3    H132607   0.416   7.653   3.769
10910TIP3    H232608   0.496   7.525   3.766
10911TIP3   OH232609   0.862   7.946   5.175
10911TIP3    H132610   0.854   7.852   5.199
10911TIP3    H232611   0.770   7.977   5.190
10912TIP3   OH232612   0.750   7.128   5.395
10912TIP3    H132613   0.657   7.097   5.397
10912TIP3    H232614   0.792   7.052   5.439
10913TIP3   OH232615   0.280   6.430   5.451
10913TIP3    H132616   0.355   6.395   5.506
10913TIP3    H232617   0.204   6.402   5.504
10914TIP3   OH232618   0.550   6.908   5.355
10914TIP3    H132619   0.519   6.878   5.443
10914TIP3    H232620   0.466   6.948   5.325
10915TIP3   OH232621   0.132   7.022   3.901
10915TIP3    H132622   0.131   6.964   3.822
10915TIP3    H232623   0.225   7.047   3.906
10916TIP3   OH232624   0.210   6.842   4.767
10916TIP3    H132625   0.128   6.863   4.718
10916TIP3    H232626   0.235   6.759   4.720
10917TIP3   OH232627   0.381   6.609   5.035
10917TIP3    H132628   0.380   6.610   5.134
10917TIP3    H232629   0.307   6.547   5.017
10918TIP3   OH232630   0.628   7.354   4.987
10918TIP3    H132631   0.648   7.413   4.911
10918TIP3    H232632   0.530   7.352   4.980
10919TIP3   OH232633   0.089   6.477   4.192
10919TIP3    H132634   0.010   6.531   4.201
10919TIP3    H232635   0.157   6.546   4.212
10920TIP3   OH232636   0.235   6.680   4.284
10920TIP3    H132637   0.318   6.716   4.317
10920TIP3    H232638   0.194   6.761   4.245
10921TIP3   OH232639   0.645   6.808   4.136
10921TIP3    H132640   0.583   6.763   4.074
10921TIP3    H232641   0.639   6.897   4.097
10922TIP3   OH232642   0.876   7.644   5.224
10922TIP3    H132643   0.777   7.640   5.222
10922TIP3    H232644   0.895   7.611   5.135
10923TIP3   OH232645   0.348   7.630   4.050
10923TIP3    H132646   0.311   7.569   4.117
10923TIP3    H232647   0.353   7.574   3.971
10924TIP3   OH232648   0.356   7.253   4.881
10924TIP3    H132649   0.263   7.231   4.895
10924TIP3    H232650   0.385   7.177   4.827
10925TIP3   OH232651   0.435   7.835   3.766
10925TIP3    H132652   0.485   7.907   3.723
10925TIP3    H232653   0.346   7.870   3.757
10926TIP3   OH232654   0.277   7.309   4.179
10926TIP3    H132655   0.253   7.227   4.225
10926TIP3    H232656   0.369   7.290   4.155
10927TIP3   OH232657   0.396   6.637   5.300
10927TIP3    H132658   0.405   6.718   5.353
10927TIP3    H232659   0.356   6.576   5.365
10928TIP3   OH232660   0.189   6.414   4.464
10928TIP3    H132661   0.156   6.454   4.382
10928TIP3    H232662   0.207   6.493   4.519
10929TIP3   OH232663   0.798   6.811   5.358
10929TIP3    H132664   0.705   6.840   5.366
10929TIP3    H232665   0.790   6.747   5.286
10930TIP3   OH232666   0.426   7.020   4.752
10930TIP3    H132667   0.350   6.958   4.752
10930TIP3    H232668   0.496   6.969   4.799
10931TIP3   OH232669   0.432   7.860   4.711
10931TIP3    H132670   0.341   7.891   4.690
10931TIP3    H232671   0.484   7.933   4.676
10932TIP3   OH232672   0.402   7.089   3.804
10932TIP3    H132673   0.382   7.039   3.722
10932TIP3    H232674   0.371   7.178   3.777
10933TIP3   OH232675   0.527   7.100   5.679
10933TIP3    H132676   0.536   7.028   5.742
10933TIP3    H232677   0.559   7.176   5.730
10934TIP3   OH232678   0.549   7.380   5.441
10934TIP3    H132679   0.470   7.405   5.392
10934TIP3    H232680   0.600   7.331   5.377
10935TIP3   OH232681   0.421   6.828   5.573
10935TIP3    H132682   0.340   6.807   5.623
10935TIP3    H232683   0.490   6.804   5.639
10936TIP3   OH232684   0.598   6.751   5.760
10936TIP3    H132685   0.617   6.657   5.781
10936TIP3    H232686   0.591   6.793   5.848
10937TIP3   OH232687   0.726   8.210   4.657
10937TIP3    H132688   0.703   8.156   4.734
10937TIP3    H232689   0.735   8.147   4.585
10938TIP3   OH232690   0.674   8.076   4.915
10938TIP3    H132691   0.644   7.987   4.938
10938TIP3    H232692   0.742   8.090   4.981
10939TIP3   OH232693   0.720   7.762   5.508
10939TIP3    H132694   0.663   7.765   5.585
10939TIP3    H232695   0.766   7.849   5.513
10940TIP3   OH232696   0.545   7.270   4.135
10940TIP3    H132697   0.613   7.336   4.111
10940TIP3    H232698   0.583   7.231   4.217
10941TIP3   OH232699   0.666   7.141   4.343
10941TIP3    H132700   0.598   7.095   4.397
10941TIP3    H232701   0.725   7.179   4.410
10942TIP3   OH232702   0.714   7.531   4.780
10942TIP3    H132703   0.770   7.465   4.734
10942TIP3    H232704   0.717   7.607   4.718
10943TIP3   OH232705   0.523   7.815   4.966
10943TIP3    H132706   0.467   7.884   5.005
10943TIP3    H232707   0.495   7.819   4.872
10944TIP3   OH232708   0.603   7.046   3.988
10944TIP3    H132709   0.530   7.049   3.922
10944TIP3    H232710   0.577   7.122   4.044
10945TIP3   OH232711   0.483   6.719   3.938
10945TIP3    H132712   0.431   6.759   3.867
10945TIP3    H232713   0.452   6.626   3.933
10946TIP3   OH232714   0.488   6.993   4.488
10946TIP3    H132715   0.490   6.896   4.478
10946TIP3    H232716   0.472   7.004   4.584
10947TIP3   OH232717   0.416   6.455   3.933
10947TIP3    H132718   0.494   6.425   3.984
10947TIP3    H232719   0.347   6.392   3.957
10948TIP3   OH232720   0.489   6.720   4.396
10948TIP3    H132721   0.525   6.629   4.409
10948TIP3    H232722   0.538   6.747   4.317
10949TIP3   OH232723   0.639   6.890   4.871
10949TIP3    H132724   0.727   6.920   4.837
10949TIP3    H232725   0.651   6.900   4.966
10950TIP3   OH232726   0.729   7.099   5.105
10950TIP3    H132727   0.657   7.076   5.168
10950TIP3    H232728   0.676   7.114   5.025
10951TIP3   OH232729   1.159   6.618   5.671
10951TIP3    H132730   1.217   6.552   5.626
10951TIP3    H232731   1.130   6.674   5.596
10952TIP3   OH232732   0.586   6.462   4.421
10952TIP3    H132733   0.631   6.444   4.505
10952TIP3    H232734   0.523   6.387   4.417
10953TIP3   OH232735   1.036   6.759   5.478
10953TIP3    H132736   0.948   6.799   5.488
10953TIP3    H232737   1.013   6.688   5.415
10954TIP3   OH232738   0.665   6.398   4.053
10954TIP3    H132739   0.705   6.325   4.001
10954TIP3    H232740   0.733   6.468   4.045
10955TIP3   OH232741   0.928   6.521   5.350
10955TIP3    H132742   0.836   6.514   5.319
10955TIP3    H232743   0.959   6.428   5.339
10956TIP3   OH232744   0.180   6.413   4.992
10956TIP3    H132745   0.161   6.331   5.039
10956TIP3    H232746   0.252   6.383   4.933
10957TIP3   OH232747   0.659   6.325   4.879
10957TIP3    H132748   0.694   6.373   4.801
10957TIP3    H232749   0.562   6.336   4.867
10958TIP3   OH232750   0.751   6.420   4.639
10958TIP3    H132751   0.823   6.369   4.598
10958TIP3    H232752   0.783   6.512   4.623
10959TIP3   OH232753   0.385   6.319   4.840
10959TIP3    H132754   0.383   6.283   4.750
10959TIP3    H232755   0.369   6.237   4.894
10960TIP3   OH232756   0.403   6.250   4.410
10960TIP3    H132757   0.319   6.298   4.426
10960TIP3    H232758   0.385   6.165   4.455
10961TIP3   OH232759   0.379   7.899   4.071
10961TIP3    H132760   0.375   7.801   4.084
10961TIP3    H232761   0.322   7.906   3.994
10962TIP3   OH232762   0.663   6.486   5.786
10962TIP3    H132763   0.683   6.452   5.877
10962TIP3    H232764   0.751   6.479   5.743
10963TIP3   OH232765   0.606   8.033   5.210
10963TIP3    H132766   0.525   7.999   5.249
10963TIP3    H232767   0.616   8.113   5.263
10964TIP3   OH232768   1.867   7.410   4.043
10964TIP3    H132769   1.840   7.503   4.024
10964TIP3    H232770   1.789   7.363   4.010
10965TIP3   OH232771   1.865   7.411   4.421
10965TIP3    H132772   1.896   7.383   4.510
10965TIP3    H232773   1.824   7.329   4.388
10966TIP3   OH232774   1.169   7.328   4.816
10966TIP3    H132775   1.200   7.247   4.862
10966TIP3    H232776   1.247   7.352   4.763
10967TIP3   OH232777   2.108   7.713   4.105
10967TIP3    H132778   2.096   7.645   4.173
10967TIP3    H232779   2.138   7.789   4.157
10968TIP3   OH232780   1.137   7.714   4.517
10968TIP3    H132781   1.131   7.616   4.519
10968TIP3    H232782   1.234   7.725   4.509
10969TIP3   OH232783   0.844   6.923   4.301
10969TIP3    H132784   0.792   7.004   4.313
10969TIP3    H232785   0.775   6.864   4.264
10970TIP3   OH232786   0.905   7.210   4.474
10970TIP3    H132787   0.952   7.130   4.507
10970TIP3    H232788   0.955   7.232   4.395
10971TIP3   OH232789   1.756   8.175   4.120
10971TIP3    H132790   1.804   8.104   4.073
10971TIP3    H232791   1.752   8.142   4.210
10972TIP3   OH232792   1.665   7.636   4.473
10972TIP3    H132793   1.704   7.561   4.425
10972TIP3    H232794   1.748   7.682   4.498
10973TIP3   OH232795   2.673   6.961   4.470
10973TIP3    H132796   2.707   7.036   4.524
10973TIP3    H232797   2.670   7.002   4.383
10974TIP3   OH232798   2.077   7.139   4.505
10974TIP3    H132799   2.120   7.053   4.524
10974TIP3    H232800   2.046   7.124   4.414
10975TIP3   OH232801   1.414   6.798   4.470
10975TIP3    H132802   1.393   6.870   4.407
10975TIP3    H232803   1.367   6.724   4.426
10976TIP3   OH232804   2.108   6.890   4.092
10976TIP3    H132805   2.180   6.873   4.157
10976TIP3    H232806   2.160   6.925   4.018
10977TIP3   OH232807   1.049   7.000   4.578
10977TIP3    H132808   1.132   6.976   4.623
10977TIP3    H232809   1.058   6.945   4.497
10978TIP3   OH232810   1.487   7.197   4.375
10978TIP3    H132811   1.582   7.173   4.384
10978TIP3    H232812   1.449   7.114   4.339
10979TIP3   OH232813   2.747   7.162   4.642
10979TIP3    H132814   2.664   7.212   4.626
10979TIP3    H232815   2.773   7.196   4.729
10980TIP3   OH232816   1.412   6.782   4.903
10980TIP3    H132817   1.351   6.817   4.836
10980TIP3    H232818   1.361   6.798   4.985
10981TIP3   OH232819   1.759   7.632   3.913
10981TIP3    H132820   1.716   7.613   3.828
10981TIP3    H232821   1.717   7.717   3.937
10982TIP3   OH232822   1.517   7.555   4.699
10982TIP3    H132823   1.456   7.624   4.736
10982TIP3    H232824   1.562   7.605   4.628
10983TIP3   OH232825   2.320   6.892   4.262
10983TIP3    H132826   2.313   6.837   4.342
10983TIP3    H232827   2.371   6.969   4.294
10984TIP3   OH232828   1.282   6.896   4.688
10984TIP3    H132829   1.346   6.967   4.711
10984TIP3    H232830   1.330   6.854   4.612
10985TIP3   OH232831   1.345   7.750   4.795
10985TIP3    H132832   1.322   7.836   4.756
10985TIP3    H232833   1.265   7.736   4.851
10986TIP3   OH232834   0.745   7.442   4.033
10986TIP3    H132835   0.699   7.467   3.952
10986TIP3    H232836   0.772   7.528   4.070
10987TIP3   OH232837   2.179   7.954   4.271
10987TIP3    H132838   2.089   7.947   4.311
10987TIP3    H232839   2.173   8.042   4.227
10988TIP3   OH232840   2.468   6.858   4.635
10988TIP3    H132841   2.381   6.887   4.603
10988TIP3    H232842   2.528   6.889   4.564
10989TIP3   OH232843   1.769   6.501   4.617
10989TIP3    H132844   1.756   6.405   4.635
10989TIP3    H232845   1.690   6.537   4.664
10990TIP3   OH232846   1.883   8.002   3.947
10990TIP3    H132847   1.933   7.921   3.926
10990TIP3    H232848   1.943   8.069   3.906
10991TIP3   OH232849   2.025   7.787   3.852
10991TIP3    H132850   1.987   7.708   3.813
10991TIP3    H232851   2.061   7.753   3.937
10992TIP3   OH232852   2.404   7.869   4.617
10992TIP3    H132853   2.396   7.793   4.556
10992TIP3    H232854   2.389   7.945   4.557
10993TIP3   OH232855   1.697   7.262   3.872
10993TIP3    H132856   1.617   7.315   3.851
10993TIP3    H232857   1.744   7.262   3.787
10994TIP3   OH232858   1.657   7.048   3.587
10994TIP3    H132859   1.722   7.098   3.639
10994TIP3    H232860   1.716   6.983   3.543
10995TIP3   OH232861   2.599   7.499   4.455
10995TIP3    H132862   2.519   7.555   4.464
10995TIP3    H232863   2.632   7.530   4.368
10996TIP3   OH232864   2.044   7.344   3.846
10996TIP3    H132865   1.990   7.370   3.924
10996TIP3    H232866   2.128   7.320   3.890
10997TIP3   OH232867   2.280   7.385   4.756
10997TIP3    H132868   2.279   7.468   4.807
10997TIP3    H232869   2.193   7.392   4.710
10998TIP3   OH232870   1.276   7.344   4.262
10998TIP3    H132871   1.234   7.287   4.194
10998TIP3    H232872   1.353   7.291   4.291
10999TIP3   OH232873   1.404   7.750   4.413
10999TIP3    H132874   1.387   7.712   4.325
10999TIP3    H232875   1.495   7.720   4.431
11000TIP3   OH232876   1.401   7.317   4.620
11000TIP3    H132877   1.439   7.291   4.533
11000TIP3    H232878   1.451   7.400   4.639
11001TIP3   OH232879   1.938   7.952   4.392
11001TIP3    H132880   1.925   8.033   4.444
11001TIP3    H232881   1.924   7.881   4.458
11002TIP3   OH232882   1.552   7.869   4.941
11002TIP3    H132883   1.494   7.933   4.987
11002TIP3    H232884   1.486   7.818   4.891
11003TIP3   OH232885   1.887   7.203   3.670
11003TIP3    H132886   1.945   7.263   3.723
11003TIP3    H232887   1.913   7.228   3.578
11004TIP3   OH232888   1.316   7.427   5.054
11004TIP3    H132889   1.312   7.513   5.101
11004TIP3    H232890   1.241   7.435   4.993
11005TIP3   OH232891   1.628   7.884   3.947
11005TIP3    H132892   1.707   7.938   3.965
11005TIP3    H232893   1.567   7.948   3.908
11006TIP3   OH232894   1.348   8.038   5.024
11006TIP3    H132895   1.310   8.042   4.935
11006TIP3    H232896   1.269   8.017   5.080
11007TIP3   OH232897   2.402   6.446   3.719
11007TIP3    H132898   2.320   6.464   3.770
11007TIP3    H232899   2.412   6.529   3.669
11008TIP3   OH232900   1.143   7.187   4.068
11008TIP3    H132901   1.078   7.232   4.010
11008TIP3    H232902   1.102   7.100   4.079
11009TIP3   OH232903   2.200   7.812   3.267
11009TIP3    H132904   2.208   7.909   3.253
11009TIP3    H232905   2.293   7.783   3.255
11010TIP3   OH232906   0.926   7.528   4.974
11010TIP3    H132907   0.846   7.548   4.920
11010TIP3    H232908   0.977   7.477   4.909
11011TIP3   OH232909   0.787   7.763   4.619
11011TIP3    H132910   0.874   7.744   4.584
11011TIP3    H232911   0.806   7.841   4.674
11012TIP3   OH232912   2.644   8.212   4.663
11012TIP3    H132913   2.642   8.116   4.678
11012TIP3    H232914   2.561   8.240   4.708
11013TIP3   OH232915   1.750   8.000   4.796
11013TIP3    H132916   1.750   8.093   4.829
11013TIP3    H232917   1.680   7.961   4.853
11014TIP3   OH232918   1.509   8.129   3.749
11014TIP3    H132919   1.463   8.112   3.664
11014TIP3    H232920   1.477   8.218   3.773
11015TIP3   OH232921   0.947   7.979   4.130
11015TIP3    H132922   1.000   7.967   4.212
11015TIP3    H232923   0.889   7.901   4.134
11016TIP3   OH232924   1.711   8.030   3.389
11016TIP3    H132925   1.771   7.961   3.353
11016TIP3    H232926   1.745   8.040   3.480
11017TIP3   OH232927   1.761   8.078   3.659
11017TIP3    H132928   1.673   8.088   3.701
11017TIP3    H232929   1.813   8.040   3.731
11018TIP3   OH232930   2.534   7.343   4.941
11018TIP3    H132931   2.456   7.360   4.886
11018TIP3    H232932   2.549   7.247   4.924
11019TIP3   OH232933   1.128   7.741   4.963
11019TIP3    H132934   1.181   7.742   5.045
11019TIP3    H232935   1.052   7.687   4.988
11020TIP3   OH232936   1.529   6.577   4.744
11020TIP3    H132937   1.440   6.545   4.719
11020TIP3    H232938   1.504   6.659   4.791
11021TIP3   OH232939   2.062   6.694   4.943
11021TIP3    H132940   2.127   6.660   5.006
11021TIP3    H232941   1.976   6.671   4.985
11022TIP3   OH232942   2.298   7.121   4.855
11022TIP3    H132943   2.246   7.122   4.938
11022TIP3    H232944   2.280   7.210   4.819
11023TIP3   OH232945   1.959   7.250   3.413
11023TIP3    H132946   1.930   7.224   3.323
11023TIP3    H232947   2.040   7.300   3.391
11024TIP3   OH232948   1.674   6.628   3.716
11024TIP3    H132949   1.642   6.625   3.808
11024TIP3    H232950   1.637   6.543   3.684
11025TIP3   OH232951   1.461   7.092   4.764
11025TIP3    H132952   1.416   7.114   4.848
11025TIP3    H232953   1.445   7.173   4.711
11026TIP3   OH232954   1.344   6.979   4.279
11026TIP3    H132955   1.251   6.952   4.296
11026TIP3    H232956   1.358   6.938   4.190
11027TIP3   OH232957   1.836   7.064   4.006
11027TIP3    H132958   1.782   7.136   3.965
11027TIP3    H232959   1.890   7.035   3.931
11028TIP3   OH232960   2.009   7.341   5.090
11028TIP3    H132961   1.988   7.273   5.158
11028TIP3    H232962   2.101   7.362   5.112
11029TIP3   OH232963   1.992   7.094   4.246
11029TIP3    H132964   1.933   7.124   4.175
11029TIP3    H232965   2.025   7.011   4.204
11030TIP3   OH232966   1.278   7.123   4.976
11030TIP3    H132967   1.320   7.179   5.043
11030TIP3    H232968   1.267   7.038   5.024
11031TIP3   OH232969   1.329   6.598   3.682
11031TIP3    H132970   1.323   6.594   3.780
11031TIP3    H232971   1.249   6.651   3.661
11032TIP3   OH232972   0.873   6.646   4.556
11032TIP3    H132973   0.953   6.673   4.605
11032TIP3    H232974   0.908   6.610   4.472
11033TIP3   OH232975   0.849   6.625   4.073
11033TIP3    H132976   0.893   6.664   3.995
11033TIP3    H232977   0.786   6.697   4.094
11034TIP3   OH232978   2.001   7.339   4.669
11034TIP3    H132979   2.035   7.267   4.610
11034TIP3    H232980   1.972   7.286   4.746
11035TIP3   OH232981   1.671   6.803   4.341
11035TIP3    H132982   1.589   6.799   4.393
11035TIP3    H232983   1.739   6.799   4.410
11036TIP3   OH232984   1.106   6.856   4.350
11036TIP3    H132985   1.011   6.863   4.322
11036TIP3    H232986   1.129   6.764   4.326
11037TIP3   OH232987   1.377   6.854   4.037
11037TIP3    H132988   1.471   6.868   4.015
11037TIP3    H232989   1.329   6.875   3.954
11038TIP3   OH232990   2.163   6.877   4.543
11038TIP3    H132991   2.126   6.888   4.633
11038TIP3    H232992   2.100   6.813   4.505
11039TIP3   OH232993   1.216   6.886   3.817
11039TIP3    H132994   1.142   6.843   3.771
11039TIP3    H232995   1.267   6.920   3.741
11040TIP3   OH232996   2.333   8.565   4.760
11040TIP3    H132997   2.333   8.588   4.666
11040TIP3    H232998   2.414   8.611   4.791
11041TIP3   OH232999   1.291   7.674   5.185
11041TIP3    H133000   1.372   7.706   5.229
11041TIP3    H233001   1.228   7.681   5.260
11042TIP3   OH233002   1.755   7.128   4.437
11042TIP3    H133003   1.827   7.089   4.386
11042TIP3    H233004   1.766   7.085   4.524
11043TIP3   OH233005   1.280   6.616   4.316
11043TIP3    H133006   1.245   6.537   4.362
11043TIP3    H233007   1.331   6.577   4.243
11044TIP3   OH233008   1.732   7.023   4.729
11044TIP3    H133009   1.643   7.060   4.741
11044TIP3    H233010   1.789   7.084   4.779
11045TIP3   OH233011   1.469   7.416   3.823
11045TIP3    H133012   1.396   7.351   3.812
11045TIP3    H233013   1.451   7.450   3.914
11046TIP3   OH233014   2.371   7.651   4.452
11046TIP3    H133015   2.395   7.701   4.371
11046TIP3    H233016   2.284   7.612   4.427
11047TIP3   OH233017   1.926   6.731   3.676
11047TIP3    H133018   1.830   6.712   3.691
11047TIP3    H233019   1.937   6.823   3.707
11048TIP3   OH233020   1.863   7.731   4.822
11048TIP3    H133021   1.894   7.717   4.912
11048TIP3    H233022   1.830   7.823   4.824
11049TIP3   OH233023   1.997   6.974   3.786
11049TIP3    H133024   2.093   6.981   3.803
11049TIP3    H233025   1.978   7.055   3.735
11050TIP3   OH233026   1.161   7.435   4.499
11050TIP3    H133027   1.193   7.416   4.408
11050TIP3    H233028   1.214   7.372   4.550
11051TIP3   OH233029   1.613   7.565   3.642
11051TIP3    H133030   1.566   7.652   3.648
11051TIP3    H233031   1.559   7.511   3.703
11052TIP3   OH233032   1.767   7.470   5.131
11052TIP3    H133033   1.710   7.414   5.077
11052TIP3    H233034   1.856   7.441   5.102
11053TIP3   OH233035   2.028   7.987   4.718
11053TIP3    H133036   1.931   7.993   4.729
11053TIP3    H233037   2.058   8.042   4.793
11054TIP3   OH233038   2.443   7.066   3.624
11054TIP3    H133039   2.379   7.021   3.564
11054TIP3    H233040   2.437   7.155   3.584
11055TIP3   OH233041   2.655   7.919   4.707
11055TIP3    H133042   2.557   7.917   4.698
11055TIP3    H233043   2.682   7.892   4.617
11056TIP3   OH233044   2.136   7.885   3.531
11056TIP3    H133045   2.115   7.814   3.593
11056TIP3    H233046   2.151   7.838   3.447
11057TIP3   OH233047   2.134   7.514   4.372
11057TIP3    H133048   2.040   7.489   4.384
11057TIP3    H233049   2.168   7.435   4.326
11058TIP3   OH233050   1.261   7.741   4.123
11058TIP3    H133051   1.264   7.823   4.070
11058TIP3    H233052   1.166   7.728   4.132
11059TIP3   OH233053   0.826   7.046   3.827
11059TIP3    H133054   0.870   7.131   3.847
11059TIP3    H233055   0.747   7.051   3.886
11060TIP3   OH233056   1.401   7.507   4.068
11060TIP3    H133057   1.366   7.597   4.085
11060TIP3    H233058   1.364   7.458   4.143
11061TIP3   OH233059   1.530   8.084   4.593
11061TIP3    H133060   1.570   8.159   4.543
11061TIP3    H233061   1.608   8.052   4.643
11062TIP3   OH233062   1.182   7.980   3.976
11062TIP3    H133063   1.096   7.990   4.020
11062TIP3    H233064   1.215   8.073   3.979
11063TIP3   OH233065   1.918   7.718   4.552
11063TIP3    H133066   1.910   7.717   4.650
11063TIP3    H233067   2.001   7.670   4.539
11064TIP3   OH233068   1.892   7.609   3.434
11064TIP3    H133069   1.946   7.586   3.513
11064TIP3    H233070   1.803   7.587   3.465
11065TIP3   OH233071   2.167   8.253   4.600
11065TIP3    H133072   2.087   8.199   4.590
11065TIP3    H233073   2.154   8.320   4.529
11066TIP3   OH233074   2.233   8.088   3.254
11066TIP3    H133075   2.274   8.160   3.204
11066TIP3    H233076   2.153   8.134   3.286
11067TIP3   OH233077   1.254   6.865   5.119
11067TIP3    H133078   1.159   6.872   5.135
11067TIP3    H233079   1.282   6.805   5.190
11068TIP3   OH233080   2.053   7.545   3.651
11068TIP3    H133081   2.044   7.479   3.722
11068TIP3    H233082   2.150   7.544   3.638
11069TIP3   OH233083   0.964   7.946   4.756
11069TIP3    H133084   1.030   7.882   4.786
11069TIP3    H233085   0.990   8.025   4.805
11070TIP3   OH233086   1.261   7.593   3.433
11070TIP3    H133087   1.274   7.501   3.404
11070TIP3    H233088   1.241   7.581   3.528
11071TIP3   OH233089   1.206   7.598   3.705
11071TIP3    H133090   1.277   7.572   3.766
11071TIP3    H233091   1.209   7.696   3.711
11072TIP3   OH233092   0.943   7.292   3.908
11072TIP3    H133093   0.876   7.337   3.965
11072TIP3    H233094   0.956   7.362   3.841
11073TIP3   OH233095   2.085   6.931   4.802
11073TIP3    H133096   2.169   6.966   4.835
11073TIP3    H233097   2.074   6.850   4.856
11074TIP3   OH233098   1.968   6.682   3.964
11074TIP3    H133099   1.956   6.706   3.871
11074TIP3    H233100   2.008   6.763   4.002
11075TIP3   OH233101   1.470   7.795   3.654
11075TIP3    H133102   1.384   7.823   3.690
11075TIP3    H233103   1.488   7.869   3.593
11076TIP3   OH233104   1.660   6.859   4.068
11076TIP3    H133105   1.725   6.930   4.051
11076TIP3    H233106   1.664   6.852   4.166
11077TIP3   OH233107   1.925   7.177   4.875
11077TIP3    H133108   1.950   7.232   4.953
11077TIP3    H233109   1.983   7.099   4.884
11078TIP3   OH233110   1.804   6.588   4.171
11078TIP3    H133111   1.797   6.665   4.231
11078TIP3    H233112   1.864   6.624   4.102
11079TIP3   OH233113   1.213   7.870   3.721
11079TIP3    H133114   1.183   7.940   3.658
11079TIP3    H233115   1.198   7.915   3.808
11080TIP3   OH233116   1.315   6.584   3.959
11080TIP3    H133117   1.313   6.674   3.996
11080TIP3    H233118   1.411   6.565   3.968
11081TIP3   OH233119   2.566   7.079   4.858
11081TIP3    H133120   2.468   7.076   4.857
11081TIP3    H233121   2.586   7.038   4.773
11082TIP3   OH233122   2.220   7.271   4.245
11082TIP3    H133123   2.143   7.213   4.257
11082TIP3    H233124   2.291   7.224   4.294
11083TIP3   OH233125   0.931   7.502   3.715
11083TIP3    H133126   0.995   7.575   3.723
11083TIP3    H233127   0.978   7.449   3.647
11084TIP3   OH233128   0.878   6.776   3.845
11084TIP3    H133129   0.874   6.874   3.843
11084TIP3    H233130   0.791   6.752   3.810
11085TIP3   OH233131   2.188   8.226   4.194
11085TIP3    H133132   2.146   8.273   4.119
11085TIP3    H233133   2.282   8.246   4.175
11086TIP3   OH233134   1.262   6.498   4.722
11086TIP3    H133135   1.233   6.463   4.635
11086TIP3    H233136   1.254   6.419   4.780
11087TIP3   OH233137   0.804   7.719   4.107
11087TIP3    H133138   0.725   7.748   4.154
11087TIP3    H233139   0.785   7.755   4.018
11088TIP3   OH233140   0.958   8.252   5.178
11088TIP3    H133141   1.045   8.260   5.224
11088TIP3    H233142   0.948   8.156   5.173
11089TIP3   OH233143   1.440   8.222   5.220
11089TIP3    H133144   1.535   8.210   5.229
11089TIP3    H233145   1.420   8.164   5.144
11090TIP3   OH233146   1.423   7.798   3.346
11090TIP3    H133147   1.367   7.726   3.384
11090TIP3    H233148   1.498   7.745   3.313
11091TIP3   OH233149   2.082   8.126   4.950
11091TIP3    H133150   2.073   8.058   5.020
11091TIP3    H233151   2.159   8.178   4.981
11092TIP3   OH233152   1.859   7.838   3.257
11092TIP3    H133153   1.907   7.777   3.315
11092TIP3    H233154   1.915   7.839   3.176
11093TIP3   OH233155   1.096   7.664   5.382
11093TIP3    H133156   1.115   7.569   5.388
11093TIP3    H233157   1.010   7.662   5.334
11094TIP3   OH233158   1.067   7.315   3.566
11094TIP3    H133159   1.121   7.282   3.639
11094TIP3    H233160   1.135   7.320   3.495
11095TIP3   OH233161   1.699   7.747   5.147
11095TIP3    H133162   1.659   7.766   5.060
11095TIP3    H233163   1.730   7.654   5.138
11096TIP3   OH233164   1.576   7.511   3.373
11096TIP3    H133165   1.578   7.525   3.469
11096TIP3    H233166   1.572   7.413   3.369
11097TIP3   OH233167   2.189   7.755   4.752
11097TIP3    H133168   2.266   7.799   4.709
11097TIP3    H233169   2.121   7.824   4.740
11098TIP3   OH233170   1.177   7.393   5.364
11098TIP3    H133171   1.247   7.338   5.327
11098TIP3    H233172   1.218   7.423   5.448
11099TIP3   OH233173   1.277   7.217   3.790
11099TIP3    H133174   1.248   7.175   3.873
11099TIP3    H233175   1.312   7.140   3.740
11100TIP3   OH233176   1.543   7.273   5.013
11100TIP3    H133177   1.471   7.339   5.025
11100TIP3    H233178   1.594   7.312   4.938
11101TIP3   OH233179   1.376   7.009   3.630
11101TIP3    H133180   1.349   7.015   3.536
11101TIP3    H233181   1.473   7.017   3.622
11102TIP3   OH233182   2.057   7.680   5.150
11102TIP3    H133183   2.143   7.669   5.107
11102TIP3    H233184   2.062   7.618   5.224
11103TIP3   OH233185   2.198   7.342   3.292
11103TIP3    H133186   2.178   7.296   3.208
11103TIP3    H233187   2.167   7.432   3.269
11104TIP3   OH233188   1.674   7.069   5.142
11104TIP3    H133189   1.670   6.988   5.087
11104TIP3    H233190   1.628   7.135   5.084
11105TIP3   OH233191   1.670   6.857   4.952
11105TIP3    H133192   1.698   6.896   4.867
11105TIP3    H233193   1.577   6.832   4.933
11106TIP3   OH233194   1.697   7.392   4.825
11106TIP3    H133195   1.781   7.400   4.778
11106TIP3    H233196   1.643   7.461   4.781
11107TIP3   OH233197   2.282   7.364   5.205
11107TIP3    H133198   2.346   7.293   5.223
11107TIP3    H233199   2.339   7.432   5.167
11108TIP3   OH233200   2.321   7.609   4.938
11108TIP3    H133201   2.263   7.664   4.880
11108TIP3    H233202   2.408   7.631   4.899
11109TIP3   OH233203   1.550   7.179   5.373
11109TIP3    H133204   1.476   7.116   5.387
11109TIP3    H233205   1.580   7.155   5.284
11110TIP3   OH233206   1.803   6.621   5.017
11110TIP3    H133207   1.752   6.702   4.995
11110TIP3    H233208   1.734   6.551   5.005
11111TIP3   OH233209   1.929   7.123   5.237
11111TIP3    H133210   1.900   7.115   5.330
11111TIP3    H233211   1.843   7.100   5.194
11112TIP3   OH233212   2.157   7.075   5.086
11112TIP3    H133213   2.073   7.082   5.136
11112TIP3    H233214   2.220   7.057   5.157
11113TIP3   OH233215   1.382   6.964   5.425
11113TIP3    H133216   1.386   6.872   5.392
11113TIP3    H233217   1.418   6.953   5.516
11114TIP3   OH233218   1.900   6.629   5.272
11114TIP3    H133219   1.965   6.556   5.266
11114TIP3    H233220   1.858   6.623   5.184
11115TIP3   OH233221   1.962   6.842   5.424
11115TIP3    H133222   1.940   6.769   5.362
11115TIP3    H233223   1.882   6.897   5.419
11116TIP3   OH233224   1.182   8.071   3.533
11116TIP3    H133225   1.278   8.070   3.514
11116TIP3    H233226   1.152   8.122   3.455
11117TIP3   OH233227   0.663   7.455   3.751
11117TIP3    H133228   0.757   7.477   3.738
11117TIP3    H233229   0.659   7.366   3.710
11118TIP3   OH233230   0.585   8.064   4.153
11118TIP3    H133231   0.513   8.007   4.119
11118TIP3    H233232   0.621   8.008   4.225
11119TIP3   OH233233   0.703   7.915   4.349
11119TIP3    H133234   0.697   7.838   4.407
11119TIP3    H233235   0.769   7.970   4.398
11120TIP3   OH233236   2.439   8.321   4.150
11120TIP3    H133237   2.467   8.354   4.237
11120TIP3    H233238   2.502   8.364   4.091
11121TIP3   OH233239   2.469   8.341   4.433
11121TIP3    H133240   2.429   8.251   4.429
11121TIP3    H233241   2.547   8.323   4.487
11122TIP3   OH233242   2.516   8.015   5.005
11122TIP3    H133243   2.443   8.025   5.070
11122TIP3    H233244   2.558   8.104   5.009
11123TIP3   OH233245   2.332   7.530   3.626
11123TIP3    H133246   2.400   7.594   3.597
11123TIP3    H233247   2.376   7.490   3.704
11124TIP3   OH233248   2.461   7.392   3.826
11124TIP3    H133249   2.395   7.353   3.886
11124TIP3    H233250   2.524   7.435   3.887
11125TIP3   OH233251   2.512   7.787   4.260
11125TIP3    H133252   2.566   7.726   4.208
11125TIP3    H233253   2.506   7.865   4.202
11126TIP3   OH233254   2.346   8.087   4.457
11126TIP3    H133255   2.276   8.132   4.508
11126TIP3    H233256   2.295   8.041   4.388
11127TIP3   OH233257   2.398   7.304   3.477
11127TIP3    H133258   2.327   7.307   3.409
11127TIP3    H233259   2.372   7.380   3.531
11128TIP3   OH233260   2.269   6.976   3.434
11128TIP3    H133261   2.230   7.018   3.357
11128TIP3    H233262   2.243   6.882   3.420
11129TIP3   OH233263   2.274   7.253   3.976
11129TIP3    H133264   2.281   7.156   3.971
11129TIP3    H233265   2.261   7.267   4.072
11130TIP3   OH233266   0.907   7.344   4.716
11130TIP3    H133267   0.901   7.306   4.625
11130TIP3    H233268   1.003   7.339   4.732
11131TIP3   OH233269   2.562   7.677   4.831
11131TIP3    H133270   2.636   7.613   4.823
11131TIP3    H233271   2.591   7.749   4.773
11132TIP3   OH233272   2.747   7.482   4.850
11132TIP3    H133273   2.675   7.431   4.893
11132TIP3    H233274   2.822   7.421   4.863
11133TIP3   OH233275   2.215   6.708   3.414
11133TIP3    H133276   2.291   6.681   3.470
11133TIP3    H233277   2.143   6.652   3.445
11134TIP3   OH233278   2.270   6.968   3.872
11134TIP3    H133279   2.311   6.879   3.886
11134TIP3    H233280   2.329   7.002   3.801
11135TIP3   OH233281   2.432   7.142   4.368
11135TIP3    H133282   2.516   7.172   4.328
11135TIP3    H233283   2.443   7.179   4.457
11136TIP3   OH233284   2.498   7.287   4.599
11136TIP3    H133285   2.421   7.323   4.646
11136TIP3    H233286   2.532   7.367   4.553
11137TIP3   OH233287   1.111   7.012   5.385
11137TIP3    H133288   1.209   7.012   5.392
11137TIP3    H233289   1.091   6.932   5.437
11138TIP3   OH233290   2.950   6.875   5.155
11138TIP3    H133291   3.010   6.809   5.114
11138TIP3    H233292   2.926   6.931   5.079
11139TIP3   OH233293   2.379   6.718   3.908
11139TIP3    H133294   2.426   6.700   3.992
11139TIP3    H233295   2.318   6.641   3.906
11140TIP3   OH233296   1.079   6.707   4.734
11140TIP3    H133297   1.139   6.630   4.740
11140TIP3    H233298   1.144   6.779   4.723
11141TIP3   OH233299   0.883   6.996   4.805
11141TIP3    H133300   0.928   6.963   4.725
11141TIP3    H233301   0.912   7.087   4.805
11142TIP3   OH233302   2.825   7.019   4.959
11142TIP3    H133303   2.736   7.054   4.981
11142TIP3    H233304   2.800   6.945   4.901
11143TIP3   OH233305   2.462   6.655   3.540
11143TIP3    H133306   2.500   6.581   3.489
11143TIP3    H233307   2.531   6.724   3.530
11144TIP3   OH233308   0.865   6.489   4.307
11144TIP3    H133309   0.771   6.481   4.328
11144TIP3    H233310   0.863   6.543   4.225
11145TIP3   OH233311   2.024   8.185   3.807
11145TIP3    H133312   2.076   8.172   3.726
11145TIP3    H233313   2.077   8.251   3.854
11146TIP3   OH233314   1.086   6.567   5.118
11146TIP3    H133315   1.035   6.555   5.200
11146TIP3    H233316   1.017   6.600   5.058
11147TIP3   OH233317   1.133   7.978   5.192
11147TIP3    H133318   1.038   7.959   5.180
11147TIP3    H233319   1.142   7.978   5.288
11148TIP3   OH233320   1.301   8.019   4.738
11148TIP3    H133321   1.256   8.098   4.701
11148TIP3    H233322   1.389   8.033   4.696
11149TIP3   OH233323   1.750   8.266   4.877
11149TIP3    H133324   1.790   8.268   4.966
11149TIP3    H233325   1.816   8.318   4.826
11150TIP3   OH233326   1.929   8.418   4.737
11150TIP3    H133327   2.002   8.368   4.697
11150TIP3    H233328   1.979   8.476   4.798
11151TIP3   OH233329   2.724   6.780   4.834
11151TIP3    H133330   2.632   6.770   4.804
11151TIP3    H233331   2.757   6.687   4.825
11152TIP3   OH233332   0.985   8.272   4.773
11152TIP3    H133333   0.899   8.290   4.732
11152TIP3    H233334   0.983   8.334   4.848
11153TIP3   OH233335   1.218   8.254   4.621
11153TIP3    H133336   1.134   8.270   4.670
11153TIP3    H233337   1.197   8.292   4.533
11154TIP3   OH233338   1.642   8.287   4.420
11154TIP3    H133339   1.574   8.308   4.354
11154TIP3    H233340   1.655   8.374   4.463
11155TIP3   OH233341   1.911   8.224   4.470
11155TIP3    H133342   1.817   8.243   4.451
11155TIP3    H233343   1.955   8.302   4.430
11156TIP3   OH233344   2.118   8.418   4.387
11156TIP3    H133345   2.104   8.503   4.340
11156TIP3    H233346   2.145   8.359   4.313
11157TIP3   OH233347   0.894   8.049   4.497
11157TIP3    H133348   0.926   8.038   4.589
11157TIP3    H233349   0.971   8.012   4.448
11158TIP3   OH233350   1.096   7.935   4.354
11158TIP3    H133351   1.115   7.854   4.406
11158TIP3    H233352   1.185   7.977   4.351
11159TIP3   OH233353   1.355   8.040   4.368
11159TIP3    H133354   1.390   7.950   4.356
11159TIP3    H233355   1.396   8.064   4.453
11160TIP3   OH233356   1.927   6.695   4.456
11160TIP3    H133357   1.884   6.626   4.509
11160TIP3    H233358   1.999   6.647   4.411
11161TIP3   OH233359   2.450   6.580   4.365
11161TIP3    H133360   2.486   6.628   4.288
11161TIP3    H233361   2.354   6.593   4.355
11162TIP3   OH233362   2.543   6.675   4.126
11162TIP3    H133363   2.617   6.622   4.088
11162TIP3    H233364   2.579   6.766   4.114
11163TIP3   OH233365   1.176   6.405   4.474
11163TIP3    H133366   1.084   6.372   4.474
11163TIP3    H233367   1.225   6.320   4.470
11164TIP3   OH233368   0.964   6.274   4.121
11164TIP3    H133369   0.992   6.331   4.048
11164TIP3    H233370   0.933   6.338   4.188
11165TIP3   OH233371   1.618   6.439   4.352
11165TIP3    H133372   1.679   6.487   4.294
11165TIP3    H233373   1.641   6.474   4.439
11166TIP3   OH233374   2.167   6.583   4.336
11166TIP3    H133375   2.166   6.543   4.248
11166TIP3    H233376   2.155   6.503   4.393
11167TIP3   OH233377   2.196   6.505   3.899
11167TIP3    H133378   2.108   6.545   3.910
11167TIP3    H233379   2.184   6.420   3.946
11168TIP3   OH233380   0.682   7.841   3.901
11168TIP3    H133381   0.595   7.811   3.869
11168TIP3    H233382   0.671   7.937   3.888
11169TIP3   OH233383   1.079   6.435   3.883
11169TIP3    H133384   1.127   6.371   3.828
11169TIP3    H233385   1.152   6.488   3.920
11170TIP3   OH233386   1.593   6.609   3.981
11170TIP3    H133387   1.651   6.560   4.042
11170TIP3    H233388   1.615   6.701   4.008
11171TIP3   OH233389   1.452   8.034   3.483
11171TIP3    H133390   1.540   8.056   3.447
11171TIP3    H233391   1.429   7.959   3.423
11172TIP3   OH233392   2.170   8.151   3.575
11172TIP3    H133393   2.161   8.054   3.562
11172TIP3    H233394   2.126   8.184   3.494
11173TIP3   OH233395   1.385   6.689   5.366
11173TIP3    H133396   1.350   6.617   5.421
11173TIP3    H233397   1.479   6.687   5.393
11174TIP3   OH233398   1.636   6.683   5.484
11174TIP3    H133399   1.716   6.646   5.443
11174TIP3    H233400   1.618   6.615   5.553
11175TIP3   OH233401   0.755   7.870   3.540
11175TIP3    H133402   0.756   7.898   3.632
11175TIP3    H233403   0.844   7.829   3.529
11176TIP3   OH233404   2.397   8.296   4.763
11176TIP3    H133405   2.318   8.266   4.715
11176TIP3    H233406   2.379   8.393   4.766
11177TIP3   OH233407   3.663   7.668   3.531
11177TIP3    H133408   3.634   7.759   3.509
11177TIP3    H233409   3.588   7.618   3.496
11178TIP3   OH233410   3.657   7.670   3.911
11178TIP3    H133411   3.692   7.639   3.996
11178TIP3    H233412   3.626   7.588   3.870
11179TIP3   OH233413   2.963   7.559   4.274
11179TIP3    H133414   2.994   7.497   4.343
11179TIP3    H233415   3.037   7.620   4.271
11180TIP3   OH233416   3.904   7.971   3.591
11180TIP3    H133417   3.892   7.899   3.655
11180TIP3    H233418   3.934   8.044   3.648
11181TIP3   OH233419   2.931   7.970   3.999
11181TIP3    H133420   2.924   7.873   4.004
11181TIP3    H233421   3.028   7.981   3.995
11182TIP3   OH233422   2.654   7.175   3.793
11182TIP3    H133423   2.605   7.259   3.804
11182TIP3    H233424   2.584   7.122   3.751
11183TIP3   OH233425   2.696   7.465   3.952
11183TIP3    H133426   2.746   7.392   3.993
11183TIP3    H233427   2.761   7.505   3.892
11184TIP3   OH233428   3.553   8.433   3.607
11184TIP3    H133429   3.600   8.361   3.560
11184TIP3    H233430   3.548   8.397   3.697
11185TIP3   OH233431   3.461   7.892   3.959
11185TIP3    H133432   3.502   7.815   3.915
11185TIP3    H233433   3.544   7.940   3.982
11186TIP3   OH233434   4.474   7.214   3.956
11186TIP3    H133435   4.503   7.297   3.999
11186TIP3    H233436   4.494   7.232   3.863
11187TIP3   OH233437   3.871   7.395   3.994
11187TIP3    H133438   3.915   7.309   4.011
11187TIP3    H233439   3.840   7.382   3.903
11188TIP3   OH233440   3.905   7.167   3.599
11188TIP3    H133441   3.985   7.140   3.648
11188TIP3    H233442   3.934   7.157   3.507
11189TIP3   OH233443   2.846   7.267   4.068
11189TIP3    H133444   2.934   7.295   4.096
11189TIP3    H233445   2.862   7.201   3.999
11190TIP3   OH233446   3.286   7.449   3.853
11190TIP3    H133447   3.382   7.434   3.868
11190TIP3    H233448   3.257   7.359   3.829
11191TIP3   OH233449   4.548   7.422   4.126
11191TIP3    H133450   4.464   7.469   4.107
11191TIP3    H233451   4.560   7.445   4.219
11192TIP3   OH233452   3.203   7.042   4.384
11192TIP3    H133453   3.155   7.113   4.340
11192TIP3    H233454   3.161   7.043   4.472
11193TIP3   OH233455   3.553   7.889   3.401
11193TIP3    H133456   3.514   7.869   3.315
11193TIP3    H233457   3.511   7.974   3.422
11194TIP3   OH233458   3.311   7.811   4.185
11194TIP3    H133459   3.251   7.878   4.224
11194TIP3    H233460   3.356   7.862   4.115
11195TIP3   OH233461   4.129   7.143   3.749
11195TIP3    H133462   4.114   7.088   3.827
11195TIP3    H233463   4.176   7.220   3.784
11196TIP3   OH233464   3.140   8.006   4.281
11196TIP3    H133465   3.117   8.094   4.244
11196TIP3    H233466   3.062   7.992   4.339
11197TIP3   OH233467   2.537   7.697   3.520
11197TIP3    H133468   2.497   7.724   3.435
11197TIP3    H233469   2.567   7.782   3.557
11198TIP3   OH233470   3.977   8.213   3.761
11198TIP3    H133471   3.887   8.203   3.800
11198TIP3    H233472   3.968   8.299   3.715
11199TIP3   OH233473   4.266   7.116   4.124
11199TIP3    H133474   4.178   7.141   4.091
11199TIP3    H233475   4.325   7.145   4.051
11200TIP3   OH233476   3.558   6.754   4.096
11200TIP3    H133477   3.554   6.660   4.122
11200TIP3    H233478   3.484   6.791   4.148
11201TIP3   OH233479   3.678   8.259   3.434
11201TIP3    H133480   3.728   8.177   3.414
11201TIP3    H233481   3.739   8.325   3.392
11202TIP3   OH233482   3.820   8.045   3.339
11202TIP3    H133483   3.787   7.964   3.297
11202TIP3    H233484   3.856   8.010   3.424
11203TIP3   OH233485   4.202   8.127   4.103
11203TIP3    H133486   4.191   8.049   4.044
11203TIP3    H233487   4.186   8.201   4.041
11204TIP3   OH233488   3.493   7.522   3.358
11204TIP3    H133489   3.415   7.574   3.332
11204TIP3    H233490   3.543   7.516   3.274
11205TIP3   OH233491   3.451   7.304   3.078
11205TIP3    H133492   3.520   7.352   3.127
11205TIP3    H233493   3.507   7.239   3.031
11206TIP3   OH233494   4.398   7.764   3.948
11206TIP3    H133495   4.314   7.815   3.953
11206TIP3    H233496   4.426   7.786   3.857
11207TIP3   OH233497   3.841   7.603   3.332
11207TIP3    H133498   3.787   7.626   3.412
11207TIP3    H233499   3.924   7.574   3.375
11208TIP3   OH233500   4.077   7.642   4.243
11208TIP3    H133501   4.073   7.725   4.294
11208TIP3    H233502   3.991   7.647   4.196
11209TIP3   OH233503   3.073   7.599   3.753
11209TIP3    H133504   3.033   7.544   3.682
11209TIP3    H233505   3.153   7.548   3.777
11210TIP3   OH233506   3.202   8.008   3.899
11210TIP3    H133507   3.185   7.969   3.812
11210TIP3    H233508   3.293   7.978   3.918
11211TIP3   OH233509   3.206   7.569   4.099
11211TIP3    H133510   3.248   7.549   4.013
11211TIP3    H233511   3.252   7.652   4.126
11212TIP3   OH233512   3.734   8.209   3.879
11212TIP3    H133513   3.722   8.289   3.933
11212TIP3    H233514   3.721   8.136   3.943
11213TIP3   OH233515   3.348   8.126   4.427
11213TIP3    H133516   3.290   8.190   4.474
11213TIP3    H233517   3.281   8.074   4.378
11214TIP3   OH233518   3.679   7.463   3.158
11214TIP3    H133519   3.741   7.519   3.210
11214TIP3    H233520   3.707   7.487   3.066
11215TIP3   OH233521   3.099   7.685   4.526
11215TIP3    H133522   3.107   7.771   4.570
11215TIP3    H233523   3.004   7.667   4.539
11216TIP3   OH233524   3.423   8.142   3.434
11216TIP3    H133525   3.503   8.194   3.451
11216TIP3    H233526   3.364   8.207   3.395
11217TIP3   OH233527   3.143   8.294   4.512
11217TIP3    H133528   3.105   8.296   4.422
11217TIP3    H233529   3.064   8.274   4.567
11218TIP3   OH233530   4.196   6.701   3.205
11218TIP3    H133531   4.115   6.721   3.257
11218TIP3    H233532   4.209   6.786   3.158
11219TIP3   OH233533   2.935   7.438   3.561
11219TIP3    H133534   2.879   7.493   3.502
11219TIP3    H233535   2.892   7.353   3.550
11220TIP3   OH233536   3.996   8.069   2.754
11220TIP3    H133537   4.005   8.166   2.740
11220TIP3    H233538   4.089   8.039   2.742
11221TIP3   OH233539   2.719   7.827   4.462
11221TIP3    H133540   2.656   7.803   4.391
11221TIP3    H233541   2.757   7.740   4.487
11222TIP3   OH233542   2.576   8.018   4.097
11222TIP3    H133543   2.672   8.014   4.085
11222TIP3    H233544   2.567   8.099   4.150
11223TIP3   OH233545   4.440   8.470   4.146
11223TIP3    H133546   4.439   8.374   4.161
11223TIP3    H233547   4.357   8.495   4.193
11224TIP3   OH233548   3.546   8.255   4.282
11224TIP3    H133549   3.547   8.348   4.314
11224TIP3    H233550   3.475   8.217   4.339
11225TIP3   OH233551   3.304   8.386   3.236
11225TIP3    H133552   3.260   8.368   3.151
11225TIP3    H233553   3.273   8.475   3.258
11226TIP3   OH233554   2.743   8.236   3.619
11226TIP3    H133555   2.793   8.227   3.703
11226TIP3    H233556   2.684   8.159   3.627
11227TIP3   OH233557   3.508   8.287   2.876
11227TIP3    H133558   3.567   8.217   2.839
11227TIP3    H233559   3.542   8.296   2.967
11228TIP3   OH233560   3.557   8.335   3.147
11228TIP3    H133561   3.469   8.344   3.189
11228TIP3    H233562   3.609   8.294   3.218
11229TIP3   OH233563   4.330   7.602   4.423
11229TIP3    H133564   4.249   7.614   4.371
11229TIP3    H233565   4.346   7.506   4.412
11230TIP3   OH233566   2.926   8.008   4.448
11230TIP3    H133567   2.975   7.996   4.532
11230TIP3    H233568   2.852   7.946   4.460
11231TIP3   OH233569   3.321   6.839   4.233
11231TIP3    H133570   3.231   6.805   4.210
11231TIP3    H233571   3.295   6.917   4.286
11232TIP3   OH233572   3.861   6.949   4.427
11232TIP3    H133573   3.930   6.921   4.490
11232TIP3    H233574   3.777   6.927   4.474
11233TIP3   OH233575   4.099   7.377   4.346
11233TIP3    H133576   4.049   7.373   4.431
11233TIP3    H233577   4.074   7.465   4.310
11234TIP3   OH233578   3.757   7.511   2.902
11234TIP3    H133579   3.725   7.481   2.814
11234TIP3    H233580   3.840   7.556   2.877
11235TIP3   OH233581   3.470   6.883   3.207
11235TIP3    H133582   3.443   6.880   3.300
11235TIP3    H233583   3.436   6.797   3.176
11236TIP3   OH233584   3.236   7.332   4.240
11236TIP3    H133585   3.193   7.357   4.324
11236TIP3    H233586   3.227   7.415   4.189
11237TIP3   OH233587   3.136   7.197   3.790
11237TIP3    H133588   3.050   7.229   3.761
11237TIP3    H233589   3.178   7.183   3.701
11238TIP3   OH233590   3.630   7.323   3.494
11238TIP3    H133591   3.580   7.392   3.447
11238TIP3    H233592   3.689   7.288   3.424
11239TIP3   OH233593   3.806   7.600   4.579
11239TIP3    H133594   3.785   7.526   4.641
11239TIP3    H233595   3.900   7.615   4.601
11240TIP3   OH233596   3.779   7.359   3.737
11240TIP3    H133597   3.722   7.381   3.660
11240TIP3    H233598   3.822   7.279   3.699
11241TIP3   OH233599   3.071   7.375   4.464
11241TIP3    H133600   3.111   7.442   4.522
11241TIP3    H233601   3.067   7.297   4.522
11242TIP3   OH233602   3.122   6.852   3.170
11242TIP3    H133603   3.120   6.851   3.268
11242TIP3    H233604   3.045   6.907   3.149
11243TIP3   OH233605   2.672   6.899   4.043
11243TIP3    H133606   2.761   6.928   4.063
11243TIP3    H233607   2.681   6.859   3.954
11244TIP3   OH233608   2.646   6.882   3.563
11244TIP3    H133609   2.688   6.918   3.482
11244TIP3    H233610   2.582   6.953   3.581
11245TIP3   OH233611   3.797   7.596   4.156
11245TIP3    H133612   3.831   7.524   4.098
11245TIP3    H233613   3.770   7.543   4.234
11246TIP3   OH233614   3.465   7.076   3.829
11246TIP3    H133615   3.412   7.047   3.903
11246TIP3    H233616   3.554   7.049   3.857
11247TIP3   OH233617   2.897   7.073   3.865
11247TIP3    H133618   2.808   7.111   3.844
11247TIP3    H233619   2.906   7.014   3.788
11248TIP3   OH233620   3.172   7.113   3.529
11248TIP3    H133621   3.269   7.119   3.513
11248TIP3    H233622   3.133   7.135   3.442
11249TIP3   OH233623   3.959   7.132   4.031
11249TIP3    H133624   3.919   7.142   4.120
11249TIP3    H233625   3.899   7.067   3.990
11250TIP3   OH233626   3.010   7.143   3.302
11250TIP3    H133627   2.941   7.098   3.249
11250TIP3    H233628   3.065   7.181   3.230
11251TIP3   OH233629   4.129   8.822   4.247
11251TIP3    H133630   4.129   8.844   4.152
11251TIP3    H233631   4.208   8.870   4.279
11252TIP3   OH233632   3.087   7.929   4.670
11252TIP3    H133633   3.168   7.961   4.716
11252TIP3    H233634   3.023   7.934   4.744
11253TIP3   OH233635   3.550   7.386   3.923
11253TIP3    H133636   3.619   7.351   3.863
11253TIP3    H233637   3.571   7.340   4.005
11254TIP3   OH233638   3.094   6.874   3.819
11254TIP3    H133639   3.062   6.784   3.844
11254TIP3    H233640   3.153   6.852   3.744
11255TIP3   OH233641   3.526   7.276   4.225
11255TIP3    H133642   3.440   7.321   4.230
11255TIP3    H233643   3.588   7.338   4.267
11256TIP3   OH233644   3.262   7.675   3.306
11256TIP3    H133645   3.190   7.609   3.297
11256TIP3    H233646   3.246   7.707   3.399
11257TIP3   OH233647   4.165   7.909   3.939
11257TIP3    H133648   4.189   7.958   3.858
11257TIP3    H233649   4.080   7.866   3.915
11258TIP3   OH233650   3.715   7.001   3.142
11258TIP3    H133651   3.630   6.970   3.180
11258TIP3    H233652   3.741   7.071   3.205
11259TIP3   OH233653   3.662   7.989   4.307
11259TIP3    H133654   3.689   7.971   4.398
11259TIP3    H233655   3.625   8.079   4.313
11260TIP3   OH233656   3.794   7.232   3.279
11260TIP3    H133657   3.890   7.235   3.296
11260TIP3    H233658   3.779   7.308   3.221
11261TIP3   OH233659   2.951   7.683   3.987
11261TIP3    H133660   2.993   7.665   3.901
11261TIP3    H233661   3.010   7.636   4.048
11262TIP3   OH233662   3.409   7.822   3.128
11262TIP3    H133663   3.362   7.909   3.135
11262TIP3    H233664   3.356   7.767   3.189
11263TIP3   OH233665   2.836   7.617   4.600
11263TIP3    H133666   2.864   7.606   4.693
11263TIP3    H233667   2.770   7.546   4.590
11264TIP3   OH233668   3.564   7.728   4.618
11264TIP3    H133669   3.509   7.671   4.561
11264TIP3    H233670   3.654   7.697   4.593
11265TIP3   OH233671   3.824   8.250   4.200
11265TIP3    H133672   3.728   8.249   4.214
11265TIP3    H233673   3.853   8.300   4.279
11266TIP3   OH233674   4.236   7.321   3.110
11266TIP3    H133675   4.173   7.276   3.049
11266TIP3    H233676   4.233   7.410   3.069
11267TIP3   OH233677   4.453   8.180   4.191
11267TIP3    H133678   4.355   8.174   4.184
11267TIP3    H233679   4.478   8.149   4.101
11268TIP3   OH233680   3.934   8.141   3.019
11268TIP3    H133681   3.910   8.070   3.080
11268TIP3    H233682   3.947   8.095   2.934
11269TIP3   OH233683   3.931   7.770   3.859
11269TIP3    H133684   3.838   7.746   3.871
11269TIP3    H233685   3.965   7.690   3.814
11270TIP3   OH233686   3.057   7.997   3.610
11270TIP3    H133687   3.062   8.079   3.557
11270TIP3    H233688   2.962   7.985   3.618
11271TIP3   OH233689   2.621   7.303   3.312
11271TIP3    H133690   2.667   7.387   3.331
11271TIP3    H233691   2.544   7.309   3.372
11272TIP3   OH233692   3.194   7.762   3.554
11272TIP3    H133693   3.162   7.853   3.570
11272TIP3    H233694   3.161   7.716   3.633
11273TIP3   OH233695   3.326   8.341   4.079
11273TIP3    H133696   3.367   8.416   4.031
11273TIP3    H233697   3.402   8.308   4.130
11274TIP3   OH233698   2.978   8.237   3.462
11274TIP3    H133699   2.892   8.246   3.508
11274TIP3    H233700   3.010   8.330   3.465
11275TIP3   OH233701   3.715   7.976   4.038
11275TIP3    H133702   3.706   7.974   4.136
11275TIP3    H233703   3.796   7.924   4.025
11276TIP3   OH233704   3.689   7.869   2.921
11276TIP3    H133705   3.743   7.844   3.000
11276TIP3    H233706   3.601   7.842   2.952
11277TIP3   OH233707   3.964   8.510   4.089
11277TIP3    H133708   3.885   8.453   4.082
11277TIP3    H233709   3.947   8.575   4.016
11278TIP3   OH233710   4.029   8.344   2.740
11278TIP3    H133711   4.067   8.416   2.687
11278TIP3    H233712   3.949   8.390   2.773
11279TIP3   OH233713   3.053   7.118   4.610
11279TIP3    H133714   2.958   7.122   4.627
11279TIP3    H233715   3.084   7.060   4.682
11280TIP3   OH233716   3.849   7.805   3.139
11280TIP3    H133717   3.839   7.737   3.209
11280TIP3    H233718   3.946   7.801   3.126
11281TIP3   OH233719   2.764   8.205   4.240
11281TIP3    H133720   2.820   8.133   4.273
11281TIP3    H233721   2.793   8.278   4.296
11282TIP3   OH233722   3.054   7.850   2.920
11282TIP3    H133723   3.072   7.759   2.891
11282TIP3    H233724   3.037   7.837   3.015
11283TIP3   OH233725   3.001   7.854   3.194
11283TIP3    H133726   3.077   7.828   3.249
11283TIP3    H233727   3.005   7.952   3.200
11284TIP3   OH233728   2.738   7.548   3.396
11284TIP3    H133729   2.672   7.594   3.452
11284TIP3    H233730   2.754   7.617   3.328
11285TIP3   OH233731   3.879   7.190   4.292
11285TIP3    H133732   3.965   7.224   4.323
11285TIP3    H233733   3.870   7.107   4.343
11286TIP3   OH233734   3.266   8.051   3.141
11286TIP3    H133735   3.180   8.081   3.177
11286TIP3    H233736   3.284   8.123   3.079
11287TIP3   OH233737   3.449   7.118   3.555
11287TIP3    H133738   3.521   7.181   3.533
11287TIP3    H233739   3.467   7.102   3.651
11288TIP3   OH233740   3.723   7.434   4.363
11288TIP3    H133741   3.747   7.485   4.443
11288TIP3    H233742   3.780   7.355   4.371
11289TIP3   OH233743   3.008   8.127   3.209
11289TIP3    H133744   2.980   8.197   3.146
11289TIP3    H233745   2.994   8.171   3.295
11290TIP3   OH233746   3.114   6.843   3.449
11290TIP3    H133747   3.120   6.936   3.478
11290TIP3    H233748   3.208   6.816   3.459
11291TIP3   OH233749   4.366   7.335   4.341
11291TIP3    H133750   4.268   7.334   4.350
11291TIP3    H233751   4.375   7.291   4.256
11292TIP3   OH233752   4.015   7.530   3.732
11292TIP3    H133753   3.939   7.469   3.741
11292TIP3    H233754   4.086   7.481   3.778
11293TIP3   OH233755   2.727   7.759   3.201
11293TIP3    H133756   2.793   7.830   3.211
11293TIP3    H233757   2.774   7.705   3.134
11294TIP3   OH233758   2.670   7.033   3.340
11294TIP3    H133759   2.673   7.131   3.331
11294TIP3    H233760   2.592   7.012   3.287
11295TIP3   OH233761   3.983   8.485   3.682
11295TIP3    H133762   3.941   8.532   3.606
11295TIP3    H233763   4.078   8.502   3.661
11296TIP3   OH233764   3.061   6.760   4.200
11296TIP3    H133765   3.022   6.717   4.122
11296TIP3    H233766   3.049   6.692   4.269
11297TIP3   OH233767   2.599   7.968   3.590
11297TIP3    H133768   2.527   8.003   3.644
11297TIP3    H233769   2.580   8.009   3.503
11298TIP3   OH233770   2.754   8.513   4.665
11298TIP3    H133771   2.842   8.518   4.709
11298TIP3    H233772   2.740   8.417   4.662
11299TIP3   OH233773   3.237   8.471   4.718
11299TIP3    H133774   3.333   8.459   4.717
11299TIP3    H233775   3.212   8.426   4.634
11300TIP3   OH233776   3.219   8.054   2.834
11300TIP3    H133777   3.163   7.982   2.871
11300TIP3    H233778   3.295   8.002   2.800
11301TIP3   OH233779   3.881   8.381   4.435
11301TIP3    H133780   3.869   8.313   4.505
11301TIP3    H233781   3.955   8.434   4.469
11302TIP3   OH233782   3.655   8.095   2.744
11302TIP3    H133783   3.701   8.031   2.802
11302TIP3    H233784   3.712   8.095   2.664
11303TIP3   OH233785   2.886   7.919   4.861
11303TIP3    H133786   2.903   7.823   4.865
11303TIP3    H233787   2.798   7.922   4.817
11304TIP3   OH233788   2.863   7.570   3.054
11304TIP3    H133789   2.920   7.538   3.126
11304TIP3    H233790   2.929   7.575   2.982
11305TIP3   OH233791   3.495   8.004   4.634
11305TIP3    H133792   3.454   8.021   4.547
11305TIP3    H233793   3.526   7.911   4.626
11306TIP3   OH233794   3.369   7.767   2.860
11306TIP3    H133795   3.375   7.781   2.956
11306TIP3    H233796   3.371   7.669   2.855
11307TIP3   OH233797   3.986   8.012   4.239
11307TIP3    H133798   4.061   8.057   4.196
11307TIP3    H233799   3.916   8.078   4.226
11308TIP3   OH233800   3.004   7.647   4.842
11308TIP3    H133801   3.085   7.598   4.821
11308TIP3    H233802   3.028   7.684   4.929
11309TIP3   OH233803   3.070   7.473   3.275
11309TIP3    H133804   3.050   7.427   3.358
11309TIP3    H233805   3.109   7.401   3.221
11310TIP3   OH233806   3.334   7.531   4.496
11310TIP3    H133807   3.263   7.598   4.503
11310TIP3    H233808   3.389   7.568   4.423
11311TIP3   OH233809   3.172   7.267   3.118
11311TIP3    H133810   3.147   7.269   3.024
11311TIP3    H233811   3.270   7.272   3.112
11312TIP3   OH233812   3.856   7.939   4.637
11312TIP3    H133813   3.939   7.919   4.592
11312TIP3    H233814   3.856   7.873   4.709
11313TIP3   OH233815   3.994   7.599   2.779
11313TIP3    H133816   3.974   7.552   2.696
11313TIP3    H233817   3.962   7.689   2.754
11314TIP3   OH233818   3.461   7.326   4.632
11314TIP3    H133819   3.465   7.245   4.577
11314TIP3    H233820   3.419   7.390   4.571
11315TIP3   OH233821   3.464   7.111   4.440
11315TIP3    H133822   3.497   7.154   4.359
11315TIP3    H233823   3.372   7.090   4.415
11316TIP3   OH233824   3.492   7.647   4.311
11316TIP3    H133825   3.577   7.654   4.266
11316TIP3    H233826   3.439   7.716   4.266
11317TIP3   OH233827   4.076   7.616   4.693
11317TIP3    H133828   4.124   7.532   4.702
11317TIP3    H233829   4.145   7.675   4.659
11318TIP3   OH233830   4.117   7.868   4.427
11318TIP3    H133831   4.059   7.921   4.368
11318TIP3    H233832   4.205   7.888   4.387
11319TIP3   OH233833   3.337   7.441   4.858
11319TIP3    H133834   3.270   7.371   4.873
11319TIP3    H233835   3.376   7.413   4.773
11320TIP3   OH233836   3.600   6.877   4.505
11320TIP3    H133837   3.551   6.959   4.482
11320TIP3    H233838   3.532   6.808   4.492
11321TIP3   OH233839   3.725   7.382   4.721
11321TIP3    H133840   3.718   7.371   4.817
11321TIP3    H233841   3.634   7.356   4.695
11322TIP3   OH233842   3.965   7.332   4.576
11322TIP3    H133843   3.889   7.331   4.638
11322TIP3    H233844   4.039   7.300   4.632
11323TIP3   OH233845   4.192   7.270   4.726
11323TIP3    H133846   4.205   7.175   4.745
11323TIP3    H233847   4.189   7.310   4.816
11324TIP3   OH233848   3.179   7.220   4.914
11324TIP3    H133849   3.190   7.129   4.880
11324TIP3    H233850   3.217   7.210   5.003
11325TIP3   OH233851   3.692   6.886   4.763
11325TIP3    H133852   3.761   6.816   4.758
11325TIP3    H233853   3.655   6.880   4.673
11326TIP3   OH233854   3.758   7.101   4.921
11326TIP3    H133855   3.737   7.030   4.857
11326TIP3    H233856   3.680   7.160   4.914
11327TIP3   OH233857   2.980   8.328   3.023
11327TIP3    H133858   3.075   8.325   3.003
11327TIP3    H233859   2.949   8.376   2.943
11328TIP3   OH233860   2.460   7.711   3.239
11328TIP3    H133861   2.554   7.734   3.224
11328TIP3    H233862   2.455   7.623   3.197
11329TIP3   OH233863   2.373   8.324   3.651
11329TIP3    H133864   2.306   8.262   3.615
11329TIP3    H233865   2.418   8.267   3.717
11330TIP3   OH233866   2.510   8.177   3.836
11330TIP3    H133867   2.499   8.103   3.899
11330TIP3    H233868   2.562   8.238   3.892
11331TIP3   OH233869   4.236   8.576   3.637
11331TIP3    H133870   4.263   8.608   3.725
11331TIP3    H233871   4.297   8.623   3.578
11332TIP3   OH233872   4.268   8.597   3.919
11332TIP3    H133873   4.223   8.510   3.914
11332TIP3    H233874   4.340   8.573   3.979
11333TIP3   OH233875   4.312   8.273   4.491
11333TIP3    H133876   4.239   8.280   4.556
11333TIP3    H233877   4.353   8.361   4.497
11334TIP3   OH233878   4.128   7.787   3.113
11334TIP3    H133879   4.198   7.849   3.084
11334TIP3    H233880   4.170   7.746   3.192
11335TIP3   OH233881   4.255   7.654   3.317
11335TIP3    H133882   4.190   7.609   3.375
11335TIP3    H233883   4.320   7.691   3.380
11336TIP3   OH233884   4.310   8.045   3.748
11336TIP3    H133885   4.364   7.979   3.699
11336TIP3    H233886   4.301   8.117   3.684
11337TIP3   OH233887   4.143   8.347   3.943
11337TIP3    H133888   4.072   8.387   3.996
11337TIP3    H233889   4.092   8.298   3.874
11338TIP3   OH233890   4.195   7.562   2.963
11338TIP3    H133891   4.123   7.564   2.896
11338TIP3    H233892   4.167   7.637   3.019
11339TIP3   OH233893   4.066   7.234   2.917
11339TIP3    H133894   4.023   7.271   2.839
11339TIP3    H233895   4.041   7.139   2.908
11340TIP3   OH233896   4.070   7.507   3.462
11340TIP3    H133897   4.073   7.410   3.456
11340TIP3    H233898   4.057   7.520   3.559
11341TIP3   OH233899   2.699   7.581   4.209
11341TIP3    H133900   2.697   7.558   4.114
11341TIP3    H233901   2.796   7.584   4.226
11342TIP3   OH233902   4.360   7.934   4.319
11342TIP3    H133903   4.432   7.868   4.311
11342TIP3    H233904   4.388   8.003   4.257
11343TIP3   OH233905   4.546   7.741   4.338
11343TIP3    H133906   4.471   7.690   4.376
11343TIP3    H233907   4.619   7.677   4.351
11344TIP3   OH233908   4.011   6.968   2.902
11344TIP3    H133909   4.086   6.938   2.958
11344TIP3    H233910   3.937   6.911   2.930
11345TIP3   OH233911   4.067   7.224   3.349
11345TIP3    H133912   4.107   7.137   3.371
11345TIP3    H233913   4.130   7.255   3.281
11346TIP3   OH233914   4.229   7.402   3.853
11346TIP3    H133915   4.315   7.427   3.813
11346TIP3    H233916   4.243   7.437   3.943
11347TIP3   OH233917   4.298   7.544   4.086
11347TIP3    H133918   4.219   7.578   4.133
11347TIP3    H233919   4.330   7.625   4.040
11348TIP3   OH233920   2.912   7.268   4.877
11348TIP3    H133921   3.010   7.265   4.883
11348TIP3    H233922   2.891   7.183   4.922
11349TIP3   OH233923   4.748   7.133   4.641
11349TIP3    H133924   4.807   7.068   4.598
11349TIP3    H233925   4.721   7.189   4.565
11350TIP3   OH233926   4.176   6.974   3.395
11350TIP3    H133927   4.222   6.960   3.480
11350TIP3    H233928   4.114   6.899   3.395
11351TIP3   OH233929   2.680   7.230   4.293
11351TIP3    H133930   2.731   7.238   4.210
11351TIP3    H233931   2.696   7.317   4.334
11352TIP3   OH233932   4.621   7.275   4.446
11352TIP3    H133933   4.534   7.315   4.468
11352TIP3    H233934   4.592   7.203   4.388
11353TIP3   OH233935   4.258   6.912   3.027
11353TIP3    H133936   4.298   6.838   2.976
11353TIP3    H233937   4.326   6.981   3.021
11354TIP3   OH233938   2.659   6.761   3.803
11354TIP3    H133939   2.566   6.737   3.815
11354TIP3    H233940   2.658   6.804   3.715
11355TIP3   OH233941   3.820   8.443   3.294
11355TIP3    H133942   3.871   8.427   3.212
11355TIP3    H233943   3.876   8.508   3.339
11356TIP3   OH233944   2.882   6.822   4.604
11356TIP3    H133945   2.832   6.812   4.687
11356TIP3    H233946   2.813   6.855   4.544
11357TIP3   OH233947   2.922   8.240   4.677
11357TIP3    H133948   2.828   8.217   4.666
11357TIP3    H233949   2.934   8.236   4.773
11358TIP3   OH233950   3.098   8.275   4.224
11358TIP3    H133951   3.052   8.354   4.187
11358TIP3    H233952   3.185   8.290   4.183
11359TIP3   OH233953   3.550   8.518   4.360
11359TIP3    H133954   3.586   8.523   4.452
11359TIP3    H233955   3.614   8.575   4.312
11360TIP3   OH233956   3.726   8.677   4.221
11360TIP3    H133957   3.798   8.623   4.185
11360TIP3    H233958   3.776   8.733   4.285
11361TIP3   OH233959   4.518   7.038   4.325
11361TIP3    H133960   4.427   7.032   4.290
11361TIP3    H233961   4.549   6.945   4.313
11362TIP3   OH233962   2.775   8.532   4.252
11362TIP3    H133963   2.686   8.569   4.231
11362TIP3    H233964   2.793   8.577   4.336
11363TIP3   OH233965   3.012   8.511   4.108
11363TIP3    H133966   2.926   8.526   4.153
11363TIP3    H233967   2.993   8.548   4.019
11364TIP3   OH233968   3.440   8.545   3.905
11364TIP3    H133969   3.370   8.566   3.841
11364TIP3    H233970   3.451   8.631   3.951
11365TIP3   OH233971   3.708   8.483   3.956
11365TIP3    H133972   3.613   8.499   3.938
11365TIP3    H233973   3.749   8.561   3.917
11366TIP3   OH233974   3.918   8.677   3.874
11366TIP3    H133975   3.902   8.760   3.825
11366TIP3    H233976   3.941   8.615   3.801
11367TIP3   OH233977   2.687   8.329   3.996
11367TIP3    H133978   2.714   8.306   4.087
11367TIP3    H233979   2.760   8.286   3.946
11368TIP3   OH233980   2.881   8.200   3.852
11368TIP3    H133981   2.898   8.117   3.901
11368TIP3    H233982   2.972   8.239   3.848
11369TIP3   OH233983   3.146   8.296   3.856
11369TIP3    H133984   3.180   8.206   3.844
11369TIP3    H233985   3.190   8.319   3.940
11370TIP3   OH233986   3.719   6.957   3.941
11370TIP3    H133987   3.684   6.880   3.989
11370TIP3    H233988   3.742   6.915   3.856
11371TIP3   OH233989   4.252   6.835   3.851
11371TIP3    H133990   4.285   6.886   3.774
11371TIP3    H233991   4.155   6.840   3.838
11372TIP3   OH233992   4.344   6.933   3.611
11372TIP3    H133993   4.417   6.883   3.570
11372TIP3    H233994   4.374   7.025   3.597
11373TIP3   OH233995   2.967   6.663   3.955
11373TIP3    H133996   2.877   6.625   3.961
11373TIP3    H233997   3.020   6.580   3.957
11374TIP3   OH233998   2.756   6.530   3.604
11374TIP3    H133999   2.791   6.584   3.532
11374TIP3    H234000   2.732   6.596   3.670
11375TIP3   OH234001   3.416   6.711   3.845
11375TIP3    H134002   3.483   6.731   3.777
11375TIP3    H234003   3.467   6.728   3.926
11376TIP3   OH234004   3.981   6.829   3.815
11376TIP3    H134005   3.912   6.825   3.746
11376TIP3    H234006   3.950   6.757   3.874
11377TIP3   OH234007   3.992   6.762   3.388
11377TIP3    H134008   3.905   6.800   3.410
11377TIP3    H234009   3.983   6.676   3.435
11378TIP3   OH234010   2.476   8.100   3.390
11378TIP3    H134011   2.391   8.068   3.354
11378TIP3    H234012   2.465   8.195   3.373
11379TIP3   OH234013   2.877   6.690   3.373
11379TIP3    H134014   2.924   6.626   3.315
11379TIP3    H234015   2.952   6.743   3.406
11380TIP3   OH234016   3.397   6.860   3.477
11380TIP3    H134017   3.471   6.807   3.514
11380TIP3    H234018   3.424   6.950   3.506
11381TIP3   OH234019   3.248   8.291   2.969
11381TIP3    H134020   3.337   8.313   2.933
11381TIP3    H234021   3.226   8.216   2.910
11382TIP3   OH234022   3.966   8.408   3.062
11382TIP3    H134023   3.958   8.310   3.050
11382TIP3    H234024   3.922   8.440   2.981
11383TIP3   OH234025   3.180   6.942   4.849
11383TIP3    H134026   3.147   6.871   4.907
11383TIP3    H234027   3.275   6.942   4.876
11384TIP3   OH234028   3.428   6.939   4.968
11384TIP3    H134029   3.514   6.915   4.929
11384TIP3    H234030   3.418   6.868   5.036
11385TIP3   OH234031   2.552   8.125   3.027
11385TIP3    H134032   2.555   8.154   3.119
11385TIP3    H234033   2.641   8.085   3.014
11386TIP3   OH234034   4.254   6.999   4.758
11386TIP3    H134035   4.274   6.968   4.849
11386TIP3    H234036   4.342   6.995   4.716
11387TIP3   OH234037   4.195   8.553   4.248
11387TIP3    H134038   4.115   8.520   4.203
11387TIP3    H234039   4.173   8.648   4.254
11388TIP3   OH234040   5.459   7.924   3.018
11388TIP3    H134041   5.430   8.016   2.997
11388TIP3    H234042   5.384   7.874   2.982
11389TIP3   OH234043   5.455   7.927   3.398
11389TIP3    H134044   5.488   7.894   3.484
11389TIP3    H234045   5.417   7.847   3.359
11390TIP3   OH234046   4.758   7.821   3.762
11390TIP3    H134047   4.788   7.753   3.825
11390TIP3    H234048   4.838   7.875   3.754
11391TIP3   OH234049   5.699   8.228   3.079
11391TIP3    H134050   5.689   8.154   3.140
11391TIP3    H234051   5.733   8.299   3.136
11392TIP3   OH234052   4.729   8.230   3.488
11392TIP3    H134053   4.719   8.133   3.490
11392TIP3    H234054   4.826   8.237   3.484
11393TIP3   OH234055   4.436   7.436   3.273
11393TIP3    H134056   4.385   7.518   3.286
11393TIP3    H234057   4.367   7.377   3.238
11394TIP3   OH234058   4.496   7.721   3.444
11394TIP3    H134059   4.544   7.643   3.481
11394TIP3    H234060   4.553   7.744   3.369
11395TIP3   OH234061   5.354   8.683   3.103
11395TIP3    H134062   5.394   8.623   3.037
11395TIP3    H234063   5.364   8.628   3.182
11396TIP3   OH234064   5.257   8.152   3.445
11396TIP3    H134065   5.292   8.073   3.400
11396TIP3    H234066   5.342   8.195   3.468
11397TIP3   OH234067   6.269   7.469   3.441
11397TIP3    H134068   6.297   7.550   3.488
11397TIP3    H234069   6.293   7.490   3.349
11398TIP3   OH234070   5.668   7.653   3.479
11398TIP3    H134071   5.712   7.568   3.499
11398TIP3    H234072   5.639   7.637   3.387
11399TIP3   OH234073   5.006   7.312   3.444
11399TIP3    H134074   4.986   7.384   3.381
11399TIP3    H234075   4.959   7.238   3.399
11400TIP3   OH234076   5.701   7.404   3.067
11400TIP3    H134077   5.774   7.387   3.131
11400TIP3    H234078   5.752   7.438   2.991
11401TIP3   OH234079   4.641   7.514   3.550
11401TIP3    H134080   4.723   7.493   3.597
11401TIP3    H234081   4.652   7.457   3.470
11402TIP3   OH234082   5.082   7.712   3.344
11402TIP3    H134083   5.175   7.686   3.356
11402TIP3    H234084   5.042   7.628   3.311
11403TIP3   OH234085   6.338   7.670   3.618
11403TIP3    H134086   6.260   7.724   3.596
11403TIP3    H234087   6.367   7.712   3.700
11404TIP3   OH234088   5.004   7.295   3.877
11404TIP3    H134089   4.943   7.331   3.810
11404TIP3    H234090   4.952   7.312   3.959
11405TIP3   OH234091   5.350   8.145   2.888
11405TIP3    H134092   5.310   8.122   2.803
11405TIP3    H234093   5.304   8.228   2.910
11406TIP3   OH234094   5.112   8.070   3.673
11406TIP3    H134095   5.048   8.134   3.711
11406TIP3    H234096   5.152   8.122   3.601
11407TIP3   OH234097   5.913   7.404   3.237
11407TIP3    H134098   5.906   7.355   3.320
11407TIP3    H234099   5.968   7.480   3.263
11408TIP3   OH234100   4.874   7.410   3.662
11408TIP3    H134101   4.937   7.482   3.685
11408TIP3    H234102   4.922   7.369   3.587
11409TIP3   OH234103   4.937   8.262   3.771
11409TIP3    H134104   4.909   8.348   3.733
11409TIP3    H234105   4.860   8.244   3.828
11410TIP3   OH234106   4.333   7.953   3.006
11410TIP3    H134107   4.292   7.979   2.922
11410TIP3    H234108   4.364   8.039   3.042
11411TIP3   OH234109   5.769   8.470   3.250
11411TIP3    H134110   5.677   8.461   3.285
11411TIP3    H234111   5.763   8.555   3.202
11412TIP3   OH234112   6.063   7.368   3.608
11412TIP3    H134113   5.976   7.401   3.578
11412TIP3    H234114   6.123   7.402   3.538
11413TIP3   OH234115   5.361   7.014   3.591
11413TIP3    H134116   5.348   6.919   3.608
11413TIP3    H234117   5.283   7.052   3.638
11414TIP3   OH234118   5.470   8.520   2.918
11414TIP3    H134119   5.519   8.436   2.901
11414TIP3    H234120   5.534   8.583   2.877
11415TIP3   OH234121   5.612   8.304   2.828
11415TIP3    H134122   5.585   8.223   2.782
11415TIP3    H234123   5.649   8.267   2.912
11416TIP3   OH234124   5.997   8.384   3.590
11416TIP3    H134125   5.989   8.305   3.532
11416TIP3    H234126   5.985   8.457   3.526
11417TIP3   OH234127   5.291   7.778   2.847
11417TIP3    H134128   5.210   7.828   2.822
11417TIP3    H234129   5.338   7.771   2.761
11418TIP3   OH234130   5.249   7.559   2.565
11418TIP3    H134131   5.319   7.610   2.611
11418TIP3    H234132   5.305   7.495   2.517
11419TIP3   OH234133   6.190   8.013   3.431
11419TIP3    H134134   6.111   8.071   3.436
11419TIP3    H234135   6.225   8.038   3.343
11420TIP3   OH234136   5.637   7.860   2.819
11420TIP3    H134137   5.583   7.883   2.898
11420TIP3    H234138   5.721   7.832   2.862
11421TIP3   OH234139   5.872   7.898   3.730
11421TIP3    H134140   5.870   7.982   3.780
11421TIP3    H234141   5.786   7.903   3.684
11422TIP3   OH234142   4.870   7.858   3.235
11422TIP3    H134143   4.827   7.800   3.169
11422TIP3    H234144   4.946   7.803   3.264
11423TIP3   OH234145   5.002   8.274   3.382
11423TIP3    H134146   4.977   8.228   3.300
11423TIP3    H234147   5.091   8.236   3.400
11424TIP3   OH234148   5.006   7.827   3.590
11424TIP3    H134149   5.039   7.805   3.501
11424TIP3    H234150   5.050   7.913   3.609
11425TIP3   OH234151   5.523   8.468   3.367
11425TIP3    H134152   5.525   8.541   3.430
11425TIP3    H234153   5.516   8.389   3.425
11426TIP3   OH234154   5.143   8.387   3.911
11426TIP3    H134155   5.083   8.447   3.960
11426TIP3    H234156   5.078   8.332   3.864
11427TIP3   OH234157   5.476   7.719   2.645
11427TIP3    H134158   5.537   7.776   2.696
11427TIP3    H234159   5.503   7.742   2.552
11428TIP3   OH234160   4.898   7.943   4.013
11428TIP3    H134161   4.901   8.029   4.060
11428TIP3    H234162   4.803   7.922   4.022
11429TIP3   OH234163   5.218   8.399   2.925
11429TIP3    H134164   5.300   8.450   2.934
11429TIP3    H234165   5.160   8.459   2.877
11430TIP3   OH234166   4.937   8.555   4.001
11430TIP3    H134167   4.900   8.549   3.911
11430TIP3    H234168   4.858   8.533   4.056
11431TIP3   OH234169   5.994   6.957   2.694
11431TIP3    H134170   5.913   6.979   2.743
11431TIP3    H234171   6.009   7.040   2.643
11432TIP3   OH234172   4.734   7.701   3.044
11432TIP3    H134173   4.669   7.743   2.984
11432TIP3    H234174   4.697   7.612   3.053
11433TIP3   OH234175   5.793   8.326   2.242
11433TIP3    H134176   5.802   8.423   2.226
11433TIP3    H234177   5.885   8.295   2.228
11434TIP3   OH234178   4.518   8.084   3.947
11434TIP3    H134179   4.452   8.060   3.878
11434TIP3    H234180   4.555   7.997   3.972
11435TIP3   OH234181   4.370   8.277   3.578
11435TIP3    H134182   4.466   8.269   3.572
11435TIP3    H234183   4.360   8.355   3.635
11436TIP3   OH234184   6.234   8.726   3.632
11436TIP3    H134185   6.235   8.630   3.647
11436TIP3    H234186   6.152   8.750   3.681
11437TIP3   OH234187   5.336   8.518   3.766
11437TIP3    H134188   5.339   8.609   3.803
11437TIP3    H234189   5.269   8.476   3.825
11438TIP3   OH234190   5.102   8.642   2.723
11438TIP3    H134191   5.057   8.620   2.639
11438TIP3    H234192   5.069   8.731   2.743
11439TIP3   OH234193   4.540   8.493   3.106
11439TIP3    H134194   4.586   8.481   3.192
11439TIP3    H234195   4.484   8.414   3.106
11440TIP3   OH234196   5.304   8.544   2.362
11440TIP3    H134197   5.363   8.474   2.325
11440TIP3    H234198   5.339   8.552   2.454
11441TIP3   OH234199   5.354   8.593   2.633
11441TIP3    H134200   5.265   8.600   2.675
11441TIP3    H234201   5.404   8.546   2.702
11442TIP3   OH234202   6.122   7.856   3.912
11442TIP3    H134203   6.045   7.869   3.854
11442TIP3    H234204   6.139   7.760   3.901
11443TIP3   OH234205   4.722   8.267   3.938
11443TIP3    H134206   4.772   8.249   4.020
11443TIP3    H234207   4.648   8.203   3.944
11444TIP3   OH234208   5.122   7.090   3.719
11444TIP3    H134209   5.032   7.059   3.693
11444TIP3    H234210   5.097   7.172   3.765
11445TIP3   OH234211   5.655   7.206   3.914
11445TIP3    H134212   5.723   7.178   3.978
11445TIP3    H234213   5.571   7.185   3.960
11446TIP3   OH234214   5.893   7.632   3.831
11446TIP3    H134215   5.846   7.630   3.917
11446TIP3    H234216   5.871   7.721   3.796
11447TIP3   OH234217   5.555   7.771   2.392
11447TIP3    H134218   5.520   7.741   2.305
11447TIP3    H234219   5.639   7.813   2.363
11448TIP3   OH234220   5.263   7.141   2.690
11448TIP3    H134221   5.232   7.136   2.782
11448TIP3    H234222   5.228   7.056   2.656
11449TIP3   OH234223   5.053   7.605   3.739
11449TIP3    H134224   5.002   7.626   3.820
11449TIP3    H234225   5.037   7.686   3.685
11450TIP3   OH234226   4.937   7.492   3.252
11450TIP3    H134227   4.844   7.465   3.270
11450TIP3    H234228   4.951   7.452   3.164
11451TIP3   OH234229   5.428   7.578   2.980
11451TIP3    H134230   5.375   7.649   2.937
11451TIP3    H234231   5.483   7.546   2.905
11452TIP3   OH234232   5.602   7.858   4.069
11452TIP3    H134233   5.580   7.784   4.130
11452TIP3    H234234   5.697   7.869   4.088
11453TIP3   OH234235   5.585   7.607   3.219
11453TIP3    H134236   5.525   7.635   3.147
11453TIP3    H234237   5.619   7.525   3.177
11454TIP3   OH234238   4.871   7.635   3.948
11454TIP3    H134239   4.900   7.696   4.017
11454TIP3    H234240   4.860   7.552   3.998
11455TIP3   OH234241   4.920   7.110   2.657
11455TIP3    H134242   4.914   7.108   2.755
11455TIP3    H234243   4.842   7.163   2.634
11456TIP3   OH234244   4.465   7.159   3.526
11456TIP3    H134245   4.542   7.188   3.580
11456TIP3    H234246   4.505   7.122   3.446
11457TIP3   OH234247   4.440   7.137   3.047
11457TIP3    H134248   4.486   7.176   2.970
11457TIP3    H234249   4.379   7.210   3.068
11458TIP3   OH234250   5.594   7.853   3.642
11458TIP3    H134251   5.627   7.781   3.584
11458TIP3    H234252   5.566   7.800   3.720
11459TIP3   OH234253   5.264   7.316   3.315
11459TIP3    H134254   5.181   7.312   3.367
11459TIP3    H234255   5.332   7.312   3.383
11460TIP3   OH234256   4.699   7.369   3.323
11460TIP3    H134257   4.604   7.376   3.295
11460TIP3    H234258   4.722   7.277   3.299
11461TIP3   OH234259   4.969   7.367   3.010
11461TIP3    H134260   5.063   7.380   2.989
11461TIP3    H234261   4.923   7.389   2.926
11462TIP3   OH234262   5.755   7.390   3.517
11462TIP3    H134263   5.719   7.402   3.607
11462TIP3    H234264   5.691   7.328   3.479
11463TIP3   OH234265   4.808   7.400   2.789
11463TIP3    H134266   4.736   7.355   2.741
11463TIP3    H234267   4.860   7.436   2.714
11464TIP3   OH234268   5.925   9.079   3.734
11464TIP3    H134269   5.926   9.101   3.639
11464TIP3    H234270   6.005   9.125   3.765
11465TIP3   OH234271   4.883   8.190   4.156
11465TIP3    H134272   4.963   8.219   4.205
11465TIP3    H234273   4.818   8.186   4.229
11466TIP3   OH234274   5.348   7.642   3.411
11466TIP3    H134275   5.419   7.602   3.359
11466TIP3    H234276   5.358   7.598   3.498
11467TIP3   OH234277   4.872   7.130   3.289
11467TIP3    H134278   4.838   7.050   3.335
11467TIP3    H234279   4.923   7.092   3.216
11468TIP3   OH234280   5.324   7.536   3.702
11468TIP3    H134281   5.235   7.573   3.715
11468TIP3    H234282   5.382   7.597   3.752
11469TIP3   OH234283   5.059   7.932   2.795
11469TIP3    H134284   4.988   7.864   2.785
11469TIP3    H234285   5.042   7.963   2.887
11470TIP3   OH234286   5.961   8.168   3.426
11470TIP3    H134287   5.987   8.214   3.343
11470TIP3    H234288   5.877   8.124   3.400
11471TIP3   OH234289   5.519   7.238   2.668
11471TIP3    H134290   5.422   7.225   2.666
11471TIP3    H234291   5.528   7.335   2.679
11472TIP3   OH234292   5.463   8.249   3.791
11472TIP3    H134293   5.483   8.219   3.881
11472TIP3    H234294   5.419   8.334   3.806
11473TIP3   OH234295   5.589   7.491   2.763
11473TIP3    H134296   5.685   7.495   2.776
11473TIP3    H234297   5.572   7.568   2.705
11474TIP3   OH234298   4.754   7.954   3.473
11474TIP3    H134299   4.791   7.923   3.387
11474TIP3    H234300   4.791   7.888   3.534
11475TIP3   OH234301   5.206   8.080   2.617
11475TIP3    H134302   5.159   8.166   2.625
11475TIP3    H234303   5.152   8.023   2.676
11476TIP3   OH234304   4.633   7.873   4.085
11476TIP3    H134305   4.654   7.858   4.180
11476TIP3    H234306   4.565   7.805   4.069
11477TIP3   OH234307   5.358   7.986   4.104
11477TIP3    H134308   5.299   7.926   4.055
11477TIP3    H234309   5.446   7.951   4.077
11478TIP3   OH234310   5.619   8.518   3.682
11478TIP3    H134311   5.524   8.506   3.700
11478TIP3    H234312   5.648   8.563   3.764
11479TIP3   OH234313   6.031   7.577   2.597
11479TIP3    H134314   5.968   7.533   2.535
11479TIP3    H234315   6.028   7.666   2.556
11480TIP3   OH234316   6.249   8.440   3.678
11480TIP3    H134317   6.151   8.431   3.670
11480TIP3    H234318   6.275   8.407   3.588
11481TIP3   OH234319   5.729   8.397   2.506
11481TIP3    H134320   5.707   8.324   2.565
11481TIP3    H234321   5.743   8.352   2.420
11482TIP3   OH234322   5.726   8.028   3.345
11482TIP3    H134323   5.633   8.001   3.357
11482TIP3    H234324   5.762   7.948   3.301
11483TIP3   OH234325   4.853   8.257   3.101
11483TIP3    H134326   4.853   8.335   3.043
11483TIP3    H234327   4.759   8.235   3.103
11484TIP3   OH234328   4.416   7.559   2.799
11484TIP3    H134329   4.463   7.643   2.820
11484TIP3    H234330   4.340   7.565   2.860
11485TIP3   OH234331   4.993   8.022   3.042
11485TIP3    H134332   4.959   8.111   3.062
11485TIP3    H234333   4.957   7.970   3.116
11486TIP3   OH234334   5.124   8.590   3.580
11486TIP3    H134335   5.175   8.649   3.524
11486TIP3    H234336   5.195   8.550   3.634
11487TIP3   OH234337   4.773   8.491   2.949
11487TIP3    H134338   4.687   8.501   2.995
11487TIP3    H234339   4.806   8.584   2.949
11488TIP3   OH234340   5.515   8.235   3.522
11488TIP3    H134341   5.506   8.231   3.620
11488TIP3    H234342   5.592   8.177   3.508
11489TIP3   OH234343   5.485   8.128   2.408
11489TIP3    H134344   5.539   8.102   2.486
11489TIP3    H234345   5.398   8.096   2.436
11490TIP3   OH234346   5.761   8.770   3.579
11490TIP3    H134347   5.685   8.708   3.575
11490TIP3    H234348   5.742   8.830   3.504
11491TIP3   OH234349   5.826   8.601   2.227
11491TIP3    H134350   5.865   8.674   2.176
11491TIP3    H234351   5.745   8.647   2.259
11492TIP3   OH234352   4.845   7.378   4.093
11492TIP3    H134353   4.749   7.382   4.107
11492TIP3    H234354   4.873   7.318   4.164
11493TIP3   OH234355   5.646   8.065   2.628
11493TIP3    H134356   5.635   7.995   2.695
11493TIP3    H234357   5.742   8.059   2.613
11494TIP3   OH234358   4.562   8.462   3.726
11494TIP3    H134359   4.612   8.384   3.754
11494TIP3    H234360   4.589   8.526   3.793
11495TIP3   OH234361   4.851   8.107   2.407
11495TIP3    H134362   4.867   8.016   2.376
11495TIP3    H234363   4.832   8.092   2.502
11496TIP3   OH234364   4.797   8.111   2.681
11496TIP3    H134365   4.871   8.082   2.736
11496TIP3    H234366   4.803   8.209   2.687
11497TIP3   OH234367   4.534   7.804   2.882
11497TIP3    H134368   4.468   7.849   2.939
11497TIP3    H234369   4.549   7.874   2.815
11498TIP3   OH234370   5.679   7.444   3.776
11498TIP3    H134371   5.761   7.480   3.811
11498TIP3    H234372   5.667   7.362   3.829
11499TIP3   OH234373   5.560   7.193   2.941
11499TIP3    H134374   5.546   7.214   2.846
11499TIP3    H234375   5.599   7.277   2.974
11500TIP3   OH234376   5.064   8.310   2.631
11500TIP3    H134377   4.976   8.338   2.664
11500TIP3    H234378   5.078   8.375   2.561
11501TIP3   OH234379   5.251   7.372   3.041
11501TIP3    H134380   5.317   7.443   3.023
11501TIP3    H234381   5.257   7.365   3.139
11502TIP3   OH234382   5.521   7.692   3.850
11502TIP3    H134383   5.541   7.743   3.930
11502TIP3    H234384   5.576   7.612   3.861
11503TIP3   OH234385   5.396   7.100   3.145
11503TIP3    H134386   5.390   7.178   3.204
11503TIP3    H234387   5.456   7.136   3.075
11504TIP3   OH234388   4.807   8.384   2.694
11504TIP3    H134389   4.776   8.454   2.631
11504TIP3    H234390   4.790   8.427   2.780
11505TIP3   OH234391   4.907   7.097   2.934
11505TIP3    H134392   4.905   7.188   2.970
11505TIP3    H234393   5.003   7.078   2.942
11506TIP3   OH234394   6.161   7.590   3.836
11506TIP3    H134395   6.063   7.586   3.836
11506TIP3    H234396   6.180   7.562   3.745
11507TIP3   OH234397   5.812   7.788   3.220
11507TIP3    H134398   5.737   7.726   3.230
11507TIP3    H234399   5.884   7.740   3.266
11508TIP3   OH234400   4.524   8.016   2.688
11508TIP3    H134401   4.591   8.086   2.696
11508TIP3    H234402   4.569   7.960   2.621
11509TIP3   OH234403   4.470   7.290   2.822
11509TIP3    H134404   4.468   7.388   2.816
11509TIP3    H234405   4.386   7.266   2.780
11510TIP3   OH234406   5.779   8.742   3.168
11510TIP3    H134407   5.738   8.790   3.093
11510TIP3    H234408   5.874   8.760   3.149
11511TIP3   OH234409   4.857   7.010   3.696
11511TIP3    H134410   4.825   6.977   3.609
11511TIP3    H234411   4.846   6.932   3.753
11512TIP3   OH234412   4.399   8.234   3.077
11512TIP3    H134413   4.324   8.260   3.132
11512TIP3    H234414   4.372   8.270   2.990
11513TIP3   OH234415   4.551   8.769   4.145
11513TIP3    H134416   4.637   8.767   4.193
11513TIP3    H234417   4.529   8.674   4.146
11514TIP3   OH234418   5.037   8.739   4.186
11514TIP3    H134419   5.130   8.713   4.197
11514TIP3    H234420   5.009   8.677   4.116
11515TIP3   OH234421   5.017   8.310   2.323
11515TIP3    H134422   4.960   8.238   2.358
11515TIP3    H234423   5.091   8.258   2.287
11516TIP3   OH234424   5.672   8.640   3.924
11516TIP3    H134425   5.664   8.570   3.993
11516TIP3    H234426   5.750   8.690   3.954
11517TIP3   OH234427   5.452   8.352   2.231
11517TIP3    H134428   5.495   8.287   2.289
11517TIP3    H234429   5.509   8.351   2.152
11518TIP3   OH234430   4.683   8.176   4.347
11518TIP3    H134431   4.700   8.080   4.354
11518TIP3    H234432   4.595   8.178   4.304
11519TIP3   OH234433   4.659   7.828   2.540
11519TIP3    H134434   4.714   7.793   2.612
11519TIP3    H234435   4.726   7.832   2.468
11520TIP3   OH234436   5.291   8.260   4.120
11520TIP3    H134437   5.249   8.273   4.033
11520TIP3    H234438   5.323   8.167   4.115
11521TIP3   OH234439   5.167   8.025   2.347
11521TIP3    H134440   5.171   8.037   2.444
11521TIP3    H234441   5.170   7.927   2.342
11522TIP3   OH234442   5.784   8.268   3.728
11522TIP3    H134443   5.859   8.312   3.683
11522TIP3    H234444   5.712   8.331   3.711
11523TIP3   OH234445   4.803   7.910   4.328
11523TIP3    H134446   4.875   7.849   4.310
11523TIP3    H234447   4.827   7.942   4.417
11524TIP3   OH234448   4.869   7.730   2.764
11524TIP3    H134449   4.843   7.686   2.846
11524TIP3    H234450   4.906   7.656   2.711
11525TIP3   OH234451   5.137   7.796   3.991
11525TIP3    H134452   5.059   7.855   3.993
11525TIP3    H234453   5.186   7.829   3.913
11526TIP3   OH234454   4.968   7.524   2.604
11526TIP3    H134455   4.943   7.525   2.510
11526TIP3    H234456   5.066   7.528   2.597
11527TIP3   OH234457   5.656   8.198   4.126
11527TIP3    H134458   5.734   8.173   4.076
11527TIP3    H234459   5.652   8.129   4.194
11528TIP3   OH234460   5.791   7.857   2.266
11528TIP3    H134461   5.770   7.808   2.184
11528TIP3    H234462   5.758   7.946   2.240
11529TIP3   OH234463   5.260   7.582   4.118
11529TIP3    H134464   5.260   7.502   4.062
11529TIP3    H234465   5.216   7.648   4.059
11530TIP3   OH234466   5.263   7.369   3.925
11530TIP3    H134467   5.290   7.410   3.840
11530TIP3    H234468   5.169   7.346   3.906
11531TIP3   OH234469   5.291   7.906   3.798
11531TIP3    H134470   5.373   7.909   3.747
11531TIP3    H234471   5.235   7.972   3.752
11532TIP3   OH234472   5.874   7.873   4.180
11532TIP3    H134473   5.920   7.788   4.190
11532TIP3    H234474   5.943   7.928   4.141
11533TIP3   OH234475   5.914   8.126   3.917
11533TIP3    H134476   5.857   8.179   3.856
11533TIP3    H234477   6.002   8.144   3.877
11534TIP3   OH234478   5.137   7.696   4.347
11534TIP3    H134479   5.069   7.628   4.362
11534TIP3    H234480   5.173   7.669   4.260
11535TIP3   OH234481   5.395   7.133   3.990
11535TIP3    H134482   5.346   7.215   3.968
11535TIP3    H234483   5.325   7.065   3.979
11536TIP3   OH234484   5.520   7.639   4.208
11536TIP3    H134485   5.510   7.626   4.304
11536TIP3    H234486   5.430   7.613   4.178
11537TIP3   OH234487   5.761   7.590   4.063
11537TIP3    H134488   5.685   7.588   4.125
11537TIP3    H234489   5.834   7.557   4.119
11538TIP3   OH234490   5.988   7.527   4.214
11538TIP3    H134491   6.001   7.431   4.232
11538TIP3    H234492   5.985   7.566   4.303
11539TIP3   OH234493   4.978   7.476   4.399
11539TIP3    H134494   4.984   7.385   4.365
11539TIP3    H234495   5.013   7.464   4.490
11540TIP3   OH234496   5.490   7.143   4.248
11540TIP3    H134497   5.557   7.072   4.242
11540TIP3    H234498   5.450   7.136   4.159
11541TIP3   OH234499   5.555   7.358   4.407
11541TIP3    H134500   5.533   7.287   4.343
11541TIP3    H234501   5.477   7.417   4.401
11542TIP3   OH234502   4.776   8.589   2.509
11542TIP3    H134503   4.871   8.584   2.488
11542TIP3    H234504   4.744   8.635   2.429
11543TIP3   OH234505   4.256   7.968   2.725
11543TIP3    H134506   4.350   7.990   2.710
11543TIP3    H234507   4.250   7.879   2.684
11544TIP3   OH234508   4.169   8.581   3.137
11544TIP3    H134509   4.102   8.519   3.101
11544TIP3    H234510   4.214   8.524   3.203
11545TIP3   OH234511   4.305   8.435   3.325
11545TIP3    H134512   4.294   8.358   3.384
11545TIP3    H234513   4.355   8.495   3.383
11546TIP3   OH234514   6.029   8.840   3.123
11546TIP3    H134515   6.063   8.868   3.210
11546TIP3    H234516   6.097   8.873   3.063
11547TIP3   OH234517   6.062   8.854   3.407
11547TIP3    H134518   6.020   8.766   3.402
11547TIP3    H234519   6.139   8.831   3.462
11548TIP3   OH234520   6.108   8.531   3.978
11548TIP3    H134521   6.035   8.538   4.043
11548TIP3    H234522   6.150   8.619   3.983
11549TIP3   OH234523   5.924   8.044   2.600
11549TIP3    H134524   5.994   8.105   2.571
11549TIP3    H234525   5.967   8.003   2.679
11550TIP3   OH234526   6.052   7.911   2.802
11550TIP3    H134527   5.988   7.868   2.863
11550TIP3    H234528   6.121   7.945   2.863
11551TIP3   OH234529   6.105   8.297   3.230
11551TIP3    H134530   6.163   8.236   3.181
11551TIP3    H234531   6.100   8.373   3.170
11552TIP3   OH234532   5.940   8.603   3.428
11552TIP3    H134533   5.869   8.641   3.483
11552TIP3    H234534   5.890   8.553   3.361
11553TIP3   OH234535   5.992   7.818   2.450
11553TIP3    H134536   5.920   7.819   2.383
11553TIP3    H234537   5.963   7.894   2.505
11554TIP3   OH234538   5.862   7.496   2.402
11554TIP3    H134539   5.820   7.525   2.320
11554TIP3    H234540   5.837   7.400   2.401
11555TIP3   OH234541   5.866   7.766   2.949
11555TIP3    H134542   5.875   7.669   2.943
11555TIP3    H234543   5.854   7.779   3.046
11556TIP3   OH234544   4.493   7.841   3.695
11556TIP3    H134545   4.492   7.809   3.602
11556TIP3    H234546   4.590   7.842   3.713
11557TIP3   OH234547   6.157   8.191   3.805
11557TIP3    H134548   6.229   8.124   3.799
11557TIP3    H234549   6.187   8.257   3.741
11558TIP3   OH234550   6.340   7.998   3.839
11558TIP3    H134551   6.265   7.943   3.871
11558TIP3    H234552   6.413   7.933   3.843
11559TIP3   OH234553   5.802   7.233   2.407
11559TIP3    H134554   5.876   7.188   2.452
11559TIP3    H234555   5.731   7.168   2.405
11560TIP3   OH234556   5.864   7.482   2.845
11560TIP3    H134557   5.904   7.393   2.861
11560TIP3    H234558   5.921   7.514   2.773
11561TIP3   OH234559   6.024   7.658   3.339
11561TIP3    H134560   6.110   7.685   3.298
11561TIP3    H234561   6.039   7.693   3.429
11562TIP3   OH234562   6.093   7.799   3.574
11562TIP3    H134563   6.015   7.836   3.619
11562TIP3    H234564   6.126   7.878   3.525
11563TIP3   OH234565   4.711   7.528   4.372
11563TIP3    H134566   4.809   7.521   4.373
11563TIP3    H234567   4.687   7.442   4.412
11564TIP3   OH234568   6.546   7.390   4.129
11564TIP3    H134569   6.604   7.325   4.084
11564TIP3    H234570   6.516   7.446   4.053
11565TIP3   OH234571   5.972   7.232   2.883
11565TIP3    H134572   6.020   7.216   2.966
11565TIP3    H234573   5.912   7.155   2.881
11566TIP3   OH234574   4.672   7.218   3.702
11566TIP3    H134575   4.734   7.143   3.712
11566TIP3    H234576   4.735   7.293   3.696
11567TIP3   OH234577   4.476   7.493   3.775
11567TIP3    H134578   4.523   7.483   3.691
11567TIP3    H234579   4.508   7.579   3.805
11568TIP3   OH234580   6.416   7.530   3.937
11568TIP3    H134581   6.329   7.571   3.953
11568TIP3    H234582   6.389   7.460   3.874
11569TIP3   OH234583   6.057   7.164   2.519
11569TIP3    H134584   6.094   7.095   2.459
11569TIP3    H234585   6.120   7.237   2.506
11570TIP3   OH234586   4.458   6.997   3.278
11570TIP3    H134587   4.364   6.993   3.303
11570TIP3    H234588   4.455   7.054   3.198
11571TIP3   OH234589   5.617   8.702   2.782
11571TIP3    H134590   5.665   8.682   2.699
11571TIP3    H234591   5.678   8.764   2.824
11572TIP3   OH234592   4.678   7.076   4.091
11572TIP3    H134593   4.627   7.070   4.173
11572TIP3    H234594   4.612   7.114   4.030
11573TIP3   OH234595   4.718   8.505   4.169
11573TIP3    H134596   4.627   8.475   4.150
11573TIP3    H234597   4.727   8.481   4.262
11574TIP3   OH234598   4.891   8.533   3.718
11574TIP3    H134599   4.843   8.607   3.675
11574TIP3    H234600   4.979   8.547   3.676
11575TIP3   OH234601   5.341   8.785   3.853
11575TIP3    H134602   5.386   8.783   3.940
11575TIP3    H234603   5.409   8.832   3.799
11576TIP3   OH234604   5.532   8.921   3.713
11576TIP3    H134605   5.608   8.874   3.675
11576TIP3    H234606   5.576   8.985   3.772
11577TIP3   OH234607   6.315   7.294   3.812
11577TIP3    H134608   6.224   7.291   3.777
11577TIP3    H234609   6.344   7.201   3.798
11578TIP3   OH234610   4.576   8.797   3.737
11578TIP3    H134611   4.486   8.829   3.713
11578TIP3    H234612   4.580   8.822   3.830
11579TIP3   OH234613   4.806   8.764   3.593
11579TIP3    H134614   4.725   8.781   3.647
11579TIP3    H234615   4.781   8.804   3.508
11580TIP3   OH234616   5.505   8.745   3.441
11580TIP3    H134617   5.419   8.774   3.410
11580TIP3    H234618   5.563   8.815   3.405
11581TIP3   OH234619   5.704   8.929   3.358
11581TIP3    H134620   5.695   9.015   3.311
11581TIP3    H234621   5.737   8.870   3.287
11582TIP3   OH234622   4.485   8.588   3.484
11582TIP3    H134623   4.511   8.560   3.575
11582TIP3    H234624   4.555   8.542   3.433
11583TIP3   OH234625   4.677   8.457   3.340
11583TIP3    H134626   4.692   8.372   3.388
11583TIP3    H234627   4.769   8.490   3.333
11584TIP3   OH234628   4.949   8.556   3.341
11584TIP3    H134629   4.977   8.465   3.320
11584TIP3    H234630   4.978   8.562   3.433
11585TIP3   OH234631   5.519   7.209   3.429
11585TIP3    H134632   5.476   7.139   3.482
11585TIP3    H234633   5.591   7.161   3.385
11586TIP3   OH234634   6.044   7.088   3.336
11586TIP3    H134635   6.081   7.140   3.262
11586TIP3    H234636   5.949   7.107   3.329
11587TIP3   OH234637   6.139   7.188   3.100
11587TIP3    H134638   6.212   7.138   3.058
11587TIP3    H234639   6.171   7.280   3.086
11588TIP3   OH234640   4.769   6.918   3.447
11588TIP3    H134641   4.677   6.884   3.448
11588TIP3    H234642   4.818   6.833   3.443
11589TIP3   OH234643   4.553   6.787   3.093
11589TIP3    H134644   4.584   6.845   3.022
11589TIP3    H234645   4.526   6.851   3.161
11590TIP3   OH234646   5.211   6.950   3.327
11590TIP3    H134647   5.270   7.000   3.267
11590TIP3    H234648   5.234   6.988   3.413
11591TIP3   OH234649   5.760   7.097   3.311
11591TIP3    H134650   5.756   7.061   3.222
11591TIP3    H234651   5.746   7.015   3.365
11592TIP3   OH234652   5.790   7.018   2.874
11592TIP3    H134653   5.702   7.060   2.881
11592TIP3    H234654   5.773   6.933   2.920
11593TIP3   OH234655   4.272   8.357   2.875
11593TIP3    H134656   4.188   8.323   2.840
11593TIP3    H234657   4.260   8.452   2.856
11594TIP3   OH234658   4.671   6.947   2.857
11594TIP3    H134659   4.720   6.884   2.801
11594TIP3    H234660   4.745   7.001   2.894
11595TIP3   OH234661   5.184   7.121   2.957
11595TIP3    H134662   5.245   7.074   3.017
11595TIP3    H234663   5.207   7.214   2.981
11596TIP3   OH234664   5.044   8.549   2.456
11596TIP3    H134665   5.133   8.569   2.420
11596TIP3    H234666   5.022   8.473   2.397
11597TIP3   OH234667   5.760   8.664   2.550
11597TIP3    H134668   5.753   8.566   2.537
11597TIP3    H234669   5.718   8.696   2.467
11598TIP3   OH234670   4.976   7.199   4.338
11598TIP3    H134671   4.942   7.129   4.395
11598TIP3    H234672   5.071   7.200   4.364
11599TIP3   OH234673   5.225   7.195   4.456
11599TIP3    H134674   5.310   7.170   4.417
11599TIP3    H234675   5.213   7.125   4.523
11600TIP3   OH234676   4.349   8.384   2.513
11600TIP3    H134677   4.349   8.410   2.606
11600TIP3    H234678   4.437   8.342   2.502
11601TIP3   OH234679   6.050   7.256   4.244
11601TIP3    H134680   6.070   7.225   4.335
11601TIP3    H234681   6.138   7.252   4.202
11602TIP3   OH234682   5.989   8.810   3.739
11602TIP3    H134683   5.911   8.778   3.690
11602TIP3    H234684   5.970   8.906   3.741
11603TIP3   OH234685   7.255   8.180   2.504
11603TIP3    H134686   7.230   8.273   2.486
11603TIP3    H234687   7.173   8.135   2.481
11604TIP3   OH234688   7.257   8.181   2.881
11604TIP3    H134689   7.285   8.152   2.970
11604TIP3    H234690   7.206   8.104   2.850
11605TIP3   OH234691   7.493   8.486   2.565
11605TIP3    H134692   7.486   8.412   2.627
11605TIP3    H234693   7.525   8.557   2.622
11606TIP3   OH234694   6.523   8.481   2.974
11606TIP3    H134695   6.517   8.383   2.979
11606TIP3    H234696   6.619   8.492   2.976
11607TIP3   OH234697   6.231   7.688   2.758
11607TIP3    H134698   6.185   7.772   2.773
11607TIP3    H234699   6.158   7.635   2.720
11608TIP3   OH234700   6.290   7.975   2.930
11608TIP3    H134701   6.337   7.897   2.968
11608TIP3    H234702   6.359   8.012   2.873
11609TIP3   OH234703   7.148   8.947   2.581
11609TIP3    H134704   7.194   8.876   2.532
11609TIP3    H234705   7.140   8.908   2.669
11610TIP3   OH234706   7.050   8.411   2.928
11610TIP3    H134707   7.083   8.330   2.884
11610TIP3    H234708   7.135   8.451   2.953
11611TIP3   OH234709   8.066   7.727   2.928
11611TIP3    H134710   8.094   7.811   2.970
11611TIP3    H234711   8.094   7.745   2.836
11612TIP3   OH234712   7.463   7.907   2.969
11612TIP3    H134713   7.509   7.823   2.985
11612TIP3    H234714   7.438   7.896   2.875
11613TIP3   OH234715   6.808   7.569   2.931
11613TIP3    H134716   6.782   7.645   2.875
11613TIP3    H234717   6.752   7.499   2.891
11614TIP3   OH234718   7.493   7.631   2.545
11614TIP3    H134719   7.563   7.627   2.614
11614TIP3    H234720   7.541   7.684   2.478
11615TIP3   OH234721   6.429   7.767   3.038
11615TIP3    H134722   6.517   7.790   3.075
11615TIP3    H234723   6.456   7.711   2.962
11616TIP3   OH234724   6.887   7.970   2.780
11616TIP3    H134725   6.957   7.957   2.846
11616TIP3    H234726   6.834   7.889   2.792
11617TIP3   OH234727   8.139   7.931   3.105
11617TIP3    H134728   8.059   7.981   3.081
11617TIP3    H234729   8.158   7.967   3.194
11618TIP3   OH234730   6.803   7.552   3.366
11618TIP3    H134731   6.748   7.597   3.297
11618TIP3    H234732   6.748   7.569   3.445
11619TIP3   OH234733   7.149   8.404   2.372
11619TIP3    H134734   7.102   8.380   2.291
11619TIP3    H234735   7.105   8.488   2.396
11620TIP3   OH234736   6.935   8.347   3.187
11620TIP3    H134737   6.849   8.388   3.208
11620TIP3    H234738   6.947   8.370   3.093
11621TIP3   OH234739   7.702   7.659   2.722
11621TIP3    H134740   7.696   7.621   2.810
11621TIP3    H234741   7.760   7.736   2.738
11622TIP3   OH234742   6.676   7.667   3.159
11622TIP3    H134743   6.690   7.766   3.157
11622TIP3    H234744   6.730   7.642   3.082
11623TIP3   OH234745   6.728   8.522   3.257
11623TIP3    H134746   6.703   8.609   3.220
11623TIP3    H234747   6.650   8.506   3.314
11624TIP3   OH234748   6.129   8.210   2.493
11624TIP3    H134749   6.088   8.237   2.409
11624TIP3    H234750   6.161   8.295   2.530
11625TIP3   OH234751   7.568   8.724   2.736
11625TIP3    H134752   7.479   8.713   2.776
11625TIP3    H234753   7.555   8.809   2.690
11626TIP3   OH234754   7.861   7.623   3.093
11626TIP3    H134755   7.774   7.659   3.066
11626TIP3    H234756   7.921   7.659   3.024
11627TIP3   OH234757   7.158   7.272   3.079
11627TIP3    H134758   7.143   7.177   3.096
11627TIP3    H234759   7.081   7.311   3.125
11628TIP3   OH234760   7.271   8.774   2.407
11628TIP3    H134761   7.321   8.691   2.388
11628TIP3    H234762   7.332   8.839   2.365
11629TIP3   OH234763   7.413   8.559   2.312
11629TIP3    H134764   7.373   8.479   2.276
11629TIP3    H234765   7.450   8.526   2.397
11630TIP3   OH234766   7.795   8.642   3.075
11630TIP3    H134767   7.783   8.562   3.019
11630TIP3    H234768   7.779   8.714   3.011
11631TIP3   OH234769   7.083   8.028   2.331
11631TIP3    H134770   7.003   8.083   2.313
11631TIP3    H234771   7.132   8.037   2.248
11632TIP3   OH234772   7.047   7.816   2.049
11632TIP3    H134773   7.109   7.867   2.104
11632TIP3    H234774   7.110   7.757   2.003
11633TIP3   OH234775   7.991   8.280   2.925
11633TIP3    H134776   7.906   8.330   2.928
11633TIP3    H234777   8.016   8.293   2.831
11634TIP3   OH234778   7.428   8.114   2.303
11634TIP3    H134779   7.377   8.141   2.383
11634TIP3    H234780   7.511   8.083   2.346
11635TIP3   OH234781   7.669   8.155   3.217
11635TIP3    H134782   7.666   8.238   3.266
11635TIP3    H234783   7.582   8.157   3.172
11636TIP3   OH234784   6.666   8.118   2.718
11636TIP3    H134785   6.630   8.054   2.654
11636TIP3    H234786   6.746   8.070   2.750
11637TIP3   OH234787   6.798   8.531   2.868
11637TIP3    H134788   6.775   8.476   2.792
11637TIP3    H234789   6.887   8.496   2.891
11638TIP3   OH234790   7.326   8.723   2.854
11638TIP3    H134791   7.315   8.800   2.912
11638TIP3    H234792   7.312   8.647   2.914
11639TIP3   OH234793   6.940   8.642   3.398
11639TIP3    H134794   6.877   8.702   3.444
11639TIP3    H234795   6.878   8.585   3.348
11640TIP3   OH234796   7.282   7.958   2.134
11640TIP3    H134797   7.337   8.019   2.188
11640TIP3    H234798   7.306   7.988   2.043
11641TIP3   OH234799   6.704   8.197   3.515
11641TIP3    H134800   6.693   8.284   3.556
11641TIP3    H234801   6.612   8.173   3.495
11642TIP3   OH234802   7.017   8.653   2.404
11642TIP3    H134803   7.096   8.706   2.425
11642TIP3    H234804   6.955   8.719   2.370
11643TIP3   OH234805   6.733   8.812   3.487
11643TIP3    H134806   6.699   8.808   3.395
11643TIP3    H234807   6.654   8.790   3.540
11644TIP3   OH234808   7.791   7.216   2.176
11644TIP3    H134809   7.710   7.235   2.227
11644TIP3    H234810   7.807   7.302   2.132
11645TIP3   OH234811   6.536   7.951   2.516
11645TIP3    H134812   6.466   7.997   2.466
11645TIP3    H234813   6.490   7.872   2.546
11646TIP3   OH234814   7.589   8.580   1.726
11646TIP3    H134815   7.590   8.676   1.706
11646TIP3    H234816   7.682   8.555   1.706
11647TIP3   OH234817   6.311   8.344   3.432
11647TIP3    H134818   6.249   8.314   3.363
11647TIP3    H234819   6.346   8.259   3.468
11648TIP3   OH234820   6.168   8.533   3.068
11648TIP3    H134821   6.263   8.519   3.055
11648TIP3    H234822   6.167   8.611   3.125
11649TIP3   OH234823   8.023   8.984   3.116
11649TIP3    H134824   8.030   8.888   3.129
11649TIP3    H234825   7.940   9.003   3.164
11650TIP3   OH234826   7.135   8.772   3.255
11650TIP3    H134827   7.135   8.864   3.289
11650TIP3    H234828   7.064   8.731   3.310
11651TIP3   OH234829   6.897   8.900   2.208
11651TIP3    H134830   6.851   8.881   2.125
11651TIP3    H234831   6.864   8.989   2.232
11652TIP3   OH234832   6.336   8.749   2.594
11652TIP3    H134833   6.385   8.739   2.678
11652TIP3    H234834   6.282   8.668   2.595
11653TIP3   OH234835   7.100   8.800   1.850
11653TIP3    H134836   7.159   8.730   1.814
11653TIP3    H234837   7.133   8.808   1.942
11654TIP3   OH234838   7.149   8.845   2.121
11654TIP3    H134839   7.061   8.856   2.163
11654TIP3    H234840   7.199   8.803   2.192
11655TIP3   OH234841   7.924   8.116   3.394
11655TIP3    H134842   7.841   8.127   3.344
11655TIP3    H234843   7.937   8.019   3.388
11656TIP3   OH234844   6.514   8.528   3.427
11656TIP3    H134845   6.568   8.507   3.506
11656TIP3    H234846   6.443   8.461   3.432
11657TIP3   OH234847   6.918   7.347   3.206
11657TIP3    H134848   6.828   7.317   3.181
11657TIP3    H234849   6.894   7.431   3.249
11658TIP3   OH234850   7.450   7.460   3.401
11658TIP3    H134851   7.517   7.435   3.467
11658TIP3    H234852   7.365   7.442   3.446
11659TIP3   OH234853   7.690   7.890   3.317
11659TIP3    H134854   7.641   7.887   3.403
11659TIP3    H234855   7.667   7.978   3.283
11660TIP3   OH234856   7.345   8.015   1.875
11660TIP3    H134857   7.318   7.995   1.783
11660TIP3    H234858   7.426   8.068   1.858
11661TIP3   OH234859   6.731   7.740   2.738
11661TIP3    H134860   6.637   7.718   2.759
11661TIP3    H234861   6.740   7.700   2.649
11662TIP3   OH234862   7.221   7.832   2.463
11662TIP3    H134863   7.166   7.905   2.429
11662TIP3    H234864   7.280   7.816   2.387
11663TIP3   OH234865   7.399   8.113   3.552
11663TIP3    H134866   7.376   8.041   3.614
11663TIP3    H234867   7.493   8.127   3.575
11664TIP3   OH234868   7.387   7.860   2.706
11664TIP3    H134869   7.329   7.900   2.639
11664TIP3    H234870   7.410   7.777   2.661
11665TIP3   OH234871   6.617   7.892   3.494
11665TIP3    H134872   6.693   7.946   3.469
11665TIP3    H234873   6.657   7.805   3.509
11666TIP3   OH234874   6.726   7.374   2.143
11666TIP3    H134875   6.714   7.366   2.240
11666TIP3    H234876   6.643   7.420   2.118
11667TIP3   OH234877   6.262   7.412   3.018
11667TIP3    H134878   6.337   7.448   3.069
11667TIP3    H234879   6.302   7.384   2.934
11668TIP3   OH234880   6.238   7.396   2.534
11668TIP3    H134881   6.281   7.435   2.455
11668TIP3    H234882   6.175   7.468   2.556
11669TIP3   OH234883   7.395   8.111   3.130
11669TIP3    H134884   7.425   8.037   3.073
11669TIP3    H234885   7.363   8.060   3.208
11670TIP3   OH234886   7.057   7.557   2.799
11670TIP3    H134887   6.973   7.566   2.849
11670TIP3    H234888   7.121   7.575   2.870
11671TIP3   OH234889   6.493   7.625   2.809
11671TIP3    H134890   6.397   7.634   2.784
11671TIP3    H234891   6.513   7.533   2.787
11672TIP3   OH234892   6.770   7.612   2.492
11672TIP3    H134893   6.859   7.647   2.474
11672TIP3    H234894   6.717   7.644   2.416
11673TIP3   OH234895   7.554   7.644   3.000
11673TIP3    H134896   7.521   7.658   3.092
11673TIP3    H234897   7.484   7.585   2.965
11674TIP3   OH234898   6.606   7.654   2.278
11674TIP3    H134899   6.530   7.612   2.233
11674TIP3    H234900   6.655   7.690   2.201
11675TIP3   OH234901   7.713   9.335   3.219
11675TIP3    H134902   7.709   9.351   3.122
11675TIP3    H234903   7.799   9.376   3.240
11676TIP3   OH234904   6.676   8.451   3.644
11676TIP3    H134905   6.758   8.477   3.690
11676TIP3    H234906   6.614   8.446   3.719
11677TIP3   OH234907   7.152   7.900   2.903
11677TIP3    H134908   7.224   7.862   2.851
11677TIP3    H234909   7.162   7.857   2.989
11678TIP3   OH234910   6.667   7.387   2.778
11678TIP3    H134911   6.631   7.308   2.824
11678TIP3    H234912   6.715   7.347   2.704
11679TIP3   OH234913   7.114   7.798   3.202
11679TIP3    H134914   7.040   7.860   3.193
11679TIP3    H234915   7.183   7.853   3.244
11680TIP3   OH234916   6.858   8.185   2.281
11680TIP3    H134917   6.785   8.120   2.272
11680TIP3    H234918   6.840   8.220   2.372
11681TIP3   OH234919   7.757   8.424   2.913
11681TIP3    H134920   7.781   8.471   2.830
11681TIP3    H234921   7.672   8.380   2.889
11682TIP3   OH234922   7.276   8.516   3.277
11682TIP3    H134923   7.271   8.471   3.363
11682TIP3    H234924   7.214   8.590   3.288
11683TIP3   OH234925   7.385   7.716   2.241
11683TIP3    H134926   7.481   7.731   2.257
11683TIP3    H234927   7.362   7.795   2.188
11684TIP3   OH234928   6.554   8.201   2.968
11684TIP3    H134929   6.588   8.177   2.880
11684TIP3    H234930   6.604   8.135   3.022
11685TIP3   OH234931   7.000   8.334   2.100
11685TIP3    H134932   6.954   8.421   2.108
11685TIP3    H234933   6.947   8.279   2.162
11686TIP3   OH234934   6.413   8.142   3.580
11686TIP3    H134935   6.457   8.121   3.665
11686TIP3    H234936   6.373   8.056   3.557
11687TIP3   OH234937   7.153   8.240   3.592
11687TIP3    H134938   7.092   8.187   3.537
11687TIP3    H234939   7.239   8.207   3.561
11688TIP3   OH234940   7.418   8.779   3.168
11688TIP3    H134941   7.325   8.759   3.184
11688TIP3    H234942   7.443   8.821   3.253
11689TIP3   OH234943   7.828   7.825   2.076
11689TIP3    H134944   7.759   7.794   2.013
11689TIP3    H234945   7.831   7.920   2.053
11690TIP3   OH234946   8.046   8.694   3.163
11690TIP3    H134947   7.948   8.688   3.157
11690TIP3    H234948   8.070   8.662   3.074
11691TIP3   OH234949   7.520   8.652   1.989
11691TIP3    H134950   7.505   8.584   2.056
11691TIP3    H234951   7.538   8.601   1.908
11692TIP3   OH234952   7.522   8.286   2.834
11692TIP3    H134953   7.429   8.259   2.845
11692TIP3    H234954   7.559   8.207   2.790
11693TIP3   OH234955   6.648   8.511   2.581
11693TIP3    H134956   6.648   8.593   2.529
11693TIP3    H234957   6.554   8.495   2.593
11694TIP3   OH234958   6.213   7.815   2.287
11694TIP3    H134959   6.259   7.899   2.308
11694TIP3    H234960   6.136   7.820   2.348
11695TIP3   OH234961   6.791   8.279   2.524
11695TIP3    H134962   6.753   8.367   2.547
11695TIP3    H234963   6.759   8.225   2.599
11696TIP3   OH234964   6.918   8.856   3.054
11696TIP3    H134965   6.962   8.927   3.003
11696TIP3    H234966   6.993   8.817   3.101
11697TIP3   OH234967   6.568   8.751   2.435
11697TIP3    H134968   6.483   8.759   2.482
11697TIP3    H234969   6.600   8.844   2.438
11698TIP3   OH234970   7.311   8.490   3.009
11698TIP3    H134971   7.303   8.490   3.107
11698TIP3    H234972   7.387   8.432   2.996
11699TIP3   OH234973   7.281   8.380   1.894
11699TIP3    H134974   7.336   8.356   1.973
11699TIP3    H234975   7.193   8.356   1.927
11700TIP3   OH234976   7.556   9.027   3.066
11700TIP3    H134977   7.481   8.965   3.062
11700TIP3    H234978   7.537   9.087   2.991
11701TIP3   OH234979   7.603   8.855   1.699
11701TIP3    H134980   7.649   8.925   1.651
11701TIP3    H234981   7.529   8.905   1.738
11702TIP3   OH234982   6.652   7.620   3.587
11702TIP3    H134983   6.557   7.639   3.594
11702TIP3    H234984   6.667   7.560   3.661
11703TIP3   OH234985   7.441   8.314   2.108
11703TIP3    H134986   7.431   8.249   2.181
11703TIP3    H234987   7.538   8.314   2.098
11704TIP3   OH234988   6.355   8.719   3.214
11704TIP3    H134989   6.407   8.641   3.240
11704TIP3    H234990   6.391   8.784   3.275
11705TIP3   OH234991   6.649   8.363   1.893
11705TIP3    H134992   6.662   8.271   1.865
11705TIP3    H234993   6.630   8.351   1.989
11706TIP3   OH234994   6.594   8.368   2.166
11706TIP3    H134995   6.663   8.339   2.228
11706TIP3    H234996   6.599   8.466   2.174
11707TIP3   OH234997   6.329   8.062   2.369
11707TIP3    H134998   6.263   8.105   2.427
11707TIP3    H234999   6.344   8.132   2.303
11708TIP3   OH235000   7.480   7.694   3.257
11708TIP3    H135001   7.556   7.738   3.299
11708TIP3    H235002   7.465   7.616   3.315
11709TIP3   OH235003   7.340   7.478   2.358
11709TIP3    H135004   7.352   7.563   2.307
11709TIP3    H235005   7.393   7.508   2.436
11710TIP3   OH235006   6.859   8.565   2.113
11710TIP3    H135007   6.773   8.592   2.151
11710TIP3    H235008   6.876   8.640   2.053
11711TIP3   OH235009   7.057   7.621   2.525
11711TIP3    H135010   7.113   7.700   2.510
11711TIP3    H235011   7.051   7.619   2.623
11712TIP3   OH235012   7.318   7.945   3.334
11712TIP3    H135013   7.328   8.005   3.411
11712TIP3    H235014   7.377   7.872   3.357
11713TIP3   OH235015   7.195   7.366   2.640
11713TIP3    H135016   7.173   7.426   2.713
11713TIP3    H235017   7.248   7.427   2.587
11714TIP3   OH235018   6.602   8.641   2.182
11714TIP3    H135019   6.572   8.711   2.119
11714TIP3    H235020   6.586   8.684   2.268
11715TIP3   OH235021   6.709   7.351   2.419
11715TIP3    H135022   6.706   7.442   2.454
11715TIP3    H235023   6.804   7.332   2.425
11716TIP3   OH235024   7.957   7.846   3.320
11716TIP3    H135025   7.859   7.844   3.322
11716TIP3    H235026   7.974   7.819   3.229
11717TIP3   OH235027   7.610   8.049   2.712
11717TIP3    H135028   7.538   7.984   2.716
11717TIP3    H235029   7.685   8.001   2.754
11718TIP3   OH235030   6.320   8.273   2.175
11718TIP3    H135031   6.387   8.343   2.184
11718TIP3    H235032   6.366   8.218   2.108
11719TIP3   OH235033   6.267   7.545   2.305
11719TIP3    H135034   6.261   7.643   2.303
11719TIP3    H235035   6.182   7.520   2.266
11720TIP3   OH235036   7.548   8.991   2.656
11720TIP3    H135037   7.508   9.040   2.581
11720TIP3    H235038   7.643   9.010   2.636
11721TIP3   OH235039   6.655   7.265   3.181
11721TIP3    H135040   6.620   7.234   3.095
11721TIP3    H235041   6.641   7.187   3.239
11722TIP3   OH235042   6.195   8.490   2.565
11722TIP3    H135043   6.118   8.517   2.617
11722TIP3    H235044   6.171   8.526   2.476
11723TIP3   OH235045   6.347   9.025   3.635
11723TIP3    H135046   6.434   9.024   3.680
11723TIP3    H235047   6.328   8.930   3.632
11724TIP3   OH235048   6.831   8.994   3.676
11724TIP3    H135049   6.924   8.970   3.686
11724TIP3    H235050   6.805   8.934   3.603
11725TIP3   OH235051   6.811   8.567   1.806
11725TIP3    H135052   6.754   8.497   1.846
11725TIP3    H235053   6.887   8.513   1.777
11726TIP3   OH235054   7.469   8.898   3.413
11726TIP3    H135055   7.456   8.826   3.479
11726TIP3    H235056   7.548   8.943   3.446
11727TIP3   OH235057   7.248   8.608   1.719
11727TIP3    H135058   7.293   8.546   1.778
11727TIP3    H235059   7.305   8.607   1.639
11728TIP3   OH235060   6.477   8.431   3.836
11728TIP3    H135061   6.497   8.335   3.837
11728TIP3    H235062   6.391   8.432   3.790
11729TIP3   OH235063   6.456   8.086   2.027
11729TIP3    H135064   6.510   8.051   2.100
11729TIP3    H235065   6.524   8.090   1.956
11730TIP3   OH235066   7.085   8.515   3.607
11730TIP3    H135067   7.043   8.529   3.520
11730TIP3    H235068   7.116   8.423   3.602
11731TIP3   OH235069   6.964   8.282   1.832
11731TIP3    H135070   6.967   8.295   1.929
11731TIP3    H235071   6.960   8.184   1.828
11732TIP3   OH235072   7.583   8.521   3.215
11732TIP3    H135073   7.650   8.574   3.169
11732TIP3    H235074   7.504   8.577   3.204
11733TIP3   OH235075   6.593   8.170   3.815
11733TIP3    H135076   6.667   8.117   3.783
11733TIP3    H235077   6.624   8.197   3.904
11734TIP3   OH235078   6.664   7.987   2.250
11734TIP3    H135079   6.635   7.952   2.336
11734TIP3    H235080   6.697   7.907   2.204
11735TIP3   OH235081   6.927   8.044   3.478
11735TIP3    H135082   6.850   8.104   3.490
11735TIP3    H235083   6.963   8.076   3.393
11736TIP3   OH235084   6.765   7.777   2.090
11736TIP3    H135085   6.736   7.783   1.996
11736TIP3    H235086   6.861   7.788   2.081
11737TIP3   OH235087   7.451   8.455   3.614
11737TIP3    H135088   7.529   8.430   3.564
11737TIP3    H235089   7.448   8.387   3.683
11738TIP3   OH235090   7.583   8.112   1.751
11738TIP3    H135091   7.562   8.066   1.667
11738TIP3    H235092   7.552   8.203   1.728
11739TIP3   OH235093   7.059   7.841   3.604
11739TIP3    H135094   7.055   7.761   3.547
11739TIP3    H235095   7.013   7.908   3.548
11740TIP3   OH235096   7.060   7.622   3.412
11740TIP3    H135097   7.082   7.671   3.331
11740TIP3    H235098   6.965   7.600   3.396
11741TIP3   OH235099   7.101   8.163   3.289
11741TIP3    H135100   7.170   8.170   3.222
11741TIP3    H235101   7.038   8.231   3.256
11742TIP3   OH235102   7.668   8.128   3.664
11742TIP3    H135103   7.720   8.048   3.680
11742TIP3    H235104   7.736   8.191   3.636
11743TIP3   OH235105   7.711   8.381   3.404
11743TIP3    H135106   7.653   8.433   3.344
11743TIP3    H235107   7.798   8.400   3.363
11744TIP3   OH235108   6.937   7.951   3.838
11744TIP3    H135109   6.865   7.885   3.848
11744TIP3    H235110   6.968   7.932   3.747
11745TIP3   OH235111   7.191   7.388   3.478
11745TIP3    H135112   7.143   7.471   3.455
11745TIP3    H235113   7.120   7.322   3.466
11746TIP3   OH235114   7.318   7.894   3.693
11746TIP3    H135115   7.304   7.884   3.789
11746TIP3    H235116   7.228   7.871   3.662
11747TIP3   OH235117   7.553   7.839   3.546
11747TIP3    H135118   7.479   7.846   3.609
11747TIP3    H235119   7.628   7.814   3.604
11748TIP3   OH235120   7.780   7.781   3.699
11748TIP3    H135121   7.796   7.688   3.723
11748TIP3    H235122   7.778   7.827   3.785
11749TIP3   OH235123   6.771   7.734   3.887
11749TIP3    H135124   6.780   7.645   3.847
11749TIP3    H235125   6.807   7.719   3.976
11750TIP3   OH235126   7.286   7.399   3.735
11750TIP3    H135127   7.352   7.327   3.727
11750TIP3    H235128   7.245   7.394   3.646
11751TIP3   OH235129   7.352   7.613   3.896
11751TIP3    H135130   7.328   7.544   3.830
11751TIP3    H235131   7.275   7.674   3.889
11752TIP3   OH235132   6.571   8.844   1.994
11752TIP3    H135133   6.667   8.840   1.975
11752TIP3    H235134   6.541   8.892   1.915
11753TIP3   OH235135   6.052   8.225   2.211
11753TIP3    H135136   6.146   8.247   2.197
11753TIP3    H235137   6.046   8.136   2.170
11754TIP3   OH235138   5.963   8.837   2.625
11754TIP3    H135139   5.898   8.774   2.589
11754TIP3    H235140   6.009   8.781   2.691
11755TIP3   OH235141   6.100   8.692   2.812
11755TIP3    H135142   6.093   8.615   2.871
11755TIP3    H235143   6.154   8.751   2.868
11756TIP3   OH235144   7.788   9.094   2.607
11756TIP3    H135145   7.832   9.113   2.692
11756TIP3    H235146   7.849   9.141   2.548
11757TIP3   OH235147   7.866   9.107   2.890
11757TIP3    H135148   7.816   9.022   2.887
11757TIP3    H235149   7.943   9.076   2.940
11758TIP3   OH235150   7.902   8.789   3.463
11758TIP3    H135151   7.832   8.793   3.531
11758TIP3    H235152   7.945   8.876   3.473
11759TIP3   OH235153   7.717   8.306   2.080
11759TIP3    H135154   7.794   8.362   2.055
11759TIP3    H235155   7.752   8.268   2.165
11760TIP3   OH235156   7.828   8.183   2.290
11760TIP3    H135157   7.770   8.122   2.339
11760TIP3    H235158   7.914   8.157   2.330
11761TIP3   OH235159   7.904   8.557   2.720
11761TIP3    H135160   7.955   8.490   2.670
11761TIP3    H235161   7.892   8.628   2.654
11762TIP3   OH235162   7.734   8.861   2.914
11762TIP3    H135163   7.661   8.898   2.968
11762TIP3    H235164   7.685   8.810   2.846
11763TIP3   OH235165   7.786   8.075   1.935
11763TIP3    H135166   7.712   8.082   1.870
11763TIP3    H235167   7.764   8.149   1.995
11764TIP3   OH235168   7.648   7.746   1.888
11764TIP3    H135169   7.612   7.790   1.810
11764TIP3    H235170   7.619   7.653   1.875
11765TIP3   OH235171   7.649   8.016   2.436
11765TIP3    H135172   7.706   7.937   2.439
11765TIP3    H235173   7.652   8.045   2.529
11766TIP3   OH235174   6.303   8.100   3.180
11766TIP3    H135175   6.289   8.062   3.090
11766TIP3    H235176   6.400   8.106   3.180
11767TIP3   OH235177   7.953   8.447   3.292
11767TIP3    H135178   8.024   8.381   3.284
11767TIP3    H235179   7.979   8.514   3.228
11768TIP3   OH235180   8.139   8.255   3.310
11768TIP3    H135181   8.064   8.204   3.348
11768TIP3    H235182   8.212   8.190   3.326
11769TIP3   OH235183   7.600   7.472   1.884
11769TIP3    H135184   7.693   7.466   1.917
11769TIP3    H235185   7.559   7.402   1.934
11770TIP3   OH235186   7.651   7.727   2.322
11770TIP3    H135187   7.701   7.644   2.339
11770TIP3    H235188   7.717   7.775   2.269
11771TIP3   OH235189   7.823   7.914   2.824
11771TIP3    H135190   7.910   7.936   2.783
11771TIP3    H235191   7.840   7.951   2.913
11772TIP3   OH235192   7.891   8.057   3.059
11772TIP3    H135193   7.812   8.091   3.106
11772TIP3    H235194   7.924   8.137   3.013
11773TIP3   OH235195   6.502   7.781   3.856
11773TIP3    H135196   6.600   7.778   3.855
11773TIP3    H235197   6.482   7.696   3.900
11774TIP3   OH235198   8.338   7.640   3.614
11774TIP3    H135199   8.399   7.579   3.569
11774TIP3    H235200   8.311   7.700   3.541
11775TIP3   OH235201   7.768   7.485   2.371
11775TIP3    H135202   7.821   7.474   2.453
11775TIP3    H235203   7.717   7.402   2.371
11776TIP3   OH235204   6.472   7.478   3.188
11776TIP3    H135205   6.537   7.407   3.199
11776TIP3    H235206   6.531   7.556   3.182
11777TIP3   OH235207   6.269   7.750   3.262
11777TIP3    H135208   6.319   7.740   3.178
11777TIP3    H235209   6.314   7.825   3.302
11778TIP3   OH235210   8.215   7.789   3.423
11778TIP3    H135211   8.129   7.829   3.448
11778TIP3    H235212   8.184   7.719   3.362
11779TIP3   OH235213   7.849   7.431   1.990
11779TIP3    H135214   7.901   7.357   1.954
11779TIP3    H235215   7.916   7.501   2.000
11780TIP3   OH235216   6.254   7.252   2.762
11780TIP3    H135217   6.160   7.250   2.787
11780TIP3    H235218   6.252   7.311   2.683
11781TIP3   OH235219   7.412   8.960   2.269
11781TIP3    H135220   7.460   8.939   2.186
11781TIP3    H235221   7.475   9.017   2.314
11782TIP3   OH235222   6.474   7.329   3.576
11782TIP3    H135223   6.423   7.328   3.659
11782TIP3    H235224   6.409   7.371   3.516
11783TIP3   OH235225   6.513   8.766   3.655
11783TIP3    H135226   6.424   8.730   3.635
11783TIP3    H235227   6.526   8.738   3.747
11784TIP3   OH235228   6.689   8.794   3.202
11784TIP3    H135229   6.645   8.871   3.161
11784TIP3    H235230   6.777   8.803   3.159
11785TIP3   OH235231   7.137   9.038   3.341
11785TIP3    H135232   7.181   9.037   3.429
11785TIP3    H235233   7.204   9.087   3.288
11786TIP3   OH235234   7.315   9.189   3.196
11786TIP3    H135235   7.383   9.135   3.153
11786TIP3    H235236   7.369   9.244   3.257
11787TIP3   OH235237   8.110   7.551   3.300
11787TIP3    H135238   8.021   7.550   3.262
11787TIP3    H235239   8.140   7.459   3.285
11788TIP3   OH235240   6.369   9.051   3.222
11788TIP3    H135241   6.280   9.086   3.201
11788TIP3    H235242   6.378   9.079   3.313
11789TIP3   OH235243   6.606   9.030   3.082
11789TIP3    H135244   6.519   9.042   3.126
11789TIP3    H235245   6.587   9.061   2.992
11790TIP3   OH235246   7.032   9.058   2.879
11790TIP3    H135247   6.962   9.077   2.814
11790TIP3    H235248   7.043   9.146   2.922
11791TIP3   OH235249   7.300   9.000   2.934
11791TIP3    H135250   7.205   9.013   2.912
11791TIP3    H235251   7.342   9.073   2.886
11792TIP3   OH235252   7.508   9.191   2.846
11792TIP3    H135253   7.498   9.274   2.796
11792TIP3    H235254   7.528   9.127   2.774
11793TIP3   OH235255   6.279   8.841   2.971
11793TIP3    H135256   6.308   8.817   3.062
11793TIP3    H235257   6.352   8.798   2.920
11794TIP3   OH235258   6.474   8.713   2.828
11794TIP3    H135259   6.490   8.628   2.874
11794TIP3    H235260   6.565   8.749   2.822
11795TIP3   OH235261   6.741   8.808   2.829
11795TIP3    H135262   6.771   8.716   2.817
11795TIP3    H235263   6.785   8.829   2.913
11796TIP3   OH235264   7.316   7.463   2.912
11796TIP3    H135265   7.274   7.397   2.969
11796TIP3    H235266   7.393   7.415   2.876
11797TIP3   OH235267   7.838   7.339   2.823
11797TIP3    H135268   7.878   7.392   2.750
11797TIP3    H235269   7.745   7.369   2.820
11798TIP3   OH235270   7.932   7.437   2.586
11798TIP3    H135271   8.006   7.386   2.546
11798TIP3    H235272   7.969   7.528   2.573
11799TIP3   OH235273   6.566   7.174   2.932
11799TIP3    H135274   6.473   7.142   2.933
11799TIP3    H235275   6.613   7.088   2.929
11800TIP3   OH235276   6.357   7.043   2.582
11800TIP3    H135277   6.379   7.101   2.508
11800TIP3    H235278   6.321   7.106   2.648
11801TIP3   OH235279   7.011   7.204   2.812
11801TIP3    H135280   7.069   7.264   2.763
11801TIP3    H235281   7.015   7.241   2.901
11802TIP3   OH235282   7.550   7.351   2.799
11802TIP3    H135283   7.565   7.310   2.713
11802TIP3    H235284   7.539   7.271   2.856
11803TIP3   OH235285   7.585   7.269   2.355
11803TIP3    H135286   7.511   7.320   2.390
11803TIP3    H235287   7.575   7.184   2.402
11804TIP3   OH235288   6.068   8.613   2.361
11804TIP3    H135289   5.984   8.579   2.326
11804TIP3    H235290   6.056   8.708   2.344
11805TIP3   OH235291   6.467   7.203   2.345
11805TIP3    H135292   6.516   7.141   2.288
11805TIP3    H235293   6.539   7.258   2.382
11806TIP3   OH235294   7.022   7.371   2.426
11806TIP3    H135295   7.034   7.333   2.515
11806TIP3    H235296   7.007   7.464   2.453
11807TIP3   OH235297   6.840   8.804   1.942
11807TIP3    H135298   6.929   8.825   1.907
11807TIP3    H235299   6.818   8.729   1.883
11808TIP3   OH235300   7.550   8.916   2.035
11808TIP3    H135301   7.543   8.818   2.022
11808TIP3    H235302   7.511   8.949   1.952
11809TIP3   OH235303   6.771   7.451   3.824
11809TIP3    H135304   6.739   7.382   3.884
11809TIP3    H235305   6.865   7.455   3.850
11810TIP3   OH235306   7.020   7.453   3.944
11810TIP3    H135307   7.105   7.429   3.903
11810TIP3    H235308   7.009   7.381   4.010
11811TIP3   OH235309   6.145   8.642   2.000
11811TIP3    H135310   6.146   8.665   2.094
11811TIP3    H235311   6.233   8.600   1.989
11812TIP3   OH235312   7.854   7.508   3.734
11812TIP3    H135313   7.895   7.460   3.806
11812TIP3    H235314   7.932   7.520   3.674
11813TIP3   OH235315   7.782   9.066   3.228
11813TIP3    H135316   7.707   9.029   3.177
11813TIP3    H235317   7.759   9.161   3.224
11814TIP3   OH235318   8.350   8.329   2.733
11814TIP3    H135319   8.379   8.263   2.799
11814TIP3    H235320   8.422   8.393   2.738
11815TIP3   OH235321   8.302   8.716   2.465
11815TIP3    H135322   8.317   8.619   2.460
11815TIP3    H235323   8.390   8.750   2.484
11816TIP3   OH235324   8.669   8.236   2.320
11816TIP3    H135325   8.763   8.210   2.308
11816TIP3    H235326   8.625   8.153   2.289
11817TIP3   OH235327   8.594   7.809   2.858
11817TIP3    H135328   8.539   7.837   2.783
11817TIP3    H235329   8.537   7.831   2.934
11818TIP3   OH235330   8.480   7.907   2.632
11818TIP3    H135331   8.534   7.987   2.645
11818TIP3    H235332   8.503   7.884   2.540
11819TIP3   OH235333   7.929   8.463   1.974
11819TIP3    H135334   7.868   8.502   1.910
11819TIP3    H235335   7.952   8.542   2.029
11820TIP3   OH235336   8.967   7.510   2.588
11820TIP3    H135337   8.922   7.425   2.591
11820TIP3    H235338   8.893   7.572   2.596
11821TIP3   OH235339   8.443   8.358   2.214
11821TIP3    H135340   8.409   8.312   2.135
11821TIP3    H235341   8.527   8.310   2.228
11822TIP3   OH235342   8.612   8.354   2.562
11822TIP3    H135343   8.607   8.311   2.474
11822TIP3    H235344   8.588   8.445   2.541
11823TIP3   OH235345   8.489   8.452   2.980
11823TIP3    H135346   8.491   8.536   3.031
11823TIP3    H235347   8.394   8.429   2.992
11824TIP3   OH235348   8.337   8.216   1.993
11824TIP3    H135349   8.254   8.244   1.949
11824TIP3    H235350   8.308   8.138   2.044
11825TIP3   OH235351   8.102   8.589   2.919
11825TIP3    H135352   8.036   8.567   2.850
11825TIP3    H235353   8.138   8.502   2.944
11826TIP3   OH235354   7.967   8.794   2.549
11826TIP3    H135355   8.060   8.773   2.532
11826TIP3    H235356   7.972   8.861   2.618
11827TIP3   OH235357   8.298   8.776   2.920
11827TIP3    H135358   8.352   8.742   2.994
11827TIP3    H235359   8.234   8.703   2.909
11828TIP3   OH235360   8.711   7.593   2.693
11828TIP3    H135361   8.617   7.572   2.677
11828TIP3    H235362   8.704   7.687   2.717
11829TIP3   OH235363   9.247   7.712   2.877
11829TIP3    H135364   9.315   7.696   2.945
11829TIP3    H235365   9.164   7.704   2.927
11830TIP3   OH235366   8.850   7.640   1.666
11830TIP3    H135367   8.818   7.647   1.758
11830TIP3    H235368   8.802   7.560   1.637
11831TIP3   OH235369   8.644   8.129   2.715
11831TIP3    H135370   8.581   8.133   2.790
11831TIP3    H235371   8.619   8.206   2.662
11832TIP3   OH235372   8.526   8.028   2.217
11832TIP3    H135373   8.442   7.985   2.244
11832TIP3    H235374   8.552   7.967   2.146
11833TIP3   OH235375   8.467   8.149   2.923
11833TIP3    H135376   8.482   8.206   3.000
11833TIP3    H235377   8.452   8.062   2.966
11834TIP3   OH235378   8.506   7.621   1.632
11834TIP3    H135379   8.506   7.619   1.730
11834TIP3    H235380   8.427   7.675   1.614
11835TIP3   OH235381   8.063   7.653   2.504
11835TIP3    H135382   8.120   7.708   2.561
11835TIP3    H235383   8.112   7.655   2.420
11836TIP3   OH235384   8.029   7.647   2.014
11836TIP3    H135385   8.086   7.691   1.948
11836TIP3    H235386   7.972   7.722   2.042
11837TIP3   OH235387   8.300   7.888   2.268
11837TIP3    H135388   8.220   7.894   2.321
11837TIP3    H235389   8.322   7.792   2.264
11838TIP3   OH235390   8.564   7.870   1.985
11838TIP3    H135391   8.655   7.902   1.973
11838TIP3    H235392   8.518   7.900   1.904
11839TIP3   OH235393   8.395   7.906   1.762
11839TIP3    H135394   8.314   7.863   1.733
11839TIP3    H235395   8.425   7.946   1.679
11840TIP3   OH235396   8.465   8.688   3.124
11840TIP3    H135397   8.543   8.733   3.158
11840TIP3    H235398   8.406   8.687   3.202
11841TIP3   OH235399   8.436   7.638   2.242
11841TIP3    H135400   8.431   7.563   2.305
11841TIP3    H235401   8.530   7.644   2.223
11842TIP3   OH235402   8.917   8.038   2.709
11842TIP3    H135403   8.832   8.078   2.684
11842TIP3    H235404   8.979   8.112   2.705
11843TIP3   OH235405   8.363   8.451   2.454
11843TIP3    H135406   8.375   8.415   2.363
11843TIP3    H235407   8.355   8.371   2.507
11844TIP3   OH235408   8.228   8.382   3.057
11844TIP3    H135409   8.245   8.369   3.152
11844TIP3    H235410   8.157   8.318   3.041
11845TIP3   OH235411   8.006   8.074   1.769
11845TIP3    H135412   8.054   8.156   1.791
11845TIP3    H235413   7.932   8.078   1.835
11846TIP3   OH235414   8.433   7.896   3.069
11846TIP3    H135415   8.337   7.895   3.082
11846TIP3    H235416   8.464   7.834   3.138
11847TIP3   OH235417   8.144   8.962   2.770
11847TIP3    H135418   8.165   8.880   2.817
11847TIP3    H235419   8.211   9.020   2.813
11848TIP3   OH235420   8.127   8.319   1.845
11848TIP3    H135421   8.066   8.371   1.902
11848TIP3    H235422   8.194   8.385   1.820
11849TIP3   OH235423   8.847   7.878   2.028
11849TIP3    H135424   8.926   7.933   2.029
11849TIP3    H235425   8.837   7.861   2.125
11850TIP3   OH235426   8.996   7.613   2.117
11850TIP3    H135427   8.960   7.662   2.195
11850TIP3    H235428   9.045   7.687   2.077
11851TIP3   OH235429   8.500   7.607   1.903
11851TIP3    H135430   8.494   7.693   1.949
11851TIP3    H235431   8.594   7.588   1.920
11852TIP3   OH235432   8.069   7.806   1.783
11852TIP3    H135433   8.065   7.903   1.786
11852TIP3    H235434   7.976   7.783   1.775
11853TIP3   OH235435   8.444   7.526   2.673
11853TIP3    H135436   8.416   7.495   2.584
11853TIP3    H235437   8.435   7.445   2.727
11854TIP3   OH235438   7.959   8.717   2.069
11854TIP3    H135439   7.891   8.777   2.103
11854TIP3    H235440   7.973   8.752   1.980
11855TIP3   OH235441   8.120   9.263   3.173
11855TIP3    H135442   8.215   9.247   3.159
11855TIP3    H235443   8.087   9.176   3.143
11856TIP3   OH235444   8.273   8.688   3.322
11856TIP3    H135445   8.289   8.592   3.332
11856TIP3    H235446   8.186   8.688   3.277
11857TIP3   OH235447   8.396   8.424   3.301
11857TIP3    H135448   8.465   8.358   3.287
11857TIP3    H235449   8.419   8.454   3.392
11858TIP3   OH235450   8.441   8.207   1.710
11858TIP3    H135451   8.409   8.184   1.799
11858TIP3    H235452   8.513   8.143   1.695
11859TIP3   OH235453   8.731   8.318   2.956
11859TIP3    H135454   8.649   8.370   2.972
11859TIP3    H235455   8.721   8.291   2.864
11860TIP3   OH235456   8.842   8.093   3.093
11860TIP3    H135457   8.848   8.011   3.038
11860TIP3    H235458   8.812   8.159   3.027
11861TIP3   OH235459   8.851   7.874   2.912
11861TIP3    H135460   8.882   7.921   2.831
11861TIP3    H235461   8.759   7.852   2.887
11862TIP3   OH235462   8.729   8.209   3.317
11862TIP3    H135463   8.659   8.143   3.334
11862TIP3    H235464   8.763   8.178   3.230
11863TIP3   OH235465   8.987   7.645   2.968
11863TIP3    H135466   8.940   7.727   2.945
11863TIP3    H235467   8.919   7.577   2.950
11864TIP3   OH235468   9.088   8.186   3.204
11864TIP3    H135469   9.068   8.147   3.291
11864TIP3    H235470   9.008   8.158   3.155
11865TIP3   OH235471   8.569   7.990   3.373
11865TIP3    H135472   8.578   7.901   3.335
11865TIP3    H235473   8.604   7.976   3.463
11866TIP3   OH235474   9.079   7.652   3.224
11866TIP3    H135475   9.148   7.583   3.215
11866TIP3    H235476   9.041   7.650   3.134
11867TIP3   OH235477   9.137   7.864   3.386
11867TIP3    H135478   9.122   7.796   3.317
11867TIP3    H235479   9.061   7.924   3.373
11868TIP3   OH235480   7.846   8.483   1.680
11868TIP3    H135481   7.940   8.494   1.700
11868TIP3    H235482   7.843   8.389   1.651
11869TIP3   OH235483   7.743   9.092   2.116
11869TIP3    H135484   7.685   9.021   2.081
11869TIP3    H235485   7.804   9.040   2.173
11870TIP3   OH235486   7.889   8.940   2.293
11870TIP3    H135487   7.891   8.866   2.356
11870TIP3    H235488   7.934   9.009   2.343
11871TIP3   OH235489   8.084   8.348   2.665
11871TIP3    H135490   8.079   8.295   2.584
11871TIP3    H235491   8.181   8.351   2.681
11872TIP3   OH235492   8.302   8.040   3.343
11872TIP3    H135493   8.399   8.034   3.345
11872TIP3    H235494   8.279   7.956   3.386
11873TIP3   OH235495   8.260   7.736   2.686
11873TIP3    H135496   8.326   7.664   2.688
11873TIP3    H235497   8.317   7.813   2.669
11874TIP3   OH235498   8.076   7.997   2.762
11874TIP3    H135499   8.070   7.988   2.664
11874TIP3    H235500   8.115   8.085   2.767
11875TIP3   OH235501   8.043   7.490   2.234
11875TIP3    H135502   7.961   7.513   2.279
11875TIP3    H235503   8.051   7.561   2.166
11876TIP3   OH235504   8.269   7.587   3.064
11876TIP3    H135505   8.218   7.588   3.146
11876TIP3    H235506   8.205   7.628   3.002
11877TIP3   OH235507   8.297   9.034   3.194
11877TIP3    H135508   8.236   8.999   3.128
11877TIP3    H235509   8.288   8.970   3.266
11878TIP3   OH235510   8.364   7.430   2.427
11878TIP3    H135511   8.271   7.399   2.423
11878TIP3    H235512   8.412   7.345   2.417
11879TIP3   OH235513   8.136   7.298   2.059
11879TIP3    H135514   8.176   7.359   1.995
11879TIP3    H235515   8.111   7.360   2.131
11880TIP3   OH235516   8.805   7.457   2.307
11880TIP3    H135517   8.854   7.518   2.250
11880TIP3    H235518   8.794   7.516   2.383
11881TIP3   OH235519   9.421   7.502   2.225
11881TIP3    H135520   9.388   7.593   2.228
11881TIP3    H235521   9.369   7.465   2.300
11882TIP3   OH235522   7.832   8.863   1.858
11882TIP3    H135523   7.759   8.809   1.823
11882TIP3    H235524   7.808   8.949   1.820
11883TIP3   OH235525   8.263   7.462   1.829
11883TIP3    H135526   8.317   7.402   1.775
11883TIP3    H235527   8.333   7.517   1.871
11884TIP3   OH235528   8.778   7.630   1.934
11884TIP3    H135529   8.840   7.591   1.999
11884TIP3    H235530   8.788   7.725   1.961
11885TIP3   OH235531   8.569   7.710   3.310
11885TIP3    H135532   8.536   7.641   3.369
11885TIP3    H235533   8.663   7.712   3.335
11886TIP3   OH235534   8.818   7.709   3.430
11886TIP3    H135535   8.902   7.686   3.387
11886TIP3    H235536   8.809   7.636   3.495
11887TIP3   OH235537   9.587   7.747   3.242
11887TIP3    H135538   9.640   7.750   3.323
11887TIP3    H235539   9.651   7.773   3.174
11888TIP3   OH235540   0.540   8.531   4.619
11888TIP3    H135541   0.498   8.615   4.642
11888TIP3    H235542   0.542   8.539   4.522
11889TIP3   OH235543   0.799   8.437   5.313
11889TIP3    H135544   0.853   8.372   5.263
11889TIP3    H235545   0.760   8.490   5.240
11890TIP3   OH235546   0.665   8.576   5.114
11890TIP3    H135547   0.574   8.605   5.123
11890TIP3    H235548   0.656   8.505   5.048
11891TIP3   OH235549   0.298   8.222   3.690
11891TIP3    H135550   0.337   8.144   3.646
11891TIP3    H235551   0.370   8.288   3.683
11892TIP3   OH235552   0.559   8.334   4.985
11892TIP3    H135553   0.467   8.336   4.958
11892TIP3    H235554   0.583   8.241   4.970
11893TIP3   OH235555   0.380   8.223   4.250
11893TIP3    H135556   0.466   8.187   4.223
11893TIP3    H235557   0.401   8.318   4.260
11894TIP3   OH235558   0.463   8.733   3.931
11894TIP3    H135559   0.451   8.822   3.965
11894TIP3    H235560   0.409   8.681   3.992
11895TIP3   OH235561   2.312   8.771   4.105
11895TIP3    H135562   2.344   8.851   4.150
11895TIP3    H235563   2.336   8.790   4.013
11896TIP3   OH235564   1.715   8.953   4.132
11896TIP3    H135565   1.756   8.867   4.156
11896TIP3    H235566   1.678   8.930   4.045
11897TIP3   OH235567   1.052   8.612   4.107
11897TIP3    H135568   1.033   8.686   4.045
11897TIP3    H235569   1.003   8.540   4.062
11898TIP3   OH235570   1.746   8.699   3.730
11898TIP3    H135571   1.819   8.684   3.795
11898TIP3    H235572   1.797   8.739   3.657
11899TIP3   OH235573   0.674   8.797   4.215
11899TIP3    H135574   0.757   8.793   4.265
11899TIP3    H235575   0.700   8.758   4.130
11900TIP3   OH235576   1.142   9.016   3.987
11900TIP3    H135577   1.225   8.978   4.020
11900TIP3    H235578   1.090   8.937   3.962
11901TIP3   OH235579   2.397   8.970   4.279
11901TIP3    H135580   2.318   9.020   4.249
11901TIP3    H235581   2.407   9.005   4.369
11902TIP3   OH235582   1.048   8.595   4.542
11902TIP3    H135583   0.986   8.629   4.474
11902TIP3    H235584   0.998   8.615   4.624
11903TIP3   OH235585   1.957   8.706   3.899
11903TIP3    H135586   1.949   8.659   3.983
11903TIP3    H235587   2.008   8.786   3.926
11904TIP3   OH235588   0.919   8.707   4.327
11904TIP3    H135589   0.979   8.783   4.342
11904TIP3    H235590   0.966   8.665   4.251
11905TIP3   OH235591   2.108   8.671   4.272
11905TIP3    H135592   2.021   8.702   4.242
11905TIP3    H235593   2.168   8.704   4.202
11906TIP3   OH235594   1.407   8.317   4.254
11906TIP3    H135595   1.392   8.222   4.271
11906TIP3    H235596   1.330   8.356   4.301
11907TIP3   OH235597   1.298   8.830   3.259
11907TIP3    H135598   1.348   8.902   3.297
11907TIP3    H235599   1.358   8.798   3.189
11908TIP3   OH235600   1.942   9.199   4.383
11908TIP3    H135601   1.955   9.282   4.336
11908TIP3    H235602   1.850   9.175   4.354
11909TIP3   OH235603   2.038   8.260   3.355
11909TIP3    H135604   1.957   8.279   3.407
11909TIP3    H235605   2.050   8.344   3.307
11910TIP3   OH235606   2.166   9.162   4.568
11910TIP3    H135607   2.086   9.156   4.513
11910TIP3    H235608   2.193   9.068   4.572
11911TIP3   OH235609   1.169   8.391   4.384
11911TIP3    H135610   1.080   8.359   4.359
11911TIP3    H235611   1.144   8.475   4.427
11912TIP3   OH235612   1.700   8.507   4.577
11912TIP3    H135613   1.768   8.480   4.642
11912TIP3    H235614   1.616   8.487   4.623
11913TIP3   OH235615   1.940   8.924   4.498
11913TIP3    H135616   1.893   8.919   4.584
11913TIP3    H235617   1.911   9.010   4.463
11914TIP3   OH235618   1.316   8.438   3.355
11914TIP3    H135619   1.281   8.438   3.446
11914TIP3    H235620   1.275   8.356   3.322
11915TIP3   OH235621   1.090   8.915   4.391
11915TIP3    H135622   1.032   8.923   4.470
11915TIP3    H235623   1.066   8.994   4.340
11916TIP3   OH235624   0.984   8.791   3.917
11916TIP3    H135625   0.890   8.767   3.931
11916TIP3    H235626   0.998   8.755   3.827
11917TIP3   OH235627   1.484   8.881   3.645
11917TIP3    H135628   1.403   8.931   3.624
11917TIP3    H235629   1.522   8.862   3.558
11918TIP3   OH235630   1.656   9.142   4.723
11918TIP3    H135631   1.644   9.068   4.786
11918TIP3    H235632   1.745   9.174   4.749
11919TIP3   OH235633   1.620   8.896   3.884
11919TIP3    H135634   1.561   8.912   3.807
11919TIP3    H235635   1.665   8.816   3.848
11920TIP3   OH235636   0.936   8.937   4.635
11920TIP3    H135637   0.885   8.981   4.705
11920TIP3    H235638   0.911   8.844   4.653
11921TIP3   OH235639   0.967   8.412   3.322
11921TIP3    H135640   0.962   8.412   3.420
11921TIP3    H235641   0.890   8.466   3.299
11922TIP3   OH235642   0.514   8.463   4.168
11922TIP3    H135643   0.575   8.495   4.238
11922TIP3    H235644   0.574   8.410   4.114
11923TIP3   OH235645   0.483   8.453   3.717
11923TIP3    H135646   0.523   8.476   3.631
11923TIP3    H235647   0.454   8.541   3.743
11924TIP3   OH235648   1.689   9.138   4.323
11924TIP3    H135649   1.690   9.070   4.253
11924TIP3    H235650   1.616   9.105   4.379
11925TIP3   OH235651   1.307   8.607   3.976
11925TIP3    H135652   1.224   8.612   4.027
11925TIP3    H235653   1.373   8.625   4.046
11926TIP3   OH235654   0.741   8.674   3.975
11926TIP3    H135655   0.646   8.669   3.949
11926TIP3    H235656   0.772   8.582   3.963
11927TIP3   OH235657   1.018   8.666   3.674
11927TIP3    H135658   1.109   8.690   3.650
11927TIP3    H235659   0.966   8.691   3.595
11928TIP3   OH235660   1.798   8.691   4.179
11928TIP3    H135661   1.764   8.702   4.270
11928TIP3    H235662   1.732   8.628   4.143
11929TIP3   OH235663   0.844   8.680   3.456
11929TIP3    H135664   0.781   8.649   3.389
11929TIP3    H235665   0.890   8.750   3.406
11930TIP3   OH235666   1.386   8.918   4.069
11930TIP3    H135667   1.471   8.903   4.026
11930TIP3    H235668   1.407   8.910   4.163
11931TIP3   OH235669   0.913   8.434   3.953
11931TIP3    H135670   0.881   8.352   3.998
11931TIP3    H235671   0.964   8.398   3.879
11932TIP3   OH235672   1.366   8.830   4.373
11932TIP3    H135673   1.280   8.875   4.367
11932TIP3    H235674   1.423   8.898   4.416
11933TIP3   OH235675   1.561   8.553   3.319
11933TIP3    H135676   1.466   8.530   3.330
11933TIP3    H235677   1.565   8.648   3.342
11934TIP3   OH235678   1.632   8.810   3.409
11934TIP3    H135679   1.724   8.795   3.440
11934TIP3    H235680   1.641   8.892   3.360
11935TIP3   OH235681   1.404   9.162   4.841
11935TIP3    H135682   1.333   9.213   4.797
11935TIP3    H235683   1.464   9.142   4.768
11936TIP3   OH235684   2.067   8.863   3.270
11936TIP3    H135685   2.003   8.825   3.206
11936TIP3    H235686   2.092   8.943   3.222
11937TIP3   OH235687   0.898   8.679   4.761
11937TIP3    H135688   0.802   8.668   4.774
11937TIP3    H235689   0.927   8.610   4.823
11938TIP3   OH235690   1.724   8.745   4.439
11938TIP3    H135691   1.807   8.779   4.476
11938TIP3    H235692   1.709   8.663   4.491
11939TIP3   OH235693   1.608   8.493   3.600
11939TIP3    H135694   1.593   8.519   3.508
11939TIP3    H235695   1.647   8.574   3.640
11940TIP3   OH235696   1.305   8.672   3.706
11940TIP3    H135697   1.371   8.742   3.693
11940TIP3    H235698   1.302   8.664   3.803
11941TIP3   OH235699   1.554   8.986   4.510
11941TIP3    H135700   1.587   9.040   4.585
11941TIP3    H235701   1.610   8.907   4.515
11942TIP3   OH235702   1.441   8.401   3.809
11942TIP3    H135703   1.429   8.478   3.868
11942TIP3    H235704   1.501   8.439   3.741
11943TIP3   OH235705   0.953   8.398   3.598
11943TIP3    H135706   0.948   8.491   3.628
11943TIP3    H235707   1.049   8.382   3.608
11944TIP3   OH235708   2.209   8.896   4.497
11944TIP3    H135709   2.112   8.887   4.503
11944TIP3    H235710   2.224   8.857   4.410
11945TIP3   OH235711   1.849   9.069   3.861
11945TIP3    H135712   1.779   9.015   3.899
11945TIP3    H235713   1.925   9.047   3.919
11946TIP3   OH235714   0.507   8.591   3.485
11946TIP3    H135715   0.525   8.685   3.471
11946TIP3    H235716   0.431   8.572   3.428
11947TIP3   OH235717   0.909   8.304   4.360
11947TIP3    H135718   0.872   8.279   4.274
11947TIP3    H235719   0.887   8.227   4.416
11948TIP3   OH235720   0.878   9.200   4.962
11948TIP3    H135721   0.904   9.114   4.997
11948TIP3    H235722   0.871   9.256   5.043
11949TIP3   OH235723   1.183   9.056   4.614
11949TIP3    H135724   1.091   9.026   4.623
11949TIP3    H235725   1.198   9.050   4.518
11950TIP3   OH235726   1.014   8.826   3.297
11950TIP3    H135727   0.991   8.770   3.219
11950TIP3    H235728   1.111   8.821   3.297
11951TIP3   OH235729   1.308   8.870   4.787
11951TIP3    H135730   1.309   8.788   4.734
11951TIP3    H235731   1.271   8.934   4.723
11952TIP3   OH235732   1.308   8.664   4.589
11952TIP3    H135733   1.335   8.711   4.507
11952TIP3    H235734   1.213   8.645   4.570
11953TIP3   OH235735   1.929   9.183   4.837
11953TIP3    H135736   1.946   9.091   4.862
11953TIP3    H235737   2.017   9.211   4.808
11954TIP3   OH235738   1.172   9.003   5.005
11954TIP3    H135739   1.113   8.925   5.016
11954TIP3    H235740   1.219   8.981   4.923
11955TIP3   OH235741   1.441   8.432   4.653
11955TIP3    H135742   1.393   8.515   4.631
11955TIP3    H235743   1.371   8.365   4.641
11956TIP3   OH235744   1.575   8.923   4.870
11956TIP3    H135745   1.563   8.922   4.967
11956TIP3    H235746   1.481   8.909   4.843
11957TIP3   OH235747   1.810   8.884   4.730
11957TIP3    H135748   1.731   8.879   4.788
11957TIP3    H235749   1.882   8.852   4.789
11958TIP3   OH235750   2.038   8.829   4.880
11958TIP3    H135751   2.049   8.734   4.899
11958TIP3    H235752   2.032   8.869   4.970
11959TIP3   OH235753   1.028   8.776   5.062
11959TIP3    H135754   1.031   8.686   5.024
11959TIP3    H235755   1.061   8.761   5.152
11960TIP3   OH235756   1.533   8.442   4.912
11960TIP3    H135757   1.602   8.373   4.906
11960TIP3    H235758   1.494   8.437   4.823
11961TIP3   OH235759   1.600   8.659   5.071
11961TIP3    H135760   1.577   8.589   5.006
11961TIP3    H235761   1.523   8.719   5.065
11962TIP3   OH235762   1.896   8.802   3.061
11962TIP3    H135763   1.879   8.815   2.967
11962TIP3    H235764   1.877   8.705   3.068
11963TIP3   OH235765   1.934   9.049   3.608
11963TIP3    H135766   1.941   8.953   3.617
11963TIP3    H235767   1.912   9.074   3.701
11964TIP3   OH235768   2.377   9.320   4.501
11964TIP3    H135769   2.302   9.263   4.526
11964TIP3    H235770   2.451   9.256   4.502
11965TIP3   OH235771   1.848   8.536   3.062
11965TIP3    H135772   1.927   8.499   3.107
11965TIP3    H235773   1.778   8.471   3.080
11966TIP3   OH235774   1.901   8.775   3.503
11966TIP3    H135775   1.941   8.687   3.521
11966TIP3    H235776   1.962   8.808   3.435
11967TIP3   OH235777   2.068   8.954   3.992
11967TIP3    H135778   2.153   8.983   3.952
11967TIP3    H235779   2.084   8.990   4.082
11968TIP3   OH235780   2.145   9.083   4.223
11968TIP3    H135781   2.070   9.114   4.277
11968TIP3    H235782   2.195   9.167   4.210
11969TIP3   OH235783   0.764   8.841   5.051
11969TIP3    H135784   0.859   8.823   5.043
11969TIP3    H235785   0.730   8.753   5.074
11970TIP3   OH235786   2.583   8.689   4.791
11970TIP3    H135787   2.647   8.625   4.751
11970TIP3    H235788   2.564   8.748   4.715
11971TIP3   OH235789   2.016   8.532   3.546
11971TIP3    H135790   2.065   8.517   3.629
11971TIP3    H235791   1.956   8.454   3.546
11972TIP3   OH235792   0.714   8.509   4.348
11972TIP3    H135793   0.781   8.443   4.377
11972TIP3    H235794   0.765   8.591   4.354
11973TIP3   OH235795   0.547   8.795   4.462
11973TIP3    H135796   0.578   8.790   4.370
11973TIP3    H235797   0.517   8.887   4.467
11974TIP3   OH235798   2.463   8.838   4.595
11974TIP3    H135799   2.372   8.871   4.609
11974TIP3    H235800   2.443   8.761   4.538
11975TIP3   OH235801   2.098   8.470   3.174
11975TIP3    H135802   2.139   8.395   3.126
11975TIP3    H235803   2.169   8.538   3.172
11976TIP3   OH235804   0.508   8.285   3.925
11976TIP3    H135805   0.431   8.312   3.976
11976TIP3    H235806   0.507   8.350   3.852
11977TIP3   OH235807   0.730   8.463   4.810
11977TIP3    H135808   0.670   8.408   4.864
11977TIP3    H235809   0.679   8.465   4.726
11978TIP3   OH235810   2.360   8.596   4.475
11978TIP3    H135811   2.269   8.589   4.441
11978TIP3    H235812   2.392   8.503   4.463
11979TIP3   OH235813   1.570   8.512   4.096
11979TIP3    H135814   1.521   8.444   4.145
11979TIP3    H235815   1.638   8.459   4.050
11980TIP3   OH235816   2.089   8.387   3.997
11980TIP3    H135817   2.126   8.442   3.924
11980TIP3    H235818   1.994   8.408   3.992
11981TIP3   OH235819   2.184   8.493   3.762
11981TIP3    H135820   2.257   8.441   3.722
11981TIP3    H235821   2.217   8.585   3.747
11982TIP3   OH235822   0.813   8.219   4.109
11982TIP3    H135823   0.722   8.182   4.110
11982TIP3    H235824   0.864   8.136   4.106
11983TIP3   OH235825   0.601   8.083   3.756
11983TIP3    H135826   0.629   8.142   3.684
11983TIP3    H235827   0.571   8.149   3.823
11984TIP3   OH235828   1.257   8.249   3.991
11984TIP3    H135829   1.314   8.302   3.932
11984TIP3    H235830   1.274   8.291   4.076
11985TIP3   OH235831   1.806   8.397   3.974
11985TIP3    H135832   1.802   8.360   3.885
11985TIP3    H235833   1.791   8.317   4.029
11986TIP3   OH235834   1.833   8.319   3.536
11986TIP3    H135835   1.746   8.362   3.549
11986TIP3    H235836   1.819   8.234   3.583
11987TIP3   OH235837   0.716   8.248   3.524
11987TIP3    H135838   0.766   8.187   3.467
11987TIP3    H235839   0.789   8.304   3.559
11988TIP3   OH235840   1.230   8.423   3.620
11988TIP3    H135841   1.290   8.378   3.681
11988TIP3    H235842   1.249   8.516   3.645
11989TIP3   OH235843   1.025   8.497   4.998
11989TIP3    H135844   0.987   8.433   5.060
11989TIP3    H235845   1.118   8.499   5.029
11990TIP3   OH235846   1.270   8.496   5.122
11990TIP3    H135847   1.356   8.475   5.081
11990TIP3    H235848   1.261   8.423   5.187
11991TIP3   OH235849   2.095   8.557   4.908
11991TIP3    H135850   2.114   8.526   4.999
11991TIP3    H235851   2.183   8.554   4.867
11992TIP3   OH235852   2.272   9.007   3.420
11992TIP3    H135853   2.242   9.059   3.496
11992TIP3    H235854   2.203   8.941   3.409
11993TIP3   OH235855   4.110   9.028   3.592
11993TIP3    H135856   4.142   9.110   3.635
11993TIP3    H235857   4.129   9.046   3.499
11994TIP3   OH235858   3.510   9.212   3.622
11994TIP3    H135859   3.552   9.127   3.645
11994TIP3    H235860   3.474   9.191   3.534
11995TIP3   OH235861   2.848   8.868   3.594
11995TIP3    H135862   2.830   8.942   3.531
11995TIP3    H235863   2.800   8.796   3.548
11996TIP3   OH235864   3.541   8.958   3.217
11996TIP3    H135865   3.615   8.942   3.280
11996TIP3    H235866   3.592   8.994   3.142
11997TIP3   OH235867   2.471   9.054   3.706
11997TIP3    H135868   2.557   9.045   3.751
11997TIP3    H235869   2.493   9.016   3.619
11998TIP3   OH235870   2.935   9.271   3.478
11998TIP3    H135871   3.020   9.235   3.508
11998TIP3    H235872   2.886   9.192   3.451
11999TIP3   OH235873   4.197   9.231   3.763
11999TIP3    H135874   4.116   9.278   3.733
11999TIP3    H235875   4.197   9.255   3.857
12000TIP3   OH235876   2.845   8.852   4.028
12000TIP3    H135877   2.782   8.886   3.960
12000TIP3    H235878   2.794   8.869   4.110
12001TIP3   OH235879   3.753   8.962   3.386
12001TIP3    H135880   3.748   8.912   3.468
12001TIP3    H235881   3.804   9.041   3.413
12002TIP3   OH235882   2.712   8.961   3.812
12002TIP3    H135883   2.771   9.037   3.831
12002TIP3    H235884   2.762   8.920   3.738
12003TIP3   OH235885   3.903   8.931   3.760
12003TIP3    H135886   3.816   8.958   3.728
12003TIP3    H235887   3.963   8.962   3.688
12004TIP3   OH235888   3.202   8.573   3.740
12004TIP3    H135889   3.190   8.478   3.758
12004TIP3    H235890   3.125   8.611   3.788
12005TIP3   OH235891   3.189   9.136   2.735
12005TIP3    H135892   3.187   9.216   2.796
12005TIP3    H235893   3.092   9.113   2.733
12006TIP3   OH235894   3.739   9.456   3.869
12006TIP3    H135895   3.752   9.540   3.822
12006TIP3    H235896   3.649   9.431   3.838
12007TIP3   OH235897   3.835   8.516   2.843
12007TIP3    H135898   3.754   8.536   2.894
12007TIP3    H235899   3.848   8.599   2.794
12008TIP3   OH235900   3.962   9.419   4.055
12008TIP3    H135901   3.882   9.413   4.000
12008TIP3    H235902   3.989   9.325   4.058
12009TIP3   OH235903   2.963   8.647   3.869
12009TIP3    H135904   2.872   8.618   3.845
12009TIP3    H235905   2.940   8.731   3.915
12010TIP3   OH235906   3.497   8.765   4.064
12010TIP3    H135907   3.564   8.736   4.129
12010TIP3    H235908   3.412   8.745   4.109
12011TIP3   OH235909   3.739   9.182   3.987
12011TIP3    H135910   3.690   9.177   4.073
12011TIP3    H235911   3.707   9.265   3.950
12012TIP3   OH235912   3.111   8.695   2.839
12012TIP3    H135913   3.075   8.695   2.930
12012TIP3    H235914   3.074   8.609   2.808
12013TIP3   OH235915   2.885   9.165   3.868
12013TIP3    H135916   2.849   9.179   3.957
12013TIP3    H235917   2.874   9.251   3.825
12014TIP3   OH235918   2.779   9.048   3.403
12014TIP3    H135919   2.686   9.021   3.418
12014TIP3    H235920   2.793   9.012   3.313
12015TIP3   OH235921   3.276   9.141   3.132
12015TIP3    H135922   3.197   9.185   3.098
12015TIP3    H235923   3.326   9.118   3.050
12016TIP3   OH235924   3.457   9.406   4.219
12016TIP3    H135925   3.440   9.328   4.277
12016TIP3    H235926   3.552   9.421   4.237
12017TIP3   OH235927   3.417   9.153   3.371
12017TIP3    H135928   3.359   9.171   3.294
12017TIP3    H235929   3.461   9.073   3.334
12018TIP3   OH235930   2.711   9.189   4.118
12018TIP3    H135931   2.699   9.229   4.204
12018TIP3    H235932   2.690   9.096   4.139
12019TIP3   OH235933   2.757   8.654   2.818
12019TIP3    H135934   2.757   8.661   2.916
12019TIP3    H235935   2.684   8.715   2.797
12020TIP3   OH235936   2.305   8.720   3.672
12020TIP3    H135937   2.378   8.749   3.731
12020TIP3    H235938   2.352   8.677   3.599
12021TIP3   OH235939   2.284   8.690   3.201
12021TIP3    H135940   2.325   8.728   3.120
12021TIP3    H235941   2.224   8.763   3.223
12022TIP3   OH235942   3.485   9.398   3.814
12022TIP3    H135943   3.486   9.332   3.741
12022TIP3    H235944   3.415   9.359   3.870
12023TIP3   OH235945   3.104   8.867   3.463
12023TIP3    H135946   3.022   8.869   3.516
12023TIP3    H235947   3.171   8.878   3.532
12024TIP3   OH235948   2.539   8.929   3.467
12024TIP3    H135949   2.446   8.930   3.437
12024TIP3    H235950   2.569   8.838   3.449
12025TIP3   OH235951   2.817   8.926   3.159
12025TIP3    H135952   2.914   8.940   3.149
12025TIP3    H235953   2.784   8.958   3.073
12026TIP3   OH235954   3.595   8.949   3.668
12026TIP3    H135955   3.559   8.959   3.759
12026TIP3    H235956   3.532   8.885   3.630
12027TIP3   OH235957   2.608   8.892   2.941
12027TIP3    H135958   2.553   8.881   2.863
12027TIP3    H235959   2.666   8.966   2.916
12028TIP3   OH235960   3.183   9.179   3.555
12028TIP3    H135961   3.266   9.159   3.511
12028TIP3    H235962   3.203   9.163   3.649
12029TIP3   OH235963   2.709   8.690   3.438
12029TIP3    H135964   2.679   8.609   3.484
12029TIP3    H235965   2.758   8.655   3.363
12030TIP3   OH235966   3.164   9.088   3.857
12030TIP3    H135967   3.077   9.130   3.853
12030TIP3    H235968   3.219   9.155   3.902
12031TIP3   OH235969   3.358   8.811   2.805
12031TIP3    H135970   3.262   8.790   2.812
12031TIP3    H235971   3.361   8.905   2.832
12032TIP3   OH235972   3.431   9.063   2.908
12032TIP3    H135973   3.525   9.058   2.931
12032TIP3    H235974   3.428   9.135   2.843
12033TIP3   OH235975   3.195   9.407   4.289
12033TIP3    H135976   3.145   9.482   4.252
12033TIP3    H235977   3.268   9.397   4.227
12034TIP3   OH235978   3.870   9.128   2.755
12034TIP3    H135979   3.811   9.086   2.688
12034TIP3    H235980   3.876   9.217   2.717
12035TIP3   OH235981   2.685   8.931   4.245
12035TIP3    H135982   2.588   8.930   4.260
12035TIP3    H235983   2.717   8.874   4.317
12036TIP3   OH235984   3.518   9.004   3.929
12036TIP3    H135985   3.604   9.033   3.963
12036TIP3    H235986   3.503   8.921   3.979
12037TIP3   OH235987   3.403   8.752   3.087
12037TIP3    H135988   3.391   8.776   2.993
12037TIP3    H235989   3.439   8.834   3.125
12038TIP3   OH235990   3.096   8.931   3.193
12038TIP3    H135991   3.167   8.997   3.179
12038TIP3    H235992   3.098   8.920   3.291
12039TIP3   OH235993   3.354   9.244   3.999
12039TIP3    H135994   3.387   9.289   4.078
12039TIP3    H235995   3.405   9.161   3.999
12040TIP3   OH235996   3.237   8.658   3.294
12040TIP3    H135997   3.231   8.733   3.356
12040TIP3    H235998   3.298   8.695   3.226
12041TIP3   OH235999   2.748   8.652   3.097
12041TIP3    H136000   2.741   8.746   3.120
12041TIP3    H236001   2.845   8.640   3.103
12042TIP3   OH236002   4.007   9.153   3.979
12042TIP3    H136003   3.910   9.146   3.990
12042TIP3    H236004   4.016   9.107   3.894
12043TIP3   OH236005   3.643   9.328   3.351
12043TIP3    H136006   3.574   9.267   3.382
12043TIP3    H236007   3.720   9.302   3.407
12044TIP3   OH236008   2.285   8.852   2.981
12044TIP3    H136009   2.320   8.938   2.958
12044TIP3    H236010   2.220   8.833   2.914
12045TIP3   OH236011   2.697   8.568   3.846
12045TIP3    H136012   2.667   8.534   3.759
12045TIP3    H236013   2.687   8.489   3.904
12046TIP3   OH236014   2.680   9.454   4.450
12046TIP3    H136015   2.731   9.377   4.477
12046TIP3    H236016   2.672   9.508   4.531
12047TIP3   OH236017   2.979   9.301   4.097
12047TIP3    H136018   2.885   9.318   4.109
12047TIP3    H236019   2.995   9.320   4.003
12048TIP3   OH236020   2.809   9.083   2.895
12048TIP3    H136021   2.810   9.122   2.806
12048TIP3    H236022   2.779   9.156   2.951
12049TIP3   OH236023   3.101   9.122   4.282
12049TIP3    H136024   3.107   9.041   4.227
12049TIP3    H236025   3.068   9.187   4.217
12050TIP3   OH236026   3.104   8.922   4.076
12050TIP3    H136027   3.131   8.967   3.993
12050TIP3    H236028   3.010   8.902   4.058
12051TIP3   OH236029   3.721   9.438   4.327
12051TIP3    H136030   3.741   9.346   4.354
12051TIP3    H236031   3.809   9.467   4.300
12052TIP3   OH236032   2.948   9.270   4.484
12052TIP3    H136033   2.908   9.184   4.507
12052TIP3    H236034   3.014   9.241   4.418
12053TIP3   OH236035   3.238   8.687   4.133
12053TIP3    H136036   3.189   8.771   4.119
12053TIP3    H236037   3.166   8.621   4.130
12054TIP3   OH236038   3.371   9.185   4.362
12054TIP3    H136039   3.374   9.159   4.455
12054TIP3    H236040   3.276   9.171   4.341
12055TIP3   OH236041   3.607   9.148   4.219
12055TIP3    H136042   3.528   9.135   4.276
12055TIP3    H236043   3.679   9.111   4.274
12056TIP3   OH236044   3.836   9.086   4.365
12056TIP3    H136045   3.846   8.990   4.384
12056TIP3    H236046   3.828   9.124   4.455
12057TIP3   OH236047   2.816   9.037   4.554
12057TIP3    H136048   2.831   8.951   4.511
12057TIP3    H236049   2.858   9.019   4.641
12058TIP3   OH236050   3.339   8.698   4.390
12058TIP3    H136051   3.404   8.627   4.388
12058TIP3    H236052   3.294   8.689   4.304
12059TIP3   OH236053   3.710   9.048   2.549
12059TIP3    H136054   3.651   9.078   2.480
12059TIP3    H236055   3.686   8.952   2.550
12060TIP3   OH236056   3.738   9.304   3.098
12060TIP3    H136057   3.737   9.207   3.107
12060TIP3    H236058   3.714   9.330   3.190
12061TIP3   OH236059   4.172   9.576   3.983
12061TIP3    H136060   4.098   9.519   4.010
12061TIP3    H236061   4.247   9.513   3.987
12062TIP3   OH236062   3.649   8.783   2.543
12062TIP3    H136063   3.725   8.750   2.595
12062TIP3    H236064   3.576   8.726   2.569
12063TIP3   OH236065   3.698   9.031   2.994
12063TIP3    H136066   3.741   8.943   3.008
12063TIP3    H236067   3.758   9.068   2.927
12064TIP3   OH236068   3.864   9.211   3.480
12064TIP3    H136069   3.948   9.240   3.438
12064TIP3    H236070   3.881   9.247   3.569
12065TIP3   OH236071   3.943   9.341   3.710
12065TIP3    H136072   3.868   9.372   3.764
12065TIP3    H236073   3.992   9.425   3.695
12066TIP3   OH236074   2.548   9.096   4.525
12066TIP3    H136075   2.646   9.084   4.524
12066TIP3    H236076   2.523   9.009   4.564
12067TIP3   OH236077   4.385   8.948   4.277
12067TIP3    H136078   4.444   8.882   4.235
12067TIP3    H236079   4.360   9.005   4.201
12068TIP3   OH236080   3.814   8.787   3.032
12068TIP3    H136081   3.862   8.772   3.117
12068TIP3    H236082   3.753   8.710   3.032
12069TIP3   OH236083   2.508   8.771   3.854
12069TIP3    H136084   2.574   8.700   3.864
12069TIP3    H236085   2.567   8.849   3.844
12070TIP3   OH236086   2.314   9.057   3.930
12070TIP3    H136087   2.363   9.048   3.845
12070TIP3    H236088   2.339   9.147   3.956
12071TIP3   OH236089   4.260   9.092   4.081
12071TIP3    H136090   4.171   9.127   4.102
12071TIP3    H236091   4.234   9.017   4.024
12072TIP3   OH236092   3.896   8.725   2.665
12072TIP3    H136093   3.935   8.652   2.612
12072TIP3    H236094   3.964   8.795   2.657
12073TIP3   OH236095   2.299   8.549   3.428
12073TIP3    H136096   2.205   8.549   3.454
12073TIP3    H236097   2.299   8.607   3.349
12074TIP3   OH236098   2.518   8.632   4.239
12074TIP3    H136099   2.469   8.629   4.323
12074TIP3    H236100   2.451   8.671   4.179
12075TIP3   OH236101   4.156   8.852   3.961
12075TIP3    H136102   4.065   8.843   3.929
12075TIP3    H236103   4.188   8.759   3.950
12076TIP3   OH236104   3.364   8.767   3.580
12076TIP3    H136105   3.317   8.699   3.632
12076TIP3    H236106   3.434   8.716   3.536
12077TIP3   OH236107   3.885   8.648   3.487
12077TIP3    H136108   3.921   8.699   3.411
12077TIP3    H236109   3.789   8.664   3.479
12078TIP3   OH236110   3.979   8.748   3.250
12078TIP3    H136111   4.052   8.696   3.209
12078TIP3    H236112   4.012   8.839   3.235
12079TIP3   OH236113   2.609   8.475   3.597
12079TIP3    H136114   2.517   8.441   3.599
12079TIP3    H236115   2.660   8.391   3.594
12080TIP3   OH236116   2.392   8.344   3.242
12080TIP3    H136117   2.426   8.402   3.171
12080TIP3    H236118   2.368   8.409   3.311
12081TIP3   OH236119   3.052   8.507   3.478
12081TIP3    H136120   3.110   8.557   3.419
12081TIP3    H236121   3.074   8.546   3.564
12082TIP3   OH236122   3.603   8.654   3.461
12082TIP3    H136123   3.598   8.616   3.372
12082TIP3    H236124   3.588   8.573   3.516
12083TIP3   OH236125   3.630   8.576   3.023
12083TIP3    H136126   3.542   8.618   3.034
12083TIP3    H236127   3.615   8.491   3.070
12084TIP3   OH236128   2.512   8.505   3.009
12084TIP3    H136129   2.563   8.444   2.953
12084TIP3    H236130   2.583   8.560   3.048
12085TIP3   OH236131   3.025   8.681   3.106
12085TIP3    H136132   3.086   8.634   3.166
12085TIP3    H236133   3.047   8.773   3.131
12086TIP3   OH236134   2.808   8.752   4.477
12086TIP3    H136135   2.777   8.687   4.542
12086TIP3    H236136   2.904   8.751   4.500
12087TIP3   OH236137   3.055   8.737   4.584
12087TIP3    H136138   3.143   8.779   4.584
12087TIP3    H236139   3.065   8.677   4.659
12088TIP3   OH236140   3.891   8.815   4.395
12088TIP3    H136141   3.909   8.784   4.486
12088TIP3    H236142   3.980   8.808   4.354
12089TIP3   OH236143   4.075   9.259   2.911
12089TIP3    H136144   4.030   9.335   2.952
12089TIP3    H236145   4.000   9.201   2.889
12090TIP3   OH236146   5.903   9.284   3.078
12090TIP3    H136147   5.937   9.365   3.121
12090TIP3    H236148   5.930   9.299   2.986
12091TIP3   OH236149   5.295   9.462   3.111
12091TIP3    H136150   5.348   9.382   3.128
12091TIP3    H236151   5.268   9.446   3.019
12092TIP3   OH236152   4.649   9.125   3.080
12092TIP3    H136153   4.625   9.199   3.019
12092TIP3    H236154   4.599   9.052   3.036
12093TIP3   OH236155   5.338   9.215   2.706
12093TIP3    H136156   5.413   9.200   2.768
12093TIP3    H236157   5.388   9.250   2.629
12094TIP3   OH236158   4.269   9.311   3.199
12094TIP3    H136159   4.358   9.300   3.235
12094TIP3    H236160   4.281   9.277   3.108
12095TIP3   OH236161   4.728   9.525   2.985
12095TIP3    H136162   4.815   9.484   2.999
12095TIP3    H236163   4.677   9.455   2.941
12096TIP3   OH236164   5.990   9.484   3.253
12096TIP3    H136165   5.912   9.533   3.222
12096TIP3    H236166   6.001   9.520   3.343
12097TIP3   OH236167   4.646   9.110   3.517
12097TIP3    H136168   4.584   9.146   3.451
12097TIP3    H236169   4.596   9.125   3.600
12098TIP3   OH236170   5.548   9.220   2.874
12098TIP3    H136171   5.557   9.166   2.953
12098TIP3    H236172   5.602   9.299   2.898
12099TIP3   OH236173   4.514   9.217   3.300
12099TIP3    H136174   4.574   9.294   3.314
12099TIP3    H236175   4.559   9.176   3.223
12100TIP3   OH236176   5.701   9.185   3.245
12100TIP3    H136177   5.615   9.217   3.212
12100TIP3    H236178   5.763   9.216   3.176
12101TIP3   OH236179   5.000   8.855   3.275
12101TIP3    H136180   5.024   8.761   3.266
12101TIP3    H236181   4.903   8.843   3.286
12102TIP3   OH236182   4.893   9.343   2.237
12102TIP3    H136183   4.942   9.419   2.269
12102TIP3    H236184   4.949   9.311   2.164
12103TIP3   OH236185   5.537   9.715   3.360
12103TIP3    H136186   5.549   9.796   3.309
12103TIP3    H236187   5.445   9.690   3.335
12104TIP3   OH236188   5.631   8.774   2.329
12104TIP3    H136189   5.550   8.792   2.380
12104TIP3    H236190   5.643   8.857   2.279
12105TIP3   OH236191   5.757   9.675   3.548
12105TIP3    H136192   5.683   9.672   3.486
12105TIP3    H236193   5.786   9.581   3.547
12106TIP3   OH236194   4.760   8.929   3.358
12106TIP3    H136195   4.678   8.884   3.328
12106TIP3    H236196   4.718   8.995   3.419
12107TIP3   OH236197   5.522   9.433   3.453
12107TIP3    H136198   5.489   9.419   3.545
12107TIP3    H236199   5.510   9.528   3.439
12108TIP3   OH236200   4.908   8.951   2.328
12108TIP3    H136201   4.871   8.951   2.418
12108TIP3    H236202   4.868   8.869   2.293
12109TIP3   OH236203   4.683   9.423   3.363
12109TIP3    H136204   4.623   9.435   3.439
12109TIP3    H236205   4.662   9.500   3.308
12110TIP3   OH236206   4.577   9.304   2.891
12110TIP3    H136207   4.483   9.280   2.905
12110TIP3    H236208   4.590   9.269   2.800
12111TIP3   OH236209   5.077   9.392   2.620
12111TIP3    H136210   4.996   9.444   2.596
12111TIP3    H236211   5.118   9.376   2.532
12112TIP3   OH236212   5.357   9.608   3.803
12112TIP3    H136213   5.283   9.564   3.850
12112TIP3    H236214   5.313   9.623   3.718
12113TIP3   OH236215   5.212   9.410   2.858
12113TIP3    H136216   5.154   9.427   2.779
12113TIP3    H236217   5.257   9.331   2.820
12114TIP3   OH236218   4.529   9.450   3.609
12114TIP3    H136219   4.478   9.496   3.677
12114TIP3    H236220   4.503   9.357   3.628
12115TIP3   OH236221   4.560   8.926   2.296
12115TIP3    H136222   4.551   8.925   2.393
12115TIP3    H236223   4.483   8.979   2.271
12116TIP3   OH236224   4.101   8.973   3.164
12116TIP3    H136225   4.177   9.003   3.217
12116TIP3    H236226   4.142   8.937   3.084
12117TIP3   OH236227   4.080   8.950   2.685
12117TIP3    H136228   4.122   8.988   2.606
12117TIP3    H236229   4.019   9.022   2.708
12118TIP3   OH236230   5.285   9.645   3.308
12118TIP3    H136231   5.278   9.579   3.236
12118TIP3    H236232   5.207   9.623   3.362
12119TIP3   OH236233   4.902   9.115   2.954
12119TIP3    H136234   4.813   9.123   2.994
12119TIP3    H236235   4.957   9.161   3.017
12120TIP3   OH236236   4.336   9.188   2.956
12120TIP3    H136237   4.241   9.195   2.931
12120TIP3    H236238   4.357   9.095   2.934
12121TIP3   OH236239   4.611   9.183   2.648
12121TIP3    H136240   4.701   9.203   2.617
12121TIP3    H236241   4.555   9.203   2.569
12122TIP3   OH236242   5.394   9.208   3.155
12122TIP3    H136243   5.361   9.208   3.246
12122TIP3    H236244   5.337   9.140   3.115
12123TIP3   OH236245   4.438   9.193   2.433
12123TIP3    H136246   4.375   9.160   2.367
12123TIP3    H236247   4.484   9.262   2.380
12124TIP3   OH236248   4.982   9.419   3.041
12124TIP3    H136249   5.064   9.423   2.989
12124TIP3    H236250   5.013   9.432   3.131
12125TIP3   OH236251   4.515   8.943   2.929
12125TIP3    H136252   4.476   8.863   2.970
12125TIP3    H236253   4.549   8.909   2.844
12126TIP3   OH236254   4.960   9.298   3.366
12126TIP3    H136255   4.877   9.347   3.351
12126TIP3    H236256   5.016   9.371   3.401
12127TIP3   OH236257   5.155   9.065   2.298
12127TIP3    H136258   5.059   9.043   2.305
12127TIP3    H236259   5.158   9.161   2.316
12128TIP3   OH236260   5.225   9.326   2.384
12128TIP3    H136261   5.317   9.310   2.414
12128TIP3    H236262   5.234   9.410   2.336
12129TIP3   OH236263   4.977   9.708   3.868
12129TIP3    H136264   4.911   9.749   3.808
12129TIP3    H236265   5.034   9.661   3.805
12130TIP3   OH236266   5.663   9.384   2.242
12130TIP3    H136267   5.601   9.345   2.177
12130TIP3    H236268   5.672   9.473   2.204
12131TIP3   OH236269   4.480   9.187   3.728
12131TIP3    H136270   4.384   9.192   3.742
12131TIP3    H236271   4.508   9.129   3.801
12132TIP3   OH236272   5.324   9.235   3.422
12132TIP3    H136273   5.394   9.303   3.422
12132TIP3    H236274   5.341   9.192   3.507
12133TIP3   OH236275   5.196   9.008   2.576
12133TIP3    H136276   5.182   9.030   2.482
12133TIP3    H236277   5.237   9.090   2.611
12134TIP3   OH236278   4.900   9.183   2.679
12134TIP3    H136279   4.965   9.254   2.661
12134TIP3    H236280   4.896   9.182   2.776
12135TIP3   OH236281   5.143   9.477   3.500
12135TIP3    H136282   5.145   9.520   3.587
12135TIP3    H236283   5.208   9.406   3.510
12136TIP3   OH236284   5.034   8.917   2.786
12136TIP3    H136285   5.011   8.999   2.834
12136TIP3    H236286   5.094   8.952   2.716
12137TIP3   OH236287   4.543   8.911   2.575
12137TIP3    H136288   4.540   9.005   2.600
12137TIP3    H236289   4.640   8.895   2.581
12138TIP3   OH236290   5.797   9.412   3.467
12138TIP3    H136291   5.701   9.397   3.467
12138TIP3    H236292   5.821   9.371   3.383
12139TIP3   OH236293   5.438   9.586   2.840
12139TIP3    H136294   5.372   9.521   2.866
12139TIP3    H236295   5.516   9.560   2.893
12140TIP3   OH236296   4.098   9.106   2.461
12140TIP3    H136297   4.116   9.200   2.446
12140TIP3    H236298   4.014   9.091   2.417
12141TIP3   OH236299   4.506   8.823   3.330
12141TIP3    H136300   4.467   8.792   3.245
12141TIP3    H236301   4.489   8.747   3.389
12142TIP3   OH236302   4.480   9.706   3.936
12142TIP3    H136303   4.524   9.630   3.975
12142TIP3    H236304   4.464   9.765   4.013
12143TIP3   OH236305   4.774   9.568   3.584
12143TIP3    H136306   4.682   9.534   3.591
12143TIP3    H236307   4.791   9.565   3.489
12144TIP3   OH236308   4.607   9.338   2.273
12144TIP3    H136309   4.583   9.285   2.194
12144TIP3    H236310   4.704   9.335   2.271
12145TIP3   OH236311   4.874   9.383   3.760
12145TIP3    H136312   4.863   9.296   3.717
12145TIP3    H236313   4.838   9.444   3.692
12146TIP3   OH236314   5.604   9.746   3.834
12146TIP3    H136315   5.537   9.676   3.837
12146TIP3    H236316   5.662   9.721   3.761
12147TIP3   OH236317   4.741   9.520   3.973
12147TIP3    H136318   4.690   9.439   3.994
12147TIP3    H236319   4.795   9.489   3.897
12148TIP3   OH236320   5.131   9.453   3.836
12148TIP3    H136321   5.123   9.435   3.933
12148TIP3    H236322   5.038   9.431   3.812
12149TIP3   OH236323   5.410   9.351   3.683
12149TIP3    H136324   5.357   9.399   3.749
12149TIP3    H236325   5.488   9.329   3.739
12150TIP3   OH236326   5.630   9.341   3.848
12150TIP3    H136327   5.643   9.247   3.874
12150TIP3    H236328   5.622   9.386   3.935
12151TIP3   OH236329   4.611   9.288   4.037
12151TIP3    H136330   4.617   9.196   4.004
12151TIP3    H236331   4.648   9.278   4.127
12152TIP3   OH236332   5.128   8.962   3.870
12152TIP3    H136333   5.206   8.902   3.877
12152TIP3    H236334   5.073   8.912   3.809
12153TIP3   OH236335   5.189   9.172   4.045
12153TIP3    H136336   5.169   9.106   3.976
12153TIP3    H236337   5.110   9.230   4.042
12154TIP3   OH236338   5.494   9.311   2.039
12154TIP3    H136339   5.473   9.331   1.947
12154TIP3    H236340   5.472   9.215   2.042
12155TIP3   OH236341   5.533   9.561   2.586
12155TIP3    H136342   5.534   9.465   2.595
12155TIP3    H236343   5.510   9.588   2.678
12156TIP3   OH236344   5.967   9.833   3.470
12156TIP3    H136345   5.895   9.774   3.500
12156TIP3    H236346   6.043   9.771   3.474
12157TIP3   OH236347   5.441   9.047   2.033
12157TIP3    H136348   5.518   9.010   2.081
12157TIP3    H236349   5.370   8.983   2.053
12158TIP3   OH236350   5.491   9.287   2.481
12158TIP3    H136351   5.535   9.199   2.494
12158TIP3    H236352   5.551   9.325   2.415
12159TIP3   OH236353   5.659   9.469   2.966
12159TIP3    H136354   5.744   9.497   2.924
12159TIP3    H236355   5.678   9.504   3.055
12160TIP3   OH236356   5.738   9.596   3.198
12160TIP3    H136357   5.663   9.628   3.249
12160TIP3    H236358   5.788   9.680   3.182
12161TIP3   OH236359   4.343   9.353   4.014
12161TIP3    H136360   4.441   9.343   4.012
12161TIP3    H236361   4.319   9.266   4.050
12162TIP3   OH236362   6.178   9.202   3.764
12162TIP3    H136363   6.240   9.137   3.724
12162TIP3    H236364   6.157   9.260   3.688
12163TIP3   OH236365   5.610   9.044   2.520
12163TIP3    H136366   5.659   9.028   2.603
12163TIP3    H236367   5.550   8.967   2.519
12164TIP3   OH236368   4.309   9.026   3.341
12164TIP3    H136369   4.376   8.956   3.350
12164TIP3    H236370   4.365   9.105   3.332
12165TIP3   OH236371   4.112   9.314   3.421
12165TIP3    H136372   4.159   9.303   3.335
12165TIP3    H236373   4.128   9.407   3.438
12166TIP3   OH236374   6.056   9.350   3.567
12166TIP3    H136375   5.967   9.383   3.590
12166TIP3    H236376   6.032   9.274   3.511
12167TIP3   OH236377   5.690   8.983   2.148
12167TIP3    H136378   5.730   8.909   2.099
12167TIP3    H236379   5.760   9.051   2.144
12168TIP3   OH236380   4.096   8.812   2.916
12168TIP3    H136381   4.002   8.807   2.939
12168TIP3    H236382   4.094   8.868   2.835
12169TIP3   OH236383   4.317   8.891   3.727
12169TIP3    H136384   4.265   8.884   3.809
12169TIP3    H236385   4.250   8.928   3.667
12170TIP3   OH236386   5.952   9.108   3.449
12170TIP3    H136387   5.861   9.099   3.414
12170TIP3    H236388   5.985   9.016   3.438
12171TIP3   OH236389   5.171   9.021   3.090
12171TIP3    H136390   5.125   8.937   3.109
12171TIP3    H236391   5.235   8.991   3.022
12172TIP3   OH236392   5.679   8.909   2.976
12172TIP3    H136393   5.719   8.956   2.899
12172TIP3    H236394   5.584   8.923   2.963
12173TIP3   OH236395   5.775   9.004   2.738
12173TIP3    H136396   5.847   8.952   2.698
12173TIP3    H236397   5.809   9.095   2.722
12174TIP3   OH236398   4.405   8.732   3.085
12174TIP3    H136399   4.313   8.700   3.086
12174TIP3    H236400   4.453   8.647   3.082
12175TIP3   OH236401   4.193   8.601   2.731
12175TIP3    H136402   4.223   8.658   2.658
12175TIP3    H236403   4.163   8.666   2.797
12176TIP3   OH236404   4.854   8.759   2.960
12176TIP3    H136405   4.908   8.812   2.899
12176TIP3    H236406   4.844   8.817   3.035
12177TIP3   OH236407   5.391   8.910   2.948
12177TIP3    H136408   5.397   8.873   2.859
12177TIP3    H236409   5.382   8.829   3.003
12178TIP3   OH236410   5.426   8.833   2.511
12178TIP3    H136411   5.338   8.872   2.519
12178TIP3    H236412   5.412   8.747   2.557
12179TIP3   OH236413   4.308   8.761   2.496
12179TIP3    H136414   4.357   8.699   2.438
12179TIP3    H236415   4.381   8.815   2.531
12180TIP3   OH236416   4.820   8.937   2.593
12180TIP3    H136417   4.880   8.887   2.650
12180TIP3    H236418   4.844   9.028   2.618
12181TIP3   OH236419   4.614   9.014   3.976
12181TIP3    H136420   4.578   8.943   4.032
12181TIP3    H236421   4.708   9.013   4.005
12182TIP3   OH236422   4.862   9.008   4.094
12182TIP3    H136423   4.951   8.981   4.065
12182TIP3    H236424   4.844   8.941   4.163
12183TIP3   OH236425   5.687   9.073   3.882
12183TIP3    H136426   5.706   9.040   3.973
12183TIP3    H236427   5.775   9.067   3.840
12184TIP3   OH236428   5.869   9.516   2.397
12184TIP3    H136429   5.826   9.592   2.439
12184TIP3    H236430   5.795   9.458   2.377
12185TIP3   OH236431   7.102   9.735   2.601
12185TIP3    H136432   7.141   9.648   2.621
12185TIP3    H236433   7.076   9.722   2.508
12186TIP3   OH236434   6.440   9.382   2.567
12186TIP3    H136435   6.422   9.455   2.504
12186TIP3    H236436   6.392   9.309   2.522
12187TIP3   OH236437   7.134   9.467   2.197
12187TIP3    H136438   7.203   9.449   2.265
12187TIP3    H236439   7.191   9.505   2.129
12188TIP3   OH236440   6.065   9.568   2.684
12188TIP3    H136441   6.153   9.555   2.723
12188TIP3    H236442   6.079   9.533   2.594
12189TIP3   OH236443   6.524   9.783   2.461
12189TIP3    H136444   6.612   9.747   2.484
12189TIP3    H236445   6.476   9.706   2.426
12190TIP3   OH236446   6.438   9.367   3.002
12190TIP3    H136447   6.376   9.397   2.933
12190TIP3    H236448   6.385   9.383   3.083
12191TIP3   OH236449   7.352   9.475   2.363
12191TIP3    H136450   7.335   9.417   2.438
12191TIP3    H236451   7.434   9.520   2.388
12192TIP3   OH236452   6.308   9.475   2.786
12192TIP3    H136453   6.369   9.550   2.802
12192TIP3    H236454   6.354   9.433   2.710
12193TIP3   OH236455   7.495   9.449   2.726
12193TIP3    H136456   7.401   9.470   2.712
12193TIP3    H236457   7.532   9.469   2.639
12194TIP3   OH236458   6.795   9.085   2.714
12194TIP3    H136459   6.782   8.990   2.732
12194TIP3    H236460   6.717   9.122   2.761
12195TIP3   OH236461   6.680   9.597   1.714
12195TIP3    H136462   6.733   9.661   1.762
12195TIP3    H236463   6.741   9.564   1.646
12196TIP3   OH236464   7.419   9.026   1.811
12196TIP3    H136465   7.342   9.038   1.871
12196TIP3    H236466   7.430   9.116   1.776
12197TIP3   OH236467   6.555   9.161   2.842
12197TIP3    H136468   6.465   9.130   2.817
12197TIP3    H236469   6.532   9.244   2.887
12198TIP3   OH236470   7.088   9.280   3.038
12198TIP3    H136471   7.156   9.247   3.100
12198TIP3    H236472   7.004   9.256   3.083
12199TIP3   OH236473   7.338   9.708   2.961
12199TIP3    H136474   7.289   9.698   3.045
12199TIP3    H236475   7.288   9.777   2.915
12200TIP3   OH236476   6.705   9.209   1.816
12200TIP3    H136477   6.669   9.207   1.907
12200TIP3    H236478   6.664   9.128   1.780
12201TIP3   OH236479   6.478   9.682   2.850
12201TIP3    H136480   6.421   9.694   2.928
12201TIP3    H236481   6.462   9.763   2.798
12202TIP3   OH236482   6.371   9.562   2.377
12202TIP3    H136483   6.278   9.535   2.392
12202TIP3    H236484   6.385   9.524   2.287
12203TIP3   OH236485   6.875   9.651   2.106
12203TIP3    H136486   6.792   9.699   2.085
12203TIP3    H236487   6.913   9.631   2.019
12204TIP3   OH236488   7.044   9.916   3.188
12204TIP3    H136489   7.030   9.840   3.248
12204TIP3    H236490   7.138   9.936   3.205
12205TIP3   OH236491   7.004   9.670   2.348
12205TIP3    H136492   6.949   9.683   2.268
12205TIP3    H236493   7.055   9.593   2.317
12206TIP3   OH236494   6.320   9.708   3.096
12206TIP3    H136495   6.282   9.746   3.176
12206TIP3    H236496   6.293   9.615   3.108
12207TIP3   OH236497   6.358   9.184   1.782
12207TIP3    H136498   6.351   9.183   1.879
12207TIP3    H236499   6.279   9.234   1.758
12208TIP3   OH236500   5.897   9.229   2.651
12208TIP3    H136501   5.972   9.261   2.705
12208TIP3    H236502   5.940   9.193   2.572
12209TIP3   OH236503   5.874   9.205   2.171
12209TIP3    H136504   5.920   9.244   2.093
12209TIP3    H236505   5.815   9.279   2.194
12210TIP3   OH236506   7.047   9.924   2.794
12210TIP3    H136507   7.072   9.862   2.723
12210TIP3    H236508   6.991   9.865   2.849
12211TIP3   OH236509   6.696   9.378   2.436
12211TIP3    H136510   6.613   9.381   2.488
12211TIP3    H236511   6.762   9.396   2.504
12212TIP3   OH236512   6.131   9.444   2.443
12212TIP3    H136513   6.037   9.448   2.416
12212TIP3    H236514   6.157   9.352   2.422
12213TIP3   OH236515   6.405   9.437   2.135
12213TIP3    H136516   6.497   9.458   2.110
12213TIP3    H236517   6.354   9.459   2.055
12214TIP3   OH236518   7.188   9.462   2.644
12214TIP3    H136519   7.149   9.474   2.733
12214TIP3    H236520   7.124   9.400   2.604
12215TIP3   OH236521   6.233   9.454   1.917
12215TIP3    H136522   6.171   9.418   1.851
12215TIP3    H236523   6.279   9.523   1.864
12216TIP3   OH236524   6.775   9.688   2.527
12216TIP3    H136525   6.861   9.681   2.482
12216TIP3    H236526   6.799   9.679   2.620
12217TIP3   OH236527   6.303   9.202   2.413
12217TIP3    H136528   6.271   9.121   2.458
12217TIP3    H236529   6.355   9.166   2.340
12218TIP3   OH236530   6.755   9.598   2.835
12218TIP3    H136531   6.669   9.643   2.825
12218TIP3    H236532   6.812   9.666   2.876
12219TIP3   OH236533   6.950   9.321   1.788
12219TIP3    H136534   6.856   9.291   1.794
12219TIP3    H236535   6.944   9.416   1.804
12220TIP3   OH236536   7.022   9.585   1.866
12220TIP3    H136537   7.110   9.547   1.880
12220TIP3    H236538   7.037   9.643   1.790
12221TIP3   OH236539   6.790   9.931   3.301
12221TIP3    H136540   6.721   9.984   3.256
12221TIP3    H236541   6.849   9.910   3.227
12222TIP3   OH236542   6.275   9.446   3.216
12222TIP3    H136543   6.178   9.444   3.231
12222TIP3    H236544   6.307   9.387   3.287
12223TIP3   OH236545   7.112   9.520   2.906
12223TIP3    H136546   7.199   9.544   2.941
12223TIP3    H236547   7.094   9.436   2.953
12224TIP3   OH236548   6.995   9.261   2.064
12224TIP3    H136549   6.982   9.286   1.970
12224TIP3    H236550   7.036   9.341   2.103
12225TIP3   OH236551   6.693   9.443   2.167
12225TIP3    H136552   6.762   9.512   2.158
12225TIP3    H236553   6.689   9.432   2.265
12226TIP3   OH236554   6.942   9.750   2.976
12226TIP3    H136555   6.979   9.803   3.049
12226TIP3    H236556   6.999   9.671   2.975
12227TIP3   OH236557   6.828   9.170   2.271
12227TIP3    H136558   6.819   9.247   2.330
12227TIP3    H236559   6.888   9.207   2.202
12228TIP3   OH236560   6.340   9.167   2.058
12228TIP3    H136561   6.337   9.260   2.090
12228TIP3    H236562   6.437   9.150   2.067
12229TIP3   OH236563   7.614   9.668   2.934
12229TIP3    H136564   7.520   9.684   2.956
12229TIP3    H236565   7.605   9.611   2.857
12230TIP3   OH236566   5.896   9.364   1.949
12230TIP3    H136567   5.913   9.458   1.934
12230TIP3    H236568   5.815   9.346   1.900
12231TIP3   OH236569   6.289   9.081   2.820
12231TIP3    H136570   6.259   9.047   2.733
12231TIP3    H236571   6.280   9.002   2.877
12232TIP3   OH236572   6.274   9.963   3.423
12232TIP3    H136573   6.319   9.887   3.460
12232TIP3    H236574   6.261  10.023   3.500
12233TIP3   OH236575   6.571   9.826   3.073
12233TIP3    H136576   6.477   9.801   3.078
12233TIP3    H236577   6.591   9.818   2.979
12234TIP3   OH236578   6.402   9.597   1.757
12234TIP3    H136579   6.379   9.540   1.679
12234TIP3    H236580   6.500   9.592   1.754
12235TIP3   OH236581   6.694   9.639   3.249
12235TIP3    H136582   6.699   9.557   3.196
12235TIP3    H236583   6.659   9.702   3.183
12236TIP3   OH236584   6.696   9.436   3.052
12236TIP3    H136585   6.724   9.481   2.969
12236TIP3    H236586   6.603   9.414   3.032
12237TIP3   OH236587   7.322   9.954   3.305
12237TIP3    H136588   7.334   9.859   3.320
12237TIP3    H236589   7.405   9.976   3.260
12238TIP3   OH236590   6.555   9.774   3.464
12238TIP3    H136591   6.499   9.695   3.476
12238TIP3    H236592   6.606   9.751   3.384
12239TIP3   OH236593   6.830   9.203   3.114
12239TIP3    H136594   6.780   9.285   3.092
12239TIP3    H236595   6.761   9.134   3.103
12240TIP3   OH236596   6.963   9.694   3.330
12240TIP3    H136597   6.949   9.689   3.426
12240TIP3    H236598   6.870   9.679   3.301
12241TIP3   OH236599   7.203   9.663   3.192
12241TIP3    H136600   7.122   9.651   3.246
12241TIP3    H236601   7.271   9.621   3.247
12242TIP3   OH236602   7.436   9.603   3.342
12242TIP3    H136603   7.441   9.506   3.356
12242TIP3    H236604   7.425   9.637   3.433
12243TIP3   OH236605   6.407   9.548   3.523
12243TIP3    H136606   6.416   9.457   3.488
12243TIP3    H236607   6.445   9.536   3.612
12244TIP3   OH236608   6.923   9.216   3.372
12244TIP3    H136609   6.990   9.144   3.368
12244TIP3    H236610   6.884   9.208   3.283
12245TIP3   OH236611   6.992   9.431   3.529
12245TIP3    H136612   6.968   9.359   3.466
12245TIP3    H236613   6.912   9.488   3.524
12246TIP3   OH236614   7.222   9.328   1.534
12246TIP3    H136615   7.311   9.297   1.558
12246TIP3    H236616   7.168   9.248   1.536
12247TIP3   OH236617   6.139   9.609   3.498
12247TIP3    H136618   6.237   9.599   3.497
12247TIP3    H236619   6.115   9.523   3.537
12248TIP3   OH236620   7.953   9.455   3.257
12248TIP3    H136621   8.010   9.384   3.219
12248TIP3    H236622   7.942   9.515   3.182
12249TIP3   OH236623   7.373   9.314   2.024
12249TIP3    H136624   7.437   9.296   2.095
12249TIP3    H236625   7.325   9.229   2.019
12250TIP3   OH236626   6.101   9.286   2.832
12250TIP3    H136627   6.166   9.213   2.838
12250TIP3    H236628   6.160   9.362   2.819
12251TIP3   OH236629   5.906   9.571   2.906
12251TIP3    H136630   5.955   9.559   2.821
12251TIP3    H236631   5.929   9.663   2.925
12252TIP3   OH236632   5.891   9.067   2.402
12252TIP3    H136633   5.797   9.064   2.425
12252TIP3    H236634   5.891   9.124   2.321
12253TIP3   OH236635   6.112   9.151   3.216
12253TIP3    H136636   6.060   9.142   3.297
12253TIP3    H236637   6.045   9.184   3.153
12254TIP3   OH236638   7.753   9.361   2.945
12254TIP3    H136639   7.668   9.366   2.900
12254TIP3    H236640   7.785   9.272   2.917
12255TIP3   OH236641   6.959   9.280   2.556
12255TIP3    H136642   6.909   9.213   2.606
12255TIP3    H236643   7.026   9.228   2.509
12256TIP3   OH236644   7.475   9.170   2.459
12256TIP3    H136645   7.512   9.216   2.381
12256TIP3    H236646   7.379   9.178   2.446
12257TIP3   OH236647   7.575   9.275   2.219
12257TIP3    H136648   7.637   9.208   2.182
12257TIP3    H236649   7.629   9.354   2.213
12258TIP3   OH236650   6.202   8.988   2.572
12258TIP3    H136651   6.110   8.955   2.572
12258TIP3    H236652   6.251   8.903   2.568
12259TIP3   OH236653   5.985   8.858   2.217
12259TIP3    H136654   6.018   8.915   2.145
12259TIP3    H236655   5.960   8.923   2.285
12260TIP3   OH236656   6.644   9.022   2.451
12260TIP3    H136657   6.703   9.072   2.393
12260TIP3    H236658   6.666   9.058   2.538
12261TIP3   OH236659   7.196   9.167   2.431
12261TIP3    H136660   7.190   9.125   2.344
12261TIP3    H236661   7.181   9.089   2.490
12262TIP3   OH236662   7.219   9.082   1.995
12262TIP3    H136663   7.132   9.124   2.008
12262TIP3    H236664   7.206   8.998   2.044
12263TIP3   OH236665   6.105   9.019   1.981
12263TIP3    H136666   6.153   8.955   1.926
12263TIP3    H236667   6.178   9.073   2.018
12264TIP3   OH236668   6.618   9.194   2.080
12264TIP3    H136669   6.676   9.147   2.141
12264TIP3    H236670   6.639   9.286   2.106
12265TIP3   OH236671   6.409   9.271   3.463
12265TIP3    H136672   6.377   9.198   3.519
12265TIP3    H236673   6.504   9.271   3.489
12266TIP3   OH236674   6.659   9.267   3.580
12266TIP3    H136675   6.743   9.240   3.540
12266TIP3    H236676   6.647   9.197   3.648
12267TIP3   OH236677   7.481   9.330   3.370
12267TIP3    H136678   7.501   9.294   3.459
12267TIP3    H236679   7.567   9.319   3.323
12268TIP3   OH236680   2.221   0.667   7.838
12268TIP3    H136681   2.282   0.616   7.892
12268TIP3    H236682   2.233   0.756   7.879
12269TIP3   OH236683   1.843   1.095   7.859
12269TIP3    H136684   1.886   1.022   7.810
12269TIP3    H236685   1.868   1.077   7.951
12270TIP3   OH236686   2.260   0.888   8.013
12270TIP3    H136687   2.179   0.892   8.065
12270TIP3    H236688   2.266   0.979   7.977
12271TIP3   OH236689   1.979   0.932   7.682
12271TIP3    H136690   2.024   0.848   7.659
12271TIP3    H236691   2.043   0.998   7.647
12272TIP3   OH236692   2.092   0.695   7.591
12272TIP3    H136693   2.127   0.631   7.525
12272TIP3    H236694   2.155   0.687   7.665
12273TIP3   OH236695   2.516   0.805   8.360
12273TIP3    H136696   2.488   0.723   8.317
12273TIP3    H236697   2.491   0.875   8.296
12274TIP3   OH236698   2.722   0.448   8.202
12274TIP3    H136699   2.627   0.466   8.218
12274TIP3    H236700   2.730   0.468   8.106
12275TIP3   OH236701   2.302   0.744   7.011
12275TIP3    H136702   2.310   0.840   6.994
12275TIP3    H236703   2.394   0.714   6.998
12276TIP3   OH236704   2.744   1.144   8.400
12276TIP3    H136705   2.744   1.048   8.419
12276TIP3    H236706   2.662   1.171   8.448
12277TIP3   OH236707   1.614   1.068   7.481
12277TIP3    H136708   1.562   1.052   7.401
12277TIP3    H236709   1.581   1.155   7.511
12278TIP3   OH236710   1.816   0.962   7.135
12278TIP3    H136711   1.878   0.896   7.096
12278TIP3    H236712   1.849   0.968   7.226
12279TIP3   OH236713   1.869   1.016   7.405
12279TIP3    H136714   1.778   1.022   7.443
12279TIP3    H236715   1.925   1.010   7.484
12280TIP3   OH236716   2.428   1.496   8.500
12280TIP3    H136717   2.431   1.519   8.406
12280TIP3    H236718   2.511   1.537   8.532
12281TIP3   OH236719   2.462   0.577   8.191
12281TIP3    H136720   2.510   0.628   8.122
12281TIP3    H236721   2.370   0.593   8.167
12282TIP3   OH236722   2.760   0.853   8.452
12282TIP3    H136723   2.663   0.846   8.439
12282TIP3    H236724   2.789   0.823   8.363
12283TIP3   OH236725   2.244   0.811   7.275
12283TIP3    H136726   2.208   0.735   7.321
12283TIP3    H236727   2.250   0.777   7.183
12284TIP3   OH236728   2.020   0.557   7.171
12284TIP3    H136729   2.047   0.519   7.256
12284TIP3    H236730   1.922   0.546   7.176
12285TIP3   OH236731   2.271   1.177   8.337
12285TIP3    H136732   2.183   1.137   8.325
12285TIP3    H236733   2.263   1.254   8.277
12286TIP3   OH236734   2.332   1.018   6.995
12286TIP3    H136735   2.367   1.092   6.942
12286TIP3    H236736   2.251   1.061   7.031
12287TIP3   OH236737   2.163   0.482   7.423
12287TIP3    H136738   2.152   0.392   7.455
12287TIP3    H236739   2.256   0.477   7.392
12288TIP3   OH236740   2.288   1.150   7.933
12288TIP3    H136741   2.246   1.200   7.860
12288TIP3    H236742   2.382   1.173   7.917
12289TIP3   OH236743   1.978   0.784   7.008
12289TIP3    H136744   2.009   0.706   7.059
12289TIP3    H236745   2.024   0.771   6.922
12290TIP3   OH236746   2.339   0.282   7.016
12290TIP3    H136747   2.306   0.232   6.939
12290TIP3    H236748   2.291   0.367   7.001
12291TIP3   OH236749   2.537   1.251   7.893
12291TIP3    H136750   2.565   1.282   7.982
12291TIP3    H236751   2.600   1.297   7.836
12292TIP3   OH236752   2.570   1.270   8.173
12292TIP3    H136753   2.531   1.180   8.172
12292TIP3    H236754   2.645   1.254   8.234
12293TIP3   OH236755   2.432   0.462   7.373
12293TIP3    H136756   2.502   0.522   7.340
12293TIP3    H236757   2.478   0.418   7.448
12294TIP3   OH236758   2.559   0.331   7.582
12294TIP3    H136759   2.490   0.345   7.650
12294TIP3    H236760   2.639   0.368   7.625
12295TIP3   OH236761   2.604   0.713   8.000
12295TIP3    H136762   2.667   0.651   7.957
12295TIP3    H236763   2.611   0.792   7.942
12296TIP3   OH236764   2.447   1.018   8.196
12296TIP3    H136765   2.381   1.065   8.252
12296TIP3    H236766   2.391   0.973   8.131
12297TIP3   OH236767   2.504   0.238   7.220
12297TIP3    H136768   2.440   0.249   7.145
12297TIP3    H236769   2.472   0.309   7.278
12298TIP3   OH236770   2.647   0.602   8.567
12298TIP3    H136771   2.724   0.543   8.578
12298TIP3    H236772   2.686   0.683   8.534
12299TIP3   OH236773   2.840   0.407   8.598
12299TIP3    H136774   2.775   0.339   8.620
12299TIP3    H236775   2.925   0.364   8.617
12300TIP3   OH236776   2.125   1.112   7.549
12300TIP3    H136777   2.178   1.103   7.467
12300TIP3    H236778   2.173   1.183   7.596
12301TIP3   OH236779   2.025   1.371   8.456
12301TIP3    H136780   2.076   1.289   8.453
12301TIP3    H236781   2.068   1.415   8.532
12302TIP3   OH236782   1.783   1.232   8.145
12302TIP3    H136783   1.688   1.228   8.123
12302TIP3    H236784   1.784   1.314   8.199
12303TIP3   OH236785   2.029   1.152   8.206
12303TIP3    H136786   1.938   1.179   8.181
12303TIP3    H236787   2.079   1.231   8.178
12304TIP3   OH236788   2.220   1.349   8.128
12304TIP3    H136789   2.205   1.436   8.083
12304TIP3    H236790   2.248   1.293   8.053
12305TIP3   OH236791   1.553   0.941   7.207
12305TIP3    H136792   1.646   0.966   7.189
12305TIP3    H236793   1.549   0.861   7.153
12306TIP3   OH236794   2.270   1.081   7.317
12306TIP3    H136795   2.263   0.983   7.304
12306TIP3    H236796   2.225   1.114   7.237
12307TIP3   OH236797   2.499   1.229   8.497
12307TIP3    H136798   2.417   1.195   8.457
12307TIP3    H236799   2.478   1.324   8.507
12308TIP3   OH236800   3.764   0.597   7.271
12308TIP3    H136801   3.738   0.690   7.255
12308TIP3    H236802   3.683   0.552   7.242
12309TIP3   OH236803   3.761   0.595   7.651
12309TIP3    H136804   3.797   0.572   7.738
12309TIP3    H236805   3.717   0.513   7.626
12310TIP3   OH236806   3.059   0.497   8.014
12310TIP3    H136807   3.094   0.434   8.078
12310TIP3    H236808   3.132   0.561   8.011
12311TIP3   OH236809   4.004   0.900   7.334
12311TIP3    H136810   3.992   0.832   7.402
12311TIP3    H236811   4.033   0.976   7.387
12312TIP3   OH236812   3.030   0.901   7.740
12312TIP3    H136813   3.023   0.804   7.744
12312TIP3    H236814   3.127   0.912   7.742
12313TIP3   OH236815   2.731   0.096   7.535
12313TIP3    H136816   2.697   0.186   7.551
12313TIP3    H236817   2.655   0.057   7.491
12314TIP3   OH236818   2.803   0.391   7.689
12314TIP3    H136819   2.851   0.317   7.734
12314TIP3    H236820   2.872   0.427   7.632
12315TIP3   OH236821   3.651   1.362   7.348
12315TIP3    H136822   3.701   1.290   7.304
12315TIP3    H236823   3.648   1.330   7.439
12316TIP3   OH236824   3.561   0.822   7.701
12316TIP3    H136825   3.600   0.746   7.655
12316TIP3    H236826   3.644   0.869   7.725
12317TIP3   OH236827   3.982   0.337   7.734
12317TIP3    H136828   3.996   0.254   7.781
12317TIP3    H236829   3.946   0.309   7.647
12318TIP3   OH236830   2.947   0.188   7.804
12318TIP3    H136831   3.023   0.163   7.859
12318TIP3    H236832   2.966   0.132   7.726
12319TIP3   OH236833   3.387   0.386   7.600
12319TIP3    H136834   3.478   0.354   7.616
12319TIP3    H236835   3.342   0.304   7.570
12320TIP3   OH236836   4.616   0.321   7.887
12320TIP3    H136837   4.559   0.396   7.863
12320TIP3    H236838   4.675   0.359   7.954
12321TIP3   OH236839   3.659   0.822   7.139
12321TIP3    H136840   3.610   0.798   7.060
12321TIP3    H236841   3.614   0.905   7.165
12322TIP3   OH236842   3.418   0.739   7.936
12322TIP3    H136843   3.354   0.804   7.972
12322TIP3    H236844   3.459   0.791   7.863
12323TIP3   OH236845   3.185   0.091   7.905
12323TIP3    H136846   3.249   0.161   7.928
12323TIP3    H236847   3.225   0.051   7.827
12324TIP3   OH236848   3.241   0.934   8.023
12324TIP3    H136849   3.217   1.022   7.987
12324TIP3    H236850   3.163   0.919   8.082
12325TIP3   OH236851   2.635   0.627   7.263
12325TIP3    H136852   2.595   0.653   7.179
12325TIP3    H236853   2.667   0.712   7.299
12326TIP3   OH236854   4.075   1.142   7.500
12326TIP3    H136855   3.986   1.134   7.541
12326TIP3    H236856   4.068   1.229   7.457
12327TIP3   OH236857   3.780   1.189   7.176
12327TIP3    H136858   3.831   1.107   7.155
12327TIP3    H236859   3.839   1.255   7.135
12328TIP3   OH236860   3.924   0.973   7.081
12328TIP3    H136861   3.873   0.897   7.050
12328TIP3    H236862   3.959   0.940   7.167
12329TIP3   OH236863   4.302   1.057   7.846
12329TIP3    H136864   4.291   0.979   7.786
12329TIP3    H236865   4.285   1.132   7.785
12330TIP3   OH236866   3.592   0.449   7.101
12330TIP3    H136867   3.510   0.499   7.082
12330TIP3    H236868   3.635   0.448   7.014
12331TIP3   OH236869   3.548   0.241   6.822
12331TIP3    H136870   3.625   0.282   6.866
12331TIP3    H236871   3.591   0.168   6.775
12332TIP3   OH236872   4.495   0.684   7.684
12332TIP3    H136873   4.415   0.741   7.693
12332TIP3    H236874   4.526   0.713   7.596
12333TIP3   OH236875   3.941   0.531   7.075
12333TIP3    H136876   3.886   0.557   7.152
12333TIP3    H236877   4.025   0.508   7.120
12334TIP3   OH236878   4.176   0.580   7.985
12334TIP3    H136879   4.172   0.662   8.038
12334TIP3    H236880   4.092   0.588   7.935
12335TIP3   OH236881   3.175   0.531   7.491
12335TIP3    H136882   3.133   0.473   7.424
12335TIP3    H236883   3.251   0.475   7.520
12336TIP3   OH236884   3.305   0.944   7.639
12336TIP3    H136885   3.284   0.895   7.557
12336TIP3    H236886   3.394   0.910   7.660
12337TIP3   OH236887   3.315   0.497   7.848
12337TIP3    H136888   3.345   0.476   7.757
12337TIP3    H236889   3.358   0.583   7.866
12338TIP3   OH236890   3.835   1.138   7.622
12338TIP3    H136891   3.821   1.219   7.674
12338TIP3    H236892   3.820   1.067   7.686
12339TIP3   OH236893   3.447   1.058   8.167
12339TIP3    H136894   3.389   1.120   8.217
12339TIP3    H236895   3.380   1.004   8.120
12340TIP3   OH236896   3.792   0.374   6.905
12340TIP3    H136897   3.845   0.437   6.958
12340TIP3    H236898   3.814   0.403   6.813
12341TIP3   OH236899   3.187   0.622   8.266
12341TIP3    H136900   3.194   0.707   8.315
12341TIP3    H236901   3.094   0.599   8.287
12342TIP3   OH236902   3.525   1.070   7.174
12342TIP3    H136903   3.603   1.124   7.195
12342TIP3    H236904   3.463   1.136   7.140
12343TIP3   OH236905   3.242   1.225   8.256
12343TIP3    H136906   3.203   1.224   8.167
12343TIP3    H236907   3.164   1.204   8.313
12344TIP3   OH236908   3.039   0.380   7.295
12344TIP3    H136909   2.969   0.415   7.237
12344TIP3    H236910   3.012   0.288   7.308
12345TIP3   OH236911   4.095   0.998   6.495
12345TIP3    H136912   4.103   1.096   6.483
12345TIP3    H236913   4.188   0.971   6.484
12346TIP3   OH236914   2.823   0.755   8.204
12346TIP3    H136915   2.757   0.731   8.138
12346TIP3    H236916   2.857   0.668   8.233
12347TIP3   OH236917   2.674   0.947   7.840
12347TIP3    H136918   2.770   0.941   7.828
12347TIP3    H236919   2.667   1.028   7.893
12348TIP3   OH236920   4.540   1.400   7.890
12348TIP3    H136921   4.538   1.304   7.906
12348TIP3    H236922   4.457   1.426   7.936
12349TIP3   OH236923   3.645   1.187   8.025
12349TIP3    H136924   3.645   1.280   8.059
12349TIP3    H236925   3.574   1.148   8.081
12350TIP3   OH236926   3.404   1.317   6.977
12350TIP3    H136927   3.358   1.302   6.892
12350TIP3    H236928   3.374   1.407   7.002
12351TIP3   OH236929   2.843   1.165   7.362
12351TIP3    H136930   2.893   1.157   7.446
12351TIP3    H236931   2.786   1.087   7.368
12352TIP3   OH236932   3.606   1.216   6.619
12352TIP3    H136933   3.665   1.147   6.583
12352TIP3    H236934   3.641   1.226   6.710
12353TIP3   OH236935   3.656   1.265   6.889
12353TIP3    H136936   3.569   1.274   6.932
12353TIP3    H236937   3.709   1.227   6.961
12354TIP3   OH236938   4.428   0.522   8.183
12354TIP3    H136939   4.365   0.562   8.121
12354TIP3    H236940   4.460   0.444   8.136
12355TIP3   OH236941   3.027   0.938   8.190
12355TIP3    H136942   3.075   0.927   8.275
12355TIP3    H236943   2.953   0.875   8.201
12356TIP3   OH236944   4.083   0.382   8.154
12356TIP3    H136945   4.159   0.335   8.191
12356TIP3    H236946   4.123   0.455   8.103
12357TIP3   OH236947   3.861   0.428   6.645
12357TIP3    H136948   3.824   0.411   6.557
12357TIP3    H236949   3.932   0.492   6.624
12358TIP3   OH236950   3.364   0.276   8.000
12358TIP3    H136951   3.306   0.299   8.077
12358TIP3    H236952   3.350   0.355   7.943
12359TIP3   OH236953   3.227   0.188   7.501
12359TIP3    H136954   3.151   0.136   7.533
12359TIP3    H236955   3.251   0.139   7.419
12360TIP3   OH236956   3.735   0.255   7.232
12360TIP3    H136957   3.679   0.328   7.197
12360TIP3    H236958   3.781   0.226   7.152
12361TIP3   OH236959   3.903   0.579   8.273
12361TIP3    H136960   3.861   0.546   8.355
12361TIP3    H236961   3.994   0.558   8.296
12362TIP3   OH236962   3.893   0.278   7.475
12362TIP3    H136963   3.834   0.316   7.407
12362TIP3    H236964   3.921   0.197   7.431
12363TIP3   OH236965   3.184   0.318   8.202
12363TIP3    H136966   3.188   0.380   8.276
12363TIP3    H236967   3.131   0.245   8.237
12364TIP3   OH236968   3.898   0.536   7.897
12364TIP3    H136969   3.931   0.460   7.843
12364TIP3    H236970   3.879   0.492   7.981
12365TIP3   OH236971   2.998   0.040   7.576
12365TIP3    H136972   2.905   0.058   7.551
12365TIP3    H236973   3.008  -0.053   7.555
12366TIP3   OH236974   3.286   0.056   7.265
12366TIP3    H136975   3.372   0.035   7.226
12366TIP3    H236976   3.225   0.052   7.189
12367TIP3   OH236977   3.103   0.075   7.046
12367TIP3    H136978   3.046   0.023   6.986
12367TIP3    H236979   3.164   0.113   6.980
12368TIP3   OH236980   4.230   1.751   7.990
12368TIP3    H136981   4.229   1.776   7.896
12368TIP3    H236982   4.307   1.800   8.023
12369TIP3   OH236983   3.187   0.861   8.414
12369TIP3    H136984   3.268   0.892   8.461
12369TIP3    H236985   3.123   0.865   8.488
12370TIP3   OH236986   3.655   0.319   7.673
12370TIP3    H136987   3.713   0.262   7.620
12370TIP3    H236988   3.651   0.271   7.757
12371TIP3   OH236989   3.632   0.202   7.969
12371TIP3    H136990   3.544   0.244   7.977
12371TIP3    H236991   3.688   0.257   8.028
12372TIP3   OH236992   3.365   0.602   7.051
12372TIP3    H136993   3.293   0.537   7.041
12372TIP3    H236994   3.346   0.636   7.143
12373TIP3   OH236995   4.267   0.838   7.682
12373TIP3    H136996   4.291   0.888   7.601
12373TIP3    H236997   4.181   0.798   7.657
12374TIP3   OH236998   3.764   0.923   8.048
12374TIP3    H136999   3.789   0.904   8.140
12374TIP3    H237000   3.724   1.012   8.055
12375TIP3   OH237001   3.898   0.128   7.002
12375TIP3    H137002   3.988   0.153   7.030
12375TIP3    H237003   3.869   0.208   6.955
12376TIP3   OH237004   3.055   0.621   7.727
12376TIP3    H137005   3.097   0.594   7.643
12376TIP3    H237006   3.095   0.559   7.790
12377TIP3   OH237007   3.509   0.751   6.871
12377TIP3    H137008   3.462   0.838   6.878
12377TIP3    H237009   3.455   0.696   6.932
12378TIP3   OH237010   2.936   0.543   8.346
12378TIP3    H137011   2.942   0.524   8.441
12378TIP3    H237012   2.859   0.489   8.318
12379TIP3   OH237013   3.652   0.670   8.356
12379TIP3    H137014   3.588   0.606   8.321
12379TIP3    H237015   3.726   0.662   8.292
12380TIP3   OH237016   3.924   1.179   7.943
12380TIP3    H137017   3.828   1.180   7.957
12380TIP3    H237018   3.954   1.231   8.022
12381TIP3   OH237019   4.330   0.246   6.856
12381TIP3    H137020   4.274   0.198   6.790
12381TIP3    H237021   4.329   0.335   6.814
12382TIP3   OH237022   4.552   1.108   7.935
12382TIP3    H137023   4.454   1.104   7.927
12382TIP3    H237024   4.578   1.081   7.844
12383TIP3   OH237025   4.032   1.072   6.760
12383TIP3    H137026   4.009   1.003   6.824
12383TIP3    H237027   4.046   1.023   6.677
12384TIP3   OH237028   4.031   0.701   7.600
12384TIP3    H137029   3.937   0.676   7.613
12384TIP3    H237030   4.065   0.621   7.556
12385TIP3   OH237031   3.156   0.926   7.349
12385TIP3    H137032   3.157   1.009   7.298
12385TIP3    H237033   3.062   0.914   7.364
12386TIP3   OH237034   2.721   0.230   7.055
12386TIP3    H137035   2.768   0.313   7.074
12386TIP3    H237036   2.646   0.236   7.118
12387TIP3   OH237037   3.299   0.694   7.296
12387TIP3    H137038   3.261   0.782   7.315
12387TIP3    H237039   3.263   0.642   7.371
12388TIP3   OH237040   3.426   1.272   7.821
12388TIP3    H137041   3.468   1.346   7.773
12388TIP3    H237042   3.501   1.238   7.873
12389TIP3   OH237043   3.076   1.168   7.203
12389TIP3    H137044   2.991   1.176   7.251
12389TIP3    H237045   3.108   1.261   7.208
12390TIP3   OH237046   3.815   0.905   7.780
12390TIP3    H137047   3.805   0.906   7.878
12390TIP3    H237048   3.898   0.855   7.770
12391TIP3   OH237049   3.788   0.795   6.662
12391TIP3    H137050   3.841   0.772   6.742
12391TIP3    H237051   3.699   0.774   6.694
12392TIP3   OH237052   4.064   1.439   7.830
12392TIP3    H137053   3.984   1.383   7.824
12392TIP3    H237054   4.048   1.505   7.759
12393TIP3   OH237055   4.129   1.274   6.483
12393TIP3    H137056   4.168   1.347   6.431
12393TIP3    H237057   4.049   1.320   6.516
12394TIP3   OH237058   3.949   0.728   6.876
12394TIP3    H137059   3.939   0.666   6.950
12394TIP3    H237060   4.047   0.729   6.867
12395TIP3   OH237061   2.864   1.134   7.982
12395TIP3    H137062   2.919   1.061   8.016
12395TIP3    H237063   2.888   1.205   8.042
12396TIP3   OH237064   3.155   0.781   6.662
12396TIP3    H137065   3.170   0.689   6.633
12396TIP3    H237066   3.137   0.768   6.757
12397TIP3   OH237067   3.101   0.785   6.935
12397TIP3    H137068   3.170   0.756   6.996
12397TIP3    H237069   3.107   0.883   6.943
12398TIP3   OH237070   2.834   0.477   7.136
12398TIP3    H137071   2.769   0.522   7.194
12398TIP3    H237072   2.851   0.548   7.071
12399TIP3   OH237073   3.366   0.981   6.882
12399TIP3    H137074   3.280   1.009   6.920
12399TIP3    H237075   3.385   1.056   6.824
12400TIP3   OH237076   3.582   0.037   7.301
12400TIP3    H137077   3.621   0.125   7.281
12400TIP3    H237078   3.534   0.053   7.383
12401TIP3   OH237079   3.813   0.343   8.129
12401TIP3    H137080   3.827   0.426   8.179
12401TIP3    H237081   3.906   0.313   8.125
12402TIP3   OH237082   3.109   1.058   6.951
12402TIP3    H137083   3.079   1.128   6.889
12402TIP3    H237084   3.094   1.101   7.038
12403TIP3   OH237085   4.118   0.461   7.472
12403TIP3    H137086   4.044   0.401   7.493
12403TIP3    H237087   4.192   0.418   7.521
12404TIP3   OH237088   2.828   0.691   6.943
12404TIP3    H137089   2.897   0.759   6.954
12404TIP3    H237090   2.874   0.634   6.877
12405TIP3   OH237091   2.748  -0.059   7.064
12405TIP3    H137092   2.797   0.025   7.063
12405TIP3    H237093   2.663  -0.027   7.096
12406TIP3   OH237094   4.084   1.413   7.423
12406TIP3    H137095   4.042   1.460   7.348
12406TIP3    H237096   4.178   1.433   7.403
12407TIP3   OH237097   2.699   0.901   7.332
12407TIP3    H137098   2.627   0.934   7.387
12407TIP3    H237099   2.676   0.940   7.245
12408TIP3   OH237100   2.857   1.443   8.401
12408TIP3    H137101   2.942   1.445   8.451
12408TIP3    H237102   2.836   1.348   8.404
12409TIP3   OH237103   3.338   1.413   8.443
12409TIP3    H137104   3.431   1.393   8.456
12409TIP3    H237105   3.315   1.350   8.372
12410TIP3   OH237106   3.319   0.985   6.575
12410TIP3    H137107   3.263   0.913   6.614
12410TIP3    H237108   3.395   0.932   6.544
12411TIP3   OH237109   3.980   1.311   8.178
12411TIP3    H137110   3.969   1.244   8.248
12411TIP3    H237111   4.055   1.365   8.211
12412TIP3   OH237112   3.754   1.025   6.486
12412TIP3    H137113   3.803   0.965   6.544
12412TIP3    H237114   3.810   1.027   6.406
12413TIP3   OH237115   2.989   0.836   8.604
12413TIP3    H137116   3.002   0.740   8.595
12413TIP3    H237117   2.900   0.849   8.563
12414TIP3   OH237118   2.963   0.503   6.796
12414TIP3    H137119   3.016   0.467   6.869
12414TIP3    H237120   3.031   0.507   6.726
12415TIP3   OH237121   3.596   0.938   8.377
12415TIP3    H137122   3.552   0.948   8.291
12415TIP3    H237123   3.621   0.843   8.377
12416TIP3   OH237124   3.470   0.700   6.603
12416TIP3    H137125   3.474   0.713   6.700
12416TIP3    H237126   3.470   0.602   6.599
12417TIP3   OH237127   4.086   0.941   7.981
12417TIP3    H137128   4.160   0.988   7.938
12417TIP3    H237129   4.015   1.006   7.971
12418TIP3   OH237130   3.103   0.567   8.595
12418TIP3    H137131   3.186   0.525   8.567
12418TIP3    H237132   3.126   0.595   8.684
12419TIP3   OH237133   3.172   0.405   7.020
12419TIP3    H137134   3.146   0.364   7.104
12419TIP3    H237135   3.207   0.328   6.970
12420TIP3   OH237136   3.436   0.517   8.233
12420TIP3    H137137   3.351   0.563   8.244
12420TIP3    H237138   3.459   0.537   8.141
12421TIP3   OH237139   3.270   0.198   6.862
12421TIP3    H137140   3.245   0.198   6.767
12421TIP3    H237141   3.368   0.203   6.854
12422TIP3   OH237142   3.956   0.872   8.385
12422TIP3    H137143   4.030   0.841   8.332
12422TIP3    H237144   3.952   0.805   8.456
12423TIP3   OH237145   4.099   0.528   6.519
12423TIP3    H137146   4.073   0.485   6.435
12423TIP3    H237147   4.067   0.619   6.500
12424TIP3   OH237148   3.551   0.318   8.374
12424TIP3    H137149   3.534   0.235   8.325
12424TIP3    H237150   3.514   0.385   8.313
12425TIP3   OH237151   3.627   0.583   8.024
12425TIP3    H137152   3.703   0.603   7.968
12425TIP3    H237153   3.563   0.653   7.998
12426TIP3   OH237154   4.178   0.547   8.435
12426TIP3    H137155   4.229   0.466   8.448
12426TIP3    H237156   4.245   0.611   8.405
12427TIP3   OH237157   4.222   0.796   8.164
12427TIP3    H137158   4.160   0.851   8.109
12427TIP3    H237159   4.308   0.822   8.125
12428TIP3   OH237160   3.406   0.395   8.602
12428TIP3    H137161   3.348   0.317   8.610
12428TIP3    H237162   3.464   0.369   8.528
12429TIP3   OH237163   3.871   0.429   8.487
12429TIP3    H137164   3.838   0.398   8.572
12429TIP3    H237165   3.879   0.346   8.439
12430TIP3   OH237166   3.076   1.260   6.761
12430TIP3    H137167   3.172   1.256   6.744
12430TIP3    H237168   3.046   1.313   6.685
12431TIP3   OH237169   2.560   0.643   6.980
12431TIP3    H137170   2.655   0.664   6.966
12431TIP3    H237171   2.554   0.554   6.940
12432TIP3   OH237172   2.475   1.253   7.391
12432TIP3    H137173   2.406   1.191   7.357
12432TIP3    H237174   2.518   1.198   7.459
12433TIP3   OH237175   2.609   1.107   7.580
12433TIP3    H137176   2.601   1.033   7.643
12433TIP3    H237177   2.661   1.169   7.635
12434TIP3   OH237178   4.336   1.507   7.379
12434TIP3    H137179   4.361   1.538   7.468
12434TIP3    H237180   4.399   1.554   7.322
12435TIP3   OH237181   4.367   1.526   7.660
12435TIP3    H137182   4.324   1.438   7.658
12435TIP3    H237183   4.441   1.506   7.719
12436TIP3   OH237184   4.413   1.201   8.235
12436TIP3    H137185   4.339   1.211   8.298
12436TIP3    H237186   4.454   1.290   8.238
12437TIP3   OH237187   4.231   0.713   6.853
12437TIP3    H137188   4.297   0.780   6.827
12437TIP3    H237189   4.273   0.675   6.934
12438TIP3   OH237190   4.357   0.577   7.055
12438TIP3    H137191   4.292   0.540   7.118
12438TIP3    H237192   4.425   0.618   7.114
12439TIP3   OH237193   4.408   0.974   7.489
12439TIP3    H137194   4.463   0.911   7.439
12439TIP3    H237195   4.401   1.049   7.427
12440TIP3   OH237196   4.242   1.275   7.686
12440TIP3    H137197   4.172   1.318   7.738
12440TIP3    H237198   4.190   1.228   7.617
12441TIP3   OH237199   4.293   0.484   6.706
12441TIP3    H137200   4.223   0.497   6.637
12441TIP3    H237201   4.271   0.561   6.763
12442TIP3   OH237202   4.176   0.154   6.648
12442TIP3    H137203   4.130   0.232   6.613
12442TIP3    H237204   4.125   0.082   6.609
12443TIP3   OH237205   4.171   0.439   7.206
12443TIP3    H137206   4.168   0.342   7.207
12443TIP3    H237207   4.158   0.459   7.302
12444TIP3   OH237208   2.795   0.522   7.941
12444TIP3    H137209   2.798   0.489   7.849
12444TIP3    H237210   2.891   0.520   7.964
12445TIP3   OH237211   4.466   0.860   8.059
12445TIP3    H137212   4.539   0.795   8.047
12445TIP3    H237213   4.491   0.931   7.999
12446TIP3   OH237214   4.649   0.655   8.079
12446TIP3    H137215   4.585   0.606   8.135
12446TIP3    H237216   4.733   0.613   8.105
12447TIP3   OH237217   4.166   0.159   7.078
12447TIP3    H137218   4.221   0.093   7.120
12447TIP3    H237219   4.226   0.200   7.013
12448TIP3   OH237220   4.333   0.351   7.600
12448TIP3    H137221   4.421   0.369   7.561
12448TIP3    H237222   4.348   0.380   7.692
12449TIP3   OH237223   4.393   0.482   7.842
12449TIP3    H137224   4.311   0.525   7.876
12449TIP3    H237225   4.430   0.555   7.786
12450TIP3   OH237226   2.802   0.157   8.038
12450TIP3    H137227   2.843   0.166   7.950
12450TIP3    H237228   2.799   0.248   8.071
12451TIP3   OH237229   3.919   1.372   7.036
12451TIP3    H137230   3.973   1.360   6.955
12451TIP3    H237231   3.971   1.438   7.084
12452TIP3   OH237232   3.023   1.172   8.425
12452TIP3    H137233   2.929   1.148   8.413
12452TIP3    H237234   3.034   1.160   8.521
12453TIP3   OH237235   3.198   1.205   7.967
12453TIP3    H137236   3.151   1.282   7.931
12453TIP3    H237237   3.285   1.220   7.925
12454TIP3   OH237238   3.646   1.453   8.106
12454TIP3    H137239   3.686   1.454   8.196
12454TIP3    H237240   3.712   1.505   8.056
12455TIP3   OH237241   3.826   1.605   7.965
12455TIP3    H137242   3.899   1.553   7.928
12455TIP3    H237243   3.874   1.663   8.028
12456TIP3   OH237244   2.876   1.464   7.993
12456TIP3    H137245   2.787   1.500   7.972
12456TIP3    H237246   2.889   1.502   8.081
12457TIP3   OH237247   3.112   1.443   7.851
12457TIP3    H137248   3.026   1.457   7.897
12457TIP3    H237249   3.092   1.478   7.762
12458TIP3   OH237250   3.539   1.475   7.647
12458TIP3    H137251   3.469   1.497   7.584
12458TIP3    H237252   3.552   1.561   7.693
12459TIP3   OH237253   3.807   1.412   7.697
12459TIP3    H137254   3.713   1.430   7.680
12459TIP3    H237255   3.850   1.491   7.661
12460TIP3   OH237256   4.015   1.605   7.616
12460TIP3    H137257   4.001   1.690   7.569
12460TIP3    H237258   4.041   1.545   7.543
12461TIP3   OH237259   2.787   1.258   7.738
12461TIP3    H137260   2.814   1.236   7.830
12461TIP3    H237261   2.861   1.215   7.689
12462TIP3   OH237262   2.982   1.130   7.594
12462TIP3    H137263   2.997   1.046   7.644
12462TIP3    H237264   3.072   1.168   7.591
12463TIP3   OH237265   3.247   1.225   7.598
12463TIP3    H137266   3.279   1.134   7.588
12463TIP3    H237267   3.290   1.249   7.682
12464TIP3   OH237268   2.578   1.029   7.128
12464TIP3    H137269   2.492   0.996   7.095
12464TIP3    H237270   2.564   1.124   7.116
12465TIP3   OH237271   3.345   1.223   6.708
12465TIP3    H137272   3.435   1.243   6.676
12465TIP3    H237273   3.325   1.145   6.652
12466TIP3   OH237274   4.067   1.339   6.804
12466TIP3    H137275   4.057   1.241   6.791
12466TIP3    H237276   4.022   1.372   6.724
12467TIP3   OH237277   2.657   1.068   6.775
12467TIP3    H137278   2.651   1.071   6.871
12467TIP3    H237279   2.741   1.021   6.760
12468TIP3   OH237280   4.295   1.483   7.990
12468TIP3    H137281   4.214   1.451   7.945
12468TIP3    H237282   4.275   1.579   7.996
12469TIP3   OH237283   5.560   0.854   6.754
12469TIP3    H137284   5.535   0.947   6.738
12469TIP3    H237285   5.475   0.810   6.739
12470TIP3   OH237286   5.557   0.851   7.138
12470TIP3    H137287   5.594   0.828   7.225
12470TIP3    H237288   5.514   0.768   7.112
12471TIP3   OH237289   4.856   0.752   7.503
12471TIP3    H137290   4.872   0.691   7.577
12471TIP3    H237291   4.940   0.801   7.501
12472TIP3   OH237292   5.801   1.155   6.821
12472TIP3    H137293   5.787   1.087   6.888
12472TIP3    H237294   5.828   1.232   6.875
12473TIP3   OH237295   4.826   1.157   7.227
12473TIP3    H137296   4.815   1.059   7.230
12473TIP3    H237297   4.923   1.165   7.230
12474TIP3   OH237298   4.530   0.340   7.024
12474TIP3    H137299   4.497   0.429   7.046
12474TIP3    H237300   4.459   0.309   6.965
12475TIP3   OH237301   4.597   0.644   7.178
12475TIP3    H137302   4.648   0.574   7.223
12475TIP3    H237303   4.667   0.696   7.134
12476TIP3   OH237304   5.448   1.619   6.835
12476TIP3    H137305   5.497   1.547   6.791
12476TIP3    H237306   5.442   1.587   6.926
12477TIP3   OH237307   5.358   1.081   7.185
12477TIP3    H137308   5.396   1.004   7.140
12477TIP3    H237309   5.442   1.126   7.210
12478TIP3   OH237310   5.777   0.591   7.221
12478TIP3    H137311   5.795   0.504   7.259
12478TIP3    H237312   5.743   0.569   7.132
12479TIP3   OH237313   4.740   0.440   7.291
12479TIP3    H137314   4.814   0.410   7.347
12479TIP3    H237315   4.763   0.392   7.209
12480TIP3   OH237316   5.187   0.647   7.080
12480TIP3    H137317   5.276   0.613   7.106
12480TIP3    H237318   5.141   0.564   7.059
12481TIP3   OH237319   6.422   0.586   7.371
12481TIP3    H137320   6.355   0.655   7.352
12481TIP3    H237321   6.461   0.616   7.455
12482TIP3   OH237322   5.454   1.079   6.625
12482TIP3    H137323   5.406   1.058   6.544
12482TIP3    H237324   5.410   1.162   6.652
12483TIP3   OH237325   5.223   1.004   7.428
12483TIP3    H137326   5.155   1.065   7.465
12483TIP3    H237327   5.262   1.058   7.357
12484TIP3   OH237328   4.955   0.300   7.391
12484TIP3    H137329   4.996   0.389   7.405
12484TIP3    H237330   5.020   0.266   7.328
12485TIP3   OH237331   5.037   1.192   7.511
12485TIP3    H137332   5.011   1.280   7.475
12485TIP3    H237333   4.959   1.176   7.568
12486TIP3   OH237334   4.433   0.884   6.750
12486TIP3    H137335   4.392   0.913   6.667
12486TIP3    H237336   4.464   0.969   6.788
12487TIP3   OH237337   5.873   1.399   6.988
12487TIP3    H137338   5.784   1.390   7.029
12487TIP3    H237339   5.864   1.486   6.944
12488TIP3   OH237340   5.577   1.445   6.665
12488TIP3    H137341   5.627   1.364   6.642
12488TIP3    H237342   5.636   1.512   6.623
12489TIP3   OH237343   5.720   1.230   6.568
12489TIP3    H137344   5.671   1.153   6.535
12489TIP3    H237345   5.755   1.196   6.653
12490TIP3   OH237346   6.100   1.313   7.332
12490TIP3    H137347   6.086   1.236   7.274
12490TIP3    H237348   6.080   1.388   7.272
12491TIP3   OH237349   5.383   0.695   6.584
12491TIP3    H137350   5.307   0.756   6.569
12491TIP3    H237351   5.436   0.709   6.503
12492TIP3   OH237352   5.361   0.424   6.386
12492TIP3    H137353   5.409   0.507   6.398
12492TIP3    H237354   5.395   0.397   6.298
12493TIP3   OH237355   6.294   0.948   7.179
12493TIP3    H137356   6.210   0.999   7.184
12493TIP3    H237357   6.322   0.971   7.088
12494TIP3   OH237358   5.737   0.785   6.560
12494TIP3    H137359   5.682   0.811   6.637
12494TIP3    H237360   5.820   0.759   6.604
12495TIP3   OH237361   5.972   0.834   7.464
12495TIP3    H137362   5.966   0.915   7.518
12495TIP3    H237363   5.884   0.837   7.420
12496TIP3   OH237364   4.973   0.786   6.974
12496TIP3    H137365   4.936   0.726   6.906
12496TIP3    H237366   5.049   0.734   7.007
12497TIP3   OH237367   5.101   1.200   7.125
12497TIP3    H137368   5.080   1.152   7.044
12497TIP3    H237369   5.191   1.167   7.145
12498TIP3   OH237370   5.092   0.798   7.304
12498TIP3    H137371   5.145   0.772   7.226
12498TIP3    H237372   5.148   0.866   7.346
12499TIP3   OH237373   5.633   1.394   7.108
12499TIP3    H137374   5.618   1.475   7.161
12499TIP3    H237375   5.617   1.323   7.173
12500TIP3   OH237376   5.243   1.315   7.654
12500TIP3    H137377   5.184   1.378   7.701
12500TIP3    H237378   5.177   1.261   7.606
12501TIP3   OH237379   5.579   0.637   6.389
12501TIP3    H137380   5.638   0.696   6.441
12501TIP3    H237381   5.603   0.663   6.297
12502TIP3   OH237382   4.985   0.878   7.750
12502TIP3    H137383   4.992   0.962   7.800
12502TIP3    H237384   4.891   0.856   7.765
12503TIP3   OH237385   5.321   1.326   6.660
12503TIP3    H137386   5.398   1.382   6.683
12503TIP3    H237387   5.258   1.390   6.625
12504TIP3   OH237388   5.038   1.483   7.743
12504TIP3    H137389   5.001   1.482   7.652
12504TIP3    H237390   4.959   1.462   7.798
12505TIP3   OH237391   4.843   0.633   6.764
12505TIP3    H137392   4.765   0.673   6.718
12505TIP3    H237393   4.805   0.554   6.804
12506TIP3   OH237394   5.891   1.255   5.982
12506TIP3    H137395   5.899   1.352   5.969
12506TIP3    H237396   5.984   1.227   5.971
12507TIP3   OH237397   4.615   1.018   7.688
12507TIP3    H137398   4.551   0.991   7.620
12507TIP3    H237399   4.651   0.932   7.720
12508TIP3   OH237400   4.471   1.206   7.322
12508TIP3    H137401   4.567   1.201   7.315
12508TIP3    H237402   4.460   1.285   7.378
12509TIP3   OH237403   6.337   1.658   7.378
12509TIP3    H137404   6.334   1.561   7.392
12509TIP3    H237405   6.253   1.684   7.423
12510TIP3   OH237406   5.440   1.445   7.511
12510TIP3    H137407   5.441   1.537   7.545
12510TIP3    H237408   5.369   1.406   7.567
12511TIP3   OH237409   5.202   1.574   6.464
12511TIP3    H137410   5.155   1.556   6.380
12511TIP3    H237411   5.169   1.663   6.488
12512TIP3   OH237412   4.640   1.422   6.848
12512TIP3    H137413   4.689   1.413   6.933
12512TIP3    H237414   4.579   1.347   6.856
12513TIP3   OH237415   5.404   1.474   6.105
12513TIP3    H137416   5.463   1.404   6.069
12513TIP3    H237417   5.437   1.483   6.197
12514TIP3   OH237418   5.453   1.521   6.376
12514TIP3    H137419   5.365   1.531   6.417
12514TIP3    H237420   5.503   1.482   6.449
12515TIP3   OH237421   6.230   0.789   7.664
12515TIP3    H137422   6.151   0.821   7.618
12515TIP3    H237423   6.237   0.698   7.633
12516TIP3   OH237424   4.823   1.197   7.678
12516TIP3    H137425   4.872   1.181   7.761
12516TIP3    H237426   4.748   1.134   7.686
12517TIP3   OH237427   5.904   0.651   7.662
12517TIP3    H137428   5.940   0.566   7.652
12517TIP3    H237429   5.916   0.696   7.572
12518TIP3   OH237430   5.658   0.685   6.131
12518TIP3    H137431   5.621   0.668   6.042
12518TIP3    H237432   5.730   0.747   6.110
12519TIP3   OH237433   5.085   0.530   7.353
12519TIP3    H137434   5.134   0.532   7.438
12519TIP3    H237435   5.079   0.625   7.333
12520TIP3   OH237436   5.019   0.445   6.973
12520TIP3    H137437   4.946   0.401   7.021
12520TIP3    H237438   5.071   0.371   6.942
12521TIP3   OH237439   5.533   0.509   6.718
12521TIP3    H137440   5.480   0.582   6.680
12521TIP3    H237441   5.585   0.480   6.641
12522TIP3   OH237442   5.720   0.848   7.752
12522TIP3    H137443   5.715   0.806   7.838
12522TIP3    H237444   5.816   0.856   7.746
12523TIP3   OH237445   5.693   0.537   6.961
12523TIP3    H137446   5.630   0.570   6.894
12523TIP3    H237447   5.719   0.453   6.921
12524TIP3   OH237448   4.913   0.583   7.717
12524TIP3    H137449   4.983   0.640   7.750
12524TIP3    H237450   4.961   0.501   7.699
12525TIP3   OH237451   5.704   0.790   7.384
12525TIP3    H137452   5.731   0.713   7.329
12525TIP3    H237453   5.666   0.745   7.461
12526TIP3   OH237454   4.797   0.298   7.063
12526TIP3    H137455   4.702   0.314   7.040
12526TIP3    H237456   4.809   0.205   7.039
12527TIP3   OH237457   4.923   0.353   6.496
12527TIP3    H137458   4.857   0.289   6.525
12527TIP3    H237459   4.911   0.342   6.400
12528TIP3   OH237460   6.025   2.006   7.476
12528TIP3    H137461   6.021   2.033   7.383
12528TIP3    H237462   6.096   2.063   7.510
12529TIP3   OH237463   4.982   1.119   7.899
12529TIP3    H137464   5.062   1.148   7.946
12529TIP3    H237465   4.918   1.119   7.973
12530TIP3   OH237466   5.451   0.579   7.160
12530TIP3    H137467   5.503   0.511   7.117
12530TIP3    H237468   5.447   0.544   7.252
12531TIP3   OH237469   5.457   0.484   7.419
12531TIP3    H137470   5.373   0.484   7.469
12531TIP3    H237471   5.516   0.524   7.486
12532TIP3   OH237472   5.164   0.859   6.539
12532TIP3    H137473   5.092   0.794   6.529
12532TIP3    H237474   5.145   0.895   6.630
12533TIP3   OH237475   6.062   1.094   7.169
12533TIP3    H137476   6.085   1.144   7.088
12533TIP3    H237477   5.976   1.053   7.145
12534TIP3   OH237478   5.574   1.188   7.532
12534TIP3    H137479   5.575   1.144   7.617
12534TIP3    H237480   5.521   1.268   7.548
12535TIP3   OH237481   5.677   0.392   6.494
12535TIP3    H137482   5.774   0.402   6.507
12535TIP3    H237483   5.657   0.471   6.441
12536TIP3   OH237484   4.835   0.870   7.208
12536TIP3    H137485   4.884   0.850   7.125
12536TIP3    H237486   4.896   0.833   7.274
12537TIP3   OH237487   5.306   1.010   6.359
12537TIP3    H137488   5.259   1.096   6.365
12537TIP3    H237489   5.252   0.955   6.420
12538TIP3   OH237490   4.725   0.814   7.833
12538TIP3    H137491   4.760   0.795   7.923
12538TIP3    H237492   4.679   0.731   7.813
12539TIP3   OH237493   5.468   0.923   7.855
12539TIP3    H137494   5.390   0.875   7.817
12539TIP3    H237495   5.534   0.907   7.786
12540TIP3   OH237496   5.722   1.443   7.426
12540TIP3    H137497   5.627   1.433   7.442
12540TIP3    H237498   5.749   1.490   7.507
12541TIP3   OH237499   6.134   0.506   6.339
12541TIP3    H137500   6.075   0.457   6.277
12541TIP3    H237501   6.130   0.594   6.296
12542TIP3   OH237502   6.350   1.364   7.422
12542TIP3    H137503   6.252   1.361   7.413
12542TIP3    H237504   6.375   1.336   7.331
12543TIP3   OH237505   5.832   1.328   6.248
12543TIP3    H137506   5.805   1.260   6.311
12543TIP3    H237507   5.842   1.280   6.165
12544TIP3   OH237508   5.827   0.957   7.087
12544TIP3    H137509   5.734   0.932   7.101
12544TIP3    H237510   5.861   0.877   7.042
12545TIP3   OH237511   4.952   1.182   6.834
12545TIP3    H137512   4.953   1.266   6.784
12545TIP3    H237513   4.858   1.172   6.852
12546TIP3   OH237514   4.520   0.485   6.545
12546TIP3    H137515   4.565   0.571   6.561
12546TIP3    H237516   4.442   0.494   6.603
12547TIP3   OH237517   5.095   0.952   6.783
12547TIP3    H137518   5.057   1.040   6.801
12547TIP3    H237519   5.060   0.900   6.857
12548TIP3   OH237520   5.222   1.529   7.309
12548TIP3    H137521   5.264   1.602   7.259
12548TIP3    H237522   5.298   1.495   7.359
12549TIP3   OH237523   4.873   1.424   6.691
12549TIP3    H137524   4.788   1.432   6.737
12549TIP3    H237525   4.905   1.517   6.694
12550TIP3   OH237526   5.612   1.161   7.265
12550TIP3    H137527   5.603   1.165   7.364
12550TIP3    H237528   5.692   1.107   7.256
12551TIP3   OH237529   5.585   1.051   6.149
12551TIP3    H137530   5.637   1.028   6.229
12551TIP3    H237531   5.495   1.031   6.179
12552TIP3   OH237532   5.862   1.695   7.317
12552TIP3    H137533   5.783   1.638   7.313
12552TIP3    H237534   5.843   1.760   7.245
12553TIP3   OH237535   5.925   1.531   5.970
12553TIP3    H137536   5.960   1.602   5.914
12553TIP3    H237537   5.845   1.576   6.004
12554TIP3   OH237538   5.745   0.985   6.364
12554TIP3    H137539   5.735   0.921   6.437
12554TIP3    H237540   5.842   0.986   6.354
12555TIP3   OH237541   4.662   1.391   7.468
12555TIP3    H137542   4.714   1.317   7.502
12555TIP3    H237543   4.687   1.461   7.529
12556TIP3   OH237544   4.952   1.037   6.149
12556TIP3    H137545   4.966   0.945   6.120
12556TIP3    H237546   4.935   1.025   6.244
12557TIP3   OH237547   4.899   1.040   6.422
12557TIP3    H137548   4.967   1.017   6.486
12557TIP3    H237549   4.901   1.138   6.427
12558TIP3   OH237550   4.628   0.735   6.622
12558TIP3    H137551   4.565   0.781   6.681
12558TIP3    H237552   4.644   0.806   6.557
12559TIP3   OH237553   5.163   1.238   6.369
12559TIP3    H137554   5.076   1.265   6.406
12559TIP3    H237555   5.179   1.312   6.309
12560TIP3   OH237556   5.355   0.304   6.743
12560TIP3    H137557   5.411   0.384   6.754
12560TIP3    H237558   5.327   0.288   6.835
12561TIP3   OH237559   5.632   0.616   7.596
12561TIP3    H137560   5.609   0.697   7.644
12561TIP3    H237561   5.717   0.596   7.635
12562TIP3   OH237562   4.905   1.313   6.437
12562TIP3    H137563   4.875   1.383   6.374
12562TIP3    H237564   4.889   1.357   6.524
12563TIP3   OH237565   5.913   0.720   6.959
12563TIP3    H137566   5.840   0.657   6.977
12563TIP3    H237567   5.987   0.677   7.007
12564TIP3   OH237568   4.623   0.946   6.432
12564TIP3    H137569   4.685   1.020   6.441
12564TIP3    H237570   4.670   0.895   6.362
12565TIP3   OH237571   4.549   0.200   6.551
12565TIP3    H137572   4.581   0.292   6.550
12565TIP3    H237573   4.459   0.215   6.584
12566TIP3   OH237574   5.881   1.670   6.910
12566TIP3    H137575   5.838   1.716   6.835
12566TIP3    H237576   5.975   1.688   6.888
12567TIP3   OH237577   4.495   1.154   6.818
12567TIP3    H137578   4.425   1.188   6.876
12567TIP3    H237579   4.471   1.197   6.733
12568TIP3   OH237580   4.651   1.699   7.889
12568TIP3    H137581   4.737   1.700   7.937
12568TIP3    H237582   4.631   1.604   7.889
12569TIP3   OH237583   5.134   1.666   7.934
12569TIP3    H137584   5.229   1.646   7.941
12569TIP3    H237585   5.109   1.607   7.860
12570TIP3   OH237586   5.115   1.241   6.062
12570TIP3    H137587   5.059   1.170   6.100
12570TIP3    H237588   5.190   1.188   6.029
12571TIP3   OH237589   5.777   1.569   7.664
12571TIP3    H137590   5.764   1.501   7.734
12571TIP3    H237591   5.850   1.622   7.699
12572TIP3   OH237592   5.552   1.282   5.973
12572TIP3    H137593   5.599   1.220   6.030
12572TIP3    H237594   5.606   1.283   5.892
12573TIP3   OH237595   4.783   1.105   8.090
12573TIP3    H137596   4.799   1.009   8.095
12573TIP3    H237597   4.695   1.107   8.047
12574TIP3   OH237598   4.757   0.759   6.280
12574TIP3    H137599   4.814   0.732   6.354
12574TIP3    H237600   4.824   0.765   6.208
12575TIP3   OH237601   5.391   1.193   7.863
12575TIP3    H137602   5.347   1.204   7.777
12575TIP3    H237603   5.425   1.101   7.859
12576TIP3   OH237604   5.267   0.960   6.090
12576TIP3    H137605   5.270   0.973   6.187
12576TIP3    H237606   5.270   0.862   6.086
12577TIP3   OH237607   5.885   1.195   7.471
12577TIP3    H137608   5.953   1.249   7.426
12577TIP3    H237609   5.807   1.252   7.463
12578TIP3   OH237610   4.897   0.836   8.071
12578TIP3    H137611   4.971   0.778   8.050
12578TIP3    H237612   4.925   0.868   8.160
12579TIP3   OH237613   4.973   0.655   6.512
12579TIP3    H137614   4.940   0.639   6.603
12579TIP3    H237615   4.974   0.565   6.476
12580TIP3   OH237616   5.247   0.791   7.765
12580TIP3    H137617   5.157   0.824   7.745
12580TIP3    H237618   5.257   0.718   7.701
12581TIP3   OH237619   5.756   1.135   7.875
12581TIP3    H137620   5.826   1.100   7.818
12581TIP3    H237621   5.752   1.067   7.945
12582TIP3   OH237622   5.894   0.785   6.006
12582TIP3    H137623   5.869   0.741   5.922
12582TIP3    H237624   5.862   0.876   5.986
12583TIP3   OH237625   3.288   9.842   6.018
12583TIP3    H137626   3.360   9.799   5.972
12583TIP3    H237627   3.277   9.914   5.953
12584TIP3   OH237628   5.440   0.860   7.534
12584TIP3    H137629   5.477   0.849   7.446
12584TIP3    H237630   5.356   0.906   7.514
12585TIP3   OH237631   5.984   0.827   7.934
12585TIP3    H137632   5.998   0.733   7.920
12585TIP3    H237633   6.056   0.869   7.884
12586TIP3   OH237634   6.017   1.051   7.656
12586TIP3    H137635   5.955   1.105   7.600
12586TIP3    H237636   6.102   1.077   7.615
12587TIP3   OH237637   5.225   0.630   8.099
12587TIP3    H137638   5.143   0.585   8.073
12587TIP3    H237639   5.277   0.619   8.018
12588TIP3   OH237640   5.699   0.716   7.977
12588TIP3    H137641   5.628   0.749   8.039
12588TIP3    H237642   5.649   0.637   7.939
12589TIP3   OH237643   4.875   1.515   6.249
12589TIP3    H137644   4.970   1.513   6.231
12589TIP3    H237645   4.844   1.565   6.171
12590TIP3   OH237646   4.355   0.898   6.467
12590TIP3    H137647   4.450   0.921   6.454
12590TIP3    H237648   4.350   0.810   6.425
12591TIP3   OH237649   4.271   1.510   6.880
12591TIP3    H137650   4.202   1.449   6.845
12591TIP3    H237651   4.314   1.453   6.947
12592TIP3   OH237652   4.407   1.362   7.066
12592TIP3    H137653   4.395   1.289   7.129
12592TIP3    H237654   4.457   1.425   7.122
12593TIP3   OH237655   6.134   1.759   6.865
12593TIP3    H137656   6.156   1.792   6.955
12593TIP3    H237657   6.191   1.814   6.809
12594TIP3   OH237658   6.163   1.781   7.145
12594TIP3    H137659   6.119   1.694   7.143
12594TIP3    H237660   6.235   1.762   7.207
12595TIP3   OH237661   6.210   1.457   7.723
12595TIP3    H137662   6.136   1.466   7.785
12595TIP3    H237663   6.250   1.547   7.726
12596TIP3   OH237664   6.026   0.970   6.341
12596TIP3    H137665   6.094   1.036   6.314
12596TIP3    H237666   6.068   0.933   6.421
12597TIP3   OH237667   6.153   0.838   6.545
12597TIP3    H137668   6.087   0.797   6.605
12597TIP3    H237669   6.217   0.877   6.607
12598TIP3   OH237670   6.208   1.232   6.979
12598TIP3    H137671   6.259   1.168   6.927
12598TIP3    H237672   6.196   1.306   6.916
12599TIP3   OH237673   6.038   1.532   7.173
12599TIP3    H137674   5.968   1.576   7.225
12599TIP3    H237675   5.987   1.485   7.104
12600TIP3   OH237676   6.089   0.743   6.192
12600TIP3    H137677   6.019   0.754   6.124
12600TIP3    H237678   6.066   0.819   6.250
12601TIP3   OH237679   5.972   0.413   6.136
12601TIP3    H137680   5.926   0.487   6.096
12601TIP3    H237681   5.923   0.338   6.101
12602TIP3   OH237682   5.968   0.696   6.694
12602TIP3    H137683   5.978   0.600   6.699
12602TIP3    H237684   5.952   0.718   6.789
12603TIP3   OH237685   4.593   0.771   7.436
12603TIP3    H137686   4.594   0.744   7.342
12603TIP3    H237687   4.690   0.773   7.455
12604TIP3   OH237688   6.261   1.116   7.548
12604TIP3    H137689   6.335   1.053   7.533
12604TIP3    H237690   6.281   1.188   7.486
12605TIP3   OH237691   6.449   0.913   7.559
12605TIP3    H137692   6.374   0.871   7.607
12605TIP3    H237693   6.523   0.863   7.594
12606TIP3   OH237694   5.947   0.408   6.536
12606TIP3    H137695   5.992   0.375   6.617
12606TIP3    H237696   6.021   0.448   6.486
12607TIP3   OH237697   6.131   0.617   7.085
12607TIP3    H137698   6.221   0.628   7.048
12607TIP3    H237699   6.147   0.638   7.179
12608TIP3   OH237700   6.193   0.738   7.332
12608TIP3    H137701   6.111   0.779   7.365
12608TIP3    H237702   6.228   0.810   7.275
12609TIP3   OH237703   4.582   0.424   7.517
12609TIP3    H137704   4.632   0.428   7.432
12609TIP3    H237705   4.609   0.507   7.559
12610TIP3   OH237706   5.717   1.628   6.523
12610TIP3    H137707   5.770   1.616   6.442
12610TIP3    H237708   5.768   1.696   6.570
12611TIP3   OH237709   4.818   1.432   7.910
12611TIP3    H137710   4.726   1.405   7.893
12611TIP3    H237711   4.827   1.415   8.005
12612TIP3   OH237712   4.995   1.463   7.456
12612TIP3    H137713   4.947   1.540   7.418
12612TIP3    H237714   5.081   1.478   7.412
12613TIP3   OH237715   5.442   1.710   7.594
12613TIP3    H137716   5.483   1.712   7.683
12613TIP3    H237717   5.507   1.761   7.542
12614TIP3   OH237718   5.620   1.860   7.451
12614TIP3    H137719   5.694   1.809   7.414
12614TIP3    H237720   5.668   1.919   7.513
12615TIP3   OH237721   4.672   1.722   7.479
12615TIP3    H137722   4.583   1.757   7.458
12615TIP3    H237723   4.683   1.758   7.569
12616TIP3   OH237724   4.909   1.700   7.337
12616TIP3    H137725   4.822   1.713   7.383
12616TIP3    H237726   4.888   1.734   7.248
12617TIP3   OH237727   5.336   1.730   7.134
12617TIP3    H137728   5.265   1.752   7.070
12617TIP3    H237729   5.348   1.816   7.179
12618TIP3   OH237730   5.604   1.669   7.183
12618TIP3    H137731   5.509   1.686   7.167
12618TIP3    H237732   5.644   1.750   7.148
12619TIP3   OH237733   5.814   1.862   7.104
12619TIP3    H137734   5.799   1.947   7.057
12619TIP3    H237735   5.836   1.802   7.030
12620TIP3   OH237736   4.584   1.516   7.225
12620TIP3    H137737   4.610   1.491   7.316
12620TIP3    H237738   4.657   1.472   7.175
12621TIP3   OH237739   4.778   1.386   7.081
12621TIP3    H137740   4.793   1.303   7.131
12621TIP3    H237741   4.868   1.424   7.078
12622TIP3   OH237742   5.044   1.482   7.085
12622TIP3    H137743   5.075   1.390   7.075
12622TIP3    H237744   5.087   1.505   7.169
12623TIP3   OH237745   4.373   1.287   6.617
12623TIP3    H137746   4.287   1.255   6.583
12623TIP3    H237747   4.362   1.382   6.602
12624TIP3   OH237748   5.144   1.478   6.199
12624TIP3    H137749   5.232   1.500   6.162
12624TIP3    H237750   5.122   1.403   6.139
12625TIP3   OH237751   5.864   1.596   6.291
12625TIP3    H137752   5.855   1.498   6.279
12625TIP3    H237753   5.817   1.628   6.212
12626TIP3   OH237754   4.447   1.312   6.256
12626TIP3    H137755   4.448   1.342   6.348
12626TIP3    H237756   4.537   1.273   6.245
12627TIP3   OH237757   6.091   1.739   7.478
12627TIP3    H137758   6.011   1.707   7.431
12627TIP3    H237759   6.071   1.835   7.482
12628TIP3   OH237760   7.357   1.113   6.247
12628TIP3    H137761   7.328   1.204   6.227
12628TIP3    H237762   7.282   1.062   6.213
12629TIP3   OH237763   7.355   1.112   6.626
12629TIP3    H137764   7.383   1.081   6.713
12629TIP3    H237765   7.311   1.032   6.591
12630TIP3   OH237766   6.654   1.010   6.989
12630TIP3    H137767   6.688   0.943   7.050
12630TIP3    H237768   6.732   1.067   6.981
12631TIP3   OH237769   7.597   1.415   6.308
12631TIP3    H137770   7.583   1.343   6.370
12631TIP3    H237771   7.628   1.487   6.365
12632TIP3   OH237772   6.625   1.416   6.715
12632TIP3    H137773   6.615   1.319   6.718
12632TIP3    H237774   6.722   1.424   6.715
12633TIP3   OH237775   6.326   0.610   6.509
12633TIP3    H137776   6.280   0.694   6.524
12633TIP3    H237777   6.262   0.564   6.451
12634TIP3   OH237778   6.394   0.904   6.672
12634TIP3    H137779   6.444   0.828   6.710
12634TIP3    H237780   6.454   0.933   6.601
12635TIP3   OH237781   7.261   1.887   6.320
12635TIP3    H137782   7.308   1.811   6.277
12635TIP3    H237783   7.245   1.851   6.409
12636TIP3   OH237784   7.153   1.338   6.675
12636TIP3    H137785   7.189   1.260   6.628
12636TIP3    H237786   7.238   1.381   6.698
12637TIP3   OH237787   7.563   0.847   6.709
12637TIP3    H137788   7.606   0.764   6.732
12637TIP3    H237789   7.536   0.831   6.617
12638TIP3   OH237790   6.540   0.697   6.781
12638TIP3    H137791   6.619   0.670   6.833
12638TIP3    H237792   6.557   0.643   6.701
12639TIP3   OH237793   6.979   0.900   6.576
12639TIP3    H137794   7.070   0.867   6.589
12639TIP3    H237795   6.933   0.818   6.546
12640TIP3   OH237796   8.213   0.839   6.862
12640TIP3    H137797   8.151   0.911   6.839
12640TIP3    H237798   8.261   0.875   6.938
12641TIP3   OH237799   7.250   1.333   6.114
12641TIP3    H137800   7.204   1.306   6.034
12641TIP3    H237801   7.202   1.415   6.137
12642TIP3   OH237802   7.008   1.257   6.904
12642TIP3    H137803   6.943   1.320   6.942
12642TIP3    H237804   7.047   1.309   6.831
12643TIP3   OH237805   6.779   0.601   6.877
12643TIP3    H137806   6.843   0.669   6.906
12643TIP3    H237807   6.820   0.567   6.797
12644TIP3   OH237808   6.833   1.449   6.999
12644TIP3    H137809   6.807   1.536   6.962
12644TIP3    H237810   6.755   1.432   7.056
12645TIP3   OH237811   6.229   1.141   6.236
12645TIP3    H137812   6.187   1.168   6.153
12645TIP3    H237813   6.260   1.226   6.273
12646TIP3   OH237814   7.668   1.655   6.477
12646TIP3    H137815   7.578   1.646   6.515
12646TIP3    H237816   7.660   1.741   6.432
12647TIP3   OH237817   7.369   1.706   6.152
12647TIP3    H137818   7.416   1.621   6.134
12647TIP3    H237819   7.431   1.767   6.105
12648TIP3   OH237820   7.510   1.491   6.057
12648TIP3    H137821   7.474   1.411   6.017
12648TIP3    H237822   7.547   1.455   6.141
12649TIP3   OH237823   7.894   1.570   6.819
12649TIP3    H137824   7.884   1.492   6.760
12649TIP3    H237825   7.878   1.644   6.758
12650TIP3   OH237826   7.190   0.969   6.079
12650TIP3    H137827   7.105   1.012   6.057
12650TIP3    H237828   7.230   0.958   5.991
12651TIP3   OH237829   7.144   0.714   5.879
12651TIP3    H137830   7.227   0.762   5.893
12651TIP3    H237831   7.152   0.687   5.787
12652TIP3   OH237832   8.088   1.202   6.665
12652TIP3    H137833   8.006   1.256   6.670
12652TIP3    H237834   8.118   1.225   6.575
12653TIP3   OH237835   7.533   1.046   6.047
12653TIP3    H137836   7.479   1.070   6.126
12653TIP3    H237837   7.616   1.017   6.090
12654TIP3   OH237838   7.766   1.090   6.955
12654TIP3    H137839   7.764   1.174   7.005
12654TIP3    H237840   7.679   1.096   6.909
12655TIP3   OH237841   6.768   1.045   6.464
12655TIP3    H137842   6.723   0.987   6.398
12655TIP3    H237843   6.842   0.988   6.493
12656TIP3   OH237844   6.898   1.460   6.610
12656TIP3    H137845   6.874   1.411   6.531
12656TIP3    H237846   6.987   1.423   6.630
12657TIP3   OH237847   6.907   1.010   6.823
12657TIP3    H137848   6.935   0.989   6.731
12657TIP3    H237849   6.947   1.098   6.838
12658TIP3   OH237850   7.425   1.652   6.594
12658TIP3    H137851   7.414   1.731   6.650
12658TIP3    H237852   7.412   1.578   6.657
12659TIP3   OH237853   7.039   1.572   7.142
12659TIP3    H137854   6.980   1.634   7.189
12659TIP3    H237855   6.973   1.518   7.093
12660TIP3   OH237856   7.377   0.893   5.877
12660TIP3    H137857   7.434   0.954   5.929
12660TIP3    H237858   7.400   0.921   5.785
12661TIP3   OH237859   6.786   1.138   7.238
12661TIP3    H137860   6.790   1.222   7.289
12661TIP3    H237861   6.691   1.115   7.250
12662TIP3   OH237862   7.117   1.580   6.149
12662TIP3    H137863   7.195   1.635   6.165
12662TIP3    H237864   7.053   1.640   6.109
12663TIP3   OH237865   6.834   1.740   7.230
12663TIP3    H137866   6.798   1.738   7.140
12663TIP3    H237867   6.755   1.718   7.285
12664TIP3   OH237868   6.631   0.894   6.271
12664TIP3    H137869   6.560   0.929   6.212
12664TIP3    H237870   6.605   0.801   6.281
12665TIP3   OH237871   7.688   1.512   5.470
12665TIP3    H137872   7.697   1.609   5.456
12665TIP3    H237873   7.781   1.483   5.458
12666TIP3   OH237874   6.413   1.270   7.176
12666TIP3    H137875   6.346   1.250   7.108
12666TIP3    H237876   6.449   1.182   7.198
12667TIP3   OH237877   6.266   1.464   6.808
12667TIP3    H137878   6.363   1.461   6.803
12667TIP3    H237879   6.252   1.543   6.862
12668TIP3   OH237880   8.132   1.913   6.865
12668TIP3    H137881   8.130   1.816   6.880
12668TIP3    H237882   8.049   1.939   6.910
12669TIP3   OH237883   7.236   1.701   6.998
12669TIP3    H137884   7.237   1.793   7.032
12669TIP3    H237885   7.166   1.661   7.054
12670TIP3   OH237886   7.000   1.832   5.951
12670TIP3    H137887   6.955   1.802   5.870
12670TIP3    H237888   6.961   1.920   5.965
12671TIP3   OH237889   6.437   1.679   6.335
12671TIP3    H137890   6.483   1.669   6.421
12671TIP3    H237891   6.377   1.603   6.337
12672TIP3   OH237892   7.201   1.731   5.592
12672TIP3    H137893   7.260   1.661   5.555
12672TIP3    H237894   7.236   1.739   5.683
12673TIP3   OH237895   7.250   1.777   5.863
12673TIP3    H137896   7.161   1.786   5.903
12673TIP3    H237897   7.297   1.725   5.931
12674TIP3   OH237898   8.023   1.039   7.156
12674TIP3    H137899   7.953   1.075   7.099
12674TIP3    H237900   8.046   0.956   7.112
12675TIP3   OH237901   6.618   1.453   7.165
12675TIP3    H137902   6.667   1.437   7.249
12675TIP3    H237903   6.544   1.389   7.173
12676TIP3   OH237904   7.683   0.906   7.147
12676TIP3    H137905   7.737   0.827   7.143
12676TIP3    H237906   7.716   0.962   7.075
12677TIP3   OH237907   7.450   0.949   5.619
12677TIP3    H137908   7.415   0.921   5.532
12677TIP3    H237909   7.528   1.001   5.592
12678TIP3   OH237910   6.959   0.786   6.972
12678TIP3    H137911   6.902   0.810   7.048
12678TIP3    H237912   6.944   0.865   6.915
12679TIP3   OH237913   6.820   0.701   6.479
12679TIP3    H137914   6.743   0.648   6.508
12679TIP3    H237915   6.842   0.656   6.394
12680TIP3   OH237916   7.329   0.768   6.208
12680TIP3    H137917   7.275   0.839   6.167
12680TIP3    H237918   7.373   0.729   6.129
12681TIP3   OH237919   7.495   1.064   7.296
12681TIP3    H137920   7.476   0.984   7.350
12681TIP3    H237921   7.592   1.060   7.294
12682TIP3   OH237922   7.486   0.794   6.447
12682TIP3    H137923   7.426   0.824   6.376
12682TIP3    H237924   7.518   0.712   6.407
12683TIP3   OH237925   6.768   0.830   7.170
12683TIP3    H137926   6.799   0.888   7.242
12683TIP3    H237927   6.722   0.760   7.216
12684TIP3   OH237928   7.493   1.043   6.879
12684TIP3    H137929   7.522   0.973   6.816
12684TIP3    H237930   7.463   0.988   6.954
12685TIP3   OH237931   6.590   0.553   6.550
12685TIP3    H137932   6.496   0.572   6.528
12685TIP3    H237933   6.595   0.459   6.533
12686TIP3   OH237934   6.879   0.578   6.239
12686TIP3    H137935   6.964   0.550   6.203
12686TIP3    H237936   6.819   0.563   6.163
12687TIP3   OH237937   6.686   0.592   6.021
12687TIP3    H137938   6.632   0.539   5.960
12687TIP3    H237939   6.751   0.627   5.957
12688TIP3   OH237940   7.822   2.265   6.964
12688TIP3    H137941   7.822   2.289   6.869
12688TIP3    H237942   7.901   2.313   6.996
12689TIP3   OH237943   6.780   1.376   7.387
12689TIP3    H137944   6.859   1.406   7.435
12689TIP3    H237945   6.714   1.376   7.460
12690TIP3   OH237946   7.247   0.835   6.645
12690TIP3    H137947   7.308   0.783   6.590
12690TIP3    H237948   7.244   0.782   6.727
12691TIP3   OH237949   7.234   0.710   6.942
12691TIP3    H137950   7.141   0.740   6.951
12691TIP3    H237951   7.281   0.774   6.998
12692TIP3   OH237952   6.955   1.116   6.026
12692TIP3    H137953   6.884   1.049   6.016
12692TIP3    H237954   6.938   1.149   6.118
12693TIP3   OH237955   7.858   1.352   6.655
12693TIP3    H137956   7.883   1.401   6.574
12693TIP3    H237957   7.773   1.310   6.630
12694TIP3   OH237958   7.361   1.437   7.021
12694TIP3    H137959   7.377   1.410   7.112
12694TIP3    H237960   7.316   1.522   7.031
12695TIP3   OH237961   7.475   0.654   5.987
12695TIP3    H137962   7.572   0.661   5.998
12695TIP3    H237963   7.455   0.732   5.932
12696TIP3   OH237964   6.652   1.139   6.701
12696TIP3    H137965   6.689   1.109   6.616
12696TIP3    H237966   6.686   1.072   6.762
12697TIP3   OH237967   7.101   1.265   5.850
12697TIP3    H137968   7.055   1.352   5.857
12697TIP3    H237969   7.046   1.210   5.911
12698TIP3   OH237970   6.528   1.056   7.312
12698TIP3    H137971   6.546   1.043   7.407
12698TIP3    H237972   6.455   0.993   7.296
12699TIP3   OH237973   7.249   1.175   7.334
12699TIP3    H137974   7.192   1.118   7.280
12699TIP3    H237975   7.339   1.143   7.308
12700TIP3   OH237976   7.516   1.698   6.914
12700TIP3    H137977   7.421   1.692   6.930
12700TIP3    H237978   7.545   1.746   6.995
12701TIP3   OH237979   7.930   0.762   5.825
12701TIP3    H137980   7.871   0.714   5.764
12701TIP3    H237981   7.926   0.851   5.783
12702TIP3   OH237982   8.144   1.619   6.909
12702TIP3    H137983   8.046   1.617   6.900
12702TIP3    H237984   8.170   1.592   6.819
12703TIP3   OH237985   7.625   1.584   5.735
12703TIP3    H137986   7.603   1.512   5.795
12703TIP3    H237987   7.639   1.538   5.650
12704TIP3   OH237988   7.623   1.213   6.576
12704TIP3    H137989   7.529   1.188   6.587
12704TIP3    H237990   7.657   1.135   6.529
12705TIP3   OH237991   6.748   1.441   6.325
12705TIP3    H137992   6.745   1.523   6.271
12705TIP3    H237993   6.654   1.423   6.337
12706TIP3   OH237994   6.313   0.744   6.029
12706TIP3    H137995   6.362   0.826   6.048
12706TIP3    H237996   6.237   0.752   6.090
12707TIP3   OH237997   6.891   1.209   6.271
12707TIP3    H137998   6.853   1.297   6.291
12707TIP3    H237999   6.855   1.156   6.344
12708TIP3   OH238000   7.019   1.785   6.797
12708TIP3    H138001   7.062   1.858   6.750
12708TIP3    H238002   7.093   1.748   6.848
12709TIP3   OH238003   6.669   1.679   6.178
12709TIP3    H138004   6.583   1.686   6.225
12709TIP3    H238005   6.699   1.773   6.181
12710TIP3   OH238006   7.409   1.420   6.753
12710TIP3    H138007   7.400   1.419   6.851
12710TIP3    H238008   7.488   1.365   6.740
12711TIP3   OH238009   7.382   1.311   5.636
12711TIP3    H138010   7.433   1.287   5.716
12711TIP3    H238011   7.292   1.289   5.665
12712TIP3   OH238012   7.656   1.953   6.807
12712TIP3    H138013   7.579   1.894   6.800
12712TIP3    H238014   7.639   2.017   6.734
12713TIP3   OH238015   7.721   1.788   5.457
12713TIP3    H138016   7.759   1.859   5.403
12713TIP3    H238017   7.641   1.834   5.490
12714TIP3   OH238018   7.542   1.248   5.854
12714TIP3    H138019   7.530   1.181   5.924
12714TIP3    H238020   7.639   1.244   5.842
12715TIP3   OH238021   6.460   1.648   6.953
12715TIP3    H138022   6.510   1.573   6.988
12715TIP3    H238023   6.481   1.716   7.018
12716TIP3   OH238024   6.749   1.293   5.636
12716TIP3    H138025   6.756   1.201   5.606
12716TIP3    H238026   6.729   1.282   5.731
12717TIP3   OH238027   6.695   1.298   5.907
12717TIP3    H138028   6.762   1.268   5.971
12717TIP3    H238029   6.700   1.395   5.916
12718TIP3   OH238030   6.426   0.990   6.109
12718TIP3    H138031   6.362   1.036   6.168
12718TIP3    H238032   6.442   1.061   6.044
12719TIP3   OH238033   6.962   1.498   5.859
12719TIP3    H138034   6.874   1.522   5.893
12719TIP3    H238035   6.972   1.561   5.787
12720TIP3   OH238036   7.173   0.550   6.270
12720TIP3    H138037   7.212   0.636   6.247
12720TIP3    H238038   7.126   0.569   6.352
12721TIP3   OH238039   7.418   0.874   7.086
12721TIP3    H138040   7.398   0.938   7.155
12721TIP3    H238041   7.512   0.856   7.109
12722TIP3   OH238042   6.705   1.571   5.924
12722TIP3    H138043   6.672   1.640   5.861
12722TIP3    H238044   6.685   1.613   6.010
12723TIP3   OH238045   7.707   0.977   6.446
12723TIP3    H138046   7.636   0.912   6.459
12723TIP3    H238047   7.783   0.934   6.493
12724TIP3   OH238048   6.419   1.203   5.918
12724TIP3    H138049   6.483   1.276   5.926
12724TIP3    H238050   6.466   1.148   5.851
12725TIP3   OH238051   6.339   0.452   6.034
12725TIP3    H138052   6.385   0.538   6.035
12725TIP3    H238053   6.257   0.476   6.080
12726TIP3   OH238054   7.675   1.928   6.396
12726TIP3    H138055   7.634   1.975   6.320
12726TIP3    H238056   7.770   1.948   6.378
12727TIP3   OH238057   6.293   1.416   6.305
12727TIP3    H138058   6.222   1.446   6.363
12727TIP3    H238059   6.264   1.456   6.219
12728TIP3   OH238060   6.447   1.955   7.375
12728TIP3    H138061   6.533   1.954   7.422
12728TIP3    H238062   6.424   1.860   7.375
12729TIP3   OH238063   6.933   1.923   7.419
12729TIP3    H138064   7.026   1.900   7.427
12729TIP3    H238065   6.905   1.864   7.347
12730TIP3   OH238066   6.912   1.498   5.553
12730TIP3    H138067   6.853   1.427   5.588
12730TIP3    H238068   6.987   1.444   5.523
12731TIP3   OH238069   7.571   1.826   7.152
12731TIP3    H138070   7.560   1.757   7.222
12731TIP3    H238071   7.647   1.877   7.184
12732TIP3   OH238072   7.349   1.540   5.460
12732TIP3    H138073   7.394   1.475   5.518
12732TIP3    H238074   7.404   1.539   5.380
12733TIP3   OH238075   6.579   1.363   7.577
12733TIP3    H138076   6.595   1.267   7.581
12733TIP3    H238077   6.491   1.367   7.534
12734TIP3   OH238078   6.554   1.016   5.770
12734TIP3    H138079   6.607   0.980   5.843
12734TIP3    H238080   6.622   1.019   5.700
12735TIP3   OH238081   7.187   1.448   7.349
12735TIP3    H138082   7.144   1.463   7.263
12735TIP3    H238083   7.216   1.354   7.343
12736TIP3   OH238084   7.067   1.231   5.578
12736TIP3    H138085   7.067   1.229   5.676
12736TIP3    H238086   7.041   1.140   5.556
12737TIP3   OH238087   7.680   1.454   6.957
12737TIP3    H138088   7.752   1.502   6.912
12737TIP3    H238089   7.606   1.516   6.945
12738TIP3   OH238090   6.690   1.098   7.560
12738TIP3    H138091   6.750   1.025   7.542
12738TIP3    H238092   6.720   1.127   7.648
12739TIP3   OH238093   6.764   0.918   5.995
12739TIP3    H138094   6.739   0.877   6.079
12739TIP3    H238095   6.797   0.840   5.944
12740TIP3   OH238096   7.022   1.001   7.209
12740TIP3    H138097   6.943   1.059   7.211
12740TIP3    H238098   7.071   1.035   7.132
12741TIP3   OH238099   6.857   0.709   5.837
12741TIP3    H138100   6.846   0.710   5.740
12741TIP3    H238101   6.954   0.703   5.848
12742TIP3   OH238102   7.550   1.385   7.356
12742TIP3    H138103   7.629   1.359   7.308
12742TIP3    H238104   7.543   1.315   7.423
12743TIP3   OH238105   7.687   1.041   5.494
12743TIP3    H138106   7.665   0.997   5.409
12743TIP3    H238107   7.657   1.132   5.473
12744TIP3   OH238108   7.153   0.793   7.346
12744TIP3    H138109   7.103   0.848   7.410
12744TIP3    H238110   7.116   0.826   7.263
12745TIP3   OH238111   7.196   1.098   7.023
12745TIP3    H138112   7.274   1.104   6.967
12745TIP3    H238113   7.135   1.162   6.980
12746TIP3   OH238114   7.768   1.066   7.416
12746TIP3    H138115   7.815   0.982   7.415
12746TIP3    H238116   7.833   1.127   7.378
12747TIP3   OH238117   7.813   1.309   7.141
12747TIP3    H138118   7.753   1.363   7.085
12747TIP3    H238119   7.899   1.334   7.101
12748TIP3   OH238120   7.013   0.922   7.562
12748TIP3    H138121   6.946   0.852   7.575
12748TIP3    H238122   6.978   0.997   7.612
12749TIP3   OH238123   7.398   0.861   7.437
12749TIP3    H138124   7.372   0.891   7.525
12749TIP3    H238125   7.314   0.828   7.400
12750TIP3   OH238126   6.673   1.777   5.740
12750TIP3    H138127   6.767   1.772   5.715
12750TIP3    H238128   6.638   1.821   5.660
12751TIP3   OH238129   6.151   1.155   5.954
12751TIP3    H138130   6.246   1.177   5.941
12751TIP3    H238131   6.146   1.066   5.912
12752TIP3   OH238132   6.068   1.768   6.365
12752TIP3    H138133   5.999   1.707   6.330
12752TIP3    H238134   6.111   1.710   6.433
12753TIP3   OH238135   6.203   1.620   6.553
12753TIP3    H138136   6.189   1.546   6.615
12753TIP3    H238137   6.251   1.682   6.611
12754TIP3   OH238138   7.924   2.028   6.351
12754TIP3    H138139   7.955   2.056   6.439
12754TIP3    H238140   7.995   2.061   6.294
12755TIP3   OH238141   7.957   2.040   6.634
12755TIP3    H138142   7.917   1.950   6.633
12755TIP3    H238143   8.035   2.021   6.688
12756TIP3   OH238144   8.005   1.715   7.208
12756TIP3    H138145   7.932   1.725   7.273
12756TIP3    H238146   8.046   1.804   7.212
12757TIP3   OH238147   7.821   1.228   5.828
12757TIP3    H138148   7.890   1.292   5.800
12757TIP3    H238149   7.863   1.190   5.908
12758TIP3   OH238150   7.949   1.096   6.031
12758TIP3    H138151   7.884   1.054   6.091
12758TIP3    H238152   8.015   1.133   6.093
12759TIP3   OH238153   8.002   1.487   6.463
12759TIP3    H138154   8.056   1.423   6.414
12759TIP3    H238155   7.995   1.562   6.400
12760TIP3   OH238156   7.835   1.788   6.660
12760TIP3    H138157   7.764   1.830   6.713
12760TIP3    H238158   7.784   1.739   6.591
12761TIP3   OH238159   7.885   1.000   5.679
12761TIP3    H138160   7.815   1.010   5.611
12761TIP3    H238161   7.862   1.076   5.737
12762TIP3   OH238162   7.768   0.670   5.624
12762TIP3    H138163   7.724   0.741   5.576
12762TIP3    H238164   7.720   0.592   5.595
12763TIP3   OH238165   7.764   0.954   6.180
12763TIP3    H138166   7.772   0.857   6.180
12763TIP3    H238167   7.749   0.972   6.276
12764TIP3   OH238168   6.389   1.022   6.926
12764TIP3    H138169   6.388   0.994   6.832
12764TIP3    H238170   6.486   1.027   6.942
12765TIP3   OH238171   8.057   1.372   7.034
12765TIP3    H138172   8.130   1.308   7.020
12765TIP3    H238173   8.081   1.445   6.974
12766TIP3   OH238174   8.241   1.168   7.046
12766TIP3    H138175   8.175   1.122   7.101
12766TIP3    H238176   8.324   1.135   7.083
12767TIP3   OH238177   7.746   0.672   6.025
12767TIP3    H138178   7.791   0.634   6.104
12767TIP3    H238179   7.821   0.704   5.972
12768TIP3   OH238180   7.925   0.876   6.574
12768TIP3    H138181   8.014   0.885   6.533
12768TIP3    H238182   7.947   0.895   6.666
12769TIP3   OH238183   7.988   0.996   6.821
12769TIP3    H138184   7.905   1.038   6.851
12769TIP3    H238185   8.024   1.066   6.762
12770TIP3   OH238186   6.385   0.682   7.008
12770TIP3    H138187   6.430   0.674   6.922
12770TIP3    H238188   6.404   0.774   7.030
12771TIP3   OH238189   7.510   1.887   6.012
12771TIP3    H138190   7.558   1.871   5.927
12771TIP3    H238191   7.567   1.952   6.055
12772TIP3   OH238192   6.615   1.687   7.397
12772TIP3    H138193   6.523   1.662   7.380
12772TIP3    H238194   6.622   1.671   7.493
12773TIP3   OH238195   6.791   1.720   6.944
12773TIP3    H138196   6.741   1.794   6.906
12773TIP3    H238197   6.877   1.736   6.900
12774TIP3   OH238198   7.239   1.967   7.081
12774TIP3    H138199   7.279   1.967   7.170
12774TIP3    H238200   7.306   2.018   7.030
12775TIP3   OH238201   7.419   2.118   6.938
12775TIP3    H138202   7.492   2.065   6.902
12775TIP3    H238203   7.468   2.176   7.000
12776TIP3   OH238204   6.470   1.981   6.966
12776TIP3    H138205   6.381   2.013   6.943
12776TIP3    H238206   6.477   2.013   7.057
12777TIP3   OH238207   6.705   1.959   6.824
12777TIP3    H138208   6.620   1.970   6.871
12777TIP3    H238209   6.682   1.991   6.735
12778TIP3   OH238210   7.137   1.996   6.608
12778TIP3    H138211   7.052   2.012   6.564
12778TIP3    H238212   7.147   2.076   6.663
12779TIP3   OH238213   7.400   1.926   6.671
12779TIP3    H138214   7.307   1.946   6.651
12779TIP3    H238215   7.445   2.006   6.640
12780TIP3   OH238216   7.605   2.117   6.590
12780TIP3    H138217   7.594   2.201   6.540
12780TIP3    H238218   7.635   2.056   6.520
12781TIP3   OH238219   6.382   1.775   6.712
12781TIP3    H138220   6.406   1.748   6.803
12781TIP3    H238221   6.453   1.728   6.662
12782TIP3   OH238222   6.575   1.643   6.568
12782TIP3    H138223   6.589   1.559   6.618
12782TIP3    H238224   6.666   1.679   6.564
12783TIP3   OH238225   6.844   1.741   6.568
12783TIP3    H138226   6.872   1.648   6.558
12783TIP3    H238227   6.883   1.760   6.656
12784TIP3   OH238228   6.169   1.544   6.103
12784TIP3    H138229   6.084   1.511   6.069
12784TIP3    H238230   6.157   1.639   6.086
12785TIP3   OH238231   6.942   1.736   5.686
12785TIP3    H138232   7.030   1.757   5.649
12785TIP3    H238233   6.918   1.661   5.626
12786TIP3   OH238234   7.654   1.851   5.780
12786TIP3    H138235   7.648   1.753   5.767
12786TIP3    H238236   7.613   1.883   5.698
12787TIP3   OH238237   6.244   1.571   5.742
12787TIP3    H138238   6.240   1.598   5.835
12787TIP3    H238239   6.333   1.530   5.735
12788TIP3   OH238240   7.886   1.996   6.966
12788TIP3    H138241   7.807   1.965   6.919
12788TIP3    H238242   7.867   2.092   6.969
12789TIP3   OH238243   9.153   1.368   5.725
12789TIP3    H138244   9.129   1.462   5.719
12789TIP3    H238245   9.070   1.325   5.699
12790TIP3   OH238246   9.139   1.361   6.113
12790TIP3    H138247   9.179   1.341   6.199
12790TIP3    H238248   9.099   1.275   6.091
12791TIP3   OH238249   8.449   1.267   6.478
12791TIP3    H138250   8.488   1.203   6.541
12791TIP3    H238251   8.525   1.324   6.463
12792TIP3   OH238252   9.392   1.669   5.794
12792TIP3    H138253   9.388   1.601   5.862
12792TIP3    H238254   9.421   1.746   5.847
12793TIP3   OH238255   8.419   1.672   6.203
12793TIP3    H138256   8.413   1.574   6.205
12793TIP3    H238257   8.516   1.682   6.200
12794TIP3   OH238258   8.121   0.866   5.996
12794TIP3    H138259   8.076   0.951   6.010
12794TIP3    H238260   8.058   0.820   5.938
12795TIP3   OH238261   8.189   1.161   6.159
12795TIP3    H138262   8.238   1.085   6.197
12795TIP3    H238263   8.250   1.191   6.090
12796TIP3   OH238264   9.044   2.133   5.811
12796TIP3    H138265   9.088   2.055   5.772
12796TIP3    H238266   9.032   2.106   5.903
12797TIP3   OH238267   8.950   1.591   6.163
12797TIP3    H138268   8.989   1.514   6.119
12797TIP3    H238269   9.033   1.639   6.184
12798TIP3   OH238270   9.369   1.112   6.189
12798TIP3    H138271   9.389   1.027   6.230
12798TIP3    H238272   9.339   1.087   6.099
12799TIP3   OH238273   8.334   0.954   6.267
12799TIP3    H138274   8.414   0.930   6.317
12799TIP3    H238275   8.351   0.900   6.186
12800TIP3   OH238276   8.775   1.156   6.064
12800TIP3    H138277   8.866   1.123   6.077
12800TIP3    H238278   8.730   1.074   6.032
12801TIP3   OH238279   9.060   1.603   5.589
12801TIP3    H138280   9.001   1.565   5.522
12801TIP3    H238281   9.005   1.679   5.620
12802TIP3   OH238282   8.807   1.510   6.396
12802TIP3    H138283   8.742   1.575   6.431
12802TIP3    H238284   8.847   1.559   6.322
12803TIP3   OH238285   8.573   0.863   6.366
12803TIP3    H138286   8.641   0.930   6.386
12803TIP3    H238287   8.612   0.816   6.291
12804TIP3   OH238288   8.630   1.705   6.485
12804TIP3    H138289   8.606   1.792   6.447
12804TIP3    H238290   8.551   1.691   6.542
12805TIP3   OH238291   8.025   1.397   5.723
12805TIP3    H138292   7.985   1.425   5.639
12805TIP3    H238293   8.057   1.482   5.760
12806TIP3   OH238294   9.454   1.897   5.951
12806TIP3    H138295   9.364   1.896   5.992
12806TIP3    H238296   9.458   1.987   5.915
12807TIP3   OH238297   9.165   1.949   5.638
12807TIP3    H138298   9.225   1.873   5.620
12807TIP3    H238299   9.219   2.024   5.606
12808TIP3   OH238300   9.316   1.728   5.536
12808TIP3    H138301   9.236   1.672   5.535
12808TIP3    H238302   9.353   1.704   5.624
12809TIP3   OH238303   8.976   1.223   5.564
12809TIP3    H138304   8.894   1.271   5.539
12809TIP3    H238305   9.021   1.214   5.479
12810TIP3   OH238306   8.938   1.012   5.282
12810TIP3    H138307   9.015   1.055   5.324
12810TIP3    H238308   8.980   0.935   5.239
12811TIP3   OH238309   9.341   1.298   5.545
12811TIP3    H138310   9.272   1.325   5.610
12811TIP3    H238311   9.419   1.299   5.603
12812TIP3   OH238312   9.571   1.352   6.426
12812TIP3    H138313   9.562   1.421   6.492
12812TIP3    H238314   9.484   1.351   6.384
12813TIP3   OH238315   8.565   1.301   5.951
12813TIP3    H138316   8.520   1.243   5.885
12813TIP3    H238317   8.638   1.245   5.981
12814TIP3   OH238318   8.692   1.712   6.100
12814TIP3    H138319   8.673   1.664   6.018
12814TIP3    H238320   8.782   1.680   6.121
12815TIP3   OH238321   8.699   1.269   6.309
12815TIP3    H138322   8.731   1.244   6.219
12815TIP3    H238323   8.745   1.353   6.326
12816TIP3   OH238324   9.218   1.910   6.079
12816TIP3    H138325   9.206   1.991   6.133
12816TIP3    H238326   9.207   1.838   6.144
12817TIP3   OH238327   8.835   1.827   6.630
12817TIP3    H138328   8.776   1.890   6.676
12817TIP3    H238329   8.770   1.774   6.580
12818TIP3   OH238330   9.169   1.153   5.370
12818TIP3    H138331   9.236   1.203   5.421
12818TIP3    H238332   9.199   1.171   5.278
12819TIP3   OH238333   8.575   1.391   6.730
12819TIP3    H138334   8.582   1.475   6.779
12819TIP3    H238335   8.480   1.370   6.743
12820TIP3   OH238336   8.912   1.837   5.636
12820TIP3    H138337   8.992   1.889   5.654
12820TIP3    H238338   8.849   1.903   5.605
12821TIP3   OH238339   8.630   1.996   6.716
12821TIP3    H138340   8.595   1.997   6.625
12821TIP3    H238341   8.551   1.975   6.769
12822TIP3   OH238342   8.427   1.151   5.757
12822TIP3    H138343   8.356   1.183   5.698
12822TIP3    H238344   8.404   1.058   5.769
12823TIP3   OH238345   8.207   1.528   6.663
12823TIP3    H138346   8.144   1.505   6.593
12823TIP3    H238347   8.244   1.440   6.688
12824TIP3   OH238348   8.064   1.720   6.296
12824TIP3    H138349   8.160   1.709   6.285
12824TIP3    H238350   8.062   1.798   6.354
12825TIP3   OH238351   9.035   1.955   6.487
12825TIP3    H138352   9.034   2.049   6.518
12825TIP3    H238353   8.963   1.918   6.542
12826TIP3   OH238354   8.796   2.091   5.433
12826TIP3    H138355   8.742   2.066   5.356
12826TIP3    H238356   8.754   2.173   5.464
12827TIP3   OH238357   8.232   1.935   5.822
12827TIP3    H138358   8.281   1.927   5.907
12827TIP3    H238359   8.176   1.856   5.826
12828TIP3   OH238360   9.002   1.995   5.082
12828TIP3    H138361   9.057   1.922   5.045
12828TIP3    H238362   9.030   1.993   5.176
12829TIP3   OH238363   9.047   2.032   5.352
12829TIP3    H138364   8.958   2.043   5.393
12829TIP3    H238365   9.096   1.992   5.425
12830TIP3   OH238366   8.415   1.709   6.652
12830TIP3    H138367   8.465   1.694   6.735
12830TIP3    H238368   8.340   1.646   6.661
12831TIP3   OH238369   9.249   1.200   5.109
12831TIP3    H138370   9.219   1.179   5.019
12831TIP3    H238371   9.296   1.283   5.095
12832TIP3   OH238372   8.751   1.048   6.461
12832TIP3    H138373   8.691   1.070   6.536
12832TIP3    H238374   8.737   1.126   6.403
12833TIP3   OH238375   8.614   0.960   5.961
12833TIP3    H138376   8.540   0.905   5.994
12833TIP3    H238377   8.639   0.911   5.880
12834TIP3   OH238378   9.122   1.027   5.683
12834TIP3    H138379   9.057   1.099   5.664
12834TIP3    H238380   9.171   1.028   5.600
12835TIP3   OH238381   9.300   1.321   6.740
12835TIP3    H138382   9.286   1.288   6.831
12835TIP3    H238383   9.385   1.365   6.748
12836TIP3   OH238384   9.265   1.040   5.942
12836TIP3    H138385   9.221   1.086   5.869
12836TIP3    H238386   9.300   0.962   5.897
12837TIP3   OH238387   8.569   1.088   6.662
12837TIP3    H138388   8.580   1.147   6.739
12837TIP3    H238389   8.528   1.009   6.700
12838TIP3   OH238390   9.278   1.305   6.353
12838TIP3    H138391   9.317   1.232   6.299
12838TIP3    H238392   9.264   1.260   6.438
12839TIP3   OH238393   8.386   0.810   6.038
12839TIP3    H138394   8.292   0.826   6.015
12839TIP3    H238395   8.394   0.715   6.022
12840TIP3   OH238396   8.676   0.832   5.724
12840TIP3    H138397   8.760   0.804   5.686
12840TIP3    H238398   8.614   0.823   5.649
12841TIP3   OH238399   8.490   0.846   5.505
12841TIP3    H138400   8.433   0.794   5.446
12841TIP3    H238401   8.552   0.884   5.440
12842TIP3   OH238402   9.611   2.526   6.447
12842TIP3    H138403   9.613   2.545   6.351
12842TIP3    H238404   9.678   2.587   6.479
12843TIP3   OH238405   8.574   1.631   6.873
12843TIP3    H138406   8.656   1.661   6.919
12843TIP3    H238407   8.511   1.633   6.947
12844TIP3   OH238408   9.043   1.088   6.129
12844TIP3    H138409   9.111   1.044   6.077
12844TIP3    H238410   9.041   1.035   6.211
12845TIP3   OH238411   9.015   0.966   6.436
12845TIP3    H138412   8.929   1.012   6.438
12845TIP3    H238413   9.071   1.025   6.492
12846TIP3   OH238414   8.750   1.375   5.511
12846TIP3    H138415   8.680   1.307   5.501
12846TIP3    H238416   8.733   1.406   5.603
12847TIP3   OH238417   9.161   1.692   6.509
12847TIP3    H138418   9.174   1.670   6.602
12847TIP3    H238419   9.117   1.779   6.514
12848TIP3   OH238420   8.445   1.392   6.188
12848TIP3    H138421   8.484   1.366   6.101
12848TIP3    H238422   8.486   1.328   6.247
12849TIP3   OH238423   8.897   1.521   5.332
12849TIP3    H138424   8.851   1.608   5.340
12849TIP3    H238425   8.842   1.466   5.392
12850TIP3   OH238426   8.318   1.317   6.804
12850TIP3    H138427   8.344   1.301   6.897
12850TIP3    H238428   8.249   1.249   6.791
12851TIP3   OH238429   9.047   1.431   6.820
12851TIP3    H138430   8.976   1.378   6.779
12851TIP3    H238431   9.124   1.404   6.766
12852TIP3   OH238432   9.311   1.948   6.405
12852TIP3    H138433   9.215   1.949   6.417
12852TIP3    H238434   9.340   2.003   6.481
12853TIP3   OH238435   9.432   1.817   5.201
12853TIP3    H138436   9.415   1.791   5.292
12853TIP3    H238437   9.369   1.762   5.153
12854TIP3   OH238438   9.388   1.480   6.051
12854TIP3    H138439   9.304   1.433   6.064
12854TIP3    H238440   9.453   1.409   6.050
12855TIP3   OH238441   8.545   1.696   5.809
12855TIP3    H138442   8.545   1.779   5.759
12855TIP3    H238443   8.450   1.683   5.824
12856TIP3   OH238444   8.109   1.000   5.515
12856TIP3    H138445   8.158   1.083   5.535
12856TIP3    H238446   8.034   1.008   5.578
12857TIP3   OH238447   8.689   1.465   5.758
12857TIP3    H138448   8.649   1.552   5.777
12857TIP3    H238449   8.653   1.412   5.831
12858TIP3   OH238450   8.814   2.039   6.282
12858TIP3    H138451   8.852   2.114   6.233
12858TIP3    H238452   8.892   2.009   6.332
12859TIP3   OH238453   8.464   1.938   5.663
12859TIP3    H138454   8.379   1.944   5.711
12859TIP3    H238455   8.495   2.031   5.670
12860TIP3   OH238456   9.203   1.677   6.236
12860TIP3    H138457   9.201   1.672   6.335
12860TIP3    H238458   9.281   1.624   6.214
12861TIP3   OH238459   9.168   1.578   5.129
12861TIP3    H138460   9.225   1.542   5.200
12861TIP3    H238461   9.081   1.548   5.158
12862TIP3   OH238462   9.442   2.206   6.292
12862TIP3    H138463   9.360   2.155   6.277
12862TIP3    H238464   9.436   2.272   6.219
12863TIP3   OH238465   9.341   1.485   5.327
12863TIP3    H138466   9.327   1.426   5.403
12863TIP3    H238467   9.419   1.535   5.358
12864TIP3   OH238468   8.250   1.904   6.444
12864TIP3    H138469   8.307   1.832   6.475
12864TIP3    H238470   8.282   1.978   6.497
12865TIP3   OH238471   8.545   1.551   5.123
12865TIP3    H138472   8.557   1.459   5.093
12865TIP3    H238473   8.526   1.537   5.218
12866TIP3   OH238474   8.489   1.555   5.395
12866TIP3    H138475   8.558   1.524   5.456
12866TIP3    H238476   8.496   1.653   5.404
12867TIP3   OH238477   8.222   1.246   5.595
12867TIP3    H138478   8.159   1.292   5.655
12867TIP3    H238479   8.240   1.317   5.531
12868TIP3   OH238480   8.756   1.752   5.345
12868TIP3    H138481   8.669   1.779   5.381
12868TIP3    H238482   8.768   1.819   5.276
12869TIP3   OH238483   8.973   0.805   5.759
12869TIP3    H138484   9.010   0.894   5.740
12869TIP3    H238485   8.924   0.820   5.841
12870TIP3   OH238486   9.194   1.110   6.595
12870TIP3    H138487   9.226   1.186   6.646
12870TIP3    H238488   9.275   1.066   6.564
12871TIP3   OH238489   8.500   1.829   5.411
12871TIP3    H138490   8.467   1.898   5.349
12871TIP3    H238491   8.482   1.870   5.498
12872TIP3   OH238492   8.216   1.460   5.403
12872TIP3    H138493   8.283   1.530   5.413
12872TIP3    H238494   8.262   1.404   5.337
12873TIP3   OH238495   8.135   0.709   5.521
12873TIP3    H138496   8.182   0.794   5.522
12873TIP3    H238497   8.054   0.733   5.567
12874TIP3   OH238498   9.490   2.187   5.893
12874TIP3    H138499   9.456   2.239   5.817
12874TIP3    H238500   9.568   2.141   5.855
12875TIP3   OH238501   8.090   1.674   5.793
12875TIP3    H138502   8.015   1.703   5.847
12875TIP3    H238503   8.066   1.712   5.706
12876TIP3   OH238504   8.243   2.212   6.866
12876TIP3    H138505   8.330   2.212   6.911
12876TIP3    H238506   8.225   2.116   6.862
12877TIP3   OH238507   8.725   2.178   6.910
12877TIP3    H138508   8.820   2.163   6.916
12877TIP3    H238509   8.701   2.121   6.834
12878TIP3   OH238510   8.709   1.754   5.038
12878TIP3    H138511   8.652   1.683   5.075
12878TIP3    H238512   8.782   1.701   5.002
12879TIP3   OH238513   9.365   2.084   6.640
12879TIP3    H138514   9.354   2.013   6.708
12879TIP3    H238515   9.439   2.136   6.676
12880TIP3   OH238516   9.147   1.797   4.960
12880TIP3    H138517   9.175   1.713   5.003
12880TIP3    H238518   9.186   1.790   4.870
12881TIP3   OH238519   8.375   1.620   7.064
12881TIP3    H138520   8.392   1.525   7.072
12881TIP3    H238521   8.287   1.621   7.020
12882TIP3   OH238522   8.351   1.272   5.257
12882TIP3    H138523   8.404   1.235   5.329
12882TIP3    H238524   8.419   1.276   5.186
12883TIP3   OH238525   8.983   1.705   6.838
12883TIP3    H138526   8.941   1.719   6.751
12883TIP3    H238527   9.014   1.612   6.832
12884TIP3   OH238528   8.860   1.469   5.064
12884TIP3    H138529   8.862   1.482   5.161
12884TIP3    H238530   8.860   1.371   5.059
12885TIP3   OH238531   9.481   1.718   6.439
12885TIP3    H138532   9.528   1.759   6.366
12885TIP3    H238533   9.400   1.771   6.440
12886TIP3   OH238534   8.490   1.344   7.047
12886TIP3    H138535   8.569   1.292   7.028
12886TIP3    H238536   8.514   1.380   7.135
12887TIP3   OH238537   8.561   1.175   5.481
12887TIP3    H138538   8.536   1.132   5.564
12887TIP3    H238539   8.596   1.099   5.429
12888TIP3   OH238540   8.827   1.293   6.693
12888TIP3    H138541   8.738   1.336   6.701
12888TIP3    H238542   8.851   1.310   6.601
12889TIP3   OH238543   8.658   0.969   5.322
12889TIP3    H138544   8.634   0.966   5.227
12889TIP3    H238545   8.756   0.973   5.315
12890TIP3   OH238546   9.343   1.638   6.838
12890TIP3    H138547   9.433   1.632   6.804
12890TIP3    H238548   9.347   1.579   6.916
12891TIP3   OH238549   8.932   1.088   6.829
12891TIP3    H138550   8.913   1.005   6.782
12891TIP3    H238551   8.900   1.155   6.765
12892TIP3   OH238552   9.013   1.351   6.482
12892TIP3    H138553   9.089   1.369   6.425
12892TIP3    H238554   8.950   1.421   6.456
12893TIP3   OH238555   9.619   1.574   6.621
12893TIP3    H138556   9.556   1.627   6.567
12893TIP3    H238557   9.699   1.584   6.567
12894TIP3   OH238558   8.805   1.160   7.064
12894TIP3    H138559   8.744   1.084   7.065
12894TIP3    H238560   8.857   1.140   6.984
12895TIP3   OH238561   9.274   1.189   6.974
12895TIP3    H138562   9.188   1.182   7.020
12895TIP3    H238563   9.275   1.104   6.926
12896TIP3   OH238564   8.469   2.034   5.225
12896TIP3    H138565   8.563   2.028   5.201
12896TIP3    H238566   8.435   2.079   5.145
12897TIP3   OH238567   7.948   1.412   5.440
12897TIP3    H138568   8.043   1.434   5.427
12897TIP3    H238569   7.943   1.323   5.400
12898TIP3   OH238570   7.861   2.022   5.853
12898TIP3    H138571   7.794   1.959   5.819
12898TIP3    H238572   7.906   1.966   5.920
12899TIP3   OH238573   7.996   1.877   6.042
12899TIP3    H138574   7.989   1.802   6.102
12899TIP3    H238575   8.050   1.938   6.096
12900TIP3   OH238576   9.607   1.996   6.173
12900TIP3    H138577   9.540   2.058   6.206
12900TIP3    H238578   9.562   1.953   6.098
12901TIP3   OH238579   8.185   1.281   6.412
12901TIP3    H138580   8.184   1.252   6.319
12901TIP3    H238581   8.282   1.285   6.429
12902TIP3   OH238582   8.178   0.940   6.494
12902TIP3    H138583   8.224   0.927   6.408
12902TIP3    H238584   8.203   1.031   6.513
12903TIP3   OH238585   9.278   2.165   5.521
12903TIP3    H138586   9.322   2.132   5.440
12903TIP3    H238587   9.352   2.208   5.568
12904TIP3   OH238588   8.410   1.945   6.883
12904TIP3    H138589   8.318   1.918   6.867
12904TIP3    H238590   8.420   1.929   6.977
12905TIP3   OH238591   8.587   1.977   6.429
12905TIP3    H138592   8.541   2.054   6.390
12905TIP3    H238593   8.674   1.991   6.386
12906TIP3   OH238594   9.035   2.220   6.569
12906TIP3    H138595   9.077   2.227   6.657
12906TIP3    H238596   9.098   2.272   6.514
12907TIP3   OH238597   9.220   2.368   6.432
12907TIP3    H138598   9.292   2.321   6.389
12907TIP3    H238599   9.269   2.428   6.493
12908TIP3   OH238600   8.262   2.229   6.458
12908TIP3    H138601   8.176   2.269   6.431
12908TIP3    H238602   8.278   2.276   6.541
12909TIP3   OH238603   8.493   2.205   6.306
12909TIP3    H138604   8.410   2.225   6.354
12909TIP3    H238605   8.478   2.248   6.220
12910TIP3   OH238606   8.924   2.232   6.098
12910TIP3    H138607   8.853   2.267   6.042
12910TIP3    H238608   8.942   2.311   6.156
12911TIP3   OH238609   9.195   2.180   6.158
12911TIP3    H138610   9.100   2.199   6.141
12911TIP3    H238611   9.236   2.264   6.129
12912TIP3   OH238612   9.402   2.371   6.082
12912TIP3    H138613   9.384   2.456   6.035
12912TIP3    H238614   9.433   2.313   6.009
12913TIP3   OH238615   8.174   2.027   6.200
12913TIP3    H138616   8.203   2.006   6.291
12913TIP3    H238617   8.248   1.986   6.150
12914TIP3   OH238618   8.370   1.901   6.055
12914TIP3    H138619   8.386   1.817   6.104
12914TIP3    H238620   8.460   1.939   6.052
12915TIP3   OH238621   8.635   1.995   6.057
12915TIP3    H138622   8.668   1.903   6.050
12915TIP3    H238623   8.677   2.020   6.141
12916TIP3   OH238624   7.964   1.800   5.590
12916TIP3    H138625   7.879   1.768   5.556
12916TIP3    H238626   7.953   1.895   5.573
12917TIP3   OH238627   8.736   1.993   5.167
12917TIP3    H138628   8.826   2.009   5.133
12917TIP3    H238629   8.712   1.916   5.111
12918TIP3   OH238630   9.380   2.077   5.292
12918TIP3    H138631   9.421   1.995   5.258
12918TIP3    H238632   9.372   2.130   5.211
12919TIP3   OH238633   8.042   1.829   5.229
12919TIP3    H138634   8.040   1.853   5.323
12919TIP3    H238635   8.130   1.787   5.219
12920TIP3   OH238636   9.650   2.257   6.468
12920TIP3    H138637   9.586   2.216   6.405
12920TIP3    H238638   9.627   2.352   6.455
12921TIP3   OH238639   1.604   2.155   7.424
12921TIP3    H138640   1.576   2.247   7.404
12921TIP3    H238641   1.526   2.106   7.392
12922TIP3   OH238642   1.598   2.157   7.804
12922TIP3    H138643   1.633   2.128   7.890
12922TIP3    H238644   1.560   2.075   7.770
12923TIP3   OH238645   0.943   2.089   8.175
12923TIP3    H138646   0.973   2.008   8.220
12923TIP3    H238647   1.027   2.129   8.150
12924TIP3   OH238648   1.842   2.458   7.485
12924TIP3    H138649   1.835   2.387   7.550
12924TIP3    H238650   1.876   2.532   7.539
12925TIP3   OH238651   0.872   2.456   7.893
12925TIP3    H138652   0.866   2.359   7.898
12925TIP3    H238653   0.969   2.467   7.885
12926TIP3   OH238654   1.493   2.919   7.501
12926TIP3    H138655   1.539   2.849   7.450
12926TIP3    H238656   1.492   2.881   7.589
12927TIP3   OH238657   1.401   2.382   7.853
12927TIP3    H138658   1.438   2.304   7.808
12927TIP3    H238659   1.486   2.426   7.875
12928TIP3   OH238660   2.413   1.703   7.848
12928TIP3    H138661   2.442   1.784   7.894
12928TIP3    H238662   2.436   1.724   7.756
12929TIP3   OH238663   1.816   1.886   7.884
12929TIP3    H138664   1.857   1.799   7.904
12929TIP3    H238665   1.783   1.869   7.794
12930TIP3   OH238666   1.847   1.633   7.473
12930TIP3    H138667   1.919   1.618   7.538
12930TIP3    H238668   1.898   1.670   7.398
12931TIP3   OH238669   1.241   1.955   7.749
12931TIP3    H138670   1.333   1.925   7.767
12931TIP3    H238671   1.200   1.870   7.721
12932TIP3   OH238672   2.486   1.907   8.020
12932TIP3    H138673   2.404   1.957   8.002
12932TIP3    H238674   2.505   1.934   8.111
12933TIP3   OH238675   1.491   2.374   7.295
12933TIP3    H138676   1.456   2.358   7.207
12933TIP3    H238677   1.451   2.461   7.317
12934TIP3   OH238678   1.256   2.302   8.080
12934TIP3    H138679   1.194   2.368   8.117
12934TIP3    H238680   1.300   2.351   8.008
12935TIP3   OH238681   2.059   1.634   7.643
12935TIP3    H138682   2.046   1.591   7.729
12935TIP3    H238683   2.111   1.712   7.668
12936TIP3   OH238684   1.080   2.495   8.181
12936TIP3    H138685   1.054   2.580   8.140
12936TIP3    H238686   0.999   2.474   8.231
12937TIP3   OH238687   1.916   2.700   7.655
12937TIP3    H138688   1.825   2.693   7.691
12937TIP3    H238689   1.910   2.786   7.607
12938TIP3   OH238690   2.207   1.600   8.012
12938TIP3    H138691   2.120   1.635   7.984
12938TIP3    H238692   2.267   1.635   7.943
12939TIP3   OH238693   1.617   2.748   7.326
12939TIP3    H138694   1.667   2.665   7.305
12939TIP3    H238695   1.678   2.813   7.285
12940TIP3   OH238696   1.758   2.533   7.233
12940TIP3    H138697   1.734   2.452   7.186
12940TIP3    H238698   1.794   2.497   7.317
12941TIP3   OH238699   2.142   2.615   7.996
12941TIP3    H138700   2.133   2.537   7.937
12941TIP3    H238701   2.127   2.689   7.934
12942TIP3   OH238702   1.433   2.007   7.251
12942TIP3    H138703   1.355   2.060   7.228
12942TIP3    H238704   1.483   2.006   7.167
12943TIP3   OH238705   1.392   1.791   6.971
12943TIP3    H138706   1.460   1.842   7.020
12943TIP3    H238707   1.450   1.729   6.923
12944TIP3   OH238708   2.337   2.249   7.839
12944TIP3    H138709   2.256   2.303   7.844
12944TIP3    H238710   2.369   2.273   7.749
12945TIP3   OH238711   1.780   2.089   7.225
12945TIP3    H138712   1.728   2.114   7.304
12945TIP3    H238713   1.865   2.064   7.267
12946TIP3   OH238714   2.017   2.130   8.136
12946TIP3    H138715   2.014   2.214   8.185
12946TIP3    H238716   1.931   2.133   8.090
12947TIP3   OH238717   1.028   2.103   7.655
12947TIP3    H138718   0.988   2.045   7.586
12947TIP3    H238719   1.104   2.049   7.683
12948TIP3   OH238720   1.142   2.496   7.793
12948TIP3    H138721   1.124   2.454   7.707
12948TIP3    H238722   1.233   2.465   7.811
12949TIP3   OH238723   1.141   2.078   7.971
12949TIP3    H138724   1.184   2.044   7.889
12949TIP3    H238725   1.199   2.152   7.996
12950TIP3   OH238726   1.672   2.699   7.772
12950TIP3    H138727   1.662   2.777   7.828
12950TIP3    H238728   1.661   2.624   7.834
12951TIP3   OH238729   1.287   2.621   8.321
12951TIP3    H138730   1.223   2.681   8.364
12951TIP3    H238731   1.226   2.563   8.271
12952TIP3   OH238732   1.622   1.948   7.051
12952TIP3    H138733   1.681   2.007   7.103
12952TIP3    H238734   1.649   1.972   6.959
12953TIP3   OH238735   1.047   2.186   8.424
12953TIP3    H138736   1.034   2.269   8.473
12953TIP3    H238737   0.958   2.164   8.393
12954TIP3   OH238738   1.363   2.631   7.328
12954TIP3    H138739   1.445   2.681   7.343
12954TIP3    H238740   1.305   2.698   7.287
12955TIP3   OH238741   1.081   2.790   8.407
12955TIP3    H138742   1.049   2.790   8.315
12955TIP3    H238743   0.999   2.765   8.456
12956TIP3   OH238744   2.139   1.190   7.099
12956TIP3    H138745   2.057   1.208   7.150
12956TIP3    H238746   2.151   1.275   7.052
12957TIP3   OH238747   0.919   1.958   7.450
12957TIP3    H138748   0.859   2.009   7.395
12957TIP3    H238749   0.878   1.870   7.450
12958TIP3   OH238750   1.937   2.556   6.646
12958TIP3    H138751   1.946   2.653   6.633
12958TIP3    H238752   2.031   2.527   6.634
12959TIP3   OH238753   0.505   2.510   7.988
12959TIP3    H138754   0.597   2.483   7.974
12959TIP3    H238755   0.520   2.589   8.043
12960TIP3   OH238756   2.379   2.958   8.041
12960TIP3    H138757   2.379   2.861   8.053
12960TIP3    H238758   2.296   2.981   8.088
12961TIP3   OH238759   1.488   2.745   8.178
12961TIP3    H138760   1.485   2.839   8.207
12961TIP3    H238761   1.413   2.706   8.229
12962TIP3   OH238762   1.243   2.872   7.130
12962TIP3    H138763   1.202   2.856   7.043
12962TIP3    H238764   1.215   2.963   7.151
12963TIP3   OH238765   0.684   2.725   7.513
12963TIP3    H138766   0.736   2.716   7.595
12963TIP3    H238767   0.621   2.651   7.525
12964TIP3   OH238768   1.447   2.773   6.769
12964TIP3    H138769   1.507   2.705   6.732
12964TIP3    H238770   1.483   2.784   6.859
12965TIP3   OH238771   1.497   2.823   7.039
12965TIP3    H138772   1.410   2.831   7.084
12965TIP3    H238773   1.551   2.784   7.109
12966TIP3   OH238774   2.269   2.091   8.315
12966TIP3    H138775   2.189   2.100   8.261
12966TIP3    H238776   2.287   1.994   8.308
12967TIP3   OH238777   0.858   2.481   8.351
12967TIP3    H138778   0.919   2.475   8.428
12967TIP3    H238779   0.784   2.428   8.381
12968TIP3   OH238780   1.791   1.432   8.334
12968TIP3    H138781   1.878   1.410   8.375
12968TIP3    H238782   1.734   1.431   8.412
12969TIP3   OH238783   2.036   1.864   8.233
12969TIP3    H138784   1.990   1.861   8.320
12969TIP3    H238785   2.014   1.953   8.201
12970TIP3   OH238786   1.698   1.995   6.795
12970TIP3    H138787   1.666   1.970   6.706
12970TIP3    H238788   1.779   2.045   6.772
12971TIP3   OH238789   1.400   1.374   7.103
12971TIP3    H138790   1.364   1.386   7.194
12971TIP3    H238791   1.396   1.277   7.098
12972TIP3   OH238792   1.249   1.882   8.131
12972TIP3    H138793   1.176   1.857   8.190
12972TIP3    H238794   1.205   1.939   8.066
12973TIP3   OH238795   1.114   1.733   7.665
12973TIP3    H138796   1.035   1.685   7.693
12973TIP3    H238797   1.123   1.698   7.573
12974TIP3   OH238798   1.579   1.815   7.385
12974TIP3    H138799   1.523   1.884   7.344
12974TIP3    H238800   1.630   1.783   7.308
12975TIP3   OH238801   1.747   2.091   8.477
12975TIP3    H138802   1.731   2.017   8.538
12975TIP3    H238803   1.843   2.105   8.492
12976TIP3   OH238804   1.732   1.838   7.625
12976TIP3    H138805   1.672   1.869   7.554
12976TIP3    H238806   1.763   1.755   7.582
12977TIP3   OH238807   1.741   2.086   8.046
12977TIP3    H138808   1.774   2.014   7.988
12977TIP3    H238809   1.714   2.034   8.124
12978TIP3   OH238810   1.417   1.562   7.717
12978TIP3    H138811   1.330   1.557   7.758
12978TIP3    H238812   1.476   1.553   7.794
12979TIP3   OH238813   1.113   1.630   7.413
12979TIP3    H138814   1.207   1.614   7.397
12979TIP3    H238815   1.072   1.615   7.326
12980TIP3   OH238816   1.899   1.621   7.920
12980TIP3    H138817   1.869   1.633   8.013
12980TIP3    H238818   1.832   1.558   7.889
12981TIP3   OH238819   0.955   1.610   7.181
12981TIP3    H138820   0.878   1.588   7.127
12981TIP3    H238821   1.009   1.660   7.116
12982TIP3   OH238822   2.068   3.311   8.140
12982TIP3    H138823   2.067   3.333   8.045
12982TIP3    H238824   2.149   3.359   8.169
12983TIP3   OH238825   1.017   2.424   8.574
12983TIP3    H138826   1.104   2.453   8.608
12983TIP3    H238827   0.969   2.414   8.656
12984TIP3   OH238828   1.497   1.878   7.821
12984TIP3    H138829   1.564   1.829   7.770
12984TIP3    H238830   1.501   1.833   7.908
12985TIP3   OH238831   1.484   1.762   8.085
12985TIP3    H138832   1.400   1.807   8.112
12985TIP3    H238833   1.546   1.799   8.149
12986TIP3   OH238834   1.202   2.160   7.199
12986TIP3    H138835   1.128   2.097   7.191
12986TIP3    H238836   1.188   2.195   7.291
12987TIP3   OH238837   2.106   2.398   7.832
12987TIP3    H138838   2.132   2.446   7.750
12987TIP3    H238839   2.022   2.356   7.806
12988TIP3   OH238840   1.657   1.475   7.060
12988TIP3    H138841   1.561   1.463   7.072
12988TIP3    H238842   1.672   1.568   7.086
12989TIP3   OH238843   1.605   2.479   8.197
12989TIP3    H138844   1.625   2.450   8.287
12989TIP3    H238845   1.569   2.568   8.209
12990TIP3   OH238846   1.734   1.718   7.164
12990TIP3    H138847   1.830   1.726   7.183
12990TIP3    H238848   1.716   1.800   7.113
12991TIP3   OH238849   0.888   2.177   7.881
12991TIP3    H138850   0.930   2.154   7.796
12991TIP3    H238851   0.954   2.140   7.943
12992TIP3   OH238852   1.350   2.310   7.021
12992TIP3    H138853   1.303   2.396   7.028
12992TIP3    H238854   1.297   2.255   7.082
12993TIP3   OH238855   1.503   2.219   8.508
12993TIP3    H138856   1.446   2.162   8.453
12993TIP3    H238857   1.591   2.184   8.484
12994TIP3   OH238858   1.766   2.741   8.097
12994TIP3    H138859   1.670   2.735   8.107
12994TIP3    H238860   1.790   2.795   8.174
12995TIP3   OH238861   2.179   1.806   7.000
12995TIP3    H138862   2.114   1.765   6.939
12995TIP3    H238863   2.175   1.898   6.964
12996TIP3   OH238864   2.393   2.668   8.084
12996TIP3    H138865   2.295   2.661   8.076
12996TIP3    H238866   2.419   2.637   7.995
12997TIP3   OH238867   1.864   2.630   6.908
12997TIP3    H138868   1.859   2.558   6.973
12997TIP3    H238869   1.890   2.583   6.826
12998TIP3   OH238870   1.870   2.259   7.752
12998TIP3    H138871   1.777   2.232   7.764
12998TIP3    H238872   1.906   2.180   7.707
12999TIP3   OH238873   0.998   2.487   7.505
12999TIP3    H138874   1.005   2.567   7.450
12999TIP3    H238875   0.903   2.476   7.510
13000TIP3   OH238876   1.135   2.253   7.443
13000TIP3    H138877   1.102   2.342   7.465
13000TIP3    H238878   1.110   2.204   7.524
13001TIP3   OH238879   1.267   2.831   7.973
13001TIP3    H138880   1.306   2.903   7.920
13001TIP3    H238881   1.346   2.794   8.016
13002TIP3   OH238882   0.918   2.726   7.355
13002TIP3    H138883   0.833   2.736   7.400
13002TIP3    H238884   0.952   2.818   7.357
13003TIP3   OH238885   1.658   2.466   7.929
13003TIP3    H138886   1.649   2.461   8.027
13003TIP3    H238887   1.735   2.410   7.913
13004TIP3   OH238888   1.630   2.353   6.814
13004TIP3    H138889   1.685   2.332   6.893
13004TIP3    H238890   1.542   2.330   6.848
13005TIP3   OH238891   1.902   3.002   7.984
13005TIP3    H138892   1.825   2.944   7.972
13005TIP3    H238893   1.891   3.065   7.910
13006TIP3   OH238894   1.969   2.833   6.633
13006TIP3    H138895   2.010   2.906   6.584
13006TIP3    H238896   1.889   2.879   6.665
13007TIP3   OH238897   1.789   2.292   7.034
13007TIP3    H138898   1.781   2.224   7.103
13007TIP3    H238899   1.886   2.288   7.018
13008TIP3   OH238900   0.700   2.685   8.132
13008TIP3    H138901   0.764   2.620   8.164
13008TIP3    H238902   0.722   2.763   8.186
13009TIP3   OH238903   0.994   2.339   6.813
13009TIP3    H138904   1.014   2.248   6.784
13009TIP3    H238905   0.976   2.325   6.909
13010TIP3   OH238906   0.940   2.341   7.088
13010TIP3    H138907   1.017   2.317   7.142
13010TIP3    H238908   0.944   2.439   7.092
13011TIP3   OH238909   1.828   1.666   8.180
13011TIP3    H138910   1.905   1.709   8.219
13011TIP3    H238911   1.812   1.590   8.239
13012TIP3   OH238912   1.713   1.427   7.339
13012TIP3    H138913   1.695   1.453   7.247
13012TIP3    H238914   1.748   1.510   7.377
13013TIP3   OH238915   1.205   2.538   7.034
13013TIP3    H138916   1.120   2.569   7.069
13013TIP3    H238917   1.226   2.611   6.973
13014TIP3   OH238918   1.401   1.618   7.453
13014TIP3    H138919   1.466   1.690   7.436
13014TIP3    H238920   1.405   1.612   7.551
13015TIP3   OH238921   1.673   1.924   8.252
13015TIP3    H138922   1.680   1.977   8.334
13015TIP3    H238923   1.726   1.846   8.274
13016TIP3   OH238924   1.553   1.332   7.546
13016TIP3    H138925   1.526   1.407   7.602
13016TIP3    H238926   1.609   1.375   7.478
13017TIP3   OH238927   0.947   2.614   7.100
13017TIP3    H138928   0.920   2.685   7.037
13017TIP3    H238929   0.935   2.660   7.187
13018TIP3   OH238930   2.304   1.824   8.237
13018TIP3    H138931   2.206   1.820   8.241
13018TIP3    H238932   2.320   1.786   8.150
13019TIP3   OH238933   1.957   2.019   7.626
13019TIP3    H138934   1.882   1.958   7.638
13019TIP3    H238935   2.029   1.972   7.673
13020TIP3   OH238936   0.656   2.253   7.098
13020TIP3    H138937   0.725   2.321   7.107
13020TIP3    H238938   0.703   2.191   7.040
13021TIP3   OH238939   1.924   2.972   7.575
13021TIP3    H138940   1.882   3.019   7.499
13021TIP3    H238941   2.019   2.991   7.554
13022TIP3   OH238942   0.544   2.462   7.496
13022TIP3    H138943   0.460   2.501   7.524
13022TIP3    H238944   0.546   2.489   7.403
13023TIP3   OH238945   0.716   3.011   8.529
13023TIP3    H138946   0.790   3.008   8.593
13023TIP3    H238947   0.675   2.925   8.542
13024TIP3   OH238948   1.186   2.964   8.600
13024TIP3    H138949   1.279   2.939   8.593
13024TIP3    H238950   1.148   2.912   8.526
13025TIP3   OH238951   1.160   2.542   6.726
13025TIP3    H138952   1.105   2.470   6.764
13025TIP3    H238953   1.236   2.491   6.693
13026TIP3   OH238954   1.808   2.881   8.338
13026TIP3    H138955   1.806   2.803   8.398
13026TIP3    H238956   1.894   2.922   8.359
13027TIP3   OH238957   1.596   2.582   6.636
13027TIP3    H138958   1.644   2.524   6.696
13027TIP3    H238959   1.654   2.584   6.557
13028TIP3   OH238960   0.804   2.055   6.950
13028TIP3    H138961   0.863   2.030   7.024
13028TIP3    H238962   0.871   2.060   6.878
13029TIP3   OH238963   1.438   2.490   8.524
13029TIP3    H138964   1.398   2.503   8.436
13029TIP3    H238965   1.470   2.397   8.519
13030TIP3   OH238966   1.307   2.256   6.753
13030TIP3    H138967   1.315   2.269   6.849
13030TIP3    H238968   1.311   2.158   6.749
13031TIP3   OH238969   1.928   2.501   8.134
13031TIP3    H138970   2.003   2.543   8.088
13031TIP3    H238971   1.858   2.566   8.117
13032TIP3   OH238972   1.002   1.958   7.166
13032TIP3    H138973   1.007   1.919   7.255
13032TIP3    H238974   1.045   1.888   7.112
13033TIP3   OH238975   1.269   2.026   8.399
13033TIP3    H138976   1.201   2.097   8.404
13033TIP3    H238977   1.320   2.050   8.319
13034TIP3   OH238978   1.113   1.756   7.008
13034TIP3    H138979   1.089   1.758   6.913
13034TIP3    H238980   1.211   1.761   7.002
13035TIP3   OH238981   1.803   2.430   8.533
13035TIP3    H138982   1.878   2.401   8.480
13035TIP3    H238983   1.799   2.360   8.601
13036TIP3   OH238984   1.934   2.087   6.671
13036TIP3    H138985   1.912   2.042   6.587
13036TIP3    H238986   1.904   2.178   6.649
13037TIP3   OH238987   1.446   1.826   8.501
13037TIP3    H138988   1.391   1.753   8.468
13037TIP3    H238989   1.379   1.898   8.493
13038TIP3   OH238990   1.439   2.146   8.216
13038TIP3    H138991   1.515   2.133   8.158
13038TIP3    H238992   1.383   2.207   8.164
13039TIP3   OH238993   2.016   2.105   8.581
13039TIP3    H138994   2.062   2.024   8.609
13039TIP3    H238995   2.090   2.157   8.546
13040TIP3   OH238996   2.057   2.360   8.325
13040TIP3    H138997   2.001   2.411   8.263
13040TIP3    H238998   2.146   2.376   8.285
13041TIP3   OH238999   1.682   1.871   8.624
13041TIP3    H139000   1.647   1.887   8.713
13041TIP3    H239001   1.599   1.850   8.575
13042TIP3   OH239002   1.904   1.815   8.463
13042TIP3    H139003   1.834   1.821   8.531
13042TIP3    H239004   1.981   1.786   8.517
13043TIP3   OH239005   2.126   1.751   8.613
13043TIP3    H139006   2.147   1.659   8.638
13043TIP3    H239007   2.121   1.797   8.700
13044TIP3   OH239008   0.919   2.816   6.913
13044TIP3    H139009   1.015   2.813   6.895
13044TIP3    H239010   0.891   2.866   6.834
13045TIP3   OH239011   0.325   2.802   7.528
13045TIP3    H139012   0.233   2.773   7.528
13045TIP3    H239013   0.362   2.756   7.606
13046TIP3   OH239014   0.442   2.670   7.735
13046TIP3    H139015   0.447   2.595   7.796
13046TIP3    H239016   0.497   2.735   7.784
13047TIP3   OH239017   2.174   3.068   7.530
13047TIP3    H139018   2.207   3.102   7.615
13047TIP3    H239019   2.239   3.104   7.467
13048TIP3   OH239020   2.206   3.085   7.815
13048TIP3    H139021   2.165   2.997   7.807
13048TIP3    H239022   2.285   3.061   7.866
13049TIP3   OH239023   2.252   2.763   8.384
13049TIP3    H139024   2.179   2.771   8.448
13049TIP3    H239025   2.295   2.851   8.389
13050TIP3   OH239026   2.063   2.267   7.005
13050TIP3    H139027   2.123   2.339   6.975
13050TIP3    H239028   2.113   2.233   7.082
13051TIP3   OH239029   2.198   2.138   7.205
13051TIP3    H139030   2.137   2.101   7.271
13051TIP3    H239031   2.268   2.180   7.260
13052TIP3   OH239032   2.249   2.531   7.639
13052TIP3    H139033   2.303   2.466   7.590
13052TIP3    H239034   2.246   2.607   7.577
13053TIP3   OH239035   2.084   2.833   7.836
13053TIP3    H139036   2.011   2.874   7.886
13053TIP3    H239037   2.036   2.784   7.766
13054TIP3   OH239038   2.134   2.044   6.856
13054TIP3    H139039   2.062   2.053   6.790
13054TIP3    H239040   2.114   2.121   6.913
13055TIP3   OH239041   2.008   1.719   6.809
13055TIP3    H139042   1.963   1.764   6.736
13055TIP3    H239043   1.979   1.626   6.796
13056TIP3   OH239044   2.008   1.997   7.357
13056TIP3    H139045   2.021   1.901   7.355
13056TIP3    H239046   1.996   2.014   7.453
13057TIP3   OH239047   2.300   2.422   8.213
13057TIP3    H139048   2.372   2.355   8.205
13057TIP3    H239049   2.329   2.490   8.149
13058TIP3   OH239050   2.486   2.230   8.234
13058TIP3    H139051   2.412   2.176   8.270
13058TIP3    H239052   2.560   2.166   8.245
13059TIP3   OH239053   1.950   1.453   6.793
13059TIP3    H139054   2.022   1.425   6.853
13059TIP3    H239055   1.875   1.397   6.820
13060TIP3   OH239056   2.005   1.711   7.251
13060TIP3    H139057   2.048   1.623   7.265
13060TIP3    H239058   2.065   1.748   7.184
13061TIP3   OH239059   2.170   1.888   7.744
13061TIP3    H139060   2.256   1.914   7.704
13061TIP3    H239061   2.183   1.924   7.834
13062TIP3   OH239062   2.237   2.031   7.977
13062TIP3    H139063   2.159   2.066   8.025
13062TIP3    H239064   2.270   2.111   7.931
13063TIP3   OH239065   2.674   1.608   8.529
13063TIP3    H139066   2.744   1.553   8.488
13063TIP3    H239067   2.662   1.679   8.463
13064TIP3   OH239068   2.120   1.463   7.286
13064TIP3    H139069   2.166   1.448   7.372
13064TIP3    H239070   2.057   1.388   7.286
13065TIP3   OH239071   2.563   1.767   8.335
13065TIP3    H139072   2.476   1.803   8.361
13065TIP3    H239073   2.535   1.690   8.282
13066TIP3   OH239074   2.195   1.399   6.921
13066TIP3    H139075   2.233   1.327   6.866
13066TIP3    H239076   2.260   1.471   6.913
13067TIP3   OH239077   1.760   2.931   7.187
13067TIP3    H139078   1.811   2.914   7.105
13067TIP3    H239079   1.817   2.995   7.232
13068TIP3   OH239080   0.856   2.726   8.567
13068TIP3    H139081   0.779   2.672   8.543
13068TIP3    H239082   0.861   2.718   8.663
13069TIP3   OH239083   1.040   2.768   8.123
13069TIP3    H139084   0.993   2.843   8.082
13069TIP3    H239085   1.126   2.780   8.077
13070TIP3   OH239086   1.487   3.011   8.260
13070TIP3    H139087   1.533   3.017   8.346
13070TIP3    H239088   1.551   3.060   8.203
13071TIP3   OH239089   1.665   3.160   8.118
13071TIP3    H139090   1.734   3.113   8.070
13071TIP3    H239091   1.719   3.219   8.176
13072TIP3   OH239092   2.461   1.526   8.217
13072TIP3    H139093   2.369   1.519   8.185
13072TIP3    H239094   2.492   1.433   8.205
13073TIP3   OH239095   0.716   3.019   8.146
13073TIP3    H139096   0.627   3.054   8.123
13073TIP3    H239097   0.726   3.057   8.234
13074TIP3   OH239098   0.953   3.001   8.002
13074TIP3    H139099   0.866   3.015   8.046
13074TIP3    H239100   0.935   3.036   7.912
13075TIP3   OH239101   1.378   3.031   7.801
13075TIP3    H139102   1.312   3.052   7.732
13075TIP3    H239103   1.393   3.119   7.841
13076TIP3   OH239104   1.648   2.972   7.854
13076TIP3    H139105   1.554   2.989   7.830
13076TIP3    H239106   1.693   3.044   7.807
13077TIP3   OH239107   1.854   3.161   7.767
13077TIP3    H139108   1.841   3.246   7.720
13077TIP3    H239109   1.882   3.102   7.693
13078TIP3   OH239110   0.626   2.812   7.884
13078TIP3    H139111   0.648   2.796   7.978
13078TIP3    H239112   0.703   2.769   7.840
13079TIP3   OH239113   0.824   2.686   7.744
13079TIP3    H139114   0.842   2.603   7.793
13079TIP3    H239115   0.913   2.726   7.739
13080TIP3   OH239116   1.086   2.783   7.749
13080TIP3    H139117   1.121   2.693   7.734
13080TIP3    H239118   1.131   2.806   7.832
13081TIP3   OH239119   1.671   1.437   7.835
13081TIP3    H139120   1.628   1.352   7.853
13081TIP3    H239121   1.746   1.408   7.779
13082TIP3   OH239122   2.188   1.313   7.739
13082TIP3    H139123   2.226   1.369   7.669
13082TIP3    H239124   2.094   1.339   7.736
13083TIP3   OH239125   2.283   1.418   7.505
13083TIP3    H139126   2.357   1.368   7.465
13083TIP3    H239127   2.316   1.510   7.492
13084TIP3   OH239128   1.904   1.325   7.718
13084TIP3    H139129   1.894   1.292   7.628
13084TIP3    H239130   1.888   1.244   7.771
13085TIP3   OH239131   1.933   1.253   7.276
13085TIP3    H139132   1.847   1.297   7.289
13085TIP3    H239133   1.916   1.166   7.319
13086TIP3   OH239134   0.394   2.585   7.291
13086TIP3    H139135   0.348   2.558   7.212
13086TIP3    H239136   0.395   2.682   7.277
13087TIP3   OH239137   1.308   1.383   7.363
13087TIP3    H139138   1.361   1.316   7.407
13087TIP3    H239139   1.349   1.465   7.399
13088TIP3   OH239140   1.188   2.779   6.863
13088TIP3    H139141   1.277   2.801   6.827
13088TIP3    H239142   1.167   2.704   6.803
13089TIP3   OH239143   1.905   2.895   6.955
13089TIP3    H139144   1.894   2.797   6.941
13089TIP3    H239145   1.863   2.929   6.873
13090TIP3   OH239146   0.491   2.604   6.924
13090TIP3    H139147   0.500   2.657   7.005
13090TIP3    H239148   0.582   2.570   6.910
13091TIP3   OH239149   2.200   1.482   8.655
13091TIP3    H139150   2.228   1.420   8.725
13091TIP3    H239151   2.281   1.486   8.601
13092TIP3   OH239152   2.131   3.041   8.146
13092TIP3    H139153   2.055   3.010   8.093
13092TIP3    H239154   2.115   3.138   8.144
13093TIP3   OH239155   3.401   2.412   6.907
13093TIP3    H139156   3.375   2.505   6.890
13093TIP3    H239157   3.320   2.365   6.884
13094TIP3   OH239158   3.402   2.410   7.287
13094TIP3    H139159   3.430   2.383   7.376
13094TIP3    H239160   3.353   2.332   7.257
13095TIP3   OH239161   2.696   2.309   7.659
13095TIP3    H139162   2.733   2.242   7.720
13095TIP3    H239163   2.775   2.360   7.636
13096TIP3   OH239164   3.642   2.714   6.971
13096TIP3    H139165   3.628   2.646   7.038
13096TIP3    H239166   3.670   2.790   7.025
13097TIP3   OH239167   2.670   2.722   7.385
13097TIP3    H139168   2.663   2.624   7.386
13097TIP3    H239169   2.767   2.730   7.377
13098TIP3   OH239170   2.377   1.911   7.168
13098TIP3    H139171   2.346   2.002   7.181
13098TIP3    H239172   2.298   1.871   7.128
13099TIP3   OH239173   2.433   2.215   7.331
13099TIP3    H139174   2.493   2.143   7.356
13099TIP3    H239175   2.481   2.256   7.255
13100TIP3   OH239176   3.289   3.176   6.986
13100TIP3    H139177   3.338   3.105   6.939
13100TIP3    H239178   3.285   3.141   7.076
13101TIP3   OH239179   3.197   2.640   7.338
13101TIP3    H139180   3.232   2.562   7.291
13101TIP3    H239181   3.282   2.682   7.362
13102TIP3   OH239182   4.210   1.959   7.335
13102TIP3    H139183   4.239   2.041   7.381
13102TIP3    H239184   4.231   1.981   7.243
13103TIP3   OH239185   3.611   2.141   7.372
13103TIP3    H139186   3.653   2.055   7.392
13103TIP3    H239187   3.580   2.126   7.280
13104TIP3   OH239188   2.945   1.796   7.335
13104TIP3    H139189   2.927   1.872   7.275
13104TIP3    H239190   2.890   1.728   7.291
13105TIP3   OH239191   3.642   1.888   6.958
13105TIP3    H139192   3.713   1.873   7.024
13105TIP3    H239193   3.694   1.926   6.885
13106TIP3   OH239194   2.581   2.002   7.444
13106TIP3    H139195   2.665   1.983   7.490
13106TIP3    H239196   2.595   1.950   7.362
13107TIP3   OH239197   3.028   2.207   7.246
13107TIP3    H139198   3.118   2.170   7.252
13107TIP3    H239199   2.979   2.136   7.201
13108TIP3   OH239200   4.283   2.166   7.505
13108TIP3    H139201   4.200   2.214   7.487
13108TIP3    H239202   4.298   2.190   7.598
13109TIP3   OH239203   2.945   1.781   7.770
13109TIP3    H139204   2.885   1.820   7.703
13109TIP3    H239205   2.893   1.799   7.852
13110TIP3   OH239206   3.295   2.636   6.777
13110TIP3    H139207   3.247   2.614   6.696
13110TIP3    H239208   3.251   2.720   6.802
13111TIP3   OH239209   3.053   2.559   7.568
13111TIP3    H139210   2.988   2.623   7.605
13111TIP3    H239211   3.092   2.610   7.494
13112TIP3   OH239212   3.853   1.891   7.130
13112TIP3    H139213   3.840   1.846   7.214
13112TIP3    H239214   3.906   1.969   7.156
13113TIP3   OH239215   2.816   1.896   7.555
13113TIP3    H139216   2.877   1.970   7.578
13113TIP3    H239217   2.865   1.857   7.480
13114TIP3   OH239218   2.878   2.751   7.665
13114TIP3    H139219   2.851   2.836   7.623
13114TIP3    H239220   2.799   2.735   7.721
13115TIP3   OH239221   2.237   2.455   6.910
13115TIP3    H139222   2.244   2.469   6.814
13115TIP3    H239223   2.313   2.505   6.944
13116TIP3   OH239224   3.713   2.956   7.138
13116TIP3    H139225   3.624   2.948   7.178
13116TIP3    H239226   3.706   3.043   7.094
13117TIP3   OH239227   4.004   1.858   7.501
13117TIP3    H139228   3.916   1.890   7.473
13117TIP3    H239229   4.062   1.891   7.430
13118TIP3   OH239230   3.301   1.502   7.482
13118TIP3    H139231   3.289   1.408   7.503
13118TIP3    H239232   3.224   1.541   7.530
13119TIP3   OH239233   3.418   3.004   6.815
13119TIP3    H139234   3.468   2.922   6.793
13119TIP3    H239235   3.477   3.070   6.773
13120TIP3   OH239236   3.560   2.788   6.718
13120TIP3    H139237   3.514   2.711   6.684
13120TIP3    H239238   3.595   2.754   6.803
13121TIP3   OH239239   3.940   2.871   7.483
13121TIP3    H139240   3.928   2.793   7.424
13121TIP3    H239241   3.922   2.945   7.422
13122TIP3   OH239242   3.227   2.259   6.737
13122TIP3    H139243   3.150   2.316   6.719
13122TIP3    H239244   3.277   2.265   6.654
13123TIP3   OH239245   3.188   2.045   6.459
13123TIP3    H139246   3.252   2.097   6.510
13123TIP3    H239247   3.248   1.986   6.409
13124TIP3   OH239248   4.135   2.507   7.326
13124TIP3    H139249   4.052   2.559   7.333
13124TIP3    H239250   4.164   2.532   7.236
13125TIP3   OH239251   3.578   2.345   6.711
13125TIP3    H139252   3.523   2.371   6.789
13125TIP3    H239253   3.662   2.321   6.756
13126TIP3   OH239254   3.814   2.387   7.622
13126TIP3    H139255   3.810   2.470   7.673
13126TIP3    H239256   3.727   2.391   7.578
13127TIP3   OH239257   2.941   2.761   7.276
13127TIP3    H139258   2.916   2.713   7.196
13127TIP3    H239259   3.030   2.724   7.295
13128TIP3   OH239260   2.950   2.313   7.489
13128TIP3    H139261   2.976   2.292   7.396
13128TIP3    H239262   2.990   2.401   7.502
13129TIP3   OH239263   3.472   2.954   7.259
13129TIP3    H139264   3.458   3.033   7.313
13129TIP3    H239265   3.458   2.881   7.322
13130TIP3   OH239266   3.084   2.874   7.805
13130TIP3    H139267   3.024   2.936   7.852
13130TIP3    H239268   3.019   2.820   7.757
13131TIP3   OH239269   3.420   2.204   6.537
13131TIP3    H139270   3.478   2.263   6.590
13131TIP3    H239271   3.446   2.229   6.445
13132TIP3   OH239272   2.840   2.429   7.909
13132TIP3    H139273   2.843   2.516   7.954
13132TIP3    H239274   2.744   2.410   7.913
13133TIP3   OH239275   3.163   2.884   6.810
13133TIP3    H139276   3.240   2.939   6.832
13133TIP3    H239277   3.099   2.948   6.776
13134TIP3   OH239278   2.878   3.043   7.893
13134TIP3    H139279   2.845   3.040   7.801
13134TIP3    H239280   2.799   3.021   7.945
13135TIP3   OH239281   3.934   1.446   6.585
13135TIP3    H139282   3.853   1.466   6.637
13135TIP3    H239283   3.947   1.530   6.536
13136TIP3   OH239284   3.732   2.813   6.132
13136TIP3    H139285   3.741   2.910   6.120
13136TIP3    H239286   3.825   2.785   6.121
13137TIP3   OH239287   2.457   2.572   7.840
13137TIP3    H139288   2.396   2.548   7.768
13137TIP3    H239289   2.496   2.485   7.865
13138TIP3   OH239290   2.311   2.762   7.479
13138TIP3    H139291   2.406   2.751   7.460
13138TIP3    H239292   2.310   2.844   7.529
13139TIP3   OH239293   4.178   3.215   7.529
13139TIP3    H139294   4.175   3.118   7.542
13139TIP3    H239295   4.094   3.240   7.574
13140TIP3   OH239296   3.283   3.002   7.663
13140TIP3    H139297   3.282   3.095   7.696
13140TIP3    H239298   3.211   2.962   7.717
13141TIP3   OH239299   3.042   3.132   6.615
13141TIP3    H139300   2.996   3.114   6.531
13141TIP3    H239301   3.010   3.221   6.638
13142TIP3   OH239302   2.482   2.982   6.999
13142TIP3    H139303   2.528   2.971   7.085
13142TIP3    H239304   2.431   2.898   6.996
13143TIP3   OH239305   3.244   3.031   6.255
13143TIP3    H139306   3.304   2.962   6.220
13143TIP3    H239307   3.278   3.041   6.347
13144TIP3   OH239308   3.294   3.079   6.525
13144TIP3    H139309   3.206   3.089   6.568
13144TIP3    H239310   3.345   3.040   6.598
13145TIP3   OH239311   4.068   2.348   7.802
13145TIP3    H139312   3.985   2.359   7.753
13145TIP3    H239313   4.082   2.251   7.793
13146TIP3   OH239314   2.662   2.756   7.832
13146TIP3    H139315   2.713   2.736   7.913
13146TIP3    H239316   2.589   2.691   7.837
13147TIP3   OH239317   3.062   1.578   7.611
13147TIP3    H139318   2.972   1.548   7.587
13147TIP3    H239319   3.039   1.661   7.658
13148TIP3   OH239320   3.596   1.692   7.807
13148TIP3    H139321   3.664   1.667   7.872
13148TIP3    H239322   3.512   1.673   7.854
13149TIP3   OH239323   3.836   2.122   7.725
13149TIP3    H139324   3.787   2.118   7.811
13149TIP3    H239325   3.810   2.210   7.691
13150TIP3   OH239326   3.493   2.251   6.280
13150TIP3    H139327   3.462   2.226   6.191
13150TIP3    H239328   3.573   2.302   6.258
13151TIP3   OH239329   3.189   1.636   6.574
13151TIP3    H139330   3.172   1.634   6.671
13151TIP3    H239331   3.168   1.544   6.552
13152TIP3   OH239332   2.995   2.089   7.633
13152TIP3    H139333   2.945   2.114   7.714
13152TIP3    H239334   2.982   2.170   7.579
13153TIP3   OH239335   2.883   1.977   7.145
13153TIP3    H139336   2.787   1.970   7.162
13153TIP3    H239337   2.889   1.935   7.057
13154TIP3   OH239338   3.368   2.063   6.871
13154TIP3    H139339   3.315   2.135   6.831
13154TIP3    H239340   3.424   2.036   6.795
13155TIP3   OH239341   3.543   2.345   7.959
13155TIP3    H139342   3.520   2.272   8.022
13155TIP3    H239343   3.637   2.359   7.982
13156TIP3   OH239344   3.527   2.093   7.113
13156TIP3    H139345   3.467   2.126   7.043
13156TIP3    H239346   3.558   2.012   7.069
13157TIP3   OH239347   2.813   2.122   7.842
13157TIP3    H139348   2.844   2.185   7.909
13157TIP3    H239349   2.803   2.040   7.893
13158TIP3   OH239350   2.407   1.640   7.421
13158TIP3    H139351   2.477   1.679   7.478
13158TIP3    H239352   2.455   1.620   7.340
13159TIP3   OH239353   2.384   1.628   6.929
13159TIP3    H139354   2.426   1.682   6.860
13159TIP3    H239355   2.319   1.693   6.963
13160TIP3   OH239356   3.537   2.341   7.536
13160TIP3    H139357   3.569   2.269   7.477
13160TIP3    H239358   3.508   2.289   7.613
13161TIP3   OH239359   3.203   1.799   7.206
13161TIP3    H139360   3.120   1.801   7.259
13161TIP3    H239361   3.271   1.803   7.275
13162TIP3   OH239362   2.639   1.855   7.220
13162TIP3    H139363   2.545   1.867   7.191
13162TIP3    H239364   2.661   1.765   7.190
13163TIP3   OH239365   2.915   1.861   6.895
13163TIP3    H139366   3.013   1.860   6.904
13163TIP3    H239367   2.903   1.909   6.813
13164TIP3   OH239368   3.696   1.877   7.406
13164TIP3    H139369   3.665   1.889   7.498
13164TIP3    H239370   3.629   1.816   7.372
13165TIP3   OH239371   2.727   1.826   6.629
13165TIP3    H139372   2.650   1.881   6.652
13165TIP3    H239373   2.786   1.890   6.584
13166TIP3   OH239374   3.866   3.567   7.626
13166TIP3    H139375   3.863   3.588   7.530
13166TIP3    H239376   3.943   3.618   7.655
13167TIP3   OH239377   2.823   2.678   8.050
13167TIP3    H139378   2.904   2.706   8.097
13167TIP3    H239379   2.760   2.675   8.124
13168TIP3   OH239380   3.292   2.125   7.304
13168TIP3    H139381   3.368   2.087   7.257
13168TIP3    H239382   3.300   2.086   7.393
13169TIP3   OH239383   2.806   1.615   7.174
13169TIP3    H139384   2.779   1.537   7.227
13169TIP3    H239385   2.884   1.582   7.126
13170TIP3   OH239386   3.266   2.025   7.594
13170TIP3    H139387   3.176   2.061   7.608
13170TIP3    H239388   3.322   2.086   7.645
13171TIP3   OH239389   3.005   2.418   6.690
13171TIP3    H139390   2.929   2.358   6.676
13171TIP3    H239391   2.986   2.452   6.781
13172TIP3   OH239392   3.903   2.653   7.319
13172TIP3    H139393   3.926   2.703   7.238
13172TIP3    H239394   3.817   2.612   7.294
13173TIP3   OH239395   3.454   1.730   6.549
13173TIP3    H139396   3.356   1.724   6.555
13173TIP3    H239397   3.472   1.824   6.573
13174TIP3   OH239398   3.404   2.737   7.685
13174TIP3    H139399   3.422   2.711   7.776
13174TIP3    H239400   3.362   2.824   7.694
13175TIP3   OH239401   3.531   1.974   6.649
13175TIP3    H139402   3.627   1.982   6.669
13175TIP3    H239403   3.513   2.056   6.599
13176TIP3   OH239404   2.697   2.449   7.370
13176TIP3    H139405   2.671   2.415   7.281
13176TIP3    H239406   2.735   2.370   7.411
13177TIP3   OH239407   3.145   2.566   6.507
13177TIP3    H139408   3.099   2.653   6.513
13177TIP3    H239409   3.092   2.512   6.570
13178TIP3   OH239410   2.571   2.363   7.980
13178TIP3    H139411   2.597   2.348   8.073
13178TIP3    H239412   2.507   2.292   7.964
13179TIP3   OH239413   3.299   2.474   7.996
13179TIP3    H139414   3.241   2.415   7.947
13179TIP3    H239415   3.387   2.440   7.970
13180TIP3   OH239416   3.562   2.996   7.581
13180TIP3    H139417   3.466   2.992   7.593
13180TIP3    H239418   3.589   3.047   7.660
13181TIP3   OH239419   3.972   2.066   6.491
13181TIP3    H139420   3.909   2.022   6.429
13181TIP3    H239421   3.969   2.155   6.450
13182TIP3   OH239422   4.190   2.924   7.571
13182TIP3    H139423   4.092   2.919   7.564
13182TIP3    H239424   4.216   2.894   7.481
13183TIP3   OH239425   3.670   2.886   6.398
13183TIP3    H139426   3.646   2.817   6.461
13183TIP3    H239427   3.683   2.837   6.315
13184TIP3   OH239428   3.667   2.515   7.237
13184TIP3    H139429   3.574   2.489   7.251
13184TIP3    H239430   3.702   2.436   7.192
13185TIP3   OH239431   2.797   2.741   6.989
13185TIP3    H139432   2.786   2.823   6.937
13185TIP3    H239433   2.705   2.713   7.001
13186TIP3   OH239434   2.356   2.042   6.693
13186TIP3    H139435   2.398   2.131   6.709
13186TIP3    H239436   2.279   2.050   6.754
13187TIP3   OH239437   2.933   2.506   6.934
13187TIP3    H139438   2.898   2.595   6.954
13187TIP3    H239439   2.891   2.453   7.004
13188TIP3   OH239440   3.063   3.087   7.460
13188TIP3    H139441   3.104   3.159   7.408
13188TIP3    H239442   3.140   3.052   7.507
13189TIP3   OH239443   2.713   2.981   6.841
13189TIP3    H139444   2.628   2.989   6.888
13189TIP3    H239445   2.745   3.074   6.845
13190TIP3   OH239446   3.453   2.720   7.417
13190TIP3    H139447   3.444   2.719   7.515
13190TIP3    H239448   3.533   2.667   7.405
13191TIP3   OH239449   3.426   2.611   6.300
13191TIP3    H139450   3.479   2.587   6.379
13191TIP3    H239451   3.337   2.589   6.332
13192TIP3   OH239452   3.701   3.255   7.468
13192TIP3    H139453   3.622   3.199   7.460
13192TIP3    H239454   3.686   3.320   7.396
13193TIP3   OH239455   3.766   3.089   6.120
13193TIP3    H139456   3.805   3.162   6.069
13193TIP3    H239457   3.686   3.134   6.154
13194TIP3   OH239458   2.788   1.864   7.987
13194TIP3    H139459   2.692   1.869   8.003
13194TIP3    H239460   2.818   1.807   8.060
13195TIP3   OH239461   3.586   2.544   6.515
13195TIP3    H139462   3.576   2.480   6.588
13195TIP3    H239463   3.683   2.545   6.504
13196TIP3   OH239464   2.500   2.951   7.620
13196TIP3    H139465   2.552   2.873   7.643
13196TIP3    H239466   2.537   3.016   7.681
13197TIP3   OH239467   2.793   2.594   6.298
13197TIP3    H139468   2.808   2.502   6.271
13197TIP3    H239469   2.776   2.584   6.394
13198TIP3   OH239470   2.740   2.599   6.570
13198TIP3    H139471   2.803   2.573   6.639
13198TIP3    H239472   2.743   2.697   6.577
13199TIP3   OH239473   2.464   2.282   6.762
13199TIP3    H139474   2.478   2.299   6.857
13199TIP3    H239475   2.487   2.368   6.722
13200TIP3   OH239476   3.625   1.927   7.664
13200TIP3    H139477   3.701   1.968   7.708
13200TIP3    H239478   3.609   1.848   7.720
13201TIP3   OH239479   3.504   1.681   6.831
13201TIP3    H139480   3.490   1.707   6.738
13201TIP3    H239481   3.543   1.762   6.869
13202TIP3   OH239482   3.004   2.797   6.518
13202TIP3    H139483   2.918   2.823   6.557
13202TIP3    H239484   3.021   2.873   6.461
13203TIP3   OH239485   3.188   1.862   6.937
13203TIP3    H139486   3.254   1.932   6.918
13203TIP3    H239487   3.197   1.853   7.035
13204TIP3   OH239488   3.462   2.180   7.743
13204TIP3    H139489   3.479   2.235   7.822
13204TIP3    H239490   3.517   2.101   7.761
13205TIP3   OH239491   3.337   1.588   7.038
13205TIP3    H139492   3.333   1.662   7.101
13205TIP3    H239493   3.396   1.625   6.969
13206TIP3   OH239494   2.746   2.871   6.587
13206TIP3    H139495   2.716   2.941   6.525
13206TIP3    H239496   2.730   2.914   6.674
13207TIP3   OH239497   4.102   2.080   7.722
13207TIP3    H139498   4.005   2.078   7.731
13207TIP3    H239499   4.112   2.038   7.635
13208TIP3   OH239500   3.753   2.274   7.110
13208TIP3    H139501   3.677   2.215   7.125
13208TIP3    H239502   3.825   2.227   7.159
13209TIP3   OH239503   2.463   2.514   6.576
13209TIP3    H139504   2.531   2.583   6.586
13209TIP3    H239505   2.509   2.456   6.511
13210TIP3   OH239506   2.431   1.783   6.707
13210TIP3    H139507   2.411   1.879   6.713
13210TIP3    H239508   2.346   1.750   6.674
13211TIP3   OH239509   3.722   3.227   7.060
13211TIP3    H139510   3.680   3.274   6.985
13211TIP3    H239511   3.817   3.246   7.041
13212TIP3   OH239512   2.798   1.498   7.588
13212TIP3    H139513   2.766   1.464   7.502
13212TIP3    H239514   2.787   1.420   7.647
13213TIP3   OH239515   2.347   2.741   6.974
13213TIP3    H139516   2.263   2.744   7.022
13213TIP3    H239517   2.317   2.763   6.883
13214TIP3   OH239518   2.492   3.256   8.043
13214TIP3    H139519   2.579   3.254   8.087
13214TIP3    H239520   2.473   3.161   8.037
13215TIP3   OH239521   2.975   3.225   8.083
13215TIP3    H139522   3.069   3.202   8.092
13215TIP3    H239523   2.949   3.166   8.010
13216TIP3   OH239524   2.955   2.799   6.211
13216TIP3    H139525   2.899   2.729   6.251
13216TIP3    H239526   3.031   2.746   6.182
13217TIP3   OH239527   3.612   3.130   7.818
13217TIP3    H139528   3.604   3.059   7.886
13217TIP3    H239529   3.691   3.179   7.849
13218TIP3   OH239530   3.392   2.839   6.123
13218TIP3    H139531   3.438   2.777   6.182
13218TIP3    H239532   3.450   2.840   6.044
13219TIP3   OH239533   2.622   2.664   8.241
13219TIP3    H139534   2.642   2.569   8.246
13219TIP3    H239535   2.536   2.664   8.195
13220TIP3   OH239536   2.599   2.318   6.431
13220TIP3    H139537   2.652   2.292   6.508
13220TIP3    H239538   2.669   2.321   6.362
13221TIP3   OH239539   3.230   2.749   8.014
13221TIP3    H139540   3.190   2.763   7.926
13221TIP3    H239541   3.262   2.656   8.008
13222TIP3   OH239542   3.108   2.513   6.239
13222TIP3    H139543   3.111   2.527   6.336
13222TIP3    H239544   3.106   2.415   6.235
13223TIP3   OH239545   3.724   2.755   7.619
13223TIP3    H139546   3.798   2.802   7.575
13223TIP3    H239547   3.652   2.819   7.607
13224TIP3   OH239548   2.742   2.398   8.220
13224TIP3    H139549   2.816   2.339   8.201
13224TIP3    H239550   2.767   2.429   8.310
13225TIP3   OH239551   2.808   2.225   6.647
13225TIP3    H139552   2.777   2.194   6.734
13225TIP3    H239553   2.846   2.145   6.606
13226TIP3   OH239554   3.076   2.281   7.882
13226TIP3    H139555   3.000   2.342   7.886
13226TIP3    H239556   3.126   2.317   7.804
13227TIP3   OH239557   2.904   2.000   6.503
13227TIP3    H139558   2.880   2.015   6.409
13227TIP3    H239559   3.002   2.013   6.497
13228TIP3   OH239560   3.595   2.685   8.018
13228TIP3    H139561   3.675   2.660   7.971
13228TIP3    H239562   3.591   2.619   8.089
13229TIP3   OH239563   3.732   2.343   6.158
13229TIP3    H139564   3.710   2.297   6.075
13229TIP3    H239565   3.700   2.434   6.135
13230TIP3   OH239566   3.200   2.071   8.010
13230TIP3    H139567   3.200   1.990   7.955
13230TIP3    H239568   3.157   2.136   7.952
13231TIP3   OH239569   3.203   1.856   7.816
13231TIP3    H139570   3.230   1.899   7.732
13231TIP3    H239571   3.109   1.834   7.798
13232TIP3   OH239572   3.232   2.394   7.691
13232TIP3    H139573   3.314   2.401   7.640
13232TIP3    H239574   3.174   2.459   7.647
13233TIP3   OH239575   3.812   2.360   8.070
13233TIP3    H139576   3.860   2.277   8.089
13233TIP3    H239577   3.883   2.417   8.038
13234TIP3   OH239578   3.855   2.613   7.808
13234TIP3    H139579   3.796   2.666   7.748
13234TIP3    H239580   3.942   2.633   7.767
13235TIP3   OH239581   3.076   2.186   8.237
13235TIP3    H139582   3.008   2.117   8.254
13235TIP3    H239583   3.113   2.156   8.152
13236TIP3   OH239584   3.336   1.620   7.881
13236TIP3    H139585   3.287   1.703   7.861
13236TIP3    H239586   3.265   1.553   7.872
13237TIP3   OH239587   3.462   2.127   8.100
13237TIP3    H139588   3.453   2.114   8.196
13237TIP3    H239589   3.371   2.102   8.072
13238TIP3   OH239590   3.700   2.072   7.954
13238TIP3    H139591   3.625   2.076   8.017
13238TIP3    H239592   3.774   2.043   8.011
13239TIP3   OH239593   3.931   2.014   8.104
13239TIP3    H139594   3.942   1.919   8.125
13239TIP3    H239595   3.925   2.055   8.193
13240TIP3   OH239596   2.918   1.964   8.291
13240TIP3    H139597   2.926   1.873   8.259
13240TIP3    H239598   2.954   1.954   8.382
13241TIP3   OH239599   3.431   1.632   8.139
13241TIP3    H139600   3.498   1.561   8.136
13241TIP3    H239601   3.391   1.623   8.050
13242TIP3   OH239602   3.497   1.848   8.298
13242TIP3    H139603   3.473   1.776   8.235
13242TIP3    H239604   3.418   1.906   8.293
13243TIP3   OH239605   2.716   3.073   6.400
13243TIP3    H139606   2.811   3.071   6.381
13243TIP3    H239607   2.686   3.123   6.321
13244TIP3   OH239608   2.196   2.460   6.607
13244TIP3    H139609   2.292   2.482   6.600
13244TIP3    H239610   2.195   2.368   6.575
13245TIP3   OH239611   2.108   3.069   7.029
13245TIP3    H139612   2.042   3.004   6.995
13245TIP3    H239613   2.154   3.014   7.097
13246TIP3   OH239614   2.240   2.928   7.221
13246TIP3    H139615   2.238   2.846   7.273
13246TIP3    H239616   2.297   2.983   7.277
13247TIP3   OH239617   3.976   3.317   7.018
13247TIP3    H139618   3.995   3.361   7.102
13247TIP3    H239619   4.026   3.373   6.957
13248TIP3   OH239620   4.000   3.340   7.301
13248TIP3    H139621   3.960   3.251   7.294
13248TIP3    H239622   4.078   3.319   7.355
13249TIP3   OH239623   4.049   3.017   7.872
13249TIP3    H139624   3.976   3.025   7.936
13249TIP3    H239625   4.090   3.106   7.877
13250TIP3   OH239626   3.866   2.530   6.492
13250TIP3    H139627   3.935   2.595   6.464
13250TIP3    H239628   3.909   2.491   6.571
13251TIP3   OH239629   3.993   2.398   6.695
13251TIP3    H139630   3.928   2.356   6.755
13251TIP3    H239631   4.058   2.436   6.758
13252TIP3   OH239632   4.047   2.789   7.128
13252TIP3    H139633   4.100   2.726   7.077
13252TIP3    H239634   4.039   2.865   7.066
13253TIP3   OH239635   3.879   3.088   7.324
13253TIP3    H139636   3.808   3.132   7.374
13253TIP3    H239637   3.829   3.041   7.254
13254TIP3   OH239638   3.932   2.305   6.343
13254TIP3    H139639   3.860   2.309   6.275
13254TIP3    H239640   3.905   2.381   6.398
13255TIP3   OH239641   3.802   1.979   6.297
13255TIP3    H139642   3.761   2.019   6.220
13255TIP3    H239643   3.776   1.885   6.287
13256TIP3   OH239644   3.808   2.254   6.842
13256TIP3    H139645   3.817   2.157   6.839
13256TIP3    H239646   3.794   2.270   6.938
13257TIP3   OH239647   2.432   2.326   7.588
13257TIP3    H139648   2.430   2.295   7.495
13257TIP3    H239649   2.529   2.328   7.604
13258TIP3   OH239650   4.097   2.679   7.699
13258TIP3    H139651   4.170   2.613   7.690
13258TIP3    H239652   4.124   2.748   7.636
13259TIP3   OH239653   4.284   2.486   7.716
13259TIP3    H139654   4.209   2.435   7.755
13259TIP3    H239655   4.356   2.421   7.730
13260TIP3   OH239656   3.746   1.713   6.284
13260TIP3    H139657   3.824   1.684   6.336
13260TIP3    H239658   3.676   1.652   6.311
13261TIP3   OH239659   3.803   1.969   6.737
13261TIP3    H139660   3.844   1.881   6.753
13261TIP3    H239661   3.862   2.003   6.668
13262TIP3   OH239662   3.966   2.144   7.232
13262TIP3    H139663   4.052   2.171   7.192
13262TIP3    H239664   3.978   2.181   7.321
13263TIP3   OH239665   4.033   2.288   7.464
13263TIP3    H139666   3.956   2.322   7.513
13263TIP3    H239667   4.065   2.369   7.420
13264TIP3   OH239668   2.651   2.017   8.261
13264TIP3    H139669   2.749   2.011   8.265
13264TIP3    H239670   2.628   1.932   8.303
13265TIP3   OH239671   4.485   1.878   8.020
13265TIP3    H139672   4.544   1.813   7.978
13265TIP3    H239673   4.458   1.934   7.944
13266TIP3   OH239674   3.913   1.720   6.774
13266TIP3    H139675   3.961   1.705   6.858
13266TIP3    H239676   3.853   1.643   6.774
13267TIP3   OH239677   2.612   1.706   7.594
13267TIP3    H139678   2.676   1.633   7.606
13267TIP3    H239679   2.672   1.782   7.588
13268TIP3   OH239680   2.416   1.980   7.667
13268TIP3    H139681   2.465   1.976   7.582
13268TIP3    H239682   2.444   2.067   7.699
13269TIP3   OH239683   4.358   2.020   7.826
13269TIP3    H139684   4.272   2.059   7.850
13269TIP3    H239685   4.328   1.948   7.768
13270TIP3   OH239686   3.994   1.656   6.406
13270TIP3    H139687   4.035   1.583   6.355
13270TIP3    H239688   4.062   1.726   6.401
13271TIP3   OH239689   2.395   1.475   7.158
13271TIP3    H139690   2.306   1.480   7.197
13271TIP3    H239691   2.391   1.544   7.089
13272TIP3   OH239692   3.557   3.186   6.673
13272TIP3    H139693   3.610   3.174   6.592
13272TIP3    H239694   3.608   3.253   6.721
13273TIP3   OH239695   2.618   1.561   7.981
13273TIP3    H139696   2.570   1.559   8.066
13273TIP3    H239697   2.551   1.602   7.923
13274TIP3   OH239698   2.658   2.996   8.061
13274TIP3    H139699   2.568   2.962   8.042
13274TIP3    H239700   2.671   2.969   8.153
13275TIP3   OH239701   2.835   3.024   7.608
13275TIP3    H139702   2.789   3.100   7.567
13275TIP3    H239703   2.922   3.035   7.564
13276TIP3   OH239704   3.282   3.269   7.747
13276TIP3    H139705   3.325   3.269   7.835
13276TIP3    H239706   3.349   3.318   7.694
13277TIP3   OH239707   3.461   3.419   7.604
13277TIP3    H139708   3.531   3.369   7.560
13277TIP3    H239709   3.513   3.476   7.664
13278TIP3   OH239710   4.257   1.782   7.703
13278TIP3    H139711   4.165   1.776   7.672
13278TIP3    H239712   4.286   1.689   7.692
13279TIP3   OH239713   2.513   3.281   7.629
13279TIP3    H139714   2.425   3.316   7.605
13279TIP3    H239715   2.520   3.313   7.720
13280TIP3   OH239716   2.750   3.260   7.488
13280TIP3    H139717   2.664   3.272   7.532
13280TIP3    H239718   2.731   3.292   7.398
13281TIP3   OH239719   3.176   3.289   7.286
13281TIP3    H139720   3.107   3.308   7.220
13281TIP3    H239721   3.189   3.376   7.328
13282TIP3   OH239722   3.444   3.227   7.338
13282TIP3    H139723   3.351   3.245   7.317
13282TIP3    H239724   3.489   3.302   7.296
13283TIP3   OH239725   3.648   3.417   7.253
13283TIP3    H139726   3.637   3.503   7.206
13283TIP3    H239727   3.677   3.359   7.180
13284TIP3   OH239728   2.424   3.073   7.378
13284TIP3    H139729   2.452   3.048   7.468
13284TIP3    H239730   2.496   3.030   7.326
13285TIP3   OH239731   2.618   2.947   7.234
13285TIP3    H139732   2.633   2.861   7.281
13285TIP3    H239733   2.709   2.982   7.227
13286TIP3   OH239734   2.885   3.041   7.234
13286TIP3    H139735   2.915   2.949   7.221
13286TIP3    H239736   2.929   3.061   7.319
13287TIP3   OH239737   3.459   1.696   7.319
13287TIP3    H139738   3.416   1.628   7.374
13287TIP3    H239739   3.534   1.647   7.280
13288TIP3   OH239740   3.984   1.573   7.226
13288TIP3    H139741   4.021   1.628   7.153
13288TIP3    H239742   3.890   1.596   7.223
13289TIP3   OH239743   4.079   1.678   6.991
13289TIP3    H139744   4.153   1.627   6.951
13289TIP3    H239745   4.112   1.770   6.977
13290TIP3   OH239746   2.711   1.405   7.337
13290TIP3    H139747   2.619   1.372   7.341
13290TIP3    H239748   2.760   1.320   7.336
13291TIP3   OH239749   2.496   1.274   7.000
13291TIP3    H139750   2.493   1.334   6.926
13291TIP3    H239751   2.461   1.332   7.072
13292TIP3   OH239752   3.149   1.441   7.219
13292TIP3    H139753   3.210   1.490   7.162
13292TIP3    H239754   3.173   1.475   7.307
13293TIP3   OH239755   3.700   1.584   7.205
13293TIP3    H139756   3.698   1.547   7.116
13293TIP3    H239757   3.686   1.503   7.260
13294TIP3   OH239758   3.729   1.506   6.765
13294TIP3    H139759   3.643   1.550   6.779
13294TIP3    H239760   3.715   1.422   6.813
13295TIP3   OH239761   2.213   2.842   6.762
13295TIP3    H139762   2.127   2.810   6.729
13295TIP3    H239763   2.201   2.937   6.753
13296TIP3   OH239764   2.668   1.481   6.725
13296TIP3    H139765   2.690   1.393   6.685
13296TIP3    H239766   2.673   1.461   6.821
13297TIP3   OH239767   3.136   1.612   6.839
13297TIP3    H139768   3.183   1.563   6.907
13297TIP3    H239769   3.150   1.703   6.872
13298TIP3   OH239770   2.985   3.035   6.349
13298TIP3    H139771   3.073   3.058   6.313
13298TIP3    H239772   2.962   2.960   6.289
13299TIP3   OH239773   3.704   3.153   6.441
13299TIP3    H139774   3.695   3.055   6.429
13299TIP3    H239775   3.658   3.186   6.361
13300TIP3   OH239776   2.918   1.685   8.227
13300TIP3    H139777   2.883   1.616   8.287
13300TIP3    H239778   3.012   1.686   8.256
13301TIP3   OH239779   3.166   1.681   8.347
13301TIP3    H139780   3.253   1.656   8.313
13301TIP3    H239781   3.152   1.613   8.416
13302TIP3   OH239782   2.288   2.872   6.406
13302TIP3    H139783   2.287   2.896   6.500
13302TIP3    H239784   2.377   2.831   6.396
13303TIP3   OH239785   3.990   1.743   8.137
13303TIP3    H139786   4.009   1.713   8.229
13303TIP3    H239787   4.079   1.739   8.097
13304TIP3   OH239788   3.930   3.298   7.630
13304TIP3    H139789   3.852   3.265   7.581
13304TIP3    H239790   3.911   3.394   7.631
13305TIP3   OH239791   5.197   2.669   6.396
13305TIP3    H139792   5.169   2.761   6.377
13305TIP3    H239793   5.119   2.620   6.364
13306TIP3   OH239794   5.195   2.669   6.777
13306TIP3    H139795   5.227   2.640   6.865
13306TIP3    H239796   5.153   2.588   6.743
13307TIP3   OH239797   4.495   2.564   7.141
13307TIP3    H139798   4.526   2.497   7.205
13307TIP3    H239799   4.572   2.623   7.138
13308TIP3   OH239800   5.437   2.970   6.458
13308TIP3    H139801   5.425   2.900   6.524
13308TIP3    H239802   5.468   3.045   6.512
13309TIP3   OH239803   4.466   2.974   6.866
13309TIP3    H139804   4.456   2.877   6.870
13309TIP3    H239805   4.563   2.982   6.863
13310TIP3   OH239806   4.173   2.178   6.652
13310TIP3    H139807   4.125   2.262   6.667
13310TIP3    H239808   4.102   2.124   6.615
13311TIP3   OH239809   4.232   2.465   6.822
13311TIP3    H139810   4.281   2.388   6.860
13311TIP3    H239811   4.292   2.494   6.752
13312TIP3   OH239812   5.088   3.434   6.474
13312TIP3    H139813   5.134   3.363   6.425
13312TIP3    H239814   5.078   3.394   6.561
13313TIP3   OH239815   4.995   2.895   6.825
13313TIP3    H139816   5.031   2.818   6.779
13313TIP3    H239817   5.079   2.939   6.848
13314TIP3   OH239818   6.008   2.217   6.823
13314TIP3    H139819   6.035   2.299   6.868
13314TIP3    H239820   6.023   2.241   6.730
13315TIP3   OH239821   5.407   2.398   6.858
13315TIP3    H139822   5.448   2.313   6.879
13315TIP3    H239823   5.376   2.381   6.767
13316TIP3   OH239824   4.743   2.056   6.823
13316TIP3    H139825   4.723   2.129   6.761
13316TIP3    H239826   4.695   1.983   6.779
13317TIP3   OH239827   5.438   2.146   6.446
13317TIP3    H139828   5.511   2.130   6.511
13317TIP3    H239829   5.490   2.183   6.372
13318TIP3   OH239830   4.378   2.259   6.929
13318TIP3    H139831   4.460   2.239   6.977
13318TIP3    H239832   4.391   2.202   6.850
13319TIP3   OH239833   4.819   2.456   6.721
13319TIP3    H139834   4.913   2.430   6.735
13319TIP3    H239835   4.780   2.372   6.690
13320TIP3   OH239836   6.079   2.424   6.992
13320TIP3    H139837   5.995   2.471   6.972
13320TIP3    H239838   6.087   2.444   7.087
13321TIP3   OH239839   4.741   2.039   7.256
13321TIP3    H139840   4.680   2.076   7.190
13321TIP3    H239841   4.690   2.056   7.339
13322TIP3   OH239842   5.089   2.891   6.265
13322TIP3    H139843   5.045   2.869   6.183
13322TIP3    H239844   5.045   2.975   6.289
13323TIP3   OH239845   4.848   2.814   7.053
13323TIP3    H139846   4.784   2.878   7.092
13323TIP3    H239847   4.888   2.866   6.981
13324TIP3   OH239848   5.651   2.147   6.617
13324TIP3    H139849   5.633   2.104   6.701
13324TIP3    H239850   5.702   2.226   6.644
13325TIP3   OH239851   4.611   2.155   7.042
13325TIP3    H139852   4.673   2.227   7.065
13325TIP3    H239853   4.660   2.114   6.967
13326TIP3   OH239854   4.674   3.007   7.150
13326TIP3    H139855   4.648   3.093   7.111
13326TIP3    H239856   4.596   2.991   7.207
13327TIP3   OH239857   4.071   2.698   6.386
13327TIP3    H139858   4.029   2.726   6.303
13327TIP3    H239859   4.101   2.784   6.424
13328TIP3   OH239860   5.510   3.214   6.627
13328TIP3    H139861   5.419   3.206   6.666
13328TIP3    H239862   5.502   3.299   6.580
13329TIP3   OH239863   5.800   2.114   6.987
13329TIP3    H139864   5.712   2.146   6.961
13329TIP3    H239865   5.857   2.147   6.915
13330TIP3   OH239866   5.098   1.759   6.970
13330TIP3    H139867   5.085   1.664   6.988
13330TIP3    H239868   5.020   1.797   7.017
13331TIP3   OH239869   5.213   3.261   6.301
13331TIP3    H139870   5.262   3.179   6.280
13331TIP3    H239871   5.273   3.327   6.259
13332TIP3   OH239872   5.354   3.046   6.206
13332TIP3    H139873   5.314   2.967   6.167
13332TIP3    H239874   5.389   3.011   6.290
13333TIP3   OH239875   5.736   3.129   6.969
13333TIP3    H139876   5.726   3.049   6.912
13333TIP3    H239877   5.721   3.201   6.905
13334TIP3   OH239878   5.026   2.520   6.226
13334TIP3    H139879   4.946   2.572   6.204
13334TIP3    H239880   5.073   2.518   6.140
13335TIP3   OH239881   4.985   2.305   5.944
13335TIP3    H139882   5.053   2.355   5.992
13335TIP3    H239883   5.043   2.242   5.896
13336TIP3   OH239884   5.932   2.765   6.814
13336TIP3    H139885   5.848   2.816   6.820
13336TIP3    H239886   5.960   2.789   6.723
13337TIP3   OH239887   5.374   2.603   6.199
13337TIP3    H139888   5.319   2.628   6.277
13337TIP3    H239889   5.458   2.578   6.243
13338TIP3   OH239890   5.609   2.644   7.108
13338TIP3    H139891   5.608   2.723   7.167
13338TIP3    H239892   5.522   2.652   7.064
13339TIP3   OH239893   4.607   2.602   6.615
13339TIP3    H139894   4.565   2.544   6.547
13339TIP3    H239895   4.684   2.548   6.643
13340TIP3   OH239896   4.738   3.014   6.763
13340TIP3    H139897   4.715   2.970   6.680
13340TIP3    H239898   4.827   2.979   6.781
13341TIP3   OH239899   4.745   2.572   6.969
13341TIP3    H139900   4.777   2.552   6.879
13341TIP3    H239901   4.787   2.658   6.989
13342TIP3   OH239902   5.267   3.213   6.748
13342TIP3    H139903   5.254   3.288   6.807
13342TIP3    H239904   5.254   3.135   6.806
13343TIP3   OH239905   4.879   3.132   7.290
13343TIP3    H139906   4.819   3.192   7.338
13343TIP3    H239907   4.814   3.077   7.243
13344TIP3   OH239908   5.216   2.461   6.024
13344TIP3    H139909   5.274   2.521   6.077
13344TIP3    H239910   5.242   2.485   5.932
13345TIP3   OH239911   4.634   2.688   7.391
13345TIP3    H139912   4.638   2.773   7.439
13345TIP3    H239913   4.539   2.666   7.403
13346TIP3   OH239914   4.958   3.141   6.300
13346TIP3    H139915   5.036   3.196   6.317
13346TIP3    H239916   4.896   3.205   6.261
13347TIP3   OH239917   4.675   3.301   7.381
13347TIP3    H139918   4.640   3.297   7.290
13347TIP3    H239919   4.595   3.277   7.434
13348TIP3   OH239920   5.731   1.702   6.073
13348TIP3    H139921   5.649   1.722   6.123
13348TIP3    H239922   5.744   1.786   6.023
13349TIP3   OH239923   4.473   2.444   6.419
13349TIP3    H139924   4.407   2.489   6.363
13349TIP3    H239925   4.431   2.359   6.434
13350TIP3   OH239926   5.529   3.070   5.620
13350TIP3    H139927   5.537   3.167   5.607
13350TIP3    H239928   5.622   3.041   5.607
13351TIP3   OH239929   4.255   2.828   7.327
13351TIP3    H139930   4.188   2.806   7.258
13351TIP3    H239931   4.291   2.740   7.351
13352TIP3   OH239932   4.107   3.021   6.961
13352TIP3    H139933   4.203   3.019   6.954
13352TIP3    H239934   4.093   3.102   7.012
13353TIP3   OH239935   5.973   3.470   7.017
13353TIP3    H139936   5.973   3.373   7.026
13353TIP3    H239937   5.889   3.492   7.061
13354TIP3   OH239938   5.078   3.258   7.150
13354TIP3    H139939   5.075   3.350   7.184
13354TIP3    H239940   5.006   3.217   7.203
13355TIP3   OH239941   4.839   3.388   6.102
13355TIP3    H139942   4.793   3.369   6.018
13355TIP3    H239943   4.806   3.477   6.125
13356TIP3   OH239944   4.277   3.237   6.485
13356TIP3    H139945   4.325   3.228   6.570
13356TIP3    H239946   4.216   3.161   6.491
13357TIP3   OH239947   5.041   3.288   5.742
13357TIP3    H139948   5.100   3.219   5.706
13357TIP3    H239949   5.075   3.298   5.833
13358TIP3   OH239950   5.090   3.336   6.012
13358TIP3    H139951   5.002   3.346   6.054
13358TIP3    H239952   5.141   3.294   6.084
13359TIP3   OH239953   5.871   2.606   7.277
13359TIP3    H139954   5.778   2.621   7.257
13359TIP3    H239955   5.875   2.509   7.284
13360TIP3   OH239956   4.459   3.011   7.317
13360TIP3    H139957   4.509   2.993   7.399
13360TIP3    H239958   4.385   2.947   7.324
13361TIP3   OH239959   4.858   1.835   7.098
13361TIP3    H139960   4.769   1.804   7.073
13361TIP3    H239961   4.834   1.917   7.145
13362TIP3   OH239962   5.391   1.948   7.292
13362TIP3    H139963   5.459   1.926   7.358
13362TIP3    H239964   5.307   1.931   7.339
13363TIP3   OH239965   5.638   2.384   7.215
13363TIP3    H139966   5.586   2.374   7.298
13363TIP3    H239967   5.609   2.470   7.182
13364TIP3   OH239968   5.291   2.509   5.769
13364TIP3    H139969   5.258   2.483   5.681
13364TIP3    H239970   5.371   2.559   5.744
13365TIP3   OH239971   5.004   1.884   6.071
13365TIP3    H139972   4.971   1.881   6.162
13365TIP3    H239973   4.965   1.801   6.037
13366TIP3   OH239974   4.790   2.349   7.118
13366TIP3    H139975   4.740   2.371   7.200
13366TIP3    H239976   4.774   2.430   7.065
13367TIP3   OH239977   4.674   2.236   6.632
13367TIP3    H139978   4.581   2.210   6.649
13367TIP3    H239979   4.687   2.195   6.543
13368TIP3   OH239980   5.165   2.322   6.359
13368TIP3    H139981   5.111   2.393   6.318
13368TIP3    H239982   5.219   2.292   6.283
13369TIP3   OH239983   5.322   2.351   6.599
13369TIP3    H139984   5.262   2.381   6.528
13369TIP3    H239985   5.354   2.269   6.556
13370TIP3   OH239986   4.609   2.379   7.327
13370TIP3    H139987   4.637   2.441   7.396
13370TIP3    H239988   4.598   2.296   7.378
13371TIP3   OH239989   4.659   1.856   6.036
13371TIP3    H139990   4.651   1.854   6.134
13371TIP3    H239991   4.580   1.908   6.013
13372TIP3   OH239992   4.202   1.902   6.906
13372TIP3    H139993   4.277   1.933   6.961
13372TIP3    H239994   4.246   1.869   6.826
13373TIP3   OH239995   4.176   1.882   6.426
13373TIP3    H139996   4.222   1.921   6.349
13373TIP3    H239997   4.115   1.956   6.448
13374TIP3   OH239998   5.326   2.596   7.023
13374TIP3    H139999   5.363   2.525   6.966
13374TIP3    H240000   5.307   2.546   7.105
13375TIP3   OH240001   5.000   2.059   6.694
13375TIP3    H140002   4.917   2.057   6.746
13375TIP3    H240003   5.068   2.058   6.763
13376TIP3   OH240004   4.436   2.114   6.702
13376TIP3    H140005   4.341   2.121   6.675
13376TIP3    H240006   4.459   2.022   6.679
13377TIP3   OH240007   4.706   2.110   6.390
13377TIP3    H140008   4.800   2.126   6.368
13377TIP3    H240009   4.659   2.133   6.306
13378TIP3   OH240010   5.493   2.134   6.892
13378TIP3    H140011   5.463   2.146   6.985
13378TIP3    H240012   5.425   2.073   6.859
13379TIP3   OH240013   4.545   2.143   6.169
13379TIP3    H140014   4.473   2.100   6.121
13379TIP3    H240015   4.597   2.179   6.094
13380TIP3   OH240016   5.654   3.851   7.155
13380TIP3    H140017   5.635   3.852   7.059
13380TIP3    H240018   5.750   3.877   7.149
13381TIP3   OH240019   4.621   2.934   7.536
13381TIP3    H140020   4.700   2.963   7.585
13381TIP3    H240021   4.556   2.931   7.609
13382TIP3   OH240022   5.084   2.386   6.791
13382TIP3    H140023   5.157   2.346   6.742
13382TIP3    H240024   5.093   2.345   6.879
13383TIP3   OH240025   4.608   1.874   6.668
13383TIP3    H140026   4.574   1.795   6.715
13383TIP3    H240027   4.660   1.836   6.597
13384TIP3   OH240028   5.062   2.284   7.079
13384TIP3    H140029   4.972   2.319   7.094
13384TIP3    H240030   5.118   2.343   7.132
13385TIP3   OH240031   4.798   2.674   6.175
13385TIP3    H140032   4.725   2.609   6.165
13385TIP3    H240033   4.780   2.708   6.267
13386TIP3   OH240034   5.699   2.911   6.806
13386TIP3    H140035   5.723   2.959   6.724
13386TIP3    H240036   5.614   2.869   6.782
13387TIP3   OH240037   5.256   1.987   6.036
13387TIP3    H140038   5.159   1.970   6.045
13387TIP3    H240039   5.265   2.081   6.060
13388TIP3   OH240040   5.201   2.995   7.172
13388TIP3    H140041   5.220   2.966   7.262
13388TIP3    H240042   5.156   3.080   7.185
13389TIP3   OH240043   5.326   2.233   6.140
13389TIP3    H140044   5.422   2.240   6.157
13389TIP3    H240045   5.307   2.313   6.088
13390TIP3   OH240046   4.490   2.695   6.853
13390TIP3    H140047   4.528   2.666   6.767
13390TIP3    H240048   4.529   2.632   6.915
13391TIP3   OH240049   4.942   2.823   5.996
13391TIP3    H140050   4.895   2.910   6.002
13391TIP3    H240051   4.888   2.768   6.056
13392TIP3   OH240052   4.370   2.616   7.465
13392TIP3    H140053   4.391   2.603   7.559
13392TIP3    H240054   4.301   2.549   7.450
13393TIP3   OH240055   5.094   2.728   7.485
13393TIP3    H140056   5.039   2.665   7.436
13393TIP3    H240057   5.184   2.697   7.466
13394TIP3   OH240058   5.358   3.265   7.064
13394TIP3    H140059   5.263   3.248   7.079
13394TIP3    H240060   5.382   3.308   7.149
13395TIP3   OH240061   5.770   2.322   5.976
13395TIP3    H140062   5.706   2.278   5.915
13395TIP3    H240063   5.765   2.412   5.937
13396TIP3   OH240064   5.987   3.183   7.058
13396TIP3    H140065   5.889   3.175   7.050
13396TIP3    H240066   6.012   3.152   6.968
13397TIP3   OH240067   5.463   3.143   5.884
13397TIP3    H140068   5.444   3.073   5.947
13397TIP3    H240069   5.479   3.095   5.801
13398TIP3   OH240070   5.463   2.773   6.724
13398TIP3    H140071   5.370   2.746   6.738
13398TIP3    H240072   5.498   2.693   6.680
13399TIP3   OH240073   4.590   2.999   6.475
13399TIP3    H140074   4.590   3.081   6.422
13399TIP3    H240075   4.495   2.984   6.487
13400TIP3   OH240076   4.153   2.304   6.178
13400TIP3    H140077   4.200   2.388   6.199
13400TIP3    H240078   4.077   2.309   6.240
13401TIP3   OH240079   4.731   2.766   6.421
13401TIP3    H140080   4.695   2.855   6.439
13401TIP3    H240081   4.694   2.715   6.496
13402TIP3   OH240082   4.859   3.344   6.947
13402TIP3    H140083   4.900   3.415   6.894
13402TIP3    H240084   4.936   3.307   6.993
13403TIP3   OH240085   4.511   3.238   6.329
13403TIP3    H140086   4.425   3.246   6.375
13403TIP3    H240087   4.542   3.331   6.331
13404TIP3   OH240088   5.251   2.979   6.903
13404TIP3    H140089   5.241   2.976   7.001
13404TIP3    H240090   5.329   2.923   6.890
13405TIP3   OH240091   5.222   2.869   5.786
13405TIP3    H140092   5.275   2.845   5.866
13405TIP3    H240093   5.133   2.844   5.817
13406TIP3   OH240094   5.495   3.520   6.961
13406TIP3    H140095   5.423   3.454   6.953
13406TIP3    H240096   5.479   3.576   6.882
13407TIP3   OH240097   5.561   3.346   5.606
13407TIP3    H140098   5.601   3.421   5.559
13407TIP3    H240099   5.481   3.391   5.640
13408TIP3   OH240100   4.583   2.121   7.473
13408TIP3    H140101   4.487   2.126   7.489
13408TIP3    H240102   4.612   2.063   7.545
13409TIP3   OH240103   5.382   2.803   6.003
13409TIP3    H140104   5.372   2.738   6.075
13409TIP3    H240105   5.479   2.802   5.991
13410TIP3   OH240106   4.301   3.205   7.103
13410TIP3    H140107   4.352   3.132   7.140
13410TIP3    H240108   4.323   3.277   7.164
13411TIP3   OH240109   4.589   2.851   5.786
13411TIP3    H140110   4.604   2.759   5.757
13411TIP3    H240111   4.570   2.839   5.881
13412TIP3   OH240112   4.535   2.856   6.058
13412TIP3    H140113   4.605   2.829   6.119
13412TIP3    H240114   4.539   2.954   6.065
13413TIP3   OH240115   4.270   2.549   6.262
13413TIP3    H140116   4.204   2.594   6.319
13413TIP3    H240117   4.284   2.619   6.195
13414TIP3   OH240118   5.422   2.183   7.152
13414TIP3    H140119   5.492   2.225   7.204
13414TIP3    H240120   5.403   2.103   7.205
13415TIP3   OH240121   5.300   1.937   6.317
13415TIP3    H140122   5.285   1.962   6.224
13415TIP3    H240123   5.338   2.020   6.354
13416TIP3   OH240124   4.800   3.054   6.007
13416TIP3    H140125   4.713   3.080   6.043
13416TIP3    H240126   4.816   3.126   5.945
13417TIP3   OH240127   4.989   2.116   6.421
13417TIP3    H140128   5.054   2.188   6.404
13417TIP3    H240129   4.993   2.109   6.519
13418TIP3   OH240130   5.265   2.435   7.240
13418TIP3    H140131   5.261   2.457   7.335
13418TIP3    H240132   5.317   2.353   7.243
13419TIP3   OH240133   5.134   1.845   6.524
13419TIP3    H140134   5.128   1.921   6.585
13419TIP3    H240135   5.194   1.881   6.455
13420TIP3   OH240136   4.543   3.128   6.074
13420TIP3    H140137   4.513   3.198   6.012
13420TIP3    H240138   4.527   3.172   6.161
13421TIP3   OH240139   4.644   1.842   6.313
13421TIP3    H140140   4.642   1.932   6.349
13421TIP3    H240141   4.740   1.823   6.322
13422TIP3   OH240142   5.901   2.326   7.207
13422TIP3    H140143   5.804   2.333   7.220
13422TIP3    H240144   5.902   2.291   7.117
13423TIP3   OH240145   5.550   2.530   6.598
13423TIP3    H140146   5.473   2.472   6.611
13423TIP3    H240147   5.621   2.483   6.646
13424TIP3   OH240148   4.260   2.760   6.068
13424TIP3    H140149   4.324   2.832   6.077
13424TIP3    H240150   4.308   2.706   6.001
13425TIP3   OH240151   4.207   2.035   6.201
13425TIP3    H140152   4.206   2.132   6.196
13425TIP3    H240153   4.123   2.012   6.160
13426TIP3   OH240154   5.517   3.487   6.549
13426TIP3    H140155   5.475   3.533   6.473
13426TIP3    H240156   5.611   3.507   6.529
13427TIP3   OH240157   4.594   1.755   7.075
13427TIP3    H140158   4.562   1.721   6.989
13427TIP3    H240159   4.583   1.676   7.133
13428TIP3   OH240160   4.133   2.971   6.456
13428TIP3    H140161   4.062   3.003   6.513
13428TIP3    H240162   4.108   3.012   6.370
13429TIP3   OH240163   4.288   3.511   7.530
13429TIP3    H140164   4.375   3.507   7.574
13429TIP3    H240165   4.265   3.417   7.524
13430TIP3   OH240166   4.778   3.482   7.567
13430TIP3    H140167   4.868   3.449   7.576
13430TIP3    H240168   4.745   3.424   7.496
13431TIP3   OH240169   4.752   3.055   5.700
13431TIP3    H140170   4.696   2.984   5.738
13431TIP3    H240171   4.827   3.002   5.668
13432TIP3   OH240172   5.407   3.386   7.310
13432TIP3    H140173   5.396   3.311   7.373
13432TIP3    H240174   5.492   3.424   7.338
13433TIP3   OH240175   5.189   3.096   5.610
13433TIP3    H140176   5.234   3.033   5.670
13433TIP3    H240177   5.247   3.096   5.531
13434TIP3   OH240178   4.420   2.921   7.727
13434TIP3    H140179   4.436   2.825   7.733
13434TIP3    H240180   4.332   2.923   7.683
13435TIP3   OH240181   4.396   2.573   5.919
13435TIP3    H140182   4.451   2.539   5.992
13435TIP3    H240183   4.464   2.577   5.848
13436TIP3   OH240184   5.027   3.006   7.500
13436TIP3    H140185   4.985   3.017   7.413
13436TIP3    H240186   5.060   2.914   7.496
13437TIP3   OH240187   4.905   2.770   5.726
13437TIP3    H140188   4.908   2.783   5.823
13437TIP3    H240189   4.905   2.672   5.722
13438TIP3   OH240190   5.519   3.014   7.102
13438TIP3    H140191   5.593   3.060   7.059
13438TIP3    H240192   5.446   3.077   7.090
13439TIP3   OH240193   4.540   2.655   7.707
13439TIP3    H140194   4.613   2.594   7.689
13439TIP3    H240195   4.564   2.687   7.796
13440TIP3   OH240196   4.606   2.475   6.143
13440TIP3    H140197   4.578   2.434   6.226
13440TIP3    H240198   4.641   2.399   6.093
13441TIP3   OH240199   4.874   2.540   7.368
13441TIP3    H140200   4.796   2.601   7.372
13441TIP3    H240201   4.923   2.575   7.291
13442TIP3   OH240202   4.705   2.267   5.983
13442TIP3    H140203   4.678   2.271   5.889
13442TIP3    H240204   4.802   2.274   5.976
13443TIP3   OH240205   5.399   2.932   7.504
13443TIP3    H140206   5.479   2.917   7.453
13443TIP3    H240207   5.405   2.850   7.560
13444TIP3   OH240208   5.529   2.601   5.644
13444TIP3    H140209   5.506   2.554   5.562
13444TIP3    H240210   5.496   2.691   5.621
13445TIP3   OH240211   4.978   2.322   7.502
13445TIP3    H140212   4.992   2.245   7.444
13445TIP3    H240213   4.945   2.390   7.440
13446TIP3   OH240214   5.000   2.112   7.302
13446TIP3    H140215   5.026   2.154   7.217
13446TIP3    H240216   4.906   2.091   7.285
13447TIP3   OH240217   5.030   2.649   7.175
13447TIP3    H140218   5.113   2.656   7.126
13447TIP3    H240219   4.974   2.716   7.132
13448TIP3   OH240220   5.652   2.868   7.288
13448TIP3    H140221   5.594   2.922   7.230
13448TIP3    H240222   5.740   2.891   7.251
13449TIP3   OH240223   4.870   2.444   7.727
13449TIP3    H140224   4.803   2.375   7.744
13449TIP3    H240225   4.906   2.413   7.641
13450TIP3   OH240226   5.131   1.877   7.368
13450TIP3    H140227   5.083   1.960   7.348
13450TIP3    H240228   5.060   1.810   7.359
13451TIP3   OH240229   5.253   2.381   7.547
13451TIP3    H140230   5.284   2.417   7.632
13451TIP3    H240231   5.162   2.355   7.567
13452TIP3   OH240232   5.495   2.322   7.432
13452TIP3    H140233   5.413   2.350   7.480
13452TIP3    H240234   5.560   2.330   7.504
13453TIP3   OH240235   5.755   2.283   7.629
13453TIP3    H140236   5.745   2.186   7.631
13453TIP3    H240237   5.685   2.312   7.691
13454TIP3   OH240238   4.714   2.221   7.780
13454TIP3    H140239   4.723   2.131   7.744
13454TIP3    H240240   4.751   2.208   7.870
13455TIP3   OH240241   5.226   1.886   7.625
13455TIP3    H140242   5.294   1.816   7.621
13455TIP3    H240243   5.187   1.879   7.536
13456TIP3   OH240244   5.284   2.097   7.792
13456TIP3    H140245   5.264   2.030   7.723
13456TIP3    H240246   5.212   2.162   7.779
13457TIP3   OH240247   4.512   3.331   5.887
13457TIP3    H140248   4.608   3.328   5.868
13457TIP3    H240249   4.481   3.380   5.808
13458TIP3   OH240250   3.992   2.713   6.103
13458TIP3    H140251   4.087   2.735   6.090
13458TIP3    H240252   3.987   2.624   6.062
13459TIP3   OH240253   3.908   3.325   6.516
13459TIP3    H140254   3.840   3.264   6.481
13459TIP3    H240255   3.951   3.268   6.583
13460TIP3   OH240256   4.044   3.177   6.703
13460TIP3    H140257   4.030   3.105   6.766
13460TIP3    H240258   4.094   3.239   6.759
13461TIP3   OH240259   5.768   3.582   6.503
13461TIP3    H140260   5.805   3.619   6.585
13461TIP3    H240261   5.835   3.608   6.438
13462TIP3   OH240262   5.796   3.599   6.793
13462TIP3    H140263   5.756   3.511   6.781
13462TIP3    H240264   5.881   3.574   6.833
13463TIP3   OH240265   5.845   3.276   7.357
13463TIP3    H140266   5.773   3.279   7.424
13463TIP3    H240267   5.886   3.364   7.367
13464TIP3   OH240268   5.662   2.787   5.979
13464TIP3    H140269   5.731   2.852   5.951
13464TIP3    H240270   5.705   2.748   6.058
13465TIP3   OH240271   5.789   2.653   6.181
13465TIP3    H140272   5.723   2.612   6.241
13465TIP3    H240273   5.854   2.692   6.243
13466TIP3   OH240274   5.843   3.046   6.614
13466TIP3    H140275   5.897   2.982   6.563
13466TIP3    H240276   5.840   3.123   6.553
13467TIP3   OH240277   5.675   3.346   6.809
13467TIP3    H140278   5.601   3.384   6.859
13467TIP3    H240279   5.629   3.297   6.737
13468TIP3   OH240280   5.728   2.562   5.829
13468TIP3    H140281   5.656   2.565   5.762
13468TIP3    H240282   5.702   2.638   5.885
13469TIP3   OH240283   5.600   2.235   5.783
13469TIP3    H140284   5.556   2.275   5.707
13469TIP3    H240285   5.574   2.141   5.773
13470TIP3   OH240286   5.604   2.510   6.329
13470TIP3    H140287   5.611   2.413   6.325
13470TIP3    H240288   5.590   2.525   6.425
13471TIP3   OH240289   4.231   2.584   7.075
13471TIP3    H140290   4.229   2.554   6.982
13471TIP3    H240291   4.328   2.585   7.092
13472TIP3   OH240292   5.896   2.937   7.185
13472TIP3    H140293   5.967   2.869   7.177
13472TIP3    H240294   5.924   3.005   7.122
13473TIP3   OH240295   6.086   2.746   7.200
13473TIP3    H140296   6.008   2.696   7.235
13473TIP3    H240297   6.156   2.679   7.217
13474TIP3   OH240298   5.543   1.969   5.771
13474TIP3    H140299   5.616   1.938   5.827
13474TIP3    H240300   5.468   1.911   5.795
13475TIP3   OH240301   5.600   2.226   6.225
13475TIP3    H140302   5.640   2.137   6.240
13475TIP3    H240303   5.658   2.259   6.155
13476TIP3   OH240304   5.763   2.399   6.718
13476TIP3    H140305   5.849   2.427   6.679
13476TIP3    H240306   5.773   2.438   6.807
13477TIP3   OH240307   5.828   2.543   6.948
13477TIP3    H140308   5.755   2.575   7.004
13477TIP3    H240309   5.860   2.626   6.907
13478TIP3   OH240310   4.448   2.272   7.749
13478TIP3    H140311   4.545   2.265   7.752
13478TIP3    H240312   4.423   2.187   7.791
13479TIP3   OH240313   6.289   2.140   7.508
13479TIP3    H140314   6.342   2.071   7.463
13479TIP3    H240315   6.255   2.192   7.432
13480TIP3   OH240316   5.710   1.976   6.261
13480TIP3    H140317   5.757   1.961   6.346
13480TIP3    H240318   5.648   1.900   6.260
13481TIP3   OH240319   4.409   1.963   7.079
13481TIP3    H140320   4.471   1.888   7.091
13481TIP3    H240321   4.470   2.038   7.075
13482TIP3   OH240322   4.212   2.237   7.154
13482TIP3    H140323   4.262   2.232   7.070
13482TIP3    H240324   4.240   2.322   7.188
13483TIP3   OH240325   6.156   2.276   7.316
13483TIP3    H140326   6.072   2.318   7.347
13483TIP3    H240327   6.119   2.209   7.255
13484TIP3   OH240328   5.792   1.911   5.895
13484TIP3    H140329   5.830   1.840   5.841
13484TIP3    H240330   5.858   1.983   5.886
13485TIP3   OH240331   4.195   1.739   6.654
13485TIP3    H140332   4.102   1.738   6.682
13485TIP3    H240333   4.193   1.798   6.576
13486TIP3   OH240334   5.354   3.444   6.161
13486TIP3    H140335   5.404   3.428   6.079
13486TIP3    H240336   5.411   3.509   6.205
13487TIP3   OH240337   4.415   1.820   7.469
13487TIP3    H140338   4.366   1.815   7.552
13487TIP3    H240339   4.347   1.859   7.410
13488TIP3   OH240340   4.456   3.248   7.549
13488TIP3    H140341   4.365   3.220   7.528
13488TIP3    H240342   4.463   3.225   7.642
13489TIP3   OH240343   4.633   3.279   7.096
13489TIP3    H140344   4.582   3.352   7.057
13489TIP3    H240345   4.718   3.295   7.050
13490TIP3   OH240346   5.080   3.524   7.235
13490TIP3    H140347   5.121   3.522   7.324
13490TIP3    H240348   5.149   3.572   7.184
13491TIP3   OH240349   5.265   3.672   7.092
13491TIP3    H140350   5.309   3.608   7.035
13491TIP3    H240351   5.339   3.727   7.119
13492TIP3   OH240352   6.053   2.039   7.189
13492TIP3    H140353   5.961   2.038   7.158
13492TIP3    H240354   6.079   1.945   7.177
13493TIP3   OH240355   4.312   3.536   7.119
13493TIP3    H140356   4.222   3.562   7.090
13493TIP3    H240357   4.315   3.581   7.205
13494TIP3   OH240358   4.547   3.517   6.975
13494TIP3    H140359   4.461   3.529   7.022
13494TIP3    H240360   4.525   3.550   6.886
13495TIP3   OH240361   4.973   3.546   6.772
13495TIP3    H140362   4.902   3.562   6.707
13495TIP3    H240363   4.982   3.635   6.812
13496TIP3   OH240364   5.240   3.493   6.832
13496TIP3    H140365   5.146   3.502   6.805
13496TIP3    H240366   5.283   3.558   6.775
13497TIP3   OH240367   5.448   3.677   6.739
13497TIP3    H140368   5.434   3.761   6.690
13497TIP3    H240369   5.476   3.616   6.667
13498TIP3   OH240370   4.222   3.331   6.860
13498TIP3    H140371   4.245   3.306   6.952
13498TIP3    H240372   4.295   3.285   6.812
13499TIP3   OH240373   4.415   3.201   6.718
13499TIP3    H140374   4.431   3.117   6.768
13499TIP3    H240375   4.506   3.238   6.714
13500TIP3   OH240376   4.682   3.298   6.720
13500TIP3    H140377   4.712   3.206   6.708
13500TIP3    H240378   4.722   3.318   6.806
13501TIP3   OH240379   5.255   1.953   6.807
13501TIP3    H140380   5.212   1.885   6.862
13501TIP3    H240381   5.329   1.903   6.766
13502TIP3   OH240382   5.781   1.830   6.713
13502TIP3    H140383   5.817   1.885   6.640
13502TIP3    H240384   5.686   1.851   6.710
13503TIP3   OH240385   5.876   1.934   6.478
13503TIP3    H140386   5.950   1.884   6.437
13503TIP3    H240387   5.907   2.026   6.464
13504TIP3   OH240388   4.506   1.662   6.826
13504TIP3    H140389   4.414   1.629   6.828
13504TIP3    H240390   4.555   1.577   6.823
13505TIP3   OH240391   4.290   1.531   6.472
13505TIP3    H140392   4.321   1.590   6.401
13505TIP3    H240393   4.262   1.596   6.540
13506TIP3   OH240394   4.948   1.694   6.707
13506TIP3    H140395   5.007   1.746   6.649
13506TIP3    H240396   4.969   1.732   6.793
13507TIP3   OH240397   5.499   1.841   6.691
13507TIP3    H140398   5.492   1.805   6.602
13507TIP3    H240399   5.484   1.760   6.746
13508TIP3   OH240400   5.526   1.763   6.252
13508TIP3    H140401   5.439   1.806   6.264
13508TIP3    H240402   5.510   1.678   6.300
13509TIP3   OH240403   4.010   3.101   6.254
13509TIP3    H140404   3.925   3.069   6.220
13509TIP3    H240405   3.998   3.196   6.240
13510TIP3   OH240406   4.408   1.691   6.238
13510TIP3    H140407   4.457   1.629   6.181
13510TIP3    H240408   4.481   1.746   6.274
13511TIP3   OH240409   4.922   1.866   6.336
13511TIP3    H140410   4.982   1.819   6.397
13511TIP3    H240411   4.943   1.958   6.361
13512TIP3   OH240412   4.781   3.292   5.836
13512TIP3    H140413   4.869   3.314   5.800
13512TIP3    H240414   4.759   3.217   5.776
13513TIP3   OH240415   5.498   3.409   5.928
13513TIP3    H140416   5.491   3.312   5.916
13513TIP3    H240417   5.454   3.442   5.847
13514TIP3   OH240418   4.713   1.942   7.715
13514TIP3    H140419   4.679   1.873   7.774
13514TIP3    H240420   4.807   1.944   7.743
13515TIP3   OH240421   4.960   1.940   7.836
13515TIP3    H140422   5.047   1.918   7.799
13515TIP3    H240423   4.949   1.870   7.903
13516TIP3   OH240424   4.085   3.129   5.893
13516TIP3    H140425   4.083   3.155   5.986
13516TIP3    H240426   4.174   3.088   5.883
13517TIP3   OH240427   5.783   1.998   7.623
13517TIP3    H140428   5.803   1.971   7.715
13517TIP3    H240429   5.872   1.997   7.582
13518TIP3   OH240430   5.723   3.555   7.121
13518TIP3    H140431   5.648   3.521   7.067
13518TIP3    H240432   5.710   3.650   7.113
13519TIP3   OH240433   6.992   2.925   5.883
13519TIP3    H140434   6.967   3.017   5.865
13519TIP3    H240435   6.914   2.878   5.850
13520TIP3   OH240436   7.001   2.921   6.257
13520TIP3    H140437   7.022   2.897   6.349
13520TIP3    H240438   6.945   2.849   6.228
13521TIP3   OH240439   6.293   2.820   6.626
13521TIP3    H140440   6.326   2.755   6.690
13521TIP3    H240441   6.364   2.886   6.628
13522TIP3   OH240442   7.235   3.227   5.944
13522TIP3    H140443   7.219   3.159   6.011
13522TIP3    H240444   7.262   3.303   5.998
13523TIP3   OH240445   6.258   3.217   6.397
13523TIP3    H140446   6.257   3.121   6.378
13523TIP3    H240447   6.342   3.242   6.356
13524TIP3   OH240448   5.971   2.435   6.139
13524TIP3    H140449   5.923   2.518   6.155
13524TIP3    H240450   5.900   2.380   6.102
13525TIP3   OH240451   6.026   2.721   6.309
13525TIP3    H140452   6.077   2.646   6.346
13525TIP3    H240453   6.088   2.758   6.244
13526TIP3   OH240454   6.883   3.692   5.959
13526TIP3    H140455   6.932   3.619   5.915
13526TIP3    H240456   6.871   3.658   6.048
13527TIP3   OH240457   6.796   3.149   6.313
13527TIP3    H140458   6.832   3.078   6.258
13527TIP3    H240459   6.880   3.194   6.338
13528TIP3   OH240460   7.798   2.473   6.308
13528TIP3    H140461   7.830   2.553   6.355
13528TIP3    H240462   7.828   2.491   6.217
13529TIP3   OH240463   7.199   2.651   6.347
13529TIP3    H140464   7.244   2.567   6.365
13529TIP3    H240465   7.173   2.639   6.254
13530TIP3   OH240466   6.545   2.312   6.307
13530TIP3    H140467   6.518   2.385   6.248
13530TIP3    H240468   6.493   2.238   6.266
13531TIP3   OH240469   7.239   2.403   5.940
13531TIP3    H140470   7.315   2.387   6.000
13531TIP3    H240471   7.285   2.437   5.861
13532TIP3   OH240472   6.174   2.516   6.416
13532TIP3    H140473   6.256   2.495   6.464
13532TIP3    H240474   6.185   2.459   6.337
13533TIP3   OH240475   6.616   2.712   6.203
13533TIP3    H140476   6.708   2.683   6.222
13533TIP3    H240477   6.573   2.629   6.175
13534TIP3   OH240478   7.870   2.674   6.484
13534TIP3    H140479   7.791   2.728   6.464
13534TIP3    H240480   7.900   2.713   6.568
13535TIP3   OH240481   6.537   2.295   6.744
13535TIP3    H140482   6.476   2.333   6.678
13535TIP3    H240483   6.486   2.311   6.826
13536TIP3   OH240484   6.890   3.149   5.750
13536TIP3    H140485   6.840   3.124   5.671
13536TIP3    H240486   6.845   3.233   5.774
13537TIP3   OH240487   6.644   3.071   6.542
13537TIP3    H140488   6.579   3.134   6.580
13537TIP3    H240489   6.678   3.122   6.465
13538TIP3   OH240490   7.451   2.390   6.122
13538TIP3    H140491   7.439   2.389   6.219
13538TIP3    H240492   7.504   2.471   6.112
13539TIP3   OH240493   6.409   2.410   6.527
13539TIP3    H140494   6.469   2.484   6.551
13539TIP3    H240495   6.459   2.370   6.453
13540TIP3   OH240496   6.474   3.261   6.643
13540TIP3    H140497   6.445   3.337   6.588
13540TIP3    H240498   6.392   3.251   6.697
13541TIP3   OH240499   5.867   2.952   5.872
13541TIP3    H140500   5.823   2.984   5.791
13541TIP3    H240501   5.895   3.038   5.913
13542TIP3   OH240502   7.307   3.470   6.112
13542TIP3    H140503   7.218   3.461   6.153
13542TIP3    H240504   7.298   3.556   6.067
13543TIP3   OH240505   7.594   2.363   6.464
13543TIP3    H140506   7.516   2.418   6.451
13543TIP3    H240507   7.659   2.402   6.401
13544TIP3   OH240508   6.896   2.019   6.461
13544TIP3    H140509   6.879   1.924   6.477
13544TIP3    H240510   6.817   2.057   6.504
13545TIP3   OH240511   7.014   3.518   5.792
13545TIP3    H140512   7.062   3.435   5.768
13545TIP3    H240513   7.071   3.583   5.747
13546TIP3   OH240514   7.153   3.302   5.691
13546TIP3    H140515   7.104   3.226   5.658
13546TIP3    H240516   7.188   3.267   5.776
13547TIP3   OH240517   7.532   3.385   6.456
13547TIP3    H140518   7.521   3.307   6.398
13547TIP3    H240519   7.515   3.459   6.394
13548TIP3   OH240520   6.823   2.776   5.714
13548TIP3    H140521   6.742   2.827   5.695
13548TIP3    H240522   6.867   2.775   5.627
13549TIP3   OH240523   6.782   2.561   5.431
13549TIP3    H140524   6.850   2.613   5.478
13549TIP3    H240525   6.839   2.498   5.383
13550TIP3   OH240526   7.726   3.017   6.299
13550TIP3    H140527   7.644   3.072   6.306
13550TIP3    H240528   7.757   3.043   6.210
13551TIP3   OH240529   7.170   2.860   5.685
13551TIP3    H140530   7.115   2.885   5.763
13551TIP3    H240531   7.254   2.836   5.729
13552TIP3   OH240532   7.405   2.900   6.597
13552TIP3    H140533   7.404   2.983   6.647
13552TIP3    H240534   7.319   2.906   6.552
13553TIP3   OH240535   6.403   2.857   6.099
13553TIP3    H140536   6.362   2.800   6.032
13553TIP3    H240537   6.481   2.804   6.127
13554TIP3   OH240538   6.519   3.228   6.269
13554TIP3    H140539   6.504   3.229   6.174
13554TIP3    H240540   6.615   3.223   6.275
13555TIP3   OH240541   6.547   2.827   6.456
13555TIP3    H140542   6.573   2.816   6.362
13555TIP3    H240543   6.582   2.917   6.477
13556TIP3   OH240544   7.067   3.466   6.234
13556TIP3    H140545   7.050   3.546   6.287
13556TIP3    H240546   7.050   3.393   6.296
13557TIP3   OH240547   6.677   3.385   6.782
13557TIP3    H140548   6.617   3.449   6.825
13557TIP3    H240549   6.612   3.333   6.730
13558TIP3   OH240550   7.013   2.715   5.511
13558TIP3    H140551   7.070   2.777   5.563
13558TIP3    H240552   7.038   2.741   5.419
13559TIP3   OH240553   6.430   2.940   6.880
13559TIP3    H140554   6.436   3.027   6.924
13559TIP3    H240555   6.335   2.921   6.892
13560TIP3   OH240556   6.757   3.395   5.782
13560TIP3    H140557   6.830   3.454   5.808
13560TIP3    H240558   6.690   3.456   5.749
13561TIP3   OH240559   6.473   3.557   6.867
13561TIP3    H140560   6.441   3.556   6.774
13561TIP3    H240561   6.392   3.534   6.917
13562TIP3   OH240562   7.528   1.960   5.559
13562TIP3    H140563   7.446   1.980   5.609
13562TIP3    H240564   7.540   2.043   5.509
13563TIP3   OH240565   6.271   2.697   5.902
13563TIP3    H140566   6.205   2.747   5.849
13563TIP3    H240567   6.222   2.617   5.922
13564TIP3   OH240568   7.325   3.326   5.106
13564TIP3    H140569   7.333   3.424   5.094
13564TIP3    H240570   7.418   3.298   5.094
13565TIP3   OH240571   6.050   3.083   6.815
13565TIP3    H140572   5.986   3.063   6.744
13565TIP3    H240573   6.087   2.995   6.837
13566TIP3   OH240574   5.908   3.274   6.451
13566TIP3    H140575   6.003   3.266   6.433
13566TIP3    H240576   5.905   3.357   6.501
13567TIP3   OH240577   7.768   3.728   6.500
13567TIP3    H140578   7.767   3.631   6.514
13567TIP3    H240579   7.685   3.752   6.547
13568TIP3   OH240580   6.880   3.512   6.641
13568TIP3    H140581   6.876   3.605   6.672
13568TIP3    H240582   6.803   3.474   6.689
13569TIP3   OH240583   6.637   3.648   5.586
13569TIP3    H140584   6.585   3.627   5.507
13569TIP3    H240585   6.601   3.734   5.614
13570TIP3   OH240586   6.837   3.546   5.229
13570TIP3    H140587   6.896   3.475   5.194
13570TIP3    H240588   6.870   3.554   5.321
13571TIP3   OH240589   6.887   3.592   5.498
13571TIP3    H140590   6.798   3.604   5.539
13571TIP3    H240591   6.935   3.549   5.571
13572TIP3   OH240592   7.659   2.860   6.777
13572TIP3    H140593   7.578   2.873   6.726
13572TIP3    H240594   7.674   2.763   6.769
13573TIP3   OH240595   6.255   3.268   6.807
13573TIP3    H140596   6.306   3.247   6.888
13573TIP3    H240597   6.181   3.205   6.811
13574TIP3   OH240598   6.656   2.094   6.582
13574TIP3    H140599   6.566   2.061   6.559
13574TIP3    H240600   6.629   2.174   6.632
13575TIP3   OH240601   7.187   2.204   6.780
13575TIP3    H140602   7.255   2.180   6.846
13575TIP3    H240603   7.103   2.186   6.828
13576TIP3   OH240604   7.425   2.634   6.695
13576TIP3    H140605   7.380   2.631   6.782
13576TIP3    H240606   7.404   2.724   6.664
13577TIP3   OH240607   7.088   2.766   5.255
13577TIP3    H140608   7.054   2.739   5.168
13577TIP3    H240609   7.167   2.816   5.231
13578TIP3   OH240610   6.802   2.138   5.556
13578TIP3    H140611   6.764   2.137   5.646
13578TIP3    H240612   6.761   2.057   5.520
13579TIP3   OH240613   6.589   2.605   6.605
13579TIP3    H140614   6.537   2.625   6.685
13579TIP3    H240615   6.573   2.686   6.552
13580TIP3   OH240616   6.471   2.491   6.118
13580TIP3    H140617   6.378   2.469   6.136
13580TIP3    H240618   6.481   2.452   6.028
13581TIP3   OH240619   6.959   2.576   5.845
13581TIP3    H140620   6.907   2.649   5.805
13581TIP3    H240621   7.014   2.549   5.769
13582TIP3   OH240622   7.135   2.857   6.932
13582TIP3    H140623   7.112   2.785   6.995
13582TIP3    H240624   7.228   2.872   6.955
13583TIP3   OH240625   7.117   2.606   6.089
13583TIP3    H140626   7.059   2.643   6.019
13583TIP3    H240627   7.148   2.527   6.040
13584TIP3   OH240628   6.409   2.634   6.813
13584TIP3    H140629   6.424   2.701   6.882
13584TIP3    H240630   6.393   2.554   6.866
13585TIP3   OH240631   6.457   2.114   5.524
13585TIP3    H140632   6.444   2.110   5.621
13585TIP3    H240633   6.378   2.164   5.497
13586TIP3   OH240634   5.997   2.159   6.393
13586TIP3    H140635   6.074   2.189   6.447
13586TIP3    H240636   6.037   2.125   6.312
13587TIP3   OH240637   5.975   2.140   5.914
13587TIP3    H140638   6.018   2.180   5.835
13587TIP3    H240639   5.912   2.212   5.935
13588TIP3   OH240640   7.128   2.854   6.510
13588TIP3    H140641   7.161   2.782   6.452
13588TIP3    H240642   7.099   2.803   6.588
13589TIP3   OH240643   6.800   2.305   6.195
13589TIP3    H140644   6.707   2.296   6.223
13589TIP3    H240645   6.833   2.359   6.268
13590TIP3   OH240646   6.232   2.371   6.188
13590TIP3    H140647   6.137   2.382   6.163
13590TIP3    H240648   6.250   2.278   6.166
13591TIP3   OH240649   6.505   2.368   5.874
13591TIP3    H140650   6.595   2.386   5.842
13591TIP3    H240651   6.450   2.389   5.795
13592TIP3   OH240652   7.284   2.380   6.373
13592TIP3    H140653   7.266   2.397   6.468
13592TIP3    H240654   7.207   2.326   6.350
13593TIP3   OH240655   6.344   2.397   5.658
13593TIP3    H140656   6.269   2.355   5.613
13593TIP3    H240657   6.393   2.433   5.582
13594TIP3   OH240658   7.458   4.080   6.600
13594TIP3    H140659   7.457   4.101   6.505
13594TIP3    H240660   7.538   4.127   6.630
13595TIP3   OH240661   6.417   3.187   7.023
13595TIP3    H140662   6.496   3.220   7.071
13595TIP3    H240663   6.352   3.185   7.096
13596TIP3   OH240664   6.877   2.629   6.274
13596TIP3    H140665   6.963   2.611   6.233
13596TIP3    H240666   6.892   2.605   6.368
13597TIP3   OH240667   6.411   2.127   6.157
13597TIP3    H140668   6.370   2.051   6.203
13597TIP3    H240669   6.443   2.087   6.076
13598TIP3   OH240670   6.859   2.540   6.564
13598TIP3    H140671   6.769   2.574   6.579
13598TIP3    H240672   6.914   2.599   6.618
13599TIP3   OH240673   6.597   2.929   5.664
13599TIP3    H140674   6.523   2.865   5.652
13599TIP3    H240675   6.578   2.964   5.754
13600TIP3   OH240676   7.495   3.167   6.293
13600TIP3    H140677   7.519   3.216   6.211
13600TIP3    H240678   7.409   3.126   6.268
13601TIP3   OH240679   7.054   2.240   5.529
13601TIP3    H140680   6.957   2.225   5.531
13601TIP3    H240681   7.062   2.336   5.547
13602TIP3   OH240682   7.000   3.252   6.659
13602TIP3    H140683   7.010   3.226   6.751
13602TIP3    H240684   6.954   3.338   6.665
13603TIP3   OH240685   7.123   2.490   5.630
13603TIP3    H140686   7.219   2.498   5.642
13603TIP3    H240687   7.102   2.569   5.575
13604TIP3   OH240688   6.279   2.941   6.337
13604TIP3    H140689   6.324   2.921   6.253
13604TIP3    H240690   6.325   2.883   6.399
13605TIP3   OH240691   6.738   3.080   5.482
13605TIP3    H140692   6.691   3.166   5.489
13605TIP3    H240693   6.684   3.025   5.543
13606TIP3   OH240694   6.168   2.869   6.950
13606TIP3    H140695   6.182   2.856   7.046
13606TIP3    H240696   6.095   2.806   6.933
13607TIP3   OH240697   6.891   2.986   6.972
13607TIP3    H140698   6.830   2.927   6.925
13607TIP3    H240699   6.978   2.952   6.942
13608TIP3   OH240700   7.156   3.511   6.554
13608TIP3    H140701   7.060   3.505   6.568
13608TIP3    H240702   7.182   3.562   6.634
13609TIP3   OH240703   7.564   2.579   5.464
13609TIP3    H140704   7.502   2.535   5.402
13609TIP3    H240705   7.561   2.669   5.424
13610TIP3   OH240706   7.782   3.438   6.545
13610TIP3    H140707   7.684   3.432   6.537
13610TIP3    H240708   7.808   3.408   6.455
13611TIP3   OH240709   7.266   3.399   5.372
13611TIP3    H140710   7.237   3.331   5.435
13611TIP3    H240711   7.275   3.350   5.289
13612TIP3   OH240712   7.261   3.029   6.212
13612TIP3    H140713   7.167   3.003   6.225
13612TIP3    H240714   7.295   2.950   6.165
13613TIP3   OH240715   6.386   3.250   5.958
13613TIP3    H140716   6.385   3.337   5.914
13613TIP3    H240717   6.296   3.248   5.994
13614TIP3   OH240718   5.951   2.561   5.667
13614TIP3    H140719   5.995   2.646   5.687
13614TIP3    H240720   5.873   2.566   5.727
13615TIP3   OH240721   6.529   3.021   5.908
13615TIP3    H140722   6.489   3.109   5.922
13615TIP3    H240723   6.492   2.973   5.984
13616TIP3   OH240724   6.663   3.598   6.456
13616TIP3    H140725   6.687   3.660   6.386
13616TIP3    H240726   6.749   3.569   6.490
13617TIP3   OH240727   6.303   3.496   5.814
13617TIP3    H140728   6.252   3.506   5.898
13617TIP3    H240729   6.331   3.589   5.804
13618TIP3   OH240730   7.048   3.233   6.391
13618TIP3    H140731   7.037   3.234   6.489
13618TIP3    H240732   7.129   3.181   6.381
13619TIP3   OH240733   7.018   3.127   5.273
13619TIP3    H140734   7.071   3.101   5.352
13619TIP3    H240735   6.929   3.101   5.302
13620TIP3   OH240736   7.293   3.769   6.443
13620TIP3    H140737   7.215   3.711   6.436
13620TIP3    H240738   7.277   3.832   6.370
13621TIP3   OH240739   7.359   3.602   5.094
13621TIP3    H140740   7.396   3.675   5.042
13621TIP3    H240741   7.278   3.647   5.127
13622TIP3   OH240742   6.378   2.377   6.960
13622TIP3    H140743   6.282   2.385   6.975
13622TIP3    H240744   6.404   2.317   7.032
13623TIP3   OH240745   7.178   3.058   5.487
13623TIP3    H140746   7.168   2.994   5.561
13623TIP3    H240747   7.276   3.058   5.478
13624TIP3   OH240748   6.091   3.464   6.595
13624TIP3    H140749   6.147   3.387   6.608
13624TIP3    H240750   6.133   3.529   6.652
13625TIP3   OH240751   6.386   3.107   5.272
13625TIP3    H140752   6.399   3.014   5.245
13625TIP3    H240753   6.369   3.097   5.368
13626TIP3   OH240754   6.333   3.113   5.543
13626TIP3    H140755   6.394   3.086   5.613
13626TIP3    H240756   6.335   3.211   5.552
13627TIP3   OH240757   6.068   2.808   5.750
13627TIP3    H140758   6.001   2.851   5.807
13627TIP3    H240759   6.079   2.878   5.682
13628TIP3   OH240760   7.225   2.432   6.630
13628TIP3    H140761   7.292   2.483   6.679
13628TIP3    H240762   7.206   2.358   6.692
13629TIP3   OH240763   7.090   2.195   5.807
13629TIP3    H140764   7.075   2.212   5.712
13629TIP3    H240765   7.130   2.279   5.836
13630TIP3   OH240766   6.597   3.311   5.493
13630TIP3    H140767   6.510   3.335   5.531
13630TIP3    H240768   6.611   3.387   5.434
13631TIP3   OH240769   6.801   2.362   5.915
13631TIP3    H140770   6.856   2.439   5.887
13631TIP3    H240771   6.788   2.381   6.009
13632TIP3   OH240772   7.056   2.692   6.717
13632TIP3    H140773   7.067   2.753   6.793
13632TIP3    H240774   7.112   2.617   6.745
13633TIP3   OH240775   6.954   2.126   6.037
13633TIP3    H140776   6.898   2.205   6.053
13633TIP3    H240777   7.000   2.153   5.954
13634TIP3   OH240778   6.339   3.386   5.561
13634TIP3    H140779   6.308   3.456   5.501
13634TIP3    H240780   6.318   3.425   5.649
13635TIP3   OH240781   6.438   2.098   5.802
13635TIP3    H140782   6.435   2.189   5.834
13635TIP3    H240783   6.535   2.081   5.806
13636TIP3   OH240784   7.693   2.593   6.703
13636TIP3    H140785   7.595   2.588   6.702
13636TIP3    H240786   7.715   2.568   6.612
13637TIP3   OH240787   7.345   2.787   6.083
13637TIP3    H140788   7.269   2.729   6.099
13637TIP3    H240789   7.418   2.742   6.132
13638TIP3   OH240790   6.056   3.015   5.555
13638TIP3    H140791   6.117   3.090   5.567
13638TIP3    H240792   6.106   2.965   5.487
13639TIP3   OH240793   6.004   2.291   5.687
13639TIP3    H140794   6.000   2.389   5.684
13639TIP3    H240795   5.920   2.267   5.646
13640TIP3   OH240796   7.313   3.743   6.035
13640TIP3    H140797   7.270   3.789   5.960
13640TIP3    H240798   7.407   3.761   6.014
13641TIP3   OH240799   6.394   2.010   6.560
13641TIP3    H140800   6.358   1.978   6.475
13641TIP3    H240801   6.381   1.933   6.619
13642TIP3   OH240802   5.922   3.209   5.946
13642TIP3    H140803   5.875   3.265   6.009
13642TIP3    H240804   5.922   3.265   5.867
13643TIP3   OH240805   6.081   3.764   7.028
13643TIP3    H140806   6.173   3.764   7.063
13643TIP3    H240807   6.066   3.670   7.012
13644TIP3   OH240808   6.567   3.736   7.060
13644TIP3    H140809   6.662   3.714   7.063
13644TIP3    H240810   6.538   3.680   6.985
13645TIP3   OH240811   6.548   3.311   5.185
13645TIP3    H140812   6.490   3.242   5.225
13645TIP3    H240813   6.623   3.255   5.159
13646TIP3   OH240814   7.207   3.643   6.791
13646TIP3    H140815   7.197   3.572   6.859
13646TIP3    H240816   7.284   3.692   6.824
13647TIP3   OH240817   6.985   3.353   5.097
13647TIP3    H140818   7.028   3.288   5.157
13647TIP3    H240819   7.043   3.352   5.019
13648TIP3   OH240820   6.216   3.179   7.215
13648TIP3    H140821   6.233   3.083   7.218
13648TIP3    H240822   6.128   3.180   7.170
13649TIP3   OH240823   6.194   2.830   5.405
13649TIP3    H140824   6.246   2.796   5.479
13649TIP3    H240825   6.263   2.833   5.335
13650TIP3   OH240826   6.824   3.263   6.987
13650TIP3    H140827   6.779   3.280   6.902
13650TIP3    H240828   6.852   3.169   6.979
13651TIP3   OH240829   6.702   3.029   5.212
13651TIP3    H140830   6.703   3.041   5.310
13651TIP3    H240831   6.701   2.931   5.207
13652TIP3   OH240832   7.317   3.267   6.593
13652TIP3    H140833   7.389   3.316   6.549
13652TIP3    H240834   7.243   3.330   6.583
13653TIP3   OH240835   6.337   2.917   7.194
13653TIP3    H140836   6.404   2.850   7.177
13653TIP3    H240837   6.361   2.946   7.285
13654TIP3   OH240838   6.404   2.732   5.631
13654TIP3    H140839   6.372   2.692   5.713
13654TIP3    H240840   6.436   2.654   5.581
13655TIP3   OH240841   6.673   2.799   6.859
13655TIP3    H140842   6.592   2.854   6.861
13655TIP3    H240843   6.718   2.832   6.778
13656TIP3   OH240844   6.501   2.523   5.470
13656TIP3    H140845   6.473   2.526   5.377
13656TIP3    H240846   6.598   2.531   5.462
13657TIP3   OH240847   7.187   3.198   6.993
13657TIP3    H140848   7.267   3.175   6.944
13657TIP3    H240849   7.184   3.131   7.063
13658TIP3   OH240850   7.325   2.857   5.131
13658TIP3    H140851   7.302   2.810   5.049
13658TIP3    H240852   7.292   2.947   5.107
13659TIP3   OH240853   6.796   2.585   6.983
13659TIP3    H140854   6.791   2.504   6.928
13659TIP3    H240855   6.750   2.651   6.926
13660TIP3   OH240856   6.796   2.369   6.789
13660TIP3    H140857   6.820   2.412   6.705
13660TIP3    H240858   6.701   2.347   6.773
13661TIP3   OH240859   6.826   2.907   6.661
13661TIP3    H140860   6.907   2.922   6.610
13661TIP3    H240861   6.766   2.973   6.621
13662TIP3   OH240862   7.406   2.872   7.045
13662TIP3    H140863   7.456   2.791   7.059
13662TIP3    H240864   7.474   2.932   7.011
13663TIP3   OH240865   7.447   3.125   6.781
13663TIP3    H140866   7.389   3.178   6.722
13663TIP3    H240867   7.535   3.146   6.741
13664TIP3   OH240868   6.674   2.696   7.215
13664TIP3    H140869   6.603   2.630   7.229
13664TIP3    H240870   6.706   2.672   7.126
13665TIP3   OH240871   6.927   2.132   6.853
13665TIP3    H140872   6.878   2.215   6.834
13665TIP3    H240873   6.856   2.065   6.846
13666TIP3   OH240874   7.055   2.639   7.073
13666TIP3    H140875   7.043   2.627   7.169
13666TIP3    H240876   6.965   2.615   7.043
13667TIP3   OH240877   7.291   2.583   6.925
13667TIP3    H140878   7.217   2.589   6.989
13667TIP3    H240879   7.365   2.555   6.983
13668TIP3   OH240880   7.520   2.528   7.079
13668TIP3    H140881   7.534   2.433   7.098
13668TIP3    H240882   7.517   2.568   7.168
13669TIP3   OH240883   6.513   2.476   7.265
13669TIP3    H140884   6.516   2.385   7.231
13669TIP3    H240885   6.546   2.464   7.356
13670TIP3   OH240886   7.024   2.145   7.111
13670TIP3    H140887   7.091   2.074   7.108
13670TIP3    H240888   6.983   2.136   7.024
13671TIP3   OH240889   7.089   2.360   7.273
13671TIP3    H140890   7.066   2.289   7.209
13671TIP3    H240891   7.011   2.419   7.268
13672TIP3   OH240892   6.308   3.590   5.372
13672TIP3    H140893   6.404   3.585   5.354
13672TIP3    H240894   6.278   3.637   5.292
13673TIP3   OH240895   5.787   2.970   5.586
13673TIP3    H140896   5.882   2.991   5.577
13673TIP3    H240897   5.783   2.880   5.547
13674TIP3   OH240898   5.703   3.582   6.002
13674TIP3    H140899   5.636   3.519   5.969
13674TIP3    H240900   5.747   3.527   6.071
13675TIP3   OH240901   5.832   3.437   6.193
13675TIP3    H140902   5.830   3.361   6.254
13675TIP3    H240903   5.897   3.494   6.238
13676TIP3   OH240904   7.566   3.835   5.990
13676TIP3    H140905   7.593   3.866   6.078
13676TIP3    H240906   7.629   3.879   5.931
13677TIP3   OH240907   7.597   3.854   6.272
13677TIP3    H140908   7.551   3.767   6.267
13677TIP3    H240909   7.671   3.830   6.330
13678TIP3   OH240910   7.642   3.531   6.845
13678TIP3    H140911   7.569   3.539   6.909
13678TIP3    H240912   7.683   3.619   6.850
13679TIP3   OH240913   7.459   3.044   5.465
13679TIP3    H140914   7.527   3.108   5.438
13679TIP3    H240915   7.501   3.004   5.545
13680TIP3   OH240916   7.586   2.911   5.668
13680TIP3    H140917   7.520   2.870   5.728
13680TIP3    H240918   7.651   2.949   5.731
13681TIP3   OH240919   7.639   3.302   6.101
13681TIP3    H140920   7.693   3.238   6.052
13681TIP3    H240921   7.630   3.376   6.038
13682TIP3   OH240922   7.472   3.604   6.296
13682TIP3    H140923   7.400   3.645   6.348
13682TIP3    H240924   7.422   3.556   6.227
13683TIP3   OH240925   7.524   2.818   5.316
13683TIP3    H140926   7.453   2.821   5.249
13683TIP3    H240927   7.497   2.894   5.372
13684TIP3   OH240928   7.396   2.492   5.271
13684TIP3    H140929   7.352   2.531   5.194
13684TIP3    H240930   7.370   2.398   5.261
13685TIP3   OH240931   7.400   2.768   5.815
13685TIP3    H140932   7.409   2.671   5.809
13685TIP3    H240933   7.387   2.783   5.911
13686TIP3   OH240934   6.027   2.839   6.563
13686TIP3    H140935   6.024   2.812   6.469
13686TIP3    H240936   6.125   2.842   6.577
13687TIP3   OH240937   7.689   3.192   6.672
13687TIP3    H140938   7.762   3.127   6.664
13687TIP3    H240939   7.717   3.261   6.610
13688TIP3   OH240940   7.875   2.999   6.692
13688TIP3    H140941   7.801   2.947   6.731
13688TIP3    H240942   7.948   2.934   6.704
13689TIP3   OH240943   7.338   2.227   5.258
13689TIP3    H140944   7.412   2.194   5.312
13689TIP3    H240945   7.265   2.167   5.280
13690TIP3   OH240946   7.397   2.483   5.714
13690TIP3    H140947   7.438   2.394   5.727
13690TIP3    H240948   7.454   2.517   5.643
13691TIP3   OH240949   7.556   2.658   6.205
13691TIP3    H140950   7.642   2.683   6.164
13691TIP3    H240951   7.571   2.696   6.294
13692TIP3   OH240952   7.623   2.801   6.438
13692TIP3    H140953   7.547   2.837   6.486
13692TIP3    H240954   7.657   2.881   6.392
13693TIP3   OH240955   6.246   2.529   7.237
13693TIP3    H140956   6.343   2.519   7.240
13693TIP3    H240957   6.218   2.445   7.278
13694TIP3   OH240958   8.077   2.390   6.995
13694TIP3    H140959   8.137   2.325   6.953
13694TIP3    H240960   8.051   2.447   6.919
13695TIP3   OH240961   7.505   2.233   5.751
13695TIP3    H140962   7.557   2.214   5.832
13695TIP3    H240963   7.446   2.155   5.748
13696TIP3   OH240964   6.207   2.218   6.563
13696TIP3    H140965   6.270   2.144   6.577
13696TIP3    H240966   6.267   2.294   6.562
13697TIP3   OH240967   6.010   2.492   6.642
13697TIP3    H140968   6.058   2.490   6.557
13697TIP3    H240969   6.033   2.580   6.674
13698TIP3   OH240970   7.950   2.533   6.802
13698TIP3    H140971   7.862   2.571   6.822
13698TIP3    H240972   7.923   2.461   6.741
13699TIP3   OH240973   7.587   2.168   5.381
13699TIP3    H140974   7.626   2.096   5.328
13699TIP3    H240975   7.654   2.239   5.373
13700TIP3   OH240976   5.992   1.999   6.143
13700TIP3    H140977   5.898   1.994   6.169
13700TIP3    H240978   5.988   2.056   6.064
13701TIP3   OH240979   7.151   3.700   5.647
13701TIP3    H140980   7.202   3.686   5.565
13701TIP3    H240981   7.205   3.767   5.693
13702TIP3   OH240982   6.212   2.075   6.955
13702TIP3    H140983   6.163   2.071   7.039
13702TIP3    H240984   6.144   2.116   6.897
13703TIP3   OH240985   6.251   3.507   7.035
13703TIP3    H140986   6.162   3.474   7.013
13703TIP3    H240987   6.258   3.483   7.128
13704TIP3   OH240988   6.427   3.538   6.585
13704TIP3    H140989   6.380   3.611   6.540
13704TIP3    H240990   6.514   3.548   6.540
13705TIP3   OH240991   6.878   3.779   6.720
13705TIP3    H140992   6.918   3.783   6.809
13705TIP3    H240993   6.942   3.831   6.667
13706TIP3   OH240994   7.054   3.933   6.577
13706TIP3    H140995   7.124   3.880   6.536
13706TIP3    H240996   7.107   3.989   6.638
13707TIP3   OH240997   7.848   2.294   6.678
13707TIP3    H140998   7.757   2.285   6.648
13707TIP3    H240999   7.881   2.202   6.666
13708TIP3   OH241000   6.107   3.795   6.606
13708TIP3    H141001   6.017   3.825   6.581
13708TIP3    H241002   6.119   3.844   6.689
13709TIP3   OH241003   6.345   3.778   6.464
13709TIP3    H141004   6.258   3.789   6.509
13709TIP3    H241005   6.323   3.797   6.371
13710TIP3   OH241006   6.774   3.806   6.252
13710TIP3    H141007   6.696   3.823   6.195
13710TIP3    H241008   6.781   3.891   6.300
13711TIP3   OH241009   7.037   3.742   6.311
13711TIP3    H141010   6.942   3.756   6.291
13711TIP3    H241011   7.078   3.819   6.268
13712TIP3   OH241012   7.249   3.935   6.227
13712TIP3    H141013   7.232   4.018   6.178
13712TIP3    H241014   7.271   3.873   6.155
13713TIP3   OH241015   6.018   3.583   6.347
13713TIP3    H141016   6.057   3.551   6.430
13713TIP3    H241017   6.090   3.566   6.282
13714TIP3   OH241018   7.090   2.155   6.278
13714TIP3    H141019   7.030   2.134   6.352
13714TIP3    H241020   7.026   2.163   6.204
13715TIP3   OH241021   7.573   2.099   6.197
13715TIP3    H141022   7.643   2.123   6.133
13715TIP3    H241023   7.517   2.177   6.184
13716TIP3   OH241024   7.677   2.189   5.965
13716TIP3    H141025   7.749   2.139   5.921
13716TIP3    H241026   7.710   2.281   5.950
13717TIP3   OH241027   6.302   1.919   6.312
13717TIP3    H141028   6.209   1.887   6.314
13717TIP3    H241029   6.350   1.833   6.309
13718TIP3   OH241030   6.091   1.788   5.961
13718TIP3    H141031   6.117   1.846   5.887
13718TIP3    H241032   6.058   1.852   6.027
13719TIP3   OH241033   6.749   1.950   6.192
13719TIP3    H141034   6.809   2.010   6.148
13719TIP3    H241035   6.745   1.986   6.281
13720TIP3   OH241036   7.323   2.019   5.740
13720TIP3    H141037   7.234   2.058   5.744
13720TIP3    H241038   7.309   1.934   5.787
13721TIP3   OH241039   5.812   3.359   5.732
13721TIP3    H141040   5.726   3.324   5.705
13721TIP3    H241041   5.794   3.454   5.729
13722TIP3   OH241042   6.203   1.947   5.725
13722TIP3    H141043   6.252   1.885   5.667
13722TIP3    H241044   6.276   2.001   5.761
13723TIP3   OH241045   6.715   2.122   5.819
13723TIP3    H141046   6.762   2.064   5.879
13723TIP3    H241047   6.745   2.211   5.849
13724TIP3   OH241048   6.576   3.548   5.320
13724TIP3    H141049   6.665   3.570   5.286
13724TIP3    H241050   6.554   3.473   5.261
13725TIP3   OH241051   7.297   3.666   5.415
13725TIP3    H141052   7.289   3.568   5.403
13725TIP3    H241053   7.251   3.698   5.335
13726TIP3   OH241054   6.510   2.201   7.203
13726TIP3    H141055   6.473   2.132   7.260
13726TIP3    H241056   6.604   2.200   7.232
13727TIP3   OH241057   6.759   2.197   7.324
13727TIP3    H141058   6.844   2.168   7.287
13727TIP3    H241059   6.744   2.127   7.391
13728TIP3   OH241060   5.882   3.390   5.382
13728TIP3    H141061   5.875   3.407   5.477
13728TIP3    H241062   5.970   3.347   5.374
13729TIP3   OH241063   7.583   2.257   7.111
13729TIP3    H141064   7.602   2.226   7.202
13729TIP3    H241065   7.671   2.253   7.069
13730TIP3   OH241066   7.523   3.811   6.604
13730TIP3    H141067   7.444   3.778   6.555
13730TIP3    H241068   7.502   3.906   6.607
13731TIP3   OH241069   8.788   3.180   5.369
13731TIP3    H141070   8.764   3.273   5.354
13731TIP3    H241071   8.707   3.136   5.337
13732TIP3   OH241072   8.790   3.180   5.750
13732TIP3    H141073   8.820   3.157   5.840
13732TIP3    H241074   8.743   3.099   5.724
13733TIP3   OH241075   8.086   3.078   6.117
13733TIP3    H141076   8.115   3.008   6.180
13733TIP3    H241077   8.167   3.130   6.110
13734TIP3   OH241078   9.032   3.482   5.432
13734TIP3    H141079   9.017   3.415   5.500
13734TIP3    H241080   9.057   3.559   5.485
13735TIP3   OH241081   8.057   3.487   5.840
13735TIP3    H141082   8.047   3.389   5.843
13735TIP3    H241083   8.154   3.495   5.839
13736TIP3   OH241084   7.765   2.690   5.626
13736TIP3    H141085   7.718   2.774   5.641
13736TIP3    H241086   7.693   2.637   5.587
13737TIP3   OH241087   7.824   2.977   5.796
13737TIP3    H141088   7.873   2.901   5.835
13737TIP3    H241089   7.887   3.009   5.730
13738TIP3   OH241090   8.679   3.947   5.447
13738TIP3    H141091   8.726   3.875   5.400
13738TIP3    H241092   8.673   3.912   5.537
13739TIP3   OH241093   8.587   3.409   5.796
13739TIP3    H141094   8.625   3.332   5.751
13739TIP3    H241095   8.671   3.453   5.822
13740TIP3   OH241096   9.530   2.755   5.806
13740TIP3    H141097   9.593   2.805   5.862
13740TIP3    H241098   9.580   2.752   5.723
13741TIP3   OH241099   8.999   2.914   5.837
13741TIP3    H141100   9.037   2.827   5.860
13741TIP3    H241101   8.972   2.900   5.745
13742TIP3   OH241102   8.339   2.567   5.792
13742TIP3    H141103   8.314   2.642   5.735
13742TIP3    H241104   8.287   2.495   5.751
13743TIP3   OH241105   7.969   2.772   5.902
13743TIP3    H141106   8.051   2.752   5.951
13743TIP3    H241107   7.984   2.716   5.823
13744TIP3   OH241108   8.412   2.970   5.692
13744TIP3    H141109   8.504   2.942   5.710
13744TIP3    H241110   8.370   2.885   5.665
13745TIP3   OH241111   9.669   2.937   5.959
13745TIP3    H141112   9.583   2.985   5.961
13745TIP3    H241113   9.711   2.966   6.042
13746TIP3   OH241114   8.320   2.530   6.229
13746TIP3    H141115   8.276   2.588   6.165
13746TIP3    H241116   8.289   2.569   6.313
13747TIP3   OH241117   8.683   3.404   5.239
13747TIP3    H141118   8.638   3.383   5.156
13747TIP3    H241119   8.639   3.488   5.263
13748TIP3   OH241120   8.442   3.330   6.028
13748TIP3    H141121   8.377   3.392   6.067
13748TIP3    H241122   8.482   3.383   5.957
13749TIP3   OH241123   9.235   2.668   5.578
13749TIP3    H141124   9.226   2.613   5.657
13749TIP3    H241125   9.290   2.741   5.611
13750TIP3   OH241126   8.197   2.660   6.011
13750TIP3    H141127   8.255   2.737   6.037
13750TIP3    H241128   8.255   2.620   5.942
13751TIP3   OH241129   8.266   3.521   6.123
13751TIP3    H141130   8.240   3.608   6.086
13751TIP3    H241131   8.188   3.504   6.180
13752TIP3   OH241132   7.664   3.211   5.360
13752TIP3    H141133   7.620   3.239   5.277
13752TIP3    H241134   7.694   3.297   5.397
13753TIP3   OH241135   9.102   3.726   5.597
13753TIP3    H141136   9.013   3.717   5.639
13753TIP3    H241137   9.093   3.813   5.554
13754TIP3   OH241138   9.371   2.616   5.970
13754TIP3    H141139   9.287   2.661   5.956
13754TIP3    H241140   9.429   2.660   5.904
13755TIP3   OH241141   8.685   2.275   5.935
13755TIP3    H141142   8.677   2.182   5.962
13755TIP3    H241143   8.611   2.314   5.988
13756TIP3   OH241144   8.805   3.774   5.275
13756TIP3    H141145   8.855   3.692   5.253
13756TIP3    H241146   8.865   3.840   5.233
13757TIP3   OH241147   8.948   3.559   5.180
13757TIP3    H141148   8.908   3.480   5.140
13757TIP3    H241149   8.983   3.523   5.264
13758TIP3   OH241150   9.326   3.641   5.942
13758TIP3    H141151   9.313   3.563   5.884
13758TIP3    H241152   9.308   3.716   5.881
13759TIP3   OH241153   8.614   3.032   5.205
13759TIP3    H141154   8.535   3.085   5.181
13759TIP3    H241155   8.662   3.031   5.120
13760TIP3   OH241156   8.581   2.818   4.914
13760TIP3    H141157   8.646   2.871   4.963
13760TIP3    H241158   8.640   2.751   4.874
13761TIP3   OH241159   9.521   3.275   5.787
13761TIP3    H141160   9.438   3.327   5.794
13761TIP3    H241161   9.550   3.297   5.696
13762TIP3   OH241162   8.966   3.113   5.172
13762TIP3    H141163   8.912   3.141   5.250
13762TIP3    H241164   9.049   3.087   5.216
13763TIP3   OH241165   9.200   3.164   6.078
13763TIP3    H141166   9.199   3.242   6.136
13763TIP3    H241167   9.115   3.173   6.032
13764TIP3   OH241168   8.200   3.115   5.587
13764TIP3    H141169   8.159   3.056   5.520
13764TIP3    H241170   8.276   3.062   5.617
13765TIP3   OH241171   8.330   3.528   5.736
13765TIP3    H141172   8.308   3.481   5.655
13765TIP3    H241173   8.420   3.494   5.756
13766TIP3   OH241174   8.332   3.095   5.938
13766TIP3    H141175   8.370   3.071   5.851
13766TIP3    H241176   8.379   3.177   5.962
13767TIP3   OH241177   8.862   3.722   5.720
13767TIP3    H141178   8.848   3.803   5.773
13767TIP3    H241179   8.846   3.650   5.783
13768TIP3   OH241180   8.473   3.644   6.264
13768TIP3    H141181   8.414   3.706   6.313
13768TIP3    H241182   8.407   3.589   6.217
13769TIP3   OH241183   8.804   2.964   5.006
13769TIP3    H141184   8.869   3.018   5.056
13769TIP3    H241185   8.833   2.984   4.913
13770TIP3   OH241186   8.226   3.207   6.363
13770TIP3    H141187   8.228   3.291   6.413
13770TIP3    H241188   8.133   3.181   6.373
13771TIP3   OH241189   8.551   3.654   5.272
13771TIP3    H141190   8.628   3.709   5.292
13771TIP3    H241191   8.488   3.718   5.236
13772TIP3   OH241192   8.267   3.813   6.354
13772TIP3    H141193   8.232   3.809   6.263
13772TIP3    H241194   8.187   3.790   6.407
13773TIP3   OH241195   9.331   2.254   5.087
13773TIP3    H141196   9.235   2.243   5.093
13773TIP3    H241197   9.342   2.298   5.000
13774TIP3   OH241198   8.067   2.956   5.390
13774TIP3    H141199   7.999   3.001   5.335
13774TIP3    H241200   8.023   2.873   5.409
13775TIP3   OH241201   9.120   3.584   4.592
13775TIP3    H141202   9.128   3.681   4.580
13775TIP3    H241203   9.214   3.557   4.580
13776TIP3   OH241204   7.846   3.343   6.300
13776TIP3    H141205   7.781   3.318   6.231
13776TIP3    H241206   7.884   3.256   6.327
13777TIP3   OH241207   7.700   3.535   5.932
13777TIP3    H141208   7.796   3.527   5.925
13777TIP3    H241209   7.691   3.613   5.988
13778TIP3   OH241210   9.563   3.987   5.985
13778TIP3    H141211   9.563   3.892   6.002
13778TIP3    H241212   9.481   4.013   6.034
13779TIP3   OH241213   8.670   3.773   6.122
13779TIP3    H141214   8.670   3.865   6.156
13779TIP3    H241215   8.599   3.733   6.177
13780TIP3   OH241216   8.431   3.901   5.075
13780TIP3    H141217   8.384   3.882   4.991
13780TIP3    H241218   8.398   3.990   5.098
13781TIP3   OH241219   7.869   3.750   5.459
13781TIP3    H141220   7.917   3.741   5.544
13781TIP3    H241221   7.811   3.673   5.463
13782TIP3   OH241222   8.633   3.802   4.716
13782TIP3    H141223   8.692   3.732   4.680
13782TIP3    H241224   8.667   3.811   4.807
13783TIP3   OH241225   8.683   3.849   4.986
13783TIP3    H141226   8.594   3.859   5.028
13783TIP3    H241227   8.733   3.808   5.058
13784TIP3   OH241228   9.464   3.123   6.253
13784TIP3    H141229   9.376   3.128   6.214
13784TIP3    H241230   9.479   3.026   6.253
13785TIP3   OH241231   8.051   3.526   6.291
13785TIP3    H141232   8.102   3.507   6.373
13785TIP3    H241233   7.978   3.461   6.297
13786TIP3   OH241234   8.452   2.348   6.071
13786TIP3    H141235   8.360   2.324   6.051
13786TIP3    H241236   8.434   2.430   6.123
13787TIP3   OH241237   8.994   2.436   6.256
13787TIP3    H141238   9.055   2.441   6.331
13787TIP3    H241239   8.915   2.483   6.289
13788TIP3   OH241240   9.231   2.900   6.182
13788TIP3    H141241   9.179   2.882   6.263
13788TIP3    H241242   9.194   2.985   6.152
13789TIP3   OH241243   8.878   3.017   4.745
13789TIP3    H141244   8.850   2.994   4.654
13789TIP3    H241245   8.959   3.068   4.726
13790TIP3   OH241246   8.623   2.388   5.047
13790TIP3    H141247   8.575   2.392   5.132
13790TIP3    H241248   8.573   2.314   5.006
13791TIP3   OH241249   8.358   2.861   6.077
13791TIP3    H141250   8.355   2.887   6.170
13791TIP3    H241251   8.357   2.947   6.032
13792TIP3   OH241252   8.265   2.750   5.604
13792TIP3    H141253   8.173   2.723   5.624
13792TIP3    H241254   8.277   2.707   5.516
13793TIP3   OH241255   8.767   2.836   5.318
13793TIP3    H141256   8.698   2.905   5.310
13793TIP3    H241257   8.805   2.845   5.230
13794TIP3   OH241258   8.936   3.133   6.435
13794TIP3    H141259   8.906   3.048   6.474
13794TIP3    H241260   9.032   3.124   6.446
13795TIP3   OH241261   8.917   2.869   5.577
13795TIP3    H141262   8.864   2.902   5.502
13795TIP3    H241263   8.939   2.779   5.548
13796TIP3   OH241264   8.188   2.897   6.311
13796TIP3    H141265   8.243   2.952   6.369
13796TIP3    H241266   8.191   2.810   6.356
13797TIP3   OH241267   8.255   2.373   5.010
13797TIP3    H141268   8.244   2.367   5.107
13797TIP3    H241269   8.173   2.421   4.985
13798TIP3   OH241270   7.794   2.416   5.882
13798TIP3    H141271   7.869   2.447   5.936
13798TIP3    H241272   7.836   2.384   5.801
13799TIP3   OH241273   7.769   2.396   5.400
13799TIP3    H141274   7.815   2.435   5.322
13799TIP3    H241275   7.708   2.469   5.422
13800TIP3   OH241276   8.914   3.112   6.001
13800TIP3    H141277   8.951   3.038   5.947
13800TIP3    H241278   8.907   3.070   6.088
13801TIP3   OH241279   8.591   2.576   5.668
13801TIP3    H141280   8.506   2.571   5.718
13801TIP3    H241281   8.655   2.569   5.740
13802TIP3   OH241282   8.028   2.628   5.673
13802TIP3    H141283   7.933   2.634   5.648
13802TIP3    H241284   8.051   2.535   5.653
13803TIP3   OH241285   8.301   2.623   5.361
13803TIP3    H141286   8.392   2.642   5.333
13803TIP3    H241287   8.248   2.645   5.281
13804TIP3   OH241288   9.068   2.650   5.882
13804TIP3    H141289   9.043   2.638   5.975
13804TIP3    H241290   9.014   2.582   5.839
13805TIP3   OH241291   8.139   2.656   5.145
13805TIP3    H141292   8.065   2.612   5.099
13805TIP3    H241293   8.189   2.691   5.068
13806TIP3   OH241294   9.252   4.336   6.087
13806TIP3    H141295   9.254   4.360   5.993
13806TIP3    H241296   9.333   4.380   6.120
13807TIP3   OH241297   8.212   3.449   6.510
13807TIP3    H141298   8.293   3.476   6.558
13807TIP3    H241299   8.148   3.446   6.584
13808TIP3   OH241300   8.677   2.903   5.762
13808TIP3    H141301   8.753   2.860   5.720
13808TIP3    H241302   8.685   2.874   5.854
13809TIP3   OH241303   8.197   2.387   5.641
13809TIP3    H141304   8.163   2.309   5.690
13809TIP3    H241305   8.252   2.346   5.574
13810TIP3   OH241306   8.391   3.187   5.149
13810TIP3    H141307   8.318   3.122   5.139
13810TIP3    H241308   8.372   3.221   5.240
13811TIP3   OH241309   9.290   3.423   5.778
13811TIP3    H141310   9.311   3.471   5.695
13811TIP3    H241311   9.204   3.381   5.757
13812TIP3   OH241312   8.865   2.539   5.054
13812TIP3    H141313   8.778   2.493   5.058
13812TIP3    H241314   8.850   2.596   4.978
13813TIP3   OH241315   8.793   3.507   6.145
13813TIP3    H141316   8.811   3.476   6.234
13813TIP3    H241317   8.751   3.593   6.159
13814TIP3   OH241318   8.079   3.207   5.825
13814TIP3    H141319   8.120   3.179   5.741
13814TIP3    H241320   8.124   3.149   5.889
13815TIP3   OH241321   8.534   3.336   4.969
13815TIP3    H141322   8.487   3.423   4.976
13815TIP3    H241323   8.481   3.281   5.030
13816TIP3   OH241324   7.959   3.135   6.441
13816TIP3    H141325   7.986   3.118   6.533
13816TIP3    H241326   7.898   3.062   6.424
13817TIP3   OH241327   8.686   3.245   6.458
13817TIP3    H141328   8.633   3.181   6.408
13817TIP3    H241329   8.777   3.212   6.437
13818TIP3   OH241330   8.950   3.767   6.039
13818TIP3    H141331   8.854   3.763   6.054
13818TIP3    H241332   8.978   3.817   6.119
13819TIP3   OH241333   9.369   2.828   4.951
13819TIP3    H141334   9.300   2.786   4.895
13819TIP3    H241335   9.387   2.904   4.894
13820TIP3   OH241336   9.579   3.686   6.023
13820TIP3    H141337   9.480   3.686   6.021
13820TIP3    H241338   9.597   3.651   5.934
13821TIP3   OH241339   9.058   3.656   4.858
13821TIP3    H141340   9.037   3.586   4.921
13821TIP3    H241341   9.073   3.608   4.775
13822TIP3   OH241342   9.055   3.288   5.698
13822TIP3    H141343   8.962   3.262   5.712
13822TIP3    H241344   9.089   3.209   5.652
13823TIP3   OH241345   8.182   3.511   5.447
13823TIP3    H141346   8.182   3.594   5.395
13823TIP3    H241347   8.088   3.497   5.461
13824TIP3   OH241348   7.746   2.817   5.153
13824TIP3    H141349   7.792   2.901   5.174
13824TIP3    H241350   7.669   2.822   5.214
13825TIP3   OH241351   8.324   3.279   5.394
13825TIP3    H141352   8.287   3.368   5.412
13825TIP3    H241353   8.287   3.228   5.469
13826TIP3   OH241354   8.452   3.857   5.920
13826TIP3    H141355   8.494   3.929   5.870
13826TIP3    H241356   8.527   3.821   5.970
13827TIP3   OH241357   8.103   3.752   5.302
13827TIP3    H141358   8.017   3.759   5.348
13827TIP3    H241359   8.134   3.845   5.305
13828TIP3   OH241360   8.841   3.490   5.877
13828TIP3    H141361   8.831   3.491   5.975
13828TIP3    H241362   8.923   3.439   5.868
13829TIP3   OH241363   8.814   3.382   4.760
13829TIP3    H141364   8.868   3.358   4.839
13829TIP3    H241365   8.726   3.357   4.790
13830TIP3   OH241366   9.090   4.024   5.928
13830TIP3    H141367   9.011   3.966   5.922
13830TIP3    H241368   9.072   4.088   5.856
13831TIP3   OH241369   9.154   3.860   4.581
13831TIP3    H141370   9.190   3.934   4.528
13831TIP3    H241371   9.073   3.904   4.615
13832TIP3   OH241372   8.178   2.642   6.451
13832TIP3    H141373   8.082   2.639   6.463
13832TIP3    H241374   8.209   2.577   6.516
13833TIP3   OH241375   8.972   3.317   4.978
13833TIP3    H141376   8.963   3.249   5.047
13833TIP3    H241377   9.070   3.316   4.964
13834TIP3   OH241378   7.891   3.720   6.079
13834TIP3    H141379   7.942   3.643   6.109
13834TIP3    H241380   7.920   3.786   6.142
13835TIP3   OH241381   8.182   3.364   4.759
13835TIP3    H141382   8.195   3.272   4.731
13835TIP3    H241383   8.163   3.352   4.855
13836TIP3   OH241384   8.128   3.369   5.032
13836TIP3    H141385   8.196   3.342   5.094
13836TIP3    H241386   8.132   3.467   5.039
13837TIP3   OH241387   7.863   3.063   5.235
13837TIP3    H141388   7.797   3.107   5.293
13837TIP3    H241389   7.876   3.133   5.169
13838TIP3   OH241390   8.392   3.566   4.980
13838TIP3    H141391   8.306   3.593   5.017
13838TIP3    H241392   8.409   3.640   4.920
13839TIP3   OH241393   8.594   2.625   5.394
13839TIP3    H141394   8.651   2.702   5.379
13839TIP3    H241395   8.588   2.622   5.493
13840TIP3   OH241396   8.721   2.362   5.507
13840TIP3    H141397   8.718   2.419   5.586
13840TIP3    H241398   8.765   2.421   5.445
13841TIP3   OH241399   8.135   3.642   5.048
13841TIP3    H141400   8.105   3.711   4.986
13841TIP3    H241401   8.119   3.685   5.135
13842TIP3   OH241402   8.236   2.354   5.285
13842TIP3    H141403   8.233   2.443   5.324
13842TIP3    H241404   8.332   2.335   5.293
13843TIP3   OH241405   9.493   2.849   6.183
13843TIP3    H141406   9.395   2.850   6.191
13843TIP3    H241407   9.502   2.815   6.093
13844TIP3   OH241408   9.134   3.054   5.568
13844TIP3    H141409   9.062   2.992   5.587
13844TIP3    H241410   9.210   3.012   5.615
13845TIP3   OH241411   7.853   3.273   5.042
13845TIP3    H141412   7.917   3.346   5.051
13845TIP3    H241413   7.900   3.219   4.974
13846TIP3   OH241414   7.800   2.548   5.174
13846TIP3    H141415   7.796   2.646   5.170
13846TIP3    H241416   7.716   2.523   5.133
13847TIP3   OH241417   9.110   3.998   5.520
13847TIP3    H141418   9.067   4.045   5.445
13847TIP3    H241419   9.204   4.017   5.501
13848TIP3   OH241420   8.184   2.267   6.048
13848TIP3    H141421   8.154   2.232   5.962
13848TIP3    H241422   8.176   2.189   6.107
13849TIP3   OH241423   7.726   3.487   5.429
13849TIP3    H141424   7.654   3.517   5.486
13849TIP3    H241425   7.700   3.526   5.343
13850TIP3   OH241426   7.880   4.027   6.501
13850TIP3    H141427   7.967   4.025   6.547
13850TIP3    H241428   7.859   3.932   6.498
13851TIP3   OH241429   8.364   3.995   6.543
13851TIP3    H141430   8.458   3.972   6.553
13851TIP3    H241431   8.338   3.935   6.470
13852TIP3   OH241432   8.345   3.568   4.673
13852TIP3    H141433   8.288   3.498   4.711
13852TIP3    H241434   8.420   3.515   4.642
13853TIP3   OH241435   9.003   3.898   6.277
13853TIP3    H141436   8.993   3.829   6.346
13853TIP3    H241437   9.081   3.948   6.308
13854TIP3   OH241438   8.781   3.609   4.585
13854TIP3    H141439   8.826   3.546   4.643
13854TIP3    H241440   8.837   3.609   4.505
13855TIP3   OH241441   8.012   3.434   6.701
13855TIP3    H141442   8.029   3.338   6.706
13855TIP3    H241443   7.924   3.435   6.657
13856TIP3   OH241444   7.989   3.087   4.892
13856TIP3    H141445   8.043   3.052   4.966
13856TIP3    H241446   8.057   3.091   4.822
13857TIP3   OH241447   8.619   3.518   6.474
13857TIP3    H141448   8.579   3.531   6.386
13857TIP3    H241449   8.651   3.425   6.469
13858TIP3   OH241450   8.498   3.283   4.700
13858TIP3    H141451   8.500   3.296   4.797
13858TIP3    H241452   8.495   3.185   4.695
13859TIP3   OH241453   9.112   3.524   6.077
13859TIP3    H141454   9.186   3.573   6.036
13859TIP3    H241455   9.040   3.589   6.068
13860TIP3   OH241456   8.131   3.167   6.680
13860TIP3    H141457   8.207   3.111   6.658
13860TIP3    H241458   8.157   3.199   6.769
13861TIP3   OH241459   8.199   2.988   5.117
13861TIP3    H141460   8.169   2.949   5.201
13861TIP3    H241461   8.232   2.910   5.068
13862TIP3   OH241462   8.458   3.051   6.339
13862TIP3    H141463   8.387   3.118   6.341
13862TIP3    H241464   8.516   3.083   6.266
13863TIP3   OH241465   8.298   2.780   4.957
13863TIP3    H141466   8.269   2.784   4.863
13863TIP3    H241467   8.395   2.788   4.948
13864TIP3   OH241468   8.985   3.457   6.478
13864TIP3    H141469   9.065   3.429   6.432
13864TIP3    H241470   8.973   3.384   6.540
13865TIP3   OH241471   9.119   3.113   4.618
13865TIP3    H141472   9.096   3.066   4.535
13865TIP3    H241473   9.086   3.203   4.594
13866TIP3   OH241474   8.584   2.839   6.472
13866TIP3    H141475   8.626   2.777   6.408
13866TIP3    H241476   8.544   2.902   6.410
13867TIP3   OH241477   8.623   3.164   6.152
13867TIP3    H141478   8.703   3.169   6.098
13867TIP3    H241479   8.565   3.231   6.109
13868TIP3   OH241480   9.207   3.135   6.539
13868TIP3    H141481   9.238   3.043   6.532
13868TIP3    H241482   9.283   3.185   6.504
13869TIP3   OH241483   9.243   3.382   6.267
13869TIP3    H141484   9.185   3.436   6.208
13869TIP3    H241485   9.331   3.401   6.227
13870TIP3   OH241486   8.464   2.955   6.700
13870TIP3    H141487   8.397   2.885   6.714
13870TIP3    H241488   8.501   2.927   6.613
13871TIP3   OH241489   8.717   2.399   6.349
13871TIP3    H141490   8.705   2.489   6.310
13871TIP3    H241491   8.636   2.353   6.322
13872TIP3   OH241492   8.847   2.906   6.559
13872TIP3    H141493   8.828   2.888   6.653
13872TIP3    H241494   8.766   2.868   6.518
13873TIP3   OH241495   9.104   2.868   6.418
13873TIP3    H141496   9.014   2.847   6.450
13873TIP3    H241497   9.160   2.816   6.478
13874TIP3   OH241498   9.338   2.785   6.573
13874TIP3    H141499   9.338   2.689   6.591
13874TIP3    H241500   9.322   2.825   6.661
13875TIP3   OH241501   8.303   2.736   6.755
13875TIP3    H141502   8.317   2.649   6.713
13875TIP3    H241503   8.342   2.720   6.844
13876TIP3   OH241504   8.817   2.398   6.602
13876TIP3    H141505   8.884   2.328   6.590
13876TIP3    H241506   8.778   2.401   6.512
13877TIP3   OH241507   8.883   2.613   6.762
13877TIP3    H141508   8.862   2.544   6.696
13877TIP3    H241509   8.808   2.675   6.752
13878TIP3   OH241510   8.104   3.845   4.861
13878TIP3    H141511   8.200   3.841   4.841
13878TIP3    H241512   8.074   3.893   4.782
13879TIP3   OH241513   7.584   3.226   5.077
13879TIP3    H141514   7.679   3.248   5.064
13879TIP3    H241515   7.579   3.137   5.036
13880TIP3   OH241516   7.500   3.839   5.490
13880TIP3    H141517   7.432   3.777   5.455
13880TIP3    H241518   7.544   3.782   5.557
13881TIP3   OH241519   7.636   3.691   5.677
13881TIP3    H141520   7.623   3.617   5.738
13881TIP3    H241521   7.686   3.752   5.734
13882TIP3   OH241522   9.363   4.088   5.477
13882TIP3    H141523   9.388   4.122   5.565
13882TIP3    H241524   9.424   4.137   5.419
13883TIP3   OH241525   9.392   4.110   5.759
13883TIP3    H141526   9.350   4.022   5.756
13883TIP3    H241527   9.466   4.091   5.818
13884TIP3   OH241528   9.438   3.788   6.330
13884TIP3    H141529   9.365   3.796   6.395
13884TIP3    H241530   9.479   3.877   6.336
13885TIP3   OH241531   9.248   3.303   4.950
13885TIP3    H141532   9.317   3.369   4.927
13885TIP3    H241533   9.290   3.261   5.028
13886TIP3   OH241534   9.366   3.167   5.153
13886TIP3    H141535   9.299   3.124   5.212
13886TIP3    H241536   9.427   3.208   5.217
13887TIP3   OH241537   9.432   3.553   5.582
13887TIP3    H141538   9.481   3.501   5.517
13887TIP3    H241539   9.420   3.637   5.534
13888TIP3   OH241540   9.267   3.859   5.782
13888TIP3    H141541   9.199   3.903   5.837
13888TIP3    H241542   9.214   3.813   5.714
13889TIP3   OH241543   9.326   3.084   4.795
13889TIP3    H141544   9.248   3.080   4.735
13889TIP3    H241545   9.295   3.154   4.856
13890TIP3   OH241546   9.176   2.752   4.773
13890TIP3    H141547   9.167   2.792   4.686
13890TIP3    H241548   9.154   2.658   4.755
13891TIP3   OH241549   9.195   3.018   5.307
13891TIP3    H141550   9.247   2.938   5.321
13891TIP3    H241551   9.173   3.044   5.399
13892TIP3   OH241552   7.823   3.099   6.049
13892TIP3    H141553   7.822   3.068   5.956
13892TIP3    H241554   7.920   3.099   6.067
13893TIP3   OH241555   9.486   3.448   6.157
13893TIP3    H141556   9.560   3.384   6.150
13893TIP3    H241557   9.516   3.520   6.100
13894TIP3   OH241558   9.683   3.263   6.178
13894TIP3    H141559   9.604   3.215   6.212
13894TIP3    H241560   9.748   3.190   6.188
13895TIP3   OH241561   9.126   2.486   4.754
13895TIP3    H141562   9.208   2.446   4.789
13895TIP3    H241563   9.058   2.418   4.767
13896TIP3   OH241564   9.345   2.935   5.680
13896TIP3    H141565   9.430   2.963   5.642
13896TIP3    H241566   9.365   2.943   5.775
13897TIP3   OH241567   9.420   3.057   5.927
13897TIP3    H141568   9.342   3.089   5.978
13897TIP3    H241569   9.450   3.139   5.884
13898TIP3   OH241570   8.036   2.783   6.719
13898TIP3    H141571   8.135   2.778   6.722
13898TIP3    H241572   8.015   2.698   6.764
13899TIP3   OH241573   9.261   2.491   5.262
13899TIP3    H141574   9.327   2.493   5.336
13899TIP3    H241575   9.265   2.396   5.241
13900TIP3   OH241576   7.999   2.474   6.058
13900TIP3    H141577   8.063   2.401   6.069
13900TIP3    H241578   8.061   2.549   6.050
13901TIP3   OH241579   7.801   2.750   6.126
13901TIP3    H141580   7.853   2.744   6.044
13901TIP3    H241581   7.834   2.833   6.163
13902TIP3   OH241582   9.733   2.777   6.305
13902TIP3    H141583   9.655   2.831   6.327
13902TIP3    H241584   9.694   2.719   6.236
13903TIP3   OH241585   9.378   2.408   4.854
13903TIP3    H141586   9.428   2.326   4.835
13903TIP3    H241587   9.432   2.472   4.802
13904TIP3   OH241588   7.787   2.255   5.629
13904TIP3    H141589   7.692   2.252   5.653
13904TIP3    H241590   7.787   2.313   5.550
13905TIP3   OH241591   8.946   3.957   5.134
13905TIP3    H141592   8.999   3.943   5.052
13905TIP3    H241593   8.999   4.022   5.181
13906TIP3   OH241594   8.007   2.335   6.443
13906TIP3    H141595   7.957   2.329   6.527
13906TIP3    H241596   7.940   2.372   6.383
13907TIP3   OH241597   8.046   3.764   6.521
13907TIP3    H141598   7.956   3.732   6.503
13907TIP3    H241599   8.058   3.740   6.614
13908TIP3   OH241600   8.224   3.792   6.068
13908TIP3    H141601   8.177   3.868   6.028
13908TIP3    H241602   8.311   3.805   6.024
13909TIP3   OH241603   8.671   4.039   6.206
13909TIP3    H141604   8.713   4.038   6.295
13909TIP3    H241605   8.738   4.089   6.155
13910TIP3   OH241606   8.851   4.189   6.063
13910TIP3    H141607   8.923   4.137   6.025
13910TIP3    H241608   8.901   4.247   6.125
13911TIP3   OH241609   9.637   2.553   6.168
13911TIP3    H141610   9.549   2.551   6.129
13911TIP3    H241611   9.672   2.466   6.141
13912TIP3   OH241612   7.902   4.052   6.089
13912TIP3    H141613   7.813   4.087   6.067
13912TIP3    H241614   7.910   4.081   6.181
13913TIP3   OH241615   8.139   4.029   5.948
13913TIP3    H141616   8.053   4.042   5.994
13913TIP3    H241617   8.119   4.061   5.858
13914TIP3   OH241618   8.565   4.059   5.745
13914TIP3    H141619   8.494   4.080   5.681
13914TIP3    H241620   8.577   4.146   5.789
13915TIP3   OH241621   8.833   3.997   5.795
13915TIP3    H141622   8.738   4.014   5.777
13915TIP3    H241623   8.876   4.075   5.757
13916TIP3   OH241624   9.040   4.190   5.714
13916TIP3    H141625   9.027   4.274   5.666
13916TIP3    H241626   9.066   4.129   5.641
13917TIP3   OH241627   7.814   3.845   5.837
13917TIP3    H141628   7.841   3.818   5.928
13917TIP3    H241629   7.886   3.800   5.786
13918TIP3   OH241630   8.007   3.715   5.692
13918TIP3    H141631   8.022   3.631   5.741
13918TIP3    H241632   8.098   3.751   5.689
13919TIP3   OH241633   8.274   3.811   5.695
13919TIP3    H141634   8.304   3.719   5.684
13919TIP3    H241635   8.317   3.832   5.780
13920TIP3   OH241636   8.842   2.461   5.767
13920TIP3    H141637   8.802   2.400   5.832
13920TIP3    H241638   8.921   2.410   5.737
13921TIP3   OH241639   9.376   2.351   5.702
13921TIP3    H141640   9.404   2.402   5.623
13921TIP3    H241641   9.279   2.363   5.700
13922TIP3   OH241642   9.454   2.448   5.457
13922TIP3    H141643   9.538   2.400   5.448
13922TIP3    H241644   9.485   2.542   5.452
13923TIP3   OH241645   8.098   2.175   5.797
13923TIP3    H141646   8.006   2.141   5.799
13923TIP3    H241647   8.148   2.090   5.796
13924TIP3   OH241648   7.884   2.044   5.447
13924TIP3    H141649   7.914   2.102   5.375
13924TIP3    H241650   7.855   2.109   5.514
13925TIP3   OH241651   8.538   2.208   5.681
13925TIP3    H141652   8.602   2.258   5.629
13925TIP3    H241653   8.556   2.240   5.771
13926TIP3   OH241654   9.086   2.349   5.659
13926TIP3    H141655   9.114   2.296   5.582
13926TIP3    H241656   9.072   2.275   5.724
13927TIP3   OH241657   9.079   2.281   5.229
13927TIP3    H141658   8.994   2.248   5.198
13927TIP3    H241659   9.105   2.204   5.285
13928TIP3   OH241660   7.603   3.614   5.227
13928TIP3    H141661   7.517   3.581   5.193
13928TIP3    H241662   7.590   3.709   5.212
13929TIP3   OH241663   8.000   2.205   5.211
13929TIP3    H141664   8.049   2.141   5.155
13929TIP3    H241665   8.073   2.258   5.248
13930TIP3   OH241666   8.514   2.379   5.306
13930TIP3    H141667   8.560   2.327   5.373
13930TIP3    H241668   8.536   2.470   5.336
13931TIP3   OH241669   8.373   3.806   4.809
13931TIP3    H141670   8.462   3.827   4.773
13931TIP3    H241671   8.351   3.730   4.750
13932TIP3   OH241672   9.093   3.922   4.902
13932TIP3    H141673   9.084   3.825   4.890
13932TIP3    H241674   9.047   3.955   4.822
13933TIP3   OH241675   8.305   2.452   6.689
13933TIP3    H141676   8.273   2.383   6.749
13933TIP3    H241677   8.399   2.456   6.714
13934TIP3   OH241678   8.553   2.455   6.810
13934TIP3    H141679   8.637   2.434   6.765
13934TIP3    H241680   8.546   2.382   6.874
13935TIP3   OH241681   7.678   3.643   4.866
13935TIP3    H141682   7.675   3.667   4.960
13935TIP3    H241683   7.766   3.602   4.857
13936TIP3   OH241684   9.378   2.513   6.601
13936TIP3    H141685   9.400   2.483   6.692
13936TIP3    H241686   9.466   2.512   6.557
13937TIP3   OH241687   9.319   4.069   6.088
13937TIP3    H141688   9.239   4.037   6.043
13937TIP3    H241689   9.299   4.164   6.094
13938TIP3   OH241690   9.537   2.946   5.131
13938TIP3    H141691   9.474   3.021   5.128
13938TIP3    H241692   9.489   2.882   5.074
13939TIP3   OH241693   9.597   3.239   5.284
13939TIP3    H141694   9.629   3.157   5.324
13939TIP3    H241695   9.637   3.232   5.196
13940TIP3   OH241696   9.451   3.474   4.870
13940TIP3    H141697   9.435   3.480   4.775
13940TIP3    H241698   9.485   3.563   4.891
13941TIP3   OH241699   9.639   3.581   5.776
13941TIP3    H141700   9.566   3.551   5.717
13941TIP3    H241701   9.674   3.497   5.813
13942TIP3   OH241702   9.501   3.791   5.423
13942TIP3    H141703   9.598   3.798   5.419
13942TIP3    H241704   9.479   3.871   5.473
13943TIP3   OH241705   9.634   4.012   4.965
13943TIP3    H141706   9.690   4.007   5.045
13943TIP3    H241707   9.586   3.927   4.970
13944TIP3   OH241708   9.788   3.804   5.795
13944TIP3    H141709   9.809   3.792   5.889
13944TIP3    H241710   9.724   3.730   5.781
13945TIP3   OH241711   9.555   2.691   5.397
13945TIP3    H141712   9.620   2.734   5.454
13945TIP3    H241713   9.576   2.728   5.310
13946TIP3   OH241714   9.743   3.378   5.927
13946TIP3    H141715   9.762   3.351   6.018
13946TIP3    H241716   9.675   3.313   5.903
13947TIP3   OH241717   9.522   3.146   4.615
13947TIP3    H141718   9.595   3.138   4.680
13947TIP3    H241719   9.445   3.122   4.672
13948TIP3   OH241720   9.686   3.978   5.572
13948TIP3    H141721   9.724   3.909   5.629
13948TIP3    H241722   9.709   4.058   5.621
13949TIP3   OH241723   9.519   3.742   4.918
13949TIP3    H141724   9.441   3.768   4.969
13949TIP3    H241725   9.499   3.784   4.832
13950TIP3   OH241726   9.675   4.280   5.985
13950TIP3    H141727   9.761   4.271   6.030
13950TIP3    H241728   9.647   4.187   5.983
13951TIP3   OH241729   9.810   3.712   6.172
13951TIP3    H141730   9.835   3.630   6.216
13951TIP3    H241731   9.724   3.691   6.131
13952TIP3   OH241732   9.379   3.489   4.557
13952TIP3    H141733   9.476   3.479   4.566
13952TIP3    H241734   9.359   3.406   4.508
13953TIP3   OH241735   9.294   4.096   4.978
13953TIP3    H141736   9.227   4.033   4.943
13953TIP3    H241737   9.340   4.040   5.044
13954TIP3   OH241738   9.425   3.946   5.169
13954TIP3    H141739   9.415   3.873   5.232
13954TIP3    H241740   9.479   4.008   5.222
13955TIP3   OH241741   9.643   3.350   5.534
13955TIP3    H141742   9.619   3.319   5.445
13955TIP3    H241743   9.726   3.397   5.517
13956TIP3   OH241744   9.819   3.029   6.190
13956TIP3    H141745   9.910   3.062   6.203
13956TIP3    H241746   9.816   2.953   6.252
13957TIP3   OH241747   9.598   3.025   5.575
13957TIP3    H141748   9.656   2.950   5.597
13957TIP3    H241749   9.630   3.095   5.632
13958TIP3   OH241750   9.541   2.555   5.099
13958TIP3    H141751   9.445   2.557   5.088
13958TIP3    H241752   9.571   2.590   5.014
13959TIP3   OH241753   9.841   4.016   6.024
13959TIP3    H141754   9.752   3.991   5.994
13959TIP3    H241755   9.842   3.987   6.116
13960TIP3   OH241756   9.690   4.299   5.581
13960TIP3    H141757   9.603   4.339   5.556
13960TIP3    H241758   9.707   4.347   5.663
13961TIP3   OH241759   9.939   4.283   5.444
13961TIP3    H141760   9.849   4.290   5.480
13961TIP3    H241761   9.929   4.320   5.354
13962TIP3   OH241762   9.611   4.099   5.321
13962TIP3    H141763   9.638   4.079   5.413
13962TIP3    H241764   9.689   4.064   5.273
13963TIP3   OH241765   9.816   3.988   5.168
13963TIP3    H141766   9.839   3.894   5.173
13963TIP3    H241767   9.905   4.029   5.178
13964TIP3   OH241768   9.398   3.868   4.713
13964TIP3    H141769   9.312   3.838   4.679
13964TIP3    H241770   9.388   3.964   4.703
13965TIP3   OH241771   9.498   3.916   4.367
13965TIP3    H141772   9.463   3.935   4.455
13965TIP3    H241773   9.551   3.837   4.383
13966TIP3   OH241774   1.239   3.968   7.061
13966TIP3    H141775   1.213   4.061   7.043
13966TIP3    H241776   1.162   3.921   7.026
13967TIP3   OH241777   1.227   3.972   7.442
13967TIP3    H141778   1.267   3.945   7.526
13967TIP3    H241779   1.196   3.887   7.406
13968TIP3   OH241780   0.536   3.867   7.800
13968TIP3    H141781   0.563   3.797   7.862
13968TIP3    H241782   0.614   3.924   7.802
13969TIP3   OH241783   1.479   4.276   7.123
13969TIP3    H141784   1.478   4.200   7.182
13969TIP3    H241785   1.516   4.345   7.180
13970TIP3   OH241786   0.517   4.274   7.528
13970TIP3    H141787   0.504   4.177   7.534
13970TIP3    H241788   0.614   4.278   7.529
13971TIP3   OH241789   0.167   3.476   7.315
13971TIP3    H141790   0.174   3.568   7.343
13971TIP3    H241791   0.164   3.430   7.400
13972TIP3   OH241792   0.282   3.762   7.479
13972TIP3    H141793   0.332   3.690   7.524
13972TIP3    H241794   0.347   3.796   7.417
13973TIP3   OH241795   1.132   4.735   7.140
13973TIP3    H141796   1.177   4.665   7.087
13973TIP3    H241797   1.130   4.694   7.227
13974TIP3   OH241798   1.040   4.197   7.488
13974TIP3    H141799   1.079   4.117   7.447
13974TIP3    H241800   1.123   4.242   7.510
13975TIP3   OH241801   2.045   3.517   7.483
13975TIP3    H141802   2.071   3.600   7.527
13975TIP3    H241803   2.075   3.533   7.392
13976TIP3   OH241804   1.448   3.698   7.522
13976TIP3    H141805   1.494   3.614   7.543
13976TIP3    H241806   1.413   3.678   7.433
13977TIP3   OH241807   0.787   3.357   7.488
13977TIP3    H141808   0.769   3.431   7.425
13977TIP3    H241809   0.739   3.284   7.443
13978TIP3   OH241810   1.480   3.448   7.108
13978TIP3    H141811   1.551   3.433   7.174
13978TIP3    H241812   1.533   3.485   7.035
13979TIP3   OH241813   0.424   3.557   7.587
13979TIP3    H141814   0.500   3.542   7.646
13979TIP3    H241815   0.447   3.498   7.512
13980TIP3   OH241816   0.864   3.757   7.383
13980TIP3    H141817   0.958   3.732   7.397
13980TIP3    H241818   0.826   3.672   7.353
13981TIP3   OH241819   2.124   3.720   7.659
13981TIP3    H141820   2.046   3.777   7.639
13981TIP3    H241821   2.144   3.753   7.748
13982TIP3   OH241822   0.785   3.340   7.920
13982TIP3    H141823   0.726   3.378   7.853
13982TIP3    H241824   0.734   3.360   8.002
13983TIP3   OH241825   1.131   4.190   6.930
13983TIP3    H141826   1.091   4.170   6.845
13983TIP3    H241827   1.088   4.275   6.952
13984TIP3   OH241828   0.894   4.114   7.716
13984TIP3    H141829   0.830   4.179   7.754
13984TIP3    H241830   0.936   4.167   7.645
13985TIP3   OH241831   1.690   3.442   7.279
13985TIP3    H141832   1.684   3.399   7.365
13985TIP3    H241833   1.767   3.499   7.288
13986TIP3   OH241834   0.655   3.456   7.707
13986TIP3    H141835   0.717   3.530   7.729
13986TIP3    H241836   0.703   3.415   7.632
13987TIP3   OH241837   0.722   4.307   7.810
13987TIP3    H141838   0.697   4.394   7.775
13987TIP3    H241839   0.644   4.292   7.869
13988TIP3   OH241840   0.169   4.018   6.999
13988TIP3    H141841   0.087   4.055   6.962
13988TIP3    H241842   0.183   4.075   7.077
13989TIP3   OH241843   1.552   4.520   7.291
13989TIP3    H141844   1.463   4.506   7.328
13989TIP3    H241845   1.541   4.606   7.247
13990TIP3   OH241846   1.845   3.412   7.652
13990TIP3    H141847   1.758   3.447   7.624
13990TIP3    H241848   1.905   3.448   7.583
13991TIP3   OH241849   1.143   3.060   7.633
13991TIP3    H141850   1.129   2.965   7.650
13991TIP3    H241851   1.066   3.098   7.680
13992TIP3   OH241852   1.253   4.564   6.962
13992TIP3    H141853   1.303   4.481   6.945
13992TIP3    H241854   1.316   4.628   6.921
13993TIP3   OH241855   1.396   4.349   6.871
13993TIP3    H141856   1.366   4.267   6.828
13993TIP3    H241857   1.431   4.315   6.956
13994TIP3   OH241858   1.782   4.439   7.636
13994TIP3    H141859   1.765   4.359   7.579
13994TIP3    H241860   1.769   4.510   7.571
13995TIP3   OH241861   1.070   3.822   6.888
13995TIP3    H141862   0.991   3.875   6.864
13995TIP3    H241863   1.120   3.820   6.805
13996TIP3   OH241864   1.030   3.606   6.607
13996TIP3    H141865   1.097   3.656   6.657
13996TIP3    H241866   1.088   3.543   6.560
13997TIP3   OH241867   1.417   3.905   6.862
13997TIP3    H141868   1.365   3.928   6.943
13997TIP3    H241869   1.502   3.878   6.903
13998TIP3   OH241870   1.646   3.940   7.778
13998TIP3    H141871   1.648   4.027   7.820
13998TIP3    H241872   1.567   3.949   7.722
13999TIP3   OH241873   0.653   3.903   7.278
13999TIP3    H141874   0.612   3.844   7.212
13999TIP3    H241875   0.730   3.850   7.308
14000TIP3   OH241876   0.787   4.319   7.423
14000TIP3    H141877   0.764   4.269   7.344
14000TIP3    H241878   0.876   4.283   7.444
14001TIP3   OH241879   0.792   3.872   7.632
14001TIP3    H141880   0.825   3.854   7.542
14001TIP3    H241881   0.834   3.959   7.653
14002TIP3   OH241882   1.307   4.514   7.408
14002TIP3    H141883   1.302   4.588   7.470
14002TIP3    H241884   1.299   4.436   7.468
14003TIP3   OH241885   0.925   4.431   7.957
14003TIP3    H141886   0.866   4.494   8.003
14003TIP3    H241887   0.860   4.377   7.907
14004TIP3   OH241888   1.259   3.764   6.688
14004TIP3    H141889   1.319   3.822   6.741
14004TIP3    H241890   1.286   3.788   6.596
14005TIP3   OH241891   0.690   3.990   8.051
14005TIP3    H141892   0.692   4.078   8.093
14005TIP3    H241893   0.596   3.966   8.065
14006TIP3   OH241894   1.001   4.444   6.963
14006TIP3    H141895   1.082   4.494   6.979
14006TIP3    H241896   0.941   4.510   6.926
14007TIP3   OH241897   0.724   4.603   8.044
14007TIP3    H141898   0.686   4.595   7.954
14007TIP3    H241899   0.653   4.563   8.100
14008TIP3   OH241900   1.775   3.005   6.735
14008TIP3    H141901   1.694   3.025   6.787
14008TIP3    H241902   1.788   3.088   6.686
14009TIP3   OH241903   0.521   3.743   7.088
14009TIP3    H141904   0.460   3.785   7.023
14009TIP3    H241905   0.479   3.657   7.101
14010TIP3   OH241906   1.574   4.371   6.286
14010TIP3    H141907   1.584   4.467   6.269
14010TIP3    H241908   1.667   4.340   6.272
14011TIP3   OH241909   0.303   4.144   7.985
14011TIP3    H141910   0.250   4.102   7.915
14011TIP3    H241911   0.336   4.065   8.031
14012TIP3   OH241912   2.016   4.773   7.674
14012TIP3    H141913   2.017   4.676   7.685
14012TIP3    H241914   1.933   4.795   7.723
14013TIP3   OH241915   1.122   4.560   7.813
14013TIP3    H141916   1.121   4.652   7.846
14013TIP3    H241917   1.051   4.520   7.868
14014TIP3   OH241918   0.880   4.688   6.765
14014TIP3    H141919   0.838   4.669   6.680
14014TIP3    H241920   0.851   4.779   6.785
14015TIP3   OH241921   0.358   4.527   7.120
14015TIP3    H141922   0.384   4.503   7.212
14015TIP3    H241923   0.276   4.478   7.106
14016TIP3   OH241924   1.085   4.589   6.407
14016TIP3    H141925   1.144   4.520   6.369
14016TIP3    H241926   1.121   4.597   6.497
14017TIP3   OH241927   1.134   4.638   6.677
14017TIP3    H141928   1.047   4.645   6.721
14017TIP3    H241929   1.187   4.594   6.746
14018TIP3   OH241930   1.906   3.903   7.959
14018TIP3    H141931   1.842   3.921   7.888
14018TIP3    H241932   1.924   3.808   7.944
14019TIP3   OH241933   0.512   4.317   7.978
14019TIP3    H141934   0.556   4.309   8.065
14019TIP3    H241935   0.439   4.252   7.986
14020TIP3   OH241936   0.905   3.135   7.763
14020TIP3    H141937   0.815   3.103   7.739
14020TIP3    H241938   0.881   3.219   7.806
14021TIP3   OH241939   1.437   3.251   7.957
14021TIP3    H141940   1.505   3.223   8.021
14021TIP3    H241941   1.353   3.231   8.003
14022TIP3   OH241942   1.675   3.676   7.873
14022TIP3    H141943   1.627   3.678   7.959
14022TIP3    H241944   1.657   3.766   7.838
14023TIP3   OH241945   1.334   3.812   6.431
14023TIP3    H141946   1.303   3.784   6.343
14023TIP3    H241947   1.417   3.858   6.408
14024TIP3   OH241948   1.047   3.187   6.734
14024TIP3    H141949   1.016   3.183   6.826
14024TIP3    H241950   1.011   3.102   6.701
14025TIP3   OH241951   0.835   3.651   7.781
14025TIP3    H141952   0.784   3.672   7.862
14025TIP3    H241953   0.820   3.732   7.727
14026TIP3   OH241954   0.719   3.536   7.296
14026TIP3    H141955   0.625   3.512   7.311
14026TIP3    H241956   0.733   3.496   7.207
14027TIP3   OH241957   1.205   3.619   7.018
14027TIP3    H141958   1.156   3.694   6.979
14027TIP3    H241959   1.265   3.593   6.945
14028TIP3   OH241960   1.383   3.903   8.112
14028TIP3    H141961   1.362   3.829   8.173
14028TIP3    H241962   1.478   3.915   8.128
14029TIP3   OH241963   1.350   3.636   7.274
14029TIP3    H141964   1.311   3.686   7.200
14029TIP3    H241965   1.389   3.562   7.224
14030TIP3   OH241966   0.657   3.681   7.988
14030TIP3    H141967   0.669   3.748   8.058
14030TIP3    H241968   0.643   3.600   8.039
14031TIP3   OH241969   0.702   3.156   6.700
14031TIP3    H141970   0.696   3.155   6.797
14031TIP3    H241971   0.624   3.209   6.677
14032TIP3   OH241972   0.244   3.223   7.536
14032TIP3    H141973   0.300   3.245   7.613
14032TIP3    H241974   0.293   3.147   7.501
14033TIP3   OH241975   0.236   3.211   7.109
14033TIP3    H141976   0.269   3.227   7.018
14033TIP3    H241977   0.183   3.290   7.121
14034TIP3   OH241978   1.363   3.898   7.682
14034TIP3    H141979   1.403   3.828   7.625
14034TIP3    H241980   1.343   3.845   7.762
14035TIP3   OH241981   1.043   3.356   7.357
14035TIP3    H141982   0.963   3.358   7.412
14035TIP3    H241983   1.114   3.363   7.423
14036TIP3   OH241984   0.476   3.412   7.357
14036TIP3    H141985   0.386   3.400   7.323
14036TIP3    H241986   0.515   3.323   7.345
14037TIP3   OH241987   0.750   3.411   7.053
14037TIP3    H141988   0.845   3.426   7.035
14037TIP3    H241989   0.706   3.436   6.969
14038TIP3   OH241990   1.538   3.435   7.560
14038TIP3    H141991   1.501   3.448   7.650
14038TIP3    H241992   1.472   3.375   7.521
14039TIP3   OH241993   0.588   3.446   6.830
14039TIP3    H141994   0.520   3.399   6.778
14039TIP3    H241995   0.642   3.483   6.758
14040TIP3   OH241996   1.706   5.125   7.778
14040TIP3    H141997   1.705   5.144   7.683
14040TIP3    H241998   1.785   5.172   7.809
14041TIP3   OH241999   0.674   4.229   8.197
14041TIP3    H142000   0.751   4.265   8.245
14041TIP3    H242001   0.605   4.239   8.266
14042TIP3   OH242002   1.128   3.683   7.451
14042TIP3    H142003   1.203   3.651   7.397
14042TIP3    H242004   1.145   3.644   7.538
14043TIP3   OH242005   0.650   3.179   7.332
14043TIP3    H142006   0.619   3.098   7.377
14043TIP3    H242007   0.705   3.143   7.261
14044TIP3   OH242008   1.106   3.579   7.751
14044TIP3    H142009   1.017   3.620   7.759
14044TIP3    H242010   1.164   3.643   7.796
14045TIP3   OH242011   0.840   3.977   6.836
14045TIP3    H142012   0.769   3.910   6.828
14045TIP3    H242013   0.825   4.009   6.929
14046TIP3   OH242014   1.723   4.230   7.483
14046TIP3    H142015   1.785   4.223   7.408
14046TIP3    H242016   1.656   4.164   7.457
14047TIP3   OH242017   1.301   3.288   6.698
14047TIP3    H142018   1.204   3.274   6.708
14047TIP3    H242019   1.313   3.382   6.724
14048TIP3   OH242020   1.244   4.294   7.835
14048TIP3    H142021   1.264   4.270   7.927
14048TIP3    H242022   1.202   4.381   7.844
14049TIP3   OH242023   1.371   3.534   6.802
14049TIP3    H142024   1.467   3.539   6.821
14049TIP3    H242025   1.355   3.615   6.750
14050TIP3   OH242026   0.536   3.998   7.514
14050TIP3    H142027   0.578   3.966   7.432
14050TIP3    H242028   0.568   3.935   7.580
14051TIP3   OH242029   0.987   4.124   6.657
14051TIP3    H142030   0.940   4.210   6.666
14051TIP3    H242031   0.934   4.069   6.719
14052TIP3   OH242032   0.439   3.919   8.129
14052TIP3    H142033   0.447   3.909   8.225
14052TIP3    H242034   0.348   3.885   8.112
14053TIP3   OH242035   1.139   4.031   8.150
14053TIP3    H142036   1.079   3.974   8.099
14053TIP3    H242037   1.226   3.997   8.120
14054TIP3   OH242038   1.401   4.564   7.726
14054TIP3    H142039   1.306   4.552   7.742
14054TIP3    H242040   1.428   4.608   7.809
14055TIP3   OH242041   1.812   3.623   6.641
14055TIP3    H142042   1.749   3.579   6.580
14055TIP3    H242043   1.810   3.713   6.601
14056TIP3   OH242044   2.034   4.489   7.717
14056TIP3    H142045   1.936   4.479   7.712
14056TIP3    H242046   2.059   4.452   7.629
14057TIP3   OH242047   1.508   4.444   6.548
14057TIP3    H142048   1.491   4.372   6.610
14057TIP3    H242049   1.525   4.398   6.464
14058TIP3   OH242050   1.502   4.076   7.392
14058TIP3    H142051   1.413   4.038   7.392
14058TIP3    H242052   1.554   4.006   7.348
14059TIP3   OH242053   0.639   4.300   7.137
14059TIP3    H142054   0.643   4.381   7.082
14059TIP3    H242055   0.545   4.291   7.153
14060TIP3   OH242056   0.198   3.608   6.847
14060TIP3    H142057   0.268   3.677   6.856
14060TIP3    H242058   0.129   3.650   6.900
14061TIP3   OH242059   0.774   4.065   7.082
14061TIP3    H142060   0.741   4.155   7.102
14061TIP3    H242061   0.741   4.015   7.159
14062TIP3   OH242062   0.905   4.647   7.607
14062TIP3    H142063   0.951   4.717   7.557
14062TIP3    H242064   0.979   4.608   7.656
14063TIP3   OH242065   0.585   4.544   6.979
14063TIP3    H142066   0.500   4.547   7.028
14063TIP3    H242067   0.610   4.639   6.983
14064TIP3   OH242068   1.296   4.281   7.564
14064TIP3    H142069   1.290   4.273   7.662
14064TIP3    H242070   1.374   4.226   7.544
14065TIP3   OH242071   1.266   4.171   6.452
14065TIP3    H142072   1.322   4.147   6.530
14065TIP3    H242073   1.179   4.143   6.484
14066TIP3   OH242074   1.540   4.818   7.625
14066TIP3    H142075   1.465   4.754   7.619
14066TIP3    H242076   1.523   4.876   7.548
14067TIP3   OH242077   1.607   4.646   6.271
14067TIP3    H142078   1.647   4.716   6.217
14067TIP3    H242079   1.527   4.694   6.302
14068TIP3   OH242080   0.635   3.420   8.143
14068TIP3    H142081   0.543   3.432   8.169
14068TIP3    H242082   0.665   3.356   8.211
14069TIP3   OH242083   1.427   4.107   6.669
14069TIP3    H142084   1.417   4.039   6.740
14069TIP3    H242085   1.525   4.103   6.656
14070TIP3   OH242086   0.375   4.531   7.760
14070TIP3    H142087   0.403   4.439   7.769
14070TIP3    H242088   0.376   4.560   7.852
14071TIP3   OH242089   0.631   4.153   6.450
14071TIP3    H142090   0.649   4.062   6.420
14071TIP3    H242091   0.615   4.139   6.546
14072TIP3   OH242092   0.580   4.156   6.726
14072TIP3    H142093   0.655   4.129   6.780
14072TIP3    H242094   0.586   4.254   6.730
14073TIP3   OH242095   0.339   3.836   6.904
14073TIP3    H142096   0.275   3.892   6.953
14073TIP3    H242097   0.363   3.899   6.835
14074TIP3   OH242098   1.461   3.490   7.818
14074TIP3    H142099   1.544   3.528   7.851
14074TIP3    H242100   1.451   3.409   7.873
14075TIP3   OH242101   1.342   3.240   6.981
14075TIP3    H142102   1.331   3.264   6.888
14075TIP3    H242103   1.382   3.321   7.019
14076TIP3   OH242104   0.843   4.353   6.671
14076TIP3    H142105   0.757   4.383   6.706
14076TIP3    H242106   0.862   4.424   6.608
14077TIP3   OH242107   1.030   3.417   7.084
14077TIP3    H142108   1.096   3.488   7.065
14077TIP3    H242109   1.039   3.410   7.182
14078TIP3   OH242110   1.301   3.736   7.894
14078TIP3    H142111   1.323   3.790   7.972
14078TIP3    H242112   1.360   3.659   7.904
14079TIP3   OH242113   1.178   3.145   7.187
14079TIP3    H142114   1.173   3.221   7.248
14079TIP3    H242115   1.238   3.182   7.118
14080TIP3   OH242116   0.585   4.429   6.732
14080TIP3    H142117   0.556   4.501   6.672
14080TIP3    H242118   0.582   4.474   6.820
14081TIP3   OH242119   0.689   3.143   6.977
14081TIP3    H142120   0.688   3.234   7.013
14081TIP3    H242121   0.785   3.124   6.985
14082TIP3   OH242122   1.944   3.636   7.879
14082TIP3    H142123   1.846   3.633   7.880
14082TIP3    H242124   1.960   3.615   7.786
14083TIP3   OH242125   1.576   3.830   7.245
14083TIP3    H142126   1.542   3.759   7.301
14083TIP3    H242127   1.664   3.850   7.286
14084TIP3   OH242128   0.314   4.072   6.719
14084TIP3    H142129   0.391   4.129   6.736
14084TIP3    H242130   0.354   4.011   6.653
14085TIP3   OH242131   0.247   3.334   6.866
14085TIP3    H142132   0.247   3.432   6.866
14085TIP3    H242133   0.179   3.313   6.802
14086TIP3   OH242134   1.559   4.792   7.212
14086TIP3    H142135   1.518   4.840   7.136
14086TIP3    H242136   1.653   4.808   7.191
14087TIP3   OH242137   0.642   3.052   7.740
14087TIP3    H142138   0.607   3.022   7.653
14087TIP3    H242139   0.625   2.974   7.797
14088TIP3   OH242140   0.207   4.243   7.153
14088TIP3    H142141   0.125   4.294   7.146
14088TIP3    H242142   0.248   4.264   7.069
14089TIP3   OH242143   0.814   4.791   8.231
14089TIP3    H142144   0.906   4.764   8.244
14089TIP3    H242145   0.787   4.727   8.161
14090TIP3   OH242146   0.797   4.356   6.364
14090TIP3    H142147   0.741   4.284   6.402
14090TIP3    H242148   0.873   4.305   6.331
14091TIP3   OH242149   1.453   4.687   7.968
14091TIP3    H142150   1.444   4.616   8.036
14091TIP3    H242151   1.532   4.736   7.999
14092TIP3   OH242152   1.232   4.398   6.275
14092TIP3    H142153   1.279   4.335   6.333
14092TIP3    H242154   1.289   4.397   6.194
14093TIP3   OH242155   0.482   4.207   8.396
14093TIP3    H142156   0.516   4.115   8.395
14093TIP3    H242157   0.387   4.188   8.379
14094TIP3   OH242158   0.444   3.873   6.586
14094TIP3    H142159   0.501   3.838   6.656
14094TIP3    H242160   0.510   3.878   6.512
14095TIP3   OH242161   1.074   4.306   8.162
14095TIP3    H142162   1.031   4.321   8.076
14095TIP3    H242163   1.103   4.213   8.156
14096TIP3   OH242164   0.945   4.070   6.389
14096TIP3    H142165   0.953   4.083   6.486
14096TIP3    H242166   0.948   3.972   6.385
14097TIP3   OH242167   1.565   4.316   7.776
14097TIP3    H142168   1.638   4.353   7.722
14097TIP3    H242169   1.494   4.378   7.754
14098TIP3   OH242170   0.571   3.939   8.388
14098TIP3    H142171   0.651   3.896   8.355
14098TIP3    H242172   0.602   3.976   8.474
14099TIP3   OH242173   0.648   3.776   6.804
14099TIP3    H142174   0.626   3.734   6.889
14099TIP3    H242175   0.686   3.701   6.754
14100TIP3   OH242176   0.924   3.843   8.037
14100TIP3    H142177   0.844   3.899   8.036
14100TIP3    H242178   0.971   3.875   7.956
14101TIP3   OH242179   0.750   3.569   6.647
14101TIP3    H142180   0.725   3.572   6.553
14101TIP3    H242181   0.848   3.574   6.640
14102TIP3   OH242182   1.437   4.244   8.168
14102TIP3    H142183   1.513   4.219   8.115
14102TIP3    H242184   1.434   4.174   8.236
14103TIP3   OH242185   1.570   3.902   6.309
14103TIP3    H142186   1.551   3.855   6.226
14103TIP3    H242187   1.539   3.992   6.284
14104TIP3   OH242188   1.043   3.628   8.160
14104TIP3    H142189   1.041   3.549   8.103
14104TIP3    H242190   1.000   3.696   8.103
14105TIP3   OH242191   1.044   3.412   7.968
14105TIP3    H142192   1.072   3.457   7.886
14105TIP3    H242193   0.950   3.392   7.948
14106TIP3   OH242194   1.075   3.951   7.840
14106TIP3    H142195   1.157   3.957   7.788
14106TIP3    H242196   1.018   4.017   7.796
14107TIP3   OH242197   1.659   3.918   8.226
14107TIP3    H142198   1.706   3.834   8.221
14107TIP3    H242199   1.722   3.978   8.183
14108TIP3   OH242200   1.695   4.174   7.964
14108TIP3    H142201   1.638   4.225   7.902
14108TIP3    H242202   1.782   4.190   7.922
14109TIP3   OH242203   0.921   3.741   8.391
14109TIP3    H142204   0.851   3.673   8.403
14109TIP3    H242205   0.953   3.719   8.302
14110TIP3   OH242206   1.177   3.180   8.037
14110TIP3    H142207   1.129   3.262   8.012
14110TIP3    H242208   1.108   3.112   8.022
14111TIP3   OH242209   1.302   3.682   8.251
14111TIP3    H142210   1.285   3.674   8.347
14111TIP3    H242211   1.214   3.659   8.217
14112TIP3   OH242212   1.542   3.636   8.106
14112TIP3    H142213   1.466   3.636   8.167
14112TIP3    H242214   1.616   3.604   8.163
14113TIP3   OH242215   1.769   3.573   8.259
14113TIP3    H142216   1.783   3.478   8.276
14113TIP3    H242217   1.768   3.612   8.349
14114TIP3   OH242218   0.754   3.527   8.438
14114TIP3    H142219   0.763   3.437   8.403
14114TIP3    H242220   0.796   3.515   8.526
14115TIP3   OH242221   1.270   3.185   8.295
14115TIP3    H142222   1.339   3.117   8.283
14115TIP3    H242223   1.230   3.185   8.205
14116TIP3   OH242224   1.334   3.395   8.464
14116TIP3    H142225   1.314   3.329   8.394
14116TIP3    H242226   1.261   3.460   8.452
14117TIP3   OH242227   0.557   4.636   6.551
14117TIP3    H142228   0.652   4.628   6.533
14117TIP3    H242229   0.529   4.682   6.469
14118TIP3   OH242230   0.045   4.032   6.713
14118TIP3    H142231   0.141   4.043   6.735
14118TIP3    H242232   0.042   3.935   6.699
14119TIP3   OH242233   1.808   4.893   7.166
14119TIP3    H142234   1.845   4.909   7.254
14119TIP3    H242235   1.882   4.915   7.107
14120TIP3   OH242236   1.850   4.899   7.448
14120TIP3    H142237   1.799   4.815   7.442
14120TIP3    H242238   1.919   4.871   7.510
14121TIP3   OH242239   1.891   4.576   8.023
14121TIP3    H142240   1.817   4.583   8.086
14121TIP3    H242241   1.931   4.665   8.028
14122TIP3   OH242242   1.705   4.089   6.643
14122TIP3    H142243   1.776   4.150   6.614
14122TIP3    H242244   1.747   4.049   6.723
14123TIP3   OH242245   1.832   3.958   6.845
14123TIP3    H142246   1.770   3.915   6.907
14123TIP3    H242247   1.901   3.993   6.905
14124TIP3   OH242248   1.901   4.360   7.285
14124TIP3    H142249   1.955   4.288   7.244
14124TIP3    H242250   1.868   4.406   7.207
14125TIP3   OH242251   1.722   4.654   7.468
14125TIP3    H142252   1.647   4.681   7.524
14125TIP3    H242253   1.677   4.597   7.401
14126TIP3   OH242254   1.772   3.863   6.493
14126TIP3    H142255   1.700   3.868   6.426
14126TIP3    H242256   1.747   3.938   6.550
14127TIP3   OH242257   1.641   3.537   6.448
14127TIP3    H142258   1.603   3.576   6.369
14127TIP3    H242259   1.616   3.442   6.437
14128TIP3   OH242260   1.647   3.811   6.985
14128TIP3    H142261   1.661   3.715   6.988
14128TIP3    H242262   1.631   3.830   7.081
14129TIP3   OH242263   0.276   3.927   7.714
14129TIP3    H142264   0.275   3.874   7.633
14129TIP3    H242265   0.366   3.908   7.748
14130TIP3   OH242266   1.938   4.237   7.853
14130TIP3    H142267   2.009   4.170   7.841
14130TIP3    H242268   1.955   4.298   7.779
14131TIP3   OH242269   2.123   4.043   7.875
14131TIP3    H142270   2.047   3.991   7.909
14131TIP3    H242271   2.194   3.976   7.885
14132TIP3   OH242272   1.588   3.270   6.432
14132TIP3    H142273   1.665   3.242   6.486
14132TIP3    H242274   1.517   3.210   6.461
14133TIP3   OH242275   1.642   3.524   6.887
14133TIP3    H142276   1.684   3.437   6.901
14133TIP3    H242277   1.702   3.561   6.820
14134TIP3   OH242278   1.894   3.868   7.654
14134TIP3    H142279   1.802   3.889   7.677
14134TIP3    H242280   1.888   3.886   7.557
14135TIP3   OH242281   0.483   3.550   8.420
14135TIP3    H142282   0.578   3.569   8.404
14135TIP3    H242283   0.490   3.484   8.489
14136TIP3   OH242284   2.325   3.435   8.172
14136TIP3    H142285   2.385   3.370   8.129
14136TIP3    H242286   2.298   3.490   8.095
14137TIP3   OH242287   1.755   3.276   6.925
14137TIP3    H142288   1.804   3.261   7.008
14137TIP3    H242289   1.694   3.200   6.925
14138TIP3   OH242290   0.451   3.254   7.725
14138TIP3    H142291   0.519   3.187   7.745
14138TIP3    H242292   0.500   3.336   7.739
14139TIP3   OH242293   0.292   3.548   7.840
14139TIP3    H142294   0.313   3.537   7.746
14139TIP3    H242295   0.255   3.637   7.842
14140TIP3   OH242296   2.197   3.577   7.978
14140TIP3    H142297   2.108   3.617   7.991
14140TIP3    H242298   2.174   3.505   7.917
14141TIP3   OH242299   1.834   3.215   6.556
14141TIP3    H142300   1.877   3.142   6.507
14141TIP3    H242301   1.902   3.285   6.552
14142TIP3   OH242302   0.232   3.024   7.300
14142TIP3    H142303   0.153   3.059   7.341
14142TIP3    H242304   0.247   3.091   7.230
14143TIP3   OH242305   1.397   4.749   6.824
14143TIP3    H142306   1.446   4.729   6.741
14143TIP3    H242307   1.460   4.808   6.869
14144TIP3   OH242308   0.457   3.128   8.148
14144TIP3    H142309   0.393   3.118   8.220
14144TIP3    H242310   0.402   3.166   8.079
14145TIP3   OH242311   0.533   4.511   8.216
14145TIP3    H142312   0.448   4.558   8.201
14145TIP3    H242313   0.532   4.503   8.313
14146TIP3   OH242314   0.685   4.576   7.761
14146TIP3    H142315   0.628   4.646   7.723
14146TIP3    H242316   0.768   4.597   7.713
14147TIP3   OH242317   1.124   4.827   7.896
14147TIP3    H142318   1.166   4.826   7.984
14147TIP3    H242319   1.191   4.876   7.844
14148TIP3   OH242320   1.302   4.979   7.752
14148TIP3    H142321   1.371   4.924   7.711
14148TIP3    H242322   1.355   5.033   7.814
14149TIP3   OH242323   2.097   3.339   7.856
14149TIP3    H142324   2.007   3.337   7.819
14149TIP3    H242325   2.126   3.246   7.842
14150TIP3   OH242326   0.588   4.818   7.646
14150TIP3    H142327   0.501   4.823   7.689
14150TIP3    H242328   0.569   4.851   7.556
14151TIP3   OH242329   1.017   4.847   7.437
14151TIP3    H142330   0.951   4.869   7.369
14151TIP3    H242331   1.031   4.933   7.481
14152TIP3   OH242332   1.286   4.789   7.490
14152TIP3    H142333   1.192   4.801   7.468
14152TIP3    H242334   1.327   4.864   7.444
14153TIP3   OH242335   1.498   4.981   7.404
14153TIP3    H142336   1.481   5.063   7.353
14153TIP3    H242337   1.521   4.917   7.333
14154TIP3   OH242338   0.313   4.654   7.515
14154TIP3    H142339   0.337   4.615   7.603
14154TIP3    H242340   0.369   4.597   7.459
14155TIP3   OH242341   0.467   4.486   7.368
14155TIP3    H142342   0.479   4.406   7.424
14155TIP3    H242343   0.558   4.522   7.369
14156TIP3   OH242344   0.729   4.600   7.386
14156TIP3    H142345   0.760   4.508   7.372
14156TIP3    H242346   0.774   4.618   7.471
14157TIP3   OH242347   1.301   3.254   7.471
14157TIP3    H142348   1.258   3.184   7.523
14157TIP3    H242349   1.376   3.207   7.428
14158TIP3   OH242350   1.824   3.135   7.381
14158TIP3    H142351   1.863   3.185   7.305
14158TIP3    H242352   1.729   3.154   7.372
14159TIP3   OH242353   1.919   3.234   7.144
14159TIP3    H142354   1.991   3.181   7.104
14159TIP3    H242355   1.955   3.324   7.127
14160TIP3   OH242356   0.550   2.964   7.489
14160TIP3    H142357   0.459   2.927   7.486
14160TIP3    H242358   0.601   2.880   7.486
14161TIP3   OH242359   0.351   2.827   7.145
14161TIP3    H142360   0.366   2.883   7.067
14161TIP3    H242361   0.311   2.891   7.207
14162TIP3   OH242362   0.992   2.996   7.371
14162TIP3    H142363   1.050   3.045   7.310
14162TIP3    H242364   1.016   3.036   7.456
14163TIP3   OH242365   1.540   3.142   7.355
14163TIP3    H142366   1.541   3.106   7.265
14163TIP3    H242367   1.526   3.060   7.409
14164TIP3   OH242368   1.570   3.064   6.915
14164TIP3    H142369   1.483   3.107   6.927
14164TIP3    H242370   1.556   2.979   6.963
14165TIP3   OH242371   0.454   2.994   6.898
14165TIP3    H142372   0.504   2.931   6.842
14165TIP3    H242373   0.527   3.047   6.937
14166TIP3   OH242374   0.967   3.166   7.000
14166TIP3    H142375   1.029   3.121   7.060
14166TIP3    H242376   0.987   3.260   7.025
14167TIP3   OH242377   0.825   4.594   6.498
14167TIP3    H142378   0.914   4.615   6.464
14167TIP3    H242379   0.804   4.518   6.440
14168TIP3   OH242380   1.542   4.710   6.593
14168TIP3    H142381   1.535   4.612   6.580
14168TIP3    H242382   1.501   4.742   6.510
14169TIP3   OH242383   0.757   3.247   8.379
14169TIP3    H142384   0.722   3.173   8.433
14169TIP3    H242385   0.850   3.247   8.409
14170TIP3   OH242386   1.009   3.239   8.501
14170TIP3    H142387   1.090   3.215   8.453
14170TIP3    H242388   0.995   3.162   8.559
14171TIP3   OH242389   0.147   4.434   6.600
14171TIP3    H142390   0.169   4.528   6.615
14171TIP3    H242391   0.230   4.397   6.563
14172TIP3   OH242392   1.833   3.303   8.288
14172TIP3    H142393   1.856   3.269   8.377
14172TIP3    H242394   1.919   3.300   8.242
14173TIP3   OH242395   1.772   4.855   7.781
14173TIP3    H142396   1.693   4.821   7.733
14173TIP3    H242397   1.749   4.950   7.784
14174TIP3   OH242398   3.036   4.227   6.547
14174TIP3    H142399   3.007   4.318   6.524
14174TIP3    H242400   2.960   4.177   6.513
14175TIP3   OH242401   3.035   4.229   6.928
14175TIP3    H142402   3.066   4.194   7.013
14175TIP3    H242403   2.995   4.151   6.887
14176TIP3   OH242404   2.338   4.126   7.293
14176TIP3    H142405   2.365   4.052   7.351
14176TIP3    H242406   2.422   4.171   7.278
14177TIP3   OH242407   3.280   4.526   6.608
14177TIP3    H142408   3.266   4.455   6.672
14177TIP3    H242409   3.308   4.600   6.664
14178TIP3   OH242410   2.308   4.538   7.024
14178TIP3    H142411   2.297   4.440   7.024
14178TIP3    H242412   2.404   4.542   7.010
14179TIP3   OH242413   2.016   3.734   6.801
14179TIP3    H142414   1.973   3.818   6.823
14179TIP3    H242415   1.941   3.684   6.765
14180TIP3   OH242416   2.068   4.020   6.966
14180TIP3    H142417   2.114   3.948   7.016
14180TIP3    H242418   2.137   4.045   6.904
14181TIP3   OH242419   2.932   4.993   6.630
14181TIP3    H142420   2.974   4.926   6.572
14181TIP3    H242421   2.923   4.944   6.712
14182TIP3   OH242422   2.834   4.454   6.977
14182TIP3    H142423   2.868   4.377   6.929
14182TIP3    H242424   2.920   4.497   6.998
14183TIP3   OH242425   3.842   3.793   6.983
14183TIP3    H142426   3.908   3.861   7.008
14183TIP3    H242427   3.858   3.790   6.887
14184TIP3   OH242428   3.244   3.956   7.009
14184TIP3    H142429   3.289   3.872   7.029
14184TIP3    H242430   3.216   3.940   6.917
14185TIP3   OH242431   2.584   3.614   6.973
14185TIP3    H142432   2.563   3.687   6.912
14185TIP3    H242433   2.535   3.541   6.929
14186TIP3   OH242434   3.279   3.704   6.597
14186TIP3    H142435   3.351   3.688   6.662
14186TIP3    H242436   3.331   3.740   6.522
14187TIP3   OH242437   2.229   3.832   7.071
14187TIP3    H142438   2.294   3.802   7.136
14187TIP3    H242439   2.238   3.765   7.001
14188TIP3   OH242440   2.659   4.014   6.872
14188TIP3    H142441   2.753   3.988   6.886
14188TIP3    H242442   2.620   3.930   6.840
14189TIP3   OH242443   2.582   3.597   7.409
14189TIP3    H142444   2.523   3.633   7.340
14189TIP3    H242445   2.529   3.616   7.489
14190TIP3   OH242446   2.927   4.446   6.417
14190TIP3    H142447   2.892   4.428   6.327
14190TIP3    H242448   2.882   4.529   6.439
14191TIP3   OH242449   2.691   4.374   7.205
14191TIP3    H142450   2.625   4.438   7.241
14191TIP3    H242451   2.729   4.424   7.130
14192TIP3   OH242452   3.491   3.706   6.767
14192TIP3    H142453   3.482   3.660   6.852
14192TIP3    H242454   3.543   3.785   6.794
14193TIP3   OH242455   2.452   3.708   7.195
14193TIP3    H142456   2.512   3.783   7.215
14193TIP3    H242457   2.498   3.669   7.117
14194TIP3   OH242458   2.516   4.566   7.305
14194TIP3    H142459   2.487   4.647   7.259
14194TIP3    H242460   2.436   4.548   7.359
14195TIP3   OH242461   1.910   4.255   6.536
14195TIP3    H142462   1.872   4.282   6.450
14195TIP3    H242463   1.943   4.339   6.572
14196TIP3   OH242464   3.352   4.774   6.782
14196TIP3    H142465   3.261   4.763   6.818
14196TIP3    H242466   3.341   4.856   6.730
14197TIP3   OH242467   3.641   3.667   7.135
14197TIP3    H142468   3.556   3.707   7.108
14197TIP3    H242469   3.704   3.712   7.075
14198TIP3   OH242470   2.939   3.316   7.121
14198TIP3    H142471   2.926   3.221   7.138
14198TIP3    H242472   2.861   3.354   7.167
14199TIP3   OH242473   3.054   4.820   6.458
14199TIP3    H142474   3.101   4.738   6.433
14199TIP3    H242475   3.109   4.885   6.410
14200TIP3   OH242476   3.191   4.605   6.357
14200TIP3    H142477   3.163   4.526   6.309
14200TIP3    H242478   3.227   4.567   6.440
14201TIP3   OH242479   3.579   4.686   7.119
14201TIP3    H142480   3.567   4.607   7.062
14201TIP3    H242481   3.562   4.759   7.056
14202TIP3   OH242482   2.867   4.080   6.376
14202TIP3    H142483   2.787   4.132   6.355
14202TIP3    H242484   2.913   4.079   6.291
14203TIP3   OH242485   2.828   3.862   6.097
14203TIP3    H142486   2.896   3.913   6.146
14203TIP3    H242487   2.885   3.800   6.047
14204TIP3   OH242488   3.775   4.326   6.971
14204TIP3    H142489   3.688   4.372   6.973
14204TIP3    H242490   3.798   4.336   6.876
14205TIP3   OH242491   3.215   4.160   6.350
14205TIP3    H142492   3.160   4.186   6.428
14205TIP3    H242493   3.298   4.134   6.394
14206TIP3   OH242494   3.448   4.203   7.263
14206TIP3    H142495   3.443   4.287   7.311
14206TIP3    H242496   3.363   4.203   7.216
14207TIP3   OH242497   2.448   4.158   6.763
14207TIP3    H142498   2.406   4.100   6.696
14207TIP3    H242499   2.524   4.105   6.792
14208TIP3   OH242500   2.578   4.573   6.914
14208TIP3    H142501   2.553   4.530   6.831
14208TIP3    H242502   2.667   4.537   6.930
14209TIP3   OH242503   2.595   4.127   7.125
14209TIP3    H142504   2.616   4.108   7.031
14209TIP3    H242505   2.630   4.217   7.139
14210TIP3   OH242506   3.108   4.770   6.898
14210TIP3    H142507   3.097   4.846   6.958
14210TIP3    H242508   3.095   4.693   6.957
14211TIP3   OH242509   2.721   4.691   7.442
14211TIP3    H142510   2.660   4.750   7.490
14211TIP3    H242511   2.657   4.634   7.394
14212TIP3   OH242512   3.058   4.017   6.176
14212TIP3    H142513   3.115   4.079   6.228
14212TIP3    H242514   3.084   4.039   6.084
14213TIP3   OH242515   2.477   4.243   7.547
14213TIP3    H142516   2.476   4.329   7.592
14213TIP3    H242517   2.381   4.224   7.542
14214TIP3   OH242518   2.797   4.704   6.458
14214TIP3    H142519   2.880   4.755   6.465
14214TIP3    H242520   2.739   4.762   6.407
14215TIP3   OH242521   2.513   4.862   7.531
14215TIP3    H142522   2.483   4.853   7.439
14215TIP3    H242523   2.434   4.834   7.582
14216TIP3   OH242524   3.571   3.260   6.222
14216TIP3    H142525   3.490   3.280   6.274
14216TIP3    H242526   3.584   3.345   6.174
14217TIP3   OH242527   2.315   4.001   6.569
14217TIP3    H142528   2.249   4.045   6.512
14217TIP3    H242529   2.272   3.917   6.586
14218TIP3   OH242530   3.375   4.628   5.768
14218TIP3    H142531   3.378   4.724   5.751
14218TIP3    H242532   3.469   4.602   5.762
14219TIP3   OH242533   2.099   4.387   7.476
14219TIP3    H142534   2.030   4.369   7.407
14219TIP3    H242535   2.130   4.296   7.497
14220TIP3   OH242536   1.950   4.595   7.088
14220TIP3    H142537   2.036   4.552   7.097
14220TIP3    H242538   1.945   4.649   7.168
14221TIP3   OH242539   3.813   5.030   7.163
14221TIP3    H142540   3.813   4.933   7.174
14221TIP3    H242541   3.729   5.053   7.210
14222TIP3   OH242542   2.919   4.819   7.301
14222TIP3    H142543   2.916   4.911   7.334
14222TIP3    H242544   2.847   4.777   7.354
14223TIP3   OH242545   2.666   4.942   6.255
14223TIP3    H142546   2.629   4.936   6.166
14223TIP3    H242547   2.653   5.036   6.277
14224TIP3   OH242548   2.116   4.796   6.637
14224TIP3    H142549   2.164   4.784   6.722
14224TIP3    H242550   2.065   4.713   6.634
14225TIP3   OH242551   2.934   4.923   6.195
14225TIP3    H142552   2.840   4.907   6.214
14225TIP3    H242553   2.975   4.838   6.213
14226TIP3   OH242554   3.703   4.163   7.438
14226TIP3    H142555   3.625   4.171   7.381
14226TIP3    H242556   3.726   4.069   7.424
14227TIP3   OH242557   2.297   4.574   7.471
14227TIP3    H142558   2.349   4.548   7.550
14227TIP3    H242559   2.225   4.507   7.471
14228TIP3   OH242560   2.700   3.392   7.249
14228TIP3    H142561   2.610   3.361   7.223
14228TIP3    H242562   2.675   3.475   7.294
14229TIP3   OH242563   3.233   3.509   7.444
14229TIP3    H142564   3.301   3.479   7.508
14229TIP3    H242565   3.149   3.487   7.490
14230TIP3   OH242566   3.473   3.933   7.361
14230TIP3    H142567   3.425   3.933   7.446
14230TIP3    H242568   3.452   4.021   7.324
14231TIP3   OH242569   3.131   4.056   5.918
14231TIP3    H142570   3.101   4.034   5.828
14231TIP3    H242571   3.190   4.132   5.901
14232TIP3   OH242572   2.846   3.441   6.221
14232TIP3    H142573   2.813   3.439   6.313
14232TIP3    H242574   2.806   3.358   6.187
14233TIP3   OH242575   2.632   3.904   7.270
14233TIP3    H142576   2.579   3.926   7.350
14233TIP3    H242577   2.619   3.985   7.216
14234TIP3   OH242578   2.515   3.794   6.782
14234TIP3    H142579   2.422   3.768   6.801
14234TIP3    H242580   2.527   3.753   6.694
14235TIP3   OH242581   3.005   3.880   6.509
14235TIP3    H142582   2.951   3.951   6.468
14235TIP3    H242583   3.059   3.850   6.434
14236TIP3   OH242584   3.180   4.162   7.600
14236TIP3    H142585   3.158   4.086   7.660
14236TIP3    H242586   3.276   4.169   7.617
14237TIP3   OH242587   3.163   3.909   6.749
14237TIP3    H142588   3.103   3.939   6.677
14237TIP3    H242589   3.196   3.827   6.707
14238TIP3   OH242590   2.454   3.937   7.478
14238TIP3    H142591   2.475   4.000   7.548
14238TIP3    H242592   2.439   3.854   7.528
14239TIP3   OH242593   2.499   3.413   6.187
14239TIP3    H142594   2.491   3.411   6.284
14239TIP3    H242595   2.421   3.468   6.164
14240TIP3   OH242596   2.043   3.456   7.059
14240TIP3    H142597   2.116   3.493   7.113
14240TIP3    H242598   2.086   3.429   6.977
14241TIP3   OH242599   2.016   3.440   6.576
14241TIP3    H142600   2.062   3.479   6.499
14241TIP3    H242601   1.957   3.514   6.599
14242TIP3   OH242602   3.174   4.156   7.174
14242TIP3    H142603   3.206   4.084   7.114
14242TIP3    H242604   3.144   4.102   7.251
14243TIP3   OH242605   2.841   3.617   6.844
14243TIP3    H142606   2.758   3.615   6.896
14243TIP3    H242607   2.908   3.615   6.913
14244TIP3   OH242608   2.277   3.670   6.852
14244TIP3    H142609   2.183   3.680   6.825
14244TIP3    H242610   2.299   3.578   6.826
14245TIP3   OH242611   2.547   3.668   6.540
14245TIP3    H142612   2.641   3.684   6.518
14245TIP3    H242613   2.500   3.691   6.457
14246TIP3   OH242614   3.330   3.694   7.045
14246TIP3    H142615   3.295   3.704   7.137
14246TIP3    H242616   3.266   3.630   7.009
14247TIP3   OH242617   2.386   3.699   6.320
14247TIP3    H142618   2.314   3.657   6.269
14247TIP3    H242619   2.439   3.738   6.246
14248TIP3   OH242620   3.502   5.381   7.264
14248TIP3    H142621   3.502   5.400   7.168
14248TIP3    H242622   3.582   5.428   7.294
14249TIP3   OH242623   2.460   4.494   7.686
14249TIP3    H142624   2.540   4.520   7.735
14249TIP3    H242625   2.396   4.487   7.760
14250TIP3   OH242626   2.926   3.944   6.941
14250TIP3    H142627   2.998   3.905   6.890
14250TIP3    H242628   2.936   3.901   7.028
14251TIP3   OH242629   2.450   3.431   6.819
14251TIP3    H142630   2.416   3.351   6.865
14251TIP3    H242631   2.502   3.393   6.747
14252TIP3   OH242632   2.902   3.838   7.232
14252TIP3    H142633   2.812   3.874   7.245
14252TIP3    H242634   2.959   3.900   7.282
14253TIP3   OH242635   2.636   4.231   6.325
14253TIP3    H142636   2.562   4.166   6.316
14253TIP3    H242637   2.620   4.265   6.416
14254TIP3   OH242638   3.538   4.469   6.957
14254TIP3    H142639   3.563   4.516   6.875
14254TIP3    H242640   3.454   4.425   6.931
14255TIP3   OH242641   3.097   3.545   6.185
14255TIP3    H142642   3.000   3.529   6.194
14255TIP3    H242643   3.107   3.639   6.211
14256TIP3   OH242644   3.046   4.555   7.321
14256TIP3    H142645   3.057   4.521   7.411
14256TIP3    H242646   2.998   4.638   7.334
14257TIP3   OH242647   3.167   3.790   6.291
14257TIP3    H142648   3.263   3.797   6.307
14257TIP3    H242649   3.148   3.871   6.239
14258TIP3   OH242650   2.345   4.267   7.000
14258TIP3    H142651   2.377   4.227   6.917
14258TIP3    H242652   2.346   4.193   7.062
14259TIP3   OH242653   2.806   4.391   6.172
14259TIP3    H142654   2.751   4.471   6.159
14259TIP3    H242655   2.740   4.329   6.209
14260TIP3   OH242656   2.204   4.172   7.618
14260TIP3    H142657   2.231   4.163   7.712
14260TIP3    H242658   2.147   4.095   7.606
14261TIP3   OH242659   2.935   4.289   7.635
14261TIP3    H142660   2.875   4.230   7.586
14261TIP3    H242661   3.022   4.253   7.607
14262TIP3   OH242662   3.200   4.820   7.214
14262TIP3    H142663   3.105   4.806   7.228
14262TIP3    H242664   3.224   4.866   7.297
14263TIP3   OH242665   3.610   3.880   6.128
14263TIP3    H142666   3.548   3.835   6.065
14263TIP3    H242667   3.606   3.970   6.088
14264TIP3   OH242668   3.830   4.744   7.206
14264TIP3    H142669   3.732   4.734   7.200
14264TIP3    H242670   3.854   4.709   7.117
14265TIP3   OH242671   3.322   4.698   6.037
14265TIP3    H142672   3.280   4.632   6.093
14265TIP3    H242673   3.318   4.656   5.949
14266TIP3   OH242674   3.304   4.330   6.877
14266TIP3    H142675   3.211   4.303   6.888
14266TIP3    H242676   3.340   4.251   6.831
14267TIP3   OH242677   2.432   4.559   6.633
14267TIP3    H142678   2.434   4.637   6.574
14267TIP3    H242679   2.338   4.536   6.630
14268TIP3   OH242680   1.994   3.862   6.328
14268TIP3    H142681   2.042   3.945   6.349
14268TIP3    H242682   1.919   3.867   6.390
14269TIP3   OH242683   2.571   4.324   6.572
14269TIP3    H142684   2.538   4.414   6.592
14269TIP3    H242685   2.534   4.273   6.646
14270TIP3   OH242686   2.700   4.903   7.098
14270TIP3    H142687   2.743   4.972   7.043
14270TIP3    H242688   2.777   4.864   7.142
14271TIP3   OH242689   2.350   4.797   6.479
14271TIP3    H142690   2.265   4.804   6.525
14271TIP3    H242691   2.381   4.890   6.480
14272TIP3   OH242692   3.093   4.537   7.053
14272TIP3    H142693   3.085   4.533   7.151
14272TIP3    H242694   3.167   4.477   7.036
14273TIP3   OH242695   3.058   4.385   5.940
14273TIP3    H142696   3.109   4.385   6.024
14273TIP3    H242697   2.970   4.408   5.971
14274TIP3   OH242698   3.337   5.074   7.109
14274TIP3    H142699   3.262   5.012   7.103
14274TIP3    H242700   3.320   5.133   7.033
14275TIP3   OH242701   3.404   4.906   5.752
14275TIP3    H142702   3.435   4.984   5.702
14275TIP3    H242703   3.324   4.946   5.793
14276TIP3   OH242704   2.423   3.681   7.626
14276TIP3    H142705   2.326   3.681   7.635
14276TIP3    H242706   2.449   3.617   7.694
14277TIP3   OH242707   3.225   4.369   6.164
14277TIP3    H142708   3.215   4.298   6.231
14277TIP3    H242709   3.321   4.363   6.145
14278TIP3   OH242710   2.141   4.772   7.262
14278TIP3    H142711   2.183   4.685   7.264
14278TIP3    H242712   2.181   4.811   7.340
14279TIP3   OH242713   2.381   4.424   5.959
14279TIP3    H142714   2.437   4.377   5.897
14279TIP3    H242715   2.405   4.390   6.047
14280TIP3   OH242716   2.377   4.409   6.237
14280TIP3    H142717   2.459   4.390   6.283
14280TIP3    H242718   2.381   4.507   6.226
14281TIP3   OH242719   2.111   4.106   6.411
14281TIP3    H142720   2.046   4.151   6.468
14281TIP3    H242721   2.128   4.176   6.345
14282TIP3   OH242722   3.256   3.748   7.307
14282TIP3    H142723   3.341   3.782   7.339
14282TIP3    H242724   3.245   3.665   7.359
14283TIP3   OH242725   3.141   3.496   6.468
14283TIP3    H142726   3.126   3.520   6.374
14283TIP3    H242727   3.179   3.578   6.505
14284TIP3   OH242728   2.643   4.608   6.150
14284TIP3    H142729   2.556   4.642   6.178
14284TIP3    H242730   2.663   4.662   6.072
14285TIP3   OH242731   2.830   3.674   6.571
14285TIP3    H142732   2.894   3.746   6.553
14285TIP3    H242733   2.835   3.667   6.669
14286TIP3   OH242734   3.098   3.994   7.379
14286TIP3    H142735   3.119   4.044   7.460
14286TIP3    H242736   3.153   3.914   7.388
14287TIP3   OH242737   2.975   3.403   6.674
14287TIP3    H142738   2.968   3.480   6.734
14287TIP3    H242739   3.035   3.439   6.605
14288TIP3   OH242740   2.386   4.685   6.222
14288TIP3    H142741   2.360   4.755   6.158
14288TIP3    H242742   2.370   4.730   6.308
14289TIP3   OH242743   2.485   3.400   6.464
14289TIP3    H142744   2.483   3.490   6.500
14289TIP3    H242745   2.581   3.381   6.472
14290TIP3   OH242746   3.745   3.901   7.359
14290TIP3    H142747   3.648   3.890   7.360
14290TIP3    H242748   3.763   3.889   7.264
14291TIP3   OH242749   3.389   4.091   6.749
14291TIP3    H142750   3.315   4.029   6.760
14291TIP3    H242751   3.462   4.044   6.796
14292TIP3   OH242752   2.102   4.318   6.220
14292TIP3    H142753   2.172   4.385   6.231
14292TIP3    H242754   2.142   4.265   6.148
14293TIP3   OH242755   2.047   3.592   6.351
14293TIP3    H142756   2.049   3.690   6.346
14293TIP3    H242757   1.962   3.572   6.311
14294TIP3   OH242758   3.356   5.048   6.700
14294TIP3    H142759   3.313   5.094   6.625
14294TIP3    H242760   3.450   5.064   6.677
14295TIP3   OH242761   2.434   3.312   7.226
14295TIP3    H142762   2.403   3.279   7.138
14295TIP3    H242763   2.424   3.233   7.282
14296TIP3   OH242764   1.980   4.540   6.607
14296TIP3    H142765   1.903   4.564   6.661
14296TIP3    H242766   1.953   4.574   6.519
14297TIP3   OH242767   2.117   5.058   7.685
14297TIP3    H142768   2.209   5.054   7.716
14297TIP3    H242769   2.096   4.963   7.680
14298TIP3   OH242770   2.616   5.052   7.705
14298TIP3    H142771   2.703   5.017   7.728
14298TIP3    H242772   2.586   4.981   7.643
14299TIP3   OH242773   3.247   4.946   7.458
14299TIP3    H142774   3.239   4.873   7.523
14299TIP3    H242775   3.328   4.992   7.486
14300TIP3   OH242776   2.260   4.479   7.877
14300TIP3    H142777   2.276   4.382   7.882
14300TIP3    H242778   2.173   4.481   7.832
14301TIP3   OH242779   2.235   4.126   6.069
14301TIP3    H142780   2.294   4.094   6.140
14301TIP3    H242781   2.299   4.141   5.998
14302TIP3   OH242782   2.867   4.562   7.650
14302TIP3    H142783   2.826   4.575   7.563
14302TIP3    H242784   2.899   4.469   7.645
14303TIP3   OH242785   3.363   4.571   7.259
14303TIP3    H142786   3.435   4.616   7.212
14303TIP3    H242787   3.288   4.630   7.242
14304TIP3   OH242788   2.378   4.215   7.858
14304TIP3    H142789   2.451   4.155   7.835
14304TIP3    H242790   2.405   4.245   7.947
14305TIP3   OH242791   2.443   4.032   6.291
14305TIP3    H142792   2.418   3.991   6.376
14305TIP3    H242793   2.481   3.956   6.242
14306TIP3   OH242794   2.718   4.101   7.525
14306TIP3    H142795   2.637   4.157   7.524
14306TIP3    H242796   2.764   4.132   7.444
14307TIP3   OH242797   2.547   3.825   6.139
14307TIP3    H142798   2.518   3.824   6.045
14307TIP3    H242799   2.644   3.832   6.128
14308TIP3   OH242800   3.235   4.502   7.656
14308TIP3    H142801   3.310   4.473   7.603
14308TIP3    H242802   3.229   4.431   7.723
14309TIP3   OH242803   3.383   4.164   5.787
14309TIP3    H142804   3.347   4.117   5.710
14309TIP3    H242805   3.339   4.251   5.776
14310TIP3   OH242806   2.837   3.885   7.648
14310TIP3    H142807   2.838   3.805   7.592
14310TIP3    H242808   2.795   3.951   7.590
14311TIP3   OH242809   2.840   3.672   7.455
14311TIP3    H142810   2.868   3.712   7.370
14311TIP3    H242811   2.747   3.649   7.436
14312TIP3   OH242812   2.871   4.212   7.330
14312TIP3    H142813   2.950   4.212   7.275
14312TIP3    H242814   2.813   4.275   7.283
14313TIP3   OH242815   3.454   4.175   7.712
14313TIP3    H142816   3.497   4.088   7.715
14313TIP3    H242817   3.523   4.229   7.670
14314TIP3   OH242818   3.491   4.432   7.451
14314TIP3    H142819   3.435   4.483   7.389
14314TIP3    H242820   3.579   4.446   7.410
14315TIP3   OH242821   2.716   3.999   7.878
14315TIP3    H142822   2.647   3.930   7.891
14315TIP3    H242823   2.750   3.975   7.790
14316TIP3   OH242824   2.973   3.436   7.521
14316TIP3    H142825   2.924   3.518   7.498
14316TIP3    H242826   2.904   3.368   7.508
14317TIP3   OH242827   3.097   3.942   7.737
14317TIP3    H142828   3.085   3.928   7.833
14317TIP3    H242829   3.008   3.916   7.706
14318TIP3   OH242830   3.340   3.897   7.595
14318TIP3    H142831   3.264   3.891   7.655
14318TIP3    H242832   3.413   3.861   7.650
14319TIP3   OH242833   3.567   3.830   7.745
14319TIP3    H142834   3.580   3.734   7.762
14319TIP3    H242835   3.566   3.868   7.835
14320TIP3   OH242836   2.555   3.779   7.930
14320TIP3    H142837   2.561   3.689   7.893
14320TIP3    H242838   2.592   3.764   8.020
14321TIP3   OH242839   3.067   3.446   7.778
14321TIP3    H142840   3.135   3.375   7.773
14321TIP3    H242841   3.028   3.439   7.689
14322TIP3   OH242842   3.133   3.660   7.937
14322TIP3    H142843   3.112   3.589   7.873
14322TIP3    H242844   3.055   3.719   7.929
14323TIP3   OH242845   2.374   4.893   6.036
14323TIP3    H142846   2.458   4.895   5.988
14323TIP3    H242847   2.316   4.924   5.964
14324TIP3   OH242848   1.833   4.271   6.254
14324TIP3    H142849   1.928   4.294   6.240
14324TIP3    H242850   1.829   4.182   6.214
14325TIP3   OH242851   1.744   4.884   6.669
14325TIP3    H142852   1.680   4.820   6.632
14325TIP3    H242853   1.791   4.827   6.734
14326TIP3   OH242854   1.880   4.739   6.857
14326TIP3    H142855   1.877   4.661   6.915
14326TIP3    H242856   1.933   4.797   6.914
14327TIP3   OH242857   3.609   5.140   6.653
14327TIP3    H142858   3.643   5.168   6.739
14327TIP3    H242859   3.675   5.174   6.591
14328TIP3   OH242860   3.642   5.157   6.937
14328TIP3    H142861   3.594   5.072   6.930
14328TIP3    H242862   3.717   5.128   6.992
14329TIP3   OH242863   3.687   4.833   7.509
14329TIP3    H142864   3.613   4.838   7.573
14329TIP3    H242865   3.726   4.922   7.515
14330TIP3   OH242866   3.503   4.342   6.130
14330TIP3    H142867   3.570   4.408   6.101
14330TIP3    H242868   3.547   4.304   6.209
14331TIP3   OH242869   3.632   4.212   6.334
14331TIP3    H142870   3.565   4.170   6.393
14331TIP3    H242871   3.695   4.250   6.398
14332TIP3   OH242872   3.684   4.605   6.766
14332TIP3    H142873   3.739   4.538   6.721
14332TIP3    H242874   3.676   4.675   6.699
14333TIP3   OH242875   3.518   4.908   6.960
14333TIP3    H142876   3.444   4.943   7.012
14333TIP3    H242877   3.471   4.857   6.890
14334TIP3   OH242878   3.570   4.118   5.981
14334TIP3    H142879   3.501   4.123   5.911
14334TIP3    H242880   3.542   4.194   6.036
14335TIP3   OH242881   3.443   3.791   5.933
14335TIP3    H142882   3.394   3.834   5.862
14335TIP3    H242883   3.416   3.698   5.921
14336TIP3   OH242884   3.445   4.068   6.480
14336TIP3    H142885   3.454   3.972   6.476
14336TIP3    H242886   3.432   4.084   6.577
14337TIP3   OH242887   2.086   4.193   7.193
14337TIP3    H142888   2.064   4.121   7.130
14337TIP3    H242889   2.170   4.160   7.232
14338TIP3   OH242890   3.734   4.493   7.338
14338TIP3    H142891   3.805   4.425   7.330
14338TIP3    H242892   3.758   4.555   7.267
14339TIP3   OH242893   3.922   4.302   7.361
14339TIP3    H142894   3.846   4.249   7.391
14339TIP3    H242895   3.994   4.238   7.379
14340TIP3   OH242896   3.384   3.525   5.918
14340TIP3    H142897   3.459   3.497   5.974
14340TIP3    H242898   3.311   3.469   5.946
14341TIP3   OH242899   3.441   3.784   6.375
14341TIP3    H142900   3.481   3.695   6.390
14341TIP3    H242901   3.499   3.817   6.305
14342TIP3   OH242902   3.598   3.957   6.865
14342TIP3    H142903   3.682   3.988   6.824
14342TIP3    H242904   3.614   3.990   6.956
14343TIP3   OH242905   3.653   4.097   7.098
14343TIP3    H142906   3.583   4.143   7.147
14343TIP3    H242907   3.707   4.170   7.063
14344TIP3   OH242908   2.288   3.829   7.902
14344TIP3    H142909   2.386   3.821   7.901
14344TIP3    H242910   2.264   3.743   7.943
14345TIP3   OH242911   4.127   3.696   7.658
14345TIP3    H142912   4.182   3.629   7.612
14345TIP3    H242913   4.094   3.750   7.583
14346TIP3   OH242914   3.551   3.534   6.411
14346TIP3    H142915   3.599   3.519   6.495
14346TIP3    H242916   3.490   3.457   6.411
14347TIP3   OH242917   2.247   3.520   7.238
14347TIP3    H142918   2.311   3.446   7.243
14347TIP3    H242919   2.308   3.596   7.227
14348TIP3   OH242920   3.992   3.840   7.470
14348TIP3    H142921   3.901   3.875   7.468
14348TIP3    H242922   3.984   3.775   7.398
14349TIP3   OH242923   3.631   3.471   6.044
14349TIP3    H142924   3.672   3.398   5.993
14349TIP3    H242925   3.699   3.541   6.039
14350TIP3   OH242926   2.036   3.296   6.803
14350TIP3    H142927   1.943   3.296   6.831
14350TIP3    H242928   2.034   3.356   6.726
14351TIP3   OH242929   3.207   5.001   6.322
14351TIP3    H142930   3.240   4.978   6.233
14351TIP3    H242931   3.268   5.071   6.347
14352TIP3   OH242932   2.256   3.382   7.622
14352TIP3    H142933   2.203   3.375   7.703
14352TIP3    H242934   2.189   3.417   7.560
14353TIP3   OH242935   2.295   4.814   7.703
14353TIP3    H142936   2.209   4.776   7.678
14353TIP3    H242937   2.306   4.777   7.792
14354TIP3   OH242938   2.473   4.840   7.249
14354TIP3    H142939   2.425   4.913   7.204
14354TIP3    H242940   2.559   4.851   7.203
14355TIP3   OH242941   2.914   5.092   7.388
14355TIP3    H142942   2.962   5.084   7.473
14355TIP3    H242943   2.983   5.134   7.332
14356TIP3   OH242944   3.096   5.235   7.241
14356TIP3    H142945   3.163   5.182   7.195
14356TIP3    H242946   3.153   5.289   7.300
14357TIP3   OH242947   3.893   3.595   7.345
14357TIP3    H142948   3.805   3.597   7.304
14357TIP3    H242949   3.921   3.502   7.327
14358TIP3   OH242950   2.158   5.122   7.275
14358TIP3    H142951   2.068   5.149   7.248
14358TIP3    H242952   2.139   5.080   7.360
14359TIP3   OH242953   2.388   5.078   7.127
14359TIP3    H142954   2.303   5.097   7.173
14359TIP3    H242955   2.368   5.104   7.035
14360TIP3   OH242956   2.812   5.102   6.926
14360TIP3    H142957   2.746   5.119   6.856
14360TIP3    H242958   2.825   5.192   6.962
14361TIP3   OH242959   3.081   5.048   6.980
14361TIP3    H142960   2.987   5.057   6.955
14361TIP3    H242961   3.123   5.115   6.925
14362TIP3   OH242962   3.294   5.238   6.890
14362TIP3    H142963   3.276   5.319   6.839
14362TIP3    H242964   3.317   5.174   6.819
14363TIP3   OH242965   2.063   4.892   7.019
14363TIP3    H142966   2.091   4.858   7.107
14363TIP3    H242967   2.131   4.846   6.964
14364TIP3   OH242968   2.253   4.762   6.872
14364TIP3    H142969   2.268   4.676   6.918
14364TIP3    H242970   2.345   4.795   6.864
14365TIP3   OH242971   2.523   4.857   6.871
14365TIP3    H142972   2.552   4.766   6.852
14365TIP3    H242973   2.568   4.871   6.957
14366TIP3   OH242974   3.097   3.511   6.959
14366TIP3    H142975   3.054   3.441   7.012
14366TIP3    H242976   3.170   3.463   6.916
14367TIP3   OH242977   3.622   3.386   6.862
14367TIP3    H142978   3.658   3.442   6.790
14367TIP3    H242979   3.527   3.410   6.860
14368TIP3   OH242980   3.717   3.493   6.628
14368TIP3    H142981   3.790   3.442   6.588
14368TIP3    H242982   3.749   3.584   6.614
14369TIP3   OH242983   2.346   3.220   6.977
14369TIP3    H142984   2.254   3.187   6.978
14369TIP3    H242985   2.395   3.135   6.975
14370TIP3   OH242986   2.127   3.090   6.621
14370TIP3    H142987   2.161   3.148   6.551
14370TIP3    H242988   2.102   3.154   6.691
14371TIP3   OH242989   2.789   3.252   6.856
14371TIP3    H142990   2.848   3.303   6.798
14371TIP3    H242991   2.810   3.290   6.943
14372TIP3   OH242992   3.337   3.399   6.842
14372TIP3    H142993   3.335   3.363   6.753
14372TIP3    H242994   3.323   3.318   6.896
14373TIP3   OH242995   3.366   3.321   6.402
14373TIP3    H142996   3.280   3.364   6.415
14373TIP3    H242997   3.351   3.236   6.450
14374TIP3   OH242998   1.849   4.659   6.405
14374TIP3    H142999   1.765   4.624   6.370
14374TIP3    H243000   1.837   4.753   6.384
14375TIP3   OH243001   2.249   3.250   6.387
14375TIP3    H143002   2.299   3.187   6.331
14375TIP3    H243003   2.321   3.305   6.424
14376TIP3   OH243004   2.763   3.423   6.486
14376TIP3    H143005   2.822   3.377   6.547
14376TIP3    H243006   2.783   3.516   6.511
14377TIP3   OH243007   3.341   4.966   6.081
14377TIP3    H143008   3.337   4.868   6.067
14377TIP3    H243009   3.293   4.997   6.001
14378TIP3   OH243010   2.553   3.502   7.870
14378TIP3    H143011   2.521   3.429   7.926
14378TIP3    H243012   2.648   3.502   7.894
14379TIP3   OH243013   2.804   3.499   7.987
14379TIP3    H143014   2.887   3.473   7.945
14379TIP3    H243015   2.792   3.428   8.053
14380TIP3   OH243016   1.931   4.690   6.043
14380TIP3    H143017   1.937   4.701   6.139
14380TIP3    H243018   2.013   4.638   6.022
14381TIP3   OH243019   3.628   3.560   7.774
14381TIP3    H143020   3.648   3.527   7.865
14381TIP3    H243021   3.716   3.554   7.731
14382TIP3   OH243022   3.567   5.112   7.269
14382TIP3    H143023   3.490   5.078   7.219
14382TIP3    H243024   3.545   5.207   7.271
14383TIP3   OH243025   4.832   4.484   6.033
14383TIP3    H143026   4.804   4.575   6.011
14383TIP3    H243027   4.756   4.434   5.999
14384TIP3   OH243028   4.834   4.484   6.412
14384TIP3    H143029   4.862   4.450   6.499
14384TIP3    H243030   4.790   4.407   6.373
14385TIP3   OH243031   4.132   4.384   6.778
14385TIP3    H143032   4.163   4.314   6.839
14385TIP3    H243033   4.213   4.434   6.766
14386TIP3   OH243034   5.078   4.782   6.095
14386TIP3    H143035   5.060   4.714   6.161
14386TIP3    H243036   5.103   4.859   6.149
14387TIP3   OH243037   4.104   4.791   6.509
14387TIP3    H143038   4.094   4.693   6.509
14387TIP3    H243039   4.200   4.797   6.496
14388TIP3   OH243040   3.811   3.994   6.289
14388TIP3    H143041   3.761   4.076   6.304
14388TIP3    H243042   3.740   3.937   6.253
14389TIP3   OH243043   3.871   4.280   6.462
14389TIP3    H143044   3.919   4.202   6.500
14389TIP3    H243045   3.927   4.301   6.386
14390TIP3   OH243046   4.724   5.248   6.112
14390TIP3    H143047   4.770   5.179   6.060
14390TIP3    H243048   4.719   5.206   6.199
14391TIP3   OH243049   4.630   4.710   6.463
14391TIP3    H143050   4.665   4.634   6.413
14391TIP3    H243051   4.716   4.753   6.486
14392TIP3   OH243052   5.641   4.029   6.460
14392TIP3    H143053   5.672   4.111   6.503
14392TIP3    H243054   5.667   4.046   6.367
14393TIP3   OH243055   5.045   4.212   6.496
14393TIP3    H143056   5.087   4.125   6.513
14393TIP3    H243057   5.012   4.198   6.405
14394TIP3   OH243058   4.385   3.870   6.457
14394TIP3    H143059   4.360   3.943   6.397
14394TIP3    H243060   4.334   3.797   6.416
14395TIP3   OH243061   5.074   3.962   6.083
14395TIP3    H143062   5.146   3.946   6.148
14395TIP3    H243063   5.125   3.997   6.008
14396TIP3   OH243064   4.019   4.073   6.566
14396TIP3    H143065   4.099   4.050   6.616
14396TIP3    H243066   4.031   4.016   6.488
14397TIP3   OH243067   4.455   4.271   6.360
14397TIP3    H143068   4.549   4.244   6.373
14397TIP3    H243069   4.415   4.187   6.328
14398TIP3   OH243070   5.715   4.233   6.633
14398TIP3    H143071   5.633   4.284   6.616
14398TIP3    H243072   5.746   4.274   6.716
14399TIP3   OH243073   4.372   3.855   6.898
14399TIP3    H143074   4.315   3.895   6.829
14399TIP3    H243075   4.307   3.860   6.972
14400TIP3   OH243076   4.726   4.703   5.903
14400TIP3    H143077   4.688   4.684   5.815
14400TIP3    H243078   4.679   4.787   5.925
14401TIP3   OH243079   4.487   4.629   6.692
14401TIP3    H143080   4.422   4.693   6.728
14401TIP3    H243081   4.525   4.680   6.617
14402TIP3   OH243082   5.286   3.964   6.253
14402TIP3    H143083   5.281   3.910   6.333
14402TIP3    H243084   5.341   4.039   6.281
14403TIP3   OH243085   4.253   3.973   6.676
14403TIP3    H143086   4.318   4.042   6.700
14403TIP3    H243087   4.300   3.928   6.603
14404TIP3   OH243088   4.313   4.823   6.791
14404TIP3    H143089   4.285   4.905   6.746
14404TIP3    H243090   4.233   4.805   6.844
14405TIP3   OH243091   3.708   4.510   6.024
14405TIP3    H143092   3.666   4.533   5.939
14405TIP3    H243093   3.735   4.597   6.058
14406TIP3   OH243094   5.148   5.029   6.266
14406TIP3    H143095   5.058   5.020   6.304
14406TIP3    H243096   5.139   5.113   6.217
14407TIP3   OH243097   5.435   3.931   6.627
14407TIP3    H143098   5.348   3.957   6.593
14407TIP3    H243099   5.496   3.961   6.556
14408TIP3   OH243100   4.736   3.574   6.611
14408TIP3    H143101   4.720   3.479   6.625
14408TIP3    H243102   4.658   3.612   6.656
14409TIP3   OH243103   4.849   5.075   5.942
14409TIP3    H143104   4.897   4.993   5.918
14409TIP3    H243105   4.909   5.140   5.898
14410TIP3   OH243106   4.988   4.860   5.844
14410TIP3    H143107   4.952   4.782   5.801
14410TIP3    H243108   5.025   4.822   5.927
14411TIP3   OH243109   5.372   4.942   6.606
14411TIP3    H143110   5.361   4.864   6.547
14411TIP3    H243111   5.355   5.016   6.545
14412TIP3   OH243112   4.664   4.336   5.864
14412TIP3    H143113   4.583   4.388   5.844
14412TIP3    H243114   4.708   4.335   5.777
14413TIP3   OH243115   4.623   4.120   5.583
14413TIP3    H143116   4.691   4.170   5.631
14413TIP3    H243117   4.680   4.058   5.533
14414TIP3   OH243118   5.567   4.578   6.452
14414TIP3    H143119   5.484   4.631   6.457
14414TIP3    H243120   5.597   4.602   6.361
14415TIP3   OH243121   5.011   4.418   5.836
14415TIP3    H143122   4.956   4.443   5.914
14415TIP3    H243123   5.094   4.392   5.881
14416TIP3   OH243124   5.246   4.457   6.746
14416TIP3    H143125   5.243   4.542   6.793
14416TIP3    H243126   5.159   4.459   6.701
14417TIP3   OH243127   4.243   4.416   6.252
14417TIP3    H143128   4.201   4.359   6.185
14417TIP3    H243129   4.320   4.362   6.280
14418TIP3   OH243130   4.372   4.826   6.402
14418TIP3    H143131   4.349   4.787   6.316
14418TIP3    H243132   4.462   4.792   6.418
14419TIP3   OH243133   4.382   4.386   6.609
14419TIP3    H143134   4.411   4.365   6.517
14419TIP3    H243135   4.424   4.473   6.626
14420TIP3   OH243136   4.905   5.025   6.384
14420TIP3    H143137   4.892   5.104   6.439
14420TIP3    H243138   4.891   4.951   6.446
14421TIP3   OH243139   4.518   4.945   6.934
14421TIP3    H143140   4.454   5.007   6.975
14421TIP3    H243141   4.455   4.890   6.882
14422TIP3   OH243142   4.854   4.274   5.662
14422TIP3    H143143   4.911   4.335   5.714
14422TIP3    H243144   4.880   4.298   5.569
14423TIP3   OH243145   4.273   4.505   7.030
14423TIP3    H143146   4.271   4.590   7.078
14423TIP3    H243147   4.179   4.479   7.034
14424TIP3   OH243148   4.593   4.959   5.940
14424TIP3    H143149   4.674   5.011   5.953
14424TIP3    H243150   4.533   5.022   5.899
14425TIP3   OH243151   4.312   5.114   7.017
14425TIP3    H143152   4.279   5.112   6.925
14425TIP3    H243153   4.232   5.090   7.068
14426TIP3   OH243154   5.367   3.517   5.709
14426TIP3    H143155   5.286   3.537   5.761
14426TIP3    H243156   5.379   3.601   5.661
14427TIP3   OH243157   4.109   4.259   6.058
14427TIP3    H143158   4.045   4.303   6.000
14427TIP3    H243159   4.067   4.173   6.072
14428TIP3   OH243160   5.181   4.879   5.242
14428TIP3    H143161   5.172   4.976   5.235
14428TIP3    H243162   5.277   4.867   5.252
14429TIP3   OH243163   3.892   4.642   6.963
14429TIP3    H143164   3.827   4.619   6.894
14429TIP3    H243165   3.927   4.554   6.988
14430TIP3   OH243166   3.744   4.836   6.596
14430TIP3    H143167   3.840   4.824   6.585
14430TIP3    H243168   3.740   4.914   6.652
14431TIP3   OH243169   5.610   5.286   6.651
14431TIP3    H143170   5.609   5.189   6.665
14431TIP3    H243171   5.527   5.311   6.697
14432TIP3   OH243172   4.717   5.072   6.789
14432TIP3    H143173   4.715   5.165   6.819
14432TIP3    H243174   4.643   5.034   6.841
14433TIP3   OH243175   4.462   5.196   5.747
14433TIP3    H143176   4.429   5.182   5.657
14433TIP3    H243177   4.444   5.290   5.763
14434TIP3   OH243178   3.913   5.052   6.123
14434TIP3    H143179   3.960   5.041   6.208
14434TIP3    H243180   3.859   4.971   6.121
14435TIP3   OH243181   4.718   5.162   5.658
14435TIP3    H143182   4.634   5.160   5.706
14435TIP3    H243183   4.774   5.101   5.709
14436TIP3   OH243184   5.499   4.415   6.928
14436TIP3    H143185   5.421   4.431   6.872
14436TIP3    H243186   5.516   4.320   6.912
14437TIP3   OH243187   4.093   4.828   6.955
14437TIP3    H143188   4.145   4.806   7.035
14437TIP3    H243189   4.021   4.762   6.958
14438TIP3   OH243190   4.496   3.653   6.737
14438TIP3    H143191   4.407   3.619   6.711
14438TIP3    H243192   4.469   3.734   6.783
14439TIP3   OH243193   5.027   3.768   6.934
14439TIP3    H143194   5.089   3.729   6.998
14439TIP3    H243195   4.939   3.746   6.972
14440TIP3   OH243196   5.268   4.193   6.851
14440TIP3    H143197   5.214   4.196   6.933
14440TIP3    H243198   5.247   4.279   6.809
14441TIP3   OH243199   4.927   4.321   5.405
14441TIP3    H143200   4.898   4.292   5.317
14441TIP3    H243201   5.001   4.380   5.382
14442TIP3   OH243202   4.642   3.697   5.708
14442TIP3    H143203   4.608   3.695   5.799
14442TIP3    H243204   4.602   3.615   5.674
14443TIP3   OH243205   4.435   4.165   6.757
14443TIP3    H143206   4.378   4.182   6.836
14443TIP3    H243207   4.414   4.245   6.703
14444TIP3   OH243208   4.311   4.051   6.269
14444TIP3    H143209   4.218   4.025   6.287
14444TIP3    H243210   4.324   4.010   6.180
14445TIP3   OH243211   4.802   4.137   5.997
14445TIP3    H143212   4.748   4.208   5.955
14445TIP3    H243213   4.855   4.107   5.921
14446TIP3   OH243214   4.976   4.418   7.087
14446TIP3    H143215   4.953   4.345   7.149
14446TIP3    H243216   5.072   4.428   7.105
14447TIP3   OH243217   4.960   4.166   6.236
14447TIP3    H143218   4.899   4.196   6.165
14447TIP3    H243219   4.992   4.084   6.193
14448TIP3   OH243220   4.250   4.206   6.953
14448TIP3    H143221   4.258   4.245   7.041
14448TIP3    H243222   4.201   4.123   6.975
14449TIP3   OH243223   4.295   3.670   5.674
14449TIP3    H143224   4.288   3.668   5.771
14449TIP3    H243225   4.217   3.724   5.650
14450TIP3   OH243226   3.838   3.716   6.540
14450TIP3    H143227   3.912   3.747   6.596
14450TIP3    H243228   3.883   3.682   6.461
14451TIP3   OH243229   3.814   3.697   6.063
14451TIP3    H143230   3.859   3.736   5.986
14451TIP3    H243231   3.753   3.770   6.085
14452TIP3   OH243232   4.973   4.412   6.660
14452TIP3    H143233   5.004   4.340   6.601
14452TIP3    H243234   4.940   4.359   6.736
14453TIP3   OH243235   4.639   3.873   6.331
14453TIP3    H143236   4.554   3.871   6.380
14453TIP3    H243237   4.703   3.873   6.403
14454TIP3   OH243238   4.074   3.929   6.337
14454TIP3    H143239   3.979   3.937   6.312
14454TIP3    H243240   4.095   3.836   6.317
14455TIP3   OH243241   4.343   3.925   6.026
14455TIP3    H143242   4.437   3.941   6.004
14455TIP3    H243243   4.295   3.947   5.944
14456TIP3   OH243244   5.130   3.948   6.535
14456TIP3    H143245   5.089   3.960   6.624
14456TIP3    H243246   5.066   3.886   6.495
14457TIP3   OH243247   4.183   3.957   5.807
14457TIP3    H143248   4.110   3.914   5.759
14457TIP3    H243249   4.234   3.994   5.732
14458TIP3   OH243250   5.299   5.637   6.751
14458TIP3    H143251   5.297   5.660   6.656
14458TIP3    H243252   5.377   5.687   6.782
14459TIP3   OH243253   4.256   4.752   7.172
14459TIP3    H143254   4.334   4.785   7.221
14459TIP3    H243255   4.191   4.742   7.245
14460TIP3   OH243256   4.722   4.201   6.430
14460TIP3    H143257   4.793   4.159   6.378
14460TIP3    H243258   4.730   4.157   6.516
14461TIP3   OH243259   4.246   3.688   6.306
14461TIP3    H143260   4.210   3.610   6.353
14461TIP3    H243261   4.295   3.648   6.233
14462TIP3   OH243262   4.699   4.096   6.716
14462TIP3    H143263   4.608   4.129   6.729
14462TIP3    H243264   4.753   4.158   6.768
14463TIP3   OH243265   4.434   4.487   5.812
14463TIP3    H143266   4.360   4.422   5.802
14463TIP3    H243267   4.415   4.522   5.902
14464TIP3   OH243268   5.335   4.724   6.443
14464TIP3    H143269   5.359   4.773   6.362
14464TIP3    H243270   5.250   4.682   6.418
14465TIP3   OH243271   4.893   3.801   5.673
14465TIP3    H143272   4.797   3.784   5.681
14465TIP3    H243273   4.902   3.895   5.697
14466TIP3   OH243274   4.839   4.809   6.808
14466TIP3    H143275   4.851   4.781   6.899
14466TIP3    H243276   4.797   4.896   6.816
14467TIP3   OH243277   4.963   4.047   5.778
14467TIP3    H143278   5.059   4.055   5.794
14467TIP3    H243279   4.943   4.127   5.726
14468TIP3   OH243280   4.131   4.515   6.489
14468TIP3    H143281   4.165   4.483   6.404
14468TIP3    H243282   4.159   4.446   6.550
14469TIP3   OH243283   4.602   4.648   5.656
14469TIP3    H143284   4.545   4.728   5.648
14469TIP3    H243285   4.539   4.584   5.694
14470TIP3   OH243286   4.005   4.430   7.102
14470TIP3    H143287   4.019   4.408   7.196
14470TIP3    H243288   3.938   4.364   7.077
14471TIP3   OH243289   4.729   4.544   7.125
14471TIP3    H143290   4.665   4.486   7.079
14471TIP3    H243291   4.814   4.509   7.090
14472TIP3   OH243292   4.997   5.068   6.705
14472TIP3    H143293   4.900   5.063   6.717
14472TIP3    H243294   5.022   5.120   6.784
14473TIP3   OH243295   5.407   4.136   5.613
14473TIP3    H143296   5.344   4.092   5.551
14473TIP3    H243297   5.401   4.226   5.574
14474TIP3   OH243298   5.622   4.994   6.695
14474TIP3    H143299   5.524   4.989   6.686
14474TIP3    H243300   5.648   4.964   6.605
14475TIP3   OH243301   5.127   4.951   5.523
14475TIP3    H143302   5.075   4.894   5.580
14475TIP3    H243303   5.097   4.923   5.434
14476TIP3   OH243304   5.101   4.585   6.364
14476TIP3    H143305   5.007   4.560   6.375
14476TIP3    H243306   5.135   4.507   6.317
14477TIP3   OH243307   4.228   4.816   6.120
14477TIP3    H143308   4.230   4.893   6.061
14477TIP3    H243309   4.134   4.792   6.116
14478TIP3   OH243310   3.790   4.119   5.816
14478TIP3    H143311   3.837   4.203   5.837
14478TIP3    H243312   3.714   4.124   5.878
14479TIP3   OH243313   4.369   4.581   6.061
14479TIP3    H143314   4.334   4.670   6.078
14479TIP3    H243315   4.330   4.530   6.134
14480TIP3   OH243316   4.496   5.159   6.584
14480TIP3    H143317   4.536   5.230   6.531
14480TIP3    H243318   4.575   5.123   6.628
14481TIP3   OH243319   4.147   5.053   5.966
14481TIP3    H143320   4.061   5.061   6.012
14481TIP3    H243321   4.178   5.146   5.968
14482TIP3   OH243322   4.887   4.792   6.539
14482TIP3    H143323   4.879   4.790   6.638
14482TIP3    H243324   4.965   4.736   6.525
14483TIP3   OH243325   4.850   4.666   5.423
14483TIP3    H143326   4.910   4.653   5.500
14483TIP3    H243327   4.764   4.660   5.468
14484TIP3   OH243328   5.134   5.328   6.593
14484TIP3    H143329   5.055   5.270   6.584
14484TIP3    H243330   5.119   5.391   6.520
14485TIP3   OH243331   5.198   5.161   5.242
14485TIP3    H143332   5.221   5.234   5.182
14485TIP3    H243333   5.115   5.198   5.280
14486TIP3   OH243334   5.019   4.620   5.641
14486TIP3    H143335   5.010   4.553   5.712
14486TIP3    H243336   5.116   4.619   5.628
14487TIP3   OH243337   3.934   5.023   6.744
14487TIP3    H143338   3.982   4.942   6.765
14487TIP3    H243339   3.973   5.084   6.808
14488TIP3   OH243340   4.154   4.674   5.726
14488TIP3    H143341   4.243   4.640   5.740
14488TIP3    H243342   4.170   4.769   5.709
14489TIP3   OH243343   3.908   4.363   5.898
14489TIP3    H143344   3.841   4.408   5.954
14489TIP3    H243345   3.925   4.433   5.832
14490TIP3   OH243346   5.051   4.005   6.796
14490TIP3    H143347   5.138   4.036   6.825
14490TIP3    H243348   5.038   3.922   6.846
14491TIP3   OH243349   4.936   3.752   5.955
14491TIP3    H143350   4.921   3.776   5.861
14491TIP3    H243351   4.974   3.835   5.991
14492TIP3   OH243352   4.436   4.869   5.645
14492TIP3    H143353   4.348   4.893   5.680
14492TIP3    H243354   4.460   4.952   5.601
14493TIP3   OH243355   4.628   3.930   6.058
14493TIP3    H143356   4.691   4.003   6.040
14493TIP3    H243357   4.631   3.924   6.156
14494TIP3   OH243358   4.893   4.251   6.864
14494TIP3    H143359   4.913   4.302   6.945
14494TIP3    H243360   4.947   4.171   6.874
14495TIP3   OH243361   4.771   3.660   6.163
14495TIP3    H143362   4.760   3.739   6.219
14495TIP3    H243363   4.831   3.696   6.093
14496TIP3   OH243364   4.182   4.947   5.711
14496TIP3    H143365   4.150   5.018   5.650
14496TIP3    H243366   4.165   4.987   5.799
14497TIP3   OH243367   4.281   3.656   5.950
14497TIP3    H143368   4.278   3.747   5.987
14497TIP3    H243369   4.377   3.638   5.959
14498TIP3   OH243370   5.535   4.148   6.852
14498TIP3    H143371   5.437   4.148   6.848
14498TIP3    H243372   5.556   4.116   6.763
14499TIP3   OH243373   5.186   4.346   6.235
14499TIP3    H143374   5.110   4.285   6.246
14499TIP3    H243375   5.258   4.297   6.283
14500TIP3   OH243376   3.900   4.579   5.701
14500TIP3    H143377   3.981   4.632   5.722
14500TIP3    H243378   3.940   4.521   5.633
14501TIP3   OH243379   3.844   3.849   5.837
14501TIP3    H143380   3.843   3.947   5.833
14501TIP3    H243381   3.757   3.827   5.801
14502TIP3   OH243382   5.154   5.301   6.186
14502TIP3    H143383   5.110   5.348   6.111
14502TIP3    H243384   5.248   5.318   6.163
14503TIP3   OH243385   4.235   3.568   6.711
14503TIP3    H143386   4.199   3.536   6.626
14503TIP3    H243387   4.221   3.490   6.769
14504TIP3   OH243388   3.774   4.797   6.095
14504TIP3    H143389   3.694   4.819   6.146
14504TIP3    H243390   3.748   4.830   6.006
14505TIP3   OH243391   3.924   5.328   7.165
14505TIP3    H143392   4.011   5.325   7.210
14505TIP3    H243393   3.901   5.234   7.161
14506TIP3   OH243394   4.406   5.295   7.209
14506TIP3    H143395   4.501   5.282   7.215
14506TIP3    H243396   4.383   5.236   7.135
14507TIP3   OH243397   5.044   5.202   6.944
14507TIP3    H143398   5.038   5.130   7.011
14507TIP3    H243399   5.124   5.251   6.972
14508TIP3   OH243400   4.904   4.924   5.307
14508TIP3    H143401   4.875   4.832   5.308
14508TIP3    H243402   4.903   4.949   5.213
14509TIP3   OH243403   4.057   4.735   7.365
14509TIP3    H143404   4.076   4.638   7.367
14509TIP3    H243405   3.970   4.736   7.319
14510TIP3   OH243406   4.033   4.389   5.559
14510TIP3    H143407   4.090   4.356   5.630
14510TIP3    H243408   4.101   4.396   5.487
14511TIP3   OH243409   4.658   4.816   7.141
14511TIP3    H143410   4.617   4.834   7.054
14511TIP3    H243411   4.689   4.724   7.131
14512TIP3   OH243412   5.158   4.827   6.746
14512TIP3    H143413   5.232   4.873   6.700
14512TIP3    H243414   5.086   4.890   6.730
14513TIP3   OH243415   4.176   4.479   7.344
14513TIP3    H143416   4.232   4.404   7.322
14513TIP3    H243417   4.202   4.499   7.435
14514TIP3   OH243418   4.241   4.288   5.781
14514TIP3    H143419   4.215   4.245   5.864
14514TIP3    H243420   4.277   4.213   5.729
14515TIP3   OH243421   4.520   4.365   7.018
14515TIP3    H143422   4.432   4.410   7.014
14515TIP3    H243423   4.560   4.390   6.932
14516TIP3   OH243424   4.342   4.081   5.621
14516TIP3    H143425   4.315   4.086   5.527
14516TIP3    H243426   4.439   4.089   5.613
14517TIP3   OH243427   5.031   4.759   7.147
14517TIP3    H143428   5.105   4.736   7.089
14517TIP3    H243429   5.027   4.684   7.208
14518TIP3   OH243430   5.175   4.416   5.279
14518TIP3    H143431   5.149   4.371   5.196
14518TIP3    H243432   5.137   4.505   5.261
14519TIP3   OH243433   4.641   4.144   7.132
14519TIP3    H143434   4.630   4.062   7.080
14519TIP3    H243435   4.592   4.209   7.077
14520TIP3   OH243436   4.633   3.927   6.941
14520TIP3    H143437   4.657   3.967   6.855
14520TIP3    H243438   4.537   3.906   6.928
14521TIP3   OH243439   4.671   4.469   6.813
14521TIP3    H143440   4.748   4.473   6.756
14521TIP3    H243441   4.610   4.533   6.771
14522TIP3   OH243442   5.247   4.440   7.194
14522TIP3    H143443   5.301   4.360   7.203
14522TIP3    H243444   5.312   4.503   7.159
14523TIP3   OH243445   5.287   4.685   6.934
14523TIP3    H143446   5.230   4.737   6.873
14523TIP3    H243447   5.375   4.703   6.894
14524TIP3   OH243448   4.517   4.255   7.366
14524TIP3    H143449   4.449   4.185   7.378
14524TIP3    H243450   4.546   4.237   7.275
14525TIP3   OH243451   4.769   3.693   7.006
14525TIP3    H143452   4.717   3.774   6.984
14525TIP3    H243453   4.700   3.624   6.996
14526TIP3   OH243454   4.896   4.196   7.224
14526TIP3    H143455   4.875   4.182   7.318
14526TIP3    H243456   4.807   4.173   7.186
14527TIP3   OH243457   5.131   4.153   7.085
14527TIP3    H143458   5.045   4.159   7.131
14527TIP3    H243459   5.183   4.105   7.150
14528TIP3   OH243460   5.426   4.018   7.308
14528TIP3    H143461   5.338   3.993   7.278
14528TIP3    H243462   5.406   4.108   7.344
14529TIP3   OH243463   4.362   4.032   7.406
14529TIP3    H143464   4.350   3.942   7.369
14529TIP3    H243465   4.385   4.011   7.498
14530TIP3   OH243466   4.868   3.705   7.263
14530TIP3    H143467   4.930   3.629   7.257
14530TIP3    H243468   4.823   3.698   7.176
14531TIP3   OH243469   4.934   3.920   7.418
14531TIP3    H143470   4.909   3.846   7.357
14531TIP3    H243471   4.853   3.976   7.416
14532TIP3   OH243472   4.146   5.145   5.522
14532TIP3    H143473   4.242   5.141   5.511
14532TIP3    H243474   4.120   5.190   5.439
14533TIP3   OH243475   3.635   4.525   5.750
14533TIP3    H143476   3.726   4.554   5.727
14533TIP3    H243477   3.630   4.441   5.701
14534TIP3   OH243478   3.542   5.141   6.153
14534TIP3    H143479   3.475   5.078   6.118
14534TIP3    H243480   3.587   5.084   6.219
14535TIP3   OH243481   3.677   4.996   6.342
14535TIP3    H143482   3.667   4.917   6.397
14535TIP3    H243483   3.731   5.052   6.400
14536TIP3   OH243484   5.408   5.389   6.140
14536TIP3    H143485   5.434   5.425   6.227
14536TIP3    H243486   5.466   5.437   6.079
14537TIP3   OH243487   5.437   5.413   6.423
14537TIP3    H143488   5.393   5.326   6.417
14537TIP3    H243489   5.511   5.388   6.481
14538TIP3   OH243490   5.482   5.088   6.995
14538TIP3    H143491   5.409   5.097   7.059
14538TIP3    H243492   5.524   5.176   6.998
14539TIP3   OH243493   5.300   4.597   5.616
14539TIP3    H143494   5.364   4.667   5.590
14539TIP3    H243495   5.343   4.560   5.696
14540TIP3   OH243496   5.428   4.468   5.821
14540TIP3    H143497   5.360   4.426   5.878
14540TIP3    H243498   5.489   4.508   5.886
14541TIP3   OH243499   5.481   4.860   6.254
14541TIP3    H143500   5.533   4.796   6.202
14541TIP3    H243501   5.472   4.935   6.191
14542TIP3   OH243502   5.313   5.162   6.447
14542TIP3    H143503   5.241   5.203   6.498
14542TIP3    H243504   5.264   5.114   6.377
14543TIP3   OH243505   5.368   4.376   5.466
14543TIP3    H143506   5.296   4.378   5.398
14543TIP3    H243507   5.339   4.451   5.522
14544TIP3   OH243508   5.240   4.048   5.419
14544TIP3    H143509   5.191   4.090   5.346
14544TIP3    H243510   5.212   3.955   5.409
14545TIP3   OH243511   5.242   4.325   5.967
14545TIP3    H143512   5.248   4.228   5.961
14545TIP3    H243513   5.228   4.339   6.063
14546TIP3   OH243514   3.867   4.408   6.709
14546TIP3    H143515   3.865   4.370   6.619
14546TIP3    H243516   3.963   4.403   6.729
14547TIP3   OH243517   5.530   4.749   6.824
14547TIP3    H143518   5.602   4.683   6.814
14547TIP3    H243519   5.556   4.818   6.762
14548TIP3   OH243520   5.715   4.553   6.839
14548TIP3    H143521   5.643   4.501   6.881
14548TIP3    H243522   5.791   4.494   6.855
14549TIP3   OH243523   5.180   3.783   5.406
14549TIP3    H143524   5.254   3.753   5.462
14549TIP3    H243525   5.106   3.725   5.432
14550TIP3   OH243526   5.237   4.041   5.863
14550TIP3    H143527   5.277   3.952   5.878
14550TIP3    H243528   5.296   4.073   5.792
14551TIP3   OH243529   5.399   4.217   6.357
14551TIP3    H143530   5.485   4.242   6.316
14551TIP3    H243531   5.413   4.252   6.447
14552TIP3   OH243532   5.468   4.360   6.592
14552TIP3    H143533   5.388   4.396   6.635
14552TIP3    H243534   5.500   4.440   6.544
14553TIP3   OH243535   4.097   4.105   7.423
14553TIP3    H143536   4.183   4.079   7.386
14553TIP3    H243537   4.056   4.018   7.433
14554TIP3   OH243538   5.914   3.942   7.150
14554TIP3    H143539   5.978   3.881   7.106
14554TIP3    H243540   5.894   4.004   7.076
14555TIP3   OH243541   5.346   3.791   5.898
14555TIP3    H143542   5.395   3.774   5.982
14555TIP3    H243543   5.286   3.714   5.897
14556TIP3   OH243544   4.044   3.773   6.711
14556TIP3    H143545   4.111   3.704   6.727
14556TIP3    H243546   4.094   3.853   6.736
14557TIP3   OH243547   3.834   4.065   6.777
14557TIP3    H143548   3.892   4.056   6.699
14557TIP3    H243549   3.893   4.110   6.840
14558TIP3   OH243550   5.788   4.088   6.959
14558TIP3    H143551   5.699   4.129   6.965
14558TIP3    H243552   5.770   4.018   6.893
14559TIP3   OH243553   5.427   3.727   5.530
14559TIP3    H143554   5.467   3.653   5.481
14559TIP3    H243555   5.496   3.796   5.524
14560TIP3   OH243556   3.832   3.552   6.290
14560TIP3    H143557   3.739   3.552   6.319
14560TIP3    H243558   3.829   3.612   6.213
14561TIP3   OH243559   4.998   5.254   5.804
14561TIP3    H143560   5.037   5.236   5.716
14561TIP3    H243561   5.052   5.329   5.833
14562TIP3   OH243562   4.047   3.607   7.100
14562TIP3    H143563   4.005   3.625   7.185
14562TIP3    H243564   4.016   3.684   7.049
14563TIP3   OH243565   4.090   5.063   7.186
14563TIP3    H143566   4.004   5.032   7.155
14563TIP3    H243567   4.084   5.042   7.280
14564TIP3   OH243568   4.270   5.096   6.734
14564TIP3    H143569   4.222   5.171   6.692
14564TIP3    H243570   4.356   5.108   6.688
14565TIP3   OH243571   4.715   5.339   6.869
14565TIP3    H143572   4.758   5.342   6.957
14565TIP3    H243573   4.781   5.389   6.816
14566TIP3   OH243574   4.894   5.490   6.728
14566TIP3    H143575   4.964   5.440   6.683
14566TIP3    H243576   4.947   5.546   6.788
14567TIP3   OH243577   5.683   3.849   6.839
14567TIP3    H143578   5.598   3.843   6.792
14567TIP3    H243579   5.720   3.758   6.822
14568TIP3   OH243580   3.948   5.356   6.752
14568TIP3    H143581   3.859   5.391   6.728
14568TIP3    H243582   3.950   5.378   6.846
14569TIP3   OH243583   4.185   5.331   6.612
14569TIP3    H143584   4.098   5.344   6.656
14569TIP3    H243585   4.165   5.361   6.521
14570TIP3   OH243586   4.608   5.358   6.412
14570TIP3    H143587   4.542   5.377   6.343
14570TIP3    H243588   4.621   5.447   6.451
14571TIP3   OH243589   4.877   5.300   6.464
14571TIP3    H143590   4.783   5.315   6.442
14571TIP3    H243591   4.920   5.373   6.417
14572TIP3   OH243592   5.088   5.492   6.377
14572TIP3    H143593   5.071   5.576   6.329
14572TIP3    H243594   5.112   5.431   6.304
14573TIP3   OH243595   3.858   5.146   6.503
14573TIP3    H143596   3.887   5.119   6.593
14573TIP3    H243597   3.928   5.102   6.450
14574TIP3   OH243598   4.050   5.018   6.358
14574TIP3    H143599   4.067   4.932   6.404
14574TIP3    H243600   4.141   5.053   6.350
14575TIP3   OH243601   4.318   5.113   6.358
14575TIP3    H143602   4.348   5.022   6.341
14575TIP3    H243603   4.362   5.130   6.443
14576TIP3   OH243604   4.897   3.769   6.451
14576TIP3    H143605   4.850   3.699   6.500
14576TIP3    H243606   4.964   3.719   6.402
14577TIP3   OH243607   5.418   3.651   6.355
14577TIP3    H143608   5.455   3.700   6.278
14577TIP3    H243609   5.322   3.665   6.343
14578TIP3   OH243610   5.513   3.749   6.116
14578TIP3    H143611   5.586   3.698   6.077
14578TIP3    H243612   5.546   3.841   6.101
14579TIP3   OH243613   4.143   3.477   6.462
14579TIP3    H143614   4.051   3.444   6.464
14579TIP3    H243615   4.192   3.392   6.460
14580TIP3   OH243616   3.927   3.346   6.110
14580TIP3    H143617   3.958   3.405   6.039
14580TIP3    H243618   3.899   3.410   6.178
14581TIP3   OH243619   4.586   3.508   6.342
14581TIP3    H143620   4.646   3.559   6.285
14581TIP3    H243621   4.601   3.548   6.429
14582TIP3   OH243622   5.136   3.655   6.326
14582TIP3    H143623   5.130   3.618   6.238
14582TIP3    H243624   5.121   3.575   6.382
14583TIP3   OH243625   5.163   3.578   5.889
14583TIP3    H143626   5.076   3.620   5.900
14583TIP3    H243627   5.148   3.493   5.936
14584TIP3   OH243628   3.647   4.913   5.889
14584TIP3    H143629   3.561   4.879   5.857
14584TIP3    H243630   3.635   5.008   5.870
14585TIP3   OH243631   4.045   3.506   5.874
14585TIP3    H143632   4.095   3.444   5.818
14585TIP3    H243633   4.118   3.561   5.911
14586TIP3   OH243634   4.559   3.680   5.973
14586TIP3    H143635   4.618   3.633   6.034
14586TIP3    H243636   4.580   3.773   5.998
14587TIP3   OH243637   4.420   5.111   5.473
14587TIP3    H143638   4.504   5.148   5.441
14587TIP3    H243639   4.394   5.054   5.399
14588TIP3   OH243640   5.139   5.223   5.569
14588TIP3    H143641   5.134   5.127   5.549
14588TIP3    H243642   5.090   5.260   5.492
14589TIP3   OH243643   4.354   3.753   7.373
14589TIP3    H143644   4.323   3.677   7.425
14589TIP3    H243645   4.449   3.756   7.396
14590TIP3   OH243646   4.609   3.758   7.481
14590TIP3    H143647   4.686   3.722   7.435
14590TIP3    H243648   4.589   3.687   7.546
14591TIP3   OH243649   3.744   4.956   5.529
14591TIP3    H143650   3.696   4.985   5.609
14591TIP3    H243651   3.809   4.895   5.567
14592TIP3   OH243652   5.364   5.369   6.753
14592TIP3    H143653   5.286   5.336   6.705
14592TIP3    H243654   5.344   5.464   6.756
14593TIP3   OH243655   6.628   4.741   5.519
14593TIP3    H143656   6.602   4.831   5.492
14593TIP3    H243657   6.546   4.693   5.501
14594TIP3   OH243658   6.630   4.739   5.900
14594TIP3    H143659   6.660   4.708   5.987
14594TIP3    H243660   6.586   4.660   5.864
14595TIP3   OH243661   5.930   4.635   6.264
14595TIP3    H143662   5.959   4.568   6.327
14595TIP3    H243663   6.005   4.695   6.264
14596TIP3   OH243664   6.874   5.038   5.582
14596TIP3    H143665   6.856   4.971   5.649
14596TIP3    H243666   6.899   5.116   5.635
14597TIP3   OH243667   5.900   5.046   5.992
14597TIP3    H143668   5.890   4.949   5.995
14597TIP3    H243669   5.996   5.054   5.986
14598TIP3   OH243670   5.608   4.252   5.775
14598TIP3    H143671   5.556   4.333   5.791
14598TIP3    H243672   5.538   4.194   5.742
14599TIP3   OH243673   5.667   4.538   5.949
14599TIP3    H143674   5.715   4.460   5.986
14599TIP3    H243675   5.722   4.561   5.874
14600TIP3   OH243676   6.520   5.505   5.597
14600TIP3    H143677   6.567   5.434   5.548
14600TIP3    H243678   6.512   5.466   5.685
14601TIP3   OH243679   6.427   4.966   5.949
14601TIP3    H143680   6.463   4.890   5.901
14601TIP3    H243681   6.512   5.010   5.972
14602TIP3   OH243682   7.440   4.287   5.946
14602TIP3    H143683   7.469   4.370   5.989
14602TIP3    H243684   7.461   4.305   5.853
14603TIP3   OH243685   6.843   4.469   5.982
14603TIP3    H143686   6.882   4.382   6.001
14603TIP3    H243687   6.809   4.454   5.892
14604TIP3   OH243688   6.178   4.127   5.945
14604TIP3    H143689   6.153   4.199   5.882
14604TIP3    H243690   6.129   4.052   5.904
14605TIP3   OH243691   6.871   4.218   5.569
14605TIP3    H143692   6.943   4.201   5.634
14605TIP3    H243693   6.923   4.253   5.495
14606TIP3   OH243694   5.812   4.330   6.052
14606TIP3    H143695   5.893   4.308   6.101
14606TIP3    H243696   5.822   4.271   5.974
14607TIP3   OH243697   6.252   4.527   5.844
14607TIP3    H143698   6.345   4.501   5.860
14607TIP3    H243699   6.212   4.443   5.814
14608TIP3   OH243700   7.515   4.494   6.115
14608TIP3    H143701   7.431   4.541   6.095
14608TIP3    H243702   7.523   4.514   6.210
14609TIP3   OH243703   6.175   4.110   6.382
14609TIP3    H143704   6.111   4.144   6.316
14609TIP3    H243705   6.124   4.125   6.464
14610TIP3   OH243706   6.517   4.958   5.391
14610TIP3    H143707   6.485   4.942   5.299
14610TIP3    H243708   6.474   5.043   5.411
14611TIP3   OH243709   6.283   4.886   6.178
14611TIP3    H143710   6.217   4.949   6.216
14611TIP3    H243711   6.320   4.937   6.104
14612TIP3   OH243712   7.083   4.219   5.739
14612TIP3    H143713   7.072   4.169   5.820
14612TIP3    H243714   7.136   4.296   5.769
14613TIP3   OH243715   6.045   4.226   6.165
14613TIP3    H143716   6.109   4.296   6.189
14613TIP3    H243717   6.094   4.182   6.091
14614TIP3   OH243718   6.109   5.078   6.275
14614TIP3    H143719   6.082   5.163   6.235
14614TIP3    H243720   6.030   5.062   6.331
14615TIP3   OH243721   5.509   4.768   5.518
14615TIP3    H143722   5.463   4.790   5.434
14615TIP3    H243723   5.532   4.857   5.551
14616TIP3   OH243724   6.945   5.285   5.752
14616TIP3    H143725   6.855   5.276   5.790
14616TIP3    H243726   6.936   5.370   5.704
14617TIP3   OH243727   7.232   4.190   6.114
14617TIP3    H143728   7.144   4.215   6.082
14617TIP3    H243729   7.290   4.219   6.041
14618TIP3   OH243730   6.536   3.838   6.098
14618TIP3    H143731   6.513   3.744   6.101
14618TIP3    H243732   6.455   3.876   6.141
14619TIP3   OH243733   6.646   5.332   5.426
14619TIP3    H143734   6.693   5.249   5.404
14619TIP3    H243735   6.709   5.397   5.385
14620TIP3   OH243736   6.782   5.116   5.331
14620TIP3    H143737   6.761   5.038   5.278
14620TIP3    H243738   6.819   5.076   5.412
14621TIP3   OH243739   7.170   5.198   6.094
14621TIP3    H143740   7.158   5.121   6.034
14621TIP3    H243741   7.151   5.273   6.033
14622TIP3   OH243742   6.454   4.582   5.343
14622TIP3    H143743   6.380   4.643   5.323
14622TIP3    H243744   6.507   4.588   5.262
14623TIP3   OH243745   7.364   4.836   5.938
14623TIP3    H143746   7.281   4.887   5.943
14623TIP3    H243747   7.393   4.859   5.847
14624TIP3   OH243748   6.808   4.671   5.324
14624TIP3    H143749   6.752   4.697   5.400
14624TIP3    H243750   6.892   4.647   5.369
14625TIP3   OH243751   7.043   4.715   6.232
14625TIP3    H143752   7.037   4.802   6.275
14625TIP3    H243753   6.956   4.713   6.187
14626TIP3   OH243754   6.039   4.670   5.738
14626TIP3    H143755   6.001   4.613   5.668
14626TIP3    H243756   6.117   4.618   5.767
14627TIP3   OH243757   6.170   5.084   5.888
14627TIP3    H143758   6.147   5.042   5.804
14627TIP3    H243759   6.260   5.049   5.904
14628TIP3   OH243760   6.182   4.642   6.094
14628TIP3    H143761   6.211   4.623   6.002
14628TIP3    H243762   6.220   4.730   6.112
14629TIP3   OH243763   6.703   5.282   5.871
14629TIP3    H143764   6.687   5.361   5.924
14629TIP3    H243765   6.687   5.208   5.933
14630TIP3   OH243766   6.313   5.199   6.420
14630TIP3    H143767   6.252   5.262   6.464
14630TIP3    H243768   6.248   5.146   6.369
14631TIP3   OH243769   6.655   4.534   5.147
14631TIP3    H143770   6.711   4.595   5.200
14631TIP3    H243771   6.678   4.562   5.055
14632TIP3   OH243772   6.067   4.759   6.513
14632TIP3    H143773   6.072   4.843   6.563
14632TIP3    H243774   5.973   4.736   6.527
14633TIP3   OH243775   6.390   5.214   5.426
14633TIP3    H143776   6.469   5.268   5.442
14633TIP3    H243777   6.329   5.277   5.386
14634TIP3   OH243778   6.109   5.370   6.505
14634TIP3    H143779   6.074   5.368   6.414
14634TIP3    H243780   6.029   5.348   6.558
14635TIP3   OH243781   7.164   3.774   5.196
14635TIP3    H143782   7.082   3.793   5.247
14635TIP3    H243783   7.176   3.858   5.148
14636TIP3   OH243784   5.912   4.515   5.530
14636TIP3    H143785   5.839   4.560   5.482
14636TIP3    H243786   5.868   4.436   5.563
14637TIP3   OH243787   6.961   5.145   4.745
14637TIP3    H143788   6.963   5.241   4.724
14637TIP3    H243789   7.055   5.122   4.733
14638TIP3   OH243790   5.688   4.899   6.450
14638TIP3    H143791   5.622   4.877   6.382
14638TIP3    H243792   5.724   4.811   6.475
14639TIP3   OH243793   5.541   5.090   6.087
14639TIP3    H143794   5.636   5.088   6.075
14639TIP3    H243795   5.528   5.172   6.137
14640TIP3   OH243796   7.406   5.543   6.140
14640TIP3    H143797   7.404   5.446   6.150
14640TIP3    H243798   7.322   5.567   6.184
14641TIP3   OH243799   6.513   5.327   6.276
14641TIP3    H143800   6.511   5.420   6.306
14641TIP3    H243801   6.439   5.289   6.329
14642TIP3   OH243802   6.270   5.457   5.225
14642TIP3    H143803   6.224   5.440   5.142
14642TIP3    H243804   6.241   5.547   5.248
14643TIP3   OH243805   5.711   5.308   5.608
14643TIP3    H143806   5.756   5.297   5.695
14643TIP3    H243807   5.650   5.232   5.610
14644TIP3   OH243808   6.464   5.366   4.909
14644TIP3    H143809   6.541   5.335   4.859
14644TIP3    H243810   6.503   5.381   4.997
14645TIP3   OH243811   6.530   5.415   5.163
14645TIP3    H143812   6.439   5.420   5.198
14645TIP3    H243813   6.576   5.365   5.232
14646TIP3   OH243814   7.293   4.675   6.414
14646TIP3    H143815   7.215   4.686   6.357
14646TIP3    H243816   7.311   4.579   6.402
14647TIP3   OH243817   5.893   5.082   6.441
14647TIP3    H143818   5.942   5.064   6.523
14647TIP3    H243819   5.819   5.018   6.447
14648TIP3   OH243820   6.297   3.913   6.218
14648TIP3    H143821   6.219   3.864   6.185
14648TIP3    H243822   6.254   3.983   6.271
14649TIP3   OH243823   6.824   4.024   6.419
14649TIP3    H143824   6.890   3.991   6.483
14649TIP3    H243825   6.738   4.001   6.462
14650TIP3   OH243826   7.068   4.451   6.340
14650TIP3    H143827   7.015   4.448   6.423
14650TIP3    H243828   7.039   4.535   6.299
14651TIP3   OH243829   6.718   4.583   4.886
14651TIP3    H143830   6.698   4.553   4.795
14651TIP3    H243831   6.802   4.630   4.870
14652TIP3   OH243832   6.435   3.960   5.194
14652TIP3    H143833   6.406   3.955   5.287
14652TIP3    H243834   6.398   3.876   5.161
14653TIP3   OH243835   6.226   4.420   6.244
14653TIP3    H143836   6.172   4.439   6.324
14653TIP3    H243837   6.208   4.501   6.190
14654TIP3   OH243838   6.105   4.308   5.754
14654TIP3    H143839   6.013   4.280   5.775
14654TIP3    H243840   6.117   4.264   5.667
14655TIP3   OH243841   6.598   4.393   5.482
14655TIP3    H143842   6.542   4.461   5.438
14655TIP3    H243843   6.654   4.364   5.407
14656TIP3   OH243844   6.779   4.691   6.599
14656TIP3    H143845   6.749   4.609   6.645
14656TIP3    H243846   6.875   4.681   6.607
14657TIP3   OH243847   6.757   4.423   5.722
14657TIP3    H143848   6.696   4.452   5.652
14657TIP3    H243849   6.789   4.340   5.680
14658TIP3   OH243850   6.044   4.450   6.452
14658TIP3    H143851   6.063   4.511   6.524
14658TIP3    H243852   6.032   4.366   6.500
14659TIP3   OH243853   6.098   3.932   5.159
14659TIP3    H143854   6.090   3.926   5.257
14659TIP3    H243855   6.010   3.969   5.135
14660TIP3   OH243856   5.635   3.975   6.028
14660TIP3    H143857   5.710   4.003   6.084
14660TIP3    H243858   5.676   3.933   5.951
14661TIP3   OH243859   5.610   3.955   5.547
14661TIP3    H143860   5.657   3.996   5.472
14661TIP3    H243861   5.547   4.026   5.571
14662TIP3   OH243862   6.771   4.669   6.147
14662TIP3    H143863   6.801   4.597   6.087
14662TIP3    H243864   6.739   4.616   6.222
14663TIP3   OH243865   6.434   4.134   5.817
14663TIP3    H143866   6.351   4.128   5.868
14663TIP3    H243867   6.500   4.126   5.888
14664TIP3   OH243868   5.870   4.184   5.823
14664TIP3    H143869   5.775   4.191   5.799
14664TIP3    H243870   5.891   4.091   5.805
14665TIP3   OH243871   6.136   4.182   5.510
14665TIP3    H143872   6.233   4.193   5.500
14665TIP3    H243873   6.101   4.214   5.425
14666TIP3   OH243874   6.926   4.205   6.021
14666TIP3    H143875   6.888   4.216   6.111
14666TIP3    H243876   6.861   4.143   5.982
14667TIP3   OH243877   5.982   4.236   5.267
14667TIP3    H143878   5.897   4.198   5.295
14667TIP3    H243879   5.989   4.193   5.180
14668TIP3   OH243880   7.096   5.893   6.237
14668TIP3    H143881   7.091   5.915   6.142
14668TIP3    H243882   7.173   5.946   6.265
14669TIP3   OH243883   6.054   5.005   6.659
14669TIP3    H143884   6.132   5.036   6.709
14669TIP3    H243885   5.988   4.999   6.731
14670TIP3   OH243886   6.518   4.460   5.918
14670TIP3    H143887   6.586   4.412   5.868
14670TIP3    H243888   6.521   4.416   6.005
14671TIP3   OH243889   6.042   3.942   5.794
14671TIP3    H143890   6.005   3.865   5.844
14671TIP3    H243891   6.103   3.897   5.734
14672TIP3   OH243892   6.495   4.358   6.195
14672TIP3    H143893   6.403   4.386   6.215
14672TIP3    H243894   6.549   4.415   6.253
14673TIP3   OH243895   6.227   4.741   5.300
14673TIP3    H143896   6.158   4.671   5.295
14673TIP3    H243897   6.212   4.778   5.390
14674TIP3   OH243898   7.131   4.981   5.930
14674TIP3    H143899   7.155   5.030   5.849
14674TIP3    H243900   7.046   4.939   5.905
14675TIP3   OH243901   6.688   4.060   5.155
14675TIP3    H143902   6.592   4.043   5.169
14675TIP3    H243903   6.699   4.153   5.184
14676TIP3   OH243904   6.641   5.070   6.297
14676TIP3    H143905   6.627   5.035   6.386
14676TIP3    H243906   6.592   5.154   6.300
14677TIP3   OH243907   6.758   4.304   5.262
14677TIP3    H143908   6.854   4.314   5.278
14677TIP3    H243909   6.735   4.385   5.211
14678TIP3   OH243910   5.926   4.770   5.977
14678TIP3    H143911   5.962   4.737   5.892
14678TIP3    H243912   5.958   4.702   6.039
14679TIP3   OH243913   6.392   4.903   5.148
14679TIP3    H143914   6.338   4.983   5.132
14679TIP3    H243915   6.326   4.845   5.191
14680TIP3   OH243916   5.805   4.688   6.588
14680TIP3    H143917   5.828   4.675   6.682
14680TIP3    H243918   5.736   4.621   6.575
14681TIP3   OH243919   6.521   4.802   6.603
14681TIP3    H143920   6.458   4.740   6.562
14681TIP3    H243921   6.606   4.763   6.577
14682TIP3   OH243922   6.793   5.325   6.191
14682TIP3    H143923   6.697   5.318   6.203
14682TIP3    H243924   6.818   5.377   6.271
14683TIP3   OH243925   7.203   4.393   5.100
14683TIP3    H143926   7.139   4.349   5.040
14683TIP3    H243927   7.198   4.483   5.061
14684TIP3   OH243928   7.420   5.253   6.182
14684TIP3    H143929   7.322   5.246   6.173
14684TIP3    H243930   7.446   5.222   6.092
14685TIP3   OH243931   6.902   5.211   5.011
14685TIP3    H143932   6.872   5.137   5.066
14685TIP3    H243933   6.913   5.170   4.923
14686TIP3   OH243934   6.897   4.842   5.851
14686TIP3    H143935   6.803   4.816   5.862
14686TIP3    H243936   6.931   4.763   5.804
14687TIP3   OH243937   6.023   5.070   5.600
14687TIP3    H143938   6.024   5.151   5.546
14687TIP3    H243939   5.928   5.055   5.610
14688TIP3   OH243940   5.584   4.379   5.299
14688TIP3    H143941   5.630   4.461   5.325
14688TIP3    H243942   5.507   4.380   5.360
14689TIP3   OH243943   6.163   4.836   5.546
14689TIP3    H143944   6.129   4.926   5.562
14689TIP3    H243945   6.125   4.788   5.622
14690TIP3   OH243946   6.293   5.415   6.070
14690TIP3    H143947   6.332   5.488   6.018
14690TIP3    H243948   6.370   5.381   6.117
14691TIP3   OH243949   5.944   5.309   5.453
14691TIP3    H143950   5.858   5.316   5.499
14691TIP3    H243951   5.975   5.402   5.455
14692TIP3   OH243952   6.683   5.048   6.028
14692TIP3    H143953   6.677   5.047   6.126
14692TIP3    H243954   6.760   4.992   6.012
14693TIP3   OH243955   6.931   5.584   6.079
14693TIP3    H143956   6.852   5.527   6.071
14693TIP3    H243957   6.916   5.648   6.006
14694TIP3   OH243958   6.995   5.419   4.730
14694TIP3    H143959   7.021   5.486   4.665
14694TIP3    H243960   6.908   5.457   4.754
14695TIP3   OH243961   6.021   4.194   6.600
14695TIP3    H143962   5.926   4.194   6.618
14695TIP3    H243963   6.054   4.140   6.675
14696TIP3   OH243964   6.823   4.886   5.143
14696TIP3    H143965   6.808   4.811   5.203
14696TIP3    H243966   6.916   4.874   5.119
14697TIP3   OH243967   5.734   5.278   6.229
14697TIP3    H143968   5.782   5.200   6.259
14697TIP3    H243969   5.761   5.344   6.294
14698TIP3   OH243970   6.020   4.908   4.908
14698TIP3    H143971   6.039   4.816   4.886
14698TIP3    H243972   6.009   4.908   5.004
14699TIP3   OH243973   5.967   4.925   5.189
14699TIP3    H143974   6.044   4.905   5.244
14699TIP3    H243975   5.970   5.023   5.187
14700TIP3   OH243976   5.703   4.625   5.384
14700TIP3    H143977   5.637   4.667   5.444
14700TIP3    H243978   5.716   4.697   5.320
14701TIP3   OH243979   6.850   4.260   6.282
14701TIP3    H143980   6.935   4.290   6.317
14701TIP3    H243981   6.833   4.177   6.331
14702TIP3   OH243982   6.733   4.011   5.440
14702TIP3    H143983   6.720   4.036   5.347
14702TIP3    H243984   6.772   4.093   5.479
14703TIP3   OH243985   6.231   5.124   5.126
14703TIP3    H143986   6.144   5.148   5.162
14703TIP3    H243987   6.250   5.202   5.073
14704TIP3   OH243988   6.419   4.190   5.546
14704TIP3    H143989   6.485   4.260   5.529
14704TIP3    H243990   6.425   4.181   5.644
14705TIP3   OH243991   6.694   4.508   6.352
14705TIP3    H143992   6.703   4.550   6.439
14705TIP3    H243993   6.743   4.425   6.362
14706TIP3   OH243994   6.572   3.920   5.651
14706TIP3    H143995   6.565   3.998   5.709
14706TIP3    H243996   6.630   3.955   5.579
14707TIP3   OH243997   5.974   5.198   5.199
14707TIP3    H143998   5.943   5.268   5.137
14707TIP3    H243999   5.959   5.241   5.286
14708TIP3   OH244000   6.079   3.913   5.433
14708TIP3    H144001   6.078   3.999   5.480
14708TIP3    H244002   6.173   3.889   5.445
14709TIP3   OH244003   7.334   4.409   6.332
14709TIP3    H144004   7.236   4.408   6.341
14709TIP3    H244005   7.342   4.361   6.248
14710TIP3   OH244006   6.983   4.602   5.723
14710TIP3    H144007   6.906   4.543   5.733
14710TIP3    H244008   7.054   4.554   5.770
14711TIP3   OH244009   5.697   4.837   5.186
14711TIP3    H144010   5.768   4.901   5.206
14711TIP3    H244011   5.744   4.783   5.120
14712TIP3   OH244012   5.649   4.114   5.320
14712TIP3    H144013   5.632   4.210   5.317
14712TIP3    H244014   5.565   4.078   5.288
14713TIP3   OH244015   6.950   5.557   5.673
14713TIP3    H144016   6.907   5.604   5.598
14713TIP3    H244017   7.044   5.575   5.650
14714TIP3   OH244018   6.015   3.835   6.207
14714TIP3    H144019   6.012   3.796   6.117
14714TIP3    H244020   6.022   3.753   6.259
14715TIP3   OH244021   5.566   5.047   5.579
14715TIP3    H144022   5.492   5.073   5.636
14715TIP3    H244023   5.537   5.085   5.493
14716TIP3   OH244024   5.721   5.584   6.650
14716TIP3    H144025   5.807   5.581   6.697
14716TIP3    H244026   5.698   5.489   6.649
14717TIP3   OH244027   6.208   5.551   6.695
14717TIP3    H144028   6.301   5.528   6.699
14717TIP3    H244029   6.177   5.493   6.622
14718TIP3   OH244030   6.841   5.459   6.430
14718TIP3    H144031   6.836   5.387   6.497
14718TIP3    H244032   6.920   5.509   6.459
14719TIP3   OH244033   5.853   4.997   6.848
14719TIP3    H144034   5.872   4.903   6.869
14719TIP3    H244035   5.765   4.991   6.805
14720TIP3   OH244036   5.831   4.648   5.042
14720TIP3    H144037   5.888   4.617   5.115
14720TIP3    H244038   5.897   4.659   4.971
14721TIP3   OH244039   6.466   5.077   6.620
14721TIP3    H144040   6.414   5.094   6.539
14721TIP3    H244041   6.485   4.981   6.614
14722TIP3   OH244042   6.956   5.083   6.235
14722TIP3    H144043   7.027   5.130   6.186
14722TIP3    H244044   6.881   5.143   6.220
14723TIP3   OH244045   5.974   4.720   6.830
14723TIP3    H144046   6.045   4.655   6.824
14723TIP3    H244047   5.992   4.755   6.920
14724TIP3   OH244048   6.040   4.521   5.273
14724TIP3    H144049   6.017   4.522   5.368
14724TIP3    H244050   6.021   4.428   5.252
14725TIP3   OH244051   6.312   4.616   6.497
14725TIP3    H144052   6.229   4.669   6.500
14725TIP3    H244053   6.354   4.648   6.415
14726TIP3   OH244054   6.845   5.003   6.643
14726TIP3    H144055   6.905   5.001   6.568
14726TIP3    H244056   6.813   4.912   6.646
14727TIP3   OH244057   6.965   4.667   4.770
14727TIP3    H144058   6.945   4.627   4.684
14727TIP3    H244059   6.933   4.759   4.752
14728TIP3   OH244060   6.433   4.396   6.620
14728TIP3    H144061   6.428   4.316   6.564
14728TIP3    H244062   6.386   4.462   6.566
14729TIP3   OH244063   6.433   4.188   6.426
14729TIP3    H144064   6.457   4.220   6.338
14729TIP3    H244065   6.340   4.159   6.411
14730TIP3   OH244066   6.467   4.727   6.301
14730TIP3    H144067   6.543   4.727   6.242
14730TIP3    H244068   6.406   4.790   6.257
14731TIP3   OH244069   7.068   4.698   6.697
14731TIP3    H144070   7.092   4.605   6.688
14731TIP3    H244071   7.127   4.741   6.633
14732TIP3   OH244072   7.084   4.949   6.432
14732TIP3    H144073   7.028   4.996   6.366
14732TIP3    H244074   7.171   4.962   6.389
14733TIP3   OH244075   6.308   4.526   6.845
14733TIP3    H144076   6.248   4.470   6.899
14733TIP3    H244077   6.329   4.471   6.767
14734TIP3   OH244078   6.566   3.951   6.493
14734TIP3    H144079   6.514   4.032   6.472
14734TIP3    H244080   6.497   3.882   6.484
14735TIP3   OH244081   6.686   4.459   6.711
14735TIP3    H144082   6.672   4.441   6.806
14735TIP3    H244083   6.597   4.431   6.678
14736TIP3   OH244084   6.934   4.417   6.573
14736TIP3    H144085   6.854   4.405   6.629
14736TIP3    H244086   7.003   4.374   6.627
14737TIP3   OH244087   7.164   4.346   6.724
14737TIP3    H144088   7.174   4.249   6.736
14737TIP3    H244089   7.159   4.379   6.816
14738TIP3   OH244090   6.665   3.961   6.750
14738TIP3    H144091   6.728   3.886   6.743
14738TIP3    H244092   6.619   3.954   6.664
14739TIP3   OH244093   6.729   4.179   6.906
14739TIP3    H144094   6.705   4.105   6.846
14739TIP3    H244095   6.647   4.232   6.907
14740TIP3   OH244096   5.938   5.400   5.012
14740TIP3    H144097   6.034   5.390   4.997
14740TIP3    H244098   5.913   5.446   4.929
14741TIP3   OH244099   5.438   4.785   5.253
14741TIP3    H144100   5.528   4.809   5.221
14741TIP3    H244101   5.419   4.703   5.206
14742TIP3   OH244102   5.341   5.397   5.639
14742TIP3    H144103   5.272   5.336   5.603
14742TIP3    H244104   5.384   5.339   5.705
14743TIP3   OH244105   5.477   5.250   5.826
14743TIP3    H144106   5.461   5.175   5.886
14743TIP3    H244107   5.527   5.309   5.885
14744TIP3   OH244108   7.204   5.646   5.627
14744TIP3    H144109   7.231   5.683   5.713
14744TIP3    H244110   7.261   5.693   5.565
14745TIP3   OH244111   7.232   5.669   5.911
14745TIP3    H144112   7.188   5.582   5.903
14745TIP3    H244113   7.309   5.644   5.964
14746TIP3   OH244114   7.282   5.345   6.483
14746TIP3    H144115   7.205   5.354   6.543
14746TIP3    H244116   7.321   5.435   6.486
14747TIP3   OH244117   7.099   4.854   5.101
14747TIP3    H144118   7.164   4.922   5.075
14747TIP3    H244119   7.140   4.818   5.182
14748TIP3   OH244120   7.224   4.724   5.307
14748TIP3    H144121   7.157   4.683   5.365
14748TIP3    H244122   7.286   4.765   5.371
14749TIP3   OH244123   7.278   5.117   5.741
14749TIP3    H144124   7.329   5.052   5.688
14749TIP3    H244125   7.269   5.192   5.678
14750TIP3   OH244126   7.109   5.418   5.935
14750TIP3    H144127   7.036   5.460   5.984
14750TIP3    H244128   7.061   5.370   5.864
14751TIP3   OH244129   7.163   4.631   4.954
14751TIP3    H144130   7.091   4.634   4.887
14751TIP3    H244131   7.136   4.707   5.009
14752TIP3   OH244132   7.033   4.306   4.908
14752TIP3    H144133   6.992   4.346   4.831
14752TIP3    H244134   7.006   4.212   4.897
14753TIP3   OH244135   7.040   4.581   5.454
14753TIP3    H144136   7.045   4.484   5.449
14753TIP3    H244137   7.024   4.596   5.550
14754TIP3   OH244138   5.664   4.655   6.201
14754TIP3    H144139   5.661   4.625   6.107
14754TIP3    H244140   5.761   4.656   6.216
14755TIP3   OH244141   7.326   5.006   6.313
14755TIP3    H144142   7.398   4.940   6.302
14755TIP3    H244143   7.349   5.073   6.246
14756TIP3   OH244144   7.511   4.813   6.333
14756TIP3    H144145   7.436   4.761   6.367
14756TIP3    H244146   7.584   4.747   6.344
14757TIP3   OH244147   6.976   4.039   4.893
14757TIP3    H144148   7.052   4.010   4.949
14757TIP3    H244149   6.904   3.981   4.920
14758TIP3   OH244150   7.033   4.297   5.349
14758TIP3    H144151   7.073   4.208   5.364
14758TIP3    H244152   7.091   4.330   5.279
14759TIP3   OH244153   7.196   4.472   5.843
14759TIP3    H144154   7.282   4.499   5.803
14759TIP3    H244155   7.209   4.508   5.933
14760TIP3   OH244156   7.265   4.616   6.077
14760TIP3    H144157   7.185   4.650   6.122
14760TIP3    H244158   7.296   4.697   6.030
14761TIP3   OH244159   5.884   4.335   6.868
14761TIP3    H144160   5.971   4.356   6.910
14761TIP3    H244161   5.863   4.253   6.915
14762TIP3   OH244162   7.715   4.207   6.631
14762TIP3    H144163   7.774   4.140   6.590
14762TIP3    H244164   7.688   4.261   6.555
14763TIP3   OH244165   7.143   4.047   5.385
14763TIP3    H144166   7.190   4.031   5.469
14763TIP3    H244167   7.081   3.971   5.384
14764TIP3   OH244168   5.836   4.039   6.206
14764TIP3    H144169   5.894   3.960   6.216
14764TIP3    H244170   5.904   4.109   6.201
14765TIP3   OH244171   5.645   4.310   6.279
14765TIP3    H144172   5.694   4.298   6.195
14765TIP3    H244173   5.676   4.396   6.307
14766TIP3   OH244174   7.587   4.347   6.436
14766TIP3    H144175   7.498   4.385   6.452
14766TIP3    H244176   7.562   4.273   6.378
14767TIP3   OH244177   7.224   3.984   5.018
14767TIP3    H144178   7.264   3.911   4.966
14767TIP3    H244179   7.292   4.054   5.011
14768TIP3   OH244180   5.627   3.815   5.779
14768TIP3    H144181   5.533   3.809   5.805
14768TIP3    H244182   5.623   3.872   5.699
14769TIP3   OH244183   6.794   5.513   5.290
14769TIP3    H144184   6.838   5.496   5.204
14769TIP3    H244185   6.847   5.586   5.324
14770TIP3   OH244186   5.847   3.891   6.596
14770TIP3    H144187   5.797   3.888   6.679
14770TIP3    H244188   5.780   3.927   6.535
14771TIP3   OH244189   5.889   5.320   6.673
14771TIP3    H144190   5.798   5.291   6.652
14771TIP3    H244191   5.896   5.295   6.766
14772TIP3   OH244192   6.067   5.350   6.220
14772TIP3    H144193   6.016   5.424   6.180
14772TIP3    H244194   6.152   5.366   6.173
14773TIP3   OH244195   6.513   5.594   6.356
14773TIP3    H144196   6.554   5.598   6.445
14773TIP3    H244197   6.577   5.645   6.303
14774TIP3   OH244198   6.690   5.746   6.215
14774TIP3    H144199   6.760   5.696   6.170
14774TIP3    H244200   6.743   5.803   6.275
14775TIP3   OH244201   7.485   4.109   6.315
14775TIP3    H144202   7.394   4.101   6.282
14775TIP3    H244203   7.517   4.016   6.304
14776TIP3   OH244204   5.745   5.610   6.240
14776TIP3    H144205   5.656   5.643   6.215
14776TIP3    H244206   5.748   5.639   6.332
14777TIP3   OH244207   5.981   5.587   6.099
14777TIP3    H144208   5.894   5.600   6.144
14777TIP3    H244209   5.960   5.619   6.009
14778TIP3   OH244210   6.406   5.615   5.897
14778TIP3    H144211   6.336   5.634   5.831
14778TIP3    H244212   6.417   5.704   5.938
14779TIP3   OH244213   6.674   5.556   5.950
14779TIP3    H144214   6.579   5.571   5.930
14779TIP3    H244215   6.715   5.631   5.904
14780TIP3   OH244216   6.885   5.749   5.864
14780TIP3    H144217   6.868   5.832   5.816
14780TIP3    H244218   6.908   5.688   5.791
14781TIP3   OH244219   5.655   5.403   5.987
14781TIP3    H144220   5.682   5.376   6.078
14781TIP3    H244221   5.726   5.358   5.936
14782TIP3   OH244222   5.847   5.273   5.843
14782TIP3    H144223   5.863   5.189   5.893
14782TIP3    H244224   5.938   5.310   5.838
14783TIP3   OH244225   6.114   5.369   5.844
14783TIP3    H144226   6.145   5.277   5.831
14783TIP3    H244227   6.156   5.389   5.930
14784TIP3   OH244228   6.689   4.025   5.933
14784TIP3    H144229   6.644   3.959   5.990
14784TIP3    H244230   6.758   3.972   5.891
14785TIP3   OH244231   7.215   3.905   5.840
14785TIP3    H144232   7.250   3.957   5.764
14785TIP3    H244233   7.119   3.920   5.832
14786TIP3   OH244234   7.309   4.006   5.602
14786TIP3    H144235   7.382   3.954   5.562
14786TIP3    H244236   7.341   4.097   5.587
14787TIP3   OH244237   5.948   3.731   5.946
14787TIP3    H144238   5.863   3.682   5.955
14787TIP3    H244239   6.013   3.664   5.976
14788TIP3   OH244240   5.717   3.605   5.594
14788TIP3    H144241   5.751   3.664   5.526
14788TIP3    H244242   5.695   3.667   5.666
14789TIP3   OH244243   6.376   3.770   5.813
14789TIP3    H144244   6.449   3.828   5.788
14789TIP3    H244245   6.366   3.786   5.908
14790TIP3   OH244246   6.935   3.912   5.814
14790TIP3    H144247   6.924   3.875   5.725
14790TIP3    H244248   6.919   3.833   5.870
14791TIP3   OH244249   6.959   3.834   5.376
14791TIP3    H144250   6.872   3.875   5.388
14791TIP3    H244251   6.945   3.749   5.424
14792TIP3   OH244252   5.444   5.170   5.373
14792TIP3    H144253   5.356   5.138   5.344
14792TIP3    H244254   5.434   5.264   5.354
14793TIP3   OH244255   5.842   3.767   5.357
14793TIP3    H144256   5.889   3.699   5.306
14793TIP3    H244257   5.916   3.816   5.398
14794TIP3   OH244258   6.357   3.937   5.459
14794TIP3    H144259   6.409   3.886   5.525
14794TIP3    H244260   6.381   4.028   5.487
14795TIP3   OH244261   6.202   5.358   4.956
14795TIP3    H144262   6.297   5.378   4.935
14795TIP3    H244263   6.180   5.301   4.881
14796TIP3   OH244264   6.936   5.479   5.056
14796TIP3    H144265   6.926   5.382   5.040
14796TIP3    H244266   6.890   5.514   4.976
14797TIP3   OH244267   6.134   3.997   6.828
14797TIP3    H144268   6.115   3.936   6.901
14797TIP3    H244269   6.223   4.028   6.855
14798TIP3   OH244270   6.392   3.997   6.938
14798TIP3    H144271   6.481   3.971   6.909
14798TIP3    H244272   6.380   3.946   7.020
14799TIP3   OH244273   5.555   5.231   5.037
14799TIP3    H144274   5.490   5.258   5.104
14799TIP3    H244275   5.604   5.163   5.084
14800TIP3   OH244276   7.221   4.075   6.748
14800TIP3    H144277   7.239   4.041   6.839
14800TIP3    H244278   7.309   4.067   6.706
14801TIP3   OH244279   7.158   5.624   6.243
14801TIP3    H144280   7.081   5.592   6.191
14801TIP3    H244281   7.140   5.720   6.242
14802TIP3   OH244282   8.427   4.997   5.005
14802TIP3    H144283   8.399   5.089   4.987
14802TIP3    H244284   8.348   4.949   4.976
14803TIP3   OH244285   8.424   4.995   5.386
14803TIP3    H144286   8.456   4.969   5.474
14803TIP3    H244287   8.382   4.914   5.355
14804TIP3   OH244288   7.725   4.893   5.753
14804TIP3    H144289   7.756   4.825   5.815
14804TIP3    H244290   7.804   4.948   5.744
14805TIP3   OH244291   8.668   5.299   5.068
14805TIP3    H144292   8.654   5.230   5.134
14805TIP3    H244293   8.696   5.375   5.123
14806TIP3   OH244294   7.696   5.302   5.480
14806TIP3    H144295   7.686   5.205   5.482
14806TIP3    H244296   7.792   5.310   5.473
14807TIP3   OH244297   7.403   4.507   5.263
14807TIP3    H144298   7.353   4.589   5.278
14807TIP3    H244299   7.333   4.451   5.226
14808TIP3   OH244300   7.463   4.794   5.435
14808TIP3    H144301   7.511   4.716   5.471
14808TIP3    H244302   7.519   4.819   5.361
14809TIP3   OH244303   8.313   5.758   5.082
14809TIP3    H144304   8.363   5.686   5.038
14809TIP3    H244305   8.310   5.728   5.173
14810TIP3   OH244306   8.224   5.222   5.435
14810TIP3    H144307   8.262   5.145   5.390
14810TIP3    H244308   8.308   5.267   5.460
14811TIP3   OH244309   9.233   4.544   5.432
14811TIP3    H144310   9.264   4.626   5.478
14811TIP3    H244311   9.259   4.564   5.340
14812TIP3   OH244312   8.636   4.726   5.468
14812TIP3    H144313   8.678   4.640   5.490
14812TIP3    H244314   8.605   4.709   5.377
14813TIP3   OH244315   7.973   4.384   5.434
14813TIP3    H144316   7.952   4.456   5.371
14813TIP3    H244317   7.925   4.310   5.390
14814TIP3   OH244318   8.667   4.474   5.056
14814TIP3    H144319   8.739   4.458   5.122
14814TIP3    H244320   8.720   4.510   4.983
14815TIP3   OH244321   7.607   4.586   5.540
14815TIP3    H144322   7.690   4.565   5.588
14815TIP3    H244323   7.619   4.529   5.461
14816TIP3   OH244324   8.048   4.784   5.332
14816TIP3    H144325   8.142   4.757   5.346
14816TIP3    H244326   8.009   4.699   5.301
14817TIP3   OH244327   9.308   4.749   5.603
14817TIP3    H144328   9.224   4.797   5.587
14817TIP3    H244329   9.325   4.773   5.695
14818TIP3   OH244330   7.971   4.367   5.868
14818TIP3    H144331   7.910   4.403   5.801
14818TIP3    H244332   7.919   4.384   5.949
14819TIP3   OH244333   8.324   5.223   4.873
14819TIP3    H144334   8.272   5.196   4.796
14819TIP3    H244335   8.278   5.306   4.898
14820TIP3   OH244336   8.077   5.142   5.664
14820TIP3    H144337   8.013   5.207   5.702
14820TIP3    H244338   8.118   5.194   5.592
14821TIP3   OH244339   8.879   4.476   5.227
14821TIP3    H144340   8.868   4.428   5.310
14821TIP3    H244341   8.932   4.553   5.255
14822TIP3   OH244342   7.841   4.482   5.652
14822TIP3    H144343   7.903   4.554   5.675
14822TIP3    H244344   7.889   4.441   5.577
14823TIP3   OH244345   7.904   5.336   5.761
14823TIP3    H144346   7.878   5.421   5.721
14823TIP3    H244347   7.825   5.320   5.817
14824TIP3   OH244348   7.303   5.025   5.001
14824TIP3    H144349   7.259   5.047   4.916
14824TIP3    H244350   7.328   5.113   5.034
14825TIP3   OH244351   8.738   5.540   5.233
14825TIP3    H144352   8.649   5.533   5.275
14825TIP3    H244353   8.731   5.628   5.191
14826TIP3   OH244354   9.029   4.442   5.598
14826TIP3    H144355   8.942   4.474   5.569
14826TIP3    H244356   9.088   4.475   5.528
14827TIP3   OH244357   8.327   4.087   5.581
14827TIP3    H144358   8.315   3.992   5.599
14827TIP3    H244359   8.249   4.124   5.628
14828TIP3   OH244360   8.444   5.585   4.912
14828TIP3    H144361   8.495   5.505   4.890
14828TIP3    H244362   8.503   5.653   4.871
14829TIP3   OH244363   8.588   5.370   4.813
14829TIP3    H144364   8.533   5.295   4.787
14829TIP3    H244365   8.623   5.339   4.900
14830TIP3   OH244366   8.964   5.455   5.581
14830TIP3    H144367   8.954   5.378   5.522
14830TIP3    H244368   8.947   5.530   5.520
14831TIP3   OH244369   8.256   4.848   4.836
14831TIP3    H144370   8.175   4.899   4.815
14831TIP3    H244371   8.302   4.846   4.751
14832TIP3   OH244372   8.215   4.634   4.552
14832TIP3    H144373   8.282   4.683   4.603
14832TIP3    H244374   8.271   4.569   4.506
14833TIP3   OH244375   9.160   5.091   5.423
14833TIP3    H144376   9.077   5.143   5.430
14833TIP3    H244377   9.189   5.115   5.333
14834TIP3   OH244378   8.605   4.931   4.809
14834TIP3    H144379   8.549   4.956   4.887
14834TIP3    H244380   8.687   4.904   4.854
14835TIP3   OH244381   8.839   4.971   5.720
14835TIP3    H144382   8.837   5.054   5.771
14835TIP3    H244383   8.752   4.976   5.675
14836TIP3   OH244384   7.837   4.930   5.224
14836TIP3    H144385   7.795   4.871   5.158
14836TIP3    H244386   7.913   4.875   5.254
14837TIP3   OH244387   7.966   5.340   5.375
14837TIP3    H144388   7.945   5.296   5.291
14837TIP3    H244389   8.056   5.306   5.393
14838TIP3   OH244390   7.974   4.900   5.581
14838TIP3    H144391   8.006   4.880   5.490
14838TIP3    H244392   8.016   4.986   5.600
14839TIP3   OH244393   8.499   5.538   5.356
14839TIP3    H144394   8.483   5.618   5.409
14839TIP3    H244395   8.483   5.466   5.421
14840TIP3   OH244396   8.109   5.458   5.904
14840TIP3    H144397   8.049   5.520   5.950
14840TIP3    H244398   8.045   5.404   5.855
14841TIP3   OH244399   8.446   4.789   4.635
14841TIP3    H144400   8.504   4.848   4.687
14841TIP3    H244401   8.472   4.814   4.543
14842TIP3   OH244402   7.864   5.014   6.005
14842TIP3    H144403   7.868   5.101   6.050
14842TIP3    H244404   7.769   4.994   6.012
14843TIP3   OH244405   8.187   5.469   4.907
14843TIP3    H144406   8.264   5.523   4.930
14843TIP3    H244407   8.124   5.535   4.876
14844TIP3   OH244408   7.904   5.629   5.991
14844TIP3    H144409   7.871   5.626   5.899
14844TIP3    H244410   7.824   5.605   6.043
14845TIP3   OH244411   8.960   4.031   4.683
14845TIP3    H144412   8.878   4.049   4.734
14845TIP3    H244413   8.972   4.115   4.635
14846TIP3   OH244414   7.703   4.772   5.028
14846TIP3    H144415   7.635   4.817   4.974
14846TIP3    H244416   7.661   4.687   5.045
14847TIP3   OH244417   8.755   5.400   4.230
14847TIP3    H144418   8.764   5.497   4.217
14847TIP3    H244419   8.848   5.371   4.216
14848TIP3   OH244420   7.484   5.156   5.937
14848TIP3    H144421   7.418   5.135   5.868
14848TIP3    H244422   7.519   5.068   5.961
14849TIP3   OH244423   7.337   5.347   5.574
14849TIP3    H144424   7.433   5.344   5.561
14849TIP3    H244425   7.326   5.429   5.624
14850TIP3   OH244426   9.203   5.798   5.628
14850TIP3    H144427   9.201   5.702   5.641
14850TIP3    H244428   9.119   5.824   5.672
14851TIP3   OH244429   8.309   5.586   5.761
14851TIP3    H144430   8.308   5.678   5.794
14851TIP3    H244431   8.236   5.546   5.815
14852TIP3   OH244432   8.069   5.716   4.711
14852TIP3    H144433   8.021   5.702   4.627
14852TIP3    H244434   8.038   5.804   4.739
14853TIP3   OH244435   7.508   5.564   5.095
14853TIP3    H144436   7.553   5.554   5.181
14853TIP3    H244437   7.446   5.489   5.099
14854TIP3   OH244438   8.268   5.614   4.354
14854TIP3    H144439   8.328   5.546   4.317
14854TIP3    H244440   8.303   5.625   4.445
14855TIP3   OH244441   8.320   5.661   4.624
14855TIP3    H144442   8.232   5.673   4.665
14855TIP3    H244443   8.371   5.627   4.699
14856TIP3   OH244444   9.092   4.932   5.900
14856TIP3    H144445   9.011   4.942   5.848
14856TIP3    H244446   9.109   4.836   5.892
14857TIP3   OH244447   7.688   5.339   5.929
14857TIP3    H144448   7.738   5.320   6.010
14857TIP3    H244449   7.614   5.275   5.934
14858TIP3   OH244450   8.088   4.163   5.709
14858TIP3    H144451   7.998   4.131   5.684
14858TIP3    H244452   8.063   4.245   5.756
14859TIP3   OH244453   8.622   4.278   5.904
14859TIP3    H144454   8.690   4.250   5.969
14859TIP3    H244455   8.538   4.257   5.951
14860TIP3   OH244456   8.859   4.705   5.821
14860TIP3    H144457   8.812   4.702   5.907
14860TIP3    H244458   8.836   4.794   5.788
14861TIP3   OH244459   8.520   4.838   4.379
14861TIP3    H144460   8.487   4.810   4.291
14861TIP3    H244461   8.601   4.887   4.354
14862TIP3   OH244462   8.234   4.212   4.681
14862TIP3    H144463   8.201   4.209   4.773
14862TIP3    H244464   8.195   4.129   4.648
14863TIP3   OH244465   8.020   4.677   5.729
14863TIP3    H144466   7.969   4.698   5.810
14863TIP3    H244467   8.004   4.758   5.675
14864TIP3   OH244468   7.903   4.564   5.243
14864TIP3    H144469   7.810   4.537   5.261
14864TIP3    H244470   7.916   4.523   5.154
14865TIP3   OH244471   8.395   4.650   4.970
14865TIP3    H144472   8.341   4.721   4.929
14865TIP3    H244473   8.448   4.619   4.895
14866TIP3   OH244474   8.569   4.930   6.058
14866TIP3    H144475   8.547   4.856   6.119
14866TIP3    H244476   8.663   4.942   6.078
14867TIP3   OH244477   8.552   4.678   5.210
14867TIP3    H144478   8.491   4.707   5.138
14867TIP3    H244479   8.584   4.596   5.168
14868TIP3   OH244480   7.839   4.707   5.938
14868TIP3    H144481   7.867   4.769   6.006
14868TIP3    H244482   7.827   4.624   5.989
14869TIP3   OH244483   7.889   4.185   4.647
14869TIP3    H144484   7.881   4.181   4.744
14869TIP3    H244485   7.809   4.235   4.624
14870TIP3   OH244486   7.432   4.230   5.517
14870TIP3    H144487   7.508   4.260   5.571
14870TIP3    H244488   7.472   4.195   5.437
14871TIP3   OH244489   7.407   4.211   5.036
14871TIP3    H144490   7.452   4.250   4.959
14871TIP3    H244491   7.345   4.283   5.058
14872TIP3   OH244492   8.561   4.925   5.633
14872TIP3    H144493   8.594   4.853   5.574
14872TIP3    H244494   8.533   4.873   5.710
14873TIP3   OH244495   8.229   4.388   5.304
14873TIP3    H144496   8.147   4.385   5.357
14873TIP3    H244497   8.297   4.384   5.373
14874TIP3   OH244498   7.665   4.441   5.312
14874TIP3    H144499   7.570   4.449   5.286
14874TIP3    H244500   7.687   4.349   5.290
14875TIP3   OH244501   7.935   4.438   5.001
14875TIP3    H144502   8.029   4.453   4.979
14875TIP3    H244503   7.888   4.461   4.918
14876TIP3   OH244504   8.721   4.462   5.505
14876TIP3    H144505   8.688   4.474   5.597
14876TIP3    H244506   8.656   4.400   5.469
14877TIP3   OH244507   7.775   4.472   4.781
14877TIP3    H144508   7.701   4.428   4.736
14877TIP3    H244509   7.825   4.506   4.704
14878TIP3   OH244510   8.891   6.151   5.724
14878TIP3    H144511   8.887   6.174   5.629
14878TIP3    H244512   8.969   6.201   5.753
14879TIP3   OH244513   7.849   5.261   6.147
14879TIP3    H144514   7.929   5.291   6.195
14879TIP3    H244515   7.785   5.259   6.221
14880TIP3   OH244516   8.314   4.714   5.402
14880TIP3    H144517   8.386   4.673   5.352
14880TIP3    H244518   8.322   4.672   5.490
14881TIP3   OH244519   7.838   4.202   5.279
14881TIP3    H144520   7.803   4.123   5.326
14881TIP3    H244521   7.890   4.162   5.208
14882TIP3   OH244522   8.291   4.610   5.690
14882TIP3    H144523   8.201   4.646   5.706
14882TIP3    H244524   8.348   4.670   5.742
14883TIP3   OH244525   8.028   5.002   4.786
14883TIP3    H144526   7.956   4.936   4.776
14883TIP3    H244527   8.010   5.036   4.877
14884TIP3   OH244528   8.928   5.238   5.416
14884TIP3    H144529   8.952   5.287   5.335
14884TIP3    H244530   8.842   5.196   5.392
14885TIP3   OH244531   8.485   4.316   4.644
14885TIP3    H144532   8.389   4.297   4.656
14885TIP3    H244533   8.494   4.409   4.672
14886TIP3   OH244534   8.425   5.319   5.783
14886TIP3    H144535   8.449   5.297   5.874
14886TIP3    H244536   8.389   5.409   5.791
14887TIP3   OH244537   8.555   4.560   4.751
14887TIP3    H144538   8.651   4.566   4.768
14887TIP3    H244539   8.537   4.641   4.699
14888TIP3   OH244540   7.721   5.025   5.463
14888TIP3    H144541   7.757   4.995   5.377
14888TIP3    H244542   7.758   4.959   5.524
14889TIP3   OH244543   8.170   5.150   4.603
14889TIP3    H144544   8.124   5.237   4.611
14889TIP3    H244545   8.118   5.096   4.666
14890TIP3   OH244546   7.599   4.944   6.076
14890TIP3    H144547   7.619   4.929   6.170
14890TIP3    H244548   7.530   4.877   6.059
14891TIP3   OH244549   8.325   5.057   6.096
14891TIP3    H144550   8.266   4.999   6.045
14891TIP3    H244551   8.413   5.024   6.068
14892TIP3   OH244552   8.588   5.577   5.682
14892TIP3    H144553   8.491   5.577   5.692
14892TIP3    H244554   8.614   5.632   5.758
14893TIP3   OH244555   8.997   4.649   4.588
14893TIP3    H144556   8.935   4.604   4.526
14893TIP3    H244557   8.996   4.737   4.546
14894TIP3   OH244558   9.215   5.507   5.670
14894TIP3    H144559   9.117   5.502   5.661
14894TIP3    H244560   9.240   5.478   5.579
14895TIP3   OH244561   8.723   5.461   4.502
14895TIP3    H144562   8.668   5.405   4.559
14895TIP3    H244563   8.712   5.422   4.414
14896TIP3   OH244564   8.693   5.100   5.334
14896TIP3    H144565   8.600   5.074   5.348
14896TIP3    H244566   8.727   5.020   5.290
14897TIP3   OH244567   7.819   5.326   5.084
14897TIP3    H144568   7.819   5.409   5.033
14897TIP3    H244569   7.724   5.312   5.098
14898TIP3   OH244570   7.379   4.633   4.783
14898TIP3    H144571   7.427   4.715   4.809
14898TIP3    H244572   7.304   4.636   4.846
14899TIP3   OH244573   7.961   5.094   5.031
14899TIP3    H144574   7.924   5.182   5.049
14899TIP3    H244575   7.924   5.043   5.106
14900TIP3   OH244576   8.089   5.672   5.557
14900TIP3    H144577   8.129   5.744   5.505
14900TIP3    H244578   8.167   5.638   5.604
14901TIP3   OH244579   7.741   5.566   4.939
14901TIP3    H144580   7.654   5.574   4.985
14901TIP3    H244581   7.772   5.659   4.943
14902TIP3   OH244582   8.478   5.305   5.515
14902TIP3    H144583   8.469   5.303   5.613
14902TIP3    H244584   8.559   5.253   5.503
14903TIP3   OH244585   8.450   5.197   4.398
14903TIP3    H144586   8.504   5.170   4.475
14903TIP3    H244587   8.362   5.173   4.430
14904TIP3   OH244588   8.727   5.839   5.565
14904TIP3    H144589   8.647   5.785   5.555
14904TIP3    H244590   8.713   5.905   5.493
14905TIP3   OH244591   8.797   5.673   4.222
14905TIP3    H144592   8.847   5.747   4.184
14905TIP3    H244593   8.715   5.721   4.247
14906TIP3   OH244594   7.812   4.451   6.085
14906TIP3    H144595   7.715   4.453   6.096
14906TIP3    H244596   7.839   4.388   6.154
14907TIP3   OH244597   8.608   5.127   4.611
14907TIP3    H144598   8.597   5.065   4.686
14907TIP3    H244599   8.705   5.125   4.601
14908TIP3   OH244600   7.528   5.535   5.716
14908TIP3    H144601   7.579   5.458   5.746
14908TIP3    H244602   7.561   5.603   5.777
14909TIP3   OH244603   7.810   5.168   4.382
14909TIP3    H144604   7.838   5.075   4.371
14909TIP3    H244605   7.791   5.170   4.479
14910TIP3   OH244606   7.766   5.186   4.661
14910TIP3    H144607   7.832   5.155   4.725
14910TIP3    H244608   7.770   5.284   4.673
14911TIP3   OH244609   7.500   4.878   4.872
14911TIP3    H144610   7.433   4.921   4.931
14911TIP3    H244611   7.512   4.949   4.806
14912TIP3   OH244612   8.648   4.513   5.764
14912TIP3    H144613   8.727   4.552   5.803
14912TIP3    H244614   8.634   4.433   5.819
14913TIP3   OH244615   8.529   4.266   4.928
14913TIP3    H144616   8.515   4.290   4.835
14913TIP3    H244617   8.567   4.348   4.966
14914TIP3   OH244618   8.028   5.380   4.614
14914TIP3    H144619   7.943   5.407   4.654
14914TIP3    H244620   8.049   5.460   4.564
14915TIP3   OH244621   8.219   4.444   5.032
14915TIP3    H144622   8.284   4.516   5.016
14915TIP3    H244623   8.222   4.436   5.129
14916TIP3   OH244624   8.488   4.764   5.840
14916TIP3    H144625   8.507   4.817   5.920
14916TIP3    H244626   8.543   4.685   5.854
14917TIP3   OH244627   8.363   4.173   5.135
14917TIP3    H144628   8.358   4.249   5.196
14917TIP3    H244629   8.423   4.209   5.066
14918TIP3   OH244630   7.772   5.457   4.687
14918TIP3    H144631   7.740   5.526   4.625
14918TIP3    H244632   7.755   5.500   4.774
14919TIP3   OH244633   7.874   4.169   4.923
14919TIP3    H144634   7.871   4.259   4.961
14919TIP3    H244635   7.970   4.151   4.932
14920TIP3   OH244636   9.126   4.665   5.819
14920TIP3    H144637   9.028   4.662   5.826
14920TIP3    H244638   9.139   4.622   5.734
14921TIP3   OH244639   8.779   4.858   5.206
14921TIP3    H144640   8.703   4.799   5.221
14921TIP3    H244641   8.850   4.812   5.255
14922TIP3   OH244642   7.493   5.094   4.674
14922TIP3    H144643   7.564   5.158   4.691
14922TIP3    H244644   7.541   5.034   4.613
14923TIP3   OH244645   7.436   4.365   4.808
14923TIP3    H144646   7.432   4.462   4.803
14923TIP3    H244647   7.350   4.339   4.773
14924TIP3   OH244648   8.747   5.810   5.157
14924TIP3    H144649   8.704   5.857   5.082
14924TIP3    H244650   8.841   5.832   5.137
14925TIP3   OH244651   7.823   4.082   5.686
14925TIP3    H144652   7.792   4.048   5.599
14925TIP3    H244653   7.813   4.004   5.744
14926TIP3   OH244654   7.362   5.302   5.066
14926TIP3    H144655   7.289   5.331   5.123
14926TIP3    H244656   7.334   5.341   4.980
14927TIP3   OH244657   7.517   5.840   6.140
14927TIP3    H144658   7.604   5.836   6.184
14927TIP3    H244659   7.495   5.745   6.134
14928TIP3   OH244660   8.005   5.808   6.182
14928TIP3    H144661   8.097   5.781   6.187
14928TIP3    H244662   7.974   5.752   6.108
14929TIP3   OH244663   7.978   5.382   4.310
14929TIP3    H144664   7.926   5.311   4.352
14929TIP3    H244665   8.056   5.332   4.281
14930TIP3   OH244666   8.635   5.716   5.918
14930TIP3    H144667   8.629   5.643   5.985
14930TIP3    H244668   8.716   5.763   5.946
14931TIP3   OH244669   8.417   5.423   4.220
14931TIP3    H144670   8.463   5.358   4.276
14931TIP3    H244671   8.472   5.426   4.140
14932TIP3   OH244672   7.648   5.248   6.339
14932TIP3    H144673   7.666   5.152   6.341
14932TIP3    H244674   7.561   5.250   6.293
14933TIP3   OH244675   7.637   4.914   4.535
14933TIP3    H144676   7.685   4.867   4.605
14933TIP3    H244677   7.698   4.905   4.459
14934TIP3   OH244678   8.255   5.332   6.112
14934TIP3    H144679   8.215   5.348   6.024
14934TIP3    H244680   8.288   5.240   6.104
14935TIP3   OH244681   8.128   5.096   4.337
14935TIP3    H144682   8.136   5.110   4.434
14935TIP3    H244683   8.134   4.998   4.333
14936TIP3   OH244684   8.749   5.340   5.716
14936TIP3    H144685   8.824   5.385   5.673
14936TIP3    H244686   8.679   5.407   5.704
14937TIP3   OH244687   7.767   4.982   6.319
14937TIP3    H144688   7.842   4.925   6.296
14937TIP3    H244689   7.794   5.015   6.408
14938TIP3   OH244690   7.837   4.803   4.754
14938TIP3    H144691   7.806   4.763   4.838
14938TIP3    H244692   7.871   4.724   4.706
14939TIP3   OH244693   8.103   4.867   5.981
14939TIP3    H144694   8.025   4.927   5.983
14939TIP3    H244695   8.152   4.901   5.903
14940TIP3   OH244696   7.934   4.596   4.594
14940TIP3    H144697   7.909   4.594   4.499
14940TIP3    H244698   8.032   4.601   4.586
14941TIP3   OH244699   8.621   5.269   6.116
14941TIP3    H144700   8.701   5.245   6.067
14941TIP3    H244701   8.619   5.201   6.185
14942TIP3   OH244702   8.759   4.928   4.255
14942TIP3    H144703   8.737   4.880   4.172
14942TIP3    H244704   8.725   5.017   4.231
14943TIP3   OH244705   8.225   4.655   6.109
14943TIP3    H144706   8.226   4.575   6.053
14943TIP3    H244707   8.182   4.720   6.050
14944TIP3   OH244708   8.229   4.442   5.915
14944TIP3    H144709   8.256   4.482   5.830
14944TIP3    H244710   8.135   4.419   5.896
14945TIP3   OH244711   8.257   4.977   5.788
14945TIP3    H144712   8.340   4.984   5.739
14945TIP3    H244713   8.201   5.045   5.744
14946TIP3   OH244714   8.839   4.944   6.170
14946TIP3    H144715   8.886   4.860   6.182
14946TIP3    H244716   8.910   5.001   6.135
14947TIP3   OH244717   8.879   5.198   5.906
14947TIP3    H144718   8.822   5.251   5.845
14947TIP3    H244719   8.967   5.217   5.866
14948TIP3   OH244720   8.102   4.769   6.338
14948TIP3    H144721   8.035   4.699   6.351
14948TIP3    H244722   8.139   4.744   6.251
14949TIP3   OH244723   8.361   4.205   5.980
14949TIP3    H144724   8.312   4.287   5.959
14949TIP3    H244725   8.292   4.137   5.969
14950TIP3   OH244726   8.487   4.712   6.198
14950TIP3    H144727   8.478   4.698   6.294
14950TIP3    H244728   8.397   4.685   6.169
14951TIP3   OH244729   8.726   4.660   6.052
14951TIP3    H144730   8.652   4.660   6.115
14951TIP3    H244731   8.800   4.629   6.108
14952TIP3   OH244732   8.950   4.598   6.204
14952TIP3    H144733   8.967   4.503   6.222
14952TIP3    H244734   8.951   4.638   6.293
14953TIP3   OH244735   7.944   4.548   6.390
14953TIP3    H144736   7.950   4.458   6.354
14953TIP3    H244737   7.981   4.534   6.480
14954TIP3   OH244738   8.456   4.216   6.238
14954TIP3    H144739   8.524   4.145   6.234
14954TIP3    H244740   8.417   4.208   6.149
14955TIP3   OH244741   8.522   4.430   6.397
14955TIP3    H144742   8.500   4.359   6.333
14955TIP3    H244743   8.444   4.489   6.390
14956TIP3   OH244744   7.737   5.649   4.489
14956TIP3    H144745   7.834   5.649   4.477
14956TIP3    H244746   7.710   5.702   4.412
14957TIP3   OH244747   7.227   5.042   4.732
14957TIP3    H144748   7.317   5.069   4.704
14957TIP3    H244749   7.211   4.963   4.678
14958TIP3   OH244750   7.137   5.653   5.126
14958TIP3    H144751   7.069   5.592   5.090
14958TIP3    H244752   7.180   5.595   5.192
14959TIP3   OH244753   7.274   5.505   5.313
14959TIP3    H144754   7.258   5.431   5.374
14959TIP3    H244755   7.324   5.566   5.370
14960TIP3   OH244756   8.999   5.904   5.112
14960TIP3    H144757   9.023   5.938   5.201
14960TIP3    H244758   9.058   5.954   5.055
14961TIP3   OH244759   9.026   5.924   5.395
14961TIP3    H144760   8.987   5.834   5.393
14961TIP3    H244761   9.106   5.907   5.447
14962TIP3   OH244762   9.074   5.603   5.968
14962TIP3    H144763   9.002   5.611   6.034
14962TIP3    H244764   9.117   5.691   5.974
14963TIP3   OH244765   8.886   5.108   4.592
14963TIP3    H144766   8.938   5.189   4.588
14963TIP3    H244767   8.925   5.064   4.672
14964TIP3   OH244768   9.017   4.986   4.795
14964TIP3    H144769   8.954   4.940   4.855
14964TIP3    H244770   9.085   5.019   4.858
14965TIP3   OH244771   9.072   5.373   5.224
14965TIP3    H144772   9.128   5.311   5.175
14965TIP3    H244773   9.064   5.448   5.162
14966TIP3   OH244774   8.904   5.672   5.421
14966TIP3    H144775   8.834   5.717   5.471
14966TIP3    H244776   8.853   5.626   5.351
14967TIP3   OH244777   8.959   4.891   4.438
14967TIP3    H144778   8.888   4.890   4.370
14967TIP3    H244779   8.925   4.963   4.495
14968TIP3   OH244780   8.828   4.564   4.393
14968TIP3    H144781   8.785   4.600   4.315
14968TIP3    H244782   8.803   4.469   4.387
14969TIP3   OH244783   8.835   4.838   4.939
14969TIP3    H144784   8.842   4.741   4.934
14969TIP3    H244785   8.821   4.853   5.035
14970TIP3   OH244786   7.460   4.910   5.687
14970TIP3    H144787   7.458   4.881   5.594
14970TIP3    H244788   7.557   4.913   5.703
14971TIP3   OH244789   9.122   5.263   5.796
14971TIP3    H144790   9.194   5.197   5.788
14971TIP3    H244791   9.151   5.333   5.736
14972TIP3   OH244792   9.308   5.070   5.814
14972TIP3    H144793   9.234   5.019   5.853
14972TIP3    H244794   9.381   5.007   5.827
14973TIP3   OH244795   8.771   4.299   4.382
14973TIP3    H144796   8.847   4.267   4.436
14973TIP3    H244797   8.699   4.238   4.407
14974TIP3   OH244798   8.829   4.554   4.835
14974TIP3    H144799   8.869   4.465   4.851
14974TIP3    H244800   8.889   4.585   4.765
14975TIP3   OH244801   8.990   4.730   5.329
14975TIP3    H144802   9.077   4.756   5.289
14975TIP3    H244803   9.004   4.765   5.419
14976TIP3   OH244804   9.058   4.872   5.562
14976TIP3    H144805   8.981   4.906   5.611
14976TIP3    H244806   9.091   4.953   5.517
14977TIP3   OH244807   7.677   4.601   6.367
14977TIP3    H144808   7.775   4.592   6.364
14977TIP3    H244809   7.653   4.514   6.403
14978TIP3   OH244810   9.498   4.453   6.114
14978TIP3    H144811   9.566   4.394   6.075
14978TIP3    H244812   9.483   4.518   6.043
14979TIP3   OH244813   8.938   4.304   4.872
14979TIP3    H144814   8.986   4.289   4.956
14979TIP3    H244815   8.878   4.227   4.871
14980TIP3   OH244816   7.638   4.290   5.692
14980TIP3    H144817   7.700   4.215   5.702
14980TIP3    H244818   7.701   4.365   5.686
14981TIP3   OH244819   7.443   4.565   5.766
14981TIP3    H144820   7.490   4.557   5.681
14981TIP3    H244821   7.471   4.652   5.795
14982TIP3   OH244822   9.385   4.608   5.920
14982TIP3    H144823   9.298   4.644   5.946
14982TIP3    H244824   9.356   4.532   5.865
14983TIP3   OH244825   9.019   4.241   4.503
14983TIP3    H144826   9.059   4.167   4.453
14983TIP3    H244827   9.088   4.309   4.498
14984TIP3   OH244828   7.424   4.070   5.267
14984TIP3    H144829   7.331   4.066   5.292
14984TIP3    H244830   7.421   4.127   5.187
14985TIP3   OH244831   8.584   5.767   4.770
14985TIP3    H144832   8.638   5.761   4.689
14985TIP3    H244833   8.628   5.840   4.819
14986TIP3   OH244834   7.645   4.151   6.082
14986TIP3    H144835   7.593   4.141   6.163
14986TIP3    H244836   7.578   4.187   6.021
14987TIP3   OH244837   7.684   5.577   6.159
14987TIP3    H144838   7.594   5.547   6.139
14987TIP3    H244839   7.693   5.554   6.252
14988TIP3   OH244840   7.863   5.608   5.707
14988TIP3    H144841   7.814   5.682   5.666
14988TIP3    H244842   7.949   5.621   5.661
14989TIP3   OH244843   8.309   5.851   5.846
14989TIP3    H144844   8.353   5.855   5.933
14989TIP3    H244845   8.374   5.901   5.791
14990TIP3   OH244846   8.487   6.000   5.704
14990TIP3    H144847   8.559   5.954   5.657
14990TIP3    H244848   8.539   6.061   5.761
14991TIP3   OH244849   9.282   4.366   5.801
14991TIP3    H144850   9.190   4.359   5.770
14991TIP3    H244851   9.314   4.274   5.790
14992TIP3   OH244852   7.540   5.865   5.728
14992TIP3    H144853   7.451   5.899   5.701
14992TIP3    H244854   7.544   5.898   5.819
14993TIP3   OH244855   7.775   5.842   5.585
14993TIP3    H144856   7.689   5.856   5.630
14993TIP3    H244857   7.756   5.875   5.495
14994TIP3   OH244858   8.202   5.871   5.383
14994TIP3    H144859   8.132   5.893   5.318
14994TIP3    H244860   8.215   5.959   5.426
14995TIP3   OH244861   8.470   5.811   5.434
14995TIP3    H144862   8.376   5.830   5.415
14995TIP3    H244863   8.513   5.888   5.394
14996TIP3   OH244864   8.676   6.002   5.351
14996TIP3    H144865   8.663   6.088   5.306
14996TIP3    H244866   8.703   5.945   5.276
14997TIP3   OH244867   7.451   5.659   5.474
14997TIP3    H144868   7.477   5.633   5.564
14997TIP3    H244869   7.522   5.615   5.423
14998TIP3   OH244870   7.643   5.529   5.330
14998TIP3    H144871   7.660   5.446   5.380
14998TIP3    H244872   7.734   5.567   5.325
14999TIP3   OH244873   7.909   5.624   5.332
14999TIP3    H144874   7.942   5.533   5.321
14999TIP3    H244875   7.953   5.647   5.416
15000TIP3   OH244876   8.484   4.280   5.417
15000TIP3    H144877   8.442   4.212   5.472
15000TIP3    H244878   8.558   4.231   5.376
15001TIP3   OH244879   9.011   4.159   5.324
15001TIP3    H144880   9.046   4.213   5.250
15001TIP3    H244881   8.915   4.179   5.319
15002TIP3   OH244882   9.104   4.264   5.089
15002TIP3    H144883   9.178   4.212   5.050
15002TIP3    H244884   9.138   4.356   5.074
15003TIP3   OH244885   7.735   3.990   5.437
15003TIP3    H144886   7.643   3.957   5.438
15003TIP3    H244887   7.784   3.905   5.434
15004TIP3   OH244888   7.520   3.859   5.084
15004TIP3    H144889   7.550   3.918   5.012
15004TIP3    H244890   7.492   3.923   5.151
15005TIP3   OH244891   8.177   4.023   5.317
15005TIP3    H144892   8.237   4.073   5.259
15005TIP3    H244893   8.199   4.059   5.404
15006TIP3   OH244894   8.727   4.169   5.301
15006TIP3    H144895   8.724   4.130   5.213
15006TIP3    H244896   8.713   4.088   5.357
15007TIP3   OH244897   8.755   4.090   4.863
15007TIP3    H144898   8.668   4.132   4.875
15007TIP3    H244899   8.741   4.006   4.910
15008TIP3   OH244900   7.240   5.427   4.862
15008TIP3    H144901   7.152   5.398   4.831
15008TIP3    H244902   7.232   5.522   4.842
15009TIP3   OH244903   7.638   4.020   4.847
15009TIP3    H144904   7.686   3.956   4.792
15009TIP3    H244905   7.711   4.073   4.885
15010TIP3   OH244906   8.152   4.194   4.946
15010TIP3    H144907   8.210   4.146   5.007
15010TIP3    H244908   8.173   4.286   4.972
15011TIP3   OH244909   8.008   5.621   4.445
15011TIP3    H144910   8.098   5.643   4.411
15011TIP3    H244911   7.988   5.544   4.388
15012TIP3   OH244912   8.734   5.736   4.538
15012TIP3    H144913   8.725   5.638   4.525
15012TIP3    H244914   8.687   5.770   4.459
15013TIP3   OH244915   7.942   4.272   6.330
15013TIP3    H144916   7.909   4.200   6.385
15013TIP3    H244917   8.037   4.272   6.355
15014TIP3   OH244918   8.192   4.269   6.447
15014TIP3    H144919   8.277   4.242   6.408
15014TIP3    H244920   8.180   4.198   6.514
15015TIP3   OH244921   7.355   5.480   4.522
15015TIP3    H144922   7.291   5.514   4.587
15015TIP3    H244923   7.390   5.404   4.569
15016TIP3   OH244924   9.016   4.329   6.235
15016TIP3    H144925   9.036   4.297   6.326
15016TIP3    H244926   9.105   4.325   6.193
15017TIP3   OH244927   8.955   5.882   5.729
15017TIP3    H144928   8.877   5.851   5.678
15017TIP3    H244929   8.937   5.978   5.729
15018TIP3   OH244930   9.524   5.148   5.236
15018TIP3    H144931   9.552   5.079   5.298
15018TIP3    H244932   9.594   5.213   5.248
15019TIP3   OH244933   9.479   5.556   4.966
15019TIP3    H144934   9.481   5.458   4.973
15019TIP3    H244935   9.574   5.573   4.951
15020TIP3   OH244936   9.198   4.765   4.748
15020TIP3    H144937   9.147   4.846   4.764
15020TIP3    H244938   9.127   4.706   4.715
15021TIP3   OH244939   9.260   5.048   4.916
15021TIP3    H144940   9.303   4.971   4.960
15021TIP3    H244941   9.327   5.073   4.851
15022TIP3   OH244942  10.008   5.937   4.600
15022TIP3    H144943  10.090   5.971   4.560
15022TIP3    H244944   9.996   5.996   4.677
15023TIP3   OH244945   9.974   5.488   4.919
15023TIP3    H144946   9.987   5.431   4.841
15023TIP3    H244947  10.067   5.499   4.947
15024TIP3   OH244948   9.751   4.644   4.931
15024TIP3    H144949   9.754   4.709   4.859
15024TIP3    H244950   9.722   4.564   4.883
15025TIP3   OH244951   9.402   4.844   5.026
15025TIP3    H144952   9.483   4.823   5.077
15025TIP3    H244953   9.417   4.787   4.947
15026TIP3   OH244954   9.806   5.060   4.804
15026TIP3    H144955   9.900   5.038   4.821
15026TIP3    H244956   9.772   4.971   4.779
15027TIP3   OH244957   9.761   4.622   5.359
15027TIP3    H144958   9.701   4.658   5.291
15027TIP3    H244959   9.710   4.640   5.440
15028TIP3   OH244960   9.845   5.407   5.144
15028TIP3    H144961   9.788   5.476   5.185
15028TIP3    H244962   9.888   5.458   5.072
15029TIP3   OH244963   9.627   4.741   5.147
15029TIP3    H144964   9.693   4.811   5.168
15029TIP3    H244965   9.673   4.698   5.071
15030TIP3   OH244966   9.693   5.599   5.251
15030TIP3    H144967   9.670   5.687   5.214
15030TIP3    H244968   9.614   5.585   5.307
15031TIP3   OH244969   9.606   5.204   4.697
15031TIP3    H144970   9.569   5.140   4.632
15031TIP3    H244971   9.683   5.153   4.732
15032TIP3   OH244972   9.729   5.590   4.858
15032TIP3    H144973   9.726   5.553   4.769
15032TIP3    H244974   9.820   5.566   4.887
15033TIP3   OH244975   9.782   5.154   5.068
15033TIP3    H144976   9.793   5.145   4.972
15033TIP3    H244977   9.801   5.249   5.085
15034TIP3   OH244978   9.903   5.710   5.394
15034TIP3    H144979   9.844   5.775   5.438
15034TIP3    H244980   9.838   5.661   5.340
15035TIP3   OH244981   9.654   5.275   5.487
15035TIP3    H144982   9.660   5.360   5.535
15035TIP3    H244983   9.561   5.252   5.505
15036TIP3   OH244984   9.950   5.747   4.414
15036TIP3    H144985   9.966   5.808   4.489
15036TIP3    H244986   9.894   5.802   4.357
15037TIP3   OH244987   9.702   5.883   5.476
15037TIP3    H144988   9.667   5.884   5.385
15037TIP3    H244989   9.622   5.861   5.529
15038TIP3   OH244990   9.496   5.023   4.515
15038TIP3    H144991   9.430   5.061   4.453
15038TIP3    H244992   9.460   4.935   4.532
15039TIP3   OH244993   9.279   5.411   5.426
15039TIP3    H144994   9.214   5.387   5.357
15039TIP3    H244995   9.316   5.324   5.451
15040TIP3   OH244996   9.136   5.608   5.052
15040TIP3    H144997   9.232   5.603   5.052
15040TIP3    H244998   9.121   5.684   5.110
15041TIP3   OH244999  10.105   5.843   5.260
15041TIP3    H145000  10.099   5.938   5.282
15041TIP3    H245001  10.024   5.808   5.303
15042TIP3   OH245002   9.853   5.967   4.209
15042TIP3    H145003   9.823   5.961   4.116
15042TIP3    H245004   9.833   6.061   4.230
15043TIP3   OH245005   9.266   5.774   4.583
15043TIP3    H145006   9.340   5.781   4.649
15043TIP3    H245007   9.194   5.791   4.647
15044TIP3   OH245008   9.482   5.595   5.417
15044TIP3    H145009   9.533   5.578   5.499
15044TIP3    H245010   9.409   5.531   5.424
15045TIP3   OH245011   9.873   4.417   5.210
15045TIP3    H145012   9.785   4.389   5.178
15045TIP3    H245013   9.849   4.500   5.255
15046TIP3   OH245014   9.818   4.926   5.209
15046TIP3    H145015   9.772   4.947   5.292
15046TIP3    H245016   9.806   5.009   5.158
15047TIP3   OH245017   9.697   4.820   4.726
15047TIP3    H145018   9.608   4.788   4.753
15047TIP3    H245019   9.702   4.785   4.634
15048TIP3   OH245020   9.633   4.959   5.422
15048TIP3    H145021   9.663   5.019   5.492
15048TIP3    H245022   9.621   4.876   5.472
15049TIP3   OH245023   9.673   4.470   4.138
15049TIP3    H145024   9.638   4.430   4.219
15049TIP3    H245025   9.594   4.480   4.083
15050TIP3   OH245026   9.228   4.488   5.001
15050TIP3    H145027   9.302   4.518   5.058
15050TIP3    H245028   9.272   4.450   4.924
15051TIP3   OH245029   9.203   4.467   4.526
15051TIP3    H145030   9.245   4.506   4.446
15051TIP3    H245031   9.141   4.538   4.548
15052TIP3   OH245032   9.461   4.700   4.797
15052TIP3    H145033   9.365   4.703   4.772
15052TIP3    H245034   9.485   4.607   4.781
15053TIP3   OH245035   9.710   4.723   4.467
15053TIP3    H145036   9.783   4.733   4.405
15053TIP3    H245037   9.634   4.730   4.405
15054TIP3   OH245038   9.544   4.735   4.259
15054TIP3    H145039   9.481   4.686   4.203
15054TIP3    H245040   9.611   4.758   4.191
15055TIP3   OH245041   9.647   5.516   5.635
15055TIP3    H145042   9.726   5.547   5.684
15055TIP3    H245043   9.581   5.515   5.707
15056TIP3   OH245044   9.629   4.460   4.760
15056TIP3    H145045   9.595   4.385   4.812
15056TIP3    H245046   9.688   4.417   4.697
15057TIP3   OH245047   9.786   5.272   4.266
15057TIP3    H145048   9.728   5.194   4.275
15057TIP3    H245049   9.808   5.295   4.358
15058TIP3   OH245050  10.178   5.579   5.282
15058TIP3    H145051  10.199   5.563   5.375
15058TIP3    H245052  10.139   5.668   5.285
15059TIP3   OH245053   9.512   5.278   4.953
15059TIP3    H145054   9.548   5.251   4.866
15059TIP3    H245055   9.548   5.213   5.014
15060TIP3   OH245056   9.397   5.200   5.562
15060TIP3    H145057   9.420   5.188   5.657
15060TIP3    H245058   9.328   5.132   5.550
15061TIP3   OH245059  10.084   5.277   5.604
15061TIP3    H145060  10.000   5.234   5.575
15061TIP3    H245061  10.146   5.206   5.581
15062TIP3   OH245062   9.613   5.575   4.561
15062TIP3    H145063   9.636   5.657   4.513
15062TIP3    H245064   9.532   5.601   4.606
15063TIP3   OH245065   9.179   4.884   4.273
15063TIP3    H145066   9.228   4.966   4.294
15063TIP3    H245067   9.103   4.890   4.335
15064TIP3   OH245068   9.786   5.361   4.543
15064TIP3    H145069   9.731   5.442   4.535
15064TIP3    H245070   9.726   5.306   4.598
15065TIP3   OH245071   9.887   5.902   5.066
15065TIP3    H145072   9.889   5.977   5.003
15065TIP3    H245073   9.980   5.897   5.093
15066TIP3   OH245074   9.535   5.824   4.425
15066TIP3    H145075   9.452   5.839   4.473
15066TIP3    H245076   9.576   5.914   4.431
15067TIP3   OH245077   9.608   4.705   5.574
15067TIP3    H145078   9.512   4.710   5.589
15067TIP3    H245079   9.636   4.643   5.644
15068TIP3   OH245080   9.321   5.788   5.205
15068TIP3    H145081   9.379   5.721   5.243
15068TIP3    H245082   9.352   5.868   5.250
15069TIP3   OH245083   9.618   5.432   3.885
15069TIP3    H145084   9.633   5.339   3.860
15069TIP3    H245085   9.604   5.424   3.981
15070TIP3   OH245086   9.563   5.438   4.161
15070TIP3    H145087   9.650   5.408   4.196
15070TIP3    H245088   9.571   5.536   4.170
15071TIP3   OH245089   9.299   5.128   4.351
15071TIP3    H145090   9.225   5.172   4.394
15071TIP3    H245091   9.327   5.195   4.286
15072TIP3   OH245092   9.807   5.657   4.099
15072TIP3    H145093   9.722   5.679   4.140
15072TIP3    H245094   9.837   5.744   4.068
15073TIP3   OH245095   9.547   5.713   4.174
15073TIP3    H145096   9.527   5.785   4.109
15073TIP3    H245097   9.545   5.762   4.259
15074TIP3   OH245098   9.672   4.431   4.418
15074TIP3    H145099   9.639   4.511   4.462
15074TIP3    H245100   9.754   4.467   4.379
15075TIP3   OH245101   9.296   5.356   4.177
15075TIP3    H145102   9.375   5.414   4.177
15075TIP3    H245103   9.325   5.295   4.106
15076TIP3   OH245104   9.232   4.616   4.301
15076TIP3    H145105   9.231   4.714   4.293
15076TIP3    H245106   9.152   4.592   4.254
15077TIP3   OH245107   9.607   4.339   5.173
15077TIP3    H145108   9.582   4.304   5.086
15077TIP3    H245109   9.604   4.260   5.230
15078TIP3   OH245110   9.314   6.097   5.628
15078TIP3    H145111   9.401   6.096   5.673
15078TIP3    H245112   9.294   6.002   5.622
15079TIP3   OH245113   9.795   6.068   5.665
15079TIP3    H145114   9.888   6.046   5.681
15079TIP3    H245115   9.772   6.005   5.593
15080TIP3   OH245116   9.763   5.649   3.795
15080TIP3    H145117   9.714   5.575   3.837
15080TIP3    H245118   9.856   5.621   3.812
15081TIP3   OH245119   9.445   5.506   5.824
15081TIP3    H145120   9.462   5.410   5.833
15081TIP3    H245121   9.357   5.506   5.780
15082TIP3   OH245122   9.416   5.161   4.028
15082TIP3    H145123   9.476   5.125   4.096
15082TIP3    H245124   9.479   5.169   3.953
15083TIP3   OH245125  10.049   5.581   5.595
15083TIP3    H145126  10.002   5.606   5.514
15083TIP3    H245127  10.046   5.484   5.594
15084TIP3   OH245128   9.567   5.236   5.803
15084TIP3    H145129   9.642   5.176   5.789
15084TIP3    H245130   9.588   5.271   5.892
15085TIP3   OH245131   9.621   5.050   4.244
15085TIP3    H145132   9.602   5.010   4.330
15085TIP3    H245133   9.658   4.974   4.194
15086TIP3   OH245134   9.875   5.123   5.483
15086TIP3    H145135   9.795   5.180   5.484
15086TIP3    H245136   9.922   5.160   5.405
15087TIP3   OH245137   9.727   4.849   4.088
15087TIP3    H145138   9.689   4.843   3.998
15087TIP3    H245139   9.822   4.858   4.069
15088TIP3   OH245140   9.996   4.914   5.610
15088TIP3    H145141  10.012   4.830   5.562
15088TIP3    H245142   9.937   4.963   5.549
15089TIP3   OH245143  10.009   4.720   5.416
15089TIP3    H145144  10.053   4.702   5.332
15089TIP3    H245145   9.924   4.673   5.403
15090TIP3   OH245146  10.000   5.239   5.283
15090TIP3    H145147  10.022   5.188   5.204
15090TIP3    H245148   9.952   5.315   5.242
15091TIP3   OH245149   9.875   5.041   5.818
15091TIP3    H145150   9.815   4.966   5.840
15091TIP3    H245151   9.921   5.005   5.739
15092TIP3   OH245152   9.739   4.808   5.876
15092TIP3    H145153   9.748   4.720   5.838
15092TIP3    H245154   9.775   4.794   5.966
15093TIP3   OH245155   9.534   5.910   3.980
15093TIP3    H145156   9.631   5.913   3.967
15093TIP3    H245157   9.506   5.965   3.905
15094TIP3   OH245158   9.023   5.299   4.203
15094TIP3    H145159   9.117   5.316   4.183
15094TIP3    H245160   9.010   5.211   4.162
15095TIP3   OH245161   8.940   5.902   4.611
15095TIP3    H145162   8.864   5.849   4.578
15095TIP3    H245163   8.970   5.847   4.687
15096TIP3   OH245164   9.084   5.757   4.795
15096TIP3    H145165   9.059   5.692   4.863
15096TIP3    H245166   9.132   5.821   4.852
15097TIP3   OH245167   9.258   5.170   5.171
15097TIP3    H145168   9.257   5.140   5.078
15097TIP3    H245169   9.355   5.171   5.189
15098TIP3   OH245170   9.473   4.858   5.846
15098TIP3    H145171   9.571   4.851   5.850
15098TIP3    H245172   9.449   4.773   5.887
15099TIP3   OH245173   9.430   4.548   5.178
15099TIP3    H145174   9.491   4.472   5.189
15099TIP3    H245175   9.493   4.622   5.176
15100TIP3   OH245176   9.236   4.822   5.250
15100TIP3    H145177   9.287   4.815   5.167
15100TIP3    H245178   9.269   4.905   5.287
15101TIP3   OH245179   9.221   4.323   4.753
15101TIP3    H145180   9.127   4.321   4.780
15101TIP3    H245181   9.218   4.382   4.675
15102TIP3   OH245182   9.437   4.404   5.565
15102TIP3    H145183   9.390   4.400   5.650
15102TIP3    H245184   9.368   4.443   5.507
15103TIP3   OH245185   9.482   5.831   5.644
15103TIP3    H145186   9.390   5.804   5.627
15103TIP3    H245187   9.491   5.813   5.738
15104TIP3   OH245188   9.654   5.860   5.197
15104TIP3    H145189   9.608   5.933   5.150
15104TIP3    H245190   9.740   5.867   5.150
15105TIP3   OH245191  10.124   6.111   5.322
15105TIP3    H145192  10.141   6.109   5.419
15105TIP3    H245193  10.186   6.180   5.294
15106TIP3   OH245194   9.325   6.114   5.223
15106TIP3    H145195   9.239   6.153   5.196
15106TIP3    H245196   9.342   6.162   5.305
15107TIP3   OH245197   9.555   6.070   5.065
15107TIP3    H145198   9.475   6.106   5.106
15107TIP3    H245199   9.563   6.124   4.983
15108TIP3   OH245200  10.234   6.100   4.904
15108TIP3    H145201  10.137   6.088   4.896
15108TIP3    H245202  10.240   6.193   4.878
15109TIP3   OH245203   9.246   5.913   4.956
15109TIP3    H145204   9.271   5.895   5.049
15109TIP3    H245205   9.324   5.873   4.911
15110TIP3   OH245206   9.429   5.772   4.801
15110TIP3    H145207   9.446   5.699   4.865
15110TIP3    H245208   9.517   5.818   4.804
15111TIP3   OH245209   9.678   5.874   4.808
15111TIP3    H145210   9.735   5.801   4.834
15111TIP3    H245211   9.730   5.952   4.835
15112TIP3   OH245212   9.524   4.254   4.917
15112TIP3    H145213   9.431   4.224   4.920
15112TIP3    H245214   9.569   4.167   4.922
15113TIP3   OH245215   9.316   4.116   4.568
15113TIP3    H145216   9.344   4.177   4.498
15113TIP3    H245217   9.288   4.177   4.638
15114TIP3   OH245218   9.429   4.282   4.337
15114TIP3    H145219   9.468   4.212   4.281
15114TIP3    H245220   9.507   4.323   4.378
15115TIP3   OH245221   9.809   5.887   3.935
15115TIP3    H145222   9.905   5.896   3.925
15115TIP3    H245223   9.789   5.810   3.877
15116TIP3   OH245224   9.707   4.522   5.793
15116TIP3    H145225   9.671   4.458   5.857
15116TIP3    H245226   9.800   4.525   5.824
15117TIP3   OH245227   9.941   4.524   5.926
15117TIP3    H145228  10.039   4.533   5.918
15117TIP3    H245229   9.938   4.456   5.997
15118TIP3   OH245230   9.106   5.703   3.994
15118TIP3    H145231   9.108   5.765   4.068
15118TIP3    H245232   9.200   5.674   3.984
15119TIP3   OH245233   0.878   5.785   6.698
15119TIP3    H145234   0.850   5.876   6.677
15119TIP3    H245235   0.801   5.735   6.664
15120TIP3   OH245236   0.888   5.781   7.072
15120TIP3    H145237   0.909   5.750   7.161
15120TIP3    H245238   0.840   5.705   7.035
15121TIP3   OH245239   1.120   6.086   6.758
15121TIP3    H145240   1.105   6.015   6.821
15121TIP3    H245241   1.147   6.160   6.815
15122TIP3   OH245242   0.766   6.552   6.769
15122TIP3    H145243   0.813   6.475   6.730
15122TIP3    H245244   0.747   6.521   6.859
15123TIP3   OH245245   0.664   5.955   7.103
15123TIP3    H145246   0.745   5.911   7.072
15123TIP3    H245247   0.700   6.037   7.139
15124TIP3   OH245248   1.688   5.333   7.121
15124TIP3    H145249   1.718   5.417   7.160
15124TIP3    H245250   1.712   5.345   7.028
15125TIP3   OH245251   1.087   5.514   7.160
15125TIP3    H145252   1.130   5.428   7.180
15125TIP3    H245253   1.058   5.499   7.068
15126TIP3   OH245254   0.461   5.168   7.127
15126TIP3    H145255   0.422   5.247   7.084
15126TIP3    H245256   0.421   5.097   7.073
15127TIP3   OH245257   1.118   5.264   6.745
15127TIP3    H145258   1.190   5.247   6.811
15127TIP3    H245259   1.172   5.297   6.671
15128TIP3   OH245260   0.502   5.580   7.037
15128TIP3    H145261   0.595   5.549   7.041
15128TIP3    H245262   0.457   5.505   6.994
15129TIP3   OH245263   1.768   5.545   7.292
15129TIP3    H145264   1.683   5.589   7.266
15129TIP3    H245265   1.754   5.540   7.387
15130TIP3   OH245266   0.772   6.007   6.567
15130TIP3    H145267   0.730   5.983   6.483
15130TIP3    H245268   0.726   6.090   6.588
15131TIP3   OH245269   1.328   5.266   6.916
15131TIP3    H145270   1.329   5.208   6.994
15131TIP3    H245271   1.386   5.339   6.944
15132TIP3   OH245272   1.204   6.336   6.942
15132TIP3    H145273   1.112   6.324   6.975
15132TIP3    H245274   1.193   6.418   6.891
15133TIP3   OH245275   1.482   5.239   7.292
15133TIP3    H145276   1.393   5.260   7.258
15133TIP3    H245277   1.539   5.265   7.217
15134TIP3   OH245278   0.777   4.871   7.267
15134TIP3    H145279   0.774   4.775   7.287
15134TIP3    H245280   0.706   4.903   7.326
15135TIP3   OH245281   0.895   6.374   6.602
15135TIP3    H145282   0.945   6.292   6.580
15135TIP3    H245283   0.955   6.441   6.562
15136TIP3   OH245284   1.036   6.162   6.505
15136TIP3    H145285   1.001   6.082   6.464
15136TIP3    H245286   1.071   6.126   6.590
15137TIP3   OH245287   0.710   5.635   6.526
15137TIP3    H145288   0.630   5.686   6.501
15137TIP3    H245289   0.758   5.632   6.442
15138TIP3   OH245290   0.668   5.420   6.245
15138TIP3    H145291   0.736   5.471   6.293
15138TIP3    H245292   0.726   5.356   6.197
15139TIP3   OH245293   1.612   5.883   7.117
15139TIP3    H145294   1.528   5.935   7.121
15139TIP3    H245295   1.640   5.904   7.025
15140TIP3   OH245296   1.056   5.719   6.499
15140TIP3    H145297   1.002   5.743   6.578
15140TIP3    H245298   1.139   5.692   6.542
15141TIP3   OH245299   1.292   5.759   7.409
15141TIP3    H145300   1.285   5.841   7.463
15141TIP3    H245301   1.205   5.761   7.363
15142TIP3   OH245302   0.430   5.673   7.281
15142TIP3    H145303   0.465   5.643   7.195
15142TIP3    H245304   0.475   5.758   7.294
15143TIP3   OH245305   0.956   6.326   7.046
15143TIP3    H145306   0.934   6.404   7.100
15143TIP3    H245307   0.938   6.251   7.107
15144TIP3   OH245308   0.896   5.578   6.324
15144TIP3    H145309   0.956   5.636   6.376
15144TIP3    H245310   0.923   5.602   6.232
15145TIP3   OH245311   0.636   6.261   6.604
15145TIP3    H145312   0.720   6.304   6.625
15145TIP3    H245313   0.590   6.331   6.555
15146TIP3   OH245314   1.413   4.820   6.372
15146TIP3    H145315   1.332   4.839   6.424
15146TIP3    H245316   1.425   4.903   6.322
15147TIP3   OH245317   1.211   6.186   5.921
15147TIP3    H145318   1.220   6.283   5.907
15147TIP3    H245319   1.304   6.156   5.908
15148TIP3   OH245320   0.783   6.352   7.458
15148TIP3    H145321   0.789   6.446   7.489
15148TIP3    H245322   0.687   6.342   7.447
15149TIP3   OH245323   0.548   6.485   6.426
15149TIP3    H145324   0.515   6.462   6.337
15149TIP3    H245325   0.516   6.575   6.438
15150TIP3   OH245326   0.726   6.404   6.044
15150TIP3    H145327   0.782   6.334   6.005
15150TIP3    H245328   0.766   6.413   6.132
15151TIP3   OH245329   0.789   6.447   6.310
15151TIP3    H145330   0.707   6.449   6.363
15151TIP3    H245331   0.850   6.407   6.374
15152TIP3   OH245332   1.540   5.719   7.587
15152TIP3    H145333   1.456   5.726   7.538
15152TIP3    H245334   1.558   5.624   7.579
15153TIP3   OH245335   0.531   4.952   7.404
15153TIP3    H145336   0.459   4.916   7.351
15153TIP3    H245337   0.531   5.045   7.378
15154TIP3   OH245338   1.075   5.066   7.594
15154TIP3    H145339   1.144   5.037   7.657
15154TIP3    H245340   0.992   5.044   7.642
15155TIP3   OH245341   1.318   5.497   7.517
15155TIP3    H145342   1.266   5.490   7.601
15155TIP3    H245343   1.287   5.581   7.480
15156TIP3   OH245344   0.972   5.627   6.069
15156TIP3    H145345   0.940   5.599   5.982
15156TIP3    H245346   1.055   5.673   6.044
15157TIP3   OH245347   0.684   5.002   6.370
15157TIP3    H145348   0.655   4.997   6.463
15157TIP3    H245349   0.649   4.917   6.337
15158TIP3   OH245350   0.462   5.450   7.430
15158TIP3    H145351   0.415   5.483   7.507
15158TIP3    H245352   0.452   5.526   7.368
15159TIP3   OH245353   0.350   5.341   6.937
15159TIP3    H145354   0.255   5.355   6.924
15159TIP3    H245355   0.373   5.299   6.851
15160TIP3   OH245356   0.846   5.437   6.660
15160TIP3    H145357   0.794   5.508   6.617
15160TIP3    H245358   0.902   5.406   6.585
15161TIP3   OH245359   1.024   5.715   7.745
15161TIP3    H145360   0.999   5.643   7.808
15161TIP3    H245361   1.117   5.729   7.770
15162TIP3   OH245362   1.004   5.467   6.900
15162TIP3    H145363   0.945   5.496   6.827
15162TIP3    H245364   1.038   5.385   6.858
15163TIP3   OH245365   0.345   4.976   6.340
15163TIP3    H145366   0.336   4.972   6.437
15163TIP3    H245367   0.253   4.984   6.311
15164TIP3   OH245368   1.016   5.714   7.325
15164TIP3    H145369   1.047   5.642   7.265
15164TIP3    H245370   0.988   5.660   7.402
15165TIP3   OH245371   0.699   5.180   6.988
15165TIP3    H145372   0.618   5.180   7.044
15165TIP3    H245373   0.768   5.170   7.056
15166TIP3   OH245374   0.393   5.230   6.687
15166TIP3    H145375   0.489   5.243   6.675
15166TIP3    H245376   0.355   5.266   6.604
15167TIP3   OH245377   1.176   5.252   7.199
15167TIP3    H145378   1.139   5.261   7.289
15167TIP3    H245379   1.115   5.188   7.159
15168TIP3   OH245380   0.211   5.288   6.465
15168TIP3    H145381   0.174   5.199   6.449
15168TIP3    H245382   0.272   5.301   6.389
15169TIP3   OH245383   1.350   6.928   7.414
15169TIP3    H145384   1.344   6.959   7.322
15169TIP3    H245385   1.424   6.982   7.448
15170TIP3   OH245386   0.768   5.501   7.090
15170TIP3    H145387   0.839   5.462   7.037
15170TIP3    H245388   0.780   5.457   7.176
15171TIP3   OH245389   0.324   4.991   6.971
15171TIP3    H145390   0.258   4.920   6.985
15171TIP3    H245391   0.370   4.958   6.893
15172TIP3   OH245392   0.743   5.394   7.387
15172TIP3    H145393   0.654   5.433   7.397
15172TIP3    H245394   0.801   5.457   7.434
15173TIP3   OH245395   0.485   5.784   6.463
15173TIP3    H145396   0.409   5.722   6.460
15173TIP3    H245397   0.474   5.822   6.553
15174TIP3   OH245398   1.379   6.031   7.117
15174TIP3    H145399   1.404   6.084   7.039
15174TIP3    H245400   1.297   5.986   7.086
15175TIP3   OH245401   0.938   5.102   6.338
15175TIP3    H145402   0.841   5.086   6.345
15175TIP3    H245403   0.948   5.197   6.362
15176TIP3   OH245404   0.895   6.103   7.478
15176TIP3    H145405   0.896   6.088   7.574
15176TIP3    H245406   0.849   6.190   7.474
15177TIP3   OH245407   1.008   5.350   6.442
15177TIP3    H145408   1.104   5.354   6.457
15177TIP3    H245409   0.991   5.429   6.387
15178TIP3   OH245410   0.634   5.933   6.292
15178TIP3    H145411   0.589   6.020   6.303
15178TIP3    H245412   0.578   5.877   6.351
15179TIP3   OH245413   0.789   5.853   7.791
15179TIP3    H145414   0.731   5.782   7.757
15179TIP3    H245415   0.877   5.820   7.762
15180TIP3   OH245416   1.048   6.374   7.362
15180TIP3    H145417   0.952   6.360   7.378
15180TIP3    H245418   1.072   6.420   7.445
15181TIP3   OH245419   1.450   5.439   6.279
15181TIP3    H145420   1.387   5.393   6.218
15181TIP3    H245421   1.447   5.527   6.236
15182TIP3   OH245422   1.149   6.258   6.186
15182TIP3    H145423   1.125   6.186   6.247
15182TIP3    H245424   1.162   6.212   6.101
15183TIP3   OH245425   1.148   5.886   7.029
15183TIP3    H145426   1.054   5.859   7.038
15183TIP3    H245427   1.183   5.808   6.982
15184TIP3   OH245428   0.457   5.882   6.711
15184TIP3    H145429   0.442   5.975   6.731
15184TIP3    H245430   0.414   5.839   6.786
15185TIP3   OH245431   0.942   6.097   7.206
15185TIP3    H145432   0.924   6.091   7.302
15185TIP3    H245433   1.003   6.023   7.191
15186TIP3   OH245434   0.905   5.987   6.087
15186TIP3    H145435   0.956   5.962   6.167
15186TIP3    H245436   0.816   5.957   6.113
15187TIP3   OH245437   1.183   6.619   7.247
15187TIP3    H145438   1.099   6.568   7.246
15187TIP3    H245439   1.163   6.689   7.180
15188TIP3   OH245440   1.245   6.461   5.908
15188TIP3    H145441   1.282   6.534   5.855
15188TIP3    H245442   1.164   6.506   5.941
15189TIP3   OH245443   1.064   5.922   6.306
15189TIP3    H145444   1.054   5.854   6.376
15189TIP3    H245445   1.161   5.918   6.292
15190TIP3   OH245446   0.325   5.940   6.114
15190TIP3    H145447   0.343   5.854   6.068
15190TIP3    H245448   0.304   5.908   6.202
15191TIP3   OH245449   1.098   5.304   7.458
15191TIP3    H145450   1.180   5.337   7.497
15191TIP3    H245451   1.083   5.222   7.509
15192TIP3   OH245452   0.975   5.057   6.620
15192TIP3    H145453   0.967   5.078   6.525
15192TIP3    H245454   1.018   5.137   6.655
15193TIP3   OH245455   0.492   6.161   6.316
15193TIP3    H145456   0.400   6.179   6.336
15193TIP3    H245457   0.505   6.210   6.233
15194TIP3   OH245458   0.667   5.235   6.721
15194TIP3    H145459   0.734   5.304   6.701
15194TIP3    H245460   0.679   5.225   6.818
15195TIP3   OH245461   0.936   5.554   7.530
15195TIP3    H145462   0.958   5.605   7.611
15195TIP3    H245463   0.990   5.473   7.541
15196TIP3   OH245464   0.816   4.961   6.825
15196TIP3    H145465   0.812   5.038   6.886
15196TIP3    H245466   0.876   4.996   6.756
15197TIP3   OH245467   0.333   4.972   6.622
15197TIP3    H145468   0.353   5.060   6.661
15197TIP3    H245469   0.423   4.934   6.623
15198TIP3   OH245470   1.584   5.452   7.499
15198TIP3    H145471   1.487   5.455   7.517
15198TIP3    H245472   1.582   5.394   7.421
15199TIP3   OH245473   1.231   5.647   6.899
15199TIP3    H145474   1.155   5.586   6.910
15199TIP3    H245475   1.303   5.599   6.945
15200TIP3   OH245476   1.202   6.602   6.849
15200TIP3    H145477   1.157   6.648   6.775
15200TIP3    H245478   1.295   6.621   6.824
15201TIP3   OH245479   0.470   6.160   6.022
15201TIP3    H145480   0.421   6.080   6.051
15201TIP3    H245481   0.527   6.122   5.952
15202TIP3   OH245482   1.112   6.492   7.598
15202TIP3    H145483   1.096   6.426   7.670
15202TIP3    H245484   1.174   6.553   7.640
15203TIP3   OH245485   0.873   6.213   5.911
15203TIP3    H145486   0.915   6.147   5.970
15203TIP3    H245487   0.929   6.210   5.832
15204TIP3   OH245488   0.733   6.128   7.782
15204TIP3    H145489   0.653   6.109   7.732
15204TIP3    H245490   0.762   6.037   7.804
15205TIP3   OH245491   0.605   5.878   6.023
15205TIP3    H145492   0.602   5.894   6.119
15205TIP3    H245493   0.601   5.780   6.020
15206TIP3   OH245494   1.217   6.141   7.403
15206TIP3    H145495   1.220   6.144   7.306
15206TIP3    H245496   1.129   6.179   7.420
15207TIP3   OH245497   0.295   5.588   6.446
15207TIP3    H145498   0.262   5.533   6.518
15207TIP3    H245499   0.327   5.520   6.384
15208TIP3   OH245500   0.632   5.662   7.665
15208TIP3    H145501   0.541   5.698   7.667
15208TIP3    H245502   0.661   5.689   7.575
15209TIP3   OH245503   0.392   5.382   6.283
15209TIP3    H145504   0.368   5.391   6.188
15209TIP3    H245505   0.489   5.388   6.278
15210TIP3   OH245506   1.070   6.049   7.805
15210TIP3    H145507   1.157   6.033   7.767
15210TIP3    H245508   1.068   5.987   7.880
15211TIP3   OH245509   1.209   5.716   5.946
15211TIP3    H145510   1.189   5.668   5.863
15211TIP3    H245511   1.176   5.806   5.921
15212TIP3   OH245512   0.693   5.427   7.808
15212TIP3    H145513   0.678   5.352   7.749
15212TIP3    H245514   0.660   5.503   7.757
15213TIP3   OH245515   0.672   5.220   7.596
15213TIP3    H145516   0.711   5.268   7.520
15213TIP3    H245517   0.578   5.230   7.581
15214TIP3   OH245518   0.706   5.781   7.428
15214TIP3    H145519   0.799   5.767   7.404
15214TIP3    H245520   0.696   5.876   7.414
15215TIP3   OH245521   1.289   5.732   7.858
15215TIP3    H145522   1.336   5.648   7.875
15215TIP3    H245523   1.362   5.789   7.829
15216TIP3   OH245524   1.342   5.990   7.590
15216TIP3    H145525   1.282   6.045   7.535
15216TIP3    H245526   1.427   6.008   7.546
15217TIP3   OH245527   0.815   4.992   7.669
15217TIP3    H145528   0.763   5.073   7.647
15217TIP3    H245529   0.746   4.923   7.664
15218TIP3   OH245530   0.943   5.500   7.891
15218TIP3    H145531   0.932   5.491   7.987
15218TIP3    H245532   0.854   5.470   7.862
15219TIP3   OH245533   1.179   5.446   7.743
15219TIP3    H145534   1.103   5.448   7.804
15219TIP3    H245535   1.252   5.414   7.800
15220TIP3   OH245536   1.413   5.388   7.891
15220TIP3    H145537   1.423   5.292   7.910
15220TIP3    H245538   1.405   5.427   7.981
15221TIP3   OH245539   0.910   5.005   7.928
15221TIP3    H145540   0.977   4.934   7.925
15221TIP3    H245541   0.871   4.995   7.839
15222TIP3   OH245542   0.976   5.219   8.086
15222TIP3    H145543   0.953   5.147   8.023
15222TIP3    H245544   0.899   5.279   8.079
15223TIP3   OH245545   1.454   6.691   6.802
15223TIP3    H145546   1.475   6.737   6.885
15223TIP3    H245547   1.511   6.737   6.739
15224TIP3   OH245548   1.470   6.721   7.082
15224TIP3    H145549   1.440   6.629   7.074
15224TIP3    H245550   1.556   6.712   7.125
15225TIP3   OH245551   1.523   6.393   7.630
15225TIP3    H145552   1.455   6.393   7.700
15225TIP3    H245553   1.568   6.478   7.649
15226TIP3   OH245554   1.343   5.904   6.280
15226TIP3    H145555   1.413   5.966   6.251
15226TIP3    H245556   1.386   5.864   6.359
15227TIP3   OH245557   1.470   5.772   6.483
15227TIP3    H145558   1.405   5.728   6.542
15227TIP3    H245559   1.536   5.808   6.547
15228TIP3   OH245560   1.526   6.163   6.920
15228TIP3    H145561   1.577   6.095   6.871
15228TIP3    H245562   1.518   6.234   6.854
15229TIP3   OH245563   1.359   6.437   7.150
15229TIP3    H145564   1.286   6.501   7.168
15229TIP3    H245565   1.323   6.394   7.069
15230TIP3   OH245566   1.410   5.679   6.130
15230TIP3    H145567   1.338   5.680   6.063
15230TIP3    H245568   1.381   5.754   6.185
15231TIP3   OH245569   1.278   5.353   6.087
15231TIP3    H145570   1.241   5.388   6.005
15231TIP3    H245571   1.254   5.258   6.079
15232TIP3   OH245572   1.286   5.626   6.629
15232TIP3    H145573   1.294   5.529   6.623
15232TIP3    H245574   1.273   5.639   6.726
15233TIP3   OH245575   1.591   6.065   7.470
15233TIP3    H145576   1.644   5.984   7.488
15233TIP3    H245577   1.621   6.085   7.380
15234TIP3   OH245578   1.756   5.858   7.511
15234TIP3    H145579   1.682   5.802   7.543
15234TIP3    H245580   1.831   5.797   7.527
15235TIP3   OH245581   1.223   5.088   6.076
15235TIP3    H145582   1.301   5.055   6.124
15235TIP3    H245583   1.154   5.023   6.097
15236TIP3   OH245584   1.282   5.343   6.525
15236TIP3    H145585   1.321   5.254   6.541
15236TIP3    H245586   1.341   5.374   6.454
15237TIP3   OH245587   1.444   5.519   7.019
15237TIP3    H145588   1.531   5.544   6.979
15237TIP3    H245589   1.458   5.553   7.109
15238TIP3   OH245590   1.514   5.661   7.251
15238TIP3    H145591   1.435   5.693   7.300
15238TIP3    H245592   1.545   5.742   7.206
15239TIP3   OH245593   1.969   5.255   7.806
15239TIP3    H145594   2.023   5.183   7.765
15239TIP3    H245595   1.939   5.305   7.728
15240TIP3   OH245596   1.388   5.093   6.564
15240TIP3    H145597   1.439   5.075   6.646
15240TIP3    H245598   1.330   5.014   6.562
15241TIP3   OH245599   1.838   5.393   7.609
15241TIP3    H145600   1.753   5.428   7.640
15241TIP3    H245601   1.806   5.318   7.554
15242TIP3   OH245602   1.472   5.028   6.193
15242TIP3    H145603   1.511   4.954   6.142
15242TIP3    H245604   1.542   5.096   6.186
15243TIP3   OH245605   1.036   6.559   6.462
15243TIP3    H145606   1.086   6.545   6.380
15243TIP3    H245607   1.090   6.626   6.507
15244TIP3   OH245608   0.802   6.611   7.539
15244TIP3    H145609   0.798   6.649   7.628
15244TIP3    H245610   0.834   6.686   7.487
15245TIP3   OH245611   0.935   6.804   7.387
15245TIP3    H145612   0.999   6.740   7.353
15245TIP3    H245613   0.991   6.853   7.452
15246TIP3   OH245614   1.733   5.152   7.492
15246TIP3    H145615   1.641   5.140   7.461
15246TIP3    H245616   1.767   5.060   7.482
15247TIP3   OH245617   0.661   6.682   7.039
15247TIP3    H145618   0.565   6.692   7.033
15247TIP3    H245619   0.684   6.759   7.095
15248TIP3   OH245620   0.923   6.606   7.125
15248TIP3    H145621   0.832   6.618   7.093
15248TIP3    H245622   0.968   6.681   7.084
15249TIP3   OH245623   1.131   6.792   7.042
15249TIP3    H145624   1.119   6.878   6.996
15249TIP3    H245625   1.157   6.733   6.967
15250TIP3   OH245626   0.937   5.068   7.108
15250TIP3    H145627   0.896   4.996   7.160
15250TIP3    H245628   1.012   5.022   7.064
15251TIP3   OH245629   1.461   4.958   7.019
15251TIP3    H145630   1.498   5.003   6.940
15251TIP3    H245631   1.365   4.968   7.005
15252TIP3   OH245632   1.556   5.052   6.780
15252TIP3    H145633   1.628   4.998   6.741
15252TIP3    H245634   1.591   5.142   6.764
15253TIP3   OH245635   0.634   4.818   7.006
15253TIP3    H145636   0.694   4.864   6.946
15253TIP3    H245637   0.669   4.844   7.093
15254TIP3   OH245638   1.176   4.956   6.991
15254TIP3    H145639   1.180   4.916   6.903
15254TIP3    H245640   1.164   4.876   7.048
15255TIP3   OH245641   1.207   4.878   6.553
15255TIP3    H145642   1.119   4.916   6.562
15255TIP3    H245643   1.196   4.793   6.601
15256TIP3   OH245644   0.123   4.730   6.575
15256TIP3    H145645   0.127   4.715   6.479
15256TIP3    H245646   0.153   4.821   6.583
15257TIP3   OH245647   0.609   4.982   6.637
15257TIP3    H145648   0.669   4.934   6.697
15257TIP3    H245649   0.632   5.074   6.661
15258TIP3   OH245650   0.475   6.417   6.167
15258TIP3    H145651   0.562   6.413   6.121
15258TIP3    H245652   0.418   6.382   6.095
15259TIP3   OH245653   1.181   6.525   6.229
15259TIP3    H145654   1.173   6.427   6.217
15259TIP3    H245655   1.137   6.557   6.148
15260TIP3   OH245656   0.640   5.031   8.123
15260TIP3    H145657   0.726   5.019   8.080
15260TIP3    H245658   0.651   4.977   8.202
15261TIP3   OH245659   1.468   5.117   7.926
15261TIP3    H145660   1.486   5.085   8.016
15261TIP3    H245661   1.556   5.110   7.884
15262TIP3   OH245662   1.408   6.650   7.400
15262TIP3    H145663   1.319   6.643   7.360
15262TIP3    H245664   1.409   6.747   7.415
15263TIP3   OH245665   2.674   6.041   6.186
15263TIP3    H145666   2.645   6.132   6.164
15263TIP3    H245667   2.600   5.991   6.149
15264TIP3   OH245668   2.671   6.043   6.563
15264TIP3    H145669   2.702   6.010   6.649
15264TIP3    H245670   2.633   5.964   6.523
15265TIP3   OH245671   1.973   5.943   6.933
15265TIP3    H145672   2.006   5.872   6.991
15265TIP3    H245673   2.055   5.987   6.909
15266TIP3   OH245674   2.916   6.345   6.244
15266TIP3    H145675   2.902   6.274   6.308
15266TIP3    H245676   2.945   6.419   6.301
15267TIP3   OH245677   1.944   6.347   6.658
15267TIP3    H145678   1.936   6.249   6.659
15267TIP3    H245679   2.041   6.355   6.648
15268TIP3   OH245680   1.650   5.552   6.442
15268TIP3    H145681   1.599   5.634   6.452
15268TIP3    H245682   1.582   5.494   6.403
15269TIP3   OH245683   1.711   5.838   6.611
15269TIP3    H145684   1.759   5.760   6.647
15269TIP3    H245685   1.767   5.861   6.536
15270TIP3   OH245686   2.562   6.804   6.260
15270TIP3    H145687   2.611   6.733   6.214
15270TIP3    H245688   2.561   6.771   6.351
15271TIP3   OH245689   2.471   6.266   6.614
15271TIP3    H145690   2.509   6.190   6.567
15271TIP3    H245691   2.555   6.312   6.637
15272TIP3   OH245692   3.485   5.588   6.608
15272TIP3    H145693   3.517   5.673   6.644
15272TIP3    H245694   3.509   5.598   6.514
15273TIP3   OH245695   2.883   5.769   6.647
15273TIP3    H145696   2.928   5.683   6.664
15273TIP3    H245697   2.853   5.755   6.555
15274TIP3   OH245698   2.220   5.428   6.612
15274TIP3    H145699   2.201   5.500   6.547
15274TIP3    H245700   2.175   5.353   6.566
15275TIP3   OH245701   2.915   5.523   6.233
15275TIP3    H145702   2.987   5.504   6.298
15275TIP3    H245703   2.968   5.553   6.157
15276TIP3   OH245704   1.856   5.630   6.717
15276TIP3    H145705   1.939   5.608   6.763
15276TIP3    H245706   1.867   5.574   6.637
15277TIP3   OH245707   2.295   5.828   6.514
15277TIP3    H145708   2.390   5.803   6.523
15277TIP3    H245709   2.257   5.744   6.479
15278TIP3   OH245710   3.563   5.800   6.779
15278TIP3    H145711   3.477   5.842   6.755
15278TIP3    H245712   3.552   5.793   6.875
15279TIP3   OH245713   2.218   5.416   7.046
15279TIP3    H145714   2.159   5.448   6.975
15279TIP3    H245715   2.163   5.434   7.125
15280TIP3   OH245716   2.566   6.262   6.056
15280TIP3    H145717   2.525   6.239   5.971
15280TIP3    H245718   2.522   6.347   6.076
15281TIP3   OH245719   2.325   6.187   6.842
15281TIP3    H145720   2.263   6.253   6.878
15281TIP3    H245721   2.368   6.237   6.769
15282TIP3   OH245722   3.125   5.523   6.404
15282TIP3    H145723   3.133   5.458   6.475
15282TIP3    H245724   3.184   5.594   6.432
15283TIP3   OH245725   2.090   5.526   6.829
15283TIP3    H145726   2.154   5.598   6.850
15283TIP3    H245727   2.136   5.485   6.753
15284TIP3   OH245728   2.150   6.380   6.940
15284TIP3    H145729   2.126   6.465   6.897
15284TIP3    H245730   2.070   6.367   6.995
15285TIP3   OH245731   1.548   6.070   6.173
15285TIP3    H145732   1.507   6.097   6.089
15285TIP3    H245733   1.579   6.156   6.210
15286TIP3   OH245734   2.988   6.585   6.414
15286TIP3    H145735   2.897   6.578   6.452
15286TIP3    H245736   2.981   6.671   6.369
15287TIP3   OH245737   3.277   5.497   6.780
15287TIP3    H145738   3.188   5.514   6.744
15287TIP3    H245739   3.335   5.520   6.705
15288TIP3   OH245740   2.576   5.129   6.757
15288TIP3    H145741   2.565   5.034   6.774
15288TIP3    H245742   2.497   5.165   6.803
15289TIP3   OH245743   2.690   6.633   6.087
15289TIP3    H145744   2.739   6.550   6.067
15289TIP3    H245745   2.751   6.698   6.046
15290TIP3   OH245746   2.830   6.419   5.993
15290TIP3    H145747   2.800   6.338   5.949
15290TIP3    H245748   2.867   6.383   6.077
15291TIP3   OH245749   3.214   6.497   6.759
15291TIP3    H145750   3.202   6.422   6.696
15291TIP3    H245751   3.195   6.574   6.701
15292TIP3   OH245752   2.506   5.896   6.014
15292TIP3    H145753   2.425   5.944   5.987
15292TIP3    H245754   2.553   5.887   5.929
15293TIP3   OH245755   2.462   5.678   5.732
15293TIP3    H145756   2.533   5.727   5.778
15293TIP3    H245757   2.517   5.612   5.684
15294TIP3   OH245758   3.410   6.136   6.602
15294TIP3    H145759   3.327   6.189   6.606
15294TIP3    H245760   3.439   6.158   6.510
15295TIP3   OH245761   2.852   5.977   5.986
15295TIP3    H145762   2.798   6.000   6.065
15295TIP3    H245763   2.935   5.949   6.029
15296TIP3   OH245764   3.082   6.013   6.886
15296TIP3    H145765   3.082   6.096   6.936
15296TIP3    H245766   2.993   6.017   6.845
15297TIP3   OH245767   2.085   5.975   6.403
15297TIP3    H145768   2.041   5.917   6.337
15297TIP3    H245769   2.161   5.920   6.432
15298TIP3   OH245770   2.213   6.383   6.553
15298TIP3    H145771   2.194   6.341   6.467
15298TIP3    H245772   2.303   6.350   6.571
15299TIP3   OH245773   2.217   5.946   6.759
15299TIP3    H145774   2.251   5.921   6.670
15299TIP3    H245775   2.264   6.030   6.776
15300TIP3   OH245776   2.745   6.582   6.532
15300TIP3    H145777   2.732   6.664   6.584
15300TIP3    H245778   2.731   6.511   6.597
15301TIP3   OH245779   2.360   6.499   7.082
15301TIP3    H145780   2.301   6.563   7.127
15301TIP3    H245781   2.293   6.446   7.033
15302TIP3   OH245782   2.691   5.837   5.811
15302TIP3    H145783   2.752   5.893   5.863
15302TIP3    H245784   2.718   5.860   5.719
15303TIP3   OH245785   2.114   6.053   7.189
15303TIP3    H145786   2.119   6.143   7.229
15303TIP3    H245787   2.018   6.042   7.184
15304TIP3   OH245788   2.436   6.515   6.088
15304TIP3    H145789   2.516   6.566   6.106
15304TIP3    H245790   2.375   6.581   6.054
15305TIP3   OH245791   2.154   6.667   7.165
15305TIP3    H145792   2.120   6.671   7.074
15305TIP3    H245793   2.073   6.654   7.218
15306TIP3   OH245794   3.214   5.076   5.860
15306TIP3    H145795   3.127   5.084   5.905
15306TIP3    H245796   3.216   5.159   5.809
15307TIP3   OH245797   1.948   5.818   6.213
15307TIP3    H145798   1.883   5.860   6.152
15307TIP3    H245799   1.915   5.728   6.218
15308TIP3   OH245800   3.008   6.443   5.409
15308TIP3    H145801   3.017   6.539   5.393
15308TIP3    H245802   3.100   6.412   5.396
15309TIP3   OH245803   1.712   6.212   7.135
15309TIP3    H145804   1.658   6.187   7.057
15309TIP3    H245805   1.756   6.128   7.158
15310TIP3   OH245806   1.585   6.393   6.750
15310TIP3    H145807   1.680   6.384   6.736
15310TIP3    H245808   1.581   6.478   6.798
15311TIP3   OH245809   3.453   6.845   6.805
15311TIP3    H145810   3.448   6.749   6.816
15311TIP3    H245811   3.369   6.872   6.848
15312TIP3   OH245812   2.557   6.630   6.937
15312TIP3    H145813   2.558   6.723   6.969
15312TIP3    H245814   2.487   6.591   6.994
15313TIP3   OH245815   2.315   6.766   5.882
15313TIP3    H145816   2.248   6.748   5.816
15313TIP3    H245817   2.286   6.851   5.920
15314TIP3   OH245818   1.755   6.609   6.273
15314TIP3    H145819   1.803   6.600   6.358
15314TIP3    H245820   1.698   6.530   6.276
15315TIP3   OH245821   2.513   6.662   5.538
15315TIP3    H145822   2.570   6.601   5.486
15315TIP3    H245823   2.562   6.665   5.623
15316TIP3   OH245824   2.570   6.710   5.804
15316TIP3    H145825   2.483   6.717   5.849
15316TIP3    H245826   2.625   6.669   5.873
15317TIP3   OH245827   1.931   6.382   7.109
15317TIP3    H145828   1.989   6.360   7.185
15317TIP3    H245829   1.857   6.320   7.120
15318TIP3   OH245830   2.336   5.206   6.885
15318TIP3    H145831   2.248   5.173   6.858
15318TIP3    H245832   2.310   5.290   6.928
15319TIP3   OH245833   2.870   5.326   7.082
15319TIP3    H145834   2.940   5.291   7.142
15319TIP3    H245835   2.787   5.298   7.126
15320TIP3   OH245836   3.122   5.760   7.007
15320TIP3    H145837   3.060   5.751   7.083
15320TIP3    H245838   3.090   5.841   6.962
15321TIP3   OH245839   2.769   5.888   5.557
15321TIP3    H145840   2.736   5.856   5.471
15321TIP3    H245841   2.853   5.929   5.530
15322TIP3   OH245842   2.479   5.265   5.857
15322TIP3    H145843   2.446   5.255   5.948
15322TIP3    H245844   2.469   5.174   5.824
15323TIP3   OH245845   2.269   5.722   6.905
15323TIP3    H145846   2.217   5.743   6.985
15323TIP3    H245847   2.253   5.803   6.851
15324TIP3   OH245848   2.151   5.609   6.420
15324TIP3    H145849   2.059   5.581   6.436
15324TIP3    H245850   2.166   5.570   6.332
15325TIP3   OH245851   2.644   5.696   6.149
15325TIP3    H145852   2.591   5.766   6.104
15325TIP3    H245853   2.699   5.662   6.075
15326TIP3   OH245854   2.814   5.973   7.234
15326TIP3    H145855   2.792   5.897   7.293
15326TIP3    H245856   2.908   5.986   7.258
15327TIP3   OH245857   2.799   5.725   6.386
15327TIP3    H145858   2.740   5.751   6.313
15327TIP3    H245859   2.835   5.643   6.345
15328TIP3   OH245860   2.086   5.754   7.113
15328TIP3    H145861   2.115   5.820   7.178
15328TIP3    H245862   2.073   5.674   7.167
15329TIP3   OH245863   2.138   5.228   5.822
15329TIP3    H145864   2.133   5.223   5.920
15329TIP3    H245865   2.057   5.276   5.801
15330TIP3   OH245866   1.679   5.277   6.696
15330TIP3    H145867   1.759   5.304   6.746
15330TIP3    H245868   1.715   5.240   6.614
15331TIP3   OH245869   1.655   5.254   6.215
15331TIP3    H145870   1.701   5.291   6.137
15331TIP3    H245871   1.594   5.327   6.235
15332TIP3   OH245872   2.809   5.968   6.810
15332TIP3    H145873   2.841   5.897   6.751
15332TIP3    H245874   2.779   5.914   6.887
15333TIP3   OH245875   2.480   5.438   6.483
15333TIP3    H145876   2.399   5.428   6.535
15333TIP3    H245877   2.549   5.426   6.550
15334TIP3   OH245878   1.913   5.485   6.491
15334TIP3    H145879   1.819   5.490   6.462
15334TIP3    H245880   1.939   5.394   6.466
15335TIP3   OH245881   2.182   5.487   6.178
15335TIP3    H145882   2.278   5.495   6.158
15335TIP3    H245883   2.139   5.506   6.092
15336TIP3   OH245884   2.973   5.508   6.690
15336TIP3    H145885   2.927   5.517   6.776
15336TIP3    H245886   2.915   5.444   6.644
15337TIP3   OH245887   2.021   5.520   5.956
15337TIP3    H145888   1.951   5.472   5.908
15337TIP3    H245889   2.074   5.553   5.881
15338TIP3   OH245890   3.142   7.193   6.901
15338TIP3    H145891   3.138   7.221   6.808
15338TIP3    H245892   3.216   7.247   6.934
15339TIP3   OH245893   2.100   6.307   7.320
15339TIP3    H145894   2.181   6.336   7.367
15339TIP3    H245895   2.037   6.305   7.394
15340TIP3   OH245896   2.564   5.760   6.578
15340TIP3    H145897   2.631   5.719   6.522
15340TIP3    H245898   2.576   5.712   6.662
15341TIP3   OH245899   2.087   5.247   6.455
15341TIP3    H145900   2.054   5.167   6.501
15341TIP3    H245901   2.141   5.209   6.384
15342TIP3   OH245902   2.539   5.650   6.874
15342TIP3    H145903   2.450   5.689   6.881
15342TIP3    H245904   2.597   5.714   6.920
15343TIP3   OH245905   2.272   6.049   5.961
15343TIP3    H145906   2.203   5.980   5.952
15343TIP3    H245907   2.257   6.080   6.053
15344TIP3   OH245908   3.177   6.281   6.593
15344TIP3    H145909   3.201   6.331   6.512
15344TIP3    H245910   3.092   6.239   6.568
15345TIP3   OH245911   2.731   5.366   5.817
15345TIP3    H145912   2.637   5.344   5.831
15345TIP3    H245913   2.739   5.457   5.851
15346TIP3   OH245914   2.674   6.363   6.962
15346TIP3    H145915   2.696   6.346   7.054
15346TIP3    H245916   2.639   6.453   6.964
15347TIP3   OH245917   2.803   5.609   5.932
15347TIP3    H145918   2.900   5.609   5.944
15347TIP3    H245919   2.788   5.685   5.873
15348TIP3   OH245920   1.968   6.069   6.639
15348TIP3    H145921   2.004   6.042   6.552
15348TIP3    H245922   2.009   6.003   6.697
15349TIP3   OH245923   2.420   6.195   5.782
15349TIP3    H145924   2.374   6.281   5.794
15349TIP3    H245925   2.368   6.138   5.842
15350TIP3   OH245926   1.838   5.998   7.257
15350TIP3    H145927   1.862   5.974   7.349
15350TIP3    H245928   1.778   5.925   7.233
15351TIP3   OH245929   2.573   6.101   7.272
15351TIP3    H145930   2.516   6.047   7.216
15351TIP3    H245931   2.661   6.069   7.244
15352TIP3   OH245932   2.837   6.617   6.859
15352TIP3    H145933   2.740   6.622   6.868
15352TIP3    H245934   2.865   6.672   6.934
15353TIP3   OH245935   3.247   5.695   5.764
15353TIP3    H145936   3.184   5.649   5.704
15353TIP3    H245937   3.243   5.783   5.722
15354TIP3   OH245938   3.463   6.551   6.847
15354TIP3    H145939   3.365   6.550   6.834
15354TIP3    H245940   3.491   6.522   6.757
15355TIP3   OH245941   2.941   6.515   5.672
15355TIP3    H145942   2.923   6.442   5.733
15355TIP3    H245943   2.958   6.468   5.587
15356TIP3   OH245944   2.942   6.143   6.515
15356TIP3    H145945   2.848   6.118   6.525
15356TIP3    H245946   2.976   6.064   6.468
15357TIP3   OH245947   2.068   6.372   6.265
15357TIP3    H145948   2.070   6.453   6.211
15357TIP3    H245949   1.973   6.355   6.271
15358TIP3   OH245950   1.631   5.677   5.965
15358TIP3    H145951   1.678   5.759   5.987
15358TIP3    H245952   1.555   5.681   6.027
15359TIP3   OH245953   2.208   6.138   6.209
15359TIP3    H145954   2.173   6.227   6.228
15359TIP3    H245955   2.173   6.086   6.283
15360TIP3   OH245956   2.337   6.715   6.734
15360TIP3    H145957   2.377   6.789   6.684
15360TIP3    H245958   2.414   6.682   6.783
15361TIP3   OH245959   1.987   6.612   6.114
15361TIP3    H145960   1.902   6.618   6.162
15361TIP3    H245961   2.019   6.704   6.120
15362TIP3   OH245962   2.726   6.350   6.691
15362TIP3    H145963   2.719   6.347   6.789
15362TIP3    H245964   2.805   6.296   6.676
15363TIP3   OH245965   2.699   6.244   5.576
15363TIP3    H145966   2.755   6.219   5.653
15363TIP3    H245967   2.613   6.212   5.606
15364TIP3   OH245968   2.976   6.882   6.740
15364TIP3    H145969   2.894   6.830   6.731
15364TIP3    H245970   2.962   6.950   6.670
15365TIP3   OH245971   3.042   6.718   5.395
15365TIP3    H145972   3.083   6.791   5.346
15365TIP3    H245973   2.960   6.764   5.424
15366TIP3   OH245974   2.049   5.500   7.270
15366TIP3    H145975   1.952   5.512   7.271
15366TIP3    H245976   2.056   5.410   7.304
15367TIP3   OH245977   2.860   6.180   5.793
15367TIP3    H145978   2.850   6.111   5.862
15367TIP3    H245979   2.957   6.175   5.779
15368TIP3   OH245980   1.772   6.581   6.899
15368TIP3    H145981   1.830   6.507   6.924
15368TIP3    H245982   1.817   6.655   6.942
15369TIP3   OH245983   2.065   6.226   5.574
15369TIP3    H145984   2.082   6.136   5.542
15369TIP3    H245985   2.047   6.210   5.669
15370TIP3   OH245986   2.011   6.229   5.847
15370TIP3    H145987   2.084   6.196   5.902
15370TIP3    H245988   2.020   6.326   5.857
15371TIP3   OH245989   1.748   5.921   6.049
15371TIP3    H145990   1.683   5.966   6.106
15371TIP3    H245991   1.764   5.991   5.982
15372TIP3   OH245992   2.891   5.568   6.952
15372TIP3    H145993   2.981   5.591   6.978
15372TIP3    H245994   2.877   5.482   6.999
15373TIP3   OH245995   2.752   5.326   6.108
15373TIP3    H145996   2.760   5.331   6.011
15373TIP3    H245997   2.809   5.398   6.138
15374TIP3   OH245998   2.279   6.425   5.801
15374TIP3    H145999   2.191   6.455   5.831
15374TIP3    H246000   2.293   6.476   5.721
15375TIP3   OH246001   2.463   5.491   6.209
15375TIP3    H146002   2.533   5.557   6.189
15375TIP3    H246003   2.472   5.483   6.307
15376TIP3   OH246004   2.733   5.807   7.016
15376TIP3    H146005   2.759   5.857   7.095
15376TIP3    H246006   2.789   5.727   7.021
15377TIP3   OH246007   2.612   5.218   6.314
15377TIP3    H146008   2.607   5.297   6.371
15377TIP3    H246009   2.667   5.254   6.240
15378TIP3   OH246010   2.024   6.504   5.862
15378TIP3    H146011   1.987   6.573   5.802
15378TIP3    H246012   2.005   6.543   5.950
15379TIP3   OH246013   2.122   5.214   6.100
15379TIP3    H146014   2.121   5.304   6.137
15379TIP3    H246015   2.218   5.194   6.108
15380TIP3   OH246016   3.387   5.715   6.997
15380TIP3    H146017   3.290   5.728   7.009
15380TIP3    H246018   3.382   5.657   6.919
15381TIP3   OH246019   3.026   5.903   6.386
15381TIP3    H146020   2.951   5.842   6.394
15381TIP3    H246021   3.098   5.855   6.432
15382TIP3   OH246022   1.740   6.133   5.854
15382TIP3    H146023   1.809   6.200   5.865
15382TIP3    H246024   1.784   6.076   5.788
15383TIP3   OH246025   1.684   5.407   5.992
15383TIP3    H146026   1.682   5.505   5.983
15383TIP3    H246027   1.606   5.381   5.942
15384TIP3   OH246028   2.996   6.856   6.334
15384TIP3    H146029   2.954   6.902   6.259
15384TIP3    H246030   3.090   6.876   6.315
15385TIP3   OH246031   2.070   5.128   6.864
15385TIP3    H146032   2.041   5.094   6.776
15385TIP3    H246033   2.061   5.049   6.920
15386TIP3   OH246034   1.613   6.349   6.244
15386TIP3    H146035   1.537   6.377   6.298
15386TIP3    H246036   1.589   6.386   6.157
15387TIP3   OH246037   1.774   6.894   7.318
15387TIP3    H146038   1.861   6.907   7.363
15387TIP3    H246039   1.765   6.799   7.329
15388TIP3   OH246040   2.245   6.850   7.363
15388TIP3    H146041   2.341   6.844   7.370
15388TIP3    H246042   2.229   6.795   7.285
15389TIP3   OH246043   2.233   6.432   5.499
15389TIP3    H146044   2.175   6.358   5.529
15389TIP3    H246045   2.307   6.381   5.461
15390TIP3   OH246046   2.890   6.756   7.090
15390TIP3    H146047   2.881   6.688   7.161
15390TIP3    H246048   2.965   6.809   7.122
15391TIP3   OH246049   2.662   6.471   5.399
15391TIP3    H146050   2.708   6.409   5.458
15391TIP3    H246051   2.721   6.473   5.321
15392TIP3   OH246052   1.898   6.286   7.509
15392TIP3    H146053   1.933   6.194   7.512
15392TIP3    H246054   1.804   6.268   7.522
15393TIP3   OH246055   1.875   5.946   5.708
15393TIP3    H146056   1.928   5.908   5.779
15393TIP3    H246057   1.942   5.949   5.636
15394TIP3   OH246058   2.506   6.377   7.288
15394TIP3    H146059   2.465   6.395   7.201
15394TIP3    H246060   2.536   6.284   7.279
15395TIP3   OH246061   2.378   6.142   5.514
15395TIP3    H146062   2.386   6.153   5.611
15395TIP3    H246063   2.383   6.044   5.507
15396TIP3   OH246064   3.000   6.385   6.899
15396TIP3    H146065   3.071   6.429   6.851
15396TIP3    H246066   2.927   6.449   6.885
15397TIP3   OH246067   2.012   6.033   7.500
15397TIP3    H146068   2.085   5.975   7.474
15397TIP3    H246069   2.038   6.057   7.591
15398TIP3   OH246070   2.084   5.847   5.930
15398TIP3    H146071   2.059   5.801   6.012
15398TIP3    H246072   2.120   5.773   5.877
15399TIP3   OH246073   2.352   5.909   7.160
15399TIP3    H146074   2.275   5.971   7.162
15399TIP3    H246075   2.402   5.943   7.082
15400TIP3   OH246076   2.183   5.643   5.771
15400TIP3    H146077   2.158   5.641   5.676
15400TIP3    H246078   2.281   5.645   5.764
15401TIP3   OH246079   2.864   6.313   7.295
15401TIP3    H146080   2.942   6.290   7.244
15401TIP3    H246081   2.864   6.246   7.365
15402TIP3   OH246082   3.004   5.974   5.433
15402TIP3    H146083   2.985   5.925   5.350
15402TIP3    H246084   2.972   6.063   5.406
15403TIP3   OH246085   2.472   5.695   7.284
15403TIP3    H146086   2.476   5.618   7.223
15403TIP3    H246087   2.432   5.764   7.225
15404TIP3   OH246088   2.477   5.487   7.094
15404TIP3    H146089   2.506   5.527   7.010
15404TIP3    H246090   2.384   5.463   7.073
15405TIP3   OH246091   2.504   6.023   6.969
15405TIP3    H146092   2.587   6.027   6.918
15405TIP3    H246093   2.449   6.090   6.923
15406TIP3   OH246094   3.070   5.990   7.348
15406TIP3    H146095   3.118   5.906   7.357
15406TIP3    H246096   3.136   6.053   7.315
15407TIP3   OH246097   3.134   6.240   7.081
15407TIP3    H146098   3.071   6.290   7.025
15407TIP3    H246099   3.218   6.262   7.035
15408TIP3   OH246100   2.361   5.812   7.513
15408TIP3    H146101   2.271   5.780   7.515
15408TIP3    H246102   2.392   5.784   7.424
15409TIP3   OH246103   2.610   5.252   7.159
15409TIP3    H146104   2.560   5.331   7.130
15409TIP3    H246105   2.544   5.181   7.142
15410TIP3   OH246106   2.735   5.751   7.374
15410TIP3    H146107   2.732   5.753   7.471
15410TIP3    H246108   2.643   5.728   7.350
15411TIP3   OH246109   2.975   5.713   7.228
15411TIP3    H146110   2.898   5.706   7.289
15411TIP3    H246111   3.048   5.676   7.283
15412TIP3   OH246112   3.196   5.645   7.373
15412TIP3    H146113   3.220   5.551   7.389
15412TIP3    H246114   3.205   5.684   7.463
15413TIP3   OH246115   2.689   5.262   7.419
15413TIP3    H146116   2.762   5.196   7.417
15413TIP3    H246117   2.661   5.255   7.324
15414TIP3   OH246118   2.762   5.467   7.579
15414TIP3    H146119   2.757   5.407   7.502
15414TIP3    H246120   2.697   5.537   7.557
15415TIP3   OH246121   1.994   6.709   5.677
15415TIP3    H146122   2.083   6.705   5.642
15415TIP3    H246123   1.945   6.742   5.600
15416TIP3   OH246124   1.471   6.085   5.891
15416TIP3    H146125   1.566   6.106   5.877
15416TIP3    H246126   1.465   5.996   5.851
15417TIP3   OH246127   1.385   6.698   6.303
15417TIP3    H146128   1.317   6.636   6.268
15417TIP3    H246129   1.429   6.641   6.370
15418TIP3   OH246130   1.520   6.551   6.491
15418TIP3    H146131   1.508   6.476   6.551
15418TIP3    H246132   1.573   6.611   6.547
15419TIP3   OH246133   3.247   6.950   6.290
15419TIP3    H146134   3.273   6.986   6.377
15419TIP3    H246135   3.308   6.995   6.231
15420TIP3   OH246136   3.274   6.970   6.573
15420TIP3    H146137   3.236   6.879   6.569
15420TIP3    H246138   3.354   6.953   6.625
15421TIP3   OH246139   3.326   6.643   7.149
15421TIP3    H146140   3.250   6.655   7.210
15421TIP3    H246141   3.365   6.733   7.149
15422TIP3   OH246142   3.139   6.161   5.767
15422TIP3    H146143   3.209   6.223   5.737
15422TIP3    H246144   3.182   6.121   5.845
15423TIP3   OH246145   3.267   6.029   5.970
15423TIP3    H146146   3.202   5.984   6.028
15423TIP3    H246147   3.332   6.065   6.033
15424TIP3   OH246148   3.322   6.418   6.403
15424TIP3    H146149   3.373   6.354   6.350
15424TIP3    H246150   3.314   6.494   6.342
15425TIP3   OH246151   3.154   6.715   6.601
15425TIP3    H146152   3.083   6.763   6.649
15425TIP3    H246153   3.104   6.670   6.530
15426TIP3   OH246154   3.206   5.935   5.617
15426TIP3    H146155   3.134   5.936   5.550
15426TIP3    H246156   3.178   6.011   5.672
15427TIP3   OH246157   3.075   5.608   5.572
15427TIP3    H146158   3.036   5.639   5.490
15427TIP3    H246159   3.050   5.513   5.570
15428TIP3   OH246160   3.082   5.882   6.116
15428TIP3    H146161   3.089   5.785   6.108
15428TIP3    H246162   3.068   5.894   6.212
15429TIP3   OH246163   1.707   5.956   6.864
15429TIP3    H146164   1.707   5.926   6.770
15429TIP3    H246165   1.804   5.960   6.880
15430TIP3   OH246166   3.379   6.304   6.968
15430TIP3    H146167   3.464   6.265   6.943
15430TIP3    H246168   3.379   6.383   6.910
15431TIP3   OH246169   3.513   6.061   7.055
15431TIP3    H146170   3.476   6.055   6.965
15431TIP3    H246171   3.608   6.042   7.037
15432TIP3   OH246172   3.016   5.342   5.568
15432TIP3    H146173   3.095   5.308   5.612
15432TIP3    H246174   2.953   5.269   5.577
15433TIP3   OH246175   3.079   5.599   6.012
15433TIP3    H146176   3.117   5.510   6.029
15433TIP3    H246177   3.137   5.629   5.940
15434TIP3   OH246178   3.241   5.778   6.509
15434TIP3    H146179   3.327   5.804   6.468
15434TIP3    H246180   3.257   5.809   6.599
15435TIP3   OH246181   3.316   5.923   6.751
15435TIP3    H146182   3.231   5.951   6.791
15435TIP3    H246183   3.338   6.000   6.694
15436TIP3   OH246184   1.929   5.651   7.553
15436TIP3    H146185   2.016   5.624   7.521
15436TIP3    H246186   1.894   5.565   7.584
15437TIP3   OH246187   3.757   5.508   7.297
15437TIP3    H146188   3.817   5.442   7.256
15437TIP3    H246189   3.734   5.565   7.221
15438TIP3   OH246190   3.184   5.349   6.051
15438TIP3    H146191   3.232   5.328   6.134
15438TIP3    H246192   3.124   5.272   6.046
15439TIP3   OH246193   1.886   5.337   6.874
15439TIP3    H146194   1.946   5.259   6.879
15439TIP3    H246195   1.951   5.409   6.862
15440TIP3   OH246196   1.692   5.611   6.944
15440TIP3    H146197   1.738   5.597   6.859
15440TIP3    H246198   1.722   5.699   6.967
15441TIP3   OH246199   3.630   5.648   7.094
15441TIP3    H146200   3.534   5.669   7.087
15441TIP3    H246201   3.629   5.566   7.041
15442TIP3   OH246202   3.273   5.285   5.677
15442TIP3    H146203   3.314   5.214   5.624
15442TIP3    H246204   3.339   5.357   5.670
15443TIP3   OH246205   1.673   5.122   6.450
15443TIP3    H146206   1.578   5.111   6.468
15443TIP3    H246207   1.672   5.174   6.366
15444TIP3   OH246208   2.827   6.818   5.946
15444TIP3    H146209   2.883   6.803   5.866
15444TIP3    H246210   2.882   6.881   5.996
15445TIP3   OH246211   1.898   5.212   7.265
15445TIP3    H146212   1.842   5.188   7.341
15445TIP3    H246213   1.829   5.234   7.200
15446TIP3   OH246214   1.922   6.627   7.340
15446TIP3    H146215   1.867   6.550   7.327
15446TIP3    H246216   1.954   6.615   7.430
15447TIP3   OH246217   2.108   6.651   6.880
15447TIP3    H146218   2.064   6.730   6.840
15447TIP3    H246219   2.196   6.662   6.838
15448TIP3   OH246220   2.557   6.896   7.017
15448TIP3    H146221   2.598   6.899   7.107
15448TIP3    H246222   2.623   6.947   6.966
15449TIP3   OH246223   2.736   7.046   6.877
15449TIP3    H146224   2.810   6.999   6.837
15449TIP3    H246225   2.785   7.106   6.939
15450TIP3   OH246226   3.529   5.407   6.979
15450TIP3    H146227   3.438   5.396   6.946
15450TIP3    H246228   3.563   5.315   6.968
15451TIP3   OH246229   1.786   6.904   6.911
15451TIP3    H146230   1.698   6.939   6.885
15451TIP3    H246231   1.804   6.959   6.989
15452TIP3   OH246232   2.021   6.884   6.762
15452TIP3    H146233   1.935   6.900   6.807
15452TIP3    H246234   2.004   6.921   6.673
15453TIP3   OH246235   2.449   6.916   6.560
15453TIP3    H146236   2.381   6.940   6.495
15453TIP3    H246237   2.464   7.001   6.605
15454TIP3   OH246238   2.719   6.854   6.610
15454TIP3    H146239   2.625   6.874   6.592
15454TIP3    H246240   2.763   6.932   6.573
15455TIP3   OH246241   2.924   7.046   6.528
15455TIP3    H146242   2.912   7.132   6.482
15455TIP3    H246243   2.952   6.988   6.454
15456TIP3   OH246244   1.699   6.703   6.649
15456TIP3    H146245   1.725   6.681   6.741
15456TIP3    H246246   1.772   6.659   6.600
15457TIP3   OH246247   1.893   6.574   6.507
15457TIP3    H146248   1.910   6.490   6.555
15457TIP3    H246249   1.983   6.612   6.502
15458TIP3   OH246250   2.158   6.669   6.509
15458TIP3    H146251   2.191   6.578   6.497
15458TIP3    H246252   2.202   6.692   6.593
15459TIP3   OH246253   2.734   5.326   6.598
15459TIP3    H146254   2.692   5.254   6.648
15459TIP3    H246255   2.804   5.279   6.548
15460TIP3   OH246256   3.257   5.226   6.514
15460TIP3    H146257   3.295   5.262   6.431
15460TIP3    H246258   3.162   5.220   6.494
15461TIP3   OH246259   3.354   5.306   6.270
15461TIP3    H146260   3.425   5.254   6.227
15461TIP3    H246261   3.386   5.397   6.251
15462TIP3   OH246262   1.983   5.035   6.616
15462TIP3    H146263   1.891   5.001   6.616
15462TIP3    H246264   2.033   4.950   6.612
15463TIP3   OH246265   1.766   4.904   6.262
15463TIP3    H146266   1.801   4.958   6.189
15463TIP3    H246267   1.743   4.971   6.328
15464TIP3   OH246268   2.421   5.074   6.494
15464TIP3    H146269   2.483   5.113   6.431
15464TIP3    H246270   2.457   5.103   6.579
15465TIP3   OH246271   2.976   5.211   6.473
15465TIP3    H146272   2.974   5.170   6.385
15465TIP3    H246273   2.962   5.132   6.531
15466TIP3   OH246274   3.005   5.135   6.039
15466TIP3    H146275   2.914   5.143   6.007
15466TIP3    H246276   2.995   5.054   6.094
15467TIP3   OH246277   1.488   6.473   6.041
15467TIP3    H146278   1.403   6.440   6.007
15467TIP3    H246279   1.475   6.568   6.026
15468TIP3   OH246280   1.886   5.065   6.024
15468TIP3    H146281   1.933   4.999   5.969
15468TIP3    H246282   1.962   5.116   6.060
15469TIP3   OH246283   2.398   5.239   6.124
15469TIP3    H146284   2.459   5.188   6.180
15469TIP3    H246285   2.425   5.330   6.149
15470TIP3   OH246286   2.256   6.704   5.568
15470TIP3    H146287   2.353   6.682   5.576
15470TIP3    H246288   2.227   6.613   5.543
15471TIP3   OH246289   2.976   6.781   5.716
15471TIP3    H146290   2.968   6.683   5.703
15471TIP3    H246291   2.936   6.813   5.633
15472TIP3   OH246292   1.565   6.506   5.681
15472TIP3    H146293   1.559   6.525   5.775
15472TIP3    H246294   1.652   6.461   5.673
15473TIP3   OH246295   3.266   5.377   7.412
15473TIP3    H146296   3.284   5.344   7.502
15473TIP3    H246297   3.354   5.369   7.369
15474TIP3   OH246298   3.205   6.925   6.904
15474TIP3    H146299   3.126   6.895   6.855
15474TIP3    H246300   3.188   7.022   6.905
15475TIP3   OH246301   4.470   6.298   5.672
15475TIP3    H146302   4.442   6.389   5.650
15475TIP3    H246303   4.395   6.248   5.636
15476TIP3   OH246304   4.468   6.299   6.051
15476TIP3    H146305   4.499   6.266   6.136
15476TIP3    H246306   4.429   6.220   6.011
15477TIP3   OH246307   3.770   6.202   6.428
15477TIP3    H146308   3.805   6.127   6.480
15477TIP3    H246309   3.851   6.243   6.395
15478TIP3   OH246310   4.712   6.600   5.732
15478TIP3    H146311   4.699   6.530   5.797
15478TIP3    H246312   4.741   6.675   5.787
15479TIP3   OH246313   3.740   6.602   6.143
15479TIP3    H146314   3.732   6.505   6.145
15479TIP3    H246315   3.837   6.612   6.134
15480TIP3   OH246316   3.446   5.809   5.929
15480TIP3    H146317   3.395   5.891   5.938
15480TIP3    H246318   3.379   5.750   5.890
15481TIP3   OH246319   3.507   6.094   6.098
15481TIP3    H146320   3.555   6.016   6.133
15481TIP3    H246321   3.563   6.120   6.024
15482TIP3   OH246322   4.359   7.061   5.747
15482TIP3    H146323   4.407   6.990   5.700
15482TIP3    H246324   4.356   7.026   5.837
15483TIP3   OH246325   4.268   6.523   6.101
15483TIP3    H146326   4.306   6.447   6.053
15483TIP3    H246327   4.352   6.568   6.124
15484TIP3   OH246328   5.282   5.844   6.097
15484TIP3    H146329   5.310   5.928   6.137
15484TIP3    H246330   5.301   5.860   6.003
15485TIP3   OH246331   4.679   6.025   6.133
15485TIP3    H146332   4.724   5.940   6.152
15485TIP3    H246333   4.650   6.011   6.041
15486TIP3   OH246334   4.016   5.685   6.098
15486TIP3    H146335   3.998   5.757   6.034
15486TIP3    H246336   3.970   5.611   6.053
15487TIP3   OH246337   4.711   5.777   5.721
15487TIP3    H146338   4.784   5.759   5.784
15487TIP3    H246339   4.762   5.808   5.644
15488TIP3   OH246340   3.652   5.887   6.204
15488TIP3    H146341   3.735   5.865   6.250
15488TIP3    H246342   3.662   5.831   6.124
15489TIP3   OH246343   4.092   6.084   6.001
15489TIP3    H146344   4.186   6.060   6.010
15489TIP3    H246345   4.053   6.001   5.965
15490TIP3   OH246346   5.356   6.053   6.266
15490TIP3    H146347   5.273   6.099   6.245
15490TIP3    H246348   5.365   6.074   6.360
15491TIP3   OH246349   4.015   5.670   6.532
15491TIP3    H146350   3.955   5.704   6.463
15491TIP3    H246351   3.963   5.688   6.612
15492TIP3   OH246352   4.362   6.519   5.541
15492TIP3    H146353   4.321   6.498   5.457
15492TIP3    H246354   4.319   6.604   5.563
15493TIP3   OH246355   4.122   6.443   6.327
15493TIP3    H146356   4.059   6.510   6.363
15493TIP3    H246357   4.165   6.492   6.255
15494TIP3   OH246358   4.922   5.779   5.891
15494TIP3    H146359   4.923   5.721   5.968
15494TIP3    H246360   4.979   5.853   5.919
15495TIP3   OH246361   3.885   5.783   6.316
15495TIP3    H146362   3.949   5.854   6.338
15495TIP3    H246363   3.932   5.741   6.240
15496TIP3   OH246364   3.949   6.637   6.424
15496TIP3    H146365   3.925   6.722   6.383
15496TIP3    H246366   3.870   6.624   6.480
15497TIP3   OH246367   3.344   6.327   5.661
15497TIP3    H146368   3.304   6.354   5.576
15497TIP3    H246369   3.376   6.412   5.697
15498TIP3   OH246370   4.784   6.842   5.901
15498TIP3    H146371   4.694   6.834   5.940
15498TIP3    H246372   4.777   6.928   5.855
15499TIP3   OH246373   5.073   5.747   6.265
15499TIP3    H146374   4.985   5.772   6.232
15499TIP3    H246375   5.132   5.776   6.192
15500TIP3   OH246376   4.372   5.387   6.244
15500TIP3    H146377   4.360   5.292   6.261
15500TIP3    H246378   4.294   5.424   6.291
15501TIP3   OH246379   4.486   6.889   5.575
15501TIP3    H146380   4.536   6.807   5.553
15501TIP3    H246381   4.547   6.955   5.534
15502TIP3   OH246382   4.628   6.675   5.480
15502TIP3    H146383   4.593   6.595   5.438
15502TIP3    H246384   4.663   6.639   5.564
15503TIP3   OH246385   5.010   6.756   6.244
15503TIP3    H146386   4.999   6.679   6.184
15503TIP3    H246387   4.992   6.831   6.184
15504TIP3   OH246388   4.302   6.151   5.500
15504TIP3    H146389   4.222   6.202   5.476
15504TIP3    H246390   4.349   6.146   5.415
15505TIP3   OH246391   4.259   5.934   5.218
15505TIP3    H146392   4.327   5.984   5.266
15505TIP3    H246393   4.315   5.869   5.171
15506TIP3   OH246394   5.205   6.394   6.089
15506TIP3    H146395   5.122   6.445   6.094
15506TIP3    H246396   5.234   6.416   5.998
15507TIP3   OH246397   4.648   6.233   5.473
15507TIP3    H146398   4.594   6.257   5.552
15507TIP3    H246399   4.731   6.205   5.516
15508TIP3   OH246400   4.884   6.272   6.383
15508TIP3    H146401   4.880   6.357   6.431
15508TIP3    H246402   4.797   6.275   6.337
15509TIP3   OH246403   3.880   6.231   5.891
15509TIP3    H146404   3.838   6.173   5.823
15509TIP3    H246405   3.957   6.177   5.918
15510TIP3   OH246406   4.009   6.638   6.040
15510TIP3    H146407   3.990   6.599   5.953
15510TIP3    H246408   4.100   6.606   6.057
15511TIP3   OH246409   4.012   6.203   6.246
15511TIP3    H146410   4.046   6.178   6.157
15511TIP3    H246411   4.059   6.287   6.263
15512TIP3   OH246412   4.542   6.839   6.020
15512TIP3    H146413   4.528   6.920   6.073
15512TIP3    H246414   4.528   6.767   6.084
15513TIP3   OH246415   4.155   6.757   6.569
15513TIP3    H146416   4.095   6.821   6.614
15513TIP3    H246417   4.090   6.705   6.518
15514TIP3   OH246418   4.487   6.093   5.297
15514TIP3    H146419   4.547   6.150   5.350
15514TIP3    H246420   4.514   6.117   5.205
15515TIP3   OH246421   3.909   6.311   6.682
15515TIP3    H146422   3.914   6.402   6.718
15515TIP3    H246423   3.817   6.308   6.653
15516TIP3   OH246424   4.231   6.772   5.575
15516TIP3    H146425   4.311   6.824   5.592
15516TIP3    H246426   4.171   6.836   5.535
15517TIP3   OH246427   3.950   6.926   6.653
15517TIP3    H146428   3.915   6.927   6.562
15517TIP3    H246429   3.870   6.903   6.706
15518TIP3   OH246430   5.015   5.340   5.351
15518TIP3    H146431   4.922   5.309   5.344
15518TIP3    H246432   5.012   5.416   5.290
15519TIP3   OH246433   3.745   6.074   5.698
15519TIP3    H146434   3.681   6.117   5.638
15519TIP3    H246435   3.708   5.985   5.705
15520TIP3   OH246436   4.803   6.699   4.895
15520TIP3    H146437   4.812   6.796   4.881
15520TIP3    H246438   4.896   6.670   4.882
15521TIP3   OH246439   3.526   6.461   6.599
15521TIP3    H146440   3.461   6.440   6.529
15521TIP3    H246441   3.555   6.372   6.629
15522TIP3   OH246442   3.382   6.648   6.238
15522TIP3    H146443   3.478   6.644   6.224
15522TIP3    H246444   3.374   6.730   6.289
15523TIP3   OH246445   5.248   7.101   6.291
15523TIP3    H146446   5.245   7.004   6.302
15523TIP3    H246447   5.164   7.126   6.335
15524TIP3   OH246448   4.354   6.886   6.425
15524TIP3    H146449   4.353   6.979   6.456
15524TIP3    H246450   4.282   6.848   6.480
15525TIP3   OH246451   4.112   7.016   5.377
15525TIP3    H146452   4.068   6.998   5.291
15525TIP3    H246453   4.081   7.105   5.399
15526TIP3   OH246454   3.550   6.866   5.760
15526TIP3    H146455   3.600   6.857   5.844
15526TIP3    H246456   3.493   6.787   5.765
15527TIP3   OH246457   4.314   6.916   5.017
15527TIP3    H146458   4.374   6.847   4.980
15527TIP3    H246459   4.349   6.926   5.108
15528TIP3   OH246460   4.364   6.965   5.287
15528TIP3    H146461   4.276   6.974   5.330
15528TIP3    H246462   4.416   6.925   5.358
15529TIP3   OH246463   5.136   6.232   6.564
15529TIP3    H146464   5.057   6.245   6.510
15529TIP3    H246465   5.152   6.137   6.552
15530TIP3   OH246466   3.735   6.638   6.590
15530TIP3    H146467   3.781   6.625   6.675
15530TIP3    H246468   3.658   6.577   6.597
15531TIP3   OH246469   4.132   5.462   6.373
15531TIP3    H146470   4.043   5.431   6.346
15531TIP3    H246471   4.107   5.546   6.417
15532TIP3   OH246472   4.666   5.580   6.568
15532TIP3    H146473   4.734   5.550   6.631
15532TIP3    H246474   4.582   5.558   6.613
15533TIP3   OH246475   4.907   6.008   6.487
15533TIP3    H146476   4.857   6.005   6.572
15533TIP3    H246477   4.882   6.094   6.450
15534TIP3   OH246478   4.566   6.139   5.042
15534TIP3    H146479   4.532   6.112   4.955
15534TIP3    H246480   4.647   6.188   5.017
15535TIP3   OH246481   4.271   5.522   5.343
15535TIP3    H146482   4.244   5.518   5.437
15535TIP3    H246483   4.255   5.431   5.315
15536TIP3   OH246484   4.063   5.979   6.392
15536TIP3    H146485   4.015   6.002   6.473
15536TIP3    H246486   4.049   6.059   6.337
15537TIP3   OH246487   3.948   5.865   5.907
15537TIP3    H146488   3.855   5.838   5.923
15537TIP3    H246489   3.962   5.825   5.818
15538TIP3   OH246490   4.438   5.952   5.637
15538TIP3    H146491   4.386   6.022   5.591
15538TIP3    H246492   4.495   5.919   5.564
15539TIP3   OH246493   4.614   6.231   6.722
15539TIP3    H146494   4.592   6.157   6.783
15539TIP3    H246495   4.708   6.242   6.741
15540TIP3   OH246496   4.596   5.981   5.873
15540TIP3    H146497   4.536   6.007   5.800
15540TIP3    H246498   4.631   5.899   5.832
15541TIP3   OH246499   3.880   6.011   6.604
15541TIP3    H146500   3.926   6.068   6.667
15541TIP3    H246501   3.874   5.927   6.653
15542TIP3   OH246502   3.933   5.481   5.310
15542TIP3    H146503   3.926   5.480   5.407
15542TIP3    H246504   3.856   5.536   5.286
15543TIP3   OH246505   3.474   5.533   6.185
15543TIP3    H146506   3.556   5.560   6.232
15543TIP3    H246507   3.506   5.497   6.100
15544TIP3   OH246508   3.453   5.512   5.702
15544TIP3    H146509   3.498   5.549   5.623
15544TIP3    H246510   3.391   5.584   5.722
15545TIP3   OH246511   4.607   6.225   6.298
15545TIP3    H146512   4.639   6.154   6.238
15545TIP3    H246513   4.578   6.172   6.374
15546TIP3   OH246514   4.275   5.691   5.969
15546TIP3    H146515   4.194   5.685   6.022
15546TIP3    H246516   4.344   5.685   6.037
15547TIP3   OH246517   3.709   5.741   5.978
15547TIP3    H146518   3.615   5.748   5.949
15547TIP3    H246519   3.733   5.650   5.953
15548TIP3   OH246520   3.979   5.740   5.665
15548TIP3    H146521   4.074   5.754   5.645
15548TIP3    H246522   3.935   5.763   5.580
15549TIP3   OH246523   4.769   5.764   6.174
15549TIP3    H146524   4.728   5.774   6.262
15549TIP3    H246525   4.707   5.702   6.132
15550TIP3   OH246526   3.819   5.774   5.443
15550TIP3    H146527   3.748   5.728   5.396
15550TIP3    H246528   3.871   5.809   5.368
15551TIP3   OH246529   4.937   7.451   6.388
15551TIP3    H146530   4.933   7.475   6.293
15551TIP3    H246531   5.013   7.503   6.418
15552TIP3   OH246532   3.894   6.557   6.814
15552TIP3    H146533   3.975   6.591   6.857
15552TIP3    H246534   3.829   6.571   6.885
15553TIP3   OH246535   4.359   6.015   6.065
15553TIP3    H146536   4.429   5.976   6.010
15553TIP3    H246537   4.372   5.970   6.150
15554TIP3   OH246538   3.884   5.503   5.943
15554TIP3    H146539   3.849   5.423   5.988
15554TIP3    H246540   3.936   5.465   5.871
15555TIP3   OH246541   4.335   5.908   6.359
15555TIP3    H146542   4.247   5.947   6.369
15555TIP3    H246543   4.393   5.970   6.406
15556TIP3   OH246544   4.070   6.304   5.449
15556TIP3    H146545   3.999   6.238   5.439
15556TIP3    H246546   4.054   6.337   5.540
15557TIP3   OH246547   4.972   6.539   6.080
15557TIP3    H146548   4.997   6.588   5.999
15557TIP3    H246549   4.887   6.497   6.055
15558TIP3   OH246550   4.515   5.648   5.286
15558TIP3    H146551   4.429   5.606   5.311
15558TIP3    H246552   4.524   5.724   5.346
15559TIP3   OH246553   4.469   6.619   6.448
15559TIP3    H146554   4.494   6.601   6.539
15559TIP3    H246555   4.434   6.710   6.452
15560TIP3   OH246556   4.599   5.870   5.426
15560TIP3    H146557   4.696   5.866   5.434
15560TIP3    H246558   4.585   5.944   5.364
15561TIP3   OH246559   3.764   6.323   6.126
15561TIP3    H146560   3.799   6.299   6.038
15561TIP3    H246561   3.809   6.259   6.183
15562TIP3   OH246562   4.217   6.452   5.270
15562TIP3    H146563   4.170   6.538   5.276
15562TIP3    H246564   4.163   6.397   5.330
15563TIP3   OH246565   3.621   6.254   6.761
15563TIP3    H146566   3.688   6.222   6.823
15563TIP3    H246567   3.587   6.175   6.716
15564TIP3   OH246568   4.370   6.357   6.760
15564TIP3    H146569   4.314   6.302   6.703
15564TIP3    H246570   4.459   6.326   6.733
15565TIP3   OH246571   4.633   6.877   6.345
15565TIP3    H146572   4.536   6.879   6.354
15565TIP3    H246573   4.660   6.932   6.421
15566TIP3   OH246574   5.046   5.950   5.250
15566TIP3    H146575   4.984   5.901   5.191
15566TIP3    H246576   5.039   6.038   5.208
15567TIP3   OH246577   5.260   6.809   6.333
15567TIP3    H146578   5.163   6.804   6.324
15567TIP3    H246579   5.286   6.779   6.243
15568TIP3   OH246580   4.741   6.771   5.159
15568TIP3    H146581   4.717   6.700   5.220
15568TIP3    H246582   4.754   6.724   5.074
15569TIP3   OH246583   4.738   6.400   6.001
15569TIP3    H146584   4.644   6.375   6.012
15569TIP3    H246585   4.772   6.321   5.955
15570TIP3   OH246586   3.865   6.628   5.752
15570TIP3    H146587   3.868   6.709   5.698
15570TIP3    H246588   3.770   6.613   5.758
15571TIP3   OH246589   3.428   5.933   5.453
15571TIP3    H146590   3.474   6.016   5.474
15571TIP3    H246591   3.351   5.938   5.514
15572TIP3   OH246592   4.004   6.394   5.696
15572TIP3    H146593   3.970   6.484   5.714
15572TIP3    H246594   3.968   6.344   5.771
15573TIP3   OH246595   4.133   6.972   6.220
15573TIP3    H146596   4.173   7.046   6.169
15573TIP3    H246597   4.211   6.939   6.267
15574TIP3   OH246598   3.785   6.867   5.603
15574TIP3    H146599   3.699   6.876   5.649
15574TIP3    H246600   3.817   6.960   5.606
15575TIP3   OH246601   4.523   6.606   6.178
15575TIP3    H146602   4.515   6.603   6.276
15575TIP3    H246603   4.602   6.553   6.163
15576TIP3   OH246604   4.496   6.498   5.061
15576TIP3    H146605   4.550   6.474   5.140
15576TIP3    H246606   4.408   6.472   5.092
15577TIP3   OH246607   4.771   7.141   6.229
15577TIP3    H146608   4.691   7.086   6.219
15577TIP3    H246609   4.758   7.206   6.157
15578TIP3   OH246610   4.837   6.974   4.881
15578TIP3    H146611   4.876   7.047   4.830
15578TIP3    H246612   4.757   7.020   4.914
15579TIP3   OH246613   3.856   5.755   6.750
15579TIP3    H146614   3.759   5.752   6.755
15579TIP3    H246615   3.882   5.686   6.814
15580TIP3   OH246616   4.656   6.434   5.279
15580TIP3    H146617   4.646   6.367   5.349
15580TIP3    H246618   4.753   6.431   5.266
15581TIP3   OH246619   3.571   6.835   6.380
15581TIP3    H146620   3.627   6.763   6.411
15581TIP3    H246621   3.601   6.908   6.435
15582TIP3   OH246622   3.862   6.480   5.061
15582TIP3    H146623   3.878   6.389   5.031
15582TIP3    H246624   3.843   6.467   5.156
15583TIP3   OH246625   3.808   6.484   5.335
15583TIP3    H146626   3.882   6.457   5.390
15583TIP3    H246627   3.813   6.582   5.341
15584TIP3   OH246628   3.545   6.178   5.536
15584TIP3    H146629   3.479   6.223   5.593
15584TIP3    H246630   3.560   6.247   5.469
15585TIP3   OH246631   4.688   5.820   6.434
15585TIP3    H146632   4.774   5.852   6.465
15585TIP3    H246633   4.676   5.737   6.484
15586TIP3   OH246634   4.545   5.582   5.587
15586TIP3    H146635   4.560   5.588   5.491
15586TIP3    H246636   4.605   5.651   5.621
15587TIP3   OH246637   4.073   6.682   5.282
15587TIP3    H146638   3.987   6.711   5.317
15587TIP3    H246639   4.092   6.753   5.220
15588TIP3   OH246640   4.259   5.747   5.695
15588TIP3    H146641   4.328   5.813   5.675
15588TIP3    H246642   4.268   5.739   5.792
15589TIP3   OH246643   4.530   6.064   6.504
15589TIP3    H146644   4.554   6.116   6.584
15589TIP3    H246645   4.586   5.985   6.512
15590TIP3   OH246646   4.408   5.474   5.799
15590TIP3    H146647   4.404   5.551   5.857
15590TIP3    H246648   4.463   5.512   5.725
15591TIP3   OH246649   3.816   6.758   5.349
15591TIP3    H146650   3.787   6.827   5.286
15591TIP3    H246651   3.801   6.802   5.435
15592TIP3   OH246652   3.920   5.472   5.586
15592TIP3    H146653   3.917   5.562   5.624
15592TIP3    H246654   4.016   5.453   5.597
15593TIP3   OH246655   5.174   5.965   6.482
15593TIP3    H146656   5.076   5.964   6.491
15593TIP3    H246657   5.182   5.921   6.396
15594TIP3   OH246658   4.823   6.159   5.873
15594TIP3    H146659   4.748   6.098   5.882
15594TIP3    H246660   4.895   6.111   5.919
15595TIP3   OH246661   3.535   6.390   5.341
15595TIP3    H146662   3.602   6.459   5.351
15595TIP3    H246663   3.580   6.334   5.275
15596TIP3   OH246664   3.481   5.663   5.475
15596TIP3    H146665   3.477   5.761   5.469
15596TIP3    H246666   3.398   5.637   5.433
15597TIP3   OH246667   4.792   7.113   5.822
15597TIP3    H146668   4.749   7.160   5.747
15597TIP3    H246669   4.886   7.133   5.801
15598TIP3   OH246670   3.866   5.384   6.350
15598TIP3    H146671   3.837   5.351   6.263
15598TIP3    H246672   3.857   5.305   6.406
15599TIP3   OH246673   3.409   6.602   5.732
15599TIP3    H146674   3.334   6.634   5.784
15599TIP3    H246675   3.387   6.640   5.644
15600TIP3   OH246676   3.563   7.142   6.802
15600TIP3    H146677   3.649   7.143   6.849
15600TIP3    H246678   3.543   7.047   6.801
15601TIP3   OH246679   4.045   7.107   6.849
15601TIP3    H146680   4.140   7.093   6.852
15601TIP3    H246681   4.021   7.051   6.772
15602TIP3   OH246682   4.027   6.684   4.974
15602TIP3    H146683   3.971   6.612   5.012
15602TIP3    H246684   4.102   6.632   4.941
15603TIP3   OH246685   4.683   7.015   6.579
15603TIP3    H146686   4.676   6.945   6.648
15603TIP3    H246687   4.761   7.066   6.609
15604TIP3   OH246688   4.463   6.725   4.884
15604TIP3    H146689   4.508   6.662   4.943
15604TIP3    H246690   4.519   6.725   4.805
15605TIP3   OH246691   3.692   6.550   7.001
15605TIP3    H146692   3.703   6.454   7.005
15605TIP3    H246693   3.604   6.557   6.957
15606TIP3   OH246694   3.670   6.202   5.194
15606TIP3    H146695   3.725   6.167   5.266
15606TIP3    H246696   3.737   6.206   5.122
15607TIP3   OH246697   4.301   6.633   6.775
15607TIP3    H146698   4.261   6.652   6.688
15607TIP3    H246699   4.333   6.541   6.766
15608TIP3   OH246700   4.177   6.398   5.001
15608TIP3    H146701   4.182   6.411   5.098
15608TIP3    H246702   4.179   6.300   4.996
15609TIP3   OH246703   4.795   6.642   6.382
15609TIP3    H146704   4.869   6.686   6.336
15609TIP3    H246705   4.724   6.708   6.367
15610TIP3   OH246706   3.798   6.246   6.993
15610TIP3    H146707   3.884   6.230   6.953
15610TIP3    H246708   3.823   6.300   7.071
15611TIP3   OH246709   3.880   6.103   5.417
15611TIP3    H146710   3.854   6.059   5.500
15611TIP3    H246711   3.916   6.029   5.365
15612TIP3   OH246712   4.144   6.164   6.642
15612TIP3    H146713   4.071   6.229   6.648
15612TIP3    H246714   4.197   6.200   6.567
15613TIP3   OH246715   3.979   5.897   5.257
15613TIP3    H146716   3.953   5.900   5.163
15613TIP3    H246717   4.077   5.903   5.250
15614TIP3   OH246718   4.665   6.570   6.780
15614TIP3    H146719   4.742   6.547   6.728
15614TIP3    H246720   4.664   6.501   6.848
15615TIP3   OH246721   4.802   6.229   4.919
15615TIP3    H146722   4.781   6.183   4.835
15615TIP3    H246723   4.770   6.319   4.895
15616TIP3   OH246724   4.268   5.956   6.774
15616TIP3    H146725   4.272   5.876   6.717
15616TIP3    H246726   4.228   6.021   6.713
15617TIP3   OH246727   4.273   5.744   6.581
15617TIP3    H146728   4.303   5.784   6.496
15617TIP3    H246729   4.181   5.719   6.560
15618TIP3   OH246730   4.300   6.279   6.455
15618TIP3    H146731   4.383   6.284   6.405
15618TIP3    H246732   4.246   6.347   6.409
15619TIP3   OH246733   4.885   6.247   6.834
15619TIP3    H146734   4.931   6.162   6.842
15619TIP3    H246735   4.953   6.303   6.796
15620TIP3   OH246736   4.924   6.500   6.572
15620TIP3    H146737   4.867   6.552   6.511
15620TIP3    H246738   5.012   6.518   6.531
15621TIP3   OH246739   4.143   6.072   7.000
15621TIP3    H146740   4.080   5.998   7.012
15621TIP3    H246741   4.183   6.048   6.914
15622TIP3   OH246742   4.406   5.508   6.646
15622TIP3    H146743   4.357   5.589   6.622
15622TIP3    H246744   4.338   5.439   6.632
15623TIP3   OH246745   4.531   6.012   6.861
15623TIP3    H146746   4.522   5.999   6.957
15623TIP3    H246747   4.441   5.986   6.832
15624TIP3   OH246748   4.773   5.965   6.718
15624TIP3    H146749   4.697   5.961   6.778
15624TIP3    H246750   4.846   5.931   6.774
15625TIP3   OH246751   5.001   5.900   6.868
15625TIP3    H146752   5.014   5.805   6.886
15625TIP3    H246753   4.998   5.939   6.958
15626TIP3   OH246754   3.990   5.851   7.055
15626TIP3    H146755   3.995   5.761   7.016
15626TIP3    H246756   4.028   5.834   7.144
15627TIP3   OH246757   4.499   5.516   6.903
15627TIP3    H146758   4.568   5.446   6.897
15627TIP3    H246759   4.460   5.510   6.814
15628TIP3   OH246760   4.566   5.730   7.063
15628TIP3    H146761   4.545   5.659   6.998
15628TIP3    H246762   4.488   5.790   7.054
15629TIP3   OH246763   3.786   6.960   5.161
15629TIP3    H146764   3.882   6.955   5.143
15629TIP3    H246765   3.757   7.009   5.082
15630TIP3   OH246766   3.267   6.341   5.379
15630TIP3    H146767   3.361   6.364   5.364
15630TIP3    H246768   3.262   6.253   5.337
15631TIP3   OH246769   3.180   6.954   5.791
15631TIP3    H146770   3.113   6.891   5.756
15631TIP3    H246771   3.225   6.898   5.858
15632TIP3   OH246772   3.316   6.807   5.978
15632TIP3    H146773   3.306   6.733   6.039
15632TIP3    H246774   3.368   6.868   6.033
15633TIP3   OH246775   5.044   7.205   5.778
15633TIP3    H146776   5.071   7.242   5.864
15633TIP3    H246777   5.103   7.251   5.716
15634TIP3   OH246778   5.072   7.227   6.060
15634TIP3    H146779   5.031   7.138   6.055
15634TIP3    H246780   5.150   7.205   6.114
15635TIP3   OH246781   5.122   6.903   6.634
15635TIP3    H146782   5.047   6.911   6.696
15635TIP3    H246783   5.161   6.992   6.637
15636TIP3   OH246784   4.936   6.416   5.253
15636TIP3    H146785   5.005   6.480   5.225
15636TIP3    H246786   4.978   6.377   5.332
15637TIP3   OH246787   5.063   6.284   5.457
15637TIP3    H146788   4.998   6.240   5.515
15637TIP3    H246789   5.127   6.322   5.521
15638TIP3   OH246790   5.118   6.675   5.890
15638TIP3    H146791   5.170   6.610   5.838
15638TIP3    H246792   5.110   6.750   5.828
15639TIP3   OH246793   4.950   6.975   6.086
15639TIP3    H146794   4.878   7.019   6.135
15639TIP3    H246795   4.901   6.928   6.015
15640TIP3   OH246796   5.002   6.191   5.103
15640TIP3    H146797   4.930   6.195   5.035
15640TIP3    H246798   4.975   6.266   5.159
15641TIP3   OH246799   4.877   5.857   5.057
15641TIP3    H146800   4.832   5.903   4.985
15641TIP3    H246801   4.841   5.767   5.049
15642TIP3   OH246802   4.878   6.139   5.602
15642TIP3    H146803   4.884   6.042   5.595
15642TIP3    H246804   4.865   6.151   5.699
15643TIP3   OH246805   3.505   6.209   6.352
15643TIP3    H146806   3.503   6.181   6.258
15643TIP3    H246807   3.602   6.216   6.367
15644TIP3   OH246808   5.167   6.564   6.461
15644TIP3    H146809   5.240   6.499   6.451
15644TIP3    H246810   5.192   6.633   6.397
15645TIP3   OH246811   5.353   6.371   6.480
15645TIP3    H146812   5.278   6.320   6.517
15645TIP3    H246813   5.425   6.306   6.493
15646TIP3   OH246814   4.874   5.856   5.499
15646TIP3    H146815   4.912   5.766   5.517
15646TIP3    H246816   4.934   5.884   5.428
15647TIP3   OH246817   5.037   6.032   5.994
15647TIP3    H146818   5.123   6.057   5.953
15647TIP3    H246819   5.051   6.068   6.084
15648TIP3   OH246820   5.106   6.174   6.227
15648TIP3    H146821   5.026   6.208   6.273
15648TIP3    H246822   5.137   6.255   6.180
15649TIP3   OH246823   3.724   5.903   7.046
15649TIP3    H146824   3.821   5.897   7.030
15649TIP3    H246825   3.705   5.809   7.064
15650TIP3   OH246826   5.558   5.766   6.782
15650TIP3    H146827   5.615   5.699   6.738
15650TIP3    H246828   5.529   5.820   6.705
15651TIP3   OH246829   4.982   5.609   5.540
15651TIP3    H146830   5.027   5.586   5.623
15651TIP3    H246831   4.925   5.529   5.528
15652TIP3   OH246832   3.683   5.593   6.363
15652TIP3    H146833   3.744   5.516   6.367
15652TIP3    H246834   3.747   5.666   6.350
15653TIP3   OH246835   3.489   5.868   6.432
15653TIP3    H146836   3.533   5.851   6.347
15653TIP3    H246837   3.519   5.958   6.451
15654TIP3   OH246838   5.428   5.905   6.587
15654TIP3    H146839   5.340   5.944   6.606
15654TIP3    H246840   5.400   5.832   6.528
15655TIP3   OH246841   5.089   5.545   5.166
15655TIP3    H146842   5.119   5.474   5.108
15655TIP3    H246843   5.151   5.618   5.148
15656TIP3   OH246844   3.468   5.381   5.939
15656TIP3    H146845   3.373   5.366   5.954
15656TIP3    H246846   3.467   5.431   5.854
15657TIP3   OH246847   4.628   7.071   5.435
15657TIP3    H146848   4.679   7.057   5.353
15657TIP3    H246849   4.681   7.140   5.480
15658TIP3   OH246850   3.691   5.461   6.750
15658TIP3    H146851   3.635   5.441   6.826
15658TIP3    H246852   3.625   5.489   6.684
15659TIP3   OH246853   3.732   6.866   6.821
15659TIP3    H146854   3.637   6.848   6.805
15659TIP3    H246855   3.736   6.866   6.918
15660TIP3   OH246856   3.907   6.908   6.368
15660TIP3    H146857   3.859   6.984   6.329
15660TIP3    H246858   3.993   6.922   6.324
15661TIP3   OH246859   4.353   7.152   6.506
15661TIP3    H146860   4.395   7.156   6.595
15661TIP3    H246861   4.418   7.203   6.453
15662TIP3   OH246862   4.532   7.303   6.365
15662TIP3    H146863   4.604   7.255   6.322
15662TIP3    H246864   4.583   7.362   6.425
15663TIP3   OH246865   5.326   5.667   6.465
15663TIP3    H146866   5.235   5.661   6.431
15663TIP3    H246867   5.356   5.574   6.453
15664TIP3   OH246868   3.583   7.162   6.395
15664TIP3    H146869   3.495   7.196   6.369
15664TIP3    H246870   3.596   7.209   6.478
15665TIP3   OH246871   3.819   7.142   6.249
15665TIP3    H146872   3.733   7.156   6.294
15665TIP3    H246873   3.801   7.178   6.160
15666TIP3   OH246874   4.246   7.172   6.047
15666TIP3    H146875   4.178   7.194   5.981
15666TIP3    H246876   4.259   7.260   6.090
15667TIP3   OH246877   4.515   7.113   6.099
15667TIP3    H146878   4.420   7.130   6.079
15667TIP3    H246879   4.557   7.189   6.057
15668TIP3   OH246880   4.723   7.305   6.015
15668TIP3    H146881   4.708   7.390   5.968
15668TIP3    H246882   4.748   7.245   5.941
15669TIP3   OH246883   3.494   6.959   6.136
15669TIP3    H146884   3.521   6.935   6.227
15669TIP3    H246885   3.567   6.916   6.086
15670TIP3   OH246886   3.688   6.830   5.993
15670TIP3    H146887   3.706   6.747   6.042
15670TIP3    H246888   3.779   6.869   5.988
15671TIP3   OH246889   3.953   6.926   5.996
15671TIP3    H146890   3.987   6.836   5.983
15671TIP3    H246891   3.997   6.948   6.080
15672TIP3   OH246892   4.530   5.583   6.084
15672TIP3    H146893   4.488   5.511   6.135
15672TIP3    H246894   4.602   5.536   6.037
15673TIP3   OH246895   5.055   5.473   5.998
15673TIP3    H146896   5.092   5.516   5.918
15673TIP3    H246897   4.959   5.479   5.982
15674TIP3   OH246898   5.152   5.562   5.758
15674TIP3    H146899   5.223   5.512   5.712
15674TIP3    H246900   5.181   5.654   5.739
15675TIP3   OH246901   3.779   5.292   6.102
15675TIP3    H146902   3.687   5.259   6.102
15675TIP3    H246903   3.828   5.207   6.098
15676TIP3   OH246904   3.575   5.159   5.746
15676TIP3    H146905   3.595   5.221   5.673
15676TIP3    H246906   3.537   5.219   5.813
15677TIP3   OH246907   4.220   5.327   5.980
15677TIP3    H146908   4.281   5.371   5.919
15677TIP3    H246909   4.248   5.361   6.066
15678TIP3   OH246910   4.772   5.469   5.962
15678TIP3    H146911   4.771   5.434   5.872
15678TIP3    H246912   4.757   5.388   6.015
15679TIP3   OH246913   4.798   5.401   5.549
15679TIP3    H146914   4.722   5.411   5.491
15679TIP3    H246915   4.784   5.310   5.583
15680TIP3   OH246916   3.283   6.730   5.530
15680TIP3    H146917   3.199   6.697   5.493
15680TIP3    H246918   3.272   6.825   5.515
15681TIP3   OH246919   3.678   5.332   5.517
15681TIP3    H146920   3.725   5.270   5.457
15681TIP3    H246921   3.754   5.383   5.553
15682TIP3   OH246922   4.198   5.494   5.611
15682TIP3    H146923   4.259   5.449   5.671
15682TIP3    H246924   4.219   5.587   5.635
15683TIP3   OH246925   4.055   6.921   5.110
15683TIP3    H146926   4.143   6.943   5.074
15683TIP3    H246927   4.033   6.846   5.051
15684TIP3   OH246928   4.773   7.038   5.203
15684TIP3    H146929   4.764   6.940   5.190
15684TIP3    H246930   4.729   7.071   5.122
15685TIP3   OH246931   3.984   5.574   6.997
15685TIP3    H146932   3.955   5.498   7.050
15685TIP3    H246933   4.080   5.574   7.019
15686TIP3   OH246934   4.236   5.570   7.111
15686TIP3    H146935   4.320   5.547   7.069
15686TIP3    H246936   4.226   5.498   7.176
15687TIP3   OH246937   3.360   6.758   5.167
15687TIP3    H146938   3.362   6.782   5.261
15687TIP3    H246939   3.448   6.716   5.154
15688TIP3   OH246940   5.061   5.630   6.899
15688TIP3    H146941   5.081   5.598   6.990
15688TIP3    H246942   5.149   5.624   6.857
15689TIP3   OH246943   5.000   7.182   6.392
15689TIP3    H146944   4.922   7.151   6.342
15689TIP3    H246945   4.982   7.278   6.393
15690TIP3   OH246946   6.267   6.555   5.158
15690TIP3    H146947   6.238   6.646   5.137
15690TIP3    H246948   6.190   6.505   5.124
15691TIP3   OH246949   6.268   6.555   5.536
15691TIP3    H146950   6.295   6.523   5.623
15691TIP3    H246951   6.224   6.477   5.498
15692TIP3   OH246952   5.566   6.451   5.903
15692TIP3    H146953   5.598   6.384   5.965
15692TIP3    H246954   5.644   6.507   5.894
15693TIP3   OH246955   6.510   6.855   5.218
15693TIP3    H146956   6.493   6.787   5.284
15693TIP3    H246957   6.536   6.931   5.273
15694TIP3   OH246958   5.537   6.860   5.630
15694TIP3    H146959   5.528   6.762   5.632
15694TIP3    H246960   5.633   6.869   5.622
15695TIP3   OH246961   5.244   6.066   5.414
15695TIP3    H146962   5.191   6.147   5.427
15695TIP3    H246963   5.177   6.007   5.378
15696TIP3   OH246964   5.303   6.352   5.585
15696TIP3    H146965   5.351   6.274   5.621
15696TIP3    H246966   5.359   6.376   5.510
15697TIP3   OH246967   6.156   7.319   5.234
15697TIP3    H146968   6.204   7.248   5.187
15697TIP3    H246969   6.149   7.283   5.323
15698TIP3   OH246970   6.064   6.780   5.587
15698TIP3    H146971   6.101   6.705   5.538
15698TIP3    H246972   6.148   6.825   5.610
15699TIP3   OH246973   7.079   6.099   5.584
15699TIP3    H146974   7.106   6.184   5.624
15699TIP3    H246975   7.098   6.116   5.490
15700TIP3   OH246976   6.477   6.282   5.620
15700TIP3    H146977   6.520   6.196   5.638
15700TIP3    H246978   6.446   6.268   5.528
15701TIP3   OH246979   5.815   5.942   5.584
15701TIP3    H146980   5.793   6.014   5.522
15701TIP3    H246981   5.767   5.868   5.541
15702TIP3   OH246982   6.507   6.032   5.207
15702TIP3    H146983   6.580   6.016   5.271
15702TIP3    H246984   6.559   6.066   5.131
15703TIP3   OH246985   5.448   6.144   5.691
15703TIP3    H146986   5.531   6.122   5.738
15703TIP3    H246987   5.458   6.087   5.611
15704TIP3   OH246988   5.889   6.341   5.483
15704TIP3    H146989   5.982   6.315   5.496
15704TIP3    H246990   5.849   6.257   5.451
15705TIP3   OH246991   7.152   6.308   5.754
15705TIP3    H146992   7.069   6.356   5.731
15705TIP3    H246993   7.162   6.335   5.847
15706TIP3   OH246994   5.812   5.925   6.019
15706TIP3    H146995   5.751   5.961   5.951
15706TIP3    H246996   5.759   5.943   6.099
15707TIP3   OH246997   6.159   6.776   5.027
15707TIP3    H146998   6.116   6.755   4.943
15707TIP3    H246999   6.116   6.861   5.050
15708TIP3   OH247000   5.919   6.700   5.815
15708TIP3    H147001   5.855   6.765   5.852
15708TIP3    H247002   5.959   6.751   5.742
15709TIP3   OH247003   6.719   6.034   5.377
15709TIP3    H147004   6.713   5.982   5.458
15709TIP3    H247005   6.774   6.110   5.404
15710TIP3   OH247006   5.682   6.040   5.803
15710TIP3    H147007   5.745   6.112   5.825
15710TIP3    H247008   5.730   5.999   5.727
15711TIP3   OH247009   5.745   6.893   5.912
15711TIP3    H147010   5.720   6.978   5.871
15711TIP3    H247011   5.666   6.878   5.968
15712TIP3   OH247012   5.141   6.583   5.147
15712TIP3    H147013   5.099   6.610   5.063
15712TIP3    H247014   5.171   6.669   5.184
15713TIP3   OH247015   6.582   7.099   5.388
15713TIP3    H147016   6.492   7.091   5.427
15713TIP3    H247017   6.573   7.185   5.342
15714TIP3   OH247018   6.870   6.003   5.751
15714TIP3    H147019   6.782   6.028   5.719
15714TIP3    H247020   6.928   6.032   5.678
15715TIP3   OH247021   6.170   5.644   5.734
15715TIP3    H147022   6.154   5.549   5.748
15715TIP3    H247023   6.091   5.682   5.779
15716TIP3   OH247024   6.284   7.146   5.064
15716TIP3    H147025   6.333   7.064   5.041
15716TIP3    H247026   6.344   7.212   5.021
15717TIP3   OH247027   6.425   6.931   4.966
15717TIP3    H147028   6.386   6.852   4.926
15717TIP3    H247029   6.460   6.895   5.051
15718TIP3   OH247030   6.807   7.013   5.731
15718TIP3    H147031   6.795   6.935   5.671
15718TIP3    H247032   6.788   7.087   5.670
15719TIP3   OH247033   6.098   6.406   4.987
15719TIP3    H147034   6.017   6.458   4.966
15719TIP3    H247035   6.143   6.404   4.901
15720TIP3   OH247036   6.056   6.190   4.706
15720TIP3    H147037   6.123   6.241   4.754
15720TIP3    H247038   6.114   6.127   4.657
15721TIP3   OH247039   7.002   6.650   5.576
15721TIP3    H147040   6.918   6.702   5.581
15721TIP3    H247041   7.031   6.673   5.485
15722TIP3   OH247042   6.444   6.489   4.960
15722TIP3    H147043   6.390   6.514   5.038
15722TIP3    H247044   6.528   6.463   5.004
15723TIP3   OH247045   6.680   6.529   5.869
15723TIP3    H147046   6.676   6.614   5.916
15723TIP3    H247047   6.593   6.530   5.824
15724TIP3   OH247048   5.676   6.487   5.376
15724TIP3    H147049   5.634   6.430   5.308
15724TIP3    H247050   5.753   6.433   5.404
15725TIP3   OH247051   5.806   6.896   5.526
15725TIP3    H147052   5.785   6.856   5.440
15725TIP3    H247053   5.896   6.863   5.543
15726TIP3   OH247054   5.816   6.457   5.732
15726TIP3    H147055   5.846   6.437   5.641
15726TIP3    H247056   5.857   6.544   5.750
15727TIP3   OH247057   6.340   7.096   5.507
15727TIP3    H147058   6.324   7.176   5.560
15727TIP3    H247059   6.324   7.023   5.571
15728TIP3   OH247060   5.951   7.014   6.056
15728TIP3    H147061   5.890   7.077   6.100
15728TIP3    H247062   5.885   6.961   6.005
15729TIP3   OH247063   6.286   6.346   4.785
15729TIP3    H147064   6.344   6.406   4.837
15729TIP3    H247065   6.312   6.370   4.693
15730TIP3   OH247066   5.706   6.570   6.156
15730TIP3    H147067   5.709   6.658   6.200
15730TIP3    H247068   5.610   6.552   6.163
15731TIP3   OH247069   6.028   7.027   5.062
15731TIP3    H147070   6.106   7.083   5.080
15731TIP3    H247071   5.966   7.089   5.021
15732TIP3   OH247072   5.746   7.184   6.141
15732TIP3    H147073   5.711   7.183   6.050
15732TIP3    H247074   5.666   7.161   6.194
15733TIP3   OH247075   6.803   5.585   4.845
15733TIP3    H147076   6.716   5.611   4.881
15733TIP3    H247077   6.814   5.650   4.773
15734TIP3   OH247078   5.543   6.329   5.181
15734TIP3    H147079   5.478   6.375   5.124
15734TIP3    H247080   5.501   6.244   5.195
15735TIP3   OH247081   6.599   6.956   4.381
15735TIP3    H147082   6.607   7.053   4.367
15735TIP3    H247083   6.692   6.927   4.369
15736TIP3   OH247084   5.324   6.713   6.088
15736TIP3    H147085   5.259   6.692   6.018
15736TIP3    H247086   5.361   6.625   6.111
15737TIP3   OH247087   5.178   6.905   5.724
15737TIP3    H147088   5.274   6.901   5.711
15737TIP3    H247089   5.168   6.987   5.774
15738TIP3   OH247090   7.045   7.358   5.777
15738TIP3    H147091   7.041   7.261   5.789
15738TIP3    H247092   6.961   7.383   5.821
15739TIP3   OH247093   6.150   7.142   5.913
15739TIP3    H147094   6.149   7.235   5.943
15739TIP3    H247095   6.078   7.104   5.966
15740TIP3   OH247096   5.910   7.273   4.863
15740TIP3    H147097   5.863   7.255   4.779
15740TIP3    H247098   5.877   7.362   4.887
15741TIP3   OH247099   5.347   7.121   5.246
15741TIP3    H147100   5.395   7.113   5.331
15741TIP3    H247101   5.288   7.045   5.251
15742TIP3   OH247102   6.111   7.174   4.503
15742TIP3    H147103   6.170   7.104   4.467
15742TIP3    H247104   6.145   7.183   4.594
15743TIP3   OH247105   6.161   7.221   4.773
15743TIP3    H147106   6.072   7.232   4.815
15743TIP3    H247107   6.211   7.181   4.846
15744TIP3   OH247108   6.933   6.488   6.051
15744TIP3    H147109   6.853   6.504   5.998
15744TIP3    H247110   6.946   6.393   6.037
15745TIP3   OH247111   5.530   6.896   6.078
15745TIP3    H147112   5.579   6.879   6.160
15745TIP3    H247113   5.455   6.832   6.084
15746TIP3   OH247114   5.929   5.720   5.859
15746TIP3    H147115   5.840   5.688   5.833
15746TIP3    H247116   5.904   5.803   5.905
15747TIP3   OH247117   6.461   5.837   6.055
15747TIP3    H147118   6.528   5.807   6.120
15747TIP3    H247119   6.376   5.816   6.099
15748TIP3   OH247120   6.706   6.266   5.976
15748TIP3    H147121   6.653   6.262   6.059
15748TIP3    H247122   6.678   6.351   5.937
15749TIP3   OH247123   6.363   6.394   4.530
15749TIP3    H147124   6.328   6.369   4.442
15749TIP3    H247125   6.441   6.445   4.504
15750TIP3   OH247126   6.070   5.775   4.830
15750TIP3    H147127   6.042   5.777   4.923
15750TIP3    H247128   6.050   5.683   4.807
15751TIP3   OH247129   5.862   6.235   5.880
15751TIP3    H147130   5.809   6.255   5.960
15751TIP3    H247131   5.846   6.315   5.826
15752TIP3   OH247132   5.744   6.121   5.393
15752TIP3    H147133   5.651   6.095   5.411
15752TIP3    H247134   5.757   6.080   5.304
15753TIP3   OH247135   6.235   6.207   5.121
15753TIP3    H147136   6.182   6.279   5.079
15753TIP3    H247137   6.289   6.176   5.046
15754TIP3   OH247138   6.409   6.486   6.208
15754TIP3    H147139   6.386   6.414   6.270
15754TIP3    H247140   6.503   6.499   6.229
15755TIP3   OH247141   6.393   6.237   5.360
15755TIP3    H147142   6.333   6.266   5.289
15755TIP3    H247143   6.426   6.155   5.317
15756TIP3   OH247144   5.681   6.265   6.088
15756TIP3    H147145   5.703   6.329   6.157
15756TIP3    H247146   5.668   6.183   6.139
15757TIP3   OH247147   5.729   5.738   4.797
15757TIP3    H147148   5.721   5.739   4.895
15757TIP3    H247149   5.652   5.793   4.772
15758TIP3   OH247150   5.268   5.791   5.672
15758TIP3    H147151   5.351   5.816   5.718
15758TIP3    H247152   5.298   5.754   5.587
15759TIP3   OH247153   5.258   5.773   5.188
15759TIP3    H147154   5.297   5.815   5.108
15759TIP3    H247155   5.191   5.840   5.211
15760TIP3   OH247156   6.407   6.482   5.785
15760TIP3    H147157   6.437   6.410   5.725
15760TIP3    H247158   6.374   6.430   5.861
15761TIP3   OH247159   6.071   5.943   5.455
15761TIP3    H147160   5.987   5.942   5.505
15761TIP3    H247161   6.137   5.944   5.526
15762TIP3   OH247162   5.506   5.999   5.463
15762TIP3    H147163   5.411   6.007   5.437
15762TIP3    H247164   5.526   5.906   5.441
15763TIP3   OH247165   5.777   5.995   5.151
15763TIP3    H147166   5.870   6.012   5.129
15763TIP3    H247167   5.729   6.019   5.068
15764TIP3   OH247168   6.565   6.019   5.659
15764TIP3    H147169   6.526   6.031   5.748
15764TIP3    H247170   6.500   5.957   5.619
15765TIP3   OH247171   5.618   6.028   4.932
15765TIP3    H147172   5.543   5.985   4.886
15765TIP3    H247173   5.667   6.064   4.855
15766TIP3   OH247174   6.733   7.707   5.874
15766TIP3    H147175   6.729   7.731   5.780
15766TIP3    H247176   6.809   7.760   5.905
15767TIP3   OH247177   5.690   6.817   6.298
15767TIP3    H147178   5.770   6.849   6.345
15767TIP3    H247179   5.625   6.818   6.370
15768TIP3   OH247180   6.155   6.271   5.552
15768TIP3    H147181   6.227   6.232   5.500
15768TIP3    H247182   6.166   6.228   5.639
15769TIP3   OH247183   5.682   5.758   5.431
15769TIP3    H147184   5.643   5.681   5.476
15769TIP3    H247185   5.728   5.718   5.356
15770TIP3   OH247186   6.132   6.166   5.843
15770TIP3    H147187   6.041   6.202   5.855
15770TIP3    H247188   6.188   6.229   5.893
15771TIP3   OH247189   5.869   6.559   4.937
15771TIP3    H147190   5.796   6.494   4.926
15771TIP3    H247191   5.850   6.593   5.028
15772TIP3   OH247192   6.769   6.795   5.567
15772TIP3    H147193   6.792   6.844   5.486
15772TIP3    H247194   6.683   6.753   5.542
15773TIP3   OH247195   6.323   5.880   4.782
15773TIP3    H147196   6.229   5.857   4.794
15773TIP3    H247197   6.332   5.970   4.819
15774TIP3   OH247198   6.271   6.879   5.934
15774TIP3    H147199   6.286   6.856   6.026
15774TIP3    H247200   6.229   6.967   5.939
15775TIP3   OH247201   6.395   6.118   4.904
15775TIP3    H147202   6.491   6.122   4.918
15775TIP3    H247203   6.377   6.198   4.850
15776TIP3   OH247204   5.562   6.583   5.614
15776TIP3    H147205   5.598   6.554   5.527
15776TIP3    H247206   5.597   6.515   5.674
15777TIP3   OH247207   6.013   6.709   4.758
15777TIP3    H147208   5.966   6.795   4.763
15777TIP3    H247209   5.959   6.654   4.818
15778TIP3   OH247210   5.440   6.501   6.226
15778TIP3    H147211   5.459   6.486   6.320
15778TIP3    H247212   5.370   6.435   6.208
15779TIP3   OH247213   6.165   6.615   6.247
15779TIP3    H147214   6.104   6.557   6.197
15779TIP3    H247215   6.252   6.581   6.216
15780TIP3   OH247216   6.430   7.135   5.830
15780TIP3    H147217   6.333   7.134   5.841
15780TIP3    H247218   6.456   7.189   5.908
15781TIP3   OH247219   6.840   6.206   4.736
15781TIP3    H147220   6.779   6.158   4.676
15781TIP3    H247221   6.834   6.295   4.695
15782TIP3   OH247222   7.057   7.066   5.819
15782TIP3    H147223   6.959   7.061   5.811
15782TIP3    H247224   7.083   7.036   5.729
15783TIP3   OH247225   6.540   7.027   4.647
15783TIP3    H147226   6.512   6.957   4.707
15783TIP3    H247227   6.551   6.981   4.561
15784TIP3   OH247228   6.535   6.656   5.488
15784TIP3    H147229   6.441   6.631   5.500
15784TIP3    H247230   6.568   6.577   5.441
15785TIP3   OH247231   5.661   6.885   5.238
15785TIP3    H147232   5.662   6.966   5.184
15785TIP3    H247233   5.566   6.869   5.246
15786TIP3   OH247234   5.224   6.190   4.941
15786TIP3    H147235   5.270   6.274   4.961
15786TIP3    H247236   5.147   6.195   5.001
15787TIP3   OH247237   5.801   6.651   5.183
15787TIP3    H147238   5.766   6.741   5.200
15787TIP3    H247239   5.763   6.601   5.257
15788TIP3   OH247240   5.930   7.229   5.707
15788TIP3    H147241   5.969   7.302   5.655
15788TIP3    H247242   6.008   7.196   5.754
15789TIP3   OH247243   5.582   7.122   5.091
15789TIP3    H147244   5.496   7.132   5.135
15789TIP3    H247245   5.615   7.215   5.093
15790TIP3   OH247246   6.319   6.862   5.665
15790TIP3    H147247   6.311   6.861   5.763
15790TIP3    H247248   6.399   6.808   5.651
15791TIP3   OH247249   6.292   6.754   4.548
15791TIP3    H147250   6.345   6.730   4.627
15791TIP3    H247251   6.203   6.729   4.577
15792TIP3   OH247252   6.568   7.397   5.715
15792TIP3    H147253   6.488   7.342   5.707
15792TIP3    H247254   6.553   7.462   5.643
15793TIP3   OH247255   6.633   7.231   4.368
15793TIP3    H147256   6.670   7.302   4.314
15793TIP3    H247257   6.553   7.277   4.401
15794TIP3   OH247258   5.652   6.008   6.235
15794TIP3    H147259   5.555   6.012   6.246
15794TIP3    H247260   5.678   5.945   6.304
15795TIP3   OH247261   6.452   6.690   4.765
15795TIP3    H147262   6.443   6.623   4.836
15795TIP3    H247263   6.549   6.688   4.752
15796TIP3   OH247264   5.368   7.092   5.866
15796TIP3    H147265   5.421   7.017   5.897
15796TIP3    H247266   5.399   7.162   5.926
15797TIP3   OH247267   5.660   6.736   4.547
15797TIP3    H147268   5.673   6.644   4.518
15797TIP3    H247269   5.641   6.724   4.642
15798TIP3   OH247270   5.606   6.741   4.820
15798TIP3    H147271   5.676   6.715   4.880
15798TIP3    H247272   5.609   6.839   4.826
15799TIP3   OH247273   5.342   6.436   5.023
15799TIP3    H147274   5.275   6.480   5.080
15799TIP3    H247275   5.355   6.505   4.956
15800TIP3   OH247276   6.487   6.074   5.918
15800TIP3    H147277   6.570   6.107   5.955
15800TIP3    H247278   6.472   5.992   5.969
15801TIP3   OH247279   6.359   5.828   5.074
15801TIP3    H147280   6.355   5.848   4.979
15801TIP3    H247281   6.404   5.907   5.110
15802TIP3   OH247282   5.871   6.939   4.769
15802TIP3    H147283   5.784   6.966   4.804
15802TIP3    H247284   5.887   7.011   4.706
15803TIP3   OH247285   6.059   6.001   5.181
15803TIP3    H147286   6.125   6.072   5.163
15803TIP3    H247287   6.064   5.995   5.279
15804TIP3   OH247288   6.327   6.322   5.990
15804TIP3    H147289   6.347   6.375   6.069
15804TIP3    H247290   6.382   6.242   6.002
15805TIP3   OH247291   6.205   5.731   5.285
15805TIP3    H147292   6.195   5.809   5.343
15805TIP3    H247293   6.262   5.768   5.214
15806TIP3   OH247294   5.613   7.014   4.836
15806TIP3    H147295   5.583   7.083   4.772
15806TIP3    H247296   5.597   7.058   4.922
15807TIP3   OH247297   5.717   5.728   5.073
15807TIP3    H147298   5.711   5.818   5.110
15807TIP3    H247299   5.813   5.711   5.084
15808TIP3   OH247300   6.972   6.220   5.971
15808TIP3    H147301   6.874   6.220   5.979
15808TIP3    H247302   6.980   6.181   5.882
15809TIP3   OH247303   6.620   6.415   5.359
15809TIP3    H147304   6.543   6.356   5.370
15809TIP3    H247305   6.691   6.367   5.407
15810TIP3   OH247306   5.331   6.645   4.829
15810TIP3    H147307   5.395   6.718   4.838
15810TIP3    H247308   5.377   6.591   4.761
15811TIP3   OH247309   5.279   5.921   4.959
15811TIP3    H147310   5.274   6.019   4.956
15811TIP3    H247311   5.193   5.896   4.923
15812TIP3   OH247312   6.588   7.370   5.309
15812TIP3    H147313   6.545   7.417   5.234
15812TIP3    H247314   6.682   7.389   5.287
15813TIP3   OH247315   5.665   5.640   5.836
15813TIP3    H147316   5.633   5.607   5.749
15813TIP3    H247317   5.653   5.562   5.893
15814TIP3   OH247318   5.204   6.857   5.218
15814TIP3    H147319   5.131   6.889   5.272
15814TIP3    H247320   5.181   6.897   5.131
15815TIP3   OH247321   5.358   7.398   6.289
15815TIP3    H147322   5.445   7.397   6.335
15815TIP3    H247323   5.338   7.303   6.286
15816TIP3   OH247324   5.842   7.365   6.334
15816TIP3    H147325   5.937   7.346   6.338
15816TIP3    H247326   5.816   7.307   6.259
15817TIP3   OH247327   5.823   6.941   4.461
15817TIP3    H147328   5.767   6.869   4.499
15817TIP3    H247329   5.898   6.888   4.427
15818TIP3   OH247330   6.480   7.271   6.065
15818TIP3    H147331   6.472   7.201   6.134
15818TIP3    H247332   6.557   7.322   6.097
15819TIP3   OH247333   6.259   6.982   4.371
15819TIP3    H147334   6.305   6.918   4.429
15819TIP3    H247335   6.315   6.982   4.291
15820TIP3   OH247336   5.490   6.805   6.489
15820TIP3    H147337   5.507   6.709   6.491
15820TIP3    H247338   5.402   6.809   6.444
15821TIP3   OH247339   5.467   6.458   4.680
15821TIP3    H147340   5.521   6.425   4.753
15821TIP3    H247341   5.534   6.463   4.609
15822TIP3   OH247342   6.098   6.891   6.261
15822TIP3    H147343   6.055   6.908   6.175
15822TIP3    H247344   6.127   6.797   6.253
15823TIP3   OH247345   5.976   6.655   4.488
15823TIP3    H147346   5.978   6.668   4.585
15823TIP3    H247347   5.975   6.557   4.483
15824TIP3   OH247348   6.592   6.897   5.869
15824TIP3    H147349   6.664   6.944   5.823
15824TIP3    H247350   6.519   6.961   5.856
15825TIP3   OH247351   5.608   6.540   6.470
15825TIP3    H147352   5.682   6.483   6.448
15825TIP3    H247353   5.634   6.573   6.559
15826TIP3   OH247354   5.678   6.360   4.905
15826TIP3    H147355   5.648   6.318   4.987
15826TIP3    H247356   5.712   6.283   4.854
15827TIP3   OH247357   5.946   6.427   6.134
15827TIP3    H147358   5.866   6.484   6.135
15827TIP3    H247359   5.993   6.459   6.054
15828TIP3   OH247360   5.775   6.151   4.744
15828TIP3    H147361   5.749   6.157   4.650
15828TIP3    H247362   5.873   6.160   4.736
15829TIP3   OH247363   6.461   6.828   6.267
15829TIP3    H147364   6.538   6.803   6.215
15829TIP3    H247365   6.458   6.758   6.335
15830TIP3   OH247366   6.600   6.485   4.405
15830TIP3    H147367   6.577   6.439   4.322
15830TIP3    H247368   6.567   6.576   4.382
15831TIP3   OH247369   6.069   6.213   6.257
15831TIP3    H147370   6.067   6.133   6.201
15831TIP3    H247371   6.025   6.279   6.200
15832TIP3   OH247372   6.070   5.999   6.065
15832TIP3    H147373   6.097   6.040   5.981
15832TIP3    H247374   5.976   5.976   6.047
15833TIP3   OH247375   6.099   6.537   5.939
15833TIP3    H147376   6.180   6.544   5.887
15833TIP3    H247377   6.041   6.603   5.895
15834TIP3   OH247378   6.684   6.503   6.324
15834TIP3    H147379   6.730   6.418   6.320
15834TIP3    H247380   6.748   6.563   6.284
15835TIP3   OH247381   6.721   6.755   6.058
15835TIP3    H147382   6.663   6.808   5.998
15835TIP3    H247383   6.808   6.775   6.017
15836TIP3   OH247384   5.947   6.325   6.489
15836TIP3    H147385   5.878   6.257   6.502
15836TIP3    H247386   5.980   6.302   6.400
15837TIP3   OH247387   6.202   5.764   6.132
15837TIP3    H147388   6.153   5.845   6.109
15837TIP3    H247389   6.133   5.695   6.119
15838TIP3   OH247390   6.328   6.267   6.348
15838TIP3    H147391   6.312   6.256   6.443
15838TIP3    H247392   6.239   6.243   6.314
15839TIP3   OH247393   6.569   6.220   6.205
15839TIP3    H147394   6.491   6.220   6.264
15839TIP3    H247395   6.640   6.185   6.263
15840TIP3   OH247396   6.804   6.159   6.357
15840TIP3    H147397   6.811   6.063   6.374
15840TIP3    H247398   6.795   6.196   6.447
15841TIP3   OH247399   5.785   6.106   6.540
15841TIP3    H147400   5.789   6.015   6.504
15841TIP3    H247401   5.820   6.092   6.630
15842TIP3   OH247402   6.299   5.773   6.388
15842TIP3    H147403   6.364   5.701   6.381
15842TIP3    H247404   6.257   5.768   6.300
15843TIP3   OH247405   6.363   5.988   6.548
15843TIP3    H147406   6.341   5.917   6.483
15843TIP3    H247407   6.285   6.047   6.541
15844TIP3   OH247408   5.582   7.215   4.647
15844TIP3    H147409   5.678   7.213   4.629
15844TIP3    H247410   5.552   7.265   4.569
15845TIP3   OH247411   5.063   6.598   4.866
15845TIP3    H147412   5.157   6.620   4.851
15845TIP3    H247413   5.057   6.509   4.824
15846TIP3   OH247414   4.977   7.210   5.277
15846TIP3    H147415   4.909   7.148   5.242
15846TIP3    H247416   5.021   7.153   5.344
15847TIP3   OH247417   5.114   7.063   5.464
15847TIP3    H147418   5.101   6.989   5.526
15847TIP3    H247419   5.164   7.124   5.520
15848TIP3   OH247420   6.842   7.459   5.265
15848TIP3    H147421   6.866   7.498   5.350
15848TIP3    H247422   6.898   7.508   5.203
15849TIP3   OH247423   6.870   7.483   5.547
15849TIP3    H147424   6.826   7.396   5.541
15849TIP3    H247425   6.944   7.460   5.605
15850TIP3   OH247426   6.918   7.158   6.121
15850TIP3    H147427   6.843   7.167   6.183
15850TIP3    H247428   6.957   7.247   6.124
15851TIP3   OH247429   6.732   6.672   4.739
15851TIP3    H147430   6.800   6.736   4.711
15851TIP3    H247431   6.776   6.633   4.819
15852TIP3   OH247432   6.860   6.540   4.943
15852TIP3    H147433   6.794   6.497   5.002
15852TIP3    H247434   6.923   6.579   5.007
15853TIP3   OH247435   6.915   6.931   5.378
15853TIP3    H147436   6.966   6.867   5.325
15853TIP3    H247437   6.906   7.006   5.316
15854TIP3   OH247438   6.746   7.232   5.572
15854TIP3    H147439   6.674   7.275   5.622
15854TIP3    H247440   6.697   7.185   5.502
15855TIP3   OH247441   6.797   6.446   4.590
15855TIP3    H147442   6.727   6.451   4.522
15855TIP3    H247443   6.771   6.522   4.646
15856TIP3   OH247444   6.673   6.105   4.542
15856TIP3    H147445   6.630   6.159   4.475
15856TIP3    H247446   6.634   6.018   4.526
15857TIP3   OH247447   6.675   6.396   5.090
15857TIP3    H147448   6.681   6.299   5.083
15857TIP3    H247449   6.661   6.409   5.186
15858TIP3   OH247450   5.301   6.468   5.838
15858TIP3    H147451   5.299   6.439   5.744
15858TIP3    H247452   5.398   6.471   5.853
15859TIP3   OH247453   6.963   6.821   5.948
15859TIP3    H147454   7.036   6.756   5.938
15859TIP3    H247455   6.987   6.889   5.883
15860TIP3   OH247456   7.149   6.627   5.967
15860TIP3    H147457   7.074   6.577   6.005
15860TIP3    H247458   7.221   6.562   5.981
15861TIP3   OH247459   6.670   6.113   4.986
15861TIP3    H147460   6.709   6.024   5.003
15861TIP3    H247461   6.729   6.143   4.915
15862TIP3   OH247462   6.834   6.287   5.481
15862TIP3    H147463   6.919   6.313   5.440
15862TIP3    H247464   6.847   6.324   5.570
15863TIP3   OH247465   6.902   6.431   5.714
15863TIP3    H147466   6.822   6.465   5.760
15863TIP3    H247467   6.933   6.511   5.667
15864TIP3   OH247468   5.518   6.159   6.516
15864TIP3    H147469   5.616   6.150   6.513
15864TIP3    H247470   5.494   6.072   6.554
15865TIP3   OH247471   7.357   6.023   6.270
15865TIP3    H147472   7.412   5.956   6.225
15865TIP3    H247473   7.325   6.076   6.194
15866TIP3   OH247474   6.775   5.865   5.028
15866TIP3    H147475   6.825   5.845   5.109
15866TIP3    H247476   6.719   5.785   5.020
15867TIP3   OH247477   5.481   5.848   5.845
15867TIP3    H147478   5.543   5.773   5.852
15867TIP3    H247479   5.543   5.923   5.837
15868TIP3   OH247480   5.284   6.123   5.917
15868TIP3    H147481   5.331   6.112   5.832
15868TIP3    H247482   5.313   6.211   5.943
15869TIP3   OH247483   7.223   6.160   6.077
15869TIP3    H147484   7.135   6.201   6.091
15869TIP3    H247485   7.197   6.089   6.015
15870TIP3   OH247486   6.896   5.775   4.662
15870TIP3    H147487   6.841   5.735   4.592
15870TIP3    H247488   6.927   5.858   4.624
15871TIP3   OH247489   5.263   5.642   5.428
15871TIP3    H147490   5.169   5.620   5.439
15871TIP3    H247491   5.263   5.688   5.341
15872TIP3   OH247492   6.426   7.327   4.923
15872TIP3    H147493   6.475   7.313   4.839
15872TIP3    H247494   6.478   7.398   4.965
15873TIP3   OH247495   5.487   5.707   6.232
15873TIP3    H147496   5.434   5.700   6.313
15873TIP3    H247497   5.420   5.745   6.171
15874TIP3   OH247498   5.526   7.131   6.308
15874TIP3    H147499   5.434   7.104   6.289
15874TIP3    H247500   5.533   7.115   6.403
15875TIP3   OH247501   5.703   7.165   5.856
15875TIP3    H147502   5.654   7.240   5.816
15875TIP3    H247503   5.789   7.179   5.811
15876TIP3   OH247504   6.149   7.409   5.993
15876TIP3    H147505   6.191   7.412   6.082
15876TIP3    H247506   6.215   7.460   5.941
15877TIP3   OH247507   6.328   7.560   5.852
15877TIP3    H147508   6.398   7.511   5.808
15877TIP3    H247509   6.379   7.618   5.912
15878TIP3   OH247510   7.121   5.924   5.953
15878TIP3    H147511   7.031   5.920   5.917
15878TIP3    H247512   7.151   5.831   5.940
15879TIP3   OH247513   5.380   7.421   5.880
15879TIP3    H147514   5.292   7.455   5.853
15879TIP3    H247515   5.387   7.459   5.968
15880TIP3   OH247516   5.617   7.400   5.736
15880TIP3    H147517   5.530   7.414   5.781
15880TIP3    H247518   5.597   7.434   5.646
15881TIP3   OH247519   6.043   7.430   5.534
15881TIP3    H147520   5.973   7.449   5.468
15881TIP3    H247521   6.055   7.518   5.575
15882TIP3   OH247522   6.311   7.370   5.586
15882TIP3    H147523   6.216   7.386   5.567
15882TIP3    H247524   6.352   7.446   5.542
15883TIP3   OH247525   6.521   7.563   5.501
15883TIP3    H147526   6.505   7.647   5.454
15883TIP3    H247527   6.544   7.502   5.427
15884TIP3   OH247528   5.291   7.216   5.623
15884TIP3    H147529   5.318   7.191   5.714
15884TIP3    H247530   5.363   7.173   5.573
15885TIP3   OH247531   5.484   7.087   5.480
15885TIP3    H147532   5.501   7.004   5.529
15885TIP3    H247533   5.574   7.125   5.474
15886TIP3   OH247534   5.750   7.182   5.482
15886TIP3    H147535   5.782   7.091   5.470
15886TIP3    H247536   5.793   7.204   5.567
15887TIP3   OH247537   6.329   5.840   5.573
15887TIP3    H147538   6.284   5.770   5.624
15887TIP3    H247539   6.398   5.790   5.526
15888TIP3   OH247540   6.852   5.725   5.482
15888TIP3    H147541   6.888   5.772   5.404
15888TIP3    H247542   6.756   5.736   5.470
15889TIP3   OH247543   6.947   5.818   5.243
15889TIP3    H147544   7.019   5.769   5.198
15889TIP3    H247545   6.977   5.910   5.226
15890TIP3   OH247546   5.577   5.549   5.588
15890TIP3    H147547   5.484   5.517   5.587
15890TIP3    H247548   5.624   5.463   5.583
15891TIP3   OH247549   5.380   5.414   5.234
15891TIP3    H147550   5.388   5.477   5.161
15891TIP3    H247551   5.327   5.465   5.298
15892TIP3   OH247552   6.020   5.579   5.466
15892TIP3    H147553   6.079   5.630   5.409
15892TIP3    H247554   6.036   5.619   5.552
15893TIP3   OH247555   6.571   5.726   5.450
15893TIP3    H147556   6.564   5.691   5.360
15893TIP3    H247557   6.555   5.645   5.504
15894TIP3   OH247558   6.596   5.650   5.021
15894TIP3    H147559   6.505   5.684   5.013
15894TIP3    H247560   6.582   5.569   5.073
15895TIP3   OH247561   5.080   6.987   5.016
15895TIP3    H147562   4.995   6.954   4.981
15895TIP3    H247563   5.069   7.082   5.000
15896TIP3   OH247564   5.476   5.586   4.994
15896TIP3    H147565   5.529   5.519   4.948
15896TIP3    H247566   5.545   5.639   5.038
15897TIP3   OH247567   5.995   5.751   5.096
15897TIP3    H147568   6.054   5.705   5.159
15897TIP3    H247569   6.014   5.844   5.122
15898TIP3   OH247570   5.851   7.178   4.597
15898TIP3    H147571   5.940   7.200   4.561
15898TIP3    H247572   5.829   7.103   4.537
15899TIP3   OH247573   6.570   7.295   4.690
15899TIP3    H147574   6.562   7.197   4.676
15899TIP3    H247575   6.525   7.328   4.609
15900TIP3   OH247576   5.783   5.831   6.481
15900TIP3    H147577   5.749   5.758   6.536
15900TIP3    H247578   5.878   5.830   6.507
15901TIP3   OH247579   6.033   5.827   6.599
15901TIP3    H147580   6.116   5.798   6.558
15901TIP3    H247581   6.019   5.757   6.666
15902TIP3   OH247582   5.155   7.014   4.654
15902TIP3    H147583   5.155   7.041   4.747
15902TIP3    H247584   5.244   6.973   4.643
15903TIP3   OH247585   6.858   5.887   6.385
15903TIP3    H147586   6.877   5.855   6.476
15903TIP3    H247587   6.945   5.881   6.342
15904TIP3   OH247588   6.798   7.439   5.877
15904TIP3    H147589   6.719   7.407   5.829
15904TIP3    H247590   6.778   7.535   5.880
15905TIP3   OH247591   8.060   6.804   4.651
15905TIP3    H147592   8.038   6.898   4.633
15905TIP3    H247593   7.982   6.762   4.610
15906TIP3   OH247594   8.059   6.806   5.038
15906TIP3    H147595   8.103   6.748   5.102
15906TIP3    H247596   8.022   6.742   4.976
15907TIP3   OH247597   7.362   6.708   5.391
15907TIP3    H147598   7.393   6.640   5.453
15907TIP3    H247599   7.443   6.759   5.376
15908TIP3   OH247600   8.293   7.102   4.703
15908TIP3    H147601   8.302   7.047   4.782
15908TIP3    H247602   8.344   7.181   4.727
15909TIP3   OH247603   7.337   7.117   5.119
15909TIP3    H147604   7.324   7.019   5.120
15909TIP3    H247605   7.433   7.122   5.106
15910TIP3   OH247606   7.040   6.322   4.901
15910TIP3    H147607   6.988   6.404   4.914
15910TIP3    H247608   6.972   6.263   4.864
15911TIP3   OH247609   7.100   6.608   5.072
15911TIP3    H147610   7.148   6.530   5.108
15911TIP3    H247611   7.155   6.633   4.997
15912TIP3   OH247612   7.944   7.569   4.722
15912TIP3    H147613   7.994   7.505   4.667
15912TIP3    H247614   7.958   7.536   4.811
15913TIP3   OH247615   7.862   7.039   5.079
15913TIP3    H147616   7.894   6.959   5.033
15913TIP3    H247617   7.949   7.081   5.095
15914TIP3   OH247618   8.874   6.357   5.069
15914TIP3    H147619   8.900   6.440   5.114
15914TIP3    H247620   8.895   6.380   4.976
15915TIP3   OH247621   8.248   6.537   5.099
15915TIP3    H147622   8.306   6.467   5.132
15915TIP3    H247623   8.237   6.512   5.005
15916TIP3   OH247624   7.609   6.198   5.072
15916TIP3    H147625   7.590   6.271   5.009
15916TIP3    H247626   7.562   6.125   5.027
15917TIP3   OH247627   8.306   6.285   4.693
15917TIP3    H147628   8.378   6.271   4.759
15917TIP3    H247629   8.357   6.324   4.620
15918TIP3   OH247630   7.244   6.400   5.178
15918TIP3    H147631   7.327   6.379   5.224
15918TIP3    H247632   7.255   6.344   5.098
15919TIP3   OH247633   7.686   6.597   4.973
15919TIP3    H147634   7.779   6.570   4.984
15919TIP3    H247635   7.646   6.514   4.939
15920TIP3   OH247636   8.942   6.561   5.245
15920TIP3    H147637   8.863   6.614   5.220
15920TIP3    H247638   8.962   6.598   5.332
15921TIP3   OH247639   7.606   6.181   5.506
15921TIP3    H147640   7.547   6.218   5.437
15921TIP3    H247641   7.554   6.201   5.586
15922TIP3   OH247642   7.939   7.018   4.521
15922TIP3    H147643   7.912   7.015   4.428
15922TIP3    H247644   7.914   7.109   4.545
15923TIP3   OH247645   7.720   6.955   5.302
15923TIP3    H147646   7.652   7.018   5.335
15923TIP3    H247647   7.755   7.002   5.224
15924TIP3   OH247648   8.518   6.287   4.867
15924TIP3    H147649   8.494   6.254   4.955
15924TIP3    H247650   8.570   6.367   4.889
15925TIP3   OH247651   7.478   6.296   5.290
15925TIP3    H147652   7.540   6.369   5.312
15925TIP3    H247653   7.526   6.255   5.214
15926TIP3   OH247654   7.542   7.148   5.398
15926TIP3    H147655   7.507   7.229   5.356
15926TIP3    H247656   7.466   7.128   5.457
15927TIP3   OH247657   6.937   6.840   4.634
15927TIP3    H147658   6.895   6.866   4.550
15927TIP3    H247659   6.966   6.926   4.670
15928TIP3   OH247660   8.369   7.356   4.888
15928TIP3    H147661   8.272   7.351   4.895
15928TIP3    H247662   8.381   7.417   4.813
15929TIP3   OH247663   8.669   6.251   5.235
15929TIP3    H147664   8.581   6.286   5.211
15929TIP3    H247665   8.726   6.289   5.164
15930TIP3   OH247666   7.966   5.901   5.220
15930TIP3    H147667   7.950   5.806   5.235
15930TIP3    H247668   7.888   5.939   5.265
15931TIP3   OH247669   8.089   7.415   4.546
15931TIP3    H147670   8.113   7.326   4.512
15931TIP3    H247671   8.179   7.455   4.540
15932TIP3   OH247672   8.185   7.181   4.428
15932TIP3    H147673   8.186   7.087   4.407
15932TIP3    H247674   8.254   7.186   4.496
15933TIP3   OH247675   8.610   7.268   5.220
15933TIP3    H147676   8.600   7.191   5.159
15933TIP3    H247677   8.591   7.343   5.159
15934TIP3   OH247678   7.891   6.660   4.473
15934TIP3    H147679   7.813   6.716   4.453
15934TIP3    H247680   7.940   6.664   4.389
15935TIP3   OH247681   7.853   6.446   4.191
15935TIP3    H147682   7.918   6.498   4.242
15935TIP3    H247683   7.913   6.385   4.144
15936TIP3   OH247684   8.795   6.896   5.058
15936TIP3    H147685   8.720   6.958   5.066
15936TIP3    H247686   8.832   6.928   4.973
15937TIP3   OH247687   8.238   6.743   4.449
15937TIP3    H147688   8.186   6.770   4.528
15937TIP3    H247689   8.324   6.720   4.491
15938TIP3   OH247690   7.472   6.743   4.864
15938TIP3    H147691   7.431   6.686   4.796
15938TIP3    H247692   7.550   6.690   4.891
15939TIP3   OH247693   7.605   7.152   5.016
15939TIP3    H147694   7.579   7.121   4.928
15939TIP3    H247695   7.696   7.116   5.025
15940TIP3   OH247696   7.609   6.714   5.218
15940TIP3    H147697   7.641   6.691   5.129
15940TIP3    H247698   7.655   6.799   5.237
15941TIP3   OH247699   8.107   7.353   4.988
15941TIP3    H147700   8.123   7.438   5.033
15941TIP3    H247701   8.121   7.285   5.056
15942TIP3   OH247702   7.748   7.294   5.504
15942TIP3    H147703   7.695   7.347   5.569
15942TIP3    H247704   7.678   7.231   5.478
15943TIP3   OH247705   8.083   6.602   4.272
15943TIP3    H147706   8.141   6.662   4.325
15943TIP3    H247707   8.109   6.628   4.180
15944TIP3   OH247708   7.502   6.829   5.643
15944TIP3    H147709   7.504   6.915   5.689
15944TIP3    H247710   7.406   6.809   5.648
15945TIP3   OH247711   7.824   7.292   4.548
15945TIP3    H147712   7.907   7.343   4.557
15945TIP3    H247713   7.767   7.357   4.504
15946TIP3   OH247714   7.544   7.437   5.629
15946TIP3    H147715   7.504   7.435   5.540
15946TIP3    H247716   7.466   7.416   5.686
15947TIP3   OH247717   8.598   5.844   4.322
15947TIP3    H147718   8.517   5.867   4.371
15947TIP3    H247719   8.612   5.927   4.271
15948TIP3   OH247720   7.340   6.586   4.668
15948TIP3    H147721   7.275   6.632   4.611
15948TIP3    H247722   7.296   6.501   4.681
15949TIP3   OH247723   8.394   7.215   3.864
15949TIP3    H147724   8.406   7.312   3.854
15949TIP3    H247725   8.487   7.184   3.859
15950TIP3   OH247726   7.121   6.971   5.574
15950TIP3    H147727   7.054   6.950   5.505
15950TIP3    H247728   7.156   6.882   5.597
15951TIP3   OH247729   6.974   7.161   5.212
15951TIP3    H147730   7.069   7.161   5.198
15951TIP3    H247731   6.960   7.245   5.259
15952TIP3   OH247732   8.845   7.616   5.274
15952TIP3    H147733   8.840   7.518   5.269
15952TIP3    H247734   8.756   7.637   5.309
15953TIP3   OH247735   7.698   7.527   4.356
15953TIP3    H147736   7.665   7.512   4.266
15953TIP3    H247737   7.675   7.620   4.374
15954TIP3   OH247738   7.142   7.379   4.732
15954TIP3    H147739   7.189   7.369   4.817
15954TIP3    H247740   7.082   7.302   4.736
15955TIP3   OH247741   8.728   6.746   5.537
15955TIP3    H147742   8.640   6.766   5.504
15955TIP3    H247743   8.733   6.649   5.524
15956TIP3   OH247744   7.326   7.152   5.564
15956TIP3    H147745   7.374   7.135   5.648
15956TIP3    H247746   7.251   7.089   5.571
15957TIP3   OH247747   7.726   5.975   5.346
15957TIP3    H147748   7.636   5.945   5.321
15957TIP3    H247749   7.702   6.060   5.389
15958TIP3   OH247750   8.257   6.087   5.544
15958TIP3    H147751   8.326   6.065   5.610
15958TIP3    H247752   8.173   6.070   5.591
15959TIP3   OH247753   8.502   6.534   5.463
15959TIP3    H147754   8.458   6.508   5.546
15959TIP3    H247755   8.439   6.604   5.435
15960TIP3   OH247756   8.156   6.650   4.015
15960TIP3    H147757   8.125   6.626   3.926
15960TIP3    H247758   8.237   6.699   3.994
15961TIP3   OH247759   7.870   6.027   4.319
15961TIP3    H147760   7.839   6.029   4.412
15961TIP3    H247761   7.837   5.941   4.290
15962TIP3   OH247762   7.656   6.492   5.366
15962TIP3    H147763   7.605   6.514   5.447
15962TIP3    H247764   7.640   6.573   5.312
15963TIP3   OH247765   7.540   6.378   4.880
15963TIP3    H147766   7.447   6.352   4.897
15963TIP3    H247767   7.554   6.336   4.791
15964TIP3   OH247768   8.029   6.461   4.604
15964TIP3    H147769   7.976   6.535   4.565
15964TIP3    H247770   8.085   6.436   4.528
15965TIP3   OH247771   8.213   6.775   5.744
15965TIP3    H147772   8.197   6.680   5.760
15965TIP3    H247773   8.245   6.772   5.650
15966TIP3   OH247774   8.185   6.491   4.839
15966TIP3    H147775   8.128   6.523   4.767
15966TIP3    H247776   8.217   6.408   4.797
15967TIP3   OH247777   7.475   6.522   5.575
15967TIP3    H147778   7.504   6.585   5.642
15967TIP3    H247779   7.463   6.440   5.626
15968TIP3   OH247780   7.528   5.996   4.286
15968TIP3    H147781   7.517   5.998   4.384
15968TIP3    H247782   7.450   6.049   4.258
15969TIP3   OH247783   7.065   6.047   5.161
15969TIP3    H147784   7.147   6.073   5.205
15969TIP3    H247785   7.093   6.012   5.074
15970TIP3   OH247786   7.056   6.034   4.676
15970TIP3    H147787   7.094   6.074   4.595
15970TIP3    H247788   6.989   6.100   4.699
15971TIP3   OH247789   7.864   6.195   4.940
15971TIP3    H147790   7.783   6.198   4.994
15971TIP3    H247791   7.934   6.206   5.007
15972TIP3   OH247792   7.301   6.255   4.950
15972TIP3    H147793   7.207   6.264   4.923
15972TIP3    H247794   7.322   6.163   4.927
15973TIP3   OH247795   7.573   6.251   4.638
15973TIP3    H147796   7.667   6.270   4.617
15973TIP3    H247797   7.526   6.275   4.555
15974TIP3   OH247798   8.367   6.271   5.131
15974TIP3    H147799   8.339   6.285   5.225
15974TIP3    H247800   8.292   6.216   5.101
15975TIP3   OH247801   7.414   6.283   4.418
15975TIP3    H147802   7.340   6.241   4.371
15975TIP3    H247803   7.464   6.321   4.342
15976TIP3   OH247804   8.528   7.964   5.360
15976TIP3    H147805   8.523   7.989   5.265
15976TIP3    H247806   8.605   8.017   5.388
15977TIP3   OH247807   7.487   7.075   5.785
15977TIP3    H147808   7.566   7.105   5.834
15977TIP3    H247809   7.421   7.075   5.857
15978TIP3   OH247810   7.949   6.517   5.031
15978TIP3    H147811   8.029   6.496   4.980
15978TIP3    H247812   7.974   6.487   5.120
15979TIP3   OH247813   7.477   6.016   4.917
15979TIP3    H147814   7.439   5.937   4.962
15979TIP3    H247815   7.524   5.976   4.843
15980TIP3   OH247816   7.923   6.410   5.337
15980TIP3    H147817   7.836   6.455   5.341
15980TIP3    H247818   7.986   6.478   5.366
15981TIP3   OH247819   7.665   6.816   4.423
15981TIP3    H147820   7.592   6.751   4.413
15981TIP3    H247821   7.648   6.851   4.514
15982TIP3   OH247822   8.567   7.054   5.055
15982TIP3    H147823   8.595   7.101   4.972
15982TIP3    H247824   8.482   7.014   5.028
15983TIP3   OH247825   8.123   6.129   4.282
15983TIP3    H147826   8.026   6.117   4.291
15983TIP3    H247827   8.137   6.223   4.307
15984TIP3   OH247828   8.030   7.180   5.461
15984TIP3    H147829   8.054   7.087   5.468
15984TIP3    H247830   8.115   7.221   5.484
15985TIP3   OH247831   8.194   6.374   4.385
15985TIP3    H147832   8.289   6.382   4.404
15985TIP3    H247833   8.175   6.455   4.335
15986TIP3   OH247834   7.358   6.840   5.101
15986TIP3    H147835   7.393   6.811   5.014
15986TIP3    H247836   7.396   6.773   5.160
15987TIP3   OH247837   7.808   6.965   4.241
15987TIP3    H147838   7.760   7.051   4.248
15987TIP3    H247839   7.757   6.911   4.305
15988TIP3   OH247840   7.236   6.758   5.712
15988TIP3    H147841   7.254   6.742   5.807
15988TIP3    H247842   7.166   6.693   5.694
15989TIP3   OH247843   7.961   6.874   5.735
15989TIP3    H147844   7.912   6.813   5.677
15989TIP3    H247845   8.053   6.842   5.722
15990TIP3   OH247846   8.199   7.381   5.342
15990TIP3    H147847   8.176   7.452   5.280
15990TIP3    H247848   8.250   7.432   5.409
15991TIP3   OH247849   8.634   6.464   4.225
15991TIP3    H147850   8.571   6.421   4.163
15991TIP3    H247851   8.631   6.554   4.185
15992TIP3   OH247852   8.867   7.326   5.298
15992TIP3    H147853   8.771   7.312   5.282
15992TIP3    H247854   8.906   7.277   5.223
15993TIP3   OH247855   8.328   6.920   4.969
15993TIP3    H147856   8.238   6.887   4.987
15993TIP3    H247857   8.368   6.842   4.925
15994TIP3   OH247858   7.459   7.144   4.733
15994TIP3    H147859   7.464   7.223   4.676
15994TIP3    H247860   7.364   7.126   4.730
15995TIP3   OH247861   7.021   6.446   4.428
15995TIP3    H147862   7.066   6.531   4.447
15995TIP3    H247863   6.943   6.452   4.488
15996TIP3   OH247864   7.594   6.907   4.668
15996TIP3    H147865   7.564   6.998   4.688
15996TIP3    H247866   7.557   6.858   4.744
15997TIP3   OH247867   7.378   7.379   4.578
15997TIP3    H147868   7.292   7.390   4.622
15997TIP3    H247869   7.412   7.472   4.579
15998TIP3   OH247870   8.121   7.120   5.158
15998TIP3    H147871   8.140   7.107   5.252
15998TIP3    H247872   8.197   7.074   5.119
15999TIP3   OH247873   8.084   7.021   4.037
15999TIP3    H147874   8.142   6.991   4.111
15999TIP3    H247875   7.999   6.986   4.067
16000TIP3   OH247876   8.361   7.655   5.201
16000TIP3    H147877   8.277   7.616   5.171
16000TIP3    H247878   8.365   7.729   5.136
16001TIP3   OH247879   8.426   7.493   3.857
16001TIP3    H147880   8.471   7.561   3.804
16001TIP3    H247881   8.343   7.541   3.876
16002TIP3   OH247882   7.448   6.266   5.723
16002TIP3    H147883   7.351   6.269   5.732
16002TIP3    H247884   7.472   6.201   5.790
16003TIP3   OH247885   8.245   6.937   4.248
16003TIP3    H147886   8.242   6.871   4.320
16003TIP3    H247887   8.342   6.945   4.236
16004TIP3   OH247888   7.168   7.350   5.352
16004TIP3    H147889   7.215   7.272   5.386
16004TIP3    H247890   7.190   7.416   5.419
16005TIP3   OH247891   7.458   6.994   4.033
16005TIP3    H147892   7.470   6.902   4.005
16005TIP3    H247893   7.438   6.983   4.129
16006TIP3   OH247894   7.403   6.997   4.306
16006TIP3    H147895   7.474   6.972   4.366
16006TIP3    H247896   7.404   7.095   4.312
16007TIP3   OH247897   7.138   6.692   4.510
16007TIP3    H147898   7.071   6.737   4.567
16007TIP3    H247899   7.151   6.761   4.442
16008TIP3   OH247900   8.290   6.314   5.386
16008TIP3    H147901   8.322   6.387   5.441
16008TIP3    H247902   8.273   6.244   5.451
16009TIP3   OH247903   8.169   6.079   4.564
16009TIP3    H147904   8.153   6.106   4.472
16009TIP3    H247905   8.207   6.160   4.603
16010TIP3   OH247906   7.665   7.195   4.253
16010TIP3    H147907   7.581   7.221   4.296
16010TIP3    H247908   7.682   7.275   4.201
16011TIP3   OH247909   7.856   6.256   4.667
16011TIP3    H147910   7.919   6.329   4.650
16011TIP3    H247911   7.860   6.250   4.765
16012TIP3   OH247912   8.001   5.986   4.771
16012TIP3    H147913   7.994   6.061   4.834
16012TIP3    H247914   8.061   6.025   4.703
16013TIP3   OH247915   7.408   7.269   4.324
16013TIP3    H147916   7.379   7.338   4.260
16013TIP3    H247917   7.394   7.315   4.410
16014TIP3   OH247918   7.513   5.984   4.561
16014TIP3    H147919   7.506   6.074   4.597
16014TIP3    H247920   7.609   5.969   4.572
16015TIP3   OH247921   8.765   6.473   5.463
16015TIP3    H147922   8.667   6.478   5.466
16015TIP3    H247923   8.779   6.450   5.370
16016TIP3   OH247924   8.416   6.673   4.847
16016TIP3    H147925   8.341   6.614   4.862
16016TIP3    H247926   8.489   6.627   4.894
16017TIP3   OH247927   7.127   6.901   4.317
16017TIP3    H147928   7.190   6.975   4.325
16017TIP3    H247929   7.174   6.848   4.248
16018TIP3   OH247930   7.074   6.178   4.444
16018TIP3    H147931   7.072   6.276   4.442
16018TIP3    H247932   6.987   6.156   4.408
16019TIP3   OH247933   8.386   7.635   4.805
16019TIP3    H147934   8.342   7.668   4.723
16019TIP3    H247935   8.479   7.641   4.775
16020TIP3   OH247936   7.461   5.897   5.323
16020TIP3    H147937   7.429   5.865   5.236
16020TIP3    H247938   7.449   5.818   5.379
16021TIP3   OH247939   7.000   7.114   4.705
16021TIP3    H147940   6.926   7.146   4.758
16021TIP3    H247941   6.978   7.154   4.617
16022TIP3   OH247942   7.155   7.655   5.775
16022TIP3    H147943   7.241   7.653   5.822
16022TIP3    H247944   7.132   7.560   5.773
16023TIP3   OH247945   7.639   7.622   5.820
16023TIP3    H147946   7.733   7.603   5.827
16023TIP3    H247947   7.614   7.564   5.746
16024TIP3   OH247948   7.622   7.198   3.946
16024TIP3    H147949   7.564   7.130   3.987
16024TIP3    H247950   7.693   7.141   3.911
16025TIP3   OH247951   8.278   7.527   5.556
16025TIP3    H147952   8.273   7.460   5.628
16025TIP3    H247953   8.354   7.583   5.584
16026TIP3   OH247954   8.089   7.272   3.900
16026TIP3    H147955   8.100   7.179   3.925
16026TIP3    H247956   8.119   7.270   3.807
16027TIP3   OH247957   7.286   7.062   5.975
16027TIP3    H147958   7.302   6.965   5.977
16027TIP3    H247959   7.198   7.066   5.931
16028TIP3   OH247960   7.263   6.715   4.167
16028TIP3    H147961   7.318   6.683   4.240
16028TIP3    H247962   7.330   6.719   4.096
16029TIP3   OH247963   7.889   7.144   5.743
16029TIP3    H147964   7.869   7.145   5.648
16029TIP3    H247965   7.928   7.054   5.752
16030TIP3   OH247966   7.773   6.910   3.973
16030TIP3    H147967   7.773   6.925   4.070
16030TIP3    H247968   7.770   6.812   3.970
16031TIP3   OH247969   8.378   7.159   5.352
16031TIP3    H147970   8.464   7.186   5.314
16031TIP3    H247971   8.325   7.239   5.336
16032TIP3   OH247972   7.404   6.797   5.958
16032TIP3    H147973   7.479   6.742   5.933
16032TIP3    H247974   7.431   6.830   6.046
16033TIP3   OH247975   7.472   6.616   4.391
16033TIP3    H147976   7.445   6.576   4.474
16033TIP3    H247977   7.507   6.540   4.341
16034TIP3   OH247978   7.737   6.678   5.620
16034TIP3    H147979   7.662   6.741   5.621
16034TIP3    H247980   7.789   6.710   5.542
16035TIP3   OH247981   7.572   6.407   4.231
16035TIP3    H147982   7.545   6.414   4.137
16035TIP3    H247983   7.669   6.417   4.223
16036TIP3   OH247984   8.264   7.083   5.747
16036TIP3    H147985   8.337   7.059   5.688
16036TIP3    H247986   8.249   7.000   5.793
16037TIP3   OH247987   8.393   6.742   3.893
16037TIP3    H147988   8.372   6.697   3.808
16037TIP3    H247989   8.363   6.833   3.870
16038TIP3   OH247990   7.861   6.467   5.747
16038TIP3    H147991   7.863   6.388   5.690
16038TIP3    H247992   7.818   6.533   5.688
16039TIP3   OH247993   7.864   6.253   5.557
16039TIP3    H147994   7.893   6.296   5.474
16039TIP3    H247995   7.771   6.231   5.536
16040TIP3   OH247996   7.899   6.781   5.430
16040TIP3    H147997   7.990   6.787   5.397
16040TIP3    H247998   7.850   6.846   5.375
16041TIP3   OH247999   8.521   6.760   5.844
16041TIP3    H148000   8.521   6.678   5.792
16041TIP3    H248001   8.540   6.826   5.776
16042TIP3   OH248002   8.520   7.027   5.562
16042TIP3    H148003   8.454   7.032   5.490
16042TIP3    H248004   8.603   7.039   5.510
16043TIP3   OH248005   7.744   6.582   5.978
16043TIP3    H148006   7.674   6.514   5.989
16043TIP3    H248007   7.775   6.562   5.888
16044TIP3   OH248008   7.997   6.019   5.622
16044TIP3    H148009   7.949   6.102   5.598
16044TIP3    H248010   7.928   5.952   5.607
16045TIP3   OH248011   8.128   6.520   5.826
16045TIP3    H148012   8.116   6.517   5.922
16045TIP3    H248013   8.038   6.496   5.796
16046TIP3   OH248014   8.372   6.458   5.690
16046TIP3    H148015   8.291   6.474   5.741
16046TIP3    H248016   8.439   6.439   5.758
16047TIP3   OH248017   8.603   6.417   5.853
16047TIP3    H148018   8.610   6.320   5.865
16047TIP3    H248019   8.597   6.451   5.945
16048TIP3   OH248020   7.580   6.363   6.027
16048TIP3    H148021   7.585   6.274   5.988
16048TIP3    H248022   7.615   6.346   6.117
16049TIP3   OH248023   8.093   6.028   5.878
16049TIP3    H148024   8.161   5.958   5.869
16049TIP3    H248025   8.053   6.024   5.788
16050TIP3   OH248026   8.154   6.241   6.039
16050TIP3    H148027   8.136   6.172   5.972
16050TIP3    H248028   8.080   6.304   6.024
16051TIP3   OH248029   7.377   7.468   4.134
16051TIP3    H148030   7.473   7.470   4.119
16051TIP3    H248031   7.346   7.519   4.057
16052TIP3   OH248032   6.859   6.854   4.353
16052TIP3    H148033   6.954   6.876   4.339
16052TIP3    H248034   6.853   6.766   4.310
16053TIP3   OH248035   6.773   7.467   4.764
16053TIP3    H148036   6.705   7.405   4.728
16053TIP3    H248037   6.817   7.410   4.830
16054TIP3   OH248038   6.909   7.320   4.951
16054TIP3    H148039   6.896   7.246   5.011
16054TIP3    H248040   6.960   7.381   5.007
16055TIP3   OH248041   8.644   7.712   4.754
16055TIP3    H148042   8.664   7.762   4.835
16055TIP3    H248043   8.693   7.763   4.687
16056TIP3   OH248044   8.661   7.743   5.039
16056TIP3    H148045   8.625   7.654   5.022
16056TIP3    H248046   8.746   7.721   5.078
16057TIP3   OH248047   8.717   7.419   5.613
16057TIP3    H148048   8.638   7.424   5.671
16057TIP3    H248049   8.747   7.512   5.611
16058TIP3   OH248050   8.528   6.928   4.225
16058TIP3    H148051   8.595   6.994   4.199
16058TIP3    H248052   8.571   6.889   4.305
16059TIP3   OH248053   8.654   6.793   4.426
16059TIP3    H148054   8.591   6.757   4.492
16059TIP3    H248055   8.724   6.833   4.483
16060TIP3   OH248056   8.683   7.177   4.845
16060TIP3    H148057   8.766   7.132   4.825
16060TIP3    H248058   8.695   7.261   4.795
16061TIP3   OH248059   8.545   7.486   5.063
16061TIP3    H148060   8.474   7.539   5.102
16061TIP3    H248061   8.498   7.441   4.989
16062TIP3   OH248062   8.594   6.701   4.077
16062TIP3    H148063   8.522   6.708   4.010
16062TIP3    H248064   8.570   6.778   4.133
16063TIP3   OH248065   8.466   6.375   4.032
16063TIP3    H148066   8.424   6.420   3.957
16063TIP3    H248067   8.438   6.282   4.016
16064TIP3   OH248068   8.467   6.652   4.578
16064TIP3    H148069   8.481   6.557   4.577
16064TIP3    H248070   8.456   6.671   4.674
16065TIP3   OH248071   7.097   6.723   5.325
16065TIP3    H148072   7.095   6.695   5.231
16065TIP3    H248073   7.194   6.727   5.340
16066TIP3   OH248074   8.765   7.077   5.438
16066TIP3    H148075   8.839   7.014   5.426
16066TIP3    H248076   8.782   7.136   5.363
16067TIP3   OH248077   8.953   6.884   5.486
16067TIP3    H148078   8.870   6.835   5.506
16067TIP3    H248079   9.016   6.810   5.481
16068TIP3   OH248080   8.411   6.108   4.014
16068TIP3    H148081   8.487   6.082   4.071
16068TIP3    H248082   8.338   6.052   4.046
16069TIP3   OH248083   8.465   6.367   4.472
16069TIP3    H148084   8.508   6.279   4.485
16069TIP3    H248085   8.523   6.404   4.405
16070TIP3   OH248086   8.629   6.542   4.966
16070TIP3    H148087   8.715   6.569   4.927
16070TIP3    H248088   8.642   6.580   5.055
16071TIP3   OH248089   8.693   6.685   5.199
16071TIP3    H148090   8.611   6.719   5.237
16071TIP3    H248091   8.727   6.766   5.153
16072TIP3   OH248092   7.313   6.414   6.003
16072TIP3    H148093   7.411   6.406   5.999
16072TIP3    H248094   7.289   6.327   6.041
16073TIP3   OH248095   9.149   6.277   5.757
16073TIP3    H148096   9.207   6.211   5.712
16073TIP3    H248097   9.119   6.332   5.681
16074TIP3   OH248098   8.577   6.117   4.508
16074TIP3    H148099   8.625   6.104   4.593
16074TIP3    H248100   8.515   6.042   4.509
16075TIP3   OH248101   7.277   6.105   5.333
16075TIP3    H148102   7.340   6.030   5.339
16075TIP3    H248103   7.339   6.180   5.324
16076TIP3   OH248104   7.080   6.379   5.405
16076TIP3    H148105   7.127   6.369   5.319
16076TIP3    H248106   7.108   6.468   5.430
16077TIP3   OH248107   9.018   6.418   5.565
16077TIP3    H148108   8.929   6.458   5.574
16077TIP3    H248109   8.995   6.346   5.502
16078TIP3   OH248110   8.657   6.053   4.143
16078TIP3    H148111   8.699   5.983   4.090
16078TIP3    H248112   8.722   6.126   4.138
16079TIP3   OH248113   7.060   5.903   4.916
16079TIP3    H148114   6.967   5.876   4.922
16079TIP3    H248115   7.063   5.943   4.827
16080TIP3   OH248116   7.282   5.964   5.720
16080TIP3    H148117   7.229   5.958   5.800
16080TIP3    H248118   7.217   6.002   5.657
16081TIP3   OH248119   7.323   7.388   5.796
16081TIP3    H148120   7.231   7.362   5.777
16081TIP3    H248121   7.329   7.372   5.890
16082TIP3   OH248122   7.491   7.420   5.344
16082TIP3    H148123   7.429   7.488   5.312
16082TIP3    H248124   7.569   7.446   5.294
16083TIP3   OH248125   7.945   7.639   5.469
16083TIP3    H148126   7.982   7.649   5.559
16083TIP3    H248127   8.007   7.697   5.419
16084TIP3   OH248128   8.122   7.809   5.345
16084TIP3    H148129   8.194   7.776   5.290
16084TIP3    H248130   8.172   7.871   5.403
16085TIP3   OH248131   8.919   6.181   5.440
16085TIP3    H148132   8.828   6.183   5.403
16085TIP3    H248133   8.945   6.087   5.425
16086TIP3   OH248134   7.179   7.678   5.367
16086TIP3    H148135   7.092   7.711   5.337
16086TIP3    H248136   7.181   7.715   5.456
16087TIP3   OH248137   7.413   7.652   5.219
16087TIP3    H148138   7.328   7.669   5.265
16087TIP3    H248139   7.394   7.690   5.131
16088TIP3   OH248140   7.850   7.689   5.012
16088TIP3    H148141   7.778   7.707   4.949
16088TIP3    H248142   7.859   7.775   5.057
16089TIP3   OH248143   8.114   7.619   5.081
16089TIP3    H148144   8.021   7.638   5.056
16089TIP3    H248145   8.159   7.691   5.032
16090TIP3   OH248146   8.307   7.814   4.992
16090TIP3    H148147   8.296   7.900   4.945
16090TIP3    H248148   8.338   7.758   4.917
16091TIP3   OH248149   7.087   7.474   5.111
16091TIP3    H148150   7.115   7.447   5.201
16091TIP3    H248151   7.157   7.429   5.059
16092TIP3   OH248152   7.275   7.341   4.967
16092TIP3    H148153   7.296   7.258   5.016
16092TIP3    H248154   7.365   7.379   4.955
16093TIP3   OH248155   7.535   7.438   4.955
16093TIP3    H148156   7.579   7.353   4.943
16093TIP3    H248157   7.580   7.474   5.032
16094TIP3   OH248158   8.122   6.094   5.052
16094TIP3    H148159   8.080   6.027   5.108
16094TIP3    H248160   8.198   6.047   5.015
16095TIP3   OH248161   8.647   5.967   4.958
16095TIP3    H148162   8.684   6.026   4.889
16095TIP3    H248163   8.553   5.996   4.961
16096TIP3   OH248164   8.744   6.072   4.724
16096TIP3    H148165   8.820   6.027   4.683
16096TIP3    H248166   8.773   6.166   4.714
16097TIP3   OH248167   7.373   5.805   5.075
16097TIP3    H148168   7.280   5.774   5.073
16097TIP3    H248169   7.420   5.719   5.070
16098TIP3   OH248170   7.179   5.670   4.716
16098TIP3    H148171   7.189   5.736   4.645
16098TIP3    H248172   7.111   5.712   4.770
16099TIP3   OH248173   7.818   5.834   4.953
16099TIP3    H148174   7.874   5.889   4.896
16099TIP3    H248175   7.832   5.875   5.040
16100TIP3   OH248176   8.362   5.982   4.941
16100TIP3    H148177   8.357   5.950   4.850
16100TIP3    H248178   8.347   5.900   4.993
16101TIP3   OH248179   8.391   5.904   4.500
16101TIP3    H148180   8.307   5.951   4.513
16101TIP3    H248181   8.374   5.821   4.548
16102TIP3   OH248182   6.876   7.244   4.503
16102TIP3    H148183   6.791   7.211   4.468
16102TIP3    H248184   6.865   7.338   4.484
16103TIP3   OH248185   7.272   5.839   4.480
16103TIP3    H148186   7.326   5.775   4.430
16103TIP3    H248187   7.341   5.893   4.525
16104TIP3   OH248188   7.791   6.006   4.584
16104TIP3    H148189   7.852   5.964   4.648
16104TIP3    H248190   7.808   6.100   4.608
16105TIP3   OH248191   7.651   7.434   4.083
16105TIP3    H148192   7.701   7.490   4.023
16105TIP3    H248193   7.633   7.355   4.027
16106TIP3   OH248194   8.311   7.486   4.134
16106TIP3    H148195   8.402   7.474   4.165
16106TIP3    H248196   8.317   7.573   4.088
16107TIP3   OH248197   7.579   6.086   5.968
16107TIP3    H148198   7.547   6.014   6.024
16107TIP3    H248199   7.674   6.087   5.992
16108TIP3   OH248200   7.830   6.085   6.087
16108TIP3    H148201   7.912   6.059   6.041
16108TIP3    H248202   7.818   6.012   6.150
16109TIP3   OH248203   6.951   7.268   4.141
16109TIP3    H148204   6.951   7.300   4.232
16109TIP3    H248205   7.040   7.229   4.131
16110TIP3   OH248206   8.654   6.144   5.873
16110TIP3    H148207   8.677   6.110   5.962
16110TIP3    H248208   8.741   6.141   5.827
16111TIP3   OH248209   8.591   7.695   5.370
16111TIP3    H148210   8.516   7.665   5.314
16111TIP3    H248211   8.577   7.792   5.365
16112TIP3   OH248212   9.867   7.056   4.113
16112TIP3    H148213   9.850   7.152   4.105
16112TIP3    H248214   9.779   7.020   4.099
16113TIP3   OH248215   9.813   7.068   4.520
16113TIP3    H148216   9.877   7.053   4.592
16113TIP3    H248217   9.808   6.982   4.478
16114TIP3   OH248218   9.159   6.967   4.866
16114TIP3    H148219   9.207   6.915   4.932
16114TIP3    H248220   9.181   7.059   4.888
16115TIP3   OH248221   9.123   7.373   4.582
16115TIP3    H148222   9.104   7.283   4.615
16115TIP3    H248223   9.214   7.384   4.611
16116TIP3   OH248224   8.836   6.570   4.387
16116TIP3    H148225   8.799   6.658   4.407
16116TIP3    H248226   8.759   6.526   4.346
16117TIP3   OH248227   8.894   6.858   4.546
16117TIP3    H148228   8.945   6.789   4.593
16117TIP3    H248229   8.963   6.911   4.505
16118TIP3   OH248230   9.743   7.821   4.220
16118TIP3    H148231   9.785   7.739   4.190
16118TIP3    H248232   9.728   7.800   4.314
16119TIP3   OH248233   9.653   7.293   4.561
16119TIP3    H148234   9.696   7.210   4.531
16119TIP3    H248235   9.735   7.344   4.580
16120TIP3   OH248236  10.076   6.814   4.593
16120TIP3    H148237  10.076   6.719   4.612
16120TIP3    H248238  10.055   6.812   4.498
16121TIP3   OH248239   9.403   6.455   4.558
16121TIP3    H148240   9.385   6.530   4.497
16121TIP3    H248241   9.352   6.384   4.513
16122TIP3   OH248242  10.090   6.543   4.195
16122TIP3    H148243  10.161   6.513   4.253
16122TIP3    H248244  10.136   6.611   4.143
16123TIP3   OH248245   9.039   6.655   4.666
16123TIP3    H148246   9.123   6.642   4.713
16123TIP3    H248247   9.056   6.602   4.585
16124TIP3   OH248248   9.485   6.854   4.447
16124TIP3    H148249   9.578   6.828   4.467
16124TIP3    H248250   9.445   6.769   4.422
16125TIP3   OH248251   9.402   6.437   4.997
16125TIP3    H148252   9.347   6.477   4.926
16125TIP3    H248253   9.351   6.464   5.076
16126TIP3   OH248254   9.757   7.296   3.998
16126TIP3    H148255   9.706   7.269   3.920
16126TIP3    H248256   9.711   7.380   4.021
16127TIP3   OH248257   9.502   7.215   4.797
16127TIP3    H148258   9.421   7.261   4.825
16127TIP3    H248259   9.538   7.272   4.727
16128TIP3   OH248260   9.275   6.552   4.779
16128TIP3    H148261   9.334   6.627   4.801
16128TIP3    H248262   9.325   6.513   4.704
16129TIP3   OH248263   8.734   7.095   4.121
16129TIP3    H148264   8.692   7.127   4.040
16129TIP3    H248265   8.766   7.179   4.161
16130TIP3   OH248266   9.877   7.661   4.024
16130TIP3    H148267   9.947   7.599   4.048
16130TIP3    H248268   9.923   7.746   4.023
16131TIP3   OH248269   9.678   6.908   3.951
16131TIP3    H148270   9.598   6.965   3.946
16131TIP3    H248271   9.721   6.930   3.868
16132TIP3   OH248272   9.647   6.704   3.674
16132TIP3    H148273   9.703   6.744   3.742
16132TIP3    H248274   9.710   6.642   3.631
16133TIP3   OH248275   9.274   7.000   4.346
16133TIP3    H148276   9.233   6.941   4.280
16133TIP3    H248277   9.351   6.947   4.377
16134TIP3   OH248278   9.411   7.421   4.494
16134TIP3    H148279   9.379   7.365   4.421
16134TIP3    H248280   9.500   7.382   4.511
16135TIP3   OH248281   9.421   6.968   4.699
16135TIP3    H148282   9.452   6.957   4.607
16135TIP3    H248283   9.454   7.056   4.724
16136TIP3   OH248284   9.894   7.615   4.471
16136TIP3    H148285   9.924   7.692   4.522
16136TIP3    H248286   9.910   7.541   4.532
16137TIP3   OH248287   9.531   7.525   5.031
16137TIP3    H148288   9.478   7.595   5.075
16137TIP3    H248289   9.461   7.476   4.986
16138TIP3   OH248290   9.894   6.864   3.766
16138TIP3    H148291   9.929   6.929   3.829
16138TIP3    H248292   9.915   6.906   3.681
16139TIP3   OH248293   9.286   7.068   5.142
16139TIP3    H148294   9.306   7.151   5.191
16139TIP3    H248295   9.213   7.106   5.088
16140TIP3   OH248296   9.616   7.537   4.029
16140TIP3    H148297   9.688   7.595   4.059
16140TIP3    H248298   9.550   7.599   3.997
16141TIP3   OH248299   9.340   7.702   5.117
16141TIP3    H148300   9.313   7.701   5.023
16141TIP3    H248301   9.258   7.673   5.163
16142TIP3   OH248302   9.140   6.839   4.145
16142TIP3    H148303   9.072   6.888   4.094
16142TIP3    H248304   9.090   6.762   4.173
16143TIP3   OH248305   8.773   7.407   4.716
16143TIP3    H148306   8.868   7.407   4.700
16143TIP3    H248307   8.757   7.498   4.746
16144TIP3   OH248308   9.740   7.653   4.889
16144TIP3    H148309   9.740   7.747   4.918
16144TIP3    H248310   9.665   7.617   4.941
16145TIP3   OH248311   9.500   7.795   3.831
16145TIP3    H148312   9.451   7.770   3.751
16145TIP3    H248313   9.460   7.880   3.857
16146TIP3   OH248314   8.939   7.636   4.220
16146TIP3    H148315   8.991   7.628   4.303
16146TIP3    H248316   8.870   7.570   4.237
16147TIP3   OH248317   9.711   7.690   3.493
16147TIP3    H148318   9.779   7.627   3.466
16147TIP3    H248319   9.737   7.707   3.586
16148TIP3   OH248320   9.750   7.730   3.759
16148TIP3    H148321   9.659   7.747   3.793
16148TIP3    H248322   9.787   7.682   3.835
16149TIP3   OH248323   9.508   6.227   4.838
16149TIP3    H148324   9.415   6.206   4.820
16149TIP3    H248325   9.500   6.314   4.880
16150TIP3   OH248326  10.050   6.365   5.044
16150TIP3    H148327  10.064   6.309   5.120
16150TIP3    H248328   9.996   6.307   4.986
16151TIP3   OH248329   9.674   6.282   3.807
16151TIP3    H148330   9.643   6.283   3.900
16151TIP3    H248331   9.630   6.202   3.775
16152TIP3   OH248332   9.452   6.747   4.851
16152TIP3    H148333   9.400   6.771   4.931
16152TIP3    H248334   9.440   6.828   4.797
16153TIP3   OH248335   9.337   6.632   4.366
16153TIP3    H148336   9.243   6.610   4.384
16153TIP3    H248337   9.348   6.592   4.277
16154TIP3   OH248338   9.819   6.712   4.084
16154TIP3    H148339   9.767   6.788   4.051
16154TIP3    H248340   9.884   6.699   4.014
16155TIP3   OH248341  10.004   6.997   5.179
16155TIP3    H148342   9.977   6.928   5.243
16155TIP3    H248343  10.096   7.012   5.204
16156TIP3   OH248344   9.964   6.745   4.350
16156TIP3    H148345   9.937   6.801   4.275
16156TIP3    H248346   9.998   6.668   4.302
16157TIP3   OH248347   9.277   6.780   5.063
16157TIP3    H148348   9.289   6.855   5.124
16157TIP3    H248349   9.267   6.703   5.123
16158TIP3   OH248350   9.322   6.253   3.771
16158TIP3    H148351   9.315   6.255   3.869
16158TIP3    H248352   9.245   6.309   3.746
16159TIP3   OH248353   8.866   6.295   4.644
16159TIP3    H148354   8.935   6.336   4.699
16159TIP3    H248355   8.911   6.279   4.560
16160TIP3   OH248356   8.838   6.280   4.161
16160TIP3    H148357   8.884   6.321   4.084
16160TIP3    H248358   8.779   6.354   4.185
16161TIP3   OH248359   9.970   7.004   4.754
16161TIP3    H148360  10.024   6.945   4.698
16161TIP3    H248361   9.955   6.946   4.831
16162TIP3   OH248362   9.657   6.447   4.427
16162TIP3    H148363   9.576   6.455   4.482
16162TIP3    H248364   9.726   6.466   4.493
16163TIP3   OH248365   9.098   6.513   4.437
16163TIP3    H148366   9.003   6.522   4.410
16163TIP3    H248367   9.121   6.422   4.409
16164TIP3   OH248368   9.367   6.502   4.125
16164TIP3    H148369   9.461   6.524   4.110
16164TIP3    H248370   9.322   6.532   4.043
16165TIP3   OH248371  10.062   6.542   4.633
16165TIP3    H148372  10.054   6.554   4.729
16165TIP3    H248373   9.993   6.475   4.613
16166TIP3   OH248374   9.209   6.538   3.903
16166TIP3    H148375   9.135   6.498   3.854
16166TIP3    H248376   9.260   6.577   3.829
16167TIP3   OH248377   9.303   7.301   5.296
16167TIP3    H148378   9.371   7.359   5.336
16167TIP3    H248379   9.230   7.362   5.279
16168TIP3   OH248380   9.741   6.768   4.520
16168TIP3    H148381   9.824   6.749   4.472
16168TIP3    H248382   9.761   6.740   4.611
16169TIP3   OH248383   9.267   6.275   4.401
16169TIP3    H148384   9.241   6.193   4.447
16169TIP3    H248385   9.328   6.244   4.332
16170TIP3   OH248386   9.727   6.678   4.817
16170TIP3    H148387   9.636   6.711   4.826
16170TIP3    H248388   9.779   6.743   4.868
16171TIP3   OH248389   9.460   7.070   3.913
16171TIP3    H148390   9.385   7.007   3.901
16171TIP3    H248391   9.441   7.106   4.003
16172TIP3   OH248392   9.916   6.403   3.751
16172TIP3    H148393   9.826   6.377   3.785
16172TIP3    H248394   9.934   6.487   3.798
16173TIP3   OH248395   9.858   7.388   4.911
16173TIP3    H148396   9.871   7.375   5.005
16173TIP3    H248397   9.828   7.480   4.906
16174TIP3   OH248398  10.015   6.636   3.859
16174TIP3    H148399  10.100   6.672   3.887
16174TIP3    H248400   9.977   6.712   3.811
16175TIP3   OH248401   9.137   7.069   4.585
16175TIP3    H148402   9.193   7.056   4.507
16175TIP3    H248403   9.189   7.029   4.657
16176TIP3   OH248404   9.601   7.219   3.733
16176TIP3    H148405   9.557   7.307   3.738
16176TIP3    H248406   9.544   7.167   3.794
16177TIP3   OH248407   8.979   7.044   5.235
16177TIP3    H148408   9.047   7.006   5.293
16177TIP3    H248409   8.954   6.970   5.177
16178TIP3   OH248410   9.756   7.125   5.224
16178TIP3    H148411   9.694   7.073   5.171
16178TIP3    H248412   9.842   7.095   5.187
16179TIP3   OH248413  10.022   7.647   4.806
16179TIP3    H148414   9.926   7.651   4.805
16179TIP3    H248415  10.043   7.702   4.883
16180TIP3   OH248416   9.251   7.395   4.202
16180TIP3    H148417   9.248   7.479   4.154
16180TIP3    H248418   9.160   7.384   4.230
16181TIP3   OH248419   8.817   6.702   3.914
16181TIP3    H148420   8.863   6.787   3.934
16181TIP3    H248421   8.740   6.709   3.975
16182TIP3   OH248422   9.394   7.164   4.154
16182TIP3    H148423   9.356   7.253   4.171
16182TIP3    H248424   9.359   7.115   4.231
16183TIP3   OH248425   9.523   7.742   4.678
16183TIP3    H148426   9.565   7.813   4.627
16183TIP3    H248427   9.600   7.704   4.724
16184TIP3   OH248428   9.173   7.637   4.062
16184TIP3    H148429   9.087   7.643   4.109
16184TIP3    H248430   9.203   7.730   4.067
16185TIP3   OH248431   9.909   7.380   4.638
16185TIP3    H148432   9.903   7.380   4.736
16185TIP3    H248433   9.984   7.322   4.624
16186TIP3   OH248434   9.245   6.523   5.215
16186TIP3    H148435   9.148   6.524   5.221
16186TIP3    H248436   9.269   6.455   5.280
16187TIP3   OH248437   8.968   7.597   4.841
16187TIP3    H148438   9.013   7.512   4.859
16187TIP3    H248439   9.017   7.655   4.900
16188TIP3   OH248440   9.253   7.249   3.521
16188TIP3    H148441   9.264   7.156   3.492
16188TIP3    H248442   9.235   7.237   3.616
16189TIP3   OH248443   9.199   7.253   3.793
16189TIP3    H148444   9.264   7.229   3.861
16189TIP3    H248445   9.201   7.352   3.798
16190TIP3   OH248446   8.932   6.948   3.996
16190TIP3    H148447   8.867   6.993   4.055
16190TIP3    H248448   8.946   7.018   3.930
16191TIP3   OH248449  10.111   6.594   4.914
16191TIP3    H148450  10.143   6.641   4.993
16191TIP3    H248451  10.074   6.513   4.956
16192TIP3   OH248452   9.931   6.356   4.056
16192TIP3    H148453   9.958   6.362   3.964
16192TIP3    H248454   9.990   6.421   4.099
16193TIP3   OH248455   9.464   7.453   3.742
16193TIP3    H148456   9.377   7.478   3.779
16193TIP3    H248457   9.476   7.522   3.675
16194TIP3   OH248458   9.644   6.513   4.156
16194TIP3    H148459   9.712   6.582   4.137
16194TIP3    H248460   9.653   6.506   4.254
16195TIP3   OH248461   9.919   6.832   4.965
16195TIP3    H148462   9.936   6.894   5.039
16195TIP3    H248463   9.982   6.761   4.982
16196TIP3   OH248464   9.794   6.239   4.261
16196TIP3    H148465   9.784   6.316   4.320
16196TIP3    H248466   9.848   6.279   4.189
16197TIP3   OH248467   9.206   7.526   3.809
16197TIP3    H148468   9.176   7.596   3.747
16197TIP3    H248469   9.189   7.569   3.896
16198TIP3   OH248470   9.309   6.239   4.048
16198TIP3    H148471   9.304   6.331   4.082
16198TIP3    H248472   9.405   6.224   4.057
16199TIP3   OH248473   8.922   7.158   3.803
16199TIP3    H148474   8.983   7.233   3.814
16199TIP3    H248475   8.971   7.107   3.735
16200TIP3   OH248476   8.869   6.432   3.934
16200TIP3    H148477   8.872   6.530   3.931
16200TIP3    H248478   8.781   6.415   3.898
16201TIP3   OH248479   9.242   6.155   4.814
16201TIP3    H148480   9.220   6.120   4.726
16201TIP3    H248481   9.241   6.074   4.870
16202TIP3   OH248482   8.792   7.357   4.190
16202TIP3    H148483   8.742   7.396   4.263
16202TIP3    H248484   8.761   7.409   4.112
16203TIP3   OH248485   8.953   7.909   5.260
16203TIP3    H148486   9.040   7.909   5.306
16203TIP3    H248487   8.933   7.814   5.255
16204TIP3   OH248488   9.432   7.878   5.311
16204TIP3    H148489   9.528   7.873   5.306
16204TIP3    H248490   9.406   7.819   5.236
16205TIP3   OH248491   9.416   7.454   3.438
16205TIP3    H148492   9.358   7.383   3.474
16205TIP3    H248493   9.486   7.401   3.398
16206TIP3   OH248494  10.077   7.782   5.044
16206TIP3    H148495  10.058   7.709   5.107
16206TIP3    H248496  10.153   7.825   5.085
16207TIP3   OH248497   9.073   7.303   5.481
16207TIP3    H148498   9.125   7.228   5.442
16207TIP3    H248499   8.998   7.305   5.417
16208TIP3   OH248500   9.059   6.970   3.653
16208TIP3    H148501   9.115   6.941   3.727
16208TIP3    H248502   9.127   6.976   3.582
16209TIP3   OH248503   9.688   7.403   5.231
16209TIP3    H148504   9.643   7.419   5.146
16209TIP3    H248505   9.717   7.310   5.225
16210TIP3   OH248506   9.568   7.168   3.461
16210TIP3    H148507   9.578   7.186   3.557
16210TIP3    H248508   9.558   7.071   3.461
16211TIP3   OH248509   9.199   7.058   5.448
16211TIP3    H148510   9.275   7.019   5.403
16211TIP3    H248511   9.199   7.020   5.536
16212TIP3   OH248512   9.267   6.873   3.878
16212TIP3    H148513   9.238   6.837   3.964
16212TIP3    H248514   9.300   6.794   3.832
16213TIP3   OH248515   9.541   6.944   5.111
16213TIP3    H148516   9.457   6.995   5.110
16213TIP3    H248517   9.584   6.974   5.028
16214TIP3   OH248518   9.366   6.662   3.717
16214TIP3    H148519   9.337   6.669   3.623
16214TIP3    H248520   9.462   6.676   3.708
16215TIP3   OH248521  10.046   7.341   5.247
16215TIP3    H148522  10.121   7.320   5.190
16215TIP3    H248523  10.045   7.268   5.312
16216TIP3   OH248524   9.661   6.730   5.236
16216TIP3    H148525   9.661   6.650   5.178
16216TIP3    H248526   9.618   6.795   5.176
16217TIP3   OH248527   9.658   6.525   5.053
16217TIP3    H148528   9.692   6.548   4.965
16217TIP3    H248529   9.572   6.484   5.031
16218TIP3   OH248530   9.695   7.053   4.912
16218TIP3    H148531   9.773   7.058   4.855
16218TIP3    H248532   9.636   7.119   4.870
16219TIP3   OH248533  10.283   7.021   5.299
16219TIP3    H148534  10.318   6.931   5.293
16219TIP3    H248535  10.362   7.074   5.281
16220TIP3   OH248536   9.533   6.837   5.466
16220TIP3    H148537   9.470   6.763   5.470
16220TIP3    H248538   9.571   6.825   5.376
16221TIP3   OH248539   9.923   6.778   5.318
16221TIP3    H148540   9.905   6.769   5.413
16221TIP3    H248541   9.834   6.756   5.283
16222TIP3   OH248542  10.158   6.705   5.168
16222TIP3    H148543  10.077   6.723   5.220
16222TIP3    H248544  10.223   6.691   5.240
16223TIP3   OH248545  10.367   6.662   5.353
16223TIP3    H148546  10.422   6.592   5.389
16223TIP3    H248547  10.370   6.727   5.427
16224TIP3   OH248548   9.376   6.620   5.519
16224TIP3    H148549   9.383   6.533   5.474
16224TIP3    H248550   9.415   6.598   5.606
16225TIP3   OH248551   9.891   6.287   5.349
16225TIP3    H148552   9.949   6.209   5.342
16225TIP3    H248553   9.838   6.280   5.268
16226TIP3   OH248554   9.956   6.500   5.519
16226TIP3    H148555   9.932   6.434   5.450
16226TIP3    H248556   9.881   6.563   5.514
16227TIP3   OH248557   9.175   7.728   3.623
16227TIP3    H148558   9.270   7.726   3.601
16227TIP3    H248559   9.142   7.775   3.544
16228TIP3   OH248560   8.653   7.113   3.836
16228TIP3    H148561   8.748   7.135   3.826
16228TIP3    H248562   8.650   7.024   3.796
16229TIP3   OH248563   8.557   7.705   4.250
16229TIP3    H148564   8.475   7.659   4.271
16229TIP3    H248565   8.617   7.661   4.315
16230TIP3   OH248566   8.711   7.571   4.427
16230TIP3    H148567   8.643   7.522   4.477
16230TIP3    H248568   8.756   7.620   4.499
16231TIP3   OH248569   8.892   6.972   4.815
16231TIP3    H148570   8.889   6.960   4.718
16231TIP3    H248571   8.989   6.984   4.828
16232TIP3   OH248572   9.110   6.666   5.483
16232TIP3    H148573   9.207   6.656   5.481
16232TIP3    H248574   9.084   6.582   5.527
16233TIP3   OH248575   9.067   6.366   4.817
16233TIP3    H148576   9.130   6.292   4.828
16233TIP3    H248577   9.129   6.441   4.810
16234TIP3   OH248578   8.876   6.635   4.892
16234TIP3    H148579   8.927   6.633   4.808
16234TIP3    H248580   8.890   6.727   4.918
16235TIP3   OH248581   8.858   6.130   4.385
16235TIP3    H148582   8.766   6.137   4.416
16235TIP3    H248583   8.858   6.193   4.310
16236TIP3   OH248584   9.074   6.219   5.204
16236TIP3    H148585   9.023   6.217   5.287
16236TIP3    H248586   9.009   6.260   5.143
16237TIP3   OH248587   9.123   7.635   5.273
16237TIP3    H148588   9.027   7.614   5.265
16237TIP3    H248589   9.136   7.641   5.368
16238TIP3   OH248590   9.300   7.691   4.845
16238TIP3    H148591   9.251   7.758   4.795
16238TIP3    H248592   9.382   7.689   4.793
16239TIP3   OH248593   9.743   7.922   4.969
16239TIP3    H148594   9.783   7.929   5.059
16239TIP3    H248595   9.807   7.974   4.917
16240TIP3   OH248596   9.920   8.073   4.824
16240TIP3    H148597   9.966   8.011   4.765
16240TIP3    H248598   9.994   8.134   4.842
16241TIP3   OH248599   8.974   7.941   4.848
16241TIP3    H148600   8.884   7.971   4.825
16241TIP3    H248601   8.977   7.965   4.941
16242TIP3   OH248602   9.209   7.915   4.707
16242TIP3    H148603   9.123   7.927   4.754
16242TIP3    H248604   9.187   7.947   4.618
16243TIP3   OH248605   9.638   7.942   4.496
16243TIP3    H148606   9.559   7.963   4.443
16243TIP3    H248607   9.650   8.025   4.548
16244TIP3   OH248608   9.905   7.888   4.564
16244TIP3    H148609   9.812   7.899   4.539
16244TIP3    H248610   9.948   7.964   4.523
16245TIP3   OH248611   8.887   7.730   4.599
16245TIP3    H148612   8.911   7.702   4.689
16245TIP3    H248613   8.958   7.684   4.548
16246TIP3   OH248614   9.078   7.604   4.449
16246TIP3    H148615   9.090   7.517   4.494
16246TIP3    H248616   9.170   7.638   4.450
16247TIP3   OH248617   9.346   7.695   4.457
16247TIP3    H148618   9.377   7.602   4.447
16247TIP3    H248619   9.388   7.716   4.542
16248TIP3   OH248620   9.908   6.327   4.546
16248TIP3    H148621   9.888   6.270   4.623
16248TIP3    H248622   9.951   6.265   4.486
16249TIP3   OH248623   9.175   6.054   4.560
16249TIP3    H148624   9.081   6.029   4.560
16249TIP3    H248625   9.218   5.969   4.541
16250TIP3   OH248626   8.956   5.926   4.194
16250TIP3    H148627   8.983   5.992   4.127
16250TIP3    H248628   8.927   5.984   4.267
16251TIP3   OH248629   9.605   6.088   4.445
16251TIP3    H148630   9.663   6.143   4.390
16251TIP3    H248631   9.614   6.131   4.532
16252TIP3   OH248632   8.670   7.501   3.993
16252TIP3    H148633   8.590   7.473   3.946
16252TIP3    H248634   8.663   7.597   3.981
16253TIP3   OH248635   9.072   6.088   3.975
16253TIP3    H148636   9.123   6.032   3.913
16253TIP3    H248637   9.142   6.147   4.010
16254TIP3   OH248638   9.587   6.262   4.071
16254TIP3    H148639   9.650   6.222   4.133
16254TIP3    H248640   9.602   6.357   4.094
16255TIP3   OH248641   9.443   7.693   3.569
16255TIP3    H148642   9.530   7.717   3.530
16255TIP3    H248643   9.420   7.618   3.509
16256TIP3   OH248644   9.373   6.339   5.452
16256TIP3    H148645   9.342   6.268   5.512
16256TIP3    H248646   9.468   6.342   5.477
16257TIP3   OH248647   9.623   6.340   5.573
16257TIP3    H148648   9.708   6.317   5.534
16257TIP3    H248649   9.611   6.268   5.638
16258TIP3   OH248650   8.747   7.523   3.629
16258TIP3    H148651   8.751   7.557   3.719
16258TIP3    H248652   8.836   7.484   3.616
16259TIP3   OH248653   0.816   7.910   6.389
16259TIP3    H148654   0.868   7.855   6.449
16259TIP3    H248655   0.850   7.998   6.409
16260TIP3   OH248656   1.324   7.149   6.757
16260TIP3    H148657   1.358   7.229   6.801
16260TIP3    H248658   1.352   7.165   6.665
16261TIP3   OH248659   0.812   7.327   6.791
16261TIP3    H148660   0.831   7.233   6.810
16261TIP3    H248661   0.778   7.318   6.700
16262TIP3   OH248662   0.752   7.075   6.387
16262TIP3    H148663   0.828   7.059   6.448
16262TIP3    H248664   0.800   7.109   6.309
16263TIP3   OH248665   1.402   7.351   6.929
16263TIP3    H148666   1.322   7.406   6.917
16263TIP3    H248667   1.424   7.372   7.021
16264TIP3   OH248668   0.969   7.076   6.551
16264TIP3    H148669   0.951   7.036   6.637
16264TIP3    H248670   1.026   7.152   6.575
16265TIP3   OH248671   1.129   7.044   6.931
16265TIP3    H148672   1.039   7.077   6.915
16265TIP3    H248673   1.179   7.076   6.853
16266TIP3   OH248674   0.694   7.966   6.113
16266TIP3    H148675   0.619   7.906   6.101
16266TIP3    H248676   0.732   7.936   6.197
16267TIP3   OH248677   1.063   8.063   6.913
16267TIP3    H148678   1.028   7.984   6.867
16267TIP3    H248679   1.035   8.133   6.851
16268TIP3   OH248680   1.260   7.682   6.739
16268TIP3    H148681   1.179   7.739   6.746
16268TIP3    H248682   1.294   7.713   6.653
16269TIP3   OH248683   0.704   7.535   6.124
16269TIP3    H148684   0.641   7.562   6.195
16269TIP3    H248685   0.782   7.507   6.176
16270TIP3   OH248686   0.936   7.633   7.021
16270TIP3    H148687   0.883   7.675   7.091
16270TIP3    H248688   0.865   7.585   6.975
16271TIP3   OH248689   0.599   7.349   5.948
16271TIP3    H148690   0.618   7.418   6.015
16271TIP3    H248691   0.560   7.405   5.878
16272TIP3   OH248692   1.050   6.633   6.009
16272TIP3    H148693   0.969   6.653   6.061
16272TIP3    H248694   1.062   6.718   5.961
16273TIP3   OH248695   0.848   7.999   5.551
16273TIP3    H148696   0.858   8.097   5.546
16273TIP3    H248697   0.942   7.971   5.544
16274TIP3   OH248698   1.305   8.392   6.952
16274TIP3    H148699   1.301   8.297   6.971
16274TIP3    H248700   1.212   8.419   6.970
16275TIP3   OH248701   1.168   7.537   7.199
16275TIP3    H148702   1.079   7.497   7.203
16275TIP3    H248703   1.217   7.461   7.232
16276TIP3   OH248704   0.724   6.872   7.227
16276TIP3    H148705   0.798   6.842   7.284
16276TIP3    H248706   0.648   6.858   7.285
16277TIP3   OH248707   0.984   7.345   7.130
16277TIP3    H148708   0.958   7.312   7.219
16277TIP3    H248709   0.898   7.387   7.107
16278TIP3   OH248710   0.595   7.469   5.694
16278TIP3    H148711   0.585   7.424   5.607
16278TIP3    H248712   0.690   7.491   5.692
16279TIP3   OH248713   0.655   7.284   6.547
16279TIP3    H148714   0.576   7.309   6.495
16279TIP3    H248715   0.679   7.201   6.500
16280TIP3   OH248716   0.823   7.054   6.813
16280TIP3    H148717   0.825   7.056   6.912
16280TIP3    H248718   0.750   6.992   6.797
16281TIP3   OH248719   1.038   7.831   6.754
16281TIP3    H148720   1.056   7.886   6.675
16281TIP3    H248721   0.941   7.819   6.746
16282TIP3   OH248722   0.531   6.927   5.961
16282TIP3    H148723   0.454   6.978   5.990
16282TIP3    H248724   0.602   6.992   5.986
16283TIP3   OH248725   0.681   7.121   6.060
16283TIP3    H148726   0.764   7.156   6.096
16283TIP3    H248727   0.640   7.204   6.026
16284TIP3   OH248728   1.088   7.251   5.915
16284TIP3    H148729   1.025   7.208   5.852
16284TIP3    H248730   1.084   7.341   5.876
16285TIP3   OH248731   1.309   8.100   7.003
16285TIP3    H148732   1.212   8.104   6.986
16285TIP3    H248733   1.340   8.076   6.913
16286TIP3   OH248734   0.787   8.076   5.825
16286TIP3    H148735   0.760   8.017   5.898
16286TIP3    H248736   0.801   8.015   5.751
16287TIP3   OH248737   0.804   7.692   6.663
16287TIP3    H148738   0.708   7.689   6.669
16287TIP3    H248739   0.825   7.614   6.608
16288TIP3   OH248740   0.880   8.277   5.542
16288TIP3    H148741   0.931   8.349   5.500
16288TIP3    H248742   0.792   8.317   5.538
16289TIP3   OH248743   0.695   7.723   5.916
16289TIP3    H148744   0.685   7.660   5.990
16289TIP3    H248745   0.792   7.733   5.918
16290TIP3   OH248746   0.840   7.081   7.078
16290TIP3    H148747   0.851   7.161   7.132
16290TIP3    H248748   0.799   7.020   7.143
16291TIP3   OH248749   0.632   6.860   6.241
16291TIP3    H148750   0.605   6.908   6.161
16291TIP3    H248751   0.654   6.934   6.300
16292TIP3   OH248752   1.236   7.255   7.146
16292TIP3    H148753   1.141   7.277   7.143
16292TIP3    H248754   1.245   7.210   7.061
16293TIP3   OH248755   0.870   7.461   6.527
16293TIP3    H148756   0.796   7.398   6.531
16293TIP3    H248757   0.941   7.414   6.577
16294TIP3   OH248758   0.872   8.300   6.471
16294TIP3    H148759   0.783   8.342   6.465
16294TIP3    H248760   0.930   8.376   6.459
16295TIP3   OH248761   0.850   7.530   5.575
16295TIP3    H148762   0.833   7.489   5.490
16295TIP3    H248763   0.822   7.622   5.556
16296TIP3   OH248764   0.985   7.537   7.460
16296TIP3    H148765   0.976   7.471   7.529
16296TIP3    H248766   1.002   7.617   7.512
16297TIP3   OH248767   0.972   7.817   7.232
16297TIP3    H148768   0.889   7.860   7.207
16297TIP3    H248769   1.040   7.870   7.185
16298TIP3   OH248770   0.867   7.264   7.351
16298TIP3    H148771   0.786   7.259   7.404
16298TIP3    H248772   0.936   7.244   7.418
16299TIP3   OH248773   1.047   7.196   7.538
16299TIP3    H148774   1.063   7.102   7.561
16299TIP3    H248775   1.034   7.240   7.624
16300TIP3   OH248776   1.160   8.652   6.430
16300TIP3    H148777   1.151   8.600   6.512
16300TIP3    H248778   1.189   8.588   6.364
16301TIP3   OH248779   1.119   8.521   6.696
16301TIP3    H148780   1.088   8.431   6.717
16301TIP3    H248781   1.190   8.531   6.760
16302TIP3   OH248782   1.162   8.207   7.288
16302TIP3    H148783   1.108   8.214   7.367
16302TIP3    H248784   1.210   8.293   7.288
16303TIP3   OH248785   0.983   7.718   5.914
16303TIP3    H148786   1.053   7.782   5.889
16303TIP3    H248787   1.021   7.679   5.995
16304TIP3   OH248788   1.109   7.585   6.117
16304TIP3    H148789   1.044   7.541   6.177
16304TIP3    H248790   1.174   7.622   6.181
16305TIP3   OH248791   1.148   7.971   6.544
16305TIP3    H148792   1.211   7.909   6.502
16305TIP3    H248793   1.160   8.052   6.490
16306TIP3   OH248794   0.971   8.265   6.743
16306TIP3    H148795   0.909   8.327   6.785
16306TIP3    H248796   0.935   8.259   6.652
16307TIP3   OH248797   1.049   7.492   5.768
16307TIP3    H148798   0.976   7.496   5.702
16307TIP3    H248799   1.024   7.567   5.826
16308TIP3   OH248800   0.925   7.164   5.715
16308TIP3    H148801   0.874   7.199   5.642
16308TIP3    H248802   0.896   7.070   5.716
16309TIP3   OH248803   0.930   7.438   6.264
16309TIP3    H148804   0.935   7.341   6.258
16309TIP3    H248805   0.916   7.452   6.360
16310TIP3   OH248806   1.207   7.846   7.094
16310TIP3    H148807   1.298   7.811   7.111
16310TIP3    H248808   1.229   7.934   7.055
16311TIP3   OH248809   1.398   7.676   7.153
16311TIP3    H148810   1.336   7.612   7.192
16311TIP3    H248811   1.481   7.622   7.159
16312TIP3   OH248812   0.861   6.901   5.710
16312TIP3    H148813   0.941   6.872   5.758
16312TIP3    H248814   0.794   6.836   5.737
16313TIP3   OH248815   0.932   7.162   6.174
16313TIP3    H148816   0.969   7.072   6.186
16313TIP3    H248817   0.983   7.192   6.097
16314TIP3   OH248818   1.083   7.331   6.648
16314TIP3    H148819   1.170   7.361   6.611
16314TIP3    H248820   1.099   7.347   6.742
16315TIP3   OH248821   1.160   7.498   6.905
16315TIP3    H148822   1.063   7.493   6.897
16315TIP3    H248823   1.186   7.552   6.827
16316TIP3   OH248824   1.598   7.060   7.448
16316TIP3    H148825   1.663   7.002   7.403
16316TIP3    H248826   1.572   7.121   7.376
16317TIP3   OH248827   1.031   6.906   6.198
16317TIP3    H148828   1.077   6.890   6.283
16317TIP3    H248829   0.968   6.831   6.196
16318TIP3   OH248830   1.481   7.204   7.254
16318TIP3    H148831   1.393   7.243   7.273
16318TIP3    H248832   1.454   7.133   7.193
16319TIP3   OH248833   1.108   6.844   5.827
16319TIP3    H148834   1.150   6.770   5.780
16319TIP3    H248835   1.177   6.913   5.825
16320TIP3   OH248836   1.370   6.973   7.128
16320TIP3    H148837   1.278   6.972   7.097
16320TIP3    H248838   1.395   6.878   7.114
16321TIP3   OH248839   0.622   6.857   6.770
16321TIP3    H148840   0.607   6.777   6.822
16321TIP3    H248841   0.696   6.827   6.712
16322TIP3   OH248842   1.104   6.764   6.654
16322TIP3    H148843   1.139   6.816   6.579
16322TIP3    H248844   1.008   6.781   6.646
16323TIP3   OH248845   1.195   6.864   6.417
16323TIP3    H148846   1.268   6.813   6.375
16323TIP3    H248847   1.227   6.955   6.402
16324TIP3   OH248848   0.829   6.763   6.618
16324TIP3    H148849   0.829   6.727   6.529
16324TIP3    H248850   0.812   6.682   6.672
16325TIP3   OH248851   0.847   6.694   6.188
16325TIP3    H148852   0.763   6.742   6.204
16325TIP3    H248853   0.830   6.609   6.234
16326TIP3   OH248854   0.825   8.344   5.846
16326TIP3    H148855   0.818   8.247   5.858
16326TIP3    H248856   0.766   8.355   5.771
16327TIP3   OH248857   1.109   6.928   7.563
16327TIP3    H148858   1.126   6.899   7.655
16327TIP3    H248859   1.198   6.922   7.523
16328TIP3   OH248860   1.049   8.475   6.993
16328TIP3    H148861   0.962   8.444   7.023
16328TIP3    H248862   1.055   8.557   7.044
16329TIP3   OH248863   2.311   7.853   5.819
16329TIP3    H148864   2.289   7.947   5.805
16329TIP3    H248865   2.228   7.811   5.794
16330TIP3   OH248866   2.309   7.853   6.200
16330TIP3    H148867   2.341   7.833   6.290
16330TIP3    H248868   2.266   7.770   6.175
16331TIP3   OH248869   1.608   7.753   6.571
16331TIP3    H148870   1.639   7.686   6.635
16331TIP3    H248871   1.688   7.807   6.562
16332TIP3   OH248872   2.551   8.157   5.884
16332TIP3    H148873   2.543   8.090   5.953
16332TIP3    H248874   2.582   8.234   5.935
16333TIP3   OH248875   1.578   8.157   6.290
16333TIP3    H148876   1.573   8.059   6.294
16333TIP3    H248877   1.675   8.169   6.292
16334TIP3   OH248878   1.288   7.364   6.077
16334TIP3    H148879   1.242   7.448   6.092
16334TIP3    H248880   1.216   7.310   6.041
16335TIP3   OH248881   1.345   7.651   6.248
16335TIP3    H148882   1.395   7.575   6.285
16335TIP3    H248883   1.410   7.688   6.186
16336TIP3   OH248884   2.201   8.621   5.897
16336TIP3    H148885   2.249   8.548   5.852
16336TIP3    H248886   2.197   8.590   5.988
16337TIP3   OH248887   2.110   8.081   6.247
16337TIP3    H148888   2.152   8.005   6.204
16337TIP3    H248889   2.192   8.128   6.274
16338TIP3   OH248890   3.121   7.402   6.247
16338TIP3    H148891   3.149   7.484   6.294
16338TIP3    H248892   3.144   7.425   6.155
16339TIP3   OH248893   2.519   7.583   6.283
16339TIP3    H148894   2.564   7.499   6.305
16339TIP3    H248895   2.492   7.566   6.191
16340TIP3   OH248896   1.858   7.242   6.248
16340TIP3    H148897   1.839   7.316   6.187
16340TIP3    H248898   1.808   7.170   6.203
16341TIP3   OH248899   2.552   7.326   5.869
16341TIP3    H148900   2.623   7.314   5.937
16341TIP3    H248901   2.606   7.367   5.798
16342TIP3   OH248902   1.492   7.444   6.354
16342TIP3    H148903   1.575   7.427   6.402
16342TIP3    H248904   1.507   7.389   6.274
16343TIP3   OH248905   1.935   7.642   6.143
16343TIP3    H148906   2.028   7.617   6.159
16343TIP3    H248907   1.896   7.557   6.114
16344TIP3   OH248908   3.191   7.606   6.421
16344TIP3    H148909   3.110   7.658   6.402
16344TIP3    H248910   3.218   7.644   6.506
16345TIP3   OH248911   1.854   7.224   6.680
16345TIP3    H148912   1.796   7.265   6.614
16345TIP3    H248913   1.805   7.245   6.762
16346TIP3   OH248914   2.204   8.077   5.689
16346TIP3    H148915   2.159   8.060   5.605
16346TIP3    H248916   2.163   8.162   5.715
16347TIP3   OH248917   1.959   8.001   6.478
16347TIP3    H148918   1.897   8.067   6.516
16347TIP3    H248919   2.006   8.054   6.411
16348TIP3   OH248920   2.762   7.335   6.042
16348TIP3    H148921   2.750   7.294   6.128
16348TIP3    H248922   2.817   7.413   6.065
16349TIP3   OH248923   1.724   7.340   6.466
16349TIP3    H148924   1.783   7.415   6.492
16349TIP3    H248925   1.776   7.301   6.393
16350TIP3   OH248926   1.785   8.194   6.570
16350TIP3    H148927   1.763   8.284   6.536
16350TIP3    H248928   1.708   8.181   6.630
16351TIP3   OH248929   1.188   7.886   5.812
16351TIP3    H148930   1.146   7.916   5.730
16351TIP3    H248931   1.218   7.971   5.851
16352TIP3   OH248932   2.622   8.398   6.047
16352TIP3    H148933   2.533   8.391   6.088
16352TIP3    H248934   2.616   8.487   6.006
16353TIP3   OH248935   2.916   7.295   6.409
16353TIP3    H148936   2.830   7.336   6.386
16353TIP3    H248937   2.976   7.333   6.342
16354TIP3   OH248938   2.212   6.946   6.392
16354TIP3    H148939   2.201   6.851   6.413
16354TIP3    H248940   2.136   6.984   6.441
16355TIP3   OH248941   2.326   8.446   5.723
16355TIP3    H148942   2.378   8.365   5.703
16355TIP3    H248943   2.386   8.513   5.683
16356TIP3   OH248944   2.471   8.231   5.630
16356TIP3    H148945   2.428   8.152   5.595
16356TIP3    H248946   2.506   8.198   5.716
16357TIP3   OH248947   2.850   8.315   6.395
16357TIP3    H148948   2.841   8.238   6.335
16357TIP3    H248949   2.835   8.390   6.333
16358TIP3   OH248950   2.137   7.702   5.648
16358TIP3    H148951   2.059   7.758   5.629
16358TIP3    H248952   2.189   7.712   5.566
16359TIP3   OH248953   2.102   7.490   5.368
16359TIP3    H148954   2.165   7.541   5.422
16359TIP3    H248955   2.165   7.434   5.318
16360TIP3   OH248956   3.043   7.943   6.233
16360TIP3    H148957   2.964   8.000   6.242
16360TIP3    H248958   3.076   7.973   6.146
16361TIP3   OH248959   2.488   7.786   5.623
16361TIP3    H148960   2.435   7.813   5.702
16361TIP3    H248961   2.573   7.764   5.667
16362TIP3   OH248962   2.725   7.830   6.534
16362TIP3    H148963   2.726   7.912   6.588
16362TIP3    H248964   2.638   7.840   6.490
16363TIP3   OH248965   1.722   7.788   6.039
16363TIP3    H148966   1.684   7.729   5.971
16363TIP3    H248967   1.800   7.736   6.070
16364TIP3   OH248968   1.851   8.199   6.188
16364TIP3    H148969   1.835   8.153   6.105
16364TIP3    H248970   1.942   8.168   6.211
16365TIP3   OH248971   1.852   7.762   6.390
16365TIP3    H148972   1.893   7.743   6.304
16365TIP3    H248973   1.900   7.844   6.418
16366TIP3   OH248974   2.382   8.395   6.170
16366TIP3    H148975   2.370   8.477   6.222
16366TIP3    H248976   2.368   8.325   6.236
16367TIP3   OH248977   1.995   8.321   6.708
16367TIP3    H148978   1.940   8.380   6.762
16367TIP3    H248979   1.927   8.264   6.667
16368TIP3   OH248980   2.336   7.639   5.451
16368TIP3    H148981   2.392   7.701   5.504
16368TIP3    H248982   2.360   7.667   5.359
16369TIP3   OH248983   1.745   7.879   6.819
16369TIP3    H148984   1.753   7.965   6.865
16369TIP3    H248985   1.649   7.864   6.824
16370TIP3   OH248986   2.072   8.328   5.722
16370TIP3    H148987   2.152   8.380   5.742
16370TIP3    H248988   2.011   8.395   5.689
16371TIP3   OH248989   1.791   8.484   6.802
16371TIP3    H148990   1.753   8.484   6.712
16371TIP3    H248991   1.712   8.462   6.858
16372TIP3   OH248992   2.846   6.892   5.496
16372TIP3    H148993   2.765   6.911   5.547
16372TIP3    H248994   2.860   6.975   5.447
16373TIP3   OH248995   1.591   7.628   5.838
16373TIP3    H148996   1.524   7.675   5.785
16373TIP3    H248997   1.545   7.547   5.861
16374TIP3   OH248998   2.644   8.256   5.044
16374TIP3    H148999   2.653   8.353   5.031
16374TIP3    H249000   2.738   8.227   5.033
16375TIP3   OH249001   1.368   8.018   6.752
16375TIP3    H149002   1.308   7.991   6.681
16375TIP3    H249003   1.404   7.932   6.784
16376TIP3   OH249004   1.231   8.206   6.397
16376TIP3    H149005   1.320   8.187   6.365
16376TIP3    H249006   1.250   8.282   6.455
16377TIP3   OH249007   3.087   8.656   6.437
16377TIP3    H149008   3.087   8.561   6.454
16377TIP3    H249009   3.004   8.683   6.484
16378TIP3   OH249010   2.194   8.448   6.570
16378TIP3    H149011   2.194   8.540   6.606
16378TIP3    H249012   2.124   8.406   6.626
16379TIP3   OH249013   1.953   8.574   5.526
16379TIP3    H149014   1.908   8.559   5.441
16379TIP3    H249015   1.922   8.663   5.552
16380TIP3   OH249016   1.391   8.423   5.909
16380TIP3    H149017   1.446   8.413   5.989
16380TIP3    H249018   1.330   8.349   5.919
16381TIP3   OH249019   2.155   8.474   5.166
16381TIP3    H149020   2.215   8.405   5.131
16381TIP3    H249021   2.190   8.485   5.258
16382TIP3   OH249022   2.205   8.522   5.437
16382TIP3    H149023   2.117   8.532   5.480
16382TIP3    H249024   2.258   8.485   5.509
16383TIP3   OH249025   2.978   7.787   6.717
16383TIP3    H149026   2.897   7.804   6.667
16383TIP3    H249027   2.989   7.691   6.706
16384TIP3   OH249028   1.574   8.198   6.741
16384TIP3    H149029   1.625   8.184   6.824
16384TIP3    H249030   1.501   8.134   6.750
16385TIP3   OH249031   1.974   7.020   6.524
16385TIP3    H149032   1.883   6.992   6.499
16385TIP3    H249033   1.952   7.104   6.569
16386TIP3   OH249034   2.507   7.132   6.717
16386TIP3    H149035   2.576   7.112   6.784
16386TIP3    H249036   2.423   7.117   6.766
16387TIP3   OH249037   2.747   7.566   6.632
16387TIP3    H149038   2.701   7.560   6.719
16387TIP3    H249039   2.723   7.656   6.602
16388TIP3   OH249040   2.402   7.691   5.192
16388TIP3    H149041   2.374   7.670   5.101
16388TIP3    H249042   2.482   7.744   5.174
16389TIP3   OH249043   2.144   7.019   5.504
16389TIP3    H149044   2.106   7.058   5.585
16389TIP3    H249045   2.062   6.981   5.464
16390TIP3   OH249046   1.899   7.537   6.538
16390TIP3    H149047   1.883   7.573   6.627
16390TIP3    H249048   1.886   7.618   6.483
16391TIP3   OH249049   1.789   7.421   6.056
16391TIP3    H149050   1.696   7.396   6.075
16391TIP3    H249051   1.801   7.379   5.968
16392TIP3   OH249052   2.277   7.506   5.780
16392TIP3    H149053   2.223   7.579   5.744
16392TIP3    H249054   2.335   7.486   5.704
16393TIP3   OH249055   2.437   7.535   6.025
16393TIP3    H149056   2.380   7.571   5.955
16393TIP3    H249057   2.467   7.453   5.980
16394TIP3   OH249058   1.707   7.571   6.761
16394TIP3    H149059   1.774   7.628   6.802
16394TIP3    H249060   1.715   7.488   6.811
16395TIP3   OH249061   1.782   7.046   5.462
16395TIP3    H149062   1.769   7.041   5.559
16395TIP3    H249063   1.700   7.093   5.436
16396TIP3   OH249064   1.318   7.087   6.332
16396TIP3    H149065   1.393   7.120   6.386
16396TIP3    H249066   1.360   7.056   6.251
16397TIP3   OH249067   1.292   7.068   5.850
16397TIP3    H149068   1.338   7.108   5.773
16397TIP3    H249069   1.231   7.142   5.873
16398TIP3   OH249070   2.442   7.784   6.446
16398TIP3    H149071   2.478   7.711   6.390
16398TIP3    H249072   2.419   7.734   6.527
16399TIP3   OH249073   2.112   7.242   6.116
16399TIP3    H149074   2.032   7.244   6.172
16399TIP3    H249075   2.182   7.247   6.182
16400TIP3   OH249076   1.550   7.300   6.126
16400TIP3    H149077   1.456   7.308   6.100
16400TIP3    H249078   1.573   7.209   6.103
16401TIP3   OH249079   1.822   7.292   5.814
16401TIP3    H149080   1.915   7.316   5.796
16401TIP3    H249081   1.774   7.320   5.732
16402TIP3   OH249082   2.609   7.320   6.313
16402TIP3    H149083   2.582   7.332   6.407
16402TIP3    H249084   2.539   7.260   6.282
16403TIP3   OH249085   1.661   7.328   5.594
16403TIP3    H149086   1.587   7.286   5.547
16403TIP3    H249087   1.711   7.365   5.518
16404TIP3   OH249088   2.777   9.009   6.538
16404TIP3    H149089   2.777   9.034   6.445
16404TIP3    H249090   2.857   9.056   6.571
16405TIP3   OH249091   1.733   8.120   6.963
16405TIP3    H149092   1.818   8.147   7.004
16405TIP3    H249093   1.674   8.129   7.040
16406TIP3   OH249094   2.198   7.569   6.212
16406TIP3    H149095   2.278   7.536   6.167
16406TIP3    H249096   2.211   7.536   6.303
16407TIP3   OH249097   1.721   7.061   6.093
16407TIP3    H149098   1.687   6.982   6.140
16407TIP3    H249099   1.778   7.022   6.025
16408TIP3   OH249100   2.177   7.470   6.511
16408TIP3    H149101   2.090   7.513   6.521
16408TIP3    H249102   2.237   7.531   6.557
16409TIP3   OH249103   1.914   7.860   5.599
16409TIP3    H149104   1.840   7.796   5.589
16409TIP3    H249105   1.896   7.895   5.690
16410TIP3   OH249106   2.816   8.097   6.230
16410TIP3    H149107   2.840   8.147   6.148
16410TIP3    H249108   2.729   8.058   6.205
16411TIP3   OH249109   2.374   7.163   5.420
16411TIP3    H149110   2.280   7.171   5.442
16411TIP3    H249111   2.410   7.249   5.452
16412TIP3   OH249112   2.308   8.174   6.599
16412TIP3    H149113   2.340   8.151   6.687
16412TIP3    H249114   2.275   8.265   6.610
16413TIP3   OH249115   2.446   7.398   5.546
16413TIP3    H149116   2.538   7.413   5.575
16413TIP3    H249117   2.423   7.485   5.506
16414TIP3   OH249118   1.600   7.875   6.277
16414TIP3    H149119   1.641   7.852   6.191
16414TIP3    H249120   1.653   7.823   6.338
16415TIP3   OH249121   2.056   8.009   5.418
16415TIP3    H149122   2.010   8.095   5.424
16415TIP3    H249123   2.003   7.955   5.480
16416TIP3   OH249124   1.477   7.814   6.898
16416TIP3    H149125   1.520   7.796   6.984
16416TIP3    H249126   1.439   7.728   6.875
16417TIP3   OH249127   2.471   8.435   6.491
16417TIP3    H149128   2.375   8.438   6.506
16417TIP3    H249129   2.502   8.487   6.569
16418TIP3   OH249130   2.881   7.510   5.403
16418TIP3    H149131   2.819   7.465   5.341
16418TIP3    H249132   2.879   7.599   5.362
16419TIP3   OH249133   3.101   8.367   6.484
16419TIP3    H149134   3.004   8.362   6.475
16419TIP3    H249135   3.128   8.339   6.394
16420TIP3   OH249136   2.577   8.330   5.307
16420TIP3    H149137   2.561   8.260   5.372
16420TIP3    H249138   2.596   8.281   5.225
16421TIP3   OH249139   2.578   7.960   6.146
16421TIP3    H149140   2.486   7.935   6.162
16421TIP3    H249141   2.613   7.880   6.103
16422TIP3   OH249142   1.705   8.183   5.895
16422TIP3    H149143   1.709   8.267   5.846
16422TIP3    H249144   1.611   8.177   5.915
16423TIP3   OH249145   1.269   7.491   5.601
16423TIP3    H149146   1.316   7.574   5.621
16423TIP3    H249147   1.194   7.497   5.664
16424TIP3   OH249148   1.845   7.950   5.843
16424TIP3    H149149   1.810   8.040   5.860
16424TIP3    H249150   1.810   7.902   5.921
16425TIP3   OH249151   1.975   8.529   6.371
16425TIP3    H149152   2.017   8.602   6.323
16425TIP3    H249153   2.050   8.495   6.423
16426TIP3   OH249154   1.626   8.425   5.752
16426TIP3    H149155   1.540   8.435   5.797
16426TIP3    H249156   1.659   8.518   5.756
16427TIP3   OH249157   2.363   8.162   6.330
16427TIP3    H149158   2.352   8.163   6.427
16427TIP3    H249159   2.448   8.118   6.321
16428TIP3   OH249160   2.336   8.052   5.212
16428TIP3    H149161   2.391   8.029   5.290
16428TIP3    H249162   2.248   8.033   5.246
16429TIP3   OH249163   2.613   8.696   6.379
16429TIP3    H149164   2.533   8.640   6.372
16429TIP3    H249165   2.596   8.762   6.308
16430TIP3   OH249166   2.677   8.531   5.031
16430TIP3    H149167   2.720   8.603   4.982
16430TIP3    H249168   2.598   8.579   5.062
16431TIP3   OH249169   1.702   7.306   6.898
16431TIP3    H149170   1.606   7.315   6.913
16431TIP3    H249171   1.729   7.250   6.973
16432TIP3   OH249172   2.497   7.986   5.426
16432TIP3    H149173   2.489   7.922   5.500
16432TIP3    H249174   2.595   7.988   5.416
16433TIP3   OH249175   1.408   8.390   6.533
16433TIP3    H149176   1.469   8.323   6.569
16433TIP3    H249177   1.436   8.468   6.583
16434TIP3   OH249178   1.704   8.037   5.210
16434TIP3    H149179   1.721   7.945   5.184
16434TIP3    H249180   1.687   8.027   5.306
16435TIP3   OH249181   1.651   8.041   5.483
16435TIP3    H149182   1.720   8.017   5.546
16435TIP3    H249183   1.652   8.140   5.489
16436TIP3   OH249184   1.385   7.735   5.686
16436TIP3    H149185   1.320   7.781   5.744
16436TIP3    H249186   1.400   7.806   5.620
16437TIP3   OH249187   2.541   7.364   6.570
16437TIP3    H149188   2.606   7.415   6.619
16437TIP3    H249189   2.523   7.289   6.631
16438TIP3   OH249190   2.417   7.131   5.732
16438TIP3    H149191   2.410   7.182   5.649
16438TIP3    H249192   2.459   7.199   5.789
16439TIP3   OH249193   1.913   8.238   5.429
16439TIP3    H149194   1.828   8.266   5.468
16439TIP3    H249195   1.934   8.316   5.375
16440TIP3   OH249196   2.104   7.302   5.844
16440TIP3    H149197   2.167   7.375   5.828
16440TIP3    H249198   2.108   7.294   5.942
16441TIP3   OH249199   2.376   7.626   6.663
16441TIP3    H149200   2.355   7.673   6.746
16441TIP3    H249201   2.433   7.555   6.695
16442TIP3   OH249202   2.248   7.031   5.947
16442TIP3    H149203   2.247   7.100   6.016
16442TIP3    H249204   2.308   7.073   5.882
16443TIP3   OH249205   1.655   8.314   5.499
16443TIP3    H149206   1.627   8.384   5.436
16443TIP3    H249207   1.642   8.358   5.586
16444TIP3   OH249208   1.762   7.027   5.737
16444TIP3    H149209   1.756   7.118   5.774
16444TIP3    H249210   1.857   7.011   5.749
16445TIP3   OH249211   3.013   7.518   6.638
16445TIP3    H149212   2.915   7.517   6.641
16445TIP3    H249213   3.028   7.495   6.545
16446TIP3   OH249214   2.665   7.716   6.021
16446TIP3    H149215   2.590   7.657   6.040
16446TIP3    H249216   2.738   7.673   6.070
16447TIP3   OH249217   1.375   7.948   5.493
16447TIP3    H149218   1.437   8.021   5.504
16447TIP3    H249219   1.423   7.896   5.425
16448TIP3   OH249220   1.323   7.222   5.624
16448TIP3    H149221   1.321   7.319   5.620
16448TIP3    H249222   1.238   7.198   5.587
16449TIP3   OH249223   2.633   8.670   5.971
16449TIP3    H149224   2.591   8.717   5.896
16449TIP3    H249225   2.727   8.691   5.953
16450TIP3   OH249226   1.707   6.941   6.499
16450TIP3    H149227   1.677   6.908   6.412
16450TIP3    H249228   1.698   6.862   6.556
16451TIP3   OH249229   1.245   8.155   5.883
16451TIP3    H149230   1.172   8.192   5.934
16451TIP3    H249231   1.229   8.197   5.796
16452TIP3   OH249232   1.403   8.695   6.957
16452TIP3    H149233   1.491   8.702   7.001
16452TIP3    H249234   1.394   8.599   6.948
16453TIP3   OH249235   1.881   8.667   6.998
16453TIP3    H149236   1.977   8.657   7.009
16453TIP3    H249237   1.865   8.607   6.922
16454TIP3   OH249238   1.866   8.242   5.122
16454TIP3    H149239   1.811   8.172   5.162
16454TIP3    H249240   1.943   8.190   5.092
16455TIP3   OH249241   2.530   8.569   6.723
16455TIP3    H149242   2.517   8.503   6.795
16455TIP3    H249243   2.604   8.623   6.757
16456TIP3   OH249244   2.303   8.282   5.034
16456TIP3    H149245   2.353   8.224   5.094
16456TIP3    H249246   2.360   8.284   4.955
16457TIP3   OH249247   1.535   8.105   7.158
16457TIP3    H149248   1.559   8.011   7.156
16457TIP3    H249249   1.451   8.106   7.107
16458TIP3   OH249250   1.511   7.758   5.343
16458TIP3    H149251   1.566   7.727   5.418
16458TIP3    H249252   1.579   7.763   5.273
16459TIP3   OH249253   2.147   8.194   6.930
16459TIP3    H149254   2.117   8.182   6.839
16459TIP3    H249255   2.185   8.105   6.951
16460TIP3   OH249256   2.017   7.955   5.150
16460TIP3    H149257   2.022   7.970   5.246
16460TIP3    H249258   2.015   7.857   5.147
16461TIP3   OH249259   2.634   8.197   6.526
16461TIP3    H149260   2.710   8.243   6.487
16461TIP3    H249261   2.565   8.266   6.519
16462TIP3   OH249262   1.653   7.830   7.132
16462TIP3    H149263   1.737   7.792   7.106
16462TIP3    H249264   1.677   7.868   7.220
16463TIP3   OH249265   1.718   7.661   5.566
16463TIP3    H149266   1.692   7.624   5.652
16463TIP3    H249267   1.754   7.583   5.519
16464TIP3   OH249268   1.972   7.701   6.769
16464TIP3    H149269   1.930   7.781   6.806
16464TIP3    H249270   2.043   7.742   6.716
16465TIP3   OH249271   1.821   7.451   5.407
16465TIP3    H149272   1.793   7.458   5.314
16465TIP3    H249273   1.918   7.462   5.399
16466TIP3   OH249274   2.505   8.133   6.920
16466TIP3    H149275   2.590   8.091   6.904
16466TIP3    H249276   2.454   8.063   6.964
16467TIP3   OH249277   2.641   7.786   5.070
16467TIP3    H149278   2.620   7.741   4.985
16467TIP3    H249279   2.611   7.877   5.048
16468TIP3   OH249280   2.100   7.513   6.926
16468TIP3    H149281   2.113   7.436   6.868
16468TIP3    H249282   2.063   7.580   6.864
16469TIP3   OH249283   2.115   7.295   6.725
16469TIP3    H149284   2.143   7.343   6.644
16469TIP3    H249285   2.021   7.278   6.707
16470TIP3   OH249286   2.139   7.814   6.578
16470TIP3    H149287   2.228   7.843   6.557
16470TIP3    H249288   2.085   7.892   6.553
16471TIP3   OH249289   2.748   7.814   7.000
16471TIP3    H149290   2.783   7.725   6.987
16471TIP3    H249291   2.807   7.869   6.947
16472TIP3   OH249292   2.768   8.051   6.713
16472TIP3    H149293   2.707   8.107   6.659
16472TIP3    H249294   2.855   8.077   6.674
16473TIP3   OH249295   1.980   7.631   7.154
16473TIP3    H149296   1.918   7.555   7.160
16473TIP3    H249297   2.024   7.615   7.069
16474TIP3   OH249298   2.247   7.063   6.795
16474TIP3    H149299   2.200   7.147   6.772
16474TIP3    H249300   2.176   6.997   6.783
16475TIP3   OH249301   2.381   7.549   6.992
16475TIP3    H149302   2.391   7.604   7.071
16475TIP3    H249303   2.284   7.549   6.982
16476TIP3   OH249304   2.613   7.510   6.857
16476TIP3    H149305   2.534   7.522   6.914
16476TIP3    H249306   2.682   7.487   6.923
16477TIP3   OH249307   2.846   7.460   7.019
16477TIP3    H149308   2.852   7.365   7.041
16477TIP3    H249309   2.837   7.502   7.108
16478TIP3   OH249310   1.823   7.406   7.204
16478TIP3    H149311   1.845   7.319   7.166
16478TIP3    H249312   1.862   7.398   7.293
16479TIP3   OH249313   2.338   7.069   7.053
16479TIP3    H149314   2.409   7.002   7.046
16479TIP3    H249315   2.301   7.066   6.963
16480TIP3   OH249316   2.402   7.286   7.216
16480TIP3    H149317   2.381   7.220   7.146
16480TIP3    H249318   2.330   7.352   7.204
16481TIP3   OH249319   1.626   8.513   5.309
16481TIP3    H149320   1.722   8.513   5.292
16481TIP3    H249321   1.597   8.567   5.233
16482TIP3   OH249322   1.107   7.902   5.529
16482TIP3    H149323   1.202   7.926   5.517
16482TIP3    H249324   1.105   7.813   5.488
16483TIP3   OH249325   1.031   8.508   5.933
16483TIP3    H149326   0.959   8.451   5.897
16483TIP3    H249327   1.068   8.451   6.003
16484TIP3   OH249328   1.153   8.356   6.125
16484TIP3    H149329   1.142   8.284   6.189
16484TIP3    H249330   1.215   8.414   6.174
16485TIP3   OH249331   2.883   8.769   5.927
16485TIP3    H149332   2.909   8.796   6.016
16485TIP3    H249333   2.951   8.809   5.872
16486TIP3   OH249334   2.915   8.783   6.208
16486TIP3    H149335   2.873   8.694   6.207
16486TIP3    H249336   2.990   8.766   6.267
16487TIP3   OH249337   2.961   8.459   6.783
16487TIP3    H149338   2.888   8.468   6.847
16487TIP3    H249339   3.002   8.548   6.787
16488TIP3   OH249340   2.777   7.974   5.403
16488TIP3    H149341   2.845   8.038   5.374
16488TIP3    H249342   2.820   7.935   5.482
16489TIP3   OH249343   2.903   7.841   5.605
16489TIP3    H149344   2.840   7.801   5.668
16489TIP3    H249345   2.973   7.878   5.664
16490TIP3   OH249346   2.955   8.230   6.035
16490TIP3    H149347   3.013   8.169   5.986
16490TIP3    H249348   2.950   8.307   5.974
16491TIP3   OH249349   2.790   8.533   6.233
16491TIP3    H149350   2.721   8.576   6.287
16491TIP3    H249351   2.738   8.485   6.166
16492TIP3   OH249352   2.842   7.747   5.254
16492TIP3    H149353   2.770   7.754   5.187
16492TIP3    H249354   2.818   7.823   5.311
16493TIP3   OH249355   2.711   7.418   5.210
16493TIP3    H149356   2.675   7.466   5.134
16493TIP3    H249357   2.682   7.326   5.193
16494TIP3   OH249358   2.717   7.697   5.754
16494TIP3    H149359   2.732   7.602   5.754
16494TIP3    H249360   2.704   7.715   5.850
16495TIP3   OH249361   1.346   7.777   6.499
16495TIP3    H149362   1.345   7.743   6.407
16495TIP3    H249363   1.444   7.777   6.516
16496TIP3   OH249364   3.009   8.123   6.608
16496TIP3    H149365   3.082   8.058   6.600
16496TIP3    H249366   3.040   8.195   6.550
16497TIP3   OH249367   3.191   7.926   6.629
16497TIP3    H149368   3.118   7.876   6.671
16497TIP3    H249369   3.266   7.864   6.642
16498TIP3   OH249370   2.656   7.149   5.204
16498TIP3    H149371   2.748   7.134   5.236
16498TIP3    H249372   2.605   7.102   5.271
16499TIP3   OH249373   2.710   7.410   5.647
16499TIP3    H149374   2.754   7.323   5.663
16499TIP3    H249375   2.770   7.448   5.582
16500TIP3   OH249376   2.877   7.588   6.142
16500TIP3    H149377   2.963   7.614   6.103
16500TIP3    H249378   2.889   7.625   6.232
16501TIP3   OH249379   2.943   7.729   6.376
16501TIP3    H149380   2.867   7.766   6.426
16501TIP3    H249381   2.976   7.810   6.330
16502TIP3   OH249382   1.557   7.456   7.171
16502TIP3    H149383   1.656   7.455   7.174
16502TIP3    H249384   1.540   7.372   7.218
16503TIP3   OH249385   3.400   7.321   6.934
16503TIP3    H149386   3.457   7.257   6.887
16503TIP3    H249387   3.368   7.377   6.859
16504TIP3   OH249388   2.822   7.163   5.687
16504TIP3    H149389   2.874   7.149   5.769
16504TIP3    H249390   2.767   7.083   5.687
16505TIP3   OH249391   1.523   7.150   6.509
16505TIP3    H149392   1.586   7.076   6.518
16505TIP3    H249393   1.584   7.225   6.501
16506TIP3   OH249394   1.329   7.425   6.580
16506TIP3    H149395   1.376   7.416   6.495
16506TIP3    H249396   1.366   7.508   6.612
16507TIP3   OH249397   3.269   7.461   6.743
16507TIP3    H149398   3.184   7.504   6.767
16507TIP3    H249399   3.236   7.394   6.680
16508TIP3   OH249400   2.905   7.104   5.311
16508TIP3    H149401   2.949   7.028   5.267
16508TIP3    H249402   2.975   7.172   5.313
16509TIP3   OH249403   1.309   6.926   6.079
16509TIP3    H149404   1.216   6.925   6.107
16509TIP3    H249405   1.307   6.986   6.001
16510TIP3   OH249406   2.466   8.630   5.584
16510TIP3    H149407   2.521   8.617   5.504
16510TIP3    H249408   2.519   8.693   5.635
16511TIP3   OH249409   1.527   7.001   6.892
16511TIP3    H149410   1.479   7.003   6.977
16511TIP3    H249411   1.462   7.044   6.833
16512TIP3   OH249412   1.577   8.430   6.970
16512TIP3    H149413   1.483   8.405   6.957
16512TIP3    H249414   1.587   8.423   7.066
16513TIP3   OH249415   1.745   8.463   6.515
16513TIP3    H149416   1.702   8.543   6.478
16513TIP3    H249417   1.833   8.476   6.475
16514TIP3   OH249418   2.193   8.713   6.655
16514TIP3    H149419   2.234   8.712   6.744
16514TIP3    H249420   2.261   8.764   6.605
16515TIP3   OH249421   2.374   8.862   6.512
16515TIP3    H149422   2.449   8.810   6.478
16515TIP3    H249423   2.422   8.921   6.575
16516TIP3   OH249424   3.167   7.226   6.615
16516TIP3    H149425   3.076   7.226   6.581
16516TIP3    H249426   3.194   7.133   6.601
16517TIP3   OH249427   1.427   8.717   6.550
16517TIP3    H149428   1.342   8.742   6.511
16517TIP3    H249429   1.431   8.777   6.626
16518TIP3   OH249430   1.661   8.699   6.398
16518TIP3    H149431   1.578   8.714   6.447
16518TIP3    H249432   1.641   8.737   6.311
16519TIP3   OH249433   2.087   8.732   6.196
16519TIP3    H149434   2.017   8.756   6.132
16519TIP3    H249435   2.101   8.818   6.242
16520TIP3   OH249436   2.356   8.668   6.244
16520TIP3    H149437   2.261   8.688   6.228
16520TIP3    H249438   2.399   8.749   6.211
16521TIP3   OH249439   2.562   8.862   6.165
16521TIP3    H149440   2.550   8.947   6.118
16521TIP3    H249441   2.589   8.802   6.093
16522TIP3   OH249442   1.339   8.494   6.277
16522TIP3    H149443   1.372   8.480   6.368
16522TIP3    H249444   1.415   8.457   6.226
16523TIP3   OH249445   1.540   8.379   6.131
16523TIP3    H149446   1.558   8.298   6.183
16523TIP3    H249447   1.629   8.421   6.131
16524TIP3   OH249448   1.799   8.483   6.147
16524TIP3    H149449   1.834   8.393   6.139
16524TIP3    H249450   1.841   8.509   6.231
16525TIP3   OH249451   2.366   7.135   6.221
16525TIP3    H149452   2.328   7.070   6.283
16525TIP3    H249453   2.447   7.091   6.190
16526TIP3   OH249454   2.895   7.014   6.136
16526TIP3    H149455   2.934   7.070   6.065
16526TIP3    H249456   2.802   7.043   6.136
16527TIP3   OH249457   2.989   7.121   5.902
16527TIP3    H149458   3.063   7.069   5.863
16527TIP3    H249459   3.025   7.212   5.888
16528TIP3   OH249460   1.621   6.849   6.250
16528TIP3    H149461   1.529   6.816   6.251
16528TIP3    H249462   1.670   6.763   6.248
16529TIP3   OH249463   1.405   6.719   5.898
16529TIP3    H149464   1.435   6.777   5.826
16529TIP3    H249465   1.377   6.783   5.966
16530TIP3   OH249466   2.064   6.882   6.130
16530TIP3    H149467   2.122   6.937   6.076
16530TIP3    H249468   2.082   6.917   6.218
16531TIP3   OH249469   2.606   7.026   6.116
16531TIP3    H149470   2.618   6.987   6.029
16531TIP3    H249471   2.595   6.946   6.172
16532TIP3   OH249472   2.636   6.949   5.673
16532TIP3    H149473   2.557   6.998   5.702
16532TIP3    H249474   2.627   6.865   5.723
16533TIP3   OH249475   1.126   8.286   5.679
16533TIP3    H149476   1.038   8.258   5.647
16533TIP3    H249477   1.118   8.382   5.668
16534TIP3   OH249478   1.523   6.880   5.661
16534TIP3    H149479   1.572   6.816   5.606
16534TIP3    H249480   1.595   6.933   5.699
16535TIP3   OH249481   2.045   7.053   5.754
16535TIP3    H149482   2.096   7.010   5.825
16535TIP3    H249483   2.057   7.147   5.782
16536TIP3   OH249484   1.896   8.479   5.261
16536TIP3    H149485   1.985   8.501   5.225
16536TIP3    H249486   1.874   8.404   5.201
16537TIP3   OH249487   2.615   8.596   5.352
16537TIP3    H149488   2.605   8.498   5.340
16537TIP3    H249489   2.570   8.629   5.272
16538TIP3   OH249490   1.829   7.119   7.132
16538TIP3    H149491   1.795   7.057   7.198
16538TIP3    H249492   1.922   7.127   7.162
16539TIP3   OH249493   2.073   7.125   7.257
16539TIP3    H149494   2.162   7.114   7.219
16539TIP3    H249495   2.071   7.053   7.324
16540TIP3   OH249496   1.197   8.309   5.318
16540TIP3    H149497   1.200   8.345   5.408
16540TIP3    H249498   1.288   8.272   5.307
16541TIP3   OH249499   2.901   7.185   7.048
16541TIP3    H149500   2.921   7.157   7.140
16541TIP3    H249501   2.990   7.184   7.007
16542TIP3   OH249502   2.843   8.741   6.539
16542TIP3    H149503   2.762   8.710   6.494
16542TIP3    H249504   2.824   8.837   6.545
16543TIP3   OH249505   4.109   8.112   5.306
16543TIP3    H149506   4.081   8.204   5.288
16543TIP3    H249507   4.029   8.065   5.278
16544TIP3   OH249508   4.111   8.110   5.686
16544TIP3    H149509   4.135   8.085   5.777
16544TIP3    H249510   4.062   8.031   5.656
16545TIP3   OH249511   3.406   8.006   6.047
16545TIP3    H149512   3.437   7.945   6.116
16545TIP3    H249513   3.474   8.074   6.053
16546TIP3   OH249514   4.350   8.414   5.369
16546TIP3    H149515   4.335   8.345   5.435
16546TIP3    H249516   4.376   8.489   5.424
16547TIP3   OH249517   3.373   8.414   5.774
16547TIP3    H149518   3.366   8.316   5.779
16547TIP3    H249519   3.469   8.426   5.785
16548TIP3   OH249520   3.084   7.618   5.563
16548TIP3    H149521   3.042   7.704   5.580
16548TIP3    H249522   3.009   7.569   5.525
16549TIP3   OH249523   3.142   7.905   5.729
16549TIP3    H149524   3.192   7.831   5.770
16549TIP3    H249525   3.210   7.947   5.675
16550TIP3   OH249526   3.998   8.878   5.385
16550TIP3    H149527   4.046   8.806   5.339
16550TIP3    H249528   3.990   8.843   5.474
16551TIP3   OH249529   3.907   8.342   5.730
16551TIP3    H149530   3.944   8.263   5.688
16551TIP3    H249531   3.991   8.385   5.756
16552TIP3   OH249532   4.919   7.658   5.734
16552TIP3    H149533   4.947   7.741   5.776
16552TIP3    H249534   4.942   7.676   5.641
16553TIP3   OH249535   4.317   7.839   5.770
16553TIP3    H149536   4.360   7.754   5.790
16553TIP3    H249537   4.287   7.825   5.678
16554TIP3   OH249538   3.654   7.498   5.735
16554TIP3    H149539   3.636   7.572   5.674
16554TIP3    H249540   3.605   7.426   5.690
16555TIP3   OH249541   4.349   7.589   5.357
16555TIP3    H149542   4.421   7.573   5.422
16555TIP3    H249543   4.401   7.625   5.283
16556TIP3   OH249544   3.288   7.701   5.841
16556TIP3    H149545   3.371   7.686   5.889
16556TIP3    H249546   3.304   7.646   5.762
16557TIP3   OH249547   3.733   7.900   5.625
16557TIP3    H149548   3.826   7.873   5.644
16557TIP3    H249549   3.693   7.814   5.598
16558TIP3   OH249550   4.991   7.866   5.904
16558TIP3    H149551   4.908   7.913   5.884
16558TIP3    H249552   5.005   7.894   5.996
16559TIP3   OH249553   3.651   7.482   6.169
16559TIP3    H149554   3.593   7.523   6.101
16559TIP3    H249555   3.600   7.503   6.250
16560TIP3   OH249556   4.003   8.336   5.175
16560TIP3    H149557   3.955   8.313   5.094
16560TIP3    H249558   3.958   8.420   5.200
16561TIP3   OH249559   3.750   8.253   5.965
16561TIP3    H149560   3.689   8.318   6.007
16561TIP3    H249561   3.799   8.309   5.903
16562TIP3   OH249562   4.561   7.591   5.528
16562TIP3    H149563   4.547   7.546   5.612
16562TIP3    H249564   4.614   7.668   5.554
16563TIP3   OH249565   3.521   7.598   5.953
16563TIP3    H149566   3.581   7.673   5.977
16563TIP3    H249567   3.573   7.558   5.879
16564TIP3   OH249568   3.579   8.447   6.056
16564TIP3    H149569   3.562   8.539   6.028
16564TIP3    H249570   3.503   8.435   6.117
16565TIP3   OH249571   2.981   8.142   5.298
16565TIP3    H149572   2.943   8.171   5.214
16565TIP3    H249573   3.013   8.226   5.336
16566TIP3   OH249574   4.422   8.657   5.537
16566TIP3    H149575   4.333   8.647   5.578
16566TIP3    H249576   4.411   8.744   5.493
16567TIP3   OH249577   4.712   7.557   5.900
16567TIP3    H149578   4.624   7.588   5.872
16567TIP3    H249579   4.770   7.590   5.828
16568TIP3   OH249580   4.009   7.203   5.881
16568TIP3    H149581   3.995   7.108   5.899
16568TIP3    H249582   3.932   7.241   5.928
16569TIP3   OH249583   4.125   8.704   5.213
16569TIP3    H149584   4.175   8.622   5.191
16569TIP3    H249585   4.184   8.770   5.170
16570TIP3   OH249586   4.268   8.488   5.116
16570TIP3    H149587   4.221   8.411   5.083
16570TIP3    H249588   4.304   8.454   5.201
16571TIP3   OH249589   4.648   8.572   5.880
16571TIP3    H149590   4.634   8.494   5.823
16571TIP3    H249591   4.629   8.646   5.818
16572TIP3   OH249592   3.937   7.962   5.137
16572TIP3    H149593   3.857   8.015   5.115
16572TIP3    H249594   3.984   7.962   5.052
16573TIP3   OH249595   3.896   7.748   4.854
16573TIP3    H149596   3.963   7.798   4.905
16573TIP3    H249597   3.955   7.685   4.807
16574TIP3   OH249598   4.843   8.208   5.726
16574TIP3    H149599   4.759   8.259   5.732
16574TIP3    H249600   4.871   8.231   5.634
16575TIP3   OH249601   4.286   8.046   5.109
16575TIP3    H149602   4.231   8.071   5.187
16575TIP3    H249603   4.369   8.021   5.154
16576TIP3   OH249604   4.522   8.088   6.019
16576TIP3    H149605   4.516   8.171   6.070
16576TIP3    H249606   4.433   8.088   5.978
16577TIP3   OH249607   3.519   8.045   5.525
16577TIP3    H149608   3.480   7.986   5.458
16577TIP3    H249609   3.597   7.993   5.555
16578TIP3   OH249610   3.652   8.463   5.671
16578TIP3    H149611   3.630   8.409   5.594
16578TIP3    H249612   3.740   8.428   5.695
16579TIP3   OH249613   3.652   8.015   5.873
16579TIP3    H149614   3.694   8.000   5.787
16579TIP3    H249615   3.698   8.096   5.905
16580TIP3   OH249616   4.182   8.652   5.658
16580TIP3    H149617   4.167   8.732   5.712
16580TIP3    H249618   4.166   8.579   5.721
16581TIP3   OH249619   3.793   8.596   6.192
16581TIP3    H149620   3.728   8.646   6.246
16581TIP3    H249621   3.743   8.515   6.174
16582TIP3   OH249622   4.127   7.904   4.936
16582TIP3    H149623   4.186   7.964   4.988
16582TIP3    H249624   4.153   7.929   4.844
16583TIP3   OH249625   3.528   8.106   6.291
16583TIP3    H149626   3.587   8.177   6.322
16583TIP3    H249627   3.441   8.132   6.327
16584TIP3   OH249628   3.869   8.585   5.208
16584TIP3    H149629   3.946   8.639   5.231
16584TIP3    H249630   3.807   8.649   5.171
16585TIP3   OH249631   3.582   8.748   6.293
16585TIP3    H149632   3.548   8.739   6.202
16585TIP3    H249633   3.503   8.723   6.347
16586TIP3   OH249634   4.642   7.146   4.983
16586TIP3    H149635   4.561   7.166   5.034
16586TIP3    H249636   4.655   7.230   4.934
16587TIP3   OH249637   3.387   7.886   5.327
16587TIP3    H149638   3.320   7.932   5.272
16587TIP3    H249639   3.342   7.803   5.346
16588TIP3   OH249640   4.440   8.513   4.530
16588TIP3    H149641   4.449   8.610   4.518
16588TIP3    H249642   4.533   8.484   4.518
16589TIP3   OH249643   3.164   8.273   6.237
16589TIP3    H149644   3.100   8.245   6.168
16589TIP3    H249645   3.199   8.188   6.270
16590TIP3   OH249646   3.020   8.465   5.870
16590TIP3    H149647   3.116   8.456   5.863
16590TIP3    H249648   3.013   8.541   5.929
16591TIP3   OH249649   4.885   8.914   5.924
16591TIP3    H149650   4.883   8.818   5.941
16591TIP3    H249651   4.802   8.941   5.971
16592TIP3   OH249652   3.993   8.707   6.053
16592TIP3    H149653   3.992   8.797   6.090
16592TIP3    H249654   3.920   8.666   6.105
16593TIP3   OH249655   3.749   8.830   5.015
16593TIP3    H149656   3.705   8.811   4.929
16593TIP3    H249657   3.718   8.920   5.035
16594TIP3   OH249658   3.187   8.681   5.398
16594TIP3    H149659   3.238   8.672   5.482
16594TIP3    H249660   3.130   8.602   5.405
16595TIP3   OH249661   3.955   8.735   4.650
16595TIP3    H149662   4.014   8.663   4.617
16595TIP3    H249663   3.984   8.743   4.744
16596TIP3   OH249664   4.000   8.779   4.923
16596TIP3    H149665   3.911   8.790   4.963
16596TIP3    H249666   4.048   8.738   4.996
16597TIP3   OH249667   4.775   8.047   6.200
16597TIP3    H149668   4.693   8.062   6.152
16597TIP3    H249669   4.787   7.951   6.189
16598TIP3   OH249670   3.364   8.460   6.224
16598TIP3    H149671   3.417   8.442   6.305
16598TIP3    H249672   3.293   8.393   6.232
16599TIP3   OH249673   3.770   7.277   6.011
16599TIP3    H149674   3.680   7.248   5.986
16599TIP3    H249675   3.748   7.361   6.055
16600TIP3   OH249676   4.302   7.391   6.205
16600TIP3    H149677   4.370   7.366   6.272
16600TIP3    H249678   4.218   7.373   6.252
16601TIP3   OH249679   4.546   7.825   6.126
16601TIP3    H149680   4.494   7.818   6.209
16601TIP3    H249681   4.517   7.911   6.089
16602TIP3   OH249682   4.201   7.953   4.679
16602TIP3    H149683   4.170   7.926   4.591
16602TIP3    H249684   4.282   8.002   4.656
16603TIP3   OH249685   3.913   7.329   4.981
16603TIP3    H149686   3.883   7.326   5.074
16603TIP3    H249687   3.877   7.244   4.949
16604TIP3   OH249688   3.698   7.794   6.026
16604TIP3    H149689   3.647   7.816   6.107
16604TIP3    H249690   3.687   7.876   5.974
16605TIP3   OH249691   3.586   7.677   5.543
16605TIP3    H149692   3.493   7.653   5.561
16605TIP3    H249693   3.598   7.637   5.455
16606TIP3   OH249694   4.075   7.764   5.270
16606TIP3    H149695   4.022   7.836   5.229
16606TIP3    H249696   4.130   7.735   5.194
16607TIP3   OH249697   4.267   8.039   6.348
16607TIP3    H149698   4.226   7.980   6.414
16607TIP3    H249699   4.356   8.052   6.387
16608TIP3   OH249700   4.234   7.794   5.511
16608TIP3    H149701   4.174   7.825   5.441
16608TIP3    H249702   4.266   7.712   5.467
16609TIP3   OH249703   3.529   7.826   6.239
16609TIP3    H149704   3.538   7.908   6.291
16609TIP3    H249705   3.519   7.756   6.306
16610TIP3   OH249706   3.567   7.298   4.948
16610TIP3    H149707   3.564   7.296   5.045
16610TIP3    H249708   3.490   7.354   4.927
16611TIP3   OH249709   3.114   7.343   5.817
16611TIP3    H149710   3.186   7.378   5.874
16611TIP3    H249711   3.162   7.314   5.738
16612TIP3   OH249712   3.086   7.325   5.337
16612TIP3    H149713   3.134   7.363   5.260
16612TIP3    H249714   3.028   7.400   5.359
16613TIP3   OH249715   4.251   8.042   5.936
16613TIP3    H149716   4.278   7.967   5.878
16613TIP3    H249717   4.209   7.993   6.010
16614TIP3   OH249718   3.910   7.499   5.605
16614TIP3    H149719   3.829   7.500   5.658
16614TIP3    H249720   3.979   7.505   5.673
16615TIP3   OH249721   3.347   7.557   5.613
16615TIP3    H149722   3.252   7.563   5.586
16615TIP3    H249723   3.371   7.466   5.589
16616TIP3   OH249724   3.617   7.551   5.301
16616TIP3    H149725   3.711   7.569   5.282
16616TIP3    H249726   3.572   7.577   5.217
16617TIP3   OH249727   4.406   7.575   5.801
16617TIP3    H149728   4.376   7.588   5.894
16617TIP3    H249729   4.337   7.516   5.768
16618TIP3   OH249730   3.456   7.585   5.079
16618TIP3    H149731   3.384   7.543   5.028
16618TIP3    H249732   3.509   7.623   5.006
16619TIP3   OH249733   4.571   9.265   6.026
16619TIP3    H149734   4.571   9.288   5.931
16619TIP3    H249735   4.652   9.310   6.057
16620TIP3   OH249736   3.515   8.382   6.439
16620TIP3    H149737   3.609   8.367   6.459
16620TIP3    H249738   3.476   8.387   6.528
16621TIP3   OH249739   3.994   7.826   5.699
16621TIP3    H149740   4.072   7.790   5.654
16621TIP3    H249741   4.006   7.794   5.790
16622TIP3   OH249742   3.517   7.318   5.578
16622TIP3    H149743   3.486   7.238   5.625
16622TIP3    H249744   3.574   7.282   5.510
16623TIP3   OH249745   3.972   7.725   6.001
16623TIP3    H149746   3.885   7.770   6.006
16623TIP3    H249747   4.032   7.790   6.042
16624TIP3   OH249748   3.710   8.117   5.086
16624TIP3    H149749   3.636   8.053   5.075
16624TIP3    H249750   3.692   8.151   5.177
16625TIP3   OH249751   4.610   8.353   5.717
16625TIP3    H149752   4.632   8.402   5.636
16625TIP3    H249753   4.524   8.311   5.694
16626TIP3   OH249754   4.167   7.430   4.947
16626TIP3    H149755   4.070   7.415   4.956
16626TIP3    H249756   4.178   7.524   4.972
16627TIP3   OH249757   4.118   8.439   6.084
16627TIP3    H149758   4.103   8.393   6.168
16627TIP3    H249759   4.066   8.520   6.096
16628TIP3   OH249760   4.238   7.676   5.051
16628TIP3    H149761   4.334   7.682   5.068
16628TIP3    H249762   4.220   7.756   4.999
16629TIP3   OH249763   3.394   8.130   5.763
16629TIP3    H149764   3.440   8.107   5.680
16629TIP3    H249765   3.445   8.079   5.829
16630TIP3   OH249766   3.853   8.267   4.905
16630TIP3    H149767   3.806   8.353   4.911
16630TIP3    H249768   3.799   8.212   4.967
16631TIP3   OH249769   3.264   8.069   6.388
16631TIP3    H149770   3.299   8.051   6.478
16631TIP3    H249771   3.207   7.992   6.373
16632TIP3   OH249772   4.270   8.703   5.973
16632TIP3    H149773   4.174   8.692   5.990
16632TIP3    H249774   4.297   8.749   6.056
16633TIP3   OH249775   4.678   7.765   4.889
16633TIP3    H149776   4.616   7.721   4.827
16633TIP3    H249777   4.676   7.854   4.848
16634TIP3   OH249778   4.898   8.623   5.969
16634TIP3    H149779   4.800   8.619   5.962
16634TIP3    H249780   4.923   8.594   5.879
16635TIP3   OH249781   4.381   8.586   4.797
16635TIP3    H149782   4.353   8.518   4.860
16635TIP3    H249783   4.390   8.536   4.714
16636TIP3   OH249784   4.376   8.216   5.634
16636TIP3    H149785   4.283   8.190   5.650
16636TIP3    H249786   4.409   8.135   5.590
16637TIP3   OH249787   3.500   8.439   5.381
16637TIP3    H149788   3.502   8.523   5.332
16637TIP3    H249789   3.406   8.430   5.400
16638TIP3   OH249790   3.064   7.748   5.088
16638TIP3    H149791   3.112   7.830   5.109
16638TIP3    H249792   2.989   7.754   5.151
16639TIP3   OH249793   3.642   8.208   5.331
16639TIP3    H149794   3.606   8.297   5.348
16639TIP3    H249795   3.608   8.158   5.407
16640TIP3   OH249796   3.769   8.787   5.857
16640TIP3    H149797   3.814   8.859   5.808
16640TIP3    H249798   3.843   8.751   5.909
16641TIP3   OH249799   3.421   8.683   5.238
16641TIP3    H149800   3.336   8.691   5.285
16641TIP3    H249801   3.454   8.775   5.242
16642TIP3   OH249802   4.162   8.420   5.816
16642TIP3    H149803   4.153   8.423   5.914
16642TIP3    H249804   4.241   8.366   5.806
16643TIP3   OH249805   4.133   8.313   4.698
16643TIP3    H149806   4.187   8.287   4.776
16643TIP3    H249807   4.045   8.288   4.728
16644TIP3   OH249808   4.410   8.954   5.867
16644TIP3    H149809   4.332   8.894   5.864
16644TIP3    H249810   4.389   9.017   5.794
16645TIP3   OH249811   4.474   8.789   4.518
16645TIP3    H149812   4.512   8.864   4.468
16645TIP3    H249813   4.394   8.833   4.552
16646TIP3   OH249814   3.496   7.561   6.388
16646TIP3    H149815   3.400   7.570   6.403
16646TIP3    H249816   3.523   7.503   6.461
16647TIP3   OH249817   4.293   8.245   4.912
16647TIP3    H149818   4.283   8.181   4.986
16647TIP3    H249819   4.391   8.245   4.903
16648TIP3   OH249820   3.210   8.648   6.017
16648TIP3    H149821   3.264   8.575   6.051
16648TIP3    H249822   3.236   8.719   6.077
16649TIP3   OH249823   3.501   8.293   4.698
16649TIP3    H149824   3.516   8.200   4.671
16649TIP3    H249825   3.482   8.283   4.793
16650TIP3   OH249826   3.447   8.301   4.970
16650TIP3    H149827   3.517   8.275   5.032
16650TIP3    H249828   3.451   8.399   4.975
16651TIP3   OH249829   3.180   7.991   5.173
16651TIP3    H149830   3.116   8.037   5.231
16651TIP3    H249831   3.197   8.061   5.107
16652TIP3   OH249832   4.339   7.621   6.058
16652TIP3    H149833   4.407   7.668   6.109
16652TIP3    H249834   4.317   7.545   6.117
16653TIP3   OH249835   4.210   7.381   5.229
16653TIP3    H149836   4.197   7.406   5.135
16653TIP3    H249837   4.249   7.463   5.266
16654TIP3   OH249838   3.710   8.497   4.917
16654TIP3    H149839   3.624   8.525   4.954
16654TIP3    H249840   3.729   8.574   4.860
16655TIP3   OH249841   3.899   7.560   5.332
16655TIP3    H149842   3.964   7.631   5.315
16655TIP3    H249843   3.904   7.552   5.430
16656TIP3   OH249844   4.171   7.876   6.142
16656TIP3    H149845   4.181   7.943   6.212
16656TIP3    H249846   4.231   7.807   6.172
16657TIP3   OH249847   4.044   7.288   5.435
16657TIP3    H149848   4.038   7.363   5.496
16657TIP3    H249849   4.105   7.325   5.367
16658TIP3   OH249850   3.453   8.577   4.983
16658TIP3    H149851   3.412   8.643   4.925
16658TIP3    H249852   3.441   8.617   5.072
16659TIP3   OH249853   3.556   7.285   5.224
16659TIP3    H149854   3.554   7.376   5.260
16659TIP3    H249855   3.651   7.266   5.233
16660TIP3   OH249856   4.812   7.777   6.121
16660TIP3    H149857   4.713   7.778   6.130
16660TIP3    H249858   4.820   7.741   6.032
16661TIP3   OH249859   4.461   7.973   5.508
16661TIP3    H149860   4.384   7.915   5.522
16661TIP3    H249861   4.532   7.926   5.557
16662TIP3   OH249862   3.171   8.203   4.980
16662TIP3    H149863   3.232   8.278   4.987
16662TIP3    H249864   3.219   8.151   4.912
16663TIP3   OH249865   3.117   7.478   5.112
16663TIP3    H149866   3.121   7.575   5.107
16663TIP3    H249867   3.032   7.459   5.072
16664TIP3   OH249868   4.428   8.929   5.459
16664TIP3    H149869   4.386   8.976   5.384
16664TIP3    H249870   4.523   8.947   5.438
16665TIP3   OH249871   3.505   7.198   5.987
16665TIP3    H149872   3.474   7.165   5.900
16665TIP3    H249873   3.494   7.119   6.044
16666TIP3   OH249874   3.045   8.413   5.368
16666TIP3    H149875   2.973   8.446   5.423
16666TIP3    H249876   3.023   8.454   5.282
16667TIP3   OH249877   3.202   8.957   6.435
16667TIP3    H149878   3.287   8.957   6.483
16667TIP3    H249879   3.182   8.862   6.435
16668TIP3   OH249880   3.685   8.927   6.480
16668TIP3    H149881   3.778   8.899   6.489
16668TIP3    H249882   3.655   8.867   6.409
16669TIP3   OH249883   3.661   8.497   4.607
16669TIP3    H149884   3.605   8.428   4.648
16669TIP3    H249885   3.738   8.444   4.580
16670TIP3   OH249886   4.324   8.828   6.213
16670TIP3    H149887   4.312   8.759   6.283
16670TIP3    H249888   4.400   8.878   6.247
16671TIP3   OH249889   4.101   8.538   4.522
16671TIP3    H149890   4.143   8.474   4.581
16671TIP3    H249891   4.159   8.537   4.443
16672TIP3   OH249892   3.328   8.362   6.648
16672TIP3    H149893   3.347   8.267   6.642
16672TIP3    H249894   3.243   8.367   6.599
16673TIP3   OH249895   3.307   8.014   4.831
16673TIP3    H149896   3.363   7.984   4.905
16673TIP3    H249897   3.375   8.020   4.760
16674TIP3   OH249898   3.817   8.213   4.637
16674TIP3    H149899   3.819   8.227   4.733
16674TIP3    H249900   3.815   8.115   4.633
16675TIP3   OH249901   4.433   8.451   6.018
16675TIP3    H149902   4.501   8.506   5.974
16675TIP3    H249903   4.355   8.508   6.012
16676TIP3   OH249904   3.449   8.093   6.620
16676TIP3    H149905   3.534   8.062   6.587
16676TIP3    H249906   3.473   8.128   6.708
16677TIP3   OH249907   3.514   7.919   5.053
16677TIP3    H149908   3.490   7.880   5.138
16677TIP3    H249909   3.551   7.842   5.004
16678TIP3   OH249910   3.616   7.710   4.895
16678TIP3    H149911   3.591   7.714   4.801
16678TIP3    H249912   3.714   7.717   4.888
16679TIP3   OH249913   4.313   8.393   6.423
16679TIP3    H149914   4.379   8.357   6.362
16679TIP3    H249915   4.292   8.317   6.479
16680TIP3   OH249916   4.440   8.044   4.556
16680TIP3    H149917   4.418   7.997   4.473
16680TIP3    H249918   4.406   8.134   4.532
16681TIP3   OH249919   3.908   7.770   6.404
16681TIP3    H149920   3.910   7.686   6.355
16681TIP3    H249921   3.888   7.834   6.334
16682TIP3   OH249922   3.911   7.553   6.215
16682TIP3    H149923   3.938   7.602   6.134
16682TIP3    H249924   3.817   7.535   6.195
16683TIP3   OH249925   3.953   8.065   6.039
16683TIP3    H149926   4.028   8.122   6.021
16683TIP3    H249927   3.886   8.128   6.068
16684TIP3   OH249928   4.524   8.059   6.474
16684TIP3    H149929   4.576   7.978   6.476
16684TIP3    H249930   4.587   8.123   6.437
16685TIP3   OH249931   4.563   8.312   6.208
16685TIP3    H149932   4.504   8.363   6.148
16685TIP3    H249933   4.650   8.333   6.166
16686TIP3   OH249934   3.792   7.877   6.648
16686TIP3    H149935   3.717   7.814   6.653
16686TIP3    H249936   3.820   7.866   6.555
16687TIP3   OH249937   4.043   7.321   6.283
16687TIP3    H149938   3.995   7.403   6.258
16687TIP3    H249939   3.973   7.254   6.270
16688TIP3   OH249940   4.171   7.825   6.497
16688TIP3    H149941   4.158   7.820   6.594
16688TIP3    H249942   4.081   7.804   6.467
16689TIP3   OH249943   4.407   7.764   6.350
16689TIP3    H149944   4.332   7.780   6.410
16689TIP3    H249945   4.479   7.740   6.411
16690TIP3   OH249946   4.643   7.716   6.506
16690TIP3    H149947   4.651   7.621   6.525
16690TIP3    H249948   4.635   7.755   6.596
16691TIP3   OH249949   3.620   7.662   6.691
16691TIP3    H149950   3.633   7.573   6.655
16691TIP3    H249951   3.657   7.653   6.781
16692TIP3   OH249952   4.137   7.328   6.540
16692TIP3    H149953   4.205   7.259   6.532
16692TIP3    H249954   4.097   7.325   6.451
16693TIP3   OH249955   4.202   7.544   6.701
16693TIP3    H149956   4.180   7.475   6.634
16693TIP3    H249957   4.127   7.606   6.693
16694TIP3   OH249958   2.903   8.156   5.016
16694TIP3    H149959   2.998   8.180   5.002
16694TIP3    H249960   2.900   8.068   4.974
16695TIP3   OH249961   2.817   8.769   5.428
16695TIP3    H149962   2.750   8.706   5.394
16695TIP3    H249963   2.862   8.713   5.495
16696TIP3   OH249964   2.954   8.622   5.615
16696TIP3    H149965   2.944   8.548   5.677
16696TIP3    H249966   3.006   8.683   5.671
16697TIP3   OH249967   4.682   9.018   5.414
16697TIP3    H149968   4.706   9.049   5.504
16697TIP3    H249969   4.741   9.071   5.358
16698TIP3   OH249970   4.714   9.040   5.695
16698TIP3    H149971   4.667   8.954   5.692
16698TIP3    H249972   4.783   9.018   5.759
16699TIP3   OH249973   4.759   8.717   6.270
16699TIP3    H149974   4.684   8.726   6.333
16699TIP3    H249975   4.799   8.806   6.275
16700TIP3   OH249976   4.574   8.230   4.890
16700TIP3    H149977   4.643   8.294   4.863
16700TIP3    H249978   4.615   8.191   4.970
16701TIP3   OH249979   4.700   8.100   5.095
16701TIP3    H149980   4.635   8.056   5.153
16701TIP3    H249981   4.765   8.137   5.159
16702TIP3   OH249982   4.757   8.489   5.527
16702TIP3    H149983   4.809   8.425   5.475
16702TIP3    H249984   4.743   8.561   5.463
16703TIP3   OH249985   4.587   8.791   5.720
16703TIP3    H149986   4.516   8.832   5.774
16703TIP3    H249987   4.535   8.743   5.652
16704TIP3   OH249988   4.639   8.005   4.741
16704TIP3    H149989   4.567   8.008   4.673
16704TIP3    H249990   4.612   8.081   4.797
16705TIP3   OH249991   4.510   7.679   4.695
16705TIP3    H149992   4.467   7.717   4.617
16705TIP3    H249993   4.485   7.584   4.686
16706TIP3   OH249994   4.516   7.954   5.240
16706TIP3    H149995   4.524   7.857   5.235
16706TIP3    H249996   4.502   7.969   5.336
16707TIP3   OH249997   3.143   8.028   5.985
16707TIP3    H149998   3.142   8.000   5.892
16707TIP3    H249999   3.240   8.029   6.003
16708TIP3   OH250000   4.805   8.379   6.097
16708TIP3    H150001   4.877   8.314   6.087
16708TIP3    H250002   4.831   8.449   6.035
16709TIP3   OH250003   4.991   8.185   6.113
16709TIP3    H150004   4.916   8.136   6.153
16709TIP3    H250005   5.063   8.120   6.128
16710TIP3   OH250006   4.454   7.413   4.682
16710TIP3    H150007   4.530   7.383   4.735
16710TIP3    H250008   4.382   7.353   4.708
16711TIP3   OH250009   4.511   7.670   5.136
16711TIP3    H150010   4.551   7.581   5.151
16711TIP3    H250011   4.570   7.702   5.066
16712TIP3   OH250012   4.673   7.844   5.630
16712TIP3    H150013   4.759   7.870   5.591
16712TIP3    H250014   4.686   7.881   5.720
16713TIP3   OH250015   4.741   7.988   5.863
16713TIP3    H150016   4.663   8.021   5.912
16713TIP3    H250017   4.773   8.069   5.819
16714TIP3   OH250018   3.353   7.709   6.652
16714TIP3    H150019   3.451   7.708   6.658
16714TIP3    H250020   3.332   7.628   6.702
16715TIP3   OH250021   5.196   7.579   6.420
16715TIP3    H150022   5.253   7.513   6.375
16715TIP3    H250023   5.165   7.634   6.344
16716TIP3   OH250024   4.620   7.420   5.173
16716TIP3    H150025   4.669   7.405   5.257
16716TIP3    H250026   4.560   7.343   5.173
16717TIP3   OH250027   3.319   7.406   5.992
16717TIP3    H150028   3.383   7.333   6.003
16717TIP3    H250029   3.380   7.482   5.986
16718TIP3   OH250030   3.123   7.679   6.065
16718TIP3    H150031   3.174   7.677   5.982
16718TIP3    H250032   3.148   7.764   6.101
16719TIP3   OH250033   5.065   7.719   6.227
16719TIP3    H150034   4.978   7.760   6.247
16719TIP3    H250035   5.036   7.649   6.166
16720TIP3   OH250036   4.701   7.356   4.804
16720TIP3    H150037   4.743   7.283   4.754
16720TIP3    H250038   4.769   7.426   4.800
16721TIP3   OH250039   3.106   7.178   5.562
16721TIP3    H150040   3.014   7.183   5.593
16721TIP3    H250041   3.105   7.240   5.486
16722TIP3   OH250042   4.266   8.886   5.072
16722TIP3    H150043   4.319   8.872   4.990
16722TIP3    H250044   4.318   8.953   5.118
16723TIP3   OH250045   3.325   7.259   6.379
16723TIP3    H150046   3.277   7.260   6.464
16723TIP3    H250047   3.260   7.301   6.320
16724TIP3   OH250048   3.364   8.696   6.458
16724TIP3    H150049   3.274   8.663   6.441
16724TIP3    H250050   3.378   8.671   6.550
16725TIP3   OH250051   3.541   8.721   6.006
16725TIP3    H150052   3.497   8.799   5.966
16725TIP3    H250053   3.629   8.731   5.965
16726TIP3   OH250054   3.991   8.970   6.144
16726TIP3    H150055   4.032   8.969   6.233
16726TIP3    H250056   4.057   9.020   6.092
16727TIP3   OH250057   4.170   9.120   6.000
16727TIP3    H150058   4.241   9.066   5.963
16727TIP3    H250059   4.220   9.176   6.062
16728TIP3   OH250060   4.963   7.482   6.103
16728TIP3    H150061   4.872   7.480   6.067
16728TIP3    H250062   4.991   7.389   6.089
16729TIP3   OH250063   3.221   8.980   6.027
16729TIP3    H150064   3.131   9.015   6.007
16729TIP3    H250065   3.234   9.014   6.116
16730TIP3   OH250066   3.458   8.960   5.886
16730TIP3    H150067   3.372   8.972   5.932
16730TIP3    H250068   3.437   8.993   5.797
16731TIP3   OH250069   3.885   8.990   5.682
16731TIP3    H150070   3.814   9.010   5.618
16731TIP3    H250071   3.896   9.076   5.727
16732TIP3   OH250072   4.152   8.929   5.732
16732TIP3    H150073   4.057   8.943   5.715
16732TIP3    H250074   4.191   9.009   5.695
16733TIP3   OH250075   4.364   9.122   5.652
16733TIP3    H150076   4.348   9.205   5.603
16733TIP3    H250077   4.386   9.060   5.579
16734TIP3   OH250078   3.133   8.774   5.774
16734TIP3    H150079   3.159   8.749   5.865
16734TIP3    H250080   3.205   8.729   5.724
16735TIP3   OH250081   3.327   8.644   5.629
16735TIP3    H150082   3.342   8.560   5.678
16735TIP3    H250083   3.418   8.681   5.627
16736TIP3   OH250084   3.592   8.740   5.634
16736TIP3    H150085   3.623   8.647   5.624
16736TIP3    H250086   3.636   8.762   5.718
16737TIP3   OH250087   4.168   7.396   5.718
16737TIP3    H150088   4.125   7.328   5.772
16737TIP3    H250089   4.242   7.348   5.677
16738TIP3   OH250090   4.692   7.275   5.627
16738TIP3    H150091   4.729   7.328   5.552
16738TIP3    H250092   4.597   7.296   5.621
16739TIP3   OH250093   4.787   7.376   5.390
16739TIP3    H150094   4.860   7.325   5.349
16739TIP3    H250095   4.820   7.468   5.376
16740TIP3   OH250096   3.417   7.105   5.737
16740TIP3    H150097   3.325   7.071   5.739
16740TIP3    H250098   3.467   7.020   5.735
16741TIP3   OH250099   3.196   6.975   5.383
16741TIP3    H150100   3.232   7.032   5.313
16741TIP3    H250101   3.173   7.040   5.452
16742TIP3   OH250102   3.859   7.138   5.618
16742TIP3    H150103   3.917   7.188   5.559
16742TIP3    H250104   3.881   7.177   5.704
16743TIP3   OH250105   4.408   7.284   5.602
16743TIP3    H150106   4.406   7.248   5.513
16743TIP3    H250107   4.394   7.202   5.656
16744TIP3   OH250108   4.437   7.206   5.164
16744TIP3    H150109   4.350   7.249   5.175
16744TIP3    H250110   4.422   7.121   5.211
16745TIP3   OH250111   2.919   8.544   5.169
16745TIP3    H150112   2.835   8.511   5.131
16745TIP3    H250113   2.911   8.638   5.149
16746TIP3   OH250114   3.320   7.136   5.148
16746TIP3    H150115   3.369   7.073   5.092
16746TIP3    H250116   3.393   7.190   5.185
16747TIP3   OH250117   3.833   7.309   5.248
16747TIP3    H150118   3.894   7.263   5.308
16747TIP3    H250119   3.854   7.402   5.273
16748TIP3   OH250120   3.701   8.731   4.758
16748TIP3    H150121   3.784   8.749   4.710
16748TIP3    H250122   3.660   8.667   4.696
16749TIP3   OH250123   4.413   8.853   4.839
16749TIP3    H150124   4.404   8.755   4.828
16749TIP3    H250125   4.366   8.885   4.759
16750TIP3   OH250126   3.625   7.381   6.624
16750TIP3    H150127   3.590   7.315   6.686
16750TIP3    H250128   3.719   7.385   6.653
16751TIP3   OH250129   3.872   7.383   6.747
16751TIP3    H150130   3.958   7.362   6.707
16751TIP3    H250131   3.863   7.310   6.812
16752TIP3   OH250132   2.993   8.561   4.808
16752TIP3    H150133   3.005   8.606   4.893
16752TIP3    H250134   3.083   8.525   4.791
16753TIP3   OH250135   4.698   7.443   6.535
16753TIP3    H150136   4.718   7.413   6.626
16753TIP3    H250137   4.786   7.440   6.493
16754TIP3   OH250138   4.641   8.998   6.024
16754TIP3    H150139   4.560   8.966   5.980
16754TIP3    H250140   4.618   9.093   6.032
16755TIP3   OH250141   5.897   8.370   4.796
16755TIP3    H150142   5.868   8.460   4.771
16755TIP3    H250143   5.832   8.316   4.748
16756TIP3   OH250144   5.891   8.367   5.172
16756TIP3    H150145   5.929   8.358   5.261
16756TIP3    H250146   5.869   8.274   5.155
16757TIP3   OH250147   5.213   8.268   5.530
16757TIP3    H150148   5.234   8.197   5.595
16757TIP3    H250149   5.278   8.334   5.555
16758TIP3   OH250150   6.142   8.670   4.858
16758TIP3    H150151   6.137   8.599   4.923
16758TIP3    H250152   6.174   8.745   4.911
16759TIP3   OH250153   5.177   8.671   5.261
16759TIP3    H150154   5.158   8.575   5.252
16759TIP3    H250155   5.257   8.667   5.314
16760TIP3   OH250156   4.879   7.882   5.046
16760TIP3    H150157   4.828   7.964   5.062
16760TIP3    H250158   4.809   7.824   5.012
16761TIP3   OH250159   4.943   8.164   5.221
16761TIP3    H150160   4.989   8.086   5.261
16761TIP3    H250161   4.999   8.180   5.144
16762TIP3   OH250162   5.794   9.133   4.874
16762TIP3    H150163   5.838   9.062   4.823
16762TIP3    H250164   5.797   9.098   4.964
16763TIP3   OH250165   6.717   7.914   5.221
16763TIP3    H150166   6.743   7.998   5.262
16763TIP3    H250167   6.735   7.932   5.127
16764TIP3   OH250168   6.136   8.103   5.257
16764TIP3    H150169   6.167   8.012   5.271
16764TIP3    H250170   6.075   8.091   5.182
16765TIP3   OH250171   5.452   7.764   5.213
16765TIP3    H150172   5.427   7.853   5.181
16765TIP3    H250173   5.394   7.705   5.160
16766TIP3   OH250174   6.147   7.841   4.841
16766TIP3    H150175   6.219   7.827   4.907
16766TIP3    H250176   6.199   7.880   4.769
16767TIP3   OH250177   5.085   7.960   5.333
16767TIP3    H150178   5.173   7.949   5.373
16767TIP3    H250179   5.097   7.901   5.255
16768TIP3   OH250180   6.789   8.122   5.391
16768TIP3    H150181   6.706   8.170   5.369
16768TIP3    H250182   6.799   8.149   5.484
16769TIP3   OH250183   5.448   7.739   5.656
16769TIP3    H150184   5.393   7.778   5.586
16769TIP3    H250185   5.394   7.759   5.735
16770TIP3   OH250186   5.768   8.581   4.676
16770TIP3    H150187   5.761   8.572   4.580
16770TIP3    H250188   5.743   8.675   4.689
16771TIP3   OH250189   5.560   8.522   5.450
16771TIP3    H150190   5.481   8.563   5.492
16771TIP3    H250191   5.616   8.599   5.436
16772TIP3   OH250192   6.358   7.847   5.014
16772TIP3    H150193   6.343   7.801   5.097
16772TIP3    H250194   6.408   7.926   5.041
16773TIP3   OH250195   5.324   7.852   5.441
16773TIP3    H150196   5.384   7.929   5.451
16773TIP3    H250197   5.365   7.811   5.362
16774TIP3   OH250198   5.374   8.707   5.539
16774TIP3    H150199   5.353   8.799   5.515
16774TIP3    H250200   5.300   8.690   5.602
16775TIP3   OH250201   4.779   8.398   4.784
16775TIP3    H150202   4.735   8.425   4.702
16775TIP3    H250203   4.808   8.484   4.821
16776TIP3   OH250204   6.213   8.913   5.025
16776TIP3    H150205   6.122   8.905   5.062
16776TIP3    H250206   6.207   9.000   4.981
16777TIP3   OH250207   6.507   7.816   5.388
16777TIP3    H150208   6.419   7.843   5.357
16777TIP3    H250209   6.565   7.847   5.315
16778TIP3   OH250210   5.808   7.460   5.371
16778TIP3    H150211   5.791   7.365   5.384
16778TIP3    H250212   5.729   7.498   5.416
16779TIP3   OH250213   5.914   8.961   4.695
16779TIP3    H150214   5.963   8.878   4.675
16779TIP3    H250215   5.977   9.026   4.656
16780TIP3   OH250216   6.049   8.740   4.606
16780TIP3    H150217   6.051   8.660   4.550
16780TIP3    H250218   6.088   8.707   4.690
16781TIP3   OH250219   6.443   8.828   5.368
16781TIP3    H150220   6.433   8.750   5.309
16781TIP3    H250221   6.428   8.902   5.306
16782TIP3   OH250222   5.736   8.227   4.622
16782TIP3    H150223   5.655   8.268   4.587
16782TIP3    H250224   5.789   8.214   4.540
16783TIP3   OH250225   5.694   8.006   4.342
16783TIP3    H150226   5.764   8.056   4.388
16783TIP3    H250227   5.748   7.940   4.294
16784TIP3   OH250228   6.638   8.463   5.212
16784TIP3    H150229   6.555   8.516   5.217
16784TIP3    H250230   6.668   8.487   5.122
16785TIP3   OH250231   6.081   8.304   4.600
16785TIP3    H150232   6.030   8.327   4.681
16785TIP3    H250233   6.166   8.275   4.640
16786TIP3   OH250234   6.317   8.343   5.507
16786TIP3    H150235   6.312   8.428   5.554
16786TIP3    H250236   6.231   8.343   5.461
16787TIP3   OH250237   5.359   8.305   5.005
16787TIP3    H150238   5.296   8.258   4.945
16787TIP3    H250239   5.380   8.231   5.067
16788TIP3   OH250240   5.967   8.912   5.140
16788TIP3    H150241   5.963   8.990   5.198
16788TIP3    H250242   5.965   8.837   5.204
16789TIP3   OH250243   5.586   8.828   5.688
16789TIP3    H150244   5.530   8.891   5.739
16789TIP3    H250245   5.517   8.775   5.644
16790TIP3   OH250246   5.921   8.164   4.423
16790TIP3    H150247   5.983   8.221   4.475
16790TIP3    H250248   5.947   8.187   4.331
16791TIP3   OH250249   5.338   8.392   5.784
16791TIP3    H150250   5.344   8.475   5.835
16791TIP3    H250251   5.245   8.367   5.804
16792TIP3   OH250252   5.663   8.845   4.708
16792TIP3    H150253   5.745   8.898   4.715
16792TIP3    H250254   5.603   8.905   4.662
16793TIP3   OH250255   5.382   8.995   5.779
16793TIP3    H150256   5.343   8.994   5.690
16793TIP3    H250257   5.304   8.975   5.836
16794TIP3   OH250258   6.438   7.403   4.471
16794TIP3    H150259   6.357   7.423   4.521
16794TIP3    H250260   6.451   7.486   4.421
16795TIP3   OH250261   5.183   8.153   4.819
16795TIP3    H150262   5.111   8.186   4.762
16795TIP3    H250263   5.153   8.063   4.840
16796TIP3   OH250264   6.237   8.770   4.020
16796TIP3    H150265   6.247   8.867   4.004
16796TIP3    H250266   6.330   8.740   4.006
16797TIP3   OH250267   4.963   8.528   5.724
16797TIP3    H150268   4.894   8.505   5.658
16797TIP3    H250269   4.997   8.440   5.750
16798TIP3   OH250270   4.814   8.723   5.355
16798TIP3    H150271   4.910   8.721   5.353
16798TIP3    H250272   4.796   8.800   5.410
16799TIP3   OH250273   6.678   9.172   5.414
16799TIP3    H150274   6.677   9.075   5.424
16799TIP3    H250275   6.594   9.196   5.460
16800TIP3   OH250276   5.782   8.961   5.545
16800TIP3    H150277   5.784   9.053   5.580
16800TIP3    H250278   5.713   8.920   5.603
16801TIP3   OH250279   5.547   9.086   4.501
16801TIP3    H150280   5.501   9.068   4.416
16801TIP3    H250281   5.515   9.175   4.524
16802TIP3   OH250282   4.984   8.937   4.882
16802TIP3    H150283   5.031   8.927   4.968
16802TIP3    H250284   4.927   8.859   4.884
16803TIP3   OH250285   5.748   8.987   4.140
16803TIP3    H150286   5.807   8.918   4.103
16803TIP3    H250287   5.783   8.997   4.231
16804TIP3   OH250288   5.799   9.037   4.410
16804TIP3    H150289   5.711   9.046   4.453
16804TIP3    H250290   5.851   8.998   4.482
16805TIP3   OH250291   6.569   8.303   5.688
16805TIP3    H150292   6.489   8.317   5.635
16805TIP3    H250293   6.583   8.207   5.676
16806TIP3   OH250294   5.168   8.709   5.713
16806TIP3    H150295   5.216   8.696   5.797
16806TIP3    H250296   5.093   8.646   5.722
16807TIP3   OH250297   5.567   7.533   5.496
16807TIP3    H150298   5.477   7.503   5.471
16807TIP3    H250299   5.544   7.618   5.539
16808TIP3   OH250300   6.099   7.650   5.692
16808TIP3    H150301   6.165   7.622   5.757
16808TIP3    H250302   6.014   7.630   5.736
16809TIP3   OH250303   6.344   8.080   5.613
16809TIP3    H150304   6.290   8.076   5.696
16809TIP3    H250305   6.315   8.164   5.573
16810TIP3   OH250306   5.998   8.213   4.168
16810TIP3    H150307   5.965   8.184   4.082
16810TIP3    H250308   6.082   8.255   4.142
16811TIP3   OH250309   5.712   7.585   4.468
16811TIP3    H150310   5.680   7.582   4.560
16811TIP3    H250311   5.673   7.501   4.435
16812TIP3   OH250312   5.510   8.053   5.522
16812TIP3    H150313   5.441   8.085   5.583
16812TIP3    H250314   5.486   8.094   5.436
16813TIP3   OH250315   5.873   8.023   4.757
16813TIP3    H150316   5.819   8.093   4.714
16813TIP3    H250317   5.927   7.991   4.682
16814TIP3   OH250318   6.047   8.302   5.847
16814TIP3    H150319   6.024   8.228   5.907
16814TIP3    H250320   6.141   8.313   5.867
16815TIP3   OH250321   6.042   8.054   4.986
16815TIP3    H150322   5.975   8.079   4.920
16815TIP3    H250323   6.071   7.969   4.948
16816TIP3   OH250324   5.310   8.083   5.723
16816TIP3    H150325   5.342   8.142   5.793
16816TIP3    H250326   5.302   7.998   5.770
16817TIP3   OH250327   5.367   7.557   4.434
16817TIP3    H150328   5.361   7.553   4.532
16817TIP3    H250329   5.286   7.607   4.412
16818TIP3   OH250330   4.912   7.600   5.307
16818TIP3    H150331   4.985   7.637   5.359
16818TIP3    H250332   4.955   7.576   5.224
16819TIP3   OH250333   4.883   7.581   4.824
16819TIP3    H150334   4.931   7.620   4.747
16819TIP3    H250335   4.823   7.656   4.846
16820TIP3   OH250336   6.043   8.300   5.417
16820TIP3    H150337   6.077   8.228   5.358
16820TIP3    H250338   6.012   8.246   5.493
16821TIP3   OH250339   5.709   7.758   5.092
16821TIP3    H150340   5.622   7.760   5.137
16821TIP3    H250341   5.770   7.759   5.168
16822TIP3   OH250342   5.134   7.798   5.123
16822TIP3    H150343   5.049   7.814   5.077
16822TIP3    H250344   5.176   7.727   5.072
16823TIP3   OH250345   5.415   7.787   4.777
16823TIP3    H150346   5.504   7.827   4.777
16823TIP3    H250347   5.367   7.835   4.707
16824TIP3   OH250348   6.200   7.831   5.294
16824TIP3    H150349   6.164   7.846   5.384
16824TIP3    H250350   6.132   7.772   5.257
16825TIP3   OH250351   5.242   7.858   4.565
16825TIP3    H150352   5.175   7.805   4.519
16825TIP3    H250353   5.300   7.883   4.490
16826TIP3   OH250354   6.369   9.523   5.512
16826TIP3    H150355   6.370   9.544   5.417
16826TIP3    H250356   6.451   9.569   5.542
16827TIP3   OH250357   5.329   8.633   5.934
16827TIP3    H150358   5.408   8.664   5.983
16827TIP3    H250359   5.264   8.633   6.006
16828TIP3   OH250360   5.836   8.100   5.202
16828TIP3    H150361   5.844   8.030   5.137
16828TIP3    H250362   5.786   8.058   5.273
16829TIP3   OH250363   5.313   7.579   5.061
16829TIP3    H150364   5.283   7.499   5.109
16829TIP3    H250365   5.365   7.542   4.989
16830TIP3   OH250366   5.770   7.973   5.487
16830TIP3    H150367   5.680   8.012   5.495
16830TIP3    H250368   5.827   8.041   5.526
16831TIP3   OH250369   5.497   8.375   4.567
16831TIP3    H150370   5.430   8.304   4.547
16831TIP3    H250371   5.482   8.389   4.661
16832TIP3   OH250372   6.406   8.610   5.203
16832TIP3    H150373   6.431   8.659   5.122
16832TIP3    H250374   6.321   8.569   5.178
16833TIP3   OH250375   5.963   7.687   4.435
16833TIP3    H150376   5.867   7.670   4.443
16833TIP3    H250377   5.972   7.781   4.459
16834TIP3   OH250378   5.900   8.691   5.569
16834TIP3    H150379   5.925   8.665   5.659
16834TIP3    H250380   5.867   8.782   5.582
16835TIP3   OH250381   6.033   7.934   4.540
16835TIP3    H150382   6.130   7.937   4.555
16835TIP3    H250383   6.018   8.012   4.483
16836TIP3   OH250384   5.210   8.395   5.249
16836TIP3    H150385   5.251   8.356   5.170
16836TIP3    H250386   5.225   8.324   5.315
16837TIP3   OH250387   5.652   8.525   4.394
16837TIP3    H150388   5.605   8.612   4.400
16837TIP3    H250389   5.596   8.470   4.453
16838TIP3   OH250390   5.078   8.316   5.862
16838TIP3    H150391   5.097   8.302   5.957
16838TIP3    H250392   5.008   8.250   5.846
16839TIP3   OH250393   5.802   8.429   5.884
16839TIP3    H150394   5.742   8.373   5.833
16839TIP3    H250395   5.889   8.395   5.854
16840TIP3   OH250396   6.066   8.960   5.462
16840TIP3    H150397   5.970   8.952   5.475
16840TIP3    H250398   6.093   9.006   5.543
16841TIP3   OH250399   6.475   8.023   4.376
16841TIP3    H150400   6.412   7.978   4.315
16841TIP3    H250401   6.473   8.111   4.334
16842TIP3   OH250402   6.694   8.880   5.458
16842TIP3    H150403   6.596   8.875   5.448
16842TIP3    H250404   6.721   8.852   5.368
16843TIP3   OH250405   6.171   8.842   4.282
16843TIP3    H150406   6.154   8.767   4.341
16843TIP3    H250407   6.188   8.799   4.196
16844TIP3   OH250408   6.171   8.471   5.120
16844TIP3    H150409   6.078   8.444   5.132
16844TIP3    H250410   6.207   8.391   5.078
16845TIP3   OH250411   5.311   8.707   4.885
16845TIP3    H150412   5.300   8.782   4.824
16845TIP3    H250413   5.221   8.674   4.893
16846TIP3   OH250414   4.860   8.004   4.576
16846TIP3    H150415   4.907   8.086   4.599
16846TIP3    H250416   4.784   8.008   4.638
16847TIP3   OH250417   5.568   9.040   5.340
16847TIP3    H150418   5.611   9.114   5.292
16847TIP3    H250419   5.643   9.008   5.394
16848TIP3   OH250420   5.219   8.936   4.728
16848TIP3    H150421   5.133   8.944   4.773
16848TIP3    H250422   5.250   9.030   4.730
16849TIP3   OH250423   5.975   8.688   5.303
16849TIP3    H150424   5.953   8.678   5.398
16849TIP3    H250425   6.040   8.618   5.290
16850TIP3   OH250426   5.930   8.570   4.187
16850TIP3    H150427   5.983   8.546   4.267
16850TIP3    H250428   5.842   8.541   4.215
16851TIP3   OH250429   6.204   9.214   5.355
16851TIP3    H150430   6.128   9.153   5.349
16851TIP3    H250431   6.187   9.275   5.281
16852TIP3   OH250432   6.270   9.046   4.005
16852TIP3    H150433   6.311   9.119   3.955
16852TIP3    H250434   6.189   9.092   4.037
16853TIP3   OH250435   5.289   7.824   5.872
16853TIP3    H150436   5.193   7.828   5.884
16853TIP3    H250437   5.316   7.761   5.941
16854TIP3   OH250438   6.091   8.512   4.413
16854TIP3    H150439   6.081   8.438   4.476
16854TIP3    H250440   6.186   8.504   4.392
16855TIP3   OH250441   5.011   8.905   5.503
16855TIP3    H150442   5.057   8.829   5.541
16855TIP3    H250443   5.027   8.972   5.571
16856TIP3   OH250444   5.295   8.550   4.183
16856TIP3    H150445   5.311   8.458   4.154
16856TIP3    H250446   5.276   8.538   4.278
16857TIP3   OH250447   5.241   8.556   4.455
16857TIP3    H150448   5.314   8.528   4.511
16857TIP3    H250449   5.246   8.654   4.463
16858TIP3   OH250450   4.977   8.249   4.659
16858TIP3    H150451   4.911   8.292   4.717
16858TIP3    H250452   4.990   8.320   4.592
16859TIP3   OH250453   6.126   7.888   5.554
16859TIP3    H150454   6.208   7.922   5.593
16859TIP3    H250455   6.110   7.807   5.605
16860TIP3   OH250456   6.006   7.636   4.716
16860TIP3    H150457   5.992   7.660   4.622
16860TIP3    H250458   6.047   7.717   4.753
16861TIP3   OH250459   5.508   8.754   4.408
16861TIP3    H150460   5.421   8.782   4.442
16861TIP3    H250461   5.525   8.825   4.344
16862TIP3   OH250462   5.697   7.817   4.821
16862TIP3    H150463   5.763   7.887   4.805
16862TIP3    H250464   5.700   7.809   4.919
16863TIP3   OH250465   5.966   8.140   5.624
16863TIP3    H150466   5.985   8.191   5.705
16863TIP3    H250467   6.018   8.059   5.637
16864TIP3   OH250468   5.840   7.546   4.924
16864TIP3    H150469   5.827   7.625   4.981
16864TIP3    H250470   5.900   7.582   4.855
16865TIP3   OH250471   5.251   8.829   4.473
16865TIP3    H150472   5.221   8.898   4.410
16865TIP3    H250473   5.234   8.872   4.559
16866TIP3   OH250474   5.353   7.533   4.709
16866TIP3    H150475   5.355   7.626   4.742
16866TIP3    H250476   5.448   7.513   4.718
16867TIP3   OH250477   6.609   8.034   5.607
16867TIP3    H150478   6.511   8.034   5.617
16867TIP3    H250479   6.616   7.996   5.519
16868TIP3   OH250480   6.259   8.232   4.996
16868TIP3    H150481   6.182   8.172   5.008
16868TIP3    H250482   6.329   8.184   5.046
16869TIP3   OH250483   4.968   8.460   4.465
16869TIP3    H150484   5.034   8.531   4.474
16869TIP3    H250485   5.014   8.405   4.398
16870TIP3   OH250486   4.915   7.734   4.597
16870TIP3    H150487   4.913   7.832   4.594
16870TIP3    H250488   4.829   7.711   4.560
16871TIP3   OH250489   6.224   9.185   4.946
16871TIP3    H150490   6.183   9.233   4.871
16871TIP3    H250491   6.319   9.205   4.927
16872TIP3   OH250492   5.301   7.455   5.473
16872TIP3    H150493   5.270   7.424   5.386
16872TIP3    H250494   5.289   7.376   5.529
16873TIP3   OH250495   4.842   8.675   4.854
16873TIP3    H150496   4.770   8.704   4.912
16873TIP3    H250497   4.813   8.714   4.768
16874TIP3   OH250498   5.000   9.218   5.920
16874TIP3    H150499   5.081   9.218   5.975
16874TIP3    H250500   4.973   9.125   5.926
16875TIP3   OH250501   5.485   9.190   5.952
16875TIP3    H150502   5.574   9.160   5.975
16875TIP3    H250503   5.458   9.123   5.887
16876TIP3   OH250504   5.460   8.754   4.098
16876TIP3    H150505   5.404   8.682   4.135
16876TIP3    H250506   5.536   8.703   4.065
16877TIP3   OH250507   6.118   9.085   5.701
16877TIP3    H150508   6.109   9.015   5.771
16877TIP3    H250509   6.195   9.135   5.733
16878TIP3   OH250510   5.895   8.795   4.008
16878TIP3    H150511   5.942   8.733   4.067
16878TIP3    H250512   5.952   8.796   3.929
16879TIP3   OH250513   5.128   8.619   6.124
16879TIP3    H150514   5.143   8.523   6.129
16879TIP3    H250515   5.039   8.623   6.082
16880TIP3   OH250516   5.103   8.274   4.316
16880TIP3    H150517   5.155   8.234   4.388
16880TIP3    H250518   5.172   8.277   4.246
16881TIP3   OH250519   5.740   8.705   5.895
16881TIP3    H150520   5.695   8.718   5.810
16881TIP3    H250521   5.768   8.611   5.891
16882TIP3   OH250522   5.611   8.470   4.125
16882TIP3    H150523   5.616   8.482   4.222
16882TIP3    H250524   5.613   8.372   4.119
16883TIP3   OH250525   6.229   8.713   5.507
16883TIP3    H150526   6.303   8.758   5.462
16883TIP3    H250527   6.155   8.773   5.487
16884TIP3   OH250528   5.247   8.354   6.106
16884TIP3    H150529   5.321   8.294   6.089
16884TIP3    H250530   5.271   8.388   6.195
16885TIP3   OH250531   5.318   8.172   4.544
16885TIP3    H150532   5.282   8.129   4.623
16885TIP3    H250533   5.349   8.094   4.492
16886TIP3   OH250534   5.580   8.243   5.776
16886TIP3    H150535   5.502   8.302   5.773
16886TIP3    H250536   5.628   8.269   5.694
16887TIP3   OH250537   5.413   7.969   4.380
16887TIP3    H150538   5.387   7.969   4.286
16887TIP3    H250539   5.511   7.972   4.373
16888TIP3   OH250540   6.099   8.642   5.903
16888TIP3    H150541   6.178   8.617   5.853
16888TIP3    H250542   6.095   8.573   5.971
16889TIP3   OH250543   6.233   8.300   4.045
16889TIP3    H150544   6.217   8.252   3.961
16889TIP3    H250545   6.201   8.390   4.018
16890TIP3   OH250546   5.706   8.026   5.894
16890TIP3    H150547   5.704   7.946   5.838
16890TIP3    H250548   5.661   8.092   5.837
16891TIP3   OH250549   5.707   7.811   5.705
16891TIP3    H150550   5.734   7.856   5.622
16891TIP3    H250551   5.613   7.790   5.685
16892TIP3   OH250552   5.733   8.352   5.580
16892TIP3    H150553   5.812   8.347   5.524
16892TIP3    H250554   5.674   8.408   5.526
16893TIP3   OH250555   6.319   8.317   5.959
16893TIP3    H150556   6.366   8.233   5.962
16893TIP3    H250557   6.385   8.376   5.920
16894TIP3   OH250558   6.359   8.570   5.695
16894TIP3    H150559   6.301   8.623   5.636
16894TIP3    H250560   6.446   8.589   5.654
16895TIP3   OH250561   5.584   8.139   6.126
16895TIP3    H150562   5.514   8.072   6.138
16895TIP3    H250563   5.617   8.116   6.036
16896TIP3   OH250564   5.840   7.577   5.769
16896TIP3    H150565   5.791   7.660   5.746
16896TIP3    H250566   5.770   7.510   5.756
16897TIP3   OH250567   5.965   8.082   5.985
16897TIP3    H150568   5.950   8.070   6.080
16897TIP3    H250569   5.876   8.058   5.952
16898TIP3   OH250570   6.206   8.034   5.841
16898TIP3    H150571   6.128   8.033   5.901
16898TIP3    H250572   6.277   8.000   5.899
16899TIP3   OH250573   6.439   7.973   5.993
16899TIP3    H150574   6.448   7.877   6.011
16899TIP3    H250575   6.432   8.011   6.083
16900TIP3   OH250576   5.422   7.921   6.177
16900TIP3    H150577   5.428   7.830   6.141
16900TIP3    H250578   5.456   7.907   6.267
16901TIP3   OH250579   5.934   7.587   6.026
16901TIP3    H150580   6.001   7.516   6.019
16901TIP3    H250581   5.893   7.582   5.937
16902TIP3   OH250582   6.000   7.802   6.186
16902TIP3    H150583   5.977   7.731   6.121
16902TIP3    H250584   5.922   7.862   6.178
16903TIP3   OH250585   5.220   9.030   4.285
16903TIP3    H150586   5.316   9.027   4.267
16903TIP3    H250587   5.190   9.081   4.207
16904TIP3   OH250588   4.699   8.413   4.501
16904TIP3    H150589   4.794   8.434   4.488
16904TIP3    H250590   4.694   8.324   4.460
16905TIP3   OH250591   4.616   9.025   4.914
16905TIP3    H150592   4.547   8.964   4.879
16905TIP3    H250593   4.659   8.968   4.981
16906TIP3   OH250594   4.750   8.878   5.102
16906TIP3    H150595   4.737   8.804   5.163
16906TIP3    H250596   4.798   8.940   5.161
16907TIP3   OH250597   6.473   9.285   4.901
16907TIP3    H150598   6.507   9.313   4.988
16907TIP3    H250599   6.543   9.316   4.841
16908TIP3   OH250600   6.505   9.299   5.185
16908TIP3    H150601   6.464   9.210   5.181
16908TIP3    H250602   6.586   9.277   5.233
16909TIP3   OH250603   6.554   8.973   5.759
16909TIP3    H150604   6.480   8.982   5.821
16909TIP3    H250605   6.594   9.062   5.761
16910TIP3   OH250606   6.367   8.489   4.378
16910TIP3    H150607   6.437   8.551   4.348
16910TIP3    H250608   6.411   8.448   4.456
16911TIP3   OH250609   6.495   8.356   4.580
16911TIP3    H150610   6.432   8.312   4.641
16911TIP3    H250611   6.563   8.391   4.641
16912TIP3   OH250612   6.548   8.745   5.010
16912TIP3    H150613   6.604   8.681   4.961
16912TIP3    H250614   6.545   8.821   4.949
16913TIP3   OH250615   6.383   9.046   5.208
16913TIP3    H150616   6.312   9.087   5.260
16913TIP3    H250617   6.333   8.997   5.139
16914TIP3   OH250618   6.435   8.262   4.228
16914TIP3    H150619   6.364   8.264   4.160
16914TIP3    H250620   6.408   8.339   4.283
16915TIP3   OH250621   6.302   7.937   4.185
16915TIP3    H150622   6.271   7.974   4.101
16915TIP3    H250623   6.278   7.842   4.174
16916TIP3   OH250624   6.309   8.210   4.727
16916TIP3    H150625   6.319   8.113   4.722
16916TIP3    H250626   6.297   8.224   4.824
16917TIP3   OH250627   4.942   8.284   5.473
16917TIP3    H150628   4.938   8.251   5.380
16917TIP3    H250629   5.040   8.284   5.487
16918TIP3   OH250630   6.600   8.635   5.584
16918TIP3    H150631   6.674   8.570   5.575
16918TIP3    H250632   6.626   8.705   5.522
16919TIP3   OH250633   6.785   8.441   5.605
16919TIP3    H150634   6.710   8.391   5.642
16919TIP3    H250635   6.858   8.376   5.619
16920TIP3   OH250636   6.250   7.671   4.171
16920TIP3    H150637   6.326   7.638   4.223
16920TIP3    H250638   6.178   7.610   4.193
16921TIP3   OH250639   6.307   7.926   4.621
16921TIP3    H150640   6.348   7.838   4.637
16921TIP3    H250641   6.366   7.959   4.551
16922TIP3   OH250642   6.471   8.099   5.117
16922TIP3    H150643   6.557   8.128   5.078
16922TIP3    H250644   6.482   8.137   5.206
16923TIP3   OH250645   6.539   8.244   5.351
16923TIP3    H150646   6.460   8.277   5.397
16923TIP3    H250647   6.570   8.325   5.304
16924TIP3   OH250648   5.154   7.971   6.149
16924TIP3    H150649   5.252   7.964   6.149
16924TIP3    H250650   5.130   7.886   6.191
16925TIP3   OH250651   6.994   7.838   5.906
16925TIP3    H150652   7.049   7.770   5.861
16925TIP3    H250653   6.961   7.891   5.830
16926TIP3   OH250654   6.416   7.677   4.660
16926TIP3    H150655   6.464   7.661   4.744
16926TIP3    H250656   6.356   7.600   4.659
16927TIP3   OH250657   5.117   7.665   5.485
16927TIP3    H150658   5.180   7.591   5.490
16927TIP3    H250659   5.178   7.740   5.472
16928TIP3   OH250660   4.919   7.937   5.553
16928TIP3    H150661   4.970   7.927   5.470
16928TIP3    H250662   4.951   8.022   5.585
16929TIP3   OH250663   6.861   7.975   5.713
16929TIP3    H150664   6.774   8.016   5.731
16929TIP3    H250665   6.833   7.904   5.652
16930TIP3   OH250666   6.499   7.612   4.293
16930TIP3    H150667   6.538   7.540   4.239
16930TIP3    H250668   6.565   7.683   4.285
16931TIP3   OH250669   4.901   7.436   5.050
16931TIP3    H150670   4.809   7.438   5.079
16931TIP3    H250671   4.901   7.497   4.974
16932TIP3   OH250672   6.061   9.143   4.560
16932TIP3    H150673   6.111   9.128   4.477
16932TIP3    H250674   6.117   9.208   4.606
16933TIP3   OH250675   5.123   7.520   5.869
16933TIP3    H150676   5.071   7.516   5.951
16933TIP3    H250677   5.058   7.559   5.807
16934TIP3   OH250678   5.164   8.945   5.944
16934TIP3    H150679   5.070   8.920   5.930
16934TIP3    H250680   5.174   8.931   6.039
16935TIP3   OH250681   5.341   8.976   5.491
16935TIP3    H150682   5.289   9.050   5.454
16935TIP3    H250683   5.427   8.996   5.447
16936TIP3   OH250684   5.786   9.226   5.630
16936TIP3    H150685   5.828   9.224   5.719
16936TIP3    H250686   5.854   9.276   5.579
16937TIP3   OH250687   5.965   9.377   5.485
16937TIP3    H150688   6.036   9.324   5.447
16937TIP3    H250689   6.016   9.434   5.548
16938TIP3   OH250690   6.759   7.739   5.589
16938TIP3    H150691   6.668   7.736   5.554
16938TIP3    H250692   6.787   7.646   5.576
16939TIP3   OH250693   5.020   9.241   5.513
16939TIP3    H150694   4.929   9.274   5.492
16939TIP3    H250695   5.023   9.263   5.607
16940TIP3   OH250696   5.254   9.216   5.373
16940TIP3    H150697   5.168   9.229   5.420
16940TIP3    H250698   5.232   9.246   5.284
16941TIP3   OH250699   5.679   9.246   5.172
16941TIP3    H150700   5.611   9.266   5.105
16941TIP3    H250701   5.693   9.333   5.213
16942TIP3   OH250702   5.949   9.185   5.222
16942TIP3    H150703   5.855   9.202   5.201
16942TIP3    H250704   5.994   9.260   5.180
16943TIP3   OH250705   6.153   9.376   5.137
16943TIP3    H150706   6.141   9.460   5.089
16943TIP3    H250707   6.182   9.316   5.065
16944TIP3   OH250708   4.930   9.033   5.262
16944TIP3    H150709   4.956   9.006   5.352
16944TIP3    H250710   4.999   8.986   5.210
16945TIP3   OH250711   5.120   8.901   5.118
16945TIP3    H150712   5.138   8.816   5.164
16945TIP3    H250713   5.209   8.941   5.115
16946TIP3   OH250714   5.383   9.010   5.120
16946TIP3    H150715   5.430   8.935   5.080
16946TIP3    H250716   5.432   9.021   5.204
16947TIP3   OH250717   5.970   7.655   5.213
16947TIP3    H150718   5.922   7.587   5.263
16947TIP3    H250719   6.036   7.603   5.164
16948TIP3   OH250720   6.490   7.534   5.115
16948TIP3    H150721   6.525   7.586   5.040
16948TIP3    H250722   6.394   7.550   5.108
16949TIP3   OH250723   6.583   7.633   4.877
16949TIP3    H150724   6.656   7.583   4.835
16949TIP3    H250725   6.615   7.725   4.863
16950TIP3   OH250726   5.214   7.362   5.226
16950TIP3    H150727   5.121   7.330   5.226
16950TIP3    H250728   5.262   7.276   5.221
16951TIP3   OH250729   4.998   7.231   4.871
16951TIP3    H150730   5.029   7.290   4.800
16951TIP3    H250731   4.970   7.296   4.939
16952TIP3   OH250732   5.658   7.391   5.104
16952TIP3    H150733   5.715   7.444   5.046
16952TIP3    H250734   5.668   7.436   5.189
16953TIP3   OH250735   6.210   7.540   5.087
16953TIP3    H150736   6.199   7.505   4.998
16953TIP3    H250737   6.193   7.459   5.142
16954TIP3   OH250738   6.233   7.463   4.651
16954TIP3    H150739   6.146   7.506   4.662
16954TIP3    H250740   6.218   7.378   4.697
16955TIP3   OH250741   4.718   8.800   4.650
16955TIP3    H150742   4.633   8.767   4.617
16955TIP3    H250743   4.705   8.895   4.638
16956TIP3   OH250744   5.116   7.392   4.635
16956TIP3    H150745   5.165   7.329   4.579
16956TIP3    H250746   5.189   7.446   4.673
16957TIP3   OH250747   5.633   7.562   4.732
16957TIP3    H150748   5.693   7.522   4.797
16957TIP3    H250749   5.643   7.657   4.757
16958TIP3   OH250750   5.488   8.992   4.234
16958TIP3    H150751   5.577   9.014   4.198
16958TIP3    H250752   5.467   8.916   4.174
16959TIP3   OH250753   6.205   9.108   4.327
16959TIP3    H150754   6.196   9.011   4.314
16959TIP3    H250755   6.163   9.142   4.245
16960TIP3   OH250756   5.420   7.643   6.116
16960TIP3    H150757   5.387   7.573   6.173
16960TIP3    H250758   5.515   7.644   6.142
16961TIP3   OH250759   5.670   7.641   6.235
16961TIP3    H150760   5.754   7.615   6.194
16961TIP3    H250761   5.658   7.569   6.301
16962TIP3   OH250762   4.793   8.832   4.292
16962TIP3    H150763   4.789   8.854   4.386
16962TIP3    H250764   4.882   8.790   4.283
16963TIP3   OH250765   6.494   7.701   6.022
16963TIP3    H150766   6.514   7.670   6.114
16963TIP3    H250767   6.583   7.695   5.980
16964TIP3   OH250768   6.432   9.254   5.518
16964TIP3    H150769   6.354   9.223   5.467
16964TIP3    H250770   6.415   9.350   5.518
16965TIP3   OH250771   7.697   8.627   4.285
16965TIP3    H150772   7.671   8.718   4.261
16965TIP3    H250773   7.623   8.577   4.247
16966TIP3   OH250774   7.689   8.630   4.665
16966TIP3    H150775   7.729   8.595   4.747
16966TIP3    H250776   7.663   8.549   4.619
16967TIP3   OH250777   6.997   8.525   5.030
16967TIP3    H150778   7.034   8.457   5.090
16967TIP3    H250779   7.075   8.580   5.014
16968TIP3   OH250780   7.940   8.932   4.341
16968TIP3    H150781   7.930   8.855   4.399
16968TIP3    H250782   7.969   9.001   4.403
16969TIP3   OH250783   6.961   8.929   4.748
16969TIP3    H150784   6.960   8.831   4.752
16969TIP3    H250785   7.055   8.946   4.765
16970TIP3   OH250786   6.675   8.133   4.538
16970TIP3    H150787   6.628   8.218   4.551
16970TIP3    H250788   6.605   8.080   4.498
16971TIP3   OH250789   6.734   8.420   4.706
16971TIP3    H150790   6.784   8.344   4.744
16971TIP3    H250791   6.797   8.454   4.641
16972TIP3   OH250792   7.590   9.396   4.353
16972TIP3    H150793   7.638   9.318   4.318
16972TIP3    H250794   7.575   9.371   4.446
16973TIP3   OH250795   7.498   8.848   4.709
16973TIP3    H150796   7.540   8.769   4.669
16973TIP3    H250797   7.579   8.898   4.731
16974TIP3   OH250798   8.515   8.171   4.713
16974TIP3    H150799   8.535   8.254   4.759
16974TIP3    H250800   8.521   8.198   4.620
16975TIP3   OH250801   7.893   8.351   4.749
16975TIP3    H150802   7.950   8.273   4.766
16975TIP3    H250803   7.887   8.347   4.651
16976TIP3   OH250804   7.244   8.012   4.711
16976TIP3    H150805   7.228   8.085   4.647
16976TIP3    H250806   7.198   7.939   4.663
16977TIP3   OH250807   7.941   8.092   4.337
16977TIP3    H150808   8.013   8.077   4.402
16977TIP3    H250809   7.983   8.164   4.284
16978TIP3   OH250810   6.881   8.214   4.815
16978TIP3    H150811   6.964   8.196   4.862
16978TIP3    H250812   6.894   8.159   4.735
16979TIP3   OH250813   7.323   8.411   4.610
16979TIP3    H150814   7.417   8.387   4.620
16979TIP3    H250815   7.285   8.328   4.576
16980TIP3   OH250816   8.574   8.381   4.890
16980TIP3    H150817   8.494   8.423   4.852
16980TIP3    H250818   8.548   8.388   4.984
16981TIP3   OH250819   7.243   7.996   5.144
16981TIP3    H150820   7.186   8.033   5.074
16981TIP3    H250821   7.191   8.018   5.223
16982TIP3   OH250822   7.596   8.850   4.149
16982TIP3    H150823   7.549   8.823   4.069
16982TIP3    H250824   7.549   8.933   4.171
16983TIP3   OH250825   7.355   8.769   4.939
16983TIP3    H150826   7.284   8.829   4.973
16983TIP3    H250827   7.393   8.824   4.868
16984TIP3   OH250828   8.149   8.089   4.510
16984TIP3    H150829   8.162   8.055   4.600
16984TIP3    H250830   8.197   8.173   4.514
16985TIP3   OH250831   7.115   8.111   4.928
16985TIP3    H150832   7.177   8.184   4.949
16985TIP3    H250833   7.162   8.070   4.852
16986TIP3   OH250834   7.157   8.933   5.018
16986TIP3    H150835   7.199   9.022   5.001
16986TIP3    H250836   7.087   8.960   5.081
16987TIP3   OH250837   6.572   8.654   4.271
16987TIP3    H150838   6.534   8.682   4.186
16987TIP3    H250839   6.605   8.739   4.308
16988TIP3   OH250840   8.016   9.169   4.512
16988TIP3    H150841   7.927   9.156   4.554
16988TIP3    H250842   8.000   9.254   4.468
16989TIP3   OH250843   8.308   8.060   4.875
16989TIP3    H150844   8.224   8.107   4.858
16989TIP3    H250845   8.367   8.098   4.808
16990TIP3   OH250846   7.604   7.718   4.857
16990TIP3    H150847   7.587   7.622   4.861
16990TIP3    H250848   7.525   7.753   4.902
16991TIP3   OH250849   7.718   9.218   4.186
16991TIP3    H150850   7.768   9.135   4.166
16991TIP3    H250851   7.776   9.283   4.142
16992TIP3   OH250852   7.861   9.004   4.087
16992TIP3    H150853   7.818   8.924   4.053
16992TIP3    H250854   7.895   8.971   4.173
16993TIP3   OH250855   8.237   9.086   4.853
16993TIP3    H150856   8.227   9.006   4.796
16993TIP3    H250857   8.222   9.158   4.790
16994TIP3   OH250858   7.530   8.479   4.110
16994TIP3    H150859   7.451   8.530   4.084
16994TIP3    H250860   7.580   8.476   4.027
16995TIP3   OH250861   7.490   8.261   3.829
16995TIP3    H150862   7.557   8.311   3.879
16995TIP3    H250863   7.548   8.198   3.781
16996TIP3   OH250864   8.438   8.730   4.702
16996TIP3    H150865   8.351   8.775   4.708
16996TIP3    H250866   8.460   8.747   4.608
16997TIP3   OH250867   7.875   8.566   4.084
16997TIP3    H150868   7.830   8.585   4.169
16997TIP3    H250869   7.941   8.499   4.116
16998TIP3   OH250870   8.116   8.602   4.976
16998TIP3    H150871   8.115   8.677   5.038
16998TIP3    H250872   8.026   8.605   4.940
16999TIP3   OH250873   7.111   8.558   4.501
16999TIP3    H150874   7.070   8.500   4.433
16999TIP3    H250875   7.188   8.505   4.530
17000TIP3   OH250876   7.239   8.975   4.641
17000TIP3    H150877   7.225   8.918   4.564
17000TIP3    H250878   7.327   8.945   4.671
17001TIP3   OH250879   7.244   8.532   4.854
17001TIP3    H150880   7.280   8.509   4.766
17001TIP3    H250881   7.289   8.617   4.874
17002TIP3   OH250882   7.775   9.165   4.629
17002TIP3    H150883   7.751   9.245   4.679
17002TIP3    H250884   7.756   9.092   4.692
17003TIP3   OH250885   7.720   8.418   3.912
17003TIP3    H150886   7.781   8.475   3.965
17003TIP3    H250887   7.747   8.443   3.821
17004TIP3   OH250888   7.141   8.636   5.286
17004TIP3    H150889   7.144   8.727   5.322
17004TIP3    H250890   7.044   8.622   5.283
17005TIP3   OH250891   7.462   9.098   4.179
17005TIP3    H150892   7.538   9.152   4.207
17005TIP3    H250893   7.398   9.163   4.150
17006TIP3   OH250894   7.172   9.291   5.276
17006TIP3    H150895   7.201   9.266   5.185
17006TIP3    H250896   7.099   9.230   5.294
17007TIP3   OH250897   8.217   7.662   3.941
17007TIP3    H150898   8.149   7.694   4.003
17007TIP3    H250899   8.244   7.747   3.899
17008TIP3   OH250900   6.976   8.400   4.306
17008TIP3    H150901   6.911   8.445   4.248
17008TIP3    H250902   6.936   8.313   4.316
17009TIP3   OH250903   8.037   9.026   3.506
17009TIP3    H150904   8.042   9.121   3.486
17009TIP3    H250905   8.127   8.995   3.483
17010TIP3   OH250906   6.757   8.784   5.213
17010TIP3    H150907   6.695   8.762   5.141
17010TIP3    H250908   6.795   8.697   5.237
17011TIP3   OH250909   6.614   8.977   4.847
17011TIP3    H150910   6.709   8.965   4.832
17011TIP3    H250911   6.613   9.055   4.904
17012TIP3   OH250912   8.466   9.419   4.894
17012TIP3    H150913   8.474   9.323   4.911
17012TIP3    H250914   8.384   9.441   4.942
17013TIP3   OH250915   7.345   9.348   3.983
17013TIP3    H150916   7.293   9.326   3.903
17013TIP3    H250917   7.307   9.434   4.010
17014TIP3   OH250918   6.780   9.193   4.371
17014TIP3    H150919   6.831   9.185   4.455
17014TIP3    H250920   6.725   9.113   4.377
17015TIP3   OH250921   7.550   9.249   3.627
17015TIP3    H150922   7.605   9.175   3.593
17015TIP3    H250923   7.576   9.251   3.722
17016TIP3   OH250924   7.595   9.292   3.898
17016TIP3    H150925   7.506   9.304   3.938
17016TIP3    H250926   7.640   9.245   3.971
17017TIP3   OH250927   6.958   8.975   5.205
17017TIP3    H150928   7.014   8.954   5.282
17017TIP3    H250929   6.889   8.906   5.209
17018TIP3   OH250930   7.363   7.787   4.986
17018TIP3    H150931   7.273   7.759   4.960
17018TIP3    H250932   7.342   7.874   5.024
17019TIP3   OH250933   7.899   7.903   5.180
17019TIP3    H150934   7.966   7.877   5.246
17019TIP3    H250935   7.814   7.885   5.225
17020TIP3   OH250936   8.098   8.325   5.072
17020TIP3    H150937   8.120   8.327   5.166
17020TIP3    H250938   8.141   8.406   5.040
17021TIP3   OH250939   7.793   8.469   3.655
17021TIP3    H150940   7.761   8.441   3.567
17021TIP3    H250941   7.877   8.511   3.631
17022TIP3   OH250942   7.508   7.839   3.957
17022TIP3    H150943   7.476   7.838   4.049
17022TIP3    H250944   7.465   7.758   3.923
17023TIP3   OH250945   7.291   8.308   5.002
17023TIP3    H150946   7.240   8.330   5.082
17023TIP3    H250947   7.277   8.389   4.948
17024TIP3   OH250948   7.178   8.191   4.517
17024TIP3    H150949   7.085   8.166   4.534
17024TIP3    H250950   7.192   8.151   4.429
17025TIP3   OH250951   7.664   8.273   4.238
17025TIP3    H150952   7.615   8.348   4.198
17025TIP3    H250953   7.733   8.256   4.171
17026TIP3   OH250954   7.845   8.565   5.345
17026TIP3    H150955   7.826   8.483   5.395
17026TIP3    H250956   7.941   8.560   5.339
17027TIP3   OH250957   7.814   8.300   4.485
17027TIP3    H150958   7.770   8.335   4.405
17027TIP3    H250959   7.857   8.221   4.446
17028TIP3   OH250960   7.114   8.337   5.212
17028TIP3    H150961   7.137   8.404   5.279
17028TIP3    H250962   7.102   8.256   5.265
17029TIP3   OH250963   7.164   7.811   3.922
17029TIP3    H150964   7.154   7.811   4.019
17029TIP3    H250965   7.086   7.863   3.895
17030TIP3   OH250966   6.706   7.857   4.794
17030TIP3    H150967   6.782   7.890   4.845
17030TIP3    H250968   6.745   7.827   4.711
17031TIP3   OH250969   6.680   7.839   4.313
17031TIP3    H150970   6.724   7.877   4.234
17031TIP3    H250971   6.619   7.912   4.334
17032TIP3   OH250972   7.827   8.554   4.909
17032TIP3    H150973   7.862   8.484   4.849
17032TIP3    H250974   7.806   8.500   4.987
17033TIP3   OH250975   7.500   8.011   4.577
17033TIP3    H150976   7.423   8.014   4.637
17033TIP3    H250977   7.574   8.017   4.639
17034TIP3   OH250978   6.938   8.070   4.588
17034TIP3    H150979   6.844   8.076   4.560
17034TIP3    H250980   6.963   7.979   4.563
17035TIP3   OH250981   7.209   8.065   4.275
17035TIP3    H150982   7.304   8.082   4.257
17035TIP3    H250983   7.165   8.091   4.191
17036TIP3   OH250984   7.998   8.094   4.787
17036TIP3    H150985   7.952   8.104   4.873
17036TIP3    H250986   7.938   8.034   4.739
17037TIP3   OH250987   7.049   8.101   4.054
17037TIP3    H150988   6.979   8.054   4.004
17037TIP3    H250989   7.101   8.138   3.979
17038TIP3   OH250990   8.163   9.775   4.990
17038TIP3    H150991   8.159   9.791   4.893
17038TIP3    H250992   8.221   9.846   5.018
17039TIP3   OH250993   7.122   8.884   5.421
17039TIP3    H150994   7.200   8.924   5.465
17039TIP3    H250995   7.056   8.892   5.492
17040TIP3   OH250996   7.589   8.336   4.669
17040TIP3    H150997   7.667   8.312   4.614
17040TIP3    H250998   7.616   8.299   4.755
17041TIP3   OH250999   7.112   7.832   4.552
17041TIP3    H151000   7.080   7.751   4.596
17041TIP3    H251001   7.164   7.797   4.479
17042TIP3   OH251002   7.563   8.228   4.981
17042TIP3    H151003   7.478   8.276   4.980
17042TIP3    H251004   7.626   8.292   5.018
17043TIP3   OH251005   7.299   8.633   4.058
17043TIP3    H151006   7.228   8.565   4.049
17043TIP3    H251007   7.283   8.664   4.150
17044TIP3   OH251008   8.201   8.869   4.691
17044TIP3    H151009   8.223   8.915   4.607
17044TIP3    H251010   8.117   8.824   4.669
17045TIP3   OH251011   7.762   7.942   3.915
17045TIP3    H151012   7.666   7.934   3.930
17045TIP3    H251013   7.783   8.035   3.942
17046TIP3   OH251014   7.704   8.950   5.059
17046TIP3    H151015   7.727   8.922   5.148
17046TIP3    H251016   7.643   9.023   5.073
17047TIP3   OH251017   7.839   8.185   4.013
17047TIP3    H151018   7.922   8.214   4.058
17047TIP3    H251019   7.816   8.267   3.966
17048TIP3   OH251020   6.988   8.645   4.736
17048TIP3    H151021   7.029   8.624   4.650
17048TIP3    H251022   7.040   8.589   4.797
17049TIP3   OH251023   7.446   8.780   3.880
17049TIP3    H151024   7.399   8.866   3.888
17049TIP3    H251025   7.392   8.724   3.940
17050TIP3   OH251026   6.871   8.572   5.350
17050TIP3    H151027   6.891   8.558   5.445
17050TIP3    H251028   6.802   8.506   5.333
17051TIP3   OH251029   7.598   8.680   5.386
17051TIP3    H151030   7.539   8.632   5.325
17051TIP3    H251031   7.686   8.650   5.353
17052TIP3   OH251032   7.872   9.208   4.953
17052TIP3    H151033   7.776   9.214   4.943
17052TIP3    H251034   7.888   9.262   5.033
17053TIP3   OH251035   8.293   8.278   3.835
17053TIP3    H151036   8.212   8.236   3.801
17053TIP3    H251037   8.275   8.370   3.808
17054TIP3   OH251038   8.487   9.137   4.942
17054TIP3    H151039   8.389   9.128   4.933
17054TIP3    H251040   8.515   9.107   4.853
17055TIP3   OH251041   7.968   9.096   3.771
17055TIP3    H151042   7.945   9.028   3.836
17055TIP3    H251043   7.980   9.043   3.689
17056TIP3   OH251044   7.964   8.736   4.616
17056TIP3    H151045   7.871   8.709   4.623
17056TIP3    H251046   8.002   8.652   4.581
17057TIP3   OH251047   7.092   8.951   4.352
17057TIP3    H151048   7.095   9.037   4.306
17057TIP3    H251049   6.999   8.943   4.374
17058TIP3   OH251050   6.659   8.260   4.065
17058TIP3    H151051   6.705   8.344   4.085
17058TIP3    H251052   6.582   8.265   4.125
17059TIP3   OH251053   7.235   8.720   4.305
17059TIP3    H151054   7.198   8.809   4.321
17059TIP3    H251055   7.200   8.671   4.381
17060TIP3   OH251056   7.013   9.197   4.212
17060TIP3    H151057   6.928   9.203   4.260
17060TIP3    H251058   7.044   9.290   4.218
17061TIP3   OH251059   7.755   8.936   4.789
17061TIP3    H151060   7.748   8.929   4.886
17061TIP3    H251061   7.830   8.878   4.770
17062TIP3   OH251062   7.726   8.831   3.672
17062TIP3    H151063   7.779   8.803   3.750
17062TIP3    H251064   7.639   8.798   3.699
17063TIP3   OH251065   8.001   9.471   4.841
17063TIP3    H151066   7.922   9.414   4.829
17063TIP3    H251067   7.989   9.535   4.768
17064TIP3   OH251068   8.056   9.308   3.484
17064TIP3    H151069   8.072   9.338   3.393
17064TIP3    H251070   7.975   9.356   3.505
17065TIP3   OH251071   7.085   8.081   5.361
17065TIP3    H151072   6.988   8.084   5.370
17065TIP3    H251073   7.109   8.014   5.428
17066TIP3   OH251074   7.886   8.760   3.888
17066TIP3    H151075   7.875   8.695   3.961
17066TIP3    H251076   7.984   8.756   3.879
17067TIP3   OH251077   6.798   9.163   4.994
17067TIP3    H151078   6.855   9.089   5.021
17067TIP3    H251079   6.841   9.236   5.040
17068TIP3   OH251080   7.092   8.809   3.672
17068TIP3    H151081   7.106   8.718   3.640
17068TIP3    H251082   7.074   8.794   3.767
17069TIP3   OH251083   7.037   8.812   3.945
17069TIP3    H151084   7.109   8.783   4.003
17069TIP3    H251085   7.043   8.910   3.953
17070TIP3   OH251086   6.774   8.506   4.147
17070TIP3    H151087   6.709   8.551   4.204
17070TIP3    H251088   6.790   8.575   4.080
17071TIP3   OH251089   7.900   8.145   5.039
17071TIP3    H151090   7.981   8.199   5.054
17071TIP3    H251091   7.914   8.066   5.095
17072TIP3   OH251092   7.817   7.891   4.197
17072TIP3    H151093   7.796   7.926   4.109
17072TIP3    H251094   7.855   7.970   4.242
17073TIP3   OH251095   7.303   9.010   3.892
17073TIP3    H151096   7.217   9.037   3.930
17073TIP3    H251097   7.317   9.080   3.827
17074TIP3   OH251098   7.489   8.072   4.304
17074TIP3    H151099   7.554   8.143   4.285
17074TIP3    H251100   7.498   8.064   4.402
17075TIP3   OH251101   7.759   8.391   5.117
17075TIP3    H151102   7.791   8.439   5.195
17075TIP3    H251103   7.821   8.315   5.112
17076TIP3   OH251104   7.639   7.802   4.405
17076TIP3    H151105   7.638   7.872   4.473
17076TIP3    H251106   7.701   7.842   4.340
17077TIP3   OH251107   7.047   9.086   3.959
17077TIP3    H151108   7.016   9.156   3.898
17077TIP3    H251109   7.030   9.128   4.046
17078TIP3   OH251110   7.148   7.799   4.199
17078TIP3    H151111   7.146   7.890   4.234
17078TIP3    H251112   7.244   7.781   4.207
17079TIP3   OH251113   8.047   8.496   4.517
17079TIP3    H151114   8.000   8.438   4.456
17079TIP3    H251115   8.128   8.444   4.534
17080TIP3   OH251116   6.764   8.717   3.952
17080TIP3    H151117   6.833   8.786   3.962
17080TIP3    H251118   6.810   8.661   3.885
17081TIP3   OH251119   6.709   7.990   4.089
17081TIP3    H151120   6.710   8.088   4.083
17081TIP3    H251121   6.631   7.968   4.037
17082TIP3   OH251122   7.994   9.436   4.433
17082TIP3    H151123   7.953   9.483   4.358
17082TIP3    H251124   8.089   9.456   4.413
17083TIP3   OH251125   7.097   7.712   4.960
17083TIP3    H151126   7.066   7.680   4.873
17083TIP3    H251127   7.085   7.632   5.016
17084TIP3   OH251128   6.638   8.930   4.342
17084TIP3    H151129   6.563   8.962   4.394
17084TIP3    H251130   6.617   8.968   4.254
17085TIP3   OH251131   6.791   9.469   5.414
17085TIP3    H151132   6.880   9.468   5.456
17085TIP3    H251133   6.773   9.374   5.407
17086TIP3   OH251134   7.282   9.439   5.470
17086TIP3    H151135   7.374   9.416   5.451
17086TIP3    H251136   7.239   9.391   5.395
17087TIP3   OH251137   7.258   9.011   3.586
17087TIP3    H151138   7.200   8.941   3.624
17087TIP3    H251139   7.331   8.956   3.553
17088TIP3   OH251140   7.910   9.347   5.188
17088TIP3    H151141   7.901   9.271   5.251
17088TIP3    H251142   7.988   9.393   5.222
17089TIP3   OH251143   7.699   9.057   3.499
17089TIP3    H151144   7.733   8.984   3.555
17089TIP3    H251145   7.748   9.046   3.416
17090TIP3   OH251146   6.922   8.875   5.615
17090TIP3    H151147   6.940   8.779   5.611
17090TIP3    H251148   6.836   8.881   5.569
17091TIP3   OH251149   6.900   8.529   3.805
17091TIP3    H151150   6.955   8.494   3.877
17091TIP3    H251151   6.966   8.533   3.733
17092TIP3   OH251152   7.524   8.955   5.378
17092TIP3    H151153   7.485   8.956   5.290
17092TIP3    H251154   7.563   8.865   5.382
17093TIP3   OH251155   7.409   8.727   3.611
17093TIP3    H151156   7.412   8.739   3.708
17093TIP3    H251157   7.409   8.629   3.605
17094TIP3   OH251158   8.025   8.970   4.997
17094TIP3    H151159   8.099   9.012   4.948
17094TIP3    H251160   7.954   9.034   4.978
17095TIP3   OH251161   7.037   8.611   5.597
17095TIP3    H151162   7.113   8.559   5.568
17095TIP3    H251163   7.068   8.644   5.684
17096TIP3   OH251164   7.108   8.431   4.027
17096TIP3    H151165   7.084   8.388   4.111
17096TIP3    H251166   7.145   8.356   3.976
17097TIP3   OH251167   7.381   8.498   5.260
17097TIP3    H151168   7.300   8.554   5.259
17097TIP3    H251169   7.429   8.530   5.181
17098TIP3   OH251170   7.209   8.224   3.868
17098TIP3    H151171   7.182   8.227   3.774
17098TIP3    H251172   7.306   8.230   3.860
17099TIP3   OH251173   7.897   8.894   5.389
17099TIP3    H151174   7.970   8.877   5.328
17099TIP3    H251175   7.899   8.816   5.446
17100TIP3   OH251176   8.029   8.559   3.529
17100TIP3    H151177   8.008   8.509   3.447
17100TIP3    H251178   7.995   8.647   3.502
17101TIP3   OH251179   7.499   8.282   5.384
17101TIP3    H151180   7.501   8.203   5.325
17101TIP3    H251181   7.459   8.349   5.324
17102TIP3   OH251182   7.502   8.068   5.195
17102TIP3    H151183   7.533   8.112   5.113
17102TIP3    H251184   7.409   8.047   5.171
17103TIP3   OH251185   7.534   8.612   5.069
17103TIP3    H151186   7.613   8.608   5.013
17103TIP3    H251187   7.477   8.674   5.019
17104TIP3   OH251188   8.124   8.577   5.456
17104TIP3    H151189   8.155   8.487   5.439
17104TIP3    H251190   8.189   8.629   5.405
17105TIP3   OH251191   8.150   8.832   5.191
17105TIP3    H151192   8.095   8.880   5.124
17105TIP3    H251193   8.238   8.841   5.147
17106TIP3   OH251194   7.386   8.398   5.615
17106TIP3    H151195   7.313   8.334   5.628
17106TIP3    H251196   7.413   8.377   5.523
17107TIP3   OH251197   7.633   7.835   5.261
17107TIP3    H151198   7.591   7.920   5.235
17107TIP3    H251199   7.563   7.771   5.241
17108TIP3   OH251200   7.755   8.342   5.475
17108TIP3    H151201   7.737   8.321   5.568
17108TIP3    H251202   7.669   8.317   5.435
17109TIP3   OH251203   8.003   8.312   5.343
17109TIP3    H151204   7.927   8.289   5.399
17109TIP3    H251205   8.077   8.267   5.391
17110TIP3   OH251206   8.208   8.218   5.488
17110TIP3    H151207   8.241   8.127   5.503
17110TIP3    H251208   8.237   8.265   5.569
17111TIP3   OH251209   7.220   8.180   5.664
17111TIP3    H151210   7.222   8.091   5.623
17111TIP3    H251211   7.253   8.159   5.754
17112TIP3   OH251212   7.734   7.840   5.514
17112TIP3    H151213   7.800   7.769   5.503
17112TIP3    H251214   7.692   7.840   5.426
17113TIP3   OH251215   7.790   8.055   5.676
17113TIP3    H151216   7.773   7.985   5.609
17113TIP3    H251217   7.719   8.119   5.657
17114TIP3   OH251218   7.016   9.290   3.772
17114TIP3    H151219   7.112   9.285   3.752
17114TIP3    H251220   6.985   9.337   3.692
17115TIP3   OH251221   6.496   8.669   3.989
17115TIP3    H151222   6.591   8.691   3.974
17115TIP3    H251223   6.491   8.579   3.949
17116TIP3   OH251224   6.408   9.282   4.403
17116TIP3    H151225   6.342   9.218   4.367
17116TIP3    H251226   6.454   9.226   4.469
17117TIP3   OH251227   6.545   9.135   4.589
17117TIP3    H151228   6.538   9.060   4.650
17117TIP3    H251229   6.600   9.195   4.643
17118TIP3   OH251230   8.233   9.542   4.384
17118TIP3    H151231   8.271   9.556   4.473
17118TIP3    H251232   8.302   9.586   4.332
17119TIP3   OH251233   8.312   9.550   4.668
17119TIP3    H151234   8.264   9.465   4.667
17119TIP3    H251235   8.389   9.523   4.721
17120TIP3   OH251236   8.354   9.238   5.245
17120TIP3    H151237   8.276   9.240   5.304
17120TIP3    H251238   8.381   9.330   5.239
17121TIP3   OH251239   8.166   8.745   3.868
17121TIP3    H151240   8.242   8.801   3.844
17121TIP3    H251241   8.200   8.701   3.949
17122TIP3   OH251242   8.288   8.609   4.074
17122TIP3    H151243   8.231   8.551   4.128
17122TIP3    H251244   8.351   8.645   4.139
17123TIP3   OH251245   8.348   9.004   4.499
17123TIP3    H151246   8.401   8.937   4.450
17123TIP3    H251247   8.333   9.072   4.431
17124TIP3   OH251248   8.179   9.306   4.691
17124TIP3    H151249   8.106   9.343   4.745
17124TIP3    H251250   8.130   9.254   4.624
17125TIP3   OH251251   8.232   8.525   3.710
17125TIP3    H151252   8.158   8.525   3.647
17125TIP3    H251253   8.202   8.595   3.772
17126TIP3   OH251254   8.092   8.193   3.666
17126TIP3    H151255   8.054   8.228   3.585
17126TIP3    H251256   8.071   8.098   3.658
17127TIP3   OH251257   6.734   8.540   4.961
17127TIP3    H151258   6.733   8.512   4.867
17127TIP3    H251259   6.831   8.544   4.977
17128TIP3   OH251260   8.393   8.890   5.073
17128TIP3    H151261   8.459   8.817   5.069
17128TIP3    H251262   8.425   8.951   5.005
17129TIP3   OH251263   8.570   8.693   5.098
17129TIP3    H151264   8.509   8.618   5.117
17129TIP3    H251265   8.654   8.644   5.111
17130TIP3   OH251266   8.050   7.923   3.649
17130TIP3    H151267   8.126   7.900   3.706
17130TIP3    H251268   7.977   7.870   3.685
17131TIP3   OH251269   8.270   8.351   4.598
17131TIP3    H151270   8.355   8.380   4.560
17131TIP3    H251271   8.277   8.392   4.687
17132TIP3   OH251272   8.333   8.499   4.825
17132TIP3    H151273   8.264   8.526   4.889
17132TIP3    H251274   8.363   8.585   4.791
17133TIP3   OH251275   6.951   8.229   5.640
17133TIP3    H151276   7.048   8.220   5.635
17133TIP3    H251277   6.926   8.142   5.678
17134TIP3   OH251278   8.789   8.086   5.390
17134TIP3    H151279   8.847   8.021   5.344
17134TIP3    H251280   8.757   8.141   5.315
17135TIP3   OH251281   8.237   7.892   4.130
17135TIP3    H151282   8.271   7.916   4.218
17135TIP3    H251283   8.147   7.865   4.151
17136TIP3   OH251284   6.913   7.920   4.969
17136TIP3    H151285   6.976   7.845   4.976
17136TIP3    H251286   6.974   7.995   4.960
17137TIP3   OH251287   6.718   8.194   5.041
17137TIP3    H151288   6.765   8.185   4.956
17137TIP3    H251289   6.745   8.282   5.069
17138TIP3   OH251290   8.661   8.229   5.202
17138TIP3    H151291   8.585   8.292   5.208
17138TIP3    H251292   8.623   8.163   5.142
17139TIP3   OH251293   8.296   7.872   3.774
17139TIP3    H151294   8.342   7.801   3.725
17139TIP3    H251295   8.363   7.943   3.776
17140TIP3   OH251296   6.698   7.698   4.542
17140TIP3    H151297   6.604   7.695   4.566
17140TIP3    H251298   6.698   7.755   4.463
17141TIP3   OH251299   7.855   9.405   4.043
17141TIP3    H151300   7.913   9.382   3.968
17141TIP3    H251301   7.913   9.458   4.101
17142TIP3   OH251302   6.920   7.777   5.356
17142TIP3    H151303   6.867   7.772   5.437
17142TIP3    H251304   6.855   7.816   5.294
17143TIP3   OH251305   6.954   9.188   5.442
17143TIP3    H151306   6.862   9.169   5.417
17143TIP3    H251307   6.952   9.186   5.538
17144TIP3   OH251308   7.582   9.512   5.133
17144TIP3    H151309   7.635   9.486   5.209
17144TIP3    H251310   7.649   9.537   5.067
17145TIP3   OH251311   7.767   9.631   4.969
17145TIP3    H151312   7.841   9.581   4.930
17145TIP3    H251313   7.814   9.690   5.031
17146TIP3   OH251314   8.550   7.999   5.078
17146TIP3    H151315   8.465   8.005   5.030
17146TIP3    H251316   8.576   7.906   5.061
17147TIP3   OH251317   6.807   9.483   4.998
17147TIP3    H151318   6.721   9.527   4.981
17147TIP3    H251319   6.830   9.519   5.084
17148TIP3   OH251320   7.052   9.509   4.856
17148TIP3    H151321   6.971   9.484   4.904
17148TIP3    H251322   7.022   9.514   4.764
17149TIP3   OH251323   7.499   9.525   4.623
17149TIP3    H151324   7.409   9.526   4.588
17149TIP3    H251325   7.494   9.593   4.692
17150TIP3   OH251326   7.746   9.438   4.712
17150TIP3    H151327   7.652   9.452   4.690
17150TIP3    H251328   7.785   9.517   4.671
17151TIP3   OH251329   7.959   9.636   4.625
17151TIP3    H151330   7.944   9.719   4.575
17151TIP3    H251331   7.973   9.571   4.554
17152TIP3   OH251332   6.724   9.285   4.748
17152TIP3    H151333   6.753   9.265   4.839
17152TIP3    H251334   6.797   9.242   4.698
17153TIP3   OH251335   6.920   9.159   4.603
17153TIP3    H151336   6.935   9.074   4.650
17153TIP3    H251337   7.011   9.196   4.602
17154TIP3   OH251338   7.184   9.256   4.615
17154TIP3    H151339   7.218   9.164   4.610
17154TIP3    H251340   7.208   9.276   4.708
17155TIP3   OH251341   7.751   7.907   4.684
17155TIP3    H151342   7.718   7.838   4.743
17155TIP3    H251343   7.835   7.868   4.651
17156TIP3   OH251344   8.279   7.807   4.615
17156TIP3    H151345   8.320   7.834   4.530
17156TIP3    H251346   8.185   7.822   4.597
17157TIP3   OH251347   8.379   7.893   4.368
17157TIP3    H151348   8.452   7.843   4.327
17157TIP3    H251349   8.411   7.985   4.354
17158TIP3   OH251350   7.009   7.619   4.713
17158TIP3    H151351   6.917   7.587   4.712
17158TIP3    H251352   7.058   7.534   4.708
17159TIP3   OH251353   6.798   7.487   4.358
17159TIP3    H151354   6.827   7.545   4.285
17159TIP3    H251355   6.767   7.552   4.424
17160TIP3   OH251356   7.452   7.650   4.593
17160TIP3    H151357   7.508   7.699   4.529
17160TIP3    H251358   7.474   7.695   4.675
17161TIP3   OH251359   7.986   7.800   4.586
17161TIP3    H151360   7.990   7.771   4.494
17161TIP3    H251361   7.978   7.714   4.634
17162TIP3   OH251362   8.006   7.695   4.138
17162TIP3    H151363   7.936   7.764   4.134
17162TIP3    H251364   7.993   7.664   4.228
17163TIP3   OH251365   6.513   9.058   4.140
17163TIP3    H151366   6.428   9.025   4.104
17163TIP3    H251367   6.501   9.153   4.124
17164TIP3   OH251368   6.912   7.646   4.125
17164TIP3    H151369   6.961   7.586   4.066
17164TIP3    H251370   6.984   7.702   4.160
17165TIP3   OH251371   7.426   7.821   4.222
17165TIP3    H151372   7.489   7.779   4.284
17165TIP3    H251373   7.444   7.915   4.245
17166TIP3   OH251374   7.285   9.250   3.717
17166TIP3    H151375   7.373   9.272   3.681
17166TIP3    H251376   7.263   9.173   3.659
17167TIP3   OH251377   7.996   9.359   3.805
17167TIP3    H151378   7.997   9.259   3.809
17167TIP3    H251379   7.944   9.370   3.725
17168TIP3   OH251380   7.216   7.901   5.604
17168TIP3    H151381   7.183   7.829   5.661
17168TIP3    H251382   7.311   7.901   5.629
17169TIP3   OH251383   7.467   7.899   5.724
17169TIP3    H151384   7.551   7.873   5.682
17169TIP3    H251385   7.455   7.826   5.788
17170TIP3   OH251386   6.590   9.087   3.778
17170TIP3    H151387   6.592   9.108   3.873
17170TIP3    H251388   6.678   9.044   3.765
17171TIP3   OH251389   8.292   7.954   5.509
17171TIP3    H151390   8.315   7.925   5.600
17171TIP3    H251391   8.380   7.954   5.464
17172TIP3   OH251392   8.223   9.505   5.013
17172TIP3    H151393   8.150   9.473   4.956
17172TIP3    H251394   8.209   9.602   5.003
17173TIP3   OH251395   8.798   8.771   4.507
17173TIP3    H151396   8.823   8.706   4.576
17173TIP3    H251397   8.859   8.843   4.526
17174TIP3   OH251398   8.750   9.160   4.227
17174TIP3    H151399   8.766   9.063   4.234
17174TIP3    H251400   8.832   9.197   4.262
17175TIP3   OH251401   8.473   8.395   4.031
17175TIP3    H151402   8.416   8.474   4.035
17175TIP3    H251403   8.404   8.328   4.014
17176TIP3   OH251404   8.536   8.681   4.195
17176TIP3    H151405   8.579   8.601   4.231
17176TIP3    H251406   8.586   8.695   4.114
17177TIP3   OH251407   9.039   8.271   4.196
17177TIP3    H151408   9.021   8.342   4.131
17177TIP3    H251409   8.994   8.196   4.151
17178TIP3   OH251410   8.679   8.474   4.300
17178TIP3    H151411   8.760   8.448   4.348
17178TIP3    H251412   8.688   8.415   4.221
17179TIP3   OH251413   9.113   8.681   4.093
17179TIP3    H151414   9.209   8.659   4.084
17179TIP3    H251415   9.073   8.596   4.064
17180TIP3   OH251416   9.038   8.252   4.629
17180TIP3    H151417   8.977   8.287   4.562
17180TIP3    H251418   8.987   8.268   4.711
17181TIP3   OH251419   8.912   8.370   4.414
17181TIP3    H151420   8.978   8.439   4.436
17181TIP3    H251421   8.958   8.326   4.338
17182TIP3   OH251422   8.375   8.904   3.753
17182TIP3    H151423   8.311   8.939   3.690
17182TIP3    H251424   8.396   8.984   3.807
17183TIP3   OH251425   9.392   7.960   4.350
17183TIP3    H151426   9.379   7.865   4.371
17183TIP3    H251427   9.314   7.999   4.395
17184TIP3   OH251428   8.879   8.794   3.997
17184TIP3    H151429   8.850   8.754   3.913
17184TIP3    H251430   8.970   8.760   4.003
17185TIP3   OH251431   9.059   8.798   4.339
17185TIP3    H151432   9.052   8.759   4.249
17185TIP3    H251433   9.031   8.890   4.322
17186TIP3   OH251434   8.931   8.897   4.757
17186TIP3    H151435   8.936   8.982   4.806
17186TIP3    H251436   8.837   8.875   4.774
17187TIP3   OH251437   8.775   8.656   3.779
17187TIP3    H151438   8.702   8.695   3.726
17187TIP3    H251439   8.736   8.572   3.807
17188TIP3   OH251440   8.547   9.034   4.698
17188TIP3    H151441   8.479   9.012   4.630
17188TIP3    H251442   8.581   8.946   4.723
17189TIP3   OH251443   8.412   9.242   4.323
17189TIP3    H151444   8.505   9.219   4.310
17189TIP3    H251445   8.415   9.304   4.397
17190TIP3   OH251446   8.749   9.214   4.686
17190TIP3    H151447   8.790   9.199   4.773
17190TIP3    H251448   8.682   9.142   4.685
17191TIP3   OH251449   9.157   8.048   4.468
17191TIP3    H151450   9.067   8.017   4.445
17191TIP3    H251451   9.134   8.130   4.515
17192TIP3   OH251452   9.693   8.151   4.657
17192TIP3    H151453   9.760   8.143   4.728
17192TIP3    H251454   9.609   8.146   4.706
17193TIP3   OH251455   9.295   8.082   3.446
17193TIP3    H151456   9.257   8.087   3.535
17193TIP3    H251457   9.248   8.004   3.411
17194TIP3   OH251458   9.087   8.571   4.491
17194TIP3    H151459   9.030   8.579   4.570
17194TIP3    H251460   9.064   8.651   4.440
17195TIP3   OH251461   8.973   8.454   4.005
17195TIP3    H151462   8.881   8.424   4.021
17195TIP3    H251463   8.989   8.413   3.917
17196TIP3   OH251464   8.910   8.591   4.700
17196TIP3    H151465   8.926   8.651   4.774
17196TIP3    H251466   8.895   8.506   4.747
17197TIP3   OH251467   8.953   8.067   3.413
17197TIP3    H151468   8.945   8.063   3.511
17197TIP3    H251469   8.872   8.115   3.389
17198TIP3   OH251470   8.508   8.111   4.277
17198TIP3    H151471   8.582   8.143   4.332
17198TIP3    H251472   8.550   8.080   4.196
17199TIP3   OH251473   8.483   8.090   3.793
17199TIP3    H151474   8.531   8.132   3.720
17199TIP3    H251475   8.420   8.163   3.815
17200TIP3   OH251476   9.287   8.279   4.065
17200TIP3    H151477   9.210   8.273   4.124
17200TIP3    H251478   9.361   8.257   4.126
17201TIP3   OH251479   8.736   8.329   4.071
17201TIP3    H151480   8.640   8.336   4.046
17201TIP3    H251481   8.756   8.236   4.050
17202TIP3   OH251482   9.004   8.322   3.763
17202TIP3    H151483   9.097   8.346   3.745
17202TIP3    H251484   8.959   8.345   3.679
17203TIP3   OH251485   8.840   8.352   3.542
17203TIP3    H151486   8.758   8.307   3.518
17203TIP3    H251487   8.870   8.379   3.455
17204TIP3   OH251488   8.913   9.131   4.904
17204TIP3    H151489   8.981   9.196   4.928
17204TIP3    H251490   8.850   9.140   4.979
17205TIP3   OH251491   8.909   8.086   4.042
17205TIP3    H151492   8.874   8.007   4.088
17205TIP3    H251493   8.957   8.048   3.968
17206TIP3   OH251494   9.356   8.474   4.469
17206TIP3    H151495   9.272   8.521   4.461
17206TIP3    H251496   9.421   8.545   4.478
17207TIP3   OH251497   8.807   8.895   4.236
17207TIP3    H151498   8.822   8.857   4.147
17207TIP3    H251499   8.803   8.817   4.293
17208TIP3   OH251500   8.672   8.824   4.834
17208TIP3    H151501   8.690   8.809   4.929
17208TIP3    H251502   8.598   8.763   4.816
17209TIP3   OH251503   8.453   8.518   3.550
17209TIP3    H151504   8.499   8.602   3.571
17209TIP3    H251505   8.377   8.522   3.612
17210TIP3   OH251506   8.874   8.338   4.844
17210TIP3    H151507   8.778   8.343   4.860
17210TIP3    H251508   8.902   8.275   4.912
17211TIP3   OH251509   8.591   9.407   4.548
17211TIP3    H151510   8.613   9.323   4.593
17211TIP3    H251511   8.653   9.465   4.596
17212TIP3   OH251512   8.575   8.764   3.624
17212TIP3    H151513   8.512   8.816   3.679
17212TIP3    H251514   8.640   8.832   3.598
17213TIP3   OH251515   9.289   8.322   3.796
17213TIP3    H151516   9.370   8.374   3.785
17213TIP3    H251517   9.284   8.319   3.894
17214TIP3   OH251518   9.427   8.068   3.905
17214TIP3    H151519   9.403   8.134   3.973
17214TIP3    H251520   9.492   8.121   3.855
17215TIP3   OH251521   8.942   8.054   3.689
17215TIP3    H151522   8.943   8.145   3.725
17215TIP3    H251523   9.038   8.034   3.696
17216TIP3   OH251524   8.515   8.250   3.565
17216TIP3    H151525   8.504   8.347   3.568
17216TIP3    H251526   8.424   8.222   3.549
17217TIP3   OH251527   8.894   7.967   4.447
17217TIP3    H151528   8.862   7.932   4.362
17217TIP3    H251529   8.885   7.888   4.506
17218TIP3   OH251530   8.405   9.156   3.852
17218TIP3    H151531   8.341   9.219   3.887
17218TIP3    H251532   8.422   9.192   3.764
17219TIP3   OH251533   8.719   9.120   5.094
17219TIP3    H151534   8.731   9.024   5.085
17219TIP3    H251535   8.630   9.134   5.055
17220TIP3   OH251536   8.829   8.856   5.079
17220TIP3    H151537   8.910   8.805   5.061
17220TIP3    H251538   8.834   8.873   5.173
17221TIP3   OH251539   8.892   8.655   3.492
17221TIP3    H151540   8.856   8.621   3.575
17221TIP3    H251541   8.960   8.588   3.470
17222TIP3   OH251542   9.172   8.754   4.737
17222TIP3    H151543   9.095   8.812   4.755
17222TIP3    H251544   9.171   8.749   4.641
17223TIP3   OH251545   9.289   8.537   4.873
17223TIP3    H151546   9.295   8.457   4.816
17223TIP3    H251547   9.259   8.606   4.811
17224TIP3   OH251548   9.295   8.322   4.687
17224TIP3    H151549   9.325   8.365   4.603
17224TIP3    H251550   9.202   8.299   4.664
17225TIP3   OH251551   9.163   8.658   5.090
17225TIP3    H151552   9.103   8.582   5.105
17225TIP3    H251553   9.206   8.631   5.006
17226TIP3   OH251554   9.430   8.089   4.740
17226TIP3    H151555   9.381   8.172   4.722
17226TIP3    H251556   9.360   8.021   4.730
17227TIP3   OH251557   9.549   8.610   4.951
17227TIP3    H151558   9.538   8.603   5.047
17227TIP3    H251559   9.461   8.583   4.920
17228TIP3   OH251560   9.026   8.428   5.147
17228TIP3    H151561   9.025   8.337   5.110
17228TIP3    H251562   9.052   8.409   5.239
17229TIP3   OH251563   9.525   8.094   4.994
17229TIP3    H151564   9.595   8.026   4.989
17229TIP3    H251565   9.487   8.089   4.904
17230TIP3   OH251566   9.554   8.297   5.172
17230TIP3    H151567   9.554   8.235   5.096
17230TIP3    H251568   9.528   8.381   5.132
17231TIP3   OH251569   8.291   8.925   3.459
17231TIP3    H151570   8.385   8.932   3.479
17231TIP3    H251571   8.284   8.832   3.427
17232TIP3   OH251572   8.184   9.539   3.876
17232TIP3    H151573   8.128   9.460   3.862
17232TIP3    H251574   8.250   9.501   3.938
17233TIP3   OH251575   8.327   9.392   4.067
17233TIP3    H151576   8.331   9.317   4.129
17233TIP3    H251577   8.378   9.458   4.116
17234TIP3   OH251578   8.530   8.801   4.444
17234TIP3    H151579   8.526   8.768   4.351
17234TIP3    H251580   8.626   8.798   4.461
17235TIP3   OH251581   8.771   8.518   5.145
17235TIP3    H151582   8.860   8.479   5.131
17235TIP3    H251583   8.717   8.439   5.159
17236TIP3   OH251584   8.713   8.176   4.447
17236TIP3    H151585   8.773   8.101   4.462
17236TIP3    H251586   8.775   8.251   4.448
17237TIP3   OH251587   8.517   8.449   4.528
17237TIP3    H151588   8.560   8.440   4.440
17237TIP3    H251589   8.546   8.536   4.556
17238TIP3   OH251590   8.499   7.948   4.024
17238TIP3    H151591   8.406   7.940   4.053
17238TIP3    H251592   8.491   8.010   3.949
17239TIP3   OH251593   8.715   8.031   4.844
17239TIP3    H151594   8.663   8.032   4.926
17239TIP3    H251595   8.650   8.072   4.782
17240TIP3   OH251596   8.747   9.429   4.931
17240TIP3    H151597   8.655   9.439   4.902
17240TIP3    H251598   8.741   9.435   5.026
17241TIP3   OH251599   9.495   8.162   4.185
17241TIP3    H151600   9.477   8.090   4.248
17241TIP3    H251601   9.582   8.141   4.150
17242TIP3   OH251602   8.805   7.874   4.198
17242TIP3    H151603   8.713   7.841   4.194
17242TIP3    H251604   8.855   7.789   4.195
17243TIP3   OH251605   8.587   7.746   3.844
17243TIP3    H151606   8.619   7.804   3.773
17243TIP3    H251607   8.560   7.810   3.913
17244TIP3   OH251608   9.247   7.907   4.079
17244TIP3    H151609   9.309   7.959   4.025
17244TIP3    H251610   9.264   7.940   4.168
17245TIP3   OH251611   9.872   7.945   4.012
17245TIP3    H151612   9.815   8.017   3.980
17245TIP3    H251613   9.817   7.909   4.085
17246TIP3   OH251614   8.283   9.301   3.642
17246TIP3    H151615   8.230   9.234   3.596
17246TIP3    H251616   8.226   9.377   3.631
17247TIP3   OH251617   8.708   7.904   3.608
17247TIP3    H151618   8.758   7.842   3.551
17247TIP3    H251619   8.780   7.957   3.647
17248TIP3   OH251620   9.216   8.075   3.712
17248TIP3    H151621   9.277   8.030   3.774
17248TIP3    H251622   9.237   8.168   3.735
17249TIP3   OH251623   9.014   8.158   5.090
17249TIP3    H151624   8.979   8.087   5.145
17249TIP3    H251625   9.109   8.155   5.116
17250TIP3   OH251626   9.263   8.156   5.214
17250TIP3    H151627   9.348   8.141   5.171
17250TIP3    H251628   9.256   8.079   5.273
17251TIP3   OH251629   0.983   8.975   6.396
17251TIP3    H151630   0.944   9.059   6.421
17251TIP3    H251631   0.987   8.986   6.300
17252TIP3   OH251632   1.241   8.877   7.089
17252TIP3    H151633   1.298   8.813   7.041
17252TIP3    H251634   1.202   8.928   7.015
17253TIP3   OH251635   1.106   9.020   6.897
17253TIP3    H151636   1.016   9.053   6.895
17253TIP3    H251637   1.103   8.952   6.827
17254TIP3   OH251638   0.742   8.666   5.467
17254TIP3    H151639   0.783   8.589   5.423
17254TIP3    H251640   0.812   8.733   5.462
17255TIP3   OH251641   1.002   8.777   6.764
17255TIP3    H151642   0.911   8.777   6.733
17255TIP3    H251643   1.029   8.685   6.749
17256TIP3   OH251644   0.820   8.663   6.023
17256TIP3    H151645   0.908   8.629   6.000
17256TIP3    H251646   0.840   8.758   6.038
17257TIP3   OH251647   0.907   9.177   5.709
17257TIP3    H151648   0.896   9.267   5.742
17257TIP3    H251649   0.853   9.126   5.770
17258TIP3   OH251650   2.758   9.216   5.883
17258TIP3    H151651   2.787   9.293   5.935
17258TIP3    H251652   2.792   9.238   5.795
17259TIP3   OH251653   2.165   9.396   5.906
17259TIP3    H151654   2.202   9.309   5.931
17259TIP3    H251655   2.125   9.374   5.820
17260TIP3   OH251656   1.496   9.056   5.885
17260TIP3    H151657   1.478   9.130   5.823
17260TIP3    H251658   1.446   8.984   5.840
17261TIP3   OH251659   2.188   9.136   5.516
17261TIP3    H151660   2.263   9.122   5.578
17261TIP3    H251661   2.230   9.197   5.454
17262TIP3   OH251662   1.118   9.242   5.993
17262TIP3    H151663   1.202   9.237   6.043
17262TIP3    H251664   1.145   9.203   5.908
17263TIP3   OH251665   1.586   9.460   5.762
17263TIP3    H151666   1.670   9.423   5.797
17263TIP3    H251667   1.535   9.381   5.739
17264TIP3   OH251668   2.838   9.415   6.054
17264TIP3    H151669   2.758   9.467   6.032
17264TIP3    H251670   2.855   9.448   6.144
17265TIP3   OH251671   1.492   9.039   6.319
17265TIP3    H151672   1.430   9.074   6.252
17265TIP3    H251673   1.442   9.060   6.401
17266TIP3   OH251674   2.409   9.152   5.676
17266TIP3    H151675   2.391   9.102   5.756
17266TIP3    H251676   2.448   9.235   5.712
17267TIP3   OH251677   1.363   9.152   6.104
17267TIP3    H151678   1.422   9.228   6.121
17267TIP3    H251679   1.410   9.109   6.029
17268TIP3   OH251680   2.552   9.114   6.048
17268TIP3    H151681   2.466   9.149   6.023
17268TIP3    H251682   2.611   9.148   5.978
17269TIP3   OH251683   1.850   8.762   6.030
17269TIP3    H151684   1.838   8.667   6.050
17269TIP3    H251685   1.774   8.800   6.078
17270TIP3   OH251686   1.746   9.272   5.041
17270TIP3    H151687   1.791   9.352   5.072
17270TIP3    H251688   1.804   9.244   4.968
17271TIP3   OH251689   2.387   9.634   6.159
17271TIP3    H151690   2.402   9.723   6.124
17271TIP3    H251691   2.292   9.622   6.136
17272TIP3   OH251692   2.482   8.704   5.133
17272TIP3    H151693   2.402   8.724   5.186
17272TIP3    H251694   2.494   8.789   5.085
17273TIP3   OH251695   2.610   9.605   6.346
17273TIP3    H151696   2.531   9.595   6.291
17273TIP3    H251697   2.637   9.512   6.357
17274TIP3   OH251698   1.613   8.836   6.161
17274TIP3    H151699   1.524   8.804   6.137
17274TIP3    H251700   1.589   8.920   6.205
17275TIP3   OH251701   2.145   8.950   6.354
17275TIP3    H151702   2.214   8.926   6.419
17275TIP3    H251703   2.062   8.931   6.402
17276TIP3   OH251704   2.383   9.366   6.273
17276TIP3    H151705   2.339   9.361   6.361
17276TIP3    H251706   2.359   9.455   6.243
17277TIP3   OH251707   1.761   8.881   5.132
17277TIP3    H151708   1.726   8.883   5.224
17277TIP3    H251709   1.719   8.799   5.100
17278TIP3   OH251710   1.535   9.358   6.167
17278TIP3    H151711   1.481   9.368   6.248
17278TIP3    H251712   1.515   9.440   6.119
17279TIP3   OH251713   1.428   9.235   5.695
17279TIP3    H151714   1.334   9.211   5.708
17279TIP3    H251715   1.442   9.199   5.605
17280TIP3   OH251716   1.929   9.324   5.423
17280TIP3    H151717   1.847   9.375   5.404
17280TIP3    H251718   1.966   9.308   5.334
17281TIP3   OH251719   2.105   9.583   6.498
17281TIP3    H151720   2.091   9.508   6.559
17281TIP3    H251721   2.195   9.610   6.523
17282TIP3   OH251722   2.059   9.340   5.663
17282TIP3    H151723   2.002   9.357   5.585
17282TIP3    H251724   2.103   9.259   5.631
17283TIP3   OH251725   1.379   9.380   6.412
17283TIP3    H151726   1.334   9.422   6.487
17283TIP3    H251727   1.353   9.287   6.428
17284TIP3   OH251728   1.411   8.856   5.100
17284TIP3    H151729   1.405   8.857   5.197
17284TIP3    H251730   1.335   8.912   5.076
17285TIP3   OH251731   0.958   8.905   5.945
17285TIP3    H151732   1.017   8.940   6.017
17285TIP3    H251733   1.022   8.855   5.893
17286TIP3   OH251734   0.927   8.898   5.496
17286TIP3    H151735   0.966   8.920   5.409
17286TIP3    H251736   0.898   8.986   5.522
17287TIP3   OH251737   2.124   9.582   6.092
17287TIP3    H151738   2.132   9.510   6.026
17287TIP3    H251739   2.057   9.544   6.152
17288TIP3   OH251740   1.751   9.051   5.754
17288TIP3    H151741   1.668   9.056   5.806
17288TIP3    H251742   1.817   9.069   5.823
17289TIP3   OH251743   1.185   9.118   5.753
17289TIP3    H151744   1.091   9.113   5.726
17289TIP3    H251745   1.217   9.027   5.740
17290TIP3   OH251746   1.463   9.110   5.452
17290TIP3    H151747   1.554   9.135   5.428
17290TIP3    H251748   1.410   9.136   5.373
17291TIP3   OH251749   2.240   9.134   5.952
17291TIP3    H151750   2.212   9.146   6.046
17291TIP3    H251751   2.172   9.072   5.921
17292TIP3   OH251752   1.288   9.123   5.235
17292TIP3    H151753   1.226   9.092   5.166
17292TIP3    H251754   1.335   9.194   5.185
17293TIP3   OH251755   1.829   9.362   5.848
17293TIP3    H151756   1.915   9.348   5.805
17293TIP3    H251757   1.850   9.354   5.942
17294TIP3   OH251758   1.356   8.878   5.730
17294TIP3    H151759   1.326   8.797   5.776
17294TIP3    H251760   1.410   8.843   5.659
17295TIP3   OH251761   1.811   9.274   6.149
17295TIP3    H151762   1.724   9.319   6.145
17295TIP3    H251763   1.869   9.340   6.192
17296TIP3   OH251764   2.004   9.000   5.096
17296TIP3    H151765   1.909   8.973   5.108
17296TIP3    H251766   2.003   9.094   5.120
17297TIP3   OH251767   2.077   9.259   5.181
17297TIP3    H151768   2.171   9.239   5.177
17297TIP3    H251769   2.072   9.347   5.139
17298TIP3   OH251770   1.857   9.614   6.625
17298TIP3    H151771   1.784   9.659   6.577
17298TIP3    H251772   1.915   9.588   6.552
17299TIP3   OH251773   2.537   9.335   5.032
17299TIP3    H151774   2.470   9.277   4.990
17299TIP3    H251775   2.525   9.413   4.977
17300TIP3   OH251776   1.343   9.123   6.539
17300TIP3    H151777   1.248   9.119   6.558
17300TIP3    H251778   1.373   9.054   6.600
17301TIP3   OH251779   2.171   9.185   6.212
17301TIP3    H151780   2.249   9.225   6.255
17301TIP3    H251781   2.156   9.106   6.267
17302TIP3   OH251782   2.052   8.934   5.378
17302TIP3    H151783   2.036   8.963   5.286
17302TIP3    H251784   2.091   9.014   5.419
17303TIP3   OH251785   1.749   9.115   5.484
17303TIP3    H151786   1.815   9.187   5.471
17303TIP3    H251787   1.746   9.107   5.581
17304TIP3   OH251788   1.999   9.428   6.286
17304TIP3    H151789   2.032   9.484   6.360
17304TIP3    H251790   2.056   9.349   6.294
17305TIP3   OH251791   1.884   8.844   5.587
17305TIP3    H151792   1.875   8.920   5.648
17305TIP3    H251793   1.945   8.882   5.519
17306TIP3   OH251794   1.397   8.842   5.376
17306TIP3    H151795   1.392   8.935   5.406
17306TIP3    H251796   1.493   8.827   5.386
17307TIP3   OH251797   2.652   9.339   6.272
17307TIP3    H151798   2.555   9.331   6.281
17307TIP3    H251799   2.666   9.298   6.186
17308TIP3   OH251800   2.302   9.493   5.607
17308TIP3    H151801   2.227   9.462   5.658
17308TIP3    H251802   2.372   9.495   5.675
17309TIP3   OH251803   0.950   9.035   5.263
17309TIP3    H151804   0.970   9.129   5.248
17309TIP3    H251805   0.876   9.017   5.204
17310TIP3   OH251806   1.352   8.749   6.139
17310TIP3    H151807   1.316   8.723   6.052
17310TIP3    H251808   1.332   8.672   6.194
17311TIP3   OH251809   1.313   9.645   6.762
17311TIP3    H151810   1.341   9.553   6.769
17311TIP3    H251811   1.298   9.670   6.853
17312TIP3   OH251812   1.630   9.502   6.390
17312TIP3    H151813   1.535   9.478   6.400
17312TIP3    H251814   1.643   9.500   6.294
17313TIP3   OH251815   1.458   9.270   5.077
17313TIP3    H151816   1.435   9.216   4.998
17313TIP3    H251817   1.555   9.266   5.077
17314TIP3   OH251818   1.748   9.314   6.565
17314TIP3    H151819   1.754   9.232   6.513
17314TIP3    H251820   1.714   9.377   6.499
17315TIP3   OH251821   1.752   9.109   6.366
17315TIP3    H151822   1.779   9.155   6.284
17315TIP3    H251823   1.658   9.090   6.347
17316TIP3   OH251824   2.371   9.625   6.612
17316TIP3    H151825   2.389   9.541   6.658
17316TIP3    H251826   2.462   9.654   6.596
17317TIP3   OH251827   1.610   9.448   6.777
17317TIP3    H151828   1.557   9.367   6.790
17317TIP3    H251829   1.665   9.423   6.701
17318TIP3   OH251830   1.885   8.876   6.430
17318TIP3    H151831   1.837   8.959   6.409
17318TIP3    H251832   1.815   8.809   6.419
17319TIP3   OH251833   2.022   9.368   6.646
17319TIP3    H151834   2.019   9.366   6.743
17319TIP3    H251835   1.927   9.355   6.628
17320TIP3   OH251836   2.253   9.319   6.502
17320TIP3    H151837   2.177   9.317   6.565
17320TIP3    H251838   2.328   9.293   6.560
17321TIP3   OH251839   2.476   9.266   6.650
17321TIP3    H151840   2.492   9.173   6.677
17321TIP3    H251841   2.471   9.314   6.735
17322TIP3   OH251842   1.470   9.221   6.845
17322TIP3    H151843   1.475   9.134   6.802
17322TIP3    H251844   1.507   9.201   6.933
17323TIP3   OH251845   1.976   8.887   6.689
17323TIP3    H151846   2.046   8.819   6.685
17323TIP3    H251847   1.939   8.880   6.599
17324TIP3   OH251848   2.043   9.102   6.849
17324TIP3    H151849   2.021   9.032   6.784
17324TIP3    H251850   1.967   9.163   6.841
17325TIP3   OH251851   2.344   9.245   4.850
17325TIP3    H151852   2.329   9.265   4.757
17325TIP3    H251853   2.323   9.148   4.850
17326TIP3   OH251854   2.815   9.769   6.278
17326TIP3    H151855   2.746   9.704   6.303
17326TIP3    H251856   2.894   9.712   6.277
17327TIP3   OH251857   2.293   8.979   4.839
17327TIP3    H151858   2.372   8.942   4.885
17327TIP3    H251859   2.223   8.914   4.858
17328TIP3   OH251860   2.519   9.392   5.767
17328TIP3    H151861   2.604   9.431   5.739
17328TIP3    H251862   2.519   9.426   5.859
17329TIP3   OH251863   2.585   9.525   5.996
17329TIP3    H151864   2.511   9.552   6.053
17329TIP3    H251865   2.635   9.610   5.988
17330TIP3   OH251866   1.204   9.276   6.805
17330TIP3    H151867   1.301   9.269   6.815
17330TIP3    H251868   1.175   9.192   6.844
17331TIP3   OH251869   3.026   9.123   6.570
17331TIP3    H151870   3.091   9.066   6.524
17331TIP3    H251871   3.009   9.193   6.504
17332TIP3   OH251872   2.468   8.969   5.316
17332TIP3    H151873   2.508   8.960   5.404
17332TIP3    H251874   2.399   8.901   5.319
17333TIP3   OH251875   1.158   8.954   6.126
17333TIP3    H151876   1.224   8.888   6.155
17333TIP3    H251877   1.210   9.036   6.131
17334TIP3   OH251878   0.990   9.238   6.239
17334TIP3    H151879   1.021   9.234   6.146
17334TIP3    H251880   0.962   9.330   6.245
17335TIP3   OH251881   2.910   9.279   6.373
17335TIP3    H151882   2.826   9.315   6.405
17335TIP3    H251883   2.877   9.205   6.318
17336TIP3   OH251884   2.544   8.914   4.951
17336TIP3    H151885   2.583   8.838   4.904
17336TIP3    H251886   2.615   8.981   4.946
17337TIP3   OH251887   0.950   8.726   5.701
17337TIP3    H151888   0.879   8.759   5.757
17337TIP3    H251889   0.951   8.793   5.629
17338TIP3   OH251890   1.174   8.904   6.588
17338TIP3    H151891   1.113   8.851   6.641
17338TIP3    H251892   1.124   8.907   6.503
17339TIP3   OH251893   2.805   9.040   6.251
17339TIP3    H151894   2.712   9.031   6.222
17339TIP3    H251895   2.836   8.947   6.241
17340TIP3   OH251896   2.014   8.955   5.871
17340TIP3    H151897   1.965   8.889   5.923
17340TIP3    H251898   2.083   8.902   5.828
17341TIP3   OH251899   2.534   8.829   5.772
17341TIP3    H151900   2.569   8.886   5.701
17341TIP3    H251901   2.439   8.850   5.771
17342TIP3   OH251902   2.631   8.941   5.539
17342TIP3    H151903   2.702   8.887   5.499
17342TIP3    H251904   2.668   9.031   5.536
17343TIP3   OH251905   1.258   8.663   5.887
17343TIP3    H151906   1.167   8.626   5.888
17343TIP3    H251907   1.310   8.580   5.884
17344TIP3   OH251908   1.044   8.527   5.532
17344TIP3    H151909   1.074   8.586   5.461
17344TIP3    H251910   1.014   8.592   5.600
17345TIP3   OH251911   1.701   8.694   5.769
17345TIP3    H151912   1.758   8.747   5.711
17345TIP3    H251913   1.720   8.734   5.855
17346TIP3   OH251914   2.252   8.841   5.750
17346TIP3    H151915   2.246   8.801   5.663
17346TIP3    H251916   2.237   8.763   5.808
17347TIP3   OH251917   2.276   8.763   5.313
17347TIP3    H151918   2.190   8.806   5.328
17347TIP3    H251919   2.263   8.679   5.361
17348TIP3   OH251920   1.161   8.691   5.303
17348TIP3    H151921   1.211   8.632   5.244
17348TIP3    H251922   1.232   8.748   5.338
17349TIP3   OH251923   1.675   8.867   5.397
17349TIP3    H151924   1.735   8.823   5.460
17349TIP3    H251925   1.693   8.961   5.422
17350TIP3   OH251926   1.468   8.941   6.775
17350TIP3    H151927   1.432   8.876   6.837
17350TIP3    H251928   1.562   8.944   6.804
17351TIP3   OH251929   1.713   8.938   6.897
17351TIP3    H151930   1.801   8.925   6.858
17351TIP3    H251931   1.710   8.865   6.962
17352TIP3   OH251932   2.538   8.997   6.686
17352TIP3    H151933   2.556   8.970   6.778
17352TIP3    H251934   2.627   8.996   6.646
17353TIP3   OH251935   2.648   9.436   5.271
17353TIP3    H151936   2.667   9.525   5.236
17353TIP3    H251937   2.614   9.391   5.189
17354TIP3   OH251938   4.556   9.473   5.371
17354TIP3    H151939   4.586   9.556   5.413
17354TIP3    H251940   4.572   9.494   5.277
17355TIP3   OH251941   3.956   9.653   5.397
17355TIP3    H151942   3.997   9.567   5.420
17355TIP3    H251943   3.918   9.632   5.310
17356TIP3   OH251944   3.293   9.313   5.373
17356TIP3    H151945   3.274   9.387   5.312
17356TIP3    H251946   3.248   9.240   5.327
17357TIP3   OH251947   3.986   9.404   4.994
17357TIP3    H151948   4.058   9.386   5.060
17357TIP3    H251949   4.040   9.439   4.921
17358TIP3   OH251950   2.904   9.476   5.471
17358TIP3    H151951   2.984   9.504   5.521
17358TIP3    H251952   2.946   9.454   5.386
17359TIP3   OH251953   3.393   9.712   5.206
17359TIP3    H151954   3.467   9.691   5.267
17359TIP3    H251955   3.333   9.636   5.221
17360TIP3   OH251956   4.642   9.677   5.540
17360TIP3    H151957   4.563   9.725   5.510
17360TIP3    H251958   4.633   9.688   5.636
17361TIP3   OH251959   3.289   9.297   5.806
17361TIP3    H151960   3.229   9.337   5.740
17361TIP3    H251961   3.238   9.314   5.888
17362TIP3   OH251962   4.198   9.406   5.163
17362TIP3    H151963   4.186   9.358   5.246
17362TIP3    H251964   4.247   9.486   5.192
17363TIP3   OH251965   3.158   9.412   5.591
17363TIP3    H151966   3.213   9.490   5.613
17363TIP3    H251967   3.213   9.372   5.520
17364TIP3   OH251968   4.348   9.377   5.538
17364TIP3    H151969   4.260   9.402   5.507
17364TIP3    H251970   4.406   9.407   5.465
17365TIP3   OH251971   3.645   9.017   5.518
17365TIP3    H151972   3.634   8.922   5.538
17365TIP3    H251973   3.568   9.054   5.566
17366TIP3   OH251974   3.551   9.551   4.527
17366TIP3    H151975   3.626   9.602   4.561
17366TIP3    H251976   3.594   9.500   4.455
17367TIP3   OH251977   4.188   9.899   5.645
17367TIP3    H151978   4.193   9.987   5.605
17367TIP3    H251979   4.097   9.873   5.616
17368TIP3   OH251980   4.279   8.961   4.620
17368TIP3    H151981   4.197   8.977   4.672
17368TIP3    H251982   4.289   9.046   4.573
17369TIP3   OH251983   4.408   9.866   5.831
17369TIP3    H151984   4.327   9.859   5.778
17369TIP3    H251985   4.434   9.772   5.836
17370TIP3   OH251986   3.405   9.093   5.647
17370TIP3    H151987   3.315   9.063   5.623
17370TIP3    H251988   3.382   9.175   5.694
17371TIP3   OH251989   3.940   9.209   5.842
17371TIP3    H151990   4.008   9.180   5.907
17371TIP3    H251991   3.856   9.187   5.888
17372TIP3   OH251992   4.184   9.628   5.766
17372TIP3    H151993   4.135   9.619   5.850
17372TIP3    H251994   4.148   9.710   5.728
17373TIP3   OH251995   3.546   9.143   4.603
17373TIP3    H151996   3.534   9.150   4.701
17373TIP3    H251997   3.510   9.054   4.593
17374TIP3   OH251998   3.333   9.620   5.661
17374TIP3    H151999   3.278   9.621   5.743
17374TIP3    H252000   3.339   9.717   5.648
17375TIP3   OH252001   3.213   9.498   5.192
17375TIP3    H152002   3.122   9.464   5.195
17375TIP3    H252003   3.238   9.470   5.100
17376TIP3   OH252004   3.721   9.591   4.907
17376TIP3    H152005   3.643   9.636   4.871
17376TIP3    H252006   3.770   9.567   4.826
17377TIP3   OH252007   3.998   9.924   6.007
17377TIP3    H152008   3.903   9.889   6.028
17377TIP3    H252009   4.005   9.854   5.957
17378TIP3   OH252010   3.860   9.597   5.149
17378TIP3    H152011   3.801   9.616   5.072
17378TIP3    H252012   3.906   9.519   5.111
17379TIP3   OH252013   3.182   9.619   5.886
17379TIP3    H152014   3.184   9.699   5.942
17379TIP3    H252015   3.157   9.549   5.949
17380TIP3   OH252016   2.749   9.205   5.448
17380TIP3    H152017   2.828   9.194   5.505
17380TIP3    H252018   2.763   9.135   5.379
17381TIP3   OH252019   2.728   9.133   4.978
17381TIP3    H152020   2.775   9.167   4.899
17381TIP3    H252021   2.669   9.209   4.995
17382TIP3   OH252022   3.937   9.839   5.590
17382TIP3    H152023   3.934   9.769   5.520
17382TIP3    H252024   3.857   9.817   5.640
17383TIP3   OH252025   3.550   9.312   5.242
17383TIP3    H152026   3.468   9.312   5.295
17383TIP3    H252027   3.617   9.325   5.311
17384TIP3   OH252028   2.976   9.363   5.232
17384TIP3    H152029   2.887   9.326   5.224
17384TIP3    H252030   3.031   9.282   5.221
17385TIP3   OH252031   3.258   9.407   4.945
17385TIP3    H152032   3.351   9.387   4.921
17385TIP3    H252033   3.207   9.377   4.867
17386TIP3   OH252034   4.039   9.391   5.442
17386TIP3    H152035   4.007   9.402   5.534
17386TIP3    H252036   3.973   9.327   5.409
17387TIP3   OH252037   3.064   9.386   4.729
17387TIP3    H152038   3.001   9.335   4.676
17387TIP3    H252039   3.124   9.417   4.661
17388TIP3   OH252040   3.625   9.623   5.334
17388TIP3    H152041   3.710   9.602   5.293
17388TIP3    H252042   3.644   9.614   5.429
17389TIP3   OH252043   3.150   9.139   5.214
17389TIP3    H152044   3.125   9.056   5.260
17389TIP3    H252045   3.203   9.106   5.140
17390TIP3   OH252046   3.605   9.534   5.637
17390TIP3    H152047   3.517   9.578   5.637
17390TIP3    H252048   3.663   9.600   5.679
17391TIP3   OH252049   3.798   9.256   4.580
17391TIP3    H152050   3.703   9.232   4.593
17391TIP3    H252051   3.803   9.349   4.609
17392TIP3   OH252052   3.872   9.514   4.674
17392TIP3    H152053   3.961   9.493   4.707
17392TIP3    H252054   3.889   9.598   4.628
17393TIP3   OH252055   3.607   9.815   6.123
17393TIP3    H152056   3.655   9.731   6.132
17393TIP3    H252057   3.555   9.788   6.063
17394TIP3   OH252058   4.314   9.571   4.530
17394TIP3    H152059   4.250   9.533   4.466
17394TIP3    H252060   4.318   9.662   4.498
17395TIP3   OH252061   3.132   9.373   6.027
17395TIP3    H152062   3.036   9.378   6.043
17395TIP3    H252063   3.161   9.315   6.099
17396TIP3   OH252064   3.967   9.445   5.703
17396TIP3    H152065   4.048   9.477   5.746
17396TIP3    H252066   3.949   9.363   5.754
17397TIP3   OH252067   3.856   9.193   4.865
17397TIP3    H152068   3.833   9.220   4.775
17397TIP3    H252069   3.891   9.275   4.906
17398TIP3   OH252070   3.539   9.388   4.980
17398TIP3    H152071   3.613   9.450   4.967
17398TIP3    H252072   3.539   9.375   5.077
17399TIP3   OH252073   3.793   9.690   5.774
17399TIP3    H152074   3.813   9.744   5.849
17399TIP3    H252075   3.852   9.613   5.784
17400TIP3   OH252076   3.698   9.102   5.093
17400TIP3    H152077   3.676   9.184   5.140
17400TIP3    H252078   3.739   9.136   5.011
17401TIP3   OH252079   4.451   9.598   5.751
17401TIP3    H152080   4.354   9.595   5.767
17401TIP3    H252081   4.455   9.545   5.670
17402TIP3   OH252082   4.090   9.770   5.126
17402TIP3    H152083   4.019   9.717   5.164
17402TIP3    H252084   4.165   9.747   5.184
17403TIP3   OH252085   2.745   9.299   4.759
17403TIP3    H152086   2.766   9.390   4.733
17403TIP3    H252087   2.679   9.271   4.695
17404TIP3   OH252088   3.138   9.013   5.625
17404TIP3    H152089   3.111   8.976   5.538
17404TIP3    H252090   3.133   8.934   5.683
17405TIP3   OH252091   3.102   9.900   6.239
17405TIP3    H152092   3.171   9.834   6.242
17405TIP3    H252093   3.117   9.955   6.319
17406TIP3   OH252094   3.287   9.574   4.570
17406TIP3    H152095   3.219   9.513   4.538
17406TIP3    H252096   3.368   9.519   4.567
17407TIP3   OH252097   3.547   9.569   6.043
17407TIP3    H152098   3.548   9.478   6.001
17407TIP3    H252099   3.519   9.620   5.967
17408TIP3   OH252100   3.547   9.367   5.853
17408TIP3    H152101   3.574   9.412   5.770
17408TIP3    H252102   3.453   9.345   5.834
17409TIP3   OH252103   4.189   9.875   6.117
17409TIP3    H152104   4.200   9.779   6.136
17409TIP3    H252105   4.270   9.906   6.080
17410TIP3   OH252106   3.425   9.692   6.284
17410TIP3    H152107   3.356   9.626   6.303
17410TIP3    H252108   3.431   9.685   6.188
17411TIP3   OH252109   3.681   9.134   5.917
17411TIP3    H152110   3.631   9.216   5.895
17411TIP3    H252111   3.612   9.066   5.907
17412TIP3   OH252112   3.823   9.588   6.146
17412TIP3    H152113   3.803   9.624   6.237
17412TIP3    H252114   3.737   9.559   6.110
17413TIP3   OH252115   4.048   9.588   5.993
17413TIP3    H152116   3.971   9.584   6.057
17413TIP3    H252117   4.118   9.547   6.048
17414TIP3   OH252118   4.281   9.531   6.144
17414TIP3    H152119   4.291   9.435   6.163
17414TIP3    H252120   4.273   9.569   6.234
17415TIP3   OH252121   3.258   9.479   6.327
17415TIP3    H152122   3.264   9.387   6.294
17415TIP3    H252123   3.292   9.466   6.419
17416TIP3   OH252124   3.776   9.147   6.174
17416TIP3    H152125   3.843   9.076   6.172
17416TIP3    H252126   3.736   9.138   6.086
17417TIP3   OH252127   3.842   9.359   6.336
17417TIP3    H152128   3.820   9.289   6.271
17417TIP3    H252129   3.763   9.417   6.332
17418TIP3   OH252130   4.142   9.499   4.329
17418TIP3    H152131   4.120   9.518   4.237
17418TIP3    H252132   4.121   9.402   4.332
17419TIP3   OH252133   4.182   9.747   4.874
17419TIP3    H152134   4.183   9.652   4.887
17419TIP3    H252135   4.159   9.776   4.965
17420TIP3   OH252136   4.621  10.020   5.757
17420TIP3    H152137   4.544   9.966   5.786
17420TIP3    H252138   4.692   9.953   5.765
17421TIP3   OH252139   4.089   9.233   4.321
17421TIP3    H152140   4.166   9.199   4.372
17421TIP3    H252141   4.018   9.171   4.344
17422TIP3   OH252142   4.137   9.472   4.769
17422TIP3    H152143   4.181   9.385   4.784
17422TIP3    H252144   4.200   9.512   4.707
17423TIP3   OH252145   4.310   9.653   5.258
17423TIP3    H152146   4.394   9.683   5.217
17423TIP3    H252147   4.325   9.690   5.348
17424TIP3   OH252148   4.389   9.787   5.486
17424TIP3    H152149   4.315   9.817   5.541
17424TIP3    H252150   4.437   9.872   5.470
17425TIP3   OH252151   2.987   9.535   6.295
17425TIP3    H152152   3.085   9.530   6.298
17425TIP3    H252153   2.965   9.452   6.341
17426TIP3   OH252154   4.813   9.387   6.049
17426TIP3    H152155   4.885   9.328   6.019
17426TIP3    H252156   4.804   9.450   5.975
17427TIP3   OH252157   4.258   9.231   4.809
17427TIP3    H152158   4.306   9.217   4.894
17427TIP3    H252159   4.197   9.155   4.810
17428TIP3   OH252160   2.950   9.216   5.626
17428TIP3    H152161   3.015   9.143   5.640
17428TIP3    H252162   3.011   9.292   5.620
17429TIP3   OH252163   2.750   9.507   5.688
17429TIP3    H152164   2.824   9.506   5.624
17429TIP3    H252165   2.771   9.587   5.738
17430TIP3   OH252166   4.707   9.542   5.849
17430TIP3    H152167   4.620   9.574   5.880
17430TIP3    H252168   4.678   9.463   5.800
17431TIP3   OH252169   4.338   9.172   4.438
17431TIP3    H152170   4.379   9.097   4.391
17431TIP3    H252171   4.409   9.239   4.436
17432TIP3   OH252172   2.734   9.029   5.229
17432TIP3    H152173   2.642   8.999   5.236
17432TIP3    H252174   2.738   9.062   5.137
17433TIP3   OH252175   2.963   9.076   6.017
17433TIP3    H152176   2.916   9.072   6.102
17433TIP3    H252177   2.893   9.114   5.960
17434TIP3   OH252178   4.601   9.296   5.738
17434TIP3    H152179   4.509   9.288   5.709
17434TIP3    H252180   4.632   9.203   5.729
17435TIP3   OH252181   3.812   9.215   5.365
17435TIP3    H152182   3.761   9.147   5.413
17435TIP3    H252183   3.871   9.160   5.311
17436TIP3   OH252184   4.331   9.091   5.263
17436TIP3    H152185   4.365   9.144   5.188
17436TIP3    H252186   4.235   9.106   5.257
17437TIP3   OH252187   4.424   9.193   5.026
17437TIP3    H152188   4.498   9.142   4.986
17437TIP3    H252189   4.457   9.285   5.012
17438TIP3   OH252190   3.053   8.919   5.375
17438TIP3    H152191   2.963   8.883   5.378
17438TIP3    H252192   3.105   8.836   5.372
17439TIP3   OH252193   2.836   8.787   5.016
17439TIP3    H152194   2.873   8.841   4.943
17439TIP3    H252195   2.818   8.854   5.083
17440TIP3   OH252196   3.497   8.955   5.257
17440TIP3    H152197   3.561   9.000   5.199
17440TIP3    H252198   3.522   8.989   5.343
17441TIP3   OH252199   4.052   9.097   5.237
17441TIP3    H152200   4.036   9.060   5.149
17441TIP3    H252201   4.034   9.019   5.295
17442TIP3   OH252202   4.074   9.020   4.801
17442TIP3    H152203   3.988   9.064   4.816
17442TIP3    H252204   4.059   8.935   4.848
17443TIP3   OH252205   2.944   8.950   4.785
17443TIP3    H152206   3.004   8.890   4.736
17443TIP3    H252207   3.016   9.005   4.820
17444TIP3   OH252208   3.524   9.140   4.867
17444TIP3    H152209   3.492   9.068   4.924
17444TIP3    H252210   3.517   9.220   4.922
17445TIP3   OH252211   3.263   9.200   6.263
17445TIP3    H152212   3.227   9.131   6.322
17445TIP3    H252213   3.356   9.201   6.292
17446TIP3   OH252214   3.511   9.197   6.383
17446TIP3    H152215   3.596   9.168   6.347
17446TIP3    H252216   3.496   9.128   6.452
17447TIP3   OH252217   4.335   9.259   6.173
17447TIP3    H152218   4.353   9.227   6.264
17447TIP3    H252219   4.423   9.254   6.132
17448TIP3   OH252220   4.519   9.706   4.687
17448TIP3    H152221   4.476   9.779   4.733
17448TIP3    H252222   4.445   9.645   4.672
17449TIP3   OH252223   6.347   9.729   4.855
17449TIP3    H152224   6.381   9.809   4.899
17449TIP3    H252225   6.374   9.745   4.763
17450TIP3   OH252226   5.735   9.904   4.890
17450TIP3    H152227   5.787   9.823   4.909
17450TIP3    H252228   5.710   9.888   4.797
17451TIP3   OH252229   5.091   9.571   4.859
17451TIP3    H152230   5.070   9.644   4.796
17451TIP3    H252231   5.043   9.497   4.815
17452TIP3   OH252232   5.782   9.659   4.483
17452TIP3    H152233   5.856   9.644   4.546
17452TIP3    H252234   5.832   9.695   4.407
17453TIP3   OH252235   4.713   9.755   4.975
17453TIP3    H152236   4.802   9.747   5.013
17453TIP3    H252237   4.728   9.720   4.885
17454TIP3   OH252238   5.175   9.970   4.753
17454TIP3    H152239   5.260   9.928   4.775
17454TIP3    H252240   5.123   9.896   4.717
17455TIP3   OH252241   6.434   9.928   5.031
17455TIP3    H152242   6.355   9.977   5.001
17455TIP3    H252243   6.445   9.963   5.120
17456TIP3   OH252244   5.083   9.553   5.298
17456TIP3    H152245   5.024   9.589   5.228
17456TIP3    H252246   5.026   9.567   5.376
17457TIP3   OH252247   5.993   9.665   4.652
17457TIP3    H152248   5.997   9.611   4.732
17457TIP3    H252249   6.047   9.743   4.677
17458TIP3   OH252250   4.960   9.666   5.080
17458TIP3    H152251   5.016   9.745   5.096
17458TIP3    H252252   5.006   9.627   5.002
17459TIP3   OH252253   6.144   9.630   5.024
17459TIP3    H152254   6.058   9.660   4.991
17459TIP3    H252255   6.206   9.662   4.954
17460TIP3   OH252256   5.442   9.278   5.008
17460TIP3    H152257   5.428   9.182   5.023
17460TIP3    H252258   5.363   9.314   5.052
17461TIP3   OH252259   5.319   9.809   4.001
17461TIP3    H152260   5.388   9.870   4.030
17461TIP3    H252261   5.369   9.744   3.948
17462TIP3   OH252262   5.985  10.157   5.138
17462TIP3    H152263   5.995  10.242   5.091
17462TIP3    H252264   5.893  10.132   5.110
17463TIP3   OH252265   6.075   9.218   4.107
17463TIP3    H152266   5.994   9.237   4.158
17463TIP3    H252267   6.087   9.302   4.058
17464TIP3   OH252268   6.204  10.119   5.321
17464TIP3    H152269   6.125  10.115   5.265
17464TIP3    H252270   6.230  10.025   5.323
17465TIP3   OH252271   5.203   9.353   5.133
17465TIP3    H152272   5.117   9.315   5.104
17465TIP3    H252273   5.168   9.431   5.180
17466TIP3   OH252274   5.735   9.467   5.331
17466TIP3    H152275   5.809   9.438   5.390
17466TIP3    H252276   5.657   9.434   5.379
17467TIP3   OH252277   5.971   9.879   5.245
17467TIP3    H152278   5.928   9.872   5.333
17467TIP3    H252279   5.951   9.971   5.219
17468TIP3   OH252280   5.350   9.397   4.105
17468TIP3    H152281   5.317   9.396   4.197
17468TIP3    H252282   5.311   9.313   4.073
17469TIP3   OH252283   5.130   9.876   5.147
17469TIP3    H152284   5.084   9.887   5.233
17469TIP3    H252285   5.116   9.964   5.107
17470TIP3   OH252286   5.021   9.749   4.668
17470TIP3    H152287   4.927   9.724   4.683
17470TIP3    H252288   5.034   9.712   4.578
17471TIP3   OH252289   5.521   9.839   4.397
17471TIP3    H152290   5.440   9.888   4.371
17471TIP3    H252291   5.564   9.821   4.311
17472TIP3   OH252292   5.725  10.092   5.448
17472TIP3    H152293   5.676  10.054   5.523
17472TIP3    H252294   5.797  10.137   5.495
17473TIP3   OH252295   5.656   9.854   4.634
17473TIP3    H152296   5.600   9.871   4.555
17473TIP3    H252297   5.701   9.775   4.598
17474TIP3   OH252298   4.997   9.887   5.389
17474TIP3    H152299   4.950   9.954   5.439
17474TIP3    H252300   4.954   9.805   5.419
17475TIP3   OH252301   4.994   9.365   4.076
17475TIP3    H152302   4.996   9.359   4.175
17475TIP3    H252303   4.923   9.431   4.067
17476TIP3   OH252304   4.546   9.419   4.937
17476TIP3    H152305   4.619   9.449   4.994
17476TIP3    H252306   4.591   9.379   4.861
17477TIP3   OH252307   4.524   9.393   4.461
17477TIP3    H152308   4.569   9.432   4.383
17477TIP3    H252309   4.464   9.467   4.484
17478TIP3   OH252310   5.732  10.091   5.083
17478TIP3    H152311   5.727  10.023   5.012
17478TIP3    H252312   5.642  10.089   5.119
17479TIP3   OH252313   5.345   9.563   4.726
17479TIP3    H152314   5.261   9.569   4.775
17479TIP3    H252315   5.410   9.581   4.795
17480TIP3   OH252316   4.780   9.633   4.732
17480TIP3    H152317   4.685   9.638   4.707
17480TIP3    H252318   4.803   9.540   4.714
17481TIP3   OH252319   5.057   9.626   4.425
17481TIP3    H152320   5.149   9.647   4.402
17481TIP3    H252321   5.008   9.652   4.344
17482TIP3   OH252322   5.836   9.650   4.936
17482TIP3    H152323   5.796   9.656   5.025
17482TIP3    H252324   5.777   9.584   4.894
17483TIP3   OH252325   4.871   9.616   4.208
17483TIP3    H152326   4.803   9.599   4.140
17483TIP3    H252327   4.916   9.695   4.171
17484TIP3   OH252328   5.428   9.870   4.813
17484TIP3    H152329   5.504   9.862   4.753
17484TIP3    H252330   5.470   9.879   4.899
17485TIP3   OH252331   4.954   9.389   4.706
17485TIP3    H152332   4.920   9.309   4.750
17485TIP3    H252333   4.999   9.353   4.628
17486TIP3   OH252334   5.398   9.798   5.140
17486TIP3    H152335   5.310   9.832   5.114
17486TIP3    H252336   5.454   9.875   5.125
17487TIP3   OH252337   5.601   9.506   4.074
17487TIP3    H152338   5.504   9.487   4.078
17487TIP3    H252339   5.606   9.602   4.087
17488TIP3   OH252340   5.667   9.767   4.166
17488TIP3    H152341   5.761   9.755   4.192
17488TIP3    H252342   5.674   9.839   4.101
17489TIP3   OH252343   6.108   9.828   4.020
17489TIP3    H152344   6.046   9.789   3.954
17489TIP3    H252345   6.116   9.917   3.984
17490TIP3   OH252346   4.925   9.629   5.513
17490TIP3    H152347   4.828   9.636   5.523
17490TIP3    H252348   4.948   9.567   5.585
17491TIP3   OH252349   5.750   9.707   5.197
17491TIP3    H152350   5.837   9.743   5.221
17491TIP3    H252351   5.749   9.622   5.247
17492TIP3   OH252352   5.643   9.452   4.352
17492TIP3    H152353   5.628   9.475   4.259
17492TIP3    H252354   5.682   9.534   4.389
17493TIP3   OH252355   5.342   9.629   4.455
17493TIP3    H152356   5.408   9.699   4.441
17493TIP3    H252357   5.340   9.623   4.553
17494TIP3   OH252358   5.583   9.901   5.318
17494TIP3    H152359   5.618   9.984   5.358
17494TIP3    H252360   5.665   9.866   5.278
17495TIP3   OH252361   5.478   9.358   4.560
17495TIP3    H152362   5.463   9.437   4.616
17495TIP3    H252363   5.538   9.395   4.491
17496TIP3   OH252364   4.990   9.353   4.353
17496TIP3    H152365   4.982   9.448   4.378
17496TIP3    H252366   5.087   9.342   4.363
17497TIP3   OH252367   6.243   9.854   5.247
17497TIP3    H152368   6.146   9.842   5.251
17497TIP3    H252369   6.262   9.814   5.162
17498TIP3   OH252370   5.882  10.031   4.617
17498TIP3    H152371   5.816   9.966   4.643
17498TIP3    H252372   5.960  10.004   4.671
17499TIP3   OH252373   4.543   9.549   4.232
17499TIP3    H152374   4.558   9.644   4.228
17499TIP3    H252375   4.454   9.537   4.198
17500TIP3   OH252376   4.942   9.268   5.109
17500TIP3    H152377   4.907   9.235   5.024
17500TIP3    H252378   4.929   9.191   5.168
17501TIP3   OH252379   4.930  10.164   5.711
17501TIP3    H152380   4.955  10.076   5.743
17501TIP3    H252381   4.908  10.211   5.793
17502TIP3   OH252382   5.044   9.806   4.108
17502TIP3    H152383   5.016   9.774   4.019
17502TIP3    H252384   5.136   9.829   4.089
17503TIP3   OH252385   5.339   9.823   5.506
17503TIP3    H152386   5.293   9.756   5.560
17503TIP3    H252387   5.267   9.887   5.490
17504TIP3   OH252388   5.345   9.601   5.318
17504TIP3    H152389   5.344   9.618   5.222
17504TIP3    H252390   5.248   9.584   5.332
17505TIP3   OH252391   5.971  10.142   5.596
17505TIP3    H152392   5.989  10.049   5.617
17505TIP3    H252393   6.058  10.171   5.567
17506TIP3   OH252394   5.205   9.968   5.763
17506TIP3    H152395   5.143   9.894   5.778
17506TIP3    H252396   5.260   9.936   5.691
17507TIP3   OH252397   5.478   9.379   5.405
17507TIP3    H152398   5.424   9.456   5.377
17507TIP3    H252399   5.411   9.308   5.396
17508TIP3   OH252400   5.607   9.911   5.629
17508TIP3    H152401   5.618   9.895   5.724
17508TIP3    H252402   5.516   9.881   5.615
17509TIP3   OH252403   5.846   9.824   5.478
17509TIP3    H152404   5.775   9.850   5.540
17509TIP3    H252405   5.920   9.801   5.538
17510TIP3   OH252406   6.071   9.787   5.632
17510TIP3    H152407   6.085   9.691   5.649
17510TIP3    H252408   6.069   9.825   5.722
17511TIP3   OH252409   5.067   9.734   5.806
17511TIP3    H152410   5.060   9.639   5.782
17511TIP3    H252411   5.100   9.724   5.898
17512TIP3   OH252412   5.576   9.408   5.659
17512TIP3    H152413   5.642   9.336   5.662
17512TIP3    H252414   5.533   9.389   5.573
17513TIP3   OH252415   5.636   9.623   5.817
17513TIP3    H152416   5.618   9.547   5.757
17513TIP3    H252417   5.552   9.672   5.814
17514TIP3   OH252418   5.945   9.755   3.814
17514TIP3    H152419   5.917   9.775   3.724
17514TIP3    H252420   5.919   9.660   3.819
17515TIP3   OH252421   5.977  10.005   4.363
17515TIP3    H152422   5.978   9.909   4.373
17515TIP3    H252423   5.954  10.032   4.455
17516TIP3   OH252424   6.411  10.278   5.248
17516TIP3    H152425   6.339  10.218   5.275
17516TIP3    H252426   6.488  10.217   5.252
17517TIP3   OH252427   5.887   9.490   3.805
17517TIP3    H152428   5.963   9.456   3.857
17517TIP3    H252429   5.814   9.431   3.832
17518TIP3   OH252430   5.936   9.731   4.259
17518TIP3    H152431   5.979   9.644   4.272
17518TIP3    H252432   5.996   9.769   4.192
17519TIP3   OH252433   6.103   9.914   4.743
17519TIP3    H152434   6.188   9.941   4.701
17519TIP3    H252435   6.122   9.949   4.833
17520TIP3   OH252436   6.183  10.041   4.975
17520TIP3    H152437   6.109  10.073   5.029
17520TIP3    H252438   6.233  10.125   4.960
17521TIP3   OH252439   4.795   9.802   5.795
17521TIP3    H152440   4.891   9.787   5.790
17521TIP3    H252441   4.765   9.714   5.825
17522TIP3   OH252442   6.622   9.646   5.542
17522TIP3    H152443   6.684   9.581   5.502
17522TIP3    H252444   6.601   9.704   5.467
17523TIP3   OH252445   6.055   9.488   4.296
17523TIP3    H152446   6.104   9.474   4.380
17523TIP3    H252447   5.994   9.412   4.297
17524TIP3   OH252448   4.752   9.472   5.115
17524TIP3    H152449   4.819   9.402   5.125
17524TIP3    H252450   4.809   9.551   5.109
17525TIP3   OH252451   4.556   9.758   5.198
17525TIP3    H152452   4.605   9.749   5.112
17525TIP3    H252453   4.571   9.851   5.216
17526TIP3   OH252454   6.499   9.794   5.346
17526TIP3    H152455   6.409   9.827   5.364
17526TIP3    H252456   6.478   9.718   5.289
17527TIP3   OH252457   6.134   9.428   3.925
17527TIP3    H152458   6.176   9.353   3.878
17527TIP3    H252459   6.205   9.496   3.923
17528TIP3   OH252460   4.540   9.252   4.690
17528TIP3    H152461   4.447   9.251   4.719
17528TIP3    H252462   4.537   9.311   4.612
17529TIP3   OH252463   4.761   9.335   5.505
17529TIP3    H152464   4.710   9.328   5.587
17529TIP3    H252465   4.694   9.374   5.445
17530TIP3   OH252466   6.395   9.552   5.227
17530TIP3    H152467   6.305   9.543   5.193
17530TIP3    H252468   6.429   9.460   5.216
17531TIP3   OH252469   5.607   9.470   4.853
17531TIP3    H152470   5.558   9.399   4.896
17531TIP3    H252471   5.673   9.421   4.800
17532TIP3   OH252472   6.124   9.349   4.751
17532TIP3    H152473   6.162   9.399   4.676
17532TIP3    H252474   6.029   9.366   4.742
17533TIP3   OH252475   6.220   9.450   4.515
17533TIP3    H152476   6.292   9.397   4.475
17533TIP3    H252477   6.254   9.540   4.499
17534TIP3   OH252478   4.850   9.176   4.862
17534TIP3    H152479   4.758   9.143   4.864
17534TIP3    H252480   4.899   9.091   4.858
17535TIP3   OH252481   4.633   9.046   4.507
17535TIP3    H152482   4.666   9.105   4.437
17535TIP3    H252483   4.607   9.110   4.576
17536TIP3   OH252484   5.295   9.206   4.741
17536TIP3    H152485   5.352   9.258   4.682
17536TIP3    H252486   5.310   9.250   4.826
17537TIP3   OH252487   5.840   9.355   4.726
17537TIP3    H152488   5.839   9.318   4.637
17537TIP3    H252489   5.826   9.275   4.781
17538TIP3   OH252490   5.870   9.277   4.287
17538TIP3    H152491   5.783   9.319   4.298
17538TIP3    H252492   5.856   9.192   4.334
17539TIP3   OH252493   4.752   9.208   4.272
17539TIP3    H152494   4.803   9.145   4.217
17539TIP3    H252495   4.824   9.262   4.310
17540TIP3   OH252496   5.266   9.380   4.371
17540TIP3    H152497   5.327   9.335   4.432
17540TIP3    H252498   5.287   9.474   4.395
17541TIP3   OH252499   5.059   9.460   5.756
17541TIP3    H152500   5.022   9.387   5.809
17541TIP3    H252501   5.153   9.456   5.785
17542TIP3   OH252502   5.310   9.448   5.872
17542TIP3    H152503   5.395   9.414   5.843
17542TIP3    H252504   5.291   9.386   5.946
17543TIP3   OH252505   6.131   9.516   5.659
17543TIP3    H152506   6.150   9.484   5.750
17543TIP3    H252507   6.220   9.511   5.617
17544TIP3   OH252508   6.313   9.962   4.173
17544TIP3    H152509   6.271  10.036   4.219
17544TIP3    H252510   6.239   9.902   4.157
17545TIP3   OH252511   7.548  10.181   4.378
17545TIP3    H152512   7.582  10.092   4.400
17545TIP3    H252513   7.522  10.167   4.285
17546TIP3   OH252514   6.883   9.827   4.344
17546TIP3    H152515   6.865   9.900   4.281
17546TIP3    H252516   6.836   9.753   4.300
17547TIP3   OH252517   7.580   9.908   3.971
17547TIP3    H152518   7.650   9.890   4.038
17547TIP3    H252519   7.621   9.979   3.922
17548TIP3   OH252520   6.510  10.013   4.461
17548TIP3    H152521   6.597   9.999   4.501
17548TIP3    H252522   6.524   9.977   4.372
17549TIP3   OH252523   6.971  10.229   4.230
17549TIP3    H152524   7.057  10.193   4.259
17549TIP3    H252525   6.922  10.150   4.202
17550TIP3   OH252526   6.882   9.811   4.778
17550TIP3    H152527   6.819   9.841   4.710
17550TIP3    H252528   6.830   9.825   4.860
17551TIP3   OH252529   7.798   9.914   4.136
17551TIP3    H152530   7.769   9.869   4.217
17551TIP3    H252531   7.876   9.964   4.166
17552TIP3   OH252532   6.752   9.920   4.563
17552TIP3    H152533   6.814   9.994   4.580
17552TIP3    H252534   6.799   9.877   4.488
17553TIP3   OH252535   7.940   9.893   4.504
17553TIP3    H152536   7.846   9.916   4.496
17553TIP3    H252537   7.974   9.916   4.417
17554TIP3   OH252538   7.236   9.528   4.491
17554TIP3    H152539   7.227   9.434   4.517
17554TIP3    H252540   7.158   9.567   4.537
17555TIP3   OH252541   7.128  10.039   3.500
17555TIP3    H152542   7.178  10.112   3.536
17555TIP3    H252543   7.184  10.008   3.427
17556TIP3   OH252544   7.872   9.520   3.583
17556TIP3    H152545   7.798   9.515   3.649
17556TIP3    H252546   7.823   9.496   3.502
17557TIP3   OH252547   6.994   9.612   4.604
17557TIP3    H152548   6.902   9.581   4.587
17557TIP3    H252549   6.975   9.688   4.662
17558TIP3   OH252550   7.533   9.725   4.819
17558TIP3    H152551   7.598   9.688   4.882
17558TIP3    H252552   7.447   9.699   4.859
17559TIP3   OH252553   7.785  10.152   4.736
17559TIP3    H152554   7.737  10.139   4.822
17559TIP3    H252555   7.735  10.224   4.696
17560TIP3   OH252556   7.151   9.651   3.593
17560TIP3    H152557   7.114   9.651   3.684
17560TIP3    H252558   7.108   9.570   3.559
17561TIP3   OH252559   6.924  10.127   4.628
17561TIP3    H152560   6.868  10.137   4.707
17561TIP3    H252561   6.907  10.208   4.578
17562TIP3   OH252562   6.815  10.007   4.154
17562TIP3    H152563   6.722   9.979   4.170
17562TIP3    H252564   6.829   9.968   4.065
17563TIP3   OH252565   7.321  10.096   3.884
17563TIP3    H152566   7.237  10.144   3.865
17563TIP3    H252567   7.354  10.075   3.795
17564TIP3   OH252568   7.489  10.358   4.962
17564TIP3    H152569   7.474  10.282   5.023
17564TIP3    H252570   7.583  10.375   4.976
17565TIP3   OH252571   7.452  10.115   4.124
17565TIP3    H152572   7.395  10.129   4.046
17565TIP3    H252573   7.493  10.032   4.097
17566TIP3   OH252574   6.764  10.152   4.874
17566TIP3    H152575   6.728  10.189   4.956
17566TIP3    H252576   6.737  10.059   4.886
17567TIP3   OH252577   6.802   9.628   3.559
17567TIP3    H152578   6.796   9.626   3.657
17567TIP3    H252579   6.723   9.679   3.537
17568TIP3   OH252580   6.342   9.674   4.427
17568TIP3    H152581   6.416   9.706   4.484
17568TIP3    H252582   6.388   9.637   4.350
17569TIP3   OH252583   6.319   9.649   3.948
17569TIP3    H152584   6.365   9.688   3.871
17569TIP3    H252585   6.260   9.723   3.971
17570TIP3   OH252586   7.489  10.369   4.570
17570TIP3    H152587   7.516  10.306   4.500
17570TIP3    H252588   7.436  10.310   4.627
17571TIP3   OH252589   7.139   9.825   4.214
17571TIP3    H152590   7.058   9.826   4.267
17571TIP3    H252591   7.207   9.835   4.282
17572TIP3   OH252592   6.576   9.888   4.220
17572TIP3    H152593   6.481   9.891   4.193
17572TIP3    H252594   6.602   9.796   4.200
17573TIP3   OH252595   6.850   9.881   3.913
17573TIP3    H152596   6.942   9.903   3.887
17573TIP3    H252597   6.798   9.904   3.833
17574TIP3   OH252598   7.631   9.906   4.416
17574TIP3    H152599   7.599   9.918   4.508
17574TIP3    H252600   7.565   9.842   4.383
17575TIP3   OH252601   6.677   9.898   3.695
17575TIP3    H152602   6.614   9.863   3.629
17575TIP3    H252603   6.723   9.966   3.642
17576TIP3   OH252604   7.219  10.135   4.307
17576TIP3    H152605   7.306  10.123   4.266
17576TIP3    H252606   7.237  10.123   4.401
17577TIP3   OH252607   6.746   9.647   4.191
17577TIP3    H152608   6.715   9.566   4.237
17577TIP3    H252609   6.801   9.609   4.121
17578TIP3   OH252610   7.202  10.045   4.605
17578TIP3    H152611   7.114  10.087   4.603
17578TIP3    H252612   7.257  10.110   4.653
17579TIP3   OH252613   7.393   9.766   3.564
17579TIP3    H152614   7.299   9.736   3.571
17579TIP3    H252615   7.385   9.862   3.581
17580TIP3   OH252616   7.467  10.031   3.644
17580TIP3    H152617   7.557  10.000   3.654
17580TIP3    H252618   7.473  10.089   3.567
17581TIP3   OH252619   7.237  10.386   5.075
17581TIP3    H152620   7.162  10.425   5.026
17581TIP3    H252621   7.292  10.351   5.003
17582TIP3   OH252622   6.719   9.891   4.993
17582TIP3    H152623   6.623   9.888   5.009
17582TIP3    H252624   6.752   9.832   5.063
17583TIP3   OH252625   7.560   9.959   4.678
17583TIP3    H152626   7.640   9.988   4.725
17583TIP3    H252627   7.539   9.877   4.727
17584TIP3   OH252628   7.448   9.701   3.838
17584TIP3    H152629   7.424   9.730   3.748
17584TIP3    H252630   7.481   9.784   3.879
17585TIP3   OH252631   7.138   9.887   3.945
17585TIP3    H152632   7.204   9.958   3.938
17585TIP3    H252633   7.133   9.876   4.043
17586TIP3   OH252634   7.387  10.194   4.754
17586TIP3    H152635   7.424  10.248   4.826
17586TIP3    H252636   7.444  10.115   4.755
17587TIP3   OH252637   7.273   9.615   4.048
17587TIP3    H152638   7.267   9.689   4.111
17587TIP3    H252639   7.334   9.651   3.981
17588TIP3   OH252640   6.785   9.612   3.835
17588TIP3    H152641   6.782   9.703   3.868
17588TIP3    H252642   6.881   9.594   3.845
17589TIP3   OH252643   8.061  10.116   4.709
17589TIP3    H152644   7.968  10.132   4.735
17589TIP3    H252645   8.048  10.053   4.637
17590TIP3   OH252646   6.342   9.807   3.725
17590TIP3    H152647   6.358   9.902   3.714
17590TIP3    H252648   6.258   9.792   3.681
17591TIP3   OH252649   6.730   9.526   4.599
17591TIP3    H152650   6.702   9.490   4.512
17591TIP3    H252651   6.724   9.447   4.656
17592TIP3   OH252652   6.718  10.406   5.199
17592TIP3    H152653   6.764  10.331   5.241
17592TIP3    H252654   6.703  10.467   5.275
17593TIP3   OH252655   7.014  10.271   4.851
17593TIP3    H152656   6.920  10.245   4.856
17593TIP3    H252657   7.034  10.261   4.756
17594TIP3   OH252658   6.846  10.042   3.535
17594TIP3    H152659   6.823   9.987   3.457
17594TIP3    H252660   6.943  10.035   3.535
17595TIP3   OH252661   7.138  10.085   5.027
17595TIP3    H152662   7.143  10.002   4.975
17595TIP3    H252663   7.101  10.146   4.960
17596TIP3   OH252664   7.138   9.887   4.830
17596TIP3    H152665   7.167   9.924   4.744
17596TIP3    H252666   7.047   9.858   4.809
17597TIP3   OH252667   7.000  10.219   5.238
17597TIP3    H152668   6.942  10.141   5.254
17597TIP3    H252669   7.049  10.191   5.158
17598TIP3   OH252670   7.279   9.654   4.889
17598TIP3    H152671   7.222   9.731   4.871
17598TIP3    H252672   7.213   9.581   4.883
17599TIP3   OH252673   7.404  10.141   5.106
17599TIP3    H152674   7.391  10.130   5.202
17599TIP3    H252675   7.313  10.121   5.077
17600TIP3   OH252676   7.643  10.103   4.962
17600TIP3    H152677   7.565  10.091   5.021
17600TIP3    H252678   7.716  10.079   5.024
17601TIP3   OH252679   7.851  10.045   5.132
17601TIP3    H152680   7.874   9.950   5.134
17601TIP3    H252681   7.822  10.061   5.223
17602TIP3   OH252682   6.851   9.993   5.299
17602TIP3    H152683   6.859   9.902   5.264
17602TIP3    H252684   6.888   9.981   5.389
17603TIP3   OH252685   7.357   9.664   5.153
17603TIP3    H152686   7.430   9.597   5.151
17603TIP3    H252687   7.322   9.651   5.063
17604TIP3   OH252688   7.433   9.872   5.311
17604TIP3    H152689   7.413   9.800   5.248
17604TIP3    H252690   7.355   9.930   5.300
17605TIP3   OH252691   7.677   9.755   3.328
17605TIP3    H152692   7.743   9.686   3.331
17605TIP3    H252693   7.595   9.706   3.311
17606TIP3   OH252694   6.583  10.053   5.276
17606TIP3    H152695   6.680  10.045   5.274
17606TIP3    H252696   6.560   9.966   5.314
17607TIP3   OH252697   7.864   9.725   3.780
17607TIP3    H152698   7.897   9.741   3.872
17607TIP3    H252699   7.782   9.675   3.798
17608TIP3   OH252700   6.545   9.731   4.608
17608TIP3    H152701   6.609   9.657   4.616
17608TIP3    H252702   6.605   9.806   4.596
17609TIP3   OH252703   6.351  10.015   4.682
17609TIP3    H152704   6.399  10.004   4.597
17609TIP3    H252705   6.374  10.106   4.704
17610TIP3   OH252706   6.335   9.509   4.178
17610TIP3    H152707   6.242   9.508   4.204
17610TIP3    H252708   6.334   9.567   4.099
17611TIP3   OH252709   6.556   9.598   4.995
17611TIP3    H152710   6.503   9.588   5.076
17611TIP3    H252711   6.488   9.629   4.932
17612TIP3   OH252712   8.198   9.807   4.716
17612TIP3    H152713   8.110   9.806   4.675
17612TIP3    H252714   8.230   9.717   4.692
17613TIP3   OH252715   7.399   9.723   4.328
17613TIP3    H152716   7.353   9.660   4.387
17613TIP3    H252717   7.469   9.667   4.291
17614TIP3   OH252718   7.920   9.605   4.230
17614TIP3    H152719   7.953   9.662   4.158
17614TIP3    H252720   7.823   9.619   4.225
17615TIP3   OH252721   8.026   9.725   3.998
17615TIP3    H152722   8.092   9.659   3.967
17615TIP3    H252723   8.082   9.803   4.009
17616TIP3   OH252724   6.646   9.432   4.348
17616TIP3    H152725   6.555   9.398   4.350
17616TIP3    H252726   6.697   9.348   4.346
17617TIP3   OH252727   6.427   9.303   3.994
17617TIP3    H152728   6.462   9.360   3.924
17617TIP3    H252729   6.404   9.367   4.063
17618TIP3   OH252730   7.088   9.467   4.230
17618TIP3    H152731   7.148   9.518   4.174
17618TIP3    H252732   7.111   9.499   4.319
17619TIP3   OH252733   7.644   9.612   4.208
17619TIP3    H152734   7.629   9.567   4.124
17619TIP3    H252735   7.628   9.537   4.270
17620TIP3   OH252736   7.670   9.528   3.771
17620TIP3    H152737   7.582   9.570   3.784
17620TIP3    H252738   7.655   9.445   3.822
17621TIP3   OH252739   6.549   9.464   3.758
17621TIP3    H152740   6.598   9.400   3.703
17621TIP3    H252741   6.622   9.518   3.795
17622TIP3   OH252742   7.063   9.639   3.856
17622TIP3    H152743   7.119   9.590   3.920
17622TIP3    H252744   7.084   9.731   3.884
17623TIP3   OH252745   6.853   9.717   5.241
17623TIP3    H152746   6.822   9.642   5.295
17623TIP3    H252747   6.949   9.716   5.263
17624TIP3   OH252748   7.104   9.712   5.357
17624TIP3    H152749   7.184   9.686   5.308
17624TIP3    H252750   7.095   9.637   5.420
17625TIP3   OH252751   7.928   9.777   5.146
17625TIP3    H152752   7.948   9.744   5.236
17625TIP3    H252753   8.014   9.765   5.100
17626TIP3   OH252754   2.737   1.189   8.791
17626TIP3    H152755   2.746   1.284   8.772
17626TIP3    H252756   2.827   1.156   8.771
17627TIP3   OH252757   2.764   1.468   8.765
17627TIP3    H152758   2.807   1.542   8.718
17627TIP3    H252759   2.688   1.516   8.803
17628TIP3   OH252760   2.420   1.244   8.770
17628TIP3    H152761   2.473   1.188   8.827
17628TIP3    H252762   2.464   1.229   8.685
17629TIP3   OH252763   4.073   1.023   9.068
17629TIP3    H152764   4.077   1.110   9.021
17629TIP3    H252765   4.062   0.966   8.988
17630TIP3   OH252766   4.093   1.791   9.131
17630TIP3    H152767   4.145   1.729   9.074
17630TIP3    H252768   4.143   1.788   9.214
17631TIP3   OH252769   4.074   1.250   8.933
17631TIP3    H152770   4.075   1.247   8.836
17631TIP3    H252771   4.049   1.345   8.946
17632TIP3   OH252772   4.227   1.634   8.955
17632TIP3    H152773   4.306   1.580   8.982
17632TIP3    H252774   4.277   1.700   8.902
17633TIP3   OH252775   4.031   0.883   8.843
17633TIP3    H152776   3.945   0.919   8.816
17633TIP3    H252777   4.080   0.882   8.758
17634TIP3   OH252778   3.995   0.685   8.596
17634TIP3    H152779   4.075   0.720   8.639
17634TIP3    H252780   4.032   0.608   8.550
17635TIP3   OH252781   4.382   0.970   8.858
17635TIP3    H152782   4.353   0.995   8.948
17635TIP3    H252783   4.473   0.941   8.879
17636TIP3   OH252784   4.239   0.821   8.672
17636TIP3    H152785   4.292   0.884   8.727
17636TIP3    H252786   4.263   0.851   8.581
17637TIP3   OH252787   3.980   1.504   8.953
17637TIP3    H152788   4.058   1.563   8.956
17637TIP3    H252789   3.908   1.564   8.927
17638TIP3   OH252790   4.540   1.443   8.271
17638TIP3    H152791   4.548   1.540   8.260
17638TIP3    H252792   4.634   1.415   8.260
17639TIP3   OH252793   3.852   1.763   8.755
17639TIP3    H152794   3.802   1.745   8.673
17639TIP3    H252795   3.817   1.850   8.782
17640TIP3   OH252796   4.052   1.662   8.395
17640TIP3    H152797   4.111   1.592   8.361
17640TIP3    H252798   4.084   1.672   8.487
17641TIP3   OH252799   4.101   1.706   8.663
17641TIP3    H152800   4.014   1.719   8.708
17641TIP3    H252801   4.156   1.676   8.737
17642TIP3   OH252802   4.305   0.878   8.418
17642TIP3    H152803   4.269   0.857   8.329
17642TIP3    H252804   4.380   0.936   8.395
17643TIP3   OH252805   4.192   0.695   8.973
17643TIP3    H152806   4.143   0.757   8.915
17643TIP3    H252807   4.245   0.646   8.907
17644TIP3   OH252808   3.525   0.527   8.816
17644TIP3    H152809   3.481   0.474   8.746
17644TIP3    H252810   3.605   0.555   8.770
17645TIP3   OH252811   3.800   1.044   8.822
17645TIP3    H152812   3.730   0.979   8.796
17645TIP3    H252813   3.789   1.044   8.918
17646TIP3   OH252814   4.335   0.574   8.769
17646TIP3    H152815   4.430   0.588   8.790
17646TIP3    H252816   4.315   0.655   8.717
17647TIP3   OH252817   3.956   1.197   8.649
17647TIP3    H152818   3.910   1.284   8.655
17647TIP3    H252819   3.900   1.144   8.709
17648TIP3   OH252820   4.780   0.694   8.631
17648TIP3    H152821   4.722   0.645   8.569
17648TIP3    H252822   4.778   0.782   8.589
17649TIP3   OH252823   4.471   1.517   8.534
17649TIP3    H152824   4.464   1.448   8.601
17649TIP3    H252825   4.488   1.467   8.452
17650TIP3   OH252826   3.503   1.611   8.966
17650TIP3    H152827   3.439   1.626   9.037
17650TIP3    H252828   3.552   1.696   8.972
17651TIP3   OH252829   4.232   1.241   8.438
17651TIP3    H152830   4.287   1.215   8.515
17651TIP3    H252831   4.143   1.219   8.471
17652TIP3   OH252832   4.574   1.719   8.260
17652TIP3    H152833   4.613   1.793   8.211
17652TIP3    H252834   4.494   1.763   8.295
17653TIP3   OH252835   4.394   1.165   8.646
17653TIP3    H152836   4.382   1.114   8.728
17653TIP3    H252837   4.492   1.171   8.642
17654TIP3   OH252838   3.602   1.223   8.437
17654TIP3    H152839   3.615   1.130   8.411
17654TIP3    H252840   3.580   1.213   8.532
17655TIP3   OH252841   3.544   1.229   8.708
17655TIP3    H152842   3.615   1.202   8.768
17655TIP3    H252843   3.548   1.327   8.714
17656TIP3   OH252844   3.812   1.427   8.661
17656TIP3    H152845   3.724   1.453   8.694
17656TIP3    H252846   3.830   1.503   8.603
17657TIP3   OH252847   3.554   1.500   8.722
17657TIP3    H152848   3.524   1.570   8.660
17657TIP3    H252849   3.531   1.541   8.809
17658TIP3   OH252850   3.265   1.146   8.712
17658TIP3    H152851   3.336   1.211   8.726
17658TIP3    H252852   3.314   1.078   8.662
17659TIP3   OH252853   4.519   1.908   9.215
17659TIP3    H152854   4.478   1.940   9.133
17659TIP3    H252855   4.607   1.883   9.183
17660TIP3   OH252856   3.763   1.429   8.351
17660TIP3    H152857   3.706   1.358   8.391
17660TIP3    H252858   3.839   1.375   8.323
17661TIP3   OH252859   4.199   1.469   8.263
17661TIP3    H152860   4.244   1.408   8.324
17661TIP3    H252861   4.259   1.470   8.186
17662TIP3   OH252862   3.408   0.944   8.575
17662TIP3    H152863   3.462   0.912   8.651
17662TIP3    H252864   3.478   0.951   8.507
17663TIP3   OH252865   3.917   1.144   8.380
17663TIP3    H152866   3.919   1.158   8.477
17663TIP3    H252867   3.915   1.045   8.377
17664TIP3   OH252868   3.604   0.856   8.769
17664TIP3    H152869   3.620   0.828   8.861
17664TIP3    H252870   3.634   0.775   8.721
17665TIP3   OH252871   3.717   0.640   8.641
17665TIP3    H152872   3.692   0.634   8.547
17665TIP3    H252873   3.814   0.643   8.634
17666TIP3   OH252874   4.541   0.973   8.296
17666TIP3    H152875   4.518   0.929   8.212
17666TIP3    H252876   4.509   1.064   8.276
17667TIP3   OH252877   3.522   1.702   8.536
17667TIP3    H152878   3.619   1.701   8.521
17667TIP3    H252879   3.494   1.755   8.460
17668TIP3   OH252880   2.994   1.093   8.727
17668TIP3    H152881   3.088   1.118   8.740
17668TIP3    H252882   3.002   0.998   8.706
17669TIP3   OH252883   4.797   1.943   9.159
17669TIP3    H152884   4.800   2.017   9.220
17669TIP3    H252885   4.831   1.983   9.078
17670TIP3   OH252886   4.675   1.160   8.630
17670TIP3    H152887   4.742   1.226   8.605
17670TIP3    H252888   4.716   1.122   8.711
17671TIP3   OH252889   4.800   1.025   8.832
17671TIP3    H152890   4.737   0.985   8.895
17671TIP3    H252891   4.867   1.065   8.891
17672TIP3   OH252892   4.852   1.420   9.214
17672TIP3    H152893   4.927   1.360   9.191
17672TIP3    H252894   4.866   1.495   9.153
17673TIP3   OH252895   4.738   0.931   8.482
17673TIP3    H152896   4.667   0.942   8.415
17673TIP3    H252897   4.715   1.008   8.540
17674TIP3   OH252898   4.619   0.601   8.430
17674TIP3    H152899   4.574   0.672   8.383
17674TIP3    H252900   4.576   0.522   8.395
17675TIP3   OH252901   4.616   0.882   8.985
17675TIP3    H152902   4.615   0.785   8.979
17675TIP3    H252903   4.589   0.899   9.076
17676TIP3   OH252904   4.598   0.606   8.832
17676TIP3    H152905   4.641   0.566   8.911
17676TIP3    H252906   4.675   0.633   8.778
17677TIP3   OH252907   4.348   1.820   8.803
17677TIP3    H152908   4.418   1.798   8.739
17677TIP3    H252909   4.396   1.876   8.867
17678TIP3   OH252910   2.977   1.431   8.928
17678TIP3    H152911   2.903   1.414   8.866
17678TIP3    H252912   3.012   1.515   8.894
17679TIP3   OH252913   3.792   1.665   8.489
17679TIP3    H152914   3.881   1.687   8.454
17679TIP3    H252915   3.770   1.590   8.430
17680TIP3   OH252916   4.517   1.782   8.579
17680TIP3    H152917   4.503   1.685   8.569
17680TIP3    H252918   4.466   1.815   8.503
17681TIP3   OH252919   3.096   1.503   8.546
17681TIP3    H152920   3.099   1.539   8.636
17681TIP3    H252921   3.184   1.461   8.537
17682TIP3   OH252922   6.005   1.301   8.536
17682TIP3    H152923   5.976   1.392   8.515
17682TIP3    H252924   5.927   1.251   8.505
17683TIP3   OH252925   6.002   1.299   8.916
17683TIP3    H152926   6.034   1.269   9.002
17683TIP3    H252927   5.960   1.218   8.882
17684TIP3   OH252928   5.311   1.215   9.283
17684TIP3    H152929   5.316   1.164   9.366
17684TIP3    H252930   5.403   1.221   9.254
17685TIP3   OH252931   6.247   1.600   8.598
17685TIP3    H152932   6.230   1.530   8.662
17685TIP3    H252933   6.272   1.675   8.655
17686TIP3   OH252934   5.276   1.610   9.018
17686TIP3    H152935   5.262   1.513   9.015
17686TIP3    H252936   5.372   1.613   9.001
17687TIP3   OH252937   4.975   0.796   8.801
17687TIP3    H152938   4.930   0.881   8.815
17687TIP3    H252939   4.910   0.751   8.743
17688TIP3   OH252940   5.041   1.087   8.955
17688TIP3    H152941   5.089   1.014   9.001
17688TIP3    H252942   5.104   1.112   8.886
17689TIP3   OH252943   5.895   2.064   8.615
17689TIP3    H152944   5.942   1.993   8.566
17689TIP3    H252945   5.886   2.025   8.702
17690TIP3   OH252946   5.801   1.524   8.968
17690TIP3    H152947   5.835   1.448   8.919
17690TIP3    H252948   5.886   1.567   8.990
17691TIP3   OH252949   6.218   1.039   8.997
17691TIP3    H152950   6.241   0.953   9.033
17691TIP3    H252951   6.185   1.017   8.908
17692TIP3   OH252952   5.189   0.893   9.072
17692TIP3    H152953   5.255   0.862   9.136
17692TIP3    H252954   5.204   0.830   8.998
17693TIP3   OH252955   5.628   1.087   8.868
17693TIP3    H152956   5.719   1.054   8.880
17693TIP3    H252957   5.582   1.005   8.836
17694TIP3   OH252958   6.868   1.038   9.142
17694TIP3    H152959   6.794   1.100   9.127
17694TIP3    H252960   6.892   1.057   9.235
17695TIP3   OH252961   5.900   1.524   8.404
17695TIP3    H152962   5.851   1.497   8.325
17695TIP3    H252963   5.853   1.607   8.428
17696TIP3   OH252964   5.659   1.450   9.201
17696TIP3    H152965   5.592   1.513   9.234
17696TIP3    H252966   5.699   1.498   9.125
17697TIP3   OH252967   5.439   0.802   9.181
17697TIP3    H152968   5.509   0.853   9.135
17697TIP3    H252969   5.422   0.730   9.119
17698TIP3   OH252970   5.472   1.640   9.302
17698TIP3    H152971   5.456   1.720   9.248
17698TIP3    H252972   5.395   1.644   9.360
17699TIP3   OH252973   4.879   1.329   8.526
17699TIP3    H152974   4.836   1.358   8.444
17699TIP3    H252975   4.909   1.414   8.565
17700TIP3   OH252976   6.319   1.845   8.769
17700TIP3    H152977   6.229   1.834   8.808
17700TIP3    H252978   6.308   1.930   8.722
17701TIP3   OH252979   6.022   1.891   8.444
17701TIP3    H152980   6.070   1.808   8.422
17701TIP3    H252981   6.082   1.956   8.401
17702TIP3   OH252982   6.163   1.676   8.345
17702TIP3    H152983   6.114   1.599   8.312
17702TIP3    H252984   6.199   1.640   8.430
17703TIP3   OH252985   6.544   1.759   9.109
17703TIP3    H152986   6.531   1.680   9.051
17703TIP3    H252987   6.525   1.832   9.046
17704TIP3   OH252988   5.835   1.153   8.367
17704TIP3    H152989   5.752   1.201   8.347
17704TIP3    H252990   5.876   1.145   8.279
17705TIP3   OH252991   5.789   0.950   8.092
17705TIP3    H152992   5.873   0.987   8.129
17705TIP3    H252993   5.825   0.876   8.043
17706TIP3   OH252994   6.741   1.398   8.959
17706TIP3    H152995   6.655   1.445   8.963
17706TIP3    H252996   6.765   1.416   8.865
17707TIP3   OH252997   6.183   1.235   8.339
17707TIP3    H152998   6.127   1.259   8.417
17707TIP3    H252999   6.265   1.206   8.385
17708TIP3   OH253000   6.416   1.271   9.253
17708TIP3    H153001   6.419   1.356   9.302
17708TIP3    H253002   6.331   1.280   9.205
17709TIP3   OH253003   5.418   1.231   8.752
17709TIP3    H153004   5.372   1.173   8.687
17709TIP3    H253005   5.491   1.172   8.781
17710TIP3   OH253006   5.543   1.642   8.905
17710TIP3    H153007   5.519   1.600   8.822
17710TIP3    H253008   5.633   1.607   8.921
17711TIP3   OH253009   5.548   1.217   9.102
17711TIP3    H153010   5.576   1.197   9.010
17711TIP3    H253011   5.593   1.302   9.120
17712TIP3   OH253012   6.076   1.840   8.886
17712TIP3    H153013   6.064   1.919   8.942
17712TIP3    H253014   6.062   1.766   8.949
17713TIP3   OH253015   5.693   1.771   9.443
17713TIP3    H153016   5.624   1.831   9.478
17713TIP3    H253017   5.637   1.706   9.398
17714TIP3   OH253018   6.029   1.081   8.168
17714TIP3    H153019   6.086   1.142   8.221
17714TIP3    H253020   6.054   1.106   8.076
17715TIP3   OH253021   5.765   1.771   8.441
17715TIP3    H153022   5.841   1.828   8.460
17715TIP3    H253023   5.702   1.832   8.400
17716TIP3   OH253024   5.474   1.917   9.512
17716TIP3    H153025   5.445   1.924   9.419
17716TIP3    H253026   5.395   1.880   9.555
17717TIP3   OH253027   5.280   1.081   8.559
17717TIP3    H153028   5.208   1.116   8.503
17717TIP3    H253029   5.252   0.990   8.574
17718TIP3   OH253030   6.335   1.700   7.759
17718TIP3    H153031   6.343   1.797   7.747
17718TIP3    H253032   6.428   1.672   7.748
17719TIP3   OH253033   4.924   1.662   9.100
17719TIP3    H153034   5.018   1.672   9.079
17719TIP3    H253035   4.901   1.747   9.142
17720TIP3   OH253036   6.785   2.102   9.154
17720TIP3    H153037   6.782   2.005   9.168
17720TIP3    H253038   6.700   2.128   9.196
17721TIP3   OH253039   5.890   1.883   9.290
17721TIP3    H153040   5.887   1.979   9.311
17721TIP3    H253041   5.816   1.849   9.344
17722TIP3   OH253042   5.647   2.018   8.242
17722TIP3    H153043   5.601   1.997   8.159
17722TIP3    H253044   5.614   2.108   8.263
17723TIP3   OH253045   5.084   1.868   8.626
17723TIP3    H153046   5.131   1.857   8.712
17723TIP3    H253047   5.025   1.791   8.628
17724TIP3   OH253048   5.849   1.920   7.882
17724TIP3    H153049   5.907   1.850   7.846
17724TIP3    H253050   5.881   1.928   7.974
17725TIP3   OH253051   5.898   1.966   8.153
17725TIP3    H153052   5.809   1.977   8.193
17725TIP3    H253053   5.945   1.922   8.225
17726TIP3   OH253054   6.682   1.242   9.411
17726TIP3    H153055   6.592   1.273   9.395
17726TIP3    H253056   6.668   1.158   9.456
17727TIP3   OH253057   6.325   1.073   9.421
17727TIP3    H153058   6.395   1.068   9.488
17727TIP3    H253059   6.353   1.150   9.368
17728TIP3   OH253060   6.104   1.133   7.910
17728TIP3    H153061   6.065   1.111   7.824
17728TIP3    H253062   6.174   1.195   7.885
17729TIP3   OH253063   5.645   0.990   9.207
17729TIP3    H153064   5.580   0.995   9.280
17729TIP3    H253065   5.618   1.068   9.154
17730TIP3   OH253066   5.467   0.890   8.768
17730TIP3    H153067   5.392   0.836   8.798
17730TIP3    H253068   5.491   0.843   8.685
17731TIP3   OH253069   5.978   0.958   8.498
17731TIP3    H153070   5.923   1.028   8.458
17731TIP3    H253071   6.022   0.920   8.419
17732TIP3   OH253072   6.136   0.983   8.736
17732TIP3    H153073   6.075   1.013   8.666
17732TIP3    H253074   6.163   0.897   8.700
17733TIP3   OH253075   6.145   1.236   9.163
17733TIP3    H153076   6.178   1.165   9.101
17733TIP3    H253077   6.106   1.180   9.233
17734TIP3   OH253078   5.239   0.741   8.844
17734TIP3    H153079   5.145   0.760   8.821
17734TIP3    H253080   5.242   0.646   8.828
17735TIP3   OH253081   5.529   0.765   8.528
17735TIP3    H153082   5.612   0.735   8.489
17735TIP3    H253083   5.465   0.754   8.454
17736TIP3   OH253084   5.342   0.780   8.310
17736TIP3    H153085   5.284   0.724   8.255
17736TIP3    H253086   5.407   0.808   8.242
17737TIP3   OH253087   6.473   2.452   9.254
17737TIP3    H153088   6.469   2.476   9.159
17737TIP3    H253089   6.552   2.503   9.283
17738TIP3   OH253090   5.897   1.023   8.930
17738TIP3    H153091   5.951   0.962   8.878
17738TIP3    H253092   5.896   0.977   9.017
17739TIP3   OH253093   5.904   0.904   9.179
17739TIP3    H153094   5.809   0.926   9.191
17739TIP3    H253095   5.947   0.953   9.251
17740TIP3   OH253096   5.605   1.304   8.317
17740TIP3    H153097   5.534   1.237   8.307
17740TIP3    H253098   5.587   1.337   8.408
17741TIP3   OH253099   6.506   1.539   8.947
17741TIP3    H153100   6.529   1.588   8.865
17741TIP3    H253101   6.421   1.496   8.923
17742TIP3   OH253102   6.013   1.626   9.309
17742TIP3    H153103   6.008   1.585   9.397
17742TIP3    H253104   5.965   1.709   9.320
17743TIP3   OH253105   6.124   0.837   8.273
17743TIP3    H153106   6.221   0.848   8.284
17743TIP3    H253107   6.100   0.915   8.220
17744TIP3   OH253108   5.305   1.339   8.982
17744TIP3    H153109   5.342   1.301   8.900
17744TIP3    H253110   5.325   1.270   9.047
17745TIP3   OH253111   5.750   1.454   8.138
17745TIP3    H153112   5.703   1.540   8.144
17745TIP3    H253113   5.695   1.398   8.198
17746TIP3   OH253114   6.164   1.882   9.192
17746TIP3    H153115   6.070   1.872   9.214
17746TIP3    H253116   6.197   1.930   9.271
17747TIP3   OH253117   6.582   0.950   8.113
17747TIP3    H153118   6.521   0.902   8.053
17747TIP3    H253119   6.575   1.039   8.073
17748TIP3   OH253120   6.793   1.811   9.197
17748TIP3    H153121   6.695   1.806   9.188
17748TIP3    H253122   6.819   1.782   9.106
17749TIP3   OH253123   6.280   1.772   8.027
17749TIP3    H153124   6.248   1.705   8.089
17749TIP3    H253125   6.286   1.724   7.943
17750TIP3   OH253126   6.272   1.401   8.867
17750TIP3    H153127   6.178   1.375   8.879
17750TIP3    H253128   6.306   1.322   8.821
17751TIP3   OH253129   5.397   1.630   8.619
17751TIP3    H153130   5.395   1.711   8.564
17751TIP3    H253131   5.303   1.610   8.626
17752TIP3   OH253132   4.962   0.931   8.320
17752TIP3    H153133   5.010   1.014   8.339
17752TIP3    H253134   4.886   0.938   8.381
17753TIP3   OH253135   5.540   1.398   8.562
17753TIP3    H153136   5.502   1.485   8.582
17753TIP3    H253137   5.503   1.343   8.635
17754TIP3   OH253138   5.667   1.975   9.087
17754TIP3    H153139   5.705   2.047   9.034
17754TIP3    H253140   5.746   1.939   9.130
17755TIP3   OH253141   5.318   1.867   8.470
17755TIP3    H153142   5.232   1.875   8.516
17755TIP3    H253143   5.348   1.961   8.472
17756TIP3   OH253144   6.058   1.607   9.042
17756TIP3    H153145   6.051   1.606   9.140
17756TIP3    H253146   6.135   1.550   9.029
17757TIP3   OH253147   6.029   1.498   7.926
17757TIP3    H153148   6.080   1.473   8.006
17757TIP3    H253149   5.940   1.474   7.954
17758TIP3   OH253150   6.305   2.142   9.096
17758TIP3    H153151   6.226   2.083   9.088
17758TIP3    H253152   6.288   2.205   9.022
17759TIP3   OH253153   6.369   1.976   7.747
17759TIP3    H153154   6.403   2.048   7.692
17759TIP3    H253155   6.290   2.020   7.783
17760TIP3   OH253156   6.190   1.432   8.141
17760TIP3    H153157   6.178   1.368   8.215
17760TIP3    H253158   6.287   1.431   8.132
17761TIP3   OH253159   5.113   1.855   9.226
17761TIP3    H153160   5.146   1.765   9.241
17761TIP3    H253161   5.151   1.901   9.302
17762TIP3   OH253162   5.397   1.480   7.926
17762TIP3    H153163   5.409   1.387   7.898
17762TIP3    H253164   5.378   1.468   8.021
17763TIP3   OH253165   5.343   1.485   8.198
17763TIP3    H153166   5.411   1.458   8.261
17763TIP3    H253167   5.346   1.583   8.206
17764TIP3   OH253168   5.075   1.178   8.400
17764TIP3    H153169   5.011   1.223   8.459
17764TIP3    H253170   5.090   1.249   8.334
17765TIP3   OH253171   5.608   1.685   8.148
17765TIP3    H153172   5.521   1.710   8.184
17765TIP3    H253173   5.622   1.757   8.085
17766TIP3   OH253174   5.823   0.738   8.563
17766TIP3    H153175   5.862   0.826   8.544
17766TIP3    H253176   5.772   0.754   8.643
17767TIP3   OH253177   6.054   1.064   9.358
17767TIP3    H153178   6.062   1.110   9.443
17767TIP3    H253179   6.143   1.024   9.351
17768TIP3   OH253180   5.351   1.758   8.216
17768TIP3    H153181   5.321   1.827   8.152
17768TIP3    H253182   5.334   1.802   8.302
17769TIP3   OH253183   6.356   1.165   8.737
17769TIP3    H153184   6.283   1.102   8.751
17769TIP3    H253185   6.431   1.121   8.784
17770TIP3   OH253186   5.068   1.390   8.208
17770TIP3    H153187   5.131   1.463   8.217
17770TIP3    H253188   5.115   1.336   8.141
17771TIP3   OH253189   4.997   0.646   8.332
17771TIP3    H153190   5.032   0.737   8.334
17771TIP3    H253191   4.908   0.660   8.364
17772TIP3   OH253192   6.324   2.117   8.689
17772TIP3    H153193   6.281   2.163   8.614
17772TIP3    H253194   6.418   2.134   8.667
17773TIP3   OH253195   4.942   1.604   8.596
17773TIP3    H153196   4.875   1.631   8.660
17773TIP3    H253197   4.908   1.644   8.513
17774TIP3   OH253198   5.560   1.684   7.840
17774TIP3    H153199   5.502   1.614   7.878
17774TIP3    H253200   5.634   1.630   7.810
17775TIP3   OH253201   6.229   2.011   9.420
17775TIP3    H153202   6.223   1.969   9.508
17775TIP3    H253203   6.300   2.076   9.438
17776TIP3   OH253204   5.997   1.726   7.752
17776TIP3    H153205   6.040   1.661   7.809
17776TIP3    H253206   6.053   1.726   7.672
17777TIP3   OH253207   5.203   1.203   8.059
17777TIP3    H153208   5.256   1.167   8.133
17777TIP3    H253209   5.271   1.208   7.989
17778TIP3   OH253210   5.714   1.405   7.868
17778TIP3    H153211   5.714   1.416   7.965
17778TIP3    H253212   5.715   1.307   7.863
17779TIP3   OH253213   6.328   1.645   9.246
17779TIP3    H153214   6.398   1.694   9.199
17779TIP3    H253215   6.251   1.703   9.231
17780TIP3   OH253216   5.416   1.102   8.284
17780TIP3    H153217   5.387   1.066   8.370
17780TIP3    H253218   5.448   1.021   8.239
17781TIP3   OH253219   5.520   0.885   8.123
17781TIP3    H153220   5.490   0.905   8.031
17781TIP3    H253221   5.611   0.921   8.122
17782TIP3   OH253222   6.341   1.230   7.782
17782TIP3    H153223   6.313   1.185   7.700
17782TIP3    H253224   6.308   1.321   7.762
17783TIP3   OH253225   5.844   1.284   9.329
17783TIP3    H153226   5.914   1.287   9.262
17783TIP3    H253227   5.777   1.344   9.291
17784TIP3   OH253228   6.471   1.488   9.414
17784TIP3    H153229   6.407   1.547   9.367
17784TIP3    H253230   6.556   1.521   9.377
17785TIP3   OH253231   5.320   1.960   8.030
17785TIP3    H153232   5.415   1.959   8.010
17785TIP3    H253233   5.287   2.008   7.951
17786TIP3   OH253234   4.799   1.343   8.242
17786TIP3    H153235   4.894   1.365   8.231
17786TIP3    H253236   4.795   1.254   8.203
17787TIP3   OH253237   4.716   1.956   8.656
17787TIP3    H153238   4.647   1.895   8.622
17787TIP3    H253239   4.759   1.899   8.722
17788TIP3   OH253240   4.849   1.805   8.839
17788TIP3    H153241   4.814   1.736   8.898
17788TIP3    H253242   4.902   1.859   8.901
17789TIP3   OH253243   6.578   2.205   8.644
17789TIP3    H153244   6.604   2.239   8.731
17789TIP3    H253245   6.637   2.254   8.584
17790TIP3   OH253246   6.608   2.228   8.925
17790TIP3    H153247   6.562   2.141   8.920
17790TIP3    H253248   6.681   2.204   8.984
17791TIP3   OH253249   6.659   1.906   9.495
17791TIP3    H153250   6.567   1.917   9.519
17791TIP3    H253251   6.693   1.998   9.496
17792TIP3   OH253252   6.472   1.414   8.118
17792TIP3    H153253   6.539   1.480   8.092
17792TIP3    H253254   6.512   1.376   8.199
17793TIP3   OH253255   6.598   1.282   8.323
17793TIP3    H153256   6.531   1.240   8.382
17793TIP3    H253257   6.661   1.322   8.387
17794TIP3   OH253258   6.654   1.677   8.758
17794TIP3    H153259   6.703   1.611   8.706
17794TIP3    H253260   6.641   1.749   8.693
17795TIP3   OH253261   6.483   1.978   8.950
17795TIP3    H153262   6.411   2.019   9.002
17795TIP3    H253263   6.433   1.930   8.881
17796TIP3   OH253264   6.536   1.188   7.968
17796TIP3    H153265   6.465   1.198   7.900
17796TIP3    H253266   6.511   1.263   8.026
17797TIP3   OH253267   6.420   0.858   7.911
17797TIP3    H153268   6.369   0.930   7.873
17797TIP3    H253269   6.367   0.782   7.886
17798TIP3   OH253270   6.414   1.140   8.472
17798TIP3    H153271   6.418   1.044   8.475
17798TIP3    H253272   6.398   1.161   8.567
17799TIP3   OH253273   5.061   1.256   9.174
17799TIP3    H153274   5.050   1.200   9.094
17799TIP3    H253275   5.149   1.228   9.206
17800TIP3   OH253276   6.716   1.563   9.319
17800TIP3    H153277   6.788   1.500   9.305
17800TIP3    H253278   6.739   1.637   9.260
17801TIP3   OH253279   6.914   1.363   9.344
17801TIP3    H153280   6.825   1.330   9.370
17801TIP3    H253281   6.965   1.290   9.382
17802TIP3   OH253282   6.395   0.856   8.315
17802TIP3    H153283   6.438   0.820   8.395
17802TIP3    H253284   6.469   0.894   8.266
17803TIP3   OH253285   6.575   1.061   8.860
17803TIP3    H153286   6.665   1.071   8.824
17803TIP3    H253287   6.590   1.083   8.954
17804TIP3   OH253288   6.636   1.179   9.102
17804TIP3    H153289   6.557   1.217   9.146
17804TIP3    H253290   6.669   1.256   9.052
17805TIP3   OH253291   6.165   2.072   8.303
17805TIP3    H153292   6.212   2.057   8.219
17805TIP3    H253293   6.218   2.142   8.344
17806TIP3   OH253294   5.441   1.909   9.234
17806TIP3    H153295   5.389   1.982   9.195
17806TIP3    H253296   5.526   1.926   9.188
17807TIP3   OH253297   5.882   2.151   9.349
17807TIP3    H153298   5.929   2.143   9.435
17807TIP3    H253299   5.948   2.203   9.298
17808TIP3   OH253300   6.063   2.304   9.219
17808TIP3    H153301   6.136   2.251   9.183
17808TIP3    H253302   6.113   2.365   9.278
17809TIP3   OH253303   5.127   2.174   9.256
17809TIP3    H153304   5.037   2.201   9.229
17809TIP3    H253305   5.126   2.197   9.349
17810TIP3   OH253306   5.358   2.146   9.114
17810TIP3    H153307   5.272   2.159   9.162
17810TIP3    H253308   5.334   2.177   9.025
17811TIP3   OH253309   5.779   2.175   8.914
17811TIP3    H153310   5.710   2.193   8.848
17811TIP3    H253311   5.790   2.263   8.954
17812TIP3   OH253312   6.048   2.115   8.965
17812TIP3    H153313   5.953   2.129   8.945
17812TIP3    H253314   6.088   2.192   8.921
17813TIP3   OH253315   6.260   2.309   8.881
17813TIP3    H153316   6.242   2.392   8.832
17813TIP3    H253317   6.282   2.247   8.808
17814TIP3   OH253318   5.028   1.967   8.992
17814TIP3    H153319   5.051   1.945   9.085
17814TIP3    H253320   5.101   1.920   8.946
17815TIP3   OH253321   5.223   1.830   8.859
17815TIP3    H153322   5.239   1.748   8.910
17815TIP3    H253323   5.313   1.868   8.853
17816TIP3   OH253324   5.489   1.929   8.860
17816TIP3    H153325   5.520   1.837   8.846
17816TIP3    H253326   5.530   1.947   8.946
17817TIP3   OH253327   4.818   1.729   8.393
17817TIP3    H153328   4.733   1.697   8.360
17817TIP3    H253329   4.805   1.825   8.383
17818TIP3   OH253330   5.589   1.920   7.978
17818TIP3    H153331   5.675   1.947   7.939
17818TIP3    H253332   5.566   1.847   7.918
17819TIP3   OH253333   6.308   2.040   8.069
17819TIP3    H153334   6.301   1.942   8.057
17819TIP3    H253335   6.261   2.072   7.990
17820TIP3   OH253336   4.892   1.759   8.034
17820TIP3    H153337   4.889   1.783   8.128
17820TIP3    H253338   4.981   1.718   8.024
17821TIP3   OH253339   6.540   2.186   9.247
17821TIP3    H153340   6.460   2.152   9.203
17821TIP3    H253341   6.517   2.281   9.252
17822TIP3   OH253342   7.798   1.556   8.027
17822TIP3    H153343   7.772   1.648   8.004
17822TIP3    H253344   7.722   1.507   7.990
17823TIP3   OH253345   7.799   1.548   8.409
17823TIP3    H153346   7.803   1.487   8.484
17823TIP3    H253347   7.758   1.490   8.343
17824TIP3   OH253348   7.098   1.460   8.766
17824TIP3    H153349   7.130   1.385   8.819
17824TIP3    H253350   7.181   1.506   8.748
17825TIP3   OH253351   8.040   1.857   8.086
17825TIP3    H153352   8.029   1.789   8.154
17825TIP3    H253353   8.072   1.933   8.139
17826TIP3   OH253354   7.071   1.862   8.497
17826TIP3    H153355   7.060   1.764   8.498
17826TIP3    H253356   7.167   1.868   8.487
17827TIP3   OH253357   6.771   1.056   8.286
17827TIP3    H153358   6.723   1.139   8.302
17827TIP3    H253359   6.707   1.009   8.229
17828TIP3   OH253360   6.839   1.350   8.451
17828TIP3    H153361   6.887   1.273   8.488
17828TIP3    H253362   6.897   1.376   8.378
17829TIP3   OH253363   7.691   2.320   8.102
17829TIP3    H153364   7.737   2.250   8.052
17829TIP3    H253365   7.684   2.280   8.189
17830TIP3   OH253366   7.596   1.784   8.454
17830TIP3    H153367   7.627   1.705   8.406
17830TIP3    H253368   7.682   1.826   8.471
17831TIP3   OH253369   6.982   1.142   8.556
17831TIP3    H153370   7.062   1.116   8.608
17831TIP3    H253371   6.999   1.088   8.477
17832TIP3   OH253372   7.424   1.343   8.356
17832TIP3    H153373   7.514   1.309   8.369
17832TIP3    H253374   7.377   1.262   8.324
17833TIP3   OH253375   7.693   1.777   7.894
17833TIP3    H153376   7.649   1.755   7.811
17833TIP3    H253377   7.649   1.861   7.917
17834TIP3   OH253378   7.456   1.701   8.684
17834TIP3    H153379   7.390   1.764   8.720
17834TIP3    H253380   7.491   1.751   8.608
17835TIP3   OH253381   7.217   1.049   8.655
17835TIP3    H153382   7.285   1.113   8.684
17835TIP3    H253383   7.262   1.004   8.583
17836TIP3   OH253384   7.279   1.896   8.779
17836TIP3    H153385   7.250   1.980   8.738
17836TIP3    H253386   7.200   1.878   8.834
17837TIP3   OH253387   6.675   1.585   8.014
17837TIP3    H153388   6.631   1.612   7.931
17837TIP3    H253389   6.704   1.671   8.050
17838TIP3   OH253390   8.109   2.095   8.247
17838TIP3    H153391   8.020   2.089   8.286
17838TIP3    H253392   8.106   2.185   8.210
17839TIP3   OH253393   7.815   2.148   7.928
17839TIP3    H153394   7.865   2.065   7.908
17839TIP3    H253395   7.876   2.213   7.886
17840TIP3   OH253396   7.957   1.933   7.834
17840TIP3    H153397   7.919   1.853   7.794
17840TIP3    H253398   7.992   1.897   7.919
17841TIP3   OH253399   7.631   1.409   7.854
17841TIP3    H153400   7.550   1.458   7.833
17841TIP3    H253401   7.676   1.405   7.768
17842TIP3   OH253402   7.586   1.192   7.576
17842TIP3    H153403   7.657   1.241   7.621
17842TIP3    H253404   7.640   1.130   7.523
17843TIP3   OH253405   7.975   1.491   7.826
17843TIP3    H153406   7.923   1.515   7.906
17843TIP3    H253407   8.059   1.462   7.868
17844TIP3   OH253408   7.213   1.489   8.241
17844TIP3    H153409   7.169   1.431   8.175
17844TIP3    H253410   7.286   1.432   8.272
17845TIP3   OH253411   7.339   1.899   8.391
17845TIP3    H153412   7.316   1.857   8.307
17845TIP3    H253413   7.430   1.865   8.407
17846TIP3   OH253414   7.345   1.458   8.601
17846TIP3    H153415   7.377   1.432   8.512
17846TIP3    H253416   7.393   1.541   8.617
17847TIP3   OH253417   7.867   2.100   8.370
17847TIP3    H153418   7.860   2.177   8.428
17847TIP3    H253419   7.858   2.024   8.431
17848TIP3   OH253420   7.483   2.018   8.914
17848TIP3    H153421   7.424   2.083   8.961
17848TIP3    H253422   7.415   1.973   8.858
17849TIP3   OH253423   7.821   1.340   7.654
17849TIP3    H153424   7.880   1.398   7.707
17849TIP3    H253425   7.847   1.366   7.562
17850TIP3   OH253426   7.232   1.575   9.019
17850TIP3    H153427   7.235   1.660   9.067
17850TIP3    H253428   7.137   1.556   9.025
17851TIP3   OH253429   7.561   2.028   7.928
17851TIP3    H153430   7.640   2.082   7.944
17851TIP3    H253431   7.500   2.091   7.888
17852TIP3   OH253432   7.279   2.180   9.008
17852TIP3    H153433   7.242   2.182   8.918
17852TIP3    H253434   7.200   2.160   9.063
17853TIP3   OH253435   7.077   1.338   8.044
17853TIP3    H153436   7.005   1.373   7.988
17853TIP3    H253437   7.048   1.248   8.063
17854TIP3   OH253438   8.132   1.956   7.247
17854TIP3    H153439   8.141   2.053   7.234
17854TIP3    H253440   8.225   1.927   7.236
17855TIP3   OH253441   6.857   1.714   8.953
17855TIP3    H153442   6.790   1.694   8.885
17855TIP3    H253443   6.893   1.625   8.973
17856TIP3   OH253444   6.711   1.908   8.586
17856TIP3    H153445   6.807   1.904   8.579
17856TIP3    H253446   6.698   1.988   8.640
17857TIP3   OH253447   7.687   2.141   8.785
17857TIP3    H153448   7.676   2.237   8.803
17857TIP3    H253449   7.609   2.104   8.832
17858TIP3   OH253450   7.442   2.274   7.729
17858TIP3    H153451   7.396   2.255   7.646
17858TIP3    H253452   7.409   2.363   7.752
17859TIP3   OH253453   6.881   2.124   8.112
17859TIP3    H153454   6.927   2.113   8.198
17859TIP3    H253455   6.822   2.047   8.114
17860TIP3   OH253456   7.644   2.175   7.369
17860TIP3    H153457   7.703   2.105   7.333
17860TIP3    H253458   7.678   2.184   7.461
17861TIP3   OH253459   7.694   2.223   7.640
17861TIP3    H153460   7.606   2.232   7.682
17861TIP3    H253461   7.744   2.181   7.711
17862TIP3   OH253462   7.058   1.899   8.940
17862TIP3    H153463   7.107   1.879   9.022
17862TIP3    H253464   6.984   1.834   8.945
17863TIP3   OH253465   7.896   1.390   7.396
17863TIP3    H153466   7.862   1.369   7.307
17863TIP3    H253467   7.973   1.446   7.373
17864TIP3   OH253468   7.401   1.230   8.745
17864TIP3    H153469   7.348   1.253   8.824
17864TIP3    H253470   7.388   1.310   8.690
17865TIP3   OH253471   7.262   1.147   8.253
17865TIP3    H153472   7.188   1.094   8.285
17865TIP3    H253473   7.288   1.096   8.173
17866TIP3   OH253474   7.772   1.212   7.985
17866TIP3    H153475   7.718   1.284   7.944
17866TIP3    H253476   7.820   1.178   7.907
17867TIP3   OH253477   7.939   1.246   8.209
17867TIP3    H153478   7.875   1.268   8.138
17867TIP3    H253479   7.945   1.151   8.199
17868TIP3   OH253480   7.203   1.271   8.940
17868TIP3    H153481   7.208   1.340   9.008
17868TIP3    H253482   7.149   1.201   8.979
17869TIP3   OH253483   7.035   0.998   8.327
17869TIP3    H153484   6.940   1.015   8.305
17869TIP3    H253485   7.039   0.902   8.317
17870TIP3   OH253486   7.325   1.015   8.021
17870TIP3    H153487   7.413   0.996   7.984
17870TIP3    H253488   7.268   1.019   7.942
17871TIP3   OH253489   7.146   1.042   7.805
17871TIP3    H153490   7.111   0.958   7.775
17871TIP3    H253491   7.200   1.071   7.728
17872TIP3   OH253492   8.261   2.752   8.737
17872TIP3    H153493   8.248   2.755   8.640
17872TIP3    H253494   8.342   2.804   8.743
17873TIP3   OH253495   7.215   1.819   9.152
17873TIP3    H153496   7.297   1.856   9.187
17873TIP3    H253497   7.157   1.820   9.231
17874TIP3   OH253498   7.696   1.276   8.431
17874TIP3    H153499   7.757   1.218   8.384
17874TIP3    H253500   7.688   1.230   8.517
17875TIP3   OH253501   7.671   1.172   8.706
17875TIP3    H153502   7.576   1.194   8.717
17875TIP3    H253503   7.709   1.212   8.786
17876TIP3   OH253504   7.401   1.560   7.803
17876TIP3    H153505   7.329   1.495   7.793
17876TIP3    H253506   7.384   1.594   7.895
17877TIP3   OH253507   8.299   1.768   8.421
17877TIP3    H153508   8.333   1.825   8.349
17877TIP3    H253509   8.209   1.745   8.390
17878TIP3   OH253510   7.836   1.898   8.797
17878TIP3    H153511   7.811   1.830   8.861
17878TIP3    H253512   7.765   1.964   8.803
17879TIP3   OH253513   7.917   1.095   7.761
17879TIP3    H153514   8.015   1.106   7.768
17879TIP3    H253515   7.894   1.174   7.708
17880TIP3   OH253516   7.096   1.585   8.477
17880TIP3    H153517   7.132   1.554   8.392
17880TIP3    H253518   7.131   1.518   8.538
17881TIP3   OH253519   7.545   1.710   7.623
17881TIP3    H153520   7.498   1.796   7.630
17881TIP3    H253521   7.492   1.654   7.684
17882TIP3   OH253522   6.969   1.494   9.090
17882TIP3    H153523   6.973   1.471   9.185
17882TIP3    H253524   6.894   1.439   9.060
17883TIP3   OH253525   7.944   2.157   8.669
17883TIP3    H153526   7.850   2.142   8.691
17883TIP3    H253527   7.964   2.240   8.714
17884TIP3   OH253528   8.377   1.207   7.597
17884TIP3    H153529   8.317   1.159   7.537
17884TIP3    H253530   8.370   1.297   7.559
17885TIP3   OH253531   8.070   2.029   7.512
17885TIP3    H153532   8.048   1.958   7.574
17885TIP3    H253533   8.084   1.981   7.428
17886TIP3   OH253534   8.048   1.663   8.340
17886TIP3    H153535   7.959   1.627   8.358
17886TIP3    H253536   8.093   1.584   8.304
17887TIP3   OH253537   7.193   1.886   8.106
17887TIP3    H153538   7.193   1.967   8.051
17887TIP3    H253539   7.099   1.868   8.113
17888TIP3   OH253540   6.762   1.188   7.808
17888TIP3    H153541   6.806   1.274   7.827
17888TIP3    H253542   6.683   1.196   7.866
17889TIP3   OH253543   7.335   1.653   8.049
17889TIP3    H153544   7.298   1.741   8.069
17889TIP3    H253545   7.299   1.600   8.122
17890TIP3   OH253546   7.461   2.233   8.572
17890TIP3    H153547   7.498   2.306   8.518
17890TIP3    H253548   7.541   2.200   8.615
17891TIP3   OH253549   7.114   2.124   7.956
17891TIP3    H153550   7.028   2.132   8.002
17891TIP3    H253551   7.145   2.218   7.959
17892TIP3   OH253552   7.853   1.864   8.523
17892TIP3    H153553   7.856   1.866   8.621
17892TIP3    H253554   7.925   1.804   8.500
17893TIP3   OH253555   7.825   1.754   7.414
17893TIP3    H153556   7.878   1.731   7.493
17893TIP3    H253557   7.736   1.730   7.445
17894TIP3   OH253558   8.078   2.415   8.591
17894TIP3    H153559   8.018   2.347   8.555
17894TIP3    H253560   8.091   2.469   8.510
17895TIP3   OH253561   8.166   2.232   7.235
17895TIP3    H153562   8.206   2.304   7.182
17895TIP3    H253563   8.086   2.278   7.267
17896TIP3   OH253564   7.983   1.691   7.631
17896TIP3    H153565   7.976   1.624   7.702
17896TIP3    H253566   8.080   1.690   7.616
17897TIP3   OH253567   6.903   2.094   8.732
17897TIP3    H153568   6.953   2.016   8.763
17897TIP3    H253569   6.929   2.159   8.798
17898TIP3   OH253570   7.192   1.737   7.413
17898TIP3    H153571   7.207   1.645   7.385
17898TIP3    H253572   7.174   1.726   7.508
17899TIP3   OH253573   7.139   1.742   7.685
17899TIP3    H153574   7.208   1.714   7.747
17899TIP3    H253575   7.143   1.840   7.693
17900TIP3   OH253576   6.871   1.435   7.886
17900TIP3    H153577   6.806   1.480   7.945
17900TIP3    H253578   6.886   1.506   7.821
17901TIP3   OH253579   7.404   1.941   7.635
17901TIP3    H153580   7.317   1.967   7.671
17901TIP3    H253581   7.420   2.013   7.573
17902TIP3   OH253582   7.615   0.996   8.046
17902TIP3    H153583   7.657   1.083   8.030
17902TIP3    H253584   7.574   1.008   8.133
17903TIP3   OH253585   7.147   2.015   7.702
17903TIP3    H153586   7.116   2.084   7.639
17903TIP3    H253587   7.130   2.058   7.788
17904TIP3   OH253588   8.155   1.413   8.232
17904TIP3    H153589   8.072   1.361   8.228
17904TIP3    H253590   8.209   1.357   8.292
17905TIP3   OH253591   6.864   1.647   7.695
17905TIP3    H153592   6.928   1.720   7.704
17905TIP3    H253593   6.912   1.593   7.628
17906TIP3   OH253594   6.793   0.912   7.806
17906TIP3    H153595   6.817   1.006   7.818
17906TIP3    H253596   6.712   0.911   7.859
17907TIP3   OH253597   8.115   2.373   8.174
17907TIP3    H153598   8.077   2.422   8.098
17907TIP3    H253599   8.211   2.388   8.158
17908TIP3   OH253600   6.738   1.862   8.083
17908TIP3    H153601   6.665   1.890   8.140
17908TIP3    H253602   6.710   1.901   7.997
17909TIP3   OH253603   6.892   2.400   9.154
17909TIP3    H153604   6.977   2.399   9.202
17909TIP3    H253605   6.869   2.305   9.154
17910TIP3   OH253606   7.372   2.374   9.187
17910TIP3    H153607   7.461   2.346   9.213
17910TIP3    H253608   7.351   2.308   9.118
17911TIP3   OH253609   7.355   1.942   7.326
17911TIP3    H153610   7.299   1.871   7.365
17911TIP3    H253611   7.431   1.888   7.297
17912TIP3   OH253612   7.792   1.983   7.238
17912TIP3    H153613   7.838   1.920   7.297
17912TIP3    H253614   7.849   1.983   7.159
17913TIP3   OH253615   7.025   1.816   9.348
17913TIP3    H153616   7.037   1.724   9.376
17913TIP3    H253617   6.936   1.813   9.307
17914TIP3   OH253618   7.001   1.459   7.547
17914TIP3    H153619   7.056   1.427   7.621
17914TIP3    H253620   7.069   1.463   7.476
17915TIP3   OH253621   7.510   1.830   9.114
17915TIP3    H153622   7.485   1.878   9.033
17915TIP3    H253623   7.554   1.750   9.077
17916TIP3   OH253624   7.508   1.658   7.354
17916TIP3    H153625   7.511   1.671   7.451
17916TIP3    H253626   7.508   1.559   7.349
17917TIP3   OH253627   7.158   1.538   9.344
17917TIP3    H153628   7.147   1.442   9.339
17917TIP3    H253629   7.128   1.557   9.435
17918TIP3   OH253630   7.210   1.360   7.769
17918TIP3    H153631   7.182   1.323   7.854
17918TIP3    H253632   7.244   1.282   7.722
17919TIP3   OH253633   7.460   1.416   8.992
17919TIP3    H153634   7.392   1.487   8.991
17919TIP3    H253635   7.520   1.444   8.920
17920TIP3   OH253636   7.309   1.146   7.609
17920TIP3    H153637   7.283   1.157   7.515
17920TIP3    H253638   7.406   1.160   7.603
17921TIP3   OH253639   8.131   1.486   7.271
17921TIP3    H153640   8.109   1.442   7.187
17921TIP3    H253641   8.101   1.577   7.250
17922TIP3   OH253642   7.632   1.506   8.769
17922TIP3    H153643   7.720   1.539   8.744
17922TIP3    H253644   7.573   1.577   8.738
17923TIP3   OH253645   7.116   2.218   7.515
17923TIP3    H153646   7.211   2.215   7.495
17923TIP3    H253647   7.084   2.266   7.436
17924TIP3   OH253648   6.596   1.600   7.731
17924TIP3    H153649   6.691   1.621   7.718
17924TIP3    H253650   6.590   1.511   7.690
17925TIP3   OH253651   6.511   2.213   8.143
17925TIP3    H153652   6.443   2.151   8.108
17925TIP3    H253653   6.555   2.155   8.210
17926TIP3   OH253654   6.647   2.065   8.331
17926TIP3    H153655   6.633   1.990   8.391
17926TIP3    H253656   6.696   2.125   8.389
17927TIP3   OH253657   8.371   2.462   8.132
17927TIP3    H153658   8.397   2.496   8.219
17927TIP3    H253659   8.431   2.508   8.072
17928TIP3   OH253660   8.405   2.493   8.416
17928TIP3    H153661   8.361   2.405   8.410
17928TIP3    H253662   8.490   2.468   8.457
17929TIP3   OH253663   8.256   1.684   7.590
17929TIP3    H153664   8.332   1.742   7.570
17929TIP3    H253665   8.289   1.639   7.672
17930TIP3   OH253666   8.353   1.543   7.792
17930TIP3    H153667   8.307   1.491   7.862
17930TIP3    H253668   8.436   1.569   7.837
17931TIP3   OH253669   8.431   1.920   8.227
17931TIP3    H153670   8.486   1.886   8.156
17931TIP3    H253671   8.408   2.008   8.193
17932TIP3   OH253672   8.277   2.253   8.417
17932TIP3    H153673   8.235   2.239   8.502
17932TIP3    H253674   8.242   2.179   8.365
17933TIP3   OH253675   8.329   1.446   7.457
17933TIP3    H153676   8.259   1.456   7.388
17933TIP3    H253677   8.306   1.522   7.514
17934TIP3   OH253678   8.211   1.114   7.401
17934TIP3    H153679   8.164   1.186   7.357
17934TIP3    H253680   8.166   1.036   7.367
17935TIP3   OH253681   8.199   1.394   7.962
17935TIP3    H153682   8.210   1.298   7.959
17935TIP3    H253683   8.192   1.410   8.059
17936TIP3   OH253684   6.832   1.468   8.703
17936TIP3    H153685   6.831   1.439   8.610
17936TIP3    H253686   6.930   1.475   8.719
17937TIP3   OH253687   8.187   1.119   7.788
17937TIP3    H153688   8.226   1.087   7.872
17937TIP3    H253689   8.265   1.153   7.740
17938TIP3   OH253690   6.829   1.127   8.785
17938TIP3    H153691   6.873   1.116   8.698
17938TIP3    H253692   6.851   1.218   8.806
17939TIP3   OH253693   7.958   2.331   7.789
17939TIP3    H153694   8.007   2.314   7.706
17939TIP3    H253695   8.014   2.397   7.832
17940TIP3   OH253696   7.063   2.130   9.183
17940TIP3    H153697   6.972   2.104   9.160
17940TIP3    H253698   7.064   2.112   9.278
17941TIP3   OH253699   7.237   2.167   8.723
17941TIP3    H153700   7.185   2.240   8.684
17941TIP3    H253701   7.321   2.184   8.676
17942TIP3   OH253702   7.669   2.409   8.832
17942TIP3    H153703   7.705   2.406   8.924
17942TIP3    H253704   7.737   2.463   8.787
17943TIP3   OH253705   7.863   2.560   8.717
17943TIP3    H153706   7.932   2.517   8.662
17943TIP3    H253707   7.917   2.616   8.775
17944TIP3   OH253708   6.915   2.426   8.744
17944TIP3    H153709   6.826   2.459   8.719
17944TIP3    H253710   6.919   2.455   8.836
17945TIP3   OH253711   7.150   2.403   8.602
17945TIP3    H153712   7.064   2.416   8.648
17945TIP3    H253713   7.130   2.435   8.512
17946TIP3   OH253714   7.574   2.431   8.401
17946TIP3    H153715   7.506   2.450   8.334
17946TIP3    H253716   7.587   2.519   8.441
17947TIP3   OH253717   7.841   2.371   8.453
17947TIP3    H153718   7.747   2.387   8.431
17947TIP3    H253719   7.885   2.443   8.406
17948TIP3   OH253720   8.056   2.565   8.366
17948TIP3    H153721   8.038   2.647   8.315
17948TIP3    H253722   8.079   2.501   8.294
17949TIP3   OH253723   6.826   2.219   8.491
17949TIP3    H153724   6.852   2.192   8.581
17949TIP3    H253725   6.896   2.174   8.439
17950TIP3   OH253726   7.017   2.088   8.347
17950TIP3    H153727   7.034   2.004   8.396
17950TIP3    H253728   7.108   2.125   8.341
17951TIP3   OH253729   7.284   2.185   8.347
17951TIP3    H153730   7.315   2.093   8.333
17951TIP3    H253731   7.326   2.204   8.433
17952TIP3   OH253732   6.614   1.988   7.881
17952TIP3    H153733   6.528   1.955   7.847
17952TIP3    H253734   6.602   2.083   7.862
17953TIP3   OH253735   7.384   2.179   7.463
17953TIP3    H153736   7.473   2.200   7.427
17953TIP3    H253737   7.362   2.104   7.403
17954TIP3   OH253738   8.102   2.295   7.556
17954TIP3    H153739   8.094   2.198   7.543
17954TIP3    H253740   8.058   2.328   7.475
17955TIP3   OH253741   6.688   2.016   7.520
17955TIP3    H153742   6.684   2.043   7.613
17955TIP3    H253743   6.778   1.976   7.513
17956TIP3   OH253744   8.248   2.482   8.795
17956TIP3    H153745   8.185   2.458   8.723
17956TIP3    H253746   8.272   2.574   8.772
17957TIP3   OH253747   8.528   1.297   7.818
17957TIP3    H153748   8.519   1.391   7.799
17957TIP3    H253749   8.502   1.257   7.733
17958TIP3   OH253750   8.605   1.594   7.867
17958TIP3    H153751   8.665   1.559   7.936
17958TIP3    H253752   8.668   1.651   7.821
17959TIP3   OH253753   9.395   2.043   7.436
17959TIP3    H153754   9.381   2.020   7.343
17959TIP3    H253755   9.384   2.140   7.432
17960TIP3   OH253756   8.472   1.843   7.500
17960TIP3    H153757   8.430   1.868   7.416
17960TIP3    H253758   8.500   1.929   7.536
17961TIP3   OH253759   9.384   1.454   7.045
17961TIP3    H153760   9.442   1.492   7.112
17961TIP3    H253761   9.407   1.359   7.047
17962TIP3   OH253762   9.360   2.316   7.421
17962TIP3    H153763   9.400   2.394   7.462
17962TIP3    H253764   9.297   2.357   7.359
17963TIP3   OH253765   8.879   1.596   7.531
17963TIP3    H153766   8.805   1.628   7.477
17963TIP3    H253767   8.854   1.504   7.549
17964TIP3   OH253768   8.504   2.168   8.072
17964TIP3    H153769   8.600   2.173   8.078
17964TIP3    H253770   8.478   2.239   8.133
17965TIP3   OH253771   9.240   2.527   7.217
17965TIP3    H153772   9.194   2.511   7.133
17965TIP3    H253773   9.209   2.617   7.241
17966TIP3   OH253774   8.674   2.381   7.597
17966TIP3    H153775   8.721   2.373   7.682
17966TIP3    H253776   8.616   2.304   7.601
17967TIP3   OH253777   9.442   2.433   6.857
17967TIP3    H153778   9.502   2.363   6.823
17967TIP3    H253779   9.474   2.442   6.950
17968TIP3   OH253780   9.493   2.481   7.127
17968TIP3    H153781   9.404   2.488   7.167
17968TIP3    H253782   9.548   2.461   7.204
17969TIP3   OH253783   9.681   1.656   6.877
17969TIP3    H153784   9.660   1.619   6.790
17969TIP3    H253785   9.749   1.720   6.856
17970TIP3   OH253786   8.905   1.309   7.273
17970TIP3    H153787   8.865   1.247   7.210
17970TIP3    H253788   8.988   1.329   7.227
17971TIP3   OH253789   9.177   1.842   7.289
17971TIP3    H153790   9.127   1.758   7.276
17971TIP3    H253791   9.173   1.852   7.386
17972TIP3   OH253792   9.336   1.965   7.102
17972TIP3    H153793   9.293   2.053   7.115
17972TIP3    H253794   9.285   1.910   7.165
17973TIP3   OH253795   9.898   2.272   6.929
17973TIP3    H153796   9.891   2.261   7.026
17973TIP3    H253797   9.817   2.228   6.901
17974TIP3   OH253798   8.990   2.140   7.566
17974TIP3    H153799   8.989   2.228   7.524
17974TIP3    H253800   8.897   2.129   7.588
17975TIP3   OH253801   8.550   1.448   7.290
17975TIP3    H153802   8.603   1.527   7.313
17975TIP3    H253803   8.477   1.454   7.355
17976TIP3   OH253804   9.129   1.900   7.564
17976TIP3    H153805   9.104   1.994   7.547
17976TIP3    H253806   9.061   1.878   7.629
17977TIP3   OH253807   8.912   2.385   7.445
17977TIP3    H153808   8.825   2.394   7.488
17977TIP3    H253809   8.945   2.478   7.450
17978TIP3   OH253810   9.615   2.022   6.917
17978TIP3    H153811   9.651   1.988   7.000
17978TIP3    H253812   9.523   1.995   6.926
17979TIP3   OH253813   8.704   2.339   8.210
17979TIP3    H153814   8.758   2.262   8.234
17979TIP3    H253815   8.762   2.408   8.249
17980TIP3   OH253816   8.991   1.993   6.901
17980TIP3    H153817   9.002   1.901   6.871
17980TIP3    H253818   8.969   1.980   6.995
17981TIP3   OH253819   8.933   1.998   7.173
17981TIP3    H153820   9.011   1.966   7.223
17981TIP3    H253821   8.940   2.095   7.183
17982TIP3   OH253822   8.669   1.691   7.375
17982TIP3    H153823   8.603   1.737   7.432
17982TIP3    H253824   8.685   1.761   7.308
17983TIP3   OH253825   9.203   2.201   7.130
17983TIP3    H153826   9.112   2.226   7.159
17983TIP3    H253827   9.217   2.265   7.060
17984TIP3   OH253828   8.943   2.272   7.189
17984TIP3    H153829   8.913   2.341   7.125
17984TIP3    H253830   8.927   2.318   7.275
17985TIP3   OH253831   8.660   1.904   7.181
17985TIP3    H153832   8.727   1.975   7.190
17985TIP3    H253833   8.706   1.849   7.114
17986TIP3   OH253834   8.578   1.153   7.295
17986TIP3    H153835   8.632   1.234   7.299
17986TIP3    H253836   8.503   1.180   7.350
17987TIP3   OH253837   8.536   2.117   7.573
17987TIP3    H153838   8.460   2.147   7.625
17987TIP3    H253839   8.513   2.155   7.485
17988TIP3   OH253840   9.154   2.198   6.818
17988TIP3    H153841   9.096   2.126   6.852
17988TIP3    H253842   9.226   2.145   6.779
17989TIP3   OH253843   9.592   2.237   6.737
17989TIP3    H153844   9.624   2.154   6.777
17989TIP3    H253845   9.629   2.235   6.646
17990TIP3   OH253846   8.794   1.716   7.033
17990TIP3    H153847   8.847   1.679   7.106
17990TIP3    H253848   8.863   1.721   6.963
17991TIP3   OH253849   9.308   1.912   6.838
17991TIP3    H153850   9.307   1.925   6.935
17991TIP3    H253851   9.302   1.814   6.834
17992TIP3   OH253852   9.016   1.616   7.263
17992TIP3    H153853   8.976   1.573   7.340
17992TIP3    H253854   9.042   1.538   7.209
17993TIP3   OH253855   9.104   1.411   7.097
17993TIP3    H153856   9.072   1.414   7.004
17993TIP3    H253857   9.199   1.425   7.084
17994TIP3   OH253858   8.911   2.472   7.001
17994TIP3    H153859   9.007   2.471   6.982
17994TIP3    H253860   8.880   2.521   6.922
17995TIP3   OH253861   8.392   1.856   7.220
17995TIP3    H153862   8.487   1.879   7.205
17995TIP3    H253863   8.388   1.767   7.178
17996TIP3   OH253864   8.305   2.468   7.631
17996TIP3    H153865   8.238   2.406   7.595
17996TIP3    H253866   8.350   2.411   7.697
17997TIP3   OH253867   8.442   2.322   7.818
17997TIP3    H153868   8.428   2.248   7.880
17997TIP3    H253869   8.493   2.383   7.874
17998TIP3   OH253870   9.742   2.570   7.306
17998TIP3    H153871   9.780   2.553   7.216
17998TIP3    H253872   9.776   2.659   7.326
17999TIP3   OH253873   8.702   2.765   8.213
17999TIP3    H153874   8.605   2.759   8.203
17999TIP3    H253875   8.721   2.693   8.275
18000TIP3   OH253876   8.921   2.655   8.065
18000TIP3    H153877   8.852   2.716   8.096
18000TIP3    H253878   8.926   2.682   7.971
18001TIP3   OH253879   8.620   2.476   7.980
18001TIP3    H153880   8.645   2.442   8.069
18001TIP3    H253881   8.691   2.432   7.927
18002TIP3   OH253882   8.806   2.340   7.832
18002TIP3    H153883   8.841   2.253   7.856
18002TIP3    H253884   8.892   2.389   7.826
18003TIP3   OH253885   9.061   2.421   7.839
18003TIP3    H153886   9.136   2.361   7.828
18003TIP3    H253887   9.096   2.488   7.898
18004TIP3   OH253888   8.408   2.245   7.372
18004TIP3    H153889   8.324   2.211   7.336
18004TIP3    H253890   8.398   2.339   7.352
18005TIP3   OH253891   9.181   2.436   6.950
18005TIP3    H153892   9.268   2.460   6.912
18005TIP3    H253893   9.158   2.361   6.891
18006TIP3   OH253894   9.842   2.526   7.062
18006TIP3    H153895   9.873   2.445   7.018
18006TIP3    H253896   9.806   2.576   6.986
18007TIP3   OH253897   8.484   2.269   7.007
18007TIP3    H153898   8.487   2.299   7.099
18007TIP3    H253899   8.573   2.229   6.995
18008TIP3   OH253900   2.271   2.963   8.974
18008TIP3    H153901   2.213   2.900   8.930
18008TIP3    H253902   2.257   2.944   9.067
18009TIP3   OH253903   1.843   2.240   8.749
18009TIP3    H153904   1.909   2.290   8.799
18009TIP3    H253905   1.901   2.179   8.700
18010TIP3   OH253906   2.071   2.392   8.831
18010TIP3    H153907   2.130   2.444   8.887
18010TIP3    H253908   2.096   2.421   8.740
18011TIP3   OH253909   2.383   3.001   8.429
18011TIP3    H153910   2.392   3.097   8.410
18011TIP3    H253911   2.475   2.971   8.413
18012TIP3   OH253912   1.612   3.308   8.913
18012TIP3    H153913   1.627   3.296   8.816
18012TIP3    H253914   1.636   3.403   8.924
18013TIP3   OH253915   1.894   3.214   8.549
18013TIP3    H153916   1.953   3.148   8.505
18013TIP3    H253917   1.939   3.228   8.633
18014TIP3   OH253918   1.935   3.276   8.827
18014TIP3    H153919   1.859   3.248   8.879
18014TIP3    H253920   2.009   3.230   8.871
18015TIP3   OH253921   2.143   2.451   8.576
18015TIP3    H153922   2.109   2.417   8.491
18015TIP3    H253923   2.229   2.488   8.547
18016TIP3   OH253924   2.086   1.913   8.825
18016TIP3    H153925   2.005   1.922   8.877
18016TIP3    H253926   2.136   1.990   8.860
18017TIP3   OH253927   2.179   2.147   8.912
18017TIP3    H153928   2.275   2.145   8.924
18017TIP3    H253929   2.160   2.237   8.879
18018TIP3   OH253930   1.803   2.749   8.784
18018TIP3    H153931   1.761   2.833   8.808
18018TIP3    H253932   1.768   2.688   8.849
18019TIP3   OH253933   2.631   2.260   8.766
18019TIP3    H153934   2.562   2.207   8.721
18019TIP3    H253935   2.614   2.346   8.722
18020TIP3   OH253936   2.305   3.075   8.687
18020TIP3    H153937   2.312   3.006   8.755
18020TIP3    H253938   2.330   3.029   8.605
18021TIP3   OH253939   2.070   2.803   8.589
18021TIP3    H153940   2.130   2.777   8.662
18021TIP3    H253941   1.987   2.766   8.622
18022TIP3   OH253942   2.414   3.277   8.411
18022TIP3    H153943   2.454   3.346   8.356
18022TIP3    H253944   2.334   3.324   8.441
18023TIP3   OH253945   2.231   2.735   8.801
18023TIP3    H153946   2.223   2.687   8.884
18023TIP3    H253947   2.328   2.731   8.785
18024TIP3   OH253948   1.443   2.781   8.600
18024TIP3    H153949   1.465   2.710   8.538
18024TIP3    H253950   1.411   2.728   8.674
18025TIP3   OH253951   1.649   2.984   8.794
18025TIP3    H153952   1.568   3.016   8.753
18025TIP3    H253953   1.709   3.000   8.719
18026TIP3   OH253954   1.611   2.985   8.509
18026TIP3    H153955   1.558   2.907   8.536
18026TIP3    H253956   1.682   2.943   8.455
18027TIP3   OH253957   2.041   3.030   8.413
18027TIP3    H153958   2.089   2.967   8.470
18027TIP3    H253959   2.095   3.030   8.332
18028TIP3   OH253960   1.248   2.499   8.715
18028TIP3    H153961   1.291   2.441   8.779
18028TIP3    H253962   1.316   2.501   8.644
18029TIP3   OH253963   1.743   2.695   8.524
18029TIP3    H153964   1.763   2.708   8.619
18029TIP3    H253965   1.753   2.597   8.517
18030TIP3   OH253966   1.559   2.199   8.788
18030TIP3    H153967   1.530   2.199   8.695
18030TIP3    H253968   1.655   2.212   8.781
18031TIP3   OH253969   2.377   2.533   8.450
18031TIP3    H153970   2.360   2.484   8.367
18031TIP3    H253971   2.346   2.622   8.423
18032TIP3   OH253972   1.377   3.263   8.732
18032TIP3    H153973   1.463   3.266   8.685
18032TIP3    H253974   1.322   3.298   8.659
18033TIP3   OH253975   2.506   2.727   8.778
18033TIP3    H153976   2.576   2.787   8.745
18033TIP3    H253977   2.553   2.686   8.854
18034TIP3   OH253978   2.642   2.606   8.974
18034TIP3    H153979   2.598   2.557   9.046
18034TIP3    H253980   2.729   2.629   9.014
18035TIP3   OH253981   2.577   2.496   8.634
18035TIP3    H153982   2.506   2.497   8.566
18035TIP3    H253983   2.551   2.574   8.686
18036TIP3   OH253984   2.441   2.172   8.594
18036TIP3    H153985   2.413   2.202   8.507
18036TIP3    H253986   2.422   2.075   8.587
18037TIP3   OH253987   2.392   1.906   8.577
18037TIP3    H153988   2.477   1.878   8.618
18037TIP3    H253989   2.330   1.836   8.603
18038TIP3   OH253990   2.643   1.859   8.675
18038TIP3    H153991   2.693   1.776   8.665
18038TIP3    H253992   2.716   1.924   8.685
18039TIP3   OH253993   2.205   3.385   8.964
18039TIP3    H153994   2.253   3.367   8.880
18039TIP3    H253995   2.266   3.449   9.005
18040TIP3   OH253996   1.636   3.232   8.637
18040TIP3    H153997   1.726   3.252   8.604
18040TIP3    H253998   1.614   3.160   8.575
18041TIP3   OH253999   2.347   3.339   8.733
18041TIP3    H154000   2.339   3.242   8.718
18041TIP3    H254001   2.310   3.373   8.649
18042TIP3   OH254002   0.941   3.050   8.702
18042TIP3    H154003   0.947   3.099   8.784
18042TIP3    H254004   1.033   3.016   8.690
18043TIP3   OH254005   3.848   2.859   8.685
18043TIP3    H154006   3.816   2.950   8.666
18043TIP3    H254007   3.770   2.807   8.659
18044TIP3   OH254008   3.833   2.862   9.051
18044TIP3    H154009   3.857   2.834   9.142
18044TIP3    H254010   3.795   2.780   9.016
18045TIP3   OH254011   4.087   3.160   8.748
18045TIP3    H154012   4.071   3.086   8.809
18045TIP3    H254013   4.117   3.230   8.807
18046TIP3   OH254014   3.126   3.153   9.173
18046TIP3    H154015   3.118   3.057   9.151
18046TIP3    H254016   3.220   3.169   9.155
18047TIP3   OH254017   2.804   2.370   8.942
18047TIP3    H154018   2.771   2.461   8.939
18047TIP3    H254019   2.754   2.328   8.869
18048TIP3   OH254020   2.894   2.652   9.053
18048TIP3    H154021   2.958   2.582   9.083
18048TIP3    H254022   2.949   2.686   8.981
18049TIP3   OH254023   3.737   3.623   8.766
18049TIP3    H154024   3.783   3.552   8.715
18049TIP3    H254025   3.726   3.580   8.851
18050TIP3   OH254026   3.642   3.080   9.097
18050TIP3    H154027   3.680   3.001   9.056
18050TIP3    H254028   3.724   3.123   9.127
18051TIP3   OH254029   4.671   2.408   9.115
18051TIP3    H154030   4.693   2.493   9.158
18051TIP3    H254031   4.680   2.432   9.021
18052TIP3   OH254032   4.071   2.588   9.151
18052TIP3    H154033   4.100   2.493   9.159
18052TIP3    H254034   4.034   2.583   9.061
18053TIP3   OH254035   3.423   2.256   9.077
18053TIP3    H154036   3.362   2.331   9.071
18053TIP3    H254037   3.363   2.191   9.120
18054TIP3   OH254038   4.089   2.333   8.740
18054TIP3    H154039   4.159   2.316   8.807
18054TIP3    H254040   4.143   2.368   8.667
18055TIP3   OH254041   3.477   2.653   8.972
18055TIP3    H154042   3.564   2.614   8.991
18055TIP3    H254043   3.427   2.574   8.939
18056TIP3   OH254044   4.737   2.623   9.269
18056TIP3    H154045   4.649   2.667   9.259
18056TIP3    H254046   4.722   2.573   9.351
18057TIP3   OH254047   3.740   3.082   8.556
18057TIP3    H154048   3.693   3.053   8.476
18057TIP3    H254049   3.691   3.164   8.578
18058TIP3   OH254050   4.297   2.333   8.917
18058TIP3    H154051   4.308   2.294   9.006
18058TIP3    H254052   4.351   2.413   8.931
18059TIP3   OH254053   2.713   2.888   8.677
18059TIP3    H154054   2.681   2.914   8.589
18059TIP3    H254055   2.749   2.971   8.712
18060TIP3   OH254056   4.160   3.403   8.919
18060TIP3    H154057   4.070   3.393   8.955
18060TIP3    H254058   4.151   3.487   8.870
18061TIP3   OH254059   4.419   2.290   9.162
18061TIP3    H154060   4.399   2.302   9.256
18061TIP3    H254061   4.511   2.323   9.156
18062TIP3   OH254062   3.861   3.450   8.593
18062TIP3    H154063   3.909   3.366   8.573
18062TIP3    H254064   3.922   3.514   8.550
18063TIP3   OH254065   4.002   3.236   8.496
18063TIP3    H154066   3.962   3.157   8.458
18063TIP3    H254067   4.038   3.199   8.581
18064TIP3   OH254068   4.381   3.321   9.261
18064TIP3    H154069   4.371   3.238   9.209
18064TIP3    H254070   4.366   3.389   9.192
18065TIP3   OH254071   3.675   2.709   8.516
18065TIP3    H154072   3.594   2.758   8.494
18065TIP3    H254073   3.721   2.705   8.430
18066TIP3   OH254074   3.633   2.494   8.232
18066TIP3    H154075   3.701   2.542   8.283
18066TIP3    H254076   3.689   2.429   8.187
18067TIP3   OH254077   4.582   2.956   9.106
18067TIP3    H154078   4.497   3.003   9.119
18067TIP3    H254079   4.602   2.978   9.013
18068TIP3   OH254080   4.024   2.792   8.488
18068TIP3    H154081   3.968   2.816   8.566
18068TIP3    H254082   4.106   2.764   8.534
18069TIP3   OH254083   4.293   2.899   9.330
18069TIP3    H154084   4.321   2.911   9.422
18069TIP3    H254085   4.231   2.824   9.337
18070TIP3   OH254086   3.253   2.795   8.896
18070TIP3    H154087   3.208   2.733   8.834
18070TIP3    H254088   3.328   2.739   8.926
18071TIP3   OH254089   3.384   3.202   9.052
18071TIP3    H154090   3.366   3.156   8.968
18071TIP3    H254091   3.471   3.163   9.077
18072TIP3   OH254092   3.457   2.757   9.222
18072TIP3    H154093   3.476   2.733   9.129
18072TIP3    H254094   3.518   2.828   9.242
18073TIP3   OH254095   3.916   3.403   9.032
18073TIP3    H154096   3.896   3.478   9.091
18073TIP3    H254097   3.899   3.324   9.088
18074TIP3   OH254098   3.865   2.649   8.315
18074TIP3    H154099   3.923   2.708   8.368
18074TIP3    H254100   3.891   2.674   8.223
18075TIP3   OH254101   3.605   3.330   8.591
18075TIP3    H154102   3.684   3.384   8.609
18075TIP3    H254103   3.544   3.393   8.550
18076TIP3   OH254104   4.378   1.890   8.362
18076TIP3    H154105   4.297   1.908   8.415
18076TIP3    H254106   4.389   1.975   8.315
18077TIP3   OH254107   3.117   2.642   8.710
18077TIP3    H154108   3.044   2.665   8.650
18077TIP3    H254109   3.098   2.550   8.733
18078TIP3   OH254110   4.177   3.258   7.912
18078TIP3    H154111   4.186   3.355   7.897
18078TIP3    H254112   4.269   3.228   7.899
18079TIP3   OH254113   4.627   3.662   9.296
18079TIP3    H154114   4.625   3.566   9.313
18079TIP3    H254115   4.543   3.688   9.341
18080TIP3   OH254116   3.734   3.476   9.429
18080TIP3    H154117   3.689   3.558   9.453
18080TIP3    H254118   3.664   3.410   9.438
18081TIP3   OH254119   3.486   3.575   8.393
18081TIP3    H154120   3.441   3.554   8.309
18081TIP3    H254121   3.454   3.665   8.413
18082TIP3   OH254122   2.925   3.426   8.778
18082TIP3    H154123   2.974   3.415   8.862
18082TIP3    H254124   2.868   3.347   8.782
18083TIP3   OH254125   3.689   3.477   8.034
18083TIP3    H154126   3.748   3.407   7.996
18083TIP3    H254127   3.723   3.484   8.125
18084TIP3   OH254128   3.739   3.525   8.305
18084TIP3    H154129   3.650   3.533   8.346
18084TIP3    H254130   3.787   3.478   8.374
18085TIP3   OH254131   3.940   2.699   8.059
18085TIP3    H154132   3.906   2.671   7.972
18085TIP3    H254133   4.021   2.746   8.034
18086TIP3   OH254134   3.653   2.073   8.360
18086TIP3    H154135   3.622   2.070   8.453
18086TIP3    H254136   3.614   1.989   8.328
18087TIP3   OH254137   3.329   2.453   8.870
18087TIP3    H154138   3.255   2.452   8.935
18087TIP3    H254139   3.317   2.369   8.822
18088TIP3   OH254140   3.817   2.514   8.652
18088TIP3    H154141   3.761   2.583   8.610
18088TIP3    H254142   3.868   2.481   8.575
18089TIP3   OH254143   3.977   2.542   8.889
18089TIP3    H154144   3.913   2.567   8.819
18089TIP3    H254145   4.008   2.458   8.851
18090TIP3   OH254146   3.307   2.044   8.325
18090TIP3    H154147   3.303   2.040   8.423
18090TIP3    H254148   3.226   2.095   8.306
18091TIP3   OH254149   2.826   2.065   8.711
18091TIP3    H154150   2.879   2.103   8.637
18091TIP3    H254151   2.771   2.142   8.734
18092TIP3   OH254152   3.923   2.769   9.291
18092TIP3    H154153   3.991   2.711   9.249
18092TIP3    H254154   3.974   2.811   9.363
18093TIP3   OH254155   3.671   2.251   8.965
18093TIP3    H154156   3.580   2.254   9.005
18093TIP3    H254157   3.728   2.234   9.042
18094TIP3   OH254158   3.358   2.274   8.667
18094TIP3    H154159   3.448   2.310   8.661
18094TIP3    H254160   3.310   2.316   8.594
18095TIP3   OH254161   4.113   2.327   9.173
18095TIP3    H154162   4.091   2.304   9.265
18095TIP3    H254163   4.081   2.249   9.126
18096TIP3   OH254164   3.186   2.342   8.459
18096TIP3    H154165   3.117   2.291   8.413
18096TIP3    H254166   3.241   2.370   8.383
18097TIP3   OH254167   4.303   4.023   9.398
18097TIP3    H154168   4.316   4.029   9.302
18097TIP3    H254169   4.386   4.062   9.432
18098TIP3   OH254170   3.731   2.585   9.054
18098TIP3    H154171   3.801   2.530   9.015
18098TIP3    H254172   3.724   2.550   9.144
18099TIP3   OH254173   3.244   2.033   8.942
18099TIP3    H154174   3.258   1.944   8.977
18099TIP3    H254175   3.326   2.050   8.894
18100TIP3   OH254176   3.444   2.863   8.465
18100TIP3    H154177   3.373   2.795   8.456
18100TIP3    H254178   3.428   2.895   8.557
18101TIP3   OH254179   4.350   3.105   9.096
18101TIP3    H154180   4.368   3.149   9.011
18101TIP3    H254181   4.267   3.056   9.079
18102TIP3   OH254182   3.903   2.178   8.320
18102TIP3    H154183   3.807   2.158   8.336
18102TIP3    H254184   3.912   2.270   8.353
18103TIP3   OH254185   3.974   2.420   8.431
18103TIP3    H154186   4.070   2.426   8.449
18103TIP3    H254187   3.957   2.501   8.379
18104TIP3   OH254188   3.123   2.880   9.121
18104TIP3    H154189   3.168   2.857   9.037
18104TIP3    H254190   3.127   2.795   9.166
18105TIP3   OH254191   3.590   3.011   8.287
18105TIP3    H154192   3.543   3.097   8.295
18105TIP3    H254193   3.536   2.955   8.347
18106TIP3   OH254194   4.006   3.420   9.382
18106TIP3    H154195   3.911   3.443   9.380
18106TIP3    H254196   4.045   3.491   9.433
18107TIP3   OH254197   4.417   2.510   8.268
18107TIP3    H154198   4.354   2.465   8.206
18107TIP3    H254199   4.414   2.599   8.227
18108TIP3   OH254200   4.629   3.370   9.350
18108TIP3    H154201   4.531   3.362   9.337
18108TIP3    H254202   4.659   3.340   9.262
18109TIP3   OH254203   4.118   3.330   8.178
18109TIP3    H154204   4.090   3.259   8.238
18109TIP3    H254205   4.128   3.284   8.092
18110TIP3   OH254206   4.106   2.961   9.015
18110TIP3    H154207   4.012   2.933   9.020
18110TIP3    H254208   4.145   2.882   8.973
18111TIP3   OH254209   3.238   3.188   8.769
18111TIP3    H154210   3.239   3.268   8.714
18111TIP3    H254211   3.143   3.169   8.774
18112TIP3   OH254212   2.798   2.492   8.468
18112TIP3    H154213   2.848   2.574   8.490
18112TIP3    H254214   2.724   2.498   8.532
18113TIP3   OH254215   3.381   2.956   8.710
18113TIP3    H154216   3.342   3.042   8.734
18113TIP3    H254217   3.346   2.899   8.782
18114TIP3   OH254218   3.513   3.542   9.239
18114TIP3    H154219   3.547   3.613   9.180
18114TIP3    H254220   3.594   3.492   9.255
18115TIP3   OH254221   3.158   3.427   8.619
18115TIP3    H154222   3.072   3.434   8.666
18115TIP3    H254223   3.189   3.520   8.622
18116TIP3   OH254224   3.897   3.172   9.185
18116TIP3    H154225   3.902   3.173   9.282
18116TIP3    H254226   3.975   3.118   9.162
18117TIP3   OH254227   3.870   3.059   8.078
18117TIP3    H154228   3.923   3.033   8.157
18117TIP3    H254229   3.782   3.030   8.106
18118TIP3   OH254230   4.130   3.698   9.250
18118TIP3    H154231   4.049   3.652   9.219
18118TIP3    H254232   4.135   3.769   9.182
18119TIP3   OH254233   4.211   3.533   7.898
18119TIP3    H154234   4.243   3.602   7.837
18119TIP3    H254235   4.131   3.579   7.932
18120TIP3   OH254236   4.031   2.994   8.295
18120TIP3    H154237   4.019   2.927   8.366
18120TIP3    H254238   4.128   2.990   8.283
18121TIP3   OH254239   3.237   3.039   8.078
18121TIP3    H154240   3.251   2.948   8.047
18121TIP3    H254241   3.217   3.025   8.173
18122TIP3   OH254242   3.181   3.043   8.351
18122TIP3    H154243   3.254   3.013   8.407
18122TIP3    H254244   3.189   3.141   8.359
18123TIP3   OH254245   2.911   2.734   8.549
18123TIP3    H154246   2.851   2.781   8.609
18123TIP3    H254247   2.933   2.805   8.486
18124TIP3   OH254248   3.950   2.126   8.608
18124TIP3    H154249   3.934   2.152   8.516
18124TIP3    H254250   3.987   2.208   8.647
18125TIP3   OH254251   3.449   3.242   8.300
18125TIP3    H154252   3.362   3.270   8.335
18125TIP3    H254253   3.463   3.309   8.232
18126TIP3   OH254254   3.640   2.307   8.702
18126TIP3    H154255   3.703   2.380   8.688
18126TIP3    H254256   3.646   2.296   8.799
18127TIP3   OH254257   3.783   2.034   8.815
18127TIP3    H154258   3.768   2.115   8.869
18127TIP3    H254259   3.845   2.069   8.747
18128TIP3   OH254260   3.192   3.317   8.365
18128TIP3    H154261   3.161   3.387   8.302
18128TIP3    H254262   3.175   3.360   8.452
18129TIP3   OH254263   3.293   2.022   8.597
18129TIP3    H154264   3.291   2.111   8.637
18129TIP3    H254265   3.388   2.002   8.612
18130TIP3   OH254266   4.196   2.722   8.888
18130TIP3    H154267   4.122   2.659   8.897
18130TIP3    H254268   4.269   2.674   8.935
18131TIP3   OH254269   2.909   2.950   8.357
18131TIP3    H154270   2.979   3.018   8.366
18131TIP3    H254271   2.954   2.892   8.292
18132TIP3   OH254272   2.860   2.224   8.485
18132TIP3    H154273   2.855   2.321   8.483
18132TIP3    H254274   2.771   2.198   8.456
18133TIP3   OH254275   4.164   3.676   8.840
18133TIP3    H154276   4.122   3.723   8.764
18133TIP3    H254277   4.258   3.693   8.818
18134TIP3   OH254278   2.783   3.163   8.749
18134TIP3    H154279   2.706   3.195   8.796
18134TIP3    H254280   2.766   3.199   8.660
18135TIP3   OH254281   3.401   3.243   7.993
18135TIP3    H154282   3.345   3.171   8.029
18135TIP3    H254283   3.476   3.190   7.958
18136TIP3   OH254284   3.837   3.285   7.902
18136TIP3    H154285   3.881   3.219   7.959
18136TIP3    H254286   3.892   3.284   7.821
18137TIP3   OH254287   3.044   2.761   8.212
18137TIP3    H154288   3.098   2.724   8.284
18137TIP3    H254289   3.112   2.765   8.140
18138TIP3   OH254290   3.553   2.958   8.018
18138TIP3    H154291   3.556   2.970   8.115
18138TIP3    H254292   3.553   2.860   8.012
18139TIP3   OH254293   4.141   3.175   9.387
18139TIP3    H154294   4.234   3.186   9.363
18139TIP3    H254295   4.110   3.268   9.381
18140TIP3   OH254296   3.253   2.663   8.433
18140TIP3    H154297   3.229   2.624   8.519
18140TIP3    H254298   3.288   2.586   8.384
18141TIP3   OH254299   3.353   2.456   8.273
18141TIP3    H154300   3.328   2.458   8.179
18141TIP3    H254301   3.451   2.462   8.266
18142TIP3   OH254302   4.177   2.789   7.935
18142TIP3    H154303   4.155   2.741   7.853
18142TIP3    H254304   4.144   2.878   7.911
18143TIP3   OH254305   3.161   3.522   8.179
18143TIP3    H154306   3.256   3.516   8.159
18143TIP3    H254307   3.130   3.568   8.099
18144TIP3   OH254308   2.642   2.900   8.397
18144TIP3    H154309   2.736   2.923   8.380
18144TIP3    H254310   2.636   2.811   8.355
18145TIP3   OH254311   2.554   3.514   8.805
18145TIP3    H154312   2.489   3.448   8.770
18145TIP3    H254313   2.601   3.460   8.872
18146TIP3   OH254314   2.689   3.375   8.994
18146TIP3    H154315   2.680   3.299   9.052
18146TIP3    H254316   2.729   3.440   9.056
18147TIP3   OH254317   4.417   3.767   8.793
18147TIP3    H154318   4.446   3.795   8.882
18147TIP3    H254319   4.481   3.810   8.736
18148TIP3   OH254320   4.452   3.786   9.073
18148TIP3    H154321   4.405   3.700   9.068
18148TIP3    H254322   4.517   3.762   9.141
18149TIP3   OH254323   4.310   2.975   8.271
18149TIP3    H154324   4.380   3.037   8.242
18149TIP3    H254325   4.352   2.935   8.350
18150TIP3   OH254326   4.437   2.844   8.475
18150TIP3    H154327   4.371   2.799   8.532
18150TIP3    H254328   4.500   2.881   8.540
18151TIP3   OH254329   4.495   3.238   8.902
18151TIP3    H154330   4.547   3.170   8.856
18151TIP3    H254331   4.484   3.307   8.833
18152TIP3   OH254332   4.325   3.540   9.096
18152TIP3    H154333   4.253   3.570   9.154
18152TIP3    H254334   4.277   3.488   9.029
18153TIP3   OH254335   4.376   2.751   8.120
18153TIP3    H154336   4.305   2.753   8.053
18153TIP3    H254337   4.348   2.826   8.176
18154TIP3   OH254338   4.248   2.423   8.074
18154TIP3    H154339   4.203   2.460   7.997
18154TIP3    H254340   4.222   2.328   8.066
18155TIP3   OH254341   4.253   2.698   8.620
18155TIP3    H154342   4.259   2.601   8.615
18155TIP3    H254343   4.239   2.712   8.716
18156TIP3   OH254344   4.520   3.116   9.442
18156TIP3    H154345   4.589   3.051   9.420
18156TIP3    H254346   4.561   3.200   9.416
18157TIP3   OH254347   4.718   2.924   9.468
18157TIP3    H154348   4.659   2.860   9.510
18157TIP3    H254349   4.799   2.867   9.463
18158TIP3   OH254350   4.191   2.157   8.060
18158TIP3    H154351   4.266   2.127   8.115
18158TIP3    H254352   4.118   2.099   8.087
18159TIP3   OH254353   4.248   2.414   8.516
18159TIP3    H154354   4.286   2.325   8.531
18159TIP3    H254355   4.308   2.445   8.445
18160TIP3   OH254356   4.410   2.597   9.005
18160TIP3    H154357   4.497   2.620   8.967
18160TIP3    H254358   4.425   2.620   9.098
18161TIP3   OH254359   4.488   2.734   9.241
18161TIP3    H154360   4.412   2.781   9.281
18161TIP3    H254361   4.524   2.808   9.188
18162TIP3   OH254362   4.355   2.164   8.550
18162TIP3    H154363   4.405   2.149   8.634
18162TIP3    H254364   4.295   2.087   8.551
18163TIP3   OH254365   4.439   2.102   8.183
18163TIP3    H154366   4.479   2.027   8.134
18163TIP3    H254367   4.508   2.170   8.178
18164TIP3   OH254368   2.866   1.946   8.955
18164TIP3    H154369   2.777   1.911   8.960
18164TIP3    H254370   2.864   1.996   8.871
18165TIP3   OH254371   4.003   3.633   8.453
18165TIP3    H154372   4.051   3.614   8.369
18165TIP3    H254373   4.061   3.698   8.495
18166TIP3   OH254374   3.257   3.457   9.332
18166TIP3    H154375   3.235   3.550   9.319
18166TIP3    H254376   3.353   3.459   9.323
18167TIP3   OH254377   3.887   3.849   9.392
18167TIP3    H154378   3.956   3.805   9.341
18167TIP3    H254379   3.937   3.923   9.431
18168TIP3   OH254380   3.198   3.720   9.265
18168TIP3    H154381   3.112   3.730   9.308
18168TIP3    H254382   3.176   3.740   9.172
18169TIP3   OH254383   3.624   3.733   9.058
18169TIP3    H154384   3.551   3.746   8.995
18169TIP3    H254385   3.631   3.822   9.098
18170TIP3   OH254386   3.888   3.674   9.120
18170TIP3    H154387   3.794   3.688   9.094
18170TIP3    H254388   3.932   3.744   9.069
18171TIP3   OH254389   4.101   3.866   9.033
18171TIP3    H154390   4.083   3.949   8.983
18171TIP3    H254391   4.124   3.804   8.960
18172TIP3   OH254392   2.878   3.529   9.145
18172TIP3    H154393   2.868   3.490   9.233
18172TIP3    H254394   2.948   3.473   9.105
18173TIP3   OH254395   3.066   3.382   9.010
18173TIP3    H154396   3.083   3.302   9.063
18173TIP3    H254397   3.156   3.421   9.005
18174TIP3   OH254398   3.330   3.487   9.010
18174TIP3    H154399   3.361   3.395   8.997
18174TIP3    H254400   3.356   3.501   9.102
18175TIP3   OH254401   3.899   2.135   9.098
18175TIP3    H154402   3.888   2.062   9.160
18175TIP3    H254403   3.975   2.103   9.045
18176TIP3   OH254404   4.422   2.013   8.981
18176TIP3    H154405   4.462   2.071   8.913
18176TIP3    H254406   4.344   2.063   9.008
18177TIP3   OH254407   4.527   2.132   8.760
18177TIP3    H154408   4.600   2.077   8.724
18177TIP3    H254409   4.562   2.222   8.746
18178TIP3   OH254410   2.913   1.717   8.735
18178TIP3    H154411   2.965   1.779   8.681
18178TIP3    H254412   2.915   1.761   8.822
18179TIP3   OH254413   3.595   1.879   8.987
18179TIP3    H154414   3.659   1.939   8.946
18179TIP3    H254415   3.593   1.906   9.079
18180TIP3   OH254416   4.124   2.027   8.984
18180TIP3    H154417   4.152   1.997   8.897
18180TIP3    H254418   4.121   1.942   9.034
18181TIP3   OH254419   4.173   1.950   8.541
18181TIP3    H154420   4.086   1.992   8.557
18181TIP3    H254421   4.163   1.867   8.592
18182TIP3   OH254422   2.655   3.291   8.548
18182TIP3    H154423   2.572   3.257   8.510
18182TIP3    H254424   2.646   3.385   8.526
18183TIP3   OH254425   3.057   1.884   8.523
18183TIP3    H154426   3.109   1.820   8.471
18183TIP3    H254427   3.129   1.936   8.565
18184TIP3   OH254428   3.574   2.050   8.624
18184TIP3    H154429   3.629   2.007   8.691
18184TIP3    H254430   3.589   2.144   8.649
18185TIP3   OH254431   3.429   3.481   8.126
18185TIP3    H154432   3.518   3.502   8.090
18185TIP3    H254433   3.407   3.405   8.067
18186TIP3   OH254434   4.148   3.597   8.220
18186TIP3    H154435   4.141   3.499   8.208
18186TIP3    H254436   4.103   3.629   8.139
18187TIP3   OH254437   2.735   3.317   8.184
18187TIP3    H154438   2.738   3.342   8.277
18187TIP3    H254439   2.822   3.274   8.171
18188TIP3   OH254440   4.383   3.748   9.379
18188TIP3    H154441   4.296   3.710   9.357
18188TIP3    H254442   4.356   3.830   9.425
18189TIP3   OH254443   5.641   3.115   8.176
18189TIP3    H154444   5.609   3.204   8.151
18189TIP3    H254445   5.570   3.060   8.135
18190TIP3   OH254446   5.640   3.118   8.556
18190TIP3    H154447   5.669   3.076   8.639
18190TIP3    H254448   5.600   3.043   8.509
18191TIP3   OH254449   4.939   3.009   8.918
18191TIP3    H154450   4.968   2.940   8.980
18191TIP3    H254451   5.018   3.065   8.914
18192TIP3   OH254452   5.884   3.418   8.234
18192TIP3    H154453   5.866   3.342   8.290
18192TIP3    H254454   5.911   3.486   8.297
18193TIP3   OH254455   4.911   3.421   8.647
18193TIP3    H154456   4.900   3.323   8.648
18193TIP3    H254457   5.007   3.427   8.641
18194TIP3   OH254458   4.619   2.627   8.430
18194TIP3    H154459   4.565   2.708   8.443
18194TIP3    H254460   4.551   2.566   8.398
18195TIP3   OH254461   4.680   2.911   8.601
18195TIP3    H154462   4.725   2.833   8.639
18195TIP3    H254463   4.732   2.928   8.522
18196TIP3   OH254464   5.535   3.880   8.255
18196TIP3    H154465   5.580   3.810   8.203
18196TIP3    H254466   5.517   3.834   8.338
18197TIP3   OH254467   5.438   3.341   8.603
18197TIP3    H154468   5.469   3.262   8.555
18197TIP3    H254469   5.525   3.382   8.623
18198TIP3   OH254470   6.452   2.660   8.600
18198TIP3    H154471   6.481   2.744   8.641
18198TIP3    H254472   6.471   2.677   8.507
18199TIP3   OH254473   5.852   2.843   8.635
18199TIP3    H154474   5.892   2.756   8.654
18199TIP3    H254475   5.820   2.828   8.544
18200TIP3   OH254476   5.189   2.501   8.600
18200TIP3    H154477   5.166   2.573   8.537
18200TIP3    H254478   5.142   2.427   8.558
18201TIP3   OH254479   5.880   2.591   8.227
18201TIP3    H154480   5.958   2.576   8.285
18201TIP3    H254481   5.922   2.628   8.148
18202TIP3   OH254482   4.824   2.704   8.706
18202TIP3    H154483   4.906   2.681   8.754
18202TIP3    H254484   4.833   2.646   8.628
18203TIP3   OH254485   5.263   2.901   8.501
18203TIP3    H154486   5.356   2.875   8.513
18203TIP3    H254487   5.222   2.818   8.468
18204TIP3   OH254488   6.527   2.870   8.769
18204TIP3    H154489   6.442   2.915   8.748
18204TIP3    H254490   6.531   2.883   8.864
18205TIP3   OH254491   5.187   2.484   9.035
18205TIP3    H154492   5.124   2.519   8.969
18205TIP3    H254493   5.135   2.498   9.117
18206TIP3   OH254494   5.536   3.337   8.046
18206TIP3    H154495   5.494   3.304   7.966
18206TIP3    H254496   5.486   3.420   8.063
18207TIP3   OH254497   5.295   3.260   8.832
18207TIP3    H154498   5.229   3.322   8.870
18207TIP3    H254499   5.330   3.311   8.757
18208TIP3   OH254500   6.096   2.592   8.392
18208TIP3    H154501   6.084   2.541   8.474
18208TIP3    H254502   6.148   2.669   8.422
18209TIP3   OH254503   5.057   2.600   8.820
18209TIP3    H154504   5.121   2.670   8.842
18209TIP3    H254505   5.104   2.557   8.744
18210TIP3   OH254506   5.120   3.451   8.929
18210TIP3    H154507   5.091   3.536   8.890
18210TIP3    H254508   5.042   3.433   8.986
18211TIP3   OH254509   4.515   3.142   8.163
18211TIP3    H154510   4.472   3.167   8.080
18211TIP3    H254511   4.544   3.228   8.199
18212TIP3   OH254512   5.955   3.660   8.408
18212TIP3    H154513   5.865   3.648   8.446
18212TIP3    H254514   5.942   3.741   8.356
18213TIP3   OH254515   6.243   2.564   8.769
18213TIP3    H154516   6.155   2.587   8.736
18213TIP3    H254517   6.301   2.592   8.695
18214TIP3   OH254518   5.544   2.204   8.750
18214TIP3    H154519   5.528   2.109   8.765
18214TIP3    H254520   5.465   2.241   8.796
18215TIP3   OH254521   5.659   3.708   8.084
18215TIP3    H154522   5.705   3.623   8.061
18215TIP3    H254523   5.719   3.771   8.037
18216TIP3   OH254524   5.798   3.494   7.982
18216TIP3    H154525   5.765   3.415   7.938
18216TIP3    H254526   5.833   3.456   8.066
18217TIP3   OH254527   6.179   3.573   8.747
18217TIP3    H154528   6.169   3.493   8.691
18217TIP3    H254529   6.167   3.644   8.681
18218TIP3   OH254530   5.474   2.970   8.007
18218TIP3    H154531   5.394   3.013   7.971
18218TIP3    H254532   5.524   2.949   7.924
18219TIP3   OH254533   6.375   3.211   8.593
18219TIP3    H154534   6.291   3.261   8.598
18219TIP3    H254535   6.403   3.232   8.501
18220TIP3   OH254536   5.828   3.063   7.979
18220TIP3    H154537   5.768   3.077   8.055
18220TIP3    H254538   5.906   3.024   8.023
18221TIP3   OH254539   6.055   3.089   8.885
18221TIP3    H154540   6.048   3.173   8.934
18221TIP3    H254541   5.967   3.087   8.841
18222TIP3   OH254542   5.051   3.047   8.392
18222TIP3    H154543   5.007   2.990   8.326
18222TIP3    H254544   5.127   2.992   8.420
18223TIP3   OH254545   5.183   3.461   8.539
18223TIP3    H154546   5.157   3.416   8.458
18223TIP3    H254547   5.272   3.424   8.556
18224TIP3   OH254548   5.193   3.014   8.750
18224TIP3    H154549   5.220   2.993   8.658
18224TIP3    H254550   5.232   3.103   8.764
18225TIP3   OH254551   5.714   3.658   8.527
18225TIP3    H154552   5.700   3.729   8.590
18225TIP3    H254553   5.700   3.577   8.581
18226TIP3   OH254554   5.323   3.576   9.070
18226TIP3    H154555   5.262   3.637   9.117
18226TIP3    H254556   5.259   3.522   9.021
18227TIP3   OH254557   5.656   2.922   7.811
18227TIP3    H154558   5.730   2.972   7.850
18227TIP3    H254559   5.672   2.931   7.715
18228TIP3   OH254560   5.081   3.134   9.169
18228TIP3    H154561   5.082   3.218   9.219
18228TIP3    H254562   4.986   3.111   9.177
18229TIP3   OH254563   5.402   3.586   8.078
18229TIP3    H154564   5.479   3.643   8.097
18229TIP3    H254565   5.339   3.646   8.036
18230TIP3   OH254566   5.120   3.748   9.161
18230TIP3    H154567   5.083   3.741   9.071
18230TIP3    H254568   5.042   3.723   9.217
18231TIP3   OH254569   6.175   2.146   7.851
18231TIP3    H154570   6.093   2.166   7.901
18231TIP3    H254571   6.188   2.229   7.802
18232TIP3   OH254572   4.915   2.891   8.203
18232TIP3    H154573   4.850   2.932   8.142
18232TIP3    H254574   4.879   2.801   8.211
18233TIP3   OH254575   5.976   3.515   7.400
18233TIP3    H154576   5.988   3.611   7.383
18233TIP3    H254577   6.067   3.481   7.386
18234TIP3   OH254578   4.698   3.275   9.105
18234TIP3    H154579   4.631   3.252   9.038
18234TIP3    H254580   4.736   3.187   9.128
18235TIP3   OH254581   4.552   3.469   8.731
18235TIP3    H154582   4.648   3.457   8.728
18235TIP3    H254583   4.542   3.544   8.792
18236TIP3   OH254584   6.429   3.910   8.801
18236TIP3    H154585   6.423   3.813   8.808
18236TIP3    H254586   6.340   3.938   8.827
18237TIP3   OH254587   5.520   3.702   8.927
18237TIP3    H154588   5.519   3.794   8.961
18237TIP3    H254589   5.448   3.663   8.980
18238TIP3   OH254590   5.286   3.837   7.878
18238TIP3    H154591   5.232   3.811   7.801
18238TIP3    H254592   5.249   3.923   7.903
18239TIP3   OH254593   4.722   3.682   8.263
18239TIP3    H154594   4.767   3.671   8.349
18239TIP3    H254595   4.666   3.602   8.261
18240TIP3   OH254596   5.520   3.765   7.497
18240TIP3    H154597   5.552   3.674   7.476
18240TIP3    H254598   5.527   3.763   7.595
18241TIP3   OH254599   5.533   3.779   7.780
18241TIP3    H154600   5.446   3.792   7.825
18241TIP3    H254601   5.581   3.731   7.849
18242TIP3   OH254602   6.306   3.049   9.065
18242TIP3    H154603   6.225   3.058   9.013
18242TIP3    H254604   6.323   2.953   9.057
18243TIP3   OH254605   4.904   3.456   9.095
18243TIP3    H154606   4.953   3.438   9.178
18243TIP3    H254607   4.830   3.393   9.101
18244TIP3   OH254608   5.304   2.280   8.876
18244TIP3    H154609   5.215   2.248   8.849
18244TIP3    H254610   5.277   2.361   8.924
18245TIP3   OH254611   5.834   2.397   9.071
18245TIP3    H154612   5.903   2.366   9.132
18245TIP3    H254613   5.750   2.374   9.116
18246TIP3   OH254614   6.080   2.826   8.993
18246TIP3    H154615   6.028   2.820   9.076
18246TIP3    H254616   6.049   2.909   8.954
18247TIP3   OH254617   5.736   2.972   7.549
18247TIP3    H154618   5.700   2.917   7.477
18247TIP3    H254619   5.820   3.002   7.511
18248TIP3   OH254620   5.480   2.286   7.849
18248TIP3    H154621   5.434   2.322   7.926
18248TIP3    H254622   5.417   2.216   7.822
18249TIP3   OH254623   5.238   2.794   8.900
18249TIP3    H154624   5.182   2.813   8.978
18249TIP3    H254625   5.220   2.874   8.845
18250TIP3   OH254626   5.118   2.682   8.410
18250TIP3    H154627   5.026   2.654   8.427
18250TIP3    H254628   5.132   2.642   8.321
18251TIP3   OH254629   5.608   2.770   8.143
18251TIP3    H154630   5.555   2.838   8.095
18251TIP3    H254631   5.664   2.736   8.069
18252TIP3   OH254632   5.786   3.052   9.230
18252TIP3    H154633   5.761   2.975   9.286
18252TIP3    H254634   5.882   3.055   9.246
18253TIP3   OH254635   5.768   2.798   8.374
18253TIP3    H154636   5.706   2.823   8.303
18253TIP3    H254637   5.801   2.714   8.335
18254TIP3   OH254638   5.054   2.824   9.104
18254TIP3    H154639   5.069   2.882   9.179
18254TIP3    H254640   5.037   2.738   9.149
18255TIP3   OH254641   5.097   2.296   7.813
18255TIP3    H154642   5.094   2.296   7.910
18255TIP3    H254643   5.021   2.352   7.791
18256TIP3   OH254644   4.650   2.357   8.676
18256TIP3    H154645   4.725   2.380   8.734
18256TIP3    H254646   4.690   2.312   8.601
18257TIP3   OH254647   4.622   2.327   8.205
18257TIP3    H154648   4.667   2.365   8.127
18257TIP3    H254649   4.560   2.399   8.226
18258TIP3   OH254650   5.784   3.043   8.802
18258TIP3    H154651   5.813   2.970   8.741
18258TIP3    H254652   5.751   2.990   8.877
18259TIP3   OH254653   5.447   2.505   8.473
18259TIP3    H154654   5.362   2.501   8.522
18259TIP3    H254655   5.512   2.501   8.545
18260TIP3   OH254656   4.881   2.558   8.479
18260TIP3    H154657   4.786   2.566   8.453
18260TIP3    H254658   4.902   2.466   8.458
18261TIP3   OH254659   5.151   2.559   8.167
18261TIP3    H154660   5.245   2.569   8.143
18261TIP3    H254661   5.104   2.579   8.083
18262TIP3   OH254662   5.938   2.579   8.675
18262TIP3    H154663   5.900   2.590   8.765
18262TIP3    H254664   5.874   2.516   8.636
18263TIP3   OH254665   4.989   2.591   7.947
18263TIP3    H154666   4.918   2.546   7.899
18263TIP3    H254667   5.043   2.624   7.872
18264TIP3   OH254668   5.065   3.381   9.315
18264TIP3    H154669   5.143   3.411   9.365
18264TIP3    H254670   5.000   3.374   9.388
18265TIP3   OH254671   5.530   2.834   8.572
18265TIP3    H154672   5.596   2.789   8.517
18265TIP3    H254673   5.537   2.786   8.657
18266TIP3   OH254674   5.055   2.318   8.447
18266TIP3    H154675   5.019   2.239   8.493
18266TIP3    H254676   5.102   2.279   8.372
18267TIP3   OH254677   5.506   2.727   8.855
18267TIP3    H154678   5.415   2.760   8.871
18267TIP3    H254679   5.561   2.787   8.909
18268TIP3   OH254680   5.236   3.126   7.950
18268TIP3    H154681   5.170   3.054   7.941
18268TIP3    H254682   5.223   3.153   8.044
18269TIP3   OH254683   6.141   3.356   8.584
18269TIP3    H154684   6.165   3.402   8.501
18269TIP3    H254685   6.058   3.310   8.560
18270TIP3   OH254686   5.661   3.451   8.950
18270TIP3    H154687   5.654   3.403   9.033
18270TIP3    H254688   5.598   3.524   8.961
18271TIP3   OH254689   5.764   2.668   7.939
18271TIP3    H154690   5.858   2.682   7.918
18271TIP3    H254691   5.719   2.701   7.859
18272TIP3   OH254692   4.940   3.146   8.631
18272TIP3    H154693   4.974   3.112   8.545
18272TIP3    H254694   4.965   3.076   8.692
18273TIP3   OH254695   5.385   3.271   7.771
18273TIP3    H154696   5.338   3.356   7.784
18273TIP3    H254697   5.334   3.212   7.830
18274TIP3   OH254698   4.818   3.060   9.232
18274TIP3    H154699   4.825   3.044   9.328
18274TIP3    H254700   4.747   2.997   9.208
18275TIP3   OH254701   5.538   3.175   9.264
18275TIP3    H154702   5.475   3.116   9.219
18275TIP3    H254703   5.624   3.138   9.233
18276TIP3   OH254704   5.804   3.735   8.834
18276TIP3    H154705   5.716   3.695   8.847
18276TIP3    H254706   5.826   3.758   8.927
18277TIP3   OH254707   6.215   2.766   7.752
18277TIP3    H154708   6.154   2.720   7.690
18277TIP3    H254709   6.209   2.855   7.713
18278TIP3   OH254710   6.430   3.626   8.834
18278TIP3    H154711   6.332   3.617   8.825
18278TIP3    H254712   6.457   3.594   8.745
18279TIP3   OH254713   5.909   3.588   7.663
18279TIP3    H154714   5.884   3.516   7.723
18279TIP3    H254715   5.924   3.540   7.579
18280TIP3   OH254716   5.908   3.216   8.505
18280TIP3    H154717   5.815   3.189   8.516
18280TIP3    H254718   5.943   3.137   8.459
18281TIP3   OH254719   5.033   3.446   8.257
18281TIP3    H154720   5.032   3.525   8.200
18281TIP3    H254721   4.940   3.423   8.262
18282TIP3   OH254722   4.597   2.749   7.956
18282TIP3    H154723   4.644   2.832   7.978
18282TIP3    H254724   4.521   2.753   8.018
18283TIP3   OH254725   5.178   3.212   8.202
18283TIP3    H154726   5.139   3.300   8.220
18283TIP3    H254727   5.139   3.159   8.274
18284TIP3   OH254728   5.303   3.789   8.725
18284TIP3    H154729   5.344   3.859   8.672
18284TIP3    H254730   5.379   3.752   8.772
18285TIP3   OH254731   4.954   3.683   8.106
18285TIP3    H154732   4.868   3.689   8.153
18285TIP3    H254733   4.984   3.776   8.109
18286TIP3   OH254734   5.700   3.426   8.681
18286TIP3    H154735   5.690   3.420   8.778
18286TIP3    H254736   5.767   3.359   8.664
18287TIP3   OH254737   5.664   3.323   7.564
18287TIP3    H154738   5.719   3.296   7.641
18287TIP3    H254739   5.580   3.281   7.588
18288TIP3   OH254740   5.933   3.965   8.731
18288TIP3    H154741   5.880   3.888   8.764
18288TIP3    H254742   5.874   3.991   8.657
18289TIP3   OH254743   6.011   3.794   7.385
18289TIP3    H154744   6.068   3.847   7.327
18289TIP3    H254745   5.934   3.851   7.387
18290TIP3   OH254746   5.027   2.568   9.250
18290TIP3    H154747   4.932   2.584   9.268
18290TIP3    H254748   5.049   2.503   9.319
18291TIP3   OH254749   5.827   3.260   7.782
18291TIP3    H154750   5.812   3.190   7.849
18291TIP3    H254751   5.924   3.248   7.769
18292TIP3   OH254752   4.745   3.652   8.883
18292TIP3    H154753   4.793   3.572   8.909
18292TIP3    H254754   4.768   3.711   8.956
18293TIP3   OH254755   5.034   3.298   7.564
18293TIP3    H154756   5.048   3.206   7.533
18293TIP3    H254757   5.015   3.283   7.659
18294TIP3   OH254758   4.979   3.300   7.836
18294TIP3    H154759   5.051   3.267   7.891
18294TIP3    H254760   4.987   3.398   7.847
18295TIP3   OH254761   4.716   2.994   8.039
18295TIP3    H154762   4.649   3.037   8.096
18295TIP3    H254763   4.729   3.063   7.972
18296TIP3   OH254764   5.861   2.635   8.935
18296TIP3    H154765   5.945   2.665   8.973
18296TIP3    H254766   5.844   2.551   8.985
18297TIP3   OH254767   5.740   2.391   8.084
18297TIP3    H154768   5.701   2.429   8.004
18297TIP3    H254769   5.781   2.471   8.124
18298TIP3   OH254770   5.246   3.503   7.791
18298TIP3    H154771   5.157   3.527   7.825
18298TIP3    H254772   5.253   3.562   7.715
18299TIP3   OH254773   5.437   2.559   8.198
18299TIP3    H154774   5.499   2.632   8.178
18299TIP3    H254775   5.440   2.557   8.296
18300TIP3   OH254776   5.703   2.882   9.005
18300TIP3    H154777   5.720   2.930   9.088
18300TIP3    H254778   5.755   2.800   9.017
18301TIP3   OH254779   5.584   2.293   8.301
18301TIP3    H154780   5.568   2.373   8.355
18301TIP3    H254781   5.640   2.330   8.229
18302TIP3   OH254782   4.990   3.575   7.853
18302TIP3    H154783   4.956   3.643   7.790
18302TIP3    H254784   4.970   3.616   7.939
18303TIP3   OH254785   5.086   2.286   8.092
18303TIP3    H154786   5.084   2.377   8.127
18303TIP3    H254787   5.182   2.268   8.100
18304TIP3   OH254788   6.346   2.781   8.983
18304TIP3    H154789   6.248   2.782   8.996
18304TIP3    H254790   6.349   2.732   8.900
18305TIP3   OH254791   5.993   2.977   8.377
18305TIP3    H154792   5.917   2.916   8.383
18305TIP3    H254793   6.063   2.926   8.423
18306TIP3   OH254794   4.706   3.205   7.845
18306TIP3    H154795   4.774   3.274   7.853
18306TIP3    H254796   4.751   3.148   7.779
18307TIP3   OH254797   4.651   2.479   7.979
18307TIP3    H154798   4.649   2.577   7.973
18307TIP3    H254799   4.567   2.455   7.939
18308TIP3   OH254800   5.959   3.939   8.334
18308TIP3    H154801   5.915   3.983   8.257
18308TIP3    H254802   6.053   3.953   8.309
18309TIP3   OH254803   5.041   2.202   8.849
18309TIP3    H154804   5.007   2.168   8.764
18309TIP3    H254805   5.029   2.124   8.908
18310TIP3   OH254806   4.582   3.426   8.234
18310TIP3    H154807   4.506   3.449   8.290
18310TIP3    H254808   4.552   3.461   8.147
18311TIP3   OH254809   4.729   3.957   9.305
18311TIP3    H154810   4.815   3.946   9.349
18311TIP3    H254811   4.700   3.864   9.299
18312TIP3   OH254812   5.236   3.934   9.333
18312TIP3    H154813   5.319   3.887   9.348
18312TIP3    H254814   5.194   3.875   9.268
18313TIP3   OH254815   5.202   3.499   7.482
18313TIP3    H154816   5.142   3.429   7.518
18313TIP3    H254817   5.273   3.443   7.445
18314TIP3   OH254818   5.856   3.831   9.084
18314TIP3    H154819   5.842   3.760   9.150
18314TIP3    H254820   5.936   3.875   9.118
18315TIP3   OH254821   5.639   3.547   7.390
18315TIP3    H154822   5.673   3.476   7.448
18315TIP3    H254823   5.691   3.533   7.308
18316TIP3   OH254824   4.862   3.358   9.501
18316TIP3    H154825   4.888   3.264   9.504
18316TIP3    H254826   4.774   3.355   9.460
18317TIP3   OH254827   4.841   3.018   7.698
18317TIP3    H154828   4.895   2.980   7.770
18317TIP3    H254829   4.909   3.021   7.627
18318TIP3   OH254830   5.478   3.450   9.274
18318TIP3    H154831   5.426   3.461   9.192
18318TIP3    H254832   5.504   3.355   9.270
18319TIP3   OH254833   5.351   3.206   7.503
18319TIP3    H154834   5.354   3.221   7.600
18319TIP3    H254835   5.353   3.108   7.501
18320TIP3   OH254836   5.969   3.455   8.890
18320TIP3    H154837   6.036   3.504   8.839
18320TIP3    H254838   5.887   3.503   8.871
18321TIP3   OH254839   4.975   3.107   9.495
18321TIP3    H154840   5.025   3.030   9.465
18321TIP3    H254841   4.989   3.094   9.591
18322TIP3   OH254842   5.052   2.918   7.919
18322TIP3    H154843   5.025   2.873   8.001
18322TIP3    H254844   5.092   2.845   7.868
18323TIP3   OH254845   5.323   2.991   9.155
18323TIP3    H154846   5.240   3.043   9.155
18323TIP3    H254847   5.365   3.021   9.072
18324TIP3   OH254848   5.155   2.707   7.761
18324TIP3    H154849   5.125   2.712   7.668
18324TIP3    H254850   5.251   2.692   7.746
18325TIP3   OH254851   5.843   3.390   9.286
18325TIP3    H154852   5.913   3.357   9.229
18325TIP3    H254853   5.831   3.316   9.348
18326TIP3   OH254854   5.975   3.046   7.420
18326TIP3    H154855   5.951   2.996   7.339
18326TIP3    H254856   5.939   3.135   7.395
18327TIP3   OH254857   5.446   2.772   9.272
18327TIP3    H154858   5.441   2.690   9.218
18327TIP3    H254859   5.400   2.837   9.215
18328TIP3   OH254860   5.444   2.560   9.081
18328TIP3    H154861   5.470   2.597   8.995
18328TIP3    H254862   5.350   2.535   9.065
18329TIP3   OH254863   5.478   3.103   8.958
18329TIP3    H154864   5.552   3.096   8.897
18329TIP3    H254865   5.417   3.163   8.911
18330TIP3   OH254866   6.054   3.062   9.334
18330TIP3    H154867   6.097   2.977   9.355
18330TIP3    H254868   6.127   3.112   9.295
18331TIP3   OH254869   6.097   3.316   9.079
18331TIP3    H154870   6.039   3.367   9.017
18331TIP3    H254871   6.184   3.331   9.036
18332TIP3   OH254872   5.316   2.881   9.492
18332TIP3    H154873   5.250   2.810   9.507
18332TIP3    H254874   5.350   2.856   9.403
18333TIP3   OH254875   5.574   2.323   9.147
18333TIP3    H154876   5.525   2.405   9.124
18333TIP3    H254877   5.505   2.255   9.135
18334TIP3   OH254878   5.704   2.829   9.361
18334TIP3    H154879   5.701   2.813   9.457
18334TIP3    H254880   5.612   2.803   9.336
18335TIP3   OH254881   5.942   2.781   9.220
18335TIP3    H154882   5.866   2.777   9.281
18335TIP3    H254883   6.016   2.746   9.275
18336TIP3   OH254884   6.175   2.719   9.361
18336TIP3    H154885   6.184   2.622   9.377
18336TIP3    H254886   6.168   2.756   9.452
18337TIP3   OH254887   5.165   2.659   9.537
18337TIP3    H154888   5.169   2.566   9.506
18337TIP3    H254889   5.150   2.643   9.632
18338TIP3   OH254890   5.680   2.328   9.397
18338TIP3    H154891   5.747   2.260   9.376
18338TIP3    H254892   5.627   2.326   9.315
18339TIP3   OH254893   5.717   2.539   9.568
18339TIP3    H154894   5.702   2.476   9.494
18339TIP3    H254895   5.645   2.604   9.555
18340TIP3   OH254896   4.959   3.781   7.668
18340TIP3    H154897   5.053   3.777   7.641
18340TIP3    H254898   4.920   3.820   7.589
18341TIP3   OH254899   4.437   3.157   7.882
18341TIP3    H154900   4.532   3.178   7.867
18341TIP3    H254901   4.431   3.068   7.841
18342TIP3   OH254902   4.350   3.771   8.295
18342TIP3    H154903   4.284   3.709   8.259
18342TIP3    H254904   4.395   3.713   8.361
18343TIP3   OH254905   4.486   3.624   8.483
18343TIP3    H154906   4.476   3.547   8.541
18343TIP3    H254907   4.536   3.684   8.542
18344TIP3   OH254908   6.214   4.032   8.285
18344TIP3    H154909   6.282   4.066   8.344
18344TIP3    H254910   6.256   4.046   8.199
18345TIP3   OH254911   6.285   3.725   9.131
18345TIP3    H154912   6.217   3.727   9.201
18345TIP3    H254913   6.335   3.807   9.146
18346TIP3   OH254914   6.107   3.233   7.757
18346TIP3    H154915   6.178   3.293   7.729
18346TIP3    H254916   6.147   3.191   7.836
18347TIP3   OH254917   6.234   3.100   7.961
18347TIP3    H154918   6.167   3.054   8.016
18347TIP3    H254919   6.295   3.137   8.027
18348TIP3   OH254920   6.289   3.491   8.393
18348TIP3    H154921   6.341   3.424   8.346
18348TIP3    H254922   6.277   3.560   8.325
18349TIP3   OH254923   6.117   3.791   8.590
18349TIP3    H154924   6.036   3.816   8.637
18349TIP3    H254925   6.079   3.741   8.514
18350TIP3   OH254926   6.172   3.008   7.607
18350TIP3    H154927   6.101   3.009   7.539
18350TIP3    H254928   6.142   3.083   7.662
18351TIP3   OH254929   6.051   2.674   7.556
18351TIP3    H154930   5.989   2.717   7.497
18351TIP3    H254931   6.023   2.580   7.546
18352TIP3   OH254932   6.053   2.952   8.107
18352TIP3    H154933   6.054   2.855   8.096
18352TIP3    H254934   6.037   2.962   8.203
18353TIP3   OH254935   4.674   3.034   8.850
18353TIP3    H154936   4.673   3.000   8.758
18353TIP3    H254937   4.771   3.031   8.869
18354TIP3   OH254938   6.338   3.380   8.965
18354TIP3    H154939   6.409   3.312   8.956
18354TIP3    H254940   6.366   3.446   8.899
18355TIP3   OH254941   6.524   3.187   8.984
18355TIP3    H154942   6.448   3.135   9.019
18355TIP3    H254943   6.596   3.122   8.997
18356TIP3   OH254944   5.992   2.406   7.541
18356TIP3    H154945   6.057   2.378   7.608
18356TIP3    H254946   5.908   2.365   7.573
18357TIP3   OH254947   6.056   2.675   8.008
18357TIP3    H154948   6.092   2.585   8.023
18357TIP3    H254949   6.108   2.702   7.931
18358TIP3   OH254950   6.207   2.846   8.497
18358TIP3    H154951   6.293   2.872   8.457
18358TIP3    H254952   6.220   2.881   8.587
18359TIP3   OH254953   6.276   2.989   8.730
18359TIP3    H154954   6.197   3.022   8.777
18359TIP3    H254955   6.307   3.070   8.684
18360TIP3   OH254956   4.905   2.734   9.497
18360TIP3    H154957   5.000   2.714   9.490
18360TIP3    H254958   4.877   2.656   9.550
18361TIP3   OH254959   6.723   2.580   9.282
18361TIP3    H154960   6.784   2.516   9.241
18361TIP3    H254961   6.699   2.637   9.206
18362TIP3   OH254962   6.156   2.419   8.038
18362TIP3    H154963   6.201   2.402   8.124
18362TIP3    H254964   6.092   2.345   8.036
18363TIP3   OH254965   4.854   2.407   8.853
18363TIP3    H154966   4.915   2.332   8.867
18363TIP3    H254967   4.917   2.482   8.853
18364TIP3   OH254968   4.657   2.682   8.930
18364TIP3    H154969   4.705   2.676   8.845
18364TIP3    H254970   4.692   2.764   8.966
18365TIP3   OH254971   6.599   2.723   9.087
18365TIP3    H154972   6.511   2.761   9.109
18365TIP3    H254973   6.570   2.648   9.030
18366TIP3   OH254974   6.240   2.355   7.678
18366TIP3    H154975   6.274   2.284   7.620
18366TIP3    H254976   6.303   2.427   7.663
18367TIP3   OH254977   4.640   2.187   8.435
18367TIP3    H154978   4.546   2.181   8.460
18367TIP3    H254979   4.636   2.244   8.355
18368TIP3   OH254980   5.797   3.891   7.939
18368TIP3    H154981   5.848   3.870   7.858
18368TIP3    H254982   5.855   3.957   7.981
18369TIP3   OH254983   4.866   2.249   9.229
18369TIP3    H154984   4.819   2.226   9.311
18369TIP3    H254985   4.799   2.304   9.183
18370TIP3   OH254986   4.902   3.701   9.327
18370TIP3    H154987   4.812   3.669   9.306
18370TIP3    H254988   4.907   3.675   9.422
18371TIP3   OH254989   5.078   3.724   8.876
18371TIP3    H154990   5.025   3.796   8.836
18371TIP3    H254991   5.162   3.739   8.829
18372TIP3   OH254992   5.524   3.966   9.014
18372TIP3    H154993   5.566   3.970   9.102
18372TIP3    H254994   5.587   4.020   8.960
18373TIP3   OH254995   5.697   4.120   8.870
18373TIP3    H154996   5.762   4.064   8.826
18373TIP3    H254997   5.752   4.174   8.930
18374TIP3   OH254998   6.496   2.483   8.968
18374TIP3    H154999   6.405   2.476   8.936
18374TIP3    H255000   6.527   2.390   8.957
18375TIP3   OH255001   4.757   3.989   8.892
18375TIP3    H155002   4.668   4.022   8.868
18375TIP3    H255003   4.754   3.999   8.987
18376TIP3   OH255004   4.993   3.964   8.753
18376TIP3    H155005   4.907   3.976   8.799
18376TIP3    H255006   4.971   3.992   8.663
18377TIP3   OH255007   5.417   3.987   8.552
18377TIP3    H155008   5.347   4.004   8.486
18377TIP3    H255009   5.427   4.077   8.591
18378TIP3   OH255010   5.690   3.954   8.597
18378TIP3    H155011   5.593   3.940   8.592
18378TIP3    H255012   5.700   4.018   8.526
18379TIP3   OH255013   5.961   4.140   8.516
18379TIP3    H155014   5.918   4.220   8.473
18379TIP3    H255015   5.945   4.074   8.444
18380TIP3   OH255016   4.667   3.778   8.643
18380TIP3    H155017   4.694   3.749   8.733
18380TIP3    H255018   4.736   3.731   8.590
18381TIP3   OH255019   4.858   3.647   8.498
18381TIP3    H155020   4.873   3.562   8.546
18381TIP3    H255021   4.949   3.681   8.491
18382TIP3   OH255022   5.128   3.743   8.497
18382TIP3    H155023   5.156   3.650   8.483
18382TIP3    H255024   5.168   3.760   8.584
18383TIP3   OH255025   5.704   2.400   8.594
18383TIP3    H155026   5.657   2.330   8.643
18383TIP3    H255027   5.768   2.349   8.541
18384TIP3   OH255028   6.227   2.282   8.496
18384TIP3    H155029   6.261   2.332   8.419
18384TIP3    H255030   6.130   2.294   8.486
18385TIP3   OH255031   6.321   2.379   8.258
18385TIP3    H155032   6.394   2.328   8.215
18385TIP3    H255033   6.352   2.471   8.242
18386TIP3   OH255034   4.949   2.107   8.603
18386TIP3    H155035   4.858   2.073   8.606
18386TIP3    H255036   4.999   2.022   8.601
18387TIP3   OH255037   4.733   1.976   8.249
18387TIP3    H155038   4.765   2.035   8.179
18387TIP3    H255039   4.706   2.040   8.318
18388TIP3   OH255040   5.393   2.138   8.484
18388TIP3    H155041   5.452   2.189   8.426
18388TIP3    H255042   5.411   2.177   8.570
18389TIP3   OH255043   5.947   2.285   8.467
18389TIP3    H155044   5.935   2.251   8.378
18389TIP3    H255045   5.930   2.205   8.522
18390TIP3   OH255046   5.970   2.210   8.031
18390TIP3    H155047   5.883   2.254   8.036
18390TIP3    H255048   5.951   2.125   8.077
18391TIP3   OH255049   4.454   3.547   8.031
18391TIP3    H155050   4.369   3.512   7.997
18391TIP3    H255051   4.442   3.641   8.009
18392TIP3   OH255052   4.853   2.137   8.014
18392TIP3    H155053   4.901   2.074   7.958
18392TIP3    H255054   4.926   2.190   8.051
18393TIP3   OH255055   5.360   2.310   8.120
18393TIP3    H155056   5.424   2.261   8.173
18393TIP3    H255057   5.386   2.402   8.141
18394TIP3   OH255058   5.228   3.740   7.605
18394TIP3    H155059   5.315   3.764   7.570
18394TIP3    H255060   5.207   3.660   7.552
18395TIP3   OH255061   5.942   3.852   7.708
18395TIP3    H155062   5.937   3.753   7.699
18395TIP3    H255063   5.899   3.879   7.627
18396TIP3   OH255064   5.181   2.390   9.487
18396TIP3    H155065   5.119   2.359   9.556
18396TIP3    H255066   5.266   2.357   9.520
18397TIP3   OH255067   4.532   3.575   7.670
18397TIP3    H155068   4.526   3.599   7.764
18397TIP3    H255069   4.619   3.532   7.664
18398TIP3   OH255070   6.224   2.452   9.379
18398TIP3    H155071   6.232   2.422   9.473
18398TIP3    H255072   6.317   2.443   9.348
18399TIP3   OH255073   6.162   4.045   8.847
18399TIP3    H155074   6.100   3.970   8.847
18399TIP3    H255075   6.150   4.077   8.937
18400TIP3   OH255076   7.437   3.371   7.661
18400TIP3    H155077   7.408   3.462   7.640
18400TIP3    H255078   7.361   3.321   7.627
18401TIP3   OH255079   7.435   3.371   8.041
18401TIP3    H155080   7.466   3.340   8.127
18401TIP3    H255081   7.394   3.291   8.004
18402TIP3   OH255082   6.735   3.267   8.407
18402TIP3    H155083   6.766   3.198   8.469
18402TIP3    H255084   6.816   3.319   8.395
18403TIP3   OH255085   7.679   3.672   7.722
18403TIP3    H155086   7.665   3.601   7.786
18403TIP3    H255087   7.708   3.746   7.778
18404TIP3   OH255088   6.706   3.677   8.135
18404TIP3    H155089   6.698   3.579   8.136
18404TIP3    H255090   6.802   3.685   8.126
18405TIP3   OH255091   6.414   2.883   7.918
18405TIP3    H155092   6.360   2.963   7.930
18405TIP3    H255093   6.346   2.822   7.883
18406TIP3   OH255094   6.476   3.169   8.090
18406TIP3    H155095   6.522   3.089   8.126
18406TIP3    H255096   6.526   3.186   8.010
18407TIP3   OH255097   7.330   4.136   7.740
18407TIP3    H155098   7.375   4.065   7.689
18407TIP3    H255099   7.322   4.096   7.827
18408TIP3   OH255100   7.234   3.597   8.090
18408TIP3    H155101   7.270   3.520   8.043
18408TIP3    H255102   7.319   3.640   8.113
18409TIP3   OH255103   8.241   2.920   8.083
18409TIP3    H155104   8.272   3.002   8.126
18409TIP3    H255105   8.268   2.935   7.991
18410TIP3   OH255106   7.647   3.098   8.123
18410TIP3    H155107   7.690   3.013   8.142
18410TIP3    H255108   7.616   3.083   8.032
18411TIP3   OH255109   6.985   2.757   8.087
18411TIP3    H155110   6.963   2.829   8.025
18411TIP3    H255111   6.938   2.683   8.044
18412TIP3   OH255112   7.678   2.848   7.710
18412TIP3    H155113   7.750   2.832   7.775
18412TIP3    H255114   7.730   2.883   7.635
18413TIP3   OH255115   6.618   2.959   8.194
18413TIP3    H155116   6.701   2.937   8.241
18413TIP3    H255117   6.628   2.902   8.115
18414TIP3   OH255118   7.059   3.157   7.988
18414TIP3    H155119   7.152   3.131   8.000
18414TIP3    H255120   7.019   3.073   7.955
18415TIP3   OH255121   8.322   3.124   8.258
18415TIP3    H155122   8.238   3.171   8.239
18415TIP3    H255123   8.341   3.155   8.348
18416TIP3   OH255124   6.982   2.741   8.522
18416TIP3    H155125   6.921   2.776   8.454
18416TIP3    H255126   6.930   2.758   8.603
18417TIP3   OH255127   7.330   3.592   7.530
18417TIP3    H155128   7.286   3.569   7.447
18417TIP3    H255129   7.284   3.676   7.553
18418TIP3   OH255130   7.089   3.516   8.318
18418TIP3    H155131   7.025   3.581   8.356
18418TIP3    H255132   7.129   3.567   8.245
18419TIP3   OH255133   7.889   2.850   7.880
18419TIP3    H155134   7.883   2.798   7.961
18419TIP3    H255135   7.944   2.925   7.908
18420TIP3   OH255136   6.852   2.855   8.306
18420TIP3    H155137   6.916   2.927   8.329
18420TIP3    H255138   6.900   2.814   8.231
18421TIP3   OH255139   6.915   3.709   8.416
18421TIP3    H155140   6.888   3.793   8.375
18421TIP3    H255141   6.836   3.693   8.472
18422TIP3   OH255142   6.312   3.398   7.650
18422TIP3    H155143   6.270   3.421   7.566
18422TIP3    H255144   6.341   3.484   7.685
18423TIP3   OH255145   7.751   3.915   7.892
18423TIP3    H155146   7.660   3.906   7.931
18423TIP3    H255147   7.742   4.000   7.846
18424TIP3   OH255148   8.040   2.817   8.253
18424TIP3    H155149   7.951   2.844   8.223
18424TIP3    H255150   8.097   2.850   8.181
18425TIP3   OH255151   7.340   2.460   8.236
18425TIP3    H155152   7.325   2.365   8.251
18425TIP3    H255153   7.261   2.498   8.282
18426TIP3   OH255154   7.452   3.963   7.566
18426TIP3    H155155   7.501   3.880   7.545
18426TIP3    H255156   7.513   4.028   7.523
18427TIP3   OH255157   7.594   3.748   7.470
18427TIP3    H155158   7.557   3.669   7.429
18427TIP3    H255159   7.630   3.712   7.555
18428TIP3   OH255160   7.976   3.829   8.234
18428TIP3    H155161   7.965   3.751   8.175
18428TIP3    H255162   7.959   3.903   8.171
18429TIP3   OH255163   7.268   3.223   7.491
18429TIP3    H155164   7.187   3.273   7.469
18429TIP3    H255165   7.313   3.219   7.405
18430TIP3   OH255166   7.227   3.006   7.208
18430TIP3    H155167   7.295   3.056   7.256
18430TIP3    H255168   7.284   2.941   7.161
18431TIP3   OH255169   8.171   3.465   8.079
18431TIP3    H155170   8.088   3.517   8.085
18431TIP3    H255171   8.200   3.489   7.988
18432TIP3   OH255172   7.615   3.305   7.463
18432TIP3    H155173   7.560   3.329   7.542
18432TIP3    H255174   7.698   3.278   7.507
18433TIP3   OH255175   7.850   3.344   8.374
18433TIP3    H155176   7.847   3.427   8.424
18433TIP3    H255177   7.764   3.348   8.328
18434TIP3   OH255178   6.847   3.304   7.879
18434TIP3    H155179   6.804   3.246   7.813
18434TIP3    H255180   6.923   3.249   7.908
18435TIP3   OH255181   6.976   3.714   8.029
18435TIP3    H155182   6.954   3.672   7.944
18435TIP3    H255183   7.066   3.680   8.046
18436TIP3   OH255184   6.985   3.273   8.236
18436TIP3    H155185   7.016   3.251   8.145
18436TIP3    H255186   7.028   3.359   8.253
18437TIP3   OH255187   7.508   3.912   8.011
18437TIP3    H155188   7.496   3.990   8.067
18437TIP3    H255189   7.495   3.837   8.073
18438TIP3   OH255190   7.121   3.832   8.557
18438TIP3    H155191   7.061   3.893   8.604
18438TIP3    H255192   7.056   3.777   8.509
18439TIP3   OH255193   7.457   3.162   7.289
18439TIP3    H155194   7.515   3.221   7.341
18439TIP3    H255195   7.482   3.186   7.196
18440TIP3   OH255196   6.876   3.388   8.658
18440TIP3    H155197   6.879   3.474   8.705
18440TIP3    H255198   6.781   3.367   8.666
18441TIP3   OH255199   7.198   3.843   7.567
18441TIP3    H155200   7.276   3.898   7.582
18441TIP3    H255201   7.137   3.904   7.523
18442TIP3   OH255202   6.916   4.001   8.644
18442TIP3    H155203   6.881   3.997   8.553
18442TIP3    H255204   6.836   3.979   8.698
18443TIP3   OH255205   7.971   2.404   7.337
18443TIP3    H155206   7.890   2.424   7.388
18443TIP3    H255207   7.984   2.488   7.287
18444TIP3   OH255208   6.712   3.146   7.687
18444TIP3    H155209   6.647   3.190   7.628
18444TIP3    H255210   6.672   3.058   7.697
18445TIP3   OH255211   7.770   3.771   6.885
18445TIP3    H155212   7.779   3.868   6.871
18445TIP3    H255213   7.862   3.741   6.873
18446TIP3   OH255214   6.495   3.529   8.591
18446TIP3    H155215   6.430   3.505   8.521
18446TIP3    H255216   6.532   3.442   8.616
18447TIP3   OH255217   6.349   3.725   8.220
18447TIP3    H155218   6.443   3.706   8.209
18447TIP3    H255219   6.351   3.797   8.285
18448TIP3   OH255220   8.213   4.172   8.279
18448TIP3    H155221   8.212   4.076   8.293
18448TIP3    H255222   8.130   4.197   8.325
18449TIP3   OH255223   7.319   3.960   8.414
18449TIP3    H155224   7.318   4.053   8.447
18449TIP3    H255225   7.248   3.920   8.469
18450TIP3   OH255226   7.080   4.089   7.365
18450TIP3    H155227   7.033   4.066   7.283
18450TIP3    H255228   7.044   4.177   7.388
18451TIP3   OH255229   6.516   3.939   7.750
18451TIP3    H155230   6.565   3.927   7.835
18451TIP3    H255231   6.464   3.856   7.748
18452TIP3   OH255232   7.283   3.991   7.006
18452TIP3    H155233   7.341   3.920   6.970
18452TIP3    H255234   7.316   3.998   7.098
18453TIP3   OH255235   7.332   4.038   7.277
18453TIP3    H155236   7.243   4.047   7.318
18453TIP3    H255237   7.380   3.992   7.348
18454TIP3   OH255238   8.107   3.303   8.545
18454TIP3    H155239   8.021   3.317   8.502
18454TIP3    H255240   8.118   3.207   8.536
18455TIP3   OH255241   6.699   3.714   8.583
18455TIP3    H155242   6.750   3.694   8.664
18455TIP3    H255243   6.626   3.648   8.588
18456TIP3   OH255244   7.100   2.536   8.362
18456TIP3    H155245   7.010   2.504   8.337
18456TIP3    H255246   7.074   2.618   8.409
18457TIP3   OH255247   7.630   2.652   8.558
18457TIP3    H155248   7.696   2.623   8.623
18457TIP3    H255249   7.545   2.631   8.602
18458TIP3   OH255250   7.875   3.081   8.478
18458TIP3    H155251   7.823   3.077   8.562
18458TIP3    H255252   7.848   3.167   8.441
18459TIP3   OH255253   7.532   3.211   7.033
18459TIP3    H155254   7.498   3.184   6.945
18459TIP3    H255255   7.613   3.258   7.008
18460TIP3   OH255256   7.246   2.585   7.335
18460TIP3    H155257   7.212   2.582   7.427
18460TIP3    H255258   7.206   2.502   7.301
18461TIP3   OH255259   7.032   3.050   8.384
18461TIP3    H155260   6.980   3.071   8.464
18461TIP3    H255261   7.016   3.131   8.330
18462TIP3   OH255262   6.914   2.938   7.897
18462TIP3    H155263   6.821   2.911   7.914
18462TIP3    H255264   6.927   2.897   7.808
18463TIP3   OH255265   7.406   3.024   7.624
18463TIP3    H155266   7.352   3.095   7.582
18463TIP3    H255267   7.460   2.993   7.549
18464TIP3   OH255268   7.580   3.303   8.711
18464TIP3    H155269   7.559   3.230   8.774
18464TIP3    H255270   7.675   3.317   8.732
18465TIP3   OH255271   7.563   3.053   7.863
18465TIP3    H155272   7.503   3.082   7.792
18465TIP3    H255273   7.596   2.970   7.821
18466TIP3   OH255274   6.849   3.080   8.591
18466TIP3    H155275   6.877   3.141   8.661
18466TIP3    H255276   6.837   2.997   8.641
18467TIP3   OH255277   6.901   2.558   7.301
18467TIP3    H155278   6.891   2.554   7.398
18467TIP3    H255279   6.821   2.609   7.277
18468TIP3   OH255280   6.442   2.605   8.173
18468TIP3    H155281   6.521   2.632   8.223
18468TIP3    H255282   6.477   2.568   8.090
18469TIP3   OH255283   6.421   2.585   7.692
18469TIP3    H155284   6.463   2.624   7.613
18469TIP3    H255285   6.357   2.656   7.713
18470TIP3   OH255286   7.574   3.299   8.287
18470TIP3    H155287   7.606   3.226   8.228
18470TIP3    H255288   7.544   3.246   8.364
18471TIP3   OH255289   7.241   2.761   7.958
18471TIP3    H155290   7.158   2.758   8.009
18471TIP3    H255291   7.308   2.759   8.029
18472TIP3   OH255292   6.676   2.815   7.967
18472TIP3    H155293   6.581   2.823   7.940
18472TIP3    H255294   6.697   2.723   7.943
18473TIP3   OH255295   6.947   2.813   7.655
18473TIP3    H155296   7.040   2.827   7.631
18473TIP3    H255297   6.899   2.834   7.571
18474TIP3   OH255298   7.734   2.835   8.161
18474TIP3    H155299   7.697   2.847   8.251
18474TIP3    H255300   7.669   2.773   8.123
18475TIP3   OH255301   6.787   2.845   7.435
18475TIP3    H155302   6.713   2.801   7.390
18475TIP3    H255303   6.837   2.879   7.359
18476TIP3   OH255304   7.903   4.524   8.378
18476TIP3    H155305   7.901   4.547   8.283
18476TIP3    H255306   7.982   4.573   8.409
18477TIP3   OH255307   6.860   3.636   8.801
18477TIP3    H155308   6.941   3.664   8.848
18477TIP3    H255309   6.797   3.632   8.875
18478TIP3   OH255310   7.325   3.088   8.056
18478TIP3    H155311   7.397   3.047   8.005
18478TIP3    H255312   7.335   3.044   8.143
18479TIP3   OH255313   6.851   2.574   7.934
18479TIP3    H155314   6.815   2.496   7.980
18479TIP3    H255315   6.897   2.535   7.859
18480TIP3   OH255316   7.302   2.983   8.346
18480TIP3    H155317   7.212   3.018   8.359
18480TIP3    H255318   7.359   3.044   8.396
18481TIP3   OH255319   7.038   3.376   7.441
18481TIP3    H155320   6.967   3.309   7.430
18481TIP3    H255321   7.020   3.409   7.532
18482TIP3   OH255322   7.939   3.611   8.070
18482TIP3    H155323   7.963   3.660   7.989
18482TIP3    H255324   7.854   3.569   8.046
18483TIP3   OH255325   7.497   2.689   7.299
18483TIP3    H155326   7.400   2.671   7.309
18483TIP3    H255327   7.506   2.782   7.326
18484TIP3   OH255328   7.440   3.694   8.436
18484TIP3    H155329   7.460   3.668   8.527
18484TIP3    H255330   7.399   3.782   8.447
18485TIP3   OH255331   7.566   2.934   7.406
18485TIP3    H155332   7.663   2.940   7.421
18485TIP3    H255333   7.548   3.014   7.352
18486TIP3   OH255334   6.733   3.401   8.117
18486TIP3    H155335   6.768   3.370   8.031
18486TIP3    H255336   6.766   3.333   8.177
18487TIP3   OH255337   7.184   3.525   7.262
18487TIP3    H155338   7.136   3.611   7.269
18487TIP3    H255339   7.129   3.470   7.322
18488TIP3   OH255340   6.609   3.319   8.730
18488TIP3    H155341   6.630   3.302   8.824
18488TIP3    H255342   6.542   3.251   8.712
18489TIP3   OH255343   7.336   3.431   8.749
18489TIP3    H155344   7.277   3.372   8.700
18489TIP3    H255345   7.424   3.397   8.721
18490TIP3   OH255346   7.599   3.957   8.331
18490TIP3    H155347   7.503   3.951   8.344
18490TIP3    H255348   7.625   4.006   8.411
18491TIP3   OH255349   8.009   3.024   7.243
18491TIP3    H155350   7.946   2.979   7.181
18491TIP3    H255351   8.006   3.113   7.201
18492TIP3   OH255352   8.226   3.882   8.322
18492TIP3    H155353   8.128   3.876   8.314
18492TIP3    H255354   8.252   3.851   8.232
18493TIP3   OH255355   7.709   3.843   7.150
18493TIP3    H155356   7.683   3.772   7.211
18493TIP3    H255357   7.721   3.797   7.065
18494TIP3   OH255358   7.704   3.473   7.990
18494TIP3    H155359   7.611   3.447   8.002
18494TIP3    H255360   7.739   3.393   7.944
18495TIP3   OH255361   6.831   3.702   7.744
18495TIP3    H155362   6.832   3.782   7.688
18495TIP3    H255363   6.737   3.680   7.745
18496TIP3   OH255364   6.395   3.004   7.446
18496TIP3    H155365   6.440   3.089   7.465
18496TIP3    H255366   6.317   3.010   7.505
18497TIP3   OH255367   6.972   3.468   7.687
18497TIP3    H155368   6.937   3.557   7.706
18497TIP3    H255369   6.934   3.416   7.760
18498TIP3   OH255370   7.100   4.044   8.211
18498TIP3    H155371   7.142   4.116   8.160
18498TIP3    H255372   7.177   4.009   8.259
18499TIP3   OH255373   6.752   3.939   7.595
18499TIP3    H155374   6.665   3.949   7.639
18499TIP3    H255375   6.783   4.032   7.596
18500TIP3   OH255376   7.491   3.679   8.168
18500TIP3    H155377   7.481   3.677   8.266
18500TIP3    H255378   7.569   3.624   8.154
18501TIP3   OH255379   7.463   3.572   7.051
18501TIP3    H155380   7.515   3.547   7.131
18501TIP3    H255381   7.374   3.544   7.078
18502TIP3   OH255382   7.737   4.214   8.221
18502TIP3    H155383   7.660   4.155   8.214
18502TIP3    H255384   7.721   4.277   8.148
18503TIP3   OH255385   7.803   4.046   6.871
18503TIP3    H155386   7.842   4.119   6.819
18503TIP3    H255387   7.723   4.092   6.904
18504TIP3   OH255388   6.822   2.824   8.738
18504TIP3    H155389   6.725   2.828   8.750
18504TIP3    H255390   6.849   2.762   8.808
18505TIP3   OH255391   7.623   3.507   7.269
18505TIP3    H155392   7.612   3.440   7.340
18505TIP3    H255393   7.720   3.503   7.256
18506TIP3   OH255394   6.534   3.911   8.374
18506TIP3    H155395   6.584   3.829   8.393
18506TIP3    H255396   6.576   3.971   8.437
18507TIP3   OH255397   6.832   3.553   7.051
18507TIP3    H155398   6.842   3.461   7.019
18507TIP3    H255399   6.811   3.538   7.146
18508TIP3   OH255400   6.775   3.557   7.324
18508TIP3    H155401   6.847   3.529   7.383
18508TIP3    H255402   6.780   3.655   7.330
18509TIP3   OH255403   6.513   3.251   7.526
18509TIP3    H155404   6.446   3.294   7.583
18509TIP3    H255405   6.526   3.321   7.458
18510TIP3   OH255406   7.658   2.889   8.419
18510TIP3    H155407   7.739   2.925   8.459
18510TIP3    H255408   7.643   2.808   8.472
18511TIP3   OH255409   7.539   2.639   7.582
18511TIP3    H155410   7.525   2.663   7.489
18511TIP3    H255411   7.578   2.722   7.619
18512TIP3   OH255412   7.042   3.756   7.274
18512TIP3    H155413   6.954   3.783   7.308
18512TIP3    H255414   7.054   3.821   7.204
18513TIP3   OH255415   7.231   2.817   7.685
18513TIP3    H155416   7.295   2.889   7.668
18513TIP3    H255417   7.234   2.811   7.783
18514TIP3   OH255418   7.498   3.138   8.494
18514TIP3    H155419   7.518   3.191   8.573
18514TIP3    H255420   7.553   3.058   8.507
18515TIP3   OH255421   7.374   2.547   7.790
18515TIP3    H155422   7.366   2.625   7.847
18515TIP3    H255423   7.434   2.582   7.720
18516TIP3   OH255424   6.785   3.829   7.340
18516TIP3    H155425   6.755   3.898   7.275
18516TIP3    H255426   6.767   3.874   7.425
18517TIP3   OH255427   6.885   2.543   7.578
18517TIP3    H155428   6.882   2.633   7.614
18517TIP3    H255429   6.981   2.525   7.586
18518TIP3   OH255430   8.142   3.033   8.477
18518TIP3    H155431   8.043   3.034   8.482
18518TIP3    H255432   8.153   2.996   8.389
18519TIP3   OH255433   7.789   3.232   7.863
18519TIP3    H155434   7.714   3.172   7.874
18519TIP3    H255435   7.861   3.185   7.910
18520TIP3   OH255436   6.501   3.461   7.333
18520TIP3    H155437   6.566   3.533   7.338
18520TIP3    H255438   6.546   3.405   7.265
18521TIP3   OH255439   6.447   2.735   7.463
18521TIP3    H155440   6.443   2.832   7.460
18521TIP3    H255441   6.360   2.711   7.428
18522TIP3   OH255442   7.757   4.188   7.813
18522TIP3    H155443   7.715   4.235   7.738
18522TIP3    H255444   7.852   4.206   7.792
18523TIP3   OH255445   6.835   2.456   8.339
18523TIP3    H155446   6.803   2.423   8.253
18523TIP3    H255447   6.824   2.378   8.397
18524TIP3   OH255448   6.380   3.683   7.725
18524TIP3    H155449   6.300   3.706   7.773
18524TIP3    H255450   6.357   3.716   7.636
18525TIP3   OH255451   6.525   4.207   8.791
18525TIP3    H155452   6.612   4.208   8.835
18525TIP3    H255453   6.508   4.112   8.786
18526TIP3   OH255454   7.011   4.183   8.834
18526TIP3    H155455   7.105   4.161   8.844
18526TIP3    H255456   6.986   4.124   8.761
18527TIP3   OH255457   6.996   3.756   6.967
18527TIP3    H155458   6.937   3.685   7.003
18527TIP3    H255459   7.068   3.703   6.931
18528TIP3   OH255460   7.649   4.087   8.570
18528TIP3    H155461   7.640   4.016   8.637
18528TIP3    H255462   7.728   4.136   8.600
18529TIP3   OH255463   7.431   3.798   6.876
18529TIP3    H155464   7.473   3.732   6.934
18529TIP3    H255465   7.486   3.796   6.796
18530TIP3   OH255466   6.659   3.622   8.992
18530TIP3    H155467   6.679   3.526   8.997
18530TIP3    H255468   6.573   3.622   8.946
18531TIP3   OH255469   6.637   3.276   7.184
18531TIP3    H155470   6.691   3.239   7.256
18531TIP3    H255471   6.703   3.279   7.112
18532TIP3   OH255472   7.267   3.706   8.765
18532TIP3    H155473   7.227   3.720   8.678
18532TIP3    H255474   7.299   3.613   8.759
18533TIP3   OH255475   7.149   3.472   6.991
18533TIP3    H155476   7.149   3.484   7.088
18533TIP3    H255477   7.146   3.374   6.986
18534TIP3   OH255478   7.761   3.714   8.371
18534TIP3    H155479   7.835   3.759   8.327
18534TIP3    H255480   7.689   3.777   8.357
18535TIP3   OH255481   6.779   3.358   8.972
18535TIP3    H155482   6.850   3.296   8.952
18535TIP3    H255483   6.805   3.389   9.062
18536TIP3   OH255484   6.850   3.175   7.410
18536TIP3    H155485   6.819   3.132   7.490
18536TIP3    H255486   6.883   3.099   7.357
18537TIP3   OH255487   7.115   3.241   8.636
18537TIP3    H155488   7.037   3.300   8.638
18537TIP3    H255489   7.164   3.274   8.557
18538TIP3   OH255490   6.945   2.969   7.248
18538TIP3    H155491   6.918   2.972   7.153
18538TIP3    H255492   7.043   2.975   7.239
18539TIP3   OH255493   7.632   3.643   8.769
18539TIP3    H155494   7.712   3.619   8.721
18539TIP3    H255495   7.629   3.575   8.839
18540TIP3   OH255496   7.768   3.301   6.910
18540TIP3    H155497   7.748   3.254   6.827
18540TIP3    H255498   7.736   3.391   6.885
18541TIP3   OH255499   7.238   3.028   8.762
18541TIP3    H155500   7.237   2.948   8.706
18541TIP3    H255501   7.194   3.094   8.704
18542TIP3   OH255502   7.240   2.815   8.568
18542TIP3    H155503   7.267   2.856   8.484
18542TIP3    H255504   7.146   2.792   8.550
18543TIP3   OH255505   7.269   3.351   8.442
18543TIP3    H155506   7.351   3.357   8.392
18543TIP3    H255507   7.212   3.418   8.398
18544TIP3   OH255508   7.851   3.320   8.819
18544TIP3    H155509   7.899   3.241   8.847
18544TIP3    H255510   7.924   3.379   8.794
18545TIP3   OH255511   7.891   3.570   8.560
18545TIP3    H155512   7.833   3.623   8.500
18545TIP3    H255513   7.979   3.590   8.519
18546TIP3   OH255514   7.115   3.142   8.991
18546TIP3    H155515   7.047   3.073   9.005
18546TIP3    H255516   7.150   3.116   8.903
18547TIP3   OH255517   7.371   2.580   8.634
18547TIP3    H155518   7.322   2.662   8.611
18547TIP3    H255519   7.302   2.511   8.622
18548TIP3   OH255520   7.499   3.084   8.851
18548TIP3    H155521   7.487   3.072   8.947
18548TIP3    H255522   7.409   3.059   8.821
18549TIP3   OH255523   7.737   3.030   8.706
18549TIP3    H155524   7.661   3.035   8.767
18549TIP3    H255525   7.810   3.003   8.765
18550TIP3   OH255526   7.978   2.972   8.853
18550TIP3    H155527   7.977   2.879   8.882
18550TIP3    H255528   7.966   3.021   8.938
18551TIP3   OH255529   6.956   2.922   9.043
18551TIP3    H155530   6.960   2.830   9.008
18551TIP3    H255531   6.992   2.909   9.133
18552TIP3   OH255532   7.466   2.591   8.890
18552TIP3    H155533   7.529   2.517   8.878
18552TIP3    H255534   7.421   2.588   8.803
18553TIP3   OH255535   7.535   2.804   9.050
18553TIP3    H155536   7.510   2.733   8.987
18553TIP3    H255537   7.457   2.863   9.046
18554TIP3   OH255538   6.755   4.031   7.153
18554TIP3    H155539   6.848   4.032   7.126
18554TIP3    H255540   6.714   4.079   7.079
18555TIP3   OH255541   6.233   3.413   7.371
18555TIP3    H155542   6.328   3.435   7.354
18555TIP3    H255543   6.226   3.325   7.328
18556TIP3   OH255544   6.145   4.026   7.782
18556TIP3    H155545   6.081   3.962   7.747
18556TIP3    H255546   6.192   3.971   7.849
18557TIP3   OH255547   6.278   3.883   7.973
18557TIP3    H155548   6.274   3.802   8.027
18557TIP3    H255549   6.341   3.936   8.025
18558TIP3   OH255550   8.009   4.281   7.767
18558TIP3    H155551   8.038   4.312   7.855
18558TIP3    H255552   8.074   4.321   7.708
18559TIP3   OH255553   8.041   4.299   8.050
18559TIP3    H155554   7.996   4.212   8.045
18559TIP3    H255555   8.116   4.275   8.107
18560TIP3   OH255556   8.085   3.977   8.621
18560TIP3    H155557   8.013   3.983   8.687
18560TIP3    H255558   8.127   4.065   8.628
18561TIP3   OH255559   7.902   3.489   7.244
18561TIP3    H155560   7.971   3.551   7.215
18561TIP3    H255561   7.945   3.449   7.323
18562TIP3   OH255562   8.030   3.357   7.447
18562TIP3    H155563   7.964   3.313   7.506
18562TIP3    H255564   8.094   3.394   7.511
18563TIP3   OH255565   8.085   3.747   7.880
18563TIP3    H155566   8.137   3.682   7.829
18563TIP3    H255567   8.076   3.821   7.816
18564TIP3   OH255568   7.917   4.049   8.074
18564TIP3    H155569   7.845   4.088   8.126
18564TIP3    H255570   7.867   4.000   8.005
18565TIP3   OH255571   7.968   3.263   7.094
18565TIP3    H155572   7.897   3.266   7.026
18565TIP3    H255573   7.941   3.339   7.149
18566TIP3   OH255574   7.839   2.937   7.050
18566TIP3    H155575   7.799   2.975   6.971
18566TIP3    H255576   7.814   2.842   7.040
18567TIP3   OH255577   7.845   3.211   7.593
18567TIP3    H155578   7.853   3.115   7.587
18567TIP3    H255579   7.831   3.225   7.690
18568TIP3   OH255580   6.470   3.288   8.340
18568TIP3    H155581   6.469   3.255   8.247
18568TIP3    H255582   6.567   3.288   8.357
18569TIP3   OH255583   8.133   3.636   8.449
18569TIP3    H155584   8.206   3.571   8.442
18569TIP3    H255585   8.161   3.706   8.388
18570TIP3   OH255586   8.321   3.446   8.469
18570TIP3    H155587   8.245   3.393   8.503
18570TIP3    H255588   8.394   3.381   8.484
18571TIP3   OH255589   7.783   2.671   7.036
18571TIP3    H155590   7.859   2.640   7.088
18571TIP3    H255591   7.711   2.610   7.061
18572TIP3   OH255592   7.841   2.928   7.489
18572TIP3    H155593   7.881   2.839   7.505
18572TIP3    H255594   7.899   2.960   7.418
18573TIP3   OH255595   8.002   3.104   7.983
18573TIP3    H155596   8.089   3.129   7.943
18573TIP3    H255597   8.016   3.139   8.073
18574TIP3   OH255598   8.072   3.245   8.217
18574TIP3    H155599   7.993   3.279   8.264
18574TIP3    H255600   8.103   3.326   8.171
18575TIP3   OH255601   6.690   2.977   9.021
18575TIP3    H155602   6.787   2.966   9.019
18575TIP3    H255603   6.664   2.890   9.056
18576TIP3   OH255604   7.949   2.678   7.527
18576TIP3    H155605   7.998   2.661   7.610
18576TIP3    H255606   7.889   2.600   7.525
18577TIP3   OH255607   6.651   2.664   8.347
18577TIP3    H155608   6.712   2.589   8.356
18577TIP3    H255609   6.713   2.738   8.340
18578TIP3   OH255610   6.454   2.939   8.420
18578TIP3    H155611   6.500   2.927   8.335
18578TIP3    H255612   6.487   3.025   8.448
18579TIP3   OH255613   8.386   2.978   8.599
18579TIP3    H155614   8.296   3.013   8.581
18579TIP3    H255615   8.387   2.903   8.536
18580TIP3   OH255616   8.031   2.614   7.158
18580TIP3    H155617   8.072   2.541   7.107
18580TIP3    H255618   8.099   2.683   7.152
18581TIP3   OH255619   6.436   2.448   7.925
18581TIP3    H155620   6.341   2.438   7.946
18581TIP3    H255621   6.433   2.502   7.843
18582TIP3   OH255622   7.595   4.146   7.426
18582TIP3    H155623   7.644   4.128   7.343
18582TIP3    H255624   7.653   4.210   7.470
18583TIP3   OH255625   6.657   2.523   8.735
18583TIP3    H155626   6.605   2.515   8.817
18583TIP3    H255627   6.590   2.560   8.674
18584TIP3   OH255628   6.700   3.953   8.813
18584TIP3    H155629   6.608   3.922   8.796
18584TIP3    H255630   6.712   3.927   8.905
18585TIP3   OH255631   6.872   3.981   8.359
18585TIP3    H155632   6.827   4.058   8.318
18585TIP3    H255633   6.959   3.992   8.316
18586TIP3   OH255634   7.319   4.227   8.498
18586TIP3    H155635   7.362   4.227   8.586
18586TIP3    H255636   7.386   4.276   8.445
18587TIP3   OH255637   7.498   4.377   8.354
18587TIP3    H155638   7.568   4.325   8.312
18587TIP3    H255639   7.550   4.434   8.415
18588TIP3   OH255640   8.284   2.738   8.459
18588TIP3    H155641   8.196   2.725   8.419
18588TIP3    H255642   8.322   2.647   8.447
18589TIP3   OH255643   6.550   4.240   8.382
18589TIP3    H155644   6.461   4.275   8.362
18589TIP3    H255645   6.565   4.277   8.470
18590TIP3   OH255646   6.788   4.217   8.239
18590TIP3    H155647   6.701   4.230   8.283
18590TIP3    H255648   6.769   4.249   8.148
18591TIP3   OH255649   7.213   4.246   8.038
18591TIP3    H155650   7.144   4.266   7.972
18591TIP3    H255651   7.225   4.334   8.080
18592TIP3   OH255652   7.481   4.186   8.090
18592TIP3    H155653   7.387   4.202   8.069
18592TIP3    H255654   7.524   4.261   8.046
18593TIP3   OH255655   7.690   4.378   8.005
18593TIP3    H155656   7.675   4.462   7.956
18593TIP3    H255657   7.716   4.317   7.932
18594TIP3   OH255658   6.460   4.030   8.130
18594TIP3    H155659   6.491   4.005   8.220
18594TIP3    H255660   6.532   3.988   8.077
18595TIP3   OH255661   6.653   3.904   7.986
18595TIP3    H155662   6.671   3.819   8.032
18595TIP3    H255663   6.744   3.940   7.978
18596TIP3   OH255664   6.921   3.999   7.986
18596TIP3    H155665   6.952   3.908   7.970
18596TIP3    H255666   6.966   4.017   8.071
18597TIP3   OH255667   7.498   2.655   8.075
18597TIP3    H155668   7.454   2.585   8.127
18597TIP3    H255669   7.568   2.606   8.029
18598TIP3   OH255670   8.022   2.539   7.980
18598TIP3    H155671   8.057   2.588   7.903
18598TIP3    H255672   7.926   2.553   7.971
18599TIP3   OH255673   8.116   2.636   7.743
18599TIP3    H155674   8.188   2.584   7.703
18599TIP3    H255675   8.149   2.727   7.728
18600TIP3   OH255676   6.746   2.364   8.091
18600TIP3    H155677   6.654   2.331   8.091
18600TIP3    H255678   6.795   2.279   8.087
18601TIP3   OH255679   6.538   2.232   7.739
18601TIP3    H155680   6.562   2.290   7.665
18601TIP3    H255681   6.502   2.295   7.804
18602TIP3   OH255682   7.190   2.395   7.970
18602TIP3    H155683   7.249   2.446   7.912
18602TIP3    H255684   7.208   2.434   8.056
18603TIP3   OH255685   7.739   2.542   7.954
18603TIP3    H155686   7.734   2.505   7.865
18603TIP3    H255687   7.725   2.462   8.010
18604TIP3   OH255688   7.766   2.464   7.517
18604TIP3    H155689   7.679   2.506   7.528
18604TIP3    H255690   7.752   2.379   7.564
18605TIP3   OH255691   6.251   3.805   7.524
18605TIP3    H155692   6.168   3.768   7.488
18605TIP3    H255693   6.239   3.898   7.498
18606TIP3   OH255694   6.648   2.393   7.501
18606TIP3    H155695   6.697   2.330   7.445
18606TIP3    H255696   6.721   2.446   7.539
18607TIP3   OH255697   7.163   2.567   7.600
18607TIP3    H155698   7.221   2.519   7.661
18607TIP3    H255699   7.185   2.659   7.626
18608TIP3   OH255700   7.023   3.995   7.098
18608TIP3    H155701   7.112   4.015   7.062
18608TIP3    H255702   6.999   3.919   7.040
18609TIP3   OH255703   7.740   4.110   7.193
18609TIP3    H155704   7.732   4.012   7.181
18609TIP3    H255705   7.696   4.141   7.112
18610TIP3   OH255706   6.954   2.646   8.984
18610TIP3    H155707   6.919   2.574   9.039
18610TIP3    H255708   7.048   2.646   9.011
18611TIP3   OH255709   7.203   2.641   9.103
18611TIP3    H155710   7.287   2.611   9.064
18611TIP3    H255711   7.188   2.572   9.171
18612TIP3   OH255712   6.326   3.827   7.161
18612TIP3    H155713   6.341   3.864   7.249
18612TIP3    H255714   6.414   3.787   7.140
18613TIP3   OH255715   8.031   2.700   8.891
18613TIP3    H155716   8.072   2.659   8.968
18613TIP3    H255717   8.110   2.718   8.835
18614TIP3   OH255718   7.967   4.256   8.382
18614TIP3    H155719   7.889   4.223   8.333
18614TIP3    H255720   7.947   4.351   8.384
18615TIP3   OH255721   9.234   3.627   7.149
18615TIP3    H155722   9.203   3.718   7.127
18615TIP3    H255723   9.159   3.576   7.113
18616TIP3   OH255724   9.228   3.630   7.524
18616TIP3    H155725   9.250   3.600   7.614
18616TIP3    H255726   9.190   3.549   7.487
18617TIP3   OH255727   8.533   3.522   7.891
18617TIP3    H155728   8.567   3.460   7.958
18617TIP3    H255729   8.607   3.583   7.883
18618TIP3   OH255730   9.478   3.927   7.208
18618TIP3    H155731   9.458   3.859   7.274
18618TIP3    H255732   9.504   4.003   7.263
18619TIP3   OH255733   8.503   3.932   7.620
18619TIP3    H155734   8.494   3.834   7.622
18619TIP3    H255735   8.600   3.941   7.611
18620TIP3   OH255736   8.208   3.136   7.405
18620TIP3    H155737   8.159   3.219   7.417
18620TIP3    H255738   8.139   3.080   7.366
18621TIP3   OH255739   8.270   3.423   7.574
18621TIP3    H155740   8.318   3.345   7.611
18621TIP3    H255741   8.326   3.447   7.500
18622TIP3   OH255742   9.124   4.391   7.227
18622TIP3    H155743   9.169   4.321   7.174
18622TIP3    H255744   9.121   4.350   7.314
18623TIP3   OH255745   9.030   3.851   7.578
18623TIP3    H155746   9.067   3.775   7.530
18623TIP3    H255747   9.114   3.896   7.600
18624TIP3   OH255748   9.448   3.367   7.606
18624TIP3    H155749   9.478   3.276   7.627
18624TIP3    H255750   9.412   3.352   7.517
18625TIP3   OH255751   8.775   3.015   7.575
18625TIP3    H155752   8.758   3.086   7.510
18625TIP3    H255753   8.731   2.940   7.530
18626TIP3   OH255754   9.469   3.106   7.193
18626TIP3    H155755   9.541   3.091   7.259
18626TIP3    H255756   9.521   3.142   7.119
18627TIP3   OH255757   8.414   3.216   7.681
18627TIP3    H155758   8.498   3.196   7.727
18627TIP3    H255759   8.426   3.160   7.601
18628TIP3   OH255760   8.855   3.413   7.476
18628TIP3    H155761   8.949   3.389   7.487
18628TIP3    H255762   8.817   3.329   7.442
18629TIP3   OH255763   8.781   3.007   8.008
18629TIP3    H155764   8.717   3.037   7.941
18629TIP3    H255765   8.726   3.014   8.089
18630TIP3   OH255766   9.122   3.846   7.021
18630TIP3    H155767   9.084   3.826   6.934
18630TIP3    H255768   9.079   3.932   7.041
18631TIP3   OH255769   8.890   3.770   7.809
18631TIP3    H155770   8.825   3.834   7.844
18631TIP3    H255771   8.929   3.820   7.734
18632TIP3   OH255772   9.683   3.100   7.354
18632TIP3    H155773   9.691   3.043   7.431
18632TIP3    H255774   9.747   3.170   7.375
18633TIP3   OH255775   8.649   3.115   7.794
18633TIP3    H155776   8.716   3.185   7.814
18633TIP3    H255777   8.694   3.072   7.717
18634TIP3   OH255778   8.714   3.965   7.903
18634TIP3    H155779   8.686   4.049   7.861
18634TIP3    H255780   8.635   3.948   7.958
18635TIP3   OH255781   8.107   3.655   7.137
18635TIP3    H155782   8.066   3.681   7.053
18635TIP3    H255783   8.137   3.741   7.173
18636TIP3   OH255784   9.546   4.170   7.377
18636TIP3    H155785   9.455   4.163   7.415
18636TIP3    H255786   9.539   4.255   7.329
18637TIP3   OH255787   9.247   4.220   7.051
18637TIP3    H155788   9.296   4.137   7.029
18637TIP3    H255789   9.308   4.285   7.011
18638TIP3   OH255790   9.386   4.003   6.959
18638TIP3    H155791   9.360   3.924   6.911
18638TIP3    H255792   9.424   3.966   7.041
18639TIP3   OH255793   9.755   4.084   7.722
18639TIP3    H155794   9.750   4.009   7.659
18639TIP3    H255795   9.745   4.161   7.661
18640TIP3   OH255796   9.065   3.481   6.978
18640TIP3    H155797   8.984   3.530   6.953
18640TIP3    H255798   9.110   3.472   6.892
18641TIP3   OH255799   9.021   3.263   6.704
18641TIP3    H155800   9.095   3.312   6.742
18641TIP3    H255801   9.071   3.198   6.649
18642TIP3   OH255802   9.946   3.704   7.546
18642TIP3    H155803   9.874   3.768   7.561
18642TIP3    H255804   9.993   3.745   7.471
18643TIP3   OH255805   9.411   3.562   6.950
18643TIP3    H155806   9.356   3.586   7.028
18643TIP3    H255807   9.494   3.535   6.994
18644TIP3   OH255808   9.577   3.594   7.864
18644TIP3    H155809   9.651   3.656   7.874
18644TIP3    H255810   9.526   3.631   7.791
18645TIP3   OH255811   8.643   3.560   7.367
18645TIP3    H155812   8.600   3.502   7.301
18645TIP3    H255813   8.719   3.505   7.395
18646TIP3   OH255814   8.772   3.969   7.516
18646TIP3    H155815   8.751   3.928   7.431
18646TIP3    H255816   8.862   3.934   7.533
18647TIP3   OH255817   8.782   3.528   7.721
18647TIP3    H155818   8.812   3.506   7.631
18647TIP3    H255819   8.823   3.615   7.738
18648TIP3   OH255820   9.304   4.169   7.497
18648TIP3    H155821   9.290   4.249   7.551
18648TIP3    H255822   9.290   4.096   7.560
18649TIP3   OH255823   8.918   4.086   8.049
18649TIP3    H155824   8.856   4.148   8.093
18649TIP3    H255825   8.855   4.032   7.998
18650TIP3   OH255826   9.252   3.419   6.776
18650TIP3    H155827   9.311   3.478   6.827
18650TIP3    H255828   9.277   3.443   6.683
18651TIP3   OH255829   8.662   3.645   8.139
18651TIP3    H155830   8.674   3.728   8.190
18651TIP3    H255831   8.568   3.628   8.156
18652TIP3   OH255832   8.993   4.102   7.055
18652TIP3    H155833   9.075   4.153   7.067
18652TIP3    H255834   8.934   4.165   7.011
18653TIP3   OH255835   8.712   4.256   8.131
18653TIP3    H155836   8.678   4.254   8.040
18653TIP3    H255837   8.633   4.234   8.184
18654TIP3   OH255838   9.774   2.679   6.851
18654TIP3    H155839   9.683   2.695   6.883
18654TIP3    H255840   9.780   2.741   6.777
18655TIP3   OH255841   8.507   3.403   7.177
18655TIP3    H155842   8.443   3.446   7.116
18655TIP3    H255843   8.472   3.314   7.182
18656TIP3   OH255844   9.566   4.030   6.368
18656TIP3    H155845   9.573   4.128   6.359
18656TIP3    H255846   9.659   4.004   6.357
18657TIP3   OH255847   8.291   3.785   8.078
18657TIP3    H155848   8.226   3.763   8.009
18657TIP3    H255849   8.328   3.697   8.102
18658TIP3   OH255850   8.145   3.979   7.711
18658TIP3    H155851   8.240   3.970   7.701
18658TIP3    H255852   8.138   4.058   7.767
18659TIP3   OH255853   9.993   4.459   7.740
18659TIP3    H155854  10.054   4.392   7.776
18659TIP3    H255855   9.916   4.449   7.799
18660TIP3   OH255856   9.117   4.215   7.903
18660TIP3    H155857   9.115   4.308   7.935
18660TIP3    H255858   9.045   4.176   7.956
18661TIP3   OH255859   8.873   4.343   6.855
18661TIP3    H155860   8.831   4.325   6.769
18661TIP3    H255861   8.843   4.434   6.874
18662TIP3   OH255862   8.313   4.195   7.237
18662TIP3    H155863   8.361   4.185   7.322
18662TIP3    H255864   8.258   4.115   7.238
18663TIP3   OH255865   9.076   4.245   6.494
18663TIP3    H155866   9.136   4.176   6.457
18663TIP3    H255867   9.113   4.255   6.584
18664TIP3   OH255868   9.126   4.295   6.764
18664TIP3    H155869   9.040   4.301   6.809
18664TIP3    H255870   9.182   4.255   6.832
18665TIP3   OH255871   8.495   3.970   8.068
18665TIP3    H155872   8.547   3.950   8.149
18665TIP3    H255873   8.422   3.905   8.075
18666TIP3   OH255874   8.879   2.799   7.843
18666TIP3    H155875   8.788   2.771   7.821
18666TIP3    H255876   8.862   2.884   7.886
18667TIP3   OH255877   9.328   3.471   6.520
18667TIP3    H155878   9.295   3.440   6.434
18667TIP3    H255879   9.410   3.516   6.495
18668TIP3   OH255880   9.043   2.839   6.825
18668TIP3    H155881   9.007   2.836   6.916
18668TIP3    H255882   9.001   2.759   6.788
18669TIP3   OH255883   8.836   3.315   7.880
18669TIP3    H155884   8.772   3.329   7.953
18669TIP3    H255885   8.814   3.390   7.820
18670TIP3   OH255886   8.710   3.195   7.383
18670TIP3    H155887   8.617   3.167   7.399
18670TIP3    H255888   8.725   3.155   7.294
18671TIP3   OH255889   9.202   3.281   7.111
18671TIP3    H155890   9.149   3.351   7.068
18671TIP3    H255891   9.256   3.249   7.036
18672TIP3   OH255892   9.360   3.314   7.347
18672TIP3    H155893   9.298   3.338   7.276
18672TIP3    H255894   9.392   3.229   7.310
18673TIP3   OH255895   8.656   3.341   8.084
18673TIP3    H155896   8.649   3.412   8.151
18673TIP3    H255897   8.640   3.260   8.136
18674TIP3   OH255898   8.698   2.815   6.788
18674TIP3    H155899   8.688   2.812   6.885
18674TIP3    H255900   8.618   2.864   6.761
18675TIP3   OH255901   8.239   2.860   7.659
18675TIP3    H155902   8.315   2.892   7.711
18675TIP3    H255903   8.278   2.826   7.578
18676TIP3   OH255904   8.213   2.839   7.179
18676TIP3    H155905   8.258   2.877   7.101
18676TIP3    H255906   8.152   2.913   7.200
18677TIP3   OH255907   9.317   3.540   7.772
18677TIP3    H155908   9.364   3.477   7.712
18677TIP3    H255909   9.373   3.530   7.851
18678TIP3   OH255910   9.038   3.024   7.454
18678TIP3    H155911   8.953   3.014   7.500
18678TIP3    H255912   9.100   2.997   7.524
18679TIP3   OH255913   8.472   3.070   7.454
18679TIP3    H155914   8.378   3.076   7.426
18679TIP3    H255915   8.498   2.980   7.429
18680TIP3   OH255916   8.741   3.070   7.141
18680TIP3    H155917   8.837   3.082   7.122
18680TIP3    H255918   8.697   3.091   7.056
18681TIP3   OH255919   9.488   3.095   7.629
18681TIP3    H155920   9.456   3.098   7.721
18681TIP3    H255921   9.457   3.007   7.602
18682TIP3   OH255922   8.580   3.104   6.919
18682TIP3    H155923   8.511   3.057   6.869
18682TIP3    H255924   8.634   3.139   6.845
18683TIP3   OH255925   9.698   4.781   7.862
18683TIP3    H155926   9.699   4.804   7.768
18683TIP3    H255927   9.775   4.830   7.896
18684TIP3   OH255928   8.654   3.893   8.285
18684TIP3    H155929   8.732   3.927   8.333
18684TIP3    H255930   8.591   3.885   8.359
18685TIP3   OH255931   9.122   3.349   7.542
18685TIP3    H155932   9.187   3.298   7.491
18685TIP3    H255933   9.124   3.302   7.629
18686TIP3   OH255934   8.645   2.833   7.418
18686TIP3    H155935   8.613   2.753   7.464
18686TIP3    H255936   8.701   2.796   7.349
18687TIP3   OH255937   9.094   3.245   7.805
18687TIP3    H155938   9.005   3.269   7.838
18687TIP3    H255939   9.156   3.271   7.874
18688TIP3   OH255940   8.832   3.634   6.926
18688TIP3    H155941   8.761   3.566   6.916
18688TIP3    H255942   8.816   3.666   7.018
18689TIP3   OH255943   9.729   3.870   7.555
18689TIP3    H155944   9.755   3.917   7.473
18689TIP3    H255945   9.645   3.827   7.529
18690TIP3   OH255946   9.293   2.944   6.792
18690TIP3    H155947   9.196   2.926   6.796
18690TIP3    H255948   9.299   3.040   6.808
18691TIP3   OH255949   9.229   3.944   7.929
18691TIP3    H155950   9.278   3.937   8.011
18691TIP3    H255951   9.197   4.035   7.929
18692TIP3   OH255952   9.364   3.193   6.894
18692TIP3    H155953   9.460   3.199   6.904
18692TIP3    H255954   9.343   3.269   6.837
18693TIP3   OH255955   8.528   3.655   7.604
18693TIP3    H155956   8.564   3.627   7.517
18693TIP3    H255957   8.565   3.588   7.663
18694TIP3   OH255958   8.980   3.781   6.747
18694TIP3    H155959   8.932   3.867   6.754
18694TIP3    H255960   8.926   3.725   6.807
18695TIP3   OH255961   8.406   3.571   8.215
18695TIP3    H155962   8.426   3.561   8.310
18695TIP3    H255963   8.335   3.507   8.202
18696TIP3   OH255964   9.394   4.202   7.825
18696TIP3    H155965   9.297   4.208   7.832
18696TIP3    H255966   9.420   4.261   7.899
18697TIP3   OH255967   9.799   3.273   6.741
18697TIP3    H155968   9.740   3.228   6.676
18697TIP3    H255969   9.822   3.349   6.684
18698TIP3   OH255970  10.006   4.129   7.803
18698TIP3    H155971   9.910   4.123   7.786
18698TIP3    H255972  10.041   4.110   7.715
18699TIP3   OH255973   9.493   4.098   6.631
18699TIP3    H155974   9.486   4.027   6.696
18699TIP3    H255975   9.518   4.052   6.549
18700TIP3   OH255976   9.498   3.725   7.484
18700TIP3    H155977   9.403   3.701   7.487
18700TIP3    H255978   9.533   3.648   7.435
18701TIP3   OH255979   8.627   3.958   7.231
18701TIP3    H155980   8.630   4.038   7.175
18701TIP3    H255981   8.533   3.939   7.234
18702TIP3   OH255982   8.190   3.262   6.929
18702TIP3    H155983   8.237   3.345   6.951
18702TIP3    H255984   8.114   3.267   6.991
18703TIP3   OH255985   8.767   3.723   7.173
18703TIP3    H155986   8.733   3.813   7.192
18703TIP3    H255987   8.730   3.672   7.248
18704TIP3   OH255988   8.896   4.302   7.697
18704TIP3    H155989   8.936   4.374   7.645
18704TIP3    H255990   8.974   4.267   7.743
18705TIP3   OH255991   8.547   4.197   7.080
18705TIP3    H155992   8.461   4.204   7.126
18705TIP3    H255993   8.578   4.289   7.083
18706TIP3   OH255994   9.285   3.936   7.656
18706TIP3    H155995   9.277   3.929   7.753
18706TIP3    H255996   9.363   3.882   7.638
18707TIP3   OH255997   9.259   3.826   6.538
18707TIP3    H155998   9.313   3.804   6.618
18707TIP3    H255999   9.171   3.799   6.569
18708TIP3   OH256000   9.532   4.471   7.705
18708TIP3    H156001   9.452   4.417   7.692
18708TIP3    H256002   9.521   4.537   7.633
18709TIP3   OH256003   9.596   4.309   6.360
18709TIP3    H156004   9.640   4.386   6.320
18709TIP3    H256005   9.513   4.352   6.388
18710TIP3   OH256006   8.611   3.078   8.225
18710TIP3    H156007   8.516   3.097   8.237
18710TIP3    H256008   8.617   2.987   8.258
18711TIP3   OH256009   9.418   3.765   6.758
18711TIP3    H156010   9.409   3.696   6.826
18711TIP3    H256011   9.514   3.762   6.742
18712TIP3   OH256012   8.334   4.165   7.857
18712TIP3    H156013   8.386   4.087   7.885
18712TIP3    H256014   8.366   4.231   7.920
18713TIP3   OH256015   8.624   3.809   6.538
18713TIP3    H156016   8.641   3.718   6.508
18713TIP3    H256017   8.606   3.795   6.633
18714TIP3   OH256018   8.570   3.813   6.812
18714TIP3    H156019   8.645   3.784   6.866
18714TIP3    H256020   8.577   3.911   6.819
18715TIP3   OH256021   8.307   3.506   7.013
18715TIP3    H156022   8.241   3.551   7.070
18715TIP3    H256023   8.323   3.576   6.946
18716TIP3   OH256024   9.392   3.156   7.897
18716TIP3    H156025   9.480   3.187   7.928
18716TIP3    H256026   9.398   3.062   7.923
18717TIP3   OH256027   9.336   2.896   7.067
18717TIP3    H156028   9.320   2.918   6.973
18717TIP3    H256029   9.372   2.980   7.103
18718TIP3   OH256030   8.836   4.011   6.760
18718TIP3    H156031   8.750   4.040   6.794
18718TIP3    H256032   8.855   4.081   6.696
18719TIP3   OH256033   9.024   3.076   7.175
18719TIP3    H156034   9.089   3.146   7.156
18719TIP3    H256035   9.034   3.065   7.272
18720TIP3   OH256036   9.275   3.394   8.035
18720TIP3    H156037   9.341   3.439   8.091
18720TIP3    H256038   9.323   3.324   7.997
18721TIP3   OH256039   9.171   2.794   7.269
18721TIP3    H156040   9.192   2.846   7.348
18721TIP3    H256041   9.227   2.838   7.201
18722TIP3   OH256042   8.579   4.087   6.825
18722TIP3    H156043   8.549   4.157   6.763
18722TIP3    H256044   8.564   4.131   6.912
18723TIP3   OH256045   8.680   2.799   7.065
18723TIP3    H156046   8.679   2.890   7.102
18723TIP3    H256047   8.775   2.780   7.073
18724TIP3   OH256048   9.585   3.489   7.350
18724TIP3    H156049   9.507   3.431   7.359
18724TIP3    H256050   9.656   3.435   7.391
18725TIP3   OH256051   8.298   3.718   6.818
18725TIP3    H156052   8.366   3.787   6.828
18725TIP3    H256053   8.343   3.662   6.752
18726TIP3   OH256054   8.242   2.993   6.956
18726TIP3    H156055   8.242   3.090   6.948
18726TIP3    H256056   8.163   2.969   6.907
18727TIP3   OH256057   9.553   4.443   7.299
18727TIP3    H156058   9.511   4.491   7.224
18727TIP3    H256059   9.647   4.462   7.279
18728TIP3   OH256060   8.617   2.714   7.828
18728TIP3    H156061   8.593   2.678   7.740
18728TIP3    H256062   8.614   2.635   7.885
18729TIP3   OH256063   8.173   3.935   7.209
18729TIP3    H156064   8.096   3.963   7.261
18729TIP3    H256065   8.149   3.971   7.121
18730TIP3   OH256066   8.325   4.470   8.279
18730TIP3    H156067   8.411   4.468   8.324
18730TIP3    H256068   8.304   4.375   8.276
18731TIP3   OH256069   8.809   4.437   8.323
18731TIP3    H156070   8.903   4.415   8.328
18731TIP3    H256071   8.781   4.379   8.249
18732TIP3   OH256072   8.789   4.012   6.452
18732TIP3    H156073   8.732   3.941   6.490
18732TIP3    H256074   8.865   3.960   6.421
18733TIP3   OH256075   9.444   4.345   8.059
18733TIP3    H156076   9.434   4.275   8.126
18733TIP3    H256077   9.524   4.392   8.089
18734TIP3   OH256078   9.224   4.053   6.361
18734TIP3    H156079   9.271   3.994   6.423
18734TIP3    H256080   9.285   4.055   6.285
18735TIP3   OH256081   8.456   3.882   8.478
18735TIP3    H156082   8.475   3.786   8.487
18735TIP3    H256083   8.369   3.880   8.434
18736TIP3   OH256084   8.433   3.530   6.672
18736TIP3    H156085   8.488   3.494   6.743
18736TIP3    H256086   8.500   3.534   6.600
18737TIP3   OH256087   9.063   3.958   8.251
18737TIP3    H156088   9.020   3.981   8.166
18737TIP3    H256089   9.131   3.895   8.225
18738TIP3   OH256090   8.939   3.729   6.478
18738TIP3    H156091   8.945   3.741   6.575
18738TIP3    H256092   8.943   3.631   6.472
18739TIP3   OH256093   9.550   3.970   7.861
18739TIP3    H156094   9.625   4.008   7.812
18739TIP3    H256095   9.482   4.039   7.844
18740TIP3   OH256096   8.575   3.616   8.458
18740TIP3    H156097   8.619   3.531   8.464
18740TIP3    H256098   8.596   3.649   8.549
18741TIP3   OH256099   8.642   3.432   6.894
18741TIP3    H156100   8.618   3.386   6.975
18741TIP3    H256101   8.679   3.359   6.840
18742TIP3   OH256102   8.742   3.227   6.735
18742TIP3    H156103   8.717   3.224   6.641
18742TIP3    H256104   8.840   3.230   6.729
18743TIP3   OH256105   9.407   3.887   8.224
18743TIP3    H156106   9.495   3.883   8.185
18743TIP3    H256107   9.428   3.889   8.319
18744TIP3   OH256108   9.565   3.559   6.394
18744TIP3    H156109   9.541   3.511   6.313
18744TIP3    H256110   9.531   3.649   6.371
18745TIP3   OH256111   9.040   3.082   8.049
18745TIP3    H156112   9.068   3.095   7.957
18745TIP3    H256113   8.947   3.055   8.037
18746TIP3   OH256114   9.074   3.610   7.933
18746TIP3    H156115   9.144   3.622   7.866
18746TIP3    H256116   9.005   3.673   7.900
18747TIP3   OH256117   9.700   3.853   8.053
18747TIP3    H156118   9.633   3.890   7.992
18747TIP3    H256119   9.759   3.809   7.988
18748TIP3   OH256120   8.927   3.392   8.448
18748TIP3    H156121   8.841   3.379   8.492
18748TIP3    H256122   8.917   3.334   8.371
18749TIP3   OH256123   9.112   2.836   8.173
18749TIP3    H156124   9.115   2.909   8.109
18749TIP3    H256125   9.081   2.762   8.118
18750TIP3   OH256126   8.748   3.181   8.495
18750TIP3    H156127   8.763   3.105   8.438
18750TIP3    H256128   8.773   3.148   8.583
18751TIP3   OH256129   8.549   4.291   6.639
18751TIP3    H156130   8.645   4.285   6.620
18751TIP3    H256131   8.520   4.338   6.559
18752TIP3   OH256132   8.030   3.670   6.856
18752TIP3    H156133   8.124   3.692   6.841
18752TIP3    H256134   8.024   3.581   6.815
18753TIP3   OH256135   7.942   4.284   7.269
18753TIP3    H156136   7.876   4.221   7.233
18753TIP3    H256137   7.987   4.227   7.335
18754TIP3   OH256138   8.078   4.138   7.456
18754TIP3    H156139   8.068   4.061   7.514
18754TIP3    H256140   8.130   4.197   7.513
18755TIP3   OH256141   9.806   4.532   7.257
18755TIP3    H156142   9.843   4.577   7.335
18755TIP3    H256143   9.865   4.562   7.187
18756TIP3   OH256144   9.831   4.558   7.540
18756TIP3    H156145   9.792   4.471   7.521
18756TIP3    H256146   9.902   4.529   7.601
18757TIP3   OH256147   9.693   3.749   6.727
18757TIP3    H156148   9.762   3.815   6.704
18757TIP3    H256149   9.735   3.706   6.805
18758TIP3   OH256150   9.812   3.611   6.930
18758TIP3    H156151   9.745   3.567   6.986
18758TIP3    H256152   9.873   3.650   6.996
18759TIP3   OH256153   9.882   3.999   7.365
18759TIP3    H156154   9.924   3.944   7.297
18759TIP3    H256155   9.875   4.085   7.318
18760TIP3   OH256156   9.710   4.301   7.560
18760TIP3    H156157   9.641   4.349   7.609
18760TIP3    H256158   9.659   4.256   7.489
18761TIP3   OH256159   9.770   3.528   6.574
18761TIP3    H156160   9.693   3.523   6.513
18761TIP3    H256161   9.740   3.599   6.633
18762TIP3   OH256162   9.626   3.194   6.546
18762TIP3    H156163   9.606   3.231   6.460
18762TIP3    H256164   9.603   3.099   6.532
18763TIP3   OH256165   9.640   3.467   7.081
18763TIP3    H156166   9.645   3.370   7.072
18763TIP3    H256167   9.624   3.478   7.178
18764TIP3   OH256168   8.267   3.541   7.827
18764TIP3    H156169   8.265   3.511   7.734
18764TIP3    H256170   8.364   3.542   7.843
18765TIP3   OH256171   9.576   2.928   6.521
18765TIP3    H156172   9.648   2.891   6.575
18765TIP3    H256173   9.499   2.871   6.542
18766TIP3   OH256174   9.641   3.190   6.975
18766TIP3    H156175   9.677   3.099   6.990
18766TIP3    H256176   9.695   3.219   6.899
18767TIP3   OH256177   9.806   3.352   7.448
18767TIP3    H156178   9.896   3.371   7.414
18767TIP3    H256179   9.812   3.397   7.536
18768TIP3   OH256180   9.835   3.490   7.678
18768TIP3    H156181   9.754   3.524   7.719
18768TIP3    H256182   9.874   3.568   7.632
18769TIP3   OH256183   8.475   3.222   8.491
18769TIP3    H156184   8.572   3.231   8.497
18769TIP3    H256185   8.460   3.143   8.547
18770TIP3   OH256186   9.736   2.935   7.021
18770TIP3    H156187   9.769   2.921   7.111
18770TIP3    H256188   9.676   2.858   7.010
18771TIP3   OH256189   8.443   2.926   7.837
18771TIP3    H156190   8.501   2.848   7.843
18771TIP3    H256191   8.508   2.997   7.828
18772TIP3   OH256192   8.250   3.195   7.907
18772TIP3    H156193   8.298   3.184   7.823
18772TIP3    H256194   8.278   3.284   7.933
18773TIP3   OH256195   9.827   2.855   6.637
18773TIP3    H156196   9.872   2.771   6.616
18773TIP3    H256197   9.877   2.916   6.578
18774TIP3   OH256198   8.231   2.700   7.410
18774TIP3    H156199   8.137   2.696   7.432
18774TIP3    H256200   8.231   2.757   7.329
18775TIP3   OH256201   9.388   4.407   6.917
18775TIP3    H156202   9.433   4.386   6.831
18775TIP3    H256203   9.455   4.464   6.957
18776TIP3   OH256204   8.432   2.781   8.225
18776TIP3    H156205   8.380   2.773   8.307
18776TIP3    H256206   8.365   2.816   8.163
18777TIP3   OH256207   8.492   4.207   8.300
18777TIP3    H156208   8.402   4.176   8.279
18777TIP3    H256209   8.501   4.182   8.392
18778TIP3   OH256210   8.670   4.237   7.847
18778TIP3    H156211   8.621   4.312   7.807
18778TIP3    H256212   8.756   4.251   7.801
18779TIP3   OH256213   9.117   4.482   7.985
18779TIP3    H156214   9.159   4.486   8.074
18779TIP3    H256215   9.181   4.532   7.932
18780TIP3   OH256216   9.293   4.632   7.841
18780TIP3    H156217   9.364   4.584   7.796
18780TIP3    H256218   9.346   4.691   7.900
18781TIP3   OH256219   8.347   4.496   7.867
18781TIP3    H156220   8.257   4.530   7.844
18781TIP3    H256221   8.354   4.527   7.958
18782TIP3   OH256222   8.584   4.474   7.727
18782TIP3    H156223   8.497   4.486   7.771
18782TIP3    H256224   8.564   4.505   7.636
18783TIP3   OH256225   9.009   4.502   7.526
18783TIP3    H156226   8.941   4.522   7.458
18783TIP3    H256227   9.021   4.590   7.567
18784TIP3   OH256228   9.278   4.442   7.579
18784TIP3    H156229   9.184   4.459   7.556
18784TIP3    H256230   9.323   4.514   7.532
18785TIP3   OH256231   9.483   4.633   7.490
18785TIP3    H156232   9.470   4.718   7.443
18785TIP3    H256233   9.511   4.574   7.417
18786TIP3   OH256234   8.258   4.289   7.615
18786TIP3    H156235   8.285   4.263   7.706
18786TIP3    H256236   8.329   4.245   7.564
18787TIP3   OH256237   8.450   4.160   7.471
18787TIP3    H156238   8.467   4.075   7.519
18787TIP3    H256239   8.541   4.196   7.465
18788TIP3   OH256240   8.717   4.256   7.473
18788TIP3    H156241   8.749   4.165   7.457
18788TIP3    H256242   8.761   4.275   7.557
18789TIP3   OH256243   9.822   2.791   7.489
18789TIP3    H156244   9.848   2.846   7.413
18789TIP3    H256245   9.725   2.782   7.475
18790TIP3   OH256246   9.898   2.897   7.249
18790TIP3    H156247   9.962   2.852   7.190
18790TIP3    H256248   9.922   2.991   7.234
18791TIP3   OH256249   8.542   2.620   7.578
18791TIP3    H156250   8.450   2.587   7.578
18791TIP3    H256251   8.592   2.536   7.572
18792TIP3   OH256252   8.328   2.489   7.224
18792TIP3    H156253   8.359   2.545   7.152
18792TIP3    H256254   8.300   2.554   7.291
18793TIP3   OH256255   8.987   2.653   7.467
18793TIP3    H156256   9.049   2.698   7.408
18793TIP3    H256257   9.017   2.684   7.553
18794TIP3   OH256258   9.557   2.784   7.446
18794TIP3    H156259   9.507   2.790   7.365
18794TIP3    H256260   9.482   2.774   7.511
18795TIP3   OH256261   9.552   2.726   7.007
18795TIP3    H156262   9.466   2.771   7.022
18795TIP3    H256263   9.536   2.640   7.051
18796TIP3   OH256264   8.046   4.059   7.006
18796TIP3    H156265   7.961   4.025   6.971
18796TIP3    H256266   8.034   4.153   6.987
18797TIP3   OH256267   8.445   2.648   6.990
18797TIP3    H156268   8.493   2.586   6.932
18797TIP3    H256269   8.519   2.702   7.025
18798TIP3   OH256270   8.956   2.825   7.089
18798TIP3    H156271   9.019   2.780   7.149
18798TIP3    H256272   8.977   2.918   7.113
18799TIP3   OH256273   8.817   4.250   6.587
18799TIP3    H156274   8.907   4.271   6.552
18799TIP3    H256275   8.795   4.175   6.528
18800TIP3   OH256276   9.517   4.364   6.684
18800TIP3    H156277   9.518   4.268   6.666
18800TIP3    H256278   9.497   4.401   6.596
18801TIP3   OH256279   8.123   4.088   6.644
18801TIP3    H156280   8.124   4.110   6.739
18801TIP3    H256281   8.211   4.045   6.632
18802TIP3   OH256282   9.747   4.508   7.880
18802TIP3    H156283   9.674   4.484   7.819
18802TIP3    H256284   9.745   4.605   7.874
18803TIP3   OH256285   9.982   3.389   6.913
18803TIP3    H156286   9.920   3.464   6.910
18803TIP3    H256287   9.934   3.326   6.856
18804TIP3   OH256288  10.045   3.676   7.065
18804TIP3    H156289  10.118   3.617   7.089
18804TIP3    H256290  10.067   3.687   6.971
18805TIP3   OH256291   9.897   3.920   6.648
18805TIP3    H156292   9.876   3.932   6.555
18805TIP3    H256293   9.922   4.012   6.674
18806TIP3   OH256294  10.084   4.012   7.558
18806TIP3    H156295  10.012   4.003   7.493
18806TIP3    H256296  10.129   3.925   7.552
18807TIP3   OH256297   9.947   4.229   7.213
18807TIP3    H156298  10.040   4.243   7.192
18807TIP3    H256299   9.922   4.316   7.246
18808TIP3   OH256300  10.229   4.243   7.573
18808TIP3    H156301  10.266   4.217   7.658
18808TIP3    H256302  10.159   4.175   7.563
18809TIP3   OH256303  10.008   3.133   7.168
18809TIP3    H156304  10.098   3.168   7.179
18809TIP3    H256305   9.989   3.157   7.076
18810TIP3   OH256306   9.965   3.587   6.392
18810TIP3    H156307  10.036   3.587   6.458
18810TIP3    H256308   9.888   3.565   6.449
18811TIP3   OH256309  10.130   4.427   7.347
18811TIP3    H156310  10.167   4.349   7.390
18811TIP3    H256311  10.158   4.497   7.407
18812TIP3   OH256312   9.962   4.181   6.706
18812TIP3    H156313   9.906   4.239   6.760
18812TIP3    H256314   9.980   4.239   6.630
18813TIP3   OH256315  10.097   4.711   7.756
18813TIP3    H156316  10.185   4.689   7.789
18813TIP3    H256317  10.060   4.621   7.744
18814TIP3   OH256318   9.823   3.932   6.329
18814TIP3    H156319   9.919   3.925   6.345
18814TIP3    H256320   9.808   3.848   6.281
18815TIP3   OH256321   9.852   4.393   6.956
18815TIP3    H156322   9.868   4.316   7.011
18815TIP3    H256323   9.918   4.456   6.986
18816TIP3   OH256324  10.082   3.791   7.312
18816TIP3    H156325  10.063   3.765   7.220
18816TIP3    H256326  10.169   3.833   7.302
18817TIP3   OH256327  10.054   3.461   7.368
18817TIP3    H156328  10.048   3.479   7.274
18817TIP3    H256329  10.049   3.549   7.408
18818TIP3   OH256330   9.977   3.005   6.878
18818TIP3    H156331   9.881   2.986   6.880
18818TIP3    H256332   9.991   3.023   6.784
18819TIP3   OH256333  10.136   4.750   7.357
18819TIP3    H156334  10.051   4.790   7.329
18819TIP3    H256335  10.133   4.767   7.451
18820TIP3   OH256336  10.388   4.739   7.229
18820TIP3    H156337  10.296   4.740   7.260
18820TIP3    H256338  10.378   4.763   7.135
18821TIP3   OH256339  10.052   4.542   7.100
18821TIP3    H156340  10.086   4.522   7.190
18821TIP3    H256341  10.127   4.508   7.046
18822TIP3   OH256342  10.264   4.431   6.964
18822TIP3    H156343  10.286   4.343   6.931
18822TIP3    H256344  10.351   4.476   6.960
18823TIP3   OH256345   9.862   4.308   6.462
18823TIP3    H156346   9.765   4.302   6.455
18823TIP3    H256347   9.876   4.392   6.509
18824TIP3   OH256348   9.940   4.358   6.150
18824TIP3    H156349   9.903   4.381   6.237
18824TIP3    H256350   9.998   4.284   6.174
18825TIP3   OH256351   1.682   4.414   8.837
18825TIP3    H156352   1.656   4.506   8.816
18825TIP3    H256353   1.607   4.366   8.798
18826TIP3   OH256354   1.689   4.416   9.165
18826TIP3    H156355   1.664   4.391   9.256
18826TIP3    H256356   1.653   4.344   9.111
18827TIP3   OH256357   1.928   4.718   8.896
18827TIP3    H156358   1.913   4.647   8.960
18827TIP3    H256359   1.958   4.791   8.952
18828TIP3   OH256360   1.574   5.182   8.909
18828TIP3    H156361   1.624   5.108   8.869
18828TIP3    H256362   1.556   5.152   8.998
18829TIP3   OH256363   1.508   4.615   9.202
18829TIP3    H156364   1.580   4.560   9.166
18829TIP3    H256365   1.550   4.656   9.278
18830TIP3   OH256366   2.486   3.940   9.250
18830TIP3    H156367   2.501   4.015   9.308
18830TIP3    H256368   2.523   3.972   9.166
18831TIP3   OH256369   1.929   3.884   8.888
18831TIP3    H156370   2.002   3.874   8.953
18831TIP3    H256371   1.976   3.927   8.815
18832TIP3   OH256372   1.580   4.637   8.706
18832TIP3    H156373   1.535   4.614   8.623
18832TIP3    H256374   1.536   4.722   8.728
18833TIP3   OH256375   2.143   3.892   9.062
18833TIP3    H156376   2.145   3.875   9.158
18833TIP3    H256377   2.198   3.972   9.059
18834TIP3   OH256378   0.621   4.481   8.775
18834TIP3    H156379   0.533   4.494   8.735
18834TIP3    H256380   0.604   4.503   8.868
18835TIP3   OH256381   2.002   4.957   9.065
18835TIP3    H156382   1.915   4.950   9.111
18835TIP3    H256383   1.991   5.043   9.019
18836TIP3   OH256384   1.710   5.007   8.751
18836TIP3    H156385   1.755   4.924   8.723
18836TIP3    H256386   1.766   5.072   8.703
18837TIP3   OH256387   1.844   4.793   8.644
18837TIP3    H156388   1.803   4.714   8.605
18837TIP3    H256389   1.879   4.757   8.729
18838TIP3   OH256390   2.222   4.882   9.399
18838TIP3    H156391   2.205   4.807   9.338
18838TIP3    H256392   2.204   4.958   9.340
18839TIP3   OH256393   1.516   4.267   8.667
18839TIP3    H156394   1.435   4.319   8.646
18839TIP3    H256395   1.561   4.265   8.580
18840TIP3   OH256396   1.477   4.048   8.388
18840TIP3    H156397   1.545   4.102   8.432
18840TIP3    H256398   1.534   3.986   8.338
18841TIP3   OH256399   2.435   4.516   9.250
18841TIP3    H156400   2.343   4.546   9.261
18841TIP3    H256401   2.452   4.539   9.157
18842TIP3   OH256402   1.863   4.349   8.640
18842TIP3    H156403   1.809   4.373   8.718
18842TIP3    H256404   1.947   4.323   8.684
18843TIP3   OH256405   1.089   4.332   9.043
18843TIP3    H156406   1.044   4.280   8.974
18843TIP3    H256407   1.159   4.273   9.070
18844TIP3   OH256408   1.276   4.805   9.109
18844TIP3    H156409   1.224   4.732   9.072
18844TIP3    H256410   1.334   4.759   9.172
18845TIP3   OH256411   1.771   4.953   9.205
18845TIP3    H156412   1.735   5.040   9.229
18845TIP3    H256413   1.735   4.893   9.272
18846TIP3   OH256414   1.704   4.206   8.465
18846TIP3    H156415   1.763   4.266   8.517
18846TIP3    H256416   1.730   4.230   8.373
18847TIP3   OH256417   1.451   4.885   8.731
18847TIP3    H156418   1.520   4.943   8.765
18847TIP3    H256419   1.381   4.946   8.704
18848TIP3   OH256420   2.220   3.450   8.513
18848TIP3    H156421   2.140   3.474   8.563
18848TIP3    H256422   2.236   3.531   8.461
18849TIP3   OH256423   0.966   4.182   8.848
18849TIP3    H156424   0.899   4.223   8.790
18849TIP3    H256425   0.911   4.126   8.904
18850TIP3   OH256426   2.018   4.816   8.063
18850TIP3    H156427   2.027   4.913   8.047
18850TIP3    H256428   2.110   4.785   8.049
18851TIP3   OH256429   2.451   5.248   9.435
18851TIP3    H156430   2.461   5.150   9.432
18851TIP3    H256431   2.365   5.254   9.479
18852TIP3   OH256432   1.329   5.136   8.540
18852TIP3    H156433   1.280   5.115   8.459
18852TIP3    H256434   1.294   5.223   8.566
18853TIP3   OH256435   0.799   4.970   8.866
18853TIP3    H156436   0.818   4.959   8.961
18853TIP3    H256437   0.709   4.934   8.854
18854TIP3   OH256438   1.530   5.035   8.183
18854TIP3    H156439   1.589   4.965   8.147
18854TIP3    H256440   1.563   5.042   8.275
18855TIP3   OH256441   1.580   5.082   8.454
18855TIP3    H156442   1.491   5.092   8.495
18855TIP3    H256443   1.628   5.036   8.525
18856TIP3   OH256444   1.782   4.258   8.212
18856TIP3    H156445   1.747   4.230   8.125
18856TIP3    H256446   1.864   4.303   8.184
18857TIP3   OH256447   1.493   3.627   8.513
18857TIP3    H156448   1.458   3.625   8.603
18857TIP3    H256449   1.453   3.545   8.477
18858TIP3   OH256450   1.129   3.987   9.053
18858TIP3    H156451   1.069   3.914   9.072
18858TIP3    H256452   1.162   3.957   8.966
18859TIP3   OH256453   1.651   4.065   8.794
18859TIP3    H156454   1.600   4.139   8.754
18859TIP3    H256455   1.710   4.040   8.720
18860TIP3   OH256456   1.823   4.108   9.027
18860TIP3    H156457   1.754   4.129   8.962
18860TIP3    H256458   1.847   4.019   8.996
18861TIP3   OH256459   1.151   3.602   8.479
18861TIP3    H156460   1.137   3.598   8.576
18861TIP3    H256461   1.072   3.652   8.452
18862TIP3   OH256462   0.695   3.645   8.881
18862TIP3    H156463   0.720   3.677   8.793
18862TIP3    H256464   0.618   3.700   8.899
18863TIP3   OH256465   1.204   3.854   8.820
18863TIP3    H156466   1.290   3.881   8.786
18863TIP3    H256467   1.144   3.874   8.745
18864TIP3   OH256468   1.037   3.884   8.611
18864TIP3    H156469   0.963   3.842   8.563
18864TIP3    H256470   1.087   3.923   8.535
18865TIP3   OH256471   2.129   5.637   9.523
18865TIP3    H156472   2.138   5.625   9.426
18865TIP3    H256473   2.223   5.657   9.546
18866TIP3   OH256474   1.287   4.421   8.619
18866TIP3    H156475   1.215   4.355   8.608
18866TIP3    H256476   1.270   4.452   8.711
18867TIP3   OH256477   2.181   4.648   9.250
18867TIP3    H156478   2.217   4.696   9.172
18867TIP3    H256479   2.101   4.605   9.212
18868TIP3   OH256480   1.748   3.728   8.485
18868TIP3    H156481   1.650   3.716   8.484
18868TIP3    H256482   1.758   3.825   8.498
18869TIP3   OH256483   1.816   3.980   8.583
18869TIP3    H156484   1.913   3.986   8.596
18869TIP3    H256485   1.797   4.058   8.527
18870TIP3   OH256486   1.432   4.569   8.438
18870TIP3    H156487   1.385   4.655   8.444
18870TIP3    H256488   1.377   4.514   8.499
18871TIP3   OH256489   2.257   4.069   8.419
18871TIP3    H156490   2.194   4.024   8.357
18871TIP3    H256491   2.254   4.157   8.377
18872TIP3   OH256492   2.475   4.979   9.458
18872TIP3    H156493   2.385   4.939   9.459
18872TIP3    H256494   2.516   4.921   9.390
18873TIP3   OH256495   1.959   4.888   8.327
18873TIP3    H156496   1.931   4.819   8.389
18873TIP3    H256497   1.968   4.841   8.243
18874TIP3   OH256498   1.949   4.516   9.169
18874TIP3    H156499   1.855   4.488   9.163
18874TIP3    H256500   1.990   4.438   9.126
18875TIP3   OH256501   1.071   4.732   8.894
18875TIP3    H156502   1.094   4.819   8.859
18875TIP3    H256503   0.978   4.742   8.914
18876TIP3   OH256504   0.642   4.054   8.625
18876TIP3    H156505   0.711   4.125   8.629
18876TIP3    H256506   0.578   4.094   8.688
18877TIP3   OH256507   1.225   4.506   8.869
18877TIP3    H156508   1.184   4.594   8.877
18877TIP3    H256509   1.177   4.456   8.938
18878TIP3   OH256510   1.040   4.990   8.754
18878TIP3    H156511   0.949   4.990   8.791
18878TIP3    H256512   1.062   5.085   8.762
18879TIP3   OH256513   1.711   4.618   8.228
18879TIP3    H156514   1.764   4.592   8.307
18879TIP3    H256515   1.623   4.589   8.256
18880TIP3   OH256516   1.990   5.249   9.382
18880TIP3    H156517   1.897   5.223   9.386
18880TIP3    H256518   1.984   5.328   9.325
18881TIP3   OH256519   2.051   5.092   8.048
18881TIP3    H156520   2.087   5.167   7.998
18881TIP3    H256521   1.970   5.134   8.082
18882TIP3   OH256522   1.871   4.551   8.445
18882TIP3    H156523   1.861   4.484   8.515
18882TIP3    H256524   1.968   4.548   8.432
18883TIP3   OH256525   1.078   4.597   8.227
18883TIP3    H156526   1.092   4.505   8.198
18883TIP3    H256527   1.061   4.585   8.322
18884TIP3   OH256528   1.027   4.601   8.500
18884TIP3    H156529   1.095   4.575   8.563
18884TIP3    H256530   1.030   4.699   8.506
18885TIP3   OH256531   0.780   4.286   8.678
18885TIP3    H156532   0.718   4.338   8.733
18885TIP3    H256533   0.797   4.354   8.611
18886TIP3   OH256534   1.791   3.680   8.756
18886TIP3    H156535   1.774   3.705   8.663
18886TIP3    H256536   1.829   3.763   8.792
18887TIP3   OH256537   1.289   4.798   8.448
18887TIP3    H156538   1.202   4.825   8.484
18887TIP3    H256539   1.305   4.870   8.385
18888TIP3   OH256540   1.494   3.856   8.866
18888TIP3    H156541   1.555   3.923   8.828
18888TIP3    H256542   1.473   3.899   8.950
18889TIP3   OH256543   1.640   3.578   8.957
18889TIP3    H156544   1.637   3.651   9.019
18889TIP3    H256545   1.694   3.619   8.885
18890TIP3   OH256546   1.031   4.873   8.510
18890TIP3    H156547   1.000   4.945   8.450
18890TIP3    H256548   1.029   4.918   8.597
18891TIP3   OH256549   1.138   3.581   8.757
18891TIP3    H156550   1.127   3.672   8.792
18891TIP3    H256551   1.235   3.572   8.766
18892TIP3   OH256552   2.035   4.284   9.042
18892TIP3    H156553   1.959   4.223   9.052
18892TIP3    H256554   2.107   4.234   9.086
18893TIP3   OH256555   0.762   4.514   8.498
18893TIP3    H156556   0.836   4.575   8.512
18893TIP3    H256557   0.802   4.455   8.430
18894TIP3   OH256558   0.691   3.783   8.644
18894TIP3    H156559   0.689   3.881   8.643
18894TIP3    H256560   0.623   3.760   8.581
18895TIP3   OH256561   2.006   5.231   8.990
18895TIP3    H156562   1.963   5.278   8.914
18895TIP3    H256563   2.100   5.250   8.969
18896TIP3   OH256564   0.645   4.706   8.944
18896TIP3    H156565   0.575   4.750   8.891
18896TIP3    H256566   0.706   4.682   8.873
18897TIP3   OH256567   1.242   4.801   8.141
18897TIP3    H156568   1.185   4.730   8.179
18897TIP3    H256569   1.317   4.748   8.108
18898TIP3   OH256570   1.679   4.843   8.053
18898TIP3    H156571   1.720   4.776   8.111
18898TIP3    H256572   1.736   4.839   7.973
18899TIP3   OH256573   0.889   4.318   8.360
18899TIP3    H156574   0.943   4.284   8.433
18899TIP3    H256575   0.956   4.322   8.289
18900TIP3   OH256576   1.394   4.516   8.168
18900TIP3    H156577   1.397   4.528   8.265
18900TIP3    H256578   1.395   4.418   8.163
18901TIP3   OH256579   1.097   4.221   8.585
18901TIP3    H156580   1.063   4.184   8.669
18901TIP3    H256581   1.130   4.142   8.538
18902TIP3   OH256582   1.194   4.011   8.425
18902TIP3    H156583   1.167   4.016   8.331
18902TIP3    H256584   1.292   4.019   8.416
18903TIP3   OH256585   2.018   4.347   8.088
18903TIP3    H156586   1.998   4.299   8.005
18903TIP3    H256587   1.984   4.436   8.062
18904TIP3   OH256588   1.001   5.080   8.328
18904TIP3    H156589   1.097   5.073   8.309
18904TIP3    H256590   0.972   5.126   8.248
18905TIP3   OH256591   0.493   4.478   8.485
18905TIP3    H156592   0.588   4.488   8.510
18905TIP3    H256593   0.487   4.380   8.475
18906TIP3   OH256594   2.258   5.324   8.943
18906TIP3    H156595   2.284   5.356   9.031
18906TIP3    H256596   2.320   5.370   8.885
18907TIP3   OH256597   2.289   5.347   9.220
18907TIP3    H156598   2.247   5.258   9.217
18907TIP3    H256599   2.366   5.327   9.275
18908TIP3   OH256600   2.151   4.533   8.421
18908TIP3    H156601   2.220   4.596   8.392
18908TIP3    H256602   2.193   4.493   8.500
18909TIP3   OH256603   2.278   4.401   8.624
18909TIP3    H156604   2.213   4.358   8.683
18909TIP3    H256605   2.343   4.438   8.687
18910TIP3   OH256606   2.328   4.786   9.061
18910TIP3    H156607   2.385   4.725   9.010
18910TIP3    H256608   2.320   4.862   9.000
18911TIP3   OH256609   2.169   5.098   9.244
18911TIP3    H156610   2.099   5.144   9.296
18911TIP3    H256611   2.116   5.053   9.175
18912TIP3   OH256612   2.218   4.308   8.271
18912TIP3    H156613   2.146   4.310   8.203
18912TIP3    H256614   2.189   4.384   8.326
18913TIP3   OH256615   2.087   3.983   8.226
18913TIP3    H156616   2.048   4.020   8.146
18913TIP3    H256617   2.061   3.889   8.217
18914TIP3   OH256618   2.093   4.257   8.772
18914TIP3    H156619   2.101   4.160   8.766
18914TIP3    H256620   2.077   4.270   8.868
18915TIP3   OH256621   2.031   3.718   8.218
18915TIP3    H156622   2.108   3.683   8.267
18915TIP3    H256623   1.960   3.654   8.235
18916TIP3   OH256624   2.089   3.974   8.666
18916TIP3    H156625   2.130   3.885   8.681
18916TIP3    H256626   2.147   4.006   8.595
18917TIP3   OH256627   2.251   4.154   9.148
18917TIP3    H156628   2.341   4.179   9.116
18917TIP3    H256629   2.260   4.172   9.242
18918TIP3   OH256630   2.197   3.724   8.703
18918TIP3    H156631   2.250   3.708   8.784
18918TIP3    H256632   2.140   3.646   8.701
18919TIP3   OH256633   2.281   3.656   8.336
18919TIP3    H156634   2.320   3.585   8.281
18919TIP3    H256635   2.347   3.727   8.328
18920TIP3   OH256636   1.843   5.189   8.601
18920TIP3    H156637   1.895   5.174   8.520
18920TIP3    H256638   1.897   5.255   8.647
18921TIP3   OH256639   1.480   5.298   9.178
18921TIP3    H156640   1.397   5.293   9.126
18921TIP3    H256641   1.463   5.380   9.229
18922TIP3   OH256642   1.725   5.223   9.272
18922TIP3    H156643   1.635   5.246   9.241
18922TIP3    H256644   1.777   5.291   9.224
18923TIP3   OH256645   1.932   5.424   9.180
18923TIP3    H156646   1.917   5.508   9.131
18923TIP3    H256647   1.960   5.363   9.108
18924TIP3   OH256648   0.896   4.965   9.121
18924TIP3    H156649   0.925   4.884   9.168
18924TIP3    H256650   0.981   5.013   9.120
18925TIP3   OH256651   1.164   5.057   9.146
18925TIP3    H156652   1.209   4.970   9.128
18925TIP3    H256653   1.179   5.068   9.241
18926TIP3   OH256654   2.268   3.601   9.154
18926TIP3    H156655   2.316   3.640   9.078
18926TIP3    H256656   2.178   3.628   9.133
18927TIP3   OH256657   2.366   3.679   8.916
18927TIP3    H156658   2.440   3.629   8.875
18927TIP3    H256659   2.399   3.771   8.903
18928TIP3   OH256660   1.994   3.577   9.089
18928TIP3    H156661   1.997   3.581   8.993
18928TIP3    H256662   2.039   3.494   9.107
18929TIP3   OH256663   2.015   3.510   8.694
18929TIP3    H156664   1.929   3.556   8.697
18929TIP3    H256665   1.994   3.427   8.741
18930TIP3   OH256666   0.902   3.453   8.654
18930TIP3    H156667   0.953   3.382   8.610
18930TIP3    H256668   0.969   3.497   8.709
18931TIP3   OH256669   1.416   3.607   8.785
18931TIP3    H156670   1.490   3.574   8.839
18931TIP3    H256671   1.425   3.703   8.805
18932TIP3   OH256672   1.269   5.038   8.275
18932TIP3    H156673   1.358   5.059   8.240
18932TIP3    H256674   1.248   4.962   8.217
18933TIP3   OH256675   1.991   5.155   8.369
18933TIP3    H156676   1.982   5.057   8.358
18933TIP3    H256677   1.943   5.186   8.289
18934TIP3   OH256678   0.591   4.881   8.373
18934TIP3    H156679   0.613   4.974   8.393
18934TIP3    H256680   0.675   4.843   8.339
18935TIP3   OH256681   3.482   4.672   8.324
18935TIP3    H156682   3.453   4.763   8.304
18935TIP3    H256683   3.407   4.622   8.290
18936TIP3   OH256684   3.480   4.672   8.704
18936TIP3    H156685   3.511   4.641   8.791
18936TIP3    H256686   3.439   4.592   8.668
18937TIP3   OH256687   2.780   4.569   9.066
18937TIP3    H156688   2.810   4.503   9.131
18937TIP3    H256689   2.856   4.628   9.063
18938TIP3   OH256690   3.724   4.974   8.385
18938TIP3    H156691   3.709   4.903   8.449
18938TIP3    H256692   3.752   5.048   8.442
18939TIP3   OH256693   2.751   4.977   8.795
18939TIP3    H156694   2.742   4.879   8.797
18939TIP3    H256695   2.847   4.985   8.791
18940TIP3   OH256696   2.458   4.181   8.581
18940TIP3    H156697   2.408   4.264   8.594
18940TIP3    H256698   2.388   4.125   8.542
18941TIP3   OH256699   2.518   4.467   8.751
18941TIP3    H156700   2.566   4.390   8.788
18941TIP3    H256701   2.576   4.493   8.677
18942TIP3   OH256702   3.372   5.436   8.402
18942TIP3    H156703   3.420   5.365   8.355
18942TIP3    H256704   3.365   5.400   8.491
18943TIP3   OH256705   3.279   4.898   8.753
18943TIP3    H156706   3.316   4.820   8.707
18943TIP3    H256707   3.364   4.942   8.776
18944TIP3   OH256708   4.292   4.218   8.751
18944TIP3    H156709   4.321   4.302   8.792
18944TIP3    H256710   4.312   4.236   8.657
18945TIP3   OH256711   3.692   4.400   8.786
18945TIP3    H156712   3.734   4.314   8.806
18945TIP3    H256713   3.661   4.384   8.695
18946TIP3   OH256714   3.028   4.059   8.752
18946TIP3    H156715   3.008   4.131   8.688
18946TIP3    H256716   2.982   3.984   8.708
18947TIP3   OH256717   3.723   4.151   8.374
18947TIP3    H156718   3.795   4.134   8.438
18947TIP3    H256719   3.774   4.184   8.298
18948TIP3   OH256720   2.663   4.261   8.858
18948TIP3    H156721   2.746   4.240   8.905
18948TIP3    H256722   2.674   4.204   8.779
18949TIP3   OH256723   3.104   4.458   8.649
18949TIP3    H156724   3.198   4.432   8.663
18949TIP3    H256725   3.065   4.374   8.618
18950TIP3   OH256726   4.367   4.427   8.919
18950TIP3    H156727   4.283   4.473   8.899
18950TIP3    H256728   4.371   4.440   9.015
18951TIP3   OH256729   3.027   4.040   9.187
18951TIP3    H156730   2.967   4.081   9.120
18951TIP3    H256731   2.968   4.034   9.264
18952TIP3   OH256732   3.376   4.894   8.193
18952TIP3    H156733   3.331   4.869   8.112
18952TIP3    H256734   3.330   4.978   8.215
18953TIP3   OH256735   3.134   4.817   8.982
18953TIP3    H156736   3.070   4.881   9.020
18953TIP3    H256737   3.174   4.869   8.909
18954TIP3   OH256738   3.934   4.151   8.544
18954TIP3    H156739   3.928   4.097   8.623
18954TIP3    H256740   3.989   4.227   8.573
18955TIP3   OH256741   2.898   4.156   8.972
18955TIP3    H156742   2.960   4.230   8.992
18955TIP3    H256743   2.945   4.115   8.895
18956TIP3   OH256744   2.960   5.010   9.079
18956TIP3    H156745   2.933   5.096   9.040
18956TIP3    H256746   2.881   4.993   9.135
18957TIP3   OH256747   2.356   4.700   8.314
18957TIP3    H156748   2.313   4.726   8.230
18957TIP3    H256749   2.386   4.785   8.350
18958TIP3   OH256750   3.796   5.216   8.555
18958TIP3    H156751   3.706   5.207   8.594
18958TIP3    H256752   3.787   5.302   8.509
18959TIP3   OH256753   4.085   4.121   8.919
18959TIP3    H156754   3.996   4.145   8.886
18959TIP3    H256755   4.143   4.149   8.845
18960TIP3   OH256756   3.385   3.758   8.899
18960TIP3    H156757   3.371   3.663   8.916
18960TIP3    H256758   3.307   3.796   8.945
18961TIP3   OH256759   3.498   5.263   8.230
18961TIP3    H156760   3.547   5.181   8.209
18961TIP3    H256761   3.558   5.328   8.187
18962TIP3   OH256762   3.640   5.049   8.133
18962TIP3    H156763   3.600   4.970   8.095
18962TIP3    H256764   3.676   5.014   8.217
18963TIP3   OH256765   4.022   5.130   8.897
18963TIP3    H156766   4.010   5.052   8.839
18963TIP3    H256767   4.004   5.204   8.836
18964TIP3   OH256768   3.313   4.525   8.154
18964TIP3    H156769   3.232   4.574   8.130
18964TIP3    H256770   3.359   4.518   8.068
18965TIP3   OH256771   3.271   4.306   7.873
18965TIP3    H156772   3.341   4.357   7.918
18965TIP3    H256773   3.326   4.242   7.824
18966TIP3   OH256774   4.217   4.768   8.743
18966TIP3    H156775   4.133   4.819   8.749
18966TIP3    H256776   4.244   4.791   8.651
18967TIP3   OH256777   3.660   4.608   8.126
18967TIP3    H156778   3.605   4.631   8.204
18967TIP3    H256779   3.743   4.579   8.170
18968TIP3   OH256780   3.895   4.646   9.037
18968TIP3    H156781   3.891   4.729   9.088
18968TIP3    H256782   3.808   4.649   8.991
18969TIP3   OH256783   2.892   4.605   8.543
18969TIP3    H156784   2.849   4.547   8.476
18969TIP3    H256785   2.969   4.550   8.571
18970TIP3   OH256786   3.023   5.017   8.691
18970TIP3    H156787   3.001   4.971   8.609
18970TIP3    H256788   3.113   4.982   8.710
18971TIP3   OH256789   3.031   4.574   8.897
18971TIP3    H156790   3.063   4.554   8.807
18971TIP3    H256791   3.073   4.660   8.916
18972TIP3   OH256792   3.554   5.212   8.674
18972TIP3    H156793   3.540   5.292   8.728
18972TIP3    H256794   3.539   5.139   8.737
18973TIP3   OH256795   3.165   5.134   9.219
18973TIP3    H156796   3.104   5.195   9.265
18973TIP3    H256797   3.100   5.079   9.171
18974TIP3   OH256798   3.500   4.465   7.952
18974TIP3    H156799   3.560   4.523   8.004
18974TIP3    H256800   3.526   4.488   7.860
18975TIP3   OH256801   2.923   4.690   9.317
18975TIP3    H156802   2.922   4.773   9.369
18975TIP3    H256803   2.830   4.661   9.331
18976TIP3   OH256804   3.243   5.144   8.227
18976TIP3    H156805   3.321   5.198   8.247
18976TIP3    H256806   3.181   5.208   8.190
18977TIP3   OH256807   2.962   5.300   9.308
18977TIP3    H156808   2.925   5.300   9.217
18977TIP3    H256809   2.884   5.274   9.362
18978TIP3   OH256810   4.017   3.705   8.002
18978TIP3    H156811   3.935   3.725   8.051
18978TIP3    H256812   4.029   3.787   7.950
18979TIP3   OH256813   2.757   4.447   8.351
18979TIP3    H156814   2.692   4.490   8.292
18979TIP3    H256815   2.719   4.359   8.360
18980TIP3   OH256816   3.812   5.074   7.549
18980TIP3    H156817   3.821   5.171   7.535
18980TIP3    H256818   3.904   5.044   7.535
18981TIP3   OH256819   2.549   4.818   9.251
18981TIP3    H156820   2.481   4.797   9.185
18981TIP3    H256821   2.585   4.730   9.274
18982TIP3   OH256822   2.393   5.021   8.891
18982TIP3    H156823   2.489   5.015   8.880
18982TIP3    H256824   2.385   5.102   8.944
18983TIP3   OH256825   4.259   5.474   8.943
18983TIP3    H156826   4.257   5.377   8.957
18983TIP3    H256827   4.175   5.499   8.988
18984TIP3   OH256828   3.365   5.260   9.078
18984TIP3    H156829   3.363   5.353   9.109
18984TIP3    H256830   3.292   5.221   9.132
18985TIP3   OH256831   3.123   5.390   8.029
18985TIP3    H156832   3.078   5.372   7.945
18985TIP3    H256833   3.091   5.480   8.052
18986TIP3   OH256834   2.562   5.239   8.414
18986TIP3    H156835   2.610   5.230   8.499
18986TIP3    H256836   2.507   5.159   8.416
18987TIP3   OH256837   3.325   5.291   7.671
18987TIP3    H156838   3.384   5.221   7.634
18987TIP3    H256839   3.360   5.298   7.762
18988TIP3   OH256840   3.376   5.339   7.941
18988TIP3    H156841   3.288   5.348   7.984
18988TIP3    H256842   3.426   5.295   8.012
18989TIP3   OH256843   4.150   4.607   9.216
18989TIP3    H156844   4.067   4.621   9.169
18989TIP3    H256845   4.164   4.511   9.204
18990TIP3   OH256846   2.742   5.012   9.244
18990TIP3    H156847   2.788   4.997   9.329
18990TIP3    H256848   2.673   4.943   9.247
18991TIP3   OH256849   3.143   3.838   9.021
18991TIP3    H156850   3.054   3.806   8.996
18991TIP3    H256851   3.119   3.922   9.064
18992TIP3   OH256852   3.695   3.960   9.217
18992TIP3    H156853   3.755   3.916   9.281
18992TIP3    H256854   3.606   3.932   9.247
18993TIP3   OH256855   3.919   4.383   9.138
18993TIP3    H156856   3.869   4.377   9.223
18993TIP3    H256857   3.892   4.471   9.104
18994TIP3   OH256858   3.578   4.518   7.699
18994TIP3    H156859   3.542   4.487   7.614
18994TIP3    H256860   3.662   4.559   7.670
18995TIP3   OH256861   3.289   3.887   7.998
18995TIP3    H156862   3.255   3.883   8.090
18995TIP3    H256863   3.251   3.803   7.964
18996TIP3   OH256864   3.076   4.352   9.047
18996TIP3    H156865   3.026   4.374   9.129
18996TIP3    H256866   3.060   4.433   8.993
18997TIP3   OH256867   2.959   4.239   8.560
18997TIP3    H156868   2.866   4.212   8.577
18997TIP3    H256869   2.973   4.199   8.472
18998TIP3   OH256870   3.451   4.326   8.288
18998TIP3    H156871   3.398   4.396   8.245
18998TIP3    H256872   3.505   4.293   8.213
18999TIP3   OH256873   3.628   4.614   9.366
18999TIP3    H156874   3.601   4.535   9.417
18999TIP3    H256875   3.722   4.621   9.391
19000TIP3   OH256876   3.607   4.354   8.527
19000TIP3    H156877   3.547   4.382   8.454
19000TIP3    H256878   3.641   4.272   8.485
19001TIP3   OH256879   2.893   4.387   9.256
19001TIP3    H156880   2.915   4.455   9.321
19001TIP3    H256881   2.838   4.327   9.307
19002TIP3   OH256882   2.945   3.859   7.964
19002TIP3    H156883   2.936   3.856   8.062
19002TIP3    H256884   2.865   3.909   7.940
19003TIP3   OH256885   2.486   3.905   8.835
19003TIP3    H156886   2.562   3.936   8.888
19003TIP3    H256887   2.527   3.871   8.754
19004TIP3   OH256888   2.462   3.885   8.356
19004TIP3    H156889   2.507   3.923   8.277
19004TIP3    H256890   2.400   3.958   8.376
19005TIP3   OH256891   3.620   4.601   8.949
19005TIP3    H156892   3.652   4.528   8.891
19005TIP3    H256893   3.590   4.549   9.026
19006TIP3   OH256894   3.287   4.065   8.623
19006TIP3    H156895   3.204   4.059   8.674
19006TIP3    H256896   3.354   4.058   8.692
19007TIP3   OH256897   2.721   4.116   8.631
19007TIP3    H156898   2.626   4.122   8.603
19007TIP3    H256899   2.745   4.024   8.606
19008TIP3   OH256900   2.991   4.115   8.318
19008TIP3    H156901   3.085   4.127   8.296
19008TIP3    H256902   2.944   4.136   8.234
19009TIP3   OH256903   3.779   4.136   8.825
19009TIP3    H156904   3.741   4.149   8.914
19009TIP3    H256905   3.715   4.074   8.786
19010TIP3   OH256906   2.830   4.148   8.097
19010TIP3    H156907   2.759   4.101   8.050
19010TIP3    H256908   2.882   4.182   8.022
19011TIP3   OH256909   3.948   5.825   9.042
19011TIP3    H156910   3.946   5.849   8.948
19011TIP3    H256911   4.025   5.875   9.074
19012TIP3   OH256912   2.893   4.936   9.471
19012TIP3    H156913   2.956   5.003   9.501
19012TIP3    H256914   2.838   4.924   9.551
19013TIP3   OH256915   3.370   4.389   8.719
19013TIP3    H156916   3.440   4.348   8.666
19013TIP3    H256917   3.382   4.345   8.805
19014TIP3   OH256918   2.894   3.877   8.596
19014TIP3    H156919   2.861   3.797   8.642
19014TIP3    H256920   2.945   3.838   8.524
19015TIP3   OH256921   3.345   4.279   9.017
19015TIP3    H156922   3.257   4.320   9.024
19015TIP3    H256923   3.404   4.345   9.060
19016TIP3   OH256924   3.081   4.678   8.102
19016TIP3    H156925   3.011   4.610   8.093
19016TIP3    H256926   3.064   4.710   8.195
19017TIP3   OH256927   3.984   4.912   8.734
19017TIP3    H156928   4.007   4.961   8.652
19017TIP3    H256929   3.898   4.870   8.710
19018TIP3   OH256930   3.542   3.987   7.970
19018TIP3    H156931   3.445   3.970   7.974
19018TIP3    H256932   3.550   4.082   7.988
19019TIP3   OH256933   3.485   4.995   9.101
19019TIP3    H156934   3.505   4.971   9.192
19019TIP3    H256935   3.445   5.083   9.110
19020TIP3   OH256936   3.610   4.237   8.071
19020TIP3    H156937   3.707   4.241   8.083
19020TIP3    H256938   3.593   4.314   8.014
19021TIP3   OH256939   2.776   4.699   8.781
19021TIP3    H156940   2.814   4.669   8.695
19021TIP3    H256941   2.813   4.634   8.843
19022TIP3   OH256942   3.228   4.826   7.925
19022TIP3    H156943   3.181   4.912   7.933
19022TIP3    H256944   3.174   4.769   7.984
19023TIP3   OH256945   2.668   4.599   9.381
19023TIP3    H156946   2.642   4.630   9.470
19023TIP3    H256947   2.591   4.544   9.355
19024TIP3   OH256948   3.377   4.731   9.404
19024TIP3    H156949   3.320   4.669   9.356
19024TIP3    H256950   3.466   4.701   9.377
19025TIP3   OH256951   3.644   5.256   8.995
19025TIP3    H156952   3.548   5.251   9.008
19025TIP3    H256953   3.671   5.307   9.074
19026TIP3   OH256954   4.054   4.324   7.905
19026TIP3    H156955   3.991   4.279   7.844
19026TIP3    H256956   4.051   4.412   7.863
19027TIP3   OH256957   4.272   5.183   8.986
19027TIP3    H156958   4.174   5.178   8.979
19027TIP3    H256959   4.297   5.153   8.896
19028TIP3   OH256960   3.757   5.144   7.816
19028TIP3    H156961   3.725   5.075   7.876
19028TIP3    H256962   3.763   5.097   7.730
19029TIP3   OH256963   3.749   4.774   8.653
19029TIP3    H156964   3.656   4.748   8.666
19029TIP3    H256965   3.783   4.694   8.608
19030TIP3   OH256966   2.875   5.001   8.404
19030TIP3    H156967   2.875   5.082   8.351
19030TIP3    H256968   2.781   4.985   8.414
19031TIP3   OH256969   2.439   4.306   8.107
19031TIP3    H156970   2.485   4.390   8.129
19031TIP3    H256971   2.362   4.311   8.168
19032TIP3   OH256972   3.017   4.768   8.350
19032TIP3    H156973   2.980   4.857   8.368
19032TIP3    H256974   2.980   4.717   8.424
19033TIP3   OH256975   3.144   5.346   8.874
19033TIP3    H156976   3.185   5.419   8.824
19033TIP3    H256977   3.221   5.311   8.922
19034TIP3   OH256978   2.794   5.242   8.255
19034TIP3    H156979   2.709   5.248   8.303
19034TIP3    H256980   2.826   5.334   8.260
19035TIP3   OH256981   3.535   4.980   8.832
19035TIP3    H156982   3.525   4.978   8.930
19035TIP3    H256983   3.613   4.925   8.819
19036TIP3   OH256984   3.507   4.876   7.714
19036TIP3    H156985   3.560   4.849   7.793
19036TIP3    H256986   3.419   4.844   7.741
19037TIP3   OH256987   3.783   5.514   8.884
19037TIP3    H156988   3.704   5.456   8.877
19037TIP3    H256989   3.766   5.578   8.811
19038TIP3   OH256990   3.849   5.349   7.536
19038TIP3    H156991   3.887   5.421   7.483
19038TIP3    H256992   3.768   5.395   7.567
19039TIP3   OH256993   3.667   4.809   7.932
19039TIP3    H156994   3.656   4.741   8.002
19039TIP3    H256995   3.764   4.805   7.920
19040TIP3   OH256996   2.583   5.208   9.034
19040TIP3    H156997   2.637   5.135   9.066
19040TIP3    H256998   2.612   5.280   9.092
19041TIP3   OH256999   2.871   4.854   7.715
19041TIP3    H157000   2.888   4.764   7.683
19041TIP3    H257001   2.855   4.839   7.810
19042TIP3   OH257002   2.818   4.859   7.989
19042TIP3    H157003   2.891   4.827   8.044
19042TIP3    H257004   2.827   4.956   7.997
19043TIP3   OH257005   2.557   4.552   8.190
19043TIP3    H157006   2.490   4.596   8.247
19043TIP3    H257007   2.571   4.622   8.123
19044TIP3   OH257008   3.702   4.197   9.083
19044TIP3    H157009   3.786   4.233   9.117
19044TIP3    H257010   3.694   4.113   9.134
19045TIP3   OH257011   3.581   3.942   8.248
19045TIP3    H157012   3.568   3.962   8.153
19045TIP3    H257013   3.621   4.024   8.281
19046TIP3   OH257014   3.085   5.055   7.937
19046TIP3    H157015   2.999   5.084   7.973
19046TIP3    H257016   3.101   5.122   7.870
19047TIP3   OH257017   3.274   4.119   8.349
19047TIP3    H157018   3.340   4.190   8.331
19047TIP3    H257019   3.279   4.113   8.447
19048TIP3   OH257020   3.541   4.438   9.152
19048TIP3    H157021   3.559   4.489   9.233
19048TIP3    H257022   3.597   4.359   9.163
19049TIP3   OH257023   3.419   3.848   8.453
19049TIP3    H157024   3.412   3.926   8.511
19049TIP3    H257025   3.478   3.883   8.383
19050TIP3   OH257026   2.829   5.133   8.003
19050TIP3    H157027   2.796   5.202   7.942
19050TIP3    H257028   2.813   5.173   8.091
19051TIP3   OH257029   2.928   3.844   8.242
19051TIP3    H157030   2.928   3.934   8.278
19051TIP3    H257031   3.024   3.824   8.249
19052TIP3   OH257032   4.183   4.338   9.132
19052TIP3    H157033   4.085   4.340   9.142
19052TIP3    H257034   4.189   4.289   9.048
19053TIP3   OH257035   3.834   4.533   8.526
19053TIP3    H157036   3.758   4.473   8.536
19053TIP3    H257037   3.906   4.485   8.573
19054TIP3   OH257038   2.547   4.764   7.994
19054TIP3    H157039   2.618   4.830   8.006
19054TIP3    H257040   2.591   4.705   7.928
19055TIP3   OH257041   2.491   4.037   8.131
19055TIP3    H157042   2.489   4.134   8.125
19055TIP3    H257043   2.412   4.012   8.083
19056TIP3   OH257044   3.803   5.488   8.476
19056TIP3    H157045   3.760   5.534   8.400
19056TIP3    H257046   3.897   5.507   8.455
19057TIP3   OH257047   2.878   3.762   9.002
19057TIP3    H157048   2.848   3.727   8.915
19057TIP3    H257049   2.870   3.682   9.059
19058TIP3   OH257050   2.421   4.980   8.385
19058TIP3    H157051   2.346   5.007   8.439
19058TIP3    H257052   2.394   5.016   8.297
19059TIP3   OH257053   2.578   5.515   9.429
19059TIP3    H157054   2.654   5.498   9.487
19059TIP3    H257055   2.532   5.429   9.433
19060TIP3   OH257056   3.061   5.472   9.507
19060TIP3    H157057   3.157   5.458   9.501
19060TIP3    H257058   3.030   5.418   9.431
19061TIP3   OH257059   3.038   5.057   7.630
19061TIP3    H157060   2.982   4.984   7.666
19061TIP3    H257061   3.113   5.005   7.595
19062TIP3   OH257062   3.694   5.389   9.232
19062TIP3    H157063   3.686   5.317   9.299
19062TIP3    H257064   3.774   5.437   9.263
19063TIP3   OH257065   3.475   5.100   7.540
19063TIP3    H157066   3.515   5.032   7.597
19063TIP3    H257067   3.530   5.097   7.460
19064TIP3   OH257068   2.682   4.577   7.848
19064TIP3    H157069   2.736   4.538   7.919
19064TIP3    H257070   2.749   4.579   7.776
19065TIP3   OH257071   3.327   5.004   9.408
19065TIP3    H157072   3.277   5.014   9.325
19065TIP3    H257073   3.350   4.909   9.408
19066TIP3   OH257074   3.189   4.773   7.656
19066TIP3    H157075   3.194   4.784   7.753
19066TIP3    H257076   3.192   4.675   7.649
19067TIP3   OH257077   3.806   5.015   9.034
19067TIP3    H157078   3.879   5.062   8.990
19067TIP3    H257079   3.733   5.078   9.021
19068TIP3   OH257080   2.892   4.477   8.072
19068TIP3    H157081   2.865   4.432   8.153
19068TIP3    H257082   2.928   4.402   8.019
19069TIP3   OH257083   3.163   4.541   9.303
19069TIP3    H157084   3.085   4.600   9.305
19069TIP3    H257085   3.209   4.572   9.222
19070TIP3   OH257086   2.990   4.272   7.911
19070TIP3    H157087   2.964   4.272   7.817
19070TIP3    H257088   3.088   4.275   7.904
19071TIP3   OH257089   3.676   4.945   9.427
19071TIP3    H157090   3.758   4.924   9.379
19071TIP3    H257091   3.679   4.879   9.499
19072TIP3   OH257092   3.815   4.604   7.573
19072TIP3    H157093   3.795   4.554   7.491
19072TIP3    H257094   3.779   4.692   7.546
19073TIP3   OH257095   3.260   4.311   9.435
19073TIP3    H157096   3.265   4.245   9.364
19073TIP3    H257097   3.220   4.388   9.389
19074TIP3   OH257098   3.284   4.113   9.235
19074TIP3    H157099   3.312   4.159   9.154
19074TIP3    H257100   3.191   4.092   9.214
19075TIP3   OH257101   3.313   4.651   9.104
19075TIP3    H157102   3.396   4.660   9.055
19075TIP3    H257103   3.256   4.718   9.061
19076TIP3   OH257104   3.902   4.607   9.478
19076TIP3    H157105   3.951   4.524   9.493
19076TIP3    H257106   3.974   4.668   9.454
19077TIP3   OH257107   3.936   4.872   9.222
19077TIP3    H157108   3.878   4.925   9.163
19077TIP3    H257109   4.023   4.892   9.182
19078TIP3   OH257110   3.438   3.880   9.243
19078TIP3    H157111   3.382   3.959   9.232
19078TIP3    H257112   3.370   3.812   9.263
19079TIP3   OH257113   3.524   4.386   9.467
19079TIP3    H157114   3.557   4.321   9.532
19079TIP3    H257115   3.430   4.360   9.458
19080TIP3   OH257116   3.789   4.331   9.366
19080TIP3    H157117   3.707   4.328   9.419
19080TIP3    H257118   3.856   4.315   9.434
19081TIP3   OH257119   4.010   4.319   9.551
19081TIP3    H157120   4.021   4.223   9.532
19081TIP3    H257121   3.997   4.318   9.647
19082TIP3   OH257122   3.589   3.786   9.511
19082TIP3    H157123   3.653   3.847   9.472
19082TIP3    H257124   3.503   3.823   9.484
19083TIP3   OH257125   2.797   5.334   7.813
19083TIP3    H157126   2.894   5.323   7.805
19083TIP3    H257127   2.783   5.391   7.734
19084TIP3   OH257128   2.278   4.715   8.031
19084TIP3    H157129   2.373   4.735   8.017
19084TIP3    H257130   2.271   4.626   7.991
19085TIP3   OH257131   2.193   5.328   8.443
19085TIP3    H157132   2.125   5.266   8.409
19085TIP3    H257133   2.237   5.272   8.511
19086TIP3   OH257134   2.327   5.182   8.632
19086TIP3    H157135   2.315   5.107   8.692
19086TIP3    H257136   2.379   5.242   8.689
19087TIP3   OH257137   4.055   5.580   8.430
19087TIP3    H157138   4.080   5.612   8.519
19087TIP3    H257139   4.117   5.627   8.373
19088TIP3   OH257140   4.085   5.599   8.712
19088TIP3    H157141   4.041   5.511   8.709
19088TIP3    H257142   4.160   5.579   8.770
19089TIP3   OH257143   4.132   5.276   9.287
19089TIP3    H157144   4.057   5.284   9.349
19089TIP3    H257145   4.172   5.365   9.292
19090TIP3   OH257146   3.948   4.791   7.909
19090TIP3    H157147   4.020   4.852   7.884
19090TIP3    H257148   3.987   4.748   7.988
19091TIP3   OH257149   4.074   4.658   8.112
19091TIP3    H157150   4.008   4.613   8.169
19091TIP3    H257151   4.137   4.695   8.177
19092TIP3   OH257152   4.130   5.049   8.544
19092TIP3    H157153   4.182   4.984   8.493
19092TIP3    H257154   4.119   5.122   8.479
19093TIP3   OH257155   3.961   5.349   8.738
19093TIP3    H157156   3.890   5.391   8.790
19093TIP3    H257157   3.910   5.301   8.669
19094TIP3   OH257158   4.014   4.567   7.757
19094TIP3    H157159   3.942   4.566   7.690
19094TIP3    H257160   3.983   4.641   7.812
19095TIP3   OH257161   3.881   4.243   7.713
19095TIP3    H157162   3.846   4.271   7.627
19095TIP3    H257163   3.857   4.148   7.712
19096TIP3   OH257164   3.891   4.512   8.256
19096TIP3    H157165   3.896   4.415   8.249
19096TIP3    H257166   3.876   4.525   8.353
19097TIP3   OH257167   2.515   4.592   8.999
19097TIP3    H157168   2.514   4.559   8.906
19097TIP3    H257169   2.612   4.590   9.017
19098TIP3   OH257170   4.178   4.938   9.113
19098TIP3    H157171   4.251   4.872   9.105
19098TIP3    H257172   4.205   5.008   9.052
19099TIP3   OH257173   4.365   4.746   9.130
19099TIP3    H157174   4.290   4.696   9.169
19099TIP3    H257175   4.437   4.681   9.146
19100TIP3   OH257176   3.823   3.981   7.716
19100TIP3    H157177   3.901   3.938   7.755
19100TIP3    H257178   3.754   3.912   7.721
19101TIP3   OH257179   3.887   4.230   8.153
19101TIP3    H157180   3.925   4.140   8.169
19101TIP3    H257181   3.944   4.259   8.080
19102TIP3   OH257182   4.048   4.404   8.647
19102TIP3    H157183   4.134   4.430   8.607
19102TIP3    H257184   4.061   4.440   8.737
19103TIP3   OH257185   4.116   4.547   8.879
19103TIP3    H157186   4.038   4.580   8.928
19103TIP3    H257187   4.148   4.629   8.835
19104TIP3   OH257188   4.569   4.153   9.424
19104TIP3    H157189   4.624   4.083   9.383
19104TIP3    H257190   4.538   4.204   9.346
19105TIP3   OH257191   3.993   3.979   8.191
19105TIP3    H157192   4.041   3.961   8.275
19105TIP3    H257193   3.933   3.902   8.188
19106TIP3   OH257194   2.693   3.968   9.008
19106TIP3    H157195   2.752   3.890   9.017
19106TIP3    H257196   2.758   4.040   8.999
19107TIP3   OH257197   2.502   4.238   9.086
19107TIP3    H157198   2.550   4.234   9.001
19107TIP3    H257199   2.528   4.325   9.120
19108TIP3   OH257200   4.438   4.284   9.228
19108TIP3    H157201   4.351   4.320   9.255
19108TIP3    H257202   4.407   4.208   9.175
19109TIP3   OH257203   4.080   3.912   7.824
19109TIP3    H157204   4.113   3.840   7.766
19109TIP3    H257205   4.143   3.983   7.806
19110TIP3   OH257206   2.480   3.745   8.585
19110TIP3    H157207   2.385   3.742   8.607
19110TIP3    H257208   2.480   3.802   8.505
19111TIP3   OH257209   3.638   5.446   8.088
19111TIP3    H157210   3.691   5.432   8.007
19111TIP3    H257211   3.692   5.511   8.136
19112TIP3   OH257212   2.747   5.243   9.476
19112TIP3    H157213   2.655   5.228   9.451
19112TIP3    H257214   2.740   5.272   9.568
19113TIP3   OH257215   2.917   5.281   9.022
19113TIP3    H157216   2.869   5.357   8.983
19113TIP3    H257217   3.003   5.295   8.978
19114TIP3   OH257218   3.364   5.526   9.158
19114TIP3    H157219   3.406   5.529   9.246
19114TIP3    H257220   3.430   5.577   9.105
19115TIP3   OH257221   3.543   5.678   9.018
19115TIP3    H157222   3.615   5.627   8.977
19115TIP3    H257223   3.594   5.736   9.079
19116TIP3   OH257224   4.339   4.039   9.118
19116TIP3    H157225   4.248   4.032   9.086
19116TIP3    H257226   4.370   3.946   9.106
19117TIP3   OH257227   2.597   5.537   9.047
19117TIP3    H157228   2.508   5.572   9.023
19117TIP3    H257229   2.608   5.578   9.134
19118TIP3   OH257230   2.831   5.517   8.903
19118TIP3    H157231   2.746   5.530   8.949
19118TIP3    H257232   2.811   5.551   8.814
19119TIP3   OH257233   3.258   5.547   8.700
19119TIP3    H157234   3.188   5.568   8.636
19119TIP3    H257235   3.270   5.634   8.744
19120TIP3   OH257236   3.526   5.487   8.752
19120TIP3    H157237   3.431   5.503   8.732
19120TIP3    H257238   3.568   5.564   8.712
19121TIP3   OH257239   3.735   5.679   8.669
19121TIP3    H157240   3.720   5.763   8.621
19121TIP3    H257241   3.760   5.618   8.596
19122TIP3   OH257242   2.507   5.333   8.790
19122TIP3    H157243   2.532   5.308   8.882
19122TIP3    H257244   2.579   5.289   8.741
19123TIP3   OH257245   2.700   5.204   8.647
19123TIP3    H157246   2.716   5.120   8.696
19123TIP3    H257247   2.791   5.240   8.643
19124TIP3   OH257248   2.967   5.300   8.649
19124TIP3    H157249   2.998   5.208   8.637
19124TIP3    H257250   3.009   5.321   8.734
19125TIP3   OH257251   3.541   3.955   8.739
19125TIP3    H157252   3.499   3.885   8.791
19125TIP3    H257253   3.612   3.907   8.692
19126TIP3   OH257254   4.066   3.841   8.646
19126TIP3    H157255   4.102   3.889   8.568
19126TIP3    H257256   3.970   3.852   8.635
19127TIP3   OH257257   4.161   3.938   8.408
19127TIP3    H157258   4.233   3.886   8.367
19127TIP3    H257259   4.193   4.030   8.391
19128TIP3   OH257260   2.791   3.665   8.754
19128TIP3    H157261   2.700   3.631   8.754
19128TIP3    H257262   2.841   3.580   8.753
19129TIP3   OH257263   2.577   3.533   8.402
19129TIP3    H157264   2.608   3.589   8.329
19129TIP3    H257265   2.549   3.600   8.468
19130TIP3   OH257266   3.232   3.700   8.635
19130TIP3    H157267   3.293   3.746   8.575
19130TIP3    H257268   3.259   3.733   8.721
19131TIP3   OH257269   3.784   3.843   8.617
19131TIP3    H157270   3.780   3.805   8.529
19131TIP3    H257271   3.770   3.763   8.674
19132TIP3   OH257272   3.812   3.765   8.181
19132TIP3    H157273   3.723   3.805   8.188
19132TIP3    H257274   3.797   3.680   8.228
19133TIP3   OH257275   2.296   5.101   8.179
19133TIP3    H157276   2.210   5.067   8.147
19133TIP3    H257277   2.280   5.196   8.170
19134TIP3   OH257278   2.694   3.692   8.167
19134TIP3    H157279   2.742   3.630   8.109
19134TIP3    H257280   2.767   3.746   8.202
19135TIP3   OH257281   3.206   3.869   8.264
19135TIP3    H157282   3.265   3.820   8.323
19135TIP3    H257283   3.230   3.961   8.290
19136TIP3   OH257284   3.064   5.296   7.761
19136TIP3    H157285   3.154   5.316   7.728
19136TIP3    H257286   3.045   5.218   7.703
19137TIP3   OH257287   3.786   5.412   7.856
19137TIP3    H157288   3.779   5.314   7.845
19137TIP3    H257289   3.741   5.443   7.775
19138TIP3   OH257290   2.392   5.176   7.811
19138TIP3    H157291   2.365   5.158   7.903
19138TIP3    H257292   2.462   5.109   7.798
19139TIP3   OH257293   4.051   4.050   9.500
19139TIP3    H157294   4.070   3.995   9.579
19139TIP3    H257295   4.138   4.043   9.456
19140TIP3   OH257296   4.013   5.556   9.043
19140TIP3    H157297   3.934   5.524   8.996
19140TIP3    H257298   3.993   5.652   9.048
19141TIP3   OH257299   5.276   4.925   7.815
19141TIP3    H157300   5.253   5.018   7.798
19141TIP3    H257301   5.200   4.880   7.775
19142TIP3   OH257302   5.275   4.926   8.188
19142TIP3    H157303   5.306   4.900   8.277
19142TIP3    H257304   5.235   4.844   8.156
19143TIP3   OH257305   4.578   4.824   8.554
19143TIP3    H157306   4.608   4.757   8.617
19143TIP3    H257307   4.655   4.883   8.552
19144TIP3   OH257308   5.515   5.228   7.869
19144TIP3    H157309   5.504   5.167   7.944
19144TIP3    H257310   5.534   5.312   7.914
19145TIP3   OH257311   4.547   5.234   8.281
19145TIP3    H157312   4.539   5.136   8.285
19145TIP3    H257313   4.643   5.243   8.279
19146TIP3   OH257314   4.255   4.441   8.067
19146TIP3    H157315   4.201   4.521   8.080
19146TIP3    H257316   4.189   4.380   8.032
19147TIP3   OH257317   4.315   4.725   8.239
19147TIP3    H157318   4.361   4.646   8.277
19147TIP3    H257319   4.370   4.745   8.163
19148TIP3   OH257320   5.074   5.151   8.238
19148TIP3    H157321   5.116   5.076   8.192
19148TIP3    H257322   5.156   5.196   8.267
19149TIP3   OH257323   6.088   4.476   8.234
19149TIP3    H157324   6.116   4.561   8.272
19149TIP3    H257325   6.111   4.489   8.140
19150TIP3   OH257326   5.489   4.654   8.274
19150TIP3    H157327   5.531   4.568   8.291
19150TIP3    H257328   5.457   4.641   8.183
19151TIP3   OH257329   4.827   4.316   8.237
19151TIP3    H157330   4.803   4.387   8.174
19151TIP3    H257331   4.780   4.241   8.194
19152TIP3   OH257332   5.519   4.407   7.859
19152TIP3    H157333   5.591   4.391   7.924
19152TIP3    H257334   5.571   4.442   7.784
19153TIP3   OH257335   4.459   4.517   8.344
19153TIP3    H157336   4.542   4.495   8.392
19153TIP3    H257337   4.469   4.459   8.265
19154TIP3   OH257338   4.901   4.715   8.133
19154TIP3    H157339   4.994   4.689   8.150
19154TIP3    H257340   4.861   4.630   8.105
19155TIP3   OH257341   6.162   4.680   8.417
19155TIP3    H157342   6.080   4.727   8.391
19155TIP3    H257343   6.190   4.733   8.494
19156TIP3   OH257344   4.823   4.299   8.672
19156TIP3    H157345   4.762   4.334   8.605
19156TIP3    H257346   4.771   4.315   8.754
19157TIP3   OH257347   5.159   5.144   7.683
19157TIP3    H157348   5.140   5.146   7.588
19157TIP3    H257349   5.138   5.236   7.708
19158TIP3   OH257350   4.929   5.073   8.469
19158TIP3    H157351   4.866   5.139   8.506
19158TIP3    H257352   4.971   5.124   8.397
19159TIP3   OH257353   5.730   4.407   8.030
19159TIP3    H157354   5.724   4.355   8.111
19159TIP3    H257355   5.784   4.483   8.058
19160TIP3   OH257356   4.693   4.413   8.456
19160TIP3    H157357   4.756   4.485   8.479
19160TIP3    H257358   4.742   4.372   8.381
19161TIP3   OH257359   4.756   5.267   8.564
19161TIP3    H157360   4.731   5.354   8.526
19161TIP3    H257361   4.677   5.252   8.621
19162TIP3   OH257362   4.160   4.958   7.796
19162TIP3    H157363   4.100   4.983   7.724
19162TIP3    H257364   4.182   5.045   7.836
19163TIP3   OH257365   5.598   5.470   8.036
19163TIP3    H157366   5.514   5.460   8.087
19163TIP3    H257367   5.579   5.555   7.990
19164TIP3   OH257368   5.875   4.372   8.398
19164TIP3    H157369   5.786   4.399   8.369
19164TIP3    H257370   5.932   4.406   8.326
19165TIP3   OH257371   5.182   4.017   8.389
19165TIP3    H157372   5.166   3.921   8.404
19165TIP3    H257373   5.103   4.055   8.433
19166TIP3   OH257374   5.457   5.292   7.591
19166TIP3    H157375   5.396   5.219   7.579
19166TIP3    H257376   5.473   5.289   7.687
19167TIP3   OH257377   5.818   5.386   8.385
19167TIP3    H157378   5.805   5.309   8.324
19167TIP3    H257379   5.796   5.461   8.326
19168TIP3   OH257380   5.106   4.784   7.636
19168TIP3    H157381   5.034   4.828   7.589
19168TIP3    H257382   5.170   4.771   7.562
19169TIP3   OH257383   5.069   4.562   7.365
19169TIP3    H157384   5.140   4.615   7.405
19169TIP3    H257385   5.123   4.500   7.312
19170TIP3   OH257386   6.013   5.022   8.230
19170TIP3    H157387   5.929   5.074   8.234
19170TIP3    H257388   6.043   5.046   8.140
19171TIP3   OH257389   5.454   4.859   7.617
19171TIP3    H157390   5.404   4.887   7.696
19171TIP3    H257391   5.540   4.837   7.657
19172TIP3   OH257392   5.691   4.902   8.522
19172TIP3    H157393   5.687   4.988   8.569
19172TIP3    H257394   5.604   4.904   8.477
19173TIP3   OH257395   4.692   4.860   8.029
19173TIP3    H157396   4.646   4.797   7.969
19173TIP3    H257397   4.766   4.804   8.063
19174TIP3   OH257398   4.819   5.269   8.180
19174TIP3    H157399   4.803   5.217   8.102
19174TIP3    H257400   4.911   5.243   8.202
19175TIP3   OH257401   4.828   4.830   8.384
19175TIP3    H157402   4.861   4.812   8.294
19175TIP3    H257403   4.869   4.917   8.405
19176TIP3   OH257404   5.380   5.462   8.188
19176TIP3    H157405   5.326   5.541   8.203
19176TIP3    H257406   5.336   5.393   8.240
19177TIP3   OH257407   4.961   5.386   8.711
19177TIP3    H157408   4.901   5.450   8.755
19177TIP3    H257409   4.896   5.334   8.660
19178TIP3   OH257410   5.294   4.721   7.442
19178TIP3    H157411   5.357   4.779   7.491
19178TIP3    H257412   5.320   4.744   7.349
19179TIP3   OH257413   4.716   4.943   8.809
19179TIP3    H157414   4.721   5.030   8.853
19179TIP3    H257415   4.621   4.924   8.819
19180TIP3   OH257416   5.059   5.409   7.719
19180TIP3    H157417   5.124   5.466   7.766
19180TIP3    H257418   4.999   5.476   7.685
19181TIP3   OH257419   4.757   5.557   8.795
19181TIP3    H157420   4.722   5.556   8.704
19181TIP3    H257421   4.677   5.535   8.848
19182TIP3   OH257422   4.557   4.702   7.837
19182TIP3    H157423   4.486   4.742   7.783
19182TIP3    H257424   4.522   4.614   7.853
19183TIP3   OH257425   5.610   5.328   7.033
19183TIP3    H157426   5.618   5.425   7.022
19183TIP3    H257427   5.703   5.299   7.022
19184TIP3   OH257428   4.336   5.086   8.742
19184TIP3    H157429   4.269   5.064   8.674
19184TIP3    H257430   4.372   4.998   8.766
19185TIP3   OH257431   4.189   5.282   8.372
19185TIP3    H157432   4.285   5.275   8.367
19185TIP3    H257433   4.178   5.359   8.429
19186TIP3   OH257434   6.055   5.731   8.431
19186TIP3    H157435   6.052   5.635   8.442
19186TIP3    H257436   5.971   5.757   8.475
19187TIP3   OH257437   5.160   5.516   8.565
19187TIP3    H157438   5.160   5.609   8.596
19187TIP3    H257439   5.089   5.477   8.621
19188TIP3   OH257440   4.915   5.643   7.518
19188TIP3    H157441   4.877   5.628   7.429
19188TIP3    H257442   4.889   5.735   7.538
19189TIP3   OH257443   4.357   5.497   7.901
19189TIP3    H157444   4.407   5.488   7.985
19189TIP3    H257445   4.295   5.423   7.909
19190TIP3   OH257446   5.122   5.546   7.159
19190TIP3    H157447   5.182   5.477   7.123
19190TIP3    H257448   5.157   5.557   7.250
19191TIP3   OH257449   5.173   5.594   7.431
19191TIP3    H157450   5.088   5.601   7.479
19191TIP3    H257451   5.234   5.577   7.505
19192TIP3   OH257452   5.945   4.859   8.704
19192TIP3    H157453   5.865   4.880   8.654
19192TIP3    H257454   5.948   4.762   8.695
19193TIP3   OH257455   4.541   5.269   8.730
19193TIP3    H157456   4.590   5.253   8.813
19193TIP3    H257457   4.466   5.206   8.738
19194TIP3   OH257458   4.940   4.095   8.511
19194TIP3    H157459   4.852   4.062   8.486
19194TIP3    H257460   4.914   4.176   8.559
19195TIP3   OH257461   5.471   4.211   8.709
19195TIP3    H157462   5.537   4.180   8.774
19195TIP3    H257463   5.386   4.189   8.752
19196TIP3   OH257464   5.725   4.643   8.633
19196TIP3    H157465   5.668   4.638   8.713
19196TIP3    H257466   5.694   4.726   8.591
19197TIP3   OH257467   5.371   4.767   7.186
19197TIP3    H157468   5.339   4.743   7.097
19197TIP3    H257469   5.453   4.815   7.163
19198TIP3   OH257470   5.093   4.135   7.486
19198TIP3    H157471   5.056   4.137   7.577
19198TIP3    H257472   5.042   4.058   7.451
19199TIP3   OH257473   4.873   4.609   8.534
19199TIP3    H157474   4.820   4.628   8.614
19199TIP3    H257475   4.857   4.690   8.480
19200TIP3   OH257476   4.753   4.496   8.046
19200TIP3    H157477   4.661   4.466   8.065
19200TIP3    H257478   4.767   4.455   7.958
19201TIP3   OH257479   5.246   4.582   7.772
19201TIP3    H157480   5.193   4.653   7.731
19201TIP3    H257481   5.302   4.552   7.698
19202TIP3   OH257482   5.421   4.859   8.860
19202TIP3    H157483   5.399   4.787   8.922
19202TIP3    H257484   5.515   4.875   8.882
19203TIP3   OH257485   5.404   4.610   8.015
19203TIP3    H157486   5.346   4.644   7.944
19203TIP3    H257487   5.436   4.529   7.971
19204TIP3   OH257488   4.692   4.638   8.741
19204TIP3    H157489   4.709   4.703   8.811
19204TIP3    H257490   4.678   4.556   8.792
19205TIP3   OH257491   4.747   4.120   7.452
19205TIP3    H157492   4.731   4.111   7.548
19205TIP3    H257493   4.663   4.159   7.423
19206TIP3   OH257494   4.282   4.165   8.322
19206TIP3    H157495   4.362   4.189   8.373
19206TIP3    H257496   4.315   4.125   8.241
19207TIP3   OH257497   4.263   4.145   7.846
19207TIP3    H157498   4.303   4.181   7.764
19207TIP3    H257499   4.197   4.214   7.864
19208TIP3   OH257500   5.416   4.855   8.438
19208TIP3    H157501   5.447   4.783   8.379
19208TIP3    H257502   5.384   4.802   8.514
19209TIP3   OH257503   5.083   4.318   8.109
19209TIP3    H157504   4.999   4.314   8.158
19209TIP3    H257505   5.148   4.318   8.181
19210TIP3   OH257506   4.517   4.372   8.115
19210TIP3    H157507   4.422   4.380   8.089
19210TIP3    H257508   4.537   4.279   8.094
19211TIP3   OH257509   4.788   4.374   7.804
19211TIP3    H157510   4.882   4.383   7.780
19211TIP3    H257511   4.740   4.393   7.720
19212TIP3   OH257512   5.577   4.390   8.313
19212TIP3    H157513   5.539   4.404   8.402
19212TIP3    H257514   5.512   4.330   8.274
19213TIP3   OH257515   4.625   4.412   7.585
19213TIP3    H157516   4.555   4.359   7.544
19213TIP3    H257517   4.675   4.439   7.506
19214TIP3   OH257518   5.744   6.081   8.528
19214TIP3    H157519   5.741   6.104   8.434
19214TIP3    H257520   5.822   6.131   8.559
19215TIP3   OH257521   4.702   5.191   8.950
19215TIP3    H157522   4.781   5.223   8.998
19215TIP3    H257523   4.637   5.190   9.023
19216TIP3   OH257524   5.165   4.644   8.205
19216TIP3    H157525   5.238   4.605   8.155
19216TIP3    H257526   5.175   4.603   8.293
19217TIP3   OH257527   4.693   4.132   8.085
19217TIP3    H157528   4.655   4.054   8.131
19217TIP3    H257529   4.736   4.090   8.009
19218TIP3   OH257530   5.143   4.540   8.496
19218TIP3    H157531   5.052   4.576   8.509
19218TIP3    H257532   5.198   4.603   8.547
19219TIP3   OH257533   4.849   4.947   7.576
19219TIP3    H157534   4.819   4.853   7.572
19219TIP3    H257535   4.882   4.956   7.668
19220TIP3   OH257536   5.781   5.166   8.221
19220TIP3    H157537   5.804   5.218   8.141
19220TIP3    H257538   5.694   5.127   8.197
19221TIP3   OH257539   5.335   4.249   7.427
19221TIP3    H157540   5.241   4.230   7.452
19221TIP3    H257541   5.349   4.339   7.464
19222TIP3   OH257542   5.275   5.248   8.594
19222TIP3    H157543   5.299   5.236   8.687
19222TIP3    H257544   5.244   5.340   8.592
19223TIP3   OH257545   5.408   4.489   7.553
19223TIP3    H157546   5.505   4.495   7.568
19223TIP3    H257547   5.391   4.568   7.499
19224TIP3   OH257548   4.574   4.956   8.268
19224TIP3    H157549   4.611   4.924   8.184
19224TIP3    H257550   4.606   4.891   8.332
19225TIP3   OH257551   5.025   5.082   7.413
19225TIP3    H157552   4.982   5.171   7.412
19225TIP3    H257553   4.961   5.034   7.468
19226TIP3   OH257554   4.452   4.873   8.878
19226TIP3    H157555   4.468   4.859   8.974
19226TIP3    H257556   4.381   4.809   8.861
19227TIP3   OH257557   5.176   4.986   8.904
19227TIP3    H157558   5.115   4.931   8.852
19227TIP3    H257559   5.262   4.955   8.870
19228TIP3   OH257560   5.443   5.496   8.498
19228TIP3    H157561   5.347   5.508   8.493
19228TIP3    H257562   5.467   5.559   8.569
19229TIP3   OH257563   5.842   4.579   7.408
19229TIP3    H157564   5.790   4.529   7.342
19229TIP3    H257565   5.851   4.662   7.356
19230TIP3   OH257566   6.068   5.438   8.473
19230TIP3    H157567   5.970   5.435   8.464
19230TIP3    H257568   6.094   5.409   8.383
19231TIP3   OH257569   5.548   5.401   7.302
19231TIP3    H157570   5.520   5.339   7.372
19231TIP3    H257571   5.558   5.344   7.223
19232TIP3   OH257572   5.546   5.028   8.145
19232TIP3    H157573   5.452   5.006   8.154
19232TIP3    H257574   5.579   4.951   8.095
19233TIP3   OH257575   4.659   5.254   7.872
19233TIP3    H157576   4.666   5.341   7.827
19233TIP3    H257577   4.573   5.263   7.914
19234TIP3   OH257578   4.235   4.560   7.597
19234TIP3    H157579   4.282   4.640   7.626
19234TIP3    H257580   4.155   4.562   7.654
19235TIP3   OH257581   4.775   5.019   7.822
19235TIP3    H157582   4.767   5.112   7.857
19235TIP3    H257583   4.767   4.968   7.906
19236TIP3   OH257584   4.940   5.602   8.361
19236TIP3    H157585   4.979   5.675   8.307
19236TIP3    H257586   5.019   5.570   8.407
19237TIP3   OH257587   4.593   5.499   7.747
19237TIP3    H157588   4.506   5.510   7.790
19237TIP3    H257589   4.626   5.592   7.748
19238TIP3   OH257590   5.322   5.224   8.325
19238TIP3    H157591   5.319   5.225   8.423
19238TIP3    H257592   5.409   5.188   8.308
19239TIP3   OH257593   5.303   5.128   7.200
19239TIP3    H157594   5.359   5.100   7.276
19239TIP3    H257595   5.216   5.104   7.234
19240TIP3   OH257596   5.578   5.770   8.368
19240TIP3    H157597   5.497   5.718   8.356
19240TIP3    H257598   5.566   5.838   8.298
19241TIP3   OH257599   5.645   5.604   7.021
19241TIP3    H157600   5.680   5.677   6.968
19241TIP3    H257601   5.565   5.648   7.057
19242TIP3   OH257602   4.662   4.381   8.888
19242TIP3    H157603   4.565   4.386   8.900
19242TIP3    H257604   4.686   4.316   8.956
19243TIP3   OH257605   5.460   5.047   7.411
19243TIP3    H157606   5.456   4.988   7.488
19243TIP3    H257607   5.557   5.060   7.403
19244TIP3   OH257608   4.380   5.464   8.520
19244TIP3    H157609   4.433   5.390   8.553
19244TIP3    H257610   4.407   5.535   8.580
19245TIP3   OH257611   4.672   5.111   7.197
19245TIP3    H157612   4.683   5.029   7.146
19245TIP3    H257613   4.670   5.077   7.287
19246TIP3   OH257614   4.366   4.819   7.676
19246TIP3    H157615   4.298   4.868   7.728
19246TIP3    H257616   4.352   4.852   7.587
19247TIP3   OH257617   5.500   4.447   8.571
19247TIP3    H157618   5.581   4.480   8.614
19247TIP3    H257619   5.481   4.365   8.622
19248TIP3   OH257620   5.387   4.196   7.729
19248TIP3    H157621   5.367   4.226   7.639
19248TIP3    H257622   5.424   4.278   7.770
19249TIP3   OH257623   4.872   5.302   7.422
19249TIP3    H157624   4.784   5.332   7.454
19249TIP3    H257625   4.899   5.380   7.371
19250TIP3   OH257626   5.073   4.375   7.836
19250TIP3    H157627   5.137   4.447   7.819
19250TIP3    H257628   5.075   4.369   7.934
19251TIP3   OH257629   5.337   4.694   8.644
19251TIP3    H157630   5.358   4.750   8.722
19251TIP3    H257631   5.393   4.616   8.657
19252TIP3   OH257632   5.216   4.107   7.941
19252TIP3    H157633   5.204   4.186   7.997
19252TIP3    H257634   5.277   4.142   7.872
19253TIP3   OH257635   4.620   5.382   7.491
19253TIP3    H157636   4.591   5.450   7.426
19253TIP3    H257637   4.606   5.429   7.576
19254TIP3   OH257638   4.726   4.100   7.728
19254TIP3    H157639   4.722   4.189   7.767
19254TIP3    H257640   4.822   4.082   7.735
19255TIP3   OH257641   5.985   4.574   8.624
19255TIP3    H157642   5.887   4.578   8.635
19255TIP3    H257643   5.990   4.567   8.528
19256TIP3   OH257644   5.632   4.787   8.013
19256TIP3    H157645   5.555   4.728   8.024
19256TIP3    H257646   5.702   4.739   8.061
19257TIP3   OH257647   4.289   4.289   7.616
19257TIP3    H157648   4.274   4.385   7.608
19257TIP3    H257649   4.218   4.252   7.562
19258TIP3   OH257650   5.602   5.748   7.975
19258TIP3    H157651   5.544   5.776   7.902
19258TIP3    H257652   5.690   5.770   7.938
19259TIP3   OH257653   4.677   4.014   8.490
19259TIP3    H157654   4.644   3.979   8.404
19259TIP3    H257655   4.665   3.935   8.548
19260TIP3   OH257656   4.213   5.227   7.870
19260TIP3    H157657   4.146   5.260   7.932
19260TIP3    H257658   4.185   5.272   7.787
19261TIP3   OH257659   4.370   5.772   8.941
19261TIP3    H157660   4.456   5.772   8.988
19261TIP3    H257661   4.349   5.677   8.940
19262TIP3   OH257662   4.853   5.738   8.987
19262TIP3    H157663   4.948   5.721   8.992
19262TIP3    H257664   4.828   5.680   8.913
19263TIP3   OH257665   4.836   5.317   7.113
19263TIP3    H157666   4.781   5.245   7.152
19263TIP3    H257667   4.910   5.266   7.076
19264TIP3   OH257668   5.489   5.648   8.722
19264TIP3    H157669   5.483   5.576   8.789
19264TIP3    H257670   5.568   5.698   8.751
19265TIP3   OH257671   5.270   5.355   7.024
19265TIP3    H157672   5.317   5.293   7.083
19265TIP3    H257673   5.327   5.356   6.945
19266TIP3   OH257674   4.502   5.180   9.142
19266TIP3    H157675   4.518   5.083   9.145
19266TIP3    H257676   4.413   5.183   9.099
19267TIP3   OH257677   4.491   4.842   7.356
19267TIP3    H157678   4.534   4.769   7.401
19267TIP3    H257679   4.547   4.847   7.275
19268TIP3   OH257680   5.110   5.264   8.915
19268TIP3    H157681   5.067   5.282   8.829
19268TIP3    H257682   5.138   5.170   8.906
19269TIP3   OH257683   4.980   5.028   7.143
19269TIP3    H157684   4.992   5.041   7.239
19269TIP3    H257685   4.986   4.931   7.137
19270TIP3   OH257686   5.603   5.270   8.522
19270TIP3    H157687   5.676   5.315   8.476
19270TIP3    H257688   5.533   5.338   8.513
19271TIP3   OH257689   4.619   4.917   9.124
19271TIP3    H157690   4.687   4.852   9.106
19271TIP3    H257691   4.645   4.948   9.213
19272TIP3   OH257692   4.693   4.729   7.574
19272TIP3    H157693   4.653   4.676   7.645
19272TIP3    H257694   4.721   4.659   7.511
19273TIP3   OH257695   4.959   4.800   8.790
19273TIP3    H157696   4.878   4.856   8.791
19273TIP3    H257697   5.004   4.832   8.709
19274TIP3   OH257698   4.785   4.539   7.398
19274TIP3    H157699   4.759   4.534   7.304
19274TIP3    H257700   4.883   4.536   7.390
19275TIP3   OH257701   5.470   5.200   8.921
19275TIP3    H157702   5.549   5.180   8.869
19275TIP3    H257703   5.471   5.131   8.989
19276TIP3   OH257704   5.609   4.859   7.061
19276TIP3    H157705   5.588   4.812   6.978
19276TIP3    H257706   5.576   4.949   7.037
19277TIP3   OH257707   5.085   4.586   8.910
19277TIP3    H157708   5.080   4.505   8.855
19277TIP3    H257709   5.040   4.652   8.854
19278TIP3   OH257710   5.081   4.373   8.720
19278TIP3    H157711   5.107   4.414   8.635
19278TIP3    H257712   4.988   4.349   8.702
19279TIP3   OH257713   5.110   4.909   8.592
19279TIP3    H157714   5.192   4.920   8.542
19279TIP3    H257715   5.052   4.976   8.550
19280TIP3   OH257716   5.694   4.877   8.977
19280TIP3    H157717   5.745   4.795   8.969
19280TIP3    H257718   5.756   4.942   8.941
19281TIP3   OH257719   5.732   5.127   8.710
19281TIP3    H157720   5.673   5.180   8.651
19281TIP3    H257721   5.819   5.149   8.669
19282TIP3   OH257722   4.959   4.699   9.138
19282TIP3    H157723   4.889   4.633   9.153
19282TIP3    H257724   4.985   4.678   9.046
19283TIP3   OH257725   5.214   4.138   8.785
19283TIP3    H157726   5.163   4.218   8.763
19283TIP3    H257727   5.145   4.068   8.774
19284TIP3   OH257728   5.342   4.640   9.000
19284TIP3    H157729   5.329   4.636   9.096
19284TIP3    H257730   5.252   4.616   8.967
19285TIP3   OH257731   5.580   4.590   8.856
19285TIP3    H157732   5.502   4.592   8.914
19285TIP3    H257733   5.650   4.558   8.915
19286TIP3   OH257734   5.813   4.528   9.011
19286TIP3    H157735   5.814   4.433   9.033
19286TIP3    H257736   5.807   4.572   9.098
19287TIP3   OH257737   4.797   4.480   9.185
19287TIP3    H157738   4.796   4.388   9.154
19287TIP3    H257739   4.833   4.468   9.276
19288TIP3   OH257740   5.314   4.151   9.040
19288TIP3    H157741   5.375   4.074   9.036
19288TIP3    H257742   5.270   4.143   8.953
19289TIP3   OH257743   5.373   4.366   9.198
19289TIP3    H157744   5.355   4.291   9.137
19289TIP3    H257745   5.290   4.417   9.190
19290TIP3   OH257746   4.593   5.586   7.301
19290TIP3    H157747   4.689   5.583   7.286
19290TIP3    H257748   4.565   5.636   7.222
19291TIP3   OH257749   4.071   4.968   7.514
19291TIP3    H157750   4.160   4.987   7.485
19291TIP3    H257751   4.056   4.879   7.475
19292TIP3   OH257752   3.989   5.584   7.932
19292TIP3    H157753   3.921   5.522   7.897
19292TIP3    H257754   4.033   5.526   7.998
19293TIP3   OH257755   4.127   5.434   8.117
19293TIP3    H157756   4.112   5.363   8.181
19293TIP3    H257757   4.176   5.497   8.173
19294TIP3   OH257758   5.857   5.832   7.914
19294TIP3    H157759   5.877   5.866   8.003
19294TIP3    H257760   5.912   5.887   7.857
19295TIP3   OH257761   5.881   5.857   8.198
19295TIP3    H157762   5.835   5.770   8.192
19295TIP3    H257763   5.954   5.832   8.257
19296TIP3   OH257764   5.929   5.531   8.775
19296TIP3    H157765   5.854   5.541   8.837
19296TIP3    H257766   5.969   5.621   8.777
19297TIP3   OH257767   5.742   5.048   7.395
19297TIP3    H157768   5.811   5.111   7.366
19297TIP3    H257769   5.786   5.007   7.473
19298TIP3   OH257770   5.872   4.914   7.597
19298TIP3    H157771   5.804   4.871   7.654
19298TIP3    H257772   5.932   4.954   7.662
19299TIP3   OH257773   5.928   5.305   8.035
19299TIP3    H157774   5.976   5.243   7.977
19299TIP3    H257775   5.911   5.380   7.974
19300TIP3   OH257776   5.757   5.605   8.226
19300TIP3    H157777   5.684   5.649   8.274
19300TIP3    H257778   5.709   5.561   8.153
19301TIP3   OH257779   5.809   4.821   7.247
19301TIP3    H157780   5.740   4.822   7.177
19301TIP3    H257781   5.781   4.897   7.300
19302TIP3   OH257782   5.670   4.496   7.211
19302TIP3    H157783   5.655   4.541   7.127
19302TIP3    H257784   5.648   4.403   7.187
19303TIP3   OH257785   5.686   4.771   7.743
19303TIP3    H157786   5.696   4.675   7.735
19303TIP3    H257787   5.673   4.783   7.840
19304TIP3   OH257788   4.312   4.843   8.490
19304TIP3    H157789   4.310   4.813   8.397
19304TIP3    H257790   4.409   4.845   8.507
19305TIP3   OH257791   5.974   5.193   8.601
19305TIP3    H157792   6.048   5.130   8.590
19305TIP3    H257793   5.996   5.264   8.538
19306TIP3   OH257794   6.160   4.999   8.618
19306TIP3    H157795   6.085   4.949   8.657
19306TIP3    H257796   6.233   4.935   8.631
19307TIP3   OH257797   5.622   4.227   7.188
19307TIP3    H157798   5.707   4.208   7.233
19307TIP3    H257799   5.563   4.161   7.223
19308TIP3   OH257800   5.682   4.486   7.638
19308TIP3    H157801   5.725   4.398   7.651
19308TIP3    H257802   5.739   4.521   7.565
19309TIP3   OH257803   5.845   4.659   8.136
19309TIP3    H157804   5.931   4.685   8.095
19309TIP3    H257805   5.857   4.698   8.224
19310TIP3   OH257806   5.914   4.804   8.369
19310TIP3    H157807   5.834   4.838   8.414
19310TIP3    H257808   5.945   4.884   8.321
19311TIP3   OH257809   4.532   4.538   9.172
19311TIP3    H157810   4.629   4.525   9.167
19311TIP3    H257811   4.504   4.450   9.203
19312TIP3   OH257812   6.380   4.399   8.930
19312TIP3    H157813   6.428   4.327   8.884
19312TIP3    H257814   6.332   4.441   8.856
19313TIP3   OH257815   5.789   4.233   7.676
19313TIP3    H157816   5.834   4.214   7.761
19313TIP3    H257817   5.734   4.153   7.664
19314TIP3   OH257818   4.492   4.221   8.496
19314TIP3    H157819   4.553   4.146   8.506
19314TIP3    H257820   4.554   4.295   8.491
19315TIP3   OH257821   4.295   4.496   8.570
19315TIP3    H157822   4.342   4.487   8.485
19315TIP3    H257823   4.324   4.583   8.599
19316TIP3   OH257824   6.236   4.532   8.739
19316TIP3    H157825   6.151   4.564   8.775
19316TIP3    H257826   6.214   4.532   8.645
19317TIP3   OH257827   5.878   4.183   7.293
19317TIP3    H157828   5.916   4.102   7.254
19317TIP3    H257829   5.934   4.252   7.255
19318TIP3   OH257830   4.276   4.010   8.079
19318TIP3    H157831   4.181   3.997   8.095
19318TIP3    H257832   4.276   4.061   7.995
19319TIP3   OH257833   5.418   5.743   7.547
19319TIP3    H157834   5.480   5.694   7.491
19319TIP3    H257835   5.449   5.723   7.636
19320TIP3   OH257836   4.499   4.085   8.886
19320TIP3    H157837   4.447   4.072   8.967
19320TIP3    H257838   4.431   4.119   8.825
19321TIP3   OH257839   4.537   5.504   8.962
19321TIP3    H157840   4.445   5.478   8.944
19321TIP3    H257841   4.544   5.488   9.057
19322TIP3   OH257842   4.715   5.537   8.509
19322TIP3    H157843   4.667   5.613   8.470
19322TIP3    H257844   4.801   5.552   8.464
19323TIP3   OH257845   5.159   5.782   8.648
19323TIP3    H157846   5.202   5.785   8.736
19323TIP3    H257847   5.224   5.834   8.595
19324TIP3   OH257848   5.334   5.937   8.507
19324TIP3    H157849   5.399   5.888   8.455
19324TIP3    H257850   5.392   5.990   8.566
19325TIP3   OH257851   4.390   5.795   8.532
19325TIP3    H157852   4.301   5.830   8.509
19325TIP3    H257853   4.400   5.831   8.621
19326TIP3   OH257854   4.627   5.773   8.390
19326TIP3    H157855   4.541   5.787   8.435
19326TIP3    H257856   4.609   5.807   8.300
19327TIP3   OH257857   5.045   5.801   8.198
19327TIP3    H157858   4.991   5.823   8.121
19327TIP3    H257859   5.065   5.889   8.235
19328TIP3   OH257860   5.320   5.746   8.246
19328TIP3    H157861   5.227   5.749   8.215
19328TIP3    H257862   5.363   5.804   8.182
19329TIP3   OH257863   5.540   5.942   8.158
19329TIP3    H157864   5.517   6.022   8.106
19329TIP3    H257865   5.561   5.878   8.087
19330TIP3   OH257866   4.304   5.590   8.276
19330TIP3    H157867   4.329   5.564   8.368
19330TIP3    H257868   4.376   5.545   8.226
19331TIP3   OH257869   4.496   5.458   8.132
19331TIP3    H157870   4.512   5.377   8.185
19331TIP3    H257871   4.586   5.498   8.131
19332TIP3   OH257872   4.759   5.556   8.139
19332TIP3    H157873   4.798   5.468   8.125
19332TIP3    H257874   4.805   5.582   8.221
19333TIP3   OH257875   5.341   4.213   8.229
19333TIP3    H157876   5.294   4.144   8.280
19333TIP3    H257877   5.407   4.162   8.180
19334TIP3   OH257878   5.863   4.097   8.135
19334TIP3    H157879   5.898   4.146   8.057
19334TIP3    H257880   5.766   4.109   8.123
19335TIP3   OH257881   5.955   4.190   7.896
19335TIP3    H157882   6.028   4.139   7.854
19335TIP3    H257883   5.988   4.282   7.879
19336TIP3   OH257884   4.587   3.922   8.242
19336TIP3    H157885   4.495   3.889   8.241
19336TIP3    H257886   4.635   3.836   8.238
19337TIP3   OH257887   4.382   3.789   7.890
19337TIP3    H157888   4.405   3.845   7.814
19337TIP3    H257889   4.344   3.854   7.952
19338TIP3   OH257890   5.031   3.954   8.119
19338TIP3    H157891   5.092   4.006   8.064
19338TIP3    H257892   5.046   3.990   8.207
19339TIP3   OH257893   5.582   4.099   8.105
19339TIP3    H157894   5.574   4.062   8.016
19339TIP3    H257895   5.568   4.020   8.161
19340TIP3   OH257896   5.605   4.017   7.648
19340TIP3    H157897   5.525   4.067   7.672
19340TIP3    H257898   5.594   3.936   7.701
19341TIP3   OH257899   4.092   5.359   7.669
19341TIP3    H157900   4.006   5.327   7.634
19341TIP3    H257901   4.082   5.454   7.652
19342TIP3   OH257902   4.489   3.947   7.657
19342TIP3    H157903   4.535   3.885   7.596
19342TIP3    H257904   4.563   4.000   7.691
19343TIP3   OH257905   5.004   4.126   7.749
19343TIP3    H157906   5.058   4.075   7.811
19343TIP3    H257907   5.028   4.217   7.777
19344TIP3   OH257908   4.862   5.552   7.252
19344TIP3    H157909   4.952   5.573   7.218
19344TIP3    H257910   4.842   5.476   7.193
19345TIP3   OH257911   5.597   5.664   7.335
19345TIP3    H157912   5.582   5.567   7.324
19345TIP3    H257913   5.542   5.699   7.262
19346TIP3   OH257914   4.797   4.207   9.140
19346TIP3    H157915   4.762   4.131   9.190
19346TIP3    H257916   4.892   4.203   9.164
19347TIP3   OH257917   5.051   4.202   9.258
19347TIP3    H157918   5.127   4.162   9.213
19347TIP3    H257919   5.035   4.136   9.330
19348TIP3   OH257920   4.167   5.387   7.309
19348TIP3    H157921   4.171   5.415   7.401
19348TIP3    H257922   4.256   5.347   7.295
19349TIP3   OH257923   5.866   4.253   9.046
19349TIP3    H157924   5.871   4.224   9.139
19349TIP3    H257925   5.959   4.264   9.026
19350TIP3   OH257926   5.808   5.812   8.531
19350TIP3    H157927   5.730   5.780   8.481
19350TIP3    H257928   5.788   5.908   8.533
19351TIP3   OH257929   7.059   5.184   7.285
19351TIP3    H157930   7.043   5.278   7.262
19351TIP3    H257931   6.979   5.164   7.334
19352TIP3   OH257932   7.072   5.178   7.676
19352TIP3    H157933   7.106   5.160   7.765
19352TIP3    H257934   7.029   5.094   7.655
19353TIP3   OH257935   6.375   5.081   8.041
19353TIP3    H157936   6.406   5.014   8.105
19353TIP3    H257937   6.452   5.140   8.036
19354TIP3   OH257938   7.312   5.484   7.361
19354TIP3    H157939   7.306   5.415   7.429
19354TIP3    H257940   7.342   5.560   7.413
19355TIP3   OH257941   6.344   5.491   7.769
19355TIP3    H157942   6.334   5.394   7.772
19355TIP3    H257943   6.441   5.499   7.765
19356TIP3   OH257944   6.049   4.692   7.556
19356TIP3    H157945   5.996   4.773   7.568
19356TIP3    H257946   5.984   4.636   7.509
19357TIP3   OH257947   6.113   4.983   7.727
19357TIP3    H157948   6.160   4.904   7.761
19357TIP3    H257949   6.162   5.001   7.645
19358TIP3   OH257950   6.971   5.963   7.376
19358TIP3    H157951   7.012   5.892   7.324
19358TIP3    H257952   6.953   5.920   7.460
19359TIP3   OH257953   6.873   5.410   7.726
19359TIP3    H157954   6.910   5.332   7.682
19359TIP3    H257955   6.956   5.455   7.750
19360TIP3   OH257956   7.883   4.731   7.723
19360TIP3    H157957   7.913   4.813   7.767
19360TIP3    H257958   7.908   4.749   7.631
19361TIP3   OH257959   7.286   4.914   7.760
19361TIP3    H157960   7.327   4.828   7.781
19361TIP3    H257961   7.254   4.897   7.669
19362TIP3   OH257962   6.622   4.570   7.724
19362TIP3    H157963   6.600   4.643   7.662
19362TIP3    H257964   6.578   4.495   7.679
19363TIP3   OH257965   7.316   4.665   7.345
19363TIP3    H157966   7.385   4.646   7.413
19363TIP3    H257967   7.373   4.697   7.273
19364TIP3   OH257968   6.253   4.771   7.833
19364TIP3    H157969   6.338   4.752   7.878
19364TIP3    H257970   6.264   4.717   7.752
19365TIP3   OH257971   6.698   4.972   7.620
19365TIP3    H157972   6.790   4.942   7.638
19365TIP3    H257973   6.656   4.888   7.591
19366TIP3   OH257974   7.958   4.938   7.893
19366TIP3    H157975   7.874   4.985   7.876
19366TIP3    H257976   7.972   4.962   7.986
19367TIP3   OH257977   6.618   4.555   8.158
19367TIP3    H157978   6.559   4.591   8.089
19367TIP3    H257979   6.566   4.576   8.239
19368TIP3   OH257980   6.971   5.415   7.157
19368TIP3    H157981   6.913   5.389   7.083
19368TIP3    H257982   6.926   5.496   7.188
19369TIP3   OH257983   6.726   5.330   7.955
19369TIP3    H157984   6.661   5.394   7.994
19369TIP3    H257985   6.765   5.383   7.883
19370TIP3   OH257986   7.524   4.665   7.517
19370TIP3    H157987   7.521   4.610   7.597
19370TIP3    H257988   7.581   4.739   7.546
19371TIP3   OH257989   6.489   4.669   7.943
19371TIP3    H157990   6.551   4.742   7.965
19371TIP3    H257991   6.537   4.628   7.867
19372TIP3   OH257992   6.552   5.523   8.051
19372TIP3    H157993   6.527   5.609   8.012
19372TIP3    H257994   6.473   5.507   8.108
19373TIP3   OH257995   5.949   5.213   7.288
19373TIP3    H157996   5.905   5.237   7.204
19373TIP3    H257997   5.977   5.300   7.323
19374TIP3   OH257998   7.388   5.728   7.526
19374TIP3    H157999   7.300   5.716   7.569
19374TIP3    H258000   7.376   5.815   7.486
19375TIP3   OH258001   7.677   4.633   7.891
19375TIP3    H158002   7.590   4.661   7.860
19375TIP3    H258003   7.736   4.663   7.819
19376TIP3   OH258004   6.977   4.275   7.873
19376TIP3    H158005   6.964   4.180   7.888
19376TIP3    H258006   6.898   4.311   7.919
19377TIP3   OH258007   7.095   5.783   7.202
19377TIP3    H158008   7.143   5.700   7.182
19377TIP3    H258009   7.157   5.849   7.164
19378TIP3   OH258010   7.236   5.562   7.106
19378TIP3    H158011   7.180   5.490   7.076
19378TIP3    H258012   7.268   5.527   7.193
19379TIP3   OH258013   7.613   5.645   7.871
19379TIP3    H158014   7.602   5.566   7.813
19379TIP3    H258015   7.598   5.718   7.807
19380TIP3   OH258016   7.808   5.279   7.715
19380TIP3    H158017   7.726   5.332   7.722
19380TIP3    H258018   7.837   5.302   7.625
19381TIP3   OH258019   7.218   5.099   7.081
19381TIP3    H158020   7.171   5.124   7.165
19381TIP3    H258021   7.303   5.068   7.120
19382TIP3   OH258022   7.487   5.159   8.011
19382TIP3    H158023   7.484   5.242   8.062
19382TIP3    H258024   7.400   5.163   7.966
19383TIP3   OH258025   6.485   5.118   7.515
19383TIP3    H158026   6.439   5.060   7.449
19383TIP3    H258027   6.560   5.062   7.542
19384TIP3   OH258028   6.616   5.531   7.664
19384TIP3    H158029   6.591   5.485   7.582
19384TIP3    H258030   6.705   5.495   7.682
19385TIP3   OH258031   6.628   5.085   7.872
19385TIP3    H158032   6.655   5.069   7.779
19385TIP3    H258033   6.665   5.174   7.890
19386TIP3   OH258034   7.149   5.724   7.648
19386TIP3    H158035   7.132   5.804   7.701
19386TIP3    H258036   7.132   5.651   7.712
19387TIP3   OH258037   6.758   5.644   8.195
19387TIP3    H158038   6.699   5.707   8.241
19387TIP3    H258039   6.692   5.591   8.145
19388TIP3   OH258040   6.513   5.200   8.296
19388TIP3    H158041   6.517   5.288   8.340
19388TIP3    H258042   6.417   5.182   8.304
19389TIP3   OH258043   6.840   5.656   7.200
19389TIP3    H158044   6.910   5.718   7.225
19389TIP3    H258045   6.772   5.713   7.161
19390TIP3   OH258046   6.554   5.813   8.282
19390TIP3    H158047   6.518   5.812   8.191
19390TIP3    H258048   6.474   5.791   8.335
19391TIP3   OH258049   7.609   4.219   6.974
19391TIP3    H158050   7.527   4.237   7.024
19391TIP3    H258051   7.620   4.302   6.924
19392TIP3   OH258052   6.350   4.959   7.326
19392TIP3    H158053   6.285   5.006   7.270
19392TIP3    H258054   6.313   4.870   7.327
19393TIP3   OH258055   7.407   5.586   6.526
19393TIP3    H158056   7.415   5.682   6.507
19393TIP3    H258057   7.499   5.556   6.510
19394TIP3   OH258058   6.132   5.344   8.228
19394TIP3    H158059   6.064   5.326   8.160
19394TIP3    H258060   6.167   5.255   8.248
19395TIP3   OH258061   5.985   5.536   7.863
19395TIP3    H158062   6.081   5.538   7.855
19395TIP3    H258063   5.967   5.618   7.912
19396TIP3   OH258064   7.850   5.986   7.913
19396TIP3    H158065   7.850   5.890   7.931
19396TIP3    H258066   7.768   6.012   7.961
19397TIP3   OH258067   6.957   5.773   8.052
19397TIP3    H158068   6.956   5.866   8.084
19397TIP3    H258069   6.885   5.734   8.106
19398TIP3   OH258070   6.720   5.904   7.000
19398TIP3    H158071   6.669   5.883   6.920
19398TIP3    H258072   6.684   5.991   7.026
19399TIP3   OH258073   6.156   5.753   7.386
19399TIP3    H158074   6.200   5.742   7.473
19399TIP3    H258075   6.096   5.676   7.388
19400TIP3   OH258076   6.921   5.806   6.644
19400TIP3    H158077   6.978   5.736   6.607
19400TIP3    H258078   6.954   5.812   6.736
19401TIP3   OH258079   6.973   5.851   6.919
19401TIP3    H158080   6.881   5.867   6.951
19401TIP3    H258081   7.007   5.798   6.992
19402TIP3   OH258082   7.740   5.119   8.191
19402TIP3    H158083   7.660   5.131   8.139
19402TIP3    H258084   7.756   5.023   8.181
19403TIP3   OH258085   6.338   5.525   8.218
19403TIP3    H158086   6.386   5.509   8.301
19403TIP3    H258087   6.263   5.463   8.225
19404TIP3   OH258088   6.736   4.349   8.000
19404TIP3    H158089   6.647   4.318   7.973
19404TIP3    H258090   6.711   4.432   8.044
19405TIP3   OH258091   7.270   4.466   8.196
19405TIP3    H158092   7.338   4.437   8.259
19405TIP3    H258093   7.186   4.444   8.242
19406TIP3   OH258094   7.510   4.894   8.114
19406TIP3    H158095   7.460   4.890   8.199
19406TIP3    H258096   7.485   4.982   8.079
19407TIP3   OH258097   7.167   5.043   6.705
19407TIP3    H158098   7.124   5.003   6.626
19407TIP3    H258099   7.249   5.074   6.660
19408TIP3   OH258100   6.889   4.397   6.969
19408TIP3    H158101   6.854   4.395   7.060
19408TIP3    H258102   6.843   4.318   6.933
19409TIP3   OH258103   6.668   4.863   8.021
19409TIP3    H158104   6.617   4.886   8.101
19409TIP3    H258105   6.654   4.944   7.966
19410TIP3   OH258106   6.550   4.754   7.538
19410TIP3    H158107   6.457   4.727   7.552
19410TIP3    H258108   6.565   4.716   7.448
19411TIP3   OH258109   7.050   4.843   7.261
19411TIP3    H158110   6.973   4.885   7.223
19411TIP3    H258111   7.103   4.822   7.181
19412TIP3   OH258112   7.217   5.117   8.348
19412TIP3    H158113   7.195   5.043   8.410
19412TIP3    H258114   7.311   5.130   8.370
19413TIP3   OH258115   7.202   4.866   7.501
19413TIP3    H158116   7.142   4.892   7.427
19413TIP3    H258117   7.238   4.784   7.461
19414TIP3   OH258118   6.488   4.896   8.228
19414TIP3    H158119   6.512   4.961   8.295
19414TIP3    H258120   6.478   4.814   8.281
19415TIP3   OH258121   6.539   4.373   6.950
19415TIP3    H158122   6.522   4.347   7.043
19415TIP3    H258123   6.452   4.409   6.926
19416TIP3   OH258124   6.081   4.413   7.814
19416TIP3    H158125   6.158   4.448   7.864
19416TIP3    H258126   6.118   4.392   7.727
19417TIP3   OH258127   7.208   5.114   7.922
19417TIP3    H158128   7.242   5.041   7.865
19417TIP3    H258129   7.180   5.062   8.000
19418TIP3   OH258130   6.879   4.580   7.595
19418TIP3    H158131   6.795   4.573   7.645
19418TIP3    H258132   6.945   4.571   7.666
19419TIP3   OH258133   6.311   4.629   7.605
19419TIP3    H158134   6.217   4.638   7.576
19419TIP3    H258135   6.335   4.539   7.574
19420TIP3   OH258136   6.586   4.639   7.296
19420TIP3    H158137   6.677   4.641   7.262
19420TIP3    H258138   6.532   4.651   7.214
19421TIP3   OH258139   7.369   4.650   7.798
19421TIP3    H158140   7.334   4.661   7.889
19421TIP3    H258141   7.306   4.587   7.761
19422TIP3   OH258142   6.421   4.662   7.084
19422TIP3    H158143   6.341   4.611   7.066
19422TIP3    H258144   6.454   4.677   6.994
19423TIP3   OH258145   7.540   6.337   8.016
19423TIP3    H158146   7.541   6.366   7.923
19423TIP3    H258147   7.619   6.383   8.051
19424TIP3   OH258148   6.499   5.446   8.439
19424TIP3    H158149   6.577   5.479   8.486
19424TIP3    H258150   6.433   5.449   8.511
19425TIP3   OH258151   6.965   4.905   7.694
19425TIP3    H158152   7.034   4.858   7.644
19425TIP3    H258153   6.970   4.861   7.781
19426TIP3   OH258154   6.492   4.389   7.566
19426TIP3    H158155   6.458   4.308   7.610
19426TIP3    H258156   6.521   4.355   7.480
19427TIP3   OH258157   6.939   4.798   7.981
19427TIP3    H158158   6.849   4.834   7.997
19427TIP3    H258159   6.996   4.859   8.033
19428TIP3   OH258160   6.681   5.191   7.079
19428TIP3    H158161   6.617   5.117   7.070
19428TIP3    H258162   6.664   5.219   7.172
19429TIP3   OH258163   7.576   5.426   7.707
19429TIP3    H158164   7.601   5.475   7.625
19429TIP3    H258165   7.491   5.384   7.682
19430TIP3   OH258166   7.133   4.511   6.952
19430TIP3    H158167   7.040   4.475   6.952
19430TIP3    H258168   7.117   4.605   6.939
19431TIP3   OH258169   7.079   5.510   8.073
19431TIP3    H158170   7.096   5.484   8.164
19431TIP3    H258171   7.035   5.597   8.083
19432TIP3   OH258172   7.206   4.795   7.022
19432TIP3    H158173   7.288   4.765   7.066
19432TIP3    H258174   7.232   4.788   6.929
19433TIP3   OH258175   6.373   5.215   7.755
19433TIP3    H158176   6.406   5.184   7.668
19433TIP3    H258177   6.401   5.145   7.815
19434TIP3   OH258178   6.830   5.338   6.907
19434TIP3    H158179   6.779   5.423   6.909
19434TIP3    H258180   6.772   5.282   6.964
19435TIP3   OH258181   6.249   5.130   8.365
19435TIP3    H158182   6.267   5.116   8.460
19435TIP3    H258183   6.176   5.067   8.349
19436TIP3   OH258184   6.973   5.245   8.387
19436TIP3    H158185   6.914   5.187   8.336
19436TIP3    H258186   7.061   5.211   8.359
19437TIP3   OH258187   7.235   5.772   7.966
19437TIP3    H158188   7.139   5.765   7.982
19437TIP3    H258189   7.264   5.819   8.047
19438TIP3   OH258190   7.645   4.839   6.879
19438TIP3    H158191   7.581   4.793   6.819
19438TIP3    H258192   7.644   4.926   6.836
19439TIP3   OH258193   7.863   5.696   7.960
19439TIP3    H158194   7.765   5.691   7.952
19439TIP3    H258195   7.889   5.666   7.870
19440TIP3   OH258196   7.347   5.659   6.788
19440TIP3    H158197   7.323   5.586   6.847
19440TIP3    H258198   7.359   5.615   6.701
19441TIP3   OH258199   7.341   5.288   7.622
19441TIP3    H158200   7.249   5.261   7.639
19441TIP3    H258201   7.377   5.207   7.581
19442TIP3   OH258202   6.468   5.513   7.374
19442TIP3    H158203   6.465   5.596   7.323
19442TIP3    H258204   6.374   5.496   7.389
19443TIP3   OH258205   6.019   4.842   7.067
19443TIP3    H158206   6.073   4.913   7.105
19443TIP3    H258207   5.954   4.825   7.137
19444TIP3   OH258208   6.617   5.282   7.329
19444TIP3    H158209   6.575   5.370   7.341
19444TIP3    H258210   6.572   5.230   7.397
19445TIP3   OH258211   6.737   5.859   7.848
19445TIP3    H158212   6.777   5.932   7.798
19445TIP3    H258213   6.814   5.825   7.898
19446TIP3   OH258214   6.389   5.752   7.232
19446TIP3    H158215   6.303   5.760   7.277
19446TIP3    H258216   6.419   5.846   7.233
19447TIP3   OH258217   7.127   5.491   7.805
19447TIP3    H158218   7.117   5.492   7.903
19447TIP3    H258219   7.209   5.440   7.796
19448TIP3   OH258220   7.100   5.387   6.686
19448TIP3    H158221   7.147   5.362   6.767
19448TIP3    H258222   7.008   5.365   6.708
19449TIP3   OH258223   7.375   6.025   7.857
19449TIP3    H158224   7.297   5.967   7.853
19449TIP3    H258225   7.355   6.091   7.787
19450TIP3   OH258226   7.440   5.861   6.509
19450TIP3    H158227   7.473   5.928   6.448
19450TIP3    H258228   7.360   5.908   6.542
19451TIP3   OH258229   6.461   4.637   8.376
19451TIP3    H158230   6.366   4.644   8.393
19451TIP3    H258231   6.491   4.580   8.448
19452TIP3   OH258232   7.256   5.297   6.902
19452TIP3    H158233   7.267   5.263   6.993
19452TIP3    H258234   7.350   5.318   6.882
19453TIP3   OH258235   6.180   5.723   8.005
19453TIP3    H158236   6.228   5.646   8.038
19453TIP3    H258237   6.204   5.790   8.070
19454TIP3   OH258238   6.474   5.364   6.687
19454TIP3    H158239   6.477   5.272   6.657
19454TIP3    H258240   6.451   5.353   6.781
19455TIP3   OH258241   6.415   5.372   6.957
19455TIP3    H158242   6.474   5.343   7.027
19455TIP3    H258243   6.419   5.470   6.966
19456TIP3   OH258244   6.155   5.072   7.168
19456TIP3    H158245   6.085   5.112   7.223
19456TIP3    H258246   6.161   5.139   7.097
19457TIP3   OH258247   7.295   4.703   8.057
19457TIP3    H158248   7.377   4.739   8.095
19457TIP3    H258249   7.281   4.622   8.110
19458TIP3   OH258250   7.172   4.455   7.224
19458TIP3    H158251   7.160   4.476   7.129
19458TIP3    H258252   7.217   4.536   7.258
19459TIP3   OH258253   6.683   5.568   6.909
19459TIP3    H158254   6.596   5.591   6.945
19459TIP3    H258255   6.693   5.637   6.841
19460TIP3   OH258256   6.874   4.635   7.325
19460TIP3    H158257   6.949   4.698   7.318
19460TIP3    H258258   6.867   4.624   7.423
19461TIP3   OH258259   7.136   4.952   8.130
19461TIP3    H158260   7.156   5.005   8.210
19461TIP3    H258261   7.190   4.873   8.143
19462TIP3   OH258262   7.011   4.361   7.430
19462TIP3    H158263   7.007   4.438   7.489
19462TIP3    H258264   7.069   4.395   7.359
19463TIP3   OH258265   6.426   5.644   6.977
19463TIP3    H158266   6.393   5.712   6.913
19463TIP3    H258267   6.405   5.687   7.063
19464TIP3   OH258268   6.538   4.342   7.234
19464TIP3    H158269   6.508   4.433   7.245
19464TIP3    H258270   6.635   4.351   7.230
19465TIP3   OH258271   7.777   4.852   8.110
19465TIP3    H158272   7.679   4.850   8.118
19465TIP3    H258273   7.787   4.808   8.025
19466TIP3   OH258274   7.427   5.047   7.497
19466TIP3    H158275   7.353   4.986   7.512
19466TIP3    H258276   7.500   5.001   7.545
19467TIP3   OH258277   6.138   5.275   6.970
19467TIP3    H158278   6.199   5.350   6.975
19467TIP3    H258279   6.185   5.221   6.902
19468TIP3   OH258280   7.393   6.010   7.456
19468TIP3    H158281   7.352   6.022   7.369
19468TIP3    H258282   7.487   6.028   7.435
19469TIP3   OH258283   6.470   4.270   7.978
19469TIP3    H158284   6.440   4.238   7.890
19469TIP3    H258285   6.461   4.189   8.033
19470TIP3   OH258286   6.012   5.492   7.357
19470TIP3    H158287   5.940   5.519   7.415
19470TIP3    H258288   5.983   5.530   7.271
19471TIP3   OH258289   6.166   6.029   8.428
19471TIP3    H158290   6.252   6.028   8.475
19471TIP3    H258291   6.144   5.934   8.427
19472TIP3   OH258292   6.649   5.995   8.474
19472TIP3    H158293   6.744   5.978   8.479
19472TIP3    H258294   6.624   5.936   8.400
19473TIP3   OH258295   6.633   5.571   6.603
19473TIP3    H158296   6.576   5.499   6.638
19473TIP3    H258297   6.704   5.519   6.562
19474TIP3   OH258298   7.291   5.898   8.203
19474TIP3    H158299   7.280   5.830   8.274
19474TIP3    H258300   7.366   5.951   8.237
19475TIP3   OH258301   7.068   5.614   6.512
19475TIP3    H158302   7.114   5.548   6.566
19475TIP3    H258303   7.119   5.613   6.429
19476TIP3   OH258304   6.297   5.435   8.629
19476TIP3    H158305   6.312   5.339   8.632
19476TIP3    H258306   6.209   5.440   8.585
19477TIP3   OH258307   6.275   5.093   6.817
19477TIP3    H158308   6.321   5.049   6.890
19477TIP3    H258309   6.345   5.094   6.749
19478TIP3   OH258310   6.906   5.521   8.401
19478TIP3    H158311   6.863   5.537   8.315
19478TIP3    H258312   6.936   5.427   8.394
19479TIP3   OH258313   6.794   5.284   6.632
19479TIP3    H158314   6.778   5.301   6.727
19479TIP3    H258315   6.787   5.187   6.630
19480TIP3   OH258316   7.398   5.527   8.006
19480TIP3    H158317   7.472   5.575   7.964
19480TIP3    H258318   7.325   5.591   7.996
19481TIP3   OH258319   6.416   5.165   8.613
19481TIP3    H158320   6.496   5.117   8.589
19481TIP3    H258321   6.441   5.202   8.700
19482TIP3   OH258322   6.497   4.985   7.052
19482TIP3    H158323   6.453   4.945   7.129
19482TIP3    H258324   6.520   4.906   6.999
19483TIP3   OH258325   6.752   5.055   8.273
19483TIP3    H158326   6.674   5.115   8.275
19483TIP3    H258327   6.800   5.089   8.195
19484TIP3   OH258328   6.575   4.782   6.876
19484TIP3    H158329   6.531   4.775   6.790
19484TIP3    H258330   6.667   4.787   6.850
19485TIP3   OH258331   7.268   5.457   8.406
19485TIP3    H158332   7.349   5.435   8.359
19485TIP3    H258333   7.266   5.389   8.476
19486TIP3   OH258334   7.399   5.113   6.552
19486TIP3    H158335   7.383   5.066   6.467
19486TIP3    H258336   7.371   5.203   6.525
19487TIP3   OH258337   6.873   4.842   8.399
19487TIP3    H158338   6.875   4.763   8.342
19487TIP3    H258339   6.831   4.908   8.341
19488TIP3   OH258340   6.877   4.630   8.205
19488TIP3    H158341   6.905   4.670   8.121
19488TIP3    H258342   6.783   4.606   8.186
19489TIP3   OH258343   6.905   5.166   8.080
19489TIP3    H158344   6.987   5.172   8.029
19489TIP3    H258345   6.848   5.232   8.036
19490TIP3   OH258346   7.488   5.132   8.461
19490TIP3    H158347   7.535   5.048   8.469
19490TIP3    H258348   7.557   5.191   8.426
19491TIP3   OH258349   7.528   5.385   8.196
19491TIP3    H158350   7.470   5.438   8.136
19491TIP3    H258351   7.616   5.405   8.156
19492TIP3   OH258352   6.752   4.956   8.629
19492TIP3    H158353   6.683   4.889   8.643
19492TIP3    H258354   6.787   4.931   8.542
19493TIP3   OH258355   7.010   4.394   8.272
19493TIP3    H158356   6.960   4.476   8.249
19493TIP3    H258357   6.942   4.325   8.259
19494TIP3   OH258358   7.135   4.899   8.488
19494TIP3    H158359   7.125   4.886   8.584
19494TIP3    H258360   7.045   4.873   8.459
19495TIP3   OH258361   7.376   4.848   8.344
19495TIP3    H158362   7.300   4.848   8.405
19495TIP3    H258363   7.449   4.816   8.400
19496TIP3   OH258364   7.603   4.787   8.495
19496TIP3    H158365   7.616   4.692   8.513
19496TIP3    H258366   7.600   4.826   8.585
19497TIP3   OH258367   6.589   4.737   8.681
19497TIP3    H158368   6.603   4.648   8.646
19497TIP3    H258369   6.626   4.726   8.772
19498TIP3   OH258370   7.104   4.403   8.530
19498TIP3    H158371   7.171   4.333   8.525
19498TIP3    H258372   7.065   4.397   8.440
19499TIP3   OH258373   7.170   4.618   8.689
19499TIP3    H158374   7.148   4.547   8.624
19499TIP3    H258375   7.092   4.677   8.681
19500TIP3   OH258376   6.391   5.847   6.790
19500TIP3    H158377   6.485   5.845   6.768
19500TIP3    H258378   6.356   5.893   6.712
19501TIP3   OH258379   5.870   5.228   7.007
19501TIP3    H158380   5.965   5.248   6.992
19501TIP3    H258381   5.863   5.139   6.964
19502TIP3   OH258382   5.787   5.844   7.418
19502TIP3    H158383   5.719   5.783   7.381
19502TIP3    H258384   5.829   5.786   7.485
19503TIP3   OH258385   5.922   5.694   7.604
19503TIP3    H158386   5.904   5.620   7.664
19503TIP3    H258387   5.969   5.755   7.664
19504TIP3   OH258388   7.640   6.107   7.401
19504TIP3    H158389   7.673   6.127   7.491
19504TIP3    H258390   7.715   6.134   7.346
19505TIP3   OH258391   7.679   6.111   7.684
19505TIP3    H158392   7.635   6.023   7.684
19505TIP3    H258393   7.753   6.091   7.744
19506TIP3   OH258394   7.722   5.789   8.258
19506TIP3    H158395   7.650   5.797   8.324
19506TIP3    H258396   7.765   5.877   8.264
19507TIP3   OH258397   7.535   5.305   6.883
19507TIP3    H158398   7.604   5.367   6.851
19507TIP3    H258399   7.581   5.265   6.960
19508TIP3   OH258400   7.664   5.172   7.085
19508TIP3    H158401   7.601   5.129   7.145
19508TIP3    H258402   7.733   5.207   7.146
19509TIP3   OH258403   7.719   5.561   7.514
19509TIP3    H158404   7.775   5.496   7.467
19509TIP3    H258405   7.712   5.633   7.449
19510TIP3   OH258406   7.553   5.863   7.709
19510TIP3    H158407   7.483   5.901   7.766
19510TIP3    H258408   7.501   5.812   7.644
19511TIP3   OH258409   7.605   5.079   6.732
19511TIP3    H158410   7.534   5.079   6.664
19511TIP3    H258411   7.577   5.155   6.785
19512TIP3   OH258412   7.466   4.755   6.692
19512TIP3    H158413   7.439   4.787   6.604
19512TIP3    H258414   7.447   4.659   6.683
19513TIP3   OH258415   7.466   5.026   7.223
19513TIP3    H158416   7.486   4.931   7.222
19513TIP3    H258417   7.458   5.044   7.320
19514TIP3   OH258418   6.109   5.092   7.981
19514TIP3    H158419   6.106   5.066   7.886
19514TIP3    H258420   6.206   5.097   7.994
19515TIP3   OH258421   7.770   5.451   8.086
19515TIP3    H158422   7.843   5.385   8.079
19515TIP3    H258423   7.800   5.521   8.026
19516TIP3   OH258424   7.956   5.257   8.106
19516TIP3    H158425   7.882   5.206   8.145
19516TIP3    H258426   8.029   5.193   8.119
19517TIP3   OH258427   7.419   4.489   6.677
19517TIP3    H158428   7.495   4.453   6.726
19517TIP3    H258429   7.347   4.426   6.696
19518TIP3   OH258430   7.470   4.738   7.123
19518TIP3    H158431   7.511   4.649   7.139
19518TIP3    H258432   7.531   4.771   7.054
19519TIP3   OH258433   7.639   4.920   7.620
19519TIP3    H158434   7.726   4.945   7.580
19519TIP3    H258435   7.653   4.953   7.710
19520TIP3   OH258436   7.708   5.060   7.854
19520TIP3    H158437   7.630   5.094   7.902
19520TIP3    H258438   7.740   5.141   7.809
19521TIP3   OH258439   6.321   4.780   8.644
19521TIP3    H158440   6.419   4.780   8.646
19521TIP3    H258441   6.303   4.709   8.708
19522TIP3   OH258442   8.160   4.650   8.409
19522TIP3    H158443   8.219   4.584   8.366
19522TIP3    H258444   8.133   4.706   8.333
19523TIP3   OH258445   7.584   4.492   7.165
19523TIP3    H158446   7.634   4.476   7.247
19523TIP3    H258447   7.525   4.414   7.163
19524TIP3   OH258448   6.288   4.479   7.992
19524TIP3    H158449   6.350   4.404   7.992
19524TIP3    H258450   6.349   4.554   7.979
19525TIP3   OH258451   6.093   4.752   8.061
19525TIP3    H158452   6.139   4.743   7.975
19525TIP3    H258453   6.114   4.844   8.083
19526TIP3   OH258454   8.032   4.791   8.215
19526TIP3    H158455   7.944   4.831   8.235
19526TIP3    H258456   8.004   4.719   8.156
19527TIP3   OH258457   7.669   4.428   6.795
19527TIP3    H158458   7.707   4.354   6.743
19527TIP3    H258459   7.738   4.496   6.788
19528TIP3   OH258460   6.068   4.269   7.543
19528TIP3    H158461   5.975   4.259   7.571
19528TIP3    H258462   6.061   4.332   7.471
19529TIP3   OH258463   7.256   5.974   7.078
19529TIP3    H158464   7.255   5.933   6.990
19529TIP3    H258465   7.340   6.021   7.070
19530TIP3   OH258466   6.274   4.330   8.387
19530TIP3    H158467   6.200   4.376   8.428
19530TIP3    H258468   6.252   4.351   8.294
19531TIP3   OH258469   6.334   5.759   8.449
19531TIP3    H158470   6.241   5.735   8.431
19531TIP3    H258471   6.339   5.747   8.545
19532TIP3   OH258472   6.511   5.793   7.997
19532TIP3    H158473   6.460   5.867   7.958
19532TIP3    H258474   6.596   5.810   7.951
19533TIP3   OH258475   6.958   6.040   8.132
19533TIP3    H158476   6.998   6.041   8.221
19533TIP3    H258477   7.024   6.092   8.081
19534TIP3   OH258478   7.138   6.191   7.989
19534TIP3    H158479   7.212   6.135   7.959
19534TIP3    H258480   7.185   6.250   8.052
19535TIP3   OH258481   7.929   4.553   8.093
19535TIP3    H158482   7.838   4.546   8.060
19535TIP3    H258483   7.961   4.461   8.081
19536TIP3   OH258484   6.189   6.055   8.019
19536TIP3    H158485   6.100   6.087   7.994
19536TIP3    H258486   6.195   6.088   8.109
19537TIP3   OH258487   6.425   6.031   7.876
19537TIP3    H158488   6.339   6.044   7.923
19537TIP3    H258489   6.403   6.063   7.787
19538TIP3   OH258490   6.851   6.060   7.674
19538TIP3    H158491   6.781   6.079   7.609
19538TIP3    H258492   6.861   6.148   7.717
19539TIP3   OH258493   7.118   6.000   7.721
19539TIP3    H158494   7.022   6.011   7.706
19539TIP3    H258495   7.151   6.087   7.694
19540TIP3   OH258496   7.334   6.203   7.642
19540TIP3    H158497   7.308   6.273   7.580
19540TIP3    H258498   7.359   6.130   7.581
19541TIP3   OH258499   6.103   5.850   7.763
19541TIP3    H158500   6.127   5.822   7.854
19541TIP3    H258501   6.173   5.803   7.713
19542TIP3   OH258502   6.293   5.716   7.620
19542TIP3    H158503   6.308   5.633   7.670
19542TIP3    H258504   6.383   5.753   7.615
19543TIP3   OH258505   6.560   5.813   7.622
19543TIP3    H158506   6.590   5.721   7.611
19543TIP3    H258507   6.601   5.834   7.708
19544TIP3   OH258508   7.133   4.469   7.710
19544TIP3    H158509   7.090   4.399   7.763
19544TIP3    H258510   7.205   4.419   7.666
19545TIP3   OH258511   7.659   4.352   7.619
19545TIP3    H158512   7.695   4.402   7.542
19545TIP3    H258513   7.562   4.365   7.609
19546TIP3   OH258514   7.752   4.451   7.381
19546TIP3    H158515   7.825   4.398   7.341
19546TIP3    H258516   7.787   4.542   7.365
19547TIP3   OH258517   6.383   4.178   7.732
19547TIP3    H158518   6.291   4.145   7.730
19547TIP3    H258519   6.432   4.093   7.726
19548TIP3   OH258520   6.169   4.046   7.383
19548TIP3    H158521   6.198   4.098   7.307
19548TIP3    H258522   6.137   4.116   7.444
19549TIP3   OH258523   6.829   4.208   7.609
19549TIP3    H158524   6.886   4.258   7.549
19549TIP3    H258525   6.850   4.248   7.694
19550TIP3   OH258526   7.375   4.356   7.590
19550TIP3    H158527   7.373   4.316   7.503
19550TIP3    H258528   7.362   4.277   7.648
19551TIP3   OH258529   7.404   4.278   7.154
19551TIP3    H158530   7.314   4.314   7.162
19551TIP3    H258531   7.392   4.192   7.202
19552TIP3   OH258532   5.890   5.616   7.153
19552TIP3    H158533   5.804   5.581   7.122
19552TIP3    H258534   5.875   5.711   7.139
19553TIP3   OH258535   6.808   4.389   7.232
19553TIP3    H158536   6.858   4.335   7.296
19553TIP3    H258537   6.832   4.479   7.263
19554TIP3   OH258538   6.659   5.808   6.736
19554TIP3    H158539   6.747   5.831   6.699
19554TIP3    H258540   6.636   5.733   6.677
19555TIP3   OH258541   7.373   5.924   6.832
19555TIP3    H158542   7.368   5.827   6.817
19555TIP3    H258543   7.331   5.957   6.749
19556TIP3   OH258544   6.590   4.453   8.616
19556TIP3    H158545   6.557   4.387   8.679
19556TIP3    H258546   6.685   4.456   8.642
19557TIP3   OH258547   6.839   4.457   8.735
19557TIP3    H158548   6.924   4.431   8.696
19557TIP3    H258549   6.827   4.386   8.803
19558TIP3   OH258550   5.964   5.647   6.794
19558TIP3    H158551   5.958   5.669   6.889
19558TIP3    H258552   6.052   5.604   6.787
19559TIP3   OH258553   7.665   4.517   8.526
19559TIP3    H158554   7.684   4.485   8.617
19559TIP3    H258555   7.753   4.511   8.484
19560TIP3   OH258556   7.607   6.070   8.016
19560TIP3    H158557   7.526   6.037   7.972
19560TIP3    H258558   7.585   6.165   8.022
19561TIP3   OH258559   8.870   5.442   6.786
19561TIP3    H158560   8.839   5.533   6.764
19561TIP3    H258561   8.795   5.390   6.752
19562TIP3   OH258562   8.866   5.444   7.167
19562TIP3    H158563   8.899   5.411   7.252
19562TIP3    H258564   8.829   5.363   7.127
19563TIP3   OH258565   8.167   5.338   7.531
19563TIP3    H158566   8.198   5.269   7.594
19563TIP3    H258567   8.248   5.391   7.522
19564TIP3   OH258568   9.118   5.742   6.846
19564TIP3    H158569   9.097   5.669   6.906
19564TIP3    H258570   9.132   5.816   6.908
19565TIP3   OH258571   8.138   5.746   7.255
19565TIP3    H158572   8.130   5.648   7.257
19565TIP3    H258573   8.235   5.755   7.252
19566TIP3   OH258574   7.846   4.951   7.041
19566TIP3    H158575   7.796   5.034   7.053
19566TIP3    H258576   7.776   4.894   7.003
19567TIP3   OH258577   7.905   5.236   7.210
19567TIP3    H158578   7.953   5.159   7.248
19567TIP3    H258579   7.966   5.263   7.140
19568TIP3   OH258580   8.760   6.206   6.863
19568TIP3    H158581   8.808   6.135   6.815
19568TIP3    H258582   8.754   6.168   6.952
19569TIP3   OH258583   8.668   5.668   7.213
19569TIP3    H158584   8.704   5.589   7.169
19569TIP3    H258585   8.753   5.712   7.236
19570TIP3   OH258586   9.677   4.986   7.209
19570TIP3    H158587   9.708   5.068   7.253
19570TIP3    H258588   9.709   4.999   7.118
19571TIP3   OH258589   9.078   5.170   7.247
19571TIP3    H158590   9.123   5.086   7.267
19571TIP3    H258591   9.050   5.154   7.155
19572TIP3   OH258592   8.416   4.828   7.212
19572TIP3    H158593   8.397   4.900   7.149
19572TIP3    H258594   8.369   4.754   7.167
19573TIP3   OH258595   9.111   4.920   6.833
19573TIP3    H158596   9.182   4.903   6.899
19573TIP3    H258597   9.165   4.953   6.759
19574TIP3   OH258598   8.052   5.031   7.317
19574TIP3    H158599   8.134   5.010   7.365
19574TIP3    H258600   8.064   4.974   7.238
19575TIP3   OH258601   8.493   5.228   7.112
19575TIP3    H158602   8.586   5.203   7.124
19575TIP3    H258603   8.454   5.144   7.079
19576TIP3   OH258604   9.751   5.190   7.384
19576TIP3    H158605   9.669   5.240   7.369
19576TIP3    H258606   9.786   5.234   7.465
19577TIP3   OH258607   8.415   4.812   7.645
19577TIP3    H158608   8.354   4.848   7.578
19577TIP3    H258609   8.363   4.829   7.727
19578TIP3   OH258610   8.760   5.661   6.657
19578TIP3    H158611   8.722   5.638   6.571
19578TIP3    H258612   8.716   5.747   6.676
19579TIP3   OH258613   8.522   5.587   7.441
19579TIP3    H158614   8.458   5.651   7.479
19579TIP3    H258615   8.563   5.639   7.369
19580TIP3   OH258616   9.320   4.922   7.005
19580TIP3    H158617   9.326   4.865   7.083
19580TIP3    H258618   9.381   4.994   7.028
19581TIP3   OH258619   8.284   4.927   7.430
19581TIP3    H158620   8.348   4.998   7.453
19581TIP3    H258621   8.333   4.885   7.355
19582TIP3   OH258622   8.348   5.780   7.538
19582TIP3    H158623   8.322   5.866   7.501
19582TIP3    H258624   8.270   5.763   7.596
19583TIP3   OH258625   7.740   5.469   6.774
19583TIP3    H158626   7.704   5.494   6.688
19583TIP3    H258627   7.774   5.554   6.809
19584TIP3   OH258628   9.188   5.986   7.016
19584TIP3    H158629   9.099   5.976   7.056
19584TIP3    H258630   9.176   6.072   6.970
19585TIP3   OH258631   9.473   4.886   7.377
19585TIP3    H158632   9.387   4.917   7.345
19585TIP3    H258633   9.534   4.918   7.307
19586TIP3   OH258634   8.772   4.530   7.358
19586TIP3    H158635   8.759   4.435   7.376
19586TIP3    H258636   8.694   4.567   7.405
19587TIP3   OH258637   8.887   6.035   6.691
19587TIP3    H158638   8.934   5.951   6.670
19587TIP3    H258639   8.949   6.099   6.649
19588TIP3   OH258640   9.024   5.819   6.597
19588TIP3    H158641   9.001   5.740   6.547
19588TIP3    H258642   9.062   5.781   6.678
19589TIP3   OH258643   9.401   5.906   7.357
19589TIP3    H158644   9.400   5.823   7.305
19589TIP3    H258645   9.397   5.974   7.288
19590TIP3   OH258646   8.702   5.295   6.614
19590TIP3    H158647   8.621   5.345   6.589
19590TIP3    H258648   8.749   5.289   6.529
19591TIP3   OH258649   8.660   5.077   6.333
19591TIP3    H158650   8.728   5.127   6.380
19591TIP3    H258651   8.716   5.012   6.285
19592TIP3   OH258652   9.608   5.539   7.206
19592TIP3    H158653   9.525   5.590   7.211
19592TIP3    H258654   9.631   5.549   7.112
19593TIP3   OH258655   9.047   5.376   6.587
19593TIP3    H158656   8.995   5.399   6.667
19593TIP3    H258657   9.132   5.348   6.629
19594TIP3   OH258658   9.283   5.414   7.498
19594TIP3    H158659   9.283   5.496   7.550
19594TIP3    H258660   9.196   5.420   7.454
19595TIP3   OH258661   8.281   5.375   7.004
19595TIP3    H158662   8.238   5.316   6.937
19595TIP3    H258663   8.357   5.320   7.033
19596TIP3   OH258664   8.412   5.788   7.151
19596TIP3    H158665   8.389   5.741   7.069
19596TIP3    H258666   8.501   5.753   7.170
19597TIP3   OH258667   8.415   5.345   7.358
19597TIP3    H158668   8.450   5.321   7.269
19597TIP3    H258669   8.461   5.430   7.377
19598TIP3   OH258670   8.946   5.981   7.135
19598TIP3    H158671   8.932   6.060   7.190
19598TIP3    H258672   8.930   5.907   7.196
19599TIP3   OH258673   8.553   5.904   7.680
19599TIP3    H158674   8.494   5.965   7.729
19599TIP3    H258675   8.488   5.849   7.633
19600TIP3   OH258676   8.887   5.235   6.412
19600TIP3    H158677   8.948   5.292   6.465
19600TIP3    H258678   8.914   5.259   6.320
19601TIP3   OH258679   8.309   5.460   7.781
19601TIP3    H158680   8.312   5.546   7.828
19601TIP3    H258681   8.214   5.439   7.791
19602TIP3   OH258682   8.633   5.913   6.689
19602TIP3    H158683   8.711   5.968   6.707
19602TIP3    H258684   8.568   5.976   6.656
19603TIP3   OH258685   8.347   6.074   7.770
19603TIP3    H158686   8.312   6.069   7.679
19603TIP3    H258687   8.269   6.050   7.824
19604TIP3   OH258688   9.401   4.478   6.455
19604TIP3    H158689   9.324   4.496   6.512
19604TIP3    H258690   9.412   4.563   6.409
19605TIP3   OH258691   8.145   5.218   6.812
19605TIP3    H158692   8.080   5.259   6.752
19605TIP3    H258693   8.110   5.128   6.820
19606TIP3   OH258694   9.204   5.842   6.012
19606TIP3    H158695   9.213   5.939   5.994
19606TIP3    H258696   9.296   5.812   5.998
19607TIP3   OH258697   7.928   5.600   7.715
19607TIP3    H158698   7.864   5.574   7.646
19607TIP3    H258699   7.966   5.514   7.742
19608TIP3   OH258700   7.783   5.796   7.345
19608TIP3    H158701   7.877   5.780   7.336
19608TIP3    H258702   7.782   5.869   7.408
19609TIP3   OH258703   8.753   6.028   7.538
19609TIP3    H158704   8.750   6.122   7.566
19609TIP3    H258705   8.681   5.990   7.593
19610TIP3   OH258706   8.498   6.170   6.482
19610TIP3    H158707   8.465   6.114   6.409
19610TIP3    H258708   8.483   6.258   6.446
19611TIP3   OH258709   7.951   6.009   6.874
19611TIP3    H158710   7.998   5.998   6.960
19611TIP3    H258711   7.897   5.927   6.873
19612TIP3   OH258712   8.716   6.061   6.133
19612TIP3    H158713   8.773   5.991   6.093
19612TIP3    H258714   8.752   6.065   6.224
19613TIP3   OH258715   8.761   6.110   6.407
19613TIP3    H158716   8.675   6.110   6.453
19613TIP3    H258717   8.818   6.062   6.470
19614TIP3   OH258718   9.544   5.379   7.666
19614TIP3    H158719   9.461   5.388   7.617
19614TIP3    H258720   9.559   5.283   7.664
19615TIP3   OH258721   8.133   5.784   7.706
19615TIP3    H158722   8.183   5.766   7.788
19615TIP3    H258723   8.059   5.719   7.713
19616TIP3   OH258724   8.532   4.606   7.487
19616TIP3    H158725   8.443   4.575   7.461
19616TIP3    H258726   8.507   4.689   7.533
19617TIP3   OH258727   9.066   4.723   7.682
19617TIP3    H158728   9.134   4.694   7.746
19617TIP3    H258729   8.982   4.702   7.728
19618TIP3   OH258730   9.302   5.148   7.598
19618TIP3    H158731   9.254   5.147   7.684
19618TIP3    H258732   9.282   5.237   7.563
19619TIP3   OH258733   8.964   5.285   6.157
19619TIP3    H158734   8.931   5.256   6.070
19619TIP3    H258735   9.048   5.328   6.132
19620TIP3   OH258736   8.677   4.658   6.459
19620TIP3    H158737   8.645   4.654   6.551
19620TIP3    H258738   8.641   4.573   6.425
19621TIP3   OH258739   8.463   5.122   7.507
19621TIP3    H158740   8.413   5.144   7.588
19621TIP3    H258741   8.447   5.203   7.453
19622TIP3   OH258742   8.347   5.009   7.021
19622TIP3    H158743   8.255   4.981   7.038
19622TIP3    H258744   8.362   4.968   6.932
19623TIP3   OH258745   8.839   5.095   6.748
19623TIP3    H158746   8.786   5.165   6.705
19623TIP3    H258747   8.894   5.063   6.674
19624TIP3   OH258748   9.012   5.374   7.836
19624TIP3    H158749   8.991   5.300   7.898
19624TIP3    H258750   9.107   5.386   7.853
19625TIP3   OH258751   8.996   5.123   6.987
19625TIP3    H158752   8.936   5.150   6.914
19625TIP3    H258753   9.031   5.041   6.946
19626TIP3   OH258754   8.281   5.152   7.716
19626TIP3    H158755   8.313   5.213   7.784
19626TIP3    H258756   8.271   5.069   7.766
19627TIP3   OH258757   8.332   4.628   6.425
19627TIP3    H158758   8.326   4.625   6.522
19627TIP3    H258759   8.252   4.679   6.402
19628TIP3   OH258760   7.875   4.676   7.296
19628TIP3    H158761   7.953   4.705   7.348
19628TIP3    H258762   7.914   4.639   7.215
19629TIP3   OH258763   7.850   4.654   6.816
19629TIP3    H158764   7.896   4.691   6.738
19629TIP3    H258765   7.790   4.727   6.837
19630TIP3   OH258766   9.005   5.370   7.411
19630TIP3    H158767   9.038   5.298   7.352
19630TIP3    H258768   8.977   5.317   7.488
19631TIP3   OH258769   8.674   4.836   7.083
19631TIP3    H158770   8.593   4.830   7.138
19631TIP3    H258771   8.744   4.827   7.149
19632TIP3   OH258772   8.109   4.885   7.091
19632TIP3    H158773   8.015   4.890   7.064
19632TIP3    H258774   8.134   4.794   7.068
19633TIP3   OH258775   8.379   4.884   6.779
19633TIP3    H158776   8.474   4.896   6.759
19633TIP3    H258777   8.335   4.906   6.694
19634TIP3   OH258778   9.166   4.909   7.287
19634TIP3    H158779   9.127   4.918   7.377
19634TIP3    H258780   9.106   4.845   7.246
19635TIP3   OH258781   8.218   4.919   6.557
19635TIP3    H158782   8.147   4.872   6.509
19635TIP3    H258783   8.271   4.953   6.482
19636TIP3   OH258784   8.295   5.707   7.925
19636TIP3    H158785   8.375   5.735   7.974
19636TIP3    H258786   8.230   5.704   7.998
19637TIP3   OH258787   8.759   5.159   7.179
19637TIP3    H158788   8.830   5.119   7.127
19637TIP3    H258789   8.770   5.115   7.265
19638TIP3   OH258790   8.282   4.647   7.056
19638TIP3    H158791   8.249   4.567   7.102
19638TIP3    H258792   8.336   4.609   6.986
19639TIP3   OH258793   8.735   5.053   7.471
19639TIP3    H158794   8.646   5.090   7.484
19639TIP3    H258795   8.793   5.114   7.520
19640TIP3   OH258796   8.469   5.449   6.562
19640TIP3    H158797   8.399   5.381   6.553
19640TIP3    H258798   8.453   5.480   6.655
19641TIP3   OH258799   9.376   5.686   7.189
19641TIP3    H158800   9.385   5.732   7.104
19641TIP3    H258801   9.291   5.638   7.177
19642TIP3   OH258802   8.930   4.760   6.424
19642TIP3    H158803   8.833   4.743   6.434
19642TIP3    H258804   8.940   4.853   6.450
19643TIP3   OH258805   8.876   5.767   7.560
19643TIP3    H158806   8.895   5.738   7.650
19643TIP3    H258807   8.831   5.852   7.572
19644TIP3   OH258808   9.000   5.006   6.530
19644TIP3    H158809   9.096   5.009   6.546
19644TIP3    H258810   8.985   5.085   6.475
19645TIP3   OH258811   8.163   5.468   7.240
19645TIP3    H158812   8.202   5.440   7.155
19645TIP3    H258813   8.204   5.406   7.302
19646TIP3   OH258814   8.616   5.597   6.385
19646TIP3    H158815   8.571   5.684   6.395
19646TIP3    H258816   8.562   5.541   6.445
19647TIP3   OH258817   8.043   5.391   7.854
19647TIP3    H158818   8.067   5.377   7.948
19647TIP3    H258819   7.977   5.321   7.840
19648TIP3   OH258820   8.769   5.503   7.873
19648TIP3    H158821   8.711   5.443   7.823
19648TIP3    H258822   8.858   5.469   7.846
19649TIP3   OH258823   9.033   6.038   7.448
19649TIP3    H158824   8.939   6.025   7.467
19649TIP3    H258825   9.064   6.077   7.533
19650TIP3   OH258826   9.441   5.094   6.367
19650TIP3    H158827   9.379   5.049   6.305
19650TIP3    H258828   9.439   5.183   6.325
19651TIP3   OH258829   9.656   5.944   7.453
19651TIP3    H158830   9.559   5.946   7.438
19651TIP3    H258831   9.687   5.917   7.364
19652TIP3   OH258832   9.137   5.912   6.273
19652TIP3    H158833   9.121   5.836   6.331
19652TIP3    H258834   9.155   5.871   6.187
19653TIP3   OH258835   9.139   5.545   7.114
19653TIP3    H158836   9.046   5.519   7.126
19653TIP3    H258837   9.174   5.465   7.069
19654TIP3   OH258838   8.264   5.771   6.867
19654TIP3    H158839   8.263   5.851   6.811
19654TIP3    H258840   8.169   5.752   6.873
19655TIP3   OH258841   7.827   5.076   6.567
19655TIP3    H158842   7.875   5.159   6.588
19655TIP3    H258843   7.751   5.082   6.629
19656TIP3   OH258844   8.404   5.538   6.810
19656TIP3    H158845   8.369   5.627   6.830
19656TIP3    H258846   8.369   5.486   6.884
19657TIP3   OH258847   8.533   6.115   7.335
19657TIP3    H158848   8.575   6.187   7.285
19657TIP3    H258849   8.608   6.079   7.384
19658TIP3   OH258850   8.183   6.010   6.716
19658TIP3    H158851   8.097   6.016   6.763
19658TIP3    H258852   8.212   6.103   6.717
19659TIP3   OH258853   8.925   5.751   7.292
19659TIP3    H158854   8.914   5.748   7.389
19659TIP3    H258855   9.001   5.692   7.279
19660TIP3   OH258856   8.896   5.642   6.177
19660TIP3    H158857   8.950   5.618   6.255
19660TIP3    H258858   8.809   5.613   6.205
19661TIP3   OH258859   9.158   6.309   7.364
19661TIP3    H158860   9.098   6.232   7.354
19661TIP3    H258861   9.150   6.352   7.276
19662TIP3   OH258862   9.235   6.117   5.994
19662TIP3    H158863   9.273   6.186   5.938
19662TIP3    H258864   9.156   6.165   6.026
19663TIP3   OH258865   8.257   4.895   7.862
19663TIP3    H158866   8.160   4.898   7.876
19663TIP3    H258867   8.285   4.834   7.932
19664TIP3   OH258868   9.056   5.582   6.398
19664TIP3    H158869   9.046   5.512   6.465
19664TIP3    H258870   9.153   5.576   6.381
19665TIP3   OH258871   7.970   5.978   7.496
19665TIP3    H158872   8.024   5.902   7.523
19665TIP3    H258873   8.000   6.045   7.558
19666TIP3   OH258874   8.262   5.624   6.176
19666TIP3    H158875   8.277   5.533   6.143
19666TIP3    H258876   8.242   5.607   6.270
19667TIP3   OH258877   8.207   5.628   6.450
19667TIP3    H158878   8.281   5.598   6.505
19667TIP3    H258879   8.215   5.725   6.456
19668TIP3   OH258880   7.944   5.321   6.650
19668TIP3    H158881   7.878   5.366   6.707
19668TIP3    H258882   7.960   5.390   6.583
19669TIP3   OH258883   9.086   4.963   7.547
19669TIP3    H158884   9.172   4.997   7.576
19669TIP3    H258885   9.078   4.880   7.599
19670TIP3   OH258886   8.968   4.713   6.707
19670TIP3    H158887   8.960   4.734   6.612
19670TIP3    H258888   9.011   4.793   6.743
19671TIP3   OH258889   8.477   5.829   6.401
19671TIP3    H158890   8.388   5.856   6.430
19671TIP3    H258891   8.485   5.879   6.318
19672TIP3   OH258892   8.661   4.890   6.810
19672TIP3    H158893   8.728   4.959   6.792
19672TIP3    H258894   8.667   4.881   6.907
19673TIP3   OH258895   8.931   5.208   7.617
19673TIP3    H158896   8.953   5.259   7.698
19673TIP3    H258897   8.986   5.129   7.626
19674TIP3   OH258898   8.807   4.617   6.912
19674TIP3    H158899   8.807   4.691   6.975
19674TIP3    H258900   8.866   4.652   6.842
19675TIP3   OH258901   8.219   5.903   6.461
19675TIP3    H158902   8.186   5.972   6.400
19675TIP3    H258903   8.201   5.943   6.548
19676TIP3   OH258904   8.318   4.614   6.701
19676TIP3    H158905   8.317   4.704   6.739
19676TIP3    H258906   8.413   4.594   6.710
19677TIP3   OH258907   9.570   5.107   7.603
19677TIP3    H158908   9.472   5.103   7.602
19677TIP3    H258909   9.590   5.078   7.513
19678TIP3   OH258910   9.222   5.306   6.989
19678TIP3    H158911   9.148   5.242   6.998
19678TIP3    H258912   9.295   5.258   7.034
19679TIP3   OH258913   7.935   5.533   6.456
19679TIP3    H158914   8.003   5.601   6.464
19679TIP3    H258915   7.979   5.476   6.389
19680TIP3   OH258916   7.879   4.807   6.592
19680TIP3    H158917   7.878   4.904   6.584
19680TIP3    H258918   7.802   4.781   6.541
19681TIP3   OH258919   9.188   6.256   6.935
19681TIP3    H158920   9.147   6.307   6.861
19681TIP3    H258921   9.282   6.277   6.917
19682TIP3   OH258922   8.266   4.527   7.464
19682TIP3    H158923   8.236   4.493   7.377
19682TIP3    H258924   8.257   4.448   7.521
19683TIP3   OH258925   7.811   5.753   6.845
19683TIP3    H158926   7.733   5.777   6.897
19683TIP3    H258927   7.786   5.788   6.757
19684TIP3   OH258928   7.965   6.283   7.909
19684TIP3    H158929   8.049   6.283   7.959
19684TIP3    H258930   7.942   6.189   7.912
19685TIP3   OH258931   8.458   6.253   7.955
19685TIP3    H158932   8.548   6.216   7.959
19685TIP3    H258933   8.419   6.197   7.885
19686TIP3   OH258934   8.430   5.827   6.096
19686TIP3    H158935   8.372   5.753   6.126
19686TIP3    H258936   8.502   5.777   6.054
19687TIP3   OH258937   9.114   6.144   7.692
19687TIP3    H158938   9.065   6.084   7.753
19687TIP3    H258939   9.160   6.198   7.757
19688TIP3   OH258940   8.862   5.870   5.999
19688TIP3    H158941   8.909   5.806   6.056
19688TIP3    H258942   8.916   5.870   5.918
19689TIP3   OH258943   8.094   5.692   8.114
19689TIP3    H158944   8.110   5.596   8.122
19689TIP3    H258945   8.006   5.693   8.072
19690TIP3   OH258946   8.070   5.346   6.309
19690TIP3    H158947   8.125   5.309   6.380
19690TIP3    H258948   8.136   5.349   6.237
19691TIP3   OH258949   8.702   5.777   7.888
19691TIP3    H158950   8.660   5.790   7.801
19691TIP3    H258951   8.734   5.684   7.883
19692TIP3   OH258952   8.577   5.541   6.116
19692TIP3    H158953   8.582   5.553   6.213
19692TIP3    H258954   8.579   5.443   6.110
19693TIP3   OH258955   9.192   5.784   7.494
19693TIP3    H158956   9.266   5.831   7.450
19693TIP3    H258957   9.119   5.845   7.480
19694TIP3   OH258958   8.213   5.425   8.096
19694TIP3    H158959   8.288   5.367   8.077
19694TIP3    H258960   8.237   5.459   8.185
19695TIP3   OH258961   8.280   5.246   6.532
19695TIP3    H158962   8.255   5.202   6.614
19695TIP3    H258963   8.316   5.172   6.479
19696TIP3   OH258964   8.546   5.311   7.758
19696TIP3    H158965   8.470   5.372   7.761
19696TIP3    H258966   8.597   5.345   7.681
19697TIP3   OH258967   8.379   5.041   6.372
19697TIP3    H158968   8.353   5.042   6.277
19697TIP3    H258969   8.477   5.045   6.364
19698TIP3   OH258970   9.065   5.715   7.890
19698TIP3    H158971   9.151   5.696   7.851
19698TIP3    H258972   9.060   5.648   7.961
19699TIP3   OH258973   9.200   5.373   6.034
19699TIP3    H158974   9.180   5.325   5.951
19699TIP3    H258975   9.168   5.463   6.009
19700TIP3   OH258976   8.671   5.099   7.886
19700TIP3    H158977   8.671   5.018   7.830
19700TIP3    H258978   8.627   5.164   7.827
19701TIP3   OH258979   8.673   4.886   7.693
19701TIP3    H158980   8.702   4.926   7.608
19701TIP3    H258981   8.580   4.863   7.674
19702TIP3   OH258982   8.701   5.422   7.567
19702TIP3    H158983   8.784   5.425   7.517
19702TIP3    H258984   8.646   5.489   7.521
19703TIP3   OH258985   9.296   5.388   7.960
19703TIP3    H158986   9.338   5.303   7.939
19703TIP3    H258987   9.362   5.451   7.926
19704TIP3   OH258988   9.325   5.636   7.677
19704TIP3    H158989   9.267   5.691   7.619
19704TIP3    H258990   9.413   5.656   7.637
19705TIP3   OH258991   8.545   5.213   8.112
19705TIP3    H158992   8.478   5.143   8.128
19705TIP3    H258993   8.582   5.185   8.026
19706TIP3   OH258994   8.806   4.650   7.759
19706TIP3    H158995   8.757   4.732   7.737
19706TIP3    H258996   8.737   4.582   7.747
19707TIP3   OH258997   8.931   5.155   7.976
19707TIP3    H158998   8.918   5.143   8.072
19707TIP3    H258999   8.841   5.130   7.945
19708TIP3   OH259000   9.173   5.111   7.833
19708TIP3    H159001   9.095   5.105   7.892
19708TIP3    H259002   9.244   5.075   7.891
19709TIP3   OH259003   9.386   5.043   7.995
19709TIP3    H159004   9.404   4.947   8.006
19709TIP3    H259005   9.393   5.077   8.086
19710TIP3   OH259006   8.388   4.993   8.167
19710TIP3    H159007   8.394   4.901   8.133
19710TIP3    H259008   8.423   4.980   8.258
19711TIP3   OH259009   8.901   4.659   8.017
19711TIP3    H159010   8.968   4.588   8.011
19711TIP3    H259011   8.860   4.654   7.928
19712TIP3   OH259012   8.966   4.875   8.175
19712TIP3    H159013   8.944   4.804   8.111
19712TIP3    H259014   8.888   4.934   8.169
19713TIP3   OH259015   8.189   6.117   6.284
19713TIP3    H159016   8.283   6.105   6.259
19713TIP3    H259017   8.155   6.152   6.199
19714TIP3   OH259018   7.667   5.483   6.495
19714TIP3    H159019   7.761   5.506   6.478
19714TIP3    H259020   7.660   5.395   6.452
19715TIP3   OH259021   7.576   6.096   6.909
19715TIP3    H159022   7.513   6.032   6.868
19715TIP3    H259023   7.624   6.039   6.972
19716TIP3   OH259024   7.712   5.952   7.096
19716TIP3    H159025   7.710   5.873   7.153
19716TIP3    H259026   7.767   6.011   7.150
19717TIP3   OH259027   9.436   6.357   6.894
19717TIP3    H159028   9.473   6.394   6.976
19717TIP3    H259029   9.503   6.382   6.829
19718TIP3   OH259030   9.471   6.383   7.185
19718TIP3    H159031   9.430   6.296   7.168
19718TIP3    H259032   9.534   6.360   7.253
19719TIP3   OH259033   9.333   5.561   6.368
19719TIP3    H159034   9.403   5.621   6.337
19719TIP3    H259035   9.377   5.520   6.446
19720TIP3   OH259036   9.463   5.430   6.570
19720TIP3    H159037   9.403   5.385   6.633
19720TIP3    H259038   9.535   5.462   6.628
19721TIP3   OH259039   9.531   5.834   6.985
19721TIP3    H159040   9.579   5.756   6.949
19721TIP3    H259041   9.460   5.847   6.920
19722TIP3   OH259042   9.352   6.129   7.194
19722TIP3    H159043   9.282   6.151   7.257
19722TIP3    H259044   9.303   6.078   7.126
19723TIP3   OH259045   9.401   5.334   6.219
19723TIP3    H159046   9.329   5.337   6.151
19723TIP3    H259047   9.375   5.410   6.274
19724TIP3   OH259048   9.269   5.009   6.174
19724TIP3    H159049   9.231   5.044   6.092
19724TIP3    H259050   9.246   4.914   6.166
19725TIP3   OH259051   9.276   5.282   6.718
19725TIP3    H159052   9.288   5.186   6.711
19725TIP3    H259053   9.265   5.294   6.815
19726TIP3   OH259054   7.904   5.360   7.462
19726TIP3    H159055   7.904   5.327   7.370
19726TIP3    H259056   8.000   5.360   7.481
19727TIP3   OH259057   9.559   5.707   7.565
19727TIP3    H159058   9.636   5.648   7.575
19727TIP3    H259059   9.603   5.789   7.536
19728TIP3   OH259060   9.759   5.527   7.592
19728TIP3    H159061   9.682   5.473   7.620
19728TIP3    H259062   9.831   5.463   7.613
19729TIP3   OH259063   9.216   4.743   6.158
19729TIP3    H159064   9.296   4.714   6.207
19729TIP3    H259065   9.148   4.680   6.186
19730TIP3   OH259066   9.273   4.998   6.612
19730TIP3    H159067   9.313   4.910   6.630
19730TIP3    H259068   9.334   5.030   6.543
19731TIP3   OH259069   9.435   5.179   7.106
19731TIP3    H159070   9.522   5.203   7.065
19731TIP3    H259071   9.452   5.210   7.197
19732TIP3   OH259072   9.504   5.317   7.342
19732TIP3    H159073   9.425   5.352   7.388
19732TIP3    H259074   9.539   5.397   7.298
19733TIP3   OH259075   8.121   5.044   8.139
19733TIP3    H159076   8.219   5.037   8.140
19733TIP3    H259077   8.097   4.959   8.180
19734TIP3   OH259078   9.992   4.932   7.877
19734TIP3    H159079  10.018   4.847   7.837
19734TIP3    H259080   9.935   4.971   7.807
19735TIP3   OH259081   9.378   4.748   6.654
19735TIP3    H159082   9.435   4.729   6.731
19735TIP3    H259083   9.321   4.669   6.652
19736TIP3   OH259084   8.082   4.736   7.472
19736TIP3    H159085   8.143   4.660   7.480
19736TIP3    H259086   8.145   4.809   7.464
19737TIP3   OH259087   7.885   5.010   7.542
19737TIP3    H159088   7.935   5.001   7.458
19737TIP3    H259089   7.920   5.094   7.575
19738TIP3   OH259090   9.814   5.038   7.705
19738TIP3    H159091   9.727   5.083   7.703
19738TIP3    H259092   9.796   4.969   7.638
19739TIP3   OH259093   9.463   4.689   6.276
19739TIP3    H159094   9.514   4.612   6.244
19739TIP3    H259095   9.533   4.758   6.279
19740TIP3   OH259096   7.869   4.517   7.048
19740TIP3    H159097   7.774   4.510   7.069
19740TIP3    H259098   7.868   4.572   6.966
19741TIP3   OH259099   9.026   6.222   6.550
19741TIP3    H159100   9.071   6.199   6.466
19741TIP3    H259101   9.092   6.283   6.589
19742TIP3   OH259102   8.089   4.595   7.860
19742TIP3    H159103   8.038   4.587   7.941
19742TIP3    H259104   8.022   4.630   7.799
19743TIP3   OH259105   8.129   6.021   7.938
19743TIP3    H159106   8.038   5.991   7.920
19743TIP3    H259107   8.140   5.997   8.031
19744TIP3   OH259108   8.305   6.051   7.483
19744TIP3    H159109   8.259   6.127   7.444
19744TIP3    H259110   8.392   6.064   7.440
19745TIP3   OH259111   8.745   6.297   7.603
19745TIP3    H159112   8.784   6.291   7.694
19745TIP3    H259113   8.816   6.346   7.556
19746TIP3   OH259114   8.933   6.449   7.476
19746TIP3    H159115   9.010   6.402   7.439
19746TIP3    H259116   8.974   6.526   7.520
19747TIP3   OH259117   9.723   4.808   7.578
19747TIP3    H159118   9.633   4.800   7.542
19747TIP3    H259119   9.757   4.716   7.566
19748TIP3   OH259120   7.984   6.309   7.504
19748TIP3    H159121   7.895   6.346   7.483
19748TIP3    H259122   7.993   6.338   7.596
19749TIP3   OH259123   8.221   6.288   7.363
19749TIP3    H159124   8.134   6.301   7.409
19749TIP3    H259125   8.200   6.321   7.273
19750TIP3   OH259126   8.646   6.316   7.159
19750TIP3    H159127   8.575   6.337   7.096
19750TIP3    H259128   8.657   6.402   7.205
19751TIP3   OH259129   8.913   6.257   7.208
19751TIP3    H159130   8.818   6.272   7.191
19751TIP3    H259131   8.953   6.337   7.170
19752TIP3   OH259132   9.128   6.450   7.125
19752TIP3    H159133   9.104   6.529   7.072
19752TIP3    H259134   9.148   6.385   7.054
19753TIP3   OH259135   7.893   6.101   7.254
19753TIP3    H159136   7.923   6.077   7.344
19753TIP3    H259137   7.965   6.059   7.202
19754TIP3   OH259138   8.088   5.975   7.109
19754TIP3    H159139   8.103   5.890   7.156
19754TIP3    H259140   8.179   6.010   7.104
19755TIP3   OH259141   8.356   6.070   7.109
19755TIP3    H159142   8.386   5.978   7.097
19755TIP3    H259143   8.399   6.090   7.194
19756TIP3   OH259144   8.926   4.724   7.192
19756TIP3    H159145   8.887   4.653   7.247
19756TIP3    H259146   9.002   4.679   7.151
19757TIP3   OH259147   9.454   4.614   7.110
19757TIP3    H159148   9.495   4.655   7.030
19757TIP3    H259149   9.359   4.625   7.093
19758TIP3   OH259150   9.555   4.698   6.866
19758TIP3    H159151   9.629   4.646   6.831
19758TIP3    H259152   9.588   4.789   6.850
19759TIP3   OH259153   8.179   4.435   7.215
19759TIP3    H159154   8.087   4.401   7.216
19759TIP3    H259155   8.229   4.350   7.212
19760TIP3   OH259156   7.965   4.303   6.862
19760TIP3    H159157   7.996   4.360   6.789
19760TIP3    H259158   7.938   4.369   6.929
19761TIP3   OH259159   8.620   4.469   7.095
19761TIP3    H159160   8.680   4.516   7.034
19761TIP3    H259161   8.648   4.504   7.181
19762TIP3   OH259162   9.166   4.613   7.078
19762TIP3    H159163   9.174   4.575   6.990
19762TIP3    H259164   9.155   4.532   7.134
19763TIP3   OH259165   9.199   4.534   6.640
19763TIP3    H159166   9.111   4.572   6.651
19763TIP3    H259167   9.189   4.449   6.687
19764TIP3   OH259168   7.681   5.876   6.644
19764TIP3    H159169   7.597   5.841   6.609
19764TIP3    H259170   7.672   5.969   6.618
19765TIP3   OH259171   8.082   4.464   6.625
19765TIP3    H159172   8.130   4.400   6.570
19765TIP3    H259173   8.156   4.517   6.662
19766TIP3   OH259174   8.595   4.639   6.725
19766TIP3    H159175   8.655   4.591   6.784
19766TIP3    H259176   8.618   4.731   6.750
19767TIP3   OH259177   8.455   6.065   6.224
19767TIP3    H159178   8.544   6.086   6.188
19767TIP3    H259179   8.433   5.990   6.165
19768TIP3   OH259180   9.167   6.178   6.319
19768TIP3    H159181   9.161   6.081   6.304
19768TIP3    H259182   9.129   6.212   6.235
19769TIP3   OH259183   8.387   4.716   8.107
19769TIP3    H159184   8.353   4.645   8.163
19769TIP3    H259185   8.482   4.716   8.133
19770TIP3   OH259186   8.636   4.713   8.224
19770TIP3    H159187   8.721   4.687   8.184
19770TIP3    H259188   8.624   4.642   8.291
19771TIP3   OH259189   7.761   5.900   6.281
19771TIP3    H159190   7.760   5.927   6.374
19771TIP3    H259191   7.849   5.858   6.271
19772TIP3   OH259192   9.460   4.777   8.007
19772TIP3    H159193   9.479   4.743   8.097
19772TIP3    H259194   9.548   4.772   7.964
19773TIP3   OH259195   9.947   5.569   7.010
19773TIP3    H159196   9.988   5.508   7.075
19773TIP3    H259197  10.021   5.628   6.991
19774TIP3   OH259198   9.922   6.005   6.814
19774TIP3    H159199   9.908   5.933   6.745
19774TIP3    H259200  10.011   6.032   6.783
19775TIP3   OH259201   9.641   5.204   6.529
19775TIP3    H159202   9.596   5.290   6.539
19775TIP3    H259203   9.570   5.150   6.491
19776TIP3   OH259204   9.703   5.500   6.695
19776TIP3    H159205   9.756   5.423   6.726
19776TIP3    H259206   9.770   5.553   6.647
19777TIP3   OH259207  10.402   5.940   6.664
19777TIP3    H159208  10.431   5.864   6.612
19777TIP3    H259209  10.468   5.939   6.737
19778TIP3   OH259210  10.195   5.082   6.708
19778TIP3    H159211  10.196   5.146   6.635
19778TIP3    H259212  10.163   5.002   6.663
19779TIP3   OH259213   9.843   5.286   6.802
19779TIP3    H159214   9.925   5.268   6.852
19779TIP3    H259215   9.859   5.232   6.722
19780TIP3   OH259216  10.243   5.521   6.576
19780TIP3    H159217  10.336   5.495   6.591
19780TIP3    H259218  10.204   5.437   6.544
19781TIP3   OH259219  10.198   5.065   7.132
19781TIP3    H159220  10.140   5.102   7.062
19781TIP3    H259221  10.145   5.084   7.212
19782TIP3   OH259222  10.267   5.845   6.938
19782TIP3    H159223  10.220   5.909   6.992
19782TIP3    H259224  10.350   5.893   6.918
19783TIP3   OH259225  10.067   5.181   6.921
19783TIP3    H159226  10.133   5.252   6.941
19783TIP3    H259227  10.114   5.139   6.844
19784TIP3   OH259228   9.534   5.725   6.262
19784TIP3    H159229   9.500   5.756   6.176
19784TIP3    H259230   9.572   5.806   6.302
19785TIP3   OH259231  10.165   6.059   6.633
19785TIP3    H159232  10.128   6.005   6.561
19785TIP3    H259233  10.251   6.011   6.646
19786TIP3   OH259234  10.233   5.590   6.848
19786TIP3    H159235  10.217   5.588   6.751
19786TIP3    H259236  10.249   5.686   6.864
19787TIP3   OH259237  10.007   5.783   7.202
19787TIP3    H159238  10.030   5.853   7.264
19787TIP3    H259239   9.950   5.724   7.254
19788TIP3   OH259240  10.403   6.205   6.202
19788TIP3    H159241  10.455   6.279   6.234
19788TIP3    H259242  10.343   6.247   6.138
19789TIP3   OH259243   9.950   5.442   6.252
19789TIP3    H159244   9.880   5.505   6.227
19789TIP3    H259245   9.910   5.396   6.326
19790TIP3   OH259246   9.718   5.850   7.197
19790TIP3    H159247   9.649   5.818   7.136
19790TIP3    H259248   9.754   5.766   7.234
19791TIP3   OH259249  10.302   6.394   5.994
19791TIP3    H159250  10.273   6.383   5.902
19791TIP3    H259251  10.274   6.486   6.012
19792TIP3   OH259252   9.744   6.265   6.359
19792TIP3    H159253   9.794   6.254   6.442
19792TIP3    H259254   9.692   6.182   6.359
19793TIP3   OH259255   9.886   6.049   7.154
19793TIP3    H159256   9.945   6.066   7.230
19793TIP3    H259257   9.836   5.975   7.194
19794TIP3   OH259258  10.313   4.856   6.987
19794TIP3    H159259  10.231   4.826   6.946
19794TIP3    H259260  10.284   4.940   7.027
19795TIP3   OH259261  10.263   5.357   6.975
19795TIP3    H159262  10.245   5.397   7.061
19795TIP3    H259263  10.256   5.437   6.918
19796TIP3   OH259264  10.145   5.262   6.504
19796TIP3    H159265  10.054   5.237   6.531
19796TIP3    H259266  10.146   5.231   6.412
19797TIP3   OH259267  10.051   5.402   7.211
19797TIP3    H159268  10.110   5.448   7.271
19797TIP3    H259269  10.048   5.313   7.250
19798TIP3   OH259270  10.112   4.897   5.912
19798TIP3    H159271  10.085   4.884   6.005
19798TIP3    H259272  10.033   4.937   5.874
19799TIP3   OH259273   9.667   4.931   6.791
19799TIP3    H159274   9.749   4.959   6.836
19799TIP3    H259275   9.698   4.897   6.705
19800TIP3   OH259276   9.645   4.907   6.299
19800TIP3    H159277   9.692   4.947   6.223
19800TIP3    H259278   9.589   4.982   6.326
19801TIP3   OH259279   9.906   5.142   6.576
19801TIP3    H159280   9.810   5.147   6.551
19801TIP3    H259281   9.927   5.048   6.563
19802TIP3   OH259282  10.160   5.163   6.246
19802TIP3    H159283  10.225   5.202   6.186
19802TIP3    H259284  10.080   5.171   6.189
19803TIP3   OH259285   9.993   5.168   6.037
19803TIP3    H159286   9.923   5.129   5.981
19803TIP3    H259287  10.056   5.198   5.970
19804TIP3   OH259288  10.073   4.890   6.545
19804TIP3    H159289  10.040   4.801   6.575
19804TIP3    H259290  10.131   4.859   6.475
19805TIP3   OH259291  10.241   5.709   6.048
19805TIP3    H159292  10.177   5.635   6.053
19805TIP3    H259293  10.249   5.736   6.142
19806TIP3   OH259294   9.826   5.641   7.351
19806TIP3    H159295   9.821   5.613   7.445
19806TIP3    H259296   9.764   5.577   7.311
19807TIP3   OH259297  10.066   6.031   6.352
19807TIP3    H159298  10.052   6.108   6.294
19807TIP3    H259299   9.977   5.993   6.361
19808TIP3   OH259300   9.621   5.333   6.051
19808TIP3    H159301   9.672   5.413   6.075
19808TIP3    H259302   9.547   5.338   6.116
19809TIP3   OH259303  10.223   5.800   6.319
19809TIP3    H159304  10.173   5.884   6.327
19809TIP3    H259305  10.180   5.745   6.386
19810TIP3   OH259306   9.976   6.264   6.201
19810TIP3    H159307   9.892   6.276   6.248
19810TIP3    H259308  10.012   6.355   6.205
19811TIP3   OH259309  10.045   5.149   7.345
19811TIP3    H159310   9.949   5.154   7.363
19811TIP3    H259311  10.076   5.095   7.419
19812TIP3   OH259312  10.065   5.876   5.661
19812TIP3    H159313  10.078   5.783   5.637
19812TIP3    H259314  10.048   5.869   5.757
19813TIP3   OH259315  10.008   5.881   5.933
19813TIP3    H159316  10.089   5.850   5.977
19813TIP3    H259317  10.013   5.978   5.946
19814TIP3   OH259318   9.735   5.579   6.136
19814TIP3    H159319   9.672   5.622   6.197
19814TIP3    H259320   9.754   5.652   6.074
19815TIP3   OH259321  10.259   6.104   5.885
19815TIP3    H159322  10.172   6.122   5.923
19815TIP3    H259323  10.277   6.186   5.838
19816TIP3   OH259324   9.998   6.157   5.949
19816TIP3    H159325   9.972   6.229   5.887
19816TIP3    H259326   9.987   6.201   6.036
19817TIP3   OH259327  10.115   4.880   6.192
19817TIP3    H159328  10.083   4.959   6.238
19817TIP3    H259329  10.200   4.914   6.157
19818TIP3   OH259330   9.731   5.794   5.943
19818TIP3    H159331   9.802   5.860   5.954
19818TIP3    H259332   9.775   5.736   5.877
19819TIP3   OH259333   9.678   5.064   6.075
19819TIP3    H159334   9.678   5.161   6.071
19819TIP3    H259335   9.592   5.041   6.039
19820TIP3   OH259336  10.045   4.773   6.937
19820TIP3    H159337  10.035   4.723   6.854
19820TIP3    H259338  10.047   4.700   7.003
19821TIP3   OH259339   9.602   6.021   6.345
19821TIP3    H159340   9.509   6.043   6.360
19821TIP3    H259341   9.607   6.039   6.249
19822TIP3   OH259342  10.207   6.096   5.576
19822TIP3    H159343  10.156   6.021   5.616
19822TIP3    H259344  10.299   6.067   5.597
19823TIP3   OH259345   9.866   5.603   5.798
19823TIP3    H159346   9.918   5.569   5.873
19823TIP3    H259347   9.936   5.612   5.731
19824TIP3   OH259348  10.067   5.497   6.015
19824TIP3    H159349  10.032   5.470   6.103
19824TIP3    H259350  10.099   5.412   5.980
19825TIP3   OH259351  10.314   5.529   7.187
19825TIP3    H159352  10.306   5.595   7.259
19825TIP3    H259353  10.330   5.588   7.111
19826TIP3   OH259354  10.172   5.285   5.866
19826TIP3    H159355  10.132   5.287   5.777
19826TIP3    H259356  10.264   5.309   5.848
19827TIP3   OH259357  10.453   5.331   7.314
19827TIP3    H159358  10.466   5.238   7.281
19827TIP3    H259359  10.377   5.361   7.261
19828TIP3   OH259360  10.462   5.108   7.169
19828TIP3    H159361  10.494   5.113   7.078
19828TIP3    H259362  10.369   5.078   7.156
19829TIP3   OH259363  10.161   5.280   7.599
19829TIP3    H159364  10.179   5.184   7.602
19829TIP3    H259365  10.207   5.315   7.677
19830TIP3   OH259366   9.979   6.361   5.760
19830TIP3    H159367  10.075   6.361   5.747
19830TIP3    H259368   9.951   6.410   5.681
19831TIP3   OH259369   9.463   5.743   5.979
19831TIP3    H159370   9.558   5.765   5.965
19831TIP3    H259371   9.459   5.653   5.939
19832TIP3   OH259372   9.369   6.356   6.390
19832TIP3    H159373   9.306   6.290   6.354
19832TIP3    H259374   9.416   6.303   6.458
19833TIP3   OH259375   9.503   6.222   6.584
19833TIP3    H159376   9.519   6.129   6.603
19833TIP3    H259377   9.565   6.267   6.644
19834TIP3   OH259378   9.694   5.625   6.941
19834TIP3    H159379   9.692   5.586   6.851
19834TIP3    H259380   9.789   5.609   6.962
19835TIP3   OH259381   9.889   5.288   7.601
19835TIP3    H159382   9.986   5.300   7.599
19835TIP3    H259383   9.880   5.216   7.666
19836TIP3   OH259384   9.874   4.989   6.968
19836TIP3    H159385   9.933   4.911   6.962
19836TIP3    H259386   9.938   5.062   6.953
19837TIP3   OH259387   9.680   5.274   7.028
19837TIP3    H159388   9.725   5.255   6.943
19837TIP3    H259389   9.734   5.346   7.061
19838TIP3   OH259390   9.654   4.795   6.548
19838TIP3    H159391   9.560   4.773   6.552
19838TIP3    H259392   9.664   4.827   6.456
19839TIP3   OH259393   9.883   4.853   7.349
19839TIP3    H159394   9.828   4.846   7.428
19839TIP3    H259395   9.819   4.887   7.284
19840TIP3   OH259396   9.701   6.357   6.748
19840TIP3    H159397   9.763   6.395   6.813
19840TIP3    H259398   9.765   6.305   6.693
19841TIP3   OH259399   9.876   6.222   6.592
19841TIP3    H159400   9.908   6.131   6.603
19841TIP3    H259401   9.961   6.269   6.573
19842TIP3   OH259402  10.122   6.324   6.558
19842TIP3    H159403  10.158   6.233   6.561
19842TIP3    H259404  10.164   6.366   6.634
19843TIP3   OH259405   9.732   4.564   6.326
19843TIP3    H159406   9.782   4.626   6.272
19843TIP3    H259407   9.758   4.591   6.416
19844TIP3   OH259408   9.473   6.130   6.132
19844TIP3    H159409   9.389   6.099   6.094
19844TIP3    H259410   9.467   6.225   6.109
19845TIP3   OH259411   9.875   4.733   6.109
19845TIP3    H159412   9.917   4.661   6.059
19845TIP3    H259413   9.951   4.773   6.155
19846TIP3   OH259414  10.254   6.330   5.717
19846TIP3    H159415  10.349   6.343   5.701
19846TIP3    H259416  10.232   6.258   5.653
19847TIP3   OH259417  10.152   4.991   7.590
19847TIP3    H159418  10.107   4.919   7.637
19847TIP3    H259419  10.242   4.954   7.584
19848TIP3   OH259420  10.381   4.872   7.678
19848TIP3    H159421  10.446   4.933   7.635
19848TIP3    H259422  10.370   4.919   7.762
19849TIP3   OH259423   9.555   6.156   5.769
19849TIP3    H159424   9.559   6.186   5.861
19849TIP3    H259425   9.644   6.115   5.756
19850TIP3   OH259426   1.324   6.229   8.472
19850TIP3    H159427   1.298   6.322   8.456
19850TIP3    H259428   1.243   6.183   8.446
19851TIP3   OH259429   1.334   6.220   8.843
19851TIP3    H159430   1.354   6.202   8.936
19851TIP3    H259431   1.279   6.145   8.819
19852TIP3   OH259432   1.565   6.532   8.535
19852TIP3    H159433   1.549   6.465   8.602
19852TIP3    H259434   1.592   6.608   8.590
19853TIP3   OH259435   1.212   6.995   8.546
19853TIP3    H159436   1.260   6.919   8.508
19853TIP3    H259437   1.191   6.964   8.635
19854TIP3   OH259438   1.116   6.403   8.883
19854TIP3    H159439   1.193   6.359   8.845
19854TIP3    H259440   1.157   6.482   8.922
19855TIP3   OH259441   2.131   5.775   8.901
19855TIP3    H159442   2.160   5.856   8.949
19855TIP3    H259443   2.151   5.800   8.809
19856TIP3   OH259444   1.535   5.958   8.937
19856TIP3    H159445   1.576   5.871   8.954
19856TIP3    H259446   1.501   5.945   8.846
19857TIP3   OH259447   0.902   5.619   8.900
19857TIP3    H159448   0.862   5.694   8.852
19857TIP3    H259449   0.866   5.543   8.849
19858TIP3   OH259450   1.564   5.706   8.524
19858TIP3    H159451   1.635   5.690   8.590
19858TIP3    H259452   1.616   5.743   8.451
19859TIP3   OH259453   0.943   6.026   8.817
19859TIP3    H159454   1.036   5.996   8.821
19859TIP3    H259455   0.899   5.951   8.772
19860TIP3   OH259456   2.202   5.979   9.075
19860TIP3    H159457   2.120   6.030   9.057
19860TIP3    H259458   2.227   6.014   9.162
19861TIP3   OH259459   1.225   6.457   8.337
19861TIP3    H159460   1.168   6.426   8.265
19861TIP3    H259461   1.176   6.537   8.366
19862TIP3   OH259462   1.777   5.709   8.693
19862TIP3    H159463   1.766   5.659   8.775
19862TIP3    H259464   1.828   5.786   8.723
19863TIP3   OH259465   1.636   6.773   8.701
19863TIP3    H159466   1.548   6.765   8.744
19863TIP3    H259467   1.628   6.860   8.659
19864TIP3   OH259468   1.923   5.677   9.065
19864TIP3    H159469   1.836   5.704   9.030
19864TIP3    H259470   1.985   5.708   8.996
19865TIP3   OH259471   1.230   5.313   9.046
19865TIP3    H159472   1.210   5.219   9.066
19865TIP3    H259473   1.150   5.354   9.085
19866TIP3   OH259474   1.344   6.818   8.381
19866TIP3    H159475   1.394   6.737   8.358
19866TIP3    H259476   1.402   6.886   8.340
19867TIP3   OH259477   1.485   6.601   8.280
19867TIP3    H159478   1.422   6.531   8.261
19867TIP3    H259479   1.522   6.571   8.366
19868TIP3   OH259480   1.863   6.689   9.048
19868TIP3    H159481   1.850   6.611   8.989
19868TIP3    H259482   1.845   6.763   8.987
19869TIP3   OH259483   1.151   6.076   8.305
19869TIP3    H159484   1.071   6.130   8.288
19869TIP3    H259485   1.196   6.081   8.219
19870TIP3   OH259486   1.112   5.867   8.020
19870TIP3    H159487   1.178   5.915   8.073
19870TIP3    H259488   1.169   5.802   7.975
19871TIP3   OH259489   2.056   6.321   8.890
19871TIP3    H159490   1.974   6.375   8.897
19871TIP3    H259491   2.087   6.348   8.801
19872TIP3   OH259492   1.501   6.163   8.277
19872TIP3    H159493   1.445   6.188   8.354
19872TIP3    H259494   1.584   6.138   8.322
19873TIP3   OH259495   1.737   6.197   9.192
19873TIP3    H159496   1.737   6.282   9.240
19873TIP3    H259497   1.652   6.205   9.144
19874TIP3   OH259498   0.879   6.117   9.067
19874TIP3    H159499   0.903   6.088   8.976
19874TIP3    H259500   0.905   6.210   9.064
19875TIP3   OH259501   1.398   6.771   8.825
19875TIP3    H159502   1.380   6.847   8.883
19875TIP3    H259503   1.381   6.694   8.883
19876TIP3   OH259504   1.344   6.019   8.104
19876TIP3    H159505   1.400   6.080   8.157
19876TIP3    H259506   1.369   6.045   8.012
19877TIP3   OH259507   1.087   6.701   8.377
19877TIP3    H159508   1.166   6.750   8.403
19877TIP3    H259509   1.033   6.771   8.337
19878TIP3   OH259510   1.856   5.263   8.151
19878TIP3    H159511   1.775   5.280   8.203
19878TIP3    H259512   1.867   5.348   8.103
19879TIP3   OH259513   1.655   6.627   7.690
19879TIP3    H159514   1.661   6.725   7.686
19879TIP3    H259515   1.750   6.603   7.685
19880TIP3   OH259516   2.103   7.030   9.095
19880TIP3    H159517   2.100   6.933   9.108
19880TIP3    H259518   2.018   7.055   9.137
19881TIP3   OH259519   1.206   6.769   9.247
19881TIP3    H159520   1.218   6.866   9.255
19881TIP3    H259521   1.119   6.763   9.204
19882TIP3   OH259522   0.995   6.936   8.201
19882TIP3    H159523   0.954   6.913   8.115
19882TIP3    H259524   0.943   7.012   8.228
19883TIP3   OH259525   1.169   6.851   7.820
19883TIP3    H159526   1.225   6.779   7.785
19883TIP3    H259527   1.207   6.861   7.910
19884TIP3   OH259528   1.235   6.888   8.085
19884TIP3    H159529   1.151   6.897   8.135
19884TIP3    H259530   1.293   6.852   8.154
19885TIP3   OH259531   1.998   6.160   9.365
19885TIP3    H159532   1.912   6.184   9.327
19885TIP3    H259533   2.003   6.065   9.345
19886TIP3   OH259534   0.986   5.396   9.143
19886TIP3    H159535   0.930   5.342   9.200
19886TIP3    H259536   0.990   5.480   9.189
19887TIP3   OH259537   1.443   5.521   9.335
19887TIP3    H159538   1.511   5.506   9.405
19887TIP3    H259539   1.361   5.514   9.384
19888TIP3   OH259540   1.740   5.934   9.323
19888TIP3    H159541   1.763   5.966   9.413
19888TIP3    H259542   1.731   6.018   9.273
19889TIP3   OH259543   1.416   6.066   7.847
19889TIP3    H159544   1.387   6.041   7.757
19889TIP3    H259545   1.493   6.122   7.827
19890TIP3   OH259546   1.132   5.444   8.148
19890TIP3    H159547   1.101   5.441   8.241
19890TIP3    H259548   1.093   5.361   8.115
19891TIP3   OH259549   0.907   5.886   9.205
19891TIP3    H159550   0.874   5.926   9.286
19891TIP3    H259551   0.899   5.963   9.144
19892TIP3   OH259552   0.790   5.786   8.712
19892TIP3    H159553   0.698   5.810   8.695
19892TIP3    H259554   0.813   5.743   8.627
19893TIP3   OH259555   1.291   5.881   8.438
19893TIP3    H159556   1.237   5.953   8.397
19893TIP3    H259557   1.345   5.852   8.362
19894TIP3   OH259558   1.449   5.910   8.679
19894TIP3    H159559   1.389   5.943   8.609
19894TIP3    H259560   1.480   5.828   8.635
19895TIP3   OH259561   0.790   5.419   8.119
19895TIP3    H159562   0.781   5.416   8.216
19895TIP3    H259563   0.698   5.428   8.090
19896TIP3   OH259564   1.457   6.161   9.097
19896TIP3    H159565   1.492   6.091   9.038
19896TIP3    H259566   1.430   6.108   9.174
19897TIP3   OH259567   1.142   5.621   8.767
19897TIP3    H159568   1.060   5.622   8.821
19897TIP3    H259569   1.210   5.616   8.836
19898TIP3   OH259570   0.837   5.674   8.464
19898TIP3    H159571   0.933   5.690   8.450
19898TIP3    H259572   0.795   5.712   8.385
19899TIP3   OH259573   1.619   5.692   8.972
19899TIP3    H159574   1.579   5.709   9.060
19899TIP3    H259575   1.555   5.629   8.934
19900TIP3   OH259576   0.656   5.729   8.242
19900TIP3    H159577   0.615   5.643   8.222
19900TIP3    H259578   0.717   5.743   8.167
19901TIP3   OH259579   1.819   7.366   9.165
19901TIP3    H159580   1.797   7.417   9.086
19901TIP3    H259581   1.796   7.427   9.237
19902TIP3   OH259582   1.211   5.945   8.867
19902TIP3    H159583   1.284   5.906   8.818
19902TIP3    H259584   1.220   5.904   8.955
19903TIP3   OH259585   0.770   5.434   8.747
19903TIP3    H159586   0.704   5.363   8.764
19903TIP3    H259587   0.812   5.402   8.667
19904TIP3   OH259588   1.187   5.843   9.157
19904TIP3    H159589   1.095   5.875   9.166
19904TIP3    H259590   1.239   5.911   9.204
19905TIP3   OH259591   0.931   6.235   8.258
19905TIP3    H159592   0.856   6.173   8.245
19905TIP3    H259593   0.906   6.274   8.346
19906TIP3   OH259594   1.826   6.469   8.884
19906TIP3    H159595   1.849   6.519   8.803
19906TIP3    H259596   1.739   6.429   8.860
19907TIP3   OH259597   1.381   5.549   8.109
19907TIP3    H159598   1.285   5.530   8.123
19907TIP3    H259599   1.391   5.642   8.140
19908TIP3   OH259600   1.346   6.538   9.244
19908TIP3    H159601   1.309   6.491   9.320
19908TIP3    H259602   1.298   6.624   9.249
19909TIP3   OH259603   1.452   5.792   8.218
19909TIP3    H159604   1.548   5.799   8.237
19909TIP3    H259605   1.433   5.874   8.169
19910TIP3   OH259606   1.074   6.372   8.071
19910TIP3    H159607   1.033   6.461   8.079
19910TIP3    H259608   1.020   6.322   8.135
19911TIP3   OH259609   1.489   6.812   9.137
19911TIP3    H159610   1.395   6.797   9.157
19911TIP3    H259611   1.516   6.861   9.218
19912TIP3   OH259612   1.898   5.879   8.052
19912TIP3    H159613   1.833   5.836   7.991
19912TIP3    H259614   1.893   5.970   8.016
19913TIP3   OH259615   2.114   6.738   9.137
19913TIP3    H159616   2.015   6.736   9.129
19913TIP3    H259617   2.138   6.710   9.046
19914TIP3   OH259618   1.593   6.702   7.961
19914TIP3    H159619   1.567   6.640   8.032
19914TIP3    H259620   1.603   6.645   7.884
19915TIP3   OH259621   1.592   6.331   8.803
19915TIP3    H159622   1.498   6.305   8.815
19915TIP3    H259623   1.626   6.252   8.756
19916TIP3   OH259624   0.860   6.329   8.504
19916TIP3    H159625   0.799   6.405   8.493
19916TIP3    H259626   0.827   6.294   8.588
19917TIP3   OH259627   1.382   6.536   8.975
19917TIP3    H159628   1.372   6.536   9.073
19917TIP3    H259629   1.463   6.484   8.965
19918TIP3   OH259630   1.357   6.423   7.854
19918TIP3    H159631   1.404   6.400   7.937
19918TIP3    H259632   1.265   6.402   7.881
19919TIP3   OH259633   1.623   7.071   9.032
19919TIP3    H159634   1.544   7.014   9.026
19919TIP3    H259635   1.606   7.135   8.960
19920TIP3   OH259636   1.688   6.904   7.686
19920TIP3    H159637   1.729   6.979   7.639
19920TIP3    H259638   1.608   6.950   7.718
19921TIP3   OH259639   1.510   6.355   8.073
19921TIP3    H159640   1.497   6.298   8.151
19921TIP3    H259641   1.607   6.360   8.071
19922TIP3   OH259642   0.770   6.382   7.889
19922TIP3    H159643   0.781   6.293   7.849
19922TIP3    H259644   0.752   6.360   7.981
19923TIP3   OH259645   1.534   5.763   9.223
19923TIP3    H159646   1.619   5.787   9.263
19923TIP3    H259647   1.507   5.681   9.270
19924TIP3   OH259648   1.425   5.499   8.395
19924TIP3    H159649   1.412   5.524   8.302
19924TIP3    H259650   1.464   5.580   8.434
19925TIP3   OH259651   0.938   6.603   8.092
19925TIP3    H159652   0.849   6.621   8.124
19925TIP3    H259653   0.947   6.664   8.017
19926TIP3   OH259654   1.114   5.679   8.499
19926TIP3    H159655   1.179   5.750   8.481
19926TIP3    H259656   1.123   5.669   8.597
19927TIP3   OH259657   1.380   5.998   9.300
19927TIP3    H159658   1.391   6.014   9.395
19927TIP3    H259659   1.427   5.914   9.288
19928TIP3   OH259660   1.261   5.407   8.604
19928TIP3    H159661   1.251   5.485   8.663
19928TIP3    H259662   1.322   5.442   8.535
19929TIP3   OH259663   0.780   5.417   8.400
19929TIP3    H159664   0.799   5.505   8.438
19929TIP3    H259665   0.870   5.379   8.402
19930TIP3   OH259666   2.012   5.896   9.289
19930TIP3    H159667   1.916   5.878   9.292
19930TIP3    H259668   2.035   5.861   9.202
19931TIP3   OH259669   1.676   6.089   8.674
19931TIP3    H159670   1.599   6.032   8.689
19931TIP3    H259671   1.747   6.043   8.724
19932TIP3   OH259672   1.644   7.046   8.628
19932TIP3    H159673   1.602   7.093   8.552
19932TIP3    H259674   1.738   7.064   8.607
19933TIP3   OH259675   0.920   6.601   7.798
19933TIP3    H159676   0.864   6.529   7.833
19933TIP3    H259677   0.966   6.556   7.726
19934TIP3   OH259678   1.535   6.940   9.376
19934TIP3    H159679   1.509   6.884   9.452
19934TIP3    H259680   1.611   6.991   9.412
19935TIP3   OH259681   1.318   6.657   7.691
19935TIP3    H159682   1.359   6.594   7.752
19935TIP3    H259683   1.380   6.659   7.617
19936TIP3   OH259684   1.183   6.425   9.448
19936TIP3    H159685   1.126   6.502   9.454
19936TIP3    H259686   1.221   6.416   9.537
19937TIP3   OH259687   1.055   6.323   7.799
19937TIP3    H159688   1.044   6.342   7.894
19937TIP3    H259689   1.042   6.226   7.798
19938TIP3   OH259690   1.650   6.568   9.181
19938TIP3    H159691   1.718   6.624   9.139
19938TIP3    H259692   1.572   6.625   9.176
19939TIP3   OH259693   0.745   6.035   8.219
19939TIP3    H159694   0.696   5.996   8.292
19939TIP3    H259695   0.771   5.957   8.166
19940TIP3   OH259696   1.069   6.099   9.416
19940TIP3    H159697   0.979   6.135   9.404
19940TIP3    H259698   1.111   6.127   9.332
19941TIP3   OH259699   0.835   5.821   8.060
19941TIP3    H159700   0.810   5.834   7.966
19941TIP3    H259701   0.933   5.831   8.054
19942TIP3   OH259702   1.576   6.531   9.557
19942TIP3    H159703   1.664   6.532   9.517
19942TIP3    H259704   1.573   6.440   9.590
19943TIP3   OH259705   1.656   6.168   7.718
19943TIP3    H159706   1.633   6.120   7.636
19943TIP3    H259707   1.618   6.256   7.697
19944TIP3   OH259708   1.102   5.648   9.341
19944TIP3    H159709   1.145   5.696   9.267
19944TIP3    H259710   1.015   5.688   9.344
19945TIP3   OH259711   1.161   6.221   9.194
19945TIP3    H159712   1.252   6.221   9.162
19945TIP3    H259713   1.145   6.316   9.205
19946TIP3   OH259714   1.779   6.422   9.364
19946TIP3    H159715   1.719   6.476   9.306
19946TIP3    H259716   1.866   6.449   9.326
19947TIP3   OH259717   1.897   7.135   8.582
19947TIP3    H159718   1.920   7.169   8.670
19947TIP3    H259719   1.955   7.188   8.525
19948TIP3   OH259720   1.924   7.159   8.862
19948TIP3    H159721   1.883   7.070   8.861
19948TIP3    H259722   1.999   7.143   8.921
19949TIP3   OH259723   1.986   6.836   9.414
19949TIP3    H159724   1.909   6.834   9.475
19949TIP3    H259725   2.017   6.928   9.423
19950TIP3   OH259726   1.792   6.346   8.055
19950TIP3    H159727   1.860   6.412   8.032
19950TIP3    H259728   1.831   6.308   8.137
19951TIP3   OH259729   1.915   6.213   8.259
19951TIP3    H159730   1.850   6.172   8.320
19951TIP3    H259731   1.980   6.252   8.321
19952TIP3   OH259732   1.969   6.606   8.693
19952TIP3    H159733   2.023   6.544   8.641
19952TIP3    H259734   1.960   6.681   8.632
19953TIP3   OH259735   1.801   6.906   8.889
19953TIP3    H159736   1.731   6.949   8.942
19953TIP3    H259737   1.749   6.859   8.821
19954TIP3   OH259738   1.855   6.121   7.908
19954TIP3    H159739   1.782   6.126   7.842
19954TIP3    H259740   1.831   6.196   7.966
19955TIP3   OH259741   1.729   5.793   7.858
19955TIP3    H159742   1.678   5.831   7.786
19955TIP3    H259743   1.703   5.699   7.852
19956TIP3   OH259744   1.731   6.070   8.407
19956TIP3    H159745   1.737   5.973   8.405
19956TIP3    H259746   1.717   6.087   8.503
19957TIP3   OH259747   2.021   6.498   9.267
19957TIP3    H159748   2.094   6.433   9.256
19957TIP3    H259749   2.046   6.568   9.205
19958TIP3   OH259750   2.207   6.307   9.279
19958TIP3    H159751   2.134   6.253   9.319
19958TIP3    H259752   2.282   6.245   9.292
19959TIP3   OH259753   1.669   5.528   7.844
19959TIP3    H159754   1.741   5.498   7.903
19959TIP3    H259755   1.594   5.472   7.870
19960TIP3   OH259756   1.725   5.785   8.304
19960TIP3    H159757   1.765   5.696   8.319
19960TIP3    H259758   1.786   5.818   8.236
19961TIP3   OH259759   1.888   5.960   8.797
19961TIP3    H159760   1.974   5.987   8.757
19961TIP3    H259761   1.901   5.999   8.886
19962TIP3   OH259762   1.954   6.104   9.030
19962TIP3    H159763   1.878   6.140   9.079
19962TIP3    H259764   1.988   6.185   8.984
19963TIP3   OH259765   2.393   5.673   9.562
19963TIP3    H159766   2.468   5.623   9.523
19963TIP3    H259767   2.408   5.763   9.530
19964TIP3   OH259768   1.837   5.536   8.338
19964TIP3    H159769   1.883   5.521   8.424
19964TIP3    H259770   1.775   5.460   8.338
19965TIP3   OH259771   2.277   5.854   9.379
19965TIP3    H159772   2.183   5.867   9.398
19965TIP3    H259773   2.273   5.771   9.328
19966TIP3   OH259774   1.914   5.473   7.971
19966TIP3    H159775   1.954   5.399   7.922
19966TIP3    H259776   1.983   5.542   7.966
19967TIP3   OH259777   1.482   7.003   8.240
19967TIP3    H159778   1.534   6.992   8.158
19967TIP3    H259779   1.532   7.072   8.286
19968TIP3   OH259780   1.270   7.031   9.273
19968TIP3    H159781   1.329   7.031   9.350
19968TIP3    H259782   1.313   7.097   9.216
19969TIP3   OH259783   1.394   7.245   9.151
19969TIP3    H159784   1.478   7.202   9.129
19969TIP3    H259785   1.422   7.310   9.219
19970TIP3   OH259786   2.178   5.599   9.251
19970TIP3    H159787   2.087   5.590   9.217
19970TIP3    H259788   2.210   5.506   9.244
19971TIP3   OH259789   1.104   7.119   8.810
19971TIP3    H159790   1.009   7.131   8.797
19971TIP3    H259791   1.126   7.202   8.857
19972TIP3   OH259792   1.366   7.050   8.901
19972TIP3    H159793   1.275   7.060   8.867
19972TIP3    H259794   1.412   7.123   8.857
19973TIP3   OH259795   1.575   7.243   8.816
19973TIP3    H159796   1.557   7.324   8.765
19973TIP3    H259797   1.602   7.180   8.746
19974TIP3   OH259798   1.384   5.514   8.889
19974TIP3    H159799   1.341   5.446   8.944
19974TIP3    H259800   1.454   5.463   8.845
19975TIP3   OH259801   1.908   5.393   8.794
19975TIP3    H159802   1.943   5.446   8.719
19975TIP3    H259803   1.812   5.410   8.786
19976TIP3   OH259804   2.002   5.495   8.557
19976TIP3    H159805   2.076   5.444   8.517
19976TIP3    H259806   2.035   5.587   8.542
19977TIP3   OH259807   1.080   5.260   8.782
19977TIP3    H159808   1.142   5.312   8.729
19977TIP3    H259809   1.097   5.293   8.872
19978TIP3   OH259810   1.627   5.402   8.767
19978TIP3    H159811   1.619   5.364   8.679
19978TIP3    H259812   1.611   5.323   8.823
19979TIP3   OH259813   1.652   5.323   8.331
19979TIP3    H159814   1.565   5.364   8.343
19979TIP3    H259815   1.638   5.238   8.378
19980TIP3   OH259816   0.570   5.174   8.356
19980TIP3    H159817   0.569   5.160   8.260
19980TIP3    H259818   0.592   5.268   8.363
19981TIP3   OH259819   1.056   5.426   8.413
19981TIP3    H159820   1.113   5.378   8.476
19981TIP3    H259821   1.077   5.518   8.439
19982TIP3   OH259822   0.917   6.854   7.943
19982TIP3    H159823   1.004   6.857   7.898
19982TIP3    H259824   0.864   6.816   7.870
19983TIP3   OH259825   1.626   6.969   8.006
19983TIP3    H159826   1.617   6.872   7.992
19983TIP3    H259827   1.580   7.003   7.927
19984TIP3   OH259828   1.858   7.104   9.195
19984TIP3    H159829   1.775   7.076   9.150
19984TIP3    H259830   1.849   7.202   9.186
19985TIP3   OH259831   3.119   6.485   7.959
19985TIP3    H159832   3.094   6.578   7.942
19985TIP3    H259833   3.038   6.440   7.934
19986TIP3   OH259834   3.119   6.483   8.340
19986TIP3    H159835   3.150   6.460   8.429
19986TIP3    H259836   3.074   6.401   8.312
19987TIP3   OH259837   2.419   6.380   8.705
19987TIP3    H159838   2.448   6.314   8.770
19987TIP3    H259839   2.492   6.444   8.709
19988TIP3   OH259840   3.360   6.786   8.024
19988TIP3    H159841   3.347   6.720   8.093
19988TIP3    H259842   3.388   6.864   8.075
19989TIP3   OH259843   2.387   6.790   8.430
19989TIP3    H159844   2.378   6.692   8.434
19989TIP3    H259845   2.484   6.799   8.429
19990TIP3   OH259846   2.098   5.995   8.216
19990TIP3    H159847   2.051   6.079   8.233
19990TIP3    H259848   2.024   5.940   8.185
19991TIP3   OH259849   2.154   6.280   8.385
19991TIP3    H159850   2.203   6.205   8.425
19991TIP3    H259851   2.219   6.316   8.323
19992TIP3   OH259852   3.006   7.248   8.036
19992TIP3    H159853   3.056   7.176   7.992
19992TIP3    H259854   3.002   7.218   8.128
19993TIP3   OH259855   2.917   6.711   8.389
19993TIP3    H159856   2.957   6.635   8.343
19993TIP3    H259857   3.000   6.757   8.414
19994TIP3   OH259858   3.929   6.033   8.387
19994TIP3    H159859   3.957   6.115   8.433
19994TIP3    H259860   3.950   6.054   8.295
19995TIP3   OH259861   3.330   6.214   8.423
19995TIP3    H159862   3.371   6.128   8.444
19995TIP3    H259863   3.298   6.198   8.332
19996TIP3   OH259864   2.666   5.872   8.388
19996TIP3    H159865   2.645   5.946   8.326
19996TIP3    H259866   2.616   5.799   8.344
19997TIP3   OH259867   3.360   5.961   8.010
19997TIP3    H159868   3.430   5.945   8.077
19997TIP3    H259869   3.414   5.998   7.938
19998TIP3   OH259870   2.300   6.076   8.494
19998TIP3    H159871   2.382   6.057   8.543
19998TIP3    H259872   2.314   6.019   8.415
19999TIP3   OH259873   2.743   6.273   8.283
19999TIP3    H159874   2.836   6.247   8.300
19999TIP3    H259875   2.703   6.188   8.255
20000TIP3   OH259876   4.002   6.239   8.558
20000TIP3    H159877   3.918   6.287   8.539
20000TIP3    H259878   4.017   6.265   8.650
20001TIP3   OH259879   2.663   5.855   8.821
20001TIP3    H159880   2.603   5.894   8.756
20001TIP3    H259881   2.613   5.871   8.904
20002TIP3   OH259882   3.015   6.710   7.827
20002TIP3    H159883   2.965   6.689   7.747
20002TIP3    H259884   2.971   6.793   7.855
20003TIP3   OH259885   2.769   6.631   8.618
20003TIP3    H159886   2.706   6.695   8.657
20003TIP3    H259887   2.811   6.684   8.548
20004TIP3   OH259888   3.571   5.966   8.181
20004TIP3    H159889   3.559   5.918   8.264
20004TIP3    H259890   3.624   6.043   8.209
20005TIP3   OH259891   2.533   5.971   8.607
20005TIP3    H159892   2.594   6.044   8.631
20005TIP3    H259893   2.584   5.931   8.533
20006TIP3   OH259894   2.596   6.824   8.713
20006TIP3    H159895   2.572   6.911   8.677
20006TIP3    H259896   2.518   6.809   8.771
20007TIP3   OH259897   1.996   6.516   7.952
20007TIP3    H159898   1.951   6.550   7.873
20007TIP3    H259899   2.027   6.600   7.993
20008TIP3   OH259900   3.432   7.029   8.189
20008TIP3    H159901   3.343   7.021   8.230
20008TIP3    H259902   3.424   7.116   8.146
20009TIP3   OH259903   3.722   5.931   8.553
20009TIP3    H159904   3.635   5.963   8.525
20009TIP3    H259905   3.781   5.964   8.482
20010TIP3   OH259906   3.020   5.576   8.535
20010TIP3    H159907   3.008   5.481   8.554
20010TIP3    H259908   2.943   5.614   8.582
20011TIP3   OH259909   3.137   7.075   7.866
20011TIP3    H159910   3.188   6.994   7.843
20011TIP3    H259911   3.196   7.143   7.826
20012TIP3   OH259912   3.280   6.859   7.770
20012TIP3    H159913   3.226   6.784   7.742
20012TIP3    H259914   3.315   6.826   7.856
20013TIP3   OH259915   3.658   6.944   8.535
20013TIP3    H159916   3.647   6.867   8.476
20013TIP3    H259917   3.640   7.019   8.475
20014TIP3   OH259918   2.946   6.334   7.790
20014TIP3    H159919   2.866   6.388   7.772
20014TIP3    H259920   2.993   6.340   7.705
20015TIP3   OH259921   2.902   6.125   7.514
20015TIP3    H159922   2.970   6.173   7.565
20015TIP3    H259923   2.958   6.061   7.466
20016TIP3   OH259924   3.853   6.579   8.378
20016TIP3    H159925   3.771   6.632   8.385
20016TIP3    H259926   3.883   6.605   8.288
20017TIP3   OH259927   3.298   6.418   7.765
20017TIP3    H159928   3.242   6.444   7.842
20017TIP3    H259929   3.381   6.394   7.811
20018TIP3   OH259930   3.532   6.460   8.674
20018TIP3    H159931   3.530   6.543   8.725
20018TIP3    H259932   3.445   6.465   8.629
20019TIP3   OH259933   2.530   6.417   8.179
20019TIP3    H159934   2.491   6.359   8.111
20019TIP3    H259935   2.608   6.365   8.209
20020TIP3   OH259936   2.660   6.829   8.329
20020TIP3    H159937   2.640   6.785   8.246
20020TIP3    H259938   2.750   6.797   8.348
20021TIP3   OH259939   2.669   6.389   8.532
20021TIP3    H159940   2.702   6.372   8.442
20021TIP3    H259941   2.709   6.475   8.555
20022TIP3   OH259942   3.192   7.026   8.311
20022TIP3    H159943   3.177   7.107   8.362
20022TIP3    H259944   3.176   6.955   8.376
20023TIP3   OH259945   2.803   6.945   8.858
20023TIP3    H159946   2.743   7.008   8.905
20023TIP3    H259947   2.736   6.893   8.809
20024TIP3   OH259948   3.142   6.277   7.590
20024TIP3    H159949   3.197   6.339   7.644
20024TIP3    H259950   3.170   6.301   7.499
20025TIP3   OH259951   2.556   6.504   8.955
20025TIP3    H159952   2.562   6.589   9.002
20025TIP3    H259953   2.461   6.483   8.970
20026TIP3   OH259954   2.880   6.958   7.863
20026TIP3    H159955   2.958   7.013   7.884
20026TIP3    H259956   2.818   7.022   7.827
20027TIP3   OH259957   2.598   7.115   8.946
20027TIP3    H159958   2.562   7.114   8.855
20027TIP3    H259959   2.519   7.093   9.000
20028TIP3   OH259960   3.653   5.523   7.635
20028TIP3    H159961   3.572   5.538   7.688
20028TIP3    H259962   3.658   5.606   7.585
20029TIP3   OH259963   2.399   6.259   7.979
20029TIP3    H159964   2.330   6.305   7.925
20029TIP3    H259965   2.353   6.178   8.004
20030TIP3   OH259966   3.451   6.886   7.184
20030TIP3    H159967   3.458   6.983   7.172
20030TIP3    H259968   3.544   6.859   7.174
20031TIP3   OH259969   2.177   6.644   8.892
20031TIP3    H159970   2.110   6.621   8.824
20031TIP3    H259971   2.214   6.557   8.917
20032TIP3   OH259972   2.031   6.838   8.524
20032TIP3    H159973   2.127   6.835   8.519
20032TIP3    H259974   2.017   6.917   8.579
20033TIP3   OH259975   3.897   7.288   8.581
20033TIP3    H159976   3.894   7.192   8.595
20033TIP3    H259977   3.813   7.315   8.626
20034TIP3   OH259978   3.002   7.074   8.715
20034TIP3    H159979   3.001   7.167   8.747
20034TIP3    H259980   2.930   7.035   8.770
20035TIP3   OH259981   2.761   7.204   7.668
20035TIP3    H159982   2.717   7.188   7.582
20035TIP3    H259983   2.731   7.294   7.691
20036TIP3   OH259984   2.199   7.053   8.051
20036TIP3    H159985   2.250   7.045   8.134
20036TIP3    H259986   2.133   6.983   8.064
20037TIP3   OH259987   2.963   7.105   7.307
20037TIP3    H159988   3.022   7.035   7.271
20037TIP3    H259989   2.997   7.115   7.398
20038TIP3   OH259990   3.012   7.151   7.578
20038TIP3    H159991   2.924   7.162   7.620
20038TIP3    H259992   3.064   7.117   7.652
20039TIP3   OH259993   3.787   6.420   8.855
20039TIP3    H159994   3.704   6.434   8.805
20039TIP3    H259995   3.800   6.324   8.845
20040TIP3   OH259996   2.382   6.826   8.880
20040TIP3    H159997   2.431   6.812   8.964
20040TIP3    H259998   2.308   6.764   8.889
20041TIP3   OH259999   2.781   5.652   8.663
20041TIP3    H160000   2.691   5.621   8.639
20041TIP3    H260001   2.757   5.734   8.711
20042TIP3   OH260002   3.314   5.766   8.859
20042TIP3    H160003   3.382   5.740   8.924
20042TIP3    H260004   3.230   5.747   8.905
20043TIP3   OH260005   3.555   6.196   8.778
20043TIP3    H160006   3.505   6.192   8.863
20043TIP3    H260007   3.529   6.284   8.743
20044TIP3   OH260008   3.225   6.307   7.333
20044TIP3    H160009   3.184   6.297   7.244
20044TIP3    H260010   3.288   6.379   7.315
20045TIP3   OH260011   2.922   5.704   7.635
20045TIP3    H160012   2.896   5.702   7.729
20045TIP3    H260013   2.898   5.614   7.608
20046TIP3   OH260014   2.712   6.166   8.683
20046TIP3    H160015   2.663   6.188   8.765
20046TIP3    H260016   2.696   6.248   8.630
20047TIP3   OH260017   2.596   6.053   8.197
20047TIP3    H160018   2.504   6.026   8.216
20047TIP3    H260019   2.609   6.011   8.109
20048TIP3   OH260020   3.086   6.139   7.924
20048TIP3    H160021   3.032   6.210   7.884
20048TIP3    H260022   3.140   6.110   7.848
20049TIP3   OH260023   3.261   6.417   9.011
20049TIP3    H160024   3.238   6.345   9.074
20049TIP3    H260025   3.354   6.432   9.034
20050TIP3   OH260026   3.245   6.167   8.165
20050TIP3    H160027   3.185   6.199   8.095
20050TIP3    H260028   3.276   6.085   8.122
20051TIP3   OH260029   2.531   6.195   8.893
20051TIP3    H160030   2.558   6.259   8.961
20051TIP3    H260031   2.521   6.113   8.945
20052TIP3   OH260032   2.551   5.632   7.603
20052TIP3    H160033   2.560   5.648   7.699
20052TIP3    H260034   2.492   5.707   7.578
20053TIP3   OH260035   2.126   5.719   8.469
20053TIP3    H160036   2.199   5.750   8.526
20053TIP3    H260037   2.172   5.682   8.392
20054TIP3   OH260038   2.101   5.698   7.984
20054TIP3    H160039   2.149   5.741   7.911
20054TIP3    H260040   2.039   5.769   8.010
20055TIP3   OH260041   3.254   6.415   8.586
20055TIP3    H160042   3.287   6.342   8.529
20055TIP3    H260043   3.226   6.363   8.665
20056TIP3   OH260044   2.922   5.876   8.258
20056TIP3    H160045   2.840   5.874   8.312
20056TIP3    H260046   2.990   5.875   8.327
20057TIP3   OH260047   2.359   5.931   8.266
20057TIP3    H160048   2.264   5.938   8.241
20057TIP3    H260049   2.381   5.838   8.245
20058TIP3   OH260050   2.629   5.926   7.956
20058TIP3    H160051   2.723   5.943   7.937
20058TIP3    H260052   2.583   5.950   7.873
20059TIP3   OH260053   3.415   5.950   8.457
20059TIP3    H160054   3.384   5.962   8.550
20059TIP3    H260055   3.348   5.889   8.423
20060TIP3   OH260056   2.469   5.960   7.734
20060TIP3    H160057   2.399   5.914   7.684
20060TIP3    H260058   2.520   5.999   7.661
20061TIP3   OH260059   3.585   7.638   8.679
20061TIP3    H160060   3.583   7.664   8.585
20061TIP3    H260061   3.662   7.689   8.711
20062TIP3   OH260062   2.543   6.749   9.101
20062TIP3    H160063   2.622   6.780   9.149
20062TIP3    H260064   2.478   6.748   9.174
20063TIP3   OH260065   3.006   6.202   8.356
20063TIP3    H160066   3.081   6.162   8.309
20063TIP3    H260067   3.014   6.163   8.445
20064TIP3   OH260068   2.528   5.690   8.234
20064TIP3    H160069   2.495   5.612   8.282
20064TIP3    H260070   2.589   5.650   8.169
20065TIP3   OH260071   2.983   6.101   8.645
20065TIP3    H160072   2.894   6.137   8.660
20065TIP3    H260073   3.041   6.160   8.697
20066TIP3   OH260074   2.721   6.489   7.741
20066TIP3    H160075   2.647   6.427   7.730
20066TIP3    H260076   2.703   6.525   7.832
20067TIP3   OH260077   3.622   6.726   8.371
20067TIP3    H160078   3.646   6.776   8.290
20067TIP3    H260079   3.535   6.686   8.346
20068TIP3   OH260080   3.176   5.808   7.593
20068TIP3    H160081   3.081   5.789   7.607
20068TIP3    H260082   3.186   5.900   7.628
20069TIP3   OH260083   3.120   6.808   8.738
20069TIP3    H160084   3.140   6.787   8.830
20069TIP3    H260085   3.081   6.897   8.745
20070TIP3   OH260086   3.250   6.049   7.701
20070TIP3    H160087   3.344   6.059   7.727
20070TIP3    H260088   3.230   6.135   7.659
20071TIP3   OH260089   2.409   6.508   8.418
20071TIP3    H160090   2.451   6.481   8.334
20071TIP3    H260091   2.452   6.449   8.482
20072TIP3   OH260092   2.865   6.640   7.561
20072TIP3    H160093   2.818   6.726   7.566
20072TIP3    H260094   2.811   6.586   7.622
20073TIP3   OH260095   2.294   6.433   9.029
20073TIP3    H160096   2.317   6.422   9.123
20073TIP3    H260097   2.224   6.365   9.018
20074TIP3   OH260098   3.018   6.547   9.048
20074TIP3    H160099   2.958   6.486   9.002
20074TIP3    H260100   3.105   6.513   9.021
20075TIP3   OH260101   3.280   7.065   8.634
20075TIP3    H160102   3.184   7.066   8.646
20075TIP3    H260103   3.309   7.118   8.711
20076TIP3   OH260104   3.692   6.141   7.555
20076TIP3    H160105   3.652   6.077   7.496
20076TIP3    H260106   3.682   6.225   7.505
20077TIP3   OH260107   3.909   6.996   8.624
20077TIP3    H160108   3.811   6.992   8.616
20077TIP3    H260109   3.934   6.967   8.534
20078TIP3   OH260110   3.388   6.960   7.449
20078TIP3    H160111   3.365   6.891   7.513
20078TIP3    H260112   3.403   6.911   7.366
20079TIP3   OH260113   3.386   6.589   8.289
20079TIP3    H160114   3.293   6.564   8.303
20079TIP3    H260115   3.420   6.509   8.244
20080TIP3   OH260116   2.512   6.813   8.036
20080TIP3    H160117   2.514   6.897   7.986
20080TIP3    H260118   2.418   6.805   8.055
20081TIP3   OH260119   2.078   6.119   7.747
20081TIP3    H160120   2.125   6.203   7.768
20081TIP3    H260121   2.002   6.125   7.810
20082TIP3   OH260122   2.653   6.581   7.985
20082TIP3    H160123   2.617   6.671   8.002
20082TIP3    H260124   2.617   6.533   8.061
20083TIP3   OH260125   2.782   7.160   8.511
20083TIP3    H160126   2.822   7.234   8.461
20083TIP3    H260127   2.858   7.127   8.560
20084TIP3   OH260128   2.434   7.054   7.894
20084TIP3    H160129   2.348   7.064   7.939
20084TIP3    H260130   2.466   7.147   7.897
20085TIP3   OH260131   3.171   6.792   8.470
20085TIP3    H160132   3.161   6.793   8.568
20085TIP3    H260133   3.253   6.744   8.459
20086TIP3   OH260134   3.143   6.676   7.352
20086TIP3    H160135   3.195   6.655   7.432
20086TIP3    H260136   3.053   6.664   7.385
20087TIP3   OH260137   3.420   7.327   8.519
20087TIP3    H160138   3.340   7.272   8.511
20087TIP3    H260139   3.405   7.393   8.447
20088TIP3   OH260140   3.484   7.161   7.172
20088TIP3    H160141   3.521   7.233   7.118
20088TIP3    H260142   3.405   7.208   7.206
20089TIP3   OH260143   2.507   5.936   9.038
20089TIP3    H160144   2.412   5.943   9.057
20089TIP3    H260145   2.539   5.882   9.112
20090TIP3   OH260146   3.305   6.611   7.564
20090TIP3    H160147   3.297   6.553   7.642
20090TIP3    H260148   3.402   6.616   7.556
20091TIP3   OH260149   2.222   7.021   8.669
20091TIP3    H160150   2.275   6.950   8.708
20091TIP3    H260151   2.243   7.095   8.728
20092TIP3   OH260152   2.513   6.666   7.351
20092TIP3    H160153   2.527   6.574   7.324
20092TIP3    H260154   2.494   6.656   7.446
20093TIP3   OH260155   2.458   6.671   7.624
20093TIP3    H160156   2.527   6.648   7.687
20093TIP3    H260157   2.459   6.769   7.629
20094TIP3   OH260158   2.191   6.365   7.826
20094TIP3    H160159   2.127   6.411   7.885
20094TIP3    H260160   2.209   6.436   7.761
20095TIP3   OH260161   3.344   6.000   8.716
20095TIP3    H160162   3.419   6.041   8.761
20095TIP3    H260163   3.327   5.921   8.772
20096TIP3   OH260164   3.220   5.756   7.882
20096TIP3    H160165   3.210   5.782   7.789
20096TIP3    H260166   3.261   5.836   7.922
20097TIP3   OH260167   2.722   6.869   7.570
20097TIP3    H160168   2.636   6.896   7.608
20097TIP3    H260169   2.741   6.945   7.514
20098TIP3   OH260170   2.911   5.933   7.987
20098TIP3    H160171   2.975   6.006   7.971
20098TIP3    H260172   2.915   5.925   8.085
20099TIP3   OH260173   3.181   6.253   8.794
20099TIP3    H160174   3.198   6.309   8.873
20099TIP3    H260175   3.236   6.175   8.813
20100TIP3   OH260176   3.056   5.662   8.090
20100TIP3    H160177   3.053   5.736   8.153
20100TIP3    H260178   3.116   5.699   8.021
20101TIP3   OH260179   2.463   6.943   7.640
20101TIP3    H160180   2.436   7.013   7.577
20101TIP3    H260181   2.449   6.988   7.726
20102TIP3   OH260182   2.580   5.659   7.871
20102TIP3    H160183   2.567   5.745   7.914
20102TIP3    H260184   2.676   5.646   7.886
20103TIP3   OH260185   3.821   6.152   8.774
20103TIP3    H160186   3.723   6.151   8.783
20103TIP3    H260187   3.831   6.113   8.687
20104TIP3   OH260188   3.472   6.347   8.162
20104TIP3    H160189   3.396   6.288   8.178
20104TIP3    H260190   3.544   6.301   8.211
20105TIP3   OH260191   2.182   6.578   7.632
20105TIP3    H160192   2.243   6.653   7.644
20105TIP3    H260193   2.233   6.527   7.566
20106TIP3   OH260194   2.126   5.847   7.743
20106TIP3    H160195   2.128   5.944   7.751
20106TIP3    H260196   2.031   5.829   7.739
20107TIP3   OH260197   3.440   7.300   8.112
20107TIP3    H160198   3.397   7.347   8.037
20107TIP3    H260199   3.534   7.320   8.091
20108TIP3   OH260200   2.517   5.571   8.640
20108TIP3    H160201   2.484   5.536   8.554
20108TIP3    H260202   2.506   5.493   8.698
20109TIP3   OH260203   2.052   6.780   8.021
20109TIP3    H160204   1.986   6.818   8.080
20109TIP3    H260205   2.031   6.826   7.937
20110TIP3   OH260206   2.212   7.323   9.087
20110TIP3    H160207   2.296   7.325   9.136
20110TIP3    H260208   2.192   7.228   9.087
20111TIP3   OH260209   2.693   7.299   9.137
20111TIP3    H160210   2.787   7.279   9.145
20111TIP3    H260211   2.668   7.239   9.063
20112TIP3   OH260212   2.674   6.872   7.263
20112TIP3    H160213   2.619   6.801   7.302
20112TIP3    H260214   2.750   6.821   7.230
20113TIP3   OH260215   3.334   7.201   8.868
20113TIP3    H160216   3.325   7.132   8.938
20113TIP3    H260217   3.410   7.253   8.900
20114TIP3   OH260218   3.110   6.912   7.174
20114TIP3    H160219   3.166   6.857   7.232
20114TIP3    H260220   3.164   6.917   7.092
20115TIP3   OH260221   2.342   6.737   9.292
20115TIP3    H160222   2.360   6.641   9.298
20115TIP3    H260223   2.255   6.738   9.247
20116TIP3   OH260224   2.319   6.387   7.484
20116TIP3    H160225   2.374   6.358   7.559
20116TIP3    H260226   2.387   6.393   7.414
20117TIP3   OH260227   2.951   6.823   9.065
20117TIP3    H160228   2.907   6.838   8.979
20117TIP3    H260229   2.981   6.729   9.058
20118TIP3   OH260230   2.827   6.586   7.292
20118TIP3    H160231   2.830   6.601   7.389
20118TIP3    H260232   2.824   6.488   7.289
20119TIP3   OH260233   3.442   6.828   8.670
20119TIP3    H160234   3.516   6.875   8.627
20119TIP3    H260235   3.371   6.894   8.660
20120TIP3   OH260236   2.463   6.469   9.270
20120TIP3    H160237   2.535   6.406   9.258
20120TIP3    H260238   2.488   6.506   9.358
20121TIP3   OH260239   2.526   6.292   7.707
20121TIP3    H160240   2.500   6.254   7.793
20121TIP3    H260241   2.561   6.214   7.660
20122TIP3   OH260242   2.796   6.355   8.933
20122TIP3    H160243   2.719   6.416   8.938
20122TIP3    H260244   2.845   6.390   8.856
20123TIP3   OH260245   2.626   6.081   7.548
20123TIP3    H160246   2.600   6.088   7.454
20123TIP3    H260247   2.723   6.093   7.542
20124TIP3   OH260248   3.312   6.758   9.070
20124TIP3    H160249   3.394   6.735   9.024
20124TIP3    H260250   3.310   6.691   9.141
20125TIP3   OH260251   3.458   6.417   7.204
20125TIP3    H160252   3.427   6.377   7.121
20125TIP3    H260253   3.426   6.509   7.189
20126TIP3   OH260254   2.922   6.144   9.061
20126TIP3    H160255   2.919   6.063   9.006
20126TIP3    H260256   2.876   6.210   9.004
20127TIP3   OH260257   2.922   5.928   8.867
20127TIP3    H160258   2.948   5.971   8.783
20127TIP3    H260259   2.828   5.907   8.850
20128TIP3   OH260260   2.950   6.465   8.739
20128TIP3    H160261   3.034   6.477   8.692
20128TIP3    H260262   2.893   6.533   8.698
20129TIP3   OH260263   3.532   6.433   9.123
20129TIP3    H160264   3.582   6.351   9.135
20129TIP3    H260265   3.600   6.493   9.091
20130TIP3   OH260266   3.573   6.685   8.858
20130TIP3    H160267   3.514   6.738   8.800
20130TIP3    H260268   3.660   6.706   8.818
20131TIP3   OH260269   2.798   6.260   9.287
20131TIP3    H160270   2.727   6.196   9.306
20131TIP3    H260271   2.833   6.227   9.202
20132TIP3   OH260272   3.054   5.694   8.935
20132TIP3    H160273   3.005   5.776   8.914
20132TIP3    H260274   2.984   5.627   8.925
20133TIP3   OH260275   3.180   6.199   9.153
20133TIP3    H160276   3.167   6.189   9.249
20133TIP3    H260277   3.090   6.175   9.122
20134TIP3   OH260278   3.418   6.145   9.006
20134TIP3    H160279   3.343   6.150   9.068
20134TIP3    H260280   3.491   6.116   9.064
20135TIP3   OH260281   3.650   6.089   9.158
20135TIP3    H160282   3.661   5.993   9.177
20135TIP3    H260283   3.644   6.129   9.247
20136TIP3   OH260284   2.634   6.042   9.330
20136TIP3    H160285   2.643   5.949   9.303
20136TIP3    H260286   2.677   6.038   9.418
20137TIP3   OH260287   3.150   5.703   9.193
20137TIP3    H160288   3.217   5.633   9.185
20137TIP3    H260289   3.108   5.698   9.105
20138TIP3   OH260290   3.216   5.925   9.344
20138TIP3    H160291   3.190   5.853   9.283
20138TIP3    H260292   3.136   5.982   9.344
20139TIP3   OH260293   2.433   7.141   7.450
20139TIP3    H160294   2.529   7.143   7.434
20139TIP3    H260295   2.404   7.195   7.374
20140TIP3   OH260296   1.915   6.531   7.661
20140TIP3    H160297   2.010   6.557   7.656
20140TIP3    H260298   1.919   6.440   7.626
20141TIP3   OH260299   1.832   7.140   8.081
20141TIP3    H160300   1.762   7.080   8.047
20141TIP3    H260301   1.874   7.083   8.149
20142TIP3   OH260302   1.969   6.991   8.267
20142TIP3    H160303   1.954   6.921   8.332
20142TIP3    H260304   2.017   7.056   8.322
20143TIP3   OH260305   3.693   7.391   8.068
20143TIP3    H160306   3.717   7.426   8.156
20143TIP3    H260307   3.750   7.442   8.009
20144TIP3   OH260308   3.721   7.414   8.350
20144TIP3    H160309   3.679   7.325   8.346
20144TIP3    H260310   3.796   7.394   8.408
20145TIP3   OH260311   3.769   7.090   8.924
20145TIP3    H160312   3.695   7.098   8.987
20145TIP3    H260313   3.809   7.179   8.928
20146TIP3   OH260314   3.587   6.598   7.540
20146TIP3    H160315   3.652   6.666   7.513
20146TIP3    H260316   3.629   6.564   7.622
20147TIP3   OH260317   3.712   6.470   7.747
20147TIP3    H160318   3.647   6.430   7.808
20147TIP3    H260319   3.777   6.510   7.808
20148TIP3   OH260320   3.766   6.862   8.180
20148TIP3    H160321   3.819   6.800   8.128
20148TIP3    H260322   3.758   6.938   8.119
20149TIP3   OH260323   3.598   7.162   8.376
20149TIP3    H160324   3.527   7.207   8.427
20149TIP3    H260325   3.547   7.116   8.306
20150TIP3   OH260326   3.643   6.366   7.396
20150TIP3    H160327   3.577   6.384   7.325
20150TIP3    H260328   3.625   6.444   7.453
20151TIP3   OH260329   3.527   6.327   7.896
20151TIP3    H160330   3.536   6.230   7.897
20151TIP3    H260331   3.512   6.346   7.991
20152TIP3   OH260332   2.154   6.399   8.640
20152TIP3    H160333   2.152   6.372   8.547
20152TIP3    H260334   2.251   6.401   8.657
20153TIP3   OH260335   3.815   6.752   8.750
20153TIP3    H160336   3.889   6.687   8.741
20153TIP3    H260337   3.842   6.823   8.690
20154TIP3   OH260338   4.002   6.558   8.767
20154TIP3    H160339   3.927   6.509   8.807
20154TIP3    H260340   4.074   6.494   8.782
20155TIP3   OH260341   3.520   6.041   7.789
20155TIP3    H160342   3.560   5.952   7.804
20155TIP3    H260343   3.589   6.081   7.734
20156TIP3   OH260344   3.684   6.218   8.283
20156TIP3    H160345   3.771   6.244   8.244
20156TIP3    H260346   3.697   6.255   8.373
20157TIP3   OH260347   3.751   6.361   8.516
20157TIP3    H160348   3.674   6.395   8.565
20157TIP3    H260349   3.784   6.442   8.472
20158TIP3   OH260350   2.371   6.096   9.305
20158TIP3    H160351   2.468   6.089   9.313
20158TIP3    H260352   2.345   6.011   9.348
20159TIP3   OH260353   4.205   5.952   9.073
20159TIP3    H160354   4.263   5.886   9.029
20159TIP3    H260355   4.177   6.007   8.997
20160TIP3   OH260356   3.631   5.794   7.826
20160TIP3    H160357   3.680   5.779   7.910
20160TIP3    H260358   3.572   5.715   7.826
20161TIP3   OH260359   2.331   5.779   8.643
20161TIP3    H160360   2.394   5.705   8.656
20161TIP3    H260361   2.392   5.854   8.640
20162TIP3   OH260362   2.135   6.053   8.719
20162TIP3    H160363   2.185   6.050   8.635
20162TIP3    H260364   2.160   6.139   8.754
20163TIP3   OH260365   4.077   6.093   8.879
20163TIP3    H160366   3.991   6.133   8.903
20163TIP3    H260367   4.046   6.022   8.820
20164TIP3   OH260368   3.713   5.745   7.446
20164TIP3    H160369   3.746   5.663   7.404
20164TIP3    H260370   3.793   5.800   7.449
20165TIP3   OH260371   2.115   5.555   8.216
20165TIP3    H160372   2.023   5.554   8.248
20165TIP3    H260373   2.111   5.615   8.140
20166TIP3   OH260374   3.277   7.257   7.727
20166TIP3    H160375   3.329   7.247   7.644
20166TIP3    H260376   3.326   7.328   7.771
20167TIP3   OH260377   2.341   5.635   9.025
20167TIP3    H160378   2.291   5.631   9.109
20167TIP3    H260379   2.274   5.676   8.967
20168TIP3   OH260380   2.380   7.059   9.112
20168TIP3    H160381   2.287   7.035   9.096
20168TIP3    H260382   2.388   7.045   9.207
20169TIP3   OH260383   2.556   7.094   8.659
20169TIP3    H160384   2.506   7.169   8.621
20169TIP3    H260385   2.641   7.110   8.614
20170TIP3   OH260386   3.002   7.340   8.796
20170TIP3    H160387   3.043   7.343   8.886
20170TIP3    H260388   3.068   7.392   8.745
20171TIP3   OH260389   3.181   7.491   8.655
20171TIP3    H160390   3.253   7.442   8.615
20171TIP3    H260391   3.230   7.549   8.717
20172TIP3   OH260392   3.975   5.855   8.756
20172TIP3    H160393   3.883   5.850   8.723
20172TIP3    H260394   4.004   5.762   8.744
20173TIP3   OH260395   2.234   7.351   8.685
20173TIP3    H160396   2.144   7.383   8.660
20173TIP3    H260397   2.247   7.398   8.768
20174TIP3   OH260398   2.468   7.330   8.540
20174TIP3    H160399   2.382   7.343   8.586
20174TIP3    H260400   2.448   7.366   8.451
20175TIP3   OH260401   2.895   7.361   8.337
20175TIP3    H160402   2.825   7.383   8.272
20175TIP3    H260403   2.907   7.448   8.381
20176TIP3   OH260404   3.163   7.299   8.387
20176TIP3    H160405   3.069   7.317   8.370
20176TIP3    H260406   3.205   7.378   8.349
20177TIP3   OH260407   3.372   7.493   8.305
20177TIP3    H160408   3.357   7.578   8.259
20177TIP3    H260409   3.396   7.433   8.231
20178TIP3   OH260410   2.144   7.148   8.426
20178TIP3    H160411   2.169   7.123   8.517
20178TIP3    H260412   2.217   7.103   8.377
20179TIP3   OH260413   2.338   7.017   8.282
20179TIP3    H160414   2.353   6.935   8.333
20179TIP3    H260415   2.428   7.056   8.280
20180TIP3   OH260416   2.602   7.113   8.287
20180TIP3    H160417   2.635   7.022   8.278
20180TIP3    H260418   2.645   7.138   8.371
20181TIP3   OH260419   3.177   5.768   8.370
20181TIP3    H160420   3.135   5.701   8.426
20181TIP3    H260421   3.252   5.719   8.331
20182TIP3   OH260422   3.704   5.648   8.278
20182TIP3    H160423   3.739   5.702   8.205
20182TIP3    H260424   3.608   5.668   8.274
20183TIP3   OH260425   3.798   5.752   8.042
20183TIP3    H160426   3.871   5.700   8.004
20183TIP3    H260427   3.832   5.844   8.028
20184TIP3   OH260428   2.428   5.478   8.390
20184TIP3    H160429   2.336   5.444   8.394
20184TIP3    H260430   2.478   5.394   8.388
20185TIP3   OH260431   2.206   5.347   8.052
20185TIP3    H160432   2.248   5.409   7.992
20185TIP3    H260433   2.173   5.407   8.123
20186TIP3   OH260434   2.868   5.514   8.271
20186TIP3    H160435   2.930   5.563   8.215
20186TIP3    H260436   2.890   5.548   8.359
20187TIP3   OH260437   3.420   5.657   8.255
20187TIP3    H160438   3.418   5.618   8.167
20187TIP3    H260439   3.406   5.577   8.312
20188TIP3   OH260440   3.449   5.579   7.818
20188TIP3    H160441   3.361   5.619   7.829
20188TIP3    H260442   3.436   5.494   7.866
20189TIP3   OH260443   1.932   6.917   7.820
20189TIP3    H160444   1.846   6.888   7.785
20189TIP3    H260445   1.923   7.013   7.810
20190TIP3   OH260446   2.852   5.682   7.900
20190TIP3    H160447   2.908   5.637   7.965
20190TIP3    H260448   2.869   5.775   7.927
20191TIP3   OH260449   2.704   7.108   7.404
20191TIP3    H160450   2.791   7.133   7.366
20191TIP3    H260451   2.681   7.034   7.342
20192TIP3   OH260452   3.422   7.227   7.493
20192TIP3    H160453   3.412   7.130   7.479
20192TIP3    H260454   3.377   7.261   7.414
20193TIP3   OH260455   2.633   5.758   9.275
20193TIP3    H160456   2.604   5.684   9.331
20193TIP3    H260457   2.728   5.762   9.300
20194TIP3   OH260458   2.885   5.750   9.378
20194TIP3    H160459   2.975   5.729   9.349
20194TIP3    H260460   2.876   5.697   9.459
20195TIP3   OH260461   2.004   6.940   7.459
20195TIP3    H160462   2.007   6.974   7.549
20195TIP3    H260463   2.094   6.901   7.448
20196TIP3   OH260464   3.709   5.817   9.189
20196TIP3    H160465   3.729   5.786   9.280
20196TIP3    H260466   3.798   5.813   9.147
20197TIP3   OH260467   3.650   7.371   8.680
20197TIP3    H160468   3.571   7.339   8.633
20197TIP3    H260469   3.631   7.466   8.684
20198TIP3   OH260470   4.917   6.753   7.447
20198TIP3    H160471   4.876   6.837   7.418
20198TIP3    H260472   4.846   6.691   7.422
20199TIP3   OH260473   4.886   6.748   7.838
20199TIP3    H160474   4.944   6.712   7.906
20199TIP3    H260475   4.862   6.667   7.789
20200TIP3   OH260476   4.214   6.638   8.193
20200TIP3    H160477   4.245   6.571   8.256
20200TIP3    H260478   4.290   6.698   8.191
20201TIP3   OH260479   5.146   7.047   7.581
20201TIP3    H160480   5.109   6.965   7.542
20201TIP3    H260481   5.103   7.114   7.526
20202TIP3   OH260482   4.184   7.047   7.919
20202TIP3    H160483   4.175   6.949   7.922
20202TIP3    H260484   4.281   7.055   7.915
20203TIP3   OH260485   3.894   6.252   7.706
20203TIP3    H160486   3.850   6.337   7.722
20203TIP3    H260487   3.819   6.201   7.671
20204TIP3   OH260488   3.950   6.537   7.872
20204TIP3    H160489   4.000   6.461   7.911
20204TIP3    H260490   4.014   6.570   7.807
20205TIP3   OH260491   4.800   7.505   7.521
20205TIP3    H160492   4.856   7.434   7.481
20205TIP3    H260493   4.795   7.479   7.613
20206TIP3   OH260494   4.712   6.969   7.875
20206TIP3    H160495   4.747   6.885   7.840
20206TIP3    H260496   4.796   7.013   7.896
20207TIP3   OH260497   5.728   6.289   7.874
20207TIP3    H160498   5.756   6.373   7.916
20207TIP3    H260499   5.747   6.307   7.781
20208TIP3   OH260500   5.124   6.473   7.910
20208TIP3    H160501   5.167   6.387   7.931
20208TIP3    H260502   5.094   6.455   7.818
20209TIP3   OH260503   4.460   6.129   7.876
20209TIP3    H160504   4.442   6.202   7.813
20209TIP3    H260505   4.413   6.056   7.831
20210TIP3   OH260506   5.154   6.222   7.496
20210TIP3    H160507   5.225   6.204   7.563
20210TIP3    H260508   5.209   6.255   7.423
20211TIP3   OH260509   4.097   6.332   7.981
20211TIP3    H160510   4.179   6.313   8.030
20211TIP3    H260511   4.111   6.276   7.902
20212TIP3   OH260512   4.539   6.530   7.773
20212TIP3    H160513   4.632   6.503   7.788
20212TIP3    H260514   4.499   6.445   7.742
20213TIP3   OH260515   5.803   6.498   8.043
20213TIP3    H160516   5.716   6.540   8.026
20213TIP3    H260517   5.811   6.514   8.138
20214TIP3   OH260518   4.459   6.113   8.309
20214TIP3    H160519   4.399   6.150   8.242
20214TIP3    H260520   4.408   6.130   8.391
20215TIP3   OH260521   4.807   6.969   7.322
20215TIP3    H160522   4.766   6.944   7.238
20215TIP3    H260523   4.762   7.054   7.340
20216TIP3   OH260524   4.566   6.888   8.105
20216TIP3    H160525   4.502   6.951   8.145
20216TIP3    H260526   4.604   6.941   8.033
20217TIP3   OH260527   5.363   6.223   7.668
20217TIP3    H160528   5.373   6.158   7.738
20217TIP3    H260529   5.421   6.296   7.697
20218TIP3   OH260530   4.329   6.228   8.094
20218TIP3    H160531   4.392   6.300   8.117
20218TIP3    H260532   4.378   6.187   8.019
20219TIP3   OH260533   4.393   7.080   8.201
20219TIP3    H160534   4.368   7.167   8.163
20219TIP3    H260535   4.315   7.065   8.258
20220TIP3   OH260536   3.789   6.772   7.438
20220TIP3    H160537   3.749   6.800   7.354
20220TIP3    H260538   3.819   6.857   7.476
20221TIP3   OH260539   5.518   6.197   8.044
20221TIP3    H160540   5.429   6.216   8.009
20221TIP3    H260541   5.575   6.220   7.969
20222TIP3   OH260542   4.813   5.834   8.015
20222TIP3    H160543   4.808   5.740   8.036
20222TIP3    H260544   4.737   5.869   8.066
20223TIP3   OH260545   4.943   7.331   7.365
20223TIP3    H160546   4.982   7.250   7.325
20223TIP3    H260547   4.997   7.400   7.319
20224TIP3   OH260548   5.068   7.111   7.259
20224TIP3    H160549   5.032   7.054   7.190
20224TIP3    H260550   5.133   7.053   7.298
20225TIP3   OH260551   5.450   7.202   8.010
20225TIP3    H160552   5.513   7.162   7.950
20225TIP3    H260553   5.425   7.285   7.963
20226TIP3   OH260554   4.749   6.597   7.279
20226TIP3    H160555   4.667   6.646   7.257
20226TIP3    H260556   4.792   6.591   7.192
20227TIP3   OH260557   4.705   6.377   6.998
20227TIP3    H160558   4.774   6.428   7.043
20227TIP3    H260559   4.760   6.313   6.949
20228TIP3   OH260560   5.641   6.831   7.864
20228TIP3    H160561   5.590   6.912   7.873
20228TIP3    H260562   5.680   6.846   7.774
20229TIP3   OH260563   5.094   6.678   7.250
20229TIP3    H160564   5.038   6.699   7.328
20229TIP3    H260565   5.176   6.646   7.293
20230TIP3   OH260566   5.330   6.721   8.159
20230TIP3    H160567   5.323   6.799   8.217
20230TIP3    H260568   5.240   6.719   8.121
20231TIP3   OH260569   4.326   6.675   7.667
20231TIP3    H160570   4.284   6.617   7.599
20231TIP3    H260571   4.403   6.621   7.695
20232TIP3   OH260572   4.455   7.086   7.815
20232TIP3    H160573   4.432   7.043   7.731
20232TIP3    H260574   4.545   7.050   7.832
20233TIP3   OH260575   4.464   6.645   8.020
20233TIP3    H160576   4.497   6.625   7.931
20233TIP3    H260577   4.506   6.732   8.040
20234TIP3   OH260578   5.038   7.265   7.799
20234TIP3    H160579   5.003   7.354   7.820
20234TIP3    H260580   4.989   7.211   7.864
20235TIP3   OH260581   4.599   7.202   8.344
20235TIP3    H160582   4.540   7.264   8.391
20235TIP3    H260583   4.533   7.149   8.296
20236TIP3   OH260584   4.933   6.535   7.076
20236TIP3    H160585   4.993   6.594   7.127
20236TIP3    H260586   4.960   6.558   6.983
20237TIP3   OH260587   4.353   6.760   8.444
20237TIP3    H160588   4.358   6.846   8.490
20237TIP3    H260589   4.258   6.740   8.456
20238TIP3   OH260590   4.679   7.215   7.351
20238TIP3    H160591   4.747   7.279   7.378
20238TIP3    H260592   4.612   7.271   7.309
20239TIP3   OH260593   4.395   7.370   8.432
20239TIP3    H160594   4.358   7.370   8.341
20239TIP3    H260595   4.315   7.349   8.486
20240TIP3   OH260596   5.450   5.775   7.124
20240TIP3    H160597   5.368   5.793   7.175
20240TIP3    H260598   5.461   5.859   7.076
20241TIP3   OH260599   4.192   6.518   7.472
20241TIP3    H160600   4.126   6.563   7.415
20241TIP3    H260601   4.151   6.432   7.485
20242TIP3   OH260602   5.248   7.145   6.675
20242TIP3    H160603   5.256   7.241   6.657
20242TIP3    H260604   5.340   7.115   6.661
20243TIP3   OH260605   3.973   6.901   8.379
20243TIP3    H160606   3.907   6.879   8.310
20243TIP3    H260607   4.009   6.813   8.403
20244TIP3   OH260608   3.826   7.093   8.014
20244TIP3    H160609   3.923   7.092   8.005
20244TIP3    H260610   3.813   7.174   8.065
20245TIP3   OH260611   5.692   7.544   8.067
20245TIP3    H160612   5.693   7.449   8.090
20245TIP3    H260613   5.609   7.572   8.112
20246TIP3   OH260614   4.798   7.330   8.202
20246TIP3    H160615   4.798   7.423   8.234
20246TIP3    H260616   4.726   7.292   8.256
20247TIP3   OH260617   4.558   7.460   7.154
20247TIP3    H160618   4.512   7.442   7.070
20247TIP3    H260619   4.526   7.549   7.178
20248TIP3   OH260620   3.996   7.310   7.537
20248TIP3    H160621   4.044   7.300   7.622
20248TIP3    H260622   3.931   7.238   7.545
20249TIP3   OH260623   4.760   7.362   6.793
20249TIP3    H160624   4.819   7.292   6.757
20249TIP3    H260625   4.794   7.371   6.885
20250TIP3   OH260626   4.809   7.409   7.064
20250TIP3    H160627   4.720   7.421   7.104
20250TIP3    H260628   4.858   7.370   7.137
20251TIP3   OH260629   5.580   6.676   8.341
20251TIP3    H160630   5.499   6.685   8.289
20251TIP3    H260631   5.598   6.580   8.332
20252TIP3   OH260632   4.179   7.083   8.367
20252TIP3    H160633   4.227   7.068   8.451
20252TIP3    H260634   4.104   7.020   8.376
20253TIP3   OH260635   4.577   5.907   8.152
20253TIP3    H160636   4.487   5.877   8.126
20253TIP3    H260637   4.552   5.990   8.197
20254TIP3   OH260638   5.110   6.026   8.346
20254TIP3    H160639   5.179   5.995   8.408
20254TIP3    H260640   5.027   6.002   8.392
20255TIP3   OH260641   5.354   6.455   8.268
20255TIP3    H160642   5.302   6.447   8.351
20255TIP3    H260643   5.321   6.538   8.230
20256TIP3   OH260644   5.011   6.586   6.822
20256TIP3    H160645   4.975   6.557   6.735
20256TIP3    H260646   5.093   6.631   6.793
20257TIP3   OH260647   4.721   5.958   7.122
20257TIP3    H160648   4.690   5.955   7.215
20257TIP3    H260649   4.685   5.874   7.089
20258TIP3   OH260650   4.509   6.423   8.171
20258TIP3    H160651   4.458   6.444   8.252
20258TIP3    H260652   4.492   6.504   8.117
20259TIP3   OH260653   4.393   6.310   7.684
20259TIP3    H160654   4.301   6.283   7.702
20259TIP3    H260655   4.407   6.269   7.596
20260TIP3   OH260656   4.885   6.398   7.412
20260TIP3    H160657   4.830   6.466   7.367
20260TIP3    H260658   4.939   6.364   7.338
20261TIP3   OH260659   5.058   6.675   8.498
20261TIP3    H160660   5.035   6.601   8.560
20261TIP3    H260661   5.152   6.687   8.521
20262TIP3   OH260662   5.039   6.425   7.651
20262TIP3    H160663   4.979   6.448   7.577
20262TIP3    H260664   5.078   6.344   7.612
20263TIP3   OH260665   4.328   6.452   8.379
20263TIP3    H160666   4.352   6.516   8.448
20263TIP3    H260667   4.316   6.370   8.431
20264TIP3   OH260668   4.376   5.929   7.088
20264TIP3    H160669   4.371   5.927   7.186
20264TIP3    H260670   4.298   5.981   7.066
20265TIP3   OH260671   3.921   5.977   7.956
20265TIP3    H160672   3.995   6.008   8.013
20265TIP3    H260673   3.966   5.940   7.879
20266TIP3   OH260674   3.900   5.957   7.482
20266TIP3    H160675   3.942   5.991   7.400
20266TIP3    H260676   3.856   6.038   7.512
20267TIP3   OH260677   5.062   6.676   8.074
20267TIP3    H160678   5.089   6.601   8.015
20267TIP3    H260679   5.027   6.624   8.150
20268TIP3   OH260680   4.718   6.138   7.746
20268TIP3    H160681   4.638   6.132   7.802
20268TIP3    H260682   4.789   6.127   7.812
20269TIP3   OH260683   4.156   6.187   7.754
20269TIP3    H160684   4.061   6.193   7.728
20269TIP3    H260685   4.180   6.095   7.731
20270TIP3   OH260686   4.423   6.183   7.442
20270TIP3    H160687   4.518   6.198   7.423
20270TIP3    H260688   4.380   6.207   7.357
20271TIP3   OH260689   5.213   6.211   7.951
20271TIP3    H160690   5.173   6.219   8.040
20271TIP3    H260691   5.155   6.145   7.909
20272TIP3   OH260692   4.262   6.217   7.218
20272TIP3    H160693   4.193   6.172   7.166
20272TIP3    H260694   4.317   6.255   7.146
20273TIP3   OH260695   5.382   7.894   8.166
20273TIP3    H160696   5.379   7.921   8.072
20273TIP3    H260697   5.458   7.946   8.199
20274TIP3   OH260698   4.340   7.005   8.588
20274TIP3    H160699   4.419   7.037   8.637
20274TIP3    H260700   4.274   7.005   8.660
20275TIP3   OH260701   4.803   6.458   7.843
20275TIP3    H160702   4.874   6.417   7.792
20275TIP3    H260703   4.812   6.415   7.930
20276TIP3   OH260704   4.325   5.949   7.719
20276TIP3    H160705   4.294   5.868   7.766
20276TIP3    H260706   4.382   5.912   7.650
20277TIP3   OH260707   4.779   6.355   8.132
20277TIP3    H160708   4.690   6.391   8.146
20277TIP3    H260709   4.837   6.416   8.183
20278TIP3   OH260710   4.517   6.747   7.229
20278TIP3    H160711   4.444   6.683   7.216
20278TIP3    H260712   4.498   6.780   7.320
20279TIP3   OH260713   4.974   6.060   7.089
20279TIP3    H160714   4.878   6.043   7.097
20279TIP3    H260715   4.983   6.155   7.113
20280TIP3   OH260716   4.920   7.071   8.220
20280TIP3    H160717   4.933   7.040   8.311
20280TIP3    H260718   4.877   7.157   8.234
20281TIP3   OH260719   5.044   6.307   7.194
20281TIP3    H160720   5.140   6.311   7.209
20281TIP3    H260721   5.027   6.385   7.138
20282TIP3   OH260722   4.207   6.766   7.904
20282TIP3    H160723   4.247   6.739   7.819
20282TIP3    H260724   4.249   6.705   7.967
20283TIP3   OH260725   4.664   6.898   7.052
20283TIP3    H160726   4.615   6.984   7.056
20283TIP3    H260727   4.607   6.842   7.110
20284TIP3   OH260728   4.090   6.688   8.516
20284TIP3    H160729   4.110   6.676   8.611
20284TIP3    H260730   4.019   6.623   8.502
20285TIP3   OH260731   4.814   6.803   8.536
20285TIP3    H160732   4.755   6.744   8.488
20285TIP3    H260733   4.902   6.769   8.509
20286TIP3   OH260734   5.079   7.319   8.121
20286TIP3    H160735   4.982   7.323   8.133
20286TIP3    H260736   5.108   7.372   8.198
20287TIP3   OH260737   5.488   6.396   7.029
20287TIP3    H160738   5.425   6.351   6.968
20287TIP3    H260739   5.484   6.485   6.987
20288TIP3   OH260740   5.704   7.252   8.113
20288TIP3    H160741   5.606   7.253   8.116
20288TIP3    H260742   5.721   7.222   8.022
20289TIP3   OH260743   5.187   7.213   6.938
20289TIP3    H160744   5.162   7.136   6.990
20289TIP3    H260745   5.201   7.175   6.849
20290TIP3   OH260746   4.309   7.072   7.527
20290TIP3    H160747   4.309   7.154   7.474
20290TIP3    H260748   4.214   7.058   7.539
20291TIP3   OH260749   3.868   6.380   7.223
20291TIP3    H160750   3.919   6.462   7.245
20291TIP3    H260751   3.795   6.386   7.289
20292TIP3   OH260752   4.451   6.840   7.474
20292TIP3    H160753   4.413   6.929   7.491
20292TIP3    H260754   4.413   6.789   7.549
20293TIP3   OH260755   4.578   7.416   7.997
20293TIP3    H160756   4.617   7.491   7.947
20293TIP3    H260757   4.655   7.386   8.049
20294TIP3   OH260758   4.231   7.310   7.382
20294TIP3    H160759   4.144   7.320   7.426
20294TIP3    H260760   4.263   7.403   7.384
20295TIP3   OH260761   4.987   7.039   7.958
20295TIP3    H160762   4.962   7.062   8.051
20295TIP3    H260763   5.016   6.948   7.973
20296TIP3   OH260764   4.942   6.942   6.840
20296TIP3    H160765   4.991   6.917   6.921
20296TIP3    H260766   4.851   6.916   6.865
20297TIP3   OH260767   5.218   7.583   8.004
20297TIP3    H160768   5.137   7.529   7.995
20297TIP3    H260769   5.203   7.651   7.934
20298TIP3   OH260770   5.281   7.419   6.659
20298TIP3    H160771   5.317   7.489   6.603
20298TIP3    H260772   5.201   7.466   6.692
20299TIP3   OH260773   4.301   6.195   8.526
20299TIP3    H160774   4.205   6.200   8.540
20299TIP3    H260775   4.329   6.135   8.597
20300TIP3   OH260776   5.103   6.888   7.066
20300TIP3    H160777   5.091   6.812   7.127
20300TIP3    H260778   5.198   6.878   7.044
20301TIP3   OH260779   4.018   7.279   8.156
20301TIP3    H160780   4.070   7.205   8.192
20301TIP3    H260781   4.042   7.350   8.217
20302TIP3   OH260782   4.309   6.924   6.838
20302TIP3    H160783   4.322   6.832   6.809
20302TIP3    H260784   4.289   6.912   6.933
20303TIP3   OH260785   4.254   6.928   7.111
20303TIP3    H160786   4.325   6.904   7.172
20303TIP3    H260787   4.256   7.026   7.116
20304TIP3   OH260788   3.987   6.621   7.313
20304TIP3    H160789   3.923   6.668   7.371
20304TIP3    H260790   4.003   6.690   7.246
20305TIP3   OH260791   5.133   6.264   8.211
20305TIP3    H160792   5.218   6.294   8.246
20305TIP3    H260793   5.119   6.180   8.261
20306TIP3   OH260794   5.013   6.013   7.371
20306TIP3    H160795   5.005   6.035   7.276
20306TIP3    H260796   5.056   6.093   7.407
20307TIP3   OH260797   4.520   7.127   7.061
20307TIP3    H160798   4.432   7.154   7.095
20307TIP3    H260799   4.535   7.197   6.996
20308TIP3   OH260800   4.705   6.192   7.473
20308TIP3    H160801   4.773   6.261   7.456
20308TIP3    H260802   4.712   6.181   7.570
20309TIP3   OH260803   4.978   6.512   8.278
20309TIP3    H160804   4.997   6.562   8.360
20309TIP3    H260805   5.030   6.431   8.290
20310TIP3   OH260806   4.850   5.917   7.574
20310TIP3    H160807   4.857   5.988   7.641
20310TIP3    H260808   4.911   5.952   7.505
20311TIP3   OH260809   4.261   7.201   7.127
20311TIP3    H160810   4.232   7.270   7.063
20311TIP3    H260811   4.245   7.246   7.212
20312TIP3   OH260812   4.362   5.915   7.365
20312TIP3    H160813   4.362   6.006   7.402
20312TIP3    H260814   4.458   5.895   7.373
20313TIP3   OH260815   5.619   6.408   8.257
20313TIP3    H160816   5.522   6.410   8.269
20313TIP3    H260817   5.624   6.357   8.175
20314TIP3   OH260818   5.272   6.602   7.640
20314TIP3    H160819   5.192   6.553   7.663
20314TIP3    H260820   5.341   6.558   7.694
20315TIP3   OH260821   3.979   6.832   7.121
20315TIP3    H160822   4.039   6.908   7.129
20315TIP3    H260823   4.027   6.781   7.052
20316TIP3   OH260824   3.918   6.111   7.260
20316TIP3    H160825   3.927   6.208   7.249
20316TIP3    H260826   3.869   6.085   7.182
20317TIP3   OH260827   5.244   7.562   7.612
20317TIP3    H160828   5.194   7.599   7.535
20317TIP3    H260829   5.335   7.581   7.580
20318TIP3   OH260830   4.311   5.829   8.128
20318TIP3    H160831   4.281   5.795   8.041
20318TIP3    H260832   4.302   5.750   8.185
20319TIP3   OH260833   3.850   7.040   7.507
20319TIP3    H160834   3.780   7.076   7.564
20319TIP3    H260835   3.828   7.083   7.422
20320TIP3   OH260836   4.007   7.586   8.578
20320TIP3    H160837   4.093   7.587   8.626
20320TIP3    H260838   3.986   7.492   8.578
20321TIP3   OH260839   4.490   7.553   8.624
20321TIP3    H160840   4.585   7.535   8.630
20321TIP3    H260841   4.465   7.495   8.550
20322TIP3   OH260842   4.472   7.129   6.753
20322TIP3    H160843   4.416   7.056   6.789
20322TIP3    H260844   4.546   7.077   6.716
20323TIP3   OH260845   5.134   7.455   8.353
20323TIP3    H160846   5.122   7.388   8.424
20323TIP3    H260847   5.207   7.509   8.387
20324TIP3   OH260848   4.907   7.170   6.662
20324TIP3    H160849   4.956   7.106   6.718
20324TIP3    H260850   4.961   7.171   6.580
20325TIP3   OH260851   4.139   6.994   8.779
20325TIP3    H160852   4.154   6.898   8.784
20325TIP3    H260853   4.051   6.997   8.736
20326TIP3   OH260854   4.115   6.644   6.971
20326TIP3    H160855   4.172   6.614   7.044
20326TIP3    H260856   4.181   6.649   6.899
20327TIP3   OH260857   4.748   7.079   8.551
20327TIP3    H160858   4.703   7.094   8.466
20327TIP3    H260859   4.777   6.985   8.545
20328TIP3   OH260860   4.626   6.843   6.780
20328TIP3    H160861   4.626   6.856   6.877
20328TIP3    H260862   4.625   6.745   6.775
20329TIP3   OH260863   5.240   7.077   8.147
20329TIP3    H160864   5.311   7.134   8.113
20329TIP3    H260865   5.164   7.139   8.146
20330TIP3   OH260866   4.257   6.727   8.760
20330TIP3    H160867   4.332   6.668   8.742
20330TIP3    H260868   4.282   6.761   8.849
20331TIP3   OH260869   4.324   6.548   7.195
20331TIP3    H160870   4.299   6.506   7.278
20331TIP3    H260871   4.360   6.473   7.143
20332TIP3   OH260872   4.592   6.613   8.423
20332TIP3    H160873   4.514   6.672   8.426
20332TIP3    H260874   4.641   6.648   8.345
20333TIP3   OH260875   4.424   6.341   7.036
20333TIP3    H160876   4.398   6.344   6.941
20333TIP3    H260877   4.521   6.346   7.028
20334TIP3   OH260878   5.109   7.014   8.557
20334TIP3    H160879   5.194   6.993   8.516
20334TIP3    H260880   5.104   6.947   8.627
20335TIP3   OH260881   5.247   6.673   6.698
20335TIP3    H160882   5.226   6.626   6.615
20335TIP3    H260883   5.215   6.763   6.673
20336TIP3   OH260884   4.716   6.400   8.549
20336TIP3    H160885   4.716   6.320   8.493
20336TIP3    H260886   4.671   6.466   8.491
20337TIP3   OH260887   4.718   6.188   8.355
20337TIP3    H160888   4.745   6.227   8.271
20337TIP3    H260889   4.624   6.164   8.337
20338TIP3   OH260890   4.745   6.725   8.231
20338TIP3    H160891   4.824   6.726   8.175
20338TIP3    H260892   4.688   6.791   8.186
20339TIP3   OH260893   5.328   6.690   8.611
20339TIP3    H160894   5.374   6.605   8.621
20339TIP3    H260895   5.400   6.747   8.579
20340TIP3   OH260896   5.370   6.944   8.344
20340TIP3    H160897   5.311   6.994   8.283
20340TIP3    H260898   5.457   6.962   8.301
20341TIP3   OH260899   4.594   6.514   8.778
20341TIP3    H160900   4.524   6.446   8.793
20341TIP3    H260901   4.628   6.487   8.691
20342TIP3   OH260902   4.850   5.953   8.424
20342TIP3    H160903   4.801   6.034   8.401
20342TIP3    H260904   4.782   5.884   8.410
20343TIP3   OH260905   4.976   6.457   8.639
20343TIP3    H160906   4.965   6.444   8.735
20343TIP3    H260907   4.886   6.431   8.609
20344TIP3   OH260908   5.216   6.406   8.495
20344TIP3    H160909   5.140   6.405   8.556
20344TIP3    H260910   5.289   6.373   8.551
20345TIP3   OH260911   5.446   6.345   8.645
20345TIP3    H160912   5.458   6.250   8.663
20345TIP3    H260913   5.441   6.384   8.734
20346TIP3   OH260914   4.433   6.294   8.831
20346TIP3    H160915   4.440   6.203   8.796
20346TIP3    H260916   4.468   6.282   8.921
20347TIP3   OH260917   4.945   5.960   8.681
20347TIP3    H160918   5.013   5.889   8.674
20347TIP3    H260919   4.906   5.955   8.592
20348TIP3   OH260920   5.011   6.176   8.839
20348TIP3    H160921   4.989   6.105   8.775
20348TIP3    H260922   4.933   6.235   8.832
20349TIP3   OH260923   4.230   7.401   6.938
20349TIP3    H160924   4.326   7.401   6.919
20349TIP3    H260925   4.199   7.452   6.861
20350TIP3   OH260926   3.711   6.785   7.158
20350TIP3    H160927   3.806   6.809   7.144
20350TIP3    H260928   3.707   6.698   7.115
20351TIP3   OH260929   3.627   7.397   7.568
20351TIP3    H160930   3.558   7.337   7.532
20351TIP3    H260931   3.670   7.340   7.635
20352TIP3   OH260932   3.764   7.249   7.754
20352TIP3    H160933   3.749   7.178   7.818
20352TIP3    H260934   3.813   7.312   7.810
20353TIP3   OH260935   5.493   7.649   7.557
20353TIP3    H160936   5.519   7.694   7.639
20353TIP3    H260937   5.548   7.694   7.491
20354TIP3   OH260938   5.517   7.673   7.841
20354TIP3    H160939   5.483   7.583   7.826
20354TIP3    H260940   5.596   7.654   7.894
20355TIP3   OH260941   5.563   7.347   8.406
20355TIP3    H160942   5.491   7.354   8.472
20355TIP3    H260943   5.605   7.435   8.414
20356TIP3   OH260944   5.379   6.862   7.032
20356TIP3    H160945   5.448   6.924   7.001
20356TIP3    H260946   5.424   6.821   7.109
20357TIP3   OH260947   5.507   6.730   7.235
20357TIP3    H160948   5.444   6.683   7.293
20357TIP3    H260949   5.575   6.763   7.297
20358TIP3   OH260950   5.371   7.413   7.852
20358TIP3    H160951   5.323   7.468   7.919
20358TIP3    H260952   5.323   7.438   7.771
20359TIP3   OH260953   5.447   6.636   6.882
20359TIP3    H160954   5.376   6.637   6.814
20359TIP3    H260955   5.418   6.712   6.936
20360TIP3   OH260956   5.317   6.310   6.837
20360TIP3    H160957   5.276   6.346   6.757
20360TIP3    H260958   5.292   6.215   6.828
20361TIP3   OH260959   5.322   6.581   7.376
20361TIP3    H160960   5.331   6.484   7.369
20361TIP3    H260961   5.310   6.593   7.473
20362TIP3   OH260962   3.949   6.656   8.127
20362TIP3    H160963   3.948   6.628   8.033
20362TIP3    H260964   4.047   6.658   8.144
20363TIP3   OH260965   5.612   7.010   8.230
20363TIP3    H160966   5.681   6.940   8.228
20363TIP3    H260967   5.655   7.082   8.183
20364TIP3   OH260968   5.794   6.816   8.258
20364TIP3    H160969   5.721   6.762   8.296
20364TIP3    H260970   5.869   6.754   8.271
20365TIP3   OH260971   5.261   6.044   6.824
20365TIP3    H160972   5.336   6.012   6.878
20365TIP3    H260973   5.188   5.983   6.847
20366TIP3   OH260974   5.320   6.299   7.276
20366TIP3    H160975   5.359   6.210   7.294
20366TIP3    H260976   5.379   6.329   7.205
20367TIP3   OH260977   5.482   6.477   7.771
20367TIP3    H160978   5.568   6.504   7.731
20367TIP3    H260979   5.496   6.508   7.862
20368TIP3   OH260980   5.550   6.614   8.006
20368TIP3    H160981   5.472   6.649   8.054
20368TIP3    H260982   5.580   6.693   7.956
20369TIP3   OH260983   4.166   6.344   8.801
20369TIP3    H160984   4.264   6.338   8.803
20369TIP3    H260985   4.142   6.259   8.843
20370TIP3   OH260986   6.001   6.208   8.559
20370TIP3    H160987   6.059   6.143   8.515
20370TIP3    H260988   5.973   6.264   8.484
20371TIP3   OH260989   5.427   6.048   7.316
20371TIP3    H160990   5.474   6.031   7.400
20371TIP3    H260991   5.366   5.971   7.313
20372TIP3   OH260992   4.126   6.036   8.132
20372TIP3    H160993   4.189   5.962   8.143
20372TIP3    H260994   4.188   6.111   8.127
20373TIP3   OH260995   3.931   6.310   8.206
20373TIP3    H160996   3.981   6.306   8.122
20373TIP3    H260997   3.957   6.396   8.240
20374TIP3   OH260998   5.873   6.349   8.365
20374TIP3    H160999   5.786   6.389   8.387
20374TIP3    H261000   5.843   6.277   8.306
20375TIP3   OH261001   5.510   5.986   6.946
20375TIP3    H161002   5.548   5.912   6.893
20375TIP3    H261003   5.578   6.055   6.937
20376TIP3   OH261004   3.914   5.810   7.708
20376TIP3    H161005   3.821   5.809   7.735
20376TIP3    H261006   3.912   5.870   7.630
20377TIP3   OH261007   5.076   7.511   7.215
20377TIP3    H161008   5.124   7.502   7.131
20377TIP3    H261009   5.122   7.585   7.257
20378TIP3   OH261010   4.133   5.893   8.521
20378TIP3    H161011   4.083   5.888   8.604
20378TIP3    H261012   4.066   5.932   8.462
20379TIP3   OH261013   4.175   7.317   8.599
20379TIP3    H161014   4.082   7.293   8.582
20379TIP3    H261015   4.181   7.304   8.694
20380TIP3   OH261016   4.352   7.351   8.146
20380TIP3    H161017   4.302   7.426   8.108
20380TIP3    H261018   4.437   7.367   8.100
20381TIP3   OH261019   4.798   7.595   8.283
20381TIP3    H161020   4.838   7.599   8.372
20381TIP3    H261021   4.863   7.649   8.232
20382TIP3   OH261022   4.977   7.748   8.143
20382TIP3    H161023   5.051   7.701   8.103
20382TIP3    H261024   5.025   7.808   8.204
20383TIP3   OH261025   5.770   6.111   8.243
20383TIP3    H161026   5.679   6.103   8.210
20383TIP3    H261027   5.801   6.019   8.231
20384TIP3   OH261028   4.029   7.609   8.170
20384TIP3    H161029   3.940   7.643   8.145
20384TIP3    H261030   4.038   7.648   8.258
20385TIP3   OH261031   4.265   7.587   8.027
20385TIP3    H161032   4.179   7.601   8.072
20385TIP3    H261033   4.245   7.622   7.937
20386TIP3   OH261034   4.693   7.618   7.823
20386TIP3    H161035   4.621   7.638   7.760
20386TIP3    H261036   4.704   7.705   7.866
20387TIP3   OH261037   4.961   7.549   7.865
20387TIP3    H161038   4.866   7.571   7.857
20387TIP3    H261039   5.002   7.631   7.834
20388TIP3   OH261040   5.166   7.751   7.795
20388TIP3    H161041   5.151   7.836   7.748
20388TIP3    H261042   5.193   7.693   7.721
20389TIP3   OH261043   3.940   7.404   7.914
20389TIP3    H161044   3.965   7.379   8.005
20389TIP3    H261045   4.012   7.360   7.864
20390TIP3   OH261046   4.133   7.275   7.770
20390TIP3    H161047   4.149   7.191   7.820
20390TIP3    H261048   4.223   7.313   7.766
20391TIP3   OH261049   4.399   7.370   7.773
20391TIP3    H161050   4.430   7.278   7.763
20391TIP3    H261051   4.440   7.393   7.858
20392TIP3   OH261052   4.974   6.022   7.852
20392TIP3    H161053   4.933   5.954   7.907
20392TIP3    H261054   5.052   5.975   7.815
20393TIP3   OH261055   5.500   5.926   7.779
20393TIP3    H161056   5.533   5.956   7.691
20393TIP3    H261057   5.404   5.917   7.762
20394TIP3   OH261058   5.596   6.014   7.533
20394TIP3    H161059   5.665   5.958   7.492
20394TIP3    H261060   5.631   6.104   7.513
20395TIP3   OH261061   4.224   5.736   7.878
20395TIP3    H161062   4.132   5.702   7.880
20395TIP3    H261063   4.274   5.652   7.875
20396TIP3   OH261064   4.009   5.605   7.525
20396TIP3    H161065   4.042   5.663   7.454
20396TIP3    H261066   3.984   5.669   7.594
20397TIP3   OH261067   4.664   5.771   7.760
20397TIP3    H161068   4.724   5.815   7.698
20397TIP3    H261069   4.696   5.805   7.845
20398TIP3   OH261070   5.213   5.906   7.746
20398TIP3    H161071   5.224   5.872   7.656
20398TIP3    H261072   5.221   5.820   7.795
20399TIP3   OH261073   5.242   5.836   7.298
20399TIP3    H161074   5.154   5.874   7.315
20399TIP3    H261075   5.239   5.757   7.356
20400TIP3   OH261076   3.728   7.175   7.308
20400TIP3    H161077   3.642   7.144   7.273
20400TIP3    H261078   3.719   7.270   7.289
20401TIP3   OH261079   4.127   5.767   7.288
20401TIP3    H161080   4.175   5.702   7.233
20401TIP3    H261081   4.202   5.819   7.325
20402TIP3   OH261082   4.640   5.940   7.389
20402TIP3    H161083   4.701   5.894   7.448
20402TIP3    H261084   4.661   6.032   7.413
20403TIP3   OH261085   4.500   7.365   6.889
20403TIP3    H161086   4.588   7.389   6.851
20403TIP3    H261087   4.477   7.291   6.829
20404TIP3   OH261088   5.217   7.482   6.981
20404TIP3    H161089   5.209   7.385   6.966
20404TIP3    H261090   5.173   7.516   6.900
20405TIP3   OH261091   4.432   6.017   8.768
20405TIP3    H161092   4.398   5.947   8.826
20405TIP3    H261093   4.526   6.017   8.796
20406TIP3   OH261094   4.681   6.014   8.888
20406TIP3    H161095   4.765   5.988   8.848
20406TIP3    H261096   4.669   5.943   8.955
20407TIP3   OH261097   3.801   7.196   6.945
20407TIP3    H161098   3.802   7.233   7.034
20407TIP3    H261099   3.892   7.160   6.936
20408TIP3   OH261100   5.507   6.075   8.676
20408TIP3    H161101   5.526   6.043   8.767
20408TIP3    H261102   5.595   6.069   8.634
20409TIP3   OH261103   5.446   7.626   8.166
20409TIP3    H161104   5.364   7.598   8.121
20409TIP3    H261105   5.430   7.723   8.171
20410TIP3   OH261106   6.712   6.997   6.934
20410TIP3    H161107   6.686   7.090   6.918
20410TIP3    H261108   6.632   6.951   6.901
20411TIP3   OH261109   6.717   6.998   7.311
20411TIP3    H161110   6.741   6.978   7.403
20411TIP3    H261111   6.663   6.922   7.286
20412TIP3   OH261112   6.011   6.900   7.686
20412TIP3    H161113   6.044   6.830   7.745
20412TIP3    H261114   6.091   6.952   7.671
20413TIP3   OH261115   6.955   7.299   6.998
20413TIP3    H161116   6.939   7.233   7.067
20413TIP3    H261117   6.979   7.377   7.050
20414TIP3   OH261118   5.979   7.303   7.408
20414TIP3    H161119   5.973   7.205   7.409
20414TIP3    H261120   6.076   7.314   7.402
20415TIP3   OH261121   5.688   6.510   7.191
20415TIP3    H161122   5.638   6.592   7.203
20415TIP3    H261123   5.619   6.452   7.155
20416TIP3   OH261124   5.743   6.796   7.365
20416TIP3    H161125   5.794   6.720   7.402
20416TIP3    H261126   5.803   6.828   7.296
20417TIP3   OH261127   6.600   7.764   7.011
20417TIP3    H161128   6.649   7.691   6.966
20417TIP3    H261129   6.591   7.730   7.101
20418TIP3   OH261130   6.498   7.217   7.358
20418TIP3    H161131   6.569   7.164   7.318
20418TIP3    H261132   6.549   7.289   7.402
20419TIP3   OH261133   7.513   6.543   7.367
20419TIP3    H161134   7.546   6.624   7.411
20419TIP3    H261135   7.537   6.562   7.274
20420TIP3   OH261136   6.934   6.721   7.405
20420TIP3    H161137   6.914   6.641   7.455
20420TIP3    H261138   6.893   6.705   7.317
20421TIP3   OH261139   6.261   6.385   7.360
20421TIP3    H161140   6.237   6.458   7.299
20421TIP3    H261141   6.212   6.311   7.318
20422TIP3   OH261142   6.958   6.485   6.985
20422TIP3    H161143   7.050   6.457   6.997
20422TIP3    H261144   6.965   6.530   6.899
20423TIP3   OH261145   5.893   6.589   7.468
20423TIP3    H161146   5.976   6.567   7.515
20423TIP3    H261147   5.903   6.533   7.388
20424TIP3   OH261148   6.332   6.786   7.260
20424TIP3    H161149   6.425   6.761   7.274
20424TIP3    H261150   6.293   6.702   7.228
20425TIP3   OH261151   7.588   6.748   7.537
20425TIP3    H161152   7.514   6.808   7.513
20425TIP3    H261153   7.610   6.780   7.625
20426TIP3   OH261154   6.256   6.369   7.796
20426TIP3    H161155   6.195   6.406   7.729
20426TIP3    H261156   6.205   6.386   7.877
20427TIP3   OH261157   6.606   7.221   6.803
20427TIP3    H161158   6.560   7.200   6.721
20427TIP3    H261159   6.562   7.305   6.828
20428TIP3   OH261160   6.361   7.145   7.599
20428TIP3    H161161   6.296   7.210   7.634
20428TIP3    H261162   6.410   7.202   7.536
20429TIP3   OH261163   6.127   6.484   7.580
20429TIP3    H161164   6.188   6.557   7.603
20429TIP3    H261165   6.176   6.443   7.505
20430TIP3   OH261166   6.181   7.335   7.682
20430TIP3    H161167   6.163   7.423   7.646
20430TIP3    H261168   6.104   7.325   7.743
20431TIP3   OH261169   5.583   7.027   6.925
20431TIP3    H161170   5.544   7.053   6.840
20431TIP3    H261171   5.614   7.113   6.961
20432TIP3   OH261172   7.025   7.541   7.165
20432TIP3    H161173   6.940   7.529   7.213
20432TIP3    H261174   7.011   7.628   7.122
20433TIP3   OH261175   7.282   6.445   7.477
20433TIP3    H161176   7.248   6.515   7.536
20433TIP3    H261177   7.366   6.487   7.443
20434TIP3   OH261178   6.615   6.092   7.513
20434TIP3    H161179   6.599   5.997   7.526
20434TIP3    H261180   6.535   6.129   7.558
20435TIP3   OH261181   6.730   7.590   6.842
20435TIP3    H161182   6.779   7.508   6.819
20435TIP3    H261183   6.789   7.656   6.799
20436TIP3   OH261184   6.871   7.375   6.745
20436TIP3    H161185   6.826   7.298   6.708
20436TIP3    H261186   6.906   7.339   6.829
20437TIP3   OH261187   7.252   7.458   7.507
20437TIP3    H161188   7.235   7.380   7.450
20437TIP3    H261189   7.229   7.532   7.448
20438TIP3   OH261190   6.541   6.848   6.766
20438TIP3    H161191   6.460   6.900   6.747
20438TIP3    H261192   6.585   6.848   6.679
20439TIP3   OH261193   6.501   6.633   6.484
20439TIP3    H161194   6.569   6.686   6.530
20439TIP3    H261195   6.559   6.570   6.436
20440TIP3   OH261196   7.449   7.096   7.353
20440TIP3    H161197   7.365   7.147   7.360
20440TIP3    H261198   7.475   7.119   7.261
20441TIP3   OH261199   6.888   6.933   6.737
20441TIP3    H161200   6.833   6.958   6.814
20441TIP3    H261201   6.973   6.911   6.782
20442TIP3   OH261202   7.124   6.975   7.646
20442TIP3    H161203   7.121   7.058   7.696
20442TIP3    H261204   7.037   6.980   7.601
20443TIP3   OH261205   6.120   6.932   7.154
20443TIP3    H161206   6.079   6.874   7.086
20443TIP3    H261207   6.198   6.879   7.182
20444TIP3   OH261208   6.247   7.344   7.302
20444TIP3    H161209   6.233   7.298   7.219
20444TIP3    H261210   6.336   7.312   7.327
20445TIP3   OH261211   6.258   6.905   7.509
20445TIP3    H161212   6.290   6.887   7.418
20445TIP3    H261213   6.301   6.991   7.529
20446TIP3   OH261214   6.794   7.535   7.301
20446TIP3    H161215   6.774   7.626   7.330
20446TIP3    H261216   6.741   7.486   7.368
20447TIP3   OH261217   6.372   7.435   7.869
20447TIP3    H161218   6.323   7.518   7.880
20447TIP3    H261219   6.330   7.396   7.790
20448TIP3   OH261220   6.733   6.786   6.563
20448TIP3    H161221   6.789   6.849   6.614
20448TIP3    H261222   6.757   6.812   6.471
20449TIP3   OH261223   6.152   7.014   7.935
20449TIP3    H161224   6.158   7.102   7.978
20449TIP3    H261225   6.056   6.998   7.941
20450TIP3   OH261226   6.474   7.470   6.838
20450TIP3    H161227   6.549   7.527   6.859
20450TIP3    H261228   6.411   7.532   6.799
20451TIP3   OH261229   6.184   7.648   7.920
20451TIP3    H161230   6.155   7.635   7.827
20451TIP3    H261231   6.107   7.613   7.971
20452TIP3   OH261232   7.247   6.033   6.613
20452TIP3    H161233   7.163   6.052   6.659
20452TIP3    H261234   7.259   6.115   6.560
20453TIP3   OH261235   5.988   6.773   6.958
20453TIP3    H161236   5.923   6.820   6.902
20453TIP3    H261237   5.944   6.688   6.971
20454TIP3   OH261238   7.043   7.400   6.159
20454TIP3    H161239   7.051   7.497   6.145
20454TIP3    H261240   7.136   7.371   6.147
20455TIP3   OH261241   5.747   7.141   7.866
20455TIP3    H161242   5.755   7.122   7.771
20455TIP3    H261243   5.801   7.068   7.904
20456TIP3   OH261244   5.621   7.357   7.498
20456TIP3    H161245   5.716   7.339   7.489
20456TIP3    H261246   5.621   7.437   7.553
20457TIP3   OH261247   7.490   7.786   7.552
20457TIP3    H161248   7.478   7.691   7.569
20457TIP3    H261249   7.402   7.821   7.579
20458TIP3   OH261250   6.354   7.718   6.640
20458TIP3    H161251   6.308   7.699   6.557
20458TIP3    H261252   6.321   7.806   6.663
20459TIP3   OH261253   5.792   7.567   7.024
20459TIP3    H161254   5.840   7.557   7.109
20459TIP3    H261255   5.731   7.491   7.029
20460TIP3   OH261256   6.556   7.619   6.281
20460TIP3    H161257   6.615   7.549   6.245
20460TIP3    H261258   6.589   7.627   6.373
20461TIP3   OH261259   6.605   7.666   6.551
20461TIP3    H161260   6.517   7.676   6.592
20461TIP3    H261261   6.655   7.625   6.624
20462TIP3   OH261262   7.393   6.943   7.817
20462TIP3    H161263   7.304   6.958   7.782
20462TIP3    H261264   7.395   6.847   7.828
20463TIP3   OH261265   5.970   7.337   7.859
20463TIP3    H161266   6.028   7.324   7.937
20463TIP3    H261267   5.897   7.276   7.876
20464TIP3   OH261268   6.373   6.166   7.636
20464TIP3    H161269   6.284   6.134   7.611
20464TIP3    H261270   6.347   6.247   7.684
20465TIP3   OH261271   6.905   6.283   7.828
20465TIP3    H161272   6.972   6.259   7.896
20465TIP3    H261273   6.821   6.265   7.874
20466TIP3   OH261274   7.154   6.714   7.751
20466TIP3    H161275   7.103   6.704   7.834
20466TIP3    H261276   7.123   6.800   7.717
20467TIP3   OH261277   6.808   6.837   6.308
20467TIP3    H161278   6.772   6.813   6.221
20467TIP3    H261279   6.885   6.890   6.283
20468TIP3   OH261280   6.521   6.211   6.609
20468TIP3    H161281   6.485   6.209   6.700
20468TIP3    H261282   6.479   6.130   6.573
20469TIP3   OH261283   6.306   6.679   7.655
20469TIP3    H161284   6.258   6.701   7.737
20469TIP3    H261285   6.291   6.761   7.602
20470TIP3   OH261286   6.189   6.564   7.170
20470TIP3    H161287   6.096   6.540   7.188
20470TIP3    H261288   6.201   6.525   7.081
20471TIP3   OH261289   6.681   6.651   6.897
20471TIP3    H161290   6.626   6.723   6.860
20471TIP3    H261291   6.732   6.624   6.818
20472TIP3   OH261292   6.856   6.928   7.980
20472TIP3    H161293   6.831   6.859   8.045
20472TIP3    H261294   6.947   6.948   8.008
20473TIP3   OH261295   6.834   6.680   7.147
20473TIP3    H161296   6.778   6.722   7.079
20473TIP3    H261297   6.863   6.602   7.096
20474TIP3   OH261298   6.123   6.709   7.865
20474TIP3    H161299   6.158   6.771   7.932
20474TIP3    H261300   6.112   6.627   7.917
20475TIP3   OH261301   6.176   6.188   6.576
20475TIP3    H161302   6.164   6.183   6.673
20475TIP3    H261303   6.096   6.237   6.549
20476TIP3   OH261304   5.717   6.239   7.443
20476TIP3    H161305   5.796   6.262   7.497
20476TIP3    H261306   5.755   6.197   7.364
20477TIP3   OH261307   5.693   6.213   6.966
20477TIP3    H161308   5.736   6.252   6.887
20477TIP3    H261309   5.630   6.285   6.987
20478TIP3   OH261310   6.848   6.926   7.561
20478TIP3    H161311   6.887   6.856   7.503
20478TIP3    H261312   6.819   6.872   7.637
20479TIP3   OH261313   6.516   6.388   7.234
20479TIP3    H161314   6.428   6.384   7.278
20479TIP3    H261315   6.575   6.394   7.311
20480TIP3   OH261316   5.950   6.444   7.241
20480TIP3    H161317   5.855   6.452   7.215
20480TIP3    H261318   5.971   6.351   7.218
20481TIP3   OH261319   6.222   6.442   6.927
20481TIP3    H161320   6.314   6.457   6.900
20481TIP3    H261321   6.171   6.463   6.846
20482TIP3   OH261322   6.062   6.472   6.710
20482TIP3    H161323   5.988   6.428   6.663
20482TIP3    H261324   6.112   6.508   6.634
20483TIP3   OH261325   7.167   8.168   7.654
20483TIP3    H161326   7.182   8.169   7.558
20483TIP3    H261327   7.248   8.217   7.685
20484TIP3   OH261328   6.132   7.262   8.074
20484TIP3    H161329   6.216   7.293   8.114
20484TIP3    H261330   6.074   7.263   8.152
20485TIP3   OH261331   6.597   6.716   7.333
20485TIP3    H161332   6.666   6.670   7.283
20485TIP3    H261333   6.602   6.675   7.421
20486TIP3   OH261334   6.126   6.202   7.209
20486TIP3    H161335   6.088   6.124   7.255
20486TIP3    H261336   6.167   6.162   7.131
20487TIP3   OH261337   6.578   6.616   7.616
20487TIP3    H161338   6.487   6.649   7.631
20487TIP3    H261339   6.632   6.676   7.671
20488TIP3   OH261340   6.315   7.002   6.716
20488TIP3    H161341   6.241   6.938   6.704
20488TIP3    H261342   6.295   7.037   6.806
20489TIP3   OH261343   7.216   7.236   7.345
20489TIP3    H161344   7.236   7.288   7.265
20489TIP3    H261345   7.128   7.197   7.323
20490TIP3   OH261346   6.772   6.314   6.581
20490TIP3    H161347   6.674   6.297   6.583
20490TIP3    H261348   6.777   6.411   6.596
20491TIP3   OH261349   6.845   6.566   6.685
20491TIP3    H161350   6.942   6.575   6.686
20491TIP3    H261351   6.818   6.642   6.629
20492TIP3   OH261352   6.002   7.023   7.392
20492TIP3    H161353   6.040   6.998   7.305
20492TIP3    H261354   6.048   6.961   7.451
20493TIP3   OH261355   6.458   7.153   6.537
20493TIP3    H161356   6.411   7.240   6.542
20493TIP3    H261357   6.403   7.098   6.597
20494TIP3   OH261358   5.881   6.953   8.009
20494TIP3    H161359   5.916   6.943   8.100
20494TIP3    H261360   5.829   6.872   8.000
20495TIP3   OH261361   6.611   7.055   8.026
20495TIP3    H161362   6.553   7.002   7.970
20495TIP3    H261363   6.700   7.029   7.994
20496TIP3   OH261364   6.893   7.590   7.598
20496TIP3    H161365   6.803   7.553   7.591
20496TIP3    H261366   6.893   7.634   7.685
20497TIP3   OH261367   7.284   6.653   6.517
20497TIP3    H161368   7.222   6.608   6.454
20497TIP3    H261369   7.280   6.742   6.475
20498TIP3   OH261370   7.499   7.507   7.600
20498TIP3    H161371   7.401   7.502   7.587
20498TIP3    H261372   7.527   7.478   7.510
20499TIP3   OH261373   6.986   7.472   6.425
20499TIP3    H161374   6.955   7.403   6.485
20499TIP3    H261375   6.994   7.425   6.340
20500TIP3   OH261376   6.988   7.101   7.258
20500TIP3    H161377   6.894   7.084   7.281
20500TIP3    H261378   7.010   7.019   7.210
20501TIP3   OH261379   6.104   7.327   7.011
20501TIP3    H161380   6.106   7.410   6.960
20501TIP3    H261381   6.010   7.315   7.023
20502TIP3   OH261382   5.670   6.634   6.719
20502TIP3    H161383   5.715   6.718   6.738
20502TIP3    H261384   5.592   6.640   6.779
20503TIP3   OH261385   6.246   7.095   6.960
20503TIP3    H161386   6.211   7.185   6.976
20503TIP3    H261387   6.209   7.046   7.036
20504TIP3   OH261388   6.372   7.666   7.486
20504TIP3    H161389   6.425   7.735   7.442
20504TIP3    H261390   6.443   7.601   7.508
20505TIP3   OH261391   6.026   7.568   6.868
20505TIP3    H161392   5.940   7.577   6.913
20505TIP3    H261393   6.058   7.661   6.871
20506TIP3   OH261394   6.737   7.199   6.324
20506TIP3    H161395   6.788   7.174   6.405
20506TIP3    H261396   6.647   7.174   6.353
20507TIP3   OH261397   7.000   7.850   7.501
20507TIP3    H161398   6.935   7.777   7.495
20507TIP3    H261399   6.983   7.902   7.420
20508TIP3   OH261400   7.077   7.675   6.145
20508TIP3    H161401   7.112   7.746   6.090
20508TIP3    H261402   6.997   7.720   6.180
20509TIP3   OH261403   6.098   6.452   8.012
20509TIP3    H161404   6.001   6.457   8.025
20509TIP3    H261405   6.124   6.392   8.083
20510TIP3   OH261406   6.897   7.133   6.541
20510TIP3    H161407   6.887   7.068   6.613
20510TIP3    H261408   6.994   7.132   6.530
20511TIP3   OH261409   5.811   7.537   7.647
20511TIP3    H161410   5.872   7.465   7.671
20511TIP3    H261411   5.845   7.609   7.701
20512TIP3   OH261412   6.106   7.181   6.325
20512TIP3    H161413   6.117   7.089   6.295
20512TIP3    H261414   6.086   7.168   6.420
20513TIP3   OH261415   6.050   7.185   6.598
20513TIP3    H161416   6.120   7.160   6.660
20513TIP3    H261417   6.053   7.284   6.603
20514TIP3   OH261418   5.786   6.880   6.801
20514TIP3    H161419   5.719   6.925   6.858
20514TIP3    H261420   5.799   6.949   6.733
20515TIP3   OH261421   6.956   6.508   7.666
20515TIP3    H161422   7.008   6.556   7.731
20515TIP3    H261423   6.922   6.433   7.719
20516TIP3   OH261424   6.813   6.265   6.855
20516TIP3    H161425   6.793   6.283   6.761
20516TIP3    H261426   6.844   6.352   6.885
20517TIP3   OH261427   6.315   7.383   6.547
20517TIP3    H161428   6.228   7.410   6.582
20517TIP3    H261429   6.331   7.454   6.483
20518TIP3   OH261430   6.510   6.443   6.960
20518TIP3    H161431   6.570   6.518   6.942
20518TIP3    H261432   6.508   6.443   7.058
20519TIP3   OH261433   6.776   6.763   7.769
20519TIP3    H161434   6.786   6.828   7.842
20519TIP3    H261435   6.829   6.690   7.803
20520TIP3   OH261436   6.649   6.178   7.069
20520TIP3    H161437   6.628   6.261   7.117
20520TIP3    H261438   6.708   6.212   6.998
20521TIP3   OH261439   6.058   7.458   6.613
20521TIP3    H161440   6.028   7.527   6.550
20521TIP3    H261441   6.042   7.502   6.699
20522TIP3   OH261442   6.158   6.171   6.853
20522TIP3    H161443   6.155   6.262   6.887
20522TIP3    H261444   6.254   6.154   6.860
20523TIP3   OH261445   7.415   6.653   7.748
20523TIP3    H161446   7.318   6.664   7.757
20523TIP3    H261447   7.429   6.664   7.654
20524TIP3   OH261448   7.065   6.854   7.133
20524TIP3    H161449   6.986   6.802   7.155
20524TIP3    H261450   7.134   6.811   7.187
20525TIP3   OH261451   5.775   7.089   6.608
20525TIP3    H161452   5.838   7.163   6.615
20525TIP3    H261453   5.822   7.036   6.540
20526TIP3   OH261454   5.722   6.364   6.740
20526TIP3    H161455   5.719   6.462   6.735
20526TIP3    H261456   5.640   6.339   6.695
20527TIP3   OH261457   7.031   7.815   7.087
20527TIP3    H161458   6.989   7.861   7.011
20527TIP3    H261459   7.126   7.832   7.066
20528TIP3   OH261460   6.110   6.085   7.612
20528TIP3    H161461   6.077   6.051   7.527
20528TIP3    H261462   6.100   6.007   7.670
20529TIP3   OH261463   5.647   7.301   6.996
20529TIP3    H161464   5.573   7.335   7.047
20529TIP3    H261465   5.628   7.341   6.908
20530TIP3   OH261466   5.804   7.843   8.064
20530TIP3    H161467   5.890   7.842   8.111
20530TIP3    H261468   5.783   7.748   8.062
20531TIP3   OH261469   6.321   7.811   8.095
20531TIP3    H161470   6.364   7.728   8.122
20531TIP3    H261471   6.264   7.775   8.024
20532TIP3   OH261472   6.268   7.385   6.239
20532TIP3    H161473   6.211   7.314   6.276
20532TIP3    H261474   6.342   7.333   6.204
20533TIP3   OH261475   6.913   7.725   7.841
20533TIP3    H161476   6.892   7.658   7.911
20533TIP3    H261477   7.000   7.756   7.873
20534TIP3   OH261478   6.704   7.427   6.149
20534TIP3    H161479   6.749   7.362   6.206
20534TIP3    H261480   6.759   7.427   6.068
20535TIP3   OH261481   5.935   7.251   8.268
20535TIP3    H161482   5.954   7.156   8.275
20535TIP3    H261483   5.848   7.251   8.225
20536TIP3   OH261484   5.911   6.903   6.458
20536TIP3    H161485   5.966   6.869   6.530
20536TIP3    H261486   5.978   6.907   6.386
20537TIP3   OH261487   6.546   7.335   8.051
20537TIP3    H161488   6.501   7.359   7.967
20537TIP3    H261489   6.582   7.246   8.031
20538TIP3   OH261490   6.422   7.101   6.266
20538TIP3    H161491   6.422   7.113   6.363
20538TIP3    H261492   6.420   7.003   6.261
20539TIP3   OH261493   7.039   7.338   7.651
20539TIP3    H161494   7.104   7.393   7.605
20539TIP3    H261495   6.957   7.387   7.632
20540TIP3   OH261496   6.052   6.981   8.244
20540TIP3    H161497   6.129   6.927   8.225
20540TIP3    H261498   6.075   7.015   8.333
20541TIP3   OH261499   6.122   6.804   6.683
20541TIP3    H161500   6.092   6.762   6.765
20541TIP3    H261501   6.156   6.728   6.631
20542TIP3   OH261502   6.386   6.864   7.904
20542TIP3    H161503   6.313   6.928   7.912
20542TIP3    H261504   6.437   6.901   7.828
20543TIP3   OH261505   6.219   6.597   6.522
20543TIP3    H161506   6.192   6.600   6.428
20543TIP3    H261507   6.317   6.604   6.514
20544TIP3   OH261508   6.908   7.272   8.054
20544TIP3    H161509   6.982   7.245   7.998
20544TIP3    H261510   6.906   7.203   8.122
20545TIP3   OH261511   7.046   6.930   6.184
20545TIP3    H161512   7.022   6.883   6.101
20545TIP3    H261513   7.013   7.020   6.161
20546TIP3   OH261514   6.513   6.658   8.035
20546TIP3    H161515   6.511   6.578   7.980
20546TIP3    H261516   6.468   6.724   7.978
20547TIP3   OH261517   6.515   6.443   7.840
20547TIP3    H161518   6.540   6.485   7.755
20547TIP3    H261519   6.421   6.420   7.824
20548TIP3   OH261520   6.543   6.978   7.713
20548TIP3    H161521   6.625   6.995   7.665
20548TIP3    H261522   6.484   7.046   7.675
20549TIP3   OH261523   7.124   6.945   8.095
20549TIP3    H161524   7.175   6.867   8.123
20549TIP3    H261525   7.193   7.006   8.067
20550TIP3   OH261526   7.169   7.195   7.835
20550TIP3    H161527   7.107   7.249   7.780
20550TIP3    H261528   7.253   7.216   7.789
20551TIP3   OH261529   6.385   6.772   8.262
20551TIP3    H161530   6.319   6.701   8.278
20551TIP3    H261531   6.423   6.744   8.176
20552TIP3   OH261532   6.647   6.207   7.906
20552TIP3    H161533   6.597   6.290   7.886
20552TIP3    H261534   6.577   6.140   7.897
20553TIP3   OH261535   6.775   6.711   8.124
20553TIP3    H161536   6.765   6.703   8.220
20553TIP3    H261537   6.684   6.688   8.096
20554TIP3   OH261538   7.010   6.651   7.972
20554TIP3    H161539   6.936   6.663   8.036
20554TIP3    H261540   7.083   6.626   8.032
20555TIP3   OH261541   7.240   6.598   8.128
20555TIP3    H161542   7.251   6.503   8.152
20555TIP3    H261543   7.233   6.642   8.216
20556TIP3   OH261544   6.228   6.550   8.317
20556TIP3    H161545   6.235   6.458   8.284
20556TIP3    H261546   6.264   6.539   8.408
20557TIP3   OH261547   6.742   6.217   8.165
20557TIP3    H161548   6.809   6.146   8.159
20557TIP3    H261549   6.701   6.210   8.076
20558TIP3   OH261550   6.807   6.433   8.326
20558TIP3    H161551   6.784   6.362   8.261
20558TIP3    H261552   6.729   6.492   8.321
20559TIP3   OH261553   6.027   7.660   6.426
20559TIP3    H161554   6.122   7.658   6.406
20559TIP3    H261555   5.995   7.709   6.348
20560TIP3   OH261556   5.507   7.041   6.645
20560TIP3    H161557   5.602   7.064   6.629
20560TIP3    H261558   5.501   6.953   6.602
20561TIP3   OH261559   5.422   7.655   7.055
20561TIP3    H161560   5.354   7.593   7.019
20561TIP3    H261561   5.465   7.597   7.121
20562TIP3   OH261562   5.558   7.508   7.242
20562TIP3    H161563   5.549   7.434   7.305
20562TIP3    H261564   5.610   7.570   7.297
20563TIP3   OH261565   7.284   7.903   7.040
20563TIP3    H161566   7.310   7.934   7.129
20563TIP3    H261567   7.343   7.955   6.983
20564TIP3   OH261568   7.319   7.923   7.316
20564TIP3    H161569   7.274   7.836   7.319
20564TIP3    H261570   7.381   7.912   7.390
20565TIP3   OH261571   7.361   7.604   7.885
20565TIP3    H161572   7.270   7.613   7.917
20565TIP3    H261573   7.371   7.694   7.849
20566TIP3   OH261574   7.177   7.116   6.517
20566TIP3    H161575   7.244   7.182   6.489
20566TIP3    H261576   7.221   7.078   6.596
20567TIP3   OH261577   7.307   6.983   6.719
20567TIP3    H161578   7.239   6.943   6.778
20567TIP3    H261579   7.368   7.025   6.783
20568TIP3   OH261580   7.363   7.378   7.158
20568TIP3    H161581   7.409   7.315   7.099
20568TIP3    H261582   7.348   7.454   7.098
20569TIP3   OH261583   7.188   7.677   7.351
20569TIP3    H161584   7.117   7.716   7.405
20569TIP3    H261585   7.137   7.630   7.281
20570TIP3   OH261586   7.243   6.891   6.369
20570TIP3    H161587   7.172   6.893   6.300
20570TIP3    H261588   7.215   6.968   6.423
20571TIP3   OH261589   7.116   6.565   6.324
20571TIP3    H161590   7.073   6.607   6.249
20571TIP3    H261591   7.088   6.471   6.312
20572TIP3   OH261592   7.120   6.842   6.865
20572TIP3    H161593   7.126   6.746   6.859
20572TIP3    H261594   7.105   6.856   6.962
20573TIP3   OH261595   5.746   6.912   7.628
20573TIP3    H161596   5.735   6.893   7.533
20573TIP3    H261597   5.844   6.912   7.636
20574TIP3   OH261598   7.405   7.259   7.712
20574TIP3    H161599   7.485   7.204   7.705
20574TIP3    H261600   7.426   7.335   7.654
20575TIP3   OH261601   7.613   7.081   7.738
20575TIP3    H161602   7.532   7.038   7.775
20575TIP3    H261603   7.677   7.009   7.757
20576TIP3   OH261604   7.056   6.300   6.312
20576TIP3    H161605   7.128   6.264   6.367
20576TIP3    H261606   6.981   6.241   6.331
20577TIP3   OH261607   7.120   6.560   6.761
20577TIP3    H161608   7.158   6.470   6.774
20577TIP3    H261609   7.178   6.594   6.690
20578TIP3   OH261610   7.275   6.730   7.266
20578TIP3    H161611   7.359   6.754   7.221
20578TIP3    H261612   7.288   6.777   7.350
20579TIP3   OH261613   7.344   6.877   7.493
20579TIP3    H161614   7.265   6.910   7.541
20579TIP3    H261615   7.374   6.958   7.447
20580TIP3   OH261616   5.962   6.604   8.291
20580TIP3    H161617   6.060   6.597   8.292
20580TIP3    H261618   5.938   6.518   8.331
20581TIP3   OH261619   7.794   6.455   8.040
20581TIP3    H161620   7.855   6.392   7.998
20581TIP3    H261621   7.771   6.515   7.966
20582TIP3   OH261622   7.219   6.306   6.808
20582TIP3    H161623   7.275   6.278   6.882
20582TIP3    H261624   7.159   6.229   6.799
20583TIP3   OH261625   5.924   6.293   7.620
20583TIP3    H161626   5.986   6.217   7.630
20583TIP3    H261627   5.987   6.367   7.614
20584TIP3   OH261628   5.729   6.568   7.693
20584TIP3    H161629   5.774   6.555   7.607
20584TIP3    H261630   5.765   6.652   7.720
20585TIP3   OH261631   7.671   6.607   7.851
20585TIP3    H161632   7.587   6.645   7.883
20585TIP3    H261633   7.637   6.538   7.792
20586TIP3   OH261634   7.309   6.239   6.437
20586TIP3    H161635   7.343   6.169   6.378
20586TIP3    H261636   7.371   6.313   6.421
20587TIP3   OH261637   5.711   6.076   7.199
20587TIP3    H161638   5.617   6.067   7.222
20587TIP3    H261639   5.707   6.131   7.117
20588TIP3   OH261640   6.870   7.772   6.700
20588TIP3    H161641   6.921   7.759   6.617
20588TIP3    H261642   6.921   7.841   6.745
20589TIP3   OH261643   5.930   6.150   8.009
20589TIP3    H161644   5.879   6.143   8.091
20589TIP3    H261645   5.863   6.188   7.949
20590TIP3   OH261646   5.970   7.577   8.089
20590TIP3    H161647   5.879   7.550   8.070
20590TIP3    H261648   5.979   7.554   8.182
20591TIP3   OH261649   6.147   7.610   7.638
20591TIP3    H161650   6.103   7.686   7.594
20591TIP3    H261651   6.235   7.620   7.595
20592TIP3   OH261652   6.618   7.869   7.822
20592TIP3    H161653   6.660   7.782   7.814
20592TIP3    H261654   6.662   7.915   7.748
20593TIP3   OH261655   6.766   7.998   7.622
20593TIP3    H161656   6.830   7.943   7.574
20593TIP3    H261657   6.825   8.048   7.681
20594TIP3   OH261658   7.570   6.363   7.728
20594TIP3    H161659   7.475   6.343   7.715
20594TIP3    H261660   7.608   6.273   7.718
20595TIP3   OH261661   5.823   7.863   7.658
20595TIP3    H161662   5.735   7.899   7.632
20595TIP3    H261663   5.833   7.904   7.745
20596TIP3   OH261664   6.061   7.845   7.515
20596TIP3    H161665   5.974   7.858   7.558
20596TIP3    H261666   6.042   7.878   7.425
20597TIP3   OH261667   6.489   7.878   7.308
20597TIP3    H161668   6.416   7.895   7.246
20597TIP3    H261669   6.499   7.965   7.351
20598TIP3   OH261670   6.755   7.812   7.351
20598TIP3    H161671   6.659   7.828   7.339
20598TIP3    H261672   6.793   7.894   7.314
20599TIP3   OH261673   6.964   8.008   7.276
20599TIP3    H161674   6.947   8.091   7.227
20599TIP3    H261675   6.987   7.946   7.204
20600TIP3   OH261676   5.736   7.661   7.400
20600TIP3    H161677   5.762   7.636   7.491
20600TIP3    H261678   5.809   7.617   7.350
20601TIP3   OH261679   5.930   7.531   7.258
20601TIP3    H161680   5.947   7.447   7.306
20601TIP3    H261681   6.021   7.569   7.253
20602TIP3   OH261682   6.196   7.627   7.262
20602TIP3    H161683   6.227   7.535   7.252
20602TIP3    H261684   6.240   7.650   7.346
20603TIP3   OH261685   6.782   6.269   7.343
20603TIP3    H161686   6.734   6.221   7.412
20603TIP3    H261687   6.804   6.197   7.282
20604TIP3   OH261688   7.231   6.218   7.233
20604TIP3    H161689   7.298   6.232   7.162
20604TIP3    H261690   7.196   6.131   7.204
20605TIP3   OH261691   7.393   6.260   7.025
20605TIP3    H161692   7.465   6.208   6.982
20605TIP3    H261693   7.427   6.350   7.006
20606TIP3   OH261694   6.020   5.993   7.365
20606TIP3    H161695   5.928   5.960   7.367
20606TIP3    H261696   6.069   5.907   7.361
20607TIP3   OH261697   5.808   5.861   7.012
20607TIP3    H161698   5.836   5.920   6.939
20607TIP3    H261699   5.778   5.925   7.079
20608TIP3   OH261700   6.466   6.022   7.244
20608TIP3    H161701   6.526   6.076   7.190
20608TIP3    H261702   6.476   6.063   7.331
20609TIP3   OH261703   7.040   6.093   6.793
20609TIP3    H161704   6.953   6.135   6.800
20609TIP3    H261705   7.023   6.008   6.839
20610TIP3   OH261706   5.523   7.432   6.795
20610TIP3    H161707   5.439   7.400   6.759
20610TIP3    H261708   5.514   7.527   6.774
20611TIP3   OH261709   5.922   6.022   6.776
20611TIP3    H161710   5.970   5.958   6.720
20611TIP3    H261711   5.996   6.074   6.813
20612TIP3   OH261712   6.436   6.195   6.874
20612TIP3    H161713   6.490   6.144   6.935
20612TIP3    H261714   6.460   6.287   6.900
20613TIP3   OH261715   6.296   7.622   6.375
20613TIP3    H161716   6.384   7.645   6.338
20613TIP3    H261717   6.274   7.547   6.315
20614TIP3   OH261718   7.016   7.740   6.467
20614TIP3    H161719   7.008   7.642   6.455
20614TIP3    H261720   6.969   7.772   6.388
20615TIP3   OH261721   6.228   6.274   8.256
20615TIP3    H161722   6.193   6.203   8.313
20615TIP3    H261723   6.322   6.274   8.283
20616TIP3   OH261724   6.476   6.269   8.375
20616TIP3    H161725   6.562   6.244   8.337
20616TIP3    H261726   6.464   6.199   8.442
20617TIP3   OH261727   5.599   7.457   6.431
20617TIP3    H161728   5.600   7.488   6.523
20617TIP3    H261729   5.689   7.417   6.422
20618TIP3   OH261730   7.301   6.327   8.163
20618TIP3    H161731   7.319   6.298   8.255
20618TIP3    H261732   7.390   6.325   8.123
20619TIP3   OH261733   7.254   7.890   7.616
20619TIP3    H161734   7.163   7.858   7.599
20619TIP3    H261735   7.237   7.962   7.679
20620TIP3   OH261736   8.505   7.250   6.425
20620TIP3    H161737   8.480   7.343   6.406
20620TIP3    H261738   8.431   7.204   6.382
20621TIP3   OH261739   8.501   7.255   6.798
20621TIP3    H161740   8.529   7.230   6.888
20621TIP3    H261741   8.458   7.174   6.767
20622TIP3   OH261742   7.808   7.157   7.171
20622TIP3    H161743   7.842   7.085   7.228
20622TIP3    H261744   7.890   7.202   7.146
20623TIP3   OH261745   8.743   7.552   6.483
20623TIP3    H161746   8.745   7.486   6.554
20623TIP3    H261747   8.770   7.633   6.529
20624TIP3   OH261748   7.776   7.561   6.894
20624TIP3    H161749   7.768   7.463   6.897
20624TIP3    H261750   7.873   7.569   6.886
20625TIP3   OH261751   7.483   6.762   6.681
20625TIP3    H161752   7.435   6.846   6.695
20625TIP3    H261753   7.412   6.711   6.636
20626TIP3   OH261754   7.544   7.053   6.848
20626TIP3    H161755   7.594   6.976   6.884
20626TIP3    H261756   7.602   7.082   6.776
20627TIP3   OH261757   8.403   8.007   6.509
20627TIP3    H161758   8.448   7.946   6.447
20627TIP3    H261759   8.407   7.957   6.591
20628TIP3   OH261760   8.294   7.474   6.848
20628TIP3    H161761   8.333   7.400   6.799
20628TIP3    H261762   8.376   7.524   6.866
20629TIP3   OH261763   9.311   6.807   6.853
20629TIP3    H161764   9.332   6.901   6.862
20629TIP3    H261765   9.333   6.794   6.759
20630TIP3   OH261766   8.722   6.984   6.885
20630TIP3    H161767   8.767   6.900   6.904
20630TIP3    H261768   8.691   6.970   6.794
20631TIP3   OH261769   8.038   6.639   6.858
20631TIP3    H161770   8.041   6.709   6.791
20631TIP3    H261771   8.001   6.566   6.804
20632TIP3   OH261772   8.736   6.729   6.489
20632TIP3    H161773   8.818   6.716   6.543
20632TIP3    H261774   8.778   6.767   6.409
20633TIP3   OH261775   7.688   6.844   6.955
20633TIP3    H161776   7.770   6.824   7.004
20633TIP3    H261777   7.702   6.790   6.875
20634TIP3   OH261778   8.128   7.041   6.751
20634TIP3    H161779   8.222   7.016   6.762
20634TIP3    H261780   8.090   6.957   6.717
20635TIP3   OH261781   8.052   6.626   7.283
20635TIP3    H161782   7.992   6.663   7.216
20635TIP3    H261783   8.000   6.643   7.364
20636TIP3   OH261784   8.397   7.473   6.294
20636TIP3    H161785   8.360   7.457   6.207
20636TIP3    H261786   8.356   7.559   6.317
20637TIP3   OH261787   8.160   7.398   7.081
20637TIP3    H161788   8.095   7.465   7.114
20637TIP3    H261789   8.198   7.445   7.004
20638TIP3   OH261790   8.953   6.730   6.644
20638TIP3    H161791   8.965   6.678   6.724
20638TIP3    H261792   9.001   6.812   6.667
20639TIP3   OH261793   7.918   6.743   7.074
20639TIP3    H161794   7.983   6.814   7.093
20639TIP3    H261795   7.963   6.700   6.997
20640TIP3   OH261796   7.975   7.586   7.161
20640TIP3    H161797   7.951   7.672   7.122
20640TIP3    H261798   7.897   7.573   7.219
20641TIP3   OH261799   7.383   7.284   6.412
20641TIP3    H161800   7.339   7.310   6.328
20641TIP3    H261801   7.411   7.371   6.448
20642TIP3   OH261802   9.102   6.698   7.012
20642TIP3    H161803   9.016   6.732   6.980
20642TIP3    H261804   9.166   6.740   6.951
20643TIP3   OH261805   8.410   6.345   6.996
20643TIP3    H161806   8.397   6.251   7.017
20643TIP3    H261807   8.332   6.384   7.042
20644TIP3   OH261808   8.521   7.848   6.321
20644TIP3    H161809   8.575   7.769   6.297
20644TIP3    H261810   8.577   7.919   6.282
20645TIP3   OH261811   8.664   7.631   6.231
20645TIP3    H161812   8.632   7.552   6.185
20645TIP3    H261813   8.695   7.592   6.316
20646TIP3   OH261814   8.339   7.104   6.256
20646TIP3    H161815   8.261   7.157   6.230
20646TIP3    H261816   8.384   7.092   6.171
20647TIP3   OH261817   8.296   6.882   6.000
20647TIP3    H161818   8.378   6.933   6.016
20647TIP3    H261819   8.326   6.825   5.927
20648TIP3   OH261820   8.685   7.192   6.224
20648TIP3    H161821   8.631   7.216   6.303
20648TIP3    H261822   8.769   7.166   6.267
20649TIP3   OH261823   7.915   7.187   6.642
20649TIP3    H161824   7.875   7.130   6.573
20649TIP3    H261825   7.994   7.135   6.669
20650TIP3   OH261826   8.043   7.596   6.790
20650TIP3    H161827   8.023   7.560   6.703
20650TIP3    H261828   8.133   7.560   6.807
20651TIP3   OH261829   8.051   7.159   6.998
20651TIP3    H161830   8.083   7.138   6.907
20651TIP3    H261831   8.095   7.245   7.017
20652TIP3   OH261832   8.528   7.825   6.776
20652TIP3    H161833   8.618   7.859   6.783
20652TIP3    H261834   8.540   7.729   6.786
20653TIP3   OH261835   8.109   7.752   7.342
20653TIP3    H161836   8.074   7.833   7.301
20653TIP3    H261837   8.076   7.685   7.279
20654TIP3   OH261838   8.526   7.046   6.052
20654TIP3    H161839   8.585   7.106   6.102
20654TIP3    H261840   8.552   7.068   5.959
20655TIP3   OH261841   7.943   7.249   7.431
20655TIP3    H161842   7.943   7.342   7.463
20655TIP3    H261843   7.846   7.235   7.423
20656TIP3   OH261844   8.267   7.730   6.329
20656TIP3    H161845   8.349   7.782   6.341
20656TIP3    H261846   8.208   7.794   6.287
20657TIP3   OH261847   9.043   6.290   6.098
20657TIP3    H161848   8.963   6.313   6.148
20657TIP3    H261849   9.059   6.371   6.045
20658TIP3   OH261850   7.784   7.026   6.445
20658TIP3    H161851   7.724   7.078   6.388
20658TIP3    H261852   7.731   6.946   6.458
20659TIP3   OH261853   8.843   7.663   5.644
20659TIP3    H161854   8.828   7.761   5.644
20659TIP3    H261855   8.926   7.662   5.597
20660TIP3   OH261856   7.563   7.413   7.353
20660TIP3    H161857   7.494   7.398   7.285
20660TIP3    H261858   7.596   7.323   7.371
20661TIP3   OH261859   7.419   7.606   6.989
20661TIP3    H161860   7.515   7.608   6.976
20661TIP3    H261861   7.404   7.688   7.038
20662TIP3   OH261862   8.145   7.970   6.129
20662TIP3    H161863   8.106   7.956   6.041
20662TIP3    H261864   8.121   8.062   6.150
20663TIP3   OH261865   7.587   7.826   6.510
20663TIP3    H161866   7.635   7.816   6.595
20663TIP3    H261867   7.526   7.750   6.516
20664TIP3   OH261868   8.349   7.873   5.769
20664TIP3    H161869   8.410   7.805   5.732
20664TIP3    H261870   8.385   7.884   5.860
20665TIP3   OH261871   8.399   7.921   6.038
20665TIP3    H161872   8.312   7.932   6.084
20665TIP3    H261873   8.456   7.893   6.111
20666TIP3   OH261874   7.766   7.593   7.335
20666TIP3    H161875   7.802   7.587   7.425
20666TIP3    H261876   7.690   7.531   7.341
20667TIP3   OH261877   8.169   6.420   7.122
20667TIP3    H161878   8.079   6.390   7.099
20667TIP3    H261879   8.147   6.504   7.166
20668TIP3   OH261880   8.698   6.533   7.319
20668TIP3    H161881   8.766   6.508   7.385
20668TIP3    H261882   8.614   6.514   7.365
20669TIP3   OH261883   8.613   7.106   5.804
20669TIP3    H161884   8.572   7.078   5.719
20669TIP3    H261885   8.694   7.150   5.772
20670TIP3   OH261886   8.315   6.465   6.092
20670TIP3    H161887   8.293   6.465   6.186
20670TIP3    H261888   8.270   6.384   6.061
20671TIP3   OH261889   8.105   6.935   7.141
20671TIP3    H161890   8.055   6.955   7.223
20671TIP3    H261891   8.088   7.016   7.088
20672TIP3   OH261892   7.991   6.817   6.653
20672TIP3    H161893   7.898   6.795   6.675
20672TIP3    H261894   7.999   6.778   6.564
20673TIP3   OH261895   8.477   6.895   6.391
20673TIP3    H161896   8.420   6.966   6.354
20673TIP3    H261897   8.527   6.871   6.310
20674TIP3   OH261898   8.627   6.939   6.629
20674TIP3    H161899   8.570   6.976   6.559
20674TIP3    H261900   8.673   6.871   6.578
20675TIP3   OH261901   7.918   6.960   7.346
20675TIP3    H161902   7.946   7.026   7.411
20675TIP3    H261903   7.907   6.880   7.400
20676TIP3   OH261904   7.968   6.444   6.064
20676TIP3    H161905   7.943   6.439   6.158
20676TIP3    H261906   7.894   6.497   6.028
20677TIP3   OH261907   7.510   6.484   6.940
20677TIP3    H161908   7.588   6.519   6.987
20677TIP3    H261909   7.545   6.460   6.852
20678TIP3   OH261910   7.491   6.472   6.455
20678TIP3    H161911   7.532   6.510   6.374
20678TIP3    H261912   7.427   6.543   6.475
20679TIP3   OH261913   8.606   7.172   7.043
20679TIP3    H161914   8.660   7.111   6.987
20679TIP3    H261915   8.594   7.116   7.123
20680TIP3   OH261916   7.746   6.703   6.725
20680TIP3    H161917   7.651   6.711   6.700
20680TIP3    H261918   7.766   6.610   6.704
20681TIP3   OH261919   8.049   6.691   6.393
20681TIP3    H161920   8.112   6.756   6.359
20681TIP3    H261921   7.974   6.706   6.329
20682TIP3   OH261922   8.814   6.726   6.925
20682TIP3    H161923   8.783   6.735   7.018
20682TIP3    H261924   8.755   6.658   6.890
20683TIP3   OH261925   7.862   6.722   6.202
20683TIP3    H161926   7.788   6.683   6.153
20683TIP3    H261927   7.912   6.762   6.127
20684TIP3   OH261928   7.931   7.491   7.550
20684TIP3    H161929   7.963   7.583   7.563
20684TIP3    H261930   7.862   7.484   7.620
20685TIP3   OH261931   8.394   6.967   6.813
20685TIP3    H161932   8.476   6.943   6.768
20685TIP3    H261933   8.405   6.928   6.901
20686TIP3   OH261934   7.919   6.457   6.690
20686TIP3    H161935   7.883   6.382   6.742
20686TIP3    H261936   7.954   6.412   6.612
20687TIP3   OH261937   8.375   6.867   7.109
20687TIP3    H161938   8.285   6.902   7.119
20687TIP3    H261939   8.430   6.930   7.159
20688TIP3   OH261940   8.110   7.261   6.201
20688TIP3    H161941   8.037   7.197   6.190
20688TIP3    H261942   8.092   7.295   6.293
20689TIP3   OH261943   8.568   6.561   6.087
20689TIP3    H161944   8.473   6.550   6.067
20689TIP3    H261945   8.582   6.655   6.064
20690TIP3   OH261946   8.640   6.826   6.181
20690TIP3    H161947   8.737   6.833   6.177
20690TIP3    H261948   8.612   6.891   6.113
20691TIP3   OH261949   7.800   7.280   6.878
20691TIP3    H161950   7.835   7.256   6.790
20691TIP3    H261951   7.843   7.216   6.935
20692TIP3   OH261952   8.255   7.410   6.020
20692TIP3    H161953   8.207   7.496   6.027
20692TIP3    H261954   8.202   7.355   6.081
20693TIP3   OH261955   7.670   7.186   7.492
20693TIP3    H161956   7.659   7.155   7.584
20693TIP3    H261957   7.597   7.138   7.447
20694TIP3   OH261958   8.421   7.263   7.494
20694TIP3    H161959   8.372   7.253   7.410
20694TIP3    H261960   8.459   7.352   7.481
20695TIP3   OH261961   9.070   6.896   6.015
20695TIP3    H161962   9.014   6.853   5.946
20695TIP3    H261963   9.078   6.982   5.973
20696TIP3   OH261964   8.772   7.723   5.910
20696TIP3    H161965   8.747   7.652   5.971
20696TIP3    H261966   8.792   7.677   5.827
20697TIP3   OH261967   8.760   7.355   6.750
20697TIP3    H161968   8.669   7.322   6.759
20697TIP3    H261969   8.804   7.283   6.703
20698TIP3   OH261970   7.902   7.585   6.503
20698TIP3    H161971   7.906   7.667   6.450
20698TIP3    H261972   7.807   7.572   6.511
20699TIP3   OH261973   7.467   6.890   6.207
20699TIP3    H161974   7.510   6.976   6.225
20699TIP3    H261975   7.388   6.896   6.265
20700TIP3   OH261976   8.041   7.351   6.449
20700TIP3    H161977   8.008   7.441   6.463
20700TIP3    H261978   8.001   7.304   6.524
20701TIP3   OH261979   8.166   7.930   6.977
20701TIP3    H161980   8.187   8.007   6.923
20701TIP3    H261981   8.239   7.924   7.038
20702TIP3   OH261982   7.822   7.825   6.355
20702TIP3    H161983   7.736   7.833   6.401
20702TIP3    H261984   7.854   7.917   6.358
20703TIP3   OH261985   8.543   7.577   6.905
20703TIP3    H161986   8.556   7.586   7.001
20703TIP3    H261987   8.620   7.522   6.885
20704TIP3   OH261988   8.531   7.455   5.814
20704TIP3    H161989   8.585   7.430   5.892
20704TIP3    H261990   8.443   7.428   5.846
20705TIP3   OH261991   8.867   7.933   5.634
20705TIP3    H161992   8.910   7.998   5.575
20705TIP3    H261993   8.790   7.987   5.663
20706TIP3   OH261994   7.894   6.709   7.503
20706TIP3    H161995   7.798   6.711   7.515
20706TIP3    H261996   7.922   6.645   7.570
20707TIP3   OH261997   8.695   7.396   6.032
20707TIP3    H161998   8.683   7.325   6.100
20707TIP3    H261999   8.789   7.385   6.010
20708TIP3   OH262000   7.613   7.796   7.130
20708TIP3    H162001   7.663   7.717   7.155
20708TIP3    H262002   7.639   7.857   7.199
20709TIP3   OH262003   7.898   7.434   5.810
20709TIP3    H162004   7.919   7.342   5.787
20709TIP3    H262005   7.879   7.426   5.905
20710TIP3   OH262006   7.847   7.443   6.083
20710TIP3    H162007   7.920   7.417   6.142
20710TIP3    H262008   7.850   7.541   6.090
20711TIP3   OH262009   7.584   7.138   6.289
20711TIP3    H162010   7.516   7.182   6.344
20711TIP3    H262011   7.597   7.206   6.220
20712TIP3   OH262012   8.744   6.770   7.188
20712TIP3    H162013   8.793   6.812   7.261
20712TIP3    H262014   8.716   6.686   7.232
20713TIP3   OH262015   8.576   6.555   6.361
20713TIP3    H162016   8.547   6.541   6.267
20713TIP3    H262017   8.657   6.604   6.341
20714TIP3   OH262018   8.109   7.638   6.032
20714TIP3    H162019   8.024   7.669   6.068
20714TIP3    H262020   8.132   7.712   5.974
20715TIP3   OH262021   8.570   7.017   7.263
20715TIP3    H162022   8.559   7.053   7.353
20715TIP3    H262023   8.626   6.940   7.282
20716TIP3   OH262024   7.852   7.716   6.100
20716TIP3    H162025   7.823   7.787   6.038
20716TIP3    H262026   7.838   7.759   6.187
20717TIP3   OH262027   7.949   6.422   6.345
20717TIP3    H162028   7.959   6.516   6.367
20717TIP3    H262029   8.040   6.394   6.327
20718TIP3   OH262030   8.855   7.115   6.619
20718TIP3    H162031   8.774   7.063   6.634
20718TIP3    H262032   8.922   7.066   6.672
20719TIP3   OH262033   7.572   7.346   6.094
20719TIP3    H162034   7.635   7.419   6.103
20719TIP3    H262035   7.619   7.292   6.026
20720TIP3   OH262036   7.517   6.621   6.229
20720TIP3    H162037   7.514   6.718   6.224
20720TIP3    H262038   7.439   6.596   6.178
20721TIP3   OH262039   7.904   6.340   7.101
20721TIP3    H162040   7.873   6.307   7.014
20721TIP3    H262041   7.893   6.262   7.159
20722TIP3   OH262042   7.444   7.557   6.482
20722TIP3    H162043   7.372   7.590   6.537
20722TIP3    H262044   7.420   7.598   6.395
20723TIP3   OH262045   8.058   7.642   5.722
20723TIP3    H162046   8.008   7.568   5.762
20723TIP3    H262047   8.138   7.596   5.690
20724TIP3   OH262048   8.497   7.683   5.636
20724TIP3    H162049   8.547   7.622   5.691
20724TIP3    H262050   8.548   7.686   5.552
20725TIP3   OH262051   7.744   7.481   7.745
20725TIP3    H162052   7.708   7.411   7.802
20725TIP3    H262053   7.661   7.525   7.718
20726TIP3   OH262054   7.707   7.159   5.946
20726TIP3    H162055   7.764   7.126   6.017
20726TIP3    H262056   7.772   7.163   5.872
20727TIP3   OH262057   8.208   7.353   5.752
20727TIP3    H162058   8.216   7.369   5.848
20727TIP3    H262059   8.220   7.255   5.750
20728TIP3   OH262060   7.917   7.062   6.167
20728TIP3    H162061   7.887   7.017   6.248
20728TIP3    H262062   7.954   6.988   6.115
20729TIP3   OH262063   8.174   7.111   7.385
20729TIP3    H162064   8.099   7.175   7.388
20729TIP3    H262065   8.231   7.150   7.315
20730TIP3   OH262066   8.016   6.852   6.014
20730TIP3    H162067   7.991   6.853   5.919
20730TIP3    H262068   8.114   6.857   6.007
20731TIP3   OH262069   8.862   7.202   5.665
20731TIP3    H162070   8.840   7.141   5.592
20731TIP3    H262071   8.805   7.278   5.640
20732TIP3   OH262072   8.274   6.905   7.535
20732TIP3    H162073   8.280   6.830   7.472
20732TIP3    H262074   8.240   6.976   7.476
20733TIP3   OH262075   8.308   6.702   7.332
20733TIP3    H162076   8.337   6.743   7.248
20733TIP3    H262077   8.216   6.677   7.311
20734TIP3   OH262078   8.340   7.236   7.210
20734TIP3    H162079   8.421   7.239   7.155
20734TIP3    H262080   8.284   7.303   7.165
20735TIP3   OH262081   8.441   6.465   7.395
20735TIP3    H162082   8.391   6.547   7.374
20735TIP3    H262083   8.372   6.397   7.384
20736TIP3   OH262084   8.547   6.935   7.559
20736TIP3    H162085   8.575   6.889   7.639
20736TIP3    H262086   8.452   6.912   7.554
20737TIP3   OH262087   8.035   6.824   7.808
20737TIP3    H162088   8.042   6.744   7.752
20737TIP3    H262089   8.052   6.782   7.895
20738TIP3   OH262090   8.532   6.466   7.654
20738TIP3    H162091   8.601   6.396   7.645
20738TIP3    H262092   8.493   6.464   7.564
20739TIP3   OH262093   8.606   6.693   7.783
20739TIP3    H162094   8.590   6.606   7.740
20739TIP3    H262095   8.514   6.725   7.794
20740TIP3   OH262096   7.825   7.924   5.917
20740TIP3    H162097   7.920   7.913   5.895
20740TIP3    H262098   7.794   7.966   5.834
20741TIP3   OH262099   7.304   7.298   6.131
20741TIP3    H162100   7.398   7.320   6.116
20741TIP3    H262101   7.298   7.210   6.088
20742TIP3   OH262102   7.219   7.913   6.541
20742TIP3    H162103   7.151   7.852   6.506
20742TIP3    H262104   7.263   7.856   6.608
20743TIP3   OH262105   7.355   7.765   6.728
20743TIP3    H162106   7.339   7.692   6.790
20743TIP3    H262107   7.405   7.826   6.785
20744TIP3   OH262108   8.987   7.385   5.987
20744TIP3    H162109   9.029   7.466   6.017
20744TIP3    H262110   9.018   7.321   6.055
20745TIP3   OH262111   9.093   7.241   6.197
20745TIP3    H162112   9.032   7.202   6.263
20745TIP3    H262113   9.166   7.277   6.253
20746TIP3   OH262114   8.914   6.825   5.808
20746TIP3    H162115   8.872   6.865   5.731
20746TIP3    H262116   8.884   6.732   5.800
20747TIP3   OH262117   8.914   7.097   6.352
20747TIP3    H162118   8.925   7.000   6.346
20747TIP3    H262119   8.902   7.112   6.449
20748TIP3   OH262120   7.543   7.162   7.104
20748TIP3    H162121   7.540   7.138   7.009
20748TIP3    H262122   7.640   7.172   7.118
20749TIP3   OH262123   8.853   6.561   5.804
20749TIP3    H162124   8.927   6.521   5.853
20749TIP3    H262125   8.778   6.500   5.818
20750TIP3   OH262126   8.914   6.814   6.258
20750TIP3    H162127   8.955   6.725   6.270
20750TIP3    H262128   8.967   6.845   6.182
20751TIP3   OH262129   9.043   6.972   6.757
20751TIP3    H162130   9.130   6.991   6.712
20751TIP3    H262131   9.057   7.016   6.841
20752TIP3   OH262132   7.763   6.856   7.773
20752TIP3    H162133   7.859   6.847   7.783
20752TIP3    H262134   7.733   6.775   7.819
20753TIP3   OH262135   9.017   6.563   6.292
20753TIP3    H162136   9.071   6.545   6.372
20753TIP3    H262137   8.961   6.482   6.289
20754TIP3   OH262138   7.720   6.549   7.110
20754TIP3    H162139   7.784   6.475   7.118
20754TIP3    H262140   7.780   6.625   7.104
20755TIP3   OH262141   7.522   6.822   7.182
20755TIP3    H162142   7.570   6.816   7.097
20755TIP3    H262143   7.543   6.913   7.208
20756TIP3   OH262144   9.104   6.495   5.924
20756TIP3    H162145   9.142   6.425   5.866
20756TIP3    H262146   9.168   6.567   5.914
20757TIP3   OH262147   7.505   6.335   6.686
20757TIP3    H162148   7.409   6.327   6.700
20757TIP3    H262149   7.508   6.389   6.604
20758TIP3   OH262150   8.647   8.045   6.183
20758TIP3    H162151   8.689   8.022   6.098
20758TIP3    H262152   8.728   8.053   6.238
20759TIP3   OH262153   7.729   6.411   7.497
20759TIP3    H162154   7.678   6.402   7.579
20759TIP3    H262155   7.661   6.447   7.436
20760TIP3   OH262156   7.753   7.825   7.599
20760TIP3    H162157   7.662   7.812   7.566
20760TIP3    H262158   7.742   7.807   7.694
20761TIP3   OH262159   7.948   7.854   7.117
20761TIP3    H162160   7.891   7.926   7.079
20761TIP3    H262161   8.029   7.873   7.065
20762TIP3   OH262162   9.336   6.628   7.221
20762TIP3    H162163   9.256   6.591   7.178
20762TIP3    H262164   9.389   6.545   7.222
20763TIP3   OH262165   7.621   8.139   7.137
20763TIP3    H162166   7.527   8.160   7.117
20763TIP3    H262167   7.617   8.133   7.233
20764TIP3   OH262168   7.841   8.063   6.983
20764TIP3    H162169   7.768   8.101   7.037
20764TIP3    H262170   7.841   8.123   6.907
20765TIP3   OH262171   7.532   7.917   6.888
20765TIP3    H162172   7.560   7.893   6.979
20765TIP3    H262173   7.606   7.876   6.837
20766TIP3   OH262174   7.725   7.788   6.743
20766TIP3    H162175   7.742   7.705   6.793
20766TIP3    H262176   7.814   7.827   6.738
20767TIP3   OH262177   7.990   7.882   6.742
20767TIP3    H162178   8.025   7.792   6.731
20767TIP3    H262179   8.018   7.901   6.833
20768TIP3   OH262180   8.550   6.524   6.755
20768TIP3    H162181   8.508   6.489   6.837
20768TIP3    H262182   8.638   6.481   6.761
20769TIP3   OH262183   9.091   6.430   6.749
20769TIP3    H162184   9.131   6.473   6.670
20769TIP3    H262185   8.996   6.443   6.733
20770TIP3   OH262186   9.185   6.519   6.509
20770TIP3    H162187   9.257   6.467   6.466
20770TIP3    H262188   9.217   6.610   6.488
20771TIP3   OH262189   7.817   6.249   6.852
20771TIP3    H162190   7.724   6.218   6.850
20771TIP3    H262191   7.864   6.163   6.849
20772TIP3   OH262192   7.611   6.117   6.502
20772TIP3    H162193   7.635   6.171   6.425
20772TIP3    H262194   7.573   6.183   6.563
20773TIP3   OH262195   8.257   6.290   6.729
20773TIP3    H162196   8.351   6.308   6.714
20773TIP3    H262197   8.245   6.324   6.818
20774TIP3   OH262198   8.805   6.424   6.711
20774TIP3    H162199   8.828   6.380   6.628
20774TIP3    H262200   8.793   6.346   6.771
20775TIP3   OH262201   8.838   6.349   6.282
20775TIP3    H162202   8.747   6.368   6.254
20775TIP3    H262203   8.825   6.264   6.330
20776TIP3   OH262204   7.321   7.688   6.280
20776TIP3    H162205   7.235   7.655   6.246
20776TIP3    H262206   7.310   7.783   6.262
20777TIP3   OH262207   7.716   6.273   6.266
20777TIP3    H162208   7.764   6.212   6.206
20777TIP3    H262209   7.789   6.326   6.303
20778TIP3   OH262210   8.251   6.465   6.372
20778TIP3    H162211   8.239   6.393   6.435
20778TIP3    H262212   8.196   6.536   6.407
20779TIP3   OH262213   8.091   7.879   5.861
20779TIP3    H162214   8.180   7.901   5.826
20779TIP3    H262215   8.069   7.805   5.800
20780TIP3   OH262216   8.788   7.991   5.954
20780TIP3    H162217   8.790   7.893   5.939
20780TIP3    H262218   8.756   8.023   5.867
20781TIP3   OH262219   8.027   6.534   7.742
20781TIP3    H162220   7.992   6.464   7.799
20781TIP3    H262221   8.121   6.533   7.769
20782TIP3   OH262222   8.279   6.524   7.860
20782TIP3    H162223   8.361   6.493   7.818
20782TIP3    H262224   8.264   6.453   7.927
20783TIP3   OH262225   7.397   7.716   5.919
20783TIP3    H162226   7.394   7.741   6.012
20783TIP3    H262227   7.486   7.674   5.910
20784TIP3   OH262228   9.276   7.016   6.161
20784TIP3    H162229   9.236   7.102   6.182
20784TIP3    H262230   9.199   6.964   6.133
20785TIP3   OH262231   9.339   7.299   6.302
20785TIP3    H162232   9.396   7.236   6.348
20785TIP3    H262233   9.403   7.358   6.258
20786TIP3   OH262234   9.857   6.875   6.325
20786TIP3    H162235   9.869   6.954   6.269
20786TIP3    H262236   9.792   6.825   6.273
20787TIP3   OH262237   9.455   7.070   6.442
20787TIP3    H162238   9.550   7.067   6.463
20787TIP3    H262239   9.459   7.024   6.356
20788TIP3   OH262240  10.117   7.343   5.670
20788TIP3    H162241  10.041   7.405   5.670
20788TIP3    H262242  10.188   7.404   5.645
20789TIP3   OH262243  10.085   7.140   5.452
20789TIP3    H162244  10.124   7.188   5.527
20789TIP3    H262245  10.160   7.093   5.411
20790TIP3   OH262246   9.569   7.258   5.894
20790TIP3    H162247   9.526   7.344   5.895
20790TIP3    H262248   9.515   7.205   5.953
20791TIP3   OH262249  10.125   6.729   5.584
20791TIP3    H162250  10.091   6.724   5.676
20791TIP3    H262251  10.082   6.651   5.546
20792TIP3   OH262252   9.775   7.058   6.123
20792TIP3    H162253   9.684   7.041   6.152
20792TIP3    H262254   9.775   7.021   6.033
20793TIP3   OH262255   9.771   6.701   5.548
20793TIP3    H162256   9.759   6.697   5.645
20793TIP3    H262257   9.690   6.748   5.521
20794TIP3   OH262258   9.295   6.745   6.414
20794TIP3    H162259   9.373   6.769   6.468
20794TIP3    H262260   9.335   6.712   6.331
20795TIP3   OH262261   9.285   6.721   5.944
20795TIP3    H162262   9.326   6.762   5.866
20795TIP3    H262263   9.222   6.792   5.968
20796TIP3   OH262264   9.535   6.944   6.210
20796TIP3    H162265   9.445   6.949   6.172
20796TIP3    H262266   9.569   6.857   6.180
20797TIP3   OH262267   9.799   6.936   5.881
20797TIP3    H162268   9.889   6.962   5.858
20797TIP3    H262269   9.745   6.971   5.807
20798TIP3   OH262270   9.638   6.988   5.669
20798TIP3    H162271   9.586   6.935   5.605
20798TIP3    H262272   9.698   7.034   5.606
20799TIP3   OH262273   9.697   6.715   6.166
20799TIP3    H162274   9.677   6.636   6.220
20799TIP3    H262275   9.765   6.683   6.106
20800TIP3   OH262276   9.899   7.516   5.671
20800TIP3    H162277   9.826   7.450   5.674
20800TIP3    H262278   9.890   7.563   5.756
20801TIP3   OH262279  10.364   6.856   5.543
20801TIP3    H162280  10.272   6.826   5.560
20801TIP3    H262281  10.358   6.952   5.551
20802TIP3   OH262282   9.708   7.686   5.303
20802TIP3    H162283   9.706   7.596   5.266
20802TIP3    H262284   9.671   7.672   5.392
20803TIP3   OH262285   9.640   7.701   5.575
20803TIP3    H162286   9.714   7.660   5.622
20803TIP3    H262287   9.659   7.795   5.581
20804TIP3   OH262288  10.373   6.787   5.820
20804TIP3    H162289  10.388   6.792   5.724
20804TIP3    H262290  10.455   6.827   5.853
20805TIP3   OH262291  10.085   6.971   5.933
20805TIP3    H162292  10.141   7.035   5.886
20805TIP3    H262293  10.044   7.029   6.000
20806TIP3   OH262294  10.240   6.662   6.033
20806TIP3    H162295  10.265   6.736   6.092
20806TIP3    H262296  10.295   6.689   5.956
20807TIP3   OH262297   9.750   6.675   5.823
20807TIP3    H162298   9.749   6.768   5.856
20807TIP3    H262299   9.845   6.657   5.832
20808TIP3   OH262300   9.341   7.592   5.576
20808TIP3    H162301   9.396   7.670   5.595
20808TIP3    H262302   9.405   7.540   5.523
20809TIP3   OH262303   9.289   6.890   5.725
20809TIP3    H162304   9.354   6.944   5.678
20809TIP3    H262305   9.243   6.841   5.656
20810TIP3   OH262306   9.687   6.594   6.601
20810TIP3    H162307   9.678   6.573   6.506
20810TIP3    H262308   9.691   6.506   6.642
20811TIP3   OH262309   9.244   7.814   5.994
20811TIP3    H162310   9.164   7.859   6.022
20811TIP3    H262311   9.254   7.853   5.906
20812TIP3   OH262312   9.860   7.898   5.215
20812TIP3    H162313   9.805   7.824   5.250
20812TIP3    H262314   9.934   7.850   5.176
20813TIP3   OH262315   9.514   7.424   5.440
20813TIP3    H162316   9.573   7.391   5.510
20813TIP3    H262317   9.575   7.423   5.363
20814TIP3   OH262318  10.012   7.612   5.241
20814TIP3    H162319   9.977   7.626   5.330
20814TIP3    H262320  10.013   7.514   5.236
20815TIP3   OH262321   9.706   7.320   5.655
20815TIP3    H162322   9.685   7.285   5.744
20815TIP3    H262323   9.741   7.241   5.609
20816TIP3   OH262324   9.811   7.109   5.498
20816TIP3    H162325   9.782   7.114   5.404
20816TIP3    H262326   9.907   7.118   5.486
20817TIP3   OH262327   3.970   2.527  -0.252
20817TIP3    H162328   4.059   2.504  -0.282
20817TIP3    H262329   3.933   2.565  -0.335
20818TIP3   OH262330   8.990   8.151   6.040
20818TIP3    H162331   8.919   8.093   6.005
20818TIP3    H262332   8.982   8.133   6.135
20819TIP3   OH262333   9.492   6.785   6.605
20819TIP3    H162334   9.551   6.707   6.616
20819TIP3    H262335   9.557   6.846   6.567
20820TIP3   OH262336   9.282   7.037   6.660
20820TIP3    H162337   9.321   7.026   6.571
20820TIP3    H262338   9.317   7.128   6.678
20821TIP3   OH262339   9.301   6.584   6.174
20821TIP3    H162340   9.205   6.581   6.190
20821TIP3    H262341   9.306   6.639   6.093
20822TIP3   OH262342   9.521   6.680   6.997
20822TIP3    H162343   9.455   6.665   7.066
20822TIP3    H262344   9.462   6.709   6.924
20823TIP3   OH262345   9.615   6.506   6.343
20823TIP3    H162346   9.523   6.476   6.339
20823TIP3    H262347   9.662   6.420   6.339
20824TIP3   OH262348   9.402   6.373   5.986
20824TIP3    H162349   9.432   6.430   5.913
20824TIP3    H262350   9.372   6.438   6.052
20825TIP3   OH262351  10.048   6.529   6.213
20825TIP3    H162352  10.109   6.575   6.153
20825TIP3    H262353  10.056   6.579   6.294
20826TIP3   OH262354   9.113   7.931   5.766
20826TIP3    H162355   9.024   7.919   5.730
20826TIP3    H262356   9.124   8.026   5.754
20827TIP3   OH262357   9.515   6.534   5.750
20827TIP3    H162358   9.564   6.471   5.694
20827TIP3    H262359   9.589   6.586   5.788
20828TIP3   OH262360  10.030   6.709   5.848
20828TIP3    H162361  10.091   6.662   5.907
20828TIP3    H262362  10.046   6.801   5.877
20829TIP3   OH262363   9.190   7.964   5.407
20829TIP3    H162364   9.192   8.001   5.496
20829TIP3    H262365   9.282   7.929   5.396
20830TIP3   OH262366   1.758   7.566   8.522
20830TIP3    H162367   1.789   7.644   8.574
20830TIP3    H262368   1.784   7.595   8.433
20831TIP3   OH262369   1.251   7.758   8.549
20831TIP3    H162370   1.277   7.666   8.566
20831TIP3    H262371   1.204   7.748   8.464
20832TIP3   OH262372   1.200   7.512   8.162
20832TIP3    H162373   1.275   7.499   8.225
20832TIP3    H262374   1.248   7.550   8.086
20833TIP3   OH262375   1.841   7.767   8.675
20833TIP3    H162376   1.817   7.856   8.645
20833TIP3    H262377   1.894   7.790   8.755
20834TIP3   OH262378   1.415   7.522   8.329
20834TIP3    H162379   1.397   7.482   8.415
20834TIP3    H262380   1.470   7.599   8.353
20835TIP3   OH262381   1.555   7.503   8.704
20835TIP3    H162382   1.469   7.507   8.658
20835TIP3    H262383   1.618   7.523   8.631
20836TIP3   OH262384   1.132   8.420   7.888
20836TIP3    H162385   1.075   8.346   7.862
20836TIP3    H262386   1.152   8.401   7.980
20837TIP3   OH262387   1.648   8.102   8.481
20837TIP3    H162388   1.632   8.181   8.533
20837TIP3    H262389   1.696   8.140   8.404
20838TIP3   OH262390   1.145   7.982   7.907
20838TIP3    H162391   1.082   7.996   7.980
20838TIP3    H262392   1.224   7.948   7.954
20839TIP3   OH262393   1.045   7.795   7.725
20839TIP3    H162394   1.049   7.862   7.796
20839TIP3    H262395   1.018   7.852   7.651
20840TIP3   OH262396   1.494   7.077   7.785
20840TIP3    H162397   1.414   7.096   7.839
20840TIP3    H262398   1.507   7.163   7.740
20841TIP3   OH262399   1.294   8.444   7.330
20841TIP3    H162400   1.304   8.541   7.323
20841TIP3    H262401   1.387   8.415   7.321
20842TIP3   OH262402   1.173   7.316   8.994
20842TIP3    H162403   1.253   7.280   9.038
20842TIP3    H262404   1.104   7.283   9.055
20843TIP3   OH262405   1.040   7.918   7.478
20843TIP3    H162406   1.028   7.857   7.402
20843TIP3    H262407   1.135   7.941   7.468
20844TIP3   OH262408   1.105   7.726   8.310
20844TIP3    H162409   1.019   7.749   8.269
20844TIP3    H262410   1.125   7.642   8.262
20845TIP3   OH262411   1.284   7.486   8.592
20845TIP3    H162412   1.245   7.505   8.680
20845TIP3    H262413   1.214   7.427   8.557
20846TIP3   OH262414   0.968   7.376   7.731
20846TIP3    H162415   0.895   7.422   7.775
20846TIP3    H262416   1.041   7.437   7.757
20847TIP3   OH262417   1.128   7.563   7.831
20847TIP3    H162418   1.209   7.596   7.872
20847TIP3    H262419   1.086   7.647   7.802
20848TIP3   OH262420   1.532   7.697   7.696
20848TIP3    H162421   1.472   7.652   7.633
20848TIP3    H262422   1.530   7.786   7.656
20849TIP3   OH262423   1.230   8.514   7.599
20849TIP3    H162424   1.207   8.449   7.667
20849TIP3    H262425   1.250   8.459   7.521
20850TIP3   OH262426   1.320   8.724   7.326
20850TIP3    H162427   1.377   8.789   7.279
20850TIP3    H262428   1.235   8.766   7.309
20851TIP3   OH262429   1.142   8.176   7.704
20851TIP3    H162430   1.130   8.107   7.773
20851TIP3    H262431   1.240   8.177   7.699
20852TIP3   OH262432   1.179   7.542   8.838
20852TIP3    H162433   1.181   7.598   8.918
20852TIP3    H262434   1.169   7.453   8.879
20853TIP3   OH262435   1.080   7.305   8.014
20853TIP3    H162436   1.050   7.361   7.941
20853TIP3    H262437   1.103   7.373   8.080
20854TIP3   OH262438   1.657   7.712   8.901
20854TIP3    H162439   1.591   7.675   8.960
20854TIP3    H262440   1.673   7.640   8.839
20855TIP3   OH262441   1.316   7.913   8.305
20855TIP3    H162442   1.240   7.851   8.310
20855TIP3    H262443   1.386   7.864   8.353
20856TIP3   OH262444   1.288   7.974   7.358
20856TIP3    H162445   1.283   7.930   7.272
20856TIP3    H262446   1.265   8.066   7.333
20857TIP3   OH262447   1.425   8.163   7.692
20857TIP3    H162448   1.496   8.225   7.665
20857TIP3    H262449   1.465   8.123   7.772
20858TIP3   OH262450   1.549   8.031   7.895
20858TIP3    H162451   1.489   7.985   7.957
20858TIP3    H262452   1.620   8.065   7.954
20859TIP3   OH262453   1.492   7.936   7.546
20859TIP3    H162454   1.418   7.942   7.481
20859TIP3    H262455   1.468   8.011   7.604
20860TIP3   OH262456   1.374   7.607   7.494
20860TIP3    H162457   1.316   7.654   7.434
20860TIP3    H262458   1.339   7.516   7.491
20861TIP3   OH262459   1.370   7.882   8.041
20861TIP3    H162460   1.378   7.785   8.036
20861TIP3    H262461   1.360   7.897   8.138
20862TIP3   OH262462   1.307   7.344   7.478
20862TIP3    H162463   1.386   7.320   7.530
20862TIP3    H262464   1.238   7.287   7.515
20863TIP3   OH262465   1.376   7.606   7.951
20863TIP3    H162466   1.414   7.516   7.964
20863TIP3    H262467   1.429   7.637   7.876
20864TIP3   OH262468   1.527   7.776   8.425
20864TIP3    H162469   1.618   7.802   8.398
20864TIP3    H262470   1.519   7.825   8.508
20865TIP3   OH262471   2.078   7.509   9.242
20865TIP3    H162472   2.105   7.440   9.177
20865TIP3    H262473   2.031   7.571   9.182
20866TIP3   OH262474   1.476   7.351   7.974
20866TIP3    H162475   1.522   7.335   8.059
20866TIP3    H262476   1.412   7.276   7.974
20867TIP3   OH262477   1.933   7.634   9.039
20867TIP3    H162478   1.851   7.653   9.090
20867TIP3    H262479   1.900   7.571   8.972
20868TIP3   OH262480   1.551   7.291   7.603
20868TIP3    H162481   1.599   7.217   7.561
20868TIP3    H262482   1.620   7.361   7.606
20869TIP3   OH262483   1.809   7.418   8.888
20869TIP3    H162484   1.719   7.393   8.864
20869TIP3    H262485   1.851   7.329   8.891
20870TIP3   OH262486   1.062   7.309   8.538
20870TIP3    H162487   1.029   7.234   8.589
20870TIP3    H262488   1.134   7.267   8.485
20871TIP3   OH262489   1.548   7.207   8.430
20871TIP3    H162490   1.584   7.261   8.357
20871TIP3    H262491   1.452   7.226   8.423
20872TIP3   OH262492   1.639   7.307   8.192
20872TIP3    H162493   1.714   7.258   8.152
20872TIP3    H262494   1.671   7.400   8.180
20873TIP3   OH262495   1.272   7.208   8.397
20873TIP3    H162496   1.267   7.172   8.307
20873TIP3    H262497   1.257   7.127   8.451
20874TIP3   OH262498   1.292   7.137   7.965
20874TIP3    H162499   1.209   7.187   7.981
20874TIP3    H262500   1.274   7.054   8.012
20875TIP3   OH262501   1.243   8.777   7.649
20875TIP3    H162502   1.249   8.680   7.637
20875TIP3    H262503   1.241   8.805   7.557
20876TIP3   OH262504   2.756   8.300   7.600
20876TIP3    H162505   2.726   8.391   7.579
20876TIP3    H262506   2.683   8.250   7.559
20877TIP3   OH262507   2.760   8.295   7.973
20877TIP3    H162508   2.786   8.271   8.063
20877TIP3    H262509   2.713   8.216   7.942
20878TIP3   OH262510   2.070   8.216   8.359
20878TIP3    H162511   2.093   8.144   8.421
20878TIP3    H262512   2.155   8.227   8.311
20879TIP3   OH262513   3.000   8.588   7.658
20879TIP3    H162514   2.981   8.517   7.721
20879TIP3    H262515   2.983   8.667   7.710
20880TIP3   OH262516   2.050   8.605   8.091
20880TIP3    H162517   2.026   8.510   8.086
20880TIP3    H262518   2.143   8.602   8.058
20881TIP3   OH262519   1.733   7.808   7.855
20881TIP3    H162520   1.689   7.893   7.871
20881TIP3    H262521   1.659   7.755   7.819
20882TIP3   OH262522   1.789   8.092   8.014
20882TIP3    H162523   1.838   8.021   8.061
20882TIP3    H262524   1.856   8.128   7.954
20883TIP3   OH262525   2.652   9.065   7.683
20883TIP3    H162526   2.693   8.993   7.631
20883TIP3    H262527   2.626   9.021   7.764
20884TIP3   OH262528   2.553   8.523   8.030
20884TIP3    H162529   2.593   8.449   7.981
20884TIP3    H262530   2.636   8.574   8.045
20885TIP3   OH262531   3.567   7.846   8.025
20885TIP3    H162532   3.595   7.929   8.068
20885TIP3    H262533   3.586   7.866   7.932
20886TIP3   OH262534   2.965   8.027   8.061
20886TIP3    H162535   3.008   7.941   8.079
20886TIP3    H262536   2.935   8.013   7.969
20887TIP3   OH262537   2.303   7.687   8.025
20887TIP3    H162538   2.283   7.760   7.963
20887TIP3    H262539   2.254   7.614   7.981
20888TIP3   OH262540   2.997   7.777   7.650
20888TIP3    H162541   3.072   7.762   7.712
20888TIP3    H262542   3.045   7.814   7.573
20889TIP3   OH262543   1.937   7.892   8.131
20889TIP3    H162544   2.019   7.870   8.180
20889TIP3    H262545   1.950   7.836   8.052
20890TIP3   OH262546   2.376   8.086   7.931
20890TIP3    H162547   2.471   8.062   7.939
20890TIP3    H262548   2.338   8.003   7.894
20891TIP3   OH262549   3.640   8.054   8.195
20891TIP3    H162550   3.556   8.101   8.175
20891TIP3    H262551   3.654   8.080   8.288
20892TIP3   OH262552   2.301   7.665   8.451
20892TIP3    H162553   2.240   7.705   8.387
20892TIP3    H262554   2.251   7.682   8.534
20893TIP3   OH262555   2.648   8.522   7.471
20893TIP3    H162556   2.609   8.500   7.385
20893TIP3    H262557   2.603   8.607   7.491
20894TIP3   OH262558   2.404   8.450   8.257
20894TIP3    H162559   2.353   8.519   8.302
20894TIP3    H262560   2.447   8.499   8.184
20895TIP3   OH262561   3.212   7.777   7.819
20895TIP3    H162562   3.195   7.735   7.905
20895TIP3    H262563   3.263   7.856   7.845
20896TIP3   OH262564   2.168   7.786   8.243
20896TIP3    H162565   2.231   7.858   8.268
20896TIP3    H262566   2.219   7.745   8.169
20897TIP3   OH262567   1.630   8.330   7.590
20897TIP3    H162568   1.594   8.360   7.504
20897TIP3    H262569   1.664   8.413   7.628
20898TIP3   OH262570   3.360   7.745   8.191
20898TIP3    H162571   3.272   7.775   8.162
20898TIP3    H262572   3.418   7.778   8.119
20899TIP3   OH262573   2.658   7.391   8.173
20899TIP3    H162574   2.644   7.296   8.190
20899TIP3    H262575   2.580   7.429   8.219
20900TIP3   OH262576   2.779   8.890   7.513
20900TIP3    H162577   2.821   8.807   7.480
20900TIP3    H262578   2.838   8.956   7.470
20901TIP3   OH262579   2.914   8.675   7.409
20901TIP3    H162580   2.875   8.599   7.363
20901TIP3    H262581   2.952   8.632   7.488
20902TIP3   OH262582   3.295   8.769   8.162
20902TIP3    H162583   3.285   8.679   8.122
20902TIP3    H262584   3.263   8.824   8.090
20903TIP3   OH262585   2.590   8.157   7.429
20903TIP3    H162586   2.508   8.204   7.405
20903TIP3    H262587   2.625   8.132   7.342
20904TIP3   OH262588   2.571   7.919   7.210
20904TIP3    H162589   2.651   7.973   7.201
20904TIP3    H262590   2.571   7.871   7.127
20905TIP3   OH262591   3.490   8.395   8.017
20905TIP3    H162592   3.408   8.447   8.023
20905TIP3    H262593   3.519   8.419   7.926
20906TIP3   OH262594   2.936   8.240   7.403
20906TIP3    H162595   2.879   8.262   7.480
20906TIP3    H262596   3.018   8.211   7.448
20907TIP3   OH262597   3.168   8.273   8.310
20907TIP3    H162598   3.166   8.356   8.362
20907TIP3    H262599   3.081   8.278   8.265
20908TIP3   OH262600   2.165   8.232   7.819
20908TIP3    H162601   2.124   8.175   7.751
20908TIP3    H262602   2.243   8.180   7.846
20909TIP3   OH262603   2.289   8.621   7.961
20909TIP3    H162604   2.289   8.586   7.871
20909TIP3    H262605   2.383   8.612   7.985
20910TIP3   OH262606   2.295   8.207   8.177
20910TIP3    H162607   2.329   8.181   8.089
20910TIP3    H262608   2.341   8.292   8.193
20911TIP3   OH262609   2.789   8.090   7.226
20911TIP3    H162610   2.840   8.155   7.278
20911TIP3    H262611   2.809   8.117   7.133
20912TIP3   OH262612   2.516   8.773   7.504
20912TIP3    H162613   2.594   8.828   7.522
20912TIP3    H262614   2.456   8.835   7.461
20913TIP3   OH262615   3.290   7.333   7.275
20913TIP3    H162616   3.209   7.355   7.325
20913TIP3    H262617   3.304   7.416   7.225
20914TIP3   OH262618   2.030   8.075   7.628
20914TIP3    H162619   1.971   8.120   7.564
20914TIP3    H262620   1.988   7.989   7.636
20915TIP3   OH262621   3.089   8.701   6.820
20915TIP3    H162622   3.098   8.798   6.808
20915TIP3    H262623   3.182   8.672   6.810
20916TIP3   OH262624   3.538   9.094   8.208
20916TIP3    H162625   3.538   8.999   8.231
20916TIP3    H262626   3.468   9.129   8.264
20917TIP3   OH262627   2.399   9.018   7.303
20917TIP3    H162628   2.357   9.002   7.217
20917TIP3    H262629   2.369   9.108   7.325
20918TIP3   OH262630   1.822   8.877   7.683
20918TIP3    H162631   1.887   8.841   7.747
20918TIP3    H262632   1.767   8.799   7.671
20919TIP3   OH262633   2.598   8.920   6.942
20919TIP3    H162634   2.659   8.850   6.910
20919TIP3    H262635   2.629   8.931   7.035
20920TIP3   OH262636   2.643   8.934   7.212
20920TIP3    H162637   2.561   8.967   7.255
20920TIP3    H262638   2.704   8.932   7.286
20921TIP3   OH262639   3.422   8.234   8.492
20921TIP3    H162640   3.340   8.248   8.442
20921TIP3    H262641   3.436   8.138   8.481
20922TIP3   OH262642   2.419   7.464   8.300
20922TIP3    H162643   2.329   7.434   8.275
20922TIP3    H262644   2.395   7.547   8.346
20923TIP3   OH262645   2.951   7.580   8.495
20923TIP3    H162646   3.019   7.555   8.562
20923TIP3    H262647   2.867   7.561   8.542
20924TIP3   OH262648   3.193   8.012   8.416
20924TIP3    H162649   3.142   8.005   8.500
20924TIP3    H262650   3.165   8.098   8.380
20925TIP3   OH262651   2.852   8.141   6.968
20925TIP3    H162652   2.818   8.115   6.881
20925TIP3    H262653   2.932   8.191   6.942
20926TIP3   OH262654   2.566   7.508   7.272
20926TIP3    H162655   2.531   7.511   7.363
20926TIP3    H262656   2.521   7.429   7.238
20927TIP3   OH262657   2.345   7.979   8.321
20927TIP3    H162658   2.313   8.009   8.409
20927TIP3    H262659   2.333   8.061   8.269
20928TIP3   OH262660   2.235   7.866   7.833
20928TIP3    H162661   2.142   7.842   7.850
20928TIP3    H262662   2.247   7.827   7.744
20929TIP3   OH262663   2.722   7.952   7.561
20929TIP3    H162664   2.670   8.024   7.519
20929TIP3    H262665   2.774   7.920   7.484
20930TIP3   OH262666   2.918   8.225   8.633
20930TIP3    H162667   2.886   8.159   8.699
20930TIP3    H262668   3.008   8.242   8.668
20931TIP3   OH262669   2.881   7.982   7.801
20931TIP3    H162670   2.822   8.015   7.730
20931TIP3    H262671   2.912   7.901   7.757
20932TIP3   OH262672   2.165   8.021   8.543
20932TIP3    H162673   2.204   8.067   8.621
20932TIP3    H262674   2.157   7.931   8.578
20933TIP3   OH262675   2.204   7.473   7.243
20933TIP3    H162676   2.203   7.484   7.340
20933TIP3    H262677   2.141   7.542   7.215
20934TIP3   OH262678   1.763   7.531   8.107
20934TIP3    H162679   1.835   7.565   8.165
20934TIP3    H262680   1.810   7.501   8.029
20935TIP3   OH262681   1.734   7.512   7.630
20935TIP3    H162682   1.781   7.551   7.553
20935TIP3    H262683   1.676   7.586   7.653
20936TIP3   OH262684   2.893   8.227   8.225
20936TIP3    H162685   2.925   8.155   8.165
20936TIP3    H262686   2.865   8.174   8.302
20937TIP3   OH262687   2.560   7.686   7.897
20937TIP3    H162688   2.477   7.687   7.949
20937TIP3    H262689   2.627   7.692   7.967
20938TIP3   OH262690   1.996   7.746   7.904
20938TIP3    H162691   1.901   7.753   7.878
20938TIP3    H262692   2.019   7.654   7.881
20939TIP3   OH262693   2.264   7.742   7.586
20939TIP3    H162694   2.360   7.757   7.571
20939TIP3    H262695   2.224   7.769   7.500
20940TIP3   OH262696   3.054   7.763   8.096
20940TIP3    H162697   3.021   7.776   8.187
20940TIP3    H262698   2.986   7.704   8.060
20941TIP3   OH262699   2.117   7.782   7.351
20941TIP3    H162700   2.037   7.736   7.322
20941TIP3    H262701   2.154   7.805   7.264
20942TIP3   OH262702   2.644   8.016   7.992
20942TIP3    H162703   2.718   7.980   7.941
20942TIP3    H262704   2.657   7.974   8.079
20943TIP3   OH262705   2.167   7.507   7.870
20943TIP3    H162706   2.135   7.426   7.915
20943TIP3    H262707   2.219   7.471   7.797
20944TIP3   OH262708   2.620   7.912   8.286
20944TIP3    H162709   2.531   7.950   8.299
20944TIP3    H262710   2.678   7.973   8.336
20945TIP3   OH262711   2.355   8.307   7.376
20945TIP3    H162712   2.283   8.242   7.365
20945TIP3    H262713   2.339   8.339   7.469
20946TIP3   OH262714   3.259   8.542   8.009
20946TIP3    H162715   3.283   8.587   7.925
20946TIP3    H262716   3.175   8.497   7.986
20947TIP3   OH262717   2.817   7.615   7.242
20947TIP3    H162718   2.720   7.602   7.244
20947TIP3    H262719   2.825   7.712   7.255
20948TIP3   OH262720   2.807   8.606   8.343
20948TIP3    H162721   2.782   8.585   8.434
20948TIP3    H262722   2.754   8.685   8.330
20949TIP3   OH262723   2.888   7.864   7.347
20949TIP3    H162724   2.984   7.875   7.357
20949TIP3    H262725   2.863   7.940   7.291
20950TIP3   OH262726   2.047   8.324   8.053
20950TIP3    H162727   2.084   8.301   7.965
20950TIP3    H262728   2.096   8.263   8.110
20951TIP3   OH262729   2.504   8.455   7.198
20951TIP3    H162730   2.456   8.541   7.204
20951TIP3    H262731   2.451   8.399   7.258
20952TIP3   OH262732   2.667   8.332   8.651
20952TIP3    H162733   2.643   8.322   8.557
20952TIP3    H262734   2.763   8.313   8.647
20953TIP3   OH262735   3.329   7.954   7.180
20953TIP3    H162736   3.267   7.909   7.117
20953TIP3    H262737   3.325   8.043   7.139
20954TIP3   OH262738   3.543   8.810   8.262
20954TIP3    H162739   3.445   8.806   8.247
20954TIP3    H262740   3.573   8.782   8.172
20955TIP3   OH262741   3.018   8.776   7.082
20955TIP3    H162742   2.999   8.707   7.147
20955TIP3    H262743   3.038   8.725   7.001
20956TIP3   OH262744   3.025   8.403   7.929
20956TIP3    H162745   2.931   8.378   7.941
20956TIP3    H262746   3.058   8.324   7.882
20957TIP3   OH262747   2.155   8.626   7.676
20957TIP3    H162748   2.159   8.707   7.622
20957TIP3    H262749   2.061   8.624   7.697
20958TIP3   OH262750   1.712   7.935   7.377
20958TIP3    H162751   1.761   8.018   7.398
20958TIP3    H262752   1.638   7.941   7.442
20959TIP3   OH262753   2.292   8.393   7.625
20959TIP3    H162754   2.256   8.484   7.638
20959TIP3    H262755   2.252   8.346   7.700
20960TIP3   OH262756   2.067   8.858   7.533
20960TIP3    H162757   1.981   8.886   7.569
20960TIP3    H262758   2.113   8.946   7.526
20961TIP3   OH262759   2.819   8.580   8.074
20961TIP3    H162760   2.819   8.583   8.172
20961TIP3    H262761   2.907   8.544   8.056
20962TIP3   OH262762   2.782   8.498   6.989
20962TIP3    H162763   2.834   8.475   7.069
20962TIP3    H262764   2.693   8.475   7.019
20963TIP3   OH262765   3.125   8.977   6.811
20963TIP3    H162766   3.163   9.051   6.761
20963TIP3    H262767   3.045   9.020   6.845
20964TIP3   OH262768   2.158   7.738   8.668
20964TIP3    H162769   2.081   7.776   8.714
20964TIP3    H262770   2.188   7.675   8.736
20965TIP3   OH262771   2.942   8.438   7.207
20965TIP3    H162772   2.932   8.370   7.278
20965TIP3    H262773   3.039   8.434   7.194
20966TIP3   OH262774   2.146   8.481   6.989
20966TIP3    H162775   2.163   8.389   6.960
20966TIP3    H262776   2.129   8.468   7.084
20967TIP3   OH262777   2.092   8.486   7.264
20967TIP3    H162778   2.170   8.461   7.316
20967TIP3    H262779   2.096   8.584   7.269
20968TIP3   OH262780   1.829   8.177   7.463
20968TIP3    H162781   1.766   8.225   7.521
20968TIP3    H262782   1.849   8.247   7.397
20969TIP3   OH262783   2.980   7.816   8.355
20969TIP3    H162784   3.056   7.855   8.399
20969TIP3    H262785   2.963   7.735   8.409
20970TIP3   OH262786   2.860   7.567   7.519
20970TIP3    H162787   2.842   7.591   7.426
20970TIP3    H262788   2.896   7.652   7.554
20971TIP3   OH262789   2.356   8.682   7.209
20971TIP3    H162790   2.270   8.713   7.242
20971TIP3    H262791   2.385   8.759   7.158
20972TIP3   OH262792   2.547   7.746   7.623
20972TIP3    H162793   2.610   7.818   7.601
20972TIP3    H262794   2.555   7.743   7.721
20973TIP3   OH262795   2.815   8.064   8.429
20973TIP3    H162796   2.841   8.119   8.506
20973TIP3    H262797   2.869   7.984   8.443
20974TIP3   OH262798   2.694   7.476   7.726
20974TIP3    H162799   2.683   7.554   7.784
20974TIP3    H262800   2.754   7.513   7.657
20975TIP3   OH262801   2.098   8.758   7.275
20975TIP3    H162802   2.072   8.829   7.212
20975TIP3    H262803   2.085   8.802   7.362
20976TIP3   OH262804   2.202   7.475   7.522
20976TIP3    H162805   2.203   7.567   7.554
20976TIP3    H262806   2.298   7.455   7.526
20977TIP3   OH262807   3.459   7.966   8.412
20977TIP3    H162808   3.361   7.965   8.421
20977TIP3    H262809   3.468   7.929   8.323
20978TIP3   OH262810   3.109   8.161   7.801
20978TIP3    H162811   3.032   8.103   7.812
20978TIP3    H262812   3.179   8.113   7.848
20979TIP3   OH262813   1.819   8.392   7.269
20979TIP3    H162814   1.886   8.462   7.280
20979TIP3    H262815   1.867   8.337   7.202
20980TIP3   OH262816   1.767   7.667   7.408
20980TIP3    H162817   1.769   7.764   7.398
20980TIP3    H262818   1.683   7.646   7.365
20981TIP3   OH262819   2.155   7.386   8.277
20981TIP3    H162820   2.122   7.353   8.191
20981TIP3    H262821   2.143   7.308   8.335
20982TIP3   OH262822   1.695   8.606   7.660
20982TIP3    H162823   1.614   8.633   7.703
20982TIP3    H262824   1.681   8.641   7.570
20983TIP3   OH262825   2.309   8.685   6.900
20983TIP3    H162826   2.253   8.616   6.941
20983TIP3    H262827   2.387   8.632   6.876
20984TIP3   OH262828   2.748   8.725   6.812
20984TIP3    H162829   2.793   8.664   6.873
20984TIP3    H262830   2.807   8.726   6.734
20985TIP3   OH262831   1.955   8.202   7.121
20985TIP3    H162832   2.012   8.166   7.191
20985TIP3    H262833   2.021   8.207   7.049
20986TIP3   OH262834   2.463   8.407   6.928
20986TIP3    H162835   2.467   8.417   7.026
20986TIP3    H262836   2.469   8.309   6.921
20987TIP3   OH262837   3.090   8.632   8.307
20987TIP3    H162838   3.137   8.706   8.265
20987TIP3    H262839   2.997   8.660   8.307
20988TIP3   OH262840   2.164   8.105   7.336
20988TIP3    H162841   2.148   8.050   7.414
20988TIP3    H262842   2.206   8.042   7.275
20989TIP3   OH262843   2.433   8.148   8.544
20989TIP3    H162844   2.391   8.212   8.604
20989TIP3    H262845   2.488   8.206   8.487
20990TIP3   OH262846   2.966   8.582   8.708
20990TIP3    H162847   3.031   8.552   8.643
20990TIP3    H262848   2.956   8.503   8.765
20991TIP3   OH262849   3.089   8.231   6.847
20991TIP3    H162850   3.067   8.185   6.763
20991TIP3    H262851   3.057   8.321   6.824
20992TIP3   OH262852   2.579   7.950   8.663
20992TIP3    H162853   2.573   7.869   8.609
20992TIP3    H262854   2.528   8.015   8.609
20993TIP3   OH262855   2.560   7.733   8.494
20993TIP3    H162856   2.585   7.780   8.412
20993TIP3    H262857   2.465   7.715   8.479
20994TIP3   OH262858   2.595   8.296   8.385
20994TIP3    H162859   2.671   8.291   8.325
20994TIP3    H262860   2.534   8.355   8.335
20995TIP3   OH262861   3.180   8.243   8.765
20995TIP3    H162862   3.231   8.161   8.759
20995TIP3    H262863   3.244   8.309   8.733
20996TIP3   OH262864   3.212   8.491   8.495
20996TIP3    H162865   3.154   8.545   8.436
20996TIP3    H262866   3.298   8.514   8.453
20997TIP3   OH262867   2.472   8.026   8.897
20997TIP3    H162868   2.377   8.012   8.884
20997TIP3    H262869   2.505   8.001   8.808
20998TIP3   OH262870   2.692   7.505   8.571
20998TIP3    H162871   2.644   7.587   8.546
20998TIP3    H262872   2.621   7.438   8.561
20999TIP3   OH262873   2.820   8.019   8.779
20999TIP3    H162874   2.811   8.004   8.875
20999TIP3    H262875   2.731   7.991   8.747
21000TIP3   OH262876   3.058   7.954   8.643
21000TIP3    H162877   2.982   7.966   8.704
21000TIP3    H262878   3.129   7.926   8.704
21001TIP3   OH262879   3.293   7.899   8.791
21001TIP3    H162880   3.301   7.803   8.806
21001TIP3    H262881   3.285   7.932   8.883
21002TIP3   OH262882   2.262   7.834   8.945
21002TIP3    H162883   2.286   7.744   8.917
21002TIP3    H262884   2.269   7.827   9.042
21003TIP3   OH262885   2.782   7.514   8.829
21003TIP3    H162886   2.852   7.445   8.823
21003TIP3    H262887   2.744   7.509   8.739
21004TIP3   OH262888   2.861   7.724   8.985
21004TIP3    H162889   2.827   7.657   8.922
21004TIP3    H262890   2.786   7.788   8.990
21005TIP3   OH262891   2.069   8.954   7.084
21005TIP3    H162892   2.166   8.957   7.073
21005TIP3    H262893   2.042   9.011   7.010
21006TIP3   OH262894   1.552   8.345   7.307
21006TIP3    H162895   1.646   8.369   7.293
21006TIP3    H262896   1.550   8.255   7.267
21007TIP3   OH262897   3.341   9.190   7.715
21007TIP3    H162898   3.346   9.253   7.789
21007TIP3    H262899   3.368   9.248   7.642
21008TIP3   OH262900   3.356   9.234   7.995
21008TIP3    H162901   3.346   9.146   7.958
21008TIP3    H262902   3.439   9.228   8.042
21009TIP3   OH262903   3.375   8.900   8.545
21009TIP3    H162904   3.284   8.880   8.576
21009TIP3    H262905   3.360   8.983   8.497
21010TIP3   OH262906   3.222   8.418   7.181
21010TIP3    H162907   3.289   8.483   7.152
21010TIP3    H262908   3.266   8.379   7.260
21011TIP3   OH262909   3.351   8.284   7.384
21011TIP3    H162910   3.283   8.243   7.442
21011TIP3    H262911   3.412   8.325   7.448
21012TIP3   OH262912   3.399   8.677   7.813
21012TIP3    H162913   3.452   8.611   7.766
21012TIP3    H262914   3.406   8.755   7.753
21013TIP3   OH262915   3.287   8.192   7.032
21013TIP3    H162916   3.216   8.196   6.963
21013TIP3    H262917   3.260   8.269   7.086
21014TIP3   OH262918   3.164   7.862   6.985
21014TIP3    H162919   3.116   7.910   6.917
21014TIP3    H262920   3.134   7.770   6.970
21015TIP3   OH262921   3.165   8.142   7.532
21015TIP3    H162922   3.170   8.045   7.525
21015TIP3    H262923   3.151   8.155   7.628
21016TIP3   OH262924   1.799   8.194   8.280
21016TIP3    H162925   1.789   8.195   8.183
21016TIP3    H262926   1.894   8.214   8.291
21017TIP3   OH262927   3.452   8.565   8.383
21017TIP3    H162928   3.524   8.498   8.376
21017TIP3    H262929   3.483   8.635   8.323
21018TIP3   OH262930   3.638   8.374   8.408
21018TIP3    H162931   3.564   8.322   8.446
21018TIP3    H262932   3.711   8.310   8.421
21019TIP3   OH262933   3.105   7.595   6.967
21019TIP3    H162934   3.176   7.570   7.029
21019TIP3    H262935   3.027   7.545   6.997
21020TIP3   OH262936   3.163   7.860   7.430
21020TIP3    H162937   3.203   7.770   7.443
21020TIP3    H262938   3.219   7.892   7.357
21021TIP3   OH262939   3.322   8.031   7.922
21021TIP3    H162940   3.408   8.058   7.881
21021TIP3    H262941   3.335   8.069   8.011
21022TIP3   OH262942   3.390   8.175   8.154
21022TIP3    H162943   3.311   8.209   8.202
21022TIP3    H262944   3.421   8.256   8.109
21023TIP3   OH262945   2.004   7.840   8.872
21023TIP3    H162946   2.095   7.868   8.898
21023TIP3    H262947   1.982   7.783   8.949
21024TIP3   OH262948   3.842   7.765   8.710
21024TIP3    H162949   3.900   7.700   8.665
21024TIP3    H262950   3.813   7.822   8.635
21025TIP3   OH262951   3.271   7.607   7.463
21025TIP3    H162952   3.317   7.591   7.548
21025TIP3    H262953   3.208   7.532   7.462
21026TIP3   OH262954   1.968   7.592   8.280
21026TIP3    H162955   2.032   7.520   8.294
21026TIP3    H262956   2.027   7.669   8.279
21027TIP3   OH262957   1.780   7.861   8.364
21027TIP3    H162958   1.830   7.864   8.280
21027TIP3    H262959   1.774   7.955   8.386
21028TIP3   OH262960   3.714   7.907   8.517
21028TIP3    H162961   3.627   7.948   8.539
21028TIP3    H262962   3.683   7.836   8.457
21029TIP3   OH262963   3.351   7.542   7.099
21029TIP3    H162964   3.392   7.472   7.044
21029TIP3    H262965   3.416   7.615   7.091
21030TIP3   OH262966   1.753   7.363   7.853
21030TIP3    H162967   1.662   7.368   7.886
21030TIP3    H262968   1.752   7.426   7.779
21031TIP3   OH262969   2.924   9.069   7.370
21031TIP3    H162970   2.966   9.046   7.285
21031TIP3    H262971   2.955   9.160   7.379
21032TIP3   OH262972   1.976   7.442   8.663
21032TIP3    H162973   1.926   7.446   8.746
21032TIP3    H262974   1.912   7.484   8.602
21033TIP3   OH262975   3.612   7.671   8.393
21033TIP3    H162976   3.520   7.668   8.359
21033TIP3    H262977   3.640   7.577   8.380
21034TIP3   OH262978   3.018   9.248   7.838
21034TIP3    H162979   2.975   9.331   7.865
21034TIP3    H262980   3.032   9.268   7.742
21035TIP3   OH262981   1.981   8.776   7.875
21035TIP3    H162982   2.025   8.712   7.935
21035TIP3    H262983   2.017   8.862   7.903
21036TIP3   OH262984   2.279   8.897   7.888
21036TIP3    H162985   2.265   8.801   7.893
21036TIP3    H262986   2.190   8.935   7.881
21037TIP3   OH262987   2.818   7.586   8.014
21037TIP3    H162988   2.772   7.517   8.065
21037TIP3    H262989   2.888   7.536   7.968
21038TIP3   OH262990   3.341   7.461   7.917
21038TIP3    H162991   3.377   7.516   7.843
21038TIP3    H262992   3.246   7.483   7.913
21039TIP3   OH262993   3.435   7.563   7.681
21039TIP3    H162994   3.509   7.514   7.639
21039TIP3    H262995   3.467   7.656   7.667
21040TIP3   OH262996   2.066   7.293   8.028
21040TIP3    H162997   1.974   7.259   8.030
21040TIP3    H262998   2.116   7.208   8.025
21041TIP3   OH262999   1.844   7.162   7.671
21041TIP3    H163000   1.880   7.221   7.603
21041TIP3    H263001   1.819   7.226   7.741
21042TIP3   OH263002   2.509   7.324   7.910
21042TIP3    H163003   2.565   7.376   7.850
21042TIP3    H263004   2.528   7.365   7.995
21043TIP3   OH263005   3.059   7.472   7.894
21043TIP3    H163006   3.050   7.440   7.804
21043TIP3    H263007   3.042   7.390   7.946
21044TIP3   OH263008   3.085   7.394   7.454
21044TIP3    H163009   3.000   7.441   7.465
21044TIP3    H263010   3.067   7.311   7.501
21045TIP3   OH263011   1.565   8.729   7.461
21045TIP3    H163012   1.479   8.702   7.423
21045TIP3    H263013   1.566   8.822   7.435
21046TIP3   OH263014   1.969   7.321   7.442
21046TIP3    H163015   2.020   7.264   7.381
21046TIP3    H263016   2.039   7.378   7.478
21047TIP3   OH263017   2.480   7.495   7.541
21047TIP3    H163018   2.544   7.452   7.600
21047TIP3    H263019   2.500   7.589   7.562
21048TIP3   OH263020   2.340   8.922   7.041
21048TIP3    H163021   2.429   8.946   7.006
21048TIP3    H263022   2.319   8.847   6.981
21049TIP3   OH263023   3.058   9.047   7.130
21049TIP3    H163024   3.034   8.956   7.102
21049TIP3    H263025   2.991   9.105   7.089
21050TIP3   OH263026   2.276   7.555   8.905
21050TIP3    H163027   2.236   7.496   8.972
21050TIP3    H263028   2.369   7.559   8.940
21051TIP3   OH263029   2.520   7.560   9.032
21051TIP3    H163030   2.607   7.546   8.991
21051TIP3    H263031   2.516   7.485   9.095
21052TIP3   OH263032   1.641   8.750   7.097
21052TIP3    H163033   1.651   8.792   7.184
21052TIP3    H263034   1.732   8.714   7.081
21053TIP3   OH263035   3.346   7.629   8.826
21053TIP3    H163036   3.365   7.601   8.918
21053TIP3    H263037   3.436   7.626   8.785
21054TIP3   OH263038   4.551   8.556   7.086
21054TIP3    H163039   4.524   8.648   7.065
21054TIP3    H263040   4.475   8.508   7.050
21055TIP3   OH263041   4.554   8.557   7.464
21055TIP3    H163042   4.581   8.526   7.552
21055TIP3    H263043   4.509   8.480   7.427
21056TIP3   OH263044   3.850   8.453   7.832
21056TIP3    H163045   3.883   8.386   7.894
21056TIP3    H263046   3.928   8.510   7.822
21057TIP3   OH263047   4.796   8.856   7.147
21057TIP3    H163048   4.779   8.789   7.214
21057TIP3    H263049   4.822   8.932   7.200
21058TIP3   OH263050   3.823   8.862   7.558
21058TIP3    H163051   3.814   8.764   7.560
21058TIP3    H263052   3.920   8.870   7.549
21059TIP3   OH263053   3.528   8.065   7.343
21059TIP3    H163054   3.480   8.149   7.357
21059TIP3    H263055   3.458   8.011   7.302
21060TIP3   OH263056   3.589   8.355   7.515
21060TIP3    H163057   3.638   8.277   7.549
21060TIP3    H263058   3.643   8.381   7.440
21061TIP3   OH263059   4.444   9.322   7.163
21061TIP3    H163060   4.490   9.251   7.114
21061TIP3    H263061   4.433   9.282   7.250
21062TIP3   OH263062   4.350   8.782   7.515
21062TIP3    H163063   4.386   8.708   7.464
21062TIP3    H263064   4.434   8.826   7.538
21063TIP3   OH263065   5.364   8.102   7.512
21063TIP3    H163066   5.391   8.186   7.555
21063TIP3    H263067   5.382   8.122   7.419
21064TIP3   OH263068   4.762   8.284   7.548
21064TIP3    H163069   4.804   8.198   7.566
21064TIP3    H263070   4.731   8.270   7.456
21065TIP3   OH263071   4.100   7.944   7.512
21065TIP3    H163072   4.079   8.017   7.450
21065TIP3    H263073   4.052   7.870   7.468
21066TIP3   OH263074   4.794   8.034   7.136
21066TIP3    H163075   4.868   8.019   7.199
21066TIP3    H263076   4.843   8.070   7.060
21067TIP3   OH263077   3.733   8.145   7.619
21067TIP3    H163078   3.816   8.125   7.666
21067TIP3    H263079   3.745   8.090   7.539
21068TIP3   OH263080   4.174   8.343   7.412
21068TIP3    H163081   4.268   8.317   7.424
21068TIP3    H263082   4.135   8.260   7.378
21069TIP3   OH263083   5.436   8.310   7.683
21069TIP3    H163084   5.353   8.358   7.662
21069TIP3    H263085   5.450   8.338   7.775
21070TIP3   OH263086   4.097   7.927   7.946
21070TIP3    H163087   4.037   7.964   7.879
21070TIP3    H263088   4.044   7.945   8.027
21071TIP3   OH263089   4.445   8.778   6.955
21071TIP3    H163090   4.401   8.756   6.872
21071TIP3    H263091   4.401   8.862   6.978
21072TIP3   OH263092   4.204   8.702   7.743
21072TIP3    H163093   4.140   8.767   7.780
21072TIP3    H263094   4.244   8.753   7.669
21073TIP3   OH263095   5.007   8.034   7.306
21073TIP3    H163096   4.992   7.991   7.391
21073TIP3    H263097   5.059   8.113   7.332
21074TIP3   OH263098   3.968   8.042   7.731
21074TIP3    H163099   4.029   8.115   7.753
21074TIP3    H263100   4.016   8.001   7.655
21075TIP3   OH263101   4.031   8.895   7.840
21075TIP3    H163102   4.005   8.980   7.799
21075TIP3    H263103   3.951   8.880   7.896
21076TIP3   OH263104   3.426   8.586   7.075
21076TIP3    H163105   3.386   8.612   6.991
21076TIP3    H263106   3.455   8.672   7.111
21077TIP3   OH263107   4.868   9.102   7.318
21077TIP3    H163108   4.777   9.093   7.356
21077TIP3    H263109   4.858   9.186   7.269
21078TIP3   OH263110   5.156   8.001   7.678
21078TIP3    H163111   5.068   8.032   7.649
21078TIP3    H263112   5.214   8.034   7.606
21079TIP3   OH263113   4.456   7.647   7.663
21079TIP3    H163114   4.438   7.552   7.676
21079TIP3    H263115   4.377   7.686   7.707
21080TIP3   OH263116   4.570   9.149   6.992
21080TIP3    H163117   4.618   9.066   6.969
21080TIP3    H263118   4.629   9.215   6.949
21081TIP3   OH263119   4.709   8.933   6.896
21081TIP3    H163120   4.671   8.855   6.854
21081TIP3    H263121   4.745   8.896   6.979
21082TIP3   OH263122   5.094   9.016   7.658
21082TIP3    H163123   5.081   8.938   7.600
21082TIP3    H263124   5.074   9.089   7.597
21083TIP3   OH263125   4.384   8.409   6.916
21083TIP3    H163126   4.302   8.459   6.896
21083TIP3    H263127   4.426   8.405   6.829
21084TIP3   OH263128   4.342   8.188   6.636
21084TIP3    H163129   4.408   8.244   6.680
21084TIP3    H263130   4.401   8.127   6.587
21085TIP3   OH263131   5.287   8.652   7.503
21085TIP3    H163132   5.203   8.704   7.508
21085TIP3    H263133   5.316   8.676   7.413
21086TIP3   OH263134   4.730   8.491   6.888
21086TIP3    H163135   4.674   8.516   6.966
21086TIP3    H263136   4.813   8.467   6.933
21087TIP3   OH263137   4.965   8.528   7.797
21087TIP3    H163138   4.965   8.610   7.851
21087TIP3    H263139   4.878   8.536   7.753
21088TIP3   OH263140   3.961   8.489   7.305
21088TIP3    H163141   3.918   8.433   7.237
21088TIP3    H263142   4.039   8.436   7.331
21089TIP3   OH263143   4.091   8.898   7.454
21089TIP3    H163144   4.069   8.860   7.368
21089TIP3    H263145   4.181   8.865   7.469
21090TIP3   OH263146   4.101   8.459   7.660
21090TIP3    H163147   4.131   8.440   7.569
21090TIP3    H263148   4.142   8.546   7.678
21091TIP3   OH263149   4.626   9.098   7.436
21091TIP3    H163150   4.609   9.177   7.490
21091TIP3    H263151   4.609   9.024   7.498
21092TIP3   OH263152   4.236   9.017   7.983
21092TIP3    H163153   4.175   9.080   8.028
21092TIP3    H263154   4.171   8.964   7.932
21093TIP3   OH263155   4.573   8.346   6.714
21093TIP3    H163156   4.630   8.408   6.765
21093TIP3    H263157   4.597   8.370   6.621
21094TIP3   OH263158   3.991   8.573   8.084
21094TIP3    H163159   3.996   8.660   8.128
21094TIP3    H263160   3.896   8.555   8.091
21095TIP3   OH263161   4.314   9.029   6.992
21095TIP3    H163162   4.391   9.086   7.007
21095TIP3    H263163   4.252   9.089   6.949
21096TIP3   OH263164   4.032   9.188   8.073
21096TIP3    H163165   3.996   9.188   7.982
21096TIP3    H263166   3.954   9.160   8.126
21097TIP3   OH263167   5.087   7.590   6.762
21097TIP3    H163168   5.005   7.612   6.812
21097TIP3    H263169   5.101   7.673   6.712
21098TIP3   OH263170   3.826   8.331   7.114
21098TIP3    H163171   3.765   8.380   7.054
21098TIP3    H263172   3.782   8.246   7.119
21099TIP3   OH263173   4.885   8.959   6.310
21099TIP3    H163174   4.894   9.056   6.297
21099TIP3    H263175   4.979   8.931   6.300
21100TIP3   OH263176   3.609   8.715   8.018
21100TIP3    H163177   3.549   8.693   7.944
21100TIP3    H263178   3.647   8.628   8.042
21101TIP3   OH263179   3.462   8.905   7.664
21101TIP3    H163180   3.556   8.908   7.643
21101TIP3    H263181   3.447   8.996   7.696
21102TIP3   OH263182   5.327   9.364   7.701
21102TIP3    H163183   5.330   9.267   7.712
21102TIP3    H263184   5.242   9.383   7.747
21103TIP3   OH263185   4.436   9.144   7.841
21103TIP3    H163186   4.433   9.237   7.872
21103TIP3    H263187   4.362   9.105   7.893
21104TIP3   OH263188   4.196   9.276   6.791
21104TIP3    H163189   4.148   9.256   6.708
21104TIP3    H263190   4.162   9.364   6.815
21105TIP3   OH263191   3.633   9.125   7.173
21105TIP3    H163192   3.680   9.114   7.259
21105TIP3    H263193   3.567   9.055   7.181
21106TIP3   OH263194   4.397   9.176   6.430
21106TIP3    H163195   4.456   9.107   6.395
21106TIP3    H263196   4.431   9.186   6.522
21107TIP3   OH263197   4.447   9.224   6.700
21107TIP3    H163198   4.358   9.235   6.742
21107TIP3    H263199   4.497   9.182   6.772
21108TIP3   OH263200   5.221   8.492   7.978
21108TIP3    H163201   5.138   8.507   7.930
21108TIP3    H263202   5.233   8.396   7.967
21109TIP3   OH263203   3.815   8.898   8.007
21109TIP3    H163204   3.865   8.881   8.089
21109TIP3    H263205   3.741   8.835   8.013
21110TIP3   OH263206   4.215   7.722   7.788
21110TIP3    H163207   4.125   7.692   7.762
21110TIP3    H263208   4.191   7.805   7.832
21111TIP3   OH263209   4.747   7.836   7.982
21111TIP3    H163210   4.814   7.812   8.050
21111TIP3    H263211   4.662   7.819   8.028
21112TIP3   OH263212   4.989   8.267   7.903
21112TIP3    H163213   4.938   8.263   7.987
21112TIP3    H263214   4.963   8.354   7.866
21113TIP3   OH263215   4.652   8.393   6.459
21113TIP3    H163216   4.613   8.371   6.372
21113TIP3    H263217   4.727   8.448   6.432
21114TIP3   OH263218   4.362   7.768   6.760
21114TIP3    H163219   4.326   7.768   6.851
21114TIP3    H263220   4.320   7.688   6.725
21115TIP3   OH263221   4.147   8.236   7.808
21115TIP3    H163222   4.095   8.259   7.888
21115TIP3    H263223   4.132   8.317   7.754
21116TIP3   OH263224   4.031   8.122   7.321
21116TIP3    H163225   3.937   8.100   7.337
21116TIP3    H263226   4.043   8.084   7.232
21117TIP3   OH263227   4.520   8.210   7.048
21117TIP3    H163228   4.467   8.281   7.007
21117TIP3    H263229   4.573   8.180   6.972
21118TIP3   OH263230   4.694   8.487   8.134
21118TIP3    H163231   4.673   8.416   8.198
21118TIP3    H263232   4.787   8.506   8.157
21119TIP3   OH263233   4.678   8.239   7.288
21119TIP3    H163234   4.618   8.271   7.217
21119TIP3    H263235   4.709   8.157   7.245
21120TIP3   OH263236   3.966   8.267   8.016
21120TIP3    H163237   3.991   8.331   8.084
21120TIP3    H263238   3.953   8.185   8.068
21121TIP3   OH263239   4.016   7.741   6.728
21121TIP3    H163240   4.004   7.742   6.824
21121TIP3    H263241   3.939   7.796   6.700
21122TIP3   OH263242   3.558   7.787   7.598
21122TIP3    H163243   3.634   7.821   7.650
21122TIP3    H263244   3.598   7.760   7.515
21123TIP3   OH263245   3.533   7.771   7.118
21123TIP3    H163246   3.575   7.810   7.038
21123TIP3    H263247   3.470   7.843   7.139
21124TIP3   OH263248   4.689   8.485   7.712
21124TIP3    H163249   4.721   8.413   7.654
21124TIP3    H263250   4.659   8.432   7.789
21125TIP3   OH263251   4.357   7.942   7.384
21125TIP3    H163252   4.272   7.943   7.433
21125TIP3    H263253   4.421   7.950   7.455
21126TIP3   OH263254   3.791   8.002   7.392
21126TIP3    H163255   3.696   8.011   7.364
21126TIP3    H263256   3.813   7.911   7.366
21127TIP3   OH263257   4.063   7.998   7.078
21127TIP3    H163258   4.155   8.016   7.053
21127TIP3    H263259   4.013   8.021   6.996
21128TIP3   OH263260   4.849   8.019   7.583
21128TIP3    H163261   4.816   8.033   7.674
21128TIP3    H263262   4.781   7.960   7.548
21129TIP3   OH263263   3.904   8.030   6.859
21129TIP3    H163264   3.833   7.986   6.809
21129TIP3    H263265   3.954   8.069   6.784
21130TIP3   OH263266   5.016   9.711   7.801
21130TIP3    H163267   5.010   9.730   7.705
21130TIP3    H263268   5.099   9.758   7.824
21131TIP3   OH263269   3.977   8.819   8.225
21131TIP3    H163270   4.055   8.854   8.273
21131TIP3    H263271   3.912   8.816   8.298
21132TIP3   OH263272   4.440   8.272   7.480
21132TIP3    H163273   4.514   8.235   7.429
21132TIP3    H263274   4.452   8.231   7.567
21133TIP3   OH263275   3.967   7.762   7.358
21133TIP3    H163276   3.931   7.682   7.402
21133TIP3    H263277   4.010   7.726   7.279
21134TIP3   OH263278   4.417   8.168   7.773
21134TIP3    H163279   4.327   8.206   7.784
21134TIP3    H263280   4.474   8.231   7.822
21135TIP3   OH263281   4.156   8.563   6.867
21135TIP3    H163282   4.085   8.496   6.855
21135TIP3    H263283   4.136   8.596   6.957
21136TIP3   OH263284   5.054   8.797   7.496
21136TIP3    H163285   5.078   8.846   7.414
21136TIP3    H263286   4.969   8.756   7.471
21137TIP3   OH263287   4.613   7.873   6.729
21137TIP3    H163288   4.516   7.857   6.733
21137TIP3    H263289   4.622   7.968   6.749
21138TIP3   OH263290   4.557   8.881   7.862
21138TIP3    H163291   4.574   8.856   7.953
21138TIP3    H263292   4.513   8.968   7.870
21139TIP3   OH263293   4.682   8.121   6.831
21139TIP3    H163294   4.778   8.130   6.844
21139TIP3    H263295   4.660   8.200   6.778
21140TIP3   OH263296   3.847   8.583   7.543
21140TIP3    H163297   3.882   8.556   7.455
21140TIP3    H263298   3.885   8.517   7.601
21141TIP3   OH263299   4.300   8.713   6.687
21141TIP3    H163300   4.252   8.798   6.693
21141TIP3    H263301   4.245   8.657   6.746
21142TIP3   OH263302   3.725   8.504   8.155
21142TIP3    H163303   3.747   8.487   8.249
21142TIP3    H263304   3.656   8.437   8.138
21143TIP3   OH263305   4.451   8.618   8.174
21143TIP3    H163306   4.392   8.559   8.123
21143TIP3    H263307   4.539   8.585   8.145
21144TIP3   OH263308   4.715   9.143   7.759
21144TIP3    H163309   4.619   9.136   7.768
21144TIP3    H263310   4.738   9.195   7.838
21145TIP3   OH263311   5.125   8.211   6.666
21145TIP3    H163312   5.063   8.166   6.604
21145TIP3    H263313   5.121   8.300   6.626
21146TIP3   OH263314   5.344   9.072   7.746
21146TIP3    H163315   5.246   9.065   7.739
21146TIP3    H263316   5.369   9.040   7.656
21147TIP3   OH263317   4.818   9.030   6.573
21147TIP3    H163318   4.798   8.957   6.633
21147TIP3    H263319   4.836   8.986   6.488
21148TIP3   OH263320   4.820   8.659   7.416
21148TIP3    H163321   4.726   8.634   7.428
21148TIP3    H263322   4.854   8.580   7.369
21149TIP3   OH263323   3.946   8.887   7.167
21149TIP3    H163324   3.947   8.968   7.112
21149TIP3    H263325   3.851   8.871   7.173
21150TIP3   OH263326   3.511   8.191   6.868
21150TIP3    H163327   3.556   8.275   6.886
21150TIP3    H263328   3.433   8.198   6.928
21151TIP3   OH263329   4.088   8.654   7.113
21151TIP3    H163330   4.051   8.744   7.128
21151TIP3    H263331   4.047   8.604   7.186
21152TIP3   OH263332   4.215   9.231   7.636
21152TIP3    H163333   4.253   9.304   7.583
21152TIP3    H263334   4.294   9.197   7.681
21153TIP3   OH263335   3.868   9.125   7.020
21153TIP3    H163336   3.781   9.133   7.064
21153TIP3    H263337   3.899   9.218   7.021
21154TIP3   OH263338   4.606   8.865   7.593
21154TIP3    H163339   4.597   8.863   7.691
21154TIP3    H263340   4.684   8.810   7.579
21155TIP3   OH263341   4.578   8.756   6.475
21155TIP3    H163342   4.629   8.732   6.556
21155TIP3    H263343   4.488   8.730   6.503
21156TIP3   OH263344   4.853   9.402   7.646
21156TIP3    H163345   4.775   9.344   7.638
21156TIP3    H263346   4.837   9.465   7.571
21157TIP3   OH263347   4.914   9.232   6.289
21157TIP3    H163348   4.976   9.306   6.274
21157TIP3    H263349   4.836   9.283   6.319
21158TIP3   OH263350   3.938   8.009   8.163
21158TIP3    H163351   3.842   8.015   8.177
21158TIP3    H263352   3.965   7.950   8.235
21159TIP3   OH263353   4.738   8.692   6.694
21159TIP3    H163354   4.728   8.626   6.764
21159TIP3    H263355   4.835   8.690   6.680
21160TIP3   OH263356   3.654   9.093   7.797
21160TIP3    H163357   3.712   9.025   7.834
21160TIP3    H263358   3.681   9.173   7.844
21161TIP3   OH263359   3.942   8.748   6.479
21161TIP3    H163360   3.944   8.660   6.438
21161TIP3    H263361   3.919   8.726   6.571
21162TIP3   OH263362   3.889   8.746   6.753
21162TIP3    H163363   3.962   8.718   6.810
21162TIP3    H263364   3.896   8.844   6.757
21163TIP3   OH263365   3.628   8.438   6.951
21163TIP3    H163366   3.561   8.484   7.006
21163TIP3    H263367   3.642   8.506   6.882
21164TIP3   OH263368   4.776   8.072   7.841
21164TIP3    H163369   4.853   8.112   7.885
21164TIP3    H263370   4.760   7.993   7.896
21165TIP3   OH263371   4.656   7.824   7.007
21165TIP3    H163372   4.639   7.847   6.913
21165TIP3    H263373   4.692   7.908   7.042
21166TIP3   OH263374   4.157   8.942   6.698
21166TIP3    H163375   4.070   8.969   6.733
21166TIP3    H263376   4.171   9.012   6.632
21167TIP3   OH263377   4.349   8.001   7.110
21167TIP3    H163378   4.410   8.075   7.091
21167TIP3    H263379   4.350   7.999   7.208
21168TIP3   OH263380   4.613   8.324   7.919
21168TIP3    H163381   4.632   8.380   7.997
21168TIP3    H263382   4.669   8.246   7.935
21169TIP3   OH263383   4.491   7.733   7.215
21169TIP3    H163384   4.475   7.813   7.269
21169TIP3    H263385   4.550   7.770   7.145
21170TIP3   OH263386   3.902   9.018   6.764
21170TIP3    H163387   3.869   9.087   6.701
21170TIP3    H263388   3.883   9.062   6.850
21171TIP3   OH263389   3.999   7.729   7.005
21171TIP3    H163390   3.996   7.822   7.036
21171TIP3    H263391   4.096   7.713   7.011
21172TIP3   OH263392   5.255   8.222   7.898
21172TIP3    H163393   5.157   8.221   7.906
21172TIP3    H263394   5.264   8.187   7.808
21173TIP3   OH263395   4.905   8.418   7.287
21173TIP3    H163396   4.829   8.359   7.299
21173TIP3    H263397   4.976   8.370   7.335
21174TIP3   OH263398   3.616   8.649   6.758
21174TIP3    H163399   3.681   8.721   6.766
21174TIP3    H263400   3.665   8.594   6.692
21175TIP3   OH263401   3.560   7.921   6.892
21175TIP3    H163402   3.565   8.018   6.886
21175TIP3    H263403   3.478   7.903   6.845
21176TIP3   OH263404   4.872   9.374   7.238
21176TIP3    H163405   4.829   9.420   7.163
21176TIP3    H263406   4.966   9.391   7.216
21177TIP3   OH263407   3.951   7.642   7.764
21177TIP3    H163408   3.918   7.610   7.677
21177TIP3    H263409   3.938   7.564   7.821
21178TIP3   OH263410   3.486   8.856   7.146
21178TIP3    H163411   3.416   8.893   7.200
21178TIP3    H263412   3.465   8.897   7.059
21179TIP3   OH263413   3.682   9.364   8.199
21179TIP3    H163414   3.769   9.342   8.236
21179TIP3    H263415   3.650   9.276   8.177
21180TIP3   OH263416   4.165   9.376   8.235
21180TIP3    H163417   4.242   9.318   8.244
21180TIP3    H263418   4.108   9.320   8.179
21181TIP3   OH263419   4.110   8.944   6.389
21181TIP3    H163420   4.051   8.876   6.429
21181TIP3    H263421   4.183   8.888   6.358
21182TIP3   OH263422   4.760   9.278   7.999
21182TIP3    H163423   4.753   9.202   8.062
21182TIP3    H263424   4.844   9.319   8.025
21183TIP3   OH263425   4.545   8.984   6.299
21183TIP3    H163426   4.590   8.922   6.360
21183TIP3    H263427   4.605   8.986   6.223
21184TIP3   OH263428   3.777   8.786   8.411
21184TIP3    H163429   3.793   8.690   8.406
21184TIP3    H263430   3.688   8.795   8.371
21185TIP3   OH263431   3.763   8.480   6.612
21185TIP3    H163432   3.816   8.434   6.678
21185TIP3    H263433   3.787   8.425   6.533
21186TIP3   OH263434   4.386   8.894   8.187
21186TIP3    H163435   4.341   8.908   8.102
21186TIP3    H263436   4.416   8.801   8.181
21187TIP3   OH263437   4.261   8.663   6.417
21187TIP3    H163438   4.262   8.674   6.514
21187TIP3    H263439   4.267   8.565   6.411
21188TIP3   OH263440   4.876   8.902   7.796
21188TIP3    H163441   4.949   8.949   7.750
21188TIP3    H263442   4.803   8.964   7.783
21189TIP3   OH263443   3.896   8.533   8.398
21189TIP3    H163444   3.973   8.479   8.377
21189TIP3    H263445   3.922   8.572   8.484
21190TIP3   OH263446   3.972   8.360   6.838
21190TIP3    H163447   3.935   8.313   6.914
21190TIP3    H263448   3.997   8.286   6.778
21191TIP3   OH263449   4.230   8.427   8.060
21191TIP3    H163450   4.152   8.486   8.063
21191TIP3    H263451   4.279   8.461   7.981
21192TIP3   OH263452   4.053   8.153   6.668
21192TIP3    H163453   4.010   8.171   6.582
21192TIP3    H263454   4.148   8.162   6.647
21193TIP3   OH263455   4.746   8.827   8.193
21193TIP3    H163456   4.837   8.819   8.162
21193TIP3    H263457   4.746   8.766   8.268
21194TIP3   OH263458   4.888   8.489   6.332
21194TIP3    H163459   4.862   8.442   6.250
21194TIP3    H263460   4.854   8.579   6.310
21195TIP3   OH263461   4.354   8.215   8.186
21195TIP3    H163462   4.352   8.135   8.129
21195TIP3    H263463   4.310   8.282   8.128
21196TIP3   OH263464   4.356   7.999   7.992
21196TIP3    H163465   4.382   8.043   7.909
21196TIP3    H263466   4.261   7.978   7.975
21197TIP3   OH263467   4.384   8.538   7.866
21197TIP3    H163468   4.466   8.547   7.816
21197TIP3    H263469   4.326   8.604   7.823
21198TIP3   OH263470   4.964   8.502   8.252
21198TIP3    H163471   5.019   8.422   8.247
21198TIP3    H263472   5.027   8.572   8.230
21199TIP3   OH263473   5.009   8.745   7.970
21199TIP3    H163474   4.948   8.803   7.918
21199TIP3    H263475   5.095   8.773   7.932
21200TIP3   OH263476   4.230   8.328   8.415
21200TIP3    H163477   4.161   8.260   8.430
21200TIP3    H263478   4.265   8.302   8.327
21201TIP3   OH263479   4.487   7.765   8.059
21201TIP3    H163480   4.439   7.847   8.036
21201TIP3    H263481   4.417   7.698   8.048
21202TIP3   OH263482   4.615   8.269   8.276
21202TIP3    H163483   4.602   8.259   8.372
21202TIP3    H263484   4.524   8.246   8.245
21203TIP3   OH263485   4.853   8.214   8.130
21203TIP3    H163486   4.776   8.221   8.191
21203TIP3    H263487   4.925   8.189   8.191
21204TIP3   OH263488   5.081   8.165   8.293
21204TIP3    H163489   5.092   8.069   8.308
21204TIP3    H263490   5.076   8.201   8.383
21205TIP3   OH263491   4.070   8.108   8.467
21205TIP3    H163492   4.077   8.017   8.433
21205TIP3    H263493   4.105   8.097   8.558
21206TIP3   OH263494   4.583   7.775   8.316
21206TIP3    H163495   4.649   7.703   8.310
21206TIP3    H263496   4.542   7.769   8.228
21207TIP3   OH263497   4.648   7.990   8.477
21207TIP3    H163498   4.625   7.920   8.412
21207TIP3    H263499   4.571   8.050   8.471
21208TIP3   OH263500   3.868   9.220   6.577
21208TIP3    H163501   3.963   9.217   6.556
21208TIP3    H263502   3.836   9.268   6.498
21209TIP3   OH263503   3.349   8.600   6.796
21209TIP3    H163504   3.443   8.622   6.780
21209TIP3    H263505   3.343   8.511   6.755
21210TIP3   OH263506   3.272   9.211   7.193
21210TIP3    H163507   3.196   9.157   7.161
21210TIP3    H263508   3.305   9.155   7.266
21211TIP3   OH263509   3.401   9.065   7.389
21211TIP3    H163510   3.379   8.996   7.452
21211TIP3    H263511   3.450   9.128   7.445
21212TIP3   OH263512   5.125   9.462   7.195
21212TIP3    H163513   5.158   9.505   7.275
21212TIP3    H263514   5.182   9.500   7.126
21213TIP3   OH263515   5.158   9.486   7.480
21213TIP3    H163516   5.109   9.403   7.465
21213TIP3    H263517   5.232   9.450   7.532
21214TIP3   OH263518   5.197   9.159   8.046
21214TIP3    H163519   5.125   9.161   8.112
21214TIP3    H263520   5.242   9.245   8.060
21215TIP3   OH263521   5.017   8.674   6.668
21215TIP3    H163522   5.084   8.740   6.639
21215TIP3    H263523   5.062   8.636   6.746
21216TIP3   OH263524   5.146   8.541   6.871
21216TIP3    H163525   5.079   8.500   6.929
21216TIP3    H263526   5.209   8.581   6.935
21217TIP3   OH263527   5.201   8.932   7.307
21217TIP3    H163528   5.251   8.869   7.253
21217TIP3    H263529   5.195   9.010   7.246
21218TIP3   OH263530   5.032   9.235   7.500
21218TIP3    H163531   4.958   9.276   7.549
21218TIP3    H263532   4.984   9.187   7.429
21219TIP3   OH263533   5.084   8.449   6.519
21219TIP3    H163534   5.013   8.452   6.450
21219TIP3    H263535   5.056   8.525   6.574
21220TIP3   OH263536   4.958   8.121   6.472
21220TIP3    H163537   4.911   8.165   6.400
21220TIP3    H263538   4.930   8.028   6.460
21221TIP3   OH263539   4.961   8.398   7.018
21221TIP3    H163540   4.967   8.302   7.013
21221TIP3    H263541   4.947   8.413   7.115
21222TIP3   OH263542   3.584   8.473   7.767
21222TIP3    H163543   3.582   8.444   7.673
21222TIP3    H263544   3.682   8.475   7.782
21223TIP3   OH263545   5.251   8.824   7.874
21223TIP3    H163546   5.323   8.758   7.864
21223TIP3    H263547   5.275   8.892   7.809
21224TIP3   OH263548   5.437   8.630   7.891
21224TIP3    H163549   5.362   8.581   7.931
21224TIP3    H263550   5.508   8.565   7.906
21225TIP3   OH263551   4.899   7.856   6.459
21225TIP3    H163552   4.971   7.825   6.516
21225TIP3    H263553   4.823   7.799   6.483
21226TIP3   OH263554   4.957   8.115   6.915
21226TIP3    H163555   4.997   8.026   6.929
21226TIP3    H263556   5.014   8.148   6.844
21227TIP3   OH263557   5.119   8.287   7.409
21227TIP3    H163558   5.204   8.314   7.368
21227TIP3    H263559   5.131   8.326   7.497
21228TIP3   OH263560   5.186   8.432   7.641
21228TIP3    H163561   5.108   8.466   7.688
21228TIP3    H263562   5.218   8.513   7.595
21229TIP3   OH263563   3.802   8.159   8.438
21229TIP3    H163564   3.900   8.153   8.440
21229TIP3    H263565   3.779   8.075   8.481
21230TIP3   OH263566   5.638   8.021   8.196
21230TIP3    H163567   5.696   7.956   8.151
21230TIP3    H263568   5.609   8.078   8.122
21231TIP3   OH263569   5.066   7.864   6.950
21231TIP3    H163570   5.113   7.848   7.035
21231TIP3    H263571   5.004   7.788   6.949
21232TIP3   OH263572   3.765   7.850   7.771
21232TIP3    H163573   3.829   7.777   7.780
21232TIP3    H263574   3.826   7.926   7.764
21233TIP3   OH263575   3.569   8.124   7.845
21233TIP3    H163576   3.616   8.118   7.759
21233TIP3    H263577   3.596   8.212   7.875
21234TIP3   OH263578   5.511   8.164   8.005
21234TIP3    H163579   5.426   8.206   8.031
21234TIP3    H263580   5.477   8.095   7.944
21235TIP3   OH263581   5.148   7.798   6.586
21235TIP3    H163582   5.186   7.728   6.530
21235TIP3    H263583   5.212   7.871   6.576
21236TIP3   OH263584   3.551   7.627   7.345
21236TIP3    H163585   3.457   7.626   7.370
21236TIP3    H263586   3.549   7.686   7.266
21237TIP3   OH263587   4.711   9.331   6.852
21237TIP3    H163588   4.757   9.314   6.767
21237TIP3    H263589   4.768   9.398   6.891
21238TIP3   OH263590   3.771   7.705   8.158
21238TIP3    H163591   3.721   7.703   8.241
21238TIP3    H263592   3.705   7.746   8.098
21239TIP3   OH263593   3.818   9.124   8.244
21239TIP3    H163594   3.729   9.092   8.221
21239TIP3    H263595   3.817   9.106   8.341
21240TIP3   OH263596   3.989   9.167   7.786
21240TIP3    H163597   3.939   9.241   7.747
21240TIP3    H263598   4.074   9.182   7.738
21241TIP3   OH263599   4.438   9.408   7.926
21241TIP3    H163600   4.481   9.415   8.013
21241TIP3    H263601   4.499   9.460   7.869
21242TIP3   OH263602   4.611   9.561   7.781
21242TIP3    H163603   4.681   9.512   7.734
21242TIP3    H263604   4.663   9.621   7.837
21243TIP3   OH263605   5.407   7.929   7.880
21243TIP3    H163606   5.316   7.927   7.845
21243TIP3    H263607   5.435   7.836   7.868
21244TIP3   OH263608   3.673   9.400   7.792
21244TIP3    H163609   3.579   9.420   7.771
21244TIP3    H263610   3.680   9.459   7.871
21245TIP3   OH263611   3.910   9.403   7.661
21245TIP3    H163612   3.822   9.408   7.706
21245TIP3    H263613   3.887   9.437   7.572
21246TIP3   OH263614   4.328   9.432   7.463
21246TIP3    H163615   4.259   9.449   7.396
21246TIP3    H263616   4.339   9.521   7.502
21247TIP3   OH263617   4.596   9.374   7.516
21247TIP3    H163618   4.501   9.388   7.495
21247TIP3    H263619   4.637   9.447   7.467
21248TIP3   OH263620   4.809   9.566   7.429
21248TIP3    H163621   4.791   9.649   7.381
21248TIP3    H263622   4.830   9.504   7.356
21249TIP3   OH263623   3.577   9.219   7.547
21249TIP3    H163624   3.599   9.199   7.640
21249TIP3    H263625   3.651   9.173   7.501
21250TIP3   OH263626   3.771   9.088   7.408
21250TIP3    H163627   3.788   9.005   7.457
21250TIP3    H263628   3.861   9.127   7.402
21251TIP3   OH263629   4.036   9.186   7.409
21251TIP3    H163630   4.068   9.095   7.396
21251TIP3    H263631   4.077   9.206   7.495
21252TIP3   OH263632   4.617   7.844   7.504
21252TIP3    H163633   4.569   7.774   7.553
21252TIP3    H263634   4.682   7.792   7.454
21253TIP3   OH263635   5.138   7.716   7.406
21253TIP3    H163636   5.175   7.770   7.333
21253TIP3    H263637   5.043   7.737   7.400
21254TIP3   OH263638   5.231   7.820   7.169
21254TIP3    H163639   5.305   7.771   7.127
21254TIP3    H263640   5.262   7.912   7.154
21255TIP3   OH263641   3.862   7.550   7.516
21255TIP3    H163642   3.769   7.518   7.516
21255TIP3    H263643   3.910   7.465   7.511
21256TIP3   OH263644   3.650   7.418   7.163
21256TIP3    H163645   3.678   7.476   7.089
21256TIP3    H263646   3.618   7.483   7.228
21257TIP3   OH263647   4.307   7.579   7.396
21257TIP3    H163648   4.363   7.632   7.337
21257TIP3    H263649   4.320   7.623   7.480
21258TIP3   OH263650   4.857   7.728   7.379
21258TIP3    H163651   4.844   7.698   7.289
21258TIP3    H263652   4.838   7.646   7.431
21259TIP3   OH263653   4.882   7.652   6.942
21259TIP3    H163654   4.795   7.696   6.951
21259TIP3    H263655   4.863   7.567   6.987
21260TIP3   OH263656   3.368   8.987   6.943
21260TIP3    H163657   3.283   8.956   6.909
21260TIP3    H263658   3.353   9.083   6.938
21261TIP3   OH263659   3.764   7.575   6.930
21261TIP3    H163660   3.814   7.518   6.869
21261TIP3    H263661   3.835   7.633   6.964
21262TIP3   OH263662   4.277   7.752   7.026
21262TIP3    H163663   4.338   7.707   7.086
21262TIP3    H263664   4.297   7.846   7.049
21263TIP3   OH263665   4.137   9.181   6.524
21263TIP3    H163666   4.226   9.202   6.488
21263TIP3    H263667   4.114   9.105   6.465
21264TIP3   OH263668   4.851   9.297   6.617
21264TIP3    H163669   4.846   9.199   6.604
21264TIP3    H263670   4.812   9.328   6.533
21265TIP3   OH263671   4.069   7.830   8.405
21265TIP3    H163672   4.034   7.761   8.464
21265TIP3    H263673   4.163   7.831   8.433
21266TIP3   OH263674   4.317   7.827   8.525
21266TIP3    H163675   4.403   7.802   8.487
21266TIP3    H263676   4.304   7.757   8.592
21267TIP3   OH263677   3.441   9.019   6.582
21267TIP3    H163678   3.437   9.042   6.676
21267TIP3    H263679   3.529   8.977   6.573
21268TIP3   OH263680   5.142   7.890   8.313
21268TIP3    H163681   5.162   7.860   8.404
21268TIP3    H263682   5.231   7.886   8.272
21269TIP3   OH263683   5.082   9.442   7.807
21269TIP3    H163684   5.006   9.408   7.756
21269TIP3    H263685   5.059   9.537   7.808
21270TIP3   OH263686   6.308   8.811   6.618
21270TIP3    H163687   6.308   8.900   6.577
21270TIP3    H263688   6.265   8.760   6.546
21271TIP3   OH263689   5.650   8.711   7.317
21271TIP3    H163690   5.681   8.643   7.380
21271TIP3    H263691   5.727   8.768   7.309
21272TIP3   OH263692   6.586   9.105   6.636
21272TIP3    H163693   6.587   9.046   6.712
21272TIP3    H263694   6.614   9.189   6.679
21273TIP3   OH263695   5.619   9.113   7.056
21273TIP3    H163696   5.611   9.016   7.053
21273TIP3    H263697   5.713   9.125   7.036
21274TIP3   OH263698   5.325   8.322   6.830
21274TIP3    H163699   5.277   8.405   6.844
21274TIP3    H263700   5.255   8.268   6.789
21275TIP3   OH263701   5.384   8.610   6.999
21275TIP3    H163702   5.434   8.533   7.036
21275TIP3    H263703   5.442   8.639   6.928
21276TIP3   OH263704   6.245   9.581   6.651
21276TIP3    H163705   6.289   9.509   6.602
21276TIP3    H263706   6.230   9.539   6.737
21277TIP3   OH263707   7.161   8.352   6.991
21277TIP3    H163708   7.184   8.435   7.038
21277TIP3    H263709   7.176   8.379   6.899
21278TIP3   OH263710   6.556   8.545   7.027
21278TIP3    H163711   6.597   8.462   7.055
21278TIP3    H263712   6.514   8.519   6.943
21279TIP3   OH263713   5.896   8.200   6.999
21279TIP3    H163714   5.873   8.272   6.936
21279TIP3    H263715   5.848   8.126   6.955
21280TIP3   OH263716   6.589   8.292   6.623
21280TIP3    H163717   6.662   8.276   6.688
21280TIP3    H263718   6.640   8.328   6.549
21281TIP3   OH263719   5.529   8.402   7.106
21281TIP3    H163720   5.612   8.382   7.153
21281TIP3    H263721   5.541   8.346   7.026
21282TIP3   OH263722   5.973   8.592   6.875
21282TIP3    H163723   6.037   8.558   6.939
21282TIP3    H263724   5.924   8.511   6.849
21283TIP3   OH263725   7.211   8.554   7.170
21283TIP3    H163726   7.128   8.599   7.142
21283TIP3    H263727   7.194   8.549   7.266
21284TIP3   OH263728   5.891   8.182   7.433
21284TIP3    H163729   5.833   8.220   7.365
21284TIP3    H263730   5.839   8.203   7.514
21285TIP3   OH263731   6.246   9.025   6.444
21285TIP3    H163732   6.200   9.008   6.360
21285TIP3    H263733   6.206   9.111   6.468
21286TIP3   OH263734   5.991   8.950   7.251
21286TIP3    H163735   5.932   9.026   7.273
21286TIP3    H263736   6.043   8.984   7.176
21287TIP3   OH263737   6.803   8.292   6.792
21287TIP3    H163738   6.788   8.247   6.877
21287TIP3    H263739   6.853   8.372   6.820
21288TIP3   OH263740   5.763   8.298   7.218
21288TIP3    H163741   5.824   8.371   7.240
21288TIP3    H263742   5.812   8.257   7.143
21289TIP3   OH263743   5.825   9.156   7.329
21289TIP3    H163744   5.797   9.238   7.285
21289TIP3    H263745   5.745   9.140   7.384
21290TIP3   OH263746   5.219   8.842   6.556
21290TIP3    H163747   5.177   8.860   6.470
21290TIP3    H263748   5.245   8.931   6.585
21291TIP3   OH263749   6.648   9.330   6.780
21291TIP3    H163750   6.565   9.333   6.833
21291TIP3    H263751   6.652   9.423   6.751
21292TIP3   OH263752   6.953   8.267   7.166
21292TIP3    H163753   6.863   8.291   7.135
21292TIP3    H263754   7.009   8.291   7.089
21293TIP3   OH263755   6.251   7.903   7.147
21293TIP3    H163756   6.237   7.808   7.165
21293TIP3    H263757   6.173   7.941   7.193
21294TIP3   OH263758   6.364   9.407   6.474
21294TIP3    H163759   6.415   9.325   6.456
21294TIP3    H263760   6.425   9.473   6.435
21295TIP3   OH263761   6.508   9.190   6.383
21295TIP3    H163762   6.465   9.113   6.345
21295TIP3    H263763   6.542   9.154   6.468
21296TIP3   OH263764   6.189   8.676   6.406
21296TIP3    H163765   6.103   8.720   6.387
21296TIP3    H263766   6.225   8.664   6.316
21297TIP3   OH263767   6.139   8.449   6.122
21297TIP3    H163768   6.209   8.501   6.166
21297TIP3    H263769   6.194   8.385   6.073
21298TIP3   OH263770   7.079   8.889   6.980
21298TIP3    H163771   7.001   8.947   6.990
21298TIP3    H263772   7.118   8.926   6.898
21299TIP3   OH263773   6.520   8.750   6.383
21299TIP3    H163774   6.476   8.777   6.464
21299TIP3    H263775   6.607   8.721   6.419
21300TIP3   OH263776   6.731   8.817   7.210
21300TIP3    H163777   6.737   8.878   7.284
21300TIP3    H263778   6.635   8.801   7.207
21301TIP3   OH263779   5.758   8.746   6.790
21301TIP3    H163780   5.716   8.689   6.723
21301TIP3    H263781   5.838   8.694   6.814
21302TIP3   OH263782   5.880   9.156   6.939
21302TIP3    H163783   5.856   9.116   6.853
21302TIP3    H263784   5.970   9.125   6.951
21303TIP3   OH263785   5.901   8.718   7.138
21303TIP3    H163786   5.942   8.720   7.049
21303TIP3    H263787   5.940   8.799   7.176
21304TIP3   OH263788   6.415   9.356   6.918
21304TIP3    H163789   6.411   9.439   6.970
21304TIP3    H263790   6.415   9.286   6.987
21305TIP3   OH263791   6.030   9.283   7.464
21305TIP3    H163792   5.962   9.336   7.510
21305TIP3    H263793   5.972   9.220   7.415
21306TIP3   OH263794   6.369   8.604   6.200
21306TIP3    H163795   6.425   8.666   6.252
21306TIP3    H263796   6.394   8.628   6.107
21307TIP3   OH263797   5.786   8.827   7.570
21307TIP3    H163798   5.790   8.915   7.614
21307TIP3    H263799   5.691   8.809   7.578
21308TIP3   OH263800   6.114   9.279   6.477
21308TIP3    H163801   6.187   9.341   6.492
21308TIP3    H263802   6.045   9.337   6.441
21309TIP3   OH263803   5.828   9.447   7.565
21309TIP3    H163804   5.798   9.446   7.472
21309TIP3    H263805   5.747   9.421   7.613
21310TIP3   OH263806   6.883   7.846   6.249
21310TIP3    H163807   6.801   7.866   6.299
21310TIP3    H263808   6.896   7.930   6.199
21311TIP3   OH263809   5.625   8.588   6.595
21311TIP3    H163810   5.561   8.636   6.539
21311TIP3    H263811   5.580   8.504   6.607
21312TIP3   OH263812   6.680   9.215   5.797
21312TIP3    H163813   6.689   9.312   5.782
21312TIP3    H263814   6.773   9.185   5.785
21313TIP3   OH263815   5.407   8.973   7.502
21313TIP3    H163816   5.341   8.953   7.433
21313TIP3    H263817   5.443   8.885   7.525
21314TIP3   OH263818   5.262   9.158   7.147
21314TIP3    H163819   5.355   9.162   7.123
21314TIP3    H263820   5.247   9.246   7.185
21315TIP3   OH263821   6.218   9.408   7.316
21315TIP3    H163822   6.238   9.483   7.374
21315TIP3    H263823   6.151   9.360   7.369
21316TIP3   OH263824   5.996   9.537   6.274
21316TIP3    H163825   5.940   9.512   6.199
21316TIP3    H263826   5.958   9.622   6.303
21317TIP3   OH263827   6.193   9.433   5.918
21317TIP3    H163828   6.251   9.363   5.882
21317TIP3    H263829   6.226   9.441   6.010
21318TIP3   OH263830   6.245   9.479   6.188
21318TIP3    H163831   6.155   9.492   6.226
21318TIP3    H263832   6.290   9.436   6.262
21319TIP3   OH263833   6.935   8.740   7.397
21319TIP3    H163834   6.991   8.813   7.366
21319TIP3    H263835   7.001   8.670   7.399
21320TIP3   OH263836   5.608   9.162   7.498
21320TIP3    H163837   5.660   9.133   7.576
21320TIP3    H263838   5.535   9.096   7.498
21321TIP3   OH263839   6.011   7.978   7.275
21321TIP3    H163840   5.921   7.948   7.250
21321TIP3    H263841   5.988   8.062   7.319
21322TIP3   OH263842   6.543   8.097   7.470
21322TIP3    H163843   6.611   8.062   7.532
21322TIP3    H263844   6.459   8.074   7.514
21323TIP3   OH263845   6.772   8.507   7.381
21323TIP3    H163846   6.726   8.513   7.468
21323TIP3    H263847   6.784   8.601   7.358
21324TIP3   OH263848   6.445   8.654   5.946
21324TIP3    H163849   6.410   8.627   5.858
21324TIP3    H263850   6.524   8.704   5.919
21325TIP3   OH263851   6.158   8.027   6.247
21325TIP3    H163852   6.123   8.025   6.338
21325TIP3    H263853   6.117   7.945   6.212
21326TIP3   OH263854   5.937   8.496   7.290
21326TIP3    H163855   5.889   8.518   7.372
21326TIP3    H263856   5.924   8.578   7.236
21327TIP3   OH263857   5.823   8.378   6.808
21327TIP3    H163858   5.730   8.353   6.825
21327TIP3    H263859   5.836   8.338   6.718
21328TIP3   OH263860   6.319   8.471   6.535
21328TIP3    H163861   6.264   8.539   6.489
21328TIP3    H263862   6.371   8.436   6.461
21329TIP3   OH263863   6.485   8.746   7.612
21329TIP3    H163864   6.460   8.669   7.669
21329TIP3    H263865   6.581   8.744   7.615
21330TIP3   OH263866   6.472   8.507   6.761
21330TIP3    H163867   6.409   8.513   6.685
21330TIP3    H263868   6.507   8.418   6.741
21331TIP3   OH263869   5.762   8.524   7.503
21331TIP3    H163870   5.786   8.588   7.572
21331TIP3    H263871   5.750   8.442   7.554
21332TIP3   OH263872   5.812   8.001   6.213
21332TIP3    H163873   5.802   7.999   6.310
21332TIP3    H263874   5.733   8.053   6.187
21333TIP3   OH263875   5.353   8.044   7.085
21333TIP3    H163876   5.430   8.077   7.137
21333TIP3    H263877   5.393   8.015   7.002
21334TIP3   OH263878   5.329   8.028   6.603
21334TIP3    H163879   5.373   8.066   6.525
21334TIP3    H263880   5.267   8.100   6.624
21335TIP3   OH263881   6.472   8.741   7.198
21335TIP3    H163882   6.494   8.670   7.134
21335TIP3    H263883   6.432   8.687   7.269
21336TIP3   OH263884   6.152   8.206   6.870
21336TIP3    H163885   6.070   8.201   6.923
21336TIP3    H263886   6.220   8.208   6.939
21337TIP3   OH263887   5.586   8.258   6.879
21337TIP3    H163888   5.492   8.266   6.851
21337TIP3    H263889   5.608   8.166   6.853
21338TIP3   OH263890   5.858   8.255   6.565
21338TIP3    H163891   5.951   8.271   6.542
21338TIP3    H263892   5.809   8.277   6.483
21339TIP3   OH263893   6.645   8.276   7.068
21339TIP3    H163894   6.610   8.290   7.159
21339TIP3    H263895   6.577   8.217   7.032
21340TIP3   OH263896   5.699   8.286   6.346
21340TIP3    H163897   5.625   8.243   6.299
21340TIP3    H263898   5.749   8.322   6.270
21341TIP3   OH263899   5.766   9.076   7.709
21341TIP3    H163900   5.845   9.110   7.755
21341TIP3    H263901   5.703   9.070   7.784
21342TIP3   OH263902   5.762   8.018   6.844
21342TIP3    H163903   5.727   7.938   6.890
21342TIP3    H263904   5.809   7.980   6.769
21343TIP3   OH263905   6.207   8.411   7.279
21343TIP3    H163906   6.123   8.461   7.271
21343TIP3    H263907   6.271   8.480   7.304
21344TIP3   OH263908   5.955   8.814   6.356
21344TIP3    H163909   5.879   8.753   6.341
21344TIP3    H263910   5.932   8.852   6.444
21345TIP3   OH263911   6.851   9.040   6.986
21345TIP3    H163912   6.878   9.096   6.909
21345TIP3    H263913   6.763   9.008   6.956
21346TIP3   OH263914   6.409   8.130   6.215
21346TIP3    H163915   6.312   8.113   6.221
21346TIP3    H263916   6.416   8.225   6.236
21347TIP3   OH263917   6.334   9.128   7.352
21347TIP3    H163918   6.381   9.107   7.436
21347TIP3    H263919   6.310   9.220   7.363
21348TIP3   OH263920   6.476   8.378   6.320
21348TIP3    H163921   6.573   8.384   6.333
21348TIP3    H263922   6.458   8.456   6.264
21349TIP3   OH263923   5.641   8.837   7.028
21349TIP3    H163924   5.679   8.811   6.942
21349TIP3    H263925   5.684   8.774   7.088
21350TIP3   OH263926   6.095   8.967   6.174
21350TIP3    H163927   6.049   9.054   6.178
21350TIP3    H263928   6.039   8.913   6.233
21351TIP3   OH263929   5.520   8.760   7.640
21351TIP3    H163930   5.539   8.744   7.734
21351TIP3    H263931   5.451   8.695   7.621
21352TIP3   OH263932   6.238   8.860   7.668
21352TIP3    H163933   6.175   8.814   7.610
21352TIP3    H263934   6.323   8.838   7.623
21353TIP3   OH263935   6.494   9.397   7.274
21353TIP3    H163936   6.404   9.379   7.242
21353TIP3    H263937   6.477   9.427   7.364
21354TIP3   OH263938   6.922   8.467   6.152
21354TIP3    H163939   6.859   8.422   6.091
21354TIP3    H263940   6.917   8.556   6.112
21355TIP3   OH263941   6.623   9.286   6.063
21355TIP3    H163942   6.592   9.216   6.122
21355TIP3    H263943   6.632   9.241   5.977
21356TIP3   OH263944   6.605   8.914   6.888
21356TIP3    H163945   6.562   8.875   6.965
21356TIP3    H263946   6.652   8.838   6.850
21357TIP3   OH263947   5.737   9.140   6.654
21357TIP3    H163948   5.742   9.228   6.611
21357TIP3    H263949   5.642   9.124   6.643
21358TIP3   OH263950   5.306   8.448   6.355
21358TIP3    H163951   5.351   8.533   6.374
21358TIP3    H263952   5.229   8.454   6.415
21359TIP3   OH263953   5.884   8.912   6.599
21359TIP3    H163954   5.845   9.001   6.613
21359TIP3    H263955   5.844   8.862   6.673
21360TIP3   OH263956   6.009   9.485   7.126
21360TIP3    H163957   6.044   9.561   7.077
21360TIP3    H263958   6.090   9.451   7.167
21361TIP3   OH263959   5.682   9.383   6.539
21361TIP3    H163960   5.593   9.352   6.510
21361TIP3    H263961   5.680   9.477   6.516
21362TIP3   OH263962   6.435   9.145   7.095
21362TIP3    H163963   6.386   9.114   7.174
21362TIP3    H263964   6.462   9.062   7.055
21363TIP3   OH263965   6.373   9.014   5.963
21363TIP3    H163966   6.425   8.988   6.042
21363TIP3    H263967   6.284   8.989   5.991
21364TIP3   OH263968   6.716   9.490   5.784
21364TIP3    H163969   6.757   9.562   5.733
21364TIP3    H263970   6.635   9.536   5.814
21365TIP3   OH263971   5.733   8.266   7.650
21365TIP3    H163972   5.637   8.272   7.664
21365TIP3    H263973   5.760   8.206   7.721
21366TIP3   OH263974   6.534   8.947   6.180
21366TIP3    H163975   6.524   8.882   6.252
21366TIP3    H263976   6.631   8.946   6.167
21367TIP3   OH263977   5.450   9.357   7.285
21367TIP3    H163978   5.494   9.272   7.300
21367TIP3    H263979   5.494   9.412   7.349
21368TIP3   OH263980   5.741   8.994   5.957
21368TIP3    H163981   5.756   8.901   5.934
21368TIP3    H263982   5.727   8.987   6.054
21369TIP3   OH263983   5.696   8.999   6.226
21369TIP3    H163984   5.745   8.974   6.305
21369TIP3    H263985   5.688   9.096   6.238
21370TIP3   OH263986   5.423   8.695   6.438
21370TIP3    H163987   5.357   8.740   6.495
21370TIP3    H263988   5.434   8.763   6.369
21371TIP3   OH263989   6.566   8.328   7.323
21371TIP3    H163990   6.647   8.374   7.355
21371TIP3    H263991   6.558   8.251   7.383
21372TIP3   OH263992   6.452   8.082   6.494
21372TIP3    H163993   6.436   8.105   6.400
21372TIP3    H263994   6.489   8.166   6.530
21373TIP3   OH263995   5.958   9.200   6.182
21373TIP3    H163996   5.870   9.221   6.221
21373TIP3    H263997   5.968   9.275   6.122
21374TIP3   OH263998   6.144   8.261   6.597
21374TIP3    H163999   6.208   8.333   6.581
21374TIP3    H264000   6.146   8.254   6.695
21375TIP3   OH264001   6.404   8.574   7.400
21375TIP3    H164002   6.422   8.634   7.475
21375TIP3    H264003   6.466   8.501   7.413
21376TIP3   OH264004   6.286   7.990   6.701
21376TIP3    H164005   6.280   8.066   6.761
21376TIP3    H264006   6.345   8.026   6.631
21377TIP3   OH264007   5.701   9.274   6.245
21377TIP3    H164008   5.665   9.343   6.186
21377TIP3    H264009   5.639   9.284   6.321
21378TIP3   OH264010   5.796   7.986   6.490
21378TIP3    H164011   5.793   8.077   6.524
21378TIP3    H264012   5.892   7.968   6.497
21379TIP3   OH264013   7.038   8.465   7.371
21379TIP3    H164014   6.943   8.479   7.391
21379TIP3    H264015   7.028   8.410   7.292
21380TIP3   OH264016   6.702   8.674   6.773
21380TIP3    H164017   6.626   8.614   6.787
21380TIP3    H264018   6.774   8.628   6.820
21381TIP3   OH264019   5.408   8.906   6.253
21381TIP3    H164020   5.440   8.994   6.279
21381TIP3    H264021   5.473   8.879   6.186
21382TIP3   OH264022   5.358   8.179   6.377
21382TIP3    H164023   5.357   8.277   6.373
21382TIP3    H264024   5.274   8.156   6.335
21383TIP3   OH264025   6.647   9.596   6.702
21383TIP3    H164026   6.601   9.661   6.645
21383TIP3    H264027   6.737   9.630   6.699
21384TIP3   OH264028   5.746   7.899   7.251
21384TIP3    H164029   5.714   7.867   7.164
21384TIP3    H264030   5.735   7.820   7.307
21385TIP3   OH264031   5.445   9.645   7.695
21385TIP3    H164032   5.525   9.610   7.739
21385TIP3    H264033   5.395   9.561   7.687
21386TIP3   OH264034   5.903   9.199   5.874
21386TIP3    H164035   5.846   9.129   5.913
21386TIP3    H264036   5.979   9.145   5.846
21387TIP3   OH264037   6.340   9.241   5.787
21387TIP3    H164038   6.385   9.176   5.844
21387TIP3    H264039   6.395   9.241   5.706
21388TIP3   OH264040   5.571   9.058   7.904
21388TIP3    H164041   5.588   8.962   7.905
21388TIP3    H264042   5.484   9.063   7.859
21389TIP3   OH264043   5.550   8.715   6.090
21389TIP3    H164044   5.602   8.686   6.167
21389TIP3    H264045   5.621   8.719   6.022
21390TIP3   OH264046   6.170   9.139   7.668
21390TIP3    H164047   6.151   9.164   7.576
21390TIP3    H264048   6.223   9.058   7.657
21391TIP3   OH264049   6.058   8.915   5.903
21391TIP3    H164050   6.059   8.928   6.000
21391TIP3    H264051   6.057   8.817   5.898
21392TIP3   OH264052   6.652   9.140   7.306
21392TIP3    H164053   6.710   9.176   7.237
21392TIP3    H264054   6.566   9.178   7.279
21393TIP3   OH264055   5.690   8.800   7.882
21393TIP3    H164056   5.759   8.735   7.863
21393TIP3    H264057   5.715   8.828   7.973
21394TIP3   OH264058   5.761   8.619   6.320
21394TIP3    H164059   5.728   8.578   6.402
21394TIP3    H264060   5.793   8.542   6.269
21395TIP3   OH264061   6.029   8.687   7.544
21395TIP3    H164062   5.949   8.744   7.545
21395TIP3    H264063   6.077   8.719   7.465
21396TIP3   OH264064   5.856   8.411   6.159
21396TIP3    H164065   5.829   8.414   6.065
21396TIP3    H264066   5.954   8.418   6.151
21397TIP3   OH264067   6.681   8.744   5.821
21397TIP3    H164068   6.660   8.698   5.738
21397TIP3    H264069   6.649   8.834   5.797
21398TIP3   OH264070   6.147   8.471   7.671
21398TIP3    H164071   6.148   8.391   7.615
21398TIP3    H264072   6.107   8.538   7.611
21399TIP3   OH264073   6.149   8.252   7.489
21399TIP3    H164074   6.178   8.300   7.408
21399TIP3    H264075   6.056   8.232   7.466
21400TIP3   OH264076   6.188   8.795   7.351
21400TIP3    H164077   6.256   8.798   7.281
21400TIP3    H264078   6.124   8.859   7.315
21401TIP3   OH264079   6.023   8.586   7.895
21401TIP3    H164080   5.955   8.517   7.912
21401TIP3    H264081   6.057   8.559   7.808
21402TIP3   OH264082   6.286   8.021   7.549
21402TIP3    H164083   6.236   8.102   7.525
21402TIP3    H264084   6.217   7.952   7.534
21403TIP3   OH264085   6.405   8.530   7.751
21403TIP3    H164086   6.407   8.513   7.847
21403TIP3    H264087   6.312   8.504   7.731
21404TIP3   OH264088   6.642   8.472   7.621
21404TIP3    H164089   6.553   8.471   7.661
21404TIP3    H264090   6.696   8.499   7.697
21405TIP3   OH264091   6.920   8.379   7.853
21405TIP3    H164092   6.905   8.361   7.760
21405TIP3    H264093   6.890   8.472   7.855
21406TIP3   OH264094   5.866   8.365   7.953
21406TIP3    H164095   5.872   8.274   7.918
21406TIP3    H264096   5.900   8.352   8.044
21407TIP3   OH264097   6.377   8.030   7.807
21407TIP3    H164098   6.448   7.963   7.803
21407TIP3    H264099   6.339   8.023   7.717
21408TIP3   OH264100   6.432   8.237   7.973
21408TIP3    H164101   6.414   8.172   7.901
21408TIP3    H264102   6.356   8.299   7.962
21409TIP3   OH264103   5.664   9.481   6.060
21409TIP3    H164104   5.760   9.473   6.043
21409TIP3    H264105   5.636   9.527   5.980
21410TIP3   OH264106   5.143   8.852   6.283
21410TIP3    H164107   5.237   8.877   6.269
21410TIP3    H264108   5.140   8.765   6.238
21411TIP3   OH264109   5.053   9.474   6.691
21411TIP3    H164110   4.990   9.408   6.655
21411TIP3    H264111   5.100   9.418   6.759
21412TIP3   OH264112   5.183   9.339   6.888
21412TIP3    H164113   5.183   9.251   6.926
21412TIP3    H264114   5.249   9.386   6.942
21413TIP3   OH264115   6.814   8.931   6.155
21413TIP3    H164116   6.881   8.995   6.126
21413TIP3    H264117   6.857   8.891   6.234
21414TIP3   OH264118   6.940   8.797   6.357
21414TIP3    H164119   6.874   8.756   6.418
21414TIP3    H264120   7.004   8.838   6.419
21415TIP3   OH264121   6.968   9.176   6.787
21415TIP3    H164122   7.044   9.139   6.741
21415TIP3    H264123   6.951   9.260   6.743
21416TIP3   OH264124   6.881   8.706   6.004
21416TIP3    H164125   6.809   8.708   5.936
21416TIP3    H264126   6.852   8.782   6.059
21417TIP3   OH264127   6.753   8.379   5.960
21417TIP3    H164128   6.709   8.420   5.884
21417TIP3    H264129   6.725   8.285   5.949
21418TIP3   OH264130   6.753   8.655   6.504
21418TIP3    H164131   6.763   8.558   6.500
21418TIP3    H264132   6.743   8.669   6.601
21419TIP3   OH264133   5.383   8.725   7.253
21419TIP3    H164134   5.380   8.698   7.159
21419TIP3    H264135   5.481   8.729   7.267
21420TIP3   OH264136   6.694   8.113   5.948
21420TIP3    H164137   6.767   8.081   6.004
21420TIP3    H264138   6.619   8.055   5.969
21421TIP3   OH264139   6.752   8.371   6.401
21421TIP3    H164140   6.792   8.282   6.417
21421TIP3    H264141   6.810   8.403   6.330
21422TIP3   OH264142   6.914   8.539   6.887
21422TIP3    H164143   7.001   8.567   6.850
21422TIP3    H264144   6.921   8.580   6.976
21423TIP3   OH264145   6.975   8.679   7.116
21423TIP3    H164146   6.900   8.717   7.168
21423TIP3    H264147   7.007   8.760   7.070
21424TIP3   OH264148   5.599   8.416   7.925
21424TIP3    H164149   5.697   8.409   7.927
21424TIP3    H264150   5.575   8.331   7.968
21425TIP3   OH264151   6.862   8.120   6.437
21425TIP3    H164152   6.908   8.105   6.522
21425TIP3    H264153   6.800   8.044   6.436
21426TIP3   OH264154   5.561   8.107   7.258
21426TIP3    H164155   5.624   8.033   7.267
21426TIP3    H264156   5.622   8.182   7.251
21427TIP3   OH264157   5.365   8.381   7.332
21427TIP3    H164158   5.413   8.374   7.247
21427TIP3    H264159   5.390   8.470   7.360
21428TIP3   OH264160   7.286   8.411   7.457
21428TIP3    H164161   7.194   8.439   7.439
21428TIP3    H264162   7.280   8.318   7.430
21429TIP3   OH264163   6.944   8.055   6.072
21429TIP3    H164164   6.981   7.983   6.017
21429TIP3    H264165   7.010   8.126   6.060
21430TIP3   OH264166   5.347   7.886   6.832
21430TIP3    H164167   5.253   7.883   6.856
21430TIP3    H264168   5.345   7.944   6.753
21431TIP3   OH264169   6.510   9.590   6.339
21431TIP3    H164170   6.553   9.571   6.253
21431TIP3    H264171   6.569   9.657   6.375
21432TIP3   OH264172   5.566   7.960   7.645
21432TIP3    H164173   5.516   7.962   7.729
21432TIP3    H264174   5.501   8.003   7.585
21433TIP3   OH264175   5.607   9.404   7.741
21433TIP3    H164176   5.524   9.365   7.707
21433TIP3    H264177   5.607   9.370   7.833
21434TIP3   OH264178   5.786   9.431   7.282
21434TIP3    H164179   5.735   9.500   7.233
21434TIP3    H264180   5.870   9.440   7.232
21435TIP3   OH264181   7.199   8.167   7.363
21435TIP3    H164182   7.107   8.158   7.332
21435TIP3    H264183   7.231   8.075   7.353
21436TIP3   OH264184   5.464   9.695   7.300
21436TIP3    H164185   5.379   9.723   7.260
21436TIP3    H264186   5.437   9.690   7.392
21437TIP3   OH264187   5.692   9.652   7.149
21437TIP3    H164188   5.607   9.671   7.193
21437TIP3    H264189   5.674   9.685   7.058
21438TIP3   OH264190   6.123   9.700   6.951
21438TIP3    H164191   6.056   9.705   6.880
21438TIP3    H264192   6.086   9.766   7.013
21439TIP3   OH264193   6.389   9.634   6.979
21439TIP3    H164194   6.293   9.651   6.977
21439TIP3    H264195   6.419   9.672   6.897
21440TIP3   OH264196   5.370   9.479   7.045
21440TIP3    H164197   5.400   9.448   7.134
21440TIP3    H264198   5.442   9.439   6.990
21441TIP3   OH264199   5.567   9.357   6.913
21441TIP3    H164200   5.586   9.266   6.940
21441TIP3    H264201   5.652   9.389   6.879
21442TIP3   OH264202   5.841   9.450   6.891
21442TIP3    H164203   5.863   9.357   6.874
21442TIP3    H264204   5.876   9.461   6.981
21443TIP3   OH264205   6.409   8.096   6.983
21443TIP3    H164206   6.365   8.029   7.038
21443TIP3    H264207   6.481   8.046   6.942
21444TIP3   OH264208   6.934   7.977   6.891
21444TIP3    H164209   6.969   8.030   6.816
21444TIP3    H264210   6.838   7.995   6.885
21445TIP3   OH264211   7.028   8.079   6.655
21445TIP3    H164212   7.102   8.029   6.614
21445TIP3    H264213   7.059   8.171   6.640
21446TIP3   OH264214   5.658   7.807   7.003
21446TIP3    H164215   5.565   7.775   7.002
21446TIP3    H264216   5.706   7.722   6.998
21447TIP3   OH264217   5.448   7.675   6.651
21447TIP3    H164218   5.474   7.732   6.577
21447TIP3    H264219   5.415   7.740   6.716
21448TIP3   OH264220   6.101   7.838   6.882
21448TIP3    H164221   6.159   7.889   6.824
21448TIP3    H264222   6.121   7.877   6.969
21449TIP3   OH264223   6.652   7.985   6.866
21449TIP3    H164224   6.643   7.949   6.777
21449TIP3    H264225   6.636   7.904   6.921
21450TIP3   OH264226   6.678   7.907   6.428
21450TIP3    H164227   6.591   7.950   6.439
21450TIP3    H264228   6.662   7.823   6.475
21451TIP3   OH264229   5.560   7.834   6.415
21451TIP3    H164230   5.609   7.773   6.356
21451TIP3    H264231   5.632   7.889   6.451
21452TIP3   OH264232   6.073   8.011   6.512
21452TIP3    H164233   6.133   7.964   6.573
21452TIP3    H264234   6.095   8.103   6.537
21453TIP3   OH264235   5.931   9.437   6.008
21453TIP3    H164236   6.021   9.457   5.974
21453TIP3    H264237   5.910   9.360   5.950
21454TIP3   OH264238   6.650   9.553   6.105
21454TIP3    H164239   6.644   9.455   6.091
21454TIP3    H264240   6.608   9.586   6.023
21455TIP3   OH264241   5.866   8.088   7.893
21455TIP3    H164242   5.831   8.018   7.951
21455TIP3    H264243   5.960   8.089   7.919
21456TIP3   OH264244   6.115   8.085   8.013
21456TIP3    H164245   6.195   8.055   7.967
21456TIP3    H264246   6.101   8.014   8.080
21457TIP3   OH264247   5.242   9.281   6.079
21457TIP3    H164248   5.237   9.296   6.175
21457TIP3    H264249   5.331   9.240   6.072
21458TIP3   OH264250   6.960   8.093   7.801
21458TIP3    H164251   6.982   7.999   7.819
21458TIP3    H264252   7.032   8.116   7.737
21459TIP3   OH264253   7.122   8.581   6.314
21459TIP3    H164254   7.072   8.663   6.331
21459TIP3    H264255   7.052   8.525   6.279
21460TIP3   OH264256   7.177   8.867   6.479
21460TIP3    H164257   7.224   8.792   6.520
21460TIP3    H264258   7.239   8.896   6.411
21461TIP3   OH264259   7.684   8.458   6.494
21461TIP3    H164260   7.668   8.527   6.427
21461TIP3    H264261   7.642   8.381   6.449
21462TIP3   OH264262   8.347   8.541   6.104
21462TIP3    H164263   8.423   8.528   6.163
21462TIP3    H264264   8.389   8.598   6.037
21463TIP3   OH264265   7.321   8.664   6.586
21463TIP3    H164266   7.401   8.642   6.637
21463TIP3    H264267   7.330   8.602   6.512
21464TIP3   OH264268   7.744   8.859   6.385
21464TIP3    H164269   7.842   8.851   6.384
21464TIP3    H264270   7.717   8.769   6.358
21465TIP3   OH264271   7.669   8.430   6.897
21465TIP3    H164272   7.619   8.477   6.828
21465TIP3    H264273   7.626   8.466   6.977
21466TIP3   OH264274   7.553   8.578   6.701
21466TIP3    H164275   7.607   8.655   6.725
21466TIP3    H264276   7.608   8.535   6.630
21467TIP3   OH264277   7.020   9.097   6.048
21467TIP3    H164278   6.977   9.121   5.963
21467TIP3    H264279   7.048   9.184   6.082
21468TIP3   OH264280   8.037   8.163   6.615
21468TIP3    H164281   8.041   8.071   6.645
21468TIP3    H264282   7.965   8.198   6.673
21469TIP3   OH264283   7.948   8.897   5.862
21469TIP3    H164284   7.893   8.977   5.852
21469TIP3    H264285   8.025   8.919   5.805
21470TIP3   OH264286   7.939   8.688   5.625
21470TIP3    H164287   8.001   8.751   5.667
21470TIP3    H264288   8.000   8.639   5.565
21471TIP3   OH264289   7.560   9.013   6.264
21471TIP3    H164290   7.516   8.950   6.204
21471TIP3    H264291   7.629   8.956   6.306
21472TIP3   OH264292   8.169   8.875   5.687
21472TIP3    H164293   8.240   8.929   5.725
21472TIP3    H264294   8.185   8.891   5.591
21473TIP3   OH264295   8.677   8.107   5.730
21473TIP3    H164296   8.596   8.129   5.780
21473TIP3    H264297   8.687   8.187   5.674
21474TIP3   OH264298   7.421   8.839   6.078
21474TIP3    H164299   7.358   8.891   6.024
21474TIP3    H264300   7.364   8.767   6.107
21475TIP3   OH264301   7.219   9.636   6.165
21475TIP3    H164302   7.225   9.642   6.262
21475TIP3    H264303   7.151   9.567   6.156
21476TIP3   OH264304   7.996   9.691   5.410
21476TIP3    H164305   8.049   9.624   5.360
21476TIP3    H264306   8.026   9.674   5.500
21477TIP3   OH264307   7.811   8.234   6.764
21477TIP3    H164308   7.722   8.201   6.738
21477TIP3    H264309   7.783   8.316   6.810
21478TIP3   OH264310   8.240   8.924   5.434
21478TIP3    H164311   8.203   8.891   5.349
21478TIP3    H264312   8.329   8.953   5.403
21479TIP3   OH264313   7.933   8.301   5.736
21479TIP3    H164314   7.926   8.281   5.831
21479TIP3    H264315   7.914   8.214   5.697
21480TIP3   OH264316   7.616   8.632   6.298
21480TIP3    H164317   7.523   8.605   6.317
21480TIP3    H264318   7.631   8.595   6.211
21481TIP3   OH264319   8.061   8.685   6.002
21481TIP3    H164320   8.028   8.770   5.965
21481TIP3    H264321   8.133   8.662   5.941
21482TIP3   OH264322   7.616   8.273   5.701
21482TIP3    H164323   7.597   8.246   5.793
21482TIP3    H264324   7.529   8.306   5.671
21483TIP3   OH264325   7.149   8.305   6.568
21483TIP3    H164326   7.227   8.332   6.621
21483TIP3    H264327   7.188   8.265   6.488
21484TIP3   OH264328   7.128   8.287   6.091
21484TIP3    H164329   7.168   8.327   6.011
21484TIP3    H264330   7.062   8.356   6.113
21485TIP3   OH264331   7.934   8.442   6.361
21485TIP3    H164332   7.861   8.449   6.424
21485TIP3    H264333   8.012   8.463   6.415
21486TIP3   OH264334   7.381   8.512   6.358
21486TIP3    H164335   7.285   8.523   6.336
21486TIP3    H264336   7.395   8.417   6.345
21487TIP3   OH264337   7.519   8.533   5.831
21487TIP3    H164338   7.436   8.486   5.848
21487TIP3    H264339   7.500   8.558   5.739
21488TIP3   OH264340   7.562   8.270   6.324
21488TIP3    H164341   7.519   8.200   6.377
21488TIP3    H264342   7.633   8.219   6.282
21489TIP3   OH264343   7.742   9.088   5.838
21489TIP3    H164344   7.676   9.016   5.830
21489TIP3    H264345   7.732   9.116   5.932
21490TIP3   OH264346   8.201   8.384   5.710
21490TIP3    H164347   8.104   8.381   5.695
21490TIP3    H264348   8.221   8.479   5.710
21491TIP3   OH264349   8.269   8.639   5.808
21491TIP3    H164350   8.367   8.631   5.812
21491TIP3    H264351   8.257   8.709   5.742
21492TIP3   OH264352   7.438   9.049   6.509
21492TIP3    H164353   7.471   9.054   6.418
21492TIP3    H264354   7.489   8.976   6.545
21493TIP3   OH264355   7.878   9.225   5.638
21493TIP3    H164356   7.853   9.314   5.667
21493TIP3    H264357   7.841   9.171   5.710
21494TIP3   OH264358   8.713   8.713   5.627
21494TIP3    H164359   8.647   8.665   5.571
21494TIP3    H264360   8.710   8.797   5.575
21495TIP3   OH264361   7.538   9.394   6.159
21495TIP3    H164362   7.576   9.470   6.110
21495TIP3    H264363   7.446   9.394   6.128
21496TIP3   OH264364   7.107   8.705   5.846
21496TIP3    H164365   7.145   8.793   5.861
21496TIP3    H264366   7.025   8.710   5.901
21497TIP3   OH264367   7.703   9.175   6.096
21497TIP3    H164368   7.652   9.257   6.106
21497TIP3    H264369   7.650   9.113   6.151
21498TIP3   OH264370   7.395   9.665   5.956
21498TIP3    H164371   7.324   9.660   6.024
21498TIP3    H264372   7.475   9.670   6.009
21499TIP3   OH264373   8.162   9.275   5.444
21499TIP3    H164374   8.208   9.240   5.522
21499TIP3    H264375   8.071   9.247   5.465
21500TIP3   OH264376   7.471   8.510   7.102
21500TIP3    H164377   7.375   8.517   7.122
21500TIP3    H264378   7.499   8.440   7.162
21501TIP3   OH264379   7.544   9.255   5.456
21501TIP3    H164380   7.546   9.168   5.414
21501TIP3    H264381   7.516   9.234   5.547
21502TIP3   OH264382   7.484   9.254   5.730
21502TIP3    H164383   7.570   9.234   5.770
21502TIP3    H264384   7.485   9.352   5.728
21503TIP3   OH264385   7.224   8.955   5.925
21503TIP3    H164386   7.155   8.997   5.981
21503TIP3    H264387   7.233   9.023   5.856
21504TIP3   OH264388   8.232   8.327   5.975
21504TIP3    H164389   8.225   8.350   5.879
21504TIP3    H264390   8.267   8.411   6.012
21505TIP3   OH264391   7.749   9.468   5.690
21505TIP3    H164392   7.655   9.492   5.702
21505TIP3    H264393   7.767   9.511   5.605
21506TIP3   OH264394   8.078   8.246   6.188
21506TIP3    H164395   8.076   8.323   6.248
21506TIP3    H264396   8.144   8.277   6.121
21507TIP3   OH264397   7.488   9.532   5.736
21507TIP3    H164398   7.463   9.594   5.663
21507TIP3    H264399   7.444   9.578   5.811
21508TIP3   OH264400   7.588   8.230   5.971
21508TIP3    H164401   7.568   8.301   6.032
21508TIP3    H264402   7.684   8.218   5.984
21509TIP3   OH264403   7.208   9.159   5.734
21509TIP3    H164404   7.269   9.234   5.738
21509TIP3    H264405   7.249   9.108   5.661
21510TIP3   OH264406   7.163   8.438   5.866
21510TIP3    H164407   7.149   8.535   5.862
21510TIP3    H264408   7.085   8.406   5.819
21511TIP3   OH264409   7.544   8.154   6.737
21511TIP3    H164410   7.510   8.120   6.651
21511TIP3    H264411   7.533   8.076   6.795
21512TIP3   OH264412   7.083   9.368   6.117
21512TIP3    H164413   7.012   9.400   6.175
21512TIP3    H264414   7.056   9.411   6.032
21513TIP3   OH264415   7.715   9.451   5.375
21513TIP3    H164416   7.650   9.383   5.404
21513TIP3    H264417   7.778   9.396   5.325
21514TIP3   OH264418   8.137   9.502   5.277
21514TIP3    H164419   8.172   9.426   5.328
21514TIP3    H264420   8.182   9.495   5.190
21515TIP3   OH264421   7.342   8.975   5.580
21515TIP3    H164422   7.403   8.951   5.651
21515TIP3    H264423   7.405   8.980   5.504
21516TIP3   OH264424   7.854   9.166   5.376
21516TIP3    H164425   7.849   9.184   5.473
21516TIP3    H264426   7.857   9.067   5.378
21517TIP3   OH264427   7.562   8.877   5.813
21517TIP3    H164428   7.515   8.836   5.888
21517TIP3    H264429   7.583   8.803   5.754
21518TIP3   OH264430   7.678   8.662   5.648
21518TIP3    H164431   7.635   8.662   5.558
21518TIP3    H264432   7.770   8.686   5.620
21519TIP3   OH264433   8.471   9.002   5.306
21519TIP3    H164434   8.452   8.953   5.224
21519TIP3    H264435   8.444   9.093   5.278
21520TIP3   OH264436   7.464   9.739   5.555
21520TIP3    H164437   7.560   9.733   5.534
21520TIP3    H264438   7.431   9.776   5.471
21521TIP3   OH264439   6.940   9.111   5.771
21521TIP3    H164440   7.034   9.134   5.753
21521TIP3    H264441   6.933   9.024   5.726
21522TIP3   OH264442   6.847   9.726   6.180
21522TIP3    H164443   6.782   9.663   6.143
21522TIP3    H264444   6.900   9.667   6.237
21523TIP3   OH264445   7.002   9.585   6.356
21523TIP3    H164446   6.980   9.520   6.424
21523TIP3    H264447   6.987   9.667   6.406
21524TIP3   OH264448   8.666   8.938   5.485
21524TIP3    H164449   8.597   8.951   5.416
21524TIP3    H264450   8.675   9.027   5.520
21525TIP3   OH264451   8.531   8.638   5.440
21525TIP3    H164452   8.516   8.654   5.346
21525TIP3    H264453   8.499   8.546   5.448
21526TIP3   OH264454   7.180   8.974   6.739
21526TIP3    H164455   7.181   8.950   6.645
21526TIP3    H264456   7.258   9.032   6.747
21527TIP3   OH264457   8.466   8.376   5.512
21527TIP3    H164458   8.559   8.346   5.507
21527TIP3    H264459   8.424   8.330   5.437
21528TIP3   OH264460   8.541   8.621   5.843
21528TIP3    H164461   8.578   8.536   5.874
21528TIP3    H264462   8.612   8.652   5.784
21529TIP3   OH264463   8.648   8.386   5.960
21529TIP3    H164464   8.728   8.345   5.995
21529TIP3    H264465   8.591   8.308   5.942
21530TIP3   OH264466   7.360   8.363   6.734
21530TIP3    H164467   7.425   8.292   6.750
21530TIP3    H264468   7.416   8.442   6.744
21531TIP3   OH264469   7.163   8.634   6.819
21531TIP3    H164470   7.210   8.640   6.734
21531TIP3    H264471   7.172   8.725   6.853
21532TIP3   OH264472   8.732   8.307   5.538
21532TIP3    H164473   8.770   8.230   5.489
21532TIP3    H264474   8.806   8.369   5.538
21533TIP3   OH264475   7.143   8.145   6.321
21533TIP3    H164476   7.049   8.138   6.345
21533TIP3    H264477   7.140   8.201   6.241
21534TIP3   OH264478   7.359   8.213   7.133
21534TIP3    H164479   7.303   8.203   7.211
21534TIP3    H264480   7.296   8.252   7.069
21535TIP3   OH264481   8.191   8.355   6.471
21535TIP3    H164482   8.140   8.281   6.510
21535TIP3    H264483   8.258   8.308   6.415
21536TIP3   OH264484   7.454   8.066   6.485
21536TIP3    H164485   7.362   8.032   6.487
21536TIP3    H264486   7.504   7.982   6.483
21537TIP3   OH264487   7.244   7.931   6.138
21537TIP3    H164488   7.268   7.989   6.064
21537TIP3    H264489   7.210   7.995   6.204
21538TIP3   OH264490   7.890   8.101   6.367
21538TIP3    H164491   7.951   8.150   6.309
21538TIP3    H264492   7.921   8.132   6.454
21539TIP3   OH264493   8.394   8.233   6.330
21539TIP3    H164494   8.463   8.217   6.263
21539TIP3    H264495   8.416   8.163   6.395
21540TIP3   OH264496   8.475   8.167   5.915
21540TIP3    H164497   8.386   8.205   5.919
21540TIP3    H264498   8.462   8.083   5.964
21541TIP3   OH264499   6.957   9.507   5.923
21541TIP3    H164500   6.874   9.471   5.886
21541TIP3    H264501   6.948   9.599   5.894
21542TIP3   OH264502   7.353   8.088   5.898
21542TIP3    H164503   7.398   8.022   5.841
21542TIP3    H264504   7.430   8.135   5.936
21543TIP3   OH264505   7.864   8.291   6.012
21543TIP3    H164506   7.907   8.213   6.051
21543TIP3    H264507   7.917   8.359   6.055
21544TIP3   OH264508   7.726   9.698   5.488
21544TIP3    H164509   7.815   9.722   5.455
21544TIP3    H264510   7.710   9.618   5.433
21545TIP3   OH264511   7.034   9.526   5.554
21545TIP3    H164512   7.037   9.559   5.645
21545TIP3    H264513   7.124   9.487   5.543
21546TIP3   OH264514   9.412   8.545   5.191
21546TIP3    H164515   9.389   8.487   5.264
21546TIP3    H264516   9.326   8.578   5.160
21547TIP3   OH264517   8.948   8.565   5.589
21547TIP3    H164518   8.968   8.596   5.498
21547TIP3    H264519   8.869   8.618   5.607
21548TIP3   OH264520   8.939   8.686   5.352
21548TIP3    H164521   8.950   8.780   5.338
21548TIP3    H264522   8.871   8.659   5.288
21549TIP3   OH264523   8.918   8.357   5.755
21549TIP3    H164524   8.841   8.393   5.801
21549TIP3    H264525   8.945   8.436   5.702
21550TIP3   OH264526   9.045   8.168   5.606
21550TIP3    H164527   9.068   8.229   5.534
21550TIP3    H264528   9.001   8.229   5.670
21551TIP3   OH264529   9.140   8.339   5.385
21551TIP3    H164530   9.191   8.277   5.328
21551TIP3    H264531   9.210   8.387   5.431
21552TIP3   OH264532   1.205   9.086   7.265
21552TIP3    H164533   1.237   9.019   7.202
21552TIP3    H264534   1.239   9.169   7.229
21553TIP3   OH264535   3.271   9.670   7.669
21553TIP3    H164536   3.180   9.706   7.658
21553TIP3    H264537   3.303   9.676   7.576
21554TIP3   OH264538   2.633   9.565   7.286
21554TIP3    H164539   2.697   9.572   7.360
21554TIP3    H264540   2.673   9.625   7.222
21555TIP3   OH264541   2.841   9.604   7.467
21555TIP3    H164542   2.852   9.520   7.513
21555TIP3    H264543   2.931   9.629   7.446
21556TIP3   OH264544   2.185   9.729   6.824
21556TIP3    H164545   2.252   9.793   6.849
21556TIP3    H264546   2.228   9.682   6.751
21557TIP3   OH264547   2.199   9.330   6.909
21557TIP3    H164548   2.176   9.325   7.003
21557TIP3    H264549   2.164   9.244   6.879
21558TIP3   OH264550   2.370   9.757   7.136
21558TIP3    H164551   2.326   9.823   7.083
21558TIP3    H264552   2.441   9.727   7.076
21559TIP3   OH264553   1.854   9.300   6.869
21559TIP3    H164554   1.859   9.295   6.967
21559TIP3    H264555   1.778   9.359   6.858
21560TIP3   OH264556   1.939   9.498   7.135
21560TIP3    H164557   2.019   9.553   7.133
21560TIP3    H264558   1.871   9.554   7.093
21561TIP3   OH264559   1.703   9.573   7.007
21561TIP3    H164560   1.657   9.543   6.927
21561TIP3    H264561   1.751   9.651   6.972
21562TIP3   OH264562   1.747   9.243   7.425
21562TIP3    H164563   1.761   9.237   7.521
21562TIP3    H264564   1.832   9.280   7.396
21563TIP3   OH264565   2.442   9.450   6.846
21563TIP3    H164566   2.356   9.423   6.885
21563TIP3    H264567   2.463   9.533   6.893
21564TIP3   OH264568   2.545   9.697   6.937
21564TIP3    H164569   2.632   9.675   6.978
21564TIP3    H264570   2.564   9.782   6.896
21565TIP3   OH264571   2.964   9.757   6.821
21565TIP3    H164572   2.899   9.716   6.759
21565TIP3    H264573   2.968   9.846   6.784
21566TIP3   OH264574   2.457   9.407   7.152
21566TIP3    H164575   2.500   9.391   7.067
21566TIP3    H264576   2.524   9.462   7.199
21567TIP3   OH264577   2.192   9.560   7.249
21567TIP3    H164578   2.262   9.603   7.197
21567TIP3    H264579   2.206   9.609   7.332
21568TIP3   OH264580   2.331   9.286   7.365
21568TIP3    H164581   2.363   9.334   7.444
21568TIP3    H264582   2.372   9.340   7.293
21569TIP3   OH264583   1.842   9.247   7.139
21569TIP3    H164584   1.843   9.343   7.158
21569TIP3    H264585   1.937   9.229   7.154
21570TIP3   OH264586   1.900   9.713   6.870
21570TIP3    H164587   1.880   9.664   6.788
21570TIP3    H264588   1.997   9.718   6.869
21571TIP3   OH264589   2.787   9.688   6.619
21571TIP3    H164590   2.769   9.702   6.526
21571TIP3    H264591   2.769   9.591   6.625
21572TIP3   OH264592   2.817   9.932   7.176
21572TIP3    H164593   2.823   9.835   7.173
21572TIP3    H264594   2.819   9.949   7.272
21573TIP3   OH264595   2.736   9.422   6.608
21573TIP3    H164596   2.820   9.397   6.652
21573TIP3    H264597   2.672   9.360   6.647
21574TIP3   OH264598   2.794   9.652   7.061
21574TIP3    H164599   2.819   9.558   7.077
21574TIP3    H264600   2.864   9.677   6.998
21575TIP3   OH264601   2.994   9.383   6.686
21575TIP3    H164602   3.031   9.293   6.696
21575TIP3    H264603   3.067   9.439   6.718
21576TIP3   OH264604   2.436   9.359   7.618
21576TIP3    H164605   2.449   9.338   7.711
21576TIP3    H264606   2.528   9.372   7.589
21577TIP3   OH264607   2.982   9.311   7.587
21577TIP3    H164608   3.029   9.337   7.505
21577TIP3    H264609   2.889   9.299   7.557
21578TIP3   OH264610   3.100   9.386   7.356
21578TIP3    H164611   3.130   9.331   7.282
21578TIP3    H264612   3.104   9.473   7.312
21579TIP3   OH264613   1.489   8.954   7.289
21579TIP3    H164614   1.521   9.008   7.214
21579TIP3    H264615   1.462   9.024   7.351
21580TIP3   OH264616   2.162   9.112   7.520
21580TIP3    H164617   2.219   9.171   7.468
21580TIP3    H264618   2.135   9.171   7.593
21581TIP3   OH264619   2.708   9.287   7.527
21581TIP3    H164620   2.688   9.262   7.436
21581TIP3    H264621   2.680   9.207   7.578
21582TIP3   OH264622   1.599   9.122   7.079
21582TIP3    H164623   1.648   9.066   7.017
21582TIP3    H264624   1.673   9.175   7.117
21583TIP3   OH264625   2.130   9.287   7.175
21583TIP3    H164626   2.195   9.264   7.244
21583TIP3    H264627   2.123   9.383   7.193
21584TIP3   OH264628   3.168   9.895   6.978
21584TIP3    H164629   3.121   9.967   7.021
21584TIP3    H264630   3.097   9.830   6.964
21585TIP3   OH264631   5.001   9.913   7.148
21585TIP3    H164632   5.028   9.998   7.188
21585TIP3    H264633   5.018   9.932   7.054
21586TIP3   OH264634   4.402  10.096   7.174
21586TIP3    H164635   4.444  10.010   7.194
21586TIP3    H264636   4.364  10.076   7.086
21587TIP3   OH264637   3.736   9.758   7.150
21587TIP3    H164638   3.716   9.831   7.087
21587TIP3    H264639   3.689   9.684   7.105
21588TIP3   OH264640   4.431   9.845   6.773
21588TIP3    H164641   4.504   9.830   6.837
21588TIP3    H264642   4.480   9.883   6.698
21589TIP3   OH264643   3.380   9.968   7.251
21589TIP3    H164644   3.454   9.930   7.300
21589TIP3    H264645   3.381   9.914   7.169
21590TIP3   OH264646   3.823  10.161   7.040
21590TIP3    H164647   3.909  10.123   7.064
21590TIP3    H264648   3.773  10.084   7.008
21591TIP3   OH264649   5.082  10.117   7.320
21591TIP3    H164650   5.002  10.165   7.290
21591TIP3    H264651   5.099  10.161   7.405
21592TIP3   OH264652   3.732   9.741   7.587
21592TIP3    H164653   3.669   9.777   7.522
21592TIP3    H264654   3.679   9.736   7.667
21593TIP3   OH264655   4.642   9.852   6.941
21593TIP3    H164656   4.636   9.800   7.022
21593TIP3    H264657   4.692   9.931   6.970
21594TIP3   OH264658   3.607   9.855   7.370
21594TIP3    H164659   3.669   9.929   7.387
21594TIP3    H264660   3.652   9.812   7.294
21595TIP3   OH264661   4.793   9.819   7.316
21595TIP3    H164662   4.704   9.844   7.284
21595TIP3    H264663   4.851   9.849   7.243
21596TIP3   OH264664   4.094   9.461   7.301
21596TIP3    H164665   4.076   9.366   7.313
21596TIP3    H264666   4.015   9.500   7.344
21597TIP3   OH264667   3.999   9.974   6.324
21597TIP3    H164668   4.015  10.067   6.313
21597TIP3    H264669   4.047   9.936   6.247
21598TIP3   OH264670   4.629  10.331   7.418
21598TIP3    H164671   4.639  10.425   7.398
21598TIP3    H264672   4.531  10.322   7.406
21599TIP3   OH264673   4.723   9.408   6.397
21599TIP3    H164674   4.642   9.425   6.450
21599TIP3    H264675   4.732   9.492   6.348
21600TIP3   OH264676   4.853  10.304   7.601
21600TIP3    H164677   4.765  10.301   7.558
21600TIP3    H264678   4.872  10.209   7.608
21601TIP3   OH264679   3.853   9.536   7.423
21601TIP3    H164680   3.763   9.505   7.399
21601TIP3    H264681   3.830   9.621   7.465
21602TIP3   OH264682   4.383   9.654   7.622
21602TIP3    H164683   4.449   9.622   7.686
21602TIP3    H264684   4.298   9.632   7.665
21603TIP3   OH264685   4.633  10.072   7.543
21603TIP3    H164686   4.577  10.073   7.624
21603TIP3    H264687   4.605  10.154   7.498
21604TIP3   OH264688   4.001   9.583   6.396
21604TIP3    H164689   3.966   9.585   6.487
21604TIP3    H264690   3.960   9.500   6.364
21605TIP3   OH264691   3.781  10.064   7.438
21605TIP3    H164692   3.744  10.097   7.522
21605TIP3    H264693   3.769  10.141   7.380
21606TIP3   OH264694   3.668   9.937   6.960
21606TIP3    H164695   3.574   9.910   6.974
21606TIP3    H264696   3.682   9.899   6.870
21607TIP3   OH264697   4.171  10.027   6.688
21607TIP3    H164698   4.088  10.075   6.665
21607TIP3    H264699   4.207  10.007   6.599
21608TIP3   OH264700   4.306  10.042   6.926
21608TIP3    H164701   4.246  10.058   6.849
21608TIP3    H264702   4.350   9.962   6.889
21609TIP3   OH264703   3.650   9.556   6.364
21609TIP3    H164704   3.644   9.552   6.461
21609TIP3    H264705   3.571   9.609   6.343
21610TIP3   OH264706   3.186   9.617   7.223
21610TIP3    H164707   3.266   9.632   7.276
21610TIP3    H264708   3.217   9.563   7.148
21611TIP3   OH264709   3.177   9.583   6.756
21611TIP3    H164710   3.218   9.623   6.676
21611TIP3    H264711   3.113   9.652   6.779
21612TIP3   OH264712   4.361  10.278   7.364
21612TIP3    H164713   4.372  10.212   7.292
21612TIP3    H264714   4.293  10.232   7.417
21613TIP3   OH264715   3.994   9.750   7.020
21613TIP3    H164716   3.908   9.757   7.067
21613TIP3    H264717   4.055   9.774   7.091
21614TIP3   OH264718   3.428   9.816   7.023
21614TIP3    H164719   3.333   9.822   6.997
21614TIP3    H264720   3.449   9.723   7.004
21615TIP3   OH264721   3.705   9.813   6.718
21615TIP3    H164722   3.794   9.837   6.688
21615TIP3    H264723   3.649   9.832   6.639
21616TIP3   OH264724   4.486   9.834   7.222
21616TIP3    H164725   4.449   9.846   7.312
21616TIP3    H264726   4.420   9.772   7.184
21617TIP3   OH264727   3.536   9.829   6.507
21617TIP3    H164728   3.475   9.791   6.441
21617TIP3    H264729   3.577   9.900   6.454
21618TIP3   OH264730   4.070  10.058   7.105
21618TIP3    H164731   4.156  10.045   7.064
21618TIP3    H264732   4.089  10.055   7.200
21619TIP3   OH264733   3.604   9.575   6.997
21619TIP3    H164734   3.566   9.497   7.041
21619TIP3    H264735   3.646   9.537   6.919
21620TIP3   OH264736   4.046   9.965   7.402
21620TIP3    H164737   3.962  10.014   7.407
21620TIP3    H264738   4.108  10.024   7.449
21621TIP3   OH264739   4.246   9.699   6.361
21621TIP3    H164740   4.150   9.677   6.373
21621TIP3    H264741   4.249   9.795   6.384
21622TIP3   OH264742   4.320   9.955   6.451
21622TIP3    H164743   4.411   9.943   6.483
21622TIP3    H264744   4.323  10.042   6.407
21623TIP3   OH264745   4.761  10.015   6.305
21623TIP3    H164746   4.696   9.976   6.243
21623TIP3    H264747   4.756  10.108   6.278
21624TIP3   OH264748   4.415   9.890   7.484
21624TIP3    H164749   4.501   9.919   7.519
21624TIP3    H264750   4.399   9.807   7.534
21625TIP3   OH264751   4.293   9.639   6.642
21625TIP3    H164752   4.277   9.665   6.550
21625TIP3    H264753   4.330   9.720   6.682
21626TIP3   OH264754   3.993   9.816   6.748
21626TIP3    H164755   4.057   9.888   6.735
21626TIP3    H264756   3.988   9.811   6.846
21627TIP3   OH264757   4.234  10.106   7.540
21627TIP3    H164758   4.267  10.168   7.608
21627TIP3    H264759   4.301  10.034   7.540
21628TIP3   OH264760   4.127   9.548   6.853
21628TIP3    H164761   4.110   9.627   6.908
21628TIP3    H264762   4.186   9.585   6.784
21629TIP3   OH264763   3.638   9.543   6.640
21629TIP3    H164764   3.632   9.635   6.671
21629TIP3    H264765   3.735   9.529   6.649
21630TIP3   OH264766   4.898  10.030   7.542
21630TIP3    H164767   4.799  10.029   7.547
21630TIP3    H264768   4.909  10.003   7.450
21631TIP3   OH264769   4.535  10.214   6.904
21631TIP3    H164770   4.463  10.159   6.937
21631TIP3    H264771   4.608  10.191   6.963
21632TIP3   OH264772   3.196   9.739   6.527
21632TIP3    H164773   3.208   9.834   6.519
21632TIP3    H264774   3.111   9.722   6.484
21633TIP3   OH264775   3.589   9.458   7.400
21633TIP3    H164776   3.556   9.424   7.314
21633TIP3    H264777   3.576   9.379   7.458
21634TIP3   OH264778   3.704   9.984   6.350
21634TIP3    H164779   3.681   9.962   6.258
21634TIP3    H264780   3.801   9.980   6.349
21635TIP3   OH264781   4.006   9.971   7.842
21635TIP3    H164782   3.992   9.906   7.770
21635TIP3    H264783   3.980  10.054   7.797
21636TIP3   OH264784   3.994   9.802   7.621
21636TIP3    H164785   4.017   9.849   7.538
21636TIP3    H264786   3.898   9.786   7.607
21637TIP3   OH264787   4.127   9.578   7.703
21637TIP3    H164788   4.078   9.659   7.674
21637TIP3    H264789   4.058   9.510   7.689
21638TIP3   OH264790   4.494  10.033   7.771
21638TIP3    H164791   4.416  10.010   7.823
21638TIP3    H264792   4.567  10.009   7.831
21639TIP3   OH264793   4.728   9.981   7.937
21639TIP3    H164794   4.733   9.883   7.941
21639TIP3    H264795   4.715  10.005   8.029
21640TIP3   OH264796   4.228   9.588   7.957
21640TIP3    H164797   4.283   9.507   7.948
21640TIP3    H264798   4.178   9.585   7.872
21641TIP3   OH264799   4.398   9.800   8.010
21641TIP3    H164800   4.356   9.717   7.979
21641TIP3    H264801   4.318   9.848   8.038
21642TIP3   OH264802   4.590   9.942   6.103
21642TIP3    H164803   4.559   9.961   6.015
21642TIP3    H264804   4.568   9.847   6.110
21643TIP3   OH264805   4.628  10.192   6.652
21643TIP3    H164806   4.625  10.096   6.663
21643TIP3    H264807   4.604  10.220   6.743
21644TIP3   OH264808   5.048  10.473   7.521
21644TIP3    H164809   4.973  10.424   7.562
21644TIP3    H264810   5.119  10.409   7.535
21645TIP3   OH264811   4.534   9.677   6.096
21645TIP3    H164812   4.612   9.643   6.146
21645TIP3    H264813   4.463   9.617   6.122
21646TIP3   OH264814   4.584   9.919   6.550
21646TIP3    H164815   4.626   9.830   6.564
21646TIP3    H264816   4.646   9.956   6.485
21647TIP3   OH264817   4.755  10.098   7.037
21647TIP3    H164818   4.839  10.128   6.995
21647TIP3    H264819   4.770  10.137   7.126
21648TIP3   OH264820   4.838  10.233   7.265
21648TIP3    H164821   4.759  10.263   7.316
21648TIP3    H264822   4.881  10.319   7.244
21649TIP3   OH264823   5.275   9.815   7.832
21649TIP3    H164824   5.335   9.768   7.771
21649TIP3    H264825   5.248   9.893   7.778
21650TIP3   OH264826   4.703   9.676   6.587
21650TIP3    H164827   4.750   9.662   6.672
21650TIP3    H264828   4.642   9.599   6.587
21651TIP3   OH264829   3.400   9.661   7.406
21651TIP3    H164830   3.465   9.588   7.407
21651TIP3    H264831   3.459   9.738   7.400
21652TIP3   OH264832   3.278   9.950   7.514
21652TIP3    H164833   3.281   9.929   7.419
21652TIP3    H264834   3.234  10.036   7.512
21653TIP3   OH264835   5.128   9.974   7.661
21653TIP3    H164836   5.037  10.007   7.639
21653TIP3    H264837   5.130   9.901   7.596
21654TIP3   OH264838   4.781   9.618   6.213
21654TIP3    H164839   4.827   9.539   6.179
21654TIP3    H264840   4.855   9.683   6.214
21655TIP3   OH264841   3.195   9.444   6.989
21655TIP3    H164842   3.104   9.413   7.013
21655TIP3    H264843   3.177   9.499   6.910
21656TIP3   OH264844   3.411   9.473   7.791
21656TIP3    H164845   3.373   9.478   7.880
21656TIP3    H264846   3.366   9.548   7.745
21657TIP3   OH264847   5.044   9.739   7.519
21657TIP3    H164848   4.954   9.737   7.481
21657TIP3    H264849   5.072   9.645   7.505
21658TIP3   OH264850   4.261   9.658   7.145
21658TIP3    H164851   4.206   9.591   7.190
21658TIP3    H264852   4.320   9.604   7.090
21659TIP3   OH264853   4.775   9.541   7.047
21659TIP3    H164854   4.810   9.590   6.969
21659TIP3    H264855   4.679   9.552   7.035
21660TIP3   OH264856   4.867   9.639   6.808
21660TIP3    H164857   4.939   9.586   6.767
21660TIP3    H264858   4.900   9.730   6.791
21661TIP3   OH264859   3.500   9.366   7.154
21661TIP3    H164860   3.407   9.334   7.154
21661TIP3    H264861   3.547   9.280   7.148
21662TIP3   OH264862   3.275   9.235   6.796
21662TIP3    H164863   3.310   9.295   6.728
21662TIP3    H264864   3.254   9.297   6.869
21663TIP3   OH264865   3.944   9.393   7.031
21663TIP3    H164866   4.002   9.447   6.974
21663TIP3    H264867   3.954   9.438   7.116
21664TIP3   OH264868   4.496   9.542   7.014
21664TIP3    H164869   4.485   9.506   6.925
21664TIP3    H264870   4.478   9.463   7.070
21665TIP3   OH264871   4.518   9.466   6.579
21665TIP3    H164872   4.431   9.507   6.591
21665TIP3    H264873   4.504   9.380   6.625
21666TIP3   OH264874   3.401   9.396   6.560
21666TIP3    H164875   3.451   9.332   6.507
21666TIP3    H264876   3.472   9.450   6.600
21667TIP3   OH264877   3.916   9.569   6.661
21667TIP3    H164878   3.973   9.522   6.722
21667TIP3    H264879   3.936   9.662   6.687
21668TIP3   OH264880   3.648   9.560   8.004
21668TIP3    H164881   3.662   9.503   8.082
21668TIP3    H264882   3.700   9.640   8.027
21669TIP3   OH264883   3.971   9.571   8.117
21669TIP3    H164884   4.056   9.540   8.082
21669TIP3    H264885   3.980   9.548   8.211
21670TIP3   OH264886   4.779   9.708   7.943
21670TIP3    H164887   4.801   9.674   8.033
21670TIP3    H264888   4.866   9.703   7.898
21671TIP3   OH264889   4.963  10.153   6.464
21671TIP3    H164890   4.918  10.223   6.513
21671TIP3    H264891   4.892  10.088   6.452
21672TIP3   OH264892   6.137  10.357   6.670
21672TIP3    H164893   6.216  10.310   6.697
21672TIP3    H264894   6.143  10.353   6.573
21673TIP3   OH264895   5.533  10.014   6.635
21673TIP3    H164896   5.513  10.087   6.573
21673TIP3    H264897   5.485   9.940   6.592
21674TIP3   OH264898   6.229  10.101   6.259
21674TIP3    H164899   6.300  10.088   6.325
21674TIP3    H264900   6.280  10.137   6.184
21675TIP3   OH264901   5.158  10.200   6.752
21675TIP3    H164902   5.246  10.190   6.792
21675TIP3    H264903   5.173  10.163   6.663
21676TIP3   OH264904   5.624  10.417   6.513
21676TIP3    H164905   5.705  10.375   6.547
21676TIP3    H264906   5.568  10.340   6.490
21677TIP3   OH264907   5.525   9.998   7.075
21677TIP3    H164908   5.469  10.033   7.003
21677TIP3    H264909   5.471  10.023   7.153
21678TIP3   OH264910   6.445  10.114   6.431
21678TIP3    H164911   6.424  10.041   6.491
21678TIP3    H264912   6.524  10.150   6.472
21679TIP3   OH264913   5.404  10.110   6.856
21679TIP3    H164914   5.462  10.187   6.875
21679TIP3    H264915   5.452  10.070   6.780
21680TIP3   OH264916   5.889   9.715   6.783
21680TIP3    H164917   5.872   9.620   6.800
21680TIP3    H264918   5.813   9.755   6.830
21681TIP3   OH264919   5.771  10.238   5.777
21681TIP3    H164920   5.820  10.308   5.822
21681TIP3    H264921   5.837  10.203   5.715
21682TIP3   OH264922   6.521   9.663   5.885
21682TIP3    H164923   6.438   9.681   5.935
21682TIP3    H264924   6.532   9.746   5.835
21683TIP3   OH264925   5.648   9.791   6.913
21683TIP3    H164926   5.558   9.762   6.886
21683TIP3    H264927   5.626   9.875   6.957
21684TIP3   OH264928   5.791   9.846   5.880
21684TIP3    H164929   5.764   9.843   5.974
21684TIP3    H264930   5.757   9.758   5.851
21685TIP3   OH264931   5.576  10.317   6.922
21685TIP3    H164932   5.529  10.329   7.008
21685TIP3    H264933   5.570  10.407   6.886
21686TIP3   OH264934   5.463  10.194   6.445
21686TIP3    H164935   5.370  10.167   6.461
21686TIP3    H264936   5.477  10.156   6.356
21687TIP3   OH264937   5.963  10.282   6.170
21687TIP3    H164938   5.882  10.333   6.147
21687TIP3    H264939   6.005  10.266   6.084
21688TIP3   OH264940   6.104  10.312   6.400
21688TIP3    H164941   6.046  10.318   6.321
21688TIP3    H264942   6.152  10.230   6.374
21689TIP3   OH264943   5.430  10.332   7.154
21689TIP3    H164944   5.414  10.397   7.224
21689TIP3    H264945   5.391  10.251   7.191
21690TIP3   OH264946   5.432   9.814   5.846
21690TIP3    H164947   5.452   9.800   5.941
21690TIP3    H264948   5.355   9.873   5.856
21691TIP3   OH264949   4.988   9.865   6.720
21691TIP3    H164950   5.067   9.892   6.772
21691TIP3    H264951   5.025   9.823   6.640
21692TIP3   OH264952   4.968   9.836   6.235
21692TIP3    H164953   5.020   9.875   6.162
21692TIP3    H264954   4.909   9.910   6.260
21693TIP3   OH264955   5.790  10.008   6.504
21693TIP3    H164956   5.705  10.009   6.553
21693TIP3    H264957   5.851  10.039   6.573
21694TIP3   OH264958   5.224  10.075   6.510
21694TIP3    H164959   5.129  10.080   6.486
21694TIP3    H264960   5.247   9.982   6.494
21695TIP3   OH264961   5.498  10.067   6.203
21695TIP3    H164962   5.590  10.091   6.181
21695TIP3    H264963   5.447  10.095   6.124
21696TIP3   OH264964   6.268  10.081   6.706
21696TIP3    H164965   6.229  10.080   6.794
21696TIP3    H264966   6.203  10.025   6.659
21697TIP3   OH264967   5.324  10.091   5.986
21697TIP3    H164968   5.255  10.060   5.925
21697TIP3    H264969   5.379  10.146   5.926
21698TIP3   OH264970   5.865  10.312   6.593
21698TIP3    H164971   5.950  10.311   6.546
21698TIP3    H264972   5.896  10.330   6.683
21699TIP3   OH264973   5.395   9.830   6.484
21699TIP3    H164974   5.364   9.749   6.529
21699TIP3    H264975   5.452   9.793   6.415
21700TIP3   OH264976   5.845  10.237   6.918
21700TIP3    H164977   5.752  10.262   6.900
21700TIP3    H264978   5.889  10.322   6.918
21701TIP3   OH264979   6.042   9.955   5.850
21701TIP3    H164980   5.946   9.935   5.860
21701TIP3    H264981   6.048  10.050   5.871
21702TIP3   OH264982   6.116  10.213   5.936
21702TIP3    H164983   6.207  10.200   5.968
21702TIP3    H264984   6.124  10.298   5.889
21703TIP3   OH264985   6.533  10.260   5.804
21703TIP3    H164986   6.474  10.233   5.729
21703TIP3    H264987   6.563  10.347   5.774
21704TIP3   OH264988   5.367  10.085   7.295
21704TIP3    H164989   5.269  10.086   7.297
21704TIP3    H264990   5.387  10.015   7.358
21705TIP3   OH264991   6.088   9.896   6.129
21705TIP3    H164992   6.075   9.921   6.036
21705TIP3    H264993   6.127   9.977   6.168
21706TIP3   OH264994   5.785  10.074   6.235
21706TIP3    H164995   5.852  10.144   6.223
21706TIP3    H264996   5.782  10.067   6.333
21707TIP3   OH264997   5.924   9.805   6.342
21707TIP3    H164998   5.905   9.884   6.396
21707TIP3    H264999   5.982   9.843   6.272
21708TIP3   OH265000   5.438   9.801   6.121
21708TIP3    H165001   5.434   9.891   6.158
21708TIP3    H265002   5.533   9.781   6.137
21709TIP3   OH265003   4.995   9.994   5.997
21709TIP3    H165004   4.995  10.089   6.015
21709TIP3    H265005   4.902   9.971   5.987
21710TIP3   OH265006   5.382   9.712   6.887
21710TIP3    H165007   5.354   9.676   6.800
21710TIP3    H265008   5.372   9.634   6.945
21711TIP3   OH265009   5.496  10.209   5.814
21711TIP3    H165010   5.492  10.157   5.733
21711TIP3    H265011   5.593  10.227   5.818
21712TIP3   OH265012   5.791  10.046   7.110
21712TIP3    H165013   5.815  10.113   7.043
21712TIP3    H265014   5.694  10.042   7.101
21713TIP3   OH265015   5.929   9.814   7.119
21713TIP3    H165016   5.880   9.899   7.116
21713TIP3    H265017   5.856   9.752   7.136
21714TIP3   OH265018   6.375  10.201   5.587
21714TIP3    H165019   6.359  10.217   5.494
21714TIP3    H265020   6.356  10.104   5.592
21715TIP3   OH265021   6.379  10.457   6.144
21715TIP3    H165022   6.392  10.362   6.131
21715TIP3    H265023   6.392  10.467   6.239
21716TIP3   OH265024   6.329   9.935   5.587
21716TIP3    H165025   6.409   9.901   5.633
21716TIP3    H265026   6.261   9.869   5.610
21717TIP3   OH265027   6.388  10.183   6.040
21717TIP3    H165028   6.428  10.094   6.053
21717TIP3    H265029   6.441  10.212   5.963
21718TIP3   OH265030   5.228  10.209   7.550
21718TIP3    H165031   5.320  10.194   7.573
21718TIP3    H265032   5.185  10.141   7.604
21719TIP3   OH265033   6.490   9.932   6.076
21719TIP3    H165034   6.541   9.912   6.157
21719TIP3    H265035   6.430   9.854   6.074
21720TIP3   OH265036   5.197   9.918   6.898
21720TIP3    H165037   5.262   9.845   6.903
21720TIP3    H265038   5.256   9.995   6.887
21721TIP3   OH265039   5.002  10.203   6.976
21721TIP3    H165040   5.050  10.192   6.891
21721TIP3    H265041   5.017  10.296   6.993
21722TIP3   OH265042   6.576   9.872   5.701
21722TIP3    H165043   6.619   9.798   5.654
21722TIP3    H265044   6.646   9.941   5.699
21723TIP3   OH265045   4.986   9.715   6.478
21723TIP3    H165046   4.892   9.697   6.497
21723TIP3    H265047   4.982   9.757   6.390
21724TIP3   OH265048   5.205   9.784   7.288
21724TIP3    H165049   5.147   9.776   7.365
21724TIP3    H265050   5.142   9.819   7.222
21725TIP3   OH265051   6.056   9.911   6.632
21725TIP3    H165052   6.000   9.846   6.678
21725TIP3    H265053   6.113   9.855   6.576
21726TIP3   OH265054   6.562   9.807   6.546
21726TIP3    H165055   6.599   9.844   6.462
21726TIP3    H265056   6.466   9.808   6.528
21727TIP3   OH265057   6.654   9.881   6.300
21727TIP3    H165058   6.729   9.827   6.265
21727TIP3    H265059   6.683   9.969   6.265
21728TIP3   OH265060   5.300   9.605   6.642
21728TIP3    H165061   5.205   9.580   6.643
21728TIP3    H265062   5.341   9.519   6.622
21729TIP3   OH265063   5.048   9.493   6.263
21729TIP3    H165064   5.104   9.552   6.210
21729TIP3    H265065   5.056   9.530   6.352
21730TIP3   OH265066   5.728   9.666   6.513
21730TIP3    H165067   5.798   9.711   6.463
21730TIP3    H265068   5.752   9.686   6.604
21731TIP3   OH265069   6.288   9.796   6.495
21731TIP3    H165070   6.273   9.755   6.408
21731TIP3    H265071   6.271   9.720   6.555
21732TIP3   OH265072   6.313   9.720   6.065
21732TIP3    H165073   6.225   9.761   6.078
21732TIP3    H265074   6.300   9.634   6.112
21733TIP3   OH265075   5.200   9.662   6.041
21733TIP3    H165076   5.247   9.588   5.999
21733TIP3    H265077   5.274   9.710   6.084
21734TIP3   OH265078   5.715   9.826   6.145
21734TIP3    H165079   5.766   9.776   6.210
21734TIP3    H265080   5.735   9.917   6.175
21735TIP3   OH265081   5.491   9.907   7.557
21735TIP3    H165082   5.476   9.816   7.590
21735TIP3    H265083   5.567   9.897   7.499
21736TIP3   OH265084   6.756  10.407   5.907
21736TIP3    H165085   6.750  10.470   5.980
21736TIP3    H265086   6.692  10.340   5.933
21737TIP3   OH265087   7.612  10.083   5.356
21737TIP3    H165088   7.574  10.112   5.439
21737TIP3    H265089   7.557  10.005   5.334
21738TIP3   OH265090   7.249  10.075   5.332
21738TIP3    H165091   7.237  10.067   5.429
21738TIP3    H265092   7.170  10.127   5.308
21739TIP3   OH265093   6.753  10.085   6.157
21739TIP3    H165094   6.832  10.131   6.191
21739TIP3    H265095   6.791  10.042   6.079
21740TIP3   OH265096   6.763  10.098   5.722
21740TIP3    H165097   6.810  10.139   5.646
21740TIP3    H265098   6.711  10.174   5.753
21741TIP3   OH265099   7.131  10.313   5.487
21741TIP3    H165100   7.061  10.298   5.421
21741TIP3    H265101   7.176  10.390   5.447
21742TIP3   OH265102   7.219  10.042   5.605
21742TIP3    H165103   7.189  10.121   5.653
21742TIP3    H265104   7.300  10.018   5.652
21743TIP3   OH265105   6.791  10.253   5.495
21743TIP3    H165106   6.801  10.349   5.497
21743TIP3    H265107   6.702  10.239   5.463
21744TIP3   OH265108   7.284  10.473   5.323
21744TIP3    H165109   7.251  10.426   5.243
21744TIP3    H265110   7.374  10.494   5.295
21745TIP3   OH265111   6.772   9.931   5.932
21745TIP3    H165112   6.680   9.942   5.961
21745TIP3    H265113   6.777   9.998   5.859
21746TIP3   OH265114   7.072   9.859   6.064
21746TIP3    H165115   6.980   9.830   6.079
21746TIP3    H265116   7.122   9.779   6.087
21747TIP3   OH265117   6.878   9.737   5.767
21747TIP3    H165118   6.909   9.797   5.696
21747TIP3    H265119   6.847   9.802   5.834
21748TIP3   OH265120   6.988   9.900   5.533
21748TIP3    H165121   7.035   9.837   5.475
21748TIP3    H265122   7.064   9.954   5.566
21749TIP3   OH265123   6.778   2.150   9.532
21749TIP3    H165124   6.791   2.245   9.509
21749TIP3    H265125   6.869   2.115   9.515
21750TIP3   OH265126   6.264   2.369   9.631
21750TIP3    H165127   6.331   2.300   9.619
21750TIP3    H265128   6.264   2.380   9.727
21751TIP3   OH265129   6.557   1.618   9.678
21751TIP3    H165130   6.514   1.566   9.608
21751TIP3    H265131   6.646   1.632   9.640
21752TIP3   OH265132   6.760   2.199   9.798
21752TIP3    H165133   6.687   2.142   9.827
21752TIP3    H265134   6.761   2.179   9.702
21753TIP3   OH265135   6.814   2.421   9.515
21753TIP3    H165136   6.861   2.495   9.473
21753TIP3    H265137   6.732   2.468   9.540
21754TIP3   OH265138   5.988   2.107   9.593
21754TIP3    H165139   5.938   2.057   9.659
21754TIP3    H265140   6.073   2.058   9.593
21755TIP3   OH265141   6.437   2.162   9.507
21755TIP3    H165142   6.484   2.182   9.589
21755TIP3    H265143   6.504   2.173   9.437
21756TIP3   OH265144   6.794   1.681   9.552
21756TIP3    H165145   6.770   1.629   9.473
21756TIP3    H265146   6.758   1.769   9.527
21757TIP3   OH265147   6.819   2.503   9.795
21757TIP3    H165148   6.822   2.409   9.772
21757TIP3    H265149   6.747   2.537   9.737
21758TIP3   OH265150   7.597   2.167   9.203
21758TIP3    H165151   7.650   2.093   9.170
21758TIP3    H265152   7.649   2.198   9.279
21759TIP3   OH265153   7.531   2.446   9.446
21759TIP3    H165154   7.529   2.522   9.384
21759TIP3    H265155   7.586   2.481   9.517
21760TIP3   OH265156   7.306   2.102   9.450
21760TIP3    H165157   7.330   2.180   9.502
21760TIP3    H265158   7.359   2.114   9.370
21761TIP3   OH265159   7.781   2.385   9.077
21761TIP3    H165160   7.737   2.363   9.162
21761TIP3    H265161   7.864   2.337   9.088
21762TIP3   OH265162   7.570   2.666   9.290
21762TIP3    H165163   7.666   2.661   9.271
21762TIP3    H265164   7.539   2.715   9.212
21763TIP3   OH265165   7.031   2.053   9.487
21763TIP3    H165166   7.126   2.070   9.498
21763TIP3    H265167   7.032   1.960   9.455
21764TIP3   OH265168   7.007   2.655   9.915
21764TIP3    H165169   6.932   2.611   9.871
21764TIP3    H265170   7.016   2.600   9.995
21765TIP3   OH265171   7.066   2.419   9.648
21765TIP3    H165172   6.980   2.396   9.609
21765TIP3    H265173   7.049   2.509   9.679
21766TIP3   OH265174   7.833   2.610   9.214
21766TIP3    H165175   7.869   2.669   9.146
21766TIP3    H265176   7.811   2.530   9.162
21767TIP3   OH265177   7.132   2.463   9.302
21767TIP3    H165178   7.127   2.480   9.398
21767TIP3    H265179   7.221   2.423   9.293
21768TIP3   OH265180   4.614   3.711   9.617
21768TIP3    H165181   4.606   3.808   9.609
21768TIP3    H265182   4.710   3.695   9.603
21769TIP3   OH265183   4.602   3.990   9.651
21769TIP3    H165184   4.677   4.037   9.610
21769TIP3    H265185   4.538   4.061   9.655
21770TIP3   OH265186   7.836   5.423   0.539
21770TIP3    H165187   7.842   5.510   0.492
21770TIP3    H265188   7.822   5.366   0.460
21771TIP3   OH265189   6.308   3.842  10.015
21771TIP3    H165190   6.315   3.785  10.093
21771TIP3    H265191   6.338   3.926  10.051
21772TIP3   OH265192   5.970   4.309  10.038
21772TIP3    H165193   6.025   4.248   9.984
21772TIP3    H265194   6.014   4.304  10.124
21773TIP3   OH265195   5.955   3.765   9.831
21773TIP3    H165196   5.942   3.754   9.735
21773TIP3    H265197   5.930   3.860   9.840
21774TIP3   OH265198   6.109   4.152   9.867
21774TIP3    H165199   6.150   4.068   9.837
21774TIP3    H265200   6.166   4.215   9.818
21775TIP3   OH265201   6.231   3.930   9.759
21775TIP3    H165202   6.229   3.853   9.701
21775TIP3    H265203   6.269   3.891   9.841
21776TIP3   OH265204   5.905   3.401   9.744
21776TIP3    H165205   5.817   3.429   9.713
21776TIP3    H265206   5.956   3.397   9.660
21777TIP3   OH265207   5.877   3.192   9.503
21777TIP3    H165208   5.954   3.237   9.542
21777TIP3    H265209   5.925   3.124   9.449
21778TIP3   OH265210   6.262   3.490   9.757
21778TIP3    H165211   6.226   3.499   9.848
21778TIP3    H265212   6.352   3.462   9.782
21779TIP3   OH265213   6.108   3.351   9.571
21779TIP3    H165214   6.167   3.408   9.626
21779TIP3    H265215   6.136   3.377   9.479
21780TIP3   OH265216   5.860   4.019   9.848
21780TIP3    H165217   5.925   4.085   9.875
21780TIP3    H265218   5.780   4.071   9.833
21781TIP3   OH265219   6.618   2.589   9.623
21781TIP3    H165220   6.531   2.604   9.667
21781TIP3    H265221   6.629   2.673   9.573
21782TIP3   OH265222   6.417   3.961   9.173
21782TIP3    H165223   6.431   4.058   9.163
21782TIP3    H265224   6.509   3.928   9.161
21783TIP3   OH265225   5.719   4.288   9.652
21783TIP3    H165226   5.680   4.244   9.574
21783TIP3    H265227   5.675   4.373   9.650
21784TIP3   OH265228   5.928   4.174   9.299
21784TIP3    H165229   5.990   4.106   9.266
21784TIP3    H265230   5.959   4.186   9.391
21785TIP3   OH265231   5.974   4.223   9.567
21785TIP3    H165232   5.890   4.228   9.617
21785TIP3    H265233   6.034   4.187   9.635
21786TIP3   OH265234   6.184   3.412   9.322
21786TIP3    H165235   6.146   3.376   9.239
21786TIP3    H265236   6.270   3.446   9.290
21787TIP3   OH265237   5.885   2.803   9.611
21787TIP3    H165238   5.899   2.797   9.707
21787TIP3    H265239   5.884   2.708   9.590
21788TIP3   OH265240   6.069   3.217   9.876
21788TIP3    H165241   6.022   3.274   9.812
21788TIP3    H265242   6.126   3.165   9.815
21789TIP3   OH265243   5.539   2.747   9.597
21789TIP3    H165244   5.539   2.787   9.685
21789TIP3    H265245   5.463   2.792   9.555
21790TIP3   OH265246   5.428   3.017   9.698
21790TIP3    H165247   5.360   2.980   9.638
21790TIP3    H265248   5.476   3.076   9.636
21791TIP3   OH265249   5.666   3.564   9.727
21791TIP3    H165250   5.601   3.495   9.698
21791TIP3    H265251   5.669   3.542   9.822
21792TIP3   OH265252   6.142   2.882   9.571
21792TIP3    H165253   6.045   2.877   9.581
21792TIP3    H265254   6.165   2.970   9.609
21793TIP3   OH265255   6.230   3.118   9.676
21793TIP3    H165256   6.322   3.122   9.710
21793TIP3    H265257   6.223   3.199   9.622
21794TIP3   OH265258   5.835   3.712   9.560
21794TIP3    H165259   5.790   3.800   9.565
21794TIP3    H265260   5.775   3.658   9.616
21795TIP3   OH265261   6.659   3.207   9.527
21795TIP3    H165262   6.594   3.166   9.465
21795TIP3    H265263   6.657   3.298   9.490
21796TIP3   OH265264   6.349   4.031   9.437
21796TIP3    H165265   6.336   3.958   9.499
21796TIP3    H265266   6.370   3.986   9.354
21797TIP3   OH265267   5.424   4.084   9.855
21797TIP3    H165268   5.338   4.083   9.900
21797TIP3    H265269   5.475   4.138   9.917
21798TIP3   OH265270   6.109   3.769   9.343
21798TIP3    H165271   6.161   3.742   9.422
21798TIP3    H265272   6.024   3.727   9.364
21799TIP3   OH265273   6.451   4.234   9.164
21799TIP3    H165274   6.490   4.305   9.110
21799TIP3    H265275   6.372   4.283   9.196
21800TIP3   OH265276   6.272   3.704   9.570
21800TIP3    H165277   6.260   3.629   9.632
21800TIP3    H265278   6.368   3.694   9.550
21801TIP3   OH265279   5.480   3.739   9.343
21801TIP3    H165280   5.488   3.648   9.308
21801TIP3    H265281   5.456   3.720   9.436
21802TIP3   OH265282   5.428   3.741   9.618
21802TIP3    H165283   5.509   3.715   9.665
21802TIP3    H265284   5.434   3.839   9.615
21803TIP3   OH265285   6.113   2.853   9.845
21803TIP3    H165286   6.133   2.835   9.752
21803TIP3    H265287   6.200   2.887   9.877
21804TIP3   OH265288   5.696   3.943   9.565
21804TIP3    H165289   5.605   3.968   9.591
21804TIP3    H265290   5.705   3.995   9.484
21805TIP3   OH265291   5.437   4.012   9.598
21805TIP3    H165292   5.392   4.085   9.552
21805TIP3    H265293   5.427   4.041   9.692
21806TIP3   OH265294   5.157   3.666   9.610
21806TIP3    H165295   5.240   3.718   9.607
21806TIP3    H265296   5.186   3.589   9.558
21807TIP3   OH265297   6.406   4.372  10.078
21807TIP3    H165298   6.357   4.429  10.016
21807TIP3    H265299   6.496   4.411  10.073
21808TIP3   OH265300   5.645   3.943   9.263
21808TIP3    H165301   5.584   3.873   9.295
21808TIP3    H265302   5.716   3.888   9.226
21809TIP3   OH265303   6.092   3.981   9.160
21809TIP3    H165304   6.105   3.920   9.236
21809TIP3    H265305   6.177   3.971   9.116
21810TIP3   OH265306   5.287   3.464   9.472
21810TIP3    H165307   5.332   3.422   9.548
21810TIP3    H265308   5.359   3.462   9.406
21811TIP3   OH265309   5.799   3.662   9.284
21811TIP3    H165310   5.796   3.670   9.382
21811TIP3    H265311   5.799   3.564   9.275
21812TIP3   OH265312   5.479   3.366   9.673
21812TIP3    H165313   5.463   3.323   9.759
21812TIP3    H265314   5.519   3.291   9.624
21813TIP3   OH265315   5.598   3.157   9.537
21813TIP3    H165316   5.570   3.155   9.443
21813TIP3    H265317   5.695   3.161   9.527
21814TIP3   OH265318   6.416   3.494   9.199
21814TIP3    H165319   6.398   3.442   9.118
21814TIP3    H265320   6.383   3.582   9.170
21815TIP3   OH265321   5.401   4.258   9.464
21815TIP3    H165322   5.493   4.237   9.439
21815TIP3    H265323   5.363   4.275   9.377
21816TIP3   OH265324   4.874   3.620   9.590
21816TIP3    H165325   4.961   3.634   9.632
21816TIP3    H265326   4.874   3.523   9.577
21817TIP3   OH265327   6.660   4.475  10.066
21817TIP3    H165328   6.700   4.541  10.125
21817TIP3    H265329   6.704   4.499   9.983
21818TIP3   OH265330   6.548   3.680   9.535
21818TIP3    H165331   6.619   3.739   9.505
21818TIP3    H265332   6.591   3.638   9.613
21819TIP3   OH265333   6.674   3.548   9.736
21819TIP3    H165334   6.613   3.502   9.799
21819TIP3    H265335   6.745   3.580   9.796
21820TIP3   OH265336   6.713   3.928  10.087
21820TIP3    H165337   6.793   3.871  10.082
21820TIP3    H265338   6.745   4.011  10.047
21821TIP3   OH265339   6.616   3.453   9.385
21821TIP3    H165340   6.545   3.454   9.318
21821TIP3    H265341   6.589   3.528   9.441
21822TIP3   OH265342   6.484   3.126   9.337
21822TIP3    H165343   6.445   3.157   9.255
21822TIP3    H265344   6.462   3.031   9.333
21823TIP3   OH265345   6.491   3.399   9.882
21823TIP3    H165346   6.497   3.305   9.852
21823TIP3    H265347   6.470   3.388   9.976
21824TIP3   OH265348   6.431   2.861   9.327
21824TIP3    H165349   6.505   2.826   9.381
21824TIP3    H265350   6.357   2.801   9.348
21825TIP3   OH265351   6.507   3.148   9.755
21825TIP3    H165352   6.523   3.057   9.786
21825TIP3    H265353   6.570   3.156   9.681
21826TIP3   OH265354   6.603   2.863   9.814
21826TIP3    H165355   6.650   2.858   9.900
21826TIP3    H265356   6.555   2.778   9.810
21827TIP3   OH265357   6.679   2.800   9.449
21827TIP3    H165358   6.721   2.727   9.399
21827TIP3    H265359   6.747   2.870   9.444
21828TIP3   OH265360   6.233   4.329   9.708
21828TIP3    H165361   6.296   4.321   9.633
21828TIP3    H265362   6.276   4.397   9.764
21829TIP3   OH265363   6.404   2.650   9.789
21829TIP3    H165364   6.314   2.685   9.786
21829TIP3    H265365   6.411   2.620   9.882
21830TIP3   OH265366   4.887   3.992   9.704
21830TIP3    H165367   4.838   3.945   9.774
21830TIP3    H265368   4.857   4.085   9.714
21831TIP3   OH265369   5.663   4.186   9.391
21831TIP3    H165370   5.754   4.203   9.358
21831TIP3    H265371   5.640   4.109   9.335
21832TIP3   OH265372   6.389   4.298   9.482
21832TIP3    H165373   6.379   4.200   9.471
21832TIP3    H265374   6.346   4.330   9.401
21833TIP3   OH265375   4.983   4.033   9.457
21833TIP3    H165376   4.950   4.021   9.549
21833TIP3    H265377   5.059   3.973   9.457
21834TIP3   OH265378   7.876   3.820   9.450
21834TIP3    H165379   7.848   3.909   9.419
21834TIP3    H265380   7.808   3.765   9.408
21835TIP3   OH265381   7.796   3.814   9.804
21835TIP3    H165382   7.870   3.796   9.864
21835TIP3    H265383   7.834   3.795   9.717
21836TIP3   OH265384   7.191   3.737  10.190
21836TIP3    H165385   7.195   3.672  10.262
21836TIP3    H265386   7.278   3.727  10.147
21837TIP3   OH265387   8.123   4.118   9.494
21837TIP3    H165388   8.121   4.049   9.560
21837TIP3    H265389   8.149   4.196   9.546
21838TIP3   OH265390   7.149   4.124   9.917
21838TIP3    H165391   7.142   4.026   9.914
21838TIP3    H265392   7.244   4.133   9.898
21839TIP3   OH265393   6.860   3.331   9.689
21839TIP3    H165394   6.807   3.411   9.703
21839TIP3    H265395   6.791   3.267   9.668
21840TIP3   OH265396   6.916   3.605   9.857
21840TIP3    H165397   6.961   3.530   9.904
21840TIP3    H265398   6.979   3.623   9.787
21841TIP3   OH265399   7.770   4.580   9.515
21841TIP3    H165400   7.817   4.509   9.466
21841TIP3    H265401   7.767   4.544   9.604
21842TIP3   OH265402   7.656   4.042   9.874
21842TIP3    H165403   7.686   3.955   9.839
21842TIP3    H265404   7.737   4.093   9.869
21843TIP3   OH265405   7.401   3.212   9.876
21843TIP3    H165406   7.378   3.281   9.811
21843TIP3    H265407   7.368   3.132   9.829
21844TIP3   OH265408   7.064   3.411   9.972
21844TIP3    H165409   7.136   3.382  10.031
21844TIP3    H265410   7.074   3.347   9.899
21845TIP3   OH265411   7.492   3.597   9.764
21845TIP3    H165412   7.583   3.565   9.762
21845TIP3    H265413   7.444   3.518   9.729
21846TIP3   OH265414   7.774   4.036   9.310
21846TIP3    H165415   7.732   4.011   9.226
21846TIP3    H265416   7.729   4.120   9.330
21847TIP3   OH265417   7.521   3.960  10.104
21847TIP3    H165418   7.461   4.030  10.131
21847TIP3    H265419   7.572   4.004  10.033
21848TIP3   OH265420   7.290   3.325  10.100
21848TIP3    H165421   7.363   3.387  10.105
21848TIP3    H265422   7.327   3.259  10.036
21849TIP3   OH265423   6.753   3.844   9.429
21849TIP3    H165424   6.717   3.871   9.343
21849TIP3    H265425   6.787   3.928   9.465
21850TIP3   OH265426   8.176   4.346   9.651
21850TIP3    H165427   8.093   4.344   9.705
21850TIP3    H265428   8.177   4.439   9.621
21851TIP3   OH265429   7.897   4.407   9.345
21851TIP3    H165430   7.945   4.324   9.322
21851TIP3    H265431   7.957   4.472   9.302
21852TIP3   OH265432   8.037   4.193   9.245
21852TIP3    H165433   8.004   4.113   9.203
21852TIP3    H265434   8.073   4.157   9.329
21853TIP3   OH265435   7.716   3.678   9.267
21853TIP3    H165436   7.632   3.723   9.243
21853TIP3    H265437   7.758   3.666   9.180
21854TIP3   OH265438   7.671   3.450   8.985
21854TIP3    H165439   7.740   3.500   9.033
21854TIP3    H265440   7.727   3.386   8.937
21855TIP3   OH265441   8.047   3.747   9.244
21855TIP3    H165442   7.993   3.777   9.321
21855TIP3    H265443   8.123   3.709   9.289
21856TIP3   OH265444   7.291   3.749   9.651
21856TIP3    H165445   7.248   3.689   9.587
21856TIP3    H265446   7.365   3.694   9.684
21857TIP3   OH265447   7.410   4.158   9.804
21857TIP3    H165448   7.393   4.112   9.720
21857TIP3    H265449   7.498   4.123   9.828
21858TIP3   OH265450   7.420   3.716  10.022
21858TIP3    H165451   7.454   3.693   9.934
21858TIP3    H265452   7.471   3.797  10.043
21859TIP3   OH265453   7.958   4.351   9.825
21859TIP3    H165454   7.934   4.446   9.826
21859TIP3    H265455   7.900   4.314   9.893
21860TIP3   OH265456   7.897   3.604   9.064
21860TIP3    H165457   7.955   3.663   9.118
21860TIP3    H265458   7.925   3.630   8.972
21861TIP3   OH265459   7.643   4.287   9.344
21861TIP3    H165460   7.722   4.342   9.358
21861TIP3    H265461   7.581   4.349   9.303
21862TIP3   OH265462   7.157   3.590   9.462
21862TIP3    H165463   7.089   3.630   9.404
21862TIP3    H265464   7.120   3.503   9.478
21863TIP3   OH265465   8.214   4.216   8.664
21863TIP3    H165466   8.224   4.312   8.648
21863TIP3    H265467   8.306   4.185   8.651
21864TIP3   OH265468   6.799   4.180   9.992
21864TIP3    H165469   6.895   4.169   9.984
21864TIP3    H265470   6.792   4.256  10.053
21865TIP3   OH265471   7.523   4.533   9.144
21865TIP3    H165472   7.478   4.512   9.060
21865TIP3    H265473   7.491   4.623   9.164
21866TIP3   OH265474   6.961   4.383   9.528
21866TIP3    H165475   7.011   4.373   9.612
21866TIP3    H265476   6.906   4.303   9.531
21867TIP3   OH265477   7.726   4.434   8.785
21867TIP3    H165478   7.785   4.364   8.748
21867TIP3    H265479   7.760   4.442   8.876
21868TIP3   OH265480   7.775   4.482   9.055
21868TIP3    H165481   7.687   4.491   9.098
21868TIP3    H265482   7.826   4.438   9.126
21869TIP3   OH265483   7.973   3.663   8.811
21869TIP3    H165484   7.942   3.629   8.724
21869TIP3    H265485   8.059   3.700   8.786
21870TIP3   OH265486   7.693   3.030   9.108
21870TIP3    H165487   7.668   3.034   9.202
21870TIP3    H265488   7.647   2.948   9.082
21871TIP3   OH265489   7.348   3.388   9.669
21871TIP3    H165490   7.257   3.355   9.686
21871TIP3    H265491   7.367   3.342   9.584
21872TIP3   OH265492   7.848   3.468   9.394
21872TIP3    H165493   7.795   3.539   9.353
21872TIP3    H265494   7.900   3.434   9.319
21873TIP3   OH265495   7.346   3.001   9.080
21873TIP3    H165496   7.337   2.998   9.177
21873TIP3    H265497   7.266   3.051   9.055
21874TIP3   OH265498   6.912   3.081   9.913
21874TIP3    H165499   6.993   3.078   9.964
21874TIP3    H265500   6.926   3.013   9.844
21875TIP3   OH265501   6.864   3.026   9.469
21875TIP3    H165502   6.909   3.065   9.391
21875TIP3    H265503   6.802   3.099   9.490
21876TIP3   OH265504   7.630   3.262   9.717
21876TIP3    H165505   7.550   3.225   9.758
21876TIP3    H265506   7.696   3.231   9.781
21877TIP3   OH265507   7.120   3.260   9.742
21877TIP3    H165508   7.024   3.268   9.719
21877TIP3    H265509   7.140   3.168   9.722
21878TIP3   OH265510   7.386   3.254   9.432
21878TIP3    H165511   7.481   3.267   9.413
21878TIP3    H265512   7.342   3.280   9.347
21879TIP3   OH265513   7.229   3.291   9.210
21879TIP3    H165514   7.157   3.245   9.163
21879TIP3    H265515   7.281   3.325   9.135
21880TIP3   OH265516   7.300   3.025   9.703
21880TIP3    H165517   7.263   2.946   9.748
21880TIP3    H265518   7.326   2.988   9.618
21881TIP3   OH265519   7.479   3.822   9.216
21881TIP3    H165520   7.409   3.754   9.207
21881TIP3    H265521   7.463   3.854   9.309
21882TIP3   OH265522   7.938   3.144   9.057
21882TIP3    H165523   7.843   3.127   9.079
21882TIP3    H265524   7.959   3.226   9.107
21883TIP3   OH265525   8.029   3.383   9.179
21883TIP3    H165526   8.126   3.381   9.171
21883TIP3    H265527   8.004   3.457   9.121
21884TIP3   OH265528   7.184   3.854   9.886
21884TIP3    H165529   7.220   3.816   9.803
21884TIP3    H265530   7.206   3.786   9.951
21885TIP3   OH265531   7.628   3.969   9.039
21885TIP3    H165532   7.581   4.055   9.046
21885TIP3    H265533   7.573   3.913   9.098
21886TIP3   OH265534   8.470   3.429   8.914
21886TIP3    H165535   8.377   3.401   8.913
21886TIP3    H265536   8.459   3.525   8.905
21887TIP3   OH265537   8.155   4.287   8.929
21887TIP3    H165538   8.126   4.216   8.988
21887TIP3    H265539   8.166   4.242   8.843
21888TIP3   OH265540   7.275   4.144   9.518
21888TIP3    H165541   7.276   4.226   9.465
21888TIP3    H265542   7.181   4.127   9.528
21889TIP3   OH265543   6.838   3.450   9.221
21889TIP3    H165544   6.886   3.532   9.243
21889TIP3    H265545   6.762   3.454   9.283
21890TIP3   OH265546   7.418   3.912   9.464
21890TIP3    H165547   7.380   4.000   9.482
21890TIP3    H265548   7.380   3.859   9.536
21891TIP3   OH265549   7.549   4.483   9.965
21891TIP3    H165550   7.597   4.560   9.933
21891TIP3    H265551   7.606   4.446  10.033
21892TIP3   OH265552   7.194   4.385   9.371
21892TIP3    H165553   7.109   4.391   9.417
21892TIP3    H265554   7.225   4.478   9.374
21893TIP3   OH265555   7.907   4.018   8.829
21893TIP3    H165556   7.959   3.991   8.908
21893TIP3    H265557   7.819   3.987   8.856
21894TIP3   OH265558   8.249   4.491   8.650
21894TIP3    H165559   8.286   4.563   8.596
21894TIP3    H265560   8.169   4.537   8.683
21895TIP3   OH265561   8.063   3.953   9.050
21895TIP3    H165562   8.056   3.884   9.119
21895TIP3    H265563   8.157   3.946   9.026
21896TIP3   OH265564   6.986   4.372  10.130
21896TIP3    H165565   7.031   4.287  10.139
21896TIP3    H265566   7.014   4.412  10.214
21897TIP3   OH265567   7.273   3.997   8.829
21897TIP3    H165568   7.288   3.905   8.799
21897TIP3    H265569   7.254   3.983   8.924
21898TIP3   OH265570   7.218   4.001   9.103
21898TIP3    H165571   7.291   3.971   9.158
21898TIP3    H265572   7.225   4.099   9.110
21899TIP3   OH265573   6.954   3.694   9.304
21899TIP3    H165574   6.889   3.739   9.362
21899TIP3    H265575   6.971   3.764   9.238
21900TIP3   OH265576   7.910   3.110   9.339
21900TIP3    H165577   7.919   3.089   9.246
21900TIP3    H265578   8.001   3.095   9.368
21901TIP3   OH265579   7.486   4.200   9.052
21901TIP3    H165580   7.398   4.227   9.086
21901TIP3    H265581   7.501   4.267   8.984
21902TIP3   OH265582   7.659   3.266   9.447
21902TIP3    H165583   7.740   3.319   9.430
21902TIP3    H265584   7.654   3.270   9.545
21903TIP3   OH265585   7.228   4.275   9.116
21903TIP3    H165586   7.198   4.344   9.054
21903TIP3    H265587   7.212   4.318   9.203
21904TIP3   OH265588   7.331   2.988   9.359
21904TIP3    H165589   7.327   3.080   9.391
21904TIP3    H265590   7.427   2.972   9.367
21905TIP3   OH265591   6.945   3.907   9.109
21905TIP3    H165592   7.014   3.975   9.119
21905TIP3    H265593   6.990   3.850   9.043
21906TIP3   OH265594   6.893   3.180   9.243
21906TIP3    H165595   6.889   3.277   9.238
21906TIP3    H265596   6.810   3.154   9.201
21907TIP3   OH265597   8.208   4.622   9.589
21907TIP3    H165598   8.168   4.676   9.517
21907TIP3    H265599   8.303   4.630   9.569
21908TIP3   OH265600   6.821   4.122   9.499
21908TIP3    H165601   6.747   4.151   9.554
21908TIP3    H265602   6.796   4.159   9.412
21909TIP3   OH265603   7.438   4.200   8.744
21909TIP3    H165604   7.381   4.128   8.780
21909TIP3    H265605   7.513   4.148   8.709
21910TIP3   OH265606   7.874   4.243   8.653
21910TIP3    H165607   7.917   4.176   8.711
21910TIP3    H265608   7.930   4.241   8.573
21911TIP3   OH265609   7.081   3.719   8.963
21911TIP3    H165610   7.135   3.682   9.034
21911TIP3    H265611   7.148   3.723   8.891
21912TIP3   OH265612   7.589   3.915   8.769
21912TIP3    H165613   7.593   3.927   8.866
21912TIP3    H265614   7.591   3.817   8.763
21913TIP3   OH265615   7.291   3.620   9.186
21913TIP3    H165616   7.264   3.577   9.269
21913TIP3    H265617   7.326   3.544   9.135
21914TIP3   OH265618   7.390   3.414   9.025
21914TIP3    H165619   7.364   3.416   8.931
21914TIP3    H265620   7.487   3.419   9.018
21915TIP3   OH265621   8.210   3.746   8.686
21915TIP3    H165622   8.188   3.698   8.603
21915TIP3    H265623   8.177   3.836   8.661
21916TIP3   OH265624   7.198   4.479   8.930
21916TIP3    H165625   7.293   4.473   8.911
21916TIP3    H265626   7.168   4.526   8.850
21917TIP3   OH265627   6.676   3.858   9.147
21917TIP3    H165628   6.771   3.881   9.132
21917TIP3    H265629   6.672   3.769   9.105
21918TIP3   OH265630   6.592   4.471   9.559
21918TIP3    H165631   6.525   4.408   9.524
21918TIP3    H265632   6.636   4.414   9.626
21919TIP3   OH265633   6.724   4.324   9.747
21919TIP3    H165634   6.719   4.250   9.810
21919TIP3    H265635   6.783   4.384   9.797
21920TIP3   OH265636   8.474   4.725   9.548
21920TIP3    H165637   8.457   4.761   9.637
21920TIP3    H265638   8.464   4.802   9.490
21921TIP3   OH265639   8.337   3.935   9.008
21921TIP3    H165640   8.416   3.992   8.992
21921TIP3    H265641   8.344   3.917   9.104
21922TIP3   OH265642   8.346   3.826   9.263
21922TIP3    H165643   8.363   3.737   9.229
21922TIP3    H265644   8.438   3.858   9.274
21923TIP3   OH265645   8.412   3.707   8.865
21923TIP3    H165646   8.340   3.709   8.798
21923TIP3    H265647   8.386   3.783   8.919
21924TIP3   OH265648   8.212   3.391   8.828
21924TIP3    H165649   8.230   3.419   8.738
21924TIP3    H265650   8.213   3.293   8.820
21925TIP3   OH265651   6.937   3.779  10.075
21925TIP3    H165652   6.930   3.719   9.998
21925TIP3    H265653   7.023   3.753  10.113
21926TIP3   OH265654   8.228   3.113   8.835
21926TIP3    H165655   8.301   3.052   8.823
21926TIP3    H265656   8.149   3.057   8.825
21927TIP3   OH265657   6.877   2.893   9.704
21927TIP3    H165658   6.781   2.882   9.720
21927TIP3    H265659   6.877   2.944   9.620
21928TIP3   OH265660   8.038   4.588   9.204
21928TIP3    H165661   8.088   4.574   9.121
21928TIP3    H265662   8.092   4.656   9.248
21929TIP3   OH265663   7.225   4.644  10.001
21929TIP3    H165664   7.157   4.675  10.061
21929TIP3    H265665   7.212   4.697   9.921
21930TIP3   OH265666   7.658   4.706   9.816
21930TIP3    H165667   7.587   4.706   9.749
21930TIP3    H265668   7.650   4.794   9.854
21931TIP3   OH265669   7.920   4.616   9.850
21931TIP3    H165670   7.833   4.657   9.834
21931TIP3    H265671   7.981   4.690   9.830
21932TIP3   OH265672   8.095   4.816   9.780
21932TIP3    H165673   8.110   4.908   9.749
21932TIP3    H265674   8.149   4.763   9.719
21933TIP3   OH265675   6.903   4.479   9.894
21933TIP3    H165676   6.929   4.456   9.986
21933TIP3    H265677   6.979   4.436   9.847
21934TIP3   OH265678   7.101   4.347   9.759
21934TIP3    H165679   7.117   4.264   9.810
21934TIP3    H265680   7.191   4.386   9.759
21935TIP3   OH265681   7.365   4.446   9.761
21935TIP3    H165682   7.396   4.354   9.753
21935TIP3    H265683   7.402   4.468   9.849
21936TIP3   OH265684   7.211   2.809   9.831
21936TIP3    H165685   7.126   2.762   9.847
21936TIP3    H265686   7.254   2.799   9.917
21937TIP3   OH265687   6.961   2.678   9.504
21937TIP3    H165688   7.002   2.737   9.438
21937TIP3    H265689   6.950   2.737   9.580
21938TIP3   OH265690   6.694   4.247   9.297
21938TIP3    H165691   6.610   4.215   9.261
21938TIP3    H265692   6.683   4.342   9.282
21939TIP3   OH265693   7.093   2.840   9.278
21939TIP3    H165694   7.141   2.774   9.223
21939TIP3    H265695   7.167   2.892   9.316
21940TIP3   OH265696   7.611   3.005   9.381
21940TIP3    H165697   7.697   2.963   9.398
21940TIP3    H265698   7.633   3.099   9.405
21941TIP3   OH265699   7.466   4.438   8.878
21941TIP3    H165700   7.554   4.460   8.842
21941TIP3    H265701   7.444   4.363   8.819
21942TIP3   OH265702   8.184   4.554   8.972
21942TIP3    H165703   8.177   4.457   8.958
21942TIP3    H265704   8.141   4.587   8.890
21943TIP3   OH265705   6.769   4.276   8.934
21943TIP3    H165706   6.771   4.298   9.028
21943TIP3    H265707   6.857   4.233   8.921
21944TIP3   OH265708   8.551   4.098   8.920
21944TIP3    H165709   8.514   4.116   8.832
21944TIP3    H265710   8.580   4.186   8.950
21945TIP3   OH265711   9.304   4.776   8.628
21945TIP3    H165712   9.259   4.764   8.542
21945TIP3    H265713   9.270   4.862   8.658
21946TIP3   OH265714   8.760   4.639   9.017
21946TIP3    H165715   8.819   4.602   9.083
21946TIP3    H265716   8.694   4.568   9.009
21947TIP3   OH265717   9.518   4.683   8.255
21947TIP3    H165718   9.580   4.611   8.229
21947TIP3    H265719   9.545   4.699   8.348
21948TIP3   OH265720   9.546   4.743   8.519
21948TIP3    H165721   9.459   4.757   8.563
21948TIP3    H265722   9.591   4.692   8.587
21949TIP3   OH265723   9.318   4.207   8.532
21949TIP3    H165724   9.301   4.303   8.548
21949TIP3    H265725   9.395   4.188   8.588
21950TIP3   OH265726   9.006   4.463   9.043
21950TIP3    H165727   9.052   4.490   8.962
21950TIP3    H265728   8.985   4.371   9.022
21951TIP3   OH265729   8.636   3.712   8.704
21951TIP3    H165730   8.681   3.795   8.731
21951TIP3    H265731   8.562   3.708   8.768
21952TIP3   OH265732   8.985   4.651   8.835
21952TIP3    H165733   8.907   4.652   8.893
21952TIP3    H265734   9.019   4.742   8.847
21953TIP3   OH265735   9.956   4.719   8.078
21953TIP3    H165736  10.026   4.776   8.046
21953TIP3    H265737   9.918   4.775   8.148
21954TIP3   OH265738   9.069   4.257   8.317
21954TIP3    H165739   9.081   4.166   8.285
21954TIP3    H265740   9.055   4.241   8.413
21955TIP3   OH265741   9.012   4.261   8.593
21955TIP3    H165742   9.071   4.244   8.666
21955TIP3    H265743   9.012   4.359   8.589
21956TIP3   OH265744   8.754   3.951   8.774
21956TIP3    H165745   8.706   3.982   8.853
21956TIP3    H265746   8.759   4.032   8.721
21957TIP3   OH265747   9.278   4.471   8.556
21957TIP3    H165748   9.188   4.500   8.581
21957TIP3    H265749   9.299   4.537   8.489
21958TIP3   OH265750   9.014   4.530   8.597
21958TIP3    H165751   8.986   4.600   8.534
21958TIP3    H265752   9.000   4.577   8.683
21959TIP3   OH265753   8.740   4.169   8.597
21959TIP3    H165754   8.807   4.240   8.601
21959TIP3    H265755   8.782   4.112   8.529
21960TIP3   OH265756   8.668   3.428   8.668
21960TIP3    H165757   8.694   3.514   8.705
21960TIP3    H265758   8.619   3.395   8.745
21961TIP3   OH265759   8.617   4.382   8.998
21961TIP3    H165760   8.534   4.411   9.037
21961TIP3    H265761   8.603   4.411   8.906
21962TIP3   OH265762   9.235   4.457   8.233
21962TIP3    H165763   9.178   4.385   8.267
21962TIP3    H265764   9.307   4.405   8.193
21963TIP3   OH265765   9.678   4.484   8.145
21963TIP3    H165766   9.756   4.438   8.177
21963TIP3    H265767   9.707   4.505   8.053
21964TIP3   OH265768   8.868   3.985   8.441
21964TIP3    H165769   8.907   3.931   8.511
21964TIP3    H265770   8.939   3.981   8.373
21965TIP3   OH265771   9.374   4.171   8.256
21965TIP3    H165772   9.350   4.178   8.351
21965TIP3    H265773   9.388   4.075   8.249
21966TIP3   OH265774   8.993   4.735   8.415
21966TIP3    H165775   9.088   4.731   8.394
21966TIP3    H265776   8.961   4.783   8.337
21967TIP3   OH265777   8.474   4.114   8.637
21967TIP3    H165778   8.568   4.137   8.620
21967TIP3    H265779   8.468   4.026   8.594
21968TIP3   OH265780   8.388   4.728   9.045
21968TIP3    H165781   8.321   4.666   9.009
21968TIP3    H265782   8.433   4.670   9.111
21969TIP3   OH265783   8.522   4.581   9.233
21969TIP3    H165784   8.498   4.512   9.295
21969TIP3    H265785   8.582   4.637   9.287
21970TIP3   OH265786   8.733   4.725   9.362
21970TIP3    H165787   8.747   4.712   9.457
21970TIP3    H265788   8.823   4.713   9.328
21971TIP3   OH265789   8.491   4.504   8.790
21971TIP3    H165790   8.408   4.468   8.753
21971TIP3    H265791   8.479   4.597   8.766
21972TIP3   OH265792   9.260   4.697   8.361
21972TIP3    H165793   9.347   4.720   8.322
21972TIP3    H265794   9.240   4.618   8.305
21973TIP3   OH265795   8.567   4.532   8.421
21973TIP3    H165796   8.567   4.559   8.514
21973TIP3    H265797   8.655   4.489   8.411
21974TIP3   OH265798   4.158   5.460   9.881
21974TIP3    H165799   4.075   5.426   9.844
21974TIP3    H265800   4.129   5.491   9.967
21975TIP3   OH265801   3.729   4.757   9.632
21975TIP3    H165802   3.796   4.815   9.674
21975TIP3    H265803   3.789   4.693   9.588
21976TIP3   OH265804   3.931   4.904   9.731
21976TIP3    H165805   4.001   4.911   9.797
21976TIP3    H265806   3.975   4.934   9.648
21977TIP3   OH265807   4.259   5.517   9.327
21977TIP3    H165808   4.267   5.614   9.313
21977TIP3    H265809   4.351   5.488   9.314
21978TIP3   OH265810   3.597   5.855   9.795
21978TIP3    H165811   3.539   5.825   9.722
21978TIP3    H265812   3.563   5.944   9.815
21979TIP3   OH265813   3.771   5.733   9.447
21979TIP3    H165814   3.830   5.665   9.408
21979TIP3    H265815   3.810   5.744   9.536
21980TIP3   OH265816   3.838   5.779   9.710
21980TIP3    H165817   3.750   5.797   9.751
21980TIP3    H265818   3.882   5.731   9.780
21981TIP3   OH265819   4.023   4.953   9.476
21981TIP3    H165820   3.989   4.927   9.388
21981TIP3    H265821   4.101   5.006   9.452
21982TIP3   OH265822   3.673   5.264   9.690
21982TIP3    H165823   3.629   5.351   9.702
21982TIP3    H265824   3.618   5.208   9.747
21983TIP3   OH265825   4.520   4.776   9.663
21983TIP3    H165826   4.452   4.727   9.611
21983TIP3    H265827   4.497   4.866   9.631
21984TIP3   OH265828   4.194   5.589   9.592
21984TIP3    H165829   4.186   5.518   9.658
21984TIP3    H265830   4.208   5.540   9.509
21985TIP3   OH265831   3.947   5.317   9.486
21985TIP3    H165832   4.005   5.287   9.560
21985TIP3    H265833   3.861   5.288   9.521
21986TIP3   OH265834   4.293   5.792   9.313
21986TIP3    H165835   4.330   5.865   9.260
21986TIP3    H265836   4.212   5.838   9.345
21987TIP3   OH265837   4.107   5.239   9.692
21987TIP3    H165838   4.086   5.211   9.782
21987TIP3    H265839   4.205   5.241   9.694
21988TIP3   OH265840   3.325   5.299   9.494
21988TIP3    H165841   3.345   5.220   9.441
21988TIP3    H265842   3.299   5.257   9.577
21989TIP3   OH265843   3.526   5.496   9.698
21989TIP3    H165844   3.429   5.514   9.689
21989TIP3    H265845   3.560   5.554   9.628
21990TIP3   OH265846   3.262   5.561   9.729
21990TIP3    H165847   3.230   5.624   9.661
21990TIP3    H265848   3.269   5.624   9.804
21991TIP3   OH265849   3.485   5.504   9.403
21991TIP3    H165850   3.431   5.431   9.441
21991TIP3    H265851   3.558   5.452   9.363
21992TIP3   OH265852   3.919   5.544   9.315
21992TIP3    H165853   3.961   5.478   9.374
21992TIP3    H265854   3.977   5.542   9.237
21993TIP3   OH265855   3.161   5.071   9.607
21993TIP3    H165856   3.165   4.982   9.649
21993TIP3    H265857   3.216   5.054   9.528
21994TIP3   OH265858   3.630   5.214   9.426
21994TIP3    H165859   3.638   5.227   9.523
21994TIP3    H265860   3.632   5.116   9.421
21995TIP3   OH265861   3.437   4.782   9.675
21995TIP3    H165862   3.377   4.767   9.600
21995TIP3    H265863   3.523   4.768   9.635
21996TIP3   OH265864   4.261   5.047   9.349
21996TIP3    H165865   4.236   5.000   9.267
21996TIP3    H265866   4.227   5.137   9.327
21997TIP3   OH265867   3.236   5.774   9.571
21997TIP3    H165868   3.333   5.782   9.564
21997TIP3    H265869   3.209   5.833   9.498
21998TIP3   OH265870   4.389   5.240   9.679
21998TIP3    H165871   4.459   5.303   9.651
21998TIP3    H265872   4.435   5.194   9.753
21999TIP3   OH265873   4.522   5.099   9.866
21999TIP3    H165874   4.464   5.069   9.939
21999TIP3    H265875   4.597   5.140   9.913
22000TIP3   OH265876   4.458   5.012   9.534
22000TIP3    H165877   4.386   5.013   9.466
22000TIP3    H265878   4.428   5.087   9.589
22001TIP3   OH265879   4.338   4.678   9.489
22001TIP3    H165880   4.287   4.723   9.421
22001TIP3    H265881   4.311   4.585   9.475
22002TIP3   OH265882   4.274   4.415   9.473
22002TIP3    H165883   4.347   4.383   9.530
22002TIP3    H265884   4.196   4.368   9.508
22003TIP3   OH265885   4.518   4.366   9.600
22003TIP3    H165886   4.552   4.290   9.549
22003TIP3    H265887   4.588   4.432   9.587
22004TIP3   OH265888   4.089   5.898   9.866
22004TIP3    H165889   4.135   5.884   9.781
22004TIP3    H265890   4.142   5.968   9.906
22005TIP3   OH265891   3.511   5.745   9.538
22005TIP3    H165892   3.601   5.764   9.503
22005TIP3    H265893   3.486   5.672   9.477
22006TIP3   OH265894   4.230   5.856   9.632
22006TIP3    H165895   4.221   5.759   9.620
22006TIP3    H265896   4.186   5.889   9.552
22007TIP3   OH265897   2.840   5.608   9.609
22007TIP3    H165898   2.863   5.668   9.683
22007TIP3    H265899   2.923   5.560   9.593
22008TIP3   OH265900   5.721   5.369   9.590
22008TIP3    H165901   5.697   5.462   9.572
22008TIP3    H265902   5.642   5.325   9.556
22009TIP3   OH265903   5.713   5.373   9.953
22009TIP3    H165904   5.734   5.346  10.045
22009TIP3    H265905   5.670   5.294   9.917
22010TIP3   OH265906   5.963   5.675   9.649
22010TIP3    H165907   5.954   5.611   9.720
22010TIP3    H265908   5.995   5.754   9.698
22011TIP3   OH265909   5.011   5.667  10.092
22011TIP3    H165910   4.994   5.577  10.057
22011TIP3    H265911   5.100   5.685  10.056
22012TIP3   OH265912   4.703   4.875   9.840
22012TIP3    H165913   4.663   4.963   9.855
22012TIP3    H265914   4.641   4.840   9.773
22013TIP3   OH265915   4.781   5.163   9.931
22013TIP3    H165916   4.816   5.110  10.004
22013TIP3    H265917   4.860   5.188   9.881
22014TIP3   OH265918   5.611   6.135   9.666
22014TIP3    H165919   5.660   6.065   9.617
22014TIP3    H265920   5.612   6.100   9.756
22015TIP3   OH265921   5.519   5.589   9.998
22015TIP3    H165922   5.569   5.517   9.956
22015TIP3    H265923   5.594   5.644  10.029
22016TIP3   OH265924   6.539   4.931  10.019
22016TIP3    H165925   6.531   5.016  10.064
22016TIP3    H265926   6.558   4.958   9.928
22017TIP3   OH265927   5.945   5.107  10.054
22017TIP3    H165928   5.974   5.013  10.066
22017TIP3    H265929   5.912   5.100   9.963
22018TIP3   OH265930   5.279   4.728   9.947
22018TIP3    H165931   5.242   4.817   9.929
22018TIP3    H265932   5.243   4.709  10.037
22019TIP3   OH265933   5.965   4.849   9.643
22019TIP3    H165934   6.035   4.831   9.710
22019TIP3    H265935   6.020   4.884   9.570
22020TIP3   OH265936   5.360   5.164   9.860
22020TIP3    H165937   5.446   5.127   9.888
22020TIP3    H265938   5.304   5.083   9.854
22021TIP3   OH265939   5.616   5.593   9.457
22021TIP3    H165940   5.571   5.575   9.373
22021TIP3    H265941   5.573   5.677   9.483
22022TIP3   OH265942   6.173   4.849   9.823
22022TIP3    H165943   6.193   4.819   9.914
22022TIP3    H265944   6.226   4.931   9.825
22023TIP3   OH265945   4.598   5.402   9.578
22023TIP3    H165946   4.555   5.429   9.494
22023TIP3    H265947   4.626   5.488   9.614
22024TIP3   OH265948   6.029   5.909   9.806
22024TIP3    H165949   5.940   5.909   9.848
22024TIP3    H265950   6.032   6.001   9.771
22025TIP3   OH265951   6.292   4.798  10.065
22025TIP3    H165952   6.277   4.812  10.160
22025TIP3    H265953   6.381   4.835  10.053
22026TIP3   OH265954   5.737   5.963   9.491
22026TIP3    H165955   5.789   5.882   9.471
22026TIP3    H265956   5.797   6.030   9.452
22027TIP3   OH265957   5.881   5.748   9.397
22027TIP3    H165958   5.837   5.669   9.362
22027TIP3    H265959   5.916   5.715   9.483
22028TIP3   OH265960   5.552   5.218   9.421
22028TIP3    H165961   5.473   5.273   9.402
22028TIP3    H265962   5.599   5.222   9.336
22029TIP3   OH265963   5.514   5.004   9.141
22029TIP3    H165964   5.580   5.059   9.187
22029TIP3    H265965   5.573   4.945   9.090
22030TIP3   OH265966   6.456   5.454   9.992
22030TIP3    H165967   6.377   5.510  10.011
22030TIP3    H265968   6.488   5.498   9.911
22031TIP3   OH265969   5.899   5.304   9.392
22031TIP3    H165970   5.845   5.332   9.470
22031TIP3    H265971   5.984   5.282   9.436
22032TIP3   OH265972   5.126   5.300   9.806
22032TIP3    H165973   5.087   5.246   9.734
22032TIP3    H265974   5.211   5.255   9.822
22033TIP3   OH265975   5.251   5.704   9.957
22033TIP3    H165976   5.248   5.672   9.866
22033TIP3    H265977   5.341   5.676   9.984
22034TIP3   OH265978   5.323   5.285  10.110
22034TIP3    H165979   5.363   5.275  10.022
22034TIP3    H265980   5.395   5.319  10.165
22035TIP3   OH265981   5.790   5.920   9.930
22035TIP3    H165982   5.777   6.004   9.979
22035TIP3    H265983   5.770   5.850   9.995
22036TIP3   OH265984   5.744   5.162   9.217
22036TIP3    H165985   5.800   5.223   9.269
22036TIP3    H265986   5.769   5.187   9.125
22037TIP3   OH265987   5.484   5.844   9.494
22037TIP3    H165988   5.562   5.898   9.511
22037TIP3    H265989   5.422   5.907   9.454
22038TIP3   OH265990   6.255   4.405   9.263
22038TIP3    H165991   6.177   4.428   9.317
22038TIP3    H265992   6.270   4.489   9.214
22039TIP3   OH265993   4.996   5.144   9.612
22039TIP3    H165994   4.934   5.196   9.555
22039TIP3    H265995   4.945   5.063   9.621
22040TIP3   OH265996   6.054   5.773   8.812
22040TIP3    H165997   6.062   5.870   8.799
22040TIP3    H265998   6.147   5.745   8.801
22041TIP3   OH265999   5.365   6.091   9.294
22041TIP3    H166000   5.319   6.072   9.210
22041TIP3    H266001   5.332   6.180   9.318
22042TIP3   OH266002   4.803   5.941   9.678
22042TIP3    H166003   4.852   5.932   9.763
22042TIP3    H266004   4.738   5.870   9.688
22043TIP3   OH266005   5.567   5.992   8.935
22043TIP3    H166006   5.626   5.922   8.899
22043TIP3    H266007   5.601   6.001   9.027
22044TIP3   OH266008   5.616   6.039   9.205
22044TIP3    H166009   5.528   6.049   9.247
22044TIP3    H266010   5.668   6.002   9.279
22045TIP3   OH266011   5.818   5.208   8.961
22045TIP3    H166012   5.784   5.186   8.872
22045TIP3    H266013   5.894   5.264   8.938
22046TIP3   OH266014   5.533   4.585   9.250
22046TIP3    H166015   5.511   4.579   9.343
22046TIP3    H266016   5.488   4.505   9.216
22047TIP3   OH266017   5.186   4.955   9.817
22047TIP3    H166018   5.097   4.921   9.845
22047TIP3    H266019   5.181   4.940   9.722
22048TIP3   OH266020   5.673   4.998   9.551
22048TIP3    H166021   5.626   5.079   9.520
22048TIP3    H266022   5.737   4.988   9.478
22049TIP3   OH266023   5.848   5.054   9.796
22049TIP3    H166024   5.791   5.090   9.725
22049TIP3    H266025   5.885   4.975   9.751
22050TIP3   OH266026   5.168   4.555   9.248
22050TIP3    H166027   5.089   4.514   9.286
22050TIP3    H266028   5.124   4.626   9.197
22051TIP3   OH266029   4.714   4.587   9.609
22051TIP3    H166030   4.750   4.629   9.528
22051TIP3    H266031   4.648   4.654   9.634
22052TIP3   OH266032   5.803   5.289  10.198
22052TIP3    H166033   5.869   5.231  10.154
22052TIP3    H266034   5.858   5.336  10.263
22053TIP3   OH266035   5.527   4.791   9.865
22053TIP3    H166036   5.439   4.763   9.900
22053TIP3    H266037   5.585   4.756   9.934
22054TIP3   OH266038   4.964   4.812   9.874
22054TIP3    H166039   4.870   4.837   9.864
22054TIP3    H266040   4.959   4.716   9.873
22055TIP3   OH266041   5.979   4.841  10.070
22055TIP3    H166042   5.970   4.819  10.166
22055TIP3    H266043   5.989   4.755  10.030
22056TIP3   OH266044   5.071   4.826   9.372
22056TIP3    H166045   4.998   4.792   9.316
22056TIP3    H266046   5.127   4.869   9.305
22057TIP3   OH266047   5.606   5.090   9.956
22057TIP3    H166048   5.691   5.055   9.927
22057TIP3    H266049   5.606   5.071  10.052
22058TIP3   OH266050   5.156   4.524   9.823
22058TIP3    H166051   5.125   4.470   9.897
22058TIP3    H266052   5.199   4.598   9.870
22059TIP3   OH266053   5.327   5.375   9.370
22059TIP3    H166054   5.252   5.312   9.357
22059TIP3    H266055   5.306   5.411   9.460
22060TIP3   OH266056   6.226   5.599  10.006
22060TIP3    H166057   6.254   5.665   9.938
22060TIP3    H266058   6.138   5.574   9.974
22061TIP3   OH266059   5.787   4.691   9.226
22061TIP3    H166060   5.689   4.680   9.224
22061TIP3    H266061   5.798   4.787   9.244
22062TIP3   OH266062   5.854   4.936   9.333
22062TIP3    H166063   5.950   4.946   9.348
22062TIP3    H266064   5.832   5.016   9.281
22063TIP3   OH266065   4.989   5.400  10.025
22063TIP3    H166066   5.038   5.373   9.943
22063TIP3    H266067   5.021   5.335  10.089
22064TIP3   OH266068   5.470   5.527   9.190
22064TIP3    H166069   5.422   5.613   9.195
22064TIP3    H266070   5.415   5.472   9.251
22065TIP3   OH266071   6.295   5.027   9.170
22065TIP3    H166072   6.233   4.982   9.108
22065TIP3    H266073   6.291   5.116   9.130
22066TIP3   OH266074   5.995   5.846   9.078
22066TIP3    H166075   5.967   5.777   9.140
22066TIP3    H266076   6.005   5.798   8.994
22067TIP3   OH266077   5.978   5.473   9.927
22067TIP3    H166078   5.885   5.445   9.922
22067TIP3    H266079   6.022   5.401   9.880
22068TIP3   OH266080   5.116   5.700   9.665
22068TIP3    H166081   5.119   5.784   9.615
22068TIP3    H266082   5.021   5.691   9.678
22069TIP3   OH266083   4.681   5.008   9.374
22069TIP3    H166084   4.724   5.093   9.392
22069TIP3    H266085   4.602   5.014   9.432
22070TIP3   OH266086   5.255   5.467   9.614
22070TIP3    H166087   5.220   5.558   9.628
22070TIP3    H266088   5.219   5.421   9.691
22071TIP3   OH266089   5.387   6.047  10.111
22071TIP3    H166090   5.433   6.122  10.070
22071TIP3    H266091   5.445   6.020  10.182
22072TIP3   OH266092   5.037   5.941   9.522
22072TIP3    H166093   4.951   5.949   9.567
22072TIP3    H266094   5.069   6.034   9.524
22073TIP3   OH266095   5.770   5.688  10.088
22073TIP3    H166096   5.769   5.684  10.185
22073TIP3    H266097   5.848   5.636  10.063
22074TIP3   OH266098   5.748   5.570   8.979
22074TIP3    H166099   5.799   5.546   9.059
22074TIP3    H266100   5.658   5.549   9.008
22075TIP3   OH266101   6.089   6.049   8.800
22075TIP3    H166102   6.127   6.122   8.748
22075TIP3    H266103   6.009   6.094   8.833
22076TIP3   OH266104   5.908   5.504   9.195
22076TIP3    H166105   5.899   5.440   9.268
22076TIP3    H266106   6.005   5.505   9.184
22077TIP3   OH266107   5.117   5.554   8.978
22077TIP3    H166108   5.129   5.462   8.949
22077TIP3    H266109   5.097   5.542   9.074
22078TIP3   OH266110   5.062   5.559   9.251
22078TIP3    H166111   5.131   5.535   9.314
22078TIP3    H266112   5.064   5.657   9.256
22079TIP3   OH266113   4.798   5.255   9.455
22079TIP3    H166114   4.731   5.299   9.511
22079TIP3    H266115   4.809   5.324   9.386
22080TIP3   OH266116   5.828   4.653   9.497
22080TIP3    H166117   5.819   4.674   9.402
22080TIP3    H266118   5.874   4.733   9.532
22081TIP3   OH266119   5.326   5.756   9.200
22081TIP3    H166120   5.240   5.784   9.236
22081TIP3    H266121   5.343   5.827   9.137
22082TIP3   OH266122   5.675   4.612   9.708
22082TIP3    H166123   5.720   4.597   9.794
22082TIP3    H266124   5.747   4.598   9.643
22083TIP3   OH266125   5.069   5.831   9.267
22083TIP3    H166126   5.039   5.901   9.204
22083TIP3    H266127   5.053   5.875   9.353
22084TIP3   OH266128   5.232   4.531   9.539
22084TIP3    H166129   5.168   4.604   9.541
22084TIP3    H266130   5.247   4.527   9.443
22085TIP3   OH266131   6.074   5.236   9.789
22085TIP3    H166132   6.002   5.173   9.804
22085TIP3    H266133   6.149   5.192   9.835
22086TIP3   OH266134   4.786   5.463   9.262
22086TIP3    H166135   4.848   5.537   9.269
22086TIP3    H266136   4.833   5.410   9.193
22087TIP3   OH266137   4.734   4.738   9.385
22087TIP3    H166138   4.729   4.836   9.386
22087TIP3    H266139   4.649   4.714   9.347
22088TIP3   OH266140   6.046   6.179   9.735
22088TIP3    H166141   6.004   6.231   9.663
22088TIP3    H266142   6.140   6.201   9.719
22089TIP3   OH266143   4.657   5.670   9.649
22089TIP3    H166144   4.586   5.707   9.704
22089TIP3    H266145   4.638   5.713   9.563
22090TIP3   OH266146   5.279   5.760   8.893
22090TIP3    H166147   5.224   5.687   8.930
22090TIP3    H266148   5.353   5.708   8.855
22091TIP3   OH266149   5.715   5.800   8.803
22091TIP3    H166150   5.763   5.738   8.860
22091TIP3    H266151   5.769   5.801   8.721
22092TIP3   OH266152   4.922   5.277   9.111
22092TIP3    H166153   4.977   5.244   9.184
22092TIP3    H266154   4.989   5.281   9.039
22093TIP3   OH266155   5.433   5.473   8.920
22093TIP3    H166156   5.434   5.487   9.017
22093TIP3    H266157   5.429   5.375   8.916
22094TIP3   OH266158   5.134   5.177   9.337
22094TIP3    H166159   5.103   5.136   9.419
22094TIP3    H266160   5.166   5.100   9.286
22095TIP3   OH266161   5.229   4.964   9.181
22095TIP3    H166162   5.199   4.971   9.088
22095TIP3    H266163   5.325   4.975   9.171
22096TIP3   OH266164   6.057   5.303   8.837
22096TIP3    H166165   6.032   5.258   8.754
22096TIP3    H266166   6.024   5.393   8.816
22097TIP3   OH266167   5.038   6.033   9.079
22097TIP3    H166168   5.134   6.031   9.060
22097TIP3    H266169   5.007   6.082   9.001
22098TIP3   OH266170   4.518   5.416   9.297
22098TIP3    H166171   4.613   5.437   9.283
22098TIP3    H266172   4.512   5.327   9.255
22099TIP3   OH266173   4.436   6.029   9.705
22099TIP3    H166174   4.368   5.967   9.671
22099TIP3    H266175   4.479   5.974   9.773
22100TIP3   OH266176   4.570   5.886   9.893
22100TIP3    H166177   4.544   5.821   9.960
22100TIP3    H266178   4.612   5.953   9.951
22101TIP3   OH266179   6.299   6.279   9.697
22101TIP3    H166180   6.316   6.335   9.773
22101TIP3    H266181   6.351   6.324   9.629
22102TIP3   OH266182   6.189   5.489   9.171
22102TIP3    H166183   6.255   5.555   9.143
22102TIP3    H266184   6.233   5.451   9.251
22103TIP3   OH266185   6.318   5.357   9.376
22103TIP3    H166186   6.249   5.316   9.433
22103TIP3    H266187   6.375   5.402   9.440
22104TIP3   OH266188   6.343   5.735   9.797
22104TIP3    H166189   6.421   5.690   9.762
22104TIP3    H266190   6.344   5.819   9.748
22105TIP3   OH266191   6.211   6.035   9.998
22105TIP3    H166192   6.144   6.092  10.036
22105TIP3    H266193   6.160   5.980   9.936
22106TIP3   OH266194   6.254   5.264   9.022
22106TIP3    H166195   6.183   5.268   8.954
22106TIP3    H266196   6.227   5.341   9.077
22107TIP3   OH266197   6.127   4.936   8.976
22107TIP3    H166198   6.082   4.983   8.905
22107TIP3    H266199   6.099   4.844   8.960
22108TIP3   OH266200   6.130   5.215   9.522
22108TIP3    H166201   6.141   5.118   9.519
22108TIP3    H266202   6.117   5.232   9.618
22109TIP3   OH266203   6.072   4.668   8.955
22109TIP3    H166204   6.147   4.643   9.014
22109TIP3    H266205   5.998   4.615   8.988
22110TIP3   OH266206   6.125   4.929   9.419
22110TIP3    H166207   6.166   4.841   9.432
22110TIP3    H266208   6.183   4.965   9.350
22111TIP3   OH266209   6.288   5.106   9.899
22111TIP3    H166210   6.378   5.130   9.867
22111TIP3    H266211   6.295   5.141   9.991
22112TIP3   OH266212   6.336   5.241  10.133
22112TIP3    H166213   6.288   5.280  10.207
22112TIP3    H266214   6.385   5.318  10.096
22113TIP3   OH266215   6.233   4.680   9.453
22113TIP3    H166216   6.286   4.666   9.534
22113TIP3    H266217   6.176   4.601   9.455
22114TIP3   OH266218   6.316   4.616   9.087
22114TIP3    H166219   6.358   4.543   9.036
22114TIP3    H266220   6.384   4.686   9.082
22115TIP3   OH266221   4.754   4.481   9.857
22115TIP3    H166222   4.661   4.472   9.884
22115TIP3    H266223   4.744   4.522   9.768
22116TIP3   OH266224   5.878   6.146   9.352
22116TIP3    H166225   5.933   6.135   9.272
22116TIP3    H266226   5.929   6.212   9.403
22117TIP3   OH266227   5.066   6.200  10.152
22117TIP3    H166228   5.005   6.238  10.216
22117TIP3    H266229   5.052   6.254  10.072
22118TIP3   OH266230   5.495   6.263   9.967
22118TIP3    H166231   5.425   6.264   9.898
22118TIP3    H266232   5.493   6.353   9.998
22119TIP3   OH266233   5.759   6.178  10.019
22119TIP3    H166234   5.675   6.216   9.988
22119TIP3    H266235   5.823   6.247   9.992
22120TIP3   OH266236   5.937   6.370   9.924
22120TIP3    H166237   5.952   6.461   9.890
22120TIP3    H266238   5.988   6.316   9.862
22121TIP3   OH266239   4.751   6.043  10.042
22121TIP3    H166240   4.745   6.014  10.134
22121TIP3    H266241   4.826   5.991  10.007
22122TIP3   OH266242   4.945   5.899   9.910
22122TIP3    H166243   4.965   5.822   9.966
22122TIP3    H266244   5.032   5.945   9.908
22123TIP3   OH266245   5.203   6.003   9.911
22123TIP3    H166246   5.241   5.914   9.904
22123TIP3    H266247   5.239   6.028   9.999
22124TIP3   OH266248   5.756   4.626   9.967
22124TIP3    H166249   5.758   4.597  10.059
22124TIP3    H266250   5.848   4.604   9.939
22125TIP3   OH266251   6.293   4.533   9.882
22125TIP3    H166252   6.340   4.587   9.815
22125TIP3    H266253   6.235   4.600   9.922
22126TIP3   OH266254   6.405   4.645   9.662
22126TIP3    H166255   6.479   4.591   9.625
22126TIP3    H266256   6.440   4.736   9.649
22127TIP3   OH266257   4.800   4.250   9.654
22127TIP3    H166258   4.815   4.322   9.591
22127TIP3    H266259   4.769   4.297   9.733
22128TIP3   OH266260   5.444   4.452   9.823
22128TIP3    H166261   5.538   4.463   9.843
22128TIP3    H266262   5.410   4.416   9.908
22129TIP3   OH266263   5.995   4.539   9.882
22129TIP3    H166264   6.052   4.515   9.808
22129TIP3    H266265   5.999   4.457   9.936
22130TIP3   OH266266   6.053   4.463   9.444
22130TIP3    H166267   5.964   4.502   9.449
22130TIP3    H266268   6.040   4.381   9.495
22131TIP3   OH266269   4.536   5.805   9.448
22131TIP3    H166270   4.451   5.772   9.413
22131TIP3    H266271   4.525   5.900   9.431
22132TIP3   OH266272   4.944   4.414   9.410
22132TIP3    H166273   4.974   4.328   9.373
22132TIP3    H266274   4.989   4.416   9.495
22133TIP3   OH266275   5.307   5.996   9.029
22133TIP3    H166276   5.395   6.018   8.992
22133TIP3    H266277   5.285   5.921   8.969
22134TIP3   OH266278   6.026   6.113   9.121
22134TIP3    H166279   6.017   6.016   9.108
22134TIP3    H266280   5.981   6.146   9.041
22135TIP3   OH266281   4.611   5.832   9.085
22135TIP3    H166282   4.610   5.859   9.178
22135TIP3    H266283   4.700   5.791   9.076
22136TIP3   OH266284   7.513   5.630   9.081
22136TIP3    H166285   7.487   5.721   9.055
22136TIP3    H266286   7.441   5.579   9.039
22137TIP3   OH266287   6.839   5.520   9.806
22137TIP3    H166288   6.826   5.496   9.898
22137TIP3    H266289   6.885   5.604   9.811
22138TIP3   OH266290   7.753   5.925   9.140
22138TIP3    H166291   7.757   5.854   9.207
22138TIP3    H266292   7.790   6.000   9.188
22139TIP3   OH266293   6.792   5.935   9.551
22139TIP3    H166294   6.785   5.837   9.554
22139TIP3    H266295   6.887   5.945   9.536
22140TIP3   OH266296   6.496   5.141   9.333
22140TIP3    H166297   6.445   5.222   9.347
22140TIP3    H266298   6.427   5.083   9.296
22141TIP3   OH266299   6.561   5.429   9.501
22141TIP3    H166300   6.605   5.349   9.537
22141TIP3    H266301   6.607   5.442   9.417
22142TIP3   OH266302   7.377   6.375   9.134
22142TIP3    H166303   7.440   6.321   9.081
22142TIP3    H266304   7.403   6.349   9.223
22143TIP3   OH266305   7.306   5.833   9.494
22143TIP3    H166306   7.332   5.800   9.407
22143TIP3    H266307   7.390   5.876   9.522
22144TIP3   OH266308   8.301   5.177   9.495
22144TIP3    H166309   8.356   5.244   9.537
22144TIP3    H266310   8.332   5.182   9.403
22145TIP3   OH266311   7.727   5.361   9.536
22145TIP3    H166312   7.773   5.277   9.553
22145TIP3    H266313   7.697   5.346   9.445
22146TIP3   OH266314   7.065   5.017   9.502
22146TIP3    H166315   7.042   5.087   9.437
22146TIP3    H266316   7.019   4.941   9.460
22147TIP3   OH266317   7.760   5.105   9.125
22147TIP3    H166318   7.833   5.089   9.189
22147TIP3    H266319   7.811   5.142   9.051
22148TIP3   OH266320   6.701   5.221   9.607
22148TIP3    H166321   6.781   5.194   9.656
22148TIP3    H266322   6.709   5.162   9.529
22149TIP3   OH266323   7.142   5.401   9.388
22149TIP3    H166324   7.228   5.361   9.372
22149TIP3    H266325   7.082   5.327   9.361
22150TIP3   OH266326   7.065   4.994   9.939
22150TIP3    H166327   7.002   5.031   9.875
22150TIP3    H266328   7.009   4.981  10.017
22151TIP3   OH266329   7.406   5.849   8.948
22151TIP3    H166330   7.369   5.830   8.861
22151TIP3    H266331   7.367   5.937   8.967
22152TIP3   OH266332   7.129   5.783   9.738
22152TIP3    H166333   7.111   5.858   9.796
22152TIP3    H266334   7.203   5.818   9.684
22153TIP3   OH266335   7.972   5.102   9.295
22153TIP3    H166336   7.961   5.054   9.378
22153TIP3    H266337   8.016   5.183   9.325
22154TIP3   OH266338   6.930   5.109   9.722
22154TIP3    H166339   6.994   5.181   9.743
22154TIP3    H266340   6.976   5.068   9.645
22155TIP3   OH266341   6.393   5.658   9.066
22155TIP3    H166342   6.351   5.685   8.982
22155TIP3    H266343   6.422   5.744   9.102
22156TIP3   OH266344   8.107   5.079   9.668
22156TIP3    H166345   8.024   5.099   9.622
22156TIP3    H266346   8.176   5.109   9.604
22157TIP3   OH266347   7.420   4.716   9.654
22157TIP3    H166348   7.407   4.620   9.672
22157TIP3    H266349   7.340   4.752   9.698
22158TIP3   OH266350   7.551   6.227   8.993
22158TIP3    H166351   7.592   6.142   8.963
22158TIP3    H266352   7.599   6.289   8.935
22159TIP3   OH266353   7.673   6.005   8.887
22159TIP3    H166354   7.643   5.927   8.839
22159TIP3    H266355   7.703   5.966   8.971
22160TIP3   OH266356   7.351   5.483   8.906
22160TIP3    H166357   7.270   5.534   8.884
22160TIP3    H266358   7.396   5.478   8.820
22161TIP3   OH266359   7.308   5.264   8.624
22161TIP3    H166360   7.377   5.316   8.671
22161TIP3    H266361   7.365   5.201   8.576
22162TIP3   OH266362   7.694   5.564   8.881
22162TIP3    H166363   7.642   5.589   8.961
22162TIP3    H266364   7.779   5.537   8.922
22163TIP3   OH266365   6.926   5.558   9.297
22163TIP3    H166366   6.881   5.504   9.227
22163TIP3    H266367   7.008   5.506   9.312
22164TIP3   OH266368   7.055   5.973   9.444
22164TIP3    H166369   7.032   5.937   9.357
22164TIP3    H266370   7.139   5.927   9.464
22165TIP3   OH266371   7.155   5.528   9.646
22165TIP3    H166372   7.111   5.518   9.559
22165TIP3    H266373   7.125   5.619   9.671
22166TIP3   OH266374   7.537   5.421   8.704
22166TIP3    H166375   7.596   5.481   8.756
22166TIP3    H266376   7.563   5.446   8.612
22167TIP3   OH266377   7.281   6.102   8.976
22167TIP3    H166378   7.342   6.167   9.012
22167TIP3    H266379   7.213   6.158   8.936
22168TIP3   OH266380   8.054   4.663   8.752
22168TIP3    H166381   7.972   4.683   8.802
22168TIP3    H266382   8.066   4.746   8.702
22169TIP3   OH266383   6.793   5.406   9.103
22169TIP3    H166384   6.729   5.452   9.044
22169TIP3    H266385   6.752   5.319   9.110
22170TIP3   OH266386   7.850   6.029   8.299
22170TIP3    H166387   7.859   6.126   8.287
22170TIP3    H266388   7.943   6.000   8.287
22171TIP3   OH266389   6.430   5.978   9.642
22171TIP3    H166390   6.525   5.990   9.630
22171TIP3    H266391   6.405   6.056   9.694
22172TIP3   OH266392   7.161   6.347   8.783
22172TIP3    H166393   7.114   6.333   8.698
22172TIP3    H266394   7.130   6.435   8.810
22173TIP3   OH266395   6.598   6.196   9.162
22173TIP3    H166396   6.647   6.188   9.247
22173TIP3    H266397   6.534   6.124   9.172
22174TIP3   OH266398   7.363   6.248   8.418
22174TIP3    H166399   7.423   6.178   8.385
22174TIP3    H266400   7.394   6.259   8.511
22175TIP3   OH266401   7.409   6.295   8.685
22175TIP3    H166402   7.322   6.305   8.730
22175TIP3    H266403   7.465   6.263   8.757
22176TIP3   OH266404   7.182   4.805   9.773
22176TIP3    H166405   7.096   4.765   9.748
22176TIP3    H266406   7.149   4.880   9.827
22177TIP3   OH266407   7.613   5.470   8.448
22177TIP3    H166408   7.580   5.443   8.360
22177TIP3    H266409   7.694   5.518   8.424
22178TIP3   OH266410   7.326   4.844   8.750
22178TIP3    H166411   7.293   4.841   8.842
22178TIP3    H266412   7.288   4.761   8.716
22179TIP3   OH266413   7.104   5.302   9.795
22179TIP3    H166414   7.080   5.335   9.883
22179TIP3    H266415   7.106   5.385   9.743
22180TIP3   OH266416   6.990   5.196   9.310
22180TIP3    H166417   6.897   5.167   9.327
22180TIP3    H266418   7.005   5.156   9.221
22181TIP3   OH266419   7.486   5.281   9.039
22181TIP3    H166420   7.435   5.354   8.996
22181TIP3    H266421   7.542   5.251   8.965
22182TIP3   OH266422   7.652   5.317   9.272
22182TIP3    H166423   7.585   5.340   9.206
22182TIP3    H266424   7.680   5.231   9.234
22183TIP3   OH266425   6.981   4.816   8.716
22183TIP3    H166426   6.973   4.813   8.813
22183TIP3    H266427   6.902   4.869   8.692
22184TIP3   OH266428   6.526   4.869   9.578
22184TIP3    H166429   6.599   4.896   9.638
22184TIP3    H266430   6.571   4.829   9.503
22185TIP3   OH266431   6.498   4.843   9.106
22185TIP3    H166432   6.544   4.880   9.028
22185TIP3    H266433   6.437   4.916   9.127
22186TIP3   OH266434   7.572   5.530   9.684
22186TIP3    H166435   7.638   5.475   9.636
22186TIP3    H266436   7.630   5.576   9.747
22187TIP3   OH266437   7.322   5.032   9.375
22187TIP3    H166438   7.242   5.016   9.428
22187TIP3    H266439   7.394   5.015   9.439
22188TIP3   OH266440   6.757   5.073   9.381
22188TIP3    H166441   6.663   5.080   9.354
22188TIP3    H266442   6.780   4.981   9.358
22189TIP3   OH266443   7.028   5.073   9.070
22189TIP3    H166444   7.122   5.085   9.047
22189TIP3    H266445   6.981   5.094   8.986
22190TIP3   OH266446   7.817   5.098   9.571
22190TIP3    H166447   7.791   5.102   9.665
22190TIP3    H266448   7.754   5.034   9.535
22191TIP3   OH266449   6.868   5.103   8.849
22191TIP3    H166450   6.796   5.059   8.801
22191TIP3    H266451   6.920   5.139   8.774
22192TIP3   OH266452   6.932   4.834   9.349
22192TIP3    H166453   6.897   4.754   9.395
22192TIP3    H266454   6.983   4.794   9.277
22193TIP3   OH266455   7.375   5.323   9.755
22193TIP3    H166456   7.288   5.283   9.771
22193TIP3    H266457   7.434   5.270   9.809
22194TIP3   OH266458   7.120   5.635   8.857
22194TIP3    H166459   7.048   5.570   8.845
22194TIP3    H266460   7.102   5.668   8.949
22195TIP3   OH266461   7.579   4.946   8.717
22195TIP3    H166462   7.482   4.930   8.724
22195TIP3    H266463   7.588   5.041   8.741
22196TIP3   OH266464   7.648   5.194   8.821
22196TIP3    H166465   7.744   5.199   8.836
22196TIP3    H266466   7.630   5.273   8.767
22197TIP3   OH266467   6.831   5.657   9.540
22197TIP3    H166468   6.854   5.627   9.450
22197TIP3    H266469   6.825   5.575   9.589
22198TIP3   OH266470   7.265   5.784   8.676
22198TIP3    H166471   7.218   5.870   8.681
22198TIP3    H266472   7.211   5.729   8.737
22199TIP3   OH266473   8.089   5.283   8.657
22199TIP3    H166474   8.026   5.238   8.595
22199TIP3    H266475   8.086   5.372   8.615
22200TIP3   OH266476   7.786   6.104   8.562
22200TIP3    H166477   7.766   6.034   8.625
22200TIP3    H266478   7.801   6.056   8.479
22201TIP3   OH266479   7.776   5.734   9.386
22201TIP3    H166480   7.706   5.685   9.431
22201TIP3    H266481   7.826   5.661   9.344
22202TIP3   OH266482   6.913   5.958   9.156
22202TIP3    H166483   6.915   6.041   9.104
22202TIP3    H266484   6.817   5.947   9.166
22203TIP3   OH266485   6.477   5.264   8.859
22203TIP3    H166486   6.522   5.349   8.878
22203TIP3    H266487   6.399   5.270   8.919
22204TIP3   OH266488   7.055   5.725   9.106
22204TIP3    H166489   7.019   5.815   9.118
22204TIP3    H266490   7.011   5.678   9.179
22205TIP3   OH266491   6.835   6.197   9.010
22205TIP3    H166492   6.748   6.206   9.054
22205TIP3    H266493   6.868   6.289   9.013
22206TIP3   OH266494   7.543   5.947   9.560
22206TIP3    H166495   7.548   5.964   9.655
22206TIP3    H266496   7.635   5.920   9.542
22207TIP3   OH266497   7.545   5.828   8.467
22207TIP3    H166498   7.597   5.805   8.546
22207TIP3    H266499   7.456   5.803   8.496
22208TIP3   OH266500   7.883   6.303   8.287
22208TIP3    H166501   7.927   6.378   8.243
22208TIP3    H266502   7.802   6.349   8.318
22209TIP3   OH266503   7.704   5.766   8.687
22209TIP3    H166504   7.695   5.698   8.756
22209TIP3    H266505   7.801   5.763   8.672
22210TIP3   OH266506   6.622   6.180   9.780
22210TIP3    H166507   6.661   6.096   9.807
22210TIP3    H266508   6.635   6.235   9.859
22211TIP3   OH266509   6.913   5.810   8.465
22211TIP3    H166510   6.925   5.718   8.437
22211TIP3    H266511   6.893   5.799   8.560
22212TIP3   OH266512   6.858   5.815   8.737
22212TIP3    H166513   6.929   5.791   8.798
22212TIP3    H266514   6.860   5.914   8.743
22213TIP3   OH266515   6.593   5.511   8.942
22213TIP3    H166516   6.527   5.555   8.998
22213TIP3    H266517   6.606   5.579   8.873
22214TIP3   OH266518   7.747   5.135   9.838
22214TIP3    H166519   7.803   5.194   9.891
22214TIP3    H266520   7.703   5.087   9.908
22215TIP3   OH266521   7.618   4.899   8.998
22215TIP3    H166522   7.606   4.921   8.903
22215TIP3    H266523   7.659   4.980   9.033
22216TIP3   OH266524   7.122   6.014   8.687
22216TIP3    H166525   7.035   6.040   8.722
22216TIP3    H266526   7.140   6.089   8.629
22217TIP3   OH266527   7.311   5.077   9.101
22217TIP3    H166528   7.376   5.147   9.081
22217TIP3    H266529   7.317   5.071   9.199
22218TIP3   OH266530   7.456   4.806   9.204
22218TIP3    H166531   7.458   4.883   9.264
22218TIP3    H266532   7.515   4.839   9.132
22219TIP3   OH266533   6.865   6.088   8.754
22219TIP3    H166534   6.835   6.157   8.691
22219TIP3    H266535   6.849   6.132   8.840
22220TIP3   OH266536   6.965   4.802   8.993
22220TIP3    H166537   6.964   4.892   9.029
22220TIP3    H266538   7.061   4.782   9.000
22221TIP3   OH266539   7.866   5.494   9.274
22221TIP3    H166540   7.788   5.435   9.279
22221TIP3    H266541   7.933   5.444   9.325
22222TIP3   OH266542   6.583   5.719   8.749
22222TIP3    H166543   6.643   5.794   8.757
22222TIP3    H266544   6.630   5.667   8.680
22223TIP3   OH266545   6.528   4.995   8.881
22223TIP3    H166546   6.530   5.093   8.876
22223TIP3    H266547   6.442   4.976   8.842
22224TIP3   OH266548   6.919   4.717   9.753
22224TIP3    H166549   6.886   4.683   9.668
22224TIP3    H266550   6.906   4.640   9.812
22225TIP3   OH266551   6.453   5.926   9.135
22225TIP3    H166552   6.385   5.961   9.194
22225TIP3    H266553   6.430   5.970   9.050
22226TIP3   OH266554   7.074   6.015   8.377
22226TIP3    H166555   7.017   5.945   8.417
22226TIP3    H266556   7.150   5.961   8.348
22227TIP3   OH266557   7.512   6.054   8.289
22227TIP3    H166558   7.556   5.993   8.350
22227TIP3    H266559   7.572   6.055   8.212
22228TIP3   OH266560   6.719   5.532   8.598
22228TIP3    H166561   6.774   5.500   8.671
22228TIP3    H266562   6.786   5.537   8.527
22229TIP3   OH266563   7.228   5.731   8.406
22229TIP3    H166564   7.230   5.744   8.503
22229TIP3    H266565   7.227   5.633   8.401
22230TIP3   OH266566   6.930   5.434   8.824
22230TIP3    H166567   6.900   5.389   8.904
22230TIP3    H266568   6.965   5.359   8.771
22231TIP3   OH266569   7.027   5.228   8.663
22231TIP3    H166570   7.000   5.231   8.569
22231TIP3    H266571   7.124   5.233   8.655
22232TIP3   OH266572   7.849   5.561   8.324
22232TIP3    H166573   7.828   5.513   8.241
22232TIP3    H266574   7.817   5.651   8.300
22233TIP3   OH266575   7.325   5.099   9.949
22233TIP3    H166576   7.341   5.050   9.869
22233TIP3    H266577   7.242   5.058   9.980
22234TIP3   OH266578   6.833   6.286   8.564
22234TIP3    H166579   6.929   6.287   8.547
22234TIP3    H266580   6.803   6.339   8.488
22235TIP3   OH266581   6.314   5.671   8.785
22235TIP3    H166582   6.409   5.694   8.771
22235TIP3    H266583   6.309   5.584   8.742
22236TIP3   OH266584   6.230   6.284   9.196
22236TIP3    H166585   6.161   6.223   9.161
22236TIP3    H266586   6.273   6.227   9.263
22237TIP3   OH266587   6.367   6.135   9.381
22237TIP3    H166588   6.350   6.065   9.445
22237TIP3    H266589   6.418   6.197   9.436
22238TIP3   OH266590   7.982   5.749   8.657
22238TIP3    H166591   8.052   5.812   8.629
22238TIP3    H266592   8.025   5.708   8.736
22239TIP3   OH266593   8.107   5.615   8.858
22239TIP3    H166594   8.046   5.573   8.923
22239TIP3    H266595   8.179   5.650   8.915
22240TIP3   OH266596   8.049   5.521   8.510
22240TIP3    H166597   7.978   5.525   8.442
22240TIP3    H266598   8.024   5.598   8.565
22241TIP3   OH266599   7.920   5.196   8.464
22241TIP3    H166600   7.879   5.234   8.385
22241TIP3    H266601   7.895   5.101   8.454
22242TIP3   OH266602   7.924   5.469   9.007
22242TIP3    H166603   7.934   5.373   9.003
22242TIP3    H266604   7.911   5.485   9.104
22243TIP3   OH266605   6.561   5.544   9.752
22243TIP3    H166606   6.547   5.516   9.659
22243TIP3    H266607   6.658   5.540   9.758
22244TIP3   OH266608   7.864   4.930   8.450
22244TIP3    H166609   7.940   4.899   8.504
22244TIP3    H266610   7.793   4.869   8.475
22245TIP3   OH266611   7.922   5.186   8.904
22245TIP3    H166612   7.963   5.098   8.919
22245TIP3    H266613   7.981   5.219   8.834
22246TIP3   OH266614   8.055   5.351   9.407
22246TIP3    H166615   8.143   5.368   9.364
22246TIP3    H266616   8.078   5.372   9.499
22247TIP3   OH266617   8.030   4.936   8.942
22247TIP3    H166618   8.079   4.920   9.025
22247TIP3    H266619   7.970   4.859   8.940
22248TIP3   OH266620   6.729   4.920   9.754
22248TIP3    H166621   6.790   4.845   9.770
22248TIP3    H266622   6.792   4.995   9.752
22249TIP3   OH266623   6.541   5.191   9.839
22249TIP3    H166624   6.588   5.198   9.753
22249TIP3    H266625   6.541   5.283   9.870
22250TIP3   OH266626   8.112   4.872   8.573
22250TIP3    H166627   8.153   4.800   8.521
22250TIP3    H266628   8.180   4.942   8.567
22251TIP3   OH266629   6.517   4.700   9.334
22251TIP3    H166630   6.424   4.699   9.360
22251TIP3    H266631   6.516   4.758   9.255
22252TIP3   OH266632   7.659   6.408   8.823
22252TIP3    H166633   7.719   6.387   8.748
22252TIP3    H266634   7.726   6.430   8.890
22253TIP3   OH266635   6.739   4.761  10.119
22253TIP3    H166636   6.709   4.742  10.209
22253TIP3    H266637   6.669   4.820  10.086
22254TIP3   OH266638   6.850   6.432   9.625
22254TIP3    H166639   6.845   6.490   9.701
22254TIP3    H266640   6.848   6.495   9.551
22255TIP3   OH266641   6.542   6.290   9.537
22255TIP3    H166642   6.570   6.268   9.629
22255TIP3    H266643   6.618   6.252   9.489
22256TIP3   OH266644   6.735   6.160   9.394
22256TIP3    H166645   6.754   6.080   9.449
22256TIP3    H266646   6.824   6.202   9.388
22257TIP3   OH266647   6.998   6.259   9.393
22257TIP3    H166648   7.036   6.170   9.402
22257TIP3    H266649   7.000   6.293   9.483
22258TIP3   OH266650   7.571   4.909   9.487
22258TIP3    H166651   7.534   4.835   9.539
22258TIP3    H266652   7.648   4.867   9.444
22259TIP3   OH266653   8.109   4.790   9.394
22259TIP3    H166654   8.141   4.844   9.319
22259TIP3    H266655   8.013   4.809   9.394
22260TIP3   OH266656   8.198   4.893   9.159
22260TIP3    H166657   8.271   4.843   9.116
22260TIP3    H266658   8.227   4.985   9.139
22261TIP3   OH266659   6.828   4.623   9.506
22261TIP3    H166660   6.736   4.588   9.507
22261TIP3    H266661   6.878   4.538   9.503
22262TIP3   OH266662   6.613   4.492   9.155
22262TIP3    H166663   6.641   4.547   9.081
22262TIP3    H266664   6.585   4.558   9.221
22263TIP3   OH266665   7.268   4.658   9.385
22263TIP3    H166666   7.330   4.704   9.327
22263TIP3    H266667   7.295   4.689   9.473
22264TIP3   OH266668   7.818   4.803   9.372
22264TIP3    H166669   7.820   4.766   9.282
22264TIP3    H266670   7.805   4.722   9.426
22265TIP3   OH266671   7.848   4.722   8.932
22265TIP3    H166672   7.760   4.763   8.941
22265TIP3    H266673   7.834   4.637   8.979
22266TIP3   OH266674   6.333   6.061   8.935
22266TIP3    H166675   6.247   6.029   8.900
22266TIP3    H266676   6.322   6.156   8.919
22267TIP3   OH266677   6.730   4.653   8.915
22267TIP3    H166678   6.779   4.589   8.860
22267TIP3    H266679   6.804   4.706   8.952
22268TIP3   OH266680   7.243   4.827   9.016
22268TIP3    H166681   7.302   4.778   9.075
22268TIP3    H266682   7.266   4.918   9.041
22269TIP3   OH266683   7.103   6.251   8.516
22269TIP3    H166684   7.191   6.275   8.479
22269TIP3    H266685   7.081   6.177   8.456
22270TIP3   OH266686   7.828   6.371   8.604
22270TIP3    H166687   7.819   6.274   8.591
22270TIP3    H266688   7.784   6.405   8.524
22271TIP3   OH266689   6.406   6.087   8.572
22271TIP3    H166690   6.405   6.118   8.664
22271TIP3    H266691   6.496   6.048   8.564
22272TIP3   OH266692   8.287   5.390   8.818
22272TIP3    H166693   8.246   5.476   8.834
22272TIP3    H266694   8.213   5.341   8.778
22273TIP3   OH266695   8.352   5.676   8.962
22273TIP3    H166696   8.407   5.606   9.002
22273TIP3    H266697   8.412   5.722   8.903
22274TIP3   OH266698   8.884   5.239   8.965
22274TIP3    H166699   8.883   5.325   8.919
22274TIP3    H266700   8.805   5.197   8.927
22275TIP3   OH266701   8.467   5.448   9.093
22275TIP3    H166702   8.561   5.442   9.116
22275TIP3    H266703   8.469   5.398   9.009
22276TIP3   OH266704   8.186   5.915   8.553
22276TIP3    H166705   8.145   5.946   8.470
22276TIP3    H266706   8.216   6.000   8.593
22277TIP3   OH266707   9.103   5.519   8.108
22277TIP3    H166708   9.165   5.568   8.164
22277TIP3    H266709   9.164   5.459   8.060
22278TIP3   OH266710   9.847   4.921   8.237
22278TIP3    H166711   9.765   4.935   8.290
22278TIP3    H266712   9.843   4.995   8.175
22279TIP3   OH266713   8.583   5.636   8.557
22279TIP3    H166714   8.513   5.692   8.518
22279TIP3    H266715   8.534   5.571   8.606
22280TIP3   OH266716   9.400   5.733   7.925
22280TIP3    H166717   9.378   5.693   7.839
22280TIP3    H266718   9.469   5.796   7.901
22281TIP3   OH266719   9.127   5.100   8.234
22281TIP3    H166720   9.093   5.096   8.325
22281TIP3    H266721   9.088   5.018   8.198
22282TIP3   OH266722   8.787   5.430   8.777
22282TIP3    H166723   8.695   5.415   8.807
22282TIP3    H266724   8.785   5.392   8.687
22283TIP3   OH266725   8.778   5.074   8.202
22283TIP3    H166726   8.769   5.068   8.299
22283TIP3    H266727   8.698   5.126   8.179
22284TIP3   OH266728   8.308   5.119   9.063
22284TIP3    H166729   8.382   5.144   9.122
22284TIP3    H266730   8.352   5.087   8.983
22285TIP3   OH266731   8.294   5.098   8.593
22285TIP3    H166732   8.341   5.137   8.515
22285TIP3    H266733   8.234   5.172   8.615
22286TIP3   OH266734   8.547   5.319   8.862
22286TIP3    H166735   8.455   5.325   8.828
22286TIP3    H266736   8.578   5.231   8.834
22287TIP3   OH266737   8.808   5.307   8.537
22287TIP3    H166738   8.897   5.339   8.513
22287TIP3    H266739   8.752   5.339   8.462
22288TIP3   OH266740   8.653   5.361   8.326
22288TIP3    H166741   8.583   5.317   8.275
22288TIP3    H266742   8.709   5.397   8.254
22289TIP3   OH266743   8.703   5.088   8.820
22289TIP3    H166744   8.682   5.008   8.874
22289TIP3    H266745   8.768   5.054   8.757
22290TIP3   OH266746   8.870   5.897   8.338
22290TIP3    H166747   8.822   5.811   8.335
22290TIP3    H266748   8.886   5.904   8.433
22291TIP3   OH266749   9.372   5.223   8.214
22291TIP3    H166750   9.278   5.197   8.208
22291TIP3    H266751   9.373   5.311   8.173
22292TIP3   OH266752   8.270   5.520   8.344
22292TIP3    H166753   8.318   5.603   8.365
22292TIP3    H266754   8.195   5.525   8.407
22293TIP3   OH266755   8.701   6.067   7.954
22293TIP3    H166756   8.721   5.977   7.920
22293TIP3    H266757   8.677   6.048   8.046
22294TIP3   OH266758   8.636   6.060   8.227
22294TIP3    H166759   8.689   5.993   8.274
22294TIP3    H266760   8.674   6.142   8.265
22295TIP3   OH266761   8.379   5.765   8.426
22295TIP3    H166762   8.316   5.812   8.486
22295TIP3    H266763   8.397   5.835   8.361
22296TIP3   OH266764   9.425   5.130   8.467
22296TIP3    H166765   9.410   5.164   8.376
22296TIP3    H266766   9.435   5.213   8.517
22297TIP3   OH266767   9.079   5.357   8.561
22297TIP3    H166768   9.176   5.363   8.562
22297TIP3    H266769   9.054   5.405   8.642
22298TIP3   OH266770   9.246   5.036   8.691
22298TIP3    H166771   9.280   5.095   8.760
22298TIP3    H266772   9.303   5.066   8.617
22299TIP3   OH266773   8.762   5.047   8.477
22299TIP3    H166774   8.759   5.139   8.510
22299TIP3    H266775   8.857   5.030   8.485
22300TIP3   OH266776   8.371   5.974   8.228
22300TIP3    H166777   8.439   6.043   8.240
22300TIP3    H266778   8.420   5.916   8.165
22301TIP3   OH266779   8.325   5.250   8.366
22301TIP3    H166780   8.326   5.348   8.363
22301TIP3    H266781   8.239   5.230   8.327
22302TIP3   OH266782   8.693   4.972   9.254
22302TIP3    H166783   8.689   4.952   9.158
22302TIP3    H266784   8.712   4.883   9.290
22303TIP3   OH266785   8.242   6.173   8.630
22303TIP3    H166786   8.181   6.225   8.683
22303TIP3    H266787   8.245   6.226   8.548
22304TIP3   OH266788   8.854   6.270   7.847
22304TIP3    H166789   8.801   6.196   7.886
22304TIP3    H266790   8.937   6.262   7.896
22305TIP3   OH266791   8.516   5.787   8.088
22305TIP3    H166792   8.568   5.749   8.161
22305TIP3    H266793   8.585   5.790   8.018
22306TIP3   OH266794   9.013   5.986   7.888
22306TIP3    H166795   9.012   5.997   7.985
22306TIP3    H266796   9.024   5.888   7.882
22307TIP3   OH266797   8.704   5.682   8.307
22307TIP3    H166798   8.681   5.652   8.397
22307TIP3    H266799   8.743   5.602   8.267
22308TIP3   OH266800   8.824   5.480   8.149
22308TIP3    H166801   8.796   5.486   8.055
22308TIP3    H266802   8.921   5.489   8.141
22309TIP3   OH266803   8.106   5.929   8.267
22309TIP3    H166804   8.201   5.952   8.256
22309TIP3    H266805   8.104   5.839   8.228
22310TIP3   OH266806   9.646   5.468   7.942
22310TIP3    H166807   9.667   5.484   7.849
22310TIP3    H266808   9.631   5.371   7.939
22311TIP3   OH266809   9.622   5.202   7.933
22311TIP3    H166810   9.714   5.174   7.956
22311TIP3    H266811   9.569   5.123   7.952
22312TIP3   OH266812   8.502   5.160   9.252
22312TIP3    H166813   8.561   5.082   9.258
22312TIP3    H266814   8.567   5.226   9.220
22313TIP3   OH266815   8.300   5.412   9.314
22313TIP3    H166816   8.335   5.403   9.223
22313TIP3    H266817   8.330   5.504   9.332
22314TIP3   OH266818   9.879   5.148   8.006
22314TIP3    H166819   9.928   5.076   7.963
22314TIP3    H266820   9.948   5.179   8.068
22315TIP3   OH266821   8.312   4.955   8.820
22315TIP3    H166822   8.218   4.955   8.845
22315TIP3    H266823   8.313   5.014   8.742
22316TIP3   OH266824   8.628   4.880   8.994
22316TIP3    H166825   8.535   4.849   8.995
22316TIP3    H266826   8.675   4.795   8.994
22317TIP3   OH266827   8.412   4.747   8.641
22317TIP3    H166828   8.442   4.805   8.568
22317TIP3    H266829   8.382   4.812   8.707
22318TIP3   OH266830   9.065   4.906   8.877
22318TIP3    H166831   9.123   4.950   8.813
22318TIP3    H266832   9.051   4.974   8.944
22319TIP3   OH266833   9.630   4.969   8.389
22319TIP3    H166834   9.551   5.023   8.406
22319TIP3    H266835   9.609   4.887   8.438
22320TIP3   OH266836   8.140   6.303   8.402
22320TIP3    H166837   8.050   6.277   8.373
22320TIP3    H266838   8.122   6.393   8.434
22321TIP3   OH266839   8.525   4.907   8.404
22321TIP3    H166840   8.575   4.845   8.347
22321TIP3    H266841   8.598   4.961   8.441
22322TIP3   OH266842   9.041   5.084   8.501
22322TIP3    H166843   9.101   5.044   8.566
22322TIP3    H266844   9.048   5.179   8.524
22323TIP3   OH266845   8.206   6.348   8.059
22323TIP3    H166846   8.190   6.361   8.154
22323TIP3    H266847   8.293   6.302   8.059
22324TIP3   OH266848   2.099   7.082   9.475
22324TIP3    H166849   2.107   7.175   9.446
22324TIP3    H266850   2.188   7.047   9.453
22325TIP3   OH266851   1.864   6.518   9.612
22325TIP3    H166852   1.841   6.466   9.533
22325TIP3    H266853   1.947   6.560   9.582
22326TIP3   OH266854   2.154   7.126   9.741
22326TIP3    H166855   2.066   7.106   9.779
22326TIP3    H266856   2.136   7.103   9.648
22327TIP3   OH266857   1.811   6.848   9.618
22327TIP3    H166858   1.860   6.817   9.697
22327TIP3    H266859   1.726   6.868   9.659
22328TIP3   OH266860   2.125   7.362   9.461
22328TIP3    H166861   2.131   7.413   9.377
22328TIP3    H266862   2.033   7.381   9.484
22329TIP3   OH266863   1.757   7.084   9.467
22329TIP3    H166864   1.825   7.020   9.490
22329TIP3    H266865   1.791   7.121   9.384
22330TIP3   OH266866   1.446   6.771   9.584
22330TIP3    H166867   1.443   6.785   9.681
22330TIP3    H266868   1.503   6.691   9.575
22331TIP3   OH266869   2.096   6.610   9.506
22331TIP3    H166870   2.082   6.558   9.424
22331TIP3    H266871   2.069   6.698   9.471
22332TIP3   OH266872   2.312   6.579   9.673
22332TIP3    H166873   2.230   6.588   9.619
22332TIP3    H266874   2.284   6.612   9.760
22333TIP3   OH266875   2.169   6.241   9.653
22333TIP3    H166876   2.136   6.300   9.585
22333TIP3    H266877   2.142   6.155   9.621
22334TIP3   OH266878   3.562   6.934   9.741
22334TIP3    H166879   3.534   7.025   9.716
22334TIP3    H266880   3.487   6.883   9.707
22335TIP3   OH266881   3.800   7.233   9.801
22335TIP3    H166882   3.802   7.159   9.863
22335TIP3    H266883   3.841   7.305   9.853
22336TIP3   OH266884   3.457   7.701   9.804
22336TIP3    H166885   3.498   7.616   9.779
22336TIP3    H266886   3.395   7.680   9.876
22337TIP3   OH266887   4.368   6.455  10.152
22337TIP3    H166888   4.376   6.529  10.214
22337TIP3    H266889   4.395   6.497  10.069
22338TIP3   OH266890   3.807   6.397   9.790
22338TIP3    H166891   3.880   6.388   9.855
22338TIP3    H266892   3.854   6.444   9.718
22339TIP3   OH266893   3.456   7.153   9.607
22339TIP3    H166894   3.411   7.132   9.525
22339TIP3    H266895   3.412   7.238   9.631
22340TIP3   OH266896   4.022   6.411   9.960
22340TIP3    H166897   4.021   6.386  10.054
22340TIP3    H266898   4.075   6.493   9.967
22341TIP3   OH266899   2.444   6.937   9.718
22341TIP3    H166900   2.380   6.974   9.657
22341TIP3    H266901   2.466   7.012   9.776
22342TIP3   OH266902   3.871   7.452   9.976
22342TIP3    H166903   3.778   7.453  10.008
22342TIP3    H266904   3.874   7.536   9.924
22343TIP3   OH266905   3.584   7.512   9.646
22343TIP3    H166906   3.636   7.433   9.620
22343TIP3    H266907   3.643   7.582   9.609
22344TIP3   OH266908   3.726   7.302   9.544
22344TIP3    H166909   3.682   7.224   9.508
22344TIP3    H266910   3.756   7.269   9.631
22345TIP3   OH266911   3.394   6.784   9.569
22345TIP3    H166912   3.313   6.834   9.547
22345TIP3    H266913   3.439   6.781   9.482
22346TIP3   OH266914   3.353   6.567   9.285
22346TIP3    H166915   3.421   6.617   9.334
22346TIP3    H266916   3.410   6.502   9.239
22347TIP3   OH266917   4.300   7.003  10.126
22347TIP3    H166918   4.228   7.056  10.164
22347TIP3    H266919   4.326   7.058  10.050
22348TIP3   OH266920   3.741   6.864   9.543
22348TIP3    H166921   3.686   6.890   9.622
22348TIP3    H266922   3.824   6.838   9.587
22349TIP3   OH266923   2.966   6.856   9.947
22349TIP3    H166924   2.918   6.803   9.879
22349TIP3    H266925   3.035   6.795   9.974
22350TIP3   OH266926   3.071   7.292  10.049
22350TIP3    H166927   3.082   7.210   9.999
22350TIP3    H266928   3.138   7.279  10.121
22351TIP3   OH266929   3.622   7.450  10.100
22351TIP3    H166930   3.529   7.474  10.092
22351TIP3    H266931   3.618   7.367  10.151
22352TIP3   OH266932   3.584   6.722   9.368
22352TIP3    H166933   3.641   6.782   9.420
22352TIP3    H266934   3.609   6.746   9.276
22353TIP3   OH266935   3.325   7.406   9.646
22353TIP3    H166936   3.406   7.458   9.658
22353TIP3    H266937   3.266   7.468   9.602
22354TIP3   OH266938   4.098   5.964   9.415
22354TIP3    H166939   4.017   5.985   9.466
22354TIP3    H266940   4.111   6.048   9.366
22355TIP3   OH266941   2.841   6.700   9.759
22355TIP3    H166942   2.775   6.743   9.701
22355TIP3    H266943   2.788   6.632   9.801
22356TIP3   OH266944   3.895   7.331   8.962
22356TIP3    H166945   3.903   7.428   8.949
22356TIP3    H266946   3.988   7.303   8.951
22357TIP3   OH266947   3.200   7.649   9.440
22357TIP3    H166948   3.163   7.622   9.354
22357TIP3    H266949   3.155   7.734   9.454
22358TIP3   OH266950   3.408   7.550   9.085
22358TIP3    H166951   3.467   7.480   9.049
22358TIP3    H266952   3.441   7.559   9.176
22359TIP3   OH266953   3.457   7.598   9.356
22359TIP3    H166954   3.369   7.608   9.399
22359TIP3    H266955   3.509   7.560   9.429
22360TIP3   OH266956   3.658   6.769   9.111
22360TIP3    H166957   3.625   6.743   9.023
22360TIP3    H266958   3.737   6.821   9.087
22361TIP3   OH266959   3.374   6.144   9.412
22361TIP3    H166960   3.340   6.140   9.504
22361TIP3    H266961   3.331   6.064   9.376
22362TIP3   OH266962   3.531   6.585   9.699
22362TIP3    H166963   3.478   6.657   9.658
22362TIP3    H266964   3.587   6.557   9.624
22363TIP3   OH266965   3.704   6.625   9.927
22363TIP3    H166966   3.630   6.644   9.867
22363TIP3    H266967   3.724   6.534   9.900
22364TIP3   OH266968   3.027   6.119   9.383
22364TIP3    H166969   3.016   6.109   9.480
22364TIP3    H266970   2.944   6.165   9.360
22365TIP3   OH266971   2.546   6.154   9.768
22365TIP3    H166972   2.590   6.194   9.691
22365TIP3    H266973   2.531   6.229   9.826
22366TIP3   OH266974   3.084   6.359   9.718
22366TIP3    H166975   3.167   6.401   9.693
22366TIP3    H266976   3.020   6.392   9.651
22367TIP3   OH266977   2.909   6.411   9.515
22367TIP3    H166978   2.833   6.365   9.474
22367TIP3    H266979   2.959   6.438   9.435
22368TIP3   OH266980   3.164   6.937   9.521
22368TIP3    H166981   3.093   6.869   9.510
22368TIP3    H266982   3.151   6.963   9.615
22369TIP3   OH266983   4.060   7.165  10.165
22369TIP3    H166984   4.098   7.223  10.094
22369TIP3    H266985   3.984   7.126  10.119
22370TIP3   OH266986   3.624   6.249   9.377
22370TIP3    H166987   3.527   6.231   9.387
22370TIP3    H266988   3.632   6.342   9.404
22371TIP3   OH266989   3.693   6.494   9.484
22371TIP3    H166990   3.789   6.500   9.500
22371TIP3    H266991   3.674   6.574   9.431
22372TIP3   OH266992   3.309   7.084   9.340
22372TIP3    H166993   3.263   7.171   9.345
22372TIP3    H266994   3.254   7.030   9.400
22373TIP3   OH266995   4.136   6.584   9.320
22373TIP3    H166996   4.073   6.539   9.258
22373TIP3    H266997   4.132   6.673   9.280
22374TIP3   OH266998   3.835   7.403   9.228
22374TIP3    H166999   3.809   7.335   9.290
22374TIP3    H267000   3.846   7.355   9.144
22375TIP3   OH267001   3.832   7.033  10.070
22375TIP3    H167002   3.742   7.000  10.071
22375TIP3    H267003   3.877   6.958  10.025
22376TIP3   OH267004   2.958   7.230   9.765
22376TIP3    H167005   2.962   7.318   9.723
22376TIP3    H267006   2.879   7.237   9.821
22377TIP3   OH267007   2.527   6.568   9.514
22377TIP3    H167008   2.576   6.649   9.539
22377TIP3    H267009   2.450   6.574   9.575
22378TIP3   OH267010   3.120   7.014   9.780
22378TIP3    H167011   3.073   7.100   9.769
22378TIP3    H267012   3.058   6.967   9.839
22379TIP3   OH267013   2.897   7.490   9.660
22379TIP3    H167014   2.827   7.509   9.725
22379TIP3    H267015   2.948   7.573   9.663
22380TIP3   OH267016   3.589   7.129   9.129
22380TIP3    H167017   3.641   7.104   9.209
22380TIP3    H267018   3.500   7.105   9.158
22381TIP3   OH267019   3.930   7.607   8.950
22381TIP3    H167020   3.968   7.680   8.898
22381TIP3    H267021   3.849   7.652   8.983
22382TIP3   OH267022   3.749   7.062   9.346
22382TIP3    H167023   3.740   6.998   9.419
22382TIP3    H267024   3.846   7.063   9.335
22383TIP3   OH267025   2.958   7.111   9.129
22383TIP3    H167026   2.970   7.019   9.100
22383TIP3    H267027   2.937   7.099   9.224
22384TIP3   OH267028   2.902   7.114   9.400
22384TIP3    H167029   2.969   7.089   9.465
22384TIP3    H267030   2.905   7.212   9.405
22385TIP3   OH267031   2.647   6.808   9.598
22385TIP3    H167032   2.575   6.843   9.656
22385TIP3    H267033   2.655   6.882   9.535
22386TIP3   OH267034   3.672   6.195   9.657
22386TIP3    H167035   3.652   6.222   9.565
22386TIP3    H267036   3.709   6.277   9.695
22387TIP3   OH267037   3.169   7.316   9.351
22387TIP3    H167038   3.079   7.339   9.382
22387TIP3    H267039   3.184   7.386   9.287
22388TIP3   OH267040   3.378   6.366   9.746
22388TIP3    H167041   3.437   6.442   9.728
22388TIP3    H267042   3.347   6.388   9.837
22389TIP3   OH267043   3.508   6.104   9.856
22389TIP3    H167044   3.505   6.173   9.924
22389TIP3    H267045   3.562   6.148   9.787
22390TIP3   OH267046   2.909   7.385   9.407
22390TIP3    H167047   2.881   7.456   9.345
22390TIP3    H267048   2.897   7.429   9.493
22391TIP3   OH267049   3.024   6.098   9.663
22391TIP3    H167050   3.016   6.191   9.695
22391TIP3    H267051   3.121   6.089   9.666
22392TIP3   OH267052   3.914   6.800   9.943
22392TIP3    H167053   3.839   6.737   9.952
22392TIP3    H267054   3.986   6.751   9.988
22393TIP3   OH267055   2.626   7.022   9.411
22393TIP3    H167056   2.693   7.092   9.417
22393TIP3    H267057   2.670   6.965   9.344
22394TIP3   OH267058   2.582   6.300   9.531
22394TIP3    H167059   2.573   6.398   9.530
22394TIP3    H267060   2.492   6.270   9.519
22395TIP3   OH267061   3.890   7.695   9.859
22395TIP3    H167062   3.846   7.758   9.799
22395TIP3    H267063   3.983   7.725   9.853
22396TIP3   OH267064   2.510   7.188   9.813
22396TIP3    H167065   2.425   7.217   9.847
22396TIP3    H267066   2.501   7.201   9.718
22397TIP3   OH267067   3.119   7.316   9.043
22397TIP3    H167068   3.062   7.245   9.080
22397TIP3    H267069   3.194   7.263   9.010
22398TIP3   OH267070   3.556   7.357   8.953
22398TIP3    H167071   3.602   7.294   9.011
22398TIP3    H267072   3.612   7.358   8.873
22399TIP3   OH267073   2.762   6.835   9.261
22399TIP3    H167074   2.813   6.799   9.335
22399TIP3    H267075   2.831   6.839   9.192
22400TIP3   OH267076   3.274   7.031   9.069
22400TIP3    H167077   3.274   7.044   9.166
22400TIP3    H267078   3.271   6.933   9.064
22401TIP3   OH267079   2.979   6.734   9.491
22401TIP3    H167080   2.939   6.693   9.569
22401TIP3    H267081   3.008   6.656   9.440
22402TIP3   OH267082   3.072   6.528   9.325
22402TIP3    H167083   3.044   6.532   9.231
22402TIP3    H267084   3.169   6.536   9.317
22403TIP3   OH267085   3.896   6.861   8.987
22403TIP3    H167086   3.873   6.815   8.904
22403TIP3    H267087   3.864   6.952   8.964
22404TIP3   OH267088   2.880   7.592   9.230
22404TIP3    H167089   2.975   7.594   9.212
22404TIP3    H267090   2.849   7.641   9.151
22405TIP3   OH267091   2.351   6.979   9.435
22405TIP3    H167092   2.447   6.999   9.434
22405TIP3    H267093   2.351   6.887   9.401
22406TIP3   OH267094   4.128   7.838   9.855
22406TIP3    H167095   4.187   7.886   9.914
22406TIP3    H267096   4.142   7.888   9.773
22407TIP3   OH267097   4.029   7.047   9.322
22407TIP3    H167098   4.097   7.112   9.294
22407TIP3    H267099   4.072   7.008   9.401
22408TIP3   OH267100   4.156   6.915   9.526
22408TIP3    H167101   4.090   6.873   9.585
22408TIP3    H267102   4.219   6.956   9.589
22409TIP3   OH267103   4.185   7.293   9.953
22409TIP3    H167104   4.260   7.239   9.921
22409TIP3    H267105   4.191   7.372   9.897
22410TIP3   OH267106   4.054   7.613  10.132
22410TIP3    H167107   3.978   7.646  10.181
22410TIP3    H267108   4.014   7.549  10.071
22411TIP3   OH267109   4.095   6.823   9.172
22411TIP3    H167110   4.024   6.826   9.105
22411TIP3    H267111   4.068   6.899   9.228
22412TIP3   OH267112   3.968   6.495   9.126
22412TIP3    H167113   3.922   6.536   9.052
22412TIP3    H267114   3.941   6.401   9.115
22413TIP3   OH267115   3.971   6.772   9.674
22413TIP3    H167116   3.978   6.675   9.670
22413TIP3    H267117   3.956   6.787   9.770
22414TIP3   OH267118   3.910   6.229   9.111
22414TIP3    H167119   3.984   6.200   9.168
22414TIP3    H267120   3.836   6.172   9.138
22415TIP3   OH267121   3.966   6.488   9.567
22415TIP3    H167122   4.006   6.400   9.583
22415TIP3    H267123   4.026   6.521   9.498
22416TIP3   OH267124   4.129   6.668  10.050
22416TIP3    H167125   4.220   6.692  10.020
22416TIP3    H267126   4.133   6.695  10.142
22417TIP3   OH267127   4.077   6.239   9.602
22417TIP3    H167128   4.126   6.223   9.686
22417TIP3    H267129   4.016   6.162   9.602
22418TIP3   OH267130   4.157   6.173   9.237
22418TIP3    H167131   4.198   6.101   9.185
22418TIP3    H267132   4.225   6.244   9.231
22419TIP3   OH267133   3.728   7.694   9.505
22419TIP3    H167134   3.777   7.681   9.421
22419TIP3    H267135   3.765   7.777   9.536
22420TIP3   OH267136   4.152   6.115  10.056
22420TIP3    H167137   4.192   6.157   9.977
22420TIP3    H267138   4.058   6.129  10.038
22421TIP3   OH267139   4.245   6.195   9.815
22421TIP3    H167140   4.320   6.147   9.775
22421TIP3    H267141   4.275   6.288   9.804
22422TIP3   OH267142   3.881   6.102   9.994
22422TIP3    H167143   3.862   6.095   9.900
22422TIP3    H267144   3.890   6.009  10.020
22423TIP3   OH267145   3.894   6.026   9.595
22423TIP3    H167146   3.807   6.068   9.605
22423TIP3    H267147   3.879   5.939   9.637
22424TIP3   OH267148   2.373   7.320   9.600
22424TIP3    H167149   2.290   7.299   9.553
22424TIP3    H267150   2.388   7.410   9.565
22425TIP3   OH267151   2.778   5.980   9.546
22425TIP3    H167152   2.822   5.895   9.533
22425TIP3    H267153   2.824   6.011   9.626
22426TIP3   OH267154   3.298   6.117   9.679
22426TIP3    H167155   3.368   6.089   9.741
22426TIP3    H267156   3.305   6.214   9.694
22427TIP3   OH267157   3.150   7.551   9.181
22427TIP3    H167158   3.236   7.575   9.142
22427TIP3    H267159   3.125   7.478   9.120
22428TIP3   OH267160   3.868   7.670   9.269
22428TIP3    H167161   3.859   7.573   9.256
22428TIP3    H267162   3.822   7.704   9.189
22429TIP3   OH267163   2.448   7.379   9.236
22429TIP3    H167164   2.459   7.450   9.302
22429TIP3    H267165   2.539   7.343   9.227
22430TIP3   OH267166   5.360   7.189   9.226
22430TIP3    H167167   5.329   7.279   9.204
22430TIP3    H267168   5.284   7.137   9.194
22431TIP3   OH267169   5.355   7.191   9.606
22431TIP3    H167170   5.383   7.164   9.696
22431TIP3    H267171   5.316   7.109   9.573
22432TIP3   OH267172   4.661   7.080   9.964
22432TIP3    H167173   4.664   7.059  10.058
22432TIP3    H267174   4.740   7.134   9.950
22433TIP3   OH267175   5.592   7.478   9.288
22433TIP3    H167176   5.584   7.395   9.338
22433TIP3    H267177   5.636   7.535   9.352
22434TIP3   OH267178   4.631   7.494   9.706
22434TIP3    H167179   4.622   7.396   9.705
22434TIP3    H267180   4.726   7.502   9.684
22435TIP3   OH267181   4.337   6.698   9.482
22435TIP3    H167182   4.287   6.780   9.497
22435TIP3    H267183   4.267   6.641   9.447
22436TIP3   OH267184   4.398   6.984   9.651
22436TIP3    H167185   4.445   6.907   9.689
22436TIP3    H267186   4.453   7.005   9.575
22437TIP3   OH267187   5.251   7.954   9.304
22437TIP3    H167188   5.299   7.880   9.261
22437TIP3    H267189   5.218   7.915   9.386
22438TIP3   OH267190   5.157   7.410   9.657
22438TIP3    H167191   5.189   7.331   9.610
22438TIP3    H267192   5.243   7.452   9.676
22439TIP3   OH267193   6.171   6.746   9.655
22439TIP3    H167194   6.162   6.840   9.675
22439TIP3    H267195   6.196   6.750   9.561
22440TIP3   OH267196   5.570   6.917   9.689
22440TIP3    H167197   5.613   6.830   9.705
22440TIP3    H267198   5.538   6.904   9.598
22441TIP3   OH267199   4.906   6.574   9.653
22441TIP3    H167200   4.885   6.646   9.589
22441TIP3    H267201   4.859   6.500   9.609
22442TIP3   OH267202   5.601   6.665   9.276
22442TIP3    H167203   5.673   6.648   9.341
22442TIP3    H267204   5.653   6.700   9.202
22443TIP3   OH267205   4.542   6.779   9.758
22443TIP3    H167206   4.623   6.755   9.807
22443TIP3    H267207   4.551   6.720   9.681
22444TIP3   OH267208   4.982   6.974   9.550
22444TIP3    H167209   5.076   6.947   9.563
22444TIP3    H267210   4.942   6.890   9.518
22445TIP3   OH267211   4.907   6.557  10.090
22445TIP3    H167212   4.845   6.593  10.023
22445TIP3    H267213   4.849   6.548  10.167
22446TIP3   OH267214   5.251   7.409   9.096
22446TIP3    H167215   5.208   7.386   9.013
22446TIP3    H267216   5.207   7.494   9.117
22447TIP3   OH267217   4.991   7.333   9.882
22447TIP3    H167218   4.939   7.407   9.913
22447TIP3    H267219   5.052   7.374   9.819
22448TIP3   OH267220   5.813   6.666   9.446
22448TIP3    H167221   5.804   6.619   9.531
22448TIP3    H267222   5.865   6.744   9.472
22449TIP3   OH267223   4.777   6.671   9.873
22449TIP3    H167224   4.842   6.743   9.889
22449TIP3    H267225   4.820   6.627   9.796
22450TIP3   OH267226   4.235   7.216   9.216
22450TIP3    H167227   4.191   7.243   9.133
22450TIP3    H267228   4.263   7.302   9.253
22451TIP3   OH267229   5.675   7.794   9.472
22451TIP3    H167230   5.587   7.765   9.506
22451TIP3    H267231   5.670   7.771   9.378
22452TIP3   OH267232   5.956   6.623   9.802
22452TIP3    H167233   5.875   6.667   9.776
22452TIP3    H267234   6.024   6.666   9.747
22453TIP3   OH267235   5.262   6.275   9.803
22453TIP3    H167236   5.246   6.180   9.821
22453TIP3    H267237   5.183   6.313   9.848
22454TIP3   OH267238   5.386   7.778   9.144
22454TIP3    H167239   5.428   7.695   9.112
22454TIP3    H267240   5.442   7.844   9.096
22455TIP3   OH267241   5.516   7.563   9.035
22455TIP3    H167242   5.480   7.486   8.989
22455TIP3    H267243   5.547   7.522   9.119
22456TIP3   OH267244   5.191   7.039   9.056
22456TIP3    H167245   5.110   7.090   9.035
22456TIP3    H267246   5.236   7.036   8.970
22457TIP3   OH267247   5.149   6.824   8.773
22457TIP3    H167248   5.217   6.873   8.822
22457TIP3    H267249   5.205   6.759   8.726
22458TIP3   OH267250   6.091   7.261   9.631
22458TIP3    H167251   6.018   7.323   9.647
22458TIP3    H267252   6.131   7.300   9.551
22459TIP3   OH267253   5.537   7.122   9.028
22459TIP3    H167254   5.483   7.145   9.107
22459TIP3    H267255   5.621   7.094   9.072
22460TIP3   OH267256   4.769   7.119   9.444
22460TIP3    H167257   4.727   7.062   9.377
22460TIP3    H267258   4.846   7.065   9.472
22461TIP3   OH267259   4.893   7.521   9.596
22461TIP3    H167260   4.875   7.486   9.507
22461TIP3    H267261   4.984   7.492   9.612
22462TIP3   OH267262   4.916   7.084   9.800
22462TIP3    H167263   4.941   7.070   9.707
22462TIP3    H267264   4.950   7.174   9.819
22463TIP3   OH267265   5.441   7.742   9.602
22463TIP3    H167266   5.357   7.781   9.627
22463TIP3    H267267   5.431   7.651   9.638
22464TIP3   OH267268   5.379   6.979   8.854
22464TIP3    H167269   5.437   7.038   8.907
22464TIP3    H267270   5.405   7.003   8.762
22465TIP3   OH267271   5.123   7.660   9.128
22465TIP3    H167272   5.195   7.721   9.150
22465TIP3    H267273   5.057   7.718   9.088
22466TIP3   OH267274   5.894   6.220   8.902
22466TIP3    H167275   5.813   6.240   8.953
22466TIP3    H267276   5.907   6.304   8.853
22467TIP3   OH267277   4.636   6.962   9.250
22467TIP3    H167278   4.570   7.007   9.193
22467TIP3    H267279   4.594   6.877   9.263
22468TIP3   OH267280   5.692   7.587   8.448
22468TIP3    H167281   5.700   7.685   8.436
22468TIP3    H267282   5.785   7.559   8.438
22469TIP3   OH267283   4.267   7.534   9.794
22469TIP3    H167284   4.361   7.534   9.773
22469TIP3    H267285   4.253   7.616   9.843
22470TIP3   OH267286   5.004   7.906   8.932
22470TIP3    H167287   4.956   7.888   8.850
22470TIP3    H267288   4.971   7.994   8.958
22471TIP3   OH267289   4.440   7.754   9.313
22471TIP3    H167290   4.488   7.746   9.399
22471TIP3    H267291   4.378   7.680   9.321
22472TIP3   OH267292   5.204   7.806   8.571
22472TIP3    H167293   5.263   7.736   8.535
22472TIP3    H267294   5.238   7.817   8.662
22473TIP3   OH267295   5.254   7.853   8.841
22473TIP3    H167296   5.165   7.865   8.881
22473TIP3    H267297   5.301   7.809   8.912
22474TIP3   OH267298   5.023   6.359   9.923
22474TIP3    H167299   4.934   6.324   9.900
22474TIP3    H267300   4.997   6.439   9.970
22475TIP3   OH267301   5.452   7.027   8.597
22475TIP3    H167302   5.421   7.000   8.509
22475TIP3    H267303   5.534   7.076   8.575
22476TIP3   OH267304   5.167   6.402   8.900
22476TIP3    H167305   5.134   6.399   8.992
22476TIP3    H267306   5.129   6.319   8.866
22477TIP3   OH267307   4.958   6.866   9.948
22477TIP3    H167308   4.912   6.896  10.027
22477TIP3    H267309   4.944   6.943   9.888
22478TIP3   OH267310   4.837   6.754   9.461
22478TIP3    H167311   4.744   6.728   9.479
22478TIP3    H267312   4.850   6.713   9.373
22479TIP3   OH267313   5.328   6.840   9.189
22479TIP3    H167314   5.275   6.911   9.147
22479TIP3    H267315   5.382   6.809   9.114
22480TIP3   OH267316   5.485   6.870   9.429
22480TIP3    H167317   5.425   6.898   9.356
22480TIP3    H267318   5.519   6.787   9.388
22481TIP3   OH267319   4.822   6.374   8.866
22481TIP3    H167320   4.814   6.371   8.963
22481TIP3    H267321   4.743   6.426   8.843
22482TIP3   OH267322   4.364   6.421   9.732
22482TIP3    H167323   4.437   6.452   9.789
22482TIP3    H267324   4.408   6.385   9.654
22483TIP3   OH267325   4.340   6.401   9.256
22483TIP3    H167326   4.385   6.440   9.178
22483TIP3    H267327   4.278   6.473   9.278
22484TIP3   OH267328   5.473   7.117   9.842
22484TIP3    H167329   5.520   7.048   9.791
22484TIP3    H267330   5.503   7.100   9.932
22485TIP3   OH267331   5.163   6.577   9.523
22485TIP3    H167332   5.080   6.574   9.575
22485TIP3    H267333   5.230   6.575   9.593
22486TIP3   OH267334   4.599   6.632   9.531
22486TIP3    H167335   4.504   6.640   9.505
22486TIP3    H267336   4.621   6.539   9.509
22487TIP3   OH267337   4.869   6.628   9.220
22487TIP3    H167338   4.963   6.643   9.197
22487TIP3    H267339   4.822   6.651   9.136
22488TIP3   OH267340   5.651   6.655   9.717
22488TIP3    H167341   5.622   6.659   9.810
22488TIP3    H267342   5.591   6.588   9.681
22489TIP3   OH267343   4.709   6.661   8.999
22489TIP3    H167344   4.636   6.617   8.953
22489TIP3    H267345   4.760   6.696   8.924
22490TIP3   OH267346   5.248   6.904   9.617
22490TIP3    H167347   5.321   6.866   9.566
22490TIP3    H267348   5.258   6.860   9.704
22491TIP3   OH267349   4.773   6.392   9.499
22491TIP3    H167350   4.737   6.313   9.545
22491TIP3    H267351   4.822   6.352   9.426
22492TIP3   OH267352   5.222   6.789   9.898
22492TIP3    H167353   5.129   6.819   9.912
22492TIP3    H267354   5.272   6.845   9.958
22493TIP3   OH267355   4.962   7.192   9.006
22493TIP3    H167356   4.889   7.127   8.995
22493TIP3    H267357   4.943   7.226   9.097
22494TIP3   OH267358   5.860   7.419   9.641
22494TIP3    H167359   5.890   7.468   9.562
22494TIP3    H267360   5.780   7.375   9.609
22495TIP3   OH267361   5.419   6.505   8.865
22495TIP3    H167362   5.322   6.488   8.875
22495TIP3    H267363   5.428   6.599   8.891
22496TIP3   OH267364   5.489   6.751   8.971
22496TIP3    H167365   5.585   6.756   8.987
22496TIP3    H267366   5.471   6.831   8.918
22497TIP3   OH267367   4.661   7.218   9.683
22497TIP3    H167368   4.693   7.187   9.596
22497TIP3    H267369   4.683   7.143   9.740
22498TIP3   OH267370   5.105   7.342   8.826
22498TIP3    H167371   5.058   7.428   8.832
22498TIP3    H267372   5.051   7.287   8.886
22499TIP3   OH267373   5.930   6.841   8.808
22499TIP3    H167374   5.868   6.795   8.746
22499TIP3    H267375   5.928   6.929   8.766
22500TIP3   OH267376   5.629   7.660   8.713
22500TIP3    H167377   5.608   7.589   8.775
22500TIP3    H267378   5.644   7.613   8.629
22501TIP3   OH267379   5.618   7.293   9.548
22501TIP3    H167380   5.527   7.259   9.562
22501TIP3    H267381   5.660   7.214   9.509
22502TIP3   OH267382   4.753   7.517   9.306
22502TIP3    H167383   4.753   7.600   9.254
22502TIP3    H267384   4.658   7.502   9.316
22503TIP3   OH267385   4.317   6.822   9.009
22503TIP3    H167386   4.362   6.906   9.029
22503TIP3    H267387   4.240   6.827   9.069
22504TIP3   OH267388   4.895   7.284   9.252
22504TIP3    H167389   4.857   7.373   9.269
22504TIP3    H267390   4.856   7.233   9.326
22505TIP3   OH267391   5.036   7.847   9.755
22505TIP3    H167392   5.066   7.928   9.709
22505TIP3    H267393   5.075   7.856   9.842
22506TIP3   OH267394   4.676   7.754   9.160
22506TIP3    H167395   4.589   7.764   9.204
22506TIP3    H267396   4.708   7.847   9.162
22507TIP3   OH267397   5.423   7.497   9.731
22507TIP3    H167398   5.429   7.482   9.827
22507TIP3    H267399   5.488   7.433   9.697
22508TIP3   OH267400   5.387   7.385   8.616
22508TIP3    H167401   5.438   7.361   8.696
22508TIP3    H267402   5.297   7.361   8.645
22509TIP3   OH267403   5.725   7.864   8.437
22509TIP3    H167404   5.764   7.938   8.388
22509TIP3    H267405   5.643   7.908   8.468
22510TIP3   OH267406   5.546   7.323   8.836
22510TIP3    H167407   5.536   7.256   8.905
22510TIP3    H267408   5.643   7.320   8.822
22511TIP3   OH267409   4.467   7.748   9.953
22511TIP3    H167410   4.480   7.654   9.937
22511TIP3    H267411   4.542   7.768  10.010
22512TIP3   OH267412   4.754   7.367   8.615
22512TIP3    H167413   4.766   7.275   8.588
22512TIP3    H267414   4.734   7.357   8.710
22513TIP3   OH267415   4.700   7.373   8.886
22513TIP3    H167416   4.767   7.347   8.950
22513TIP3    H267417   4.702   7.471   8.894
22514TIP3   OH267418   4.434   7.068   9.092
22514TIP3    H167419   4.368   7.112   9.149
22514TIP3    H267420   4.447   7.138   9.024
22515TIP3   OH267421   5.584   6.691   9.980
22515TIP3    H167422   5.651   6.743  10.025
22515TIP3    H267423   5.546   6.639  10.052
22516TIP3   OH267424   5.462   6.456   9.148
22516TIP3    H167425   5.448   6.480   9.054
22516TIP3    H267426   5.501   6.538   9.184
22517TIP3   OH267427   4.964   7.573   8.838
22517TIP3    H167428   4.876   7.598   8.873
22517TIP3    H267429   4.979   7.646   8.776
22518TIP3   OH267430   5.153   6.634   9.250
22518TIP3    H167431   5.217   6.706   9.233
22518TIP3    H267432   5.157   6.627   9.348
22519TIP3   OH267433   5.296   6.363   9.354
22519TIP3    H167434   5.289   6.440   9.413
22519TIP3    H267435   5.357   6.399   9.285
22520TIP3   OH267436   4.707   7.646   8.905
22520TIP3    H167437   4.676   7.714   8.841
22520TIP3    H267438   4.690   7.690   8.991
22521TIP3   OH267439   4.807   6.359   9.143
22521TIP3    H167440   4.805   6.450   9.179
22521TIP3    H267441   4.903   6.341   9.151
22522TIP3   OH267442   5.711   7.052   9.430
22522TIP3    H167443   5.637   6.989   9.440
22522TIP3    H267444   5.785   7.003   9.473
22523TIP3   OH267445   4.424   7.277   8.898
22523TIP3    H167446   4.485   7.352   8.906
22523TIP3    H267447   4.471   7.225   8.830
22524TIP3   OH267448   4.370   6.552   9.029
22524TIP3    H167449   4.368   6.650   9.026
22524TIP3    H267450   4.284   6.530   8.992
22525TIP3   OH267451   4.759   6.278   9.903
22525TIP3    H167452   4.726   6.243   9.817
22525TIP3    H267453   4.748   6.199   9.960
22526TIP3   OH267454   4.295   7.488   9.286
22526TIP3    H167455   4.223   7.520   9.342
22526TIP3    H267456   4.272   7.529   9.200
22527TIP3   OH267457   4.915   7.573   8.529
22527TIP3    H167458   4.857   7.503   8.567
22527TIP3    H267459   4.990   7.519   8.499
22528TIP3   OH267460   5.352   7.613   8.440
22528TIP3    H167461   5.398   7.551   8.499
22528TIP3    H267462   5.409   7.615   8.361
22529TIP3   OH267463   4.560   7.091   8.748
22529TIP3    H167464   4.614   7.057   8.822
22529TIP3    H267465   4.628   7.095   8.678
22530TIP3   OH267466   5.070   7.288   8.555
22530TIP3    H167467   5.071   7.301   8.652
22530TIP3    H267468   5.067   7.190   8.551
22531TIP3   OH267469   4.771   6.993   8.974
22531TIP3    H167470   4.741   6.951   9.056
22531TIP3    H267471   4.804   6.916   8.923
22532TIP3   OH267472   4.868   6.785   8.813
22532TIP3    H167473   4.841   6.788   8.719
22532TIP3    H267474   4.965   6.792   8.805
22533TIP3   OH267475   5.689   7.117   8.473
22533TIP3    H167476   5.668   7.069   8.391
22533TIP3    H267477   5.657   7.207   8.449
22534TIP3   OH267478   5.172   6.624  10.137
22534TIP3    H167479   5.193   6.653  10.047
22534TIP3    H267480   5.078   6.599  10.127
22535TIP3   OH267481   4.675   7.845   8.715
22535TIP3    H167482   4.770   7.846   8.697
22535TIP3    H267483   4.643   7.897   8.639
22536TIP3   OH267484   4.155   7.230   8.934
22536TIP3    H167485   4.250   7.252   8.921
22536TIP3    H267486   4.150   7.142   8.892
22537TIP3   OH267487   4.070   7.842   9.346
22537TIP3    H167488   4.003   7.781   9.310
22537TIP3    H267489   4.113   7.785   9.413
22538TIP3   OH267490   4.206   7.694   9.533
22538TIP3    H167491   4.192   7.621   9.594
22538TIP3    H267492   4.260   7.754   9.587
22539TIP3   OH267493   5.823   7.306   8.808
22539TIP3    H167494   5.893   7.369   8.780
22539TIP3    H267495   5.866   7.265   8.887
22540TIP3   OH267496   5.948   7.173   9.010
22540TIP3    H167497   5.887   7.130   9.073
22540TIP3    H267498   6.020   7.208   9.068
22541TIP3   OH267499   5.970   7.553   9.429
22541TIP3    H167500   6.045   7.496   9.405
22541TIP3    H267501   5.996   7.638   9.391
22542TIP3   OH267502   5.890   7.079   8.660
22542TIP3    H167503   5.819   7.083   8.593
22542TIP3    H267504   5.865   7.155   8.716
22543TIP3   OH267505   5.761   6.753   8.614
22543TIP3    H167506   5.720   6.791   8.536
22543TIP3    H267507   5.736   6.658   8.605
22544TIP3   OH267508   5.765   7.028   9.160
22544TIP3    H167509   5.776   6.931   9.155
22544TIP3    H267510   5.754   7.042   9.257
22545TIP3   OH267511   4.395   7.118   9.894
22545TIP3    H167512   4.389   7.079   9.804
22545TIP3    H267513   4.491   7.106   9.913
22546TIP3   OH267514   5.706   6.487   8.599
22546TIP3    H167515   5.781   6.457   8.654
22546TIP3    H267516   5.633   6.428   8.625
22547TIP3   OH267517   5.762   6.744   9.054
22547TIP3    H167518   5.803   6.655   9.069
22547TIP3    H267519   5.822   6.777   8.984
22548TIP3   OH267520   5.924   6.914   9.538
22548TIP3    H167521   6.012   6.940   9.503
22548TIP3    H267522   5.929   6.956   9.626
22549TIP3   OH267523   5.968   7.057   9.766
22549TIP3    H167524   5.945   7.095   9.851
22549TIP3    H267525   6.017   7.131   9.723
22550TIP3   OH267526   5.871   6.494   9.091
22550TIP3    H167527   5.921   6.479   9.175
22550TIP3    H267528   5.812   6.417   9.091
22551TIP3   OH267529   4.572   6.481   9.900
22551TIP3    H167530   4.632   6.405   9.915
22551TIP3    H267531   4.633   6.555   9.902
22552TIP3   OH267532   4.382   6.748   9.991
22552TIP3    H167533   4.429   6.761   9.907
22552TIP3    H267534   4.382   6.837  10.031
22553TIP3   OH267535   5.953   6.431   8.723
22553TIP3    H167536   5.995   6.358   8.672
22553TIP3    H267537   6.021   6.501   8.718
22554TIP3   OH267538   4.358   6.256   9.483
22554TIP3    H167539   4.265   6.256   9.511
22554TIP3    H267540   4.356   6.316   9.406
22555TIP3   OH267541   5.527   7.957   8.997
22555TIP3    H167542   5.565   7.938   8.908
22555TIP3    H267543   5.574   8.038   9.019
22556TIP3   OH267544   4.688   8.004   9.791
22556TIP3    H167545   4.641   8.064   9.850
22556TIP3    H267546   4.694   8.056   9.709
22557TIP3   OH267547   5.134   8.055   9.601
22557TIP3    H167548   5.066   8.074   9.533
22557TIP3    H267549   5.136   8.141   9.648
22558TIP3   OH267550   4.382   7.838   9.692
22558TIP3    H167551   4.415   7.826   9.783
22558TIP3    H267552   4.459   7.807   9.641
22559TIP3   OH267553   4.578   7.719   9.546
22559TIP3    H167554   4.598   7.637   9.597
22559TIP3    H267555   4.666   7.762   9.543
22560TIP3   OH267556   4.841   7.814   9.547
22560TIP3    H167557   4.877   7.724   9.541
22560TIP3    H267558   4.874   7.838   9.636
22561TIP3   OH267559   5.419   6.470   9.640
22561TIP3    H167560   5.376   6.398   9.690
22561TIP3    H267561   5.492   6.423   9.595
22562TIP3   OH267562   5.945   6.344   9.540
22562TIP3    H167563   5.980   6.401   9.468
22562TIP3    H267564   5.852   6.371   9.543
22563TIP3   OH267565   6.039   6.452   9.306
22563TIP3    H167566   6.112   6.401   9.267
22563TIP3    H267567   6.072   6.544   9.292
22564TIP3   OH267568   4.670   6.181   9.654
22564TIP3    H167569   4.578   6.147   9.657
22564TIP3    H267570   4.719   6.096   9.653
22565TIP3   OH267571   4.455   6.049   9.303
22565TIP3    H167572   4.484   6.108   9.231
22565TIP3    H267573   4.425   6.113   9.371
22566TIP3   OH267574   5.111   6.211   9.535
22566TIP3    H167575   5.171   6.262   9.478
22566TIP3    H267576   5.130   6.249   9.622
22567TIP3   OH267577   5.656   6.359   9.522
22567TIP3    H167578   5.659   6.322   9.433
22567TIP3    H267579   5.645   6.278   9.577
22568TIP3   OH267580   5.689   6.280   9.082
22568TIP3    H167581   5.602   6.323   9.093
22568TIP3    H267582   5.674   6.195   9.129
22569TIP3   OH267583   4.173   7.619   9.084
22569TIP3    H167584   4.088   7.587   9.050
22569TIP3    H267585   4.162   7.714   9.069
22570TIP3   OH267586   4.571   6.209   9.067
22570TIP3    H167587   4.620   6.147   9.010
22570TIP3    H267588   4.644   6.263   9.104
22571TIP3   OH267589   5.085   6.384   9.166
22571TIP3    H167590   5.144   6.337   9.226
22571TIP3    H267591   5.107   6.476   9.191
22572TIP3   OH267592   4.945   7.809   8.667
22572TIP3    H167593   5.032   7.833   8.629
22572TIP3    H267594   4.921   7.735   8.606
22573TIP3   OH267595   5.655   7.927   8.755
22573TIP3    H167596   5.650   7.830   8.742
22573TIP3    H267597   5.611   7.960   8.674
22574TIP3   OH267598   4.247   7.645   8.722
22574TIP3    H167599   4.244   7.676   8.814
22574TIP3    H267600   4.337   7.606   8.715
22575TIP3   OH267601   6.130   6.950   8.969
22575TIP3    H167602   6.086   7.035   8.983
22575TIP3    H267603   6.058   6.898   8.930
22576TIP3   OH267604   6.186   7.237   9.131
22576TIP3    H167605   6.235   7.162   9.171
22576TIP3    H267606   6.257   7.281   9.081
22577TIP3   OH267607   6.693   6.830   9.144
22577TIP3    H167608   6.681   6.902   9.077
22577TIP3    H267609   6.646   6.757   9.098
22578TIP3   OH267610   7.398   6.876   8.743
22578TIP3    H167611   7.383   6.888   8.838
22578TIP3    H267612   7.376   6.964   8.710
22579TIP3   OH267613   6.328   7.035   9.244
22579TIP3    H167614   6.412   7.017   9.291
22579TIP3    H267615   6.343   6.980   9.164
22580TIP3   OH267616   6.765   7.227   9.059
22580TIP3    H167617   6.855   7.192   9.064
22580TIP3    H267618   6.719   7.160   9.005
22581TIP3   OH267619   6.704   6.809   9.535
22581TIP3    H167620   6.636   6.859   9.486
22581TIP3    H267621   6.690   6.838   9.627
22582TIP3   OH267622   6.564   6.952   9.352
22582TIP3    H167623   6.617   7.031   9.369
22582TIP3    H267624   6.616   6.908   9.280
22583TIP3   OH267625   6.027   7.474   8.705
22583TIP3    H167626   5.989   7.503   8.620
22583TIP3    H267627   6.059   7.558   8.744
22584TIP3   OH267628   7.056   6.540   9.271
22584TIP3    H167629   7.054   6.447   9.300
22584TIP3    H267630   6.984   6.577   9.326
22585TIP3   OH267631   6.978   7.282   8.524
22585TIP3    H167632   6.902   7.344   8.527
22585TIP3    H267633   7.025   7.312   8.445
22586TIP3   OH267634   6.943   7.078   8.257
22586TIP3    H167635   6.998   7.120   8.325
22586TIP3    H267636   7.007   7.018   8.214
22587TIP3   OH267637   7.206   7.248   8.346
22587TIP3    H167638   7.238   7.336   8.375
22587TIP3    H267639   7.213   7.260   8.248
22588TIP3   OH267640   7.689   6.480   8.387
22588TIP3    H167641   7.609   6.496   8.440
22588TIP3    H267642   7.695   6.564   8.337
22589TIP3   OH267643   6.439   7.184   8.700
22589TIP3    H167644   6.381   7.258   8.674
22589TIP3    H267645   6.379   7.128   8.749
22590TIP3   OH267646   6.225   7.998   8.793
22590TIP3    H167647   6.245   8.012   8.888
22590TIP3    H267648   6.185   7.909   8.796
22591TIP3   OH267649   7.047   8.100   8.079
22591TIP3    H167650   7.082   8.019   8.033
22591TIP3    H267651   7.091   8.083   8.165
22592TIP3   OH267652   6.823   6.604   9.410
22592TIP3    H167653   6.736   6.570   9.381
22592TIP3    H267654   6.791   6.686   9.455
22593TIP3   OH267655   7.253   7.286   8.083
22593TIP3    H167656   7.214   7.260   7.997
22593TIP3    H267657   7.337   7.327   8.054
22594TIP3   OH267658   6.966   6.657   8.387
22594TIP3    H167659   6.934   6.656   8.480
22594TIP3    H267660   6.925   6.575   8.354
22595TIP3   OH267661   6.634   7.007   8.947
22595TIP3    H167662   6.540   6.987   8.963
22595TIP3    H267663   6.645   6.970   8.857
22596TIP3   OH267664   7.096   7.068   8.644
22596TIP3    H167665   7.053   7.151   8.616
22596TIP3    H267666   7.156   7.049   8.570
22597TIP3   OH267667   6.617   6.629   8.353
22597TIP3    H167668   6.611   6.629   8.451
22597TIP3    H267669   6.541   6.686   8.331
22598TIP3   OH267670   6.163   6.676   9.224
22598TIP3    H167671   6.238   6.709   9.277
22598TIP3    H267672   6.205   6.646   9.142
22599TIP3   OH267673   6.135   6.656   8.743
22599TIP3    H167674   6.182   6.695   8.666
22599TIP3    H267675   6.076   6.730   8.765
22600TIP3   OH267676   6.957   6.826   9.019
22600TIP3    H167677   6.871   6.827   9.065
22600TIP3    H267678   7.013   6.855   9.093
22601TIP3   OH267679   6.393   6.888   9.021
22601TIP3    H167680   6.299   6.894   8.991
22601TIP3    H267681   6.420   6.798   8.994
22602TIP3   OH267682   6.661   6.877   8.706
22602TIP3    H167683   6.755   6.898   8.689
22602TIP3    H267684   6.615   6.909   8.626
22603TIP3   OH267685   6.506   6.907   8.482
22603TIP3    H167686   6.431   6.872   8.431
22603TIP3    H267687   6.557   6.951   8.411
22604TIP3   OH267688   6.564   6.649   8.983
22604TIP3    H167689   6.534   6.568   9.028
22604TIP3    H267690   6.618   6.614   8.911
22605TIP3   OH267691   6.753   7.445   8.501
22605TIP3    H167692   6.683   7.379   8.486
22605TIP3    H267693   6.725   7.483   8.588
22606TIP3   OH267694   7.211   6.767   8.337
22606TIP3    H167695   7.116   6.747   8.356
22606TIP3    H267696   7.223   6.858   8.375
22607TIP3   OH267697   7.283   7.006   8.450
22607TIP3    H167698   7.380   7.005   8.464
22607TIP3    H267699   7.270   7.092   8.404
22608TIP3   OH267700   6.442   7.404   9.156
22608TIP3    H167701   6.474   7.456   9.082
22608TIP3    H267702   6.521   7.358   9.185
22609TIP3   OH267703   6.863   7.606   8.304
22609TIP3    H167704   6.919   7.657   8.365
22609TIP3    H267705   6.822   7.543   8.367
22610TIP3   OH267706   7.729   7.080   8.274
22610TIP3    H167707   7.655   7.037   8.224
22610TIP3    H267708   7.720   7.169   8.231
22611TIP3   OH267709   6.110   7.078   8.492
22611TIP3    H167710   6.161   7.159   8.515
22611TIP3    H267711   6.036   7.084   8.557
22612TIP3   OH267712   6.415   8.050   8.604
22612TIP3    H167713   6.344   8.027   8.668
22612TIP3    H267714   6.495   8.027   8.657
22613TIP3   OH267715   6.553   7.669   8.113
22613TIP3    H167716   6.579   7.591   8.058
22613TIP3    H267717   6.546   7.624   8.200
22614TIP3   OH267718   6.494   7.628   8.381
22614TIP3    H167719   6.550   7.589   8.449
22614TIP3    H267720   6.505   7.724   8.398
22615TIP3   OH267721   6.223   7.322   8.579
22615TIP3    H167722   6.160   7.370   8.636
22615TIP3    H267723   6.249   7.392   8.517
22616TIP3   OH267724   7.249   6.688   8.618
22616TIP3    H167725   7.232   6.723   8.528
22616TIP3    H267726   7.302   6.761   8.658
22617TIP3   OH267727   6.940   6.876   8.745
22617TIP3    H167728   7.000   6.949   8.717
22617TIP3    H267729   6.949   6.878   8.842
22618TIP3   OH267730   7.089   6.617   8.845
22618TIP3    H167731   7.074   6.696   8.900
22618TIP3    H267732   7.145   6.654   8.773
22619TIP3   OH267733   6.494   7.900   8.387
22619TIP3    H167734   6.483   7.971   8.322
22619TIP3    H267735   6.462   7.946   8.468
22620TIP3   OH267736   6.604   6.615   8.629
22620TIP3    H167737   6.601   6.707   8.663
22620TIP3    H267738   6.700   6.598   8.639
22621TIP3   OH267739   6.219   7.541   8.380
22621TIP3    H167740   6.293   7.602   8.397
22621TIP3    H267741   6.265   7.479   8.318
22622TIP3   OH267742   6.165   6.808   8.516
22622TIP3    H167743   6.168   6.906   8.512
22622TIP3    H267744   6.079   6.789   8.478
22623TIP3   OH267745   6.554   6.529   9.390
22623TIP3    H167746   6.521   6.496   9.304
22623TIP3    H267747   6.543   6.451   9.448
22624TIP3   OH267748   6.083   7.751   8.779
22624TIP3    H167749   6.002   7.784   8.819
22624TIP3    H267750   6.070   7.782   8.686
22625TIP3   OH267751   6.354   7.350   8.239
22625TIP3    H167752   6.411   7.313   8.310
22625TIP3    H267753   6.421   7.353   8.167
22626TIP3   OH267754   6.850   7.543   8.033
22626TIP3    H167755   6.859   7.562   8.128
22626TIP3    H267756   6.854   7.445   8.033
22627TIP3   OH267757   6.558   7.250   8.457
22627TIP3    H167758   6.531   7.216   8.545
22627TIP3    H267759   6.595   7.171   8.415
22628TIP3   OH267760   6.663   7.038   8.301
22628TIP3    H167761   6.635   7.046   8.207
22628TIP3    H267762   6.760   7.051   8.292
22629TIP3   OH267763   7.486   7.365   7.948
22629TIP3    H167764   7.447   7.334   7.864
22629TIP3    H267765   7.470   7.462   7.942
22630TIP3   OH267766   6.525   8.049   8.154
22630TIP3    H167767   6.578   8.119   8.196
22630TIP3    H267768   6.465   8.103   8.099
22631TIP3   OH267769   5.952   7.489   8.419
22631TIP3    H167770   6.047   7.511   8.406
22631TIP3    H267771   5.949   7.398   8.381
22632TIP3   OH267772   5.858   8.101   8.819
22632TIP3    H167773   5.786   8.046   8.779
22632TIP3    H267774   5.891   8.037   8.886
22633TIP3   OH267775   5.930   7.933   9.017
22633TIP3    H167776   5.973   7.860   9.064
22633TIP3    H267777   5.900   7.990   9.090
22634TIP3   OH267778   7.675   7.303   8.135
22634TIP3    H167779   7.608   7.319   8.065
22634TIP3    H267780   7.682   7.393   8.171
22635TIP3   OH267781   7.542   7.006   8.092
22635TIP3    H167782   7.498   7.048   8.017
22635TIP3    H267783   7.517   6.912   8.078
22636TIP3   OH267784   6.179   7.362   9.389
22636TIP3    H167785   6.188   7.325   9.298
22636TIP3    H267786   6.265   7.409   9.398
22637TIP3   OH267787   7.486   6.742   8.066
22637TIP3    H167788   7.566   6.716   8.119
22637TIP3    H267789   7.417   6.685   8.104
22638TIP3   OH267790   7.554   6.994   8.497
22638TIP3    H167791   7.589   6.906   8.524
22638TIP3    H267792   7.633   7.035   8.460
22639TIP3   OH267793   7.672   6.752   8.579
22639TIP3    H167794   7.732   6.727   8.651
22639TIP3    H267795   7.605   6.680   8.582
22640TIP3   OH267796   6.371   6.739   9.396
22640TIP3    H167797   6.436   6.667   9.406
22640TIP3    H267798   6.430   6.816   9.387
22641TIP3   OH267799   6.175   7.006   9.477
22641TIP3    H167800   6.223   7.008   9.392
22641TIP3    H267801   6.186   7.097   9.508
22642TIP3   OH267802   7.723   6.679   8.181
22642TIP3    H167803   7.770   6.602   8.145
22642TIP3    H267804   7.796   6.742   8.196
22643TIP3   OH267805   6.154   6.512   8.970
22643TIP3    H167806   6.060   6.512   8.998
22643TIP3    H267807   6.153   6.572   8.893
22644TIP3   OH267808   6.355   6.578   9.788
22644TIP3    H167809   6.316   6.590   9.875
22644TIP3    H267810   6.296   6.632   9.732
22645TIP3   OH267811   7.219   6.735   9.137
22645TIP3    H167812   7.151   6.671   9.167
22645TIP3    H267813   7.274   6.682   9.076
22646TIP3   OH267814   6.465   6.436   9.142
22646TIP3    H167815   6.373   6.403   9.144
22646TIP3    H267816   6.514   6.351   9.138
22647TIP3   OH267817   6.251   6.306   8.789
22647TIP3    H167818   6.281   6.364   8.718
22647TIP3    H267819   6.222   6.370   8.857
22648TIP3   OH267820   6.908   6.467   9.023
22648TIP3    H167821   6.965   6.520   8.966
22648TIP3    H267822   6.927   6.506   9.110
22649TIP3   OH267823   7.406   6.607   8.991
22649TIP3    H167824   7.443   6.580   8.907
22649TIP3    H267825   7.404   6.523   9.040
22650TIP3   OH267826   7.485   6.540   8.568
22650TIP3    H167827   7.395   6.579   8.577
22650TIP3    H267828   7.473   6.456   8.616
22651TIP3   OH267829   5.969   7.875   8.568
22651TIP3    H167830   5.882   7.847   8.535
22651TIP3    H267831   5.962   7.971   8.555
22652TIP3   OH267832   6.367   6.466   8.555
22652TIP3    H167833   6.418   6.405   8.497
22652TIP3    H267834   6.439   6.522   8.591
22653TIP3   OH267835   6.881   6.631   8.650
22653TIP3    H167836   6.941   6.588   8.713
22653TIP3    H267837   6.895   6.725   8.678
22654TIP3   OH267838   6.048   7.905   8.210
22654TIP3    H167839   6.029   7.935   8.300
22654TIP3    H267840   6.133   7.859   8.220
22655TIP3   OH267841   8.379   6.839   7.819
22655TIP3    H167842   8.389   6.907   7.888
22655TIP3    H267843   8.308   6.873   7.762
22656TIP3   OH267844   7.904   6.924   8.128
22656TIP3    H167845   7.991   6.930   8.171
22656TIP3    H267846   7.844   6.969   8.192
22657TIP3   OH267847   7.952   7.112   7.938
22657TIP3    H167848   7.925   7.183   8.001
22657TIP3    H267849   7.903   7.036   7.977
22658TIP3   OH267850   7.901   6.749   8.388
22658TIP3    H167851   7.841   6.753   8.465
22658TIP3    H267852   7.984   6.784   8.426
22659TIP3   OH267853   8.031   6.543   8.247
22659TIP3    H167854   8.060   6.596   8.171
22659TIP3    H267855   7.984   6.610   8.301
22660TIP3   OH267856   8.138   6.699   8.032
22660TIP3    H167857   8.203   6.648   7.980
22660TIP3    H267858   8.192   6.766   8.077
22661TIP3   OH267859   2.971   8.375   8.886
22661TIP3    H167860   3.014   8.411   8.965
22661TIP3    H267861   3.039   8.312   8.854
22662TIP3   OH267862   3.735   7.778   9.051
22662TIP3    H167863   3.654   7.799   9.103
22662TIP3    H267864   3.748   7.863   9.004
22663TIP3   OH267865   3.324   8.558   8.740
22663TIP3    H167866   3.274   8.537   8.659
22663TIP3    H267867   3.387   8.623   8.706
22664TIP3   OH267868   3.012   7.956   8.988
22664TIP3    H167869   3.000   7.958   9.086
22664TIP3    H267870   2.968   7.870   8.971
22665TIP3   OH267871   2.682   7.923   9.028
22665TIP3    H167872   2.644   7.918   9.117
22665TIP3    H267873   2.603   7.953   8.979
22666TIP3   OH267874   3.267   8.032   9.026
22666TIP3    H167875   3.170   8.030   9.006
22666TIP3    H267876   3.290   8.127   9.025
22667TIP3   OH267877   3.365   8.278   9.066
22667TIP3    H167878   3.452   8.279   9.113
22667TIP3    H267879   3.370   8.363   9.021
22668TIP3   OH267880   3.773   8.390   8.953
22668TIP3    H167881   3.706   8.346   8.895
22668TIP3    H267882   3.776   8.477   8.910
22669TIP3   OH267883   3.307   8.043   9.299
22669TIP3    H167884   3.277   8.027   9.208
22669TIP3    H267885   3.368   8.117   9.288
22670TIP3   OH267886   3.537   8.685   8.609
22670TIP3    H167887   3.513   8.631   8.531
22670TIP3    H267888   3.498   8.771   8.582
22671TIP3   OH267889   3.718   8.633   8.802
22671TIP3    H167890   3.664   8.628   8.720
22671TIP3    H267891   3.659   8.687   8.856
22672TIP3   OH267892   3.598   8.313   8.759
22672TIP3    H167893   3.548   8.347   8.684
22672TIP3    H267894   3.577   8.217   8.754
22673TIP3   OH267895   3.546   8.046   8.751
22673TIP3    H167896   3.621   8.015   8.805
22673TIP3    H267897   3.474   7.985   8.774
22674TIP3   OH267898   3.603   8.302   9.190
22674TIP3    H167899   3.644   8.220   9.226
22674TIP3    H267900   3.681   8.346   9.155
22675TIP3   OH267901   3.714   8.051   9.243
22675TIP3    H167902   3.763   8.037   9.327
22675TIP3    H267903   3.653   7.975   9.243
22676TIP3   OH267904   3.793   7.988   8.872
22676TIP3    H167905   3.836   7.916   8.822
22676TIP3    H267906   3.862   8.058   8.870
22677TIP3   OH267907   3.802   7.914   9.710
22677TIP3    H167908   3.838   7.960   9.631
22677TIP3    H267909   3.706   7.919   9.691
22678TIP3   OH267910   3.878   8.006   9.463
22678TIP3    H167911   3.952   7.957   9.420
22678TIP3    H267912   3.910   8.098   9.445
22679TIP3   OH267913   3.537   7.904   9.647
22679TIP3    H167914   3.493   7.873   9.568
22679TIP3    H267915   3.507   7.837   9.713
22680TIP3   OH267916   3.531   7.836   9.233
22680TIP3    H167917   3.442   7.875   9.236
22680TIP3    H267918   3.516   7.752   9.281
22681TIP3   OH267919   2.464   7.681   9.283
22681TIP3    H167920   2.476   7.653   9.190
22681TIP3    H267921   2.441   7.775   9.268
22682TIP3   OH267922   2.985   7.955   9.253
22682TIP3    H167923   2.965   7.908   9.336
22682TIP3    H267924   2.933   8.035   9.264
22683TIP3   OH267925   4.974   9.010   8.918
22683TIP3    H167926   4.943   9.088   8.868
22683TIP3    H267927   4.950   8.940   8.855
22684TIP3   OH267928   3.985   8.501   9.116
22684TIP3    H167929   3.924   8.569   9.151
22684TIP3    H267930   3.924   8.428   9.100
22685TIP3   OH267931   4.555   8.387   9.275
22685TIP3    H167932   4.530   8.458   9.211
22685TIP3    H267933   4.501   8.314   9.239
22686TIP3   OH267934   5.232   8.478   8.917
22686TIP3    H167935   5.305   8.471   8.982
22686TIP3    H267936   5.283   8.516   8.842
22687TIP3   OH267937   4.632   8.781   9.162
22687TIP3    H167938   4.723   8.748   9.176
22687TIP3    H267939   4.583   8.699   9.141
22688TIP3   OH267940   4.863   9.204   8.744
22688TIP3    H167941   4.848   9.177   8.653
22688TIP3    H267942   4.900   9.293   8.732
22689TIP3   OH267943   5.444   8.479   9.092
22689TIP3    H167944   5.454   8.409   9.158
22689TIP3    H267945   5.527   8.528   9.097
22690TIP3   OH267946   4.439   8.462   9.513
22690TIP3    H167947   4.461   8.556   9.502
22690TIP3    H267948   4.479   8.422   9.433
22691TIP3   OH267949   4.906   8.087   9.442
22691TIP3    H167950   4.882   7.993   9.455
22691TIP3    H267951   4.827   8.129   9.484
22692TIP3   OH267952   5.062   9.370   8.633
22692TIP3    H167953   5.094   9.284   8.602
22692TIP3    H267954   5.125   9.392   8.703
22693TIP3   OH267955   4.823   8.853   8.699
22693TIP3    H167956   4.756   8.908   8.655
22693TIP3    H267957   4.902   8.860   8.640
22694TIP3   OH267958   4.786   8.638   8.412
22694TIP3    H167959   4.847   8.678   8.476
22694TIP3    H267960   4.847   8.580   8.362
22695TIP3   OH267961   4.425   8.929   9.039
22695TIP3    H167962   4.372   8.868   8.983
22695TIP3    H267963   4.495   8.870   9.074
22696TIP3   OH267964   5.528   8.034   8.536
22696TIP3    H167965   5.448   8.055   8.589
22696TIP3    H267966   5.544   8.120   8.492
22697TIP3   OH267967   4.271   8.762   8.866
22697TIP3    H167968   4.199   8.809   8.821
22697TIP3    H267969   4.226   8.684   8.900
22698TIP3   OH267970   5.333   9.392   8.104
22698TIP3    H167971   5.330   9.485   8.072
22698TIP3    H267972   5.421   9.365   8.072
22699TIP3   OH267973   4.854   9.620   8.194
22699TIP3    H167974   4.907   9.548   8.152
22699TIP3    H267975   4.880   9.611   8.288
22700TIP3   OH267976   4.902   9.638   8.463
22700TIP3    H167977   4.825   9.653   8.520
22700TIP3    H267978   4.956   9.585   8.524
22701TIP3   OH267979   4.670   8.161   9.555
22701TIP3    H167980   4.573   8.147   9.546
22701TIP3    H267981   4.675   8.250   9.595
22702TIP3   OH267982   5.067   8.861   8.212
22702TIP3    H167983   5.056   8.817   8.126
22702TIP3    H267984   5.161   8.883   8.214
22703TIP3   OH267985   4.812   8.215   8.535
22703TIP3    H167986   4.778   8.215   8.627
22703TIP3    H267987   4.769   8.134   8.502
22704TIP3   OH267988   4.480   8.567   9.087
22704TIP3    H167989   4.387   8.543   9.110
22704TIP3    H267990   4.487   8.523   9.000
22705TIP3   OH267991   4.956   8.649   8.816
22705TIP3    H167992   4.891   8.716   8.787
22705TIP3    H267993   5.029   8.674   8.755
22706TIP3   OH267994   5.097   8.673   9.077
22706TIP3    H167995   5.066   8.725   9.001
22706TIP3    H267996   5.138   8.598   9.031
22707TIP3   OH267997   4.459   8.188   8.504
22707TIP3    H167998   4.451   8.186   8.601
22707TIP3    H267999   4.381   8.241   8.480
22708TIP3   OH268000   4.002   8.221   9.360
22708TIP3    H168001   4.070   8.257   9.422
22708TIP3    H268002   4.055   8.192   9.286
22709TIP3   OH268003   3.978   8.214   8.892
22709TIP3    H168004   4.024   8.254   8.815
22709TIP3    H268005   3.915   8.286   8.914
22710TIP3   OH268006   4.807   8.374   9.158
22710TIP3    H168007   4.720   8.378   9.203
22710TIP3    H268008   4.864   8.411   9.228
22711TIP3   OH268009   4.251   8.451   9.159
22711TIP3    H168010   4.154   8.463   9.147
22711TIP3    H268011   4.262   8.355   9.151
22712TIP3   OH268012   4.507   8.435   8.851
22712TIP3    H168013   4.600   8.457   8.832
22712TIP3    H268014   4.459   8.464   8.770
22713TIP3   OH268015   5.293   8.429   9.387
22713TIP3    H168016   5.228   8.481   9.435
22713TIP3    H268017   5.234   8.380   9.326
22714TIP3   OH268018   4.345   8.475   8.634
22714TIP3    H168019   4.272   8.432   8.586
22714TIP3    H268020   4.397   8.512   8.559
22715TIP3   OH268021   4.881   8.692   9.253
22715TIP3    H168022   4.959   8.694   9.194
22715TIP3    H268023   4.921   8.671   9.338
22716TIP3   OH268024   4.413   8.201   9.135
22716TIP3    H168025   4.375   8.124   9.183
22716TIP3    H268026   4.454   8.161   9.058
22717TIP3   OH268027   4.879   8.612   9.577
22717TIP3    H168028   4.804   8.663   9.539
22717TIP3    H268029   4.925   8.682   9.625
22718TIP3   OH268030   4.594   9.011   8.634
22718TIP3    H168031   4.528   8.939   8.630
22718TIP3    H268032   4.582   9.043   8.726
22719TIP3   OH268033   5.058   8.338   8.513
22719TIP3    H168034   4.963   8.315   8.514
22719TIP3    H268035   5.057   8.434   8.503
22720TIP3   OH268036   4.737   9.165   8.464
22720TIP3    H168037   4.686   9.246   8.481
22720TIP3    H268038   4.687   9.101   8.519
22721TIP3   OH268039   5.572   8.639   8.432
22721TIP3    H168040   5.503   8.601   8.373
22721TIP3    H268041   5.566   8.732   8.405
22722TIP3   OH268042   5.283   9.455   8.375
22722TIP3    H168043   5.226   9.380   8.395
22722TIP3    H268044   5.301   9.440   8.280
22723TIP3   OH268045   3.955   8.635   8.645
22723TIP3    H168046   3.999   8.720   8.665
22723TIP3    H268047   3.876   8.641   8.703
22724TIP3   OH268048   4.525   9.123   8.872
22724TIP3    H168049   4.499   9.200   8.924
22724TIP3    H268050   4.498   9.051   8.933
22725TIP3   OH268051   5.025   9.207   8.257
22725TIP3    H168052   5.072   9.175   8.337
22725TIP3    H268053   4.938   9.167   8.273
22726TIP3   OH268054   5.337   9.660   8.044
22726TIP3    H168055   5.312   9.708   7.962
22726TIP3    H268056   5.285   9.710   8.110
22727TIP3   OH268057   5.176   9.139   8.488
22727TIP3    H168058   5.153   9.049   8.521
22727TIP3    H268059   5.273   9.130   8.479
22728TIP3   OH268060   4.388   9.183   8.246
22728TIP3    H168061   4.400   9.091   8.218
22728TIP3    H268062   4.379   9.173   8.343
22729TIP3   OH268063   4.363   9.195   8.519
22729TIP3    H168064   4.393   9.131   8.585
22729TIP3    H268065   4.325   9.265   8.573
22730TIP3   OH268066   4.058   8.885   8.735
22730TIP3    H168067   4.023   8.948   8.800
22730TIP3    H268068   4.074   8.948   8.660
22731TIP3   OH268069   5.106   8.268   8.784
22731TIP3    H168070   5.088   8.297   8.692
22731TIP3    H268071   5.141   8.351   8.823
22732TIP3   OH268072   4.594   9.412   8.487
22732TIP3    H168073   4.502   9.434   8.467
22732TIP3    H268074   4.635   9.431   8.402
22733TIP3   OH268075   4.789   8.443   8.886
22733TIP3    H168076   4.853   8.514   8.862
22733TIP3    H268077   4.796   8.442   8.983
22734TIP3   OH268078   4.938   8.179   8.995
22734TIP3    H168079   4.911   8.259   9.045
22734TIP3    H268080   4.996   8.219   8.925
22735TIP3   OH268081   4.445   8.172   8.780
22735TIP3    H168082   4.442   8.264   8.815
22735TIP3    H268083   4.541   8.156   8.788
22736TIP3   OH268084   4.067   9.085   8.548
22736TIP3    H168085   4.090   9.179   8.544
22736TIP3    H268086   4.115   9.047   8.472
22737TIP3   OH268087   4.008   8.365   8.665
22737TIP3    H168088   4.008   8.462   8.662
22737TIP3    H268089   3.922   8.343   8.627
22738TIP3   OH268090   4.404   8.082   9.544
22738TIP3    H168091   4.364   8.059   9.458
22738TIP3    H268092   4.380   8.005   9.599
22739TIP3   OH268093   4.562   9.384   8.180
22739TIP3    H168094   4.498   9.311   8.203
22739TIP3    H268095   4.628   9.333   8.130
22740TIP3   OH268096   4.997   9.425   8.076
22740TIP3    H168097   5.036   9.355   8.131
22740TIP3    H268098   5.048   9.420   7.993
22741TIP3   OH268099   4.199   8.906   8.383
22741TIP3    H168100   4.251   8.869   8.457
22741TIP3    H268101   4.267   8.908   8.313
22742TIP3   OH268102   4.709   9.100   8.194
22742TIP3    H168103   4.709   9.111   8.291
22742TIP3    H268104   4.706   9.002   8.186
22743TIP3   OH268105   4.407   8.808   8.612
22743TIP3    H168106   4.375   8.769   8.695
22743TIP3    H268107   4.441   8.730   8.564
22744TIP3   OH268108   4.505   8.600   8.450
22744TIP3    H168109   4.479   8.604   8.355
22744TIP3    H268110   4.603   8.608   8.442
22745TIP3   OH268111   5.331   8.933   8.109
22745TIP3    H168112   5.307   8.883   8.028
22745TIP3    H268113   5.292   9.020   8.085
22746TIP3   OH268114   4.747   8.393   9.699
22746TIP3    H168115   4.809   8.455   9.655
22746TIP3    H268116   4.748   8.428   9.789
22747TIP3   OH268117   4.337   9.678   8.350
22747TIP3    H168118   4.424   9.667   8.306
22747TIP3    H268119   4.278   9.701   8.276
22748TIP3   OH268120   3.794   9.046   8.501
22748TIP3    H168121   3.877   9.064   8.549
22748TIP3    H268122   3.794   8.949   8.494
22749TIP3   OH268123   5.473   9.133   8.468
22749TIP3    H168124   5.555   9.126   8.418
22749TIP3    H268125   5.491   9.080   8.548
22750TIP3   OH268126   5.526   8.905   8.293
22750TIP3    H168127   5.459   8.899   8.221
22750TIP3    H268128   5.475   8.956   8.357
22751TIP3   OH268129   5.403   8.564   8.232
22751TIP3    H168130   5.342   8.603   8.168
22751TIP3    H268131   5.376   8.470   8.228
22752TIP3   OH268132   5.342   8.298   8.232
22752TIP3    H168133   5.418   8.273   8.289
22752TIP3    H268134   5.269   8.244   8.266
22753TIP3   OH268135   5.411   8.548   8.728
22753TIP3    H168136   5.460   8.467   8.705
22753TIP3    H268137   5.411   8.597   8.645
22754TIP3   OH268138   5.522   8.289   8.715
22754TIP3    H168139   5.558   8.284   8.806
22754TIP3    H268140   5.449   8.224   8.721
22755TIP3   OH268141   4.208   8.282   9.521
22755TIP3    H168142   4.280   8.224   9.551
22755TIP3    H268143   4.232   8.366   9.563
22756TIP3   OH268144   5.588   8.245   8.356
22756TIP3    H168145   5.630   8.172   8.308
22756TIP3    H268146   5.657   8.314   8.356
22757TIP3   OH268147   3.994   8.059   9.112
22757TIP3    H168148   3.905   8.070   9.150
22757TIP3    H268149   3.993   8.125   9.039
22758TIP3   OH268150   5.070   8.285   9.296
22758TIP3    H168151   5.010   8.219   9.335
22758TIP3    H268152   5.113   8.235   9.225
22759TIP3   OH268153   5.583   8.208   9.211
22759TIP3    H168154   5.612   8.230   9.120
22759TIP3    H268155   5.489   8.187   9.196
22760TIP3   OH268156   5.669   8.249   8.958
22760TIP3    H168157   5.742   8.200   8.914
22760TIP3    H268158   5.693   8.340   8.925
22761TIP3   OH268159   4.306   7.994   9.290
22761TIP3    H168160   4.213   7.962   9.294
22761TIP3    H268161   4.355   7.909   9.289
22762TIP3   OH268162   4.092   7.862   8.939
22762TIP3    H168163   4.121   7.923   8.869
22762TIP3    H268164   4.061   7.925   9.007
22763TIP3   OH268165   4.753   8.022   9.172
22763TIP3    H168166   4.808   8.080   9.118
22763TIP3    H268167   4.754   8.067   9.257
22764TIP3   OH268168   5.311   8.169   9.152
22764TIP3    H168169   5.282   8.145   9.063
22764TIP3    H268170   5.284   8.091   9.205
22765TIP3   OH268171   5.324   8.094   8.719
22765TIP3    H168172   5.240   8.143   8.733
22765TIP3    H268173   5.304   8.010   8.765
22766TIP3   OH268174   4.208   8.024   8.704
22766TIP3    H168175   4.259   7.962   8.647
22766TIP3    H268176   4.280   8.079   8.741
22767TIP3   OH268177   4.724   8.193   8.801
22767TIP3    H168178   4.782   8.148   8.863
22767TIP3    H268179   4.741   8.287   8.827
22768TIP3   OH268180   4.598   9.633   8.279
22768TIP3    H168181   4.686   9.641   8.239
22768TIP3    H268182   4.571   9.547   8.239
22769TIP3   OH268183   5.778   8.801   8.562
22769TIP3    H168184   5.764   8.835   8.653
22769TIP3    H268185   5.713   8.730   8.556
22770TIP3   OH268186   6.568   8.479   7.981
22770TIP3    H168187   6.606   8.489   8.070
22770TIP3    H268188   6.526   8.391   7.985
22771TIP3   OH268189   6.249   8.437   7.983
22771TIP3    H168190   6.241   8.438   8.080
22771TIP3    H268191   6.176   8.497   7.959
22772TIP3   OH268192   5.771   8.450   8.814
22772TIP3    H168193   5.850   8.501   8.840
22772TIP3    H268194   5.803   8.410   8.732
22773TIP3   OH268195   5.787   8.479   8.380
22773TIP3    H168196   5.819   8.519   8.297
22773TIP3    H268197   5.716   8.542   8.403
22774TIP3   OH268198   6.150   8.688   8.126
22774TIP3    H168199   6.075   8.665   8.069
22774TIP3    H268200   6.197   8.751   8.069
22775TIP3   OH268201   5.746   8.887   8.134
22775TIP3    H168202   5.797   8.959   8.171
22775TIP3    H268203   5.666   8.889   8.191
22776TIP3   OH268204   6.242   8.417   8.260
22776TIP3    H168205   6.206   8.489   8.314
22776TIP3    H268206   6.330   8.409   8.299
22777TIP3   OH268207   5.802   8.619   8.149
22777TIP3    H168208   5.799   8.717   8.147
22777TIP3    H268209   5.713   8.597   8.119
22778TIP3   OH268210   5.984   9.171   7.850
22778TIP3    H168211   6.039   9.139   7.923
22778TIP3    H268212   6.046   9.157   7.775
22779TIP3   OH268213   6.307   8.843   7.933
22779TIP3    H168214   6.253   8.828   7.852
22779TIP3    H268215   6.386   8.880   7.891
22780TIP3   OH268216   5.587   9.314   8.013
22780TIP3    H168217   5.654   9.321   8.083
22780TIP3    H268218   5.587   9.218   7.992
22781TIP3   OH268219   5.782   8.302   8.583
22781TIP3    H168220   5.690   8.310   8.616
22781TIP3    H268221   5.787   8.375   8.516
22782TIP3   OH268222   6.087   8.229   8.707
22782TIP3    H168223   5.995   8.204   8.726
22782TIP3    H268224   6.134   8.146   8.729
22783TIP3   OH268225   5.888   8.111   8.418
22783TIP3    H168226   5.917   8.174   8.350
22783TIP3    H268227   5.857   8.172   8.488
22784TIP3   OH268228   6.001   8.275   8.188
22784TIP3    H168229   6.048   8.214   8.127
22784TIP3    H268230   6.075   8.327   8.224
22785TIP3   OH268231   4.989  10.099   7.918
22785TIP3    H168232   5.041  10.040   7.863
22785TIP3    H268233   4.897  10.070   7.901
22786TIP3   OH268234   4.957   9.893   8.316
22786TIP3    H168235   4.880   9.947   8.292
22786TIP3    H268236   4.912   9.814   8.349
   9.80000    9.23953    8.00167    0.00000    0.00000   -3.26667    0.00000   -3.26667   -4.61976
