Title
19927
    1ASP      N    1   6.043   1.361   4.278 -0.3854  0.0873  0.6537
    1ASP    HT1    2   6.056   1.411   4.187  2.4699  0.6605  1.2806
    1ASP    HT2    3   5.980   1.280   4.258 -0.8502  0.4780  0.5107
    1ASP    HT3    4   6.133   1.322   4.312 -0.0930 -0.8767 -1.0805
    1ASP     CA    5   5.989   1.467   4.365  0.7714 -0.0571 -0.1564
    1ASP     HA    6   6.042   1.559   4.347 -0.4843  0.6256 -0.4755
    1ASP     CB    7   5.834   1.482   4.327 -0.8889 -0.3149  0.4289
    1ASP    HB1    8   5.781   1.548   4.399  0.4044 -0.3029  1.4177
    1ASP    HB2    9   5.790   1.381   4.336 -0.5323 -0.7093 -1.6676
    1ASP     CG   10   5.825   1.545   4.189  0.4307  0.3460  0.2235
    1ASP    OD1   11   5.918   1.559   4.106  0.2358 -0.6091 -0.2042
    1ASP    OD2   12   5.711   1.587   4.158  0.0553 -0.4482 -0.1065
    1ASP      C   13   5.994   1.433   4.514  0.5453  0.8978 -0.2847
    1ASP      O   14   5.977   1.315   4.548  0.0579  0.0753 -0.0558
    2ALA      N   15   6.017   1.536   4.597 -0.0586  0.4904 -0.2197
    2ALA     HN   16   6.029   1.631   4.569 -0.6061  1.6778  3.1058
    2ALA     CA   17   5.998   1.531   4.745 -0.0273  0.3157  0.5288
    2ALA     HA   18   6.087   1.474   4.769 -0.6583 -1.8525 -1.9251
    2ALA     CB   19   6.016   1.665   4.813 -0.4356  0.2760 -0.1265
    2ALA    HB1   20   6.023   1.653   4.923  2.3941  0.3821 -0.2387
    2ALA    HB2   21   5.936   1.735   4.779 -1.2160  0.2878  1.5939
    2ALA    HB3   22   6.116   1.703   4.785 -1.1112  1.6980 -0.7601
    2ALA      C   23   5.876   1.450   4.798  0.1173  0.2157 -0.0811
    2ALA      O   24   5.765   1.458   4.746  0.3890 -0.4511  0.6679
    3ASP      N   25   5.893   1.367   4.904 -0.3675 -0.1576 -0.8701
    3ASP     HN   26   5.974   1.364   4.962 -2.4161  0.4884  2.3152
    3ASP     CA   27   5.787   1.279   4.955  0.4834 -0.3393 -0.0968
    3ASP     HA   28   5.738   1.229   4.873  2.0124 -3.8089  0.9040
    3ASP     CB   29   5.835   1.173   5.059 -0.0310 -0.2499  0.8116
    3ASP    HB1   30   5.770   1.090   5.093  0.8465 -1.3578 -0.1198
    3ASP    HB2   31   5.865   1.221   5.154 -1.5684 -0.2525  1.3235
    3ASP     CG   32   5.957   1.098   4.998  0.1062  0.8578 -0.1952
    3ASP    OD1   33   5.954   1.056   4.878  0.0179 -0.0832 -0.9063
    3ASP    OD2   34   6.057   1.076   5.077  0.0550 -0.2235  0.0448
    3ASP      C   35   5.691   1.368   5.031 -0.0171 -0.0560  0.4873
    3ASP      O   36   5.725   1.458   5.106 -0.0944 -0.3798 -0.0498
    4GLY      N   37   5.559   1.336   5.011  0.1257  0.5883 -0.7280
    4GLY     HN   38   5.527   1.270   4.943 -0.9535  0.0756  0.2177
    4GLY     CA   39   5.460   1.391   5.103 -0.0211 -0.5445 -0.3930
    4GLY    HA1   40   5.366   1.358   5.061 -0.3822  1.0917 -0.9807
    4GLY    HA2   41   5.477   1.498   5.096  2.3393 -0.8655 -0.2576
    4GLY      C   42   5.465   1.349   5.252  0.1385 -0.6639 -1.0220
    4GLY      O   43   5.561   1.290   5.300  0.4614  0.1281  0.0594
    5PRO      N   44   5.352   1.374   5.324  0.4745 -0.0655  0.0787
    5PRO     CD   45   5.231   1.433   5.267 -0.1733 -0.2652 -0.3284
    5PRO    HD1   46   5.179   1.350   5.215 -0.7227 -0.2619  0.2038
    5PRO    HD2   47   5.247   1.525   5.207  0.1337  1.1273  1.7984
    5PRO     CA   48   5.331   1.319   5.459  0.1007  0.5494  0.7570
    5PRO     HA   49   5.410   1.374   5.507  0.2140  1.0242  0.0414
    5PRO     CB   50   5.187   1.354   5.492 -0.9726 -0.0926 -0.4663
    5PRO    HB1   51   5.168   1.395   5.594 -2.1985 -0.9262 -0.3459
    5PRO    HB2   52   5.123   1.265   5.480 -0.1179 -0.9468  1.0278
    5PRO     CG   53   5.139   1.457   5.392 -0.2250 -0.1608 -0.4261
    5PRO    HG1   54   5.034   1.452   5.355 -0.2188  0.9977 -0.6282
    5PRO    HG2   55   5.163   1.556   5.438  0.3725 -1.2965  1.8815
    5PRO      C   56   5.361   1.170   5.479 -0.0896  0.0436  0.9344
    5PRO      O   57   5.339   1.093   5.392 -0.5406  0.7660  0.2974
    6GLY      N   58   5.406   1.127   5.598  0.0265  0.4804 -0.3027
    6GLY     HN   59   5.426   1.193   5.670  2.1788  0.0077 -0.4125
    6GLY     CA   60   5.436   0.989   5.635  0.1894 -0.8345  0.8124
    6GLY    HA1   61   5.495   0.986   5.725  1.2268  3.7704  0.5199
    6GLY    HA2   62   5.483   0.953   5.544 -2.0661  1.0159 -1.2394
    6GLY      C   63   5.315   0.904   5.649  0.5598 -0.8897 -0.3579
    6GLY      O   64   5.201   0.955   5.677 -0.2757 -0.2428  0.2669
    7ASP      N   65   5.334   0.772   5.626 -0.0465  0.0153 -0.5796
    7ASP     HN   66   5.423   0.740   5.594 -0.0680 -1.3877  0.6670
    7ASP     CA   67   5.244   0.664   5.656 -0.1517 -1.0843  0.1427
    7ASP     HA   68   5.183   0.645   5.568  2.2097  0.3880 -1.9663
    7ASP     CB   69   5.319   0.532   5.693  0.5283 -0.1030 -0.0523
    7ASP    HB1   70   5.238   0.456   5.701  0.4611 -0.3433 -2.2595
    7ASP    HB2   71   5.368   0.545   5.792 -1.9840 -0.3050  1.3195
    7ASP     CG   72   5.413   0.476   5.589 -0.0594 -0.2596 -0.2392
    7ASP    OD1   73   5.411   0.514   5.469 -0.1179 -0.4997 -0.6630
    7ASP    OD2   74   5.501   0.394   5.624 -0.3745 -0.5009  0.1987
    7ASP      C   75   5.145   0.688   5.774  0.4411  0.3594 -0.4465
    7ASP      O   76   5.189   0.741   5.879  0.7025  0.6643  0.0849
    8PRO      N   77   5.008   0.649   5.776  0.1089 -0.1776  0.2848
    8PRO     CD   78   4.927   0.594   5.667  0.7048 -1.0185 -0.3938
    8PRO    HD1   79   4.955   0.488   5.653 -0.3448 -1.3215 -0.3376
    8PRO    HD2   80   4.938   0.663   5.581 -0.6445  1.0955  1.0300
    8PRO     CA   81   4.936   0.636   5.903  0.1864 -0.3119  0.0112
    8PRO     HA   82   4.913   0.736   5.937  1.9158  0.0802  0.1155
    8PRO     CB   83   4.800   0.573   5.869 -0.4848  0.0874  0.1677
    8PRO    HB1   84   4.713   0.627   5.911 -1.8585 -0.8589 -1.3622
    8PRO    HB2   85   4.802   0.462   5.878  0.5836  0.2421  2.3997
    8PRO     CG   86   4.782   0.604   5.717  0.1609 -0.3730 -0.4983
    8PRO    HG1   87   4.711   0.538   5.664  0.3388  0.0316 -1.2595
    8PRO    HG2   88   4.742   0.707   5.705 -1.4990 -0.4247  3.1721
    8PRO      C   89   5.005   0.574   6.015  0.3948  0.7241 -0.6876
    8PRO      O   90   5.057   0.464   6.004 -0.1126  0.1194  0.0913
    9ASP      N   91   5.009   0.630   6.135  0.0308 -0.5566 -0.2983
    9ASP     HN   92   4.978   0.723   6.154 -0.5520 -0.5664 -1.1672
    9ASP     CA   93   5.051   0.568   6.260  0.2398 -0.7008  0.7010
    9ASP     HA   94   5.146   0.518   6.242 -0.5955 -1.7580 -1.0871
    9ASP     CB   95   5.071   0.673   6.362  0.0959 -0.0110 -0.1574
    9ASP    HB1   96   5.109   0.631   6.458  2.8527  0.7006 -0.8509
    9ASP    HB2   97   4.984   0.741   6.376  0.1534  0.2110 -0.8199
    9ASP     CG   98   5.175   0.766   6.310 -0.6818 -0.4368  0.0289
    9ASP    OD1   99   5.288   0.713   6.284 -0.0720 -0.1141  0.5137
    9ASP    OD2  100   5.152   0.889   6.291 -0.3383  0.1908  0.7894
    9ASP      C  101   4.949   0.467   6.308 -0.0858  0.6276  0.5003
    9ASP      O  102   4.831   0.472   6.270  0.1502 -0.4234 -0.1957
   10ALA      N  103   4.977   0.384   6.410 -0.4204  0.3184  0.3993
   10ALA     HN  104   5.066   0.378   6.455 -0.3710 -1.9647  0.1359
   10ALA     CA  105   4.886   0.281   6.455 -0.1327  0.0351 -0.8053
   10ALA     HA  106   4.787   0.322   6.469 -0.1239 -0.5287  1.2025
   10ALA     CB  107   4.886   0.165   6.353  0.1344  0.0119  0.4577
   10ALA    HB1  108   4.879   0.205   6.250  0.5715  1.2082  0.8712
   10ALA    HB2  109   4.811   0.088   6.380 -2.0323  1.6888 -0.4319
   10ALA    HB3  110   4.985   0.115   6.355  1.2653  2.1673  0.7105
   10ALA      C  111   4.926   0.217   6.588  0.2591 -0.3221 -0.0823
   10ALA      O  112   4.961   0.099   6.601  0.1920 -0.3664  0.7618
   11GLY      N  113   4.912   0.292   6.696 -0.2829 -0.3346 -0.4288
   11GLY     HN  114   4.888   0.389   6.693 -1.9040 -0.6285  1.0644
   11GLY     CA  115   4.925   0.237   6.833 -0.3170 -0.1861  0.2052
   11GLY    HA1  116   5.023   0.264   6.870 -0.9668  2.1021  0.3488
   11GLY    HA2  117   4.918   0.129   6.840  0.0583 -0.1074  2.6950
   11GLY      C  118   4.833   0.279   6.936  0.3403 -0.5264 -0.6493
   11GLY    OT1  119   4.738   0.354   6.904 -1.2093 -0.5168  0.0067
   11GLY    OT2  120   4.845   0.240   7.053 -0.2502 -0.2182  0.4000
   12SOD    SOD  121   1.244   5.060   4.243  0.2316 -0.2378 -0.3146
   13SOD    SOD  122   2.344   4.407   4.456 -0.2210  0.2684  0.0435
   14SOD    SOD  123   3.843   3.356   0.324  0.0245  0.7020  0.4220
   15SOD    SOD  124   0.113   0.064   2.553  0.2902  0.2784  0.1337
   16SOD    SOD  125   5.641   3.532   3.170 -0.4194  0.3866  0.0290
   17SOD    SOD  126   0.232   2.628   2.618  0.3964  0.1133 -0.1537
   18SOD    SOD  127   4.449   0.335   1.490  0.3983  0.1240  0.4719
   19SOD    SOD  128   4.625   0.973   0.570  0.2120  0.6605 -0.3323
   20SOD    SOD  129   2.237   3.076   4.275 -0.0646  0.6620  0.1225
   21SOD    SOD  130   5.442   3.946   1.540 -0.3394  0.8433  0.2382
   22SOD    SOD  131   0.734   2.519   4.289  0.0017  0.4357 -0.0086
   23SOD    SOD  132   1.618   1.219   1.826  0.5037 -0.3268 -0.5201
   24SOD    SOD  133   5.646   2.286   2.592  0.2435  0.2231  0.0999
   25SOD    SOD  134   2.319   5.818   0.428 -0.2364 -0.1661 -0.2968
   26SOD    SOD  135   1.948   3.527   2.391 -0.0937  0.1133 -0.1640
   27SOD    SOD  136   0.114   5.906   2.909 -0.0562  0.0679 -0.3214
   28SOD    SOD  137   3.195   5.244   4.888 -0.1060 -0.5202  0.5989
   29SOD    SOD  138   2.358   5.115   0.971  0.7899  0.2631  0.3206
   30SOD    SOD  139   4.882   5.134   5.044  0.1134 -0.2760  0.2852
   31SOD    SOD  140   0.832   4.373   1.741 -0.3509 -0.0742  0.7120
   32SOD    SOD  141   0.561   2.756   1.860  0.0695 -0.2740 -0.9911
   33SOD    SOD  142   4.689   2.237   0.501 -0.2328 -0.0665  0.3997
   34CLA    CLA  143   5.772   5.368   3.358 -0.1470 -0.2595  0.0417
   35CLA    CLA  144   1.544   0.711   2.739 -0.3844  0.0196 -0.1365
   36CLA    CLA  145   1.665   2.741   1.573  0.3761 -0.2547 -0.1904
   37CLA    CLA  146   4.719   1.986   0.450 -0.3087 -0.2898 -0.4277
   38CLA    CLA  147   4.147   4.970   2.125 -0.1637 -0.0531  0.2715
   39CLA    CLA  148   3.639   1.759   2.493  0.1695 -0.2289 -0.1119
   40CLA    CLA  149   3.143   3.248   4.068 -0.3036 -0.5380 -0.2205
   41CLA    CLA  150   4.688   5.684   0.201 -0.0771  0.0000 -0.1993
   42CLA    CLA  151   1.320   1.394   3.492 -0.0612  0.0250  0.2644
   43CLA    CLA  152   4.105   0.834   1.139  0.3408  0.4052 -0.2719
   44CLA    CLA  153   4.756   4.069   3.059  0.2858  0.0983 -0.0130
   45CLA    CLA  154   4.467   4.398   1.498 -0.0702 -0.3359  0.1954
   46CLA    CLA  155   1.740   2.009   0.946  0.2273  0.0337 -0.3872
   47CLA    CLA  156   5.140   0.867   0.005 -0.5782  0.2294 -0.1137
   48CLA    CLA  157   2.357   5.633   3.769  0.2004  0.3301  0.2207
   49CLA    CLA  158   6.125   2.257   3.078 -0.4188  0.2297 -0.0382
   50CLA    CLA  159   2.103   4.901   1.427 -0.1114  0.4438  0.0976
   51CLA    CLA  160   4.409   1.159   4.391 -0.8758  0.1776  0.5172
   52TIP3   OH2  161   3.927   4.100   2.196  0.2180 -0.4275  0.1850
   52TIP3    H1  162   3.981   4.078   2.120  0.9646  0.6972  0.3595
   52TIP3    H2  163   3.989   4.103   2.269  0.2002  2.0879  0.1826
   53TIP3   OH2  164   5.372   0.160   3.215  0.4894  0.0932 -0.1673
   53TIP3    H1  165   5.396   0.083   3.164  0.9102  1.2399 -1.7867
   53TIP3    H2  166   5.284   0.142   3.246  0.6101 -1.0663 -0.4463
   54TIP3   OH2  167   3.036   0.038   0.899 -0.1410 -0.1584 -0.1677
   54TIP3    H1  168   3.090   0.083   0.834  1.0567 -0.1482  0.8015
   54TIP3    H2  169   2.978   0.106   0.934  0.1972  0.1578 -0.2198
   55TIP3   OH2  170   4.227   5.492   4.779 -0.3226  0.7382  0.0624
   55TIP3    H1  171   4.245   5.398   4.782  2.5276  1.1581 -1.0674
   55TIP3    H2  172   4.179   5.505   4.697  1.5818  0.5447 -1.1230
   56TIP3   OH2  173   1.507   1.548   4.154  0.4682 -0.1345  0.0224
   56TIP3    H1  174   1.478   1.456   4.150  0.6466 -0.1780 -0.2738
   56TIP3    H2  175   1.602   1.542   4.167  0.4428  0.0105  0.2842
   57TIP3   OH2  176   4.445   3.887   3.980  0.0639  0.0400  0.9714
   57TIP3    H1  177   4.390   3.888   4.059  0.2114 -2.4206  1.1780
   57TIP3    H2  178   4.515   3.825   4.000  2.2889  2.1452  0.2406
   58TIP3   OH2  179   3.264   2.255   2.473  0.2221 -0.2212  0.4874
   58TIP3    H1  180   3.303   2.252   2.560  0.3346  2.0993  0.5959
   58TIP3    H2  181   3.337   2.273   2.414  0.0795 -1.3243 -0.0430
   59TIP3   OH2  182   0.909   2.280   3.966  0.0336 -0.3095 -0.3936
   59TIP3    H1  183   0.943   2.231   3.891  0.1079 -0.8732 -0.0009
   59TIP3    H2  184   0.828   2.320   3.935 -0.3861 -1.2488 -0.5245
   60TIP3   OH2  185   3.887   3.880   1.742  0.0528  0.8435  0.3278
   60TIP3    H1  186   3.929   3.823   1.677 -1.0759 -1.1870  1.2857
   60TIP3    H2  187   3.958   3.903   1.802  0.5366  0.4506 -0.0838
   61TIP3   OH2  188   5.696   1.270   3.785  0.1484 -0.4448  0.0723
   61TIP3    H1  189   5.683   1.179   3.813  0.1878 -0.5661 -0.2915
   61TIP3    H2  190   5.660   1.322   3.856 -2.3323 -0.7636 -0.8404
   62TIP3   OH2  191   5.816   3.775   1.464  0.0699 -0.1081 -0.0214
   62TIP3    H1  192   5.851   3.696   1.506 -1.7954 -1.1315 -0.2647
   62TIP3    H2  193   5.721   3.769   1.478 -0.1659  1.8112 -0.5635
   63TIP3   OH2  194   5.765   0.316   2.711  0.3945  0.2851  0.6561
   63TIP3    H1  195   5.681   0.353   2.738 -0.1073  0.5000 -1.0803
   63TIP3    H2  196   5.744   0.225   2.687  0.6556  0.3303  0.2456
   64TIP3   OH2  197   5.857   5.513   0.734  0.2663 -0.0793 -0.1975
   64TIP3    H1  198   5.884   5.569   0.807 -2.5976  0.0135  0.9361
   64TIP3    H2  199   5.884   5.561   0.656 -0.4096  2.0397  0.7708
   65TIP3   OH2  200   1.367   5.981   2.918 -0.0227  0.1254 -0.4316
   65TIP3    H1  201   1.336   5.984   2.827 -3.1577  0.3457  0.5145
   65TIP3    H2  202   1.313   5.913   2.959 -0.6697  1.8910  1.8653
   66TIP3   OH2  203   2.941   5.310   4.203 -0.1151 -0.0316  0.1755
   66TIP3    H1  204   2.927   5.268   4.118  0.5928  0.7858 -0.3617
   66TIP3    H2  205   2.912   5.400   4.190  1.4916  0.5369  0.3042
   67TIP3   OH2  206   5.196   5.906   1.632  0.2918  0.1184  0.2085
   67TIP3    H1  207   5.147   5.825   1.617  2.3038 -1.1474  0.1322
   67TIP3    H2  208   5.128   5.974   1.638 -1.3420 -0.8523 -3.7599
   68TIP3   OH2  209   3.840   5.153   4.240  0.1329  0.3408  0.0829
   68TIP3    H1  210   3.825   5.227   4.181  0.2690 -0.0415 -0.4323
   68TIP3    H2  211   3.872   5.083   4.184  0.8889  0.1685  0.7077
   69TIP3   OH2  212   4.655   1.741   0.136  0.3843 -0.2180 -0.2456
   69TIP3    H1  213   4.733   1.749   0.191  0.5992  0.1581 -0.6032
   69TIP3    H2  214   4.688   1.746   0.046  0.1111 -1.4584 -0.4388
   70TIP3   OH2  215   0.303   0.611   3.603  0.0751 -0.2024  0.4134
   70TIP3    H1  216   0.226   0.554   3.596 -0.3902  0.5582 -1.3378
   70TIP3    H2  217   0.377   0.555   3.579 -0.4740  0.0482 -2.1698
   71TIP3   OH2  218   0.593   1.564   4.388 -0.1859 -0.2971 -0.6959
   71TIP3    H1  219   0.543   1.637   4.425 -0.0552 -0.0105 -1.0671
   71TIP3    H2  220   0.641   1.604   4.315  2.6592  0.0687  1.2215
   72TIP3   OH2  221   4.310   2.841   3.429 -0.4062  0.5381  0.2561
   72TIP3    H1  222   4.294   2.746   3.422 -0.1098  0.5294 -0.3127
   72TIP3    H2  223   4.395   2.854   3.387  0.4854  0.7774  2.0414
   73TIP3   OH2  224   4.546   5.772   4.311  0.0747 -0.4868  0.4574
   73TIP3    H1  225   4.582   5.854   4.276 -0.6196  0.0652  1.0256
   73TIP3    H2  226   4.464   5.760   4.264  0.5731 -1.3098 -0.2309
   74TIP3   OH2  227   4.325   3.025   2.271 -0.0708  0.4796 -0.2765
   74TIP3    H1  228   4.320   3.102   2.328 -0.4428  2.3063 -2.5776
   74TIP3    H2  229   4.239   2.984   2.278 -0.2917  0.9914  0.0889
   75TIP3   OH2  230   5.270   4.972   1.203 -0.1670  0.1328 -0.2509
   75TIP3    H1  231   5.300   5.061   1.220  1.3686 -0.8837  3.6735
   75TIP3    H2  232   5.176   4.980   1.186 -0.7182  2.3692  2.9929
   76TIP3   OH2  233   5.591   1.687   2.726  0.2875  0.4121 -0.5121
   76TIP3    H1  234   5.565   1.638   2.804 -0.3047  0.3847 -0.7275
   76TIP3    H2  235   5.509   1.712   2.684  0.5998 -0.6928 -1.8407
   77TIP3   OH2  236   1.129   0.952   1.013 -0.2773  0.1207  0.8266
   77TIP3    H1  237   1.125   0.998   1.097 -0.0434  0.9408  0.4050
   77TIP3    H2  238   1.209   0.900   1.017  1.1001  2.0721  0.1974
   78TIP3   OH2  239   5.461   3.750   0.321 -0.3495  0.2980  0.2597
   78TIP3    H1  240   5.439   3.690   0.250 -0.4468 -1.4695  1.6927
   78TIP3    H2  241   5.388   3.743   0.382  1.0435 -0.5730  1.9280
   79TIP3   OH2  242   5.199   0.316   1.080 -0.2280 -0.0139  0.6159
   79TIP3    H1  243   5.181   0.330   0.987 -0.5591  1.1548  0.8373
   79TIP3    H2  244   5.114   0.331   1.123  0.1013  0.2953  1.1717
   80TIP3   OH2  245   2.361   2.042   2.315 -0.4247  0.2653  0.4328
   80TIP3    H1  246   2.268   2.019   2.315 -0.4605  0.3835  1.1343
   80TIP3    H2  247   2.382   2.057   2.223 -1.0573  0.0643  0.2502
   81TIP3   OH2  248   1.621   5.348   2.735 -0.7398 -0.7895 -0.1468
   81TIP3    H1  249   1.569   5.268   2.723  0.9823 -2.2110  1.4119
   81TIP3    H2  250   1.603   5.375   2.825  2.6081 -2.4906  1.1984
   82TIP3   OH2  251   2.072   4.744   4.816  0.3527  0.5473  0.3806
   82TIP3    H1  252   2.095   4.654   4.839  0.5389  0.1452 -1.2397
   82TIP3    H2  253   2.030   4.737   4.730  1.1513  2.0695 -0.1814
   83TIP3   OH2  254   5.059   3.986   0.449 -0.4468  0.0641 -0.9511
   83TIP3    H1  255   5.053   4.061   0.508 -0.5061 -1.0520  0.5191
   83TIP3    H2  256   4.977   3.987   0.400 -0.7238  0.5869 -0.4888
   84TIP3   OH2  257   3.354   0.080   3.487 -0.2789 -0.6932 -0.1272
   84TIP3    H1  258   3.325   0.171   3.491 -0.5488 -0.8234  2.4167
   84TIP3    H2  259   3.450   0.086   3.482 -0.1944 -0.2238  1.5261
   85TIP3   OH2  260   4.065   0.356   4.529  0.4126 -0.5704  0.4835
   85TIP3    H1  261   4.139   0.385   4.475  0.3258 -1.7131 -0.2797
   85TIP3    H2  262   4.078   0.400   4.613  1.1328  0.4114 -0.1240
   86TIP3   OH2  263   1.098   2.646   0.949 -0.0501  0.3302  0.3784
   86TIP3    H1  264   1.137   2.733   0.960  0.2338  0.2422  0.0539
   86TIP3    H2  265   1.172   2.585   0.953 -0.2788  0.0798  0.8814
   87TIP3   OH2  266   5.031   5.025   1.898  0.2940  0.4606 -0.1986
   87TIP3    H1  267   4.971   5.017   1.972  1.7420 -1.7848  0.8327
   87TIP3    H2  268   5.093   5.094   1.924 -1.1478  2.0733 -0.8427
   88TIP3   OH2  269   1.245   2.598   0.718  0.1418  0.0003  0.3886
   88TIP3    H1  270   1.304   2.612   0.644 -0.0402 -0.5194  0.1373
   88TIP3    H2  271   1.211   2.685   0.738 -0.4799  0.0333 -0.7089
   89TIP3   OH2  272   4.341   4.131   2.975 -0.0324 -0.0401 -0.1480
   89TIP3    H1  273   4.354   4.037   2.977 -0.9187 -0.1699  0.0307
   89TIP3    H2  274   4.313   4.149   2.885  1.1778  0.2120 -0.4891
   90TIP3   OH2  275   2.072   1.559   0.029  0.2910  0.2683  0.1504
   90TIP3    H1  276   2.017   1.556   0.108 -0.2942  0.7990 -0.2273
   90TIP3    H2  277   2.142   1.497   0.047 -0.3991 -0.3836  0.6739
   91TIP3   OH2  278   2.802   3.013   1.342  0.1024  0.1753  0.0363
   91TIP3    H1  279   2.708   3.020   1.358  0.0414  0.9967 -0.5953
   91TIP3    H2  280   2.824   3.094   1.295  0.8675 -0.6215 -1.0213
   92TIP3   OH2  281   1.694   0.515   5.151 -0.6066  0.2526  0.2365
   92TIP3    H1  282   1.744   0.582   5.105 -3.3192  1.2942 -1.4577
   92TIP3    H2  283   1.658   0.460   5.081 -1.1893 -0.9119  1.4076
   93TIP3   OH2  284   4.111   3.355   5.043 -0.7898  0.0684  0.2142
   93TIP3    H1  285   4.093   3.402   4.961  0.1182  1.3193  0.6856
   93TIP3    H2  286   4.187   3.301   5.022 -0.1684  0.8548  0.3686
   94TIP3   OH2  287   0.531   5.240   0.277  0.2619  0.0075 -0.2678
   94TIP3    H1  288   0.495   5.154   0.254  0.3327  0.0841 -0.6721
   94TIP3    H2  289   0.623   5.234   0.253 -0.1679  0.8991 -2.2961
   95TIP3   OH2  290   5.010   3.087   0.875  0.2061 -0.0506 -0.3898
   95TIP3    H1  291   4.952   3.047   0.810  1.0660 -1.5584 -0.2550
   95TIP3    H2  292   5.060   3.014   0.912  1.8368  1.1295 -0.1417
   96TIP3   OH2  293   0.249   0.918   1.081  0.2894  0.3533 -0.5665
   96TIP3    H1  294   0.181   0.895   1.144  1.4182  0.0679  0.5931
   96TIP3    H2  295   0.311   0.845   1.085  0.6923  0.6213 -1.5708
   97TIP3   OH2  296   5.775   2.546   4.600  0.2337 -0.0116 -0.0147
   97TIP3    H1  297   5.784   2.623   4.544 -0.0142  0.4875  0.6132
   97TIP3    H2  298   5.688   2.512   4.580  1.2143 -1.5365 -2.0000
   98TIP3   OH2  299   4.578   0.815   4.701 -0.3164 -0.2699 -0.1997
   98TIP3    H1  300   4.629   0.769   4.634  0.1847  2.3731 -1.7860
   98TIP3    H2  301   4.496   0.765   4.707  0.3522 -1.6044 -1.4373
   99TIP3   OH2  302   2.387   0.039   5.010 -0.3121  0.2601  0.4810
   99TIP3    H1  303   2.380   0.074   4.921  1.0505 -0.8620 -0.1023
   99TIP3    H2  304   2.391   0.116   5.066 -1.4129  0.9864 -0.3975
  100TIP3   OH2  305   3.460   2.890   0.920 -0.1141  0.3542 -0.3854
  100TIP3    H1  306   3.542   2.929   0.889  0.0916 -0.8488 -1.4691
  100TIP3    H2  307   3.420   2.957   0.975  1.5721  0.9816  0.1239
  101TIP3   OH2  308   5.762   1.724   5.159 -0.2179 -0.3737 -0.3783
  101TIP3    H1  309   5.737   1.634   5.137  1.2168 -0.6098 -1.1625
  101TIP3    H2  310   5.857   1.719   5.172 -0.1697  0.9784 -0.1320
  102TIP3   OH2  311   5.587   1.509   1.042  0.1109  0.0703  0.3351
  102TIP3    H1  312   5.515   1.520   0.980 -0.1687  1.1795  0.8377
  102TIP3    H2  313   5.554   1.444   1.105 -0.5914  0.7807  0.7312
  103TIP3   OH2  314   0.495   1.067   2.659 -0.2116  0.2608 -0.0975
  103TIP3    H1  315   0.558   1.137   2.675  0.6217 -0.9039  2.0078
  103TIP3    H2  316   0.410   1.106   2.681  0.1110  0.9160  0.0192
  104TIP3   OH2  317   3.505   1.542   4.918 -0.1571  0.7749 -0.2986
  104TIP3    H1  318   3.483   1.471   4.859  0.1843  0.7589 -0.4056
  104TIP3    H2  319   3.435   1.606   4.906  0.0074  0.8515 -0.8480
  105TIP3   OH2  320   0.746   2.023   2.238 -0.0651 -0.2056 -0.2080
  105TIP3    H1  321   0.802   2.088   2.195 -0.0525 -0.5070 -0.6621
  105TIP3    H2  322   0.757   2.039   2.331  2.6481 -1.7574 -0.1674
  106TIP3   OH2  323   2.965   4.224   3.619 -0.3917  0.2399  0.2900
  106TIP3    H1  324   3.055   4.219   3.586 -0.3830 -0.6755  0.4339
  106TIP3    H2  325   2.912   4.186   3.550 -0.4702 -0.8363  0.9225
  107TIP3   OH2  326   0.887   3.163   4.307 -0.0719  0.3193 -0.1738
  107TIP3    H1  327   0.911   3.070   4.299 -0.6371  0.2356 -1.0683
  107TIP3    H2  328   0.853   3.186   4.220  1.6274  1.8356 -0.4907
  108TIP3   OH2  329   2.004   4.369   1.066 -0.4297  0.0236  0.2839
  108TIP3    H1  330   2.037   4.355   0.977  0.4118  0.6710  0.4823
  108TIP3    H2  331   2.030   4.291   1.114 -1.9058 -0.8772 -0.2912
  109TIP3   OH2  332   3.247   4.009   4.844  0.4388  0.1074  0.2987
  109TIP3    H1  333   3.288   4.047   4.767  1.1182  1.6935  1.3780
  109TIP3    H2  334   3.174   3.957   4.810 -0.9273  2.8445 -1.3235
  110TIP3   OH2  335   2.570   1.134   3.334  0.3730 -0.1878 -0.0638
  110TIP3    H1  336   2.663   1.120   3.347  0.4366 -0.5502 -0.8917
  110TIP3    H2  337   2.528   1.077   3.399  0.6884 -1.8522 -1.2678
  111TIP3   OH2  338   0.628   2.892   3.372 -0.1099  0.2100  0.5605
  111TIP3    H1  339   0.663   2.981   3.378 -1.5855  0.9644 -1.1161
  111TIP3    H2  340   0.649   2.864   3.282 -0.6778 -0.6852  0.6953
  112TIP3   OH2  341   3.635   5.628   0.582 -0.3291 -0.1981 -0.1013
  112TIP3    H1  342   3.704   5.674   0.533 -2.4960  1.0821 -2.1261
  112TIP3    H2  343   3.650   5.535   0.564  2.2262 -0.1852  1.4640
  113TIP3   OH2  344   6.069   4.421   0.396  0.3210 -0.1319  0.0813
  113TIP3    H1  345   5.993   4.366   0.376 -0.2841  0.4688  0.6694
  113TIP3    H2  346   6.089   4.402   0.487  0.2251  0.4689  0.2351
  114TIP3   OH2  347   3.960   1.453   4.506 -0.0199 -0.1659  0.7961
  114TIP3    H1  348   3.920   1.450   4.419  0.2628  0.9191  0.6046
  114TIP3    H2  349   4.054   1.448   4.490  0.0047 -0.6837  1.0930
  115TIP3   OH2  350   4.826   0.084   5.115 -0.2408  0.5485  0.6912
  115TIP3    H1  351   4.753   0.053   5.168 -0.3109 -1.6945 -0.5937
  115TIP3    H2  352   4.790   0.095   5.027  1.0692 -1.3692 -0.1504
  116TIP3   OH2  353   0.232   3.462   3.434  0.4527 -0.0092  0.3710
  116TIP3    H1  354   0.183   3.391   3.475  1.2955  0.3903  2.1634
  116TIP3    H2  355   0.318   3.425   3.415  0.3231  0.0384 -0.3333
  117TIP3   OH2  356   2.132   1.187   3.270  0.0725  0.4688  0.1739
  117TIP3    H1  357   2.141   1.282   3.273 -2.5405  0.8235 -0.3973
  117TIP3    H2  358   2.091   1.170   3.185  1.4345 -1.3071 -0.1872
  118TIP3   OH2  359   0.498   2.536   2.190  0.0207  0.3737  0.6914
  118TIP3    H1  360   0.468   2.564   2.103  0.8526 -1.1694 -0.1436
  118TIP3    H2  361   0.440   2.582   2.251 -1.7442  0.1785 -0.7369
  119TIP3   OH2  362   4.608   3.618   2.982  0.1754  0.0974 -0.2972
  119TIP3    H1  363   4.643   3.607   2.893 -0.0276 -0.4424 -0.3140
  119TIP3    H2  364   4.545   3.546   2.992 -1.5626  1.5250 -0.5579
  120TIP3   OH2  365   4.790   0.091   3.378 -0.1586  0.1156 -0.3767
  120TIP3    H1  366   4.782   0.001   3.409  0.1895 -0.1591 -1.0458
  120TIP3    H2  367   4.730   0.096   3.303 -0.5161  0.5755 -0.0639
  121TIP3   OH2  368   0.283   2.110   0.059  0.2278  0.1612  0.7189
  121TIP3    H1  369   0.280   2.033   0.003  0.7682  0.1930  0.6441
  121TIP3    H2  370   0.218   2.093   0.127 -0.9736  0.4483 -0.3265
  122TIP3   OH2  371   2.607   2.736   5.028 -0.0026  0.5670 -0.0363
  122TIP3    H1  372   2.630   2.723   5.120  1.3032 -1.4224 -0.5652
  122TIP3    H2  373   2.524   2.690   5.018 -0.9456  2.0851  0.4262
  123TIP3   OH2  374   0.883   1.463   2.885  0.9450  0.3737  0.2952
  123TIP3    H1  375   0.798   1.422   2.869  0.6002  1.6828 -1.5431
  123TIP3    H2  376   0.940   1.427   2.818  1.6821  0.0103  1.1017
  124TIP3   OH2  377   2.514   3.091   0.550 -0.4361  0.0645 -0.7609
  124TIP3    H1  378   2.488   2.999   0.546 -0.5499  0.0909 -0.6511
  124TIP3    H2  379   2.444   3.133   0.599  0.6075 -0.1705  1.0483
  125TIP3   OH2  380   3.097   1.591   3.034 -0.0677 -0.4989 -0.4727
  125TIP3    H1  381   3.078   1.631   3.119  0.3668 -0.4569 -0.3911
  125TIP3    H2  382   3.191   1.605   3.022 -0.2477  0.0885 -1.2662
  126TIP3   OH2  383   5.498   2.745   2.983  0.2591 -0.1362 -0.4180
  126TIP3    H1  384   5.403   2.758   2.979 -0.1110 -2.0563  0.7830
  126TIP3    H2  385   5.519   2.695   2.905  0.1647 -0.2973 -0.3407
  127TIP3   OH2  386   4.042   1.938   2.577 -0.2832 -0.3576  0.4386
  127TIP3    H1  387   4.069   1.903   2.492 -1.4650 -0.9503  0.2895
  127TIP3    H2  388   4.080   1.879   2.641 -1.1314 -1.1260  0.2391
  128TIP3   OH2  389   3.266   3.119   4.322 -0.0985 -0.4434 -0.1643
  128TIP3    H1  390   3.271   3.207   4.358  0.4093  0.0509 -1.3748
  128TIP3    H2  391   3.231   3.131   4.234  0.0226 -1.4428 -0.3634
  129TIP3   OH2  392   3.774   2.773   2.378  0.1096 -0.2916 -0.3682
  129TIP3    H1  393   3.717   2.828   2.324 -0.9923 -2.8128 -1.9400
  129TIP3    H2  394   3.824   2.721   2.316 -0.0989 -2.2199  0.9690
  130TIP3   OH2  395   1.875   3.279   3.969 -0.4046  0.0194  0.2690
  130TIP3    H1  396   1.871   3.192   3.929  0.0989  0.1241 -0.0250
  130TIP3    H2  397   1.880   3.339   3.895  2.2922  0.1277  0.4268
  131TIP3   OH2  398   5.815   5.469   4.756  0.3986 -0.6511 -0.1077
  131TIP3    H1  399   5.734   5.420   4.738 -0.6186  1.0314 -0.4003
  131TIP3    H2  400   5.793   5.524   4.832  0.4683  1.4791 -1.5508
  132TIP3   OH2  401   2.617   3.050   2.687  0.6523  0.0874  0.0722
  132TIP3    H1  402   2.536   3.063   2.639  0.1470 -0.9388  0.6252
  132TIP3    H2  403   2.682   3.030   2.619  0.2997  0.2320 -0.3131
  133TIP3   OH2  404   5.793   3.259   3.866 -0.2121 -0.0874 -0.3859
  133TIP3    H1  405   5.784   3.353   3.878  0.7485 -0.1003  0.6672
  133TIP3    H2  406   5.795   3.246   3.771  3.2929  1.3969 -0.6477
  134TIP3   OH2  407   0.984   3.589   0.151  0.1688  0.2083  0.1724
  134TIP3    H1  408   1.013   3.680   0.159  1.0551  0.2028 -2.1558
  134TIP3    H2  409   1.056   3.537   0.187  0.7366  0.3847 -0.6685
  135TIP3   OH2  410   2.283   5.659   1.735  0.4815  0.2525  0.3009
  135TIP3    H1  411   2.293   5.715   1.812 -0.6485  1.9492 -0.7197
  135TIP3    H2  412   2.325   5.708   1.664 -2.3735  0.9290 -1.0726
  136TIP3   OH2  413   1.672   2.436   3.150  0.5410  0.2667 -0.0633
  136TIP3    H1  414   1.741   2.377   3.181  0.8780  0.7385  0.0955
  136TIP3    H2  415   1.714   2.522   3.148 -0.2487  0.6897  0.7651
  137TIP3   OH2  416   5.655   0.271   2.112 -0.0613  0.2232 -0.1394
  137TIP3    H1  417   5.669   0.249   2.204 -0.0512  0.0474 -0.1817
  137TIP3    H2  418   5.743   0.284   2.076  0.0609 -1.4194 -0.5352
  138TIP3   OH2  419   4.175   1.926   2.156 -0.0498 -0.6115 -0.1429
  138TIP3    H1  420   4.241   1.980   2.198 -0.2147  0.7867 -1.5755
  138TIP3    H2  421   4.149   1.862   2.223  2.6964 -1.2034  0.4748
  139TIP3   OH2  422   2.369   5.358   2.218 -0.5239  0.1023 -0.3038
  139TIP3    H1  423   2.381   5.297   2.291 -1.4324  0.1801 -0.0761
  139TIP3    H2  424   2.389   5.306   2.140 -0.1445 -0.1546 -0.0413
  140TIP3   OH2  425   5.707   0.057   3.860 -0.2625  0.4361  0.1437
  140TIP3    H1  426   5.613   0.074   3.859 -0.4689 -0.6116  0.0453
  140TIP3    H2  427   5.740   0.099   3.780 -0.7650  0.2000 -0.1939
  141TIP3   OH2  428   1.387   3.814   0.735 -0.3946 -0.0298 -0.0961
  141TIP3    H1  429   1.457   3.866   0.773  0.2138 -1.5554  0.9667
  141TIP3    H2  430   1.325   3.801   0.806 -0.7033 -0.4645 -0.4393
  142TIP3   OH2  431   5.254   3.801   0.922  0.5920  0.5278 -0.2782
  142TIP3    H1  432   5.335   3.795   0.974  1.3396  0.6462 -1.3876
  142TIP3    H2  433   5.231   3.710   0.904  1.7834  0.4804 -1.8535
  143TIP3   OH2  434   3.953   3.101   1.167 -0.0731 -0.0379  0.3786
  143TIP3    H1  435   4.026   3.045   1.139 -0.4715 -0.4636  0.1889
  143TIP3    H2  436   3.995   3.172   1.215  0.3695 -1.1142  1.6545
  144TIP3   OH2  437   1.807   6.014   0.667  0.0956  0.5860  0.9226
  144TIP3    H1  438   1.807   5.924   0.700  2.0485  0.4935  0.7429
  144TIP3    H2  439   1.812   6.005   0.572 -0.7112  0.8981  0.8407
  145TIP3   OH2  440   2.876   1.887   0.966 -0.3978 -0.5715 -0.0986
  145TIP3    H1  441   2.840   1.914   1.050  1.4898  1.3716  0.1932
  145TIP3    H2  442   2.940   1.819   0.988 -1.3004 -1.4725 -0.2132
  146TIP3   OH2  443   5.801   2.299   0.356  0.4047  0.0586  0.0486
  146TIP3    H1  444   5.874   2.237   0.361 -0.0972 -0.6654 -1.2964
  146TIP3    H2  445   5.723   2.245   0.352 -0.1633  0.8231  0.5710
  147TIP3   OH2  446   6.111   2.755   1.103 -0.1657 -0.6945 -0.5618
  147TIP3    H1  447   6.131   2.713   1.186 -1.2467 -0.3330 -0.1029
  147TIP3    H2  448   6.060   2.689   1.055 -0.8093 -0.3726 -0.3328
  148TIP3   OH2  449   1.644   2.041   4.594  0.1649 -0.6069 -0.0554
  148TIP3    H1  450   1.590   2.043   4.514 -2.2842 -0.9772  1.4670
  148TIP3    H2  451   1.640   1.950   4.623  0.4534 -0.3435  0.8461
  149TIP3   OH2  452   0.612   4.028   2.307  0.1253  0.4120  0.0324
  149TIP3    H1  453   0.667   4.056   2.380  1.7575  0.1378 -1.0474
  149TIP3    H2  454   0.554   3.962   2.345  1.5625 -0.3965  0.9174
  150TIP3   OH2  455   3.312   2.655   1.732  0.0124  0.1202  0.4148
  150TIP3    H1  456   3.319   2.718   1.660  1.6005 -0.2903  0.1684
  150TIP3    H2  457   3.377   2.589   1.712 -0.3006 -0.6026  1.6688
  151TIP3   OH2  458   2.806   2.925  -0.002 -0.6719  0.5743  0.4433
  151TIP3    H1  459   2.714   2.907   0.020 -0.9042  1.4003  0.2037
  151TIP3    H2  460   2.841   2.970   0.075 -0.9702  1.8122 -0.1127
  152TIP3   OH2  461   0.721   5.219   4.695 -0.1034 -0.5300  0.4342
  152TIP3    H1  462   0.769   5.210   4.777 -0.1385  0.0131  0.5167
  152TIP3    H2  463   0.740   5.308   4.665 -1.5674 -0.0636  0.8009
  153TIP3   OH2  464   5.194   0.667   3.820  0.6014  0.4938 -0.5794
  153TIP3    H1  465   5.244   0.653   3.740 -0.5035  1.4901 -1.4803
  153TIP3    H2  466   5.156   0.754   3.809 -0.0549  0.3992  0.7732
  154TIP3   OH2  467   5.450   5.216   3.018  0.2158  0.0084  0.5530
  154TIP3    H1  468   5.449   5.120   3.022 -0.5373 -0.0638 -0.7521
  154TIP3    H2  469   5.358   5.241   3.014  0.4351  0.7154 -0.2732
  155TIP3   OH2  470   1.418   5.258   4.628 -0.4282  0.2792 -0.5932
  155TIP3    H1  471   1.416   5.333   4.688 -1.4165 -0.5879  0.5106
  155TIP3    H2  472   1.502   5.264   4.585  0.1932  1.1214  0.6653
  156TIP3   OH2  473   0.519   0.364   0.604 -0.2242  1.3783 -0.0103
  156TIP3    H1  474   0.543   0.274   0.627 -1.2972  1.2876  0.8385
  156TIP3    H2  475   0.601   0.406   0.579  0.2358  0.0510 -0.8204
  157TIP3   OH2  476   3.503   2.492   0.342 -0.5851  0.3666  0.4433
  157TIP3    H1  477   3.434   2.477   0.408  0.7109 -0.6451  1.6233
  157TIP3    H2  478   3.491   2.583   0.315 -2.7097  0.0714  0.2188
  158TIP3   OH2  479   0.465   0.163   2.599 -0.6341 -0.0907 -0.7981
  158TIP3    H1  480   0.391   0.128   2.647 -0.0111 -0.8259 -0.3487
  158TIP3    H2  481   0.490   0.093   2.538  0.0503 -0.0982 -0.5280
  159TIP3   OH2  482   5.470   3.089   2.794  0.1542 -0.3586 -0.1884
  159TIP3    H1  483   5.514   3.050   2.869  1.1833  1.9243  0.4656
  159TIP3    H2  484   5.498   3.036   2.720  0.7815 -1.3919  0.7498
  160TIP3   OH2  485   0.849   0.002   1.336 -0.4974 -0.1549 -0.2228
  160TIP3    H1  486   0.927   0.036   1.292 -1.0075 -0.0800 -1.0862
  160TIP3    H2  487   0.844   0.053   1.417 -0.2058  0.5281 -0.6245
  161TIP3   OH2  488   5.363   1.247   4.153 -0.0017  0.3520  0.0813
  161TIP3    H1  489   5.355   1.237   4.248  1.9468 -0.5177  0.2112
  161TIP3    H2  490   5.450   1.212   4.133  0.4840  2.4098 -1.7532
  162TIP3   OH2  491   5.987   3.620   4.398 -0.3289 -0.0027 -0.9436
  162TIP3    H1  492   5.966   3.713   4.409 -0.9614 -0.2734  0.3100
  162TIP3    H2  493   5.961   3.600   4.308 -1.2411  0.7684 -0.8720
  163TIP3   OH2  494   1.558   0.768   4.217  0.2881 -0.0768 -0.1021
  163TIP3    H1  495   1.530   0.832   4.281 -2.0058 -0.0229 -1.0824
  163TIP3    H2  496   1.533   0.805   4.132  2.2239 -0.6518 -0.9892
  164TIP3   OH2  497   2.868   1.076   1.977  0.4563 -0.0328 -0.2691
  164TIP3    H1  498   2.934   1.058   1.910  0.8576 -1.7199  0.5144
  164TIP3    H2  499   2.809   1.001   1.974 -1.3690  1.3557 -0.8197
  165TIP3   OH2  500   0.108   0.416   3.606 -0.7591 -0.4101 -0.2198
  165TIP3    H1  501   0.035   0.379   3.556 -0.3046 -1.0429 -0.4265
  165TIP3    H2  502   0.113   0.360   3.684 -0.9008  0.0249  0.1005
  166TIP3   OH2  503   2.800   2.502   3.165  0.2394 -0.5265 -0.2258
  166TIP3    H1  504   2.845   2.501   3.249  1.3128 -0.7236 -0.7776
  166TIP3    H2  505   2.831   2.423   3.120  1.1565  0.5109 -1.5267
  167TIP3   OH2  506   5.782   1.857   2.664  0.7371  0.2816  0.3362
  167TIP3    H1  507   5.833   1.813   2.732  0.5655  2.1804  1.7884
  167TIP3    H2  508   5.704   1.803   2.654  2.0957 -1.5964 -0.5021
  168TIP3   OH2  509   3.493   1.465   4.092 -0.5580  0.3163  0.4074
  168TIP3    H1  510   3.539   1.383   4.114 -1.9513 -0.4607  0.5442
  168TIP3    H2  511   3.512   1.478   3.999  1.4111  1.0127  0.8651
  169TIP3   OH2  512   3.276   2.937   3.609 -0.0250  0.1191 -0.2608
  169TIP3    H1  513   3.292   3.024   3.644  1.4516 -0.3181  0.2295
  169TIP3    H2  514   3.340   2.928   3.538 -0.5369 -0.3646 -0.6711
  170TIP3   OH2  515   1.905   4.401   3.949  0.3026 -0.1984  0.2665
  170TIP3    H1  516   1.812   4.380   3.934  0.4692  0.4886 -2.1757
  170TIP3    H2  517   1.943   4.318   3.977 -1.2401 -0.1828  2.8000
  171TIP3   OH2  518   4.156   1.886   4.922  0.5882  0.0041  0.2954
  171TIP3    H1  519   4.094   1.913   4.855  1.5553  0.4064 -0.4699
  171TIP3    H2  520   4.102   1.852   4.994 -0.4549 -1.3005 -1.0514
  172TIP3   OH2  521   2.496   4.540   4.874 -0.4411 -0.0993 -0.9707
  172TIP3    H1  522   2.563   4.605   4.895  1.0249 -1.5795 -0.8227
  172TIP3    H2  523   2.517   4.464   4.929 -0.5122 -1.6415 -2.9275
  173TIP3   OH2  524   3.100   4.069   1.387  0.0409  0.5656  0.3346
  173TIP3    H1  525   3.017   4.093   1.429  0.6686  0.9530  1.3955
  173TIP3    H2  526   3.117   4.142   1.326  0.0448  0.9251  0.7630
  174TIP3   OH2  527   2.677   5.535   3.024 -0.0787  0.0936 -0.2808
  174TIP3    H1  528   2.756   5.527   2.969 -0.1304  0.9907 -0.4894
  174TIP3    H2  529   2.709   5.523   3.113  0.0217 -1.3005 -0.4679
  175TIP3   OH2  530   4.568   4.758   1.382 -0.1957  0.2998  0.0863
  175TIP3    H1  531   4.633   4.825   1.402 -0.9890  1.1380 -0.0810
  175TIP3    H2  532   4.613   4.675   1.399 -0.0632  0.8761  3.0424
  176TIP3   OH2  533   4.547   1.146   2.682 -0.0745 -1.0036  0.0231
  176TIP3    H1  534   4.487   1.213   2.714 -1.0316  0.2480 -3.9172
  176TIP3    H2  535   4.494   1.066   2.678 -0.4685 -0.7316 -0.2130
  177TIP3   OH2  536   1.398   5.578   2.753  0.1565 -0.2108 -0.2362
  177TIP3    H1  537   1.475   5.634   2.760  0.8383 -1.2563  1.1374
  177TIP3    H2  538   1.343   5.603   2.827 -1.6577  1.6222 -2.0717
  178TIP3   OH2  539   5.951   5.719   4.711  0.1332 -0.3375 -0.6009
  178TIP3    H1  540   5.992   5.803   4.730  2.3788 -1.4704 -0.0983
  178TIP3    H2  541   6.012   5.675   4.652 -0.1990 -2.2081  0.3702
  179TIP3   OH2  542   5.373   5.670   5.085 -0.0096 -0.1950  0.3721
  179TIP3    H1  543   5.305   5.711   5.032 -0.1338 -0.1783  0.5412
  179TIP3    H2  544   5.378   5.580   5.052 -0.2851 -0.2666  0.5169
  180TIP3   OH2  545   3.932   0.909   1.530  0.2360  0.0505 -0.0314
  180TIP3    H1  546   4.009   0.853   1.530 -1.3273 -2.2727  1.4454
  180TIP3    H2  547   3.891   0.895   1.445  0.7024  0.2139 -0.2839
  181TIP3   OH2  548   6.336   4.719   3.551 -0.7843 -0.1239 -0.4766
  181TIP3    H1  549   6.346   4.796   3.494 -3.1512  0.7425  0.1614
  181TIP3    H2  550   6.301   4.651   3.494 -2.7964  0.6297 -0.2237
  182TIP3   OH2  551   3.231   5.363   3.320  0.1416 -0.5090  0.0547
  182TIP3    H1  552   3.149   5.335   3.279  0.0864 -2.0299  1.1450
  182TIP3    H2  553   3.298   5.343   3.254 -0.1357 -1.2869 -0.0007
  183TIP3   OH2  554   3.856   3.133   2.079 -0.2034  0.8195  0.0624
  183TIP3    H1  555   3.776   3.132   2.131  0.7298 -0.6098  1.5924
  183TIP3    H2  556   3.847   3.057   2.020  1.8597 -2.4358  3.4859
  184TIP3   OH2  557   4.670   4.987   2.463 -0.8426  0.8281  0.3185
  184TIP3    H1  558   4.647   5.049   2.394  1.0554  0.6295 -0.5720
  184TIP3    H2  559   4.620   4.909   2.443 -2.3514  1.6303  0.7669
  185TIP3   OH2  560   3.070   3.542   1.494 -0.0341 -0.1828  0.2260
  185TIP3    H1  561   2.996   3.603   1.494 -0.2199 -0.3611 -1.4838
  185TIP3    H2  562   3.032   3.458   1.520 -0.3802 -0.2069 -0.3475
  186TIP3   OH2  563   4.021   1.898   4.196 -0.0382  0.7450 -0.8202
  186TIP3    H1  564   3.944   1.845   4.176  1.0049 -0.2059 -2.5740
  186TIP3    H2  565   4.010   1.977   4.144 -0.0494  0.8191 -0.7056
  187TIP3   OH2  566   0.963   1.097   0.781  1.0373 -0.3528 -0.1598
  187TIP3    H1  567   1.024   1.066   0.847  1.1972  1.7951  0.7808
  187TIP3    H2  568   1.018   1.126   0.708  0.9301 -1.5163 -0.7184
  188TIP3   OH2  569   5.130   3.009   0.011  0.6122  0.9183  0.2432
  188TIP3    H1  570   5.068   3.047   0.073  0.8572 -0.0198  1.1015
  188TIP3    H2  571   5.183   3.083  -0.019  0.3276  1.4309  0.9692
  189TIP3   OH2  572   6.073   4.187   1.391  0.7358  0.1435 -0.7100
  189TIP3    H1  573   6.007   4.128   1.429 -0.3623  0.7599 -1.5887
  189TIP3    H2  574   6.152   4.172   1.443 -0.8986  1.6155  2.4817
  190TIP3   OH2  575   0.980   3.963   3.324 -0.3133  0.4089 -0.6696
  190TIP3    H1  576   1.023   3.945   3.240 -1.5128  2.1376 -1.7258
  190TIP3    H2  577   0.982   4.058   3.332 -1.9671  0.4034  0.2882
  191TIP3   OH2  578   2.553   3.835   4.444  0.4288  0.2330  0.4524
  191TIP3    H1  579   2.523   3.848   4.534 -0.2761  0.9414  0.1247
  191TIP3    H2  580   2.581   3.744   4.441 -2.0228 -0.6018  0.6914
  192TIP3   OH2  581   1.528   5.090   2.723  0.1717  0.8167  0.3040
  192TIP3    H1  582   1.576   5.042   2.790 -1.8590  0.5646  1.6522
  192TIP3    H2  583   1.450   5.037   2.707 -0.7934  2.3180 -0.1482
  193TIP3   OH2  584   1.377   3.941   3.696  0.0082  0.1881 -0.0218
  193TIP3    H1  585   1.315   3.995   3.745 -0.4383  1.2517 -1.6625
  193TIP3    H2  586   1.332   3.857   3.684 -0.3039  0.2821  0.4783
  194TIP3   OH2  587   3.514   4.831   5.049 -0.2373 -0.1147  0.2201
  194TIP3    H1  588   3.502   4.745   5.088 -1.3008  0.3487  0.9624
  194TIP3    H2  589   3.590   4.868   5.095  1.3479 -1.2863 -1.3060
  195TIP3   OH2  590   3.462   0.313   3.670 -0.0505 -0.2484  0.3563
  195TIP3    H1  591   3.548   0.329   3.633 -0.0175 -1.2814 -0.0511
  195TIP3    H2  592   3.479   0.267   3.752 -0.2109 -0.2880  0.3685
  196TIP3   OH2  593   3.754   3.079   2.828  0.0858  0.6494 -0.4697
  196TIP3    H1  594   3.843   3.056   2.855 -0.3668 -1.5781 -0.7408
  196TIP3    H2  595   3.702   3.069   2.907 -0.3857 -0.9435 -0.9482
  197TIP3   OH2  596   2.434   0.238   2.614 -0.1461 -0.2809 -0.3824
  197TIP3    H1  597   2.353   0.268   2.654 -1.6112 -3.7989 -0.3873
  197TIP3    H2  598   2.427   0.264   2.522 -1.3343 -0.6500 -0.4045
  198TIP3   OH2  599   3.678   1.755   1.582  0.2271  0.1498  0.0292
  198TIP3    H1  600   3.591   1.755   1.622  0.2938 -1.4824  0.2267
  198TIP3    H2  601   3.666   1.803   1.500 -1.1550 -1.0225 -0.4991
  199TIP3   OH2  602   3.239   0.491   0.950 -0.1355 -0.8421 -0.3950
  199TIP3    H1  603   3.286   0.454   0.875 -0.0831  0.2156 -0.8883
  199TIP3    H2  604   3.256   0.585   0.945 -2.8122 -0.3196 -0.9386
  200TIP3   OH2  605   5.541   1.096   0.891  0.4633 -0.1677 -0.0925
  200TIP3    H1  606   5.610   1.043   0.930 -0.4985 -1.3795  0.0509
  200TIP3    H2  607   5.583   1.179   0.870  1.8142 -0.6719  0.4829
  201TIP3   OH2  608   1.005   5.124   4.162  0.0269  0.1597  0.1545
  201TIP3    H1  609   0.963   5.053   4.211  0.5547  0.2678  0.7930
  201TIP3    H2  610   0.945   5.198   4.169  0.2693  0.2968  1.0093
  202TIP3   OH2  611   4.304   4.393   3.341 -0.6145 -0.0742  0.2786
  202TIP3    H1  612   4.300   4.314   3.286 -0.6259  0.6732 -0.8414
  202TIP3    H2  613   4.294   4.361   3.430 -1.1498 -1.2872 -0.1945
  203TIP3   OH2  614   2.268   5.922   1.069 -0.7569  0.1753  0.0396
  203TIP3    H1  615   2.230   5.916   1.157  2.9824 -3.0077  1.7682
  203TIP3    H2  616   2.323   6.001   1.073 -0.2272 -0.2174  0.7621
  204TIP3   OH2  617   1.080   1.858   2.770 -0.3483  0.0982 -0.2741
  204TIP3    H1  618   1.053   1.807   2.846 -1.9324  0.7441 -0.3637
  204TIP3    H2  619   1.093   1.947   2.804  3.1943 -0.3767  0.0542
  205TIP3   OH2  620   5.790   5.102   4.742 -0.3682  0.4104  0.6633
  205TIP3    H1  621   5.775   5.180   4.688 -3.3039 -0.5435 -0.0439
  205TIP3    H2  622   5.816   5.034   4.679 -3.3586 -0.5862  0.3788
  206TIP3   OH2  623   3.496   4.462   2.221 -0.2216  0.4376 -0.0775
  206TIP3    H1  624   3.454   4.534   2.269  1.1845  1.0211  0.3238
  206TIP3    H2  625   3.503   4.494   2.131  0.9089  1.0728  0.2115
  207TIP3   OH2  626   2.336   2.805   2.937  0.4234 -0.6339 -0.0415
  207TIP3    H1  627   2.345   2.858   2.857 -1.4515 -0.2153 -0.0261
  207TIP3    H2  628   2.272   2.738   2.913  0.1483 -0.7477  0.9952
  208TIP3   OH2  629   0.765   4.957   4.286 -0.6662 -0.5211 -0.6848
  208TIP3    H1  630   0.814   4.875   4.287  2.2626  1.0335 -2.6328
  208TIP3    H2  631   0.774   4.992   4.375  2.3082 -0.1366 -1.0201
  209TIP3   OH2  632   3.432   4.974   0.232  0.0448  0.0915  0.3761
  209TIP3    H1  633   3.373   5.003   0.162  1.6890 -3.1805 -2.6812
  209TIP3    H2  634   3.373   4.936   0.298 -1.5012 -0.9499 -1.4718
  210TIP3   OH2  635   1.921   5.269   3.790 -0.0939 -0.0955  0.1975
  210TIP3    H1  636   1.911   5.363   3.777 -0.1839 -0.2704 -1.0830
  210TIP3    H2  637   2.010   5.259   3.823  1.2744  0.1931 -3.0195
  211TIP3   OH2  638   4.609   1.724   4.590  0.5114 -0.5917 -0.1572
  211TIP3    H1  639   4.517   1.731   4.564  0.1538 -0.4910  1.0411
  211TIP3    H2  640   4.629   1.631   4.584 -0.0240 -0.7726  0.6467
  212TIP3   OH2  641   6.262   2.130   3.322 -0.7324  0.6655  0.0790
  212TIP3    H1  642   6.339   2.186   3.307 -1.4406  1.9892  1.1014
  212TIP3    H2  643   6.198   2.160   3.258 -0.8211  0.4158  0.0509
  213TIP3   OH2  644   4.822   4.742   3.196  0.2997  0.3278  0.3011
  213TIP3    H1  645   4.815   4.669   3.134  1.8185 -1.0513  1.6586
  213TIP3    H2  646   4.734   4.780   3.199 -1.3554 -3.2431  1.6406
  214TIP3   OH2  647   4.220   1.507   0.953 -0.0945 -0.0452 -0.5861
  214TIP3    H1  648   4.136   1.477   0.987  0.4831  0.0648  1.0166
  214TIP3    H2  649   4.272   1.427   0.942  0.3923  0.0599  0.7479
  215TIP3   OH2  650   6.015   4.317   2.552  0.1188  0.6405 -0.1917
  215TIP3    H1  651   5.943   4.313   2.490  1.6207  0.1982 -2.0160
  215TIP3    H2  652   6.023   4.409   2.574  1.1057  1.2581 -2.7217
  216TIP3   OH2  653   1.569   2.514   2.480 -0.3811  0.8247 -0.5610
  216TIP3    H1  654   1.514   2.533   2.556  0.8518 -0.4500  0.7065
  216TIP3    H2  655   1.598   2.600   2.449 -1.2794  1.3794  0.1267
  217TIP3   OH2  656   0.939   0.733   3.510 -0.1159 -0.0915  0.1202
  217TIP3    H1  657   0.863   0.788   3.528  0.4415  0.3707  1.1445
  217TIP3    H2  658   0.970   0.705   3.596  0.2311 -1.1703 -0.3358
  218TIP3   OH2  659   0.429   1.702   1.916 -1.0206 -0.0071 -0.9665
  218TIP3    H1  660   0.412   1.610   1.896  0.9298 -0.6190 -0.1165
  218TIP3    H2  661   0.501   1.726   1.857 -0.6178  0.5475 -0.2753
  219TIP3   OH2  662   1.490   1.943   4.026 -0.4597  0.6632  0.0551
  219TIP3    H1  663   1.437   1.867   4.000 -1.6339  1.7992 -1.0593
  219TIP3    H2  664   1.425   2.011   4.045  0.5217  1.0903  2.1841
  220TIP3   OH2  665   1.050   2.712   0.259 -0.2019 -0.2663  0.6689
  220TIP3    H1  666   1.107   2.787   0.276 -0.2758 -0.2263  0.7354
  220TIP3    H2  667   1.041   2.711   0.163 -0.2924 -0.1243  0.6761
  221TIP3   OH2  668   6.043   4.436   4.252 -0.5263  0.5742 -0.4507
  221TIP3    H1  669   5.971   4.499   4.253 -0.5204  0.5714  0.7573
  221TIP3    H2  670   6.109   4.472   4.312 -1.1369 -1.2415  1.4310
  222TIP3   OH2  671   5.181   1.963   5.154  0.1917 -0.2399 -0.2190
  222TIP3    H1  672   5.089   1.975   5.180  0.6934  0.0372  1.5563
  222TIP3    H2  673   5.198   2.034   5.093 -1.1477 -1.1226 -1.6897
  223TIP3   OH2  674   0.924   0.828   0.874 -0.0005 -0.1675 -0.3852
  223TIP3    H1  675   0.950   0.825   0.782  1.3459 -0.5462 -0.0237
  223TIP3    H2  676   0.998   0.869   0.919 -1.6472  2.3808  0.2400
  224TIP3   OH2  677   4.449   1.029   4.808 -0.1494  0.0939 -0.0780
  224TIP3    H1  678   4.417   0.975   4.880  1.5446  0.6469  1.1548
  224TIP3    H2  679   4.465   0.966   4.737 -1.5604 -0.5012  0.1012
  225TIP3   OH2  680   5.389   5.171   5.123  0.2162  0.8726 -0.6938
  225TIP3    H1  681   5.455   5.130   5.067  0.8165 -0.6093  1.0026
  225TIP3    H2  682   5.438   5.204   5.198 -0.6902  1.8959 -0.5224
  226TIP3   OH2  683   5.235   0.255   4.590  0.0657  0.0839 -0.2477
  226TIP3    H1  684   5.324   0.236   4.562  0.0149 -0.2068 -0.2181
  226TIP3    H2  685   5.226   0.350   4.581  0.5798  0.1952  0.3349
  227TIP3   OH2  686   3.326   1.930   2.905  0.0423 -0.2041 -0.1421
  227TIP3    H1  687   3.267   2.005   2.897  1.2788  0.7338 -0.7136
  227TIP3    H2  688   3.353   1.929   2.997  0.0234  0.0424 -0.1352
  228TIP3   OH2  689   4.433   3.832   1.928  0.2844 -0.0814  0.2985
  228TIP3    H1  690   4.406   3.740   1.935  1.9635 -0.7934 -1.6119
  228TIP3    H2  691   4.524   3.833   1.957  0.8901  0.5808 -1.4762
  229TIP3   OH2  692   1.625   4.953   0.559  0.4900 -0.5464 -0.1723
  229TIP3    H1  693   1.535   4.984   0.563  0.3342 -0.9169 -0.7005
  229TIP3    H2  694   1.675   5.017   0.610 -0.0118 -0.1328 -0.1931
  230TIP3   OH2  695   4.743   1.875   0.958 -0.0591 -0.4336 -0.1035
  230TIP3    H1  696   4.772   1.893   0.868  0.9093 -0.3273  0.2113
  230TIP3    H2  697   4.660   1.829   0.948  0.2919 -0.8887 -1.0725
  231TIP3   OH2  698   3.496   2.697   3.581  0.0761  0.7372 -0.8059
  231TIP3    H1  699   3.564   2.658   3.527  0.3527 -0.3147  0.2745
  231TIP3    H2  700   3.539   2.715   3.664 -1.3083 -1.4418  0.4722
  232TIP3   OH2  701   0.326   0.976   4.417  0.4913 -0.5676 -0.5009
  232TIP3    H1  702   0.272   0.994   4.340 -1.2305  1.4240  1.0533
  232TIP3    H2  703   0.404   1.031   4.405 -0.3924  0.7723 -0.2219
  233TIP3   OH2  704   5.309   4.807   4.844 -0.3272 -0.5752  0.0241
  233TIP3    H1  705   5.334   4.739   4.780  0.7242  0.2876 -0.5249
  233TIP3    H2  706   5.237   4.855   4.801  0.1799 -0.1840 -0.4068
  234TIP3   OH2  707   4.889   1.916   3.779  0.2516  0.3911  0.3007
  234TIP3    H1  708   4.856   1.875   3.859  0.8650  2.1333  1.5094
  234TIP3    H2  709   4.860   1.858   3.709 -0.4273 -1.1249  1.7596
  235TIP3   OH2  710   2.390   0.986   3.478 -0.4278 -0.2892 -0.4619
  235TIP3    H1  711   2.338   0.971   3.557  1.1134  1.3889  0.9432
  235TIP3    H2  712   2.324   1.003   3.410 -1.7747 -1.2115  0.5449
  236TIP3   OH2  713   6.112   1.997   4.606  0.4472 -0.1612  0.4100
  236TIP3    H1  714   6.053   1.984   4.532  0.9177  1.7369 -0.3549
  236TIP3    H2  715   6.187   1.941   4.587  1.3086  1.4960 -1.4672
  237TIP3   OH2  716   2.466   5.397   1.705 -0.2753 -0.2281  0.1823
  237TIP3    H1  717   2.437   5.484   1.680 -0.4453 -0.3233  0.0455
  237TIP3    H2  718   2.386   5.344   1.706 -0.0960 -0.5180 -0.3044
  238TIP3   OH2  719   2.760   1.281   2.458  0.1231 -0.5057  0.0996
  238TIP3    H1  720   2.755   1.304   2.366 -0.1336  0.3634  0.3188
  238TIP3    H2  721   2.825   1.211   2.462  2.4929  1.5153 -0.3854
  239TIP3   OH2  722   2.104   0.193   4.543 -0.3598 -0.0628 -0.2415
  239TIP3    H1  723   2.196   0.219   4.532 -0.9873  2.5800  0.1869
  239TIP3    H2  724   2.109   0.100   4.565  2.2598  0.1337  0.3786
  240TIP3   OH2  725   4.206   3.994   1.001 -0.2275  0.1606 -0.6463
  240TIP3    H1  726   4.186   3.937   1.076 -0.4868  1.4499  0.2890
  240TIP3    H2  727   4.126   4.044   0.986  0.3232  1.0239 -0.7781
  241TIP3   OH2  728   0.623   3.181   2.445  0.3758  0.3621  0.6962
  241TIP3    H1  729   0.673   3.166   2.365  1.0753 -1.3265  1.4187
  241TIP3    H2  730   0.686   3.173   2.516 -0.7337 -1.0653  1.5820
  242TIP3   OH2  731   0.734   4.168   1.631 -0.0386 -0.1078 -0.2367
  242TIP3    H1  732   0.732   4.079   1.595 -2.2217  0.2595 -1.1934
  242TIP3    H2  733   0.662   4.170   1.695 -0.3255  1.0825 -0.5630
  243TIP3   OH2  734   2.882   5.823   1.832 -0.1720 -0.3205 -0.3589
  243TIP3    H1  735   2.885   5.734   1.797 -1.2864 -0.2564 -0.6534
  243TIP3    H2  736   2.900   5.813   1.925  1.3066 -0.6616 -0.6589
  244TIP3   OH2  737   1.757   1.997   2.557 -0.4116  0.3036  0.8935
  244TIP3    H1  738   1.669   2.029   2.577 -0.5568  0.8390 -0.5370
  244TIP3    H2  739   1.814   2.046   2.616 -0.8208  1.9040  0.0277
  245TIP3   OH2  740   4.823   1.191   2.763  0.2250 -0.4033  0.4954
  245TIP3    H1  741   4.879   1.206   2.687 -1.5919  2.2599 -0.4501
  245TIP3    H2  742   4.737   1.172   2.726 -0.2955 -0.9362  1.9113
  246TIP3   OH2  743   0.449   4.344   3.962  0.1529  0.0330 -0.6349
  246TIP3    H1  744   0.371   4.304   3.923 -0.1540 -1.6876  1.5489
  246TIP3    H2  745   0.440   4.328   4.056  4.0960 -2.1053 -0.4089
  247TIP3   OH2  746   2.607   5.793   3.393  0.1450  0.3497  0.4215
  247TIP3    H1  747   2.682   5.762   3.342  0.5518 -0.6785  1.5906
  247TIP3    H2  748   2.550   5.716   3.400 -0.0668  0.5750  1.2167
  248TIP3   OH2  749   1.951   0.620   2.442 -0.1529 -0.2610 -0.4170
  248TIP3    H1  750   1.856   0.626   2.437 -0.1662 -0.2136 -0.1043
  248TIP3    H2  751   1.980   0.623   2.350 -0.4003  0.4991 -0.4754
  249TIP3   OH2  752   2.794   3.834   1.406  0.3709 -0.2522  0.3408
  249TIP3    H1  753   2.736   3.774   1.360  1.4825 -1.5967  0.6451
  249TIP3    H2  754   2.873   3.837   1.352  0.5325  0.5322  0.6057
  250TIP3   OH2  755   2.989   1.959   3.898  0.2368 -0.1394 -0.6660
  250TIP3    H1  756   2.952   1.979   3.812 -1.6931  0.4671  0.2369
  250TIP3    H2  757   2.981   2.041   3.946 -0.9696 -1.0738  0.8208
  251TIP3   OH2  758   1.945   2.795   1.752  0.5133  0.2956  0.5776
  251TIP3    H1  759   1.883   2.723   1.739 -0.3256  0.2812  3.7191
  251TIP3    H2  760   1.951   2.838   1.667 -0.8557 -2.0069 -0.7779
  252TIP3   OH2  761   0.272   3.436   2.961  0.1583 -0.1585  0.0848
  252TIP3    H1  762   0.321   3.452   2.880  0.4651  0.4829  0.3938
  252TIP3    H2  763   0.283   3.516   3.012  1.4264 -1.1983  1.5208
  253TIP3   OH2  764   1.279   2.233   5.122 -0.0026  0.7626  0.4730
  253TIP3    H1  765   1.311   2.145   5.107  1.1097  1.1013  0.7442
  253TIP3    H2  766   1.341   2.289   5.074 -0.8495  1.3781  0.0787
  254TIP3   OH2  767   5.544   4.486   1.615 -0.3049  0.0431  0.8449
  254TIP3    H1  768   5.477   4.499   1.547  1.4157  0.7458 -0.8155
  254TIP3    H2  769   5.579   4.399   1.598  1.2768  0.8512 -0.3249
  255TIP3   OH2  770   2.376   0.898   2.923 -0.2765  0.4018 -0.2840
  255TIP3    H1  771   2.288   0.860   2.914 -1.1443  1.3661  2.8220
  255TIP3    H2  772   2.363   0.972   2.982  2.3336  1.8945 -1.4457
  256TIP3   OH2  773   2.701   1.599   4.068  0.8226 -0.0216  0.7296
  256TIP3    H1  774   2.773   1.610   4.130  0.2207  0.9323  1.2765
  256TIP3    H2  775   2.624   1.585   4.123  0.8556 -3.2263  0.1546
  257TIP3   OH2  776   2.543   1.211   4.841  0.2049  0.1350  0.7651
  257TIP3    H1  777   2.617   1.231   4.898 -0.2668  1.9602  0.8160
  257TIP3    H2  778   2.549   1.276   4.771 -0.8877 -0.2082  0.3369
  258TIP3   OH2  779   5.839   2.922   0.420 -0.0452  0.4319 -0.1293
  258TIP3    H1  780   5.765   2.984   0.422  0.4555  1.0199  1.8301
  258TIP3    H2  781   5.911   2.973   0.381  0.6814  1.5454  2.4712
  259TIP3   OH2  782   2.104   3.002   5.131  0.1181  0.0877 -0.0803
  259TIP3    H1  783   2.119   3.096   5.117  1.3639 -0.2644 -1.3483
  259TIP3    H2  784   2.191   2.966   5.151 -0.2163 -0.9103 -0.3692
  260TIP3   OH2  785   3.225   1.766   3.472 -0.0129 -0.0491 -0.1536
  260TIP3    H1  786   3.266   1.680   3.464 -1.0271 -0.6434  0.6473
  260TIP3    H2  787   3.294   1.828   3.453  1.5568 -0.9757  2.0629
  261TIP3   OH2  788   3.399   1.062   1.434  0.5357  0.2504 -0.4955
  261TIP3    H1  789   3.346   1.106   1.367 -2.2268  3.8750  3.5857
  261TIP3    H2  790   3.368   0.972   1.433 -4.2586  1.6308  0.0266
  262TIP3   OH2  791   1.584   2.311   4.034  0.2498 -0.5364  0.1193
  262TIP3    H1  792   1.579   2.256   3.956  0.5595 -0.4825  0.0628
  262TIP3    H2  793   1.664   2.363   4.023 -0.5073  0.5964 -0.2805
  263TIP3   OH2  794   4.497   3.882   0.927 -0.3613 -0.0297 -0.3879
  263TIP3    H1  795   4.485   3.957   0.870  0.0375  1.3092  1.2115
  263TIP3    H2  796   4.504   3.919   1.015  0.1223 -1.9129  0.4279
  264TIP3   OH2  797   4.917   5.392   3.337  0.7043 -0.0557  0.0977
  264TIP3    H1  798   4.890   5.337   3.410  0.1177 -0.0822 -0.1296
  264TIP3    H2  799   4.852   5.463   3.335 -1.2764 -1.7500 -2.3515
  265TIP3   OH2  800   6.239   5.652   2.099 -0.3486 -0.3687 -0.3732
  265TIP3    H1  801   6.316   5.596   2.106 -0.7085 -1.0713 -1.8285
  265TIP3    H2  802   6.221   5.658   2.005 -0.6288  1.7769 -0.2347
  266TIP3   OH2  803   0.797   5.172   3.138  0.8065  0.4087  0.2036
  266TIP3    H1  804   0.792   5.266   3.157  0.7118  0.7652 -1.4796
  266TIP3    H2  805   0.739   5.159   3.063  1.8553 -0.7618 -0.4397
  267TIP3   OH2  806   5.674   1.329   0.823 -0.1875  0.1078 -0.3907
  267TIP3    H1  807   5.622   1.383   0.763 -2.4071 -1.5799 -0.1115
  267TIP3    H2  808   5.721   1.393   0.877  0.0390  1.6835 -2.3171
  268TIP3   OH2  809   3.272   3.662   2.135  0.0048  0.1380  0.5472
  268TIP3    H1  810   3.259   3.724   2.206  2.8096 -1.3803  2.5764
  268TIP3    H2  811   3.357   3.685   2.098 -0.1331 -0.8576 -0.4445
  269TIP3   OH2  812   2.090   2.770   4.627  0.3701  0.1863 -0.5176
  269TIP3    H1  813   2.161   2.786   4.690  0.3656  1.6369 -0.8335
  269TIP3    H2  814   2.057   2.683   4.649  0.3902  0.6241  1.4981
  270TIP3   OH2  815   2.614   4.528   1.889  0.1985 -0.2889 -0.0035
  270TIP3    H1  816   2.571   4.469   1.951 -0.8512 -0.6355 -1.0184
  270TIP3    H2  817   2.567   4.513   1.806  0.6295  1.1924 -0.5371
  271TIP3   OH2  818   5.395   0.163   1.692 -0.4541  0.6051 -0.3137
  271TIP3    H1  819   5.457   0.222   1.734  2.1135 -1.8415 -0.3767
  271TIP3    H2  820   5.361   0.109   1.764  0.5526 -0.6453 -0.7350
  272TIP3   OH2  821   1.773   3.883   4.770  0.0576 -0.0102 -0.2500
  272TIP3    H1  822   1.744   3.939   4.698  0.5120  0.8477  0.2259
  272TIP3    H2  823   1.699   3.825   4.787 -0.7724  1.0654 -0.1279
  273TIP3   OH2  824   0.362   2.961   1.365 -0.2937  0.0010  0.3047
  273TIP3    H1  825   0.391   2.912   1.288 -0.0925  0.8028 -0.1376
  273TIP3    H2  826   0.268   2.943   1.371 -0.4496  0.4778 -0.5417
  274TIP3   OH2  827   0.728   4.745   1.394 -0.1821  0.0164  0.2965
  274TIP3    H1  828   0.753   4.671   1.338  0.9646  0.0247  0.7710
  274TIP3    H2  829   0.811   4.775   1.432 -0.8332  0.5801  1.3020
  275TIP3   OH2  830   1.939   5.114   2.546 -0.3507 -0.0426 -0.5431
  275TIP3    H1  831   1.882   5.182   2.581  0.9531  2.9196 -3.5299
  275TIP3    H2  832   1.902   5.094   2.460  1.3162 -0.3175 -1.2397
  276TIP3   OH2  833   5.060   1.077   1.814 -0.2836 -0.4215  0.2817
  276TIP3    H1  834   5.052   0.984   1.833 -1.1981 -0.3278  0.4207
  276TIP3    H2  835   5.070   1.081   1.718  1.2263 -0.7271  0.4080
  277TIP3   OH2  836   4.653   4.802   2.097 -0.3929  0.2772 -0.4263
  277TIP3    H1  837   4.635   4.714   2.130  1.5009  0.6768  1.9321
  277TIP3    H2  838   4.570   4.849   2.108 -1.1518 -0.9514 -0.8090
  278TIP3   OH2  839   1.449   2.571   3.267  0.1682 -0.0756  0.0053
  278TIP3    H1  840   1.500   2.492   3.284  0.1321 -0.6001 -2.0585
  278TIP3    H2  841   1.486   2.607   3.186 -1.6543  0.4220 -0.6709
  279TIP3   OH2  842   2.776   0.935   5.068 -0.0479  0.4792  0.3871
  279TIP3    H1  843   2.851   0.888   5.105 -0.4123  1.2277  2.1715
  279TIP3    H2  844   2.705   0.872   5.068  0.6292 -0.3876 -1.7621
  280TIP3   OH2  845   0.843   0.875   2.242  0.0887 -0.5527 -0.2278
  280TIP3    H1  846   0.767   0.817   2.249 -0.2896  0.0236  0.5160
  280TIP3    H2  847   0.827   0.944   2.306  0.4494  0.4767 -1.2111
  281TIP3   OH2  848   5.042   4.845   0.701  0.2665 -0.3773 -0.2148
  281TIP3    H1  849   4.961   4.894   0.685  0.9111  1.1561  0.9804
  281TIP3    H2  850   5.011   4.762   0.739 -0.7562  0.8820  1.9200
  282TIP3   OH2  851   5.864   2.181   3.324 -0.5975 -0.2628 -0.1305
  282TIP3    H1  852   5.928   2.168   3.254 -0.0833 -0.3750  0.3457
  282TIP3    H2  853   5.779   2.176   3.281 -0.3967 -3.0364 -0.3733
  283TIP3   OH2  854   0.797   5.713   1.403 -0.3777 -0.0459  0.3843
  283TIP3    H1  855   0.765   5.691   1.315  1.1781  0.4880 -0.3616
  283TIP3    H2  856   0.776   5.805   1.414 -0.6636 -0.1390  0.6116
  284TIP3   OH2  857   5.202   0.441   2.987  0.8238 -0.2980 -0.2191
  284TIP3    H1  858   5.113   0.415   2.963 -0.2438  2.1180  0.8327
  284TIP3    H2  859   5.257   0.403   2.919 -1.2244 -0.0979 -2.0844
  285TIP3   OH2  860   1.838   2.073   1.656 -0.2680  0.5726 -0.1569
  285TIP3    H1  861   1.898   1.999   1.642 -1.5699 -0.3130 -1.2624
  285TIP3    H2  862   1.808   2.061   1.747  0.0235  0.1057 -0.1151
  286TIP3   OH2  863   2.357   4.240   0.771  0.6372  0.2485  0.1499
  286TIP3    H1  864   2.301   4.260   0.846 -0.3796  1.0467 -0.7957
  286TIP3    H2  865   2.420   4.312   0.768  0.4757  0.3863  0.0490
  287TIP3   OH2  866   0.421   0.460   4.398  0.4880  0.6760 -0.0668
  287TIP3    H1  867   0.490   0.454   4.331  1.9514  1.2345  1.3308
  287TIP3    H2  868   0.384   0.548   4.386  1.1416  0.9935  0.2302
  288TIP3   OH2  869   0.782   5.689   0.558  0.4146  1.2144 -0.1209
  288TIP3    H1  870   0.700   5.722   0.521 -0.8644 -0.8239  0.7324
  288TIP3    H2  871   0.780   5.717   0.649  0.2437  0.4880  0.1085
  289TIP3   OH2  872   0.508   0.013   3.799 -0.4006  0.4147  0.1679
  289TIP3    H1  873   0.543   0.018   3.888 -1.5709  1.9190  0.5732
  289TIP3    H2  874   0.441   0.080   3.795 -0.0920  0.6854 -1.9961
  290TIP3   OH2  875   1.642   4.338   1.594 -0.5116  0.3320 -0.3350
  290TIP3    H1  876   1.703   4.312   1.524 -1.2271 -0.2669 -0.7565
  290TIP3    H2  877   1.604   4.420   1.563  0.6840  1.1586  0.3220
  291TIP3   OH2  878   0.729   1.962   1.543 -0.4661  0.0194 -0.2541
  291TIP3    H1  879   0.653   1.948   1.487 -0.7055 -1.4418  0.3905
  291TIP3    H2  880   0.801   1.978   1.482 -1.3542  2.0185 -0.8566
  292TIP3   OH2  881   3.122   0.523   3.323  0.1037  0.0769  0.2512
  292TIP3    H1  882   3.209   0.504   3.288 -0.9777 -1.5118 -1.8273
  292TIP3    H2  883   3.131   0.511   3.417  2.0411 -0.4726  0.0405
  293TIP3   OH2  884   2.497   2.798   0.517  0.3086 -0.2350  0.2251
  293TIP3    H1  885   2.480   2.786   0.424 -1.4446 -0.2956  0.5254
  293TIP3    H2  886   2.463   2.718   0.558  1.8026 -0.5794  0.8550
  294TIP3   OH2  887   3.733   0.223   3.552 -0.0086  0.7125 -0.1158
  294TIP3    H1  888   3.682   0.166   3.494 -1.5101  1.7498  0.1231
  294TIP3    H2  889   3.818   0.230   3.511 -0.0288 -1.0861 -0.5411
  295TIP3   OH2  890   2.349   4.249   4.028  0.4467  0.8114 -0.0013
  295TIP3    H1  891   2.383   4.310   3.962  0.7875  1.2520  0.5657
  295TIP3    H2  892   2.313   4.176   3.977 -0.3700  1.6779 -0.7225
  296TIP3   OH2  893   4.115   3.133   2.091 -0.2454 -0.1660  0.1035
  296TIP3    H1  894   4.019   3.136   2.094 -0.4322 -1.4156 -2.3008
  296TIP3    H2  895   4.138   3.045   2.121 -0.1238 -1.0031 -2.2541
  297TIP3   OH2  896   0.169   4.884   2.979  0.0840 -0.2166 -0.3809
  297TIP3    H1  897   0.126   4.815   3.029 -0.4364 -0.8317 -1.6561
  297TIP3    H2  898   0.261   4.877   3.003  0.0379 -1.3627 -0.5119
  298TIP3   OH2  899   3.982   2.764   0.091  0.1859 -1.0518  0.0457
  298TIP3    H1  900   3.959   2.671   0.099 -2.3343 -0.8804 -3.0256
  298TIP3    H2  901   4.041   2.767   0.015  0.3862 -0.1571  0.2316
  299TIP3   OH2  902   4.574   2.420   3.389  0.0462  0.1069 -0.1051
  299TIP3    H1  903   4.599   2.393   3.477 -0.8966 -0.6948 -0.0654
  299TIP3    H2  904   4.657   2.442   3.346  0.3900  2.2081  1.5067
  300TIP3   OH2  905   1.093   4.527   0.675  0.3821 -0.5560 -0.0465
  300TIP3    H1  906   1.032   4.561   0.610  2.0353 -0.7917 -1.8046
  300TIP3    H2  907   1.114   4.602   0.730 -2.9650 -0.8730  1.9915
  301TIP3   OH2  908   3.331   1.450   2.213 -0.0083 -0.2310 -0.3021
  301TIP3    H1  909   3.405   1.510   2.200 -0.8606  0.3784 -3.0294
  301TIP3    H2  910   3.292   1.479   2.295  1.3505  1.0267 -0.0448
  302TIP3   OH2  911   5.580   3.506   2.047  0.4964  0.0904  0.3206
  302TIP3    H1  912   5.522   3.565   2.000  2.2595  2.3983  0.8560
  302TIP3    H2  913   5.534   3.486   2.129 -0.1517  0.6686  0.1044
  303TIP3   OH2  914   5.221   2.256   0.150 -0.3168  0.0735  0.1485
  303TIP3    H1  915   5.196   2.164   0.145 -1.3348  0.3065  0.6452
  303TIP3    H2  916   5.216   2.288   0.060  1.7573 -0.7622 -0.3096
  304TIP3   OH2  917   3.048   2.026   0.274 -0.3085  0.3059  0.7184
  304TIP3    H1  918   3.070   1.972   0.198  0.4176  0.5818  0.7255
  304TIP3    H2  919   3.115   2.005   0.338 -0.4921  0.6234  1.0151
  305TIP3   OH2  920   2.367   2.595   5.033 -0.0834  0.2751  0.8505
  305TIP3    H1  921   2.406   2.507   5.025 -0.3019  0.3291 -1.3487
  305TIP3    H2  922   2.295   2.595   4.970 -0.2101  1.9731  0.9606
  306TIP3   OH2  923   2.899   5.814   5.132 -0.5025 -0.3309  0.5339
  306TIP3    H1  924   2.848   5.858   5.200 -1.7916 -1.3313  0.2659
  306TIP3    H2  925   2.990   5.835   5.152 -0.8949 -0.0529  2.1623
  307TIP3   OH2  926   0.398   4.150   1.705  0.4904  0.1120  0.3097
  307TIP3    H1  927   0.436   4.082   1.759  0.1828  0.7463  1.3588
  307TIP3    H2  928   0.326   4.186   1.758 -0.4760  0.0750 -0.9275
  308TIP3   OH2  929   2.246   4.658   0.276  0.1194  0.9215 -0.0747
  308TIP3    H1  930   2.223   4.701   0.194  0.6167  1.0245 -0.1645
  308TIP3    H2  931   2.170   4.603   0.297 -0.5955  1.9748  0.1407
  309TIP3   OH2  932   2.796   3.948   1.063  0.0222  0.4131 -0.9622
  309TIP3    H1  933   2.826   3.888   0.995 -1.3458 -0.8539 -0.5052
  309TIP3    H2  934   2.851   4.026   1.053  1.0929 -0.4748 -2.2961
  310TIP3   OH2  935   0.240   3.406   0.553 -0.0642 -0.1376 -0.0486
  310TIP3    H1  936   0.281   3.357   0.624 -0.6358  1.0424  1.1337
  310TIP3    H2  937   0.297   3.391   0.478  2.2582  0.9272  1.3734
  311TIP3   OH2  938   2.339   0.434   0.550  0.0941 -0.0422  0.4814
  311TIP3    H1  939   2.353   0.344   0.521  3.7553  0.0299  1.5660
  311TIP3    H2  940   2.401   0.446   0.621 -0.5763  3.2399  0.6462
  312TIP3   OH2  941   4.752   1.804   4.820  0.4816  0.3398  0.1733
  312TIP3    H1  942   4.689   1.792   4.749  1.4069 -1.6505 -0.3739
  312TIP3    H2  943   4.760   1.718   4.860  2.1693  0.7710  0.8320
  313TIP3   OH2  944   6.135   3.527   0.433 -0.7111 -0.1200  0.4335
  313TIP3    H1  945   6.074   3.597   0.456 -0.8825 -0.1859  0.1835
  313TIP3    H2  946   6.185   3.510   0.513 -0.0488  0.9020  0.2525
  314TIP3   OH2  947   2.389   4.956   3.018  0.0039  0.3446 -0.0953
  314TIP3    H1  948   2.299   4.940   2.989 -0.3612 -2.1642  2.0707
  314TIP3    H2  949   2.440   4.962   2.938 -1.5809 -1.7034 -1.3385
  315TIP3   OH2  950   3.930   3.422   0.540 -0.3496  0.2810  0.4800
  315TIP3    H1  951   3.994   3.358   0.570 -0.9453 -0.5025  0.1427
  315TIP3    H2  952   3.939   3.496   0.601 -0.1345 -0.4167  1.3220
  316TIP3   OH2  953   5.589   4.157   5.068 -0.5539  0.2692  0.0622
  316TIP3    H1  954   5.644   4.084   5.039 -0.7977  0.7003 -1.5647
  316TIP3    H2  955   5.592   4.152   5.163  1.1870 -0.5545  0.0095
  317TIP3   OH2  956   5.246   2.647   4.174  0.1458 -0.3618 -0.3588
  317TIP3    H1  957   5.261   2.578   4.109  1.4274 -0.4668  0.0082
  317TIP3    H2  958   5.261   2.729   4.126 -0.7867 -0.3492 -0.6474
  318TIP3   OH2  959   2.214   5.226   0.018  0.4286  0.7934 -0.5361
  318TIP3    H1  960   2.172   5.298  -0.029 -1.2555  1.6901  2.1588
  318TIP3    H2  961   2.144   5.161   0.029  1.3474 -0.3051 -0.9941
  319TIP3   OH2  962   3.992   4.582   5.009  0.1411  0.0162 -0.2506
  319TIP3    H1  963   4.003   4.515   4.942 -0.5930  0.7929 -1.1933
  319TIP3    H2  964   4.057   4.561   5.075 -0.4919 -1.9800 -0.1944
  320TIP3   OH2  965   3.582   3.352   3.892 -0.2999  0.0198 -0.0812
  320TIP3    H1  966   3.618   3.435   3.922 -0.0679  0.6627 -2.0400
  320TIP3    H2  967   3.655   3.307   3.850 -1.0779  0.1655 -1.6825
  321TIP3   OH2  968   3.389   3.401   3.586  0.3440  0.1648  0.6081
  321TIP3    H1  969   3.404   3.478   3.641  0.6356  0.1137  0.6021
  321TIP3    H2  970   3.360   3.334   3.648  2.1199 -0.3403  0.9556
  322TIP3   OH2  971   6.228   5.244   1.649 -0.5520  0.1955 -0.0164
  322TIP3    H1  972   6.270   5.166   1.615  0.8733  1.6027 -1.6614
  322TIP3    H2  973   6.160   5.265   1.585  0.5438  1.5004 -0.8142
  323TIP3   OH2  974   3.027   0.316   1.039  0.3381 -0.3103 -0.2113
  323TIP3    H1  975   3.053   0.314   1.131  1.6008  0.3342 -0.5314
  323TIP3    H2  976   3.099   0.360   0.995  0.5150 -2.0157 -1.7631
  324TIP3   OH2  977   4.341   2.330   4.262 -0.1626  0.5619  0.5101
  324TIP3    H1  978   4.330   2.393   4.191 -0.0254 -0.0890 -0.1063
  324TIP3    H2  979   4.302   2.249   4.227  1.9206 -0.4044  0.2701
  325TIP3   OH2  980   5.560   0.678   1.890 -0.0173  0.0811  0.1177
  325TIP3    H1  981   5.609   0.633   1.821 -1.7471 -0.2230 -0.9989
  325TIP3    H2  982   5.593   0.641   1.972  0.3997 -1.3828 -0.6694
  326TIP3   OH2  983   2.576   3.883   1.770  0.0460  0.4673 -0.3335
  326TIP3    H1  984   2.574   3.967   1.723 -0.2284  0.6799  0.0543
  326TIP3    H2  985   2.507   3.890   1.835  0.6531  0.3150  0.3403
  327TIP3   OH2  986   5.535   0.530   4.144  0.0107  0.2511  0.0837
  327TIP3    H1  987   5.627   0.550   4.127  0.2151 -0.6371  0.0813
  327TIP3    H2  988   5.487   0.587   4.085  0.5544  0.8338  0.1875
  328TIP3   OH2  989   5.602   1.809   3.520  0.0917  0.2519  0.1110
  328TIP3    H1  990   5.622   1.845   3.607 -0.8299  0.0267  0.4302
  328TIP3    H2  991   5.687   1.784   3.484  0.4508 -0.0351  1.1217
  329TIP3   OH2  992   3.005   0.881   1.379  0.4267  0.0735 -0.3258
  329TIP3    H1  993   3.045   0.795   1.387 -0.1365 -0.0618  1.7872
  329TIP3    H2  994   3.010   0.918   1.468 -1.4162  1.2430 -0.6371
  330TIP3   OH2  995   2.527   3.752   2.214 -0.0482  0.3678  0.1213
  330TIP3    H1  996   2.579   3.832   2.219  0.9076 -0.2148 -0.2484
  330TIP3    H2  997   2.537   3.711   2.299 -1.4602  1.1777  0.7094
  331TIP3   OH2  998   1.587   2.082   2.202  0.2538 -0.3859  0.4260
  331TIP3    H1  999   1.529   2.011   2.231 -0.8397  0.2348 -0.1911
  331TIP3    H2 1000   1.552   2.160   2.245 -0.2638  0.2372 -1.0849
  332TIP3   OH2 1001   5.545   5.262   2.775 -0.0968 -0.2490 -0.3430
  332TIP3    H1 1002   5.616   5.200   2.755  2.0708  1.7940  0.5274
  332TIP3    H2 1003   5.518   5.239   2.864  0.0978 -0.4740 -0.3394
  333TIP3   OH2 1004   4.156   4.881   3.029  0.4499  0.2451  0.1219
  333TIP3    H1 1005   4.089   4.830   2.984 -0.0138 -0.5708  1.6604
  333TIP3    H2 1006   4.234   4.826   3.026  0.8389  0.8329 -0.9411
  334TIP3   OH2 1007   5.536   1.167   4.781 -0.0212 -0.1205  0.2735
  334TIP3    H1 1008   5.524   1.080   4.743  0.7999  0.1627 -0.6633
  334TIP3    H2 1009   5.556   1.223   4.707 -2.4048  1.2742  0.6165
  335TIP3   OH2 1010   4.796   5.910   2.956  0.1861 -0.3830  0.2078
  335TIP3    H1 1011   4.783   5.888   3.048  0.4276 -1.0512  0.0868
  335TIP3    H2 1012   4.864   5.849   2.926 -0.0884 -0.3609 -0.4865
  336TIP3   OH2 1013   1.433   0.484   2.908  0.0961  0.7998 -0.1640
  336TIP3    H1 1014   1.343   0.502   2.881  0.0457 -1.6572 -1.9245
  336TIP3    H2 1015   1.487   0.531   2.844 -0.0363 -1.7710 -2.3360
  337TIP3   OH2 1016   1.400   4.937   3.578  0.0996  0.0846 -0.1799
  337TIP3    H1 1017   1.313   4.923   3.615 -0.5844 -0.6502 -1.9556
  337TIP3    H2 1018   1.433   5.015   3.622 -1.1540 -0.0385  1.0345
  338TIP3   OH2 1019   2.634   0.210   0.355  0.7100  0.0950 -0.1135
  338TIP3    H1 1020   2.564   0.151   0.382 -0.6625  1.2404 -0.9992
  338TIP3    H2 1021   2.657   0.181   0.267 -0.5676  1.3449 -0.8950
  339TIP3   OH2 1022   6.283   0.323   1.520  0.1116  0.1265 -1.0040
  339TIP3    H1 1023   6.277   0.389   1.590  1.1881  0.8616 -1.5794
  339TIP3    H2 1024   6.377   0.314   1.504 -0.0799 -0.8090 -1.6476
  340TIP3   OH2 1025   0.966   3.163   3.150 -0.3144 -0.1301  0.0939
  340TIP3    H1 1026   0.901   3.226   3.119  1.5848  1.1028 -1.6336
  340TIP3    H2 1027   0.967   3.094   3.083  0.3913  0.0257 -0.0567
  341TIP3   OH2 1028   0.628   0.483   3.257  0.2143  0.1516  0.0232
  341TIP3    H1 1029   0.654   0.422   3.187  0.3939  1.3728 -1.0095
  341TIP3    H2 1030   0.556   0.533   3.219 -0.6692 -0.1229  1.2518
  342TIP3   OH2 1031   0.365   5.852   2.022  0.0862 -0.4588 -0.3611
  342TIP3    H1 1032   0.283   5.872   2.068  0.8767 -1.0404  1.3786
  342TIP3    H2 1033   0.395   5.770   2.061  2.1960  0.4514  0.0582
  343TIP3   OH2 1034   0.881   1.371   3.529 -0.2643  0.0602 -0.3330
  343TIP3    H1 1035   0.884   1.342   3.437 -0.0305 -1.1214  0.0305
  343TIP3    H2 1036   0.912   1.295   3.579  0.1582  0.8797  0.6882
  344TIP3   OH2 1037   0.099   2.870   1.259 -0.5703 -0.4896  0.1446
  344TIP3    H1 1038   0.123   2.780   1.237  0.7015 -0.1698  0.1720
  344TIP3    H2 1039   0.066   2.907   1.177  0.9154 -0.3419 -0.4075
  345TIP3   OH2 1040   4.953   5.489   4.250 -0.0618 -0.0146  0.1575
  345TIP3    H1 1041   4.989   5.416   4.300  1.8454  0.1947 -0.8117
  345TIP3    H2 1042   4.886   5.527   4.307  0.8090 -0.8510  1.7953
  346TIP3   OH2 1043   6.337   1.097   0.775 -1.2700  0.6435 -0.0433
  346TIP3    H1 1044   6.382   1.173   0.737 -2.1645  0.1195 -2.3333
  346TIP3    H2 1045   6.307   1.127   0.860  1.3069  1.7550  0.5600
  347TIP3   OH2 1046   3.735   4.388   3.988 -0.0752  0.1047 -0.0624
  347TIP3    H1 1047   3.779   4.398   3.904  2.0009 -0.3986  0.8972
  347TIP3    H2 1048   3.704   4.297   3.988  0.6897 -0.1639  0.0419
  348TIP3   OH2 1049   1.066   0.668   2.152 -0.4700  0.1545 -0.1958
  348TIP3    H1 1050   0.990   0.724   2.133 -1.9474 -1.3220  1.1113
  348TIP3    H2 1051   1.105   0.651   2.066 -2.5460 -0.3124 -1.0918
  349TIP3   OH2 1052   3.461   0.566   1.404  0.0456  0.4812 -0.4023
  349TIP3    H1 1053   3.494   0.510   1.474 -2.0722  1.1865  1.2888
  349TIP3    H2 1054   3.408   0.508   1.349  0.4647  0.2165 -0.5276
  350TIP3   OH2 1055   4.852   4.828   1.138 -0.2793 -0.3926  0.3493
  350TIP3    H1 1056   4.890   4.866   1.059 -1.9692  0.6568 -0.0053
  350TIP3    H2 1057   4.862   4.896   1.205 -0.0895 -0.7401  0.6783
  351TIP3   OH2 1058   5.356   5.600   4.203 -0.2960  0.2189 -0.1661
  351TIP3    H1 1059   5.403   5.629   4.125  1.6855  0.3026  0.9944
  351TIP3    H2 1060   5.273   5.647   4.200  0.0214  0.7175 -1.8742
  352TIP3   OH2 1061   3.284   2.696   0.207  0.2387 -0.5136  0.0108
  352TIP3    H1 1062   3.206   2.654   0.242 -0.0447 -0.2280 -0.2787
  352TIP3    H2 1063   3.258   2.727   0.120 -0.0507  1.7025  0.8227
  353TIP3   OH2 1064   0.187   4.963   1.651  0.5888  0.6737  0.2009
  353TIP3    H1 1065   0.182   4.969   1.746  0.1345 -1.0361  0.3204
  353TIP3    H2 1066   0.271   5.004   1.629  0.6519  1.1846  1.3116
  354TIP3   OH2 1067   4.404   0.536   2.295  0.0155  0.3915 -0.1850
  354TIP3    H1 1068   4.466   0.519   2.224  0.1826 -0.4444  0.1410
  354TIP3    H2 1069   4.321   0.498   2.265  0.2736 -0.6543  0.3576
  355TIP3   OH2 1070   5.773   5.108   2.911  0.0121 -0.4403 -0.2087
  355TIP3    H1 1071   5.819   5.050   2.972 -0.7781 -0.8293  0.0311
  355TIP3    H2 1072   5.763   5.190   2.958 -0.9885 -0.8778  0.3772
  356TIP3   OH2 1073   4.044   4.044   1.960 -0.2333 -0.5379  0.0878
  356TIP3    H1 1074   3.956   4.060   1.927 -0.7763 -0.3562  1.5552
  356TIP3    H2 1075   4.084   4.131   1.963  0.0235 -0.6239 -0.6073
  357TIP3   OH2 1076   5.808   3.914   4.195  0.6587 -0.0943 -0.0144
  357TIP3    H1 1077   5.842   3.861   4.123  0.8825 -0.0139  0.0308
  357TIP3    H2 1078   5.795   4.001   4.156  1.2656  0.0843  0.1661
  358TIP3   OH2 1079   4.263   2.107   0.307 -0.7195 -0.0560 -1.0796
  358TIP3    H1 1080   4.176   2.068   0.316 -0.4054 -0.7578 -1.0615
  358TIP3    H2 1081   4.323   2.035   0.321 -0.0123  1.0858  3.1719
  359TIP3   OH2 1082   5.288   5.919   4.048 -0.1001  0.1979  0.0957
  359TIP3    H1 1083   5.382   5.905   4.058 -0.0856  0.2533  0.0356
  359TIP3    H2 1084   5.248   5.849   4.099 -0.0309  0.6384  0.7626
  360TIP3   OH2 1085   4.388   2.387   0.890 -0.2605 -0.1267  0.2721
  360TIP3    H1 1086   4.433   2.304   0.905  1.1355  0.7694  1.3106
  360TIP3    H2 1087   4.295   2.365   0.888  0.1226 -1.8090 -0.2793
  361TIP3   OH2 1088   0.402   0.583   3.931 -0.4857  0.3241 -0.0712
  361TIP3    H1 1089   0.428   0.651   3.868  0.9961 -0.1803 -0.0380
  361TIP3    H2 1090   0.448   0.505   3.903  2.0098  0.5602  2.7952
  362TIP3   OH2 1091   5.279   2.447   4.724 -0.1794 -0.2410 -0.0690
  362TIP3    H1 1092   5.335   2.430   4.800 -0.2230  2.5333  0.6807
  362TIP3    H2 1093   5.198   2.484   4.761 -0.5156  0.4412 -1.4103
  363TIP3   OH2 1094   3.306   0.420   1.857  0.3402 -0.5554  0.0042
  363TIP3    H1 1095   3.394   0.391   1.830 -0.0905 -0.5932 -1.4784
  363TIP3    H2 1096   3.307   0.515   1.842 -0.3596 -0.7683 -1.6048
  364TIP3   OH2 1097   4.050   2.414   3.995  0.2873  0.2091 -0.2548
  364TIP3    H1 1098   4.142   2.439   3.989  0.3566 -0.3794 -2.0811
  364TIP3    H2 1099   4.002   2.490   3.962  0.2197 -0.1395 -0.9675
  365TIP3   OH2 1100   5.521   2.725   1.833 -0.0289 -0.3456  0.5925
  365TIP3    H1 1101   5.532   2.759   1.921  0.9773  0.3729  0.2057
  365TIP3    H2 1102   5.549   2.634   1.838 -2.3921 -1.1032  1.5535
  366TIP3   OH2 1103   4.031   1.321   1.025 -0.5601 -0.3146  0.2411
  366TIP3    H1 1104   3.988   1.237   1.046  0.2406 -0.0064  3.6379
  366TIP3    H2 1105   3.979   1.386   1.072  2.5552  0.2252  3.3486
  367TIP3   OH2 1106   2.981   1.337   5.021 -0.4577 -0.0236 -0.2942
  367TIP3    H1 1107   3.025   1.274   5.078 -0.9348  0.8734  1.1246
  367TIP3    H2 1108   2.896   1.298   5.004 -0.8736  0.3584  0.8431
  368TIP3   OH2 1109   5.189   4.929   2.165  0.0443 -0.8368  0.0691
  368TIP3    H1 1110   5.135   5.004   2.189  1.4785  0.0607  0.6101
  368TIP3    H2 1111   5.166   4.861   2.228 -1.6033 -1.0451 -0.7092
  369TIP3   OH2 1112   4.575   5.465   0.411  0.2348 -0.6781  0.3394
  369TIP3    H1 1113   4.507   5.523   0.378  1.2507  0.6555  0.5048
  369TIP3    H2 1114   4.656   5.499   0.374  0.7027 -3.2944 -1.3140
  370TIP3   OH2 1115   5.231   2.882   1.286 -0.3557 -0.0041 -0.2740
  370TIP3    H1 1116   5.290   2.807   1.280  1.4182  1.3144 -0.1304
  370TIP3    H2 1117   5.172   2.860   1.358 -0.4951 -1.6651 -0.8660
  371TIP3   OH2 1118   1.456   1.816   2.216  0.1583 -0.4643  0.4287
  371TIP3    H1 1119   1.468   1.788   2.125  0.5752 -0.3614  0.4518
  371TIP3    H2 1120   1.491   1.744   2.268  1.2270  0.0892  0.4888
  372TIP3   OH2 1121   4.731   3.468   4.878 -0.0395  0.0449 -0.1594
  372TIP3    H1 1122   4.655   3.503   4.925  1.2794  1.6304  0.9284
  372TIP3    H2 1123   4.696   3.439   4.794 -1.6965  1.6391 -0.0918
  373TIP3   OH2 1124   4.255   2.763   3.742  0.2926 -0.2596  0.3640
  373TIP3    H1 1125   4.309   2.831   3.702  1.7481 -1.5444  0.0349
  373TIP3    H2 1126   4.316   2.689   3.755 -1.1794 -1.4305  0.8511
  374TIP3   OH2 1127   1.894   3.335   0.986  0.5468 -0.5906  0.2110
  374TIP3    H1 1128   1.912   3.429   0.991 -0.3301 -0.3832 -0.2798
  374TIP3    H2 1129   1.800   3.330   0.969  0.0454 -1.5973  2.8377
  375TIP3   OH2 1130   5.128   2.318   4.524  0.1390  0.3083 -0.0343
  375TIP3    H1 1131   5.193   2.356   4.583 -1.2354 -0.6846  2.2947
  375TIP3    H2 1132   5.155   2.227   4.515  1.3423  0.8323 -2.5443
  376TIP3   OH2 1133   2.223   4.501   4.793  0.3298 -0.1005 -0.0057
  376TIP3    H1 1134   2.227   4.433   4.726 -0.2212  1.3437 -1.5837
  376TIP3    H2 1135   2.312   4.536   4.797  0.5443 -0.6829  0.6003
  377TIP3   OH2 1136   5.798   3.857   3.549 -0.1612  0.3422 -0.0294
  377TIP3    H1 1137   5.806   3.946   3.583 -1.9541  0.2398  0.7608
  377TIP3    H2 1138   5.709   3.852   3.513  0.9149 -0.2184 -2.9097
  378TIP3   OH2 1139   4.842   0.853   0.185  0.4161 -0.3652  0.2405
  378TIP3    H1 1140   4.858   0.813   0.100  0.1105 -1.2000  0.5706
  378TIP3    H2 1141   4.871   0.788   0.249  0.9379  0.3791  0.7772
  379TIP3   OH2 1142   4.513   1.251   4.696  0.4135 -0.2929 -0.3615
  379TIP3    H1 1143   4.481   1.179   4.750 -0.1266  1.0407  1.2102
  379TIP3    H2 1144   4.485   1.230   4.607 -1.4779 -1.0699  0.3605
  380TIP3   OH2 1145   1.617   3.964   0.461 -0.8010  0.1945  0.1486
  380TIP3    H1 1146   1.590   3.903   0.392  1.1974  0.4992 -0.9880
  380TIP3    H2 1147   1.664   3.909   0.524 -0.0604  0.3430 -0.2597
  381TIP3   OH2 1148   6.284   5.179   5.143 -1.3254 -0.1220  0.5050
  381TIP3    H1 1149   6.324   5.100   5.179  1.9984  0.8792 -0.6062
  381TIP3    H2 1150   6.199   5.150   5.110 -1.9641 -2.2937  3.6158
  382TIP3   OH2 1151   4.235   0.983   4.598 -0.4460 -0.2191 -0.3137
  382TIP3    H1 1152   4.285   1.013   4.674 -0.2946 -1.5475  0.1371
  382TIP3    H2 1153   4.271   1.032   4.525  1.7723 -1.3688 -0.0584
  383TIP3   OH2 1154   3.118   4.789   1.184 -0.1717 -0.2626 -0.2167
  383TIP3    H1 1155   3.197   4.748   1.147  0.8166  1.3411  0.0214
  383TIP3    H2 1156   3.080   4.720   1.239  0.7279 -1.2680 -0.7963
  384TIP3   OH2 1157   3.462   3.067   0.473  0.2662  0.5117 -0.3086
  384TIP3    H1 1158   3.392   3.016   0.513 -1.7306  2.6294 -0.8425
  384TIP3    H2 1159   3.473   3.029   0.386 -0.4344  0.3174 -0.3206
  385TIP3   OH2 1160   1.565  -0.027   3.888  0.2311 -0.1125 -0.2623
  385TIP3    H1 1161   1.556   0.058   3.845 -0.3996 -0.0570 -0.0366
  385TIP3    H2 1162   1.612  -0.009   3.969  0.4517 -0.0421 -0.4065
  386TIP3   OH2 1163   2.928   0.678   1.623  0.0031  0.1170 -0.5460
  386TIP3    H1 1164   2.982   0.630   1.561  0.1992  0.1476 -0.3993
  386TIP3    H2 1165   2.904   0.614   1.690  1.5550  0.5600  0.4982
  387TIP3   OH2 1166   4.614   1.254   4.968  0.5235  0.0290 -0.5026
  387TIP3    H1 1167   4.558   1.242   4.891  0.0286 -0.5217 -0.0697
  387TIP3    H2 1168   4.554   1.290   5.034  0.8670  0.1641 -0.2654
  388TIP3   OH2 1169   3.264   3.503   4.238 -0.1762  0.2828  0.4079
  388TIP3    H1 1170   3.185   3.557   4.242  0.9181  1.9356  0.7083
  388TIP3    H2 1171   3.239   3.427   4.185 -1.1901  2.1398 -1.9377
  389TIP3   OH2 1172   0.278   4.609   1.750 -0.5412  0.7599  0.6154
  389TIP3    H1 1173   0.300   4.538   1.811 -0.5574 -1.0418 -1.3761
  389TIP3    H2 1174   0.359   4.624   1.700 -0.5978  2.0388  0.8629
  390TIP3   OH2 1175  -0.008   1.559   0.210 -0.3617  0.1711 -0.4800
  390TIP3    H1 1176   0.047   1.609   0.272 -0.6918  0.5742 -0.5125
  390TIP3    H2 1177   0.035   1.473   0.206 -0.1052  0.2666  0.0033
  391TIP3   OH2 1178   1.118   2.531   2.652  0.2178 -0.0439 -0.4016
  391TIP3    H1 1179   1.193   2.549   2.709 -0.2758 -3.4864  1.5954
  391TIP3    H2 1180   1.047   2.508   2.712 -1.5602  0.0926 -2.3326
  392TIP3   OH2 1181   3.382   4.699   3.830 -0.3967  0.4229 -0.2361
  392TIP3    H1 1182   3.410   4.665   3.745  2.8175  2.2446 -0.0716
  392TIP3    H2 1183   3.353   4.788   3.812 -0.5857  0.5030  0.4452
  393TIP3   OH2 1184   3.438   2.393   4.097 -0.2654  0.0308  0.0312
  393TIP3    H1 1185   3.350   2.380   4.131 -0.2832  1.5861  0.6899
  393TIP3    H2 1186   3.459   2.484   4.119  1.5671 -0.3466  0.0390
  394TIP3   OH2 1187   2.909   5.173   3.915  0.0725 -0.1040 -0.2774
  394TIP3    H1 1188   2.819   5.143   3.921  0.2613 -0.7692 -0.6574
  394TIP3    H2 1189   2.912   5.225   3.835  0.3363 -1.2178 -1.0034
  395TIP3   OH2 1190   3.412   3.182   2.797 -0.0371 -0.4591 -0.7010
  395TIP3    H1 1191   3.326   3.221   2.784 -1.1704 -2.3642  0.5310
  395TIP3    H2 1192   3.473   3.241   2.753 -2.0614  0.4438 -2.4602
  396TIP3   OH2 1193   0.375   4.846   2.331  0.1294 -0.1427 -0.2785
  396TIP3    H1 1194   0.352   4.789   2.404 -0.2391  0.7048  0.2904
  396TIP3    H2 1195   0.318   4.922   2.341  1.2156  0.7325 -0.4811
  397TIP3   OH2 1196   4.009   2.153   2.092  0.2405 -0.4929  0.5605
  397TIP3    H1 1197   4.083   2.094   2.077 -0.9206 -1.5518 -1.3317
  397TIP3    H2 1198   3.943   2.098   2.134  0.2897  0.3043  1.7244
  398TIP3   OH2 1199   1.918   3.968   4.981 -0.0141  0.4729 -0.2436
  398TIP3    H1 1200   1.981   3.902   5.006  0.2713  1.1745  0.9569
  398TIP3    H2 1201   1.871   3.930   4.907 -0.2043 -1.2597  0.7372
  399TIP3   OH2 1202   0.667   3.289   4.090 -0.2273 -0.0526  0.0129
  399TIP3    H1 1203   0.721   3.360   4.126 -0.1770 -0.6997  1.2853
  399TIP3    H2 1204   0.719   3.255   4.017  1.4484 -1.0470  1.5678
  400TIP3   OH2 1205   1.898   5.390   2.741  0.1838  0.1755 -0.2027
  400TIP3    H1 1206   1.952   5.437   2.677  0.2878 -0.9136 -0.9583
  400TIP3    H2 1207   1.812   5.383   2.699 -0.1554  0.6847  0.3987
  401TIP3   OH2 1208   4.353   1.734   4.829 -0.2877 -0.0828 -0.1974
  401TIP3    H1 1209   4.408   1.723   4.907  1.1601  0.8103 -1.0296
  401TIP3    H2 1210   4.279   1.787   4.859  1.2496  1.9710  0.2356
  402TIP3   OH2 1211   3.969   1.354   3.269  0.1579  0.0420 -0.4352
  402TIP3    H1 1212   4.004   1.435   3.231  0.1655 -0.2224 -1.0095
  402TIP3    H2 1213   3.908   1.322   3.202  0.2747 -0.5069 -0.2781
  403TIP3   OH2 1214   1.025   5.009   1.292  0.2153  0.3724  0.0361
  403TIP3    H1 1215   1.061   5.004   1.203  1.6392  1.6284  0.5131
  403TIP3    H2 1216   0.981   5.094   1.295 -0.6840 -0.0815  0.2646
  404TIP3   OH2 1217   4.778   1.992   3.433 -0.0483 -0.2062  0.3422
  404TIP3    H1 1218   4.861   1.946   3.442  0.3709  0.6701  1.0735
  404TIP3    H2 1219   4.732   1.945   3.362  0.9591 -0.8301  0.0843
  405TIP3   OH2 1220   1.039   2.408   3.481  0.3416 -0.3212 -0.2315
  405TIP3    H1 1221   1.077   2.443   3.561  0.3966  0.3599 -0.5481
  405TIP3    H2 1222   1.097   2.439   3.411 -0.9737  1.0672 -0.7636
  406TIP3   OH2 1223   1.769   5.747   4.605  0.0035 -0.1715  0.2779
  406TIP3    H1 1224   1.758   5.771   4.697 -0.3886  0.0769  0.1665
  406TIP3    H2 1225   1.731   5.820   4.556 -3.5132 -2.0413 -0.0706
  407TIP3   OH2 1226   2.006   3.838   4.497  0.5578 -0.1108 -0.6092
  407TIP3    H1 1227   1.944   3.905   4.467  0.8262  0.5549  0.2828
  407TIP3    H2 1228   1.951   3.767   4.530  0.2373  0.7640  0.8147
  408TIP3   OH2 1229   0.464   5.765   0.732 -0.5303  0.6381 -0.0617
  408TIP3    H1 1230   0.494   5.675   0.745  2.0687  1.5531  0.9561
  408TIP3    H2 1231   0.493   5.788   0.644 -0.4538  0.7515 -0.0067
  409TIP3   OH2 1232   2.732   1.621   1.006 -0.5601  0.5228 -0.3437
  409TIP3    H1 1233   2.808   1.626   0.947 -1.2007 -1.4556 -1.4221
  409TIP3    H2 1234   2.766   1.581   1.086 -0.9159 -3.4661 -1.9480
  410TIP3   OH2 1235   0.508   2.941   3.743  0.0788 -0.0633 -0.2409
  410TIP3    H1 1236   0.462   3.011   3.697  0.6491 -0.3050 -1.1981
  410TIP3    H2 1237   0.440   2.874   3.757  0.1715 -0.5524 -1.9244
  411TIP3   OH2 1238   4.554   1.472   1.004  0.2069  0.2892  0.1641
  411TIP3    H1 1239   4.597   1.515   1.078 -1.2715 -1.1277  1.9424
  411TIP3    H2 1240   4.471   1.440   1.040 -0.7844 -0.0573 -2.2450
  412TIP3   OH2 1241   1.834   3.673   0.098  0.0171  0.2641 -0.2359
  412TIP3    H1 1242   1.769   3.641   0.036 -1.0393  0.4170  0.7426
  412TIP3    H2 1243   1.783   3.725   0.161  1.3765  2.1108 -0.5843
  413TIP3   OH2 1244   0.342   2.098   0.867  0.0300 -0.3430 -0.0611
  413TIP3    H1 1245   0.291   2.140   0.937 -0.5538  0.0403 -0.6983
  413TIP3    H2 1246   0.377   2.172   0.816  0.2815 -0.6170 -0.2867
  414TIP3   OH2 1247   1.868   1.298   3.970  0.0909  0.1872  0.0261
  414TIP3    H1 1248   1.819   1.281   3.890 -0.6905  0.2395  0.4875
  414TIP3    H2 1249   1.950   1.250   3.958  0.4986  1.1502 -1.3050
  415TIP3   OH2 1250   2.783   1.937   4.812  0.5341  0.1250 -0.4014
  415TIP3    H1 1251   2.746   2.018   4.847  1.9737  1.2381 -1.3851
  415TIP3    H2 1252   2.846   1.965   4.747  1.4740 -1.7908 -0.3786
  416TIP3   OH2 1253   5.679   4.232   4.688 -0.3092 -0.9266 -0.3466
  416TIP3    H1 1254   5.586   4.233   4.713 -0.0087  1.6872  1.0121
  416TIP3    H2 1255   5.679   4.259   4.596 -0.8187  3.1302  0.6700
  417TIP3   OH2 1256   3.448   4.856   4.484 -0.0295  0.9405  0.1073
  417TIP3    H1 1257   3.497   4.905   4.417  0.5784 -1.0521 -0.9989
  417TIP3    H2 1258   3.506   4.856   4.560  0.7186  0.5562 -0.4384
  418TIP3   OH2 1259   2.892   4.242   4.774 -0.2139  0.1253  0.4218
  418TIP3    H1 1260   2.928   4.310   4.718 -2.7042  1.4160  0.2379
  418TIP3    H2 1261   2.893   4.281   4.862 -0.5308 -0.0978  0.5252
  419TIP3   OH2 1262   6.291   3.877   4.248 -0.6981  0.1377  0.1117
  419TIP3    H1 1263   6.339   3.815   4.303 -0.3477  1.8684  1.8959
  419TIP3    H2 1264   6.260   3.825   4.174  1.8377 -1.5762  0.1226
  420TIP3   OH2 1265   2.629   3.600   2.796  0.1844  0.0178 -0.0248
  420TIP3    H1 1266   2.638   3.524   2.853 -1.4520  0.0132  0.2696
  420TIP3    H2 1267   2.703   3.656   2.818  0.6085 -0.8337  0.7620
  421TIP3   OH2 1268   1.231   2.325   1.611 -0.2501  0.4219 -0.4752
  421TIP3    H1 1269   1.322   2.297   1.617 -0.5081 -0.1232  1.8012
  421TIP3    H2 1270   1.204   2.300   1.523  1.2120 -1.3134 -0.4871
  422TIP3   OH2 1271   4.969   1.525   0.448 -0.2334 -0.0539  0.5029
  422TIP3    H1 1272   4.967   1.483   0.534 -0.2363 -0.1856  0.4375
  422TIP3    H2 1273   5.047   1.581   0.451  0.1521 -0.5807  0.3425
  423TIP3   OH2 1274   0.221   2.105   3.915 -0.4067 -0.7378  0.2234
  423TIP3    H1 1275   0.172   2.132   3.992 -0.2660  0.2071 -0.0072
  423TIP3    H2 1276   0.259   2.186   3.881 -0.1858 -1.1933 -0.6438
  424TIP3   OH2 1277   5.026   5.682   1.984  0.5791 -0.3999 -0.4502
  424TIP3    H1 1278   5.082   5.676   1.906 -2.1177 -0.6705 -2.5489
  424TIP3    H2 1279   4.964   5.609   1.974 -0.3925  0.0981  1.5189
  425TIP3   OH2 1280   1.512   3.037   4.679 -0.3216 -0.4776 -0.3570
  425TIP3    H1 1281   1.519   3.120   4.727 -0.5412 -0.6814  0.0367
  425TIP3    H2 1282   1.530   2.970   4.745 -0.6145 -0.7618 -0.5641
  426TIP3   OH2 1283   2.984   5.478   1.048  0.2425 -0.6393 -0.1223
  426TIP3    H1 1284   2.978   5.382   1.050 -2.0831 -0.5392  1.6844
  426TIP3    H2 1285   3.064   5.498   1.096 -1.0272 -1.6504  2.5845
  427TIP3   OH2 1286   4.773   5.974   2.413 -0.4508 -0.5882  0.2856
  427TIP3    H1 1287   4.865   5.983   2.438 -1.0298  0.9776  2.1295
  427TIP3    H2 1288   4.773   5.910   2.342  1.8834 -1.7826  1.2684
  428TIP3   OH2 1289   5.101   0.920   2.691  0.0034  0.7552  0.0321
  428TIP3    H1 1290   5.114   1.011   2.665  0.7133  0.8276  0.6130
  428TIP3    H2 1291   5.140   0.914   2.778 -0.0860 -0.0924  0.0215
  429TIP3   OH2 1292   3.204   5.368   3.697  0.3774  0.1185  0.3131
  429TIP3    H1 1293   3.245   5.429   3.635  0.0248  0.5035  0.4557
  429TIP3    H2 1294   3.184   5.291   3.645  0.7599  0.1491  0.1119
  430TIP3   OH2 1295   6.056   3.466   0.788 -0.1914 -0.1866 -0.2450
  430TIP3    H1 1296   6.148   3.482   0.811  0.8997 -2.9828 -2.1017
  430TIP3    H2 1297   6.018   3.430   0.868  0.4820  0.4356  0.3700
  431TIP3   OH2 1298   3.350   5.498   1.795  0.0862 -0.5122  0.3606
  431TIP3    H1 1299   3.410   5.475   1.723 -1.4491  1.3764 -1.6749
  431TIP3    H2 1300   3.263   5.491   1.756 -0.7998  0.6798  2.0140
  432TIP3   OH2 1301   0.395   4.093   4.258  0.3726 -0.3135 -0.0763
  432TIP3    H1 1302   0.329   4.137   4.312 -1.2510 -0.2877 -1.9553
  432TIP3    H2 1303   0.474   4.146   4.269  0.5467 -1.0237  3.1875
  433TIP3   OH2 1304   3.591   3.880   3.021  0.6635 -0.2929 -0.6169
  433TIP3    H1 1305   3.518   3.901   3.079  1.4394  1.0315 -0.0545
  433TIP3    H2 1306   3.575   3.790   2.993 -0.5914 -0.4027  0.3552
  434TIP3   OH2 1307   6.306   0.093   0.899  0.2095 -0.3288 -0.2631
  434TIP3    H1 1308   6.275   0.149   0.828 -0.6517 -1.4481 -0.7907
  434TIP3    H2 1309   6.325   0.154   0.970 -0.2194  0.6848 -0.9845
  435TIP3   OH2 1310   2.380   3.023   4.096  0.4928 -0.4747 -0.7579
  435TIP3    H1 1311   2.458   3.078   4.105 -0.2687  0.5895 -0.4388
  435TIP3    H2 1312   2.378   2.998   4.004  1.0442 -0.2602 -0.8318
  436TIP3   OH2 1313   1.273   1.866   3.549 -0.0069  0.2942 -0.7760
  436TIP3    H1 1314   1.358   1.907   3.564  0.1041 -0.2549  0.1950
  436TIP3    H2 1315   1.225   1.928   3.494  1.4908  0.0172 -2.4948
  437TIP3   OH2 1316   5.189   3.866   3.090 -0.3033  0.3540  0.0413
  437TIP3    H1 1317   5.220   3.782   3.124  0.6834  0.1015 -1.3508
  437TIP3    H2 1318   5.210   3.862   2.996  1.6572  2.9669  0.2723
  438TIP3   OH2 1319   3.032   3.912   4.071 -0.4766  0.4535  0.7132
  438TIP3    H1 1320   3.055   3.953   3.988 -1.0245  0.4089  0.5347
  438TIP3    H2 1321   2.936   3.910   4.071 -0.4711 -0.0783  1.0826
  439TIP3   OH2 1322   1.123   3.674   5.070  0.2609  0.5513  0.2405
  439TIP3    H1 1323   1.044   3.716   5.103  0.1913  0.0939  0.6710
  439TIP3    H2 1324   1.195   3.722   5.112  0.1772  0.1027  0.9107
  440TIP3   OH2 1325   4.871   3.489   4.079 -0.0617 -0.4204  0.3188
  440TIP3    H1 1326   4.951   3.537   4.057 -0.3211 -0.3997 -0.6038
  440TIP3    H2 1327   4.896   3.397   4.076 -0.3254 -0.4715 -1.1189
  441TIP3   OH2 1328   2.842   4.998   2.837 -0.2696 -0.2226 -0.1972
  441TIP3    H1 1329   2.825   4.912   2.798  1.3567 -0.3075 -0.7934
  441TIP3    H2 1330   2.756   5.041   2.838 -0.5630 -0.4691 -3.2891
  442TIP3   OH2 1331   4.786   0.595   4.206  0.5404  0.2350 -0.3994
  442TIP3    H1 1332   4.876   0.563   4.207  0.0604 -1.2495 -1.3610
  442TIP3    H2 1333   4.789   0.676   4.156  1.9183  2.2953  2.6937
  443TIP3   OH2 1334   6.350   2.352   1.855  0.3969 -0.3871  0.3221
  443TIP3    H1 1335   6.285   2.310   1.911 -1.8371  2.8331  0.3773
  443TIP3    H2 1336   6.314   2.345   1.767  1.9752 -1.9331 -0.2773
  444TIP3   OH2 1337   3.951   5.749   1.385  0.6198 -0.3373  0.0910
  444TIP3    H1 1338   3.984   5.820   1.440 -0.8892 -0.2776  0.9850
  444TIP3    H2 1339   3.995   5.760   1.301  2.2079  0.2007  0.9493
  445TIP3   OH2 1340   2.664   2.806   1.873  0.2793 -0.1382  0.0641
  445TIP3    H1 1341   2.745   2.843   1.838 -0.1155 -0.2272 -0.9636
  445TIP3    H2 1342   2.612   2.882   1.900 -0.2910  0.0605 -1.5138
  446TIP3   OH2 1343   4.910   2.037   5.145 -0.0510 -0.3815  0.6657
  446TIP3    H1 1344   4.884   1.948   5.168  0.8072 -0.0632  3.0791
  446TIP3    H2 1345   4.828   2.085   5.135 -0.5044 -1.2838 -0.0791
  447TIP3   OH2 1346   2.678   5.927   2.247 -0.6796  0.6875  0.0153
  447TIP3    H1 1347   2.609   5.867   2.221 -0.3001 -0.2100  0.9787
  447TIP3    H2 1348   2.685   5.915   2.342  0.5727  0.9884 -0.0226
  448TIP3   OH2 1349   4.349   3.047   4.292  0.0717 -0.4883 -0.1154
  448TIP3    H1 1350   4.324   3.090   4.374 -1.9977  1.2856 -1.5814
  448TIP3    H2 1351   4.278   2.984   4.276 -0.7221  0.7291 -1.5935
  449TIP3   OH2 1352   1.805   2.313   0.877 -0.4037  0.2991  0.2472
  449TIP3    H1 1353   1.752   2.366   0.936 -1.4752 -0.7222  0.2247
  449TIP3    H2 1354   1.756   2.231   0.867  0.4760 -0.1133 -0.8981
  450TIP3   OH2 1355   0.079   2.108   2.252  0.1672  0.5908 -0.0703
  450TIP3    H1 1356   0.093   2.077   2.163  0.3397  0.4090  0.0214
  450TIP3    H2 1357  -0.017   2.109   2.262  0.1353  0.9326 -0.3699
  451TIP3   OH2 1358   6.275   5.125   2.389 -0.4524  0.1724 -0.1789
  451TIP3    H1 1359   6.189   5.090   2.407 -0.3722 -0.4651 -1.0012
  451TIP3    H2 1360   6.272   5.215   2.422 -0.7485 -0.4867  1.6723
  452TIP3   OH2 1361   5.160   4.566   4.219 -0.2623 -0.4814 -0.1096
  452TIP3    H1 1362   5.088   4.509   4.244  1.0356 -1.7458  0.9588
  452TIP3    H2 1363   5.165   4.559   4.124 -1.7962 -0.0213 -0.2411
  453TIP3   OH2 1364  -0.005   3.984   2.464 -0.3097  0.6265  0.4879
  453TIP3    H1 1365  -0.064   4.052   2.432 -0.8483 -0.3599 -0.6839
  453TIP3    H2 1366   0.072   4.032   2.494 -0.9123  1.7939  0.2425
  454TIP3   OH2 1367   2.085   2.496   3.140  0.2841 -0.2881  0.5815
  454TIP3    H1 1368   2.140   2.504   3.218  0.0191  0.1410  0.7245
  454TIP3    H2 1369   2.026   2.423   3.160 -0.7307  0.7176  1.3656
  455TIP3   OH2 1370   6.166   0.519   1.134 -0.1351  0.1387  0.0966
  455TIP3    H1 1371   6.115   0.522   1.215 -1.5816 -2.1229 -0.6520
  455TIP3    H2 1372   6.101   0.524   1.065  0.6161 -2.4203 -0.8968
  456TIP3   OH2 1373   4.092   3.024   4.887 -0.8474  0.7845 -0.1149
  456TIP3    H1 1374   4.050   2.951   4.933 -1.0788  0.5956 -0.6208
  456TIP3    H2 1375   4.021   3.086   4.871 -0.7717  0.8414 -0.2285
  457TIP3   OH2 1376   2.234   2.473   2.680 -0.8323 -0.2056  0.1250
  457TIP3    H1 1377   2.288   2.401   2.713  0.8545  1.0564  0.2814
  457TIP3    H2 1378   2.298   2.537   2.648 -2.1471  2.1163  1.8438
  458TIP3   OH2 1379   2.730   3.995   5.107  0.0278  0.3931 -0.5034
  458TIP3    H1 1380   2.816   3.964   5.079 -0.1298 -0.2039 -0.3477
  458TIP3    H2 1381   2.694   4.039   5.031  0.6146  0.9474 -0.4599
  459TIP3   OH2 1382   0.953   1.646   1.337  0.0403  0.3632 -0.0311
  459TIP3    H1 1383   1.024   1.666   1.398 -0.0086 -1.2207  0.6160
  459TIP3    H2 1384   0.990   1.578   1.280  0.0555  1.7482 -1.7519
  460TIP3   OH2 1385   2.058   1.094   5.165 -0.0381 -0.3020  0.2395
  460TIP3    H1 1386   2.143   1.102   5.123 -0.7703  0.8895 -1.1104
  460TIP3    H2 1387   2.023   1.183   5.165 -0.7988 -0.5539  1.8745
  461TIP3   OH2 1388   4.106   1.239   2.797  0.3678 -0.1200  0.1990
  461TIP3    H1 1389   4.127   1.303   2.865  1.5850 -0.9029  0.5807
  461TIP3    H2 1390   4.183   1.184   2.790 -0.1654 -0.7613 -1.0433
  462TIP3   OH2 1391   0.334   2.760   2.933  0.1365  0.8870  0.7506
  462TIP3    H1 1392   0.260   2.707   2.903  1.5003 -0.4678 -0.3963
  462TIP3    H2 1393   0.318   2.773   3.027 -0.9435 -0.4257  0.7782
  463TIP3   OH2 1394   0.529   5.664   1.467  0.1222 -0.1937 -0.6669
  463TIP3    H1 1395   0.469   5.605   1.512 -1.4141  1.6856 -0.0790
  463TIP3    H2 1396   0.614   5.622   1.473 -0.5654 -1.4250  1.3852
  464TIP3   OH2 1397   5.608   2.968   2.596  0.1026 -0.2020 -0.2042
  464TIP3    H1 1398   5.691   2.943   2.638 -0.2212 -0.7818  0.1007
  464TIP3    H2 1399   5.586   2.893   2.540 -1.0898 -0.8270  1.0340
  465TIP3   OH2 1400   3.744   0.036   2.566 -0.1234 -0.6082 -0.4161
  465TIP3    H1 1401   3.711  -0.041   2.613 -0.4488 -0.0071  0.3672
  465TIP3    H2 1402   3.795   0.083   2.632 -1.6698  0.9461 -0.2588
  466TIP3   OH2 1403   5.162   5.462   0.116 -0.1389  0.1431 -0.0969
  466TIP3    H1 1404   5.107   5.529   0.155  1.4672  0.2400  2.2342
  466TIP3    H2 1405   5.205   5.506   0.043 -1.8667  0.5149 -0.9394
  467TIP3   OH2 1406   4.163   3.727   4.065 -0.4793 -0.2070  0.0892
  467TIP3    H1 1407   4.156   3.777   3.984 -0.9936 -0.5279 -0.0702
  467TIP3    H2 1408   4.245   3.679   4.057 -1.1219 -1.2062 -0.8043
  468TIP3   OH2 1409   0.756   5.939   2.412  0.2032 -0.0136 -0.1524
  468TIP3    H1 1410   0.719   5.909   2.495  2.3511 -2.3078  0.0800
  468TIP3    H2 1411   0.735   5.870   2.349  0.5577  0.5963 -0.9618
  469TIP3   OH2 1412   6.159   2.195   4.031  0.2580 -0.8111 -0.7381
  469TIP3    H1 1413   6.174   2.289   4.018  0.5222 -0.9726 -1.6768
  469TIP3    H2 1414   6.247   2.157   4.033  0.1384 -1.0914 -0.7877
  470TIP3   OH2 1415   0.594   5.871   2.949  0.1145  0.0722 -0.0901
  470TIP3    H1 1416   0.557   5.955   2.975 -2.1497 -0.8230 -0.1908
  470TIP3    H2 1417   0.591   5.818   3.028 -0.8852 -0.6967 -0.6261
  471TIP3   OH2 1418   3.914   0.122   2.777 -0.7963 -0.6902  0.2714
  471TIP3    H1 1419   3.965   0.202   2.769  0.5716 -1.5823 -0.2163
  471TIP3    H2 1420   3.909   0.106   2.871 -1.7825  0.3783  0.4251
  472TIP3   OH2 1421   6.177   1.222   0.314 -0.0736 -0.3137 -0.0710
  472TIP3    H1 1422   6.127   1.279   0.256  0.3519 -1.7769 -1.9652
  472TIP3    H2 1423   6.111   1.176   0.366 -0.4507  1.1906  0.8398
  473TIP3   OH2 1424   0.897   2.767   0.821 -0.2120  0.0062  0.4803
  473TIP3    H1 1425   0.966   2.733   0.878  0.1268 -1.0253 -0.5027
  473TIP3    H2 1426   0.931   2.755   0.732 -1.0289  0.8986  0.0320
  474TIP3   OH2 1427   4.143   3.803   2.384 -0.1259  0.0990 -0.3402
  474TIP3    H1 1428   4.055   3.826   2.412  0.1236  0.8223 -0.1136
  474TIP3    H2 1429   4.201   3.854   2.441  0.3966  2.0466 -2.4462
  475TIP3   OH2 1430   5.160   4.865   5.210  0.2552 -0.1010  0.3218
  475TIP3    H1 1431   5.246   4.888   5.175  0.3638 -1.0965 -0.0947
  475TIP3    H2 1432   5.122   4.806   5.145  0.2854 -1.6712  1.6564
  476TIP3   OH2 1433   3.134   0.552   4.034 -0.2537 -0.6013  0.2134
  476TIP3    H1 1434   3.049   0.596   4.026  0.0475 -0.2680 -1.3636
  476TIP3    H2 1435   3.183   0.605   4.096 -0.7892 -0.1326  0.2415
  477TIP3   OH2 1436   4.032   0.570   2.883  0.1476  0.0962  0.5601
  477TIP3    H1 1437   4.084   0.606   2.955 -0.4359  1.4349  0.3315
  477TIP3    H2 1438   4.004   0.646   2.833 -0.8703 -0.7031 -0.1258
  478TIP3   OH2 1439   2.754   5.073   0.072 -0.5245 -0.0614 -0.8600
  478TIP3    H1 1440   2.742   4.979   0.084  0.3449 -0.0827 -0.0276
  478TIP3    H2 1441   2.686   5.114   0.125  0.9352 -0.2075  1.2164
  479TIP3   OH2 1442   6.228   2.759   2.413 -0.1537 -0.7299 -0.0073
  479TIP3    H1 1443   6.287   2.742   2.340  0.2698 -0.6792  0.3170
  479TIP3    H2 1444   6.142   2.772   2.373 -0.2366 -2.2612 -0.3799
  480TIP3   OH2 1445   2.797   1.602   1.500  0.2747 -0.4879  0.5137
  480TIP3    H1 1446   2.720   1.658   1.508 -0.9166 -1.7985 -1.0021
  480TIP3    H2 1447   2.785   1.534   1.566  0.7231 -0.0844  1.0233
  481TIP3   OH2 1448   2.855   2.027   4.393 -0.0387 -0.5603  0.7358
  481TIP3    H1 1449   2.947   2.050   4.401  0.3843 -1.5666 -0.8402
  481TIP3    H2 1450   2.855   1.932   4.382 -1.1861 -0.4542 -0.3226
  482TIP3   OH2 1451   0.859   3.579   4.877  0.4420  0.9755 -0.4588
  482TIP3    H1 1452   0.892   3.668   4.863 -0.1633  1.5090  1.2015
  482TIP3    H2 1453   0.764   3.590   4.884  0.4367  0.3648  0.7370
  483TIP3   OH2 1454   5.350   1.547   3.146 -0.0980 -0.2503  0.5250
  483TIP3    H1 1455   5.407   1.624   3.137 -0.2407  0.1509  2.4743
  483TIP3    H2 1456   5.409   1.477   3.173 -0.1997 -0.4059  0.3398
  484TIP3   OH2 1457   4.441   5.069   1.333  0.6787 -0.0915  0.5004
  484TIP3    H1 1458   4.529   5.039   1.356  1.1400  1.1253  0.3822
  484TIP3    H2 1459   4.433   5.155   1.374 -1.0214 -0.7997  1.7574
  485TIP3   OH2 1460   0.357   5.652   2.211  0.0273 -0.5422 -0.3704
  485TIP3    H1 1461   0.268   5.622   2.229  0.8137 -2.1570  1.0913
  485TIP3    H2 1462   0.389   5.593   2.143 -0.2128  0.5032 -1.4412
  486TIP3   OH2 1463   6.273   1.247   2.970  0.6245  0.3001  0.0270
  486TIP3    H1 1464   6.341   1.185   2.942  1.6967  1.2651  0.4001
  486TIP3    H2 1465   6.308   1.285   3.051 -0.0077  1.3784 -0.1890
  487TIP3   OH2 1466   0.785   2.414   2.159  0.5648  0.1680 -0.6401
  487TIP3    H1 1467   0.701   2.456   2.178  0.8502  1.5429 -2.1787
  487TIP3    H2 1468   0.844   2.446   2.228 -0.1219 -0.7512  0.4064
  488TIP3   OH2 1469   3.053   5.081   2.659  0.4624 -0.0107 -0.1925
  488TIP3    H1 1470   3.011   5.036   2.732 -0.5366  1.1715 -0.0105
  488TIP3    H2 1471   3.075   5.011   2.598  1.1303 -0.9924  1.1338
  489TIP3   OH2 1472   3.295   5.620   4.608  0.0821 -0.8108 -0.1260
  489TIP3    H1 1473   3.352   5.543   4.607 -0.3252 -1.1129 -1.0803
  489TIP3    H2 1474   3.276   5.637   4.516  1.4904  1.4508 -0.0772
  490TIP3   OH2 1475   0.060   2.032   1.560  0.1986  0.8484  0.4321
  490TIP3    H1 1476   0.123   2.100   1.581 -0.0135  1.0779  0.3399
  490TIP3    H2 1477   0.034   2.051   1.469  2.9163 -1.5376 -0.9920
  491TIP3   OH2 1478   3.855   4.482   0.481  0.0902 -0.1617 -0.2624
  491TIP3    H1 1479   3.888   4.563   0.519 -0.2545  0.8160 -1.9337
  491TIP3    H2 1480   3.931   4.443   0.439  0.4617 -1.2196  1.2977
  492TIP3   OH2 1481   5.766   3.944   1.935  0.0251 -0.0494 -0.2108
  492TIP3    H1 1482   5.740   3.869   1.989  1.0458 -0.7863 -0.7167
  492TIP3    H2 1483   5.683   3.988   1.914 -0.5638 -0.8826  0.3080
  493TIP3   OH2 1484   2.215   2.975   2.441 -0.2458  0.6305 -0.7979
  493TIP3    H1 1485   2.125   2.994   2.466 -0.5391 -1.9939  0.4624
  493TIP3    H2 1486   2.208   2.903   2.378  0.9661  0.1651 -0.4341
  494TIP3   OH2 1487   2.510   1.024   2.693 -0.5195 -0.2693 -0.1443
  494TIP3    H1 1488   2.466   0.980   2.765 -0.9039  0.3614  0.0173
  494TIP3    H2 1489   2.603   1.023   2.717 -0.1262 -3.2498 -1.3495
  495TIP3   OH2 1490   0.762   5.828   0.780  0.2490  0.1133 -0.3882
  495TIP3    H1 1491   0.678   5.859   0.814  0.2859 -0.4353  0.2336
  495TIP3    H2 1492   0.827   5.869   0.837  0.2609 -1.8077  1.0784
  496TIP3   OH2 1493   0.091   1.350   1.421 -0.6158  0.2774 -0.2666
  496TIP3    H1 1494   0.072   1.437   1.456 -0.8521  0.9638 -2.0080
  496TIP3    H2 1495   0.133   1.366   1.337 -0.0278 -1.3062 -0.3126
  497TIP3   OH2 1496   2.130   2.588   1.074 -0.1021  0.4844 -0.3326
  497TIP3    H1 1497   2.161   2.501   1.102  0.7946  0.8416 -0.1916
  497TIP3    H2 1498   2.157   2.647   1.144 -2.3226  0.6356  0.4918
  498TIP3   OH2 1499   1.290   3.670   1.810 -0.1634 -0.0290  0.1051
  498TIP3    H1 1500   1.253   3.757   1.795 -0.3966 -0.1346  0.0487
  498TIP3    H2 1501   1.260   3.619   1.735 -1.4778 -0.6055  0.9727
  499TIP3   OH2 1502   1.544   4.006   1.870 -0.2248  0.3033 -0.2921
  499TIP3    H1 1503   1.568   4.079   1.927  1.6005  0.3740 -1.0801
  499TIP3    H2 1504   1.449   4.012   1.862 -0.1638  2.3301  0.0040
  500TIP3   OH2 1505   3.051   3.838  -0.005 -0.1572  0.3701  0.2015
  500TIP3    H1 1506   3.024   3.781   0.067  1.7659 -1.4973 -0.4858
  500TIP3    H2 1507   3.146   3.836  -0.004 -0.0663  0.6433 -2.1302
  501TIP3   OH2 1508   1.673   2.624   2.901 -0.0492 -0.1711  0.4972
  501TIP3    H1 1509   1.700   2.701   2.851  0.5717 -1.7722 -1.7722
  501TIP3    H2 1510   1.744   2.561   2.889 -1.3420 -1.7598  0.7318
  502TIP3   OH2 1511   4.884   1.740   4.252 -0.0658 -0.0937  0.2608
  502TIP3    H1 1512   4.972   1.752   4.288  0.7671 -1.8211 -1.0552
  502TIP3    H2 1513   4.834   1.703   4.325  0.4966  0.1444  0.7845
  503TIP3   OH2 1514   3.418   5.222   4.205 -0.4313 -0.2861  0.8988
  503TIP3    H1 1515   3.359   5.163   4.157  0.5410  1.4956 -2.8850
  503TIP3    H2 1516   3.361   5.286   4.247 -1.3227 -0.0722 -0.5832
  504TIP3   OH2 1517   4.250   3.554   0.275 -0.1571  0.0367 -0.8980
  504TIP3    H1 1518   4.284   3.469   0.302 -0.2100 -0.0157 -0.9963
  504TIP3    H2 1519   4.168   3.534   0.229 -0.3065  0.1607 -0.6855
  505TIP3   OH2 1520   5.269   4.688   0.373 -0.1888  0.5712 -0.0438
  505TIP3    H1 1521   5.286   4.600   0.408  0.3082  1.0873  1.0839
  505TIP3    H2 1522   5.263   4.675   0.278 -1.2928 -0.8467  0.1749
  506TIP3   OH2 1523   0.105   2.669   0.329  0.2526 -0.1994 -0.0405
  506TIP3    H1 1524   0.131   2.725   0.256  2.8429 -1.8141 -0.4882
  506TIP3    H2 1525   0.117   2.724   0.407  0.6425  0.5465 -0.6163
  507TIP3   OH2 1526   2.738   5.602   4.660  0.9473 -0.3968  0.3010
  507TIP3    H1 1527   2.710   5.673   4.718 -3.0129 -2.3592  1.1161
  507TIP3    H2 1528   2.707   5.629   4.573  1.1966 -0.2810  0.2470
  508TIP3   OH2 1529   3.758   1.931   1.795  0.0413  0.5661 -0.2096
  508TIP3    H1 1530   3.788   2.020   1.774 -0.9862  1.3561  1.4485
  508TIP3    H2 1531   3.761   1.885   1.712 -1.5869  2.8018 -1.6206
  509TIP3   OH2 1532   5.289   4.822   1.551 -0.2974 -0.5468  0.7016
  509TIP3    H1 1533   5.303   4.850   1.642  1.4288  0.5485  0.1520
  509TIP3    H2 1534   5.203   4.858   1.529  1.1204  3.2381  0.5642
  510TIP3   OH2 1535   0.780   2.997   2.977  0.4938 -0.3610 -0.2671
  510TIP3    H1 1536   0.706   3.019   2.921 -0.6616  0.0222  1.3526
  510TIP3    H2 1537   0.839   2.947   2.921 -1.9297 -2.5073 -1.0678
  511TIP3   OH2 1538   1.295   3.781   2.088  0.0667 -0.3671 -0.1543
  511TIP3    H1 1539   1.268   3.752   2.001 -0.4276  0.6092 -0.3443
  511TIP3    H2 1540   1.215   3.780   2.140  0.3997 -1.1515  0.3549
  512TIP3   OH2 1541   6.329   0.242   3.777  1.1087 -0.0961 -0.5017
  512TIP3    H1 1542   6.236   0.255   3.754  1.0573 -1.1231 -0.9063
  512TIP3    H2 1543   6.342   0.298   3.853 -0.2649 -1.0707  0.5168
  513TIP3   OH2 1544   0.874   3.232   3.859  0.1348  0.3475  0.2787
  513TIP3    H1 1545   0.950   3.290   3.846 -1.5524  2.2316 -2.0739
  513TIP3    H2 1546   0.842   3.215   3.770 -1.6614 -1.1728  1.1547
  514TIP3   OH2 1547   5.832   4.967   3.491  0.0298  0.0643  0.7266
  514TIP3    H1 1548   5.896   4.947   3.560  1.1734 -0.5336 -0.4601
  514TIP3    H2 1549   5.780   5.039   3.527 -0.1134 -0.9276  2.6306
  515TIP3   OH2 1550   3.785   5.648   3.062  0.0764 -0.2755  0.3072
  515TIP3    H1 1551   3.789   5.580   2.995 -0.2920 -1.6326  1.6078
  515TIP3    H2 1552   3.867   5.696   3.053  0.5568 -1.1914 -0.3367
  516TIP3   OH2 1553   1.795   1.275   2.693 -0.0410 -0.0807  0.4032
  516TIP3    H1 1554   1.883   1.301   2.719 -0.7161  2.0913  0.6905
  516TIP3    H2 1555   1.800   1.179   2.684  2.5973  0.0791 -0.6593
  517TIP3   OH2 1556   5.020   0.380   1.291  0.2329 -0.3663 -0.2056
  517TIP3    H1 1557   4.965   0.454   1.318 -0.2789 -1.0358  0.6828
  517TIP3    H2 1558   4.982   0.305   1.337  0.7077 -1.1930 -1.1286
  518TIP3   OH2 1559   5.943   3.138   1.633  0.7354  0.4957 -0.6054
  518TIP3    H1 1560   5.939   3.046   1.607 -1.3123  0.0290  1.1043
  518TIP3    H2 1561   6.030   3.168   1.605  1.6358 -2.0775 -0.7465
  519TIP3   OH2 1562   4.265   4.532   0.391  0.0246 -0.0705  0.4377
  519TIP3    H1 1563   4.339   4.577   0.431  0.3758 -1.1231  1.0056
  519TIP3    H2 1564   4.295   4.509   0.303  0.7069 -1.2290  0.9480
  520TIP3   OH2 1565   4.675   3.193   4.013 -0.3257 -0.1254 -1.2240
  520TIP3    H1 1566   4.766   3.191   4.041 -0.2256  0.2621 -1.5088
  520TIP3    H2 1567   4.674   3.255   3.940 -0.9883  0.6007 -0.6157
  521TIP3   OH2 1568   2.178   0.499   0.905 -0.2207  0.2899  0.0394
  521TIP3    H1 1569   2.174   0.443   0.827 -0.9675 -1.4796  1.2746
  521TIP3    H2 1570   2.265   0.481   0.942 -0.7608 -0.7061  0.8667
  522TIP3   OH2 1571   1.601   2.061   0.331  0.1938 -0.1253  0.5996
  522TIP3    H1 1572   1.680   2.089   0.377  1.2418 -0.9288 -0.6273
  522TIP3    H2 1573   1.537   2.130   0.349  1.9707  1.9491 -0.4715
  523TIP3   OH2 1574   0.080   3.233   0.872 -0.1982  0.0787 -1.0405
  523TIP3    H1 1575   0.045   3.146   0.851 -1.5366  0.5827 -0.9550
  523TIP3    H2 1576   0.164   3.237   0.825 -0.1275 -1.2460 -1.0563
  524TIP3   OH2 1577   5.552   4.779   4.313 -0.3370  0.1724 -0.0336
  524TIP3    H1 1578   5.614   4.748   4.379 -0.0106 -1.6513 -1.1614
  524TIP3    H2 1579   5.563   4.875   4.314  1.0701  0.0361  1.1622
  525TIP3   OH2 1580   5.351   1.877   1.078 -0.0863 -0.2639 -0.2230
  525TIP3    H1 1581   5.408   1.899   1.005  0.3183  3.4109  1.0031
  525TIP3    H2 1582   5.410   1.841   1.145  0.0357 -0.6715 -0.5440
  526TIP3   OH2 1583   3.955   1.252   1.914  0.0128  0.0535 -0.1100
  526TIP3    H1 1584   4.026   1.269   1.975  0.0821  0.1170 -0.2100
  526TIP3    H2 1585   3.978   1.168   1.873 -0.4131 -0.3793  0.5088
  527TIP3   OH2 1586   1.501   0.896   5.039  0.0146 -0.1873  0.0681
  527TIP3    H1 1587   1.441   0.871   4.970  0.3794  1.7886 -1.0506
  527TIP3    H2 1588   1.558   0.962   4.999  0.7633  0.4422  2.0288
  528TIP3   OH2 1589   5.245   1.592   4.941  0.1923 -0.5572  0.2386
  528TIP3    H1 1590   5.241   1.573   4.848  0.7177 -2.4367  0.5680
  528TIP3    H2 1591   5.330   1.634   4.953 -0.2730  0.5709 -0.2422
  529TIP3   OH2 1592   4.907   0.613   4.827 -0.4586 -0.6010 -0.7532
  529TIP3    H1 1593   4.930   0.535   4.776  0.1256 -1.1160  0.2524
  529TIP3    H2 1594   4.945   0.686   4.778  0.0609 -1.0765 -1.0731
  530TIP3   OH2 1595   2.462   4.504   0.125 -0.0129  0.3784 -0.0505
  530TIP3    H1 1596   2.465   4.453   0.044 -0.5432  1.3883 -0.7245
  530TIP3    H2 1597   2.368   4.512   0.145  0.1399 -0.9522  1.3922
  531TIP3   OH2 1598   6.287   5.717   0.818 -0.3602  0.4268  1.2492
  531TIP3    H1 1599   6.272   5.699   0.911 -0.0952 -2.1323  0.8508
  531TIP3    H2 1600   6.380   5.741   0.814 -0.1633 -0.2405  1.5640
  532TIP3   OH2 1601   1.710   5.100   1.802  0.1702 -0.0416  0.2300
  532TIP3    H1 1602   1.719   5.189   1.836 -2.7040  0.9992 -1.3990
  532TIP3    H2 1603   1.681   5.048   1.877 -2.7018  1.4790  0.3112
  533TIP3   OH2 1604   5.190   5.432   1.120  0.3875 -0.4563 -0.2219
  533TIP3    H1 1605   5.271   5.471   1.086 -1.4298  1.9959 -2.1557
  533TIP3    H2 1606   5.142   5.403   1.042 -2.2759  1.8758  0.3544
  534TIP3   OH2 1607   4.376   5.499   2.291  0.1790 -0.6985 -0.2425
  534TIP3    H1 1608   4.380   5.521   2.384 -0.8880  0.9935 -0.5413
  534TIP3    H2 1609   4.368   5.404   2.288  0.4683 -0.7956  1.3673
  535TIP3   OH2 1610   5.781   5.752   0.167 -0.2522  0.3400  0.4825
  535TIP3    H1 1611   5.792   5.697   0.090 -2.8933 -0.2923  0.4576
  535TIP3    H2 1612   5.864   5.744   0.215  0.8528 -0.4981 -1.4636
  536TIP3   OH2 1613   1.784   3.631   1.989 -0.1432  0.0451  0.0571
  536TIP3    H1 1614   1.723   3.674   1.930 -0.4086 -1.5971 -0.9143
  536TIP3    H2 1615   1.857   3.605   1.933  0.8589  0.8031  0.9604
  537TIP3   OH2 1616   2.699   2.726   4.141  0.1514 -0.0752  0.1183
  537TIP3    H1 1617   2.731   2.765   4.059 -0.9731 -0.0545 -0.3305
  537TIP3    H2 1618   2.611   2.694   4.119  0.2089 -0.9295  1.0667
  538TIP3   OH2 1619   3.921   3.788   3.295 -0.0624 -0.0808 -0.3850
  538TIP3    H1 1620   3.942   3.709   3.246 -0.8412 -0.5873  0.0551
  538TIP3    H2 1621   3.973   3.857   3.255  2.3912 -1.2243  0.6561
  539TIP3   OH2 1622   1.743   2.357   3.738  0.0044 -0.2251  0.5221
  539TIP3    H1 1623   1.687   2.280   3.730 -1.9463  0.9957  1.6934
  539TIP3    H2 1624   1.787   2.345   3.822  1.6967 -1.2495 -0.4587
  540TIP3   OH2 1625   3.707   5.703   2.295 -0.3585  0.2535 -0.2772
  540TIP3    H1 1626   3.709   5.679   2.202  1.1438  5.1132 -1.7948
  540TIP3    H2 1627   3.639   5.770   2.301  2.5521  3.4061  0.8848
  541TIP3   OH2 1628   5.996   2.268   1.813 -0.2569  0.1193  0.2929
  541TIP3    H1 1629   6.063   2.247   1.877 -0.9065 -0.4960  0.7872
  541TIP3    H2 1630   5.938   2.329   1.858 -0.5316 -0.0535  0.1742
  542TIP3   OH2 1631   3.289   1.461   3.419 -0.1648 -0.4663 -0.4279
  542TIP3    H1 1632   3.213   1.436   3.471 -0.2353 -0.1216 -0.3609
  542TIP3    H2 1633   3.360   1.404   3.449 -0.1844 -0.2175  0.0990
  543TIP3   OH2 1634   0.577   5.753   3.188 -0.0185  0.1974 -0.1984
  543TIP3    H1 1635   0.627   5.692   3.243 -1.6678 -0.9248  0.1147
  543TIP3    H2 1636   0.544   5.818   3.249  1.7210  1.4452 -0.5293
  544TIP3   OH2 1637   3.761   5.906   4.922 -0.5289  0.4150  0.4720
  544TIP3    H1 1638   3.694   5.916   4.854  0.7721  1.0573 -0.7515
  544TIP3    H2 1639   3.774   5.994   4.956 -0.0984  0.3420  0.4992
  545TIP3   OH2 1640   0.229   3.061   2.016 -0.2944 -0.0965 -0.0548
  545TIP3    H1 1641   0.219   3.131   2.081  0.1136  0.6636 -0.8000
  545TIP3    H2 1642   0.218   2.981   2.067 -1.8414  0.5062  0.6361
  546TIP3   OH2 1643   1.015   5.858   4.019  0.0593  0.2745 -0.5349
  546TIP3    H1 1644   0.926   5.829   4.000  0.0474  0.8079 -1.3226
  546TIP3    H2 1645   1.042   5.906   3.941  0.5253  1.3408  0.2614
  547TIP3   OH2 1646   0.684   2.115   3.365 -0.5263 -0.2140  0.0782
  547TIP3    H1 1647   0.599   2.144   3.398 -0.1336 -0.2427  1.1841
  547TIP3    H2 1648   0.700   2.032   3.412 -0.5954 -1.0322 -1.2940
  548TIP3   OH2 1649   3.647   0.099   0.722  0.0842  0.5817 -0.1920
  548TIP3    H1 1650   3.595   0.107   0.642 -0.9066 -1.5092  0.1773
  548TIP3    H2 1651   3.737   0.110   0.692 -0.2707  0.0148 -1.5757
  549TIP3   OH2 1652   2.709   2.038   0.352  0.1416  0.1126 -0.1767
  549TIP3    H1 1653   2.772   2.103   0.382  0.0806  0.9861 -1.8370
  549TIP3    H2 1654   2.756   1.955   0.356  0.4633  0.3471  1.2467
  550TIP3   OH2 1655   3.323   2.605   3.219 -0.0592 -0.2361  0.4189
  550TIP3    H1 1656   3.343   2.683   3.167  0.6520 -1.8626 -1.9502
  550TIP3    H2 1657   3.409   2.572   3.246 -0.3649 -0.1618  1.5421
  551TIP3   OH2 1658   3.028   3.410   0.103 -0.1078 -0.3167  0.8364
  551TIP3    H1 1659   2.932   3.412   0.101 -0.1252  0.5532  1.6603
  551TIP3    H2 1660   3.049   3.340   0.164 -0.1685 -1.7581 -0.7444
  552TIP3   OH2 1661   5.120   5.500   4.967 -0.7295 -0.3443  0.5875
  552TIP3    H1 1662   5.167   5.571   4.924 -1.3779 -0.4125 -0.2733
  552TIP3    H2 1663   5.091   5.537   5.050 -2.1301  0.8419 -0.3698
  553TIP3   OH2 1664   0.617   0.771   0.832 -0.3068 -0.3935  0.1493
  553TIP3    H1 1665   0.704   0.778   0.795  0.3409 -2.6557  1.0397
  553TIP3    H2 1666   0.617   0.686   0.877 -2.9061 -0.3830  0.3289
  554TIP3   OH2 1667   3.714   0.736   2.439  0.1861  0.2379 -0.3755
  554TIP3    H1 1668   3.627   0.728   2.400 -0.1901  0.5763  0.3666
  554TIP3    H2 1669   3.737   0.829   2.427  0.0161  0.3713  0.2939
  555TIP3   OH2 1670   2.590   1.055   4.412  0.6781  0.4443  0.1427
  555TIP3    H1 1671   2.569   1.121   4.347  1.8721  0.9506  0.2375
  555TIP3    H2 1672   2.682   1.072   4.435 -0.0943  1.2455  3.0372
  556TIP3   OH2 1673   3.725   0.193   1.622 -0.1387  0.3791  0.1601
  556TIP3    H1 1674   3.732   0.115   1.677  0.1109  1.2545  1.3968
  556TIP3    H2 1675   3.792   0.181   1.555  1.5875  0.6406  1.7752
  557TIP3   OH2 1676   0.892   0.844   1.357 -0.8217 -0.1651 -0.1416
  557TIP3    H1 1677   0.861   0.791   1.283 -2.0112  0.9935 -0.4961
  557TIP3    H2 1678   0.935   0.919   1.317 -0.7100  0.0435  0.3580
  558TIP3   OH2 1679   4.954   2.236   0.494 -0.4247 -0.0966  0.1628
  558TIP3    H1 1680   4.956   2.269   0.584 -2.0916 -2.2779  1.0976
  558TIP3    H2 1681   4.985   2.310   0.441  2.4972  0.6757  2.6260
  559TIP3   OH2 1682   0.169   2.252   3.303  0.2166  0.3066 -0.8542
  559TIP3    H1 1683   0.137   2.342   3.293 -0.9395  0.1307  0.8771
  559TIP3    H2 1684   0.232   2.257   3.374  1.0759 -0.0643 -1.5744
  560TIP3   OH2 1685   1.643   5.906   1.686 -0.2274 -0.1321  0.1985
  560TIP3    H1 1686   1.655   5.862   1.770 -0.2988  0.8916  0.7520
  560TIP3    H2 1687   1.728   5.899   1.643  0.7635  2.0161  1.6695
  561TIP3   OH2 1688   4.784   2.537   2.249  0.0922  0.6929 -0.3618
  561TIP3    H1 1689   4.699   2.494   2.257 -0.6599  2.3451  1.5633
  561TIP3    H2 1690   4.824   2.528   2.335  0.8179  1.9618 -0.5331
  562TIP3   OH2 1691   4.454   3.881   4.903 -0.4359 -0.3059  0.4834
  562TIP3    H1 1692   4.530   3.859   4.958 -0.7980 -2.3950  0.2362
  562TIP3    H2 1693   4.401   3.938   4.958 -0.3506 -1.6128  2.0237
  563TIP3   OH2 1694   4.268   4.198   4.575 -0.9320  0.1211  0.4376
  563TIP3    H1 1695   4.349   4.159   4.609 -1.0176  1.2734  2.1163
  563TIP3    H2 1696   4.217   4.217   4.654 -2.0144  1.1834 -0.4909
  564TIP3   OH2 1697   1.671   1.751   1.547  0.1704 -0.1548 -0.1095
  564TIP3    H1 1698   1.598   1.692   1.526  0.2661 -0.4376  0.3435
  564TIP3    H2 1699   1.660   1.771   1.640  2.5948 -2.9599  0.9381
  565TIP3   OH2 1700   0.072   5.531   3.819  0.1868  0.4460  0.3051
  565TIP3    H1 1701   0.044   5.621   3.833  0.7707  0.3114  2.7441
  565TIP3    H2 1702  -0.006   5.478   3.837 -1.0254  0.4500 -3.9529
  566TIP3   OH2 1703   0.054   0.729   4.495 -0.3178 -0.2618 -0.0368
  566TIP3    H1 1704   0.065   0.811   4.543 -0.0158 -0.7267  0.7043
  566TIP3    H2 1705  -0.022   0.745   4.438 -1.3466 -0.0282  1.3372
  567TIP3   OH2 1706   3.202   5.134   3.506  0.1928  0.2348 -0.7672
  567TIP3    H1 1707   3.243   5.197   3.446 -0.3190  0.8912 -0.4505
  567TIP3    H2 1708   3.215   5.049   3.465  3.9077  0.0615  0.3716
  568TIP3   OH2 1709   2.800   4.823   2.047  0.5233 -0.0941  0.4162
  568TIP3    H1 1710   2.827   4.914   2.042  0.2657 -0.0723 -1.0516
  568TIP3    H2 1711   2.706   4.826   2.067  0.0831  0.0613 -1.4485
  569TIP3   OH2 1712   0.927   2.045   1.721 -0.1023 -0.1625  0.4429
  569TIP3    H1 1713   0.846   1.995   1.708 -0.5484  0.0058  2.3167
  569TIP3    H2 1714   0.912   2.127   1.675  0.7990 -1.7821 -3.0500
  570TIP3   OH2 1715   2.701   4.304   3.198 -0.2909  0.5490 -0.2274
  570TIP3    H1 1716   2.789   4.306   3.161 -0.6010  0.0629 -1.0317
  570TIP3    H2 1717   2.644   4.328   3.125 -0.8810  0.0283  0.0514
  571TIP3   OH2 1718   2.233   2.523   3.369 -0.2820 -0.2283  0.6687
  571TIP3    H1 1719   2.320   2.562   3.358 -0.3875  0.2345  1.4408
  571TIP3    H2 1720   2.239   2.472   3.450 -0.0351 -2.1690 -0.4986
  572TIP3   OH2 1721   5.028   3.284   2.710 -0.1862  0.3833  0.1412
  572TIP3    H1 1722   4.959   3.260   2.771 -0.2233 -0.0435 -0.0660
  572TIP3    H2 1723   4.983   3.333   2.641 -0.0637  1.3413  0.7189
  573TIP3   OH2 1724   3.558   1.607   2.225 -0.3000  0.1188 -0.7403
  573TIP3    H1 1725   3.573   1.644   2.312  1.7098 -1.6072 -0.2640
  573TIP3    H2 1726   3.623   1.648   2.170 -0.2238 -0.2756 -0.9499
  574TIP3   OH2 1727   1.789   5.582   0.278 -0.9362  0.1087 -0.1629
  574TIP3    H1 1728   1.712   5.567   0.332 -1.0872 -0.2397 -0.4748
  574TIP3    H2 1729   1.862   5.551   0.332 -1.1573 -0.9360 -0.4427
  575TIP3   OH2 1730   4.374   1.969   0.032  0.2941 -0.5342  0.0087
  575TIP3    H1 1731   4.369   1.913   0.109  1.7911 -1.2731 -0.3905
  575TIP3    H2 1732   4.351   1.911  -0.041  1.5674 -0.5809 -0.3756
  576TIP3   OH2 1733   5.416   2.071   3.937  0.1510  0.0116  0.0709
  576TIP3    H1 1734   5.370   2.089   4.019 -1.4705 -1.0024 -0.5746
  576TIP3    H2 1735   5.384   2.138   3.876  0.8676  0.3682  0.0754
  577TIP3   OH2 1736   1.966   4.881   0.413  0.0796  0.2956 -0.4089
  577TIP3    H1 1737   1.963   4.944   0.486 -1.0299  0.0749 -0.2436
  577TIP3    H2 1738   2.018   4.925   0.346  0.5777  0.7684  0.2676
  578TIP3   OH2 1739   6.072   1.491   2.299 -0.2257 -0.5149 -0.1464
  578TIP3    H1 1740   6.145   1.553   2.298  2.4683 -3.4253 -1.4100
  578TIP3    H2 1741   6.038   1.492   2.210 -1.6957  0.6401  0.3748
  579TIP3   OH2 1742   2.756   2.042   0.070 -1.1695  0.6556 -0.6119
  579TIP3    H1 1743   2.725   2.063   0.158  0.8013 -1.8477  0.8200
  579TIP3    H2 1744   2.825   1.977   0.084 -0.7670  0.1664 -4.0355
  580TIP3   OH2 1745   5.121   4.657   0.088  0.7470  0.3492  0.0569
  580TIP3    H1 1746   5.154   4.700   0.010  1.4942  1.7800  1.1270
  580TIP3    H2 1747   5.026   4.665   0.082  0.7714 -0.0077 -0.9368
  581TIP3   OH2 1748   5.389   3.157   0.500 -0.8679  0.1342  0.4510
  581TIP3    H1 1749   5.370   3.248   0.524 -3.4501 -0.3051  0.3765
  581TIP3    H2 1750   5.321   3.106   0.544  0.4566 -1.7916  0.3995
  582TIP3   OH2 1751   5.235   1.180   2.550 -0.1569  0.0968  0.0923
  582TIP3    H1 1752   5.291   1.249   2.583 -0.9532  0.4849  0.6677
  582TIP3    H2 1753   5.294   1.107   2.532  0.5071  0.4578  0.7764
  583TIP3   OH2 1754   0.981   0.712   2.934 -0.1895  0.6232  0.0196
  583TIP3    H1 1755   1.001   0.691   3.025 -0.4863  1.0763  0.1966
  583TIP3    H2 1756   1.052   0.771   2.907 -0.4201  0.9699  0.1530
  584TIP3   OH2 1757   4.241   0.112   4.448  0.0181  0.1050 -0.0447
  584TIP3    H1 1758   4.267   0.204   4.456 -0.6549  0.3287 -0.3797
  584TIP3    H2 1759   4.287   0.068   4.519 -0.3878  0.8680  0.7058
  585TIP3   OH2 1760   0.680   2.843   2.633 -0.8616 -0.0870  0.1488
  585TIP3    H1 1761   0.704   2.936   2.633 -0.6989  0.0515  4.1947
  585TIP3    H2 1762   0.732   2.805   2.704 -1.0134 -3.3068 -1.3082
  586TIP3   OH2 1763   3.965   0.826   0.864  0.5265 -0.3519  0.7240
  586TIP3    H1 1764   4.016   0.814   0.944 -0.3146  2.1788  1.7391
  586TIP3    H2 1765   3.902   0.895   0.885  0.7405  0.9675 -2.3274
  587TIP3   OH2 1766   5.308   5.961   2.603  0.5141 -0.2942  0.1357
  587TIP3    H1 1767   5.319   5.948   2.697 -1.8596 -1.5895  0.3128
  587TIP3    H2 1768   5.293   5.873   2.568 -0.2871  0.3246 -1.1688
  588TIP3   OH2 1769   3.176   5.357   2.540 -0.3238 -0.3809  0.4458
  588TIP3    H1 1770   3.180   5.325   2.450  1.0587  3.8007 -1.2258
  588TIP3    H2 1771   3.268   5.371   2.564 -0.7361  2.5509  0.7265
  589TIP3   OH2 1772   0.037   2.898   3.981 -0.3901  0.2033 -0.1873
  589TIP3    H1 1773   0.087   2.974   3.950  2.6701 -1.9670 -1.0711
  589TIP3    H2 1774   0.011   2.922   4.070  1.0837  2.0435 -0.1716
  590TIP3   OH2 1775   0.997   5.536   4.372 -0.1174 -0.2985 -0.1881
  590TIP3    H1 1776   1.052   5.458   4.366 -0.2005 -0.2610 -1.9973
  590TIP3    H2 1777   1.048   5.605   4.328 -0.0186  0.7149  1.4267
  591TIP3   OH2 1778   1.192   3.849   4.337 -0.0414 -0.2714 -0.1641
  591TIP3    H1 1779   1.124   3.830   4.401  1.1861 -0.2965  1.1795
  591TIP3    H2 1780   1.248   3.772   4.338  1.5414  0.8279  0.8166
  592TIP3   OH2 1781   0.868   2.960   5.019 -0.3329 -0.5366 -0.0049
  592TIP3    H1 1782   0.899   2.874   4.989  0.3703 -0.0690 -0.6543
  592TIP3    H2 1783   0.932   2.987   5.084 -0.8337 -0.7145  0.5748
  593TIP3   OH2 1784   2.831   2.279   4.542 -0.4465  0.0612 -0.0478
  593TIP3    H1 1785   2.835   2.184   4.529  1.7194  0.1079 -0.1180
  593TIP3    H2 1786   2.848   2.291   4.636  1.1629  0.4091 -0.3458
  594TIP3   OH2 1787   4.283   3.013   1.357  0.0724  0.6337  0.3191
  594TIP3    H1 1788   4.307   3.076   1.425  1.1666  1.5563 -0.8829
  594TIP3    H2 1789   4.347   3.027   1.288  0.2154 -1.6680 -0.0817
  595TIP3   OH2 1790   3.763   3.917   3.587  0.1069 -0.6143 -0.1330
  595TIP3    H1 1791   3.850   3.903   3.626  0.6144 -1.2580 -1.4047
  595TIP3    H2 1792   3.748   3.837   3.536 -1.1367 -0.3966 -0.1214
  596TIP3   OH2 1793   2.268   1.886   0.076 -0.0308 -0.4277 -0.4676
  596TIP3    H1 1794   2.231   1.813   0.126 -0.0971 -0.9281 -1.2255
  596TIP3    H2 1795   2.300   1.947   0.142 -0.1259 -1.0677  0.1810
  597TIP3   OH2 1796   0.359   4.446   2.704 -0.1223 -0.2279  0.2637
  597TIP3    H1 1797   0.393   4.517   2.759 -2.0838 -0.8145  2.3895
  597TIP3    H2 1798   0.437   4.396   2.678  1.0929  1.4977  0.3953
  598TIP3   OH2 1799   1.618   5.508   4.620  0.4739 -0.0133  0.1406
  598TIP3    H1 1800   1.695   5.564   4.616  1.1030 -0.7466  1.2491
  598TIP3    H2 1801   1.650   5.422   4.592 -0.2952 -0.0139 -0.7980
  599TIP3   OH2 1802   0.409   5.833   1.297  0.2689  0.4216  0.5619
  599TIP3    H1 1803   0.470   5.781   1.350  3.3871  1.3468 -1.8086
  599TIP3    H2 1804   0.449   5.919   1.292 -1.4195  1.1911 -0.8683
  600TIP3   OH2 1805   3.832   3.148   4.778 -0.2294 -0.3412 -0.1858
  600TIP3    H1 1806   3.901   3.156   4.713 -0.8852 -1.0579 -0.9960
  600TIP3    H2 1807   3.761   3.202   4.744 -0.4122 -0.3570  0.1694
  601TIP3   OH2 1808   3.176   4.127   3.187 -0.3217 -0.2403  0.1100
  601TIP3    H1 1809   3.203   4.160   3.272 -1.3746  0.5065  0.1837
  601TIP3    H2 1810   3.174   4.032   3.197  1.8915 -0.3186  0.1713
  602TIP3   OH2 1811   2.134   2.622   2.033  0.1417 -0.3533 -0.0992
  602TIP3    H1 1812   2.159   2.594   1.945 -1.0285 -4.7940  0.7450
  602TIP3    H2 1813   2.044   2.654   2.024  0.3309  0.0606 -0.5958
  603TIP3   OH2 1814   2.415   5.357   0.179  0.1628  0.1911 -0.1069
  603TIP3    H1 1815   2.458   5.275   0.203 -0.9935 -0.7231 -1.0444
  603TIP3    H2 1816   2.337   5.330   0.130  0.2069  1.8537 -1.1812
  604TIP3   OH2 1817   0.883   0.376   1.284 -0.6615  0.6107 -0.4368
  604TIP3    H1 1818   0.821   0.449   1.277  0.0769  1.6244  2.2266
  604TIP3    H2 1819   0.895   0.364   1.378  0.1667 -2.2210 -0.8165
  605TIP3   OH2 1820   5.997   3.297   0.987  0.3085 -0.0204  0.0863
  605TIP3    H1 1821   5.975   3.355   1.060 -1.2819 -0.3220 -0.1174
  605TIP3    H2 1822   6.000   3.209   1.026 -0.8314 -0.2185 -0.2336
  606TIP3   OH2 1823   5.122   1.444   3.257 -0.1377  0.1351  0.4002
  606TIP3    H1 1824   5.191   1.482   3.202  0.3299 -2.3017 -0.8038
  606TIP3    H2 1825   5.053   1.419   3.197 -0.6974 -0.3619  1.2227
  607TIP3   OH2 1826   4.099   0.338   3.689  0.4797  0.0404  0.1980
  607TIP3    H1 1827   4.183   0.310   3.726 -0.4688 -1.7808  1.0438
  607TIP3    H2 1828   4.033   0.308   3.751 -0.8900  0.5360 -0.9572
  608TIP3   OH2 1829   1.699   5.255   4.559  0.8755  0.0729 -0.0833
  608TIP3    H1 1830   1.777   5.230   4.508  1.3756  0.6083  0.4056
  608TIP3    H2 1831   1.703   5.198   4.637  0.5922 -0.1317 -0.2170
  609TIP3   OH2 1832   1.800   4.398   0.639 -0.1149 -0.4105 -0.1604
  609TIP3    H1 1833   1.841   4.373   0.556 -0.2105 -0.1873 -0.2762
  609TIP3    H2 1834   1.707   4.402   0.619  0.0401  2.1699 -0.7271
  610TIP3   OH2 1835   1.680   4.802   0.874 -0.2495 -0.0757 -0.2437
  610TIP3    H1 1836   1.675   4.739   0.946 -0.8635  0.4163  0.1555
  610TIP3    H2 1837   1.624   4.764   0.805  0.6175 -0.7175 -0.6089
  611TIP3   OH2 1838   1.543   3.247   4.877  0.4036 -0.1252 -0.3856
  611TIP3    H1 1839   1.616   3.233   4.937  1.6757 -0.7444 -1.9858
  611TIP3    H2 1840   1.576   3.311   4.813 -0.7694  0.2474 -0.6501
  612TIP3   OH2 1841   0.177   1.161   0.547 -0.3496  0.5639 -0.7897
  612TIP3    H1 1842   0.266   1.185   0.571 -0.9665  0.6785  1.6397
  612TIP3    H2 1843   0.123   1.235   0.577 -1.4894 -0.5816  0.1053
  613TIP3   OH2 1844   2.617   1.658   3.234  0.1421 -0.2494 -0.7641
  613TIP3    H1 1845   2.588   1.568   3.247  1.0024 -0.4241  0.0898
  613TIP3    H2 1846   2.711   1.656   3.252  0.5870  0.4321 -2.7487
  614TIP3   OH2 1847   1.332   4.005   2.422  0.1157  0.4907 -0.2096
  614TIP3    H1 1848   1.417   4.031   2.456  1.1154  0.0437 -2.2401
  614TIP3    H2 1849   1.281   3.983   2.500  2.7268 -1.8339  1.0136
  615TIP3   OH2 1850   1.248   2.607   5.187  0.1534 -0.3960  0.2290
  615TIP3    H1 1851   1.259   2.673   5.118  2.3684 -0.2702  0.6425
  615TIP3    H2 1852   1.295   2.530   5.154 -0.3408 -0.9555  0.8179
  616TIP3   OH2 1853   1.084   3.251   3.550 -0.2322 -0.3537  0.0347
  616TIP3    H1 1854   1.062   3.178   3.493 -0.3370  0.0988 -0.5142
  616TIP3    H2 1855   1.027   3.323   3.520 -0.5976 -0.2343  0.9862
  617TIP3   OH2 1856   5.802   0.400   1.260  0.1795 -0.1664 -0.5194
  617TIP3    H1 1857   5.825   0.370   1.172 -0.8836 -0.5167 -0.6834
  617TIP3    H2 1858   5.885   0.393   1.309  0.5746 -0.8295 -1.2507
  618TIP3   OH2 1859   2.383   1.526   1.342 -0.0668 -0.0784 -0.4838
  618TIP3    H1 1860   2.437   1.546   1.419 -1.0855  2.2970 -0.3087
  618TIP3    H2 1861   2.421   1.445   1.308  2.4158  0.4611  0.7041
  619TIP3   OH2 1862   2.797   4.096   3.388  0.0729 -0.6100 -0.6568
  619TIP3    H1 1863   2.754   4.172   3.349 -1.0257 -0.3502  0.9703
  619TIP3    H2 1864   2.810   4.036   3.315 -1.3847  0.0844 -1.5311
  620TIP3   OH2 1865   3.757   0.163   2.329  0.0640  0.5707  0.9611
  620TIP3    H1 1866   3.791   0.252   2.334  0.8738  0.2414  1.3947
  620TIP3    H2 1867   3.761   0.130   2.418 -0.6517  0.2455  0.8804
  621TIP3   OH2 1868   3.958   5.354   4.828 -0.0092 -0.0283 -0.2553
  621TIP3    H1 1869   4.003   5.279   4.790 -0.7973 -0.8998  0.4674
  621TIP3    H2 1870   3.889   5.375   4.765 -1.0420 -1.1994  0.4174
  622TIP3   OH2 1871   2.990   1.062   4.295 -0.0442  0.3880 -0.3286
  622TIP3    H1 1872   2.940   1.133   4.255  0.2997  1.7499  1.5761
  622TIP3    H2 1873   3.079   1.097   4.304  0.5836 -0.9594 -1.0088
  623TIP3   OH2 1874   1.856   4.867   2.635  0.1869  0.0968 -0.2034
  623TIP3    H1 1875   1.841   4.819   2.554 -0.4984  1.2986 -0.8228
  623TIP3    H2 1876   1.871   4.958   2.607  2.9331  0.0432  0.8092
  624TIP3   OH2 1877   0.694   3.942   1.446  0.2052 -0.1234  0.0103
  624TIP3    H1 1878   0.621   3.923   1.387 -0.4936 -1.2650  1.1573
  624TIP3    H2 1879   0.761   3.981   1.391 -0.8202 -0.1597 -1.3108
  625TIP3   OH2 1880   1.413   1.714   2.617 -0.3921 -0.0631  0.0123
  625TIP3    H1 1881   1.480   1.705   2.685  0.4707  0.4793 -0.7413
  625TIP3    H2 1882   1.462   1.729   2.537 -1.4464  1.3731 -0.4079
  626TIP3   OH2 1883   5.267   3.644   3.900  0.0802  0.0807 -0.1492
  626TIP3    H1 1884   5.358   3.675   3.902  0.1440 -0.1195  0.6371
  626TIP3    H2 1885   5.272   3.555   3.935 -0.1968 -0.5775 -1.7221
  627TIP3   OH2 1886   6.058   1.809   4.141  0.1094 -0.0852 -0.5445
  627TIP3    H1 1887   6.074   1.836   4.050  3.3969 -1.9832 -0.7069
  627TIP3    H2 1888   6.015   1.723   4.133 -1.9238  0.8313 -0.1697
  628TIP3   OH2 1889   0.506   1.008   3.025 -0.3967  0.4899  0.2022
  628TIP3    H1 1890   0.573   1.028   2.959 -0.2027  1.2955  0.6273
  628TIP3    H2 1891   0.548   0.944   3.082 -0.5301 -0.1392 -0.3890
  629TIP3   OH2 1892   4.999   3.528   2.464  0.4137  0.0591 -0.2436
  629TIP3    H1 1893   4.982   3.445   2.419  1.3693 -0.1809 -0.1779
  629TIP3    H2 1894   4.985   3.595   2.397 -2.0124 -0.0021  0.1155
  630TIP3   OH2 1895   2.159   4.150   3.865 -0.0120  0.0956  0.0917
  630TIP3    H1 1896   2.091   4.157   3.931 -0.2402  0.6193 -0.1876
  630TIP3    H2 1897   2.112   4.150   3.782  0.1873 -1.8300 -0.0564
  631TIP3   OH2 1898   4.525   4.692   2.407 -0.0742  0.1827 -0.1637
  631TIP3    H1 1899   4.463   4.765   2.415  1.6291  1.7558 -0.4431
  631TIP3    H2 1900   4.498   4.647   2.327 -0.8583  0.8495 -0.2903
  632TIP3   OH2 1901   3.367   5.375   3.913  0.1684  0.4163 -0.3855
  632TIP3    H1 1902   3.313   5.359   3.836 -0.8145 -0.8775  0.5341
  632TIP3    H2 1903   3.349   5.301   3.971  0.7081  1.4697  1.1923
  633TIP3   OH2 1904   3.332   5.296   1.298 -0.4364  0.0527  0.5423
  633TIP3    H1 1905   3.422   5.323   1.281 -0.4141 -0.1827  0.2838
  633TIP3    H2 1906   3.321   5.309   1.392 -0.8076  2.0909  0.2603
  634TIP3   OH2 1907   5.855   0.799   0.721  0.0717  0.4831  0.1852
  634TIP3    H1 1908   5.855   0.894   0.727  0.1466  0.5612 -0.8445
  634TIP3    H2 1909   5.880   0.781   0.630  1.2301 -0.5454  0.6845
  635TIP3   OH2 1910   4.977   2.344   0.774 -0.7975  0.0521  0.0256
  635TIP3    H1 1911   4.893   2.387   0.785 -1.4323 -0.7613 -1.3842
  635TIP3    H2 1912   5.040   2.415   0.767 -1.2253  0.6729  1.7857
  636TIP3   OH2 1913   2.076   1.360   0.371 -0.0552  0.1185 -0.0477
  636TIP3    H1 1914   2.157   1.380   0.324 -0.1338 -2.9522 -1.7689
  636TIP3    H2 1915   2.012   1.420   0.334  1.1412  1.8675  0.5693
  637TIP3   OH2 1916   4.660   2.101   1.479 -0.3612 -0.0724  0.0978
  637TIP3    H1 1917   4.658   2.016   1.523  1.5541  0.1953  0.8150
  637TIP3    H2 1918   4.668   2.079   1.386 -2.0503 -0.6353  0.0418
  638TIP3   OH2 1919   3.229   3.913   4.532  0.7728  0.8162 -0.2915
  638TIP3    H1 1920   3.229   3.829   4.578 -1.3431  1.0495  0.2599
  638TIP3    H2 1921   3.174   3.970   4.587  1.2302  2.2299 -1.2379
  639TIP3   OH2 1922   3.413   5.480   2.658  0.5418 -0.3487  0.0979
  639TIP3    H1 1923   3.402   5.544   2.728  0.0721 -0.1955 -0.1103
  639TIP3    H2 1924   3.491   5.509   2.610 -1.6772  2.2672 -2.2729
  640TIP3   OH2 1925   2.611   4.605   3.493 -0.2112 -0.0844  0.1167
  640TIP3    H1 1926   2.533   4.630   3.543 -0.2942 -0.4672  0.1777
  640TIP3    H2 1927   2.580   4.538   3.432 -0.6669  2.0338 -2.1640
  641TIP3   OH2 1928   1.451   5.044   4.189  0.5978 -0.1488 -0.3866
  641TIP3    H1 1929   1.483   5.026   4.101  1.3902 -0.8544  0.0298
  641TIP3    H2 1930   1.526   5.084   4.234 -0.4333  2.2755 -0.6266
  642TIP3   OH2 1931   4.152   2.371   3.089  0.2887 -0.3731  0.9009
  642TIP3    H1 1932   4.175   2.281   3.067  2.7108  0.3600  0.1062
  642TIP3    H2 1933   4.210   2.394   3.161 -0.2618  0.5779  1.0637
  643TIP3   OH2 1934   6.060   1.174   3.703 -0.2722 -0.5513 -0.5098
  643TIP3    H1 1935   6.147   1.176   3.661 -0.0583 -0.2886 -0.0609
  643TIP3    H2 1936   6.016   1.251   3.669 -0.0198 -0.2188 -0.0919
  644TIP3   OH2 1937   4.986   5.977   1.998  0.2390  0.0206  0.0967
  644TIP3    H1 1938   4.895   5.959   2.021 -0.9394  0.6575 -3.4084
  644TIP3    H2 1939   5.022   5.891   1.974 -0.0395  0.0160 -0.3136
  645TIP3   OH2 1940   3.559   0.438   2.674  0.0273 -0.2056 -0.5706
  645TIP3    H1 1941   3.494   0.503   2.648 -0.8341 -0.3728  1.0237
  645TIP3    H2 1942   3.643   0.482   2.664 -0.4681  0.7328 -0.6556
  646TIP3   OH2 1943   5.108   0.871   2.176 -0.5787 -0.2301  0.6675
  646TIP3    H1 1944   5.107   0.853   2.082  2.3961  1.2333  0.2322
  646TIP3    H2 1945   5.102   0.785   2.217 -0.1984 -1.0524 -0.9374
  647TIP3   OH2 1946   6.137   5.008   3.894 -0.2974 -0.4778 -0.1894
  647TIP3    H1 1947   6.082   5.079   3.863  1.0697  0.4875 -0.4676
  647TIP3    H2 1948   6.209   5.051   3.939 -0.9048 -1.7552  2.2094
  648TIP3   OH2 1949   1.757   2.087   1.274 -0.0418  0.4456  0.2108
  648TIP3    H1 1950   1.761   2.111   1.181  0.4520  3.2658  0.8775
  648TIP3    H2 1951   1.811   2.008   1.280 -1.2496 -0.6929 -2.0711
  649TIP3   OH2 1952   6.310   5.027   1.501 -0.0383 -0.7074  0.0344
  649TIP3    H1 1953   6.248   4.954   1.504  1.4547 -2.0135  0.9105
  649TIP3    H2 1954   6.391   4.990   1.536  1.5443  0.6417 -2.0160
  650TIP3   OH2 1955   2.120   1.739   2.599 -0.0351 -0.5545 -0.0566
  650TIP3    H1 1956   2.163   1.824   2.593  1.1165 -1.2521 -2.7084
  650TIP3    H2 1957   2.027   1.758   2.583  0.2817  0.1402 -1.1182
  651TIP3   OH2 1958   6.234   0.558   4.998  0.0759 -0.0525 -0.2486
  651TIP3    H1 1959   6.222   0.464   4.984 -1.2320 -0.1568  1.2048
  651TIP3    H2 1960   6.253   0.594   4.912 -0.2272 -1.5470 -0.9608
  652TIP3   OH2 1961   0.568   3.611   4.929  0.0812  0.2318  0.1571
  652TIP3    H1 1962   0.561   3.705   4.911  1.3939  0.3580  0.2001
  652TIP3    H2 1963   0.619   3.607   5.010  0.8661 -0.5444 -0.3651
  653TIP3   OH2 1964   1.288   0.078   2.886  0.3533  0.1553 -0.3106
  653TIP3    H1 1965   1.314   0.118   2.969  0.8568 -0.7301 -0.0205
  653TIP3    H2 1966   1.206   0.032   2.907  1.0238 -0.9486 -0.0076
  654TIP3   OH2 1967   2.043   1.921   4.333  0.2795 -0.0871  0.5057
  654TIP3    H1 1968   1.966   1.882   4.290  0.7685  0.2688 -0.7434
  654TIP3    H2 1969   2.114   1.861   4.311  0.2244 -0.9299  2.4558
  655TIP3   OH2 1970   3.670   3.093   4.262  0.2231 -0.2288 -0.5534
  655TIP3    H1 1971   3.650   3.042   4.183 -0.0946 -0.8003 -0.1094
  655TIP3    H2 1972   3.711   3.031   4.321  0.3257  0.1638 -0.2094
  656TIP3   OH2 1973   4.856   4.123   2.678  0.1916 -0.5497 -0.4626
  656TIP3    H1 1974   4.943   4.097   2.648  0.0233  0.0464 -1.5394
  656TIP3    H2 1975   4.818   4.042   2.713  0.5480 -1.2278 -1.5760
  657TIP3   OH2 1976   3.820   4.242   1.499 -0.1198 -0.5989 -0.0253
  657TIP3    H1 1977   3.728   4.260   1.518 -0.8408 -2.3668 -1.5310
  657TIP3    H2 1978   3.818   4.181   1.426  2.2500 -1.3224  0.4206
  658TIP3   OH2 1979   5.061   1.717   2.015  0.2276  0.1539  0.2715
  658TIP3    H1 1980   5.050   1.650   1.947  2.5267 -0.4740  0.4333
  658TIP3    H2 1981   5.033   1.674   2.096  1.9896 -0.7888  0.4247
  659TIP3   OH2 1982   1.047   0.139   3.634  0.1982  0.1620 -0.0666
  659TIP3    H1 1983   0.991   0.212   3.606  0.5972  1.2081  1.7281
  659TIP3    H2 1984   0.997   0.096   3.703  1.4531  0.9940  1.4245
  660TIP3   OH2 1985   0.146   0.381   4.211  0.1121 -0.1019 -0.7268
  660TIP3    H1 1986   0.241   0.395   4.211  0.5498 -2.5831 -0.8456
  660TIP3    H2 1987   0.132   0.314   4.277 -1.2152 -1.5125 -2.3477
  661TIP3   OH2 1988   2.023   0.175   1.931 -0.2926  0.3536  0.2771
  661TIP3    H1 1989   1.949   0.233   1.909  0.8636  1.4144 -1.0366
  661TIP3    H2 1990   1.986   0.087   1.928 -1.6751  0.9003  0.3984
  662TIP3   OH2 1991   0.891   2.478   2.810 -0.3255  0.9961  0.6671
  662TIP3    H1 1992   0.873   2.391   2.774  1.0001  0.8745  0.2177
  662TIP3    H2 1993   0.807   2.509   2.843 -1.6191  1.0028 -2.3156
  663TIP3   OH2 1994   2.651   2.726   4.691  0.3386 -0.8132 -0.2563
  663TIP3    H1 1995   2.567   2.694   4.722  0.2949 -0.9947 -0.5547
  663TIP3    H2 1996   2.661   2.686   4.604  1.4579 -2.0517  0.4145
  664TIP3   OH2 1997   1.441   3.722   3.249  0.3577  0.1383  0.0962
  664TIP3    H1 1998   1.388   3.748   3.324  0.6578  2.2306 -0.3482
  664TIP3    H2 1999   1.472   3.634   3.270 -0.2071  0.3659  2.0562
  665TIP3   OH2 2000  -0.022   5.245   4.475  0.4026  0.0524  0.0199
  665TIP3    H1 2001   0.015   5.229   4.562 -1.9599  0.8667  1.2651
  665TIP3    H2 2002   0.046   5.293   4.428  0.9671  1.4910  2.1587
  666TIP3   OH2 2003   2.785   5.879   1.400 -0.3113  0.2617  0.1044
  666TIP3    H1 2004   2.808   5.915   1.314 -0.8229  0.4015  0.0222
  666TIP3    H2 2005   2.868   5.877   1.448  0.3643 -1.4976 -0.9919
  667TIP3   OH2 2006   1.044   2.978   2.679 -0.1240 -0.3751  0.3057
  667TIP3    H1 2007   1.098   2.937   2.612 -0.6050 -0.3578 -0.0984
  667TIP3    H2 2008   1.100   3.046   2.717  0.2202 -0.5207  0.0612
  668TIP3   OH2 2009   5.222   0.048   0.072  0.1082  0.6147 -0.3153
  668TIP3    H1 2010   5.193  -0.007   0.145  0.3737  1.0254  0.1033
  668TIP3    H2 2011   5.311   0.074   0.095  0.0668  1.0387 -0.6172
  669TIP3   OH2 2012   3.801   5.850   0.781  0.0502 -0.1163  0.1490
  669TIP3    H1 2013   3.799   5.916   0.849  0.9749 -0.2058  0.2706
  669TIP3    H2 2014   3.846   5.775   0.821  2.3966  0.5153 -1.1276
  670TIP3   OH2 2015   4.965   5.767   0.001  0.1757 -0.0246  0.4133
  670TIP3    H1 2016   4.950   5.740   0.091 -0.4826  0.7734  0.5616
  670TIP3    H2 2017   5.014   5.849   0.008 -1.6412  1.1423  0.1382
  671TIP3   OH2 2018   3.890   0.248   3.037 -0.3005 -0.3449 -0.0970
  671TIP3    H1 2019   3.922   0.335   3.063  2.3021 -0.4575 -2.4574
  671TIP3    H2 2020   3.964   0.190   3.051 -0.9522 -1.5799 -1.4776
  672TIP3   OH2 2021   0.980   3.470   2.222  0.1550  0.5401  0.4060
  672TIP3    H1 2022   0.918   3.490   2.292  0.4417 -2.2721  1.5854
  672TIP3    H2 2023   0.960   3.380   2.196  0.6050  1.1824 -2.6240
  673TIP3   OH2 2024   5.587   0.295   0.646  0.5154  0.2895 -0.0662
  673TIP3    H1 2025   5.660   0.302   0.584  0.5403 -0.1334 -0.0870
  673TIP3    H2 2026   5.509   0.302   0.590  0.5380 -0.0264 -0.1374
  674TIP3   OH2 2027   3.615   0.058   3.368 -0.3174 -0.2789  0.0192
  674TIP3    H1 2028   3.612   0.082   3.275 -0.8959 -1.4732 -0.2943
  674TIP3    H2 2029   3.655  -0.029   3.368 -0.0812 -0.1730  0.9223
  675TIP3   OH2 2030   2.323   4.276   2.557  0.2470 -0.2342  1.6344
  675TIP3    H1 2031   2.269   4.339   2.605  0.3650  1.8179 -0.6936
  675TIP3    H2 2032   2.266   4.243   2.488  0.8132 -1.1558  1.5825
  676TIP3   OH2 2033   4.182   0.480   2.159 -0.4598  0.2020  0.1221
  676TIP3    H1 2034   4.102   0.533   2.157  0.0869  1.0260 -0.8269
  676TIP3    H2 2035   4.151   0.390   2.161 -1.4069  0.5174  0.3495
  677TIP3   OH2 2036   2.868   3.023   0.275 -0.2612  0.2577  0.0938
  677TIP3    H1 2037   2.836   2.938   0.304  1.8873 -1.0646 -1.1202
  677TIP3    H2 2038   2.827   3.086   0.335  0.4249 -1.8920  3.0984
  678TIP3   OH2 2039   0.551   0.306   3.875 -0.3964 -0.0748  0.4986
  678TIP3    H1 2040   0.603   0.242   3.827 -0.9846 -0.5638  0.5028
  678TIP3    H2 2041   0.585   0.303   3.965 -0.4390 -0.4021  0.5036
  679TIP3   OH2 2042   5.440   5.835   0.910 -0.2091 -0.0879  0.2223
  679TIP3    H1 2043   5.412   5.918   0.870  0.8084  0.0428 -0.2454
  679TIP3    H2 2044   5.530   5.824   0.882 -0.4695 -1.6083 -0.1138
  680TIP3   OH2 2045   6.281   0.017   3.487 -0.2660 -0.5806  0.9587
  680TIP3    H1 2046   6.205  -0.018   3.440 -0.5114  1.6739 -0.4954
  680TIP3    H2 2047   6.243   0.080   3.549  0.3972  1.2936 -0.4599
  681TIP3   OH2 2048   5.714   2.099   2.031  0.2527  0.1359  0.0595
  681TIP3    H1 2049   5.762   2.159   2.088  0.8007  0.3481 -0.6148
  681TIP3    H2 2050   5.659   2.047   2.091  2.3327 -1.0887  1.0192
  682TIP3   OH2 2051   4.833   3.292   3.600 -0.2321 -0.7828 -0.1128
  682TIP3    H1 2052   4.872   3.206   3.620  1.4123  0.3497  1.9030
  682TIP3    H2 2053   4.809   3.328   3.685  1.7421  1.9212 -0.5565
  683TIP3   OH2 2054   2.288   3.319   4.206  0.5526 -0.3151 -0.8667
  683TIP3    H1 2055   2.319   3.377   4.136  0.3573  0.8125 -0.0485
  683TIP3    H2 2056   2.345   3.339   4.280  1.3228 -2.1147 -0.9142
  684TIP3   OH2 2057   2.286   3.755   3.717  0.2008  0.0458  0.6230
  684TIP3    H1 2058   2.192   3.739   3.707 -0.1740  1.7849  1.0087
  684TIP3    H2 2059   2.309   3.810   3.642  0.7770  0.1077  0.8408
  685TIP3   OH2 2060   5.327   5.407   2.790  0.0469  0.1379  0.4633
  685TIP3    H1 2061   5.297   5.335   2.845 -0.0536  0.0975  0.3554
  685TIP3    H2 2062   5.421   5.390   2.776 -0.4731 -1.4384 -1.7551
  686TIP3   OH2 2063   4.239   4.890   0.835  0.2834  0.3805  0.1002
  686TIP3    H1 2064   4.163   4.850   0.877  1.5873  0.4052  2.6480
  686TIP3    H2 2065   4.221   4.984   0.836  1.3684  0.6458  3.1243
  687TIP3   OH2 2066   4.112   0.593   0.059 -0.2116  0.1277 -0.9527
  687TIP3    H1 2067   4.189   0.573   0.113  1.0283  0.2666 -2.5817
  687TIP3    H2 2068   4.038   0.582   0.118  0.9520 -1.4011  0.3208
  688TIP3   OH2 2069   2.579   0.589   0.119 -0.2144  0.1984  0.6671
  688TIP3    H1 2070   2.519   0.537   0.065  0.9940  1.0048 -1.5976
  688TIP3    H2 2071   2.533   0.601   0.202 -2.7950  0.0493 -0.6548
  689TIP3   OH2 2072   4.583   2.831   4.507 -0.7102 -0.1418  0.4370
  689TIP3    H1 2073   4.608   2.886   4.581  1.9432 -1.0586  0.3358
  689TIP3    H2 2074   4.666   2.814   4.461 -2.0700 -0.6980 -1.9846
  690TIP3   OH2 2075   2.211   4.647   1.549 -0.0471 -0.0602  0.2754
  690TIP3    H1 2076   2.165   4.728   1.528  0.3972  0.0273 -0.3612
  690TIP3    H2 2077   2.144   4.579   1.537  0.3904 -0.1143 -2.3197
  691TIP3   OH2 2078   5.189   5.216   2.949  0.2638  0.4084  0.3902
  691TIP3    H1 2079   5.128   5.202   3.022  0.4985  1.5751  0.8241
  691TIP3    H2 2080   5.135   5.253   2.879  0.5595  2.0839  1.0053
  692TIP3   OH2 2081   5.851   4.686   0.773  0.0003 -0.2520 -0.4128
  692TIP3    H1 2082   5.782   4.722   0.717 -0.5885  0.4917  0.7562
  692TIP3    H2 2083   5.931   4.700   0.724 -0.6751 -1.4489 -1.9586
  693TIP3   OH2 2084   1.158   5.872   4.827 -0.1558 -0.3863 -0.0310
  693TIP3    H1 2085   1.166   5.886   4.921 -1.6161  0.5949 -0.0325
  693TIP3    H2 2086   1.188   5.782   4.814  3.4642  0.5278  0.8532
  694TIP3   OH2 2087   3.896   1.018   2.786  0.1994  0.3698  0.3456
  694TIP3    H1 2088   3.801   1.014   2.773  0.0751  0.5308  1.1559
  694TIP3    H2 2089   3.918   1.110   2.771 -0.1693  0.8797  2.6101
  695TIP3   OH2 2090   0.064   5.948   4.679 -0.2396  0.4149  0.0151
  695TIP3    H1 2091   0.110   6.029   4.701  1.0604 -0.2020 -0.2621
  695TIP3    H2 2092   0.132   5.893   4.639 -1.4653 -0.1767 -1.3522
  696TIP3   OH2 2093   4.349   2.908   1.775 -0.3981 -0.3333  0.4198
  696TIP3    H1 2094   4.371   2.819   1.749  1.8407  0.7471 -1.7710
  696TIP3    H2 2095   4.430   2.943   1.812 -1.3606  0.6832  1.6274
  697TIP3   OH2 2096   4.658   1.455   4.629 -0.1187 -0.0538 -0.6728
  697TIP3    H1 2097   4.734   1.433   4.684 -0.4551  0.4042 -0.0069
  697TIP3    H2 2098   4.597   1.383   4.642 -0.0155 -0.1658 -0.8022
  698TIP3   OH2 2099   2.260   3.486   1.201  0.2677 -0.0626  0.2324
  698TIP3    H1 2100   2.352   3.466   1.219  0.0641 -0.2934  1.0496
  698TIP3    H2 2101   2.228   3.409   1.154  0.6563  0.3066 -0.6725
  699TIP3   OH2 2102   3.920   4.193   3.813  0.3559  0.1226 -0.2967
  699TIP3    H1 2103   3.998   4.145   3.783 -0.3906 -1.1868 -0.1882
  699TIP3    H2 2104   3.898   4.249   3.739 -0.1638 -1.4722 -1.3943
  700TIP3   OH2 2105   3.728   1.801   4.100 -0.5327  0.0432 -0.1204
  700TIP3    H1 2106   3.658   1.800   4.166  0.7768  1.0491  1.3637
  700TIP3    H2 2107   3.710   1.725   4.044 -1.2192 -1.3775  1.9167
  701TIP3   OH2 2108   2.514   4.264   1.920  0.3267 -0.1748  0.7365
  701TIP3    H1 2109   2.510   4.227   1.832  0.3259 -0.7870  0.9907
  701TIP3    H2 2110   2.430   4.242   1.959  0.6107 -0.5556  1.1427
  702TIP3   OH2 2111   4.110   5.309   4.277 -0.2971  0.2607 -0.1894
  702TIP3    H1 2112   4.205   5.303   4.264 -0.2493 -0.1062  0.2820
  702TIP3    H2 2113   4.074   5.306   4.189 -0.0156 -2.5872 -0.2867
  703TIP3   OH2 2114   0.790   3.347   4.729  0.0888  0.0638  0.2649
  703TIP3    H1 2115   0.813   3.430   4.770 -0.5226  1.3866 -1.8696
  703TIP3    H2 2116   0.735   3.301   4.793 -0.7424  1.9405  0.9427
  704TIP3   OH2 2117   0.037   2.526   1.015 -0.2408 -0.1598 -0.4998
  704TIP3    H1 2118   0.078   2.584   1.079  0.4215 -0.7323 -0.3950
  704TIP3    H2 2119  -0.008   2.460   1.068 -2.3119  1.1077 -0.5861
  705TIP3   OH2 2120   1.825   2.270   1.464  0.3529  0.3931 -0.2069
  705TIP3    H1 2121   1.772   2.221   1.401  1.7589 -0.4034 -0.8198
  705TIP3    H2 2122   1.839   2.208   1.536  0.5991  0.5232 -0.1417
  706TIP3   OH2 2123   4.141   0.732   1.602 -0.2096 -0.2978  0.6660
  706TIP3    H1 2124   4.104   0.702   1.685  0.7415  0.2631  1.3237
  706TIP3    H2 2125   4.102   0.676   1.536  0.6189 -2.2317  1.7218
  707TIP3   OH2 2126   4.639   2.193   4.843 -0.0558  0.1670  0.2797
  707TIP3    H1 2127   4.733   2.206   4.831  0.1935 -0.3798  1.5095
  707TIP3    H2 2128   4.627   2.188   4.938 -1.1580 -1.0113  0.1079
  708TIP3   OH2 2129   5.613   2.709   4.315 -0.0917  0.1663  0.1313
  708TIP3    H1 2130   5.690   2.671   4.271 -0.9311 -0.0292 -1.2186
  708TIP3    H2 2131   5.574   2.636   4.363 -0.2170 -0.0586 -0.3114
  709TIP3   OH2 2132   5.777   4.173   4.101 -0.1994  0.2043  0.1348
  709TIP3    H1 2133   5.807   4.231   4.171 -1.4403  1.0612 -0.0040
  709TIP3    H2 2134   5.818   4.209   4.022 -0.8261  0.7926  0.0737
  710TIP3   OH2 2135   6.107   2.856   2.630 -0.3983 -0.6100  0.3924
  710TIP3    H1 2136   6.164   2.837   2.555 -0.9919  0.5403 -0.3767
  710TIP3    H2 2137   6.147   2.808   2.703  2.0827  0.8380  0.1011
  711TIP3   OH2 2138   5.481   1.025   3.854  0.1632  0.1892  0.1433
  711TIP3    H1 2139   5.421   1.099   3.845  2.0409  2.1472  2.5413
  711TIP3    H2 2140   5.445   0.974   3.927  0.9140  0.9015  1.0283
  712TIP3   OH2 2141   5.317   1.578   0.005 -0.0417  0.0154  0.1402
  712TIP3    H1 2142   5.305   1.565   0.100 -1.5271  0.3515  0.0262
  712TIP3    H2 2143   5.324   1.673  -0.005 -1.3185  0.0946 -0.2038
  713TIP3   OH2 2144   4.859   4.005   2.369  0.2228 -0.2616  0.1114
  713TIP3    H1 2145   4.833   3.962   2.288 -0.0996 -1.9303  1.0692
  713TIP3    H2 2146   4.848   3.939   2.437  2.9890  0.2350  1.1828
  714TIP3   OH2 2147   3.870   5.732   0.487 -0.6753  0.3407 -0.0108
  714TIP3    H1 2148   3.905   5.706   0.572 -0.6460  1.1071  0.2195
  714TIP3    H2 2149   3.940   5.712   0.425 -0.2413  0.8695  0.3026
  715TIP3   OH2 2150   1.743   0.550   1.492 -0.1013  0.3475 -0.3831
  715TIP3    H1 2151   1.799   0.616   1.533  1.4264 -1.0892 -0.0322
  715TIP3    H2 2152   1.708   0.498   1.565  0.1834 -0.3332 -0.7149
  716TIP3   OH2 2153   5.348   0.543   4.829  0.1820  0.0494 -0.3098
  716TIP3    H1 2154   5.302   0.532   4.746 -1.9070 -0.1102  0.7819
  716TIP3    H2 2155   5.381   0.456   4.850 -0.0371 -0.0922 -0.5515
  717TIP3   OH2 2156   2.098   0.862   0.277 -0.4043  0.0195  0.0782
  717TIP3    H1 2157   2.126   0.884   0.366 -1.8461 -0.1182  0.5982
  717TIP3    H2 2158   2.174   0.880   0.222  0.8703 -0.8982  1.4638
  718TIP3   OH2 2159   2.347   0.176   0.455 -0.1887 -0.1250 -0.3809
  718TIP3    H1 2160   2.264   0.198   0.413 -0.2925 -0.1917 -0.2081
  718TIP3    H2 2161   2.352   0.081   0.450 -2.2391 -0.6417  3.5604
  719TIP3   OH2 2162   3.506   4.691   2.639  0.2715 -0.1403 -0.5520
  719TIP3    H1 2163   3.581   4.684   2.580 -0.7412 -0.2575 -1.8663
  719TIP3    H2 2164   3.462   4.606   2.633  0.2722 -0.2335  0.5633
  720TIP3   OH2 2165   4.905   2.223   2.883 -0.3299  0.4722  0.7202
  720TIP3    H1 2166   4.899   2.181   2.797  2.7505 -0.3474  0.7956
  720TIP3    H2 2167   4.828   2.192   2.930 -0.3968 -1.6771 -0.6791
  721TIP3   OH2 2168   1.207   0.848   0.738 -0.7140  0.0153  0.3945
  721TIP3    H1 2169   1.284   0.887   0.780  0.7095 -1.5258 -0.6344
  721TIP3    H2 2170   1.192   0.902   0.660  0.2351 -0.4770 -0.1536
  722TIP3   OH2 2171   5.341   4.599   5.205 -0.2402 -0.4326  0.4828
  722TIP3    H1 2172   5.262   4.582   5.154 -0.5969 -0.1218  0.9338
  722TIP3    H2 2173   5.369   4.686   5.178  0.6705 -1.0383 -0.6153
  723TIP3   OH2 2174   0.656   1.698   3.282 -0.2253  0.0741  0.2046
  723TIP3    H1 2175   0.750   1.686   3.267 -0.2406 -1.9645  1.3163
  723TIP3    H2 2176   0.628   1.756   3.211  1.5200 -0.8887 -1.3916
  724TIP3   OH2 2177   5.954   3.958   0.935  0.4199  0.6269  0.3459
  724TIP3    H1 2178   5.927   3.923   1.020  0.7916  1.6299  0.8906
  724TIP3    H2 2179   5.892   4.029   0.918  0.4712  0.5594 -0.1349
  725TIP3   OH2 2180   0.937   0.599   3.212 -0.4275 -0.2288  0.5776
  725TIP3    H1 2181   0.866   0.650   3.252  0.3635  1.0721  0.3798
  725TIP3    H2 2182   1.016   0.650   3.230  0.0543  0.1338 -2.1330
  726TIP3   OH2 2183   0.135   0.680   3.199 -0.1997  0.3224  0.1634
  726TIP3    H1 2184   0.064   0.721   3.149 -0.7581 -0.7704  0.0111
  726TIP3    H2 2185   0.119   0.706   3.290 -1.0127 -0.1646  0.1796
  727TIP3   OH2 2186   1.950   0.093   2.593  0.7222 -0.0248 -0.4537
  727TIP3    H1 2187   1.900   0.154   2.539  1.9200 -0.4909 -2.1638
  727TIP3    H2 2188   2.015   0.147   2.637  0.9854  0.1240 -1.0073
  728TIP3   OH2 2189   1.278   2.309   3.917 -0.0957 -0.0234 -0.6517
  728TIP3    H1 2190   1.348   2.288   3.856 -1.4070 -0.3612 -2.1131
  728TIP3    H2 2191   1.207   2.248   3.894 -0.8808  0.2965  0.7679
  729TIP3   OH2 2192   5.439   4.449   1.237 -0.0712 -0.0228 -0.1932
  729TIP3    H1 2193   5.385   4.446   1.158 -2.1616  0.1113  1.1686
  729TIP3    H2 2194   5.446   4.543   1.257  1.3948  0.0258 -0.7816
  730TIP3   OH2 2195   1.095   5.445   0.522  0.0044 -0.2646  0.5976
  730TIP3    H1 2196   1.019   5.431   0.467 -0.8324 -0.8580  1.8531
  730TIP3    H2 2197   1.137   5.359   0.527  1.2363  0.2058 -0.6980
  731TIP3   OH2 2198   5.239   0.605   1.053  0.3344 -0.0609 -0.3351
  731TIP3    H1 2199   5.207   0.516   1.038 -2.1428  0.4635  1.2219
  731TIP3    H2 2200   5.285   0.628   0.973 -0.9250 -1.9309 -1.6733
  732TIP3   OH2 2201   3.177   5.679   0.203 -0.7228 -0.7402 -0.2993
  732TIP3    H1 2202   3.219   5.740   0.263 -1.3747  0.2570 -0.8372
  732TIP3    H2 2203   3.249   5.639   0.155 -0.3195  0.0104 -0.3216
  733TIP3   OH2 2204   4.085   3.291   3.390 -0.3335  0.2366 -0.7133
  733TIP3    H1 2205   4.076   3.196   3.391 -0.4930  0.2456  0.5690
  733TIP3    H2 2206   4.011   3.322   3.338 -2.1586 -0.2018  1.4953
  734TIP3   OH2 2207   4.545   2.959   3.967 -0.4877 -0.3105 -0.0577
  734TIP3    H1 2208   4.616   2.902   3.995 -1.4312 -1.2169  0.5579
  734TIP3    H2 2209   4.571   3.047   3.997 -0.6121 -0.9566  2.1011
  735TIP3   OH2 2210   2.209   4.995   3.278  0.1141  0.6345 -0.8918
  735TIP3    H1 2211   2.259   5.076   3.277  1.3040 -0.0479  0.3800
  735TIP3    H2 2212   2.251   4.939   3.213  0.1750  0.5251 -0.7577
  736TIP3   OH2 2213   2.755   1.190   5.018  0.3448 -0.5115  0.4668
  736TIP3    H1 2214   2.753   1.095   5.025 -0.5508 -0.5135  0.3190
  736TIP3    H2 2215   2.700   1.221   5.090 -2.3370 -0.2676 -1.4835
  737TIP3   OH2 2216   6.078   3.719   2.966 -0.3496 -0.3684 -0.3570
  737TIP3    H1 2217   6.061   3.790   3.029  1.4766  0.7011 -1.0014
  737TIP3    H2 2218   6.159   3.679   2.996 -0.3758 -0.9724 -1.0803
  738TIP3   OH2 2219   4.690   5.507   1.706  0.3448 -0.2789 -0.3844
  738TIP3    H1 2220   4.782   5.510   1.681  0.8976  3.0969  1.4681
  738TIP3    H2 2221   4.688   5.458   1.788  0.4194 -0.5682 -0.5533
  739TIP3   OH2 2222   4.114   3.479   4.809  0.3909 -0.2845  0.7810
  739TIP3    H1 2223   4.149   3.465   4.721 -1.1296 -1.7376  0.3719
  739TIP3    H2 2224   4.084   3.570   4.809  1.6154  0.1361  0.2598
  740TIP3   OH2 2225   1.895   1.784   1.955 -0.1392  0.2116  0.0578
  740TIP3    H1 2226   1.808   1.803   1.919 -0.2289 -0.9615 -0.3749
  740TIP3    H2 2227   1.943   1.866   1.944 -1.3037  1.0116  0.6858
  741TIP3   OH2 2228   4.164   4.702   0.063 -0.1186 -0.2248 -0.3836
  741TIP3    H1 2229   4.148   4.787   0.021 -1.1754  1.1234  2.4296
  741TIP3    H2 2230   4.104   4.642   0.020  0.7030  0.4013 -2.5051
  742TIP3   OH2 2231   0.077   1.565   3.944 -0.3381 -0.1529 -0.1397
  742TIP3    H1 2232   0.098   1.476   3.973 -1.4202 -0.8931 -1.5061
  742TIP3    H2 2233   0.012   1.553   3.874  0.7661  1.6217 -1.5607
  743TIP3   OH2 2234   3.897   5.962   3.691  0.6808  0.2906  0.3398
  743TIP3    H1 2235   3.835   6.033   3.673  1.3231  0.2813 -2.2561
  743TIP3    H2 2236   3.846   5.899   3.742 -0.0664  2.2853  2.2222
  744TIP3   OH2 2237   3.814   5.843   5.161  0.2405 -0.0723  0.5866
  744TIP3    H1 2238   3.812   5.889   5.078 -0.0833  0.5695  0.9472
  744TIP3    H2 2239   3.907   5.826   5.177  0.5184  1.7982  1.1706
  745TIP3   OH2 2240   5.228   1.107   4.964  0.3377 -0.5128 -0.1391
  745TIP3    H1 2241   5.317   1.080   4.988  1.0437  1.6983  0.0048
  745TIP3    H2 2242   5.182   1.114   5.048 -0.2036 -2.2380 -0.2536
  746TIP3   OH2 2243   0.018   4.963   4.375 -0.0683 -0.4773  0.5520
  746TIP3    H1 2244   0.043   4.973   4.283 -2.6388 -0.5770 -0.2241
  746TIP3    H2 2245   0.042   5.046   4.416  0.4616 -0.1659 -0.3665
  747TIP3   OH2 2246   0.189   1.411   4.273 -0.0809  0.3942  0.7193
  747TIP3    H1 2247   0.245   1.370   4.208  0.4751 -0.4631  1.7164
  747TIP3    H2 2248   0.235   1.490   4.299  0.0778  0.3242  0.6494
  748TIP3   OH2 2249   5.108   2.474   1.333 -0.0283 -0.4287 -0.1537
  748TIP3    H1 2250   5.124   2.495   1.425  0.1050 -1.9549  0.1934
  748TIP3    H2 2251   5.176   2.411   1.310 -0.3454 -0.4238 -1.1563
  749TIP3   OH2 2252   4.776   1.546   4.393 -0.5478  0.3536 -0.0009
  749TIP3    H1 2253   4.723   1.506   4.325 -0.5359  0.4634 -0.0752
  749TIP3    H2 2254   4.739   1.514   4.475 -2.2128  2.2072  0.0522
  750TIP3   OH2 2255   3.758   2.698   4.197  0.3020 -0.2079 -0.3505
  750TIP3    H1 2256   3.787   2.742   4.117  0.7584 -2.0458 -1.2453
  750TIP3    H2 2257   3.817   2.623   4.206 -0.0853 -0.3463  1.4266
  751TIP3   OH2 2258   2.416   5.194   3.842 -0.4177 -0.0047  0.0107
  751TIP3    H1 2259   2.385   5.115   3.797  0.5290 -0.5357  0.2733
  751TIP3    H2 2260   2.342   5.220   3.897 -0.2875 -1.4901  0.9324
  752TIP3   OH2 2261   5.978   2.974   4.351  0.1248 -0.4514  0.0298
  752TIP3    H1 2262   6.003   2.946   4.262  0.3569  1.0346 -0.4024
  752TIP3    H2 2263   5.971   3.069   4.344 -2.4149 -0.5117  0.9870
  753TIP3   OH2 2264   2.072   2.875   3.127  0.2147 -0.0249  0.3410
  753TIP3    H1 2265   2.140   2.940   3.112  0.3480  0.1084  1.4687
  753TIP3    H2 2266   2.076   2.818   3.050  1.0154  0.4891 -0.0043
  754TIP3   OH2 2267   3.508   1.342   4.693 -0.4283  0.0982  0.2884
  754TIP3    H1 2268   3.430   1.290   4.671  0.1142 -1.1339  1.1949
  754TIP3    H2 2269   3.573   1.277   4.719  0.6548  1.1743  0.3126
  755TIP3   OH2 2270   2.441   3.098   4.806 -0.1787 -0.0976 -0.2966
  755TIP3    H1 2271   2.415   3.182   4.769  0.3437  1.4163  2.5330
  755TIP3    H2 2272   2.507   3.065   4.745  1.4521  2.7621 -0.2584
  756TIP3   OH2 2273   3.753   2.140   2.892  0.2423  0.2608 -0.1671
  756TIP3    H1 2274   3.826   2.183   2.849  0.5498  0.5392  0.6175
  756TIP3    H2 2275   3.729   2.068   2.834 -1.1898  2.2681 -2.2252
  757TIP3   OH2 2276   0.865   4.599   1.873 -0.1169 -0.2714 -0.6106
  757TIP3    H1 2277   0.875   4.593   1.968 -0.4479  0.7375 -0.5081
  757TIP3    H2 2278   0.785   4.649   1.860 -0.2276 -0.6427 -1.4304
  758TIP3   OH2 2279   0.970   2.170   3.593  0.8689  0.3376  0.1126
  758TIP3    H1 2280   0.970   2.256   3.551  0.5069 -0.3484 -1.3619
  758TIP3    H2 2281   1.011   2.112   3.528 -0.3313 -0.8950  0.4233
  759TIP3   OH2 2282   3.568   4.362   1.248 -0.2973  0.1130  0.2541
  759TIP3    H1 2283   3.550   4.282   1.297 -1.6237  0.4297  0.3347
  759TIP3    H2 2284   3.661   4.358   1.228 -0.3952 -1.5919 -0.0023
  760TIP3   OH2 2285   5.460   3.291   4.874  0.0560 -0.5935 -0.3337
  760TIP3    H1 2286   5.442   3.305   4.968  1.0363 -1.2176 -0.0449
  760TIP3    H2 2287   5.378   3.257   4.839 -0.8686  1.2215 -0.0621
  761TIP3   OH2 2288   0.099   2.381   0.076  0.1319 -0.0619  0.2517
  761TIP3    H1 2289   0.164   2.450   0.065 -0.9826  0.7165 -2.3243
  761TIP3    H2 2290   0.047   2.408   0.152  1.0436  0.7920  0.5859
  762TIP3   OH2 2291   3.124   2.970   0.896 -0.4965 -0.5674  0.0633
  762TIP3    H1 2292   3.125   2.930   0.983  0.3866 -0.4803  0.1000
  762TIP3    H2 2293   3.194   3.035   0.899 -1.4833  0.5539 -0.2020
  763TIP3   OH2 2294   5.848   2.682   1.654 -0.0385 -0.1530 -0.0202
  763TIP3    H1 2295   5.935   2.656   1.685 -0.6337 -1.9535  0.2161
  763TIP3    H2 2296   5.799   2.600   1.646 -1.8944  0.8647  0.3628
  764TIP3   OH2 2297   1.762   1.668   3.562  0.3145 -0.1968  0.1206
  764TIP3    H1 2298   1.810   1.665   3.480 -0.1999  1.5029 -0.2764
  764TIP3    H2 2299   1.673   1.641   3.540  0.1387  0.4010  0.0669
  765TIP3   OH2 2300   2.516   2.308   4.562  0.0151 -0.5368  0.2870
  765TIP3    H1 2301   2.560   2.231   4.527  0.5789 -0.2879  0.4358
  765TIP3    H2 2302   2.586   2.360   4.601 -0.5264 -0.5573  1.3201
  766TIP3   OH2 2303   1.381   1.481   4.927  0.3747 -0.0872 -0.5204
  766TIP3    H1 2304   1.286   1.473   4.914  0.2912  0.5514 -0.3609
  766TIP3    H2 2305   1.401   1.416   4.993 -0.1281  0.4218  0.1595
  767TIP3   OH2 2306   2.479   4.009   0.377  0.4036  0.1165 -0.1871
  767TIP3    H1 2307   2.421   4.084   0.361 -1.9089 -1.0919  1.8768
  767TIP3    H2 2308   2.430   3.954   0.439  3.2501 -1.6695  0.6321
  768TIP3   OH2 2309   0.649   4.950   4.033  0.1873  0.5923 -0.0134
  768TIP3    H1 2310   0.556   4.965   4.050  0.2339 -0.3535  1.2120
  768TIP3    H2 2311   0.692   4.969   4.117  1.1430  1.2645 -0.6339
  769TIP3   OH2 2312   4.942   1.477   0.167  0.0499  0.0635  0.0577
  769TIP3    H1 2313   4.965   1.480   0.260  0.7337 -0.5339 -0.0841
  769TIP3    H2 2314   4.977   1.393   0.136 -1.2761 -0.3266 -0.4514
  770TIP3   OH2 2315   3.972   5.317   1.714  0.0407  0.1339 -0.2445
  770TIP3    H1 2316   3.983   5.249   1.781 -0.4152  0.6890  0.4046
  770TIP3    H2 2317   3.962   5.269   1.632 -1.7211 -0.6536  0.3872
  771TIP3   OH2 2318   0.337   5.046   0.532 -0.0244 -0.2657 -0.0734
  771TIP3    H1 2319   0.291   5.118   0.488 -1.4031 -0.4880  0.9345
  771TIP3    H2 2320   0.337   4.975   0.467 -0.0670  0.1290 -0.5095
  772TIP3   OH2 2321   5.016   2.622   2.435 -0.4672 -0.0693  0.4289
  772TIP3    H1 2322   4.955   2.697   2.437 -1.0651 -0.5333  0.0166
  772TIP3    H2 2323   4.978   2.560   2.497 -0.2768 -0.2631  0.3490
  773TIP3   OH2 2324   1.824   4.904   3.568 -0.4887  0.3658  0.0832
  773TIP3    H1 2325   1.888   4.932   3.503 -0.0807 -1.2891 -0.2683
  773TIP3    H2 2326   1.875   4.891   3.648 -0.9229  1.9982  0.6598
  774TIP3   OH2 2327   4.573   5.374   1.306  0.3418  0.2028 -0.4297
  774TIP3    H1 2328   4.575   5.437   1.234 -0.5048  0.3881 -0.2983
  774TIP3    H2 2329   4.480   5.361   1.324  0.4165 -2.1655 -1.3982
  775TIP3   OH2 2330   4.360   0.354   4.455  0.1071  0.0202 -0.5088
  775TIP3    H1 2331   4.407   0.405   4.521  0.5250 -1.3137  0.2550
  775TIP3    H2 2332   4.396   0.385   4.372  1.7736 -0.3775  0.0196
  776TIP3   OH2 2333   2.043   5.589   4.627 -0.3942  0.6727 -0.1684
  776TIP3    H1 2334   2.121   5.641   4.647  0.8005 -0.0722 -2.5719
  776TIP3    H2 2335   1.990   5.645   4.572 -1.2779  0.9231  0.9009
  777TIP3   OH2 2336   2.068   4.821   2.171 -0.1158  0.0169 -0.0505
  777TIP3    H1 2337   2.125   4.897   2.159 -1.2477  1.0392  0.8647
  777TIP3    H2 2338   2.116   4.765   2.232 -0.2772  1.0924  1.0942
  778TIP3   OH2 2339   5.233   0.453   2.572 -0.2124  0.1054 -0.4454
  778TIP3    H1 2340   5.280   0.446   2.655 -0.8375 -0.1074 -0.0978
  778TIP3    H2 2341   5.250   0.369   2.528 -1.0920 -0.3948  0.1365
  779TIP3   OH2 2342   2.529   2.652   3.020 -0.0528 -0.3230  0.4085
  779TIP3    H1 2343   2.602   2.677   2.964 -0.1279 -0.8871  0.0522
  779TIP3    H2 2344   2.456   2.707   2.992 -0.6524 -1.9183 -1.4161
  780TIP3   OH2 2345   5.602   2.977   4.971  0.2819  0.1692  0.1770
  780TIP3    H1 2346   5.541   3.048   4.951  0.7425 -0.0326 -2.1801
  780TIP3    H2 2347   5.555   2.898   4.944  0.4814 -0.2699  1.0923
  781TIP3   OH2 2348   6.193   3.412   3.176 -0.7377 -0.4537  0.4829
  781TIP3    H1 2349   6.153   3.387   3.093 -2.1760 -0.4417  1.1335
  781TIP3    H2 2350   6.271   3.357   3.183 -1.2574 -1.3172 -0.3120
  782TIP3   OH2 2351   0.284   5.219   2.195  0.2239 -0.0471 -0.0267
  782TIP3    H1 2352   0.370   5.262   2.201 -0.7030  1.9049  0.1457
  782TIP3    H2 2353   0.301   5.136   2.151  2.2278  0.2027  0.1939
  783TIP3   OH2 2354   5.752   0.645   5.187  0.3465  0.2297 -0.5304
  783TIP3    H1 2355   5.657   0.630   5.193  0.5432 -1.0398 -0.2962
  783TIP3    H2 2356   5.772   0.634   5.094  0.1418  1.3336 -0.7108
  784TIP3   OH2 2357   4.089   3.563   2.743  0.4991 -0.1994  0.3067
  784TIP3    H1 2358   4.045   3.539   2.662 -0.6522  0.4683  0.6970
  784TIP3    H2 2359   4.040   3.639   2.774 -0.0995 -1.3835  2.4385
  785TIP3   OH2 2360   1.269   2.915   0.172 -0.6358 -0.2702 -0.0357
  785TIP3    H1 2361   1.328   2.974   0.219 -0.4023 -2.1125  2.1638
  785TIP3    H2 2362   1.321   2.884   0.098  0.2888  0.0559  0.4490
  786TIP3   OH2 2363   5.668   1.207   1.293  0.2668 -0.9410  0.2142
  786TIP3    H1 2364   5.673   1.176   1.203 -3.3701 -0.3268 -0.3847
  786TIP3    H2 2365   5.620   1.138   1.339  0.5965 -0.4901  1.2540
  787TIP3   OH2 2366   3.885   2.192   5.127 -0.5214 -0.3332 -0.2630
  787TIP3    H1 2367   3.977   2.200   5.151  0.4615  0.6166 -3.7502
  787TIP3    H2 2368   3.840   2.171   5.209  2.6667 -0.1327  1.6920
  788TIP3   OH2 2369   4.514   4.575   2.144  0.7308  0.2085 -0.7272
  788TIP3    H1 2370   4.449   4.507   2.160  0.0050  1.4607  2.1441
  788TIP3    H2 2371   4.488   4.613   2.060 -2.2194  0.5668  0.2392
  789TIP3   OH2 2372   2.236   4.307   1.599  0.5956 -0.0301 -0.8594
  789TIP3    H1 2373   2.160   4.364   1.584  1.2270  0.7238 -1.3352
  789TIP3    H2 2374   2.295   4.360   1.653  0.5410 -0.8307  0.0120
  790TIP3   OH2 2375   2.155   1.613   4.492  0.6359  0.4186  0.1872
  790TIP3    H1 2376   2.139   1.528   4.534  1.1441 -1.9458 -3.9190
  790TIP3    H2 2377   2.069   1.654   4.486  0.0801 -0.6755  0.4952
  791TIP3   OH2 2378   5.736   1.703   0.915 -0.1625 -0.3195  0.3317
  791TIP3    H1 2379   5.821   1.671   0.945  0.7537  1.5577 -0.0776
  791TIP3    H2 2380   5.674   1.670   0.979  1.0207 -0.8301  1.2673
  792TIP3   OH2 2381   3.047   4.094   3.834 -0.2771  0.2963  0.1775
  792TIP3    H1 2382   2.987   4.142   3.776 -0.7620  0.1765  0.5721
  792TIP3    H2 2383   3.112   4.160   3.860  0.0831  0.2927 -0.6792
  793TIP3   OH2 2384   0.696   0.980   1.517 -0.3495  0.0662 -0.2768
  793TIP3    H1 2385   0.602   0.963   1.524 -0.0953 -1.1356  0.4679
  793TIP3    H2 2386   0.728   0.913   1.455  0.2908 -0.7232  0.8665
  794TIP3   OH2 2387   5.270   4.246   1.311  0.0924  0.6859 -0.2030
  794TIP3    H1 2388   5.235   4.244   1.222  2.1022 -0.8654 -1.0435
  794TIP3    H2 2389   5.341   4.310   1.307 -0.4845  1.3960  0.6005
  795TIP3   OH2 2390   0.785   3.032   0.218 -0.3740 -0.0089 -0.1147
  795TIP3    H1 2391   0.857   3.088   0.245 -0.6475  0.4240 -0.2663
  795TIP3    H2 2392   0.713   3.093   0.200 -0.7452 -0.4262 -0.0621
  796TIP3   OH2 2393   5.222   5.749   4.860 -0.4175 -0.0893  0.3511
  796TIP3    H1 2394   5.147   5.808   4.857 -0.9638 -0.7770  0.2879
  796TIP3    H2 2395   5.285   5.787   4.799 -1.7281 -0.8558 -1.5568
  797TIP3   OH2 2396   3.346   4.647   2.331  0.3488 -0.6156 -0.2279
  797TIP3    H1 2397   3.369   4.737   2.356 -1.8516 -0.6875  2.7171
  797TIP3    H2 2398   3.263   4.656   2.285  0.7271 -1.0739 -1.0105
  798TIP3   OH2 2399   2.001   5.936   2.570  0.2995 -0.4941  0.3064
  798TIP3    H1 2400   2.014   5.884   2.490  0.0582  1.5276 -1.1353
  798TIP3    H2 2401   2.038   6.021   2.548 -2.0001  0.8700  1.4623
  799TIP3   OH2 2402   2.661   0.164   2.976  0.3135 -0.0930 -0.0359
  799TIP3    H1 2403   2.587   0.176   3.036  0.4596 -4.0503  1.2329
  799TIP3    H2 2404   2.738   0.160   3.034  0.7037 -2.0285 -0.6172
  800TIP3   OH2 2405   4.876   1.249   0.453  0.2796  0.7400  0.5640
  800TIP3    H1 2406   4.912   1.280   0.536  1.6859 -0.9071  0.6357
  800TIP3    H2 2407   4.941   1.277   0.388  1.3310 -1.4451  0.5729
  801TIP3   OH2 2408   1.575   0.825   3.012 -0.0665  0.8278  0.2322
  801TIP3    H1 2409   1.567   0.790   2.923  2.5301  1.0753 -0.1734
  801TIP3    H2 2410   1.548   0.752   3.069 -0.5541  0.2531 -0.7195
  802TIP3   OH2 2411   3.114   0.620   1.175  0.0013  0.1856 -0.3539
  802TIP3    H1 2412   3.140   0.529   1.163  0.4415  0.1719  0.6407
  802TIP3    H2 2413   3.055   0.638   1.101 -2.5997 -1.8144  1.0583
  803TIP3   OH2 2414   4.953   0.230   2.260 -0.2306  0.4054  0.1946
  803TIP3    H1 2415   4.969   0.221   2.166  0.0413 -0.1280  0.2935
  803TIP3    H2 2416   4.901   0.311   2.267 -0.8345  0.0838 -0.4727
  804TIP3   OH2 2417   0.665   1.806   2.077 -0.3312  0.0574  0.1685
  804TIP3    H1 2418   0.665   1.812   1.982  0.8107 -0.1750  0.1451
  804TIP3    H2 2419   0.672   1.897   2.106 -0.6900  0.1297  0.0427
  805TIP3   OH2 2420   1.924   5.831   2.118  0.4330  0.2522 -0.1224
  805TIP3    H1 2421   1.838   5.874   2.120 -0.9499 -2.1478 -1.9016
  805TIP3    H2 2422   1.986   5.903   2.104 -1.3331  2.0125  0.5684
  806TIP3   OH2 2423   1.934   2.718   2.694  0.0187  0.5483 -0.1079
  806TIP3    H1 2424   1.981   2.685   2.617  1.0135  0.1689  0.6377
  806TIP3    H2 2425   1.947   2.651   2.760  0.0366  1.3388  0.7037
  807TIP3   OH2 2426   6.130   1.966   2.760 -0.2385 -0.5062 -1.1888
  807TIP3    H1 2427   6.218   1.969   2.796 -0.2906  0.6279 -1.1150
  807TIP3    H2 2428   6.114   1.874   2.741  1.2508 -0.6376 -1.9252
  808TIP3   OH2 2429   3.545   3.505   1.922  0.6152 -0.0200 -0.4941
  808TIP3    H1 2430   3.574   3.594   1.902  0.0137  0.3838  0.3759
  808TIP3    H2 2431   3.604   3.449   1.871 -0.0023  0.8991 -2.2951
  809TIP3   OH2 2432   5.982   4.470   2.164  0.3576 -0.7168  0.6951
  809TIP3    H1 2433   5.911   4.484   2.102  1.6772 -1.1112 -0.9603
  809TIP3    H2 2434   5.946   4.409   2.228 -0.7840 -0.9101 -0.1046
  810TIP3   OH2 2435   4.628   4.639   1.640  0.7093 -0.0769 -0.6719
  810TIP3    H1 2436   4.574   4.714   1.663  0.1968 -0.7248  0.2799
  810TIP3    H2 2437   4.568   4.576   1.602  1.2456  0.2325 -2.0959
  811TIP3   OH2 2438   2.708   3.194   2.177 -0.2051 -0.3124  0.6514
  811TIP3    H1 2439   2.691   3.284   2.206 -1.7604 -0.2210 -0.4247
  811TIP3    H2 2440   2.800   3.195   2.147 -0.3305  1.0437  0.2424
  812TIP3   OH2 2441   4.210   5.932   4.574 -0.1273 -0.5677  0.0928
  812TIP3    H1 2442   4.157   5.885   4.639 -0.3108  0.6375  0.8467
  812TIP3    H2 2443   4.166   5.914   4.490 -1.8659  0.5270  0.7066
  813TIP3   OH2 2444   5.242   1.440   0.286 -0.5089 -0.2267 -0.0966
  813TIP3    H1 2445   5.212   1.378   0.352 -0.0742  1.0291  1.3297
  813TIP3    H2 2446   5.326   1.471   0.319 -0.8161  1.2763 -0.6592
  814TIP3   OH2 2447   2.170   3.272   1.050  0.8640 -0.5574  0.1897
  814TIP3    H1 2448   2.196   3.193   1.004  0.5479 -0.4305 -0.2113
  814TIP3    H2 2449   2.079   3.287   1.023  1.1593  0.3701 -0.3582
  815TIP3   OH2 2450   5.307   4.498   4.778  0.3063  0.5407 -0.3199
  815TIP3    H1 2451   5.216   4.472   4.765  0.0972  0.9622  0.2348
  815TIP3    H2 2452   5.331   4.461   4.864  0.9535 -0.3479 -0.8672
  816TIP3   OH2 2453   5.775   5.089   1.889 -0.7150 -0.0773  0.2950
  816TIP3    H1 2454   5.859   5.076   1.845 -0.4983 -0.6538  0.8697
  816TIP3    H2 2455   5.789   5.165   1.946 -0.8744  0.4145 -0.3042
  817TIP3   OH2 2456   1.996   5.696   1.650  0.0904  0.1953  0.1566
  817TIP3    H1 2457   1.972   5.604   1.642  1.7882 -0.2970  0.2582
  817TIP3    H2 2458   2.090   5.694   1.669 -0.0403  1.9210  1.1293
  818TIP3   OH2 2459   2.825   4.959   3.184  0.3187  0.4990 -0.1766
  818TIP3    H1 2460   2.759   5.019   3.149  0.5942 -0.2883 -2.1621
  818TIP3    H2 2461   2.909   5.000   3.162  0.5056  0.1868 -0.0520
  819TIP3   OH2 2462   0.108   2.824   5.108 -0.1383 -0.0454 -0.4929
  819TIP3    H1 2463   0.055   2.761   5.060 -0.0172  0.7128 -1.6618
  819TIP3    H2 2464   0.099   2.906   5.059 -0.4485  0.9156  1.0892
  820TIP3   OH2 2465   2.978   1.306   1.348  0.0466 -0.1115  0.2818
  820TIP3    H1 2466   2.961   1.370   1.279  1.9331 -0.0163 -0.1433
  820TIP3    H2 2467   2.899   1.307   1.402 -1.1716  0.3601 -1.4337
  821TIP3   OH2 2468   2.936   5.523   4.394  0.1144  0.2420 -0.4668
  821TIP3    H1 2469   2.999   5.590   4.367  1.4572 -0.7045  0.2529
  821TIP3    H2 2470   2.852   5.570   4.396  0.7727  1.5429 -1.3753
  822TIP3   OH2 2471   4.606   4.879   1.055  0.1047 -0.1693  0.3527
  822TIP3    H1 2472   4.690   4.860   1.097  0.1751  1.2312  0.8848
  822TIP3    H2 2473   4.540   4.861   1.122 -0.2849 -3.3814 -0.6923
  823TIP3   OH2 2474   1.416   4.534   0.220 -0.0110  0.2567 -0.5542
  823TIP3    H1 2475   1.404   4.442   0.194 -1.8277  0.5922 -1.0449
  823TIP3    H2 2476   1.390   4.584   0.143  0.8105  1.2021 -0.2335
  824TIP3   OH2 2477   1.561   3.737   1.824 -0.2943  0.5576 -0.1910
  824TIP3    H1 2478   1.557   3.830   1.846  0.3742  1.5002 -3.4721
  824TIP3    H2 2479   1.470   3.711   1.812 -0.4162  1.5807 -1.8150
  825TIP3   OH2 2480   1.854   5.281   1.972  0.3699  0.1687 -0.5380
  825TIP3    H1 2481   1.809   5.268   2.056  0.2414  0.6279 -0.5289
  825TIP3    H2 2482   1.867   5.376   1.968 -0.9686  0.3341 -1.7258
  826TIP3   OH2 2483   5.612   2.991   1.109  0.0629  0.0718  0.5804
  826TIP3    H1 2484   5.650   2.912   1.149 -2.4956 -1.4831  0.1593
  826TIP3    H2 2485   5.660   3.000   1.027 -1.0310 -2.4674 -0.4575
  827TIP3   OH2 2486   0.257   2.739   2.424 -0.4061  0.9268  0.1369
  827TIP3    H1 2487   0.340   2.780   2.400 -0.2097 -0.0334 -0.8756
  827TIP3    H2 2488   0.191   2.802   2.395 -0.1035  0.6225 -1.3104
  828TIP3   OH2 2489   1.702   3.446   0.500 -0.2803 -0.4386 -0.0822
  828TIP3    H1 2490   1.676   3.461   0.409 -0.8699  0.4036  0.2022
  828TIP3    H2 2491   1.621   3.419   0.543  0.0687 -1.1639  0.1270
  829TIP3   OH2 2492   5.343   3.141   2.448 -0.1342  0.4144  0.3676
  829TIP3    H1 2493   5.335   3.182   2.362 -0.2101 -0.9736 -0.3150
  829TIP3    H2 2494   5.437   3.135   2.463 -0.1229  1.0660  0.6016
  830TIP3   OH2 2495   0.048   3.668   0.300  0.2576 -0.0320  0.0588
  830TIP3    H1 2496  -0.018   3.737   0.308  1.9436  1.5600  0.9128
  830TIP3    H2 2497   0.090   3.665   0.386  1.1787 -1.1532 -0.4064
  831TIP3   OH2 2498   1.238   2.175   1.895 -0.1102 -0.2678  0.1929
  831TIP3    H1 2499   1.290   2.253   1.873 -0.8552  0.4664  0.9387
  831TIP3    H2 2500   1.216   2.137   1.810  0.8767 -0.0903 -0.1648
  832TIP3   OH2 2501   0.307   3.989   0.721  0.2786 -0.1631  0.1839
  832TIP3    H1 2502   0.400   3.994   0.697  1.1452  0.3686  3.2426
  832TIP3    H2 2503   0.268   3.931   0.655  3.2770 -2.3939  0.2004
  833TIP3   OH2 2504   6.003   2.263   4.381 -0.1155  0.2747 -0.5615
  833TIP3    H1 2505   6.022   2.170   4.368  1.1473  0.2075  1.3445
  833TIP3    H2 2506   5.980   2.270   4.473 -2.0855  1.6095 -1.0978
  834TIP3   OH2 2507   1.923   1.541   0.251  0.0165 -0.1282 -0.2420
  834TIP3    H1 2508   1.902   1.634   0.235 -2.1768 -0.7915 -1.7167
  834TIP3    H2 2509   1.876   1.521   0.332  1.1384  0.2029  0.5153
  835TIP3   OH2 2510   3.514   2.152   1.713 -1.2910 -0.1529  0.3598
  835TIP3    H1 2511   3.471   2.155   1.798 -1.9003 -1.9865  0.1643
  835TIP3    H2 2512   3.607   2.158   1.733 -1.3979 -1.0689  1.2264
  836TIP3   OH2 2513   1.473   2.564   2.736  0.5459 -0.4082 -0.4083
  836TIP3    H1 2514   1.544   2.564   2.800 -0.6960 -0.9383  1.0463
  836TIP3    H2 2515   1.420   2.641   2.758 -1.0932 -1.7609  0.6804
  837TIP3   OH2 2516   1.744   0.503   2.970 -0.0038  0.4634  0.1158
  837TIP3    H1 2517   1.693   0.511   2.890  0.9563 -0.3703 -0.5940
  837TIP3    H2 2518   1.724   0.416   3.003 -1.5947  1.3497  1.6571
  838TIP3   OH2 2519   0.628   0.836   2.626 -0.3595 -0.2704  0.1096
  838TIP3    H1 2520   0.587   0.777   2.690  0.5162 -1.1391 -0.0976
  838TIP3    H2 2521   0.579   0.918   2.633  0.8974  0.3666  3.3181
  839TIP3   OH2 2522   3.743   3.073   5.185  0.4499 -0.4018  0.4981
  839TIP3    H1 2523   3.715   3.034   5.103  1.4687 -0.9518  0.3949
  839TIP3    H2 2524   3.805   3.141   5.159 -1.1451  1.2029  0.6857
  840TIP3   OH2 2525   2.292   2.832   3.362 -0.1426 -0.5058  0.0058
  840TIP3    H1 2526   2.201   2.811   3.340  0.0211 -0.6384 -0.5718
  840TIP3    H2 2527   2.286   2.888   3.439 -0.7453  0.0645 -0.4431
  841TIP3   OH2 2528   4.334   2.073   5.044 -0.1212 -0.6493  0.6030
  841TIP3    H1 2529   4.285   2.008   4.994  0.3535  0.2993 -1.2061
  841TIP3    H2 2530   4.426   2.049   5.030  0.0645  0.4552 -0.2151
  842TIP3   OH2 2531   5.246   3.953   0.217 -0.1870 -0.0262  0.7130
  842TIP3    H1 2532   5.191   3.975   0.293  0.3190  1.1636  0.7629
  842TIP3    H2 2533   5.326   3.917   0.255 -0.7225 -1.3011  0.6584
  843TIP3   OH2 2534   3.949   4.230   5.112 -0.1094  0.1737 -0.5532
  843TIP3    H1 2535   3.960   4.150   5.163 -0.8893  0.2843 -0.2013
  843TIP3    H2 2536   3.904   4.290   5.171  0.2448  0.7856 -0.9038
  844TIP3   OH2 2537   2.121   2.643   2.925  0.1033  0.1051 -0.3241
  844TIP3    H1 2538   2.144   2.585   2.853 -2.4910 -0.6032 -0.6913
  844TIP3    H2 2539   2.119   2.586   3.002  0.0145  0.2321 -0.2309
  845TIP3   OH2 2540   1.852   0.943   2.093 -0.3286  0.2707 -0.1520
  845TIP3    H1 2541   1.923   0.896   2.049 -1.6196 -1.9368  0.0274
  845TIP3    H2 2542   1.896   1.017   2.136  1.8822 -1.0670  0.0372
  846TIP3   OH2 2543   3.260   3.457   0.962  0.0781 -0.1432 -0.0615
  846TIP3    H1 2544   3.342   3.416   0.989 -0.7614 -1.0738  1.2015
  846TIP3    H2 2545   3.202   3.448   1.038 -0.3760  2.8961  0.1038
  847TIP3   OH2 2546   3.794   1.069   0.807  0.1891  0.7125 -0.2136
  847TIP3    H1 2547   3.883   1.090   0.777  0.2625 -0.2760 -0.7303
  847TIP3    H2 2548   3.740   1.141   0.774  0.8372  1.4962  0.3863
  848TIP3   OH2 2549   0.159   0.089   3.374 -0.2047 -0.2175  0.2326
  848TIP3    H1 2550   0.152   0.123   3.285 -0.8866  1.3986  0.8634
  848TIP3    H2 2551   0.073   0.052   3.392  0.1601 -1.2139 -0.0207
  849TIP3   OH2 2552   2.231   5.747   0.215 -0.2475  1.1837 -0.3311
  849TIP3    H1 2553   2.245   5.822   0.157 -1.7083  0.9652 -1.0227
  849TIP3    H2 2554   2.193   5.680   0.158  0.2926  0.2010  0.4439
  850TIP3   OH2 2555   5.656   0.878   0.307  0.2126 -0.3383  0.1520
  850TIP3    H1 2556   5.705   0.866   0.388 -1.8235 -0.9246  1.3721
  850TIP3    H2 2557   5.648   0.973   0.298  2.2469 -0.1740 -0.5774
  851TIP3   OH2 2558   2.656   3.178   0.952 -1.0280  0.1481  0.0657
  851TIP3    H1 2559   2.663   3.107   0.888  1.3913  0.8161 -0.5004
  851TIP3    H2 2560   2.630   3.254   0.900  1.2334  0.7622 -0.2817
  852TIP3   OH2 2561   1.306   4.851   2.939  0.3432  0.2009  0.0925
  852TIP3    H1 2562   1.341   4.862   2.851  0.4933 -0.4756  0.0591
  852TIP3    H2 2563   1.312   4.938   2.978  0.1937  0.5292 -0.5896
  853TIP3   OH2 2564   0.274   2.404   2.568  0.3527 -0.2607 -0.2221
  853TIP3    H1 2565   0.292   2.344   2.496  0.0024 -0.2996 -0.2791
  853TIP3    H2 2566   0.196   2.368   2.611  0.4786 -0.1641  0.0920
  854TIP3   OH2 2567   3.846   5.101   2.204 -0.4313  0.8131  0.6260
  854TIP3    H1 2568   3.929   5.060   2.180 -2.5260 -2.2671 -2.2205
  854TIP3    H2 2569   3.836   5.174   2.143 -0.0979  0.7600  0.5089
  855TIP3   OH2 2570   0.210   1.554   2.785 -0.4669 -0.0250 -0.3582
  855TIP3    H1 2571   0.273   1.482   2.787  0.6081  0.8900 -0.3065
  855TIP3    H2 2572   0.251   1.620   2.729 -2.1333 -0.0671 -1.7019
  856TIP3   OH2 2573   1.350   4.279   3.289  0.1813 -0.4948  0.9089
  856TIP3    H1 2574   1.348   4.260   3.195 -0.5320  1.4560  0.4908
  856TIP3    H2 2575   1.427   4.336   3.300  0.7888 -1.4361  1.6762
  857TIP3   OH2 2576   2.681   0.305   4.291 -0.2398 -0.4210 -0.0428
  857TIP3    H1 2577   2.743   0.368   4.256 -0.6552 -0.0243 -0.0791
  857TIP3    H2 2578   2.734   0.229   4.314  0.3600  0.1863  0.6224
  858TIP3   OH2 2579   2.213   5.970   4.674  0.4088  0.1531 -0.1248
  858TIP3    H1 2580   2.212   5.956   4.768  1.3156  0.0912 -0.1211
  858TIP3    H2 2581   2.162   5.897   4.638 -2.1846  1.5365  0.4599
  859TIP3   OH2 2582   3.966   3.571   3.964 -0.0892 -0.1052 -0.4472
  859TIP3    H1 2583   4.038   3.614   4.010  1.1497 -0.9082 -1.5563
  859TIP3    H2 2584   3.887   3.613   3.999  0.9234  1.1677  0.4367
  860TIP3   OH2 2585   5.181   1.251   2.280 -0.3268 -0.2323  0.0945
  860TIP3    H1 2586   5.194   1.230   2.372 -1.0932 -0.3473  0.1854
  860TIP3    H2 2587   5.109   1.195   2.252 -0.2928  0.0077 -0.4963
  861TIP3   OH2 2588   4.827   5.075   2.964 -0.5685 -0.3974 -1.0824
  861TIP3    H1 2589   4.844   5.107   3.053  0.4790  3.3765 -2.4377
  861TIP3    H2 2590   4.766   5.003   2.976 -0.3103 -0.2028  2.6994
  862TIP3   OH2 2591   5.767   5.212   3.634 -0.1979  0.0525 -0.0197
  862TIP3    H1 2592   5.677   5.190   3.658 -0.0233 -1.4854 -0.6143
  862TIP3    H2 2593   5.759   5.266   3.555 -0.6025 -1.3615 -0.9923
  863TIP3   OH2 2594   0.388   3.012   0.754 -0.5873 -0.6253 -0.3996
  863TIP3    H1 2595   0.440   3.069   0.810  1.7379 -2.1002 -0.9217
  863TIP3    H2 2596   0.388   3.054   0.669  2.6210 -2.0700 -1.2551
  864TIP3   OH2 2597   4.346   4.143   2.273  0.0390 -0.0485 -0.3212
  864TIP3    H1 2598   4.379   4.203   2.340  1.3796  0.5904 -1.5028
  864TIP3    H2 2599   4.252   4.137   2.291  0.2784  0.4825  1.3013
  865TIP3   OH2 2600   5.194   4.482   3.205 -0.6453  0.6289  0.0306
  865TIP3    H1 2601   5.190   4.450   3.115  3.0405 -1.2830  0.3674
  865TIP3    H2 2602   5.136   4.423   3.253 -0.4712 -0.1288 -0.6642
  866TIP3   OH2 2603   2.952   2.876   0.711 -0.2026  0.2044 -0.5647
  866TIP3    H1 2604   3.007   2.927   0.770 -1.7210 -0.0284  1.1311
  866TIP3    H2 2605   2.981   2.786   0.723 -0.0377  0.2407 -0.6979
  867TIP3   OH2 2606   1.197   2.852   0.466  0.1101 -0.5733 -0.6286
  867TIP3    H1 2607   1.236   2.865   0.379  0.2764  1.5830 -0.2883
  867TIP3    H2 2608   1.261   2.889   0.527 -0.6645 -0.7039  0.2920
  868TIP3   OH2 2609   2.304   1.225   2.857  0.3535 -0.6674 -0.2704
  868TIP3    H1 2610   2.237   1.292   2.848  1.4934  0.6179  0.5298
  868TIP3    H2 2611   2.336   1.210   2.767  1.5830  1.4761 -0.2495
  869TIP3   OH2 2612   4.635   4.608   3.780 -0.1755  0.0757 -0.6684
  869TIP3    H1 2613   4.605   4.518   3.795 -0.9441  0.1966 -1.3646
  869TIP3    H2 2614   4.728   4.599   3.761  0.2635 -0.3265  1.4701
  870TIP3   OH2 2615   4.798   3.856   4.020 -0.0443  0.0751 -0.3004
  870TIP3    H1 2616   4.777   3.866   4.113  0.0108 -0.2419 -0.2518
  870TIP3    H2 2617   4.869   3.791   4.018 -0.7961 -0.7658 -0.6309
  871TIP3   OH2 2618   5.193   2.779   0.543  0.5235 -0.1169 -0.4023
  871TIP3    H1 2619   5.194   2.867   0.581  0.0567 -0.7880  1.2799
  871TIP3    H2 2620   5.277   2.770   0.498  1.4818  0.4825  1.1798
  872TIP3   OH2 2621   3.250   0.223   4.938  0.3898 -0.0084 -0.4263
  872TIP3    H1 2622   3.221   0.236   5.028  0.7443 -0.3387 -0.2657
  872TIP3    H2 2623   3.207   0.142   4.910  1.4617 -0.7387 -0.0467
  873TIP3   OH2 2624   6.139   0.081   3.923  0.0967  0.0728  0.0859
  873TIP3    H1 2625   6.086   0.057   3.847 -1.3500  0.4453  0.9337
  873TIP3    H2 2626   6.075   0.098   3.993  1.4033 -0.9593  1.6056
  874TIP3   OH2 2627   5.232   0.339   3.872 -0.7234  0.0648 -0.2280
  874TIP3    H1 2628   5.192   0.411   3.823 -3.2173  0.0403  1.6220
  874TIP3    H2 2629   5.172   0.322   3.944  1.7050 -1.3690  1.6030
  875TIP3   OH2 2630   1.378   4.310   4.586  0.2762  0.1546 -0.3125
  875TIP3    H1 2631   1.473   4.297   4.590  0.2944 -0.2012 -1.5068
  875TIP3    H2 2632   1.365   4.373   4.515 -0.3458  0.5938  0.1853
  876TIP3   OH2 2633   3.728   0.489   4.537  0.6374 -0.5017 -0.1756
  876TIP3    H1 2634   3.791   0.421   4.514 -1.1322 -1.9516 -0.9199
  876TIP3    H2 2635   3.687   0.459   4.617  0.0023 -0.2031 -0.3815
  877TIP3   OH2 2636   6.358   1.370   0.737  0.2203  0.2588  0.2824
  877TIP3    H1 2637   6.381   1.461   0.719 -0.2275 -0.0446 -2.2389
  877TIP3    H2 2638   6.280   1.376   0.792  0.1702  1.4042  0.1175
  878TIP3   OH2 2639   3.028   3.179   3.601  0.2536  0.3438 -0.1830
  878TIP3    H1 2640   3.114   3.163   3.562 -0.3476 -2.2022 -0.5899
  878TIP3    H2 2641   2.978   3.223   3.532 -0.1628 -2.2940 -1.6589
  879TIP3   OH2 2642   4.202   0.406   4.853 -0.1767  0.0020  0.2431
  879TIP3    H1 2643   4.272   0.448   4.903  1.4035 -0.6755 -1.2776
  879TIP3    H2 2644   4.163   0.343   4.914  1.9365 -1.0836  0.5814
  880TIP3   OH2 2645   0.272   4.455   1.354 -0.9087  0.3869  0.1105
  880TIP3    H1 2646   0.178   4.458   1.373 -0.7589  2.1711  0.8628
  880TIP3    H2 2647   0.285   4.375   1.304 -2.9511  0.4578 -0.6208
  881TIP3   OH2 2648   1.767   3.020   4.159  0.3336 -0.9882  0.1940
  881TIP3    H1 2649   1.771   2.928   4.185  1.3506 -0.6134  1.4562
  881TIP3    H2 2650   1.734   3.065   4.236  1.9040 -0.0368  0.3507
  882TIP3   OH2 2651   6.198   2.649   2.817  0.2859 -0.2179 -0.1550
  882TIP3    H1 2652   6.234   2.623   2.732 -1.6432 -1.4955 -0.6525
  882TIP3    H2 2653   6.250   2.599   2.880  1.0442 -0.0794 -0.6537
  883TIP3   OH2 2654   1.052   4.534   2.647 -0.3090  0.0552  0.3896
  883TIP3    H1 2655   1.119   4.474   2.680 -2.0253 -1.8761  0.5371
  883TIP3    H2 2656   1.048   4.604   2.713  1.1814 -0.0328  0.6149
  884TIP3   OH2 2657   2.774   4.628   2.250  0.5110  0.2516  0.0419
  884TIP3    H1 2658   2.781   4.537   2.222 -0.2333  0.3230 -0.4140
  884TIP3    H2 2659   2.776   4.678   2.169 -1.3317  0.4848  0.0970
  885TIP3   OH2 2660   1.935   1.397   1.980  0.0956  0.4294 -0.0360
  885TIP3    H1 2661   1.885   1.404   2.061 -1.8394 -1.1189 -1.0256
  885TIP3    H2 2662   1.870   1.381   1.912  1.7662  0.5056 -1.7536
  886TIP3   OH2 2663   5.548   2.713   4.833  0.0595  0.1193 -0.4282
  886TIP3    H1 2664   5.471   2.727   4.778 -0.4256  0.6958  0.3611
  886TIP3    H2 2665   5.529   2.631   4.879  1.4315 -1.5440 -2.6467
  887TIP3   OH2 2666   1.349   3.763   2.809  0.2912 -0.2342  0.2072
  887TIP3    H1 2667   1.361   3.718   2.725  0.1463 -0.7148  0.4363
  887TIP3    H2 2668   1.321   3.693   2.868 -0.2766  0.2310  0.4882
  888TIP3   OH2 2669   2.759   2.416   2.354  0.3828  0.2185 -0.8293
  888TIP3    H1 2670   2.853   2.432   2.360  0.5722 -0.5791 -1.4783
  888TIP3    H2 2671   2.752   2.327   2.319 -0.6143 -0.1583  0.2668
  889TIP3   OH2 2672   5.604   3.173   3.243 -0.1231  0.0206 -0.0892
  889TIP3    H1 2673   5.521   3.154   3.287 -0.4161  1.5603  0.0754
  889TIP3    H2 2674   5.623   3.093   3.193 -1.9541 -0.1875 -0.5483
  890TIP3   OH2 2675   0.714   1.634   1.162 -0.6646  0.0932 -0.0174
  890TIP3    H1 2676   0.707   1.543   1.134 -1.7559  0.4529 -0.9764
  890TIP3    H2 2677   0.807   1.645   1.183  0.0834 -0.4416 -2.7075
  891TIP3   OH2 2678   5.151   0.809   4.173  0.1837  0.5534 -0.4710
  891TIP3    H1 2679   5.131   0.716   4.159  2.2400 -0.0058 -0.1185
  891TIP3    H2 2680   5.066   0.849   4.191 -0.6081 -1.5813  1.0490
  892TIP3   OH2 2681   5.556   5.898   4.069 -0.1494  1.2915  0.1899
  892TIP3    H1 2682   5.637   5.926   4.025 -0.0571  1.4402  0.4525
  892TIP3    H2 2683   5.585   5.868   4.155 -0.1369 -0.3579 -0.3508
  893TIP3   OH2 2684   2.809   0.924   3.493  0.5737  0.3572  0.3325
  893TIP3    H1 2685   2.858   0.945   3.414  0.6627  1.7326  0.7267
  893TIP3    H2 2686   2.828   0.831   3.510  1.2015  0.2721 -0.7876
  894TIP3   OH2 2687   2.620   2.106   3.477 -0.3978 -0.1331 -0.0177
  894TIP3    H1 2688   2.534   2.070   3.457 -0.1901 -0.3738 -0.5024
  894TIP3    H2 2689   2.610   2.201   3.465 -0.5596 -0.1733 -0.1979
  895TIP3   OH2 2690   0.389   5.003   3.947 -0.0236  0.2034 -0.1027
  895TIP3    H1 2691   0.416   5.038   3.862  0.2484  0.0900 -0.0615
  895TIP3    H2 2692   0.295   4.986   3.936  0.1932 -0.6664 -0.6707
  896TIP3   OH2 2693   1.594   2.560   3.628 -0.1094 -0.2363  0.2585
  896TIP3    H1 2694   1.654   2.634   3.618  1.8195 -1.8005 -0.5297
  896TIP3    H2 2695   1.640   2.499   3.685 -0.7167 -1.7174 -0.7650
  897TIP3   OH2 2696   0.470   4.611   1.064 -0.2750  0.3030 -0.3009
  897TIP3    H1 2697   0.439   4.629   1.153 -0.8441 -0.6187 -0.2967
  897TIP3    H2 2698   0.563   4.593   1.074  0.2908  2.9142 -0.2797
  898TIP3   OH2 2699   1.010   5.612   1.559  0.0864 -0.2665  0.0233
  898TIP3    H1 2700   0.926   5.655   1.548  0.7194  1.3511  1.2169
  898TIP3    H2 2701   0.987   5.521   1.582 -1.2796 -0.2352 -1.0782
  899TIP3   OH2 2702   5.634   4.923   0.279 -0.2580  0.1316 -0.0982
  899TIP3    H1 2703   5.668   4.963   0.358 -0.1938  1.1015 -0.5950
  899TIP3    H2 2704   5.657   4.830   0.286 -1.0360  0.0189  1.4212
  900TIP3   OH2 2705   1.975   5.294   4.164 -0.0483  0.3862  0.1790
  900TIP3    H1 2706   1.917   5.297   4.241 -0.0095  1.7768  0.1718
  900TIP3    H2 2707   1.991   5.385   4.143 -1.0953  0.0821 -2.2864
  901TIP3   OH2 2708   1.698   5.332   4.917  0.3916  0.8372 -0.0700
  901TIP3    H1 2709   1.745   5.411   4.892 -0.8206  1.7945  0.5517
  901TIP3    H2 2710   1.739   5.262   4.865  1.7501  1.7890 -0.3281
  902TIP3   OH2 2711   4.458   0.306   5.142 -0.4375 -0.1600  0.2157
  902TIP3    H1 2712   4.540   0.355   5.153 -0.8840  0.7873 -0.5368
  902TIP3    H2 2713   4.437   0.276   5.230  0.7061 -0.4000  0.4305
  903TIP3   OH2 2714   2.870   3.148   3.189 -0.7733 -0.0549 -0.0753
  903TIP3    H1 2715   2.919   3.171   3.110 -0.0624  0.3862  0.4755
  903TIP3    H2 2716   2.789   3.108   3.157  1.1321 -3.5634 -1.0533
  904TIP3   OH2 2717   3.532   5.480   0.354  0.6706  0.1997  0.7931
  904TIP3    H1 2718   3.616   5.507   0.316  0.6674  0.0580  0.6849
  904TIP3    H2 2719   3.472   5.551   0.333  0.3351 -0.4890 -0.6267
  905TIP3   OH2 2720   0.213   4.147   4.811 -0.4676 -0.4748  0.4667
  905TIP3    H1 2721   0.275   4.074   4.801  1.1329  0.7821  0.7203
  905TIP3    H2 2722   0.205   4.157   4.906 -1.7589 -1.1498  0.4534
  906TIP3   OH2 2723   0.115   5.395   1.765 -0.0746  0.0925 -0.1174
  906TIP3    H1 2724   0.095   5.426   1.853 -0.0058 -1.4481  0.4749
  906TIP3    H2 2725   0.041   5.337   1.743  0.2650 -0.1043 -0.7755
  907TIP3   OH2 2726   0.303   3.967   2.158 -0.3302  0.6206 -0.2977
  907TIP3    H1 2727   0.258   4.051   2.160  0.0445  0.8455  1.8093
  907TIP3    H2 2728   0.348   3.962   2.243 -1.5072 -2.3221  0.2782
  908TIP3   OH2 2729   4.549   3.193   4.948  0.5121 -0.0670 -0.1274
  908TIP3    H1 2730   4.462   3.161   4.973  0.2122  0.7574 -0.0941
  908TIP3    H2 2731   4.537   3.231   4.861  0.7881  0.2679 -0.0202
  909TIP3   OH2 2732   1.119   5.103   2.723 -0.4166  0.2381 -0.8211
  909TIP3    H1 2733   1.071   5.088   2.804 -0.3093  1.9251 -0.4077
  909TIP3    H2 2734   1.052   5.128   2.659 -0.4205 -0.4119 -1.0818
  910TIP3   OH2 2735   1.094   4.058   1.542 -0.4263  0.2923  0.6034
  910TIP3    H1 2736   1.140   3.991   1.491 -0.8570  0.4054  0.0590
  910TIP3    H2 2737   1.010   4.069   1.497 -0.0070  1.8524  0.1288
  911TIP3   OH2 2738   4.953   3.270   1.815  0.2317 -0.0192  0.1167
  911TIP3    H1 2739   4.914   3.312   1.738 -0.1796 -0.4611  0.0776
  911TIP3    H2 2740   5.034   3.230   1.783  0.6628  0.7966  0.1709
  912TIP3   OH2 2741   5.284   2.882   1.992 -0.2538  0.3803  0.3498
  912TIP3    H1 2742   5.275   2.977   1.983 -0.8062  0.2368 -0.8214
  912TIP3    H2 2743   5.197   2.848   1.974 -0.2002 -0.3234  1.3783
  913TIP3   OH2 2744   5.276   4.213   3.478  0.3436 -0.5071 -0.6496
  913TIP3    H1 2745   5.298   4.304   3.460 -0.9033 -0.3093 -1.2505
  913TIP3    H2 2746   5.326   4.192   3.557 -2.0069  1.7908  1.6440
  914TIP3   OH2 2747   2.335   3.460   4.920  0.0797 -0.1535  0.7548
  914TIP3    H1 2748   2.338   3.509   5.002  1.2170 -0.4367  0.8964
  914TIP3    H2 2749   2.283   3.382   4.941 -1.1639  0.6438  0.7058
  915TIP3   OH2 2750   4.871   1.172   1.222 -0.1900 -0.2777 -0.2357
  915TIP3    H1 2751   4.793   1.210   1.263 -0.0554  0.6543 -0.8258
  915TIP3    H2 2752   4.941   1.188   1.285 -0.5918 -1.8192  0.6610
  916TIP3   OH2 2753   5.317   2.416   4.322  0.1466  0.3838 -0.2202
  916TIP3    H1 2754   5.284   2.491   4.273  0.0423  1.0611  0.8667
  916TIP3    H2 2755   5.240   2.363   4.341  0.2422 -0.1024 -1.1334
  917TIP3   OH2 2756   4.131   5.557   0.907  0.3006 -0.2273  0.0720
  917TIP3    H1 2757   4.056   5.551   0.848  0.0558  1.2816  0.1708
  917TIP3    H2 2758   4.168   5.644   0.890  1.9284 -0.8644  0.1610
  918TIP3   OH2 2759   0.133   1.285   3.960  0.1046 -0.3225 -0.1439
  918TIP3    H1 2760   0.221   1.282   3.921  1.4371 -2.2289  2.6096
  918TIP3    H2 2761   0.089   1.208   3.924  0.1681 -0.2968 -0.2793
  919TIP3   OH2 2762   5.681   4.639   3.642 -0.6088  0.1766  0.6182
  919TIP3    H1 2763   5.648   4.728   3.650  2.0221  1.4800 -1.5764
  919TIP3    H2 2764   5.751   4.644   3.577  0.9108 -3.1654  1.7364
  920TIP3   OH2 2765   1.249   5.110   3.006  0.3908 -0.0678 -0.1317
  920TIP3    H1 2766   1.190   5.128   3.080  0.3103  3.6082 -0.9190
  920TIP3    H2 2767   1.195   5.127   2.929  1.6677  0.4272 -0.9313
  921TIP3   OH2 2768   2.038   1.532   2.375  0.5195 -0.1881 -0.0289
  921TIP3    H1 2769   2.048   1.581   2.456 -0.8190 -0.6948  0.4753
  921TIP3    H2 2770   1.995   1.592   2.315 -0.5347 -0.5107  0.3815
  922TIP3   OH2 2771   4.082   4.873   1.722  0.4048 -0.3687 -0.1510
  922TIP3    H1 2772   4.084   4.820   1.642  0.2564 -2.1009  0.9221
  922TIP3    H2 2773   4.149   4.833   1.778  0.9106  1.1681  0.3946
  923TIP3   OH2 2774   5.426   4.938   2.767 -0.2012 -0.4487  0.2341
  923TIP3    H1 2775   5.346   4.968   2.723  0.2129  1.2607  0.6084
  923TIP3    H2 2776   5.395   4.889   2.843 -0.9051  0.2741  0.4223
  924TIP3   OH2 2777   1.131   0.744   0.389 -0.0458  0.2721 -0.1446
  924TIP3    H1 2778   1.113   0.775   0.300 -2.5548 -1.5638 -0.3799
  924TIP3    H2 2779   1.112   0.650   0.387  0.1888  0.0929  2.2411
  925TIP3   OH2 2780   6.051   4.832   2.022 -0.4975 -1.1744  0.1983
  925TIP3    H1 2781   6.079   4.923   2.035 -1.1640 -1.0453  0.7424
  925TIP3    H2 2782   5.967   4.826   2.066 -1.1076 -1.6974 -0.9881
  926TIP3   OH2 2783   5.687   3.763   2.128 -0.1832 -0.0978 -0.2780
  926TIP3    H1 2784   5.631   3.788   2.202 -0.1232  0.9306 -0.5657
  926TIP3    H2 2785   5.730   3.683   2.157 -0.2656  0.2113  0.7508
  927TIP3   OH2 2786   1.824   4.279   1.396 -0.3199  0.0124  0.7378
  927TIP3    H1 2787   1.829   4.190   1.362 -0.5269  0.5846 -0.9050
  927TIP3    H2 2788   1.915   4.302   1.414 -0.0619  0.0265 -0.4568
  928TIP3   OH2 2789   1.866   1.583   3.813 -0.1591  0.0643  0.5951
  928TIP3    H1 2790   1.846   1.569   3.720  0.0341 -0.0918  0.5765
  928TIP3    H2 2791   1.936   1.521   3.832  0.5783  0.8643  0.5645
  929TIP3   OH2 2792   2.780   1.478   1.733 -0.2398 -0.0701 -0.3070
  929TIP3    H1 2793   2.711   1.495   1.797 -0.6579 -0.8740 -0.5265
  929TIP3    H2 2794   2.859   1.465   1.785  0.4219  3.4797 -0.1201
  930TIP3   OH2 2795   0.387   2.823   0.455 -0.1659  0.3333 -0.5055
  930TIP3    H1 2796   0.410   2.743   0.406  0.5060  0.1826  0.0408
  930TIP3    H2 2797   0.300   2.805   0.490  0.6163 -0.8460  0.9741
  931TIP3   OH2 2798   1.453   4.251   3.032  0.4864  0.0780  0.0994
  931TIP3    H1 2799   1.392   4.210   2.971  1.4317 -1.6890  0.2637
  931TIP3    H2 2800   1.539   4.237   2.992  0.9673  0.5003  0.9691
  932TIP3   OH2 2801   6.107   2.210   0.321  0.0102 -0.8461 -0.4814
  932TIP3    H1 2802   6.148   2.282   0.274 -0.9799  0.5289  0.6561
  932TIP3    H2 2803   6.164   2.196   0.397  0.3468 -1.4658 -0.8415
  933TIP3   OH2 2804   4.987   0.692   1.110  0.0377  0.2443  0.0889
  933TIP3    H1 2805   5.074   0.653   1.103 -0.6462 -1.2614 -0.4675
  933TIP3    H2 2806   4.936   0.648   1.041 -1.1811  1.0384  0.4596
  934TIP3   OH2 2807   5.622   0.136   2.393 -0.4470 -0.0122  0.5690
  934TIP3    H1 2808   5.668   0.096   2.466  2.0986  0.9490 -0.4020
  934TIP3    H2 2809   5.630   0.071   2.322 -1.8663 -0.4327  0.7654
  935TIP3   OH2 2810   1.217   1.240   2.318 -0.2588 -0.2025  0.2219
  935TIP3    H1 2811   1.238   1.149   2.298 -1.9980 -0.6219  0.0727
  935TIP3    H2 2812   1.275   1.264   2.390  1.0345 -1.0309 -0.5040
  936TIP3   OH2 2813   1.283   2.412   2.997 -0.2680 -0.5441 -0.1598
  936TIP3    H1 2814   1.214   2.361   3.039 -1.9887  2.5269  1.0619
  936TIP3    H2 2815   1.291   2.374   2.909 -3.5316 -1.0633 -0.3564
  937TIP3   OH2 2816   6.168   5.610   4.039  0.1114  0.2820 -0.2029
  937TIP3    H1 2817   6.185   5.520   4.065  0.4786  0.3316 -0.2670
  937TIP3    H2 2818   6.073   5.614   4.027 -0.0257  0.1701  0.8010
  938TIP3   OH2 2819   2.753   2.417   0.313  0.6764  0.3096 -0.2493
  938TIP3    H1 2820   2.821   2.383   0.255  2.7686  1.7388  1.1905
  938TIP3    H2 2821   2.766   2.370   0.395 -0.1435  0.5558  0.0345
  939TIP3   OH2 2822   3.575   2.842   1.718  0.1948 -0.1894 -0.2303
  939TIP3    H1 2823   3.564   2.788   1.796  2.4882  1.2688  1.2087
  939TIP3    H2 2824   3.498   2.897   1.715 -0.7937 -1.5179 -0.0895
  940TIP3   OH2 2825   0.989   4.539   3.832 -0.4132  0.3119 -0.0789
  940TIP3    H1 2826   0.940   4.607   3.786 -0.4481  0.1903 -0.2223
  940TIP3    H2 2827   0.976   4.460   3.780 -1.0473  0.0053  0.5159
  941TIP3   OH2 2828   0.221   2.384   0.461 -0.4027  0.8736  0.1549
  941TIP3    H1 2829   0.193   2.425   0.379  1.6002  0.9892 -0.5053
  941TIP3    H2 2830   0.230   2.456   0.523  0.0698  1.0494 -0.1149
  942TIP3   OH2 2831   3.202   0.647   3.760  0.0618 -0.0435  0.0698
  942TIP3    H1 2832   3.163   0.665   3.846 -0.0983  0.3066 -0.0747
  942TIP3    H2 2833   3.201   0.732   3.715 -0.7455 -0.4112 -0.6385
  943TIP3   OH2 2834   5.415   5.347   3.929  0.1927 -0.1732 -0.1269
  943TIP3    H1 2835   5.436   5.441   3.929 -0.7230  0.0548  0.8879
  943TIP3    H2 2836   5.324   5.343   3.900  0.6969 -0.9063 -1.7131
  944TIP3   OH2 2837   5.953   5.076   4.194 -1.0747  0.8933  0.5703
  944TIP3    H1 2838   5.995   5.134   4.257 -1.3126  0.5370  1.0630
  944TIP3    H2 2839   5.998   4.992   4.204  1.0572  1.5905 -1.9428
  945TIP3   OH2 2840   1.233   3.224   5.153  0.3999  0.3886  0.2089
  945TIP3    H1 2841   1.192   3.251   5.071 -0.2461  0.0435  0.4089
  945TIP3    H2 2842   1.209   3.293   5.215  0.3166  0.3038  0.2708
  946TIP3   OH2 2843   4.911   1.240   3.892  0.1410  0.0663  0.4535
  946TIP3    H1 2844   4.942   1.329   3.875 -0.9343  0.7769  1.9874
  946TIP3    H2 2845   4.918   1.196   3.808 -3.4081  2.8548 -1.5960
  947TIP3   OH2 2846   4.764   1.725   3.629 -0.3377  0.3370 -0.2486
  947TIP3    H1 2847   4.681   1.723   3.580 -1.0203 -1.6559  0.8623
  947TIP3    H2 2848   4.829   1.697   3.564 -0.7462  0.6134 -0.7927
  948TIP3   OH2 2849   1.399   0.156   3.169 -0.2102  0.5123  0.5371
  948TIP3    H1 2850   1.361   0.070   3.191 -0.0128  0.3668  0.3087
  948TIP3    H2 2851   1.401   0.203   3.253 -1.0732  0.5932  0.5259
  949TIP3   OH2 2852   6.195   2.788   0.033  0.6304 -0.1837  0.1159
  949TIP3    H1 2853   6.159   2.873   0.008 -0.4683 -0.8393 -0.6697
  949TIP3    H2 2854   6.287   2.804   0.051  0.6766  0.9791 -1.0509
  950TIP3   OH2 2855   2.314   2.036   3.665 -0.7380 -0.5115  0.3286
  950TIP3    H1 2856   2.353   1.949   3.663 -0.8996 -0.5763 -0.2759
  950TIP3    H2 2857   2.226   2.024   3.627 -1.4662 -0.4173  1.9096
  951TIP3   OH2 2858   3.087   2.494   4.977  0.0410  0.4584  0.1557
  951TIP3    H1 2859   3.093   2.472   4.884  0.6046  0.4675  0.1857
  951TIP3    H2 2860   3.124   2.582   4.982 -4.1839  2.5055 -0.3263
  952TIP3   OH2 2861   2.937   1.551   4.217  0.0584  0.5581  0.2016
  952TIP3    H1 2862   2.950   1.458   4.197  3.7225  0.5262  1.9691
  952TIP3    H2 2863   2.927   1.554   4.312 -0.1728  1.9792  0.1533
  953TIP3   OH2 2864   6.075   1.854   1.457 -0.7527 -0.4577  0.2678
  953TIP3    H1 2865   5.996   1.846   1.509  0.7893 -0.6938  2.7215
  953TIP3    H2 2866   6.111   1.940   1.479  0.5835 -1.0724  0.6290
  954TIP3   OH2 2867   2.337   5.073   4.514  0.1946 -0.0146 -0.1460
  954TIP3    H1 2868   2.426   5.092   4.543  0.5301 -2.4645  0.6567
  954TIP3    H2 2869   2.345   5.064   4.419  0.6454  0.5562 -0.1676
  955TIP3   OH2 2870   6.146   1.761   4.394 -0.5088 -0.6928 -0.3926
  955TIP3    H1 2871   6.057   1.790   4.372 -0.1770  0.1030 -0.7268
  955TIP3    H2 2872   6.182   1.732   4.310  0.0780  0.4819 -0.5752
  956TIP3   OH2 2873   0.102   0.938   3.576  0.2773 -0.1414 -0.0692
  956TIP3    H1 2874   0.059   0.963   3.494  0.4430 -0.0924 -0.1418
  956TIP3    H2 2875   0.086   0.844   3.585 -0.1171 -0.0651  0.0659
  957TIP3   OH2 2876   0.062   1.820   4.213  0.2009 -0.1643  0.7348
  957TIP3    H1 2877   0.105   1.768   4.281 -0.4251 -0.7542  0.6923
  957TIP3    H2 2878   0.030   1.755   4.150 -0.3284  0.2871  0.5255
  958TIP3   OH2 2879   5.497   2.499   4.977 -0.4578  0.2668  0.4705
  958TIP3    H1 2880   5.476   2.410   4.949 -1.6170  0.6010  0.2399
  958TIP3    H2 2881   5.464   2.505   5.067  1.1657 -0.0634  1.1203
  959TIP3   OH2 2882   1.602   3.162   0.360  0.0412  0.1705  0.6689
  959TIP3    H1 2883   1.697   3.156   0.355 -0.0793 -1.1230 -0.3577
  959TIP3    H2 2884   1.584   3.256   0.354  1.2341  0.4134  0.6812
  960TIP3   OH2 2885   0.401   3.490   3.705  0.0664  0.2515  0.3242
  960TIP3    H1 2886   0.443   3.457   3.626 -1.8917 -0.2351 -0.5834
  960TIP3    H2 2887   0.423   3.427   3.773  0.8056  0.0379 -0.1027
  961TIP3   OH2 2888   5.191   4.545   2.468 -0.3521 -0.1751  0.3255
  961TIP3    H1 2889   5.262   4.602   2.438 -0.3792 -0.9660 -1.3796
  961TIP3    H2 2890   5.172   4.574   2.557  1.8357  0.3386  0.6861
  962TIP3   OH2 2891   5.176   3.626   4.763  0.2236  0.3966  0.5609
  962TIP3    H1 2892   5.260   3.581   4.775 -0.6887 -1.6849 -0.2482
  962TIP3    H2 2893   5.123   3.598   4.838 -1.4014 -2.6217 -1.5220
  963TIP3   OH2 2894   1.639   1.557   4.791 -0.0917  0.1764  0.0451
  963TIP3    H1 2895   1.558   1.530   4.834 -0.7066  1.1449 -0.4668
  963TIP3    H2 2896   1.684   1.610   4.856 -0.5213  0.7606 -0.1211
  964TIP3   OH2 2897   3.304   4.253   2.180 -0.4048  0.4211  0.5380
  964TIP3    H1 2898   3.376   4.314   2.198 -0.5545  0.8896 -0.3886
  964TIP3    H2 2899   3.245   4.263   2.254 -1.2120  2.5953 -0.3081
  965TIP3   OH2 2900   1.659   0.361   0.816 -0.3848 -0.2713 -0.3014
  965TIP3    H1 2901   1.712   0.282   0.827  1.0584  0.6804 -0.2544
  965TIP3    H2 2902   1.698   0.406   0.742  0.3334  1.5612  1.1088
  966TIP3   OH2 2903   5.309   0.129   0.683  0.1781  0.1992 -0.0031
  966TIP3    H1 2904   5.404   0.137   0.680  0.2169  0.9366  1.7200
  966TIP3    H2 2905   5.278   0.217   0.704 -0.2635 -0.9922  6.8920
  967TIP3   OH2 2906   5.081   1.442   3.749 -0.0818 -0.2631 -0.2090
  967TIP3    H1 2907   5.156   1.476   3.699 -0.3411  0.1923 -0.2885
  967TIP3    H2 2908   5.004   1.476   3.703 -0.3206  0.2996  0.5993
  968TIP3   OH2 2909   3.493   2.846   3.837 -0.3064 -0.0043 -0.0938
  968TIP3    H1 2910   3.529   2.875   3.753 -0.6267  1.4885  0.2612
  968TIP3    H2 2911   3.408   2.809   3.814 -0.3859  0.3808 -0.4376
  969TIP3   OH2 2912   6.302   1.211   3.583  0.0692 -0.1580  0.1106
  969TIP3    H1 2913   6.386   1.168   3.575 -1.6556 -3.4634 -2.4080
  969TIP3    H2 2914   6.310   1.291   3.531  1.8027 -0.0316  0.5226
  970TIP3   OH2 2915   0.456   3.831   2.956  0.3469 -0.3761  0.7230
  970TIP3    H1 2916   0.436   3.781   2.877 -1.4974  1.6281 -0.1989
  970TIP3    H2 2917   0.406   3.912   2.946  1.2511  0.5989  3.2674
  971TIP3   OH2 2918   1.888   2.765   2.034  0.0878 -0.4564  0.1501
  971TIP3    H1 2919   1.888   2.822   2.110  0.8268  0.0659 -0.2275
  971TIP3    H2 2920   1.906   2.823   1.960 -1.4100 -0.8255 -0.5460
  972TIP3   OH2 2921   1.207   0.052   4.468  0.3062  0.2183 -0.4826
  972TIP3    H1 2922   1.210   0.120   4.401  2.4098 -1.0069 -1.7176
  972TIP3    H2 2923   1.254  -0.022   4.430 -0.6165 -1.4370  1.3914
  973TIP3   OH2 2924   2.674   3.845   0.751 -0.1245  0.2772 -0.1022
  973TIP3    H1 2925   2.694   3.934   0.779  1.6230 -0.2487  0.5039
  973TIP3    H2 2926   2.594   3.822   0.798  0.3480  0.9549  1.0739
  974TIP3   OH2 2927   0.373   5.787   3.624  0.0393 -0.0972 -0.1274
  974TIP3    H1 2928   0.433   5.860   3.637  1.4174 -0.7746 -2.2089
  974TIP3    H2 2929   0.289   5.818   3.659  0.3412  2.8346 -1.6885
  975TIP3   OH2 2930   2.195   0.592   0.041 -0.0347  0.4625 -0.2859
  975TIP3    H1 2931   2.108   0.632   0.032  0.4111  2.2251  2.0952
  975TIP3    H2 2932   2.211   0.590   0.135  1.8973 -1.2626 -0.5777
  976TIP3   OH2 2933   3.692   5.360   0.057  0.3249  0.0927  0.1183
  976TIP3    H1 2934   3.713   5.448   0.086  0.5468  0.1588 -0.2449
  976TIP3    H2 2935   3.692   5.365  -0.038 -1.7854  0.2086  0.0803
  977TIP3   OH2 2936   6.090   4.285   0.664  0.3988  0.0348 -0.1954
  977TIP3    H1 2937   6.019   4.284   0.728 -0.2953  0.1407 -0.9362
  977TIP3    H2 2938   6.071   4.212   0.606 -0.2423  1.2414 -1.5714
  978TIP3   OH2 2939   1.770   0.630   3.460 -0.2833  0.0688 -0.3508
  978TIP3    H1 2940   1.848   0.591   3.501 -1.2895 -1.8745 -0.1630
  978TIP3    H2 2941   1.798   0.652   3.372  0.5283 -0.4968 -0.2496
  979TIP3   OH2 2942   2.164   2.299   4.366 -0.5091  0.3247  0.0926
  979TIP3    H1 2943   2.124   2.357   4.300  1.6143  1.9403  0.1233
  979TIP3    H2 2944   2.244   2.268   4.324  1.2291  1.9065  2.0678
  980TIP3   OH2 2945   0.299   4.718   2.596  0.7676 -0.3109  0.5106
  980TIP3    H1 2946   0.291   4.674   2.681 -1.0280  0.6307  0.8872
  980TIP3    H2 2947   0.314   4.810   2.618 -0.7354  0.1193 -0.1370
  981TIP3   OH2 2948   4.465   5.012   4.358 -0.5829  0.2332  0.2291
  981TIP3    H1 2949   4.452   5.102   4.386  2.3037  0.2722  1.7886
  981TIP3    H2 2950   4.477   5.017   4.263  0.9108  1.7213  0.4565
  982TIP3   OH2 2951   0.499   0.448   3.503  0.4771  0.4828 -0.4232
  982TIP3    H1 2952   0.556   0.465   3.427 -1.5955  0.9493 -1.9707
  982TIP3    H2 2953   0.472   0.357   3.491 -1.6803  1.2162 -1.6255
  983TIP3   OH2 2954   1.766   3.099   3.037 -0.7312 -0.4526 -0.1631
  983TIP3    H1 2955   1.805   3.111   3.123 -2.1407  1.2544  0.3036
  983TIP3    H2 2956   1.738   3.008   3.036 -0.3498 -0.5999  1.0430
  984TIP3   OH2 2957   5.222   5.028   2.586 -0.0671  0.6630 -0.1739
  984TIP3    H1 2958   5.278   5.094   2.547 -0.6286  0.3005 -1.6852
  984TIP3    H2 2959   5.136   5.044   2.547 -0.2269 -0.8919 -0.5350
  985TIP3   OH2 2960   3.189   0.336   1.258  0.0757  1.1377  0.1233
  985TIP3    H1 2961   3.284   0.326   1.255 -0.1028 -0.6472 -0.8490
  985TIP3    H2 2962   3.165   0.311   1.347  0.4829  1.2509  0.2685
  986TIP3   OH2 2963   2.919   4.789   4.375 -0.3161 -0.1407  0.4301
  986TIP3    H1 2964   2.914   4.879   4.344 -0.7997 -0.5418 -0.7325
  986TIP3    H2 2965   2.952   4.796   4.464 -0.0524  1.1595  0.2532
  987TIP3   OH2 2966   1.529   5.769   0.725 -0.4643 -0.0346 -0.3454
  987TIP3    H1 2967   1.484   5.771   0.810 -0.1252  2.1114 -0.1468
  987TIP3    H2 2968   1.479   5.829   0.670  1.1723  1.1893 -0.6005
  988TIP3   OH2 2969   0.833   0.539   1.953  0.0526  0.0674 -0.2077
  988TIP3    H1 2970   0.741   0.544   1.979  0.5679 -0.2865  1.8867
  988TIP3    H2 2971   0.842   0.453   1.912 -0.5127  0.0473 -0.3004
  989TIP3   OH2 2972   1.329   0.275   2.622  0.0475 -0.2720 -0.0467
  989TIP3    H1 2973   1.258   0.337   2.636 -0.0138 -0.3368 -0.0670
  989TIP3    H2 2974   1.331   0.221   2.702 -0.9852 -1.3169 -0.6993
  990TIP3   OH2 2975   5.490   1.042   5.004  0.2353  0.2844 -0.3614
  990TIP3    H1 2976   5.533   1.075   4.925 -0.9235 -1.3491 -1.7582
  990TIP3    H2 2977   5.520   0.951   5.012  0.1874  0.3651  0.9930
  991TIP3   OH2 2978   1.840   2.998   3.882  0.8734  0.2632 -0.0578
  991TIP3    H1 2979   1.830   2.983   3.976  1.2131 -2.5540 -0.4091
  991TIP3    H2 2980   1.751   3.017   3.851  0.6110  0.2535  0.6802
  992TIP3   OH2 2981   5.390   4.852   5.099 -0.6807 -0.2141  0.5197
  992TIP3    H1 2982   5.369   4.849   5.006 -0.4692  1.6824  0.3751
  992TIP3    H2 2983   5.470   4.904   5.105  0.3580 -1.8414  1.6322
  993TIP3   OH2 2984   4.467   0.879   0.733 -0.0904  0.8194  0.0449
  993TIP3    H1 2985   4.454   0.788   0.762 -1.5635  0.6683 -0.9717
  993TIP3    H2 2986   4.470   0.930   0.814 -0.6477  0.0114  0.5906
  994TIP3   OH2 2987   5.684   2.001   4.236  0.1785  0.0499 -0.1385
  994TIP3    H1 2988   5.663   2.073   4.177  0.9473 -0.4523 -1.0539
  994TIP3    H2 2989   5.709   1.929   4.178 -0.1375 -0.8159  0.7672
  995TIP3   OH2 2990   1.683   0.660   2.460  0.3366  0.0340 -0.0477
  995TIP3    H1 2991   1.634   0.592   2.415  0.9097  0.3128 -1.1421
  995TIP3    H2 2992   1.631   0.681   2.537  0.3602 -1.9264  0.5540
  996TIP3   OH2 2993   5.302   5.334   4.347 -0.2712 -0.2510  0.2790
  996TIP3    H1 2994   5.216   5.335   4.389 -2.1274 -1.4450 -3.1209
  996TIP3    H2 2995   5.296   5.401   4.278  1.3610 -0.7189 -0.3683
  997TIP3   OH2 2996   3.540   0.776   4.077 -0.2153  0.3694  0.2118
  997TIP3    H1 2997   3.631   0.749   4.079 -0.4525 -0.5428 -0.5125
  997TIP3    H2 2998   3.510   0.770   4.168  0.1258 -0.4632  0.2730
  998TIP3   OH2 2999   0.387   3.766   0.922 -0.7361 -0.9275 -0.2942
  998TIP3    H1 3000   0.406   3.853   0.886 -0.3557 -1.0973 -0.5091
  998TIP3    H2 3001   0.454   3.752   0.988 -0.8170 -1.0462 -0.2364
  999TIP3   OH2 3002   2.861   1.553   0.677  0.0848 -0.6056  0.2343
  999TIP3    H1 3003   2.858   1.457   0.674  0.5450 -0.6642  1.2832
  999TIP3    H2 3004   2.911   1.573   0.756  0.5394  0.5040 -0.3134
 1000TIP3   OH2 3005   3.881   2.732   0.967  0.1300 -0.5789  0.5274
 1000TIP3    H1 3006   3.850   2.811   1.012  0.8879 -1.0705  1.9864
 1000TIP3    H2 3007   3.934   2.765   0.895  0.0533  0.2414  0.8311
 1001TIP3   OH2 3008   1.654   1.711   2.758 -0.3362  0.5032  0.0362
 1001TIP3    H1 3009   1.732   1.662   2.781 -0.1722  0.3544 -0.8035
 1001TIP3    H2 3010   1.654   1.786   2.818 -1.1169 -0.9862  2.0202
 1002TIP3   OH2 3011   5.087   2.138   0.898  0.1866 -0.0351 -0.1617
 1002TIP3    H1 3012   5.174   2.145   0.858  1.0677  0.3857  1.6724
 1002TIP3    H2 3013   5.033   2.200   0.849  1.1107  0.1901 -0.9231
 1003TIP3   OH2 3014   0.113   5.434   2.070 -0.0162 -0.5336  0.6365
 1003TIP3    H1 3015   0.070   5.357   2.105 -0.0829 -0.5629  0.4915
 1003TIP3    H2 3016   0.207   5.415   2.078 -0.0260 -1.0766 -0.3590
 1004TIP3   OH2 3017   5.091   3.722   3.698  0.2189 -0.2045  0.0871
 1004TIP3    H1 3018   5.014   3.710   3.753  0.8979 -0.3874  1.0081
 1004TIP3    H2 3019   5.163   3.682   3.747  1.1584  1.1626 -0.1186
 1005TIP3   OH2 3020   0.959   3.621   3.340 -0.0452  0.1664 -0.2919
 1005TIP3    H1 3021   1.005   3.539   3.320  0.3658  0.1119  0.7932
 1005TIP3    H2 3022   0.919   3.647   3.257 -0.1841 -1.1339 -0.6559
 1006TIP3   OH2 3023   1.716   4.836   0.322 -0.0115  0.7525  0.5766
 1006TIP3    H1 3024   1.806   4.822   0.350  0.4433 -0.4381 -1.3515
 1006TIP3    H2 3025   1.684   4.906   0.380  1.7252  0.3545  2.1015
 1007TIP3   OH2 3026   1.588   5.792   1.307 -0.3211  0.0989 -0.2469
 1007TIP3    H1 3027   1.575   5.698   1.324 -0.8607 -0.3012 -2.5053
 1007TIP3    H2 3028   1.501   5.825   1.290  0.1291  0.3771 -2.1976
 1008TIP3   OH2 3029   2.573   5.176   4.157  0.2876  0.1978  0.0662
 1008TIP3    H1 3030   2.620   5.150   4.078  0.1374  0.7107 -0.1952
 1008TIP3    H2 3031   2.571   5.272   4.153  3.4760  0.5346  2.5234
 1009TIP3   OH2 3032   5.209   2.604   1.832  0.8560 -0.1564 -0.1809
 1009TIP3    H1 3033   5.227   2.532   1.893  1.2283  0.8748  0.9633
 1009TIP3    H2 3034   5.283   2.663   1.843  0.1534  0.8013 -0.4984
 1010TIP3   OH2 3035   0.278   5.332   1.523 -0.5024 -0.2216 -0.0703
 1010TIP3    H1 3036   0.239   5.386   1.593 -1.9813  0.9228 -1.6686
 1010TIP3    H2 3037   0.204   5.308   1.467  0.8329  0.6828 -2.3936
 1011TIP3   OH2 3038   2.057   3.196   0.162  0.5783 -0.6203  0.3924
 1011TIP3    H1 3039   2.046   3.288   0.141  0.1280 -0.6762  0.3706
 1011TIP3    H2 3040   2.000   3.180   0.237  1.9657 -0.4936  1.5243
 1012TIP3   OH2 3041   3.690   4.321   2.753 -0.6049 -0.0695  0.1886
 1012TIP3    H1 3042   3.658   4.320   2.843 -0.6187  1.3501  0.2227
 1012TIP3    H2 3043   3.611   4.316   2.699 -0.8299  1.9128  0.2761
 1013TIP3   OH2 3044   0.403   2.780   2.097 -0.3924  0.5314  0.0964
 1013TIP3    H1 3045   0.472   2.789   2.163  0.8254 -1.0735 -0.8786
 1013TIP3    H2 3046   0.321   2.781   2.147  0.5428 -2.3180  1.8897
 1014TIP3   OH2 3047   6.057   4.298   1.115  0.2423 -0.0592  0.2000
 1014TIP3    H1 3048   5.993   4.369   1.124 -0.2694 -0.5301  0.3095
 1014TIP3    H2 3049   6.062   4.259   1.202 -0.8824 -1.3515 -0.2890
 1015TIP3   OH2 3050   5.008   4.271   3.036 -0.4357  0.1921 -0.2552
 1015TIP3    H1 3051   5.073   4.214   2.994  0.7515  0.9927  0.4353
 1015TIP3    H2 3052   4.926   4.221   3.033  0.7743 -2.0540  1.3361
 1016TIP3   OH2 3053   1.679   5.561   3.114  0.1967 -0.2277  0.0667
 1016TIP3    H1 3054   1.620   5.539   3.041  1.1901 -0.1171 -0.7914
 1016TIP3    H2 3055   1.661   5.653   3.131 -1.2363 -0.6527  1.1191
 1017TIP3   OH2 3056   4.298   0.649   4.711  0.1633 -0.4831  0.2860
 1017TIP3    H1 3057   4.263   0.605   4.789 -0.8868 -0.8180 -0.3551
 1017TIP3    H2 3058   4.367   0.591   4.680 -0.4993 -1.1521  0.0537
 1018TIP3   OH2 3059   4.713   3.366   1.942  0.0310  0.4024  0.1193
 1018TIP3    H1 3060   4.705   3.438   1.879 -1.1834 -0.4852 -0.7802
 1018TIP3    H2 3061   4.776   3.307   1.901  1.0715  0.9489  0.8852
 1019TIP3   OH2 3062   3.856   3.018   1.559  0.2299 -0.3665  0.3640
 1019TIP3    H1 3063   3.797   2.949   1.531  0.4033 -0.4242  0.1417
 1019TIP3    H2 3064   3.944   2.980   1.550  0.3725  0.1663 -0.5590
 1020TIP3   OH2 3065   0.713   5.468   2.312 -0.2878 -0.3213  0.0897
 1020TIP3    H1 3066   0.802   5.453   2.282  0.0376  0.8157  0.4365
 1020TIP3    H2 3067   0.721   5.482   2.406 -1.2806 -3.7713  0.8475
 1021TIP3   OH2 3068   2.713   0.816   1.601  0.1970 -0.5625  0.0933
 1021TIP3    H1 3069   2.794   0.768   1.615 -0.2131 -1.2016  0.2922
 1021TIP3    H2 3070   2.741   0.907   1.593  1.0534 -0.8867 -0.9343
 1022TIP3   OH2 3071   6.292   1.646   2.293  0.3719  0.3627 -0.2218
 1022TIP3    H1 3072   6.265   1.694   2.215  0.9162  1.1803  0.0832
 1022TIP3    H2 3073   6.344   1.709   2.344  0.0674 -0.1684  0.7791
 1023TIP3   OH2 3074   5.040   4.278   3.353  0.2241 -0.2790  0.6823
 1023TIP3    H1 3075   5.034   4.216   3.280  2.0122 -1.0878  1.1606
 1023TIP3    H2 3076   5.119   4.251   3.400  0.5144  1.8053  1.4598
 1024TIP3   OH2 3077   5.470   1.933   3.300 -0.5893  0.2405  0.0945
 1024TIP3    H1 3078   5.512   2.002   3.250  0.1751 -1.2750 -1.4765
 1024TIP3    H2 3079   5.534   1.909   3.367 -0.3246  0.1816 -0.1784
 1025TIP3   OH2 3080   1.285   5.080   2.019  0.6814  0.4886  0.5099
 1025TIP3    H1 3081   1.348   5.106   2.086  1.3103  0.2919 -0.0042
 1025TIP3    H2 3082   1.301   5.141   1.946  1.0306 -0.2671 -0.0517
 1026TIP3   OH2 3083   6.143   3.050   0.062  0.2311  0.1472 -0.0208
 1026TIP3    H1 3084   6.096   3.082   0.139  0.2466  0.5278 -0.1670
 1026TIP3    H2 3085   6.158   3.128   0.009  1.2269  0.0673  0.1240
 1027TIP3   OH2 3086   0.641   4.202   4.315  0.3227  0.0202  0.1682
 1027TIP3    H1 3087   0.620   4.293   4.296  1.3747  0.0367 -1.0268
 1027TIP3    H2 3088   0.689   4.205   4.398  2.5346  0.8774 -1.0652
 1028TIP3   OH2 3089   2.052   4.443   1.847  0.4211  0.4088 -0.2145
 1028TIP3    H1 3090   2.005   4.515   1.806  0.9191  2.1369  2.0655
 1028TIP3    H2 3091   1.988   4.403   1.906 -0.0840 -1.6214 -1.9729
 1029TIP3   OH2 3092   5.026   3.384   0.837 -0.0010 -0.0886 -0.4496
 1029TIP3    H1 3093   4.947   3.432   0.862  0.3912  0.4270 -0.1781
 1029TIP3    H2 3094   4.996   3.294   0.824 -0.2900 -0.3753  1.7064
 1030TIP3   OH2 3095   5.525   2.216   3.442 -0.1401 -0.1971 -0.0217
 1030TIP3    H1 3096   5.430   2.216   3.431 -0.0720 -1.4182 -0.7979
 1030TIP3    H2 3097   5.553   2.302   3.410 -0.6284 -1.2163 -3.5714
 1031TIP3   OH2 3098   2.745   3.833   3.548 -0.5539  0.3649  0.2764
 1031TIP3    H1 3099   2.702   3.821   3.463  0.2844 -0.3086 -0.0730
 1031TIP3    H2 3100   2.764   3.926   3.553 -2.2716  0.7383  0.5651
 1032TIP3   OH2 3101   0.494   3.298   3.200  0.5837  0.2135 -0.0274
 1032TIP3    H1 3102   0.522   3.364   3.136 -0.5047  0.5540 -0.1623
 1032TIP3    H2 3103   0.437   3.239   3.152  1.2966 -0.6661  0.1737
 1033TIP3   OH2 3104   3.871   2.440   4.333 -0.3508 -0.2239 -0.1214
 1033TIP3    H1 3105   3.890   2.372   4.268  1.8303  1.2592 -1.1667
 1033TIP3    H2 3106   3.931   2.420   4.405 -1.4017 -0.7382  0.6417
 1034TIP3   OH2 3107  -0.005   0.721   1.039  0.0473  0.0197  0.0233
 1034TIP3    H1 3108   0.086   0.695   1.050  0.2101  0.1916 -0.8322
 1034TIP3    H2 3109  -0.055   0.657   1.091  0.5892 -0.6620 -0.2813
 1035TIP3   OH2 3110   4.740   1.014   1.479 -0.0177  0.2111 -0.1811
 1035TIP3    H1 3111   4.732   1.102   1.441 -1.0704  0.0955 -0.2784
 1035TIP3    H2 3112   4.793   0.965   1.416  0.6683  0.7988 -0.0714
 1036TIP3   OH2 3113   3.492   2.311   3.495  0.8700  0.3742 -0.0047
 1036TIP3    H1 3114   3.411   2.319   3.444  1.1180 -1.0113 -0.6758
 1036TIP3    H2 3115   3.465   2.326   3.586  0.3585  2.5776 -0.4666
 1037TIP3   OH2 3116   5.876   0.774   2.921 -0.1327 -0.6393  0.3053
 1037TIP3    H1 3117   5.857   0.842   2.985 -1.3776 -0.3083 -0.3885
 1037TIP3    H2 3118   5.911   0.701   2.973 -1.2092 -0.4204  1.3738
 1038TIP3   OH2 3119   3.437   5.012   1.409  0.2841 -1.0329 -0.0980
 1038TIP3    H1 3120   3.370   4.951   1.441 -2.2592  0.9712 -1.2874
 1038TIP3    H2 3121   3.415   5.025   1.317  0.9018  1.4497  0.0475
 1039TIP3   OH2 3122   4.959   5.964   1.020  0.3596 -0.0231  0.2195
 1039TIP3    H1 3123   4.901   5.962   0.944 -0.6513  0.1422  0.9699
 1039TIP3    H2 3124   5.022   5.894   1.003 -0.2626 -0.4450 -0.4452
 1040TIP3   OH2 3125   2.721   2.922   2.901 -0.3600 -0.6537 -0.3752
 1040TIP3    H1 3126   2.680   2.991   2.848  0.8018  0.0170 -0.4476
 1040TIP3    H2 3127   2.725   2.846   2.843  1.5199  0.2629 -1.5738
 1041TIP3   OH2 3128   1.913   3.038   1.161  0.6196 -0.3230  0.4664
 1041TIP3    H1 3129   1.913   2.952   1.204  1.1113 -0.8557 -0.5496
 1041TIP3    H2 3130   1.988   3.084   1.198 -0.3677  0.1804  1.9412
 1042TIP3   OH2 3131   3.242   0.340   3.907  0.0933  0.4648 -0.2929
 1042TIP3    H1 3132   3.171   0.397   3.936 -0.4536  0.2003 -1.0789
 1042TIP3    H2 3133   3.319   0.397   3.909 -0.2528  0.9354 -0.0409
 1043TIP3   OH2 3134   4.735   1.604   1.180  0.4438  0.0862  0.1799
 1043TIP3    H1 3135   4.734   1.699   1.182 -0.1366  0.1113 -0.6529
 1043TIP3    H2 3136   4.800   1.579   1.245  0.1001  1.0307  0.9048
 1044TIP3   OH2 3137   5.633   2.838   3.373 -0.4415  0.3012 -0.2095
 1044TIP3    H1 3138   5.639   2.877   3.286  0.4932  0.3109 -0.1573
 1044TIP3    H2 3139   5.705   2.775   3.376 -0.8387 -0.1380  0.3438
 1045TIP3   OH2 3140   4.889   1.462   3.068 -0.1434  0.5457  0.3171
 1045TIP3    H1 3141   4.839   1.456   2.987 -0.8631 -0.4282  0.8221
 1045TIP3    H2 3142   4.838   1.524   3.122 -0.1565  0.4842  0.3749
 1046TIP3   OH2 3143   3.853   2.465   1.682  0.2096 -0.3647  0.3074
 1046TIP3    H1 3144   3.795   2.508   1.745  0.5870  0.5202  0.0645
 1046TIP3    H2 3145   3.841   2.514   1.601  1.1419 -0.3035  0.1991
 1047TIP3   OH2 3146   5.461   1.231   3.110 -0.2108 -0.3467  0.5692
 1047TIP3    H1 3147   5.511   1.294   3.163  1.5635 -1.4251  0.2741
 1047TIP3    H2 3148   5.447   1.157   3.169  0.2737 -0.8446  0.0785
 1048TIP3   OH2 3149   2.703   5.603   1.142  0.3511  0.3480 -0.1477
 1048TIP3    H1 3150   2.793   5.634   1.155 -0.2928  2.1214  0.3090
 1048TIP3    H2 3151   2.703   5.568   1.053  1.3054  1.0961 -0.4684
 1049TIP3   OH2 3152   4.944   4.348   1.620 -0.2642  0.1568  0.0696
 1049TIP3    H1 3153   4.994   4.427   1.641  2.0396 -1.5806  1.7123
 1049TIP3    H2 3154   4.941   4.346   1.524  1.9172  0.9596 -0.0812
 1050TIP3   OH2 3155   3.076   2.470   3.215  0.3934  0.3800 -0.6748
 1050TIP3    H1 3156   3.167   2.492   3.195 -0.2063  1.5750 -2.2454
 1050TIP3    H2 3157   3.025   2.510   3.145 -1.5369  1.4863  1.2418
 1051TIP3   OH2 3158   3.063   4.386   4.048  0.0188 -0.2800  0.2590
 1051TIP3    H1 3159   3.158   4.375   4.045 -0.0284 -0.5097 -1.1916
 1051TIP3    H2 3160   3.050   4.481   4.040  0.1241 -0.2911 -0.0747
 1052TIP3   OH2 3161   1.907   0.287   3.180 -0.2332  0.0628  0.5523
 1052TIP3    H1 3162   1.827   0.301   3.232  0.3550  0.9762  1.2491
 1052TIP3    H2 3163   1.915   0.192   3.173 -0.0817 -0.0968  2.5377
 1053TIP3   OH2 3164   4.854   0.888   1.690 -0.4755 -0.3573  0.2457
 1053TIP3    H1 3165   4.800   0.821   1.732  0.8101 -0.6600  1.4876
 1053TIP3    H2 3166   4.793   0.938   1.636 -2.2641  0.1302  2.5616
 1054TIP3   OH2 3167  -0.010   3.476   0.663 -0.0884 -0.1699  0.3632
 1054TIP3    H1 3168   0.070   3.527   0.650  0.2570 -0.8653 -0.3161
 1054TIP3    H2 3169   0.002   3.435   0.749  0.5516 -0.7411  0.0066
 1055TIP3   OH2 3170   5.239   0.644   2.042 -0.4539  0.3790 -0.1816
 1055TIP3    H1 3171   5.322   0.660   1.998 -1.2090  1.2991 -1.3444
 1055TIP3    H2 3172   5.263   0.605   2.126  1.2001  1.6945  0.0051
 1056TIP3   OH2 3173   4.861   4.193   4.074 -0.4111 -0.4615 -0.1446
 1056TIP3    H1 3174   4.878   4.143   4.154 -0.4851  0.5737  0.5522
 1056TIP3    H2 3175   4.768   4.182   4.058 -0.7170  0.5163  0.7929
 1057TIP3   OH2 3176   4.027   2.752   4.747  0.2975 -0.4358  0.5109
 1057TIP3    H1 3177   4.097   2.706   4.795 -0.0572  0.3249  1.8091
 1057TIP3    H2 3178   3.986   2.808   4.813 -0.0958  0.8072 -0.7503
 1058TIP3   OH2 3179   4.395   2.540   1.122 -0.2127 -0.0526 -0.6731
 1058TIP3    H1 3180   4.335   2.490   1.178 -2.1513  0.5226 -2.1318
 1058TIP3    H2 3181   4.403   2.488   1.043 -0.2903  0.7695 -1.2308
 1059TIP3   OH2 3182   2.426   4.519   1.049  0.1206 -0.4541  0.8633
 1059TIP3    H1 3183   2.428   4.609   1.082  1.1025  0.0493 -0.4815
 1059TIP3    H2 3184   2.429   4.529   0.954 -0.0125 -1.9160  0.6929
 1060TIP3   OH2 3185   3.306   1.763   4.923 -0.3357  0.1024 -0.0068
 1060TIP3    H1 3186   3.212   1.757   4.940 -0.5852  0.7648 -1.1028
 1060TIP3    H2 3187   3.330   1.852   4.948 -0.3225  0.4463 -1.1858
 1061TIP3   OH2 3188   0.305   2.129   4.511  0.2541  0.0749 -0.1080
 1061TIP3    H1 3189   0.388   2.100   4.551  1.5786  0.1578 -2.6107
 1061TIP3    H2 3190   0.301   2.084   4.427 -1.9714  0.5773 -0.3351
 1062TIP3   OH2 3191   3.058   0.716   0.032  0.1889 -0.4564  0.4957
 1062TIP3    H1 3192   3.137   0.748   0.074 -0.6254  0.3591  1.4550
 1062TIP3    H2 3193   2.986   0.745   0.088 -1.1139  2.1472 -2.2262
 1063TIP3   OH2 3194   2.671   5.328   3.406 -0.7088 -0.7059  0.0117
 1063TIP3    H1 3195   2.582   5.338   3.439 -0.5176 -0.6667  0.5291
 1063TIP3    H2 3196   2.709   5.261   3.463  0.0196  0.2467  0.6690
 1064TIP3   OH2 3197   4.549   5.134   0.659  0.1792 -0.0375 -0.4361
 1064TIP3    H1 3198   4.590   5.189   0.726  2.6683 -0.5828 -1.4109
 1064TIP3    H2 3199   4.534   5.050   0.702 -2.1468  0.8002  0.5786
 1065TIP3   OH2 3200   3.073   0.530   4.773  0.3827 -0.1269  0.2014
 1065TIP3    H1 3201   3.051   0.501   4.685 -0.1889  2.3465 -0.5252
 1065TIP3    H2 3202   3.028   0.468   4.830  0.7224 -1.7437 -1.1981
 1066TIP3   OH2 3203   5.658   0.434   0.869  0.0220 -0.2967  0.1976
 1066TIP3    H1 3204   5.593   0.411   0.935 -1.7360  0.1640 -1.3017
 1066TIP3    H2 3205   5.641   0.375   0.796  2.3450 -1.2386  0.3419
 1067TIP3   OH2 3206   1.275   1.446   3.814  0.5615  0.0001  0.5196
 1067TIP3    H1 3207   1.180   1.439   3.825  0.2412  3.6570  1.6582
 1067TIP3    H2 3208   1.287   1.465   3.721  0.6227 -3.5954 -0.3500
 1068TIP3   OH2 3209   6.262   0.175   2.432 -1.1002 -0.6085  0.0378
 1068TIP3    H1 3210   6.191   0.173   2.368 -0.2977 -1.6819 -0.8773
 1068TIP3    H2 3211   6.236   0.240   2.496 -1.8605  0.6393 -1.4843
 1069TIP3   OH2 3212   0.384   4.767   3.633  0.0255 -0.2125  0.0238
 1069TIP3    H1 3213   0.422   4.718   3.706 -0.4589 -2.7817 -1.3290
 1069TIP3    H2 3214   0.291   4.775   3.655 -0.0540 -0.6712 -0.1399
 1070TIP3   OH2 3215   2.078   5.430   1.329 -0.0821  0.0781  0.6107
 1070TIP3    H1 3216   2.172   5.422   1.317 -0.1494 -1.2745  0.7656
 1070TIP3    H2 3217   2.053   5.351   1.376 -1.4563 -0.1664 -0.4364
 1071TIP3   OH2 3218   3.965   0.872   4.318 -0.2009  0.1968 -0.8393
 1071TIP3    H1 3219   4.010   0.956   4.310  0.9618 -0.4821 -1.7435
 1071TIP3    H2 3220   4.033   0.812   4.350 -0.8443 -0.5425 -0.8354
 1072TIP3   OH2 3221   4.960   0.525   3.466 -0.2213 -0.1784  0.3981
 1072TIP3    H1 3222   4.867   0.543   3.451 -0.0560 -0.6287 -1.3200
 1072TIP3    H2 3223   5.005   0.604   3.436  0.1462 -1.2754 -2.2215
 1073TIP3   OH2 3224   3.604   0.368   1.883 -0.0868  0.0376 -0.4116
 1073TIP3    H1 3225   3.637   0.291   1.837 -1.1252 -1.1176  0.6864
 1073TIP3    H2 3226   3.597   0.340   1.974 -0.9642  1.2735 -0.0700
 1074TIP3   OH2 3227   1.500   2.932   2.863 -0.3996 -0.9171 -0.4350
 1074TIP3    H1 3228   1.534   2.896   2.944  0.8869  0.0960 -0.4947
 1074TIP3    H2 3229   1.572   2.925   2.801 -0.1549  1.4345 -0.5094
 1075TIP3   OH2 3230   4.736   5.954   1.806 -0.1335  0.2120  0.1401
 1075TIP3    H1 3231   4.681   5.875   1.809 -0.1099  0.2210  1.7785
 1075TIP3    H2 3232   4.719   5.998   1.890  1.4719  0.8374  0.1716
 1076TIP3   OH2 3233   1.553   2.936   0.543  0.9191 -0.0860 -0.2417
 1076TIP3    H1 3234   1.594   2.975   0.466  0.3719  0.1538 -0.4162
 1076TIP3    H2 3235   1.581   2.991   0.616  0.7096  0.2206 -0.3932
 1077TIP3   OH2 3236   5.712   1.030   1.086 -0.1514  0.5636 -0.4478
 1077TIP3    H1 3237   5.685   0.960   1.146 -1.5428  1.0915 -0.4259
 1077TIP3    H2 3238   5.802   1.007   1.062  1.3200  1.4056  3.4422
 1078TIP3   OH2 3239   0.197   2.629   0.638  0.0133 -0.2874  0.2938
 1078TIP3    H1 3240   0.119   2.595   0.682  0.3581 -0.3022  0.9043
 1078TIP3    H2 3241   0.258   2.649   0.709 -0.0609  1.3349 -0.0645
 1079TIP3   OH2 3242   4.188   2.673   4.948 -0.1552  0.4295  0.0698
 1079TIP3    H1 3243   4.270   2.711   4.981  0.8550  0.0244 -1.8179
 1079TIP3    H2 3244   4.207   2.579   4.938 -0.0604  0.6518 -2.4417
 1080TIP3   OH2 3245   4.103   4.123   2.418 -0.3249 -0.1033  0.0652
 1080TIP3    H1 3246   4.103   4.080   2.503 -2.8323 -0.3046  0.0271
 1080TIP3    H2 3247   4.107   4.217   2.439  0.7129 -0.1842  0.3012
 1081TIP3   OH2 3248   3.554   2.073   3.828 -0.5638 -0.6324 -0.3126
 1081TIP3    H1 3249   3.526   2.154   3.869 -1.6988 -0.9542 -0.4197
 1081TIP3    H2 3250   3.515   2.004   3.881 -2.1675 -1.0582 -1.9328
 1082TIP3   OH2 3251   6.154   5.964   4.922 -0.3223  0.7036  0.2335
 1082TIP3    H1 3252   6.249   5.958   4.933 -0.1098  0.9668 -1.1890
 1082TIP3    H2 3253   6.120   5.979   5.010  0.8825 -0.1455  0.8782
 1083TIP3   OH2 3254   0.261   5.725   4.993  0.2075  0.0007 -0.0370
 1083TIP3    H1 3255   0.265   5.696   5.085 -0.6403  0.5429  0.1875
 1083TIP3    H2 3256   0.274   5.819   4.998  1.1959 -0.1020 -0.5869
 1084TIP3   OH2 3257   0.871   0.405   2.527  0.1718  0.4578  0.4699
 1084TIP3    H1 3258   0.910   0.433   2.445  0.9303  0.5125  0.8395
 1084TIP3    H2 3259   0.777   0.398   2.508  0.3979  0.0046 -0.5137
 1085TIP3   OH2 3260   5.014   4.919   3.272 -0.2994 -0.3165  0.2770
 1085TIP3    H1 3261   5.050   4.867   3.344 -0.5878 -0.8816  0.0194
 1085TIP3    H2 3262   4.938   4.869   3.242 -1.3270  0.8485  0.8183
 1086TIP3   OH2 3263   5.819   1.767   3.372  0.4659 -0.1667 -0.6076
 1086TIP3    H1 3264   5.840   1.817   3.294 -0.6354 -2.1571 -2.2806
 1086TIP3    H2 3265   5.837   1.676   3.349  2.2744 -0.6732  2.2527
 1087TIP3   OH2 3266   0.208   4.102   0.978 -0.1760  0.0693 -0.1209
 1087TIP3    H1 3267   0.246   4.090   0.891  0.1670  0.1942  0.0087
 1087TIP3    H2 3268   0.115   4.114   0.963  0.1176  2.0480 -0.6280
 1088TIP3   OH2 3269   1.560   3.503   4.315 -0.0589  0.2084  0.6419
 1088TIP3    H1 3270   1.509   3.428   4.345  1.5458 -1.7089 -1.1477
 1088TIP3    H2 3271   1.609   3.471   4.239  2.2600  2.4914  1.0191
 1089TIP3   OH2 3272   1.167   0.751   3.145 -0.5869 -0.1905  0.1211
 1089TIP3    H1 3273   1.226   0.676   3.140  0.2045  0.4626 -0.7161
 1089TIP3    H2 3274   1.224   0.825   3.167 -1.1587  0.3825 -0.2953
 1090TIP3   OH2 3275   5.285   0.396   4.240  0.1535 -0.5041 -0.3594
 1090TIP3    H1 3276   5.304   0.438   4.324  0.5733 -1.8474  0.2523
 1090TIP3    H2 3277   5.360   0.418   4.185 -0.7761  1.5364 -0.8680
 1091TIP3   OH2 3278   2.357   1.999   3.201 -0.3822  0.5780 -0.2324
 1091TIP3    H1 3279   2.368   1.956   3.286 -1.0038  0.7746 -0.0479
 1091TIP3    H2 3280   2.363   2.092   3.221 -1.2913  0.6526 -0.2834
 1092TIP3   OH2 3281   2.748   4.705   3.095  0.6735 -0.3115 -0.9342
 1092TIP3    H1 3282   2.832   4.659   3.091  0.1761 -1.4080  0.5988
 1092TIP3    H2 3283   2.765   4.780   3.152 -0.0850 -2.2682  2.0721
 1093TIP3   OH2 3284   2.501   2.382   3.033 -0.3654  0.2632  0.1171
 1093TIP3    H1 3285   2.466   2.390   2.944 -3.7608  3.2131  1.4276
 1093TIP3    H2 3286   2.551   2.463   3.046  1.7843 -1.0317  0.3817
 1094TIP3   OH2 3287   1.705   1.124   1.404  0.1708  0.5716 -0.4318
 1094TIP3    H1 3288   1.703   1.029   1.415  0.3410  0.4286 -1.4891
 1094TIP3    H2 3289   1.783   1.152   1.451 -0.1777  0.2554  0.3440
 1095TIP3   OH2 3290   0.763   0.999   2.888  0.4893 -0.2582  0.0281
 1095TIP3    H1 3291   0.806   0.948   2.956  0.9663  0.4782  0.2931
 1095TIP3    H2 3292   0.823   0.994   2.813  1.2285  1.0425  0.5044
 1096TIP3   OH2 3293   2.717   1.292   1.513 -0.3310 -0.1025  0.6445
 1096TIP3    H1 3294   2.738   1.354   1.583  0.1941  0.0528  0.3569
 1096TIP3    H2 3295   2.629   1.260   1.535 -0.4346  0.4217  1.0251
 1097TIP3   OH2 3296   3.327   4.735   1.992 -0.5493 -0.2692  0.1349
 1097TIP3    H1 3297   3.245   4.686   2.004 -0.2995 -0.7743 -0.1521
 1097TIP3    H2 3298   3.331   4.752   1.898 -1.1753  1.2920  0.3641
 1098TIP3   OH2 3299   3.063   0.788   3.397  0.0188 -0.0030  0.1626
 1098TIP3    H1 3300   3.145   0.771   3.444 -1.2887 -0.6763  2.3428
 1098TIP3    H2 3301   3.051   0.711   3.342  0.1967 -0.5251  0.8433
 1099TIP3   OH2 3302   4.554   1.825   1.524 -0.2915  0.4915 -0.8051
 1099TIP3    H1 3303   4.479   1.822   1.464 -0.9908 -1.4098  0.1050
 1099TIP3    H2 3304   4.517   1.805   1.610  1.3706 -1.3614 -0.4623
 1100TIP3   OH2 3305   0.290   1.744   3.985 -0.2055 -0.5795  0.2899
 1100TIP3    H1 3306   0.239   1.680   3.935  0.5062 -0.9420  0.0186
 1100TIP3    H2 3307   0.227   1.813   4.007 -1.3165 -1.9565  1.6910
 1101TIP3   OH2 3308   3.797  -0.019   3.664  0.1814  0.8925 -0.0506
 1101TIP3    H1 3309   3.800  -0.043   3.757 -1.8590  0.6685  0.0098
 1101TIP3    H2 3310   3.783   0.075   3.664 -1.0168  0.7268 -0.0835
 1102TIP3   OH2 3311   0.074   1.532   2.061  0.2838  0.0280 -0.3848
 1102TIP3    H1 3312   0.156   1.517   2.107 -0.5985 -0.6817  1.0496
 1102TIP3    H2 3313   0.007   1.530   2.130 -0.7881  2.3101 -1.2628
 1103TIP3   OH2 3314   4.354   3.514   1.133  0.6002  0.6537 -0.2271
 1103TIP3    H1 3315   4.360   3.513   1.038  0.4416 -0.5544 -0.2332
 1103TIP3    H2 3316   4.277   3.568   1.152  0.0101  0.0213 -0.8161
 1104TIP3   OH2 3317   0.097   3.282   3.222  0.3305 -0.0756 -0.0469
 1104TIP3    H1 3318   0.167   3.266   3.158 -0.5830  1.4131 -1.5072
 1104TIP3    H2 3319   0.129   3.354   3.275 -0.1863  0.8132 -0.9157
 1105TIP3   OH2 3320   4.121   1.474   2.943  0.1975  0.0875 -0.0412
 1105TIP3    H1 3321   4.030   1.468   2.915  0.7078  1.7731 -2.4246
 1105TIP3    H2 3322   4.118   1.515   3.029 -1.2975 -0.7425  0.3380
 1106TIP3   OH2 3323   1.103   2.127   3.857 -0.5659 -0.7987 -0.2626
 1106TIP3    H1 3324   1.107   2.035   3.884  0.6077 -0.8248 -0.4698
 1106TIP3    H2 3325   1.057   2.126   3.773 -0.8712 -1.1489 -0.0943
 1107TIP3   OH2 3326   6.037   0.425   1.388  0.4623  0.3984 -0.2262
 1107TIP3    H1 3327   6.052   0.488   1.458 -1.8704 -0.5952  1.3144
 1107TIP3    H2 3328   6.091   0.350   1.411 -1.8256 -0.7664  1.8519
 1108TIP3   OH2 3329   1.469   4.551   3.291 -0.5490  0.2317 -0.3200
 1108TIP3    H1 3330   1.532   4.600   3.239 -2.2521  1.4638 -1.3435
 1108TIP3    H2 3331   1.447   4.611   3.363 -0.4058 -0.2725  0.1489
 1109TIP3   OH2 3332   0.055   4.686   4.515  0.1893 -0.0756 -0.8729
 1109TIP3    H1 3333   0.050   4.780   4.498 -1.4503 -0.1955 -1.2225
 1109TIP3    H2 3334   0.145   4.663   4.493  0.0457  1.0169 -2.9104
 1110TIP3   OH2 3335   1.623   0.373   1.272  0.4571 -0.0926 -0.0104
 1110TIP3    H1 3336   1.578   0.289   1.279 -0.2070  0.2088 -0.5300
 1110TIP3    H2 3337   1.678   0.378   1.350 -1.1583 -0.0355  1.1802
 1111TIP3   OH2 3338   5.762   0.036   2.602 -0.4677 -0.3000 -0.3089
 1111TIP3    H1 3339   5.845   0.020   2.558 -2.1122 -1.7968 -3.2133
 1111TIP3    H2 3340   5.746  -0.045   2.652  0.1297  0.2924  0.8693
 1112TIP3   OH2 3341   6.348   1.758   2.605 -0.6251  0.1448 -0.1417
 1112TIP3    H1 3342   6.263   1.719   2.625 -1.5668  1.5824 -1.1035
 1112TIP3    H2 3343   6.411   1.707   2.656 -2.0729 -0.8494  0.7270
 1113TIP3   OH2 3344   5.997   3.490   1.200  0.4695 -0.8179  0.3575
 1113TIP3    H1 3345   6.071   3.450   1.246  1.7842  1.0299 -0.0307
 1113TIP3    H2 3346   6.015   3.584   1.204 -0.7895 -0.4405 -1.5621
 1114TIP3   OH2 3347   4.759   3.342   2.638 -0.4132 -0.2941  0.3862
 1114TIP3    H1 3348   4.709   3.261   2.650 -1.6679  0.5434  1.0926
 1114TIP3    H2 3349   4.708   3.392   2.575  0.6993 -0.2986 -0.5504
 1115TIP3   OH2 3350   1.053   0.763   1.585 -0.3074 -0.4457 -0.2260
 1115TIP3    H1 3351   1.017   0.793   1.502 -0.4178  0.2601  0.0733
 1115TIP3    H2 3352   1.075   0.843   1.632 -0.2649 -0.8435  0.4363
 1116TIP3   OH2 3353   5.838   4.297   3.875 -0.4182 -0.4878  0.3474
 1116TIP3    H1 3354   5.813   4.389   3.877  0.7765 -0.1457 -0.0283
 1116TIP3    H2 3355   5.922   4.295   3.830 -1.0532 -1.9220 -0.8758
 1117TIP3   OH2 3356   4.778   4.263   2.397  0.1324 -0.1557 -0.3591
 1117TIP3    H1 3357   4.841   4.293   2.462 -1.4492 -1.6011  1.9640
 1117TIP3    H2 3358   4.783   4.168   2.399 -1.3796 -0.2777 -0.8607
 1118TIP3   OH2 3359   1.945   0.799   4.598 -0.6143  0.4605 -0.6489
 1118TIP3    H1 3360   1.941   0.741   4.674 -2.5441 -0.2814 -1.2444
 1118TIP3    H2 3361   2.012   0.863   4.620  1.0170 -1.4811  0.3844
 1119TIP3   OH2 3362   3.265   5.874   4.733  0.2023 -0.1547 -0.0279
 1119TIP3    H1 3363   3.176   5.909   4.730  0.4652  0.4560 -1.5236
 1119TIP3    H2 3364   3.266   5.803   4.669  0.6184 -0.6264  0.4821
 1120TIP3   OH2 3365   4.865   2.206   1.068 -0.3356  0.5251 -0.7494
 1120TIP3    H1 3366   4.913   2.197   0.985  0.3665 -1.1793 -0.1997
 1120TIP3    H2 3367   4.930   2.241   1.129 -0.4327  0.3753 -0.5588
 1121TIP3   OH2 3368   0.943   1.394   0.911  0.1558  0.0539  0.3841
 1121TIP3    H1 3369   1.011   1.330   0.930 -1.9606 -2.0308  1.5675
 1121TIP3    H2 3370   0.894   1.357   0.838 -0.8711  0.4706  0.8282
 1122TIP3   OH2 3371   0.234   3.222   2.272  0.1807  0.2892  0.7095
 1122TIP3    H1 3372   0.236   3.314   2.297 -0.4405  0.4906  0.0771
 1122TIP3    H2 3373   0.326   3.198   2.260  0.3378  0.8695  0.7228
 1123TIP3   OH2 3374   0.662   5.873   2.673  0.2753  0.3427  0.6392
 1123TIP3    H1 3375   0.630   5.963   2.675  3.1577  1.6184 -1.9854
 1123TIP3    H2 3376   0.697   5.857   2.760  2.6533  3.0668  0.3070
 1124TIP3   OH2 3377   5.624   2.610   3.829  0.6532 -0.1317  0.3865
 1124TIP3    H1 3378   5.553   2.549   3.850  0.0230  0.5101  0.1436
 1124TIP3    H2 3379   5.624   2.672   3.902  1.2895 -0.4027  0.6275
 1125TIP3   OH2 3380   2.682   4.996   4.343  0.1721 -0.1206 -0.0719
 1125TIP3    H1 3381   2.679   4.908   4.306 -0.6520  0.0131 -0.3307
 1125TIP3    H2 3382   2.625   5.048   4.287 -2.1820 -0.1878  2.0595
 1126TIP3   OH2 3383   3.673   4.856   1.727  0.1449  0.0528 -0.1157
 1126TIP3    H1 3384   3.637   4.939   1.696  0.0253  0.1005  0.1425
 1126TIP3    H2 3385   3.749   4.881   1.779 -0.6394  0.0964  1.0441
 1127TIP3   OH2 3386   2.816   4.529   2.563 -0.1775 -0.6173  0.3029
 1127TIP3    H1 3387   2.861   4.501   2.484  1.7896  1.0623  0.7521
 1127TIP3    H2 3388   2.727   4.495   2.553 -0.6855  1.3463 -3.6296
 1128TIP3   OH2 3389   1.222   1.583   4.521  0.4489  0.0983 -0.1963
 1128TIP3    H1 3390   1.205   1.519   4.451  2.7706 -0.7656 -0.0647
 1128TIP3    H2 3391   1.279   1.648   4.480 -0.6067  1.2640  0.1196
 1129TIP3   OH2 3392   0.664   0.658   2.392 -0.8812  0.4694  0.5574
 1129TIP3    H1 3393   0.678   0.716   2.466  0.1216 -0.7719  1.3637
 1129TIP3    H2 3394   0.750   0.620   2.373 -1.6623 -1.5624  0.7636
 1130TIP3   OH2 3395   1.875   5.522   3.741  0.4058  0.4849 -0.1917
 1130TIP3    H1 3396   1.848   5.559   3.825  1.6715  1.0834 -0.0192
 1130TIP3    H2 3397   1.960   5.562   3.724  0.5780 -0.3212 -1.3272
 1131TIP3   OH2 3398   4.423   1.987   0.900  0.4624  0.6141  0.2386
 1131TIP3    H1 3399   4.473   1.906   0.899  2.6829  1.9280 -0.1964
 1131TIP3    H2 3400   4.391   1.994   0.990 -0.1344 -0.9299  0.1696
 1132TIP3   OH2 3401   3.813   3.373   2.811 -1.0250  0.1893 -0.8561
 1132TIP3    H1 3402   3.909   3.378   2.812 -1.0157  0.0549  0.6304
 1132TIP3    H2 3403   3.793   3.281   2.828 -1.4425 -0.0631 -2.4808
 1133TIP3   OH2 3404   5.486   5.160   0.917 -0.5778  0.1418  0.4786
 1133TIP3    H1 3405   5.535   5.240   0.897 -1.2659  0.2577 -0.8488
 1133TIP3    H2 3406   5.529   5.092   0.864 -1.2261  0.0513  0.0565
 1134TIP3   OH2 3407   1.266   4.565   3.059  0.6127 -0.1532  0.4727
 1134TIP3    H1 3408   1.281   4.657   3.039  1.4207  0.0295  1.7955
 1134TIP3    H2 3409   1.335   4.542   3.121 -0.2498 -1.3457  1.0401
 1135TIP3   OH2 3410   3.630   3.952   1.032 -0.2856 -0.1895 -0.1074
 1135TIP3    H1 3411   3.561   3.929   0.970 -0.5018 -1.2027  0.4955
 1135TIP3    H2 3412   3.687   4.012   0.983 -1.5076  0.5643 -0.6547
 1136TIP3   OH2 3413   4.804   4.330   4.492 -0.6284 -0.2924 -0.6057
 1136TIP3    H1 3414   4.714   4.345   4.522 -0.0263 -0.9271  1.6873
 1136TIP3    H2 3415   4.859   4.380   4.552  0.6016 -0.0031 -1.9000
 1137TIP3   OH2 3416   0.713   2.344   0.958  0.5360  0.4363 -0.5630
 1137TIP3    H1 3417   0.807   2.356   0.971  0.2393  0.7303  1.9187
 1137TIP3    H2 3418   0.687   2.414   0.899  1.7417  0.8803 -0.5845
 1138TIP3   OH2 3419   5.025   1.500   4.491 -0.1056  0.3209  0.0054
 1138TIP3    H1 3420   4.942   1.497   4.443  1.2110 -1.4336 -2.3712
 1138TIP3    H2 3421   5.068   1.579   4.457  0.3882 -0.3645 -1.0313
 1139TIP3   OH2 3422   5.092   4.784   2.952  0.7293 -0.6652 -0.2185
 1139TIP3    H1 3423   5.032   4.766   2.880  2.6189  2.2091 -2.7414
 1139TIP3    H2 3424   5.065   4.870   2.985  3.1459  0.6067 -1.2858
 1140TIP3   OH2 3425   3.494   3.885   0.799  0.2230  0.0997 -0.3642
 1140TIP3    H1 3426   3.403   3.909   0.780 -0.1088 -1.1984 -0.4555
 1140TIP3    H2 3427   3.526   3.848   0.717  1.2549  1.6707 -0.7294
 1141TIP3   OH2 3428   3.456   4.812   1.195  0.8573 -0.1798  0.1137
 1141TIP3    H1 3429   3.464   4.793   1.101 -2.4707  0.2298 -0.3661
 1141TIP3    H2 3430   3.478   4.905   1.201 -0.6980  0.2679 -0.6218
 1142TIP3   OH2 3431   5.496   2.391   2.396  0.8242  0.8324  0.3681
 1142TIP3    H1 3432   5.475   2.467   2.449 -1.9766 -1.0875  2.3229
 1142TIP3    H2 3433   5.413   2.344   2.387  1.9877 -0.9960 -2.4795
 1143TIP3   OH2 3434   3.279   3.948   2.933 -0.2749 -0.6341  0.3186
 1143TIP3    H1 3435   3.262   3.970   3.024 -1.0097  0.8185 -0.1346
 1143TIP3    H2 3436   3.310   3.858   2.935  0.1793 -0.4691  2.0395
 1144TIP3   OH2 3437   2.138   0.750   2.663  0.4123 -0.3360  0.0348
 1144TIP3    H1 3438   2.114   0.838   2.632  2.5165 -0.2715 -1.6448
 1144TIP3    H2 3439   2.075   0.692   2.621  0.4879  0.1751 -0.8170
 1145TIP3   OH2 3440   3.810   0.848   1.999 -0.5569 -0.0698  0.0448
 1145TIP3    H1 3441   3.755   0.770   1.993 -2.4404  1.1871  0.2576
 1145TIP3    H2 3442   3.761   0.915   1.951  1.4382  0.7812 -0.9014
 1146TIP3   OH2 3443   5.590   4.461   2.833  0.3455  0.2892  0.3028
 1146TIP3    H1 3444   5.636   4.543   2.851  0.7549  0.1478 -0.0749
 1146TIP3    H2 3445   5.513   4.487   2.782  0.3273  0.4658  0.4204
 1147TIP3   OH2 3446   0.450   1.043   2.192 -0.3696 -0.0428 -0.3049
 1147TIP3    H1 3447   0.457   1.042   2.097  0.2627 -0.1084 -0.2598
 1147TIP3    H2 3448   0.533   1.078   2.222 -0.2757 -0.7184  0.2486
 1148TIP3   OH2 3449   5.826   5.661   2.831 -0.0594  0.2782  0.0955
 1148TIP3    H1 3450   5.782   5.669   2.916  0.7829  3.5652  0.3711
 1148TIP3    H2 3451   5.781   5.724   2.775  1.5653  0.6492 -0.8502
 1149TIP3   OH2 3452   1.440   3.441   0.639  0.2462 -0.8807  0.1383
 1149TIP3    H1 3453   1.413   3.407   0.724 -0.9814  0.0953  0.1583
 1149TIP3    H2 3454   1.379   3.402   0.577  0.1677 -0.3851 -0.0987
 1150TIP3   OH2 3455   6.264   0.897   0.224 -0.0427  0.4547  0.2075
 1150TIP3    H1 3456   6.285   0.975   0.275  2.4739  0.5101 -0.7892
 1150TIP3    H2 3457   6.335   0.889   0.161 -0.0871 -2.7517  0.3881
 1151TIP3   OH2 3458   5.078   3.207   3.800  0.0194 -0.2426  0.1783
 1151TIP3    H1 3459   5.032   3.127   3.827 -0.1725  0.0221  0.6476
 1151TIP3    H2 3460   5.171   3.187   3.816  0.1235 -0.9104 -1.1100
 1152TIP3   OH2 3461   2.178   2.326   1.092 -0.0966 -0.1985 -0.1441
 1152TIP3    H1 3462   2.261   2.279   1.101 -0.4173 -1.0905 -1.5255
 1152TIP3    H2 3463   2.114   2.258   1.072 -1.2239  0.4560  1.0691
 1153TIP3   OH2 3464   0.157   0.633   2.344 -0.0672 -0.8678 -0.1857
 1153TIP3    H1 3465   0.103   0.703   2.380  0.6828 -1.0970  1.4763
 1153TIP3    H2 3466   0.105   0.597   2.272 -1.9691 -0.8279  1.0934
 1154TIP3   OH2 3467   0.605   5.538   0.812  0.1555 -0.1833 -0.0795
 1154TIP3    H1 3468   0.680   5.585   0.848  0.9147 -0.3565 -1.3672
 1154TIP3    H2 3469   0.587   5.469   0.876  1.9713 -0.9804 -0.3616
 1155TIP3   OH2 3470   2.018   0.027   0.788 -0.5603  0.0951 -0.0065
 1155TIP3    H1 3471   2.042  -0.066   0.789  0.6602  0.3971 -0.0143
 1155TIP3    H2 3472   2.015   0.051   0.881  2.4220  0.8144  0.0271
 1156TIP3   OH2 3473   3.200   3.546   3.908 -0.1101  0.0268 -0.0131
 1156TIP3    H1 3474   3.196   3.451   3.921  0.3978  0.1086  0.7648
 1156TIP3    H2 3475   3.186   3.583   3.995  0.6333  0.6418 -0.1457
 1157TIP3   OH2 3476   4.409   2.037   4.738 -0.3767 -0.6480  0.3082
 1157TIP3    H1 3477   4.483   2.006   4.791  1.2194 -0.3641 -1.6552
 1157TIP3    H2 3478   4.366   2.102   4.793  2.0986  0.7259  0.7589
 1158TIP3   OH2 3479   4.995   1.572   5.044 -0.3957  0.1852 -0.4189
 1158TIP3    H1 3480   4.973   1.485   5.075  1.2791  0.2575  1.1539
 1158TIP3    H2 3481   5.090   1.568   5.028  0.8412  2.8556  4.3044
 1159TIP3   OH2 3482   3.257   4.539   2.888  0.2067 -0.1657  0.1063
 1159TIP3    H1 3483   3.293   4.467   2.940  2.2277  0.5487 -0.2084
 1159TIP3    H2 3484   3.193   4.498   2.830 -0.2295 -1.3553  1.3961
 1160TIP3   OH2 3485   5.250   1.481   4.665  0.2973  0.1455 -0.7935
 1160TIP3    H1 3486   5.175   1.472   4.606  0.3393  0.4032 -0.8847
 1160TIP3    H2 3487   5.285   1.568   4.648 -1.1474  1.2292  1.3158
 1161TIP3   OH2 3488   1.350   1.034   1.508 -0.0271 -0.5518  0.2709
 1161TIP3    H1 3489   1.309   0.959   1.465  0.0068 -0.5496  0.2348
 1161TIP3    H2 3490   1.289   1.058   1.578 -0.0559 -0.5894  0.2585
 1162TIP3   OH2 3491   4.572   4.149   1.658  0.0778 -0.4124 -0.0030
 1162TIP3    H1 3492   4.547   4.230   1.613 -0.0068 -0.8358 -0.7309
 1162TIP3    H2 3493   4.610   4.178   1.741 -1.1996  0.3292  0.3556
 1163TIP3   OH2 3494   0.455   5.947   3.333  0.1484  0.4249 -0.2142
 1163TIP3    H1 3495   0.424   6.019   3.277  1.1123 -0.5968 -2.1722
 1163TIP3    H2 3496   0.376   5.915   3.377 -0.6884  1.1998 -1.1013
 1164TIP3   OH2 3497   1.724   3.664   0.703 -0.4946  0.3304 -0.0576
 1164TIP3    H1 3498   1.776   3.609   0.644 -0.1490 -2.2795  2.4608
 1164TIP3    H2 3499   1.635   3.629   0.695 -0.4554  0.0016  0.9106
 1165TIP3   OH2 3500   2.406   1.729   2.011 -0.3549  0.6703  0.1540
 1165TIP3    H1 3501   2.375   1.660   2.070  1.6702 -0.2101  0.2661
 1165TIP3    H2 3502   2.367   1.810   2.046 -1.0706 -0.1310  1.2774
 1166TIP3   OH2 3503   5.824   4.410   0.758  0.9619  0.2978 -0.2787
 1166TIP3    H1 3504   5.850   4.502   0.752  1.9126  0.0429 -0.1412
 1166TIP3    H2 3505   5.799   4.386   0.669 -0.2763  0.9589 -0.1402
 1167TIP3   OH2 3506   1.827   2.123   0.455  0.0746  0.2693 -0.5186
 1167TIP3    H1 3507   1.840   2.209   0.496 -0.4505 -0.8517  2.2102
 1167TIP3    H2 3508   1.916   2.092   0.437  0.6441 -0.4106  2.7117
 1168TIP3   OH2 3509   0.144   0.777   2.051 -0.2765  0.7595 -0.2657
 1168TIP3    H1 3510   0.196   0.849   2.014  0.0669  1.6533  1.8137
 1168TIP3    H2 3511   0.209   0.716   2.084 -0.4895  1.6110  1.8464
 1169TIP3   OH2 3512   4.019   4.793   1.119  0.4097 -0.2884 -0.1496
 1169TIP3    H1 3513   3.926   4.812   1.127  0.4146 -0.4930  0.4032
 1169TIP3    H2 3514   4.062   4.856   1.177  0.7480  0.9325 -1.6687
 1170TIP3   OH2 3515   3.510   5.701   1.913  0.2398  0.2472  0.1152
 1170TIP3    H1 3516   3.485   5.625   1.860  1.3591  0.5653 -0.9342
 1170TIP3    H2 3517   3.456   5.695   1.991 -0.7061 -0.8437 -0.5878
 1171TIP3   OH2 3518   3.759   1.329   3.928  0.1592  0.1987 -0.0712
 1171TIP3    H1 3519   3.763   1.281   4.011  1.7744  3.8312  2.1987
 1171TIP3    H2 3520   3.812   1.276   3.867 -0.0545 -1.9678  1.5230
 1172TIP3   OH2 3521   3.439   5.377   4.595 -0.4104 -0.1838 -0.5311
 1172TIP3    H1 3522   3.396   5.347   4.514 -1.0274  1.2621 -0.7640
 1172TIP3    H2 3523   3.523   5.413   4.565 -0.7051  0.4921 -0.5606
 1173TIP3   OH2 3524   0.828   5.432   0.456  0.3400 -0.0535  0.4516
 1173TIP3    H1 3525   0.832   5.512   0.509 -0.5006  1.0129 -1.0315
 1173TIP3    H2 3526   0.734   5.416   0.445  0.4906 -0.1429 -0.8519
 1174TIP3   OH2 3527   0.784   2.606   3.260  0.6620  0.3297 -0.0184
 1174TIP3    H1 3528   0.855   2.565   3.212 -0.8979 -2.4718 -0.1135
 1174TIP3    H2 3529   0.740   2.662   3.195  1.4189  0.3406 -0.5319
 1175TIP3   OH2 3530   6.252   3.146   1.220 -0.1740  0.2242 -0.3233
 1175TIP3    H1 3531   6.344   3.151   1.192  0.4005 -0.4648  1.3151
 1175TIP3    H2 3532   6.230   3.235   1.245 -0.6219  0.8121 -2.5573
 1176TIP3   OH2 3533   1.017   1.832   2.256  0.7205  0.4571  0.5729
 1176TIP3    H1 3534   1.078   1.867   2.191  1.1823  0.3561  0.9514
 1176TIP3    H2 3535   1.052   1.860   2.340 -0.7311  1.9648  0.7259
 1177TIP3   OH2 3536   0.228   0.887   3.973  0.6049 -0.2509  0.0935
 1177TIP3    H1 3537   0.314   0.884   3.931  0.3116 -1.5097 -0.4784
 1177TIP3    H2 3538   0.213   0.797   4.003 -0.8122 -0.2356 -0.4660
 1178TIP3   OH2 3539   3.008   5.324   1.334 -0.6663 -0.5188 -0.2148
 1178TIP3    H1 3540   3.069   5.253   1.311 -2.0974 -1.9264  0.1950
 1178TIP3    H2 3541   2.929   5.305   1.283 -1.2764  0.4787  0.3373
 1179TIP3   OH2 3542   5.536   1.103   0.593 -0.1276 -0.3239  0.1878
 1179TIP3    H1 3543   5.472   1.042   0.558 -0.2816 -0.0227 -0.0620
 1179TIP3    H2 3544   5.488   1.185   0.603 -0.3318 -0.6230  1.9521
 1180TIP3   OH2 3545   4.778   0.884   2.170 -0.4590 -0.0100  0.0737
 1180TIP3    H1 3546   4.722   0.914   2.099 -1.1236 -0.6425  0.3182
 1180TIP3    H2 3547   4.850   0.839   2.126 -0.3428  0.4665 -0.2295
 1181TIP3   OH2 3548   5.424   3.185   3.580  0.6719 -0.7499  0.0112
 1181TIP3    H1 3549   5.388   3.208   3.666  2.0306  0.7420  0.2335
 1181TIP3    H2 3550   5.486   3.114   3.598  1.3339 -0.0960  0.3666
 1182TIP3   OH2 3551   4.826   0.486   2.263  0.3191 -0.0374  0.1038
 1182TIP3    H1 3552   4.796   0.526   2.344 -0.0074 -0.6798  0.3091
 1182TIP3    H2 3553   4.747   0.472   2.211  0.5925  0.9981 -0.6338
 1183TIP3   OH2 3554   0.249   0.691   4.941  0.8272  0.3683 -0.6795
 1183TIP3    H1 3555   0.188   0.759   4.912 -0.7997 -0.1994  1.1344
 1183TIP3    H2 3556   0.242   0.623   4.875 -1.5038 -0.1869  0.0284
 1184TIP3   OH2 3557   4.415   2.505   5.143  0.0715  0.3733  0.1029
 1184TIP3    H1 3558   4.368   2.455   5.209  0.0610  0.4131  0.1255
 1184TIP3    H2 3559   4.400   2.457   5.061  1.7297 -0.8150  0.4386
 1185TIP3   OH2 3560   1.162   1.581   2.621  0.3888 -0.0719  0.8499
 1185TIP3    H1 3561   1.127   1.648   2.679  0.2565  0.4132  0.2133
 1185TIP3    H2 3562   1.231   1.626   2.572 -0.3187 -0.1447 -0.2373
 1186TIP3   OH2 3563   1.965   2.941   4.448 -0.3573  0.3121  0.1814
 1186TIP3    H1 3564   1.872   2.947   4.468  0.1612  3.1304  2.2515
 1186TIP3    H2 3565   2.001   2.883   4.515 -0.2146  1.5586  1.2122
 1187TIP3   OH2 3566   1.332   5.805   1.218  0.1194  0.3577  0.2381
 1187TIP3    H1 3567   1.299   5.860   1.289  2.7363 -0.5080  2.3134
 1187TIP3    H2 3568   1.281   5.725   1.223  0.4741  0.1875  1.4011
 1188TIP3   OH2 3569   5.682   5.876   2.279  0.6533 -0.2009 -0.2592
 1188TIP3    H1 3570   5.626   5.927   2.336  0.0550 -0.0945 -0.9235
 1188TIP3    H2 3571   5.621   5.832   2.218  1.1232 -1.8034  0.3638
 1189TIP3   OH2 3572   2.629   2.774   1.070  0.4368 -0.0845  0.9183
 1189TIP3    H1 3573   2.626   2.719   1.149 -0.7233 -0.0591  0.9098
 1189TIP3    H2 3574   2.561   2.839   1.084 -0.3015 -0.5350 -0.4270
 1190TIP3   OH2 3575   2.723   3.741   3.838 -0.3556 -0.1500 -0.2337
 1190TIP3    H1 3576   2.720   3.770   3.747 -0.2866 -0.4180 -0.3217
 1190TIP3    H2 3577   2.633   3.752   3.869 -0.9105 -2.0609 -0.9695
 1191TIP3   OH2 3578   6.235   3.680   1.505 -0.1573 -0.2667 -0.0002
 1191TIP3    H1 3579   6.174   3.691   1.432  0.4986 -1.1188 -0.6977
 1191TIP3    H2 3580   6.206   3.744   1.570 -0.6513  0.6457 -1.0755
 1192TIP3   OH2 3581   5.107   4.749   3.914 -0.0153 -0.0963 -0.5472
 1192TIP3    H1 3582   5.176   4.811   3.891  0.4890 -0.0332  1.0054
 1192TIP3    H2 3583   5.043   4.756   3.844  1.3040  0.2262 -1.7651
 1193TIP3   OH2 3584   1.937   4.158   4.046  0.2883 -0.3329  0.2748
 1193TIP3    H1 3585   1.862   4.101   4.030 -0.4634  0.5703  0.4429
 1193TIP3    H2 3586   1.939   4.170   4.141 -1.6297  2.4801  0.1097
 1194TIP3   OH2 3587   3.133   3.404   0.676  0.3414 -0.2626  0.3969
 1194TIP3    H1 3588   3.192   3.355   0.620  0.8190  1.1809 -0.4326
 1194TIP3    H2 3589   3.185   3.423   0.754  0.8412  0.5808 -0.1207
 1195TIP3   OH2 3590   5.030   3.732   3.991  0.0400 -0.1690  0.0504
 1195TIP3    H1 3591   5.037   3.825   3.970 -0.1605  0.8525  3.7328
 1195TIP3    H2 3592   5.120   3.701   3.995  0.1773  0.2232  0.0454
 1196TIP3   OH2 3593   5.080   1.245   0.132 -0.8789  0.3929 -0.6332
 1196TIP3    H1 3594   5.063   1.168   0.186 -1.2259  0.8836 -0.0281
 1196TIP3    H2 3595   5.151   1.291   0.175 -0.2628  0.1081 -1.3231
 1197TIP3   OH2 3596   0.499   5.754   0.466  0.0935  0.0553 -0.0075
 1197TIP3    H1 3597   0.484   5.666   0.434 -1.0662 -0.2330  1.2192
 1197TIP3    H2 3598   0.513   5.807   0.387 -0.5991 -0.9655 -0.8393
 1198TIP3   OH2 3599   2.057   1.407   1.199  0.0959  0.3237 -0.1861
 1198TIP3    H1 3600   2.066   1.316   1.168  0.6260 -0.6221  2.4894
 1198TIP3    H2 3601   1.967   1.430   1.177 -0.7059 -1.6006  0.8287
 1199TIP3   OH2 3602   4.052   5.825   4.788 -0.7952  0.1470 -0.1633
 1199TIP3    H1 3603   4.079   5.741   4.825 -0.2796 -0.3500 -1.5681
 1199TIP3    H2 3604   3.985   5.858   4.847  1.0189  0.1382  2.0176
 1200TIP3   OH2 3605   2.208   1.744   3.779  0.3053 -0.3978  0.3488
 1200TIP3    H1 3606   2.299   1.743   3.747  0.4985  0.7038  0.8212
 1200TIP3    H2 3607   2.191   1.654   3.804  0.1796 -1.3387 -2.7281
 1201TIP3   OH2 3608   3.447   4.594   3.584  0.4759  0.6460  0.1187
 1201TIP3    H1 3609   3.381   4.556   3.526  0.1686  2.4537 -0.7931
 1201TIP3    H2 3610   3.491   4.518   3.623 -1.7697 -0.6209  0.3612
 1202TIP3   OH2 3611   1.614   5.789   2.698 -0.1970  0.2400 -0.0618
 1202TIP3    H1 3612   1.640   5.729   2.628 -0.3601  1.1375 -0.9075
 1202TIP3    H2 3613   1.696   5.809   2.744  0.0649  0.3707 -0.5784
 1203TIP3   OH2 3614   0.311   2.542   0.099  0.5366  1.0819 -0.0156
 1203TIP3    H1 3615   0.368   2.564   0.172  1.1024 -0.5921  0.0827
 1203TIP3    H2 3616   0.370   2.513   0.029 -0.1358 -0.5382  0.0370
 1204TIP3   OH2 3617   4.585   5.870   4.585 -0.1262  0.5437 -0.0317
 1204TIP3    H1 3618   4.543   5.799   4.537  0.9850 -0.4140  0.3856
 1204TIP3    H2 3619   4.570   5.948   4.531  0.8740 -0.4433 -1.8188
 1205TIP3   OH2 3620   5.487   1.682   4.286 -0.5289  0.0118 -0.0095
 1205TIP3    H1 3621   5.569   1.669   4.239 -0.7695 -0.0646 -0.4178
 1205TIP3    H2 3622   5.428   1.616   4.249  0.3885 -2.8611  3.2101
 1206TIP3   OH2 3623   6.219   3.310   2.726  0.5718 -0.2493 -0.2355
 1206TIP3    H1 3624   6.314   3.295   2.729  1.2019  2.9538 -0.0710
 1206TIP3    H2 3625   6.181   3.224   2.739  3.4214 -2.0065 -2.2609
 1207TIP3   OH2 3626   0.557   5.381   3.252 -0.1062 -0.1558 -0.5036
 1207TIP3    H1 3627   0.564   5.456   3.310 -2.2529 -0.2223 -0.0740
 1207TIP3    H2 3628   0.531   5.309   3.309 -2.0502 -0.2746 -1.4480
 1208TIP3   OH2 3629   1.829   2.361   0.589 -0.1366  0.0367  0.8324
 1208TIP3    H1 3630   1.827   2.355   0.685 -2.8393  1.4403  0.9602
 1208TIP3    H2 3631   1.749   2.409   0.567  0.3688 -0.3482 -2.1601
 1209TIP3   OH2 3632   0.035   0.114   4.294 -0.4309  0.7230 -0.3099
 1209TIP3    H1 3633   0.003   0.030   4.326  1.8526 -0.2667 -0.4241
 1209TIP3    H2 3634   0.039   0.103   4.199  2.9180 -0.3718 -0.1971
 1210TIP3   OH2 3635   5.429   0.072   2.039  0.3433 -0.1906 -0.3800
 1210TIP3    H1 3636   5.392   0.155   2.068 -0.5796 -0.4086 -0.8880
 1210TIP3    H2 3637   5.361   0.033   1.984  0.7908 -1.2446 -0.2221
 1211TIP3   OH2 3638   4.557   4.326   3.078 -0.4573  0.8689 -0.0374
 1211TIP3    H1 3639   4.639   4.278   3.089 -0.3777  0.5610 -1.6578
 1211TIP3    H2 3640   4.492   4.258   3.060 -1.0874  1.1163  1.1756
 1212TIP3   OH2 3641   6.023   1.909   1.835 -0.4985  0.6262 -0.5404
 1212TIP3    H1 3642   5.982   1.963   1.768 -1.8687 -0.2201 -0.4148
 1212TIP3    H2 3643   6.039   1.825   1.791 -0.1252  0.5158 -0.1970
 1213TIP3   OH2 3644   4.861   4.394   2.650 -0.1959 -0.0628 -0.3806
 1213TIP3    H1 3645   4.767   4.408   2.656 -0.3253 -0.7184 -0.7922
 1213TIP3    H2 3646   4.875   4.306   2.685  0.6034  1.0104  2.2118
 1214TIP3   OH2 3647   5.522   2.109   0.577 -0.1029 -0.0904  0.1597
 1214TIP3    H1 3648   5.595   2.054   0.549 -1.2358 -1.5410 -0.0857
 1214TIP3    H2 3649   5.471   2.124   0.497 -1.2538 -1.0066  0.6757
 1215TIP3   OH2 3650   2.612   3.485   4.871  0.0820  0.3042  0.0502
 1215TIP3    H1 3651   2.526   3.446   4.884 -0.4006  0.7927 -1.4423
 1215TIP3    H2 3652   2.594   3.577   4.852  0.7135 -0.0323 -2.5145
 1216TIP3   OH2 3653   4.476   1.325   1.336 -0.2683  0.6606  0.0579
 1216TIP3    H1 3654   4.571   1.323   1.353 -0.0933  0.8304 -0.8702
 1216TIP3    H2 3655   4.444   1.395   1.393  0.0968  0.3512  0.6666
 1217TIP3   OH2 3656   5.651   4.907   3.729 -0.0113 -0.2651 -1.0210
 1217TIP3    H1 3657   5.565   4.947   3.714 -0.7378 -0.0995  2.6044
 1217TIP3    H2 3658   5.695   4.966   3.789  1.0656 -2.2339  0.2432
 1218TIP3   OH2 3659   4.039   5.488   0.597  0.0710 -0.5243  0.6629
 1218TIP3    H1 3660   4.042   5.519   0.506  1.0082  1.6239  1.3658
 1218TIP3    H2 3661   4.113   5.428   0.605  1.7635  1.4646  0.6871
 1219TIP3   OH2 3662   5.553   1.734   2.381 -0.5538 -0.0596  0.0625
 1219TIP3    H1 3663   5.529   1.642   2.371  0.2789 -0.2123 -0.6388
 1219TIP3    H2 3664   5.646   1.737   2.359  0.1916  0.4667  2.8468
 1220TIP3   OH2 3665   2.305   0.201   2.154  0.2664 -0.2957  0.3624
 1220TIP3    H1 3666   2.219   0.242   2.161  0.7377  0.5266  1.5508
 1220TIP3    H2 3667   2.289   0.108   2.170 -0.3552 -0.1092  0.8565
 1221TIP3   OH2 3668   3.464   3.761   3.839  0.2064  0.5174  0.2753
 1221TIP3    H1 3669   3.439   3.728   3.925  0.3561 -1.3950 -0.3715
 1221TIP3    H2 3670   3.536   3.704   3.811 -0.5654  0.3791 -1.5770
 1222TIP3   OH2 3671   4.717   1.239   0.966 -0.1990 -0.1654  0.4122
 1222TIP3    H1 3672   4.693   1.331   0.977  0.0537 -0.2816  2.1165
 1222TIP3    H2 3673   4.800   1.229   1.014  0.2691 -1.0847 -0.5299
 1223TIP3   OH2 3674   4.079   4.581   2.188 -0.4469 -0.2622  0.2311
 1223TIP3    H1 3675   4.022   4.568   2.264 -0.5010 -1.1755  0.0412
 1223TIP3    H2 3676   4.048   4.663   2.149 -0.4787  0.1683  1.1335
 1224TIP3   OH2 3677   4.437   3.255   4.130 -0.0065  0.1805  0.5418
 1224TIP3    H1 3678   4.417   3.187   4.194 -0.5028  0.3427  0.5570
 1224TIP3    H2 3679   4.525   3.233   4.100  0.0961 -0.0911  1.0271
 1225TIP3   OH2 3680   4.493   2.723   1.989 -0.1464 -0.0586 -0.3807
 1225TIP3    H1 3681   4.526   2.728   2.079 -1.8656 -0.9412  0.3541
 1225TIP3    H2 3682   4.402   2.695   1.999 -0.6490  0.7143 -2.3674
 1226TIP3   OH2 3683   5.660   2.042   1.737  0.3271  0.2406 -0.1469
 1226TIP3    H1 3684   5.614   1.958   1.730  1.2667 -0.2661 -0.2953
 1226TIP3    H2 3685   5.663   2.060   1.831  1.3326 -0.5785 -0.0099
 1227TIP3   OH2 3686   5.418   2.505   2.107  0.0105 -0.3897  0.4215
 1227TIP3    H1 3687   5.380   2.417   2.117  2.5419 -1.3827  2.6584
 1227TIP3    H2 3688   5.375   2.557   2.175 -1.4783  0.1924 -0.8939
 1228TIP3   OH2 3689   0.199   0.093   0.677  0.3791  0.1070 -0.6994
 1228TIP3    H1 3690   0.169   0.183   0.669  1.4269  0.4936 -0.3536
 1228TIP3    H2 3691   0.239   0.074   0.592  0.9294  0.2592 -0.4759
 1229TIP3   OH2 3692   4.682   3.618   1.816 -0.3438 -0.2298 -0.0020
 1229TIP3    H1 3693   4.734   3.659   1.747  0.3198 -0.5810  0.2764
 1229TIP3    H2 3694   4.714   3.658   1.897  0.0372 -0.9962  0.2378
 1230TIP3   OH2 3695   3.172   3.141   3.372  0.4437 -0.3839  0.3117
 1230TIP3    H1 3696   3.127   3.063   3.339 -1.7005  1.5138 -1.5899
 1230TIP3    H2 3697   3.265   3.121   3.361 -0.0507 -2.3722 -0.8291
 1231TIP3   OH2 3698   0.619   2.319   4.921 -0.3625  0.1705  0.2089
 1231TIP3    H1 3699   0.606   2.362   5.006  1.4032 -1.2913  1.2897
 1231TIP3    H2 3700   0.709   2.339   4.897 -0.1797 -1.1124 -0.2774
 1232TIP3   OH2 3701   3.650   2.442   3.722  1.0425  0.1731 -0.1663
 1232TIP3    H1 3702   3.561   2.415   3.744  1.3334 -0.6498  0.0446
 1232TIP3    H2 3703   3.694   2.361   3.697  1.2558  0.8102 -2.0080
 1233TIP3   OH2 3704   0.621   2.542   2.903  0.3172  0.3695 -0.1428
 1233TIP3    H1 3705   0.623   2.496   2.987 -1.0007  0.6629  0.0618
 1233TIP3    H2 3706   0.576   2.482   2.844 -0.4028  0.9130 -0.1601
 1234TIP3   OH2 3707   4.438   1.977   3.130 -0.2743  0.5885 -0.0628
 1234TIP3    H1 3708   4.415   1.944   3.217 -0.6377  1.7042  0.2762
 1234TIP3    H2 3709   4.392   1.919   3.069  2.8503 -2.5735  0.2736
 1235TIP3   OH2 3710   4.976   1.574   3.467 -0.4046  0.5545 -0.4203
 1235TIP3    H1 3711   5.042   1.540   3.407  0.4905 -0.8043  1.2296
 1235TIP3    H2 3712   4.930   1.496   3.499  0.0673  1.0507  1.6407
 1236TIP3   OH2 3713   1.476   2.005   1.698 -0.0477 -0.2479 -0.3751
 1236TIP3    H1 3714   1.498   2.090   1.660 -1.2318 -0.5099 -1.7606
 1236TIP3    H2 3715   1.384   1.991   1.673  0.3689 -2.3183 -0.9667
 1237TIP3   OH2 3716   4.330   3.315   0.331 -0.1960  0.3208 -0.1891
 1237TIP3    H1 3717   4.301   3.234   0.289 -0.8035  0.6915 -0.4992
 1237TIP3    H2 3718   4.386   3.286   0.403 -1.4408 -0.4320  0.5079
 1238TIP3   OH2 3719   0.318   5.323   1.238  0.2878 -0.2166  0.2218
 1238TIP3    H1 3720   0.336   5.409   1.201 -2.1244 -0.3808 -1.5741
 1238TIP3    H2 3721   0.268   5.341   1.318  2.2843  0.0406  1.4850
 1239TIP3   OH2 3722   2.902   4.483   0.501  0.3544  0.2413 -0.6276
 1239TIP3    H1 3723   2.848   4.469   0.423 -0.1718 -2.1897  0.0977
 1239TIP3    H2 3724   2.961   4.408   0.503 -0.9067 -0.8147  2.3052
 1240TIP3   OH2 3725   1.861   1.654   3.292 -0.3288  0.4226 -0.0470
 1240TIP3    H1 3726   1.896   1.721   3.234  0.7231 -1.3488 -1.5699
 1240TIP3    H2 3727   1.845   1.578   3.235 -0.9814 -0.7995  1.6725
 1241TIP3   OH2 3728   6.253   2.614   0.801 -0.0443  0.2344  0.0828
 1241TIP3    H1 3729   6.291   2.613   0.889  0.9288  0.9689 -0.3160
 1241TIP3    H2 3730   6.269   2.526   0.768  0.8453  0.3650  0.1316
 1242TIP3   OH2 3731   4.531   2.183   2.011  0.0698  0.1633 -0.2293
 1242TIP3    H1 3732   4.562   2.260   1.964 -0.4019 -0.5842 -1.8245
 1242TIP3    H2 3733   4.611   2.139   2.041  0.3596  0.8416  0.0097
 1243TIP3   OH2 3734   6.191   4.279   3.050 -0.2673 -0.2483  0.4487
 1243TIP3    H1 3735   6.121   4.322   3.098 -0.7268 -0.4416 -0.0395
 1243TIP3    H2 3736   6.163   4.188   3.042 -1.4521  0.2551 -2.3736
 1244TIP3   OH2 3737   1.545   3.973   4.605 -0.1026  0.0504 -0.7171
 1244TIP3    H1 3738   1.568   3.985   4.513  0.0890 -2.2984 -1.0378
 1244TIP3    H2 3739   1.570   4.055   4.647  1.3170  0.5839 -2.4758
 1245TIP3   OH2 3740   2.979   4.366   5.018 -0.1189  0.0017  0.3552
 1245TIP3    H1 3741   2.904   4.378   5.076  0.2917  1.6970  0.5867
 1245TIP3    H2 3742   3.008   4.454   4.996  1.7956 -0.5813  0.2608
 1246TIP3   OH2 3743   0.799   0.999   2.488  0.3123 -0.0565 -0.4961
 1246TIP3    H1 3744   0.744   0.959   2.556 -0.3178 -0.1708 -1.0626
 1246TIP3    H2 3745   0.882   1.016   2.532  0.1082 -0.6607  0.1529
 1247TIP3   OH2 3746   6.298   2.446   0.297 -0.4506 -0.5718  0.0632
 1247TIP3    H1 3747   6.237   2.450   0.371  0.4116 -0.4121  0.7807
 1247TIP3    H2 3748   6.351   2.525   0.304  1.7795 -2.0583  1.1926
 1248TIP3   OH2 3749   2.048   4.960   0.144  0.2922  0.0516  0.0553
 1248TIP3    H1 3750   1.972   5.013   0.167 -0.1994 -1.3895  1.9370
 1248TIP3    H2 3751   2.021   4.913   0.065 -0.1683  0.6934 -0.1830
 1249TIP3   OH2 3752   3.868   5.848   4.205  0.2712  0.7800  0.6323
 1249TIP3    H1 3753   3.818   5.912   4.154  0.7606  0.2165 -0.6045
 1249TIP3    H2 3754   3.803   5.809   4.264 -1.1298 -0.8195 -1.7842
 1250TIP3   OH2 3755   4.080   2.787   0.772  0.2748 -0.6099 -0.4516
 1250TIP3    H1 3756   4.130   2.848   0.718  0.9013 -0.1990  0.5733
 1250TIP3    H2 3757   4.132   2.707   0.773  0.5852 -0.4037  0.0669
 1251TIP3   OH2 3758   2.611   4.338   5.042  0.2586 -0.3054 -0.4840
 1251TIP3    H1 3759   2.550   4.292   5.099 -2.4966  0.4982 -2.5350
 1251TIP3    H2 3760   2.639   4.415   5.092 -2.6213  0.7682 -0.3444
 1252TIP3   OH2 3761   2.642   4.930   1.778  0.6265 -0.0121 -0.7303
 1252TIP3    H1 3762   2.732   4.912   1.752  1.1550  2.0629 -0.5196
 1252TIP3    H2 3763   2.645   5.018   1.816 -1.1162 -0.7433  1.2733
 1253TIP3   OH2 3764   5.378   3.552   4.275 -0.2335  0.1168 -0.0308
 1253TIP3    H1 3765   5.285   3.547   4.253 -0.1467  1.2396 -0.7183
 1253TIP3    H2 3766   5.380   3.585   4.365 -0.5012 -0.6674  0.2752
 1254TIP3   OH2 3767   3.281   1.578   1.575 -0.3459 -0.3970 -0.3166
 1254TIP3    H1 3768   3.332   1.630   1.513  1.1616 -1.5353 -0.0915
 1254TIP3    H2 3769   3.295   1.487   1.548 -1.5561 -0.7926  0.3070
 1255TIP3   OH2 3770   2.149   5.529   4.335 -0.1245  0.1602 -0.3377
 1255TIP3    H1 3771   2.189   5.476   4.405 -1.6601 -2.3923 -1.2564
 1255TIP3    H2 3772   2.084   5.583   4.380 -1.0862 -1.4431  0.2832
 1256TIP3   OH2 3773   6.028   4.830   0.431 -0.2742  0.4490 -0.4146
 1256TIP3    H1 3774   5.943   4.822   0.473 -0.5053 -2.0598 -1.2468
 1256TIP3    H2 3775   6.091   4.810   0.501 -0.2479  2.8618  0.3501
 1257TIP3   OH2 3776   5.327   0.428   3.282  0.5897 -0.2342  0.3180
 1257TIP3    H1 3777   5.246   0.425   3.231  0.2636 -1.7536  0.8435
 1257TIP3    H2 3778   5.372   0.346   3.261  0.9180 -0.4448  1.6944
 1258TIP3   OH2 3779   1.244   2.851   2.528  0.4914  0.5694 -0.3575
 1258TIP3    H1 3780   1.248   2.776   2.587  0.5707  0.3111 -0.6839
 1258TIP3    H2 3781   1.329   2.894   2.537  0.8073  0.0678 -0.8739
 1259TIP3   OH2 3782   2.188   0.784   4.109  0.6931  0.4399 -0.2352
 1259TIP3    H1 3783   2.121   0.843   4.074  3.4424  1.8360 -3.6590
 1259TIP3    H2 3784   2.194   0.714   4.045  1.4481 -0.5002  0.8320
 1260TIP3   OH2 3785   1.542   2.282   1.624 -0.0221 -0.2514 -0.3605
 1260TIP3    H1 3786   1.636   2.299   1.628  0.1625 -0.8679 -1.5558
 1260TIP3    H2 3787   1.504   2.361   1.586  0.3025 -0.7691 -1.8544
 1261TIP3   OH2 3788   1.783   5.116   1.549  0.0686  0.6687  0.1076
 1261TIP3    H1 3789   1.718   5.072   1.495 -0.2321  1.3039 -0.0611
 1261TIP3    H2 3790   1.762   5.089   1.639 -0.1139  0.4736  0.0073
 1262TIP3   OH2 3791   6.056   3.926   3.723  0.4906  0.4698  0.0252
 1262TIP3    H1 3792   6.069   3.834   3.703 -0.7698  0.6061 -1.6719
 1262TIP3    H2 3793   6.132   3.951   3.776  0.3363 -1.7627  1.4119
 1263TIP3   OH2 3794   0.811   0.040   2.504 -0.1105 -0.0770  0.0724
 1263TIP3    H1 3795   0.762   0.057   2.585  0.2793  0.9233  0.1116
 1263TIP3    H2 3796   0.901   0.027   2.533 -0.2173 -1.2275 -0.0699
 1264TIP3   OH2 3797   3.390   0.815   4.598  0.4903 -0.2602  0.0430
 1264TIP3    H1 3798   3.298   0.793   4.611  0.8039 -1.0502  1.0479
 1264TIP3    H2 3799   3.399   0.828   4.504 -0.6940  0.0677 -0.0407
 1265TIP3   OH2 3800   2.325   3.945   1.863 -0.5295  0.6584  0.2274
 1265TIP3    H1 3801   2.324   3.965   1.769  0.8367  2.1079  0.4766
 1265TIP3    H2 3802   2.309   4.028   1.906  1.0546  0.4608  1.2873
 1266TIP3   OH2 3803   1.791   5.931   1.409 -0.0400 -0.2548 -0.0419
 1266TIP3    H1 3804   1.866   5.915   1.351 -0.6633  0.7877 -1.1772
 1266TIP3    H2 3805   1.716   5.898   1.360 -0.6375  1.0915 -0.0807
 1267TIP3   OH2 3806   0.743   1.366   0.152 -0.2418  0.2122 -0.6499
 1267TIP3    H1 3807   0.689   1.445   0.158  2.3749  2.0285  1.4883
 1267TIP3    H2 3808   0.681   1.294   0.148 -2.7861  2.1986  0.5343
 1268TIP3   OH2 3809   2.552   4.427   2.465  0.1818  0.2409  0.2279
 1268TIP3    H1 3810   2.503   4.414   2.546 -0.0989  0.0588  0.0320
 1268TIP3    H2 3811   2.546   4.342   2.420  1.2037  0.0152  0.4860
 1269TIP3   OH2 3812   3.112   1.049   1.568 -0.1670 -0.0670 -0.7001
 1269TIP3    H1 3813   3.113   1.073   1.660 -0.5466 -1.1915 -0.3986
 1269TIP3    H2 3814   3.191   1.090   1.532 -1.1385  2.2833 -0.4071
 1270TIP3   OH2 3815   3.192   0.970   3.767 -0.0011  0.1612 -0.4793
 1270TIP3    H1 3816   3.132   1.026   3.718 -1.7071 -0.6142  0.6093
 1270TIP3    H2 3817   3.205   1.017   3.850  0.4931  0.0785 -0.5108
 1271TIP3   OH2 3818   0.626   1.947   4.927 -0.0161  0.4511  0.2120
 1271TIP3    H1 3819   0.692   2.009   4.957  0.0851 -0.1325  1.2189
 1271TIP3    H2 3820   0.649   1.864   4.968 -0.8188  0.0115 -0.1937
 1272TIP3   OH2 3821   1.422   4.674   1.000 -0.3084  0.4478  0.0119
 1272TIP3    H1 3822   1.449   4.603   0.941 -4.1834  0.3343 -1.9488
 1272TIP3    H2 3823   1.408   4.749   0.942 -1.0985  1.3224  1.2853
 1273TIP3   OH2 3824   2.452   5.757   2.298 -0.2386  0.0711 -0.0238
 1273TIP3    H1 3825   2.360   5.775   2.278 -0.3933 -0.5273  0.1039
 1273TIP3    H2 3826   2.451   5.670   2.340  0.4871 -0.4336 -0.9952
 1274TIP3   OH2 3827   1.353   4.349   3.638  0.0765  0.1277  0.1515
 1274TIP3    H1 3828   1.344   4.445   3.642 -3.0008 -0.0123 -0.5649
 1274TIP3    H2 3829   1.334   4.320   3.727 -2.4766  0.1013 -0.3294
 1275TIP3   OH2 3830   0.636   0.573   3.724  0.6627  0.8855  0.5337
 1275TIP3    H1 3831   0.636   0.484   3.759 -0.3831  1.1402  1.2288
 1275TIP3    H2 3832   0.589   0.566   3.641 -0.9593  1.0639  1.4046
 1276TIP3   OH2 3833   5.795   1.443   1.683 -0.2002  0.0408  0.2894
 1276TIP3    H1 3834   5.836   1.487   1.609 -2.1930 -0.0933 -0.9600
 1276TIP3    H2 3835   5.710   1.487   1.693  0.8840  1.7088  4.0910
 1277TIP3   OH2 3836   5.590   0.246   4.090  0.5252  0.0558  0.5162
 1277TIP3    H1 3837   5.663   0.201   4.132  1.3457  1.7011  0.9533
 1277TIP3    H2 3838   5.586   0.331   4.135 -3.0251 -0.7316  1.9823
 1278TIP3   OH2 3839   6.184   4.053   4.438 -0.1978 -0.1701 -0.1633
 1278TIP3    H1 3840   6.235   4.090   4.510  0.4137 -0.7129 -0.3066
 1278TIP3    H2 3841   6.245   3.995   4.392 -0.6316  0.0247 -1.0113
 1279TIP3   OH2 3842   4.404   1.591   2.096  0.1652 -0.3486  0.5103
 1279TIP3    H1 3843   4.414   1.684   2.117  1.6272 -0.3651 -0.0440
 1279TIP3    H2 3844   4.338   1.589   2.027  1.1166  0.4350 -0.4672
 1280TIP3   OH2 3845   1.610   3.693   4.940  0.2617 -0.3479 -0.2251
 1280TIP3    H1 3846   1.612   3.611   4.990  1.6654  0.4455  1.0841
 1280TIP3    H2 3847   1.519   3.701   4.912 -0.1631 -1.7620  0.6227
 1281TIP3   OH2 3848   2.412   5.207   1.988  0.1125  0.3091 -0.4653
 1281TIP3    H1 3849   2.352   5.132   1.981  0.9947 -0.8638  2.7909
 1281TIP3    H2 3850   2.490   5.179   1.939  0.0153 -0.4572 -0.2023
 1282TIP3   OH2 3851   1.303   3.740   0.229  0.2663  0.3180  0.0089
 1282TIP3    H1 3852   1.247   3.663   0.241 -0.1802  0.7309  0.6234
 1282TIP3    H2 3853   1.378   3.724   0.287 -0.2492  0.7385  0.8114
 1283TIP3   OH2 3854   1.362   1.469   1.219 -0.0426 -0.1472  0.5321
 1283TIP3    H1 3855   1.379   1.553   1.175 -0.1645 -0.1610  0.4584
 1283TIP3    H2 3856   1.356   1.491   1.312  1.3820 -0.2786  0.6855
 1284TIP3   OH2 3857   3.268   1.826   3.789 -0.2743 -0.0129  0.7040
 1284TIP3    H1 3858   3.221   1.863   3.865 -1.4315  0.5196 -0.2389
 1284TIP3    H2 3859   3.238   1.878   3.715  1.7986  0.3019  0.0311
 1285TIP3   OH2 3860   2.600   1.491   4.286 -0.2483  0.7087  0.3611
 1285TIP3    H1 3861   2.632   1.423   4.345 -1.7148 -0.7278 -0.3818
 1285TIP3    H2 3862   2.511   1.510   4.317 -1.5145 -0.9019 -1.8628
 1286TIP3   OH2 3863   4.429   3.857   0.532  0.0268 -0.4033 -0.0747
 1286TIP3    H1 3864   4.509   3.860   0.585 -0.6560  2.9465  0.9986
 1286TIP3    H2 3865   4.359   3.846   0.596 -0.6788  1.8696 -0.3754
 1287TIP3   OH2 3866   4.298   5.028   2.567 -0.0006 -0.4640  0.2972
 1287TIP3    H1 3867   4.371   5.052   2.624  0.6450 -2.7648  0.4961
 1287TIP3    H2 3868   4.240   4.977   2.623 -0.8452 -0.2548 -0.3646
 1288TIP3   OH2 3869   4.616   2.809   0.818  0.6427  0.5013  0.1886
 1288TIP3    H1 3870   4.520   2.808   0.818  0.6420  0.6245  0.4160
 1288TIP3    H2 3871   4.640   2.762   0.738  0.4160 -1.9850  1.4562
 1289TIP3   OH2 3872   1.261   5.905   0.715  0.3287 -0.1631  0.3355
 1289TIP3    H1 3873   1.249   5.819   0.673  1.8829 -0.1366 -0.2218
 1289TIP3    H2 3874   1.252   5.968   0.644  2.3537 -0.0808  0.0860
 1290TIP3   OH2 3875   0.174   4.967   1.940  0.0586  0.5503 -0.1710
 1290TIP3    H1 3876   0.111   4.957   2.011  1.1824 -2.0900  0.5843
 1290TIP3    H2 3877   0.258   4.979   1.985  0.5366  0.8305 -1.1145
 1291TIP3   OH2 3878   3.574   2.393   1.169  0.4926  0.0017  0.5038
 1291TIP3    H1 3879   3.495   2.393   1.223  0.6708  0.9077  0.7730
 1291TIP3    H2 3880   3.581   2.482   1.136  0.4617 -0.5035 -0.9273
 1292TIP3   OH2 3881   1.740   3.256   2.095  0.2875  0.0788  0.0865
 1292TIP3    H1 3882   1.683   3.328   2.067  1.4671  0.3098 -1.9102
 1292TIP3    H2 3883   1.739   3.194   2.022  0.9465 -0.9380  0.8992
 1293TIP3   OH2 3884   2.482   4.517   0.762 -0.5630 -0.0823 -0.2228
 1293TIP3    H1 3885   2.415   4.556   0.705  0.2511 -1.6147 -2.3643
 1293TIP3    H2 3886   2.565   4.550   0.727 -0.0798  0.3044  1.2192
 1294TIP3   OH2 3887   5.940   0.909   1.277 -0.7231  0.3759  0.7485
 1294TIP3    H1 3888   5.927   0.816   1.261 -1.7822  0.8455 -1.3884
 1294TIP3    H2 3889   5.985   0.942   1.199 -1.6222  1.8957  0.8189
 1295TIP3   OH2 3890   1.786   0.131   4.730 -0.3767  0.2142  0.6631
 1295TIP3    H1 3891   1.817   0.051   4.687  1.5027  0.4492  1.4731
 1295TIP3    H2 3892   1.833   0.133   4.814 -1.5435  1.3923  1.3242
 1296TIP3   OH2 3893   4.597   3.173   0.958  0.2188 -0.1325 -0.2423
 1296TIP3    H1 3894   4.615   3.083   0.983  0.0025  0.1486  0.9771
 1296TIP3    H2 3895   4.544   3.208   1.030 -0.4381  0.7112 -1.1070
 1297TIP3   OH2 3896   1.697   4.802   3.340  0.5496 -0.3041 -0.9010
 1297TIP3    H1 3897   1.734   4.714   3.350 -0.0116 -0.6635 -1.8696
 1297TIP3    H2 3898   1.708   4.842   3.426 -0.2079 -1.7316 -0.0934
 1298TIP3   OH2 3899   0.645   0.946   0.331 -0.8540  0.2832  0.5504
 1298TIP3    H1 3900   0.658   1.008   0.403  0.2425  1.4070 -0.5618
 1298TIP3    H2 3901   0.662   0.860   0.369  1.5218  0.9925  1.2475
 1299TIP3   OH2 3902   1.792   0.914   2.520 -0.0949 -0.5524 -0.0933
 1299TIP3    H1 3903   1.774   0.911   2.614 -1.1755  0.1056 -0.2637
 1299TIP3    H2 3904   1.764   0.829   2.487 -1.9917  0.0487 -0.1696
 1300TIP3   OH2 3905   3.734   4.800   2.482 -0.6473 -0.1974  0.4038
 1300TIP3    H1 3906   3.777   4.869   2.532  1.6450 -1.7369  0.7411
 1300TIP3    H2 3907   3.714   4.840   2.397 -0.4475  1.1855  0.9894
 1301TIP3   OH2 3908   2.304   5.094   4.248  1.0499  0.4596 -0.3983
 1301TIP3    H1 3909   2.387   5.139   4.236  2.4726 -1.6634  0.7538
 1301TIP3    H2 3910   2.315   5.010   4.204 -0.4505  0.0750 -0.1158
 1302TIP3   OH2 3911   3.207   5.308   4.387  0.5307  0.6729 -0.5623
 1302TIP3    H1 3912   3.147   5.342   4.320  0.8395  1.3413 -0.5038
 1302TIP3    H2 3913   3.151   5.260   4.447  0.1355  0.7646 -0.8510
 1303TIP3   OH2 3914   1.391   1.731   4.354 -0.3530  0.1168 -0.1491
 1303TIP3    H1 3915   1.462   1.726   4.418 -1.6070 -1.4066  1.2453
 1303TIP3    H2 3916   1.422   1.681   4.279 -0.7458 -2.5923  1.3735
 1304TIP3   OH2 3917   3.200   2.998   4.844 -0.5505 -0.6317 -0.2498
 1304TIP3    H1 3918   3.223   3.078   4.796 -0.6405 -1.4090 -1.6550
 1304TIP3    H2 3919   3.168   3.029   4.928 -0.2435  0.7917 -0.6215
 1305TIP3   OH2 3920   5.869   2.870   4.082  0.2782 -0.3433 -0.2174
 1305TIP3    H1 3921   5.800   2.875   4.016 -0.3273  0.0901  0.4257
 1305TIP3    H2 3922   5.842   2.798   4.140  0.6119 -0.4789 -0.2261
 1306TIP3   OH2 3923   5.201   1.443   2.928  0.4501 -0.4121 -0.1090
 1306TIP3    H1 3924   5.247   1.501   2.989  0.1152  0.4530 -0.6454
 1306TIP3    H2 3925   5.213   1.485   2.842  1.2764 -1.8350 -0.7139
 1307TIP3   OH2 3926   1.450   5.932   4.633  0.0120 -0.2490 -0.1404
 1307TIP3    H1 3927   1.502   5.973   4.564 -1.4610  2.5883  0.2801
 1307TIP3    H2 3928   1.514   5.897   4.694  1.3400 -1.3501 -2.0567
 1308TIP3   OH2 3929   4.813   4.089   1.786 -0.1181 -0.4118  0.0582
 1308TIP3    H1 3930   4.780   4.163   1.734 -1.2753 -0.9340  0.0161
 1308TIP3    H2 3931   4.852   4.130   1.863 -0.4592  0.2577 -0.1127
 1309TIP3   OH2 3932   6.151   1.128   4.719  0.3178 -0.4696  0.5801
 1309TIP3    H1 3933   6.095   1.102   4.793  1.1965 -2.1030  0.7032
 1309TIP3    H2 3934   6.145   1.224   4.718 -1.9777 -0.5427  0.9615
 1310TIP3   OH2 3935   3.398   3.846   5.020 -0.0181 -0.1166 -0.4216
 1310TIP3    H1 3936   3.403   3.768   4.964 -0.2016 -0.2297 -0.2770
 1310TIP3    H2 3937   3.362   3.913   4.963 -0.2976 -0.2582 -0.4111
 1311TIP3   OH2 3938   5.036   3.843   2.085  0.1477 -0.5599  0.1407
 1311TIP3    H1 3939   5.056   3.917   2.027  1.4555 -1.7164 -0.9645
 1311TIP3    H2 3940   5.120   3.800   2.099 -0.3108 -0.8716  2.1648
 1312TIP3   OH2 3941   4.225   4.143   2.723 -0.4724  0.1775  0.2291
 1312TIP3    H1 3942   4.264   4.226   2.694  0.6229  0.9304  3.4654
 1312TIP3    H2 3943   4.146   4.167   2.770  0.9649 -0.2637  3.0999
 1313TIP3   OH2 3944   2.842   1.945   3.088 -0.3318 -0.0959  0.0119
 1313TIP3    H1 3945   2.845   1.890   3.009 -1.3332 -1.3998  0.8194
 1313TIP3    H2 3946   2.791   2.021   3.062  0.2934  0.0336 -0.8927
 1314TIP3   OH2 3947   5.406   2.891   0.943  0.4450  0.1482  0.3317
 1314TIP3    H1 3948   5.395   2.986   0.933 -0.3258 -0.1521 -2.3844
 1314TIP3    H2 3949   5.485   2.883   0.997  0.5206  2.3232  0.6617
 1315TIP3   OH2 3950   3.082   4.688   2.266 -0.2060 -0.1915  0.2981
 1315TIP3    H1 3951   3.075   4.676   2.172  1.3232  0.8963  0.0040
 1315TIP3    H2 3952   3.018   4.756   2.287 -1.4530 -1.3152  0.2938
 1316TIP3   OH2 3953   1.285   0.356   3.949 -0.4716 -0.2467  0.2631
 1316TIP3    H1 3954   1.291   0.273   3.902  0.4002  1.1230 -2.2396
 1316TIP3    H2 3955   1.193   0.382   3.941 -0.4409 -0.2886 -0.2293
 1317TIP3   OH2 3956   3.891   5.468   1.420 -0.3274 -0.4026 -0.3612
 1317TIP3    H1 3957   3.968   5.469   1.476 -0.7526  0.0574  0.2237
 1317TIP3    H2 3958   3.861   5.559   1.419  0.0344 -0.2635 -1.8538
 1318TIP3   OH2 3959   3.075   2.769   3.495 -0.2058  0.0091 -0.4846
 1318TIP3    H1 3960   3.139   2.830   3.532  0.3760 -0.9420  0.1414
 1318TIP3    H2 3961   3.125   2.687   3.484 -1.1778 -0.5998 -0.4731
 1319TIP3   OH2 3962   3.407   3.374   4.821  0.3730 -0.3546 -0.4201
 1319TIP3    H1 3963   3.323   3.333   4.803  0.9972 -1.0934 -1.8490
 1319TIP3    H2 3964   3.425   3.354   4.913 -1.5623  0.9122  0.3067
 1320TIP3   OH2 3965   6.233   2.237   4.630  0.8166  0.0672 -0.2361
 1320TIP3    H1 3966   6.200   2.148   4.616  0.2568  0.4869 -1.7696
 1320TIP3    H2 3967   6.158   2.294   4.611  1.1964  0.8794  0.6165
 1321TIP3   OH2 3968   0.584   5.519   3.004 -0.6079 -0.4397  0.1708
 1321TIP3    H1 3969   0.537   5.597   3.031  2.9639  1.0866  2.7608
 1321TIP3    H2 3970   0.598   5.470   3.084  3.2535 -0.0249 -0.0519
 1322TIP3   OH2 3971   5.969   3.270   2.231 -0.5403  0.3250 -0.1804
 1322TIP3    H1 3972   6.002   3.182   2.215 -1.9046 -0.3303  0.3563
 1322TIP3    H2 3973   5.909   3.287   2.159 -0.0631  0.9467 -0.4399
 1323TIP3   OH2 3974   0.721   5.638   4.402 -0.4333 -0.1150 -0.7383
 1323TIP3    H1 3975   0.805   5.592   4.396 -0.3889 -0.0781 -0.4248
 1323TIP3    H2 3976   0.719   5.696   4.326  0.0013  0.1752 -0.5284
 1324TIP3   OH2 3977   0.147   4.420   4.051  0.0273  0.1238  0.6035
 1324TIP3    H1 3978   0.070   4.398   3.999 -0.8157  0.9147  1.5084
 1324TIP3    H2 3979   0.124   4.396   4.140  0.8087  0.4258  0.8952
 1325TIP3   OH2 3980   1.016   1.012   2.673 -0.1658  0.3156 -0.2543
 1325TIP3    H1 3981   1.051   0.944   2.615 -0.5490 -0.4462  0.3974
 1325TIP3    H2 3982   1.092   1.042   2.723 -0.4957 -2.0093  1.8520
 1326TIP3   OH2 3983   3.653   3.305   4.668  0.1678  0.3613  0.6388
 1326TIP3    H1 3984   3.613   3.315   4.581  0.2364  1.3827  0.7045
 1326TIP3    H2 3985   3.584   3.331   4.729  0.1990 -0.1147  0.8778
 1327TIP3   OH2 3986   3.492   0.510   2.267  0.0695  0.0147  0.5902
 1327TIP3    H1 3987   3.432   0.516   2.341 -0.4811 -0.3435  0.1904
 1327TIP3    H2 3988   3.486   0.596   2.224 -0.9892 -0.3606 -0.0546
 1328TIP3   OH2 3989   4.563   5.518   3.069 -0.1010  0.2312  0.2509
 1328TIP3    H1 3990   4.493   5.468   3.110 -0.3599 -0.0088 -0.4625
 1328TIP3    H2 3991   4.555   5.605   3.107 -1.7569  0.6287 -0.8925
 1329TIP3   OH2 3992   3.851   4.125   2.649 -0.0266 -0.2480  0.1489
 1329TIP3    H1 3993   3.906   4.098   2.723  3.3818  1.9610 -1.3470
 1329TIP3    H2 3994   3.808   4.205   2.679  0.9544  0.3674 -0.0739
 1330TIP3   OH2 3995   3.032   2.166   2.593  0.5120  0.2693  0.2392
 1330TIP3    H1 3996   3.109   2.152   2.537  2.1833  2.0908  1.9389
 1330TIP3    H2 3997   2.996   2.250   2.563  0.7314  0.6868  1.1305
 1331TIP3   OH2 3998   6.185   3.680   4.069 -0.3143  0.0839  0.4029
 1331TIP3    H1 3999   6.232   3.602   4.039 -0.5373 -0.1151  0.5729
 1331TIP3    H2 4000   6.113   3.647   4.122  0.2542  0.4278  1.4335
 1332TIP3   OH2 4001   1.256   3.415   3.970 -0.4957 -0.3199  0.1577
 1332TIP3    H1 4002   1.212   3.374   4.045 -2.1195 -0.2231 -0.6961
 1332TIP3    H2 4003   1.283   3.501   4.002 -2.3401  0.2504  0.3067
 1333TIP3   OH2 4004  -0.010   4.168   0.510  0.1439  0.2713 -0.3126
 1333TIP3    H1 4005   0.021   4.239   0.566 -0.0181 -0.7063  1.0689
 1333TIP3    H2 4006   0.001   4.089   0.562 -0.5879 -0.6178 -1.4373
 1334TIP3   OH2 4007   3.834   1.872   4.454 -0.2096  0.3685  0.3609
 1334TIP3    H1 4008   3.921   1.870   4.415 -0.8235  0.0465 -1.0607
 1334TIP3    H2 4009   3.826   1.789   4.500  0.0729  0.1838  0.0841
 1335TIP3   OH2 4010   5.153   5.659   2.222  0.3497  0.3078  0.4248
 1335TIP3    H1 4011   5.221   5.697   2.167 -1.5072  1.5367 -1.1530
 1335TIP3    H2 4012   5.090   5.621   2.160 -1.3074  0.8359  1.7053
 1336TIP3   OH2 4013   2.068   5.733   3.722 -0.7126 -0.0970  0.7097
 1336TIP3    H1 4014   2.151   5.684   3.729  0.2349  1.3328 -0.0190
 1336TIP3    H2 4015   2.095   5.823   3.703 -2.4362 -0.1027 -2.5564
 1337TIP3   OH2 4016   2.938   3.387   4.328 -0.2649 -0.1204  0.8808
 1337TIP3    H1 4017   3.018   3.369   4.279  0.2630 -0.1698  1.7518
 1337TIP3    H2 4018   2.869   3.389   4.261  0.2811 -1.2040  0.2631
 1338TIP3   OH2 4019   2.638   3.670   1.221  0.1308  0.1214  0.4708
 1338TIP3    H1 4020   2.588   3.717   1.154  1.2817 -0.2477 -0.6925
 1338TIP3    H2 4021   2.717   3.640   1.175 -0.2407 -2.3990  1.3064
 1339TIP3   OH2 4022   0.976   2.076   4.781  0.1739 -0.1390  0.0414
 1339TIP3    H1 4023   0.932   2.005   4.735  1.2208 -1.6899  1.3018
 1339TIP3    H2 4024   0.977   2.048   4.873 -1.4625  2.6308  1.0143
 1340TIP3   OH2 4025   5.063   3.516   0.605  0.4691 -0.5922  0.5338
 1340TIP3    H1 4026   5.063   3.608   0.631 -1.3547  0.0284 -1.3917
 1340TIP3    H2 4027   5.060   3.468   0.688 -1.4278  1.1771  1.5912
 1341TIP3   OH2 4028   4.536   4.255   1.238 -0.7529 -0.3622  0.1565
 1341TIP3    H1 4029   4.523   4.318   1.308 -1.4050 -0.9025  0.5368
 1341TIP3    H2 4030   4.449   4.247   1.197 -0.3060  0.1982 -0.9323
 1342TIP3   OH2 4031   0.536   1.634   4.035  0.4025 -0.1641  0.8650
 1342TIP3    H1 4032   0.534   1.574   3.961 -0.7959  0.3520  0.4417
 1342TIP3    H2 4033   0.450   1.677   4.033  0.7431  0.6169  1.9265
 1343TIP3   OH2 4034   2.555   5.875   0.866 -0.0871 -0.2339  0.4885
 1343TIP3    H1 4035   2.517   5.813   0.929 -1.8064  1.5506  1.3265
 1343TIP3    H2 4036   2.572   5.954   0.918 -1.1251  1.1444 -1.1724
 1344TIP3   OH2 4037   6.050   5.433   3.416  0.0382 -0.2271  0.2601
 1344TIP3    H1 4038   6.064   5.436   3.511 -2.2914  2.5697  0.6503
 1344TIP3    H2 4039   5.961   5.399   3.406 -1.3867  3.2493 -0.5058
 1345TIP3   OH2 4040   2.751   1.329   4.459  0.4726 -0.1001  0.3124
 1345TIP3    H1 4041   2.820   1.270   4.488  0.8881  0.3142  0.1838
 1345TIP3    H2 4042   2.727   1.379   4.538  0.3915 -0.1686  0.3321
 1346TIP3   OH2 4043   2.077   0.236   0.396 -0.0064  0.3244  0.4196
 1346TIP3    H1 4044   2.083   0.331   0.395  0.1009  0.3160 -0.4742
 1346TIP3    H2 4045   1.985   0.218   0.414  0.0831  0.5834  1.1788
 1347TIP3   OH2 4046   1.990   4.641   0.568  0.0938  0.7031 -0.1657
 1347TIP3    H1 4047   1.969   4.728   0.534 -0.6581  0.8847  0.7403
 1347TIP3    H2 4048   1.908   4.608   0.603  0.0545 -0.9338 -1.6375
 1348TIP3   OH2 4049   3.735   5.613   2.031 -0.0221  0.2942 -0.1879
 1348TIP3    H1 4050   3.799   5.656   1.974 -0.6338  0.2563 -0.9230
 1348TIP3    H2 4051   3.650   5.633   1.991 -0.2970 -2.6094 -1.2853
 1349TIP3   OH2 4052   5.635   4.985   5.130 -0.9184 -0.3728 -0.3446
 1349TIP3    H1 4053   5.703   4.920   5.141  0.1013  0.6614 -0.3217
 1349TIP3    H2 4054   5.628   5.028   5.216  0.2947  1.2827 -1.0214
 1350TIP3   OH2 4055   2.928   1.557   4.861 -0.2921 -0.8056  0.0470
 1350TIP3    H1 4056   2.949   1.630   4.920  0.6174 -0.3202 -0.8432
 1350TIP3    H2 4057   2.960   1.479   4.906  0.6033 -0.4127  0.1172
 1351TIP3   OH2 4058   3.722   1.679   3.045  0.0940 -0.3640 -0.2808
 1351TIP3    H1 4059   3.703   1.686   2.951  1.3509  2.4449 -0.4407
 1351TIP3    H2 4060   3.787   1.609   3.051  1.2823  0.5400 -1.7862
 1352TIP3   OH2 4061   5.148   0.176   4.986 -0.6125 -0.1322  0.0663
 1352TIP3    H1 4062   5.132   0.092   5.030 -0.4392 -0.2358 -0.0660
 1352TIP3    H2 4063   5.078   0.183   4.921 -2.0807  0.9524  1.6654
 1353TIP3   OH2 4064   0.327   3.136   1.087  0.1755 -0.0230  0.4269
 1353TIP3    H1 4065   0.350   3.184   1.166  0.4547 -1.8599  1.5144
 1353TIP3    H2 4066   0.301   3.203   1.025 -1.3103  1.4292  2.4878
 1354TIP3   OH2 4067   0.685   1.781   1.789  0.2801  0.0461  0.0140
 1354TIP3    H1 4068   0.723   1.707   1.741 -2.4691 -1.4536 -0.0366
 1354TIP3    H2 4069   0.634   1.828   1.723 -2.2575 -1.1344  1.0182
 1355TIP3   OH2 4070   1.233   1.740   0.226 -0.1794 -0.1049  0.4321
 1355TIP3    H1 4071   1.241   1.813   0.164 -1.6276 -1.0367 -0.9474
 1355TIP3    H2 4072   1.251   1.662   0.174 -0.2750 -0.8495  1.4802
 1356TIP3   OH2 4073   2.550   0.344   1.670  0.0727 -0.6867 -0.5024
 1356TIP3    H1 4074   2.503   0.323   1.750  1.8135 -0.6854  0.5757
 1356TIP3    H2 4075   2.588   0.261   1.641  0.8285 -0.3958 -0.3765
 1357TIP3   OH2 4076   0.547   2.715   4.944  0.6543 -0.3392  0.0053
 1357TIP3    H1 4077   0.589   2.709   5.030  1.7059  0.7512 -0.4016
 1357TIP3    H2 4078   0.478   2.649   4.946  0.9132 -0.5929  1.5429
 1358TIP3   OH2 4079   4.344   0.917   4.032  0.4628 -0.0193 -0.5260
 1358TIP3    H1 4080   4.332   1.012   4.039 -1.8578 -0.3123  0.6146
 1358TIP3    H2 4081   4.382   0.892   4.115 -1.3513 -0.3261  0.2661
 1359TIP3   OH2 4082   2.118   0.052   3.242 -0.0146 -0.4322 -0.4439
 1359TIP3    H1 4083   2.204   0.094   3.235 -0.3308  0.1658 -0.7651
 1359TIP3    H2 4084   2.124  -0.022   3.181  0.3810 -0.5902 -0.2222
 1360TIP3   OH2 4085   0.708   1.816   0.650 -0.0200  0.2394 -0.1928
 1360TIP3    H1 4086   0.737   1.801   0.740 -0.3954  1.1396  0.0864
 1360TIP3    H2 4087   0.665   1.901   0.652 -0.0657  0.2564 -1.2219
 1361TIP3   OH2 4088   0.889   2.771   1.635  0.2080  1.3175 -0.0201
 1361TIP3    H1 4089   0.929   2.764   1.549  1.5920  0.0993  0.6778
 1361TIP3    H2 4090   0.910   2.860   1.664  1.1909  1.1760 -0.2679
 1362TIP3   OH2 4091   0.807   3.110   2.679 -0.0514 -0.1321 -0.0958
 1362TIP3    H1 4092   0.816   3.192   2.727 -1.4750  1.8302 -2.9007
 1362TIP3    H2 4093   0.896   3.074   2.676  0.8372  1.8890  0.2768
 1363TIP3   OH2 4094   4.102   1.337   3.909 -0.3203 -0.1393 -0.3207
 1363TIP3    H1 4095   4.155   1.278   3.855 -0.8053 -1.0897  0.1999
 1363TIP3    H2 4096   4.013   1.324   3.877 -0.3836  0.6348 -0.4700
 1364TIP3   OH2 4097   2.955   3.206   0.535  1.0300  1.1510 -0.2540
 1364TIP3    H1 4098   2.889   3.242   0.476  1.0448  1.5450 -0.0327
 1364TIP3    H2 4099   2.941   3.252   0.618  0.3903 -0.0465  0.3434
 1365TIP3   OH2 4100   3.332   1.563   3.831 -0.1754 -0.3294  0.3907
 1365TIP3    H1 4101   3.299   1.653   3.828  1.3792  0.2857  1.0462
 1365TIP3    H2 4102   3.265   1.515   3.880 -0.3679  0.7718  1.2503
 1366TIP3   OH2 4103   0.775   4.114   2.789  0.1807  0.5032 -0.1135
 1366TIP3    H1 4104   0.758   4.096   2.882 -2.7464  2.8823 -0.0496
 1366TIP3    H2 4105   0.836   4.188   2.790  1.0402 -0.1878 -0.1513
 1367TIP3   OH2 4106   2.147   5.137   2.129 -0.0231  0.1513 -0.3612
 1367TIP3    H1 4107   2.141   5.230   2.155 -0.4230  0.0469 -0.0607
 1367TIP3    H2 4108   2.214   5.101   2.187  0.2435  0.2875 -0.5838
 1368TIP3   OH2 4109   0.682   0.547   1.379  0.8004  0.1896 -0.6202
 1368TIP3    H1 4110   0.601   0.510   1.414  0.5952  0.9292 -0.2990
 1368TIP3    H2 4111   0.734   0.570   1.456  1.3182 -0.2714 -0.8250
 1369TIP3   OH2 4112   6.140   5.149   0.441 -0.0563  0.2026 -0.6962
 1369TIP3    H1 4113   6.091   5.067   0.444  0.1052  0.0602 -1.5463
 1369TIP3    H2 4114   6.114   5.196   0.520  0.0225 -0.7659 -0.0835
 1370TIP3   OH2 4115   2.411   0.345   2.372 -0.4611 -0.6615 -0.3702
 1370TIP3    H1 4116   2.388   0.294   2.294 -0.3482  0.0218 -0.8582
 1370TIP3    H2 4117   2.435   0.431   2.338  1.2276 -0.8476  0.2619
 1371TIP3   OH2 4118   0.259   3.730   3.541  0.0668  0.2654  0.4523
 1371TIP3    H1 4119   0.224   3.645   3.514  0.9257  0.3697 -1.1336
 1371TIP3    H2 4120   0.327   3.709   3.605  0.0106 -0.2298  0.3535
 1372TIP3   OH2 4121   2.309   3.814   2.531  0.6378  0.1779 -0.6407
 1372TIP3    H1 4122   2.384   3.762   2.560  0.4004  0.5611  0.7516
 1372TIP3    H2 4123   2.271   3.764   2.460  0.6815 -1.3477  0.3589
 1373TIP3   OH2 4124   5.989   0.860   0.208 -0.1887  0.5332  0.7881
 1373TIP3    H1 4125   5.978   0.933   0.148 -1.7329  0.8089  1.3616
 1373TIP3    H2 4126   6.079   0.868   0.240 -0.1172  1.7597  0.3109
 1374TIP3   OH2 4127   1.324   4.846   2.244 -0.4498  0.0477 -0.2212
 1374TIP3    H1 4128   1.257   4.882   2.302 -0.7738  2.3760 -1.8805
 1374TIP3    H2 4129   1.279   4.833   2.161  0.4752 -1.2331 -0.5424
 1375TIP3   OH2 4130   3.031   1.823   1.408  0.3129  0.1344 -0.4717
 1375TIP3    H1 4131   3.006   1.779   1.490 -1.1134  2.8244  0.6512
 1375TIP3    H2 4132   3.114   1.866   1.429  0.4698 -0.0035 -0.7986
 1376TIP3   OH2 4133   5.439   0.532   4.395  0.4810  0.6681 -0.9548
 1376TIP3    H1 4134   5.494   0.538   4.317 -0.1074 -1.1409 -1.5626
 1376TIP3    H2 4135   5.395   0.616   4.401  0.0477  0.6239 -2.9641
 1377TIP3   OH2 4136   4.153   1.721   2.705  0.3737 -0.0939  0.2440
 1377TIP3    H1 4137   4.121   1.654   2.644  0.5891  0.3638 -0.3800
 1377TIP3    H2 4138   4.210   1.673   2.765  0.5813 -0.4623 -0.2357
 1378TIP3   OH2 4139   0.118   4.364   5.009 -0.0731  0.3772 -0.2134
 1378TIP3    H1 4140   0.101   4.424   5.081  1.5277  0.4982  0.0914
 1378TIP3    H2 4141   0.160   4.288   5.050  2.6122  1.2320 -1.1849
 1379TIP3   OH2 4142   1.330   1.067   2.752 -0.1213 -0.5527  0.3688
 1379TIP3    H1 4143   1.323   1.161   2.733 -0.1690 -0.4996  0.6545
 1379TIP3    H2 4144   1.386   1.062   2.829  1.0394 -0.8405 -0.4795
 1380TIP3   OH2 4145   0.232   4.437   3.435 -0.1812 -0.4447  0.1494
 1380TIP3    H1 4146   0.178   4.438   3.357 -0.7622 -0.9459  0.5436
 1380TIP3    H2 4147   0.171   4.453   3.507  0.2504 -0.6379  0.5629
 1381TIP3   OH2 4148   4.731   5.758   1.465  0.1417 -0.0412  0.2094
 1381TIP3    H1 4149   4.741   5.717   1.378  0.4158  0.4443  0.0121
 1381TIP3    H2 4150   4.812   5.736   1.510 -1.1459 -2.8279  1.4295
 1382TIP3   OH2 4151   4.134   2.302   0.926 -0.4679  0.4131 -0.0419
 1382TIP3    H1 4152   4.045   2.331   0.905 -0.8861  0.2119  1.3516
 1382TIP3    H2 4153   4.121   2.229   0.987  0.6530  0.4783  0.2838
 1383TIP3   OH2 4154   2.976   4.192   2.876  0.4089 -0.3402 -0.4144
 1383TIP3    H1 4155   2.893   4.236   2.895  1.3255  1.4628 -0.3080
 1383TIP3    H2 4156   2.956   4.132   2.804 -1.6005 -2.1732  1.5303
 1384TIP3   OH2 4157   5.903   3.371   0.081 -0.7227  0.1839 -0.3621
 1384TIP3    H1 4158   5.868   3.282   0.082 -1.0187  0.3002 -0.1422
 1384TIP3    H2 4159   5.876   3.408   0.165 -2.4458  1.1891 -1.2817
 1385TIP3   OH2 4160   3.160   0.984   0.817 -0.2336 -0.4438  0.4130
 1385TIP3    H1 4161   3.086   1.043   0.802  0.6818  0.3726 -1.1914
 1385TIP3    H2 4162   3.144   0.947   0.903 -1.6793  0.9426  0.7909
 1386TIP3   OH2 4163   2.229   5.685   2.841  0.2935 -0.9515  0.0559
 1386TIP3    H1 4164   2.322   5.680   2.818  0.2035  0.4951 -0.7423
 1386TIP3    H2 4165   2.186   5.631   2.775  0.2073  1.8207 -2.3641
 1387TIP3   OH2 4166   6.146   3.941   5.019 -0.3084 -0.0157 -0.6808
 1387TIP3    H1 4167   6.117   4.032   5.027 -2.4627 -0.6363 -0.7050
 1387TIP3    H2 4168   6.082   3.902   4.960  1.8148 -1.0761 -2.4069
 1388TIP3   OH2 4169   4.813   2.491   5.097 -0.2035 -0.3063  0.0692
 1388TIP3    H1 4170   4.890   2.435   5.102  0.4076  0.5834  1.0210
 1388TIP3    H2 4171   4.784   2.484   5.006  0.8000 -0.9175 -0.2184
 1389TIP3   OH2 4172   4.378   4.952   2.322 -0.1751 -0.3637  0.0864
 1389TIP3    H1 4173   4.307   4.953   2.257  0.9128 -0.0782 -1.1467
 1389TIP3    H2 4174   4.339   4.990   2.401 -1.6488 -1.0852 -0.2690
 1390TIP3   OH2 4175   4.620   1.410   3.604  0.2819 -0.7561 -0.0751
 1390TIP3    H1 4176   4.652   1.321   3.616 -0.2680 -0.9396  0.0954
 1390TIP3    H2 4177   4.604   1.418   3.510  0.7679 -0.6815 -0.1507
 1391TIP3   OH2 4178   1.504   0.919   4.453 -0.2599 -0.3826 -0.6735
 1391TIP3    H1 4179   1.520   0.830   4.484 -0.8831 -0.5607 -0.8631
 1391TIP3    H2 4180   1.591   0.952   4.430 -0.0646 -1.0702 -0.9509
 1392TIP3   OH2 4181   0.410   3.298   3.874  0.2396  0.4656  0.1495
 1392TIP3    H1 4182   0.361   3.247   3.810  1.0560 -1.0892  0.7286
 1392TIP3    H2 4183   0.422   3.240   3.949  2.0823  1.1288  0.4292
 1393TIP3   OH2 4184   5.178   0.307   0.377  0.6654 -0.2144 -0.2287
 1393TIP3    H1 4185   5.101   0.260   0.345  1.4437 -1.4081 -0.4331
 1393TIP3    H2 4186   5.237   0.311   0.302  1.5747 -1.0373  0.4001
 1394TIP3   OH2 4187   1.492   2.304   2.319  0.4556 -0.3313  0.2771
 1394TIP3    H1 4188   1.542   2.356   2.382  2.0668  0.2461 -1.3925
 1394TIP3    H2 4189   1.488   2.358   2.240 -2.0082 -0.7823  0.0077
 1395TIP3   OH2 4190   3.161   0.341   1.550  0.1865  0.2556 -0.3041
 1395TIP3    H1 4191   3.230   0.360   1.613  0.0154 -1.9641  0.6457
 1395TIP3    H2 4192   3.100   0.285   1.598 -0.8792 -0.0085 -1.9110
 1396TIP3   OH2 4193   3.620   0.913   0.931  0.3717 -0.2410 -0.0427
 1396TIP3    H1 4194   3.665   0.974   0.873 -1.3424  0.5110 -0.6378
 1396TIP3    H2 4195   3.594   0.966   1.006  0.5247 -0.6915  0.3346
 1397TIP3   OH2 4196   4.010   5.315   4.030 -0.4653  0.2877 -0.3044
 1397TIP3    H1 4197   4.028   5.383   3.965  0.3903 -0.1328 -0.5080
 1397TIP3    H2 4198   4.004   5.234   3.980 -0.5019  0.0660  0.0580
 1398TIP3   OH2 4199   5.767   0.097   3.564  0.4603  0.2064  0.2885
 1398TIP3    H1 4200   5.697   0.032   3.554  0.6100 -0.0288  0.7557
 1398TIP3    H2 4201   5.759   0.153   3.486 -2.1122  2.0004  1.6966
 1399TIP3   OH2 4202   0.051   5.699   2.801 -0.4739  0.3148  0.0481
 1399TIP3    H1 4203   0.110   5.632   2.769 -1.4732 -1.3988  1.6015
 1399TIP3    H2 4204  -0.034   5.677   2.763 -0.6186  1.3500 -0.2670
 1400TIP3   OH2 4205   2.356   0.562   3.535  0.2104 -0.0420 -0.3013
 1400TIP3    H1 4206   2.427   0.523   3.585 -0.9320 -1.6155  0.2042
 1400TIP3    H2 4207   2.328   0.637   3.587 -0.7512 -1.4638  1.3433
 1401TIP3   OH2 4208   0.591   3.386   2.113 -0.3993 -0.4600  0.0070
 1401TIP3    H1 4209   0.635   3.470   2.101  0.1750 -0.7088  0.3274
 1401TIP3    H2 4210   0.577   3.353   2.024  0.0485 -0.3652 -0.1025
 1402TIP3   OH2 4211   1.418   5.738   2.182 -0.2169 -0.3960 -0.1597
 1402TIP3    H1 4212   1.342   5.765   2.233  0.6407  0.9882  0.4452
 1402TIP3    H2 4213   1.399   5.766   2.093  0.3239  1.6415  0.3189
 1403TIP3   OH2 4214   1.853   1.392   4.691 -0.1340  0.0739 -0.1655
 1403TIP3    H1 4215   1.854   1.485   4.713 -0.8950  0.0071  0.2132
 1403TIP3    H2 4216   1.761   1.366   4.702  0.3773 -1.2078  1.8625
 1404TIP3   OH2 4217   5.107   5.959   4.509 -0.1084  0.1329 -0.6002
 1404TIP3    H1 4218   5.202   5.957   4.522 -0.2573 -0.0253  0.5791
 1404TIP3    H2 4219   5.080   5.867   4.516 -0.4713  0.2906  0.1282
 1405TIP3   OH2 4220   5.301   4.836   1.849  0.3745 -0.2171  0.0205
 1405TIP3    H1 4221   5.224   4.780   1.840 -0.0407  0.5340 -1.3841
 1405TIP3    H2 4222   5.291   4.878   1.934  0.0319 -1.2790  0.5228
 1406TIP3   OH2 4223   1.699   2.696   3.862 -0.4928  0.3831  0.0943
 1406TIP3    H1 4224   1.699   2.677   3.956  0.6797  0.1827  0.0641
 1406TIP3    H2 4225   1.606   2.707   3.840 -0.7699  0.6092  1.3071
 1407TIP3   OH2 4226   5.673   3.892   0.481  0.1099  0.7674 -0.5163
 1407TIP3    H1 4227   5.596   3.835   0.484  0.4269  0.3335 -0.4775
 1407TIP3    H2 4228   5.656   3.952   0.408  0.1457  0.0774 -1.1042
 1408TIP3   OH2 4229   3.406   4.639   0.516 -0.5963  0.0545 -0.3199
 1408TIP3    H1 4230   3.341   4.679   0.458 -1.1504 -0.8141 -0.3249
 1408TIP3    H2 4231   3.489   4.680   0.492 -0.7541 -0.5113 -1.9471
 1409TIP3   OH2 4232   6.240   2.590   3.445  0.0088 -0.2399 -0.2680
 1409TIP3    H1 4233   6.161   2.570   3.394 -0.6113  2.0596 -0.2891
 1409TIP3    H2 4234   6.238   2.527   3.518 -1.4222 -0.7214 -0.6964
 1410TIP3   OH2 4235   0.986   2.485   3.067 -1.1928 -0.3927  0.6202
 1410TIP3    H1 4236   0.986   2.390   3.080 -1.1449 -0.4664  0.0828
 1410TIP3    H2 4237   0.977   2.496   2.973  0.9663  0.1006  0.4326
 1411TIP3   OH2 4238   0.919   2.579   5.165  0.2503  0.0019  0.2168
 1411TIP3    H1 4239   0.935   2.627   5.083  0.0075 -0.7360 -0.2693
 1411TIP3    H2 4240   0.989   2.608   5.223  2.0811 -1.4890 -1.1274
 1412TIP3   OH2 4241   5.360   1.301   3.540 -0.5781 -0.3712  0.0863
 1412TIP3    H1 4242   5.408   1.384   3.541 -2.3845  0.7570  2.8493
 1412TIP3    H2 4243   5.407   1.246   3.603 -0.6813 -0.6524 -0.0811
 1413TIP3   OH2 4244   1.036   3.207   2.391 -0.2222 -0.0308  0.1743
 1413TIP3    H1 4245   1.019   3.120   2.427  0.3754  0.1962  1.0455
 1413TIP3    H2 4246   1.096   3.191   2.317  0.3291 -0.3201  0.6714
 1414TIP3   OH2 4247   0.839   5.390   1.978 -0.3698  0.3730 -0.4386
 1414TIP3    H1 4248   0.862   5.477   1.945  4.1458 -0.6156 -0.5233
 1414TIP3    H2 4249   0.888   5.382   2.060 -2.6239 -1.2881  0.8590
 1415TIP3   OH2 4250   3.267   4.326   0.441  0.1412  0.4412 -0.1844
 1415TIP3    H1 4251   3.247   4.405   0.392  0.4854  2.6930  2.9481
 1415TIP3    H2 4252   3.186   4.275   0.440 -1.0874  2.2989  0.1509
 1416TIP3   OH2 4253   5.916   2.295   4.132 -0.0433  0.6705  0.1925
 1416TIP3    H1 4254   5.937   2.272   4.222 -1.1789 -2.3789 -0.2069
 1416TIP3    H2 4255   5.991   2.266   4.081  0.0828  1.2937  0.0105
 1417TIP3   OH2 4256   6.258   3.499   3.523  0.1560  0.6287  0.4859
 1417TIP3    H1 4257   6.259   3.578   3.578 -2.1044  0.5768  0.6982
 1417TIP3    H2 4258   6.209   3.435   3.574  1.8344 -0.8982  0.2445
 1418TIP3   OH2 4259   1.272   4.521   1.335 -0.0321  0.0963  0.1683
 1418TIP3    H1 4260   1.331   4.577   1.386  0.1576  0.8164 -0.8026
 1418TIP3    H2 4261   1.324   4.443   1.316  0.4141  0.4657 -0.1682
 1419TIP3   OH2 4262   5.696   3.542   3.799  0.3335 -0.6139 -0.0830
 1419TIP3    H1 4263   5.777   3.589   3.780  0.1382 -0.2020  0.0839
 1419TIP3    H2 4264   5.661   3.518   3.713  0.4739 -0.5205 -0.1669
 1420TIP3   OH2 4265   1.406   1.292   2.511 -0.3579  0.5825 -1.0087
 1420TIP3    H1 4266   1.467   1.355   2.549  0.6204 -0.7953 -0.2140
 1420TIP3    H2 4267   1.352   1.263   2.585  1.0901 -1.5920 -0.7242
 1421TIP3   OH2 4268   5.914   2.403   1.503  0.4402 -0.4415 -0.4269
 1421TIP3    H1 4269   5.839   2.421   1.559  1.9801  2.7023  0.8754
 1421TIP3    H2 4270   5.878   2.404   1.414 -1.1747  0.2023  0.1942
 1422TIP3   OH2 4271   3.914   3.324   0.877  0.2164 -0.1846 -0.7195
 1422TIP3    H1 4272   3.876   3.265   0.812  0.6769 -1.9299  0.5221
 1422TIP3    H2 4273   3.990   3.277   0.911 -0.0466  0.6086  1.1108
 1423TIP3   OH2 4274   3.831   1.456   2.915  0.3974  0.6857  0.2087
 1423TIP3    H1 4275   3.784   1.377   2.890  0.4480  0.8045 -0.2742
 1423TIP3    H2 4276   3.789   1.526   2.863  1.4347  0.7168 -0.6270
 1424TIP3   OH2 4277   6.119   3.805   3.233  0.5595  0.0268  0.4121
 1424TIP3    H1 4278   6.174   3.726   3.230 -0.8200 -0.9399 -0.4870
 1424TIP3    H2 4279   6.076   3.800   3.318  1.1443  0.2923  0.7286
 1425TIP3   OH2 4280   6.240   4.531   3.385  1.0895  0.0113  0.0654
 1425TIP3    H1 4281   6.169   4.539   3.322  0.0959 -0.3032  1.1172
 1425TIP3    H2 4282   6.293   4.458   3.352  0.5963 -0.1350 -0.4149
 1426TIP3   OH2 4283   5.408   0.721   2.536  0.0621 -0.5461 -0.1901
 1426TIP3    H1 4284   5.377   0.688   2.620 -0.4315  2.8934  1.1448
 1426TIP3    H2 4285   5.476   0.785   2.559 -1.2548  1.7415 -2.1987
 1427TIP3   OH2 4286   4.880   3.720   1.000  0.5302 -0.0807 -0.0806
 1427TIP3    H1 4287   4.787   3.695   1.005  0.3860  0.1321 -1.2632
 1427TIP3    H2 4288   4.878   3.815   0.995  1.0228  0.2164  3.3315
 1428TIP3   OH2 4289   4.666   0.385   3.259  0.2252  0.0443 -0.2583
 1428TIP3    H1 4290   4.692   0.325   3.189 -0.1995 -1.3718  0.7529
 1428TIP3    H2 4291   4.700   0.345   3.339  0.2280  1.3519  0.4211
 1429TIP3   OH2 4292   1.271   5.538   5.144 -0.0685 -0.0318  0.0309
 1429TIP3    H1 4293   1.354   5.489   5.149  0.2112  0.4163 -0.1274
 1429TIP3    H2 4294   1.297   5.629   5.158 -0.3050  0.3234 -1.6508
 1430TIP3   OH2 4295   5.046   5.340   4.460 -0.1371  0.3547 -0.3219
 1430TIP3    H1 4296   4.981   5.270   4.464  0.9722 -0.6717  0.5310
 1430TIP3    H2 4297   5.037   5.387   4.544  0.0597  0.3467 -0.2939
 1431TIP3   OH2 4298   0.319   0.168   0.942  0.5152  0.3029 -0.4162
 1431TIP3    H1 4299   0.261   0.182   1.016  2.0392  0.0803  0.8611
 1431TIP3    H2 4300   0.260   0.145   0.869 -0.8717 -1.9116  1.2822
 1432TIP3   OH2 4301   5.114   4.528   1.319 -0.1143 -1.0520  0.1729
 1432TIP3    H1 4302   5.038   4.515   1.263 -0.1261 -0.9624  0.1673
 1432TIP3    H2 4303   5.189   4.529   1.259 -0.1564 -0.6524  0.1245
 1433TIP3   OH2 4304   1.444   2.669   3.919 -0.2919  0.0835 -0.7519
 1433TIP3    H1 4305   1.405   2.625   3.843  0.5474 -1.0437 -0.5732
 1433TIP3    H2 4306   1.373   2.718   3.958 -0.6131  1.2213 -2.6251
 1434TIP3   OH2 4307   4.284   0.889   1.916  0.0192 -0.3820 -0.3214
 1434TIP3    H1 4308   4.222   0.895   1.989 -0.2432 -4.6197  0.0641
 1434TIP3    H2 4309   4.367   0.921   1.953 -0.9089  1.0588  0.6056
 1435TIP3   OH2 4310   4.119   4.369   0.887  0.2281  0.6538 -0.1924
 1435TIP3    H1 4311   4.113   4.425   0.809 -2.5495 -0.1407 -0.6660
 1435TIP3    H2 4312   4.087   4.424   0.958  0.7197  0.7015 -0.0042
 1436TIP3   OH2 4313   1.819   4.481   3.017 -0.1074  0.3671 -0.4751
 1436TIP3    H1 4314   1.792   4.405   2.965  1.5784 -0.2642 -0.5008
 1436TIP3    H2 4315   1.768   4.553   2.983  1.5044  0.1636 -3.6828
 1437TIP3   OH2 4316   3.788   2.207   1.145 -0.1011  0.7334 -0.2473
 1437TIP3    H1 4317   3.865   2.239   1.193 -0.1963 -0.5834  0.8628
 1437TIP3    H2 4318   3.720   2.272   1.162  0.0433  0.5953  0.9383
 1438TIP3   OH2 4319   0.440   4.610   3.414 -0.2821  0.4607  0.6396
 1438TIP3    H1 4320   0.412   4.669   3.484  0.7384  1.3844  0.2916
 1438TIP3    H2 4321   0.379   4.536   3.419 -1.8444  1.7241  0.8076
 1439TIP3   OH2 4322   3.011   3.197   2.958 -0.3624  0.3817 -1.0617
 1439TIP3    H1 4323   3.064   3.126   2.923  0.4384  0.5102 -0.1318
 1439TIP3    H2 4324   3.074   3.262   2.988 -1.0196  0.3692  0.4301
 1440TIP3   OH2 4325   3.589   4.373   3.381 -0.1069  0.6106  0.0810
 1440TIP3    H1 4326   3.617   4.418   3.461  1.0611  0.6784 -0.3492
 1440TIP3    H2 4327   3.658   4.308   3.365 -0.2996  0.6358 -0.8991
 1441TIP3   OH2 4328   5.506   5.492   3.253  0.0634  0.1378  0.3144
 1441TIP3    H1 4329   5.464   5.411   3.282  0.4611 -1.0705 -2.1885
 1441TIP3    H2 4330   5.598   5.481   3.277  0.2149 -0.4209 -0.4868
 1442TIP3   OH2 4331   1.181   1.786   1.433 -0.0439  0.3388 -0.5094
 1442TIP3    H1 4332   1.250   1.746   1.486 -0.6286  1.3110  1.0670
 1442TIP3    H2 4333   1.226   1.818   1.355  0.7755 -1.5146 -0.8435
 1443TIP3   OH2 4334   6.201   4.603   2.037  0.2015 -0.0019 -0.3969
 1443TIP3    H1 4335   6.156   4.687   2.026 -1.2530 -0.7835 -0.6908
 1443TIP3    H2 4336   6.134   4.545   2.072  1.6333 -0.6479  1.3714
 1444TIP3   OH2 4337   3.675   5.751   2.721  0.0188 -0.1074  0.3628
 1444TIP3    H1 4338   3.600   5.747   2.780 -0.5215  1.6137 -0.1331
 1444TIP3    H2 4339   3.700   5.660   2.707 -0.2476 -0.6013  2.6891
 1445TIP3   OH2 4340   2.740   3.922   4.058  0.0220  0.2349 -0.0328
 1445TIP3    H1 4341   2.712   4.004   4.017  2.1140  0.3535 -1.4011
 1445TIP3    H2 4342   2.734   3.857   3.987  0.0146 -0.4318  0.5665
 1446TIP3   OH2 4343   2.603   5.831   4.732  0.4635  0.2748 -0.1382
 1446TIP3    H1 4344   2.618   5.905   4.791  1.1523 -0.2240  0.3444
 1446TIP3    H2 4345   2.527   5.855   4.680 -1.3409 -0.0145  2.2185
 1447TIP3   OH2 4346   2.451   5.125   0.757  0.0267 -0.2571  0.7328
 1447TIP3    H1 4347   2.518   5.083   0.703 -0.2391  0.1957  0.0354
 1447TIP3    H2 4348   2.370   5.116   0.706  0.0634  1.5788  0.2999
 1448TIP3   OH2 4349   2.624   0.504   4.735 -0.1939  0.6023 -0.1797
 1448TIP3    H1 4350   2.580   0.583   4.705 -0.8591  0.1788 -0.3496
 1448TIP3    H2 4351   2.695   0.491   4.673 -1.6967 -0.4025 -1.7907
 1449TIP3   OH2 4352   5.664  -0.006   4.736 -0.2056 -0.0167 -0.7935
 1449TIP3    H1 4353   5.627   0.070   4.691 -0.5015  0.7068  0.6206
 1449TIP3    H2 4354   5.591  -0.044   4.784  0.2710 -0.2440 -0.2224
 1450TIP3   OH2 4355   3.708   2.928   1.142 -0.1777  0.3188 -0.0401
 1450TIP3    H1 4356   3.774   2.995   1.161 -0.6692  1.0785 -0.9160
 1450TIP3    H2 4357   3.669   2.955   1.059 -0.5985 -0.9037 -0.2696
 1451TIP3   OH2 4358   0.708   1.476   2.028  0.0797 -0.3550 -0.1263
 1451TIP3    H1 4359   0.765   1.534   2.079 -1.4980  1.3602 -0.2197
 1451TIP3    H2 4360   0.769   1.418   1.981  1.6884  0.6112  0.6814
 1452TIP3   OH2 4361   2.531   2.848   3.604  0.4021  0.1003 -0.3629
 1452TIP3    H1 4362   2.577   2.890   3.532 -0.5249 -0.3956 -1.2666
 1452TIP3    H2 4363   2.537   2.754   3.586  1.4620 -0.1295  1.0202
 1453TIP3   OH2 4364   1.220   4.082   4.539  0.7343  0.4907  0.0989
 1453TIP3    H1 4365   1.231   4.047   4.451 -0.3012 -0.1639  0.2163
 1453TIP3    H2 4366   1.293   4.142   4.550  2.4324 -1.4247 -0.2121
 1454TIP3   OH2 4367   6.155   3.830   1.736 -0.0242  0.0253 -0.1661
 1454TIP3    H1 4368   6.121   3.744   1.760  0.6403  0.0614  0.9911
 1454TIP3    H2 4369   6.094   3.892   1.776  0.0249  0.0919 -0.1939
 1455TIP3   OH2 4370   3.589   1.651   1.163 -0.4984 -0.1992  0.2709
 1455TIP3    H1 4371   3.522   1.589   1.192 -0.8222  0.8863  1.9919
 1455TIP3    H2 4372   3.552   1.737   1.182  1.1356  0.4473  0.7434
 1456TIP3   OH2 4373   6.051   4.855   3.359  0.1421 -0.7722  0.6031
 1456TIP3    H1 4374   5.964   4.895   3.371  0.6367  0.6808 -0.3151
 1456TIP3    H2 4375   6.089   4.853   3.447 -0.0509  0.4865  0.7340
 1457TIP3   OH2 4376   1.429   2.864   1.332 -0.2285 -0.4417  0.4651
 1457TIP3    H1 4377   1.525   2.869   1.324 -0.0735  0.3275  2.3031
 1457TIP3    H2 4378   1.402   2.812   1.256  1.2645  2.3035 -2.1420
 1458TIP3   OH2 4379   3.833   0.657   3.128  0.2274  0.0788  0.0299
 1458TIP3    H1 4380   3.759   0.608   3.092 -1.3276  0.9557  1.8113
 1458TIP3    H2 4381   3.847   0.728   3.065  0.1523 -0.6218 -0.7855
 1459TIP3   OH2 4382   2.745   3.321   2.911 -0.4362 -0.5258  0.3558
 1459TIP3    H1 4383   2.809   3.253   2.888 -0.4157 -0.6632  0.8092
 1459TIP3    H2 4384   2.790   3.375   2.975 -0.2976  0.1787 -0.3265
 1460TIP3   OH2 4385   3.273   0.761   0.992  0.2847 -0.8795  0.8658
 1460TIP3    H1 4386   3.210   0.779   1.062 -0.7137 -1.6259  0.1858
 1460TIP3    H2 4387   3.358   0.762   1.036 -0.3713 -1.9947  2.2354
 1461TIP3   OH2 4388   0.242   2.092   3.562  0.1280 -0.4400  0.1655
 1461TIP3    H1 4389   0.151   2.120   3.555 -0.4439 -2.4933 -1.1995
 1461TIP3    H2 4390   0.240   2.015   3.619  0.5731 -2.1253 -1.9935
 1462TIP3   OH2 4391   4.462   5.300   4.442  0.4720 -0.4000 -0.4625
 1462TIP3    H1 4392   4.505   5.361   4.503 -0.4612  0.6132 -0.7863
 1462TIP3    H2 4393   4.445   5.353   4.364  2.7098 -1.9750 -2.1230
 1463TIP3   OH2 4394   3.066   5.300   0.005 -0.3943  0.0740  0.3551
 1463TIP3    H1 4395   3.136   5.286   0.069 -0.3465  0.9721  0.5179
 1463TIP3    H2 4396   3.056   5.395   0.002 -0.7097  0.0182 -0.6388
 1464TIP3   OH2 4397   0.823   5.864   4.820 -0.1175 -0.4207 -0.5871
 1464TIP3    H1 4398   0.900   5.864   4.877 -1.0953  2.6987  0.9934
 1464TIP3    H2 4399   0.764   5.799   4.859  0.0166  0.3034  0.8980
 1465TIP3   OH2 4400   6.273   2.876   1.814 -0.4793  0.1322 -0.4557
 1465TIP3    H1 4401   6.204   2.884   1.748 -0.1493 -4.3849 -1.6928
 1465TIP3    H2 4402   6.354   2.873   1.763 -0.0865 -1.8797  0.2014
 1466TIP3   OH2 4403   5.733   3.384   3.337 -0.0592 -0.6248  0.5896
 1466TIP3    H1 4404   5.682   3.392   3.417  0.2471  1.3277  0.6440
 1466TIP3    H2 4405   5.702   3.302   3.297 -1.7044 -0.5819  1.6563
 1467TIP3   OH2 4406   6.264   5.431   2.507  0.1618 -0.4230 -0.6794
 1467TIP3    H1 4407   6.351   5.422   2.467  1.2742  1.5526  1.1344
 1467TIP3    H2 4408   6.210   5.471   2.439  0.9825 -0.5547 -1.4260
 1468TIP3   OH2 4409   6.108   4.650   3.775 -0.8891  0.2628 -0.1878
 1468TIP3    H1 4410   6.109   4.554   3.782  0.1467  0.2861  0.0889
 1468TIP3    H2 4411   6.190   4.672   3.731  0.4211  1.2049  2.5043
 1469TIP3   OH2 4412   1.695   4.695   0.604 -0.5271  0.1727 -0.4339
 1469TIP3    H1 4413   1.675   4.637   0.531 -0.3283  1.6618 -1.7281
 1469TIP3    H2 4414   1.676   4.783   0.570  0.7016  0.9949  0.9077
 1470TIP3   OH2 4415   2.659   0.340   1.224 -0.0039  0.0490 -0.5347
 1470TIP3    H1 4416   2.701   0.418   1.188 -0.3152  0.0294 -0.9583
 1470TIP3    H2 4417   2.617   0.369   1.304  2.3386 -0.3145  0.9213
 1471TIP3   OH2 4418   3.453   2.192   4.782  0.0854  0.2561 -0.2530
 1471TIP3    H1 4419   3.453   2.258   4.713  0.3855  0.2878 -0.2243
 1471TIP3    H2 4420   3.545   2.172   4.797  0.0212  0.2116  0.1052
 1472TIP3   OH2 4421   2.895   0.477   3.181  0.2220 -0.1675 -0.5196
 1472TIP3    H1 4422   2.879   0.552   3.124  2.7585 -0.5939 -1.9211
 1472TIP3    H2 4423   2.974   0.501   3.231 -0.2153 -1.0274  0.6443
 1473TIP3   OH2 4424   4.435   0.842   4.999  0.1148  0.3489 -0.4453
 1473TIP3    H1 4425   4.520   0.865   5.036  0.0411 -0.5159  0.2915
 1473TIP3    H2 4426   4.372   0.879   5.060 -0.0191 -0.2297 -0.2324
 1474TIP3   OH2 4427   5.750   1.811   4.032  0.4453 -0.1905  0.0961
 1474TIP3    H1 4428   5.843   1.807   4.010 -0.0691 -0.8748 -2.1702
 1474TIP3    H2 4429   5.734   1.733   4.085  1.2260  0.1947  0.9364
 1475TIP3   OH2 4430   0.678   4.722   3.293  0.4905 -0.1080 -0.0362
 1475TIP3    H1 4431   0.650   4.813   3.287  1.1430  0.0705 -0.5088
 1475TIP3    H2 4432   0.601   4.675   3.326  0.2176  0.6423  0.4220
 1476TIP3   OH2 4433   1.179   5.510   2.099 -0.1403  0.2855 -0.1853
 1476TIP3    H1 4434   1.191   5.453   2.024 -0.6551 -1.4306  0.9810
 1476TIP3    H2 4435   1.259   5.499   2.150  0.8414  2.5279 -1.1007
 1477TIP3   OH2 4436   0.875   2.087   5.043  0.2176  0.0380  0.3759
 1477TIP3    H1 4437   0.812   2.066   5.111 -0.2407  1.1170  0.2985
 1477TIP3    H2 4438   0.907   2.175   5.066  0.0539  0.4171 -0.7909
 1478TIP3   OH2 4439   3.027   3.547   4.871  0.1594 -0.1072  0.9472
 1478TIP3    H1 4440   3.004   3.630   4.913 -0.4591  0.6878 -0.8410
 1478TIP3    H2 4441   2.948   3.524   4.821  0.7461 -1.1641  0.4855
 1479TIP3   OH2 4442   5.236   1.335   1.831  0.3087  0.1089 -0.4905
 1479TIP3    H1 4443   5.295   1.319   1.905  0.4136 -1.2210 -0.8252
 1479TIP3    H2 4444   5.171   1.265   1.837 -0.1079  0.4200 -1.2444
 1480TIP3   OH2 4445   5.484   3.367   1.690 -0.4499  0.4513 -0.4686
 1480TIP3    H1 4446   5.504   3.294   1.631 -0.8215  0.7932 -1.0289
 1480TIP3    H2 4447   5.389   3.366   1.698 -0.4898  1.1157 -0.8066
 1481TIP3   OH2 4448   6.084   4.514   1.732  0.3089 -0.3013  0.3470
 1481TIP3    H1 4449   6.039   4.592   1.764  2.0611 -0.1805  2.7712
 1481TIP3    H2 4450   6.171   4.545   1.706  0.5267 -1.2205 -0.0569
 1482TIP3   OH2 4451   1.470   0.396   1.937  0.3516 -0.1208 -0.2215
 1482TIP3    H1 4452   1.498   0.328   1.998 -0.3045 -1.0710 -0.9409
 1482TIP3    H2 4453   1.375   0.387   1.934  0.3356  0.2277 -1.0067
 1483TIP3   OH2 4454   5.043   2.708   0.330 -0.8110  0.3575  0.0950
 1483TIP3    H1 4455   5.079   2.621   0.315 -0.3214  0.4518  0.6959
 1483TIP3    H2 4456   5.103   2.749   0.392 -1.9785  0.4947  1.1745
 1484TIP3   OH2 4457   1.897   5.634   1.384  0.3087 -0.3224 -0.0631
 1484TIP3    H1 4458   1.908   5.673   1.471  0.9031 -0.0601 -0.2463
 1484TIP3    H2 4459   1.957   5.559   1.384  0.1156 -0.4767 -0.1542
 1485TIP3   OH2 4460   1.703   0.507   1.038 -0.6150  1.0451 -0.0994
 1485TIP3    H1 4461   1.686   0.457   0.958 -2.2422 -0.3602  1.0515
 1485TIP3    H2 4462   1.666   0.453   1.108  0.1849  2.5359  1.5450
 1486TIP3   OH2 4463   3.542   0.082   4.344 -0.6118  0.4796 -0.0900
 1486TIP3    H1 4464   3.541   0.161   4.399  1.0083  1.0653 -0.8354
 1486TIP3    H2 4465   3.466   0.093   4.287 -0.4378  1.4947 -0.1560
 1487TIP3   OH2 4466   4.798   4.509   0.274  0.1393 -0.5076 -0.1790
 1487TIP3    H1 4467   4.774   4.566   0.201  0.7626 -2.8640 -2.3625
 1487TIP3    H2 4468   4.718   4.462   0.295  0.0806 -0.1683  0.3967
 1488TIP3   OH2 4469   5.824   4.965   4.523 -0.4921 -0.5947 -0.0548
 1488TIP3    H1 4470   5.795   5.010   4.444  0.5890 -2.4130 -1.5699
 1488TIP3    H2 4471   5.796   4.875   4.511  0.3639 -1.0738  1.2896
 1489TIP3   OH2 4472   1.968   5.254   3.507 -0.1317 -0.3248 -0.2403
 1489TIP3    H1 4473   1.949   5.288   3.595  0.7512 -0.6866  0.0965
 1489TIP3    H2 4474   1.977   5.332   3.452  2.3508  0.0758  0.6184
 1490TIP3   OH2 4475   0.448   4.262   1.468  0.1086 -0.7683 -0.1374
 1490TIP3    H1 4476   0.446   4.217   1.553 -1.6902 -0.7509 -0.1154
 1490TIP3    H2 4477   0.418   4.351   1.488 -0.9074 -0.9313 -0.8485
 1491TIP3   OH2 4478   5.752   0.316   4.786  0.4186 -0.0008 -0.0027
 1491TIP3    H1 4479   5.705   0.357   4.714  0.6547 -0.1142 -0.2224
 1491TIP3    H2 4480   5.685   0.266   4.833  0.3214 -0.1613 -0.3112
 1492TIP3   OH2 4481   6.164   4.891   4.603  0.3533  0.4559  0.4138
 1492TIP3    H1 4482   6.221   4.952   4.556  0.1063  1.0677  0.8954
 1492TIP3    H2 4483   6.086   4.884   4.549  0.5789  0.1963  0.1221
 1493TIP3   OH2 4484   0.024   0.103   2.155  0.1514  0.5664 -0.1925
 1493TIP3    H1 4485   0.027   0.143   2.242 -1.3589 -0.5071  0.4123
 1493TIP3    H2 4486   0.009   0.010   2.172 -0.2065  0.3393 -1.5974
 1494TIP3   OH2 4487   5.461   5.466   0.134  0.2029  0.0207  0.1568
 1494TIP3    H1 4488   5.388   5.406   0.118 -1.0940  0.8457  2.6040
 1494TIP3    H2 4489   5.429   5.551   0.103  0.4840  0.2031  0.3626
 1495TIP3   OH2 4490   3.347   2.328   1.321  0.0981 -0.1124 -0.6700
 1495TIP3    H1 4491   3.294   2.408   1.325  0.5064  0.1459 -0.2164
 1495TIP3    H2 4492   3.330   2.285   1.405 -0.5353 -0.7794 -1.1337
 1496TIP3   OH2 4493   4.994   5.456   4.708 -0.0582  0.3455 -0.4713
 1496TIP3    H1 4494   4.899   5.455   4.714 -0.0433  1.0731 -0.0963
 1496TIP3    H2 4495   5.024   5.464   4.798  0.3378  1.1797 -0.6664
 1497TIP3   OH2 4496   1.280   0.927   3.631  0.2063 -0.3494 -0.3557
 1497TIP3    H1 4497   1.311   0.858   3.573 -0.6549 -0.7978 -0.3002
 1497TIP3    H2 4498   1.275   0.887   3.717  0.1872 -0.0716 -0.2250
 1498TIP3   OH2 4499   2.244   2.419   4.611  0.2099  0.1011  0.0621
 1498TIP3    H1 4500   2.213   2.392   4.524 -0.1149 -1.2530  0.5753
 1498TIP3    H2 4501   2.329   2.378   4.620  0.1704  0.1079  0.4596
 1499TIP3   OH2 4502   0.508   5.754   5.143  0.1322  0.4831 -0.2169
 1499TIP3    H1 4503   0.501   5.727   5.051 -0.0854  0.7594 -0.2850
 1499TIP3    H2 4504   0.593   5.722   5.172 -0.0867 -0.2039 -0.3162
 1500TIP3   OH2 4505   4.043   3.040   4.379 -0.1833  0.5971  0.1888
 1500TIP3    H1 4506   3.950   3.014   4.379 -0.5937  1.9054 -1.3726
 1500TIP3    H2 4507   4.090   2.960   4.355 -0.9578  0.0522  0.4386
 1501TIP3   OH2 4508   6.293   2.120   0.517 -0.9089 -0.2641  0.0044
 1501TIP3    H1 4509   6.293   2.027   0.497 -0.6725 -0.2366 -0.1321
 1501TIP3    H2 4510   6.357   2.129   0.587 -0.6922 -0.1608 -0.2038
 1502TIP3   OH2 4511   3.833   1.161   4.132 -0.5899  0.1086  0.3766
 1502TIP3    H1 4512   3.921   1.145   4.167  0.4463  1.8555 -1.2744
 1502TIP3    H2 4513   3.775   1.118   4.195  1.3828 -0.5600  1.8622
 1503TIP3   OH2 4514   2.974   5.908   2.169  0.4138  0.1713  0.4834
 1503TIP3    H1 4515   3.003   5.988   2.127 -0.4455  0.4933  0.4887
 1503TIP3    H2 4516   2.880   5.920   2.183  0.5815 -0.1435  2.0126
 1504TIP3   OH2 4517   3.693   0.073   3.973 -0.9662 -0.0905  0.2552
 1504TIP3    H1 4518   3.712   0.092   4.065 -2.1574 -0.6934  0.6401
 1504TIP3    H2 4519   3.763   0.013   3.946 -0.0411  0.8724  0.4609
 1505TIP3   OH2 4520   2.327   0.345   1.240 -0.5682 -0.3643 -0.3199
 1505TIP3    H1 4521   2.415   0.353   1.274 -0.3842 -2.3270 -0.2306
 1505TIP3    H2 4522   2.310   0.429   1.197  0.4387  0.9045  1.6309
 1506TIP3   OH2 4523   2.100   0.896   1.970  0.1176  0.3384  0.2968
 1506TIP3    H1 4524   2.117   0.986   1.998 -1.2753  0.9748 -0.7627
 1506TIP3    H2 4525   2.129   0.894   1.878 -1.6403  0.3072 -0.2978
 1507TIP3   OH2 4526   0.409   3.682   1.427 -0.1932 -0.0868 -0.6015
 1507TIP3    H1 4527   0.389   3.600   1.473  0.2263  0.3793  0.4599
 1507TIP3    H2 4528   0.324   3.726   1.420 -0.1431  0.2835  0.6866
 1508TIP3   OH2 4529   1.648   5.582   3.573 -0.0718 -0.1234 -0.4778
 1508TIP3    H1 4530   1.743   5.569   3.585  0.0423  0.9322 -0.0925
 1508TIP3    H2 4531   1.620   5.508   3.519  1.4769  0.9866 -2.9910
 1509TIP3   OH2 4532   4.542   0.549   1.492  0.6358  0.3653  0.4516
 1509TIP3    H1 4533   4.531   0.617   1.559 -0.8061 -1.0569  1.7436
 1509TIP3    H2 4534   4.551   0.598   1.410 -1.6924  2.1426  1.1358
 1510TIP3   OH2 4535   5.784   0.692   0.137 -0.3247 -1.0317  0.2538
 1510TIP3    H1 4536   5.725   0.729   0.203 -0.7149 -1.3533  0.0949
 1510TIP3    H2 4537   5.868   0.735   0.152 -0.5954 -0.5863  0.5037
 1511TIP3   OH2 4538   2.593   3.306   3.431  0.2767  0.0681 -0.1012
 1511TIP3    H1 4539   2.682   3.272   3.432  0.9037  1.3417 -3.0541
 1511TIP3    H2 4540   2.602   3.399   3.455 -0.4406 -0.0804  0.8078
 1512TIP3   OH2 4541   3.459   0.817   2.372 -0.0749  0.0371  0.2911
 1512TIP3    H1 4542   3.486   0.904   2.342 -0.3424  0.3278  0.8726
 1512TIP3    H2 4543   3.371   0.830   2.407  0.3072 -0.2315  1.3964
 1513TIP3   OH2 4544   5.305   2.451   3.583  0.2423  0.2742  0.3780
 1513TIP3    H1 4545   5.273   2.368   3.547  1.4155  0.1991 -0.5785
 1513TIP3    H2 4546   5.265   2.517   3.527  1.1369  0.2183 -0.3455
 1514TIP3   OH2 4547   0.439   1.383   2.838  0.3982 -0.2387 -0.0849
 1514TIP3    H1 4548   0.488   1.447   2.891 -1.9823  0.1773  1.7739
 1514TIP3    H2 4549   0.506   1.322   2.808  2.1543  0.5551  1.8952
 1515TIP3   OH2 4550   3.049   5.577   1.413  0.1104 -0.0900  0.4486
 1515TIP3    H1 4551   3.117   5.610   1.355  0.0870 -1.4286 -0.3763
 1515TIP3    H2 4552   3.020   5.495   1.373  0.9188 -1.7047  2.9565
 1516TIP3   OH2 4553   2.122   4.466   3.295 -0.1440  0.6686  0.4895
 1516TIP3    H1 4554   2.175   4.388   3.280 -0.3614  0.6497 -0.2271
 1516TIP3    H2 4555   2.112   4.471   3.390  2.5979  1.6245  0.8376
 1517TIP3   OH2 4556   4.803   5.737   3.641 -0.7158  0.0278 -0.0566
 1517TIP3    H1 4557   4.884   5.759   3.595 -0.6404 -1.1536 -0.5462
 1517TIP3    H2 4558   4.768   5.821   3.670  0.4246  0.6042 -0.2681
 1518TIP3   OH2 4559   1.115   3.008   2.077 -0.0536 -0.4729 -0.4491
 1518TIP3    H1 4560   1.035   3.032   2.029 -0.1617  0.7611  0.2808
 1518TIP3    H2 4561   1.130   2.917   2.055 -1.3657 -0.5745 -1.0401
 1519TIP3   OH2 4562   2.826   4.533   0.209 -0.1087  0.1444 -0.1959
 1519TIP3    H1 4563   2.745   4.567   0.245 -0.8574 -1.0627 -0.6643
 1519TIP3    H2 4564   2.798   4.462   0.151  1.4165 -1.9965  1.5610
 1520TIP3   OH2 4565   0.743   0.271   3.090  0.3221 -0.4997 -0.1921
 1520TIP3    H1 4566   0.835   0.281   3.113  0.0505 -0.4209  0.9015
 1520TIP3    H2 4567   0.743   0.258   2.995  1.5065 -1.1976 -0.1116
 1521TIP3   OH2 4568   2.536   5.314   0.513 -0.5175  0.2037 -0.1758
 1521TIP3    H1 4569   2.497   5.228   0.495 -0.6811  0.5446 -1.6499
 1521TIP3    H2 4570   2.522   5.328   0.606 -1.1927 -1.0291 -0.0634
 1522TIP3   OH2 4571   5.730   2.074   3.546 -0.4044 -0.1268  0.2194
 1522TIP3    H1 4572   5.663   2.124   3.500  0.2649  0.0170 -0.6372
 1522TIP3    H2 4573   5.810   2.089   3.495  0.5028  0.5050  1.7545
 1523TIP3   OH2 4574   2.435   3.176   3.236  0.2794 -0.3140 -0.1909
 1523TIP3    H1 4575   2.486   3.212   3.309  1.3676 -0.5847 -0.7970
 1523TIP3    H2 4576   2.494   3.112   3.195 -0.9911 -1.5685 -0.1593
 1524TIP3   OH2 4577   5.235   2.205   3.470 -0.1120 -0.2167 -0.2142
 1524TIP3    H1 4578   5.155   2.217   3.418 -0.2405  0.8199  0.2120
 1524TIP3    H2 4579   5.232   2.113   3.497  0.1117 -0.8789 -2.2756
 1525TIP3   OH2 4580   3.586   3.502   0.958  0.0200 -0.2805  0.1885
 1525TIP3    H1 4581   3.544   3.507   1.044 -0.4363 -1.2863  0.0411
 1525TIP3    H2 4582   3.635   3.583   0.950  0.1261 -0.2143  1.4276
 1526TIP3   OH2 4583   4.678   2.198   3.573 -0.0445 -0.5734 -0.3051
 1526TIP3    H1 4584   4.599   2.179   3.624  0.9046 -0.5953  1.2128
 1526TIP3    H2 4585   4.717   2.113   3.556  0.4983 -0.4613  0.3585
 1527TIP3   OH2 4586   6.272   1.428   1.110 -0.0510 -0.3080 -0.2324
 1527TIP3    H1 4587   6.230   1.460   1.029 -2.8887 -1.6016  0.5780
 1527TIP3    H2 4588   6.233   1.481   1.179  1.8952  0.3671  0.3930
 1528TIP3   OH2 4589   3.523   3.807   0.120 -0.2054 -0.2005  0.3343
 1528TIP3    H1 4590   3.539   3.884   0.174 -2.1376  1.1573 -0.8986
 1528TIP3    H2 4591   3.554   3.833   0.033 -0.9563 -0.7543 -0.1108
 1529TIP3   OH2 4592   6.363   5.272   1.390  0.4303  0.6620  0.7361
 1529TIP3    H1 4593   6.356   5.181   1.417 -1.0383  0.3797 -0.4288
 1529TIP3    H2 4594   6.284   5.314   1.425  0.9756  1.4414  1.0700
 1530TIP3   OH2 4595   5.533   0.575   1.491 -0.3623  0.1081 -0.4773
 1530TIP3    H1 4596   5.616   0.541   1.457 -0.2805 -1.2852  1.0314
 1530TIP3    H2 4597   5.467   0.513   1.460 -0.6346  0.3397 -0.3606
 1531TIP3   OH2 4598   4.406   0.506   3.374 -0.0721  0.3790  0.1002
 1531TIP3    H1 4599   4.352   0.466   3.307  1.1332 -0.3897 -0.4426
 1531TIP3    H2 4600   4.493   0.512   3.335  0.4996  0.5640  1.3331
 1532TIP3   OH2 4601   0.804   4.155   2.487 -0.6166  0.0985  0.4337
 1532TIP3    H1 4602   0.845   4.167   2.401 -1.7066  0.7208 -0.0189
 1532TIP3    H2 4603   0.877   4.159   2.549  0.2350 -0.7442 -0.4847
 1533TIP3   OH2 4604   5.222   3.744   0.433  0.8054 -0.1246 -0.2720
 1533TIP3    H1 4605   5.168   3.685   0.383  0.2433  0.3610 -0.2475
 1533TIP3    H2 4606   5.160   3.803   0.476  1.1407 -1.4918  2.2933
 1534TIP3   OH2 4607   0.807   1.182   1.353 -0.1888  0.1849  0.5244
 1534TIP3    H1 4608   0.814   1.238   1.430 -3.0481 -1.2414  1.9524
 1534TIP3    H2 4609   0.768   1.101   1.385  1.9186 -1.9416 -1.8124
 1535TIP3   OH2 4610   0.481   1.487   3.120  0.0354 -0.1529  0.1164
 1535TIP3    H1 4611   0.456   1.420   3.183  0.3097  0.2324  0.6463
 1535TIP3    H2 4612   0.533   1.550   3.171  1.9364 -0.8220 -0.8950
 1536TIP3   OH2 4613   1.243   2.181   1.398 -0.0874  0.1436  0.0122
 1536TIP3    H1 4614   1.240   2.118   1.470  0.2152  0.1134 -0.0041
 1536TIP3    H2 4615   1.334   2.181   1.368 -0.0098  0.8260  0.2228
 1537TIP3   OH2 4616   4.488   2.579   1.641  0.1897  0.0274 -0.7100
 1537TIP3    H1 4617   4.397   2.556   1.622 -0.0349  0.1249  0.2259
 1537TIP3    H2 4618   4.522   2.507   1.693  0.0303  0.9220  0.6724
 1538TIP3   OH2 4619   3.481   2.241   0.436 -0.1576  0.0594 -0.6889
 1538TIP3    H1 4620   3.517   2.318   0.392  1.3756 -0.5878 -0.6328
 1538TIP3    H2 4621   3.473   2.266   0.528  0.4708  0.1230 -0.6466
 1539TIP3   OH2 4622   5.176   2.528   0.700  0.4490  0.0817 -0.5146
 1539TIP3    H1 4623   5.246   2.480   0.656  0.9893  0.7796 -0.4444
 1539TIP3    H2 4624   5.191   2.619   0.675  2.1854  0.8901  2.8585
 1540TIP3   OH2 4625   3.554   4.901   3.625  0.3072  0.7094  0.0473
 1540TIP3    H1 4626   3.564   4.806   3.628  0.5284  0.7485  0.8629
 1540TIP3    H2 4627   3.489   4.920   3.692 -0.0929  1.0971 -0.4447
 1541TIP3   OH2 4628   1.356   3.406   3.197  0.1044  1.1044 -0.2329
 1541TIP3    H1 4629   1.377   3.326   3.148 -0.1379  0.7166  0.2946
 1541TIP3    H2 4630   1.442   3.441   3.222  0.2082 -0.2800  1.5939
 1542TIP3   OH2 4631   1.626   4.534   0.398  0.5854  0.0122 -0.5580
 1542TIP3    H1 4632   1.685   4.466   0.366 -0.2236 -0.2028 -1.6647
 1542TIP3    H2 4633   1.579   4.564   0.320 -0.8748  0.0546  0.3032
 1543TIP3   OH2 4634   3.757   4.051   4.480 -0.3188 -0.0089 -0.0430
 1543TIP3    H1 4635   3.803   3.992   4.421  0.5183 -2.2990  2.7019
 1543TIP3    H2 4636   3.665   4.027   4.472 -0.1348 -0.7512  0.0644
 1544TIP3   OH2 4637   0.200   4.143   4.519 -0.1216  0.0617  0.5218
 1544TIP3    H1 4638   0.156   4.058   4.526 -0.8871  0.5400  2.3764
 1544TIP3    H2 4639   0.252   4.150   4.599  0.9644  0.8102 -0.2153
 1545TIP3   OH2 4640   3.239   1.526   5.095  0.2289 -0.5445  0.3218
 1545TIP3    H1 4641   3.184   1.466   5.044  0.2244  0.6204 -1.1088
 1545TIP3    H2 4642   3.313   1.472   5.123  0.3881 -1.1861 -1.2081
 1546TIP3   OH2 4643   0.712   3.859   2.635 -0.1103 -0.0699  0.0364
 1546TIP3    H1 4644   0.681   3.942   2.672 -1.0263 -0.0665 -0.7044
 1546TIP3    H2 4645   0.782   3.884   2.576  0.3236  0.0656  0.5955
 1547TIP3   OH2 4646   4.718   1.289   1.461 -0.2445 -0.5060 -0.2549
 1547TIP3    H1 4647   4.661   1.302   1.537  0.1699  0.0553 -0.0364
 1547TIP3    H2 4648   4.756   1.375   1.445 -0.5564 -0.5541 -1.2871
 1548TIP3   OH2 4649   4.045   4.705   2.657 -0.1328  0.1485  0.0924
 1548TIP3    H1 4650   3.969   4.751   2.693 -0.4946  1.4471 -2.1563
 1548TIP3    H2 4651   4.050   4.734   2.566  2.0964 -1.1901 -0.2866
 1549TIP3   OH2 4652   6.013   0.581   2.249 -0.0525 -0.1077  0.3265
 1549TIP3    H1 4653   5.967   0.665   2.243 -1.3535 -0.6986  1.5219
 1549TIP3    H2 4654   6.103   0.601   2.223 -0.6675  1.3529 -0.7946
 1550TIP3   OH2 4655   5.124   2.001   0.100 -0.3810  0.2156  0.0065
 1550TIP3    H1 4656   5.096   1.915   0.070  0.5831 -0.3213  0.6124
 1550TIP3    H2 4657   5.114   1.998   0.195 -1.4797  1.2016 -0.0456
 1551TIP3   OH2 4658   4.265   4.907   3.652  0.1410 -0.0048  0.0500
 1551TIP3    H1 4659   4.257   4.813   3.633 -1.8466  0.2164 -0.4756
 1551TIP3    H2 4660   4.228   4.916   3.740 -0.5136  0.3789 -0.2546
 1552TIP3   OH2 4661   5.189   3.094   1.704  0.0802 -0.0209 -0.0907
 1552TIP3    H1 4662   5.269   3.050   1.676  0.0981 -0.3199  0.4137
 1552TIP3    H2 4663   5.159   3.141   1.627 -0.2952 -1.4366 -0.8526
 1553TIP3   OH2 4664   1.551   1.204   1.601 -0.2375 -0.3107  0.8049
 1553TIP3    H1 4665   1.510   1.122   1.570 -0.8229  1.2078 -2.9532
 1553TIP3    H2 4666   1.625   1.217   1.543 -0.4098  2.0261  1.0212
 1554TIP3   OH2 4667   2.188   3.105   3.138 -0.0581 -0.4415  0.2818
 1554TIP3    H1 4668   2.263   3.135   3.190  0.4872 -0.5020 -0.4401
 1554TIP3    H2 4669   2.119   3.087   3.202 -0.0258  1.2498  0.8485
 1555TIP3   OH2 4670   1.481   0.165   3.655 -0.2355 -0.0768 -0.5853
 1555TIP3    H1 4671   1.575   0.159   3.641  0.4289  1.2260  2.4831
 1555TIP3    H2 4672   1.451   0.074   3.652  1.3231 -0.6208 -0.5244
 1556TIP3   OH2 4673   4.033   5.443   1.132 -0.2774  0.3903  0.3706
 1556TIP3    H1 4674   3.977   5.498   1.186 -2.6550 -1.0539 -0.4679
 1556TIP3    H2 4675   4.063   5.502   1.062 -2.2763  0.8225 -0.1805
 1557TIP3   OH2 4676   2.120   1.472   3.848  0.1436 -0.4238  0.0353
 1557TIP3    H1 4677   2.159   1.499   3.931 -2.2868 -0.0693  1.1377
 1557TIP3    H2 4678   2.112   1.377   3.855  1.3045 -0.5755 -0.4600
 1558TIP3   OH2 4679   0.887   1.263   1.924  0.4391 -0.0439  0.3190
 1558TIP3    H1 4680   0.917   1.281   2.014 -0.3910  0.5722  0.4832
 1558TIP3    H2 4681   0.896   1.168   1.915  0.8214 -0.0758  0.9473
 1559TIP3   OH2 4682   0.269   4.357   3.114 -0.1684  0.2221 -0.1030
 1559TIP3    H1 4683   0.315   4.437   3.086 -1.2866  0.4704 -1.3392
 1559TIP3    H2 4684   0.317   4.286   3.073 -1.2046  0.5225 -1.9479
 1560TIP3   OH2 4685   0.676   2.420   0.546  0.2590  0.1265 -0.2632
 1560TIP3    H1 4686   0.700   2.478   0.619 -0.8473  1.9584 -1.3016
 1560TIP3    H2 4687   0.751   2.424   0.487 -0.4484  1.8628 -1.1079
 1561TIP3   OH2 4688   1.620   3.837   0.158  0.0599 -0.4969  0.4550
 1561TIP3    H1 4689   1.590   3.755   0.119  1.3582 -0.5176 -0.5733
 1561TIP3    H2 4690   1.541   3.891   0.165 -0.3611 -0.7889 -1.5043
 1562TIP3   OH2 4691   3.800   4.586   2.026 -0.1620  0.5773  0.4212
 1562TIP3    H1 4692   3.717   4.545   2.003 -0.8709  0.5604  2.7055
 1562TIP3    H2 4693   3.850   4.517   2.070  1.8059  0.1196 -2.2472
 1563TIP3   OH2 4694   2.174   4.732   2.390 -0.3106  0.0755 -0.1779
 1563TIP3    H1 4695   2.189   4.796   2.459 -1.0575  0.2506 -0.1625
 1563TIP3    H2 4696   2.253   4.678   2.389  1.8470  2.9582 -2.4167
 1564TIP3   OH2 4697   4.660   4.646   0.074 -0.0739  0.2545  0.1814
 1564TIP3    H1 4698   4.581   4.678   0.117 -0.5298 -1.1784  0.4500
 1564TIP3    H2 4699   4.628   4.583   0.010  0.6861  1.4491 -1.4523
 1565TIP3   OH2 4700   1.260   3.045   4.430  0.3631  0.5370  0.3785
 1565TIP3    H1 4701   1.324   2.978   4.408 -2.1801 -1.4576 -1.6327
 1565TIP3    H2 4702   1.227   3.020   4.516  0.6250  0.2429  0.3942
 1566TIP3   OH2 4703   1.893   3.320   0.658 -0.4557 -0.3099 -0.2050
 1566TIP3    H1 4704   1.886   3.323   0.753 -0.3963 -0.2780 -0.2023
 1566TIP3    H2 4705   1.818   3.371   0.627 -1.6873 -2.0097 -0.1944
 1567TIP3   OH2 4706   4.000   2.676   3.652  0.0220 -0.0337 -0.0041
 1567TIP3    H1 4707   3.967   2.609   3.713  0.6750 -0.4258 -0.0728
 1567TIP3    H2 4708   4.088   2.695   3.684 -0.5507  1.6271  0.6958
 1568TIP3   OH2 4709   6.305   0.663   4.145 -0.0209  0.1441  0.4056
 1568TIP3    H1 4710   6.393   0.629   4.164 -0.7427 -0.4853  2.9126
 1568TIP3    H2 4711   6.299   0.743   4.196 -1.3002 -0.4477  1.2343
 1569TIP3   OH2 4712   1.364   0.418   3.658  0.0057  0.3723 -0.1134
 1569TIP3    H1 4713   1.415   0.354   3.708 -1.3896 -2.3164 -1.9105
 1569TIP3    H2 4714   1.420   0.442   3.584 -0.8696 -1.8660 -1.5774
 1570TIP3   OH2 4715   0.741   4.639   0.759  0.2638 -0.2047  0.6828
 1570TIP3    H1 4716   0.666   4.612   0.707 -0.7909 -0.7905  2.4517
 1570TIP3    H2 4717   0.808   4.661   0.694 -1.1254 -0.4978 -0.9137
 1571TIP3   OH2 4718   1.485   1.558   1.480  0.4507  0.6113  0.1508
 1571TIP3    H1 4719   1.433   1.620   1.532 -2.0190 -0.8831 -0.3823
 1571TIP3    H2 4720   1.455   1.472   1.509  2.1351 -0.3231 -0.7510
 1572TIP3   OH2 4721   3.616   5.107   3.261  0.2743  0.3570  0.3802
 1572TIP3    H1 4722   3.550   5.140   3.200 -0.5392 -0.5600  0.7338
 1572TIP3    H2 4723   3.693   5.091   3.206 -0.1695  0.3551 -0.2501
 1573TIP3   OH2 4724   2.313   1.795   1.346  0.0763 -0.6065 -0.0305
 1573TIP3    H1 4725   2.298   1.702   1.329 -2.1252 -0.2664 -0.1723
 1573TIP3    H2 4726   2.394   1.815   1.298  2.3834 -3.0575  2.4155
 1574TIP3   OH2 4727   4.514   5.816   3.874  0.0445  0.3405  0.5449
 1574TIP3    H1 4728   4.588   5.873   3.855  0.3871  0.4839  2.1394
 1574TIP3    H2 4729   4.527   5.740   3.818  0.8109  0.8401  0.0365
 1575TIP3   OH2 4730   1.056   3.233   1.872  0.5413  0.6247 -0.2183
 1575TIP3    H1 4731   1.118   3.286   1.921  0.8760  0.6704 -0.6859
 1575TIP3    H2 4732   0.974   3.240   1.921  0.8125  0.8531  0.2034
 1576TIP3   OH2 4733   0.637   1.580   0.012  0.2437 -0.5077  0.1587
 1576TIP3    H1 4734   0.560   1.634   0.025 -0.1933 -0.9650 -0.4719
 1576TIP3    H2 4735   0.711   1.641   0.019 -0.0551 -0.3221  2.3193
 1577TIP3   OH2 4736   5.272   3.518   0.935  0.2153 -0.0933 -0.3637
 1577TIP3    H1 4737   5.268   3.549   1.025 -0.3368  1.5225 -0.8939
 1577TIP3    H2 4738   5.195   3.462   0.925  0.5157 -0.6290  0.2785
 1578TIP3   OH2 4739   0.351   4.773   0.887  0.3986  0.5987  0.0554
 1578TIP3    H1 4740   0.369   4.851   0.939  2.1545  0.2203  0.0637
 1578TIP3    H2 4741   0.397   4.703   0.933 -1.8456 -0.6553  0.5241
 1579TIP3   OH2 4742   1.613   5.012   0.075  0.6795 -0.0369  0.4392
 1579TIP3    H1 4743   1.638   4.934   0.125  1.2086 -0.3168 -0.2356
 1579TIP3    H2 4744   1.519   5.000   0.057  1.5269 -2.9794 -3.6534
 1580TIP3   OH2 4745   5.180   2.060   2.959 -0.3832 -0.0339  0.4683
 1580TIP3    H1 4746   5.210   2.027   3.044  0.2036 -2.3860 -0.5863
 1580TIP3    H2 4747   5.141   2.145   2.980 -1.2420 -0.9899  3.2420
 1581TIP3   OH2 4748   4.965   1.509   1.840  0.1305  0.7068  0.0395
 1581TIP3    H1 4749   5.037   1.449   1.857  0.1292  1.1769  1.8586
 1581TIP3    H2 4750   4.887   1.454   1.843  0.1758  0.6802  1.1612
 1582TIP3   OH2 4751   0.035   4.534   2.506 -0.2974 -0.2761  0.0774
 1582TIP3    H1 4752   0.075   4.542   2.419  1.8705 -1.3821  0.8986
 1582TIP3    H2 4753   0.106   4.557   2.566 -1.4073 -0.7152  1.5904
 1583TIP3   OH2 4754   1.088   0.896   0.163 -0.5078  0.4845  0.2287
 1583TIP3    H1 4755   1.020   0.958   0.188 -0.6397 -0.1386  1.4846
 1583TIP3    H2 4756   1.065   0.869   0.074 -0.4315  2.2239 -0.3479
 1584TIP3   OH2 4757   5.566   5.083   1.693  0.1607  0.0409 -0.7861
 1584TIP3    H1 4758   5.647   5.082   1.744 -0.9868 -1.2033  1.1322
 1584TIP3    H2 4759   5.565   4.998   1.649  1.0486  1.0308 -2.8759
 1585TIP3   OH2 4760   5.025   2.637   3.192 -0.0960 -0.5189 -0.0817
 1585TIP3    H1 4761   5.052   2.588   3.270  1.0232 -0.3997 -0.3850
 1585TIP3    H2 4762   5.044   2.728   3.213 -3.0072  0.0016  0.8419
 1586TIP3   OH2 4763   2.725   2.502   1.500  0.1243  0.1850 -0.0225
 1586TIP3    H1 4764   2.774   2.421   1.489 -0.2562 -0.0156 -0.2780
 1586TIP3    H2 4765   2.705   2.506   1.593 -0.5409 -0.4277 -0.1298
 1587TIP3   OH2 4766   0.679   2.981   1.896  0.0761  0.2202 -0.3594
 1587TIP3    H1 4767   0.654   3.072   1.880  1.4093  0.8944  1.0639
 1587TIP3    H2 4768   0.765   2.972   1.855  1.4679  0.6577  2.2179
 1588TIP3   OH2 4769   5.446   5.434   4.996  0.4833 -0.1206 -0.5356
 1588TIP3    H1 4770   5.541   5.443   4.983  0.5665  1.2353  0.7991
 1588TIP3    H2 4771   5.436   5.349   5.038  1.1703  0.0086 -0.0944
 1589TIP3   OH2 4772   3.475   4.542   3.166  0.4741  0.3626  0.2341
 1589TIP3    H1 4773   3.490   4.507   3.254  0.1593  2.3224  1.1337
 1589TIP3    H2 4774   3.559   4.532   3.122  0.3150 -1.7355  0.3066
 1590TIP3   OH2 4775   4.092   5.834   5.181  0.2874  0.3206 -0.1199
 1590TIP3    H1 4776   4.120   5.917   5.141  1.5682  1.0419  2.0244
 1590TIP3    H2 4777   4.161   5.772   5.157 -1.3280 -0.5576 -2.8071
 1591TIP3   OH2 4778   0.675   2.412   2.472 -0.1139 -0.5275  0.4432
 1591TIP3    H1 4779   0.770   2.404   2.464 -0.2808 -0.5675 -4.3542
 1591TIP3    H2 4780   0.643   2.322   2.469 -0.2957 -0.4491 -1.0851
 1592TIP3   OH2 4781   3.285   2.191   3.332  0.2202 -0.6470 -0.2856
 1592TIP3    H1 4782   3.201   2.167   3.292 -0.5488  2.8659 -1.1027
 1592TIP3    H2 4783   3.340   2.216   3.258  1.0664 -0.3237  0.4451
 1593TIP3   OH2 4784   1.213   3.934   1.096 -0.5544  0.1898  0.2288
 1593TIP3    H1 4785   1.188   4.012   1.046 -1.1129 -0.2227 -0.1615
 1593TIP3    H2 4786   1.133   3.881   1.098  0.1438 -0.9321 -0.5731
 1594TIP3   OH2 4787   1.382   5.527   4.754 -0.1197 -0.4071 -0.5095
 1594TIP3    H1 4788   1.407   5.604   4.806  1.6059 -0.6776 -0.8617
 1594TIP3    H2 4789   1.453   5.518   4.690 -1.3003 -1.1332 -1.7633
 1595TIP3   OH2 4790   3.132   5.337   2.966  0.0329  0.5260 -0.0031
 1595TIP3    H1 4791   3.209   5.366   3.015  0.4659 -0.0150 -0.3390
 1595TIP3    H2 4792   3.167   5.273   2.903 -0.5946  0.7567 -0.5987
 1596TIP3   OH2 4793   1.233   2.184   4.564 -0.4215  0.7096 -0.2136
 1596TIP3    H1 4794   1.141   2.201   4.584 -0.4269 -0.6927  1.1251
 1596TIP3    H2 4795   1.265   2.134   4.639  0.9705 -0.3357 -1.4560
 1597TIP3   OH2 4796   3.137   5.074   1.277 -0.5238 -0.4434  0.0237
 1597TIP3    H1 4797   3.162   4.983   1.260 -0.2802 -0.3898  0.0981
 1597TIP3    H2 4798   3.207   5.126   1.238 -0.0493 -0.3142  1.0236
 1598TIP3   OH2 4799   6.212   4.525   0.835 -0.2444  0.0482 -0.0902
 1598TIP3    H1 4800   6.233   4.446   0.786 -0.5436  0.0560 -0.2363
 1598TIP3    H2 4801   6.214   4.498   0.926 -0.9570 -0.2821 -0.1663
 1599TIP3   OH2 4802   1.998   0.982   0.985 -0.2931 -0.5814  0.4220
 1599TIP3    H1 4803   2.048   0.907   0.954 -1.4858 -1.9496  1.6166
 1599TIP3    H2 4804   1.951   1.014   0.908  1.4776  0.0048 -0.4535
 1600TIP3   OH2 4805   4.653   3.753   2.080 -0.1738 -0.0635  0.8397
 1600TIP3    H1 4806   4.669   3.840   2.118 -0.4369  0.6281 -0.5645
 1600TIP3    H2 4807   4.597   3.709   2.144  1.9555 -0.1523  2.7583
 1601TIP3   OH2 4808   2.943   1.862   1.865 -0.3077  0.5516  0.3051
 1601TIP3    H1 4809   2.955   1.821   1.950  1.3866 -0.9055 -0.5884
 1601TIP3    H2 4810   3.013   1.827   1.810 -1.9200  0.6428 -1.9986
 1602TIP3   OH2 4811   4.624   4.006   3.492  0.2222  0.3311  0.7891
 1602TIP3    H1 4812   4.694   4.069   3.475 -0.3620  0.3590 -1.8819
 1602TIP3    H2 4813   4.668   3.921   3.487  0.2549  0.3820  0.2273
 1603TIP3   OH2 4814   4.780   4.188   3.380  0.0079  0.2557  0.2833
 1603TIP3    H1 4815   4.781   4.143   3.296 -1.1546 -0.1230  0.4610
 1603TIP3    H2 4816   4.873   4.197   3.403  0.3106 -0.3984 -0.6255
 1604TIP3   OH2 4817   4.088   3.028   2.791 -0.4092  0.0037 -0.1117
 1604TIP3    H1 4818   4.111   2.995   2.878 -0.2196  2.1987  0.7489
 1604TIP3    H2 4819   4.161   3.085   2.768 -0.8361  0.0631 -1.3733
 1605TIP3   OH2 4820   4.919   5.379   2.032 -0.6228  0.3291 -0.3631
 1605TIP3    H1 4821   4.887   5.351   1.946  1.0161  2.2190 -1.6874
 1605TIP3    H2 4822   5.006   5.340   2.039 -0.7053  0.2728  0.3896
 1606TIP3   OH2 4823   2.578   3.172   3.846 -1.0275  0.3786 -0.0766
 1606TIP3    H1 4824   2.661   3.139   3.811 -1.7163 -1.2250 -0.3232
 1606TIP3    H2 4825   2.600   3.256   3.885  0.6701  0.0952 -0.3227
 1607TIP3   OH2 4826   3.117   1.128   1.834 -0.3901  0.4176  0.2600
 1607TIP3    H1 4827   3.194   1.177   1.866  0.4722 -0.5937 -0.2197
 1607TIP3    H2 4828   3.137   1.037   1.854 -1.2922  0.1039 -0.2457
 1608TIP3   OH2 4829   2.599   0.517   2.088 -0.0401  0.1440 -0.3793
 1608TIP3    H1 4830   2.651   0.598   2.097 -0.4544  0.4313 -0.5665
 1608TIP3    H2 4831   2.527   0.529   2.150 -0.1345 -0.0607 -0.4515
 1609TIP3   OH2 4832   3.726   0.440   4.124 -0.3620  0.0472  0.6815
 1609TIP3    H1 4833   3.782   0.383   4.177 -0.0910 -1.5650 -1.2301
 1609TIP3    H2 4834   3.775   0.522   4.119  1.0389 -0.7618  0.4819
 1610TIP3   OH2 4835   0.129   5.609   4.112 -0.7233  1.0919  0.3443
 1610TIP3    H1 4836   0.035   5.626   4.105 -0.5714  1.7164 -0.4951
 1610TIP3    H2 4837   0.168   5.696   4.125 -0.1841  0.9906 -0.4788
 1611TIP3   OH2 4838   0.722   1.351   4.086  0.1473 -0.1603  0.2778
 1611TIP3    H1 4839   0.714   1.380   3.995  0.1686 -0.6222  0.1232
 1611TIP3    H2 4840   0.777   1.417   4.128  0.4646 -0.1514 -0.1445
 1612TIP3   OH2 4841   4.141   1.152   0.848 -0.0983 -0.0897  0.4110
 1612TIP3    H1 4842   4.095   1.211   0.907 -0.8411  0.4850 -0.7015
 1612TIP3    H2 4843   4.196   1.209   0.794 -0.1722 -0.4911 -0.1027
 1613TIP3   OH2 4844   1.503   1.621   3.593 -0.1267 -0.1913  0.2866
 1613TIP3    H1 4845   1.436   1.555   3.577 -0.5873 -0.0829  1.6103
 1613TIP3    H2 4846   1.536   1.601   3.681 -2.1071  2.8128  1.8806
 1614TIP3   OH2 4847   2.365   2.502   0.860 -0.9774 -0.3065 -0.5395
 1614TIP3    H1 4848   2.441   2.450   0.888  0.2181  1.7055  0.1261
 1614TIP3    H2 4849   2.320   2.524   0.941  0.2405  2.1634 -0.4505
 1615TIP3   OH2 4850   2.480   2.629   3.306  0.0757  0.0583  0.6903
 1615TIP3    H1 4851   2.503   2.616   3.214  1.1548 -0.0149  0.9624
 1615TIP3    H2 4852   2.446   2.719   3.309  1.5553  0.6615  0.4806
 1616TIP3   OH2 4853   0.643   4.110   0.279  0.1156  0.0312  1.1655
 1616TIP3    H1 4854   0.558   4.153   0.286 -0.4664 -0.9998  0.6743
 1616TIP3    H2 4855   0.623   4.016   0.278  1.1529 -0.2083 -0.2545
 1617TIP3   OH2 4856   0.110   3.449   3.725  0.1074  0.3541 -0.1744
 1617TIP3    H1 4857   0.059   3.484   3.652 -1.2635  0.7266  0.8987
 1617TIP3    H2 4858   0.200   3.473   3.705 -0.1957  0.1951 -1.8624
 1618TIP3   OH2 4859   6.296   0.410   4.027  0.0382 -0.0646  0.1846
 1618TIP3    H1 4860   6.370   0.396   4.085  1.4258  0.3984 -1.3698
 1618TIP3    H2 4861   6.280   0.505   4.031 -0.9543 -0.2452  1.0247
 1619TIP3   OH2 4862   0.930   3.944   2.001 -0.1376  0.9694  0.4213
 1619TIP3    H1 4863   0.994   3.964   1.932 -0.5577  2.7095  0.4961
 1619TIP3    H2 4864   0.921   3.848   1.998  0.6484  0.9053 -1.2134
 1620TIP3   OH2 4865   2.866   2.627  -0.010 -0.4781  0.9505 -0.6522
 1620TIP3    H1 4866   2.807   2.623   0.064 -0.8539 -0.7654 -1.0129
 1620TIP3    H2 4867   2.880   2.721  -0.024 -2.0953  1.3629  0.2287
 1621TIP3   OH2 4868   5.007   2.614   4.368  0.2206 -0.2002 -0.2151
 1621TIP3    H1 4869   5.059   2.629   4.290  1.1422  1.4239  0.6473
 1621TIP3    H2 4870   4.954   2.537   4.348  1.1190 -0.3832 -2.0574
 1622TIP3   OH2 4871   2.583   2.433   2.124  0.2007  0.2034 -0.0410
 1622TIP3    H1 4872   2.616   2.414   2.212 -1.3488  1.7747  0.9485
 1622TIP3    H2 4873   2.627   2.515   2.099 -1.1413  1.0675  0.3271
 1623TIP3   OH2 4874   2.511   3.416   1.301  0.3010 -0.2086  0.5188
 1623TIP3    H1 4875   2.559   3.499   1.309 -0.8668  0.4193  1.3302
 1623TIP3    H2 4876   2.565   3.353   1.348  0.7774  0.2808  0.6452
 1624TIP3   OH2 4877   5.438   3.703   4.487  0.3753 -0.0842  0.1456
 1624TIP3    H1 4878   5.411   3.715   4.578 -3.2030 -1.5268 -0.5741
 1624TIP3    H2 4879   5.490   3.780   4.467 -0.9691  1.5939  2.6502
 1625TIP3   OH2 4880   0.967   3.295   2.816 -0.0732 -0.3731 -0.5076
 1625TIP3    H1 4881   0.992   3.371   2.764  1.0990  0.9680  1.8420
 1625TIP3    H2 4882   1.050   3.252   2.837 -0.5035 -0.9263  0.1252
 1626TIP3   OH2 4883   1.955   4.825   0.874  0.0734 -0.4889  0.0883
 1626TIP3    H1 4884   1.992   4.739   0.893 -0.2062 -1.0365 -1.6528
 1626TIP3    H2 4885   1.861   4.809   0.865 -0.1160  0.1967  0.6803
 1627TIP3   OH2 4886   6.258   0.257   1.141 -0.1014 -0.4653  0.0764
 1627TIP3    H1 4887   6.182   0.207   1.173  0.7585 -0.7798  1.7315
 1627TIP3    H2 4888   6.237   0.348   1.162 -0.1477 -0.5174  0.2587
 1628TIP3   OH2 4889   0.497   4.601   2.018 -0.3563 -0.2866  0.1014
 1628TIP3    H1 4890   0.577   4.573   1.973 -0.1611  1.8783 -1.0026
 1628TIP3    H2 4891   0.443   4.522   2.023  0.8562 -1.2408 -1.2866
 1629TIP3   OH2 4892   2.692   0.174   2.700 -0.2453 -0.5835  0.0761
 1629TIP3    H1 4893   2.691   0.174   2.795 -0.0834 -2.8318  0.1282
 1629TIP3    H2 4894   2.601   0.190   2.675 -0.1841  0.6417  0.5565
 1630TIP3   OH2 4895   3.196   4.640   1.564  0.4514 -0.4189  0.0385
 1630TIP3    H1 4896   3.256   4.628   1.490 -1.6954 -0.8225 -1.7208
 1630TIP3    H2 4897   3.174   4.733   1.562  1.6481 -0.0632  1.2751
 1631TIP3   OH2 4898   1.053   4.278   1.738 -0.2070 -0.4069  0.0180
 1631TIP3    H1 4899   1.107   4.254   1.813 -1.6245  0.5003  1.3799
 1631TIP3    H2 4900   1.089   4.226   1.665  2.4454  0.1386  0.8349
 1632TIP3   OH2 4901   3.033   4.382   0.023 -0.2375  0.0580 -0.3226
 1632TIP3    H1 4902   2.993   4.327   0.091 -1.2583  0.2704 -0.7319
 1632TIP3    H2 4903   2.959   4.426  -0.019  0.4411  0.5148 -1.0701
 1633TIP3   OH2 4904   3.773   4.482   5.150  0.6452  0.2189  0.3553
 1633TIP3    H1 4905   3.851   4.525   5.115 -0.0264  0.9929 -0.2311
 1633TIP3    H2 4906   3.753   4.531   5.230  0.2457  0.6131  0.0218
 1634TIP3   OH2 4907   2.381   3.853   4.672  0.2117  0.0409  0.6767
 1634TIP3    H1 4908   2.339   3.929   4.633 -0.0373  0.5048  1.8095
 1634TIP3    H2 4909   2.310   3.791   4.689  0.6874 -1.6844 -2.7410
 1635TIP3   OH2 4910   3.885   4.921   3.596  0.1967  0.2287 -0.7754
 1635TIP3    H1 4911   3.961   4.929   3.539  0.8065  2.4465  0.2454
 1635TIP3    H2 4912   3.812   4.955   3.544  0.7652  2.3099 -0.2980
 1636TIP3   OH2 4913   2.136   2.439   4.124  0.2985  0.2140 -0.2832
 1636TIP3    H1 4914   2.132   2.533   4.109 -0.9811  0.2338  0.0710
 1636TIP3    H2 4915   2.218   2.411   4.083 -0.0203  1.2525 -1.6695
 1637TIP3   OH2 4916   2.204   5.967   4.989 -0.5092  0.3291  0.2257
 1637TIP3    H1 4917   2.256   5.893   5.020  1.4395  1.0236 -1.2090
 1637TIP3    H2 4918   2.269   6.035   4.969 -2.0282  1.4595 -1.0652
 1638TIP3   OH2 4919   6.005   2.532   2.351  0.1664 -0.3913  0.0590
 1638TIP3    H1 4920   6.079   2.476   2.375  0.0687 -1.1287 -1.3060
 1638TIP3    H2 4921   5.932   2.472   2.340 -0.5237  0.2732  0.8182
 1639TIP3   OH2 4922   0.262   2.853   3.580 -0.0311 -0.0695  0.1759
 1639TIP3    H1 4923   0.175   2.889   3.592 -0.3552 -0.6583 -0.3769
 1639TIP3    H2 4924   0.289   2.883   3.493  0.3902  0.2442  0.4074
 1640TIP3   OH2 4925   6.263   1.108   2.398  0.1198  0.7276  0.2874
 1640TIP3    H1 4926   6.172   1.093   2.424 -1.0466  3.1387 -1.8540
 1640TIP3    H2 4927   6.275   1.055   2.319  0.8860 -0.2133  1.0142
 1641TIP3   OH2 4928   2.979   3.593   3.668 -0.6438 -0.5229  0.1967
 1641TIP3    H1 4929   2.932   3.672   3.694 -0.5494 -1.2476  2.9825
 1641TIP3    H2 4930   2.952   3.528   3.733  0.7331 -2.2391 -0.8745
 1642TIP3   OH2 4931   2.449   5.694   3.045 -0.0336  0.0398  0.4202
 1642TIP3    H1 4932   2.404   5.611   3.061  0.9204 -0.6157 -0.2110
 1642TIP3    H2 4933   2.542   5.671   3.044  0.2633  1.1840  0.6013
 1643TIP3   OH2 4934   1.047   3.739   2.200 -0.0445  0.6347  0.2412
 1643TIP3    H1 4935   1.021   3.653   2.234 -1.7267  0.6169 -0.9683
 1643TIP3    H2 4936   1.006   3.802   2.259 -0.4407  0.5969  0.0110
 1644TIP3   OH2 4937   0.812   1.162   4.740  0.0235 -0.2498 -0.8585
 1644TIP3    H1 4938   0.721   1.132   4.731  0.7213 -2.5874 -0.7517
 1644TIP3    H2 4939   0.857   1.126   4.664  1.3474 -1.2477  0.3509
 1645TIP3   OH2 4940   2.876   4.796   0.453  0.7763 -0.1449 -0.3730
 1645TIP3    H1 4941   2.952   4.791   0.510  0.7710  0.1799 -0.3375
 1645TIP3    H2 4942   2.909   4.834   0.372  0.9330 -1.2477 -0.8493
 1646TIP3   OH2 4943   4.722   1.266   2.132 -0.0507  1.4254 -0.4654
 1646TIP3    H1 4944   4.649   1.311   2.088 -0.9616  1.9449  1.4784
 1646TIP3    H2 4945   4.685   1.237   2.215  1.0087 -1.4760 -0.9151
 1647TIP3   OH2 4946  -0.002   1.433   2.658 -0.5441  0.4875  0.2751
 1647TIP3    H1 4947   0.059   1.494   2.699  0.1928 -0.4404  0.5998
 1647TIP3    H2 4948   0.019   1.438   2.565 -1.8301  2.1691  0.0268
 1648TIP3   OH2 4949   2.899   4.493   1.841  0.2209 -0.4653  0.7760
 1648TIP3    H1 4950   2.889   4.471   1.749 -0.2869 -1.8231  1.1326
 1648TIP3    H2 4951   2.812   4.523   1.868  0.0196 -1.3236  1.1144
 1649TIP3   OH2 4952   2.540   0.944   4.799  0.5668  0.4855 -0.2287
 1649TIP3    H1 4953   2.547   0.931   4.893 -1.8074 -0.8680 -0.1699
 1649TIP3    H2 4954   2.529   1.039   4.788 -2.6654  0.3898  1.2152
 1650TIP3   OH2 4955   2.173   1.858   4.092  0.5046  0.1273  0.2230
 1650TIP3    H1 4956   2.112   1.904   4.035 -1.1066 -0.8344  1.0980
 1650TIP3    H2 4957   2.243   1.922   4.110 -0.1458  1.2010 -0.9338
 1651TIP3   OH2 4958   2.038   2.013   1.936  0.4955  0.0348  0.5940
 1651TIP3    H1 4959   2.026   2.105   1.912 -4.3369 -0.9752 -2.0841
 1651TIP3    H2 4960   2.100   1.980   1.871  3.8898  1.5545  2.7754
 1652TIP3   OH2 4961   1.122   4.420   0.976  0.5112  0.0792  0.0120
 1652TIP3    H1 4962   1.182   4.363   0.927  1.2053  2.0720 -1.6165
 1652TIP3    H2 4963   1.140   4.508   0.942 -1.0528  1.1821  1.8609
 1653TIP3   OH2 4964   0.766   3.288   3.017 -0.0895 -0.0438 -0.0171
 1653TIP3    H1 4965   0.726   3.373   3.029 -0.9438 -0.3539 -0.5514
 1653TIP3    H2 4966   0.822   3.298   2.940 -0.3178 -0.0091 -0.1777
 1654TIP3   OH2 4967   1.043   2.135   0.555  0.5503  0.1781 -0.3458
 1654TIP3    H1 4968   1.108   2.190   0.599 -0.1577  1.2448 -0.5906
 1654TIP3    H2 4969   0.962   2.148   0.605  0.2690 -0.3240 -0.6572
 1655TIP3   OH2 4970   5.186   4.146   2.166  0.2714  0.8633  0.0341
 1655TIP3    H1 4971   5.193   4.241   2.177 -1.8075  0.8485  2.5066
 1655TIP3    H2 4972   5.239   4.110   2.236 -0.8956  0.2922  0.6496
 1656TIP3   OH2 4973   5.173   5.574   1.743 -0.2879 -0.0626 -0.6291
 1656TIP3    H1 4974   5.215   5.587   1.658  1.7944 -0.0198  0.3530
 1656TIP3    H2 4975   5.225   5.506   1.786 -1.3108 -0.1047  0.6315
 1657TIP3   OH2 4976   1.877   2.327   3.302 -0.3114 -0.5979  0.1173
 1657TIP3    H1 4977   1.834   2.247   3.335 -0.0130 -0.1809  1.5867
 1657TIP3    H2 4978   1.886   2.383   3.379 -0.4889  0.8626 -0.8894
 1658TIP3   OH2 4979   5.639   3.549   4.146  0.0245  0.0836 -0.1574
 1658TIP3    H1 4980   5.553   3.546   4.190 -1.5485 -0.7560 -3.0375
 1658TIP3    H2 4981   5.619   3.530   4.054  2.9459  2.7869 -1.5184
 1659TIP3   OH2 4982   4.811   5.310   2.296 -0.7768 -0.0807  0.7535
 1659TIP3    H1 4983   4.806   5.360   2.215 -0.0097  0.3325  0.9618
 1659TIP3    H2 4984   4.721   5.310   2.330 -0.6199  1.9981  1.2684
 1660TIP3   OH2 4985   0.532   5.642   2.643  0.8980 -0.3622  0.5342
 1660TIP3    H1 4986   0.563   5.718   2.593 -2.2908  1.3468  0.8691
 1660TIP3    H2 4987   0.578   5.647   2.726  1.6168  0.4761  0.1088
 1661TIP3   OH2 4988   2.787   0.778   4.724 -0.3582 -0.5787  0.2943
 1661TIP3    H1 4989   2.780   0.764   4.818 -2.1118  0.8176  0.4240
 1661TIP3    H2 4990   2.723   0.846   4.704  1.7920  1.1048 -1.5280
 1662TIP3   OH2 4991   3.505   5.478   1.587 -0.8665  0.5136  0.0098
 1662TIP3    H1 4992   3.565   5.438   1.650 -0.5641  0.4276 -0.3320
 1662TIP3    H2 4993   3.536   5.449   1.502 -0.7718  1.2948 -0.2359
 1663TIP3   OH2 4994   5.256   5.979   0.367 -0.2841  0.2648  0.0162
 1663TIP3    H1 4995   5.194   5.981   0.440 -3.0946  1.8762 -2.1720
 1663TIP3    H2 4996   5.291   5.890   0.368 -0.6560  0.0462  2.8984
 1664TIP3   OH2 4997   5.916   1.343   3.017 -0.1421 -0.4661 -0.2889
 1664TIP3    H1 4998   5.851   1.392   2.966 -0.1783 -1.2834 -1.0682
 1664TIP3    H2 4999   5.875   1.331   3.103 -0.6376 -0.1777 -0.4800
 1665TIP3   OH2 5000   3.713   3.604   3.177  0.5645 -0.0924  0.1287
 1665TIP3    H1 5001   3.714   3.610   3.081 -1.3508 -0.5925  0.0336
 1665TIP3    H2 5002   3.806   3.602   3.202  1.1047  0.5171 -1.6694
 1666TIP3   OH2 5003   2.216   1.502   1.641 -0.1394  0.0927 -0.2105
 1666TIP3    H1 5004   2.153   1.512   1.713  0.1921  1.0917 -0.0563
 1666TIP3    H2 5005   2.162   1.503   1.562 -0.4520 -0.4938 -0.0156
 1667TIP3   OH2 5006   1.290   2.748   2.784  0.1406 -0.0874  0.3573
 1667TIP3    H1 5007   1.235   2.738   2.863 -0.7256  1.0020 -0.0818
 1667TIP3    H2 5008   1.355   2.814   2.808  0.7870 -0.8008  0.6139
 1668TIP3   OH2 5009   1.501   1.074   2.169  0.2868 -0.2542  0.1761
 1668TIP3    H1 5010   1.419   1.044   2.207 -0.3956  0.9203 -0.3088
 1668TIP3    H2 5011   1.563   1.076   2.242 -0.9010  1.6093  1.1932
 1669TIP3   OH2 5012   1.965   3.357   4.625 -0.0761 -0.0229 -0.3239
 1669TIP3    H1 5013   1.911   3.387   4.552 -3.2484 -1.0167  1.4113
 1669TIP3    H2 5014   1.975   3.434   4.681  0.4434  0.1908 -0.7027
 1670TIP3   OH2 5015   5.362   3.883   3.699  0.2779  0.7028  0.1242
 1670TIP3    H1 5016   5.286   3.939   3.682 -0.2707 -0.1197 -0.1605
 1670TIP3    H2 5017   5.393   3.910   3.785 -0.3799  0.9936  0.2746
 1671TIP3   OH2 5018   3.305   2.103   1.143  0.4811 -0.2652 -0.0040
 1671TIP3    H1 5019   3.219   2.086   1.181  0.0660  0.8449 -0.3809
 1671TIP3    H2 5020   3.339   2.177   1.193  0.9320 -0.2812 -0.2830
 1672TIP3   OH2 5021   4.129   0.416   1.734  0.6545 -0.0855 -0.2676
 1672TIP3    H1 5022   4.092   0.497   1.770  0.5227  0.1246 -0.8631
 1672TIP3    H2 5023   4.110   0.350   1.800 -1.1986 -0.0854 -0.7435
 1673TIP3   OH2 5024   6.059   3.016   1.088  0.1253 -0.4774  0.1302
 1673TIP3    H1 5025   6.073   2.923   1.106  1.5427 -0.2531  0.3319
 1673TIP3    H2 5026   6.125   3.061   1.140 -0.3626  0.6314 -0.1731
 1674TIP3   OH2 5027   1.985   1.925   3.512 -0.0575  0.2446 -0.2270
 1674TIP3    H1 5028   2.012   1.834   3.524  1.1255  0.2764 -2.2894
 1674TIP3    H2 5029   1.930   1.924   3.434  1.2563  1.4911 -1.2231
 1675TIP3   OH2 5030   0.566   5.264   2.164  0.4466  0.6923 -0.2052
 1675TIP3    H1 5031   0.612   5.345   2.186 -0.6337  1.4433 -0.6030
 1675TIP3    H2 5032   0.629   5.194   2.183  0.9098  1.5272  1.5282
 1676TIP3   OH2 5033   2.733   4.146   2.071  0.5912 -0.1817  0.5656
 1676TIP3    H1 5034   2.812   4.196   2.052 -0.5756  2.4051  1.9057
 1676TIP3    H2 5035   2.674   4.165   1.998  0.5536 -0.5839  0.4884
 1677TIP3   OH2 5036   3.469   4.067   0.295 -0.4156 -0.0579  0.1864
 1677TIP3    H1 5037   3.480   4.111   0.379 -1.2504 -2.3741  1.6179
 1677TIP3    H2 5038   3.396   4.113   0.252 -0.6164  0.5619  1.1739
 1678TIP3   OH2 5039   2.640   3.095   4.138 -0.0608 -0.2950  0.3660
 1678TIP3    H1 5040   2.716   3.065   4.089  1.1286  1.5317  0.9890
 1678TIP3    H2 5041   2.647   3.051   4.223  0.3271 -0.1008  0.4365
 1679TIP3   OH2 5042   2.428   0.763   1.444 -0.3806 -0.3903 -0.1183
 1679TIP3    H1 5043   2.401   0.853   1.428  1.5872 -0.0145 -1.7032
 1679TIP3    H2 5044   2.463   0.764   1.533 -0.4510  0.3870 -0.0960
 1680TIP3   OH2 5045   2.529   2.520   0.107  0.3761 -0.1692  0.4868
 1680TIP3    H1 5046   2.517   2.450   0.171 -0.0836 -1.8799 -1.3727
 1680TIP3    H2 5047   2.582   2.585   0.153 -0.9629 -0.7080  3.0041
 1681TIP3   OH2 5048   0.854   5.538   2.890 -0.1568 -0.8021 -0.1754
 1681TIP3    H1 5049   0.761   5.545   2.911  0.3593  3.8239  1.5458
 1681TIP3    H2 5050   0.899   5.579   2.964  3.1507 -1.0831 -1.8415
 1682TIP3   OH2 5051   3.299   2.016   2.145 -0.0225 -0.3693 -0.1423
 1682TIP3    H1 5052   3.216   2.021   2.192 -0.0001  1.7854 -0.2233
 1682TIP3    H2 5053   3.366   2.013   2.214 -0.1219 -0.7980 -0.0655
 1683TIP3   OH2 5054   1.830   3.631   1.011  0.2071 -0.4189  0.3533
 1683TIP3    H1 5055   1.885   3.710   1.017 -0.1828 -0.1255  0.0511
 1683TIP3    H2 5056   1.772   3.647   0.937 -1.2558 -0.1096  1.5188
 1684TIP3   OH2 5057   2.994   2.053   4.706  0.1324  0.4534  0.2460
 1684TIP3    H1 5058   3.072   2.002   4.730  0.0676  0.0968 -0.2604
 1684TIP3    H2 5059   3.025   2.112   4.637  0.0395  0.5853  0.3165
 1685TIP3   OH2 5060   0.393   2.062   4.241 -0.0313 -0.3558  0.0827
 1685TIP3    H1 5061   0.464   2.116   4.207 -0.9904  0.3240 -0.8935
 1685TIP3    H2 5062   0.361   2.014   4.164 -0.6084 -0.6890  0.5250
 1686TIP3   OH2 5063   2.894   3.718   5.120 -0.1823 -0.4656 -0.0780
 1686TIP3    H1 5064   2.950   3.649   5.157 -0.0600 -0.6773 -0.6531
 1686TIP3    H2 5065   2.821   3.671   5.080 -0.0244 -0.2719 -0.5992
 1687TIP3   OH2 5066   0.676   3.000   3.953  0.4265 -0.3094 -0.1268
 1687TIP3    H1 5067   0.640   2.961   3.874 -1.7513  0.2896  0.4937
 1687TIP3    H2 5068   0.746   3.058   3.922 -1.5401  1.2740 -1.8216
 1688TIP3   OH2 5069   2.324   5.710   4.242 -0.0235  0.0460  0.0583
 1688TIP3    H1 5070   2.307   5.710   4.148 -1.0419  0.1271  0.2302
 1688TIP3    H2 5071   2.271   5.638   4.276 -0.6141  0.7734  0.7187
 1689TIP3   OH2 5072   2.093   3.385   1.630 -0.7136  0.1603 -0.1105
 1689TIP3    H1 5073   2.111   3.416   1.541  0.8115 -0.6655 -0.1322
 1689TIP3    H2 5074   2.083   3.465   1.681 -2.2166  0.6515 -1.1111
 1690TIP3   OH2 5075   4.814   0.252   4.081  0.0186 -0.1317  0.2396
 1690TIP3    H1 5076   4.806   0.310   4.005  2.1882  0.3953  0.3266
 1690TIP3    H2 5077   4.828   0.165   4.043 -2.3634 -0.5126  0.1055
 1691TIP3   OH2 5078   4.354   1.867   3.817 -0.0371 -0.0053  0.1924
 1691TIP3    H1 5079   4.331   1.829   3.732  0.4991  0.8759 -0.3567
 1691TIP3    H2 5080   4.443   1.837   3.834  0.5172  1.2713 -0.4078
 1692TIP3   OH2 5081   2.970   1.773   2.161  0.0054 -0.0665 -0.6340
 1692TIP3    H1 5082   2.902   1.706   2.172  0.4736 -0.3054  1.1663
 1692TIP3    H2 5083   2.984   1.807   2.250  1.9169  0.2750 -1.0214
 1693TIP3   OH2 5084   1.899   3.387   4.984 -0.0536  0.1240  0.2495
 1693TIP3    H1 5085   1.869   3.399   5.074 -3.8458 -2.8845 -0.3222
 1693TIP3    H2 5086   1.926   3.295   4.980 -0.0778  0.1540 -1.6666
 1694TIP3   OH2 5087   2.553   5.168   1.084  0.1598 -0.3658  0.1279
 1694TIP3    H1 5088   2.570   5.254   1.047 -1.0018  0.1945  0.8489
 1694TIP3    H2 5089   2.571   5.177   1.177 -3.0478  0.0607  0.8106
 1695TIP3   OH2 5090   2.266   0.502   4.620  0.2973 -0.7340  0.0066
 1695TIP3    H1 5091   2.354   0.506   4.658  0.0121 -0.8183  0.7026
 1695TIP3    H2 5092   2.272   0.436   4.552  0.6582 -1.0803  0.3650
 1696TIP3   OH2 5093   3.613   0.875   3.522  0.1517  0.3003 -1.0000
 1696TIP3    H1 5094   3.661   0.796   3.545  1.7396  1.1534 -1.2187
 1696TIP3    H2 5095   3.645   0.899   3.435 -1.6161  0.2243 -1.7100
 1697TIP3   OH2 5096   0.219   3.808   0.542 -0.1986  0.5112  0.0301
 1697TIP3    H1 5097   0.215   3.864   0.464  0.3494  0.3725 -0.0968
 1697TIP3    H2 5098   0.284   3.741   0.521 -0.4892  0.1126  0.3737
 1698TIP3   OH2 5099   0.996   5.049   4.563  0.0754 -0.2595 -0.4281
 1698TIP3    H1 5100   0.906   5.017   4.565  0.2098 -0.6194  0.6714
 1698TIP3    H2 5101   1.001   5.111   4.636  1.0079 -1.0892  0.2446
 1699TIP3   OH2 5102   0.240   3.737   1.791  0.0523  0.2705  0.0191
 1699TIP3    H1 5103   0.256   3.831   1.780 -1.0634  0.4379 -0.3268
 1699TIP3    H2 5104   0.279   3.716   1.876 -0.1884  1.1823  0.3676
 1700TIP3   OH2 5105   2.768   1.254   3.832  0.1535 -0.2443 -0.4935
 1700TIP3    H1 5106   2.808   1.340   3.843 -1.8445  0.7728 -0.6691
 1700TIP3    H2 5107   2.773   1.237   3.738  0.1980 -0.1396 -0.5104
 1701TIP3   OH2 5108   2.674   5.631   4.382 -0.0802 -0.5547  0.5934
 1701TIP3    H1 5109   2.622   5.710   4.368  1.4667  0.5938  1.0755
 1701TIP3    H2 5110   2.611   5.559   4.373 -1.3976  0.6717 -0.5597
 1702TIP3   OH2 5111   1.277   0.082   1.748  0.4197  0.1482  0.6403
 1702TIP3    H1 5112   1.230   0.164   1.756  0.0455 -0.0587  0.5608
 1702TIP3    H2 5113   1.210   0.014   1.751  0.8547 -0.2525  2.3919
 1703TIP3   OH2 5114   4.368   1.694   3.567  0.0269  0.2867 -0.2531
 1703TIP3    H1 5115   4.337   1.615   3.612  0.3433  0.3681  0.0994
 1703TIP3    H2 5116   4.449   1.667   3.524 -1.1184 -0.2820 -2.2144
 1704TIP3   OH2 5117   2.382   5.985   0.059 -0.3250 -0.1932 -0.4839
 1704TIP3    H1 5118   2.455   5.989  -0.003 -0.2686  2.1813 -0.3504
 1704TIP3    H2 5119   2.320   5.925   0.018  0.2864  0.2964 -2.2312
 1705TIP3   OH2 5120   0.527   1.115   3.979  0.3524  0.2660 -0.2355
 1705TIP3    H1 5121   0.449   1.152   3.937 -0.1573 -1.9828 -1.4405
 1705TIP3    H2 5122   0.600   1.147   3.926  0.3275  2.4373  0.9363
 1706TIP3   OH2 5123   5.616   4.876   2.034  0.0501  0.4688  0.3474
 1706TIP3    H1 5124   5.633   4.928   1.956  0.8630 -0.9267 -0.4545
 1706TIP3    H2 5125   5.544   4.819   2.010 -0.2013  0.5518  0.8880
 1707TIP3   OH2 5126   4.692   0.402   4.432 -0.4479 -0.2302 -0.3023
 1707TIP3    H1 5127   4.647   0.332   4.385  1.8514 -1.7384 -0.4162
 1707TIP3    H2 5128   4.764   0.428   4.374  0.5367  0.0891  0.9967
 1708TIP3   OH2 5129   1.822   0.912   3.088 -0.9503 -0.2136  0.3322
 1708TIP3    H1 5130   1.734   0.898   3.054 -0.4713  0.8246 -1.5067
 1708TIP3    H2 5131   1.824   1.005   3.113  0.3674  0.5733 -2.3078
 1709TIP3   OH2 5132   0.019   0.462   2.801  0.2357 -0.2792 -0.0634
 1709TIP3    H1 5133  -0.068   0.502   2.801 -0.4551 -1.6435 -1.8950
 1709TIP3    H2 5134   0.062   0.496   2.722  1.2883  0.1925  0.6898
 1710TIP3   OH2 5135   0.137   0.961   2.480 -0.1220  0.3979 -0.1541
 1710TIP3    H1 5136   0.092   1.044   2.489  0.1163  0.4089  1.1182
 1710TIP3    H2 5137   0.175   0.963   2.392  1.2234  2.3163  0.4071
 1711TIP3   OH2 5138   0.730   0.964   4.078 -0.5421 -0.4020  0.1985
 1711TIP3    H1 5139   0.735   0.920   3.993 -0.4335 -2.4946  1.2136
 1711TIP3    H2 5140   0.656   1.024   4.070 -1.2448 -1.3767 -1.0380
 1712TIP3   OH2 5141   5.344   2.860   3.389  0.1520  0.0817 -0.1537
 1712TIP3    H1 5142   5.434   2.830   3.390 -0.2639 -1.3353 -1.1402
 1712TIP3    H2 5143   5.346   2.940   3.336  0.8272  0.0496 -0.1848
 1713TIP3   OH2 5144   3.195   0.728   4.227 -0.2319  0.0357  0.0545
 1713TIP3    H1 5145   3.117   0.744   4.280  0.8636  0.6731  1.5332
 1713TIP3    H2 5146   3.266   0.769   4.275  1.0171 -0.3968 -1.3350
 1714TIP3   OH2 5147   4.212   1.438   2.617  0.5032  0.0680 -0.2638
 1714TIP3    H1 5148   4.141   1.475   2.564  0.9569  1.9908  0.3737
 1714TIP3    H2 5149   4.169   1.372   2.672 -0.4223 -0.1593 -1.2301
 1715TIP3   OH2 5150   2.345   5.399   4.166  0.0343  0.1103 -0.2563
 1715TIP3    H1 5151   2.379   5.411   4.255  0.1053 -3.4755  0.3679
 1715TIP3    H2 5152   2.250   5.392   4.178  0.1534 -1.8947 -0.1452
 1716TIP3   OH2 5153   2.370   1.337   4.399  0.2010 -0.4266 -0.0235
 1716TIP3    H1 5154   2.352   1.252   4.440  0.8331 -0.5250  0.0577
 1716TIP3    H2 5155   2.285   1.382   4.398  0.0532 -0.6690  0.8429
 1717TIP3   OH2 5156   2.610   3.453   0.942  0.2771 -0.1036  0.2796
 1717TIP3    H1 5157   2.691   3.423   0.983 -0.4179 -0.4121  1.4990
 1717TIP3    H2 5158   2.584   3.529   0.993 -0.3957 -0.2355  0.1527
 1718TIP3   OH2 5159   1.108   5.874   3.007  0.5626 -0.4536  0.0044
 1718TIP3    H1 5160   1.061   5.921   2.937  0.6525 -0.5860 -0.1458
 1718TIP3    H2 5161   1.104   5.933   3.082 -2.2517 -1.5752  0.8733
 1719TIP3   OH2 5162   1.024   0.029   5.133 -0.4071  0.2437  0.3680
 1719TIP3    H1 5163   1.063   0.114   5.155  0.0245  0.5228 -1.3389
 1719TIP3    H2 5164   0.933   0.035   5.162 -0.3539  1.2608  0.3478
 1720TIP3   OH2 5165   0.762   1.346   1.103 -0.3728  0.1094  0.3186
 1720TIP3    H1 5166   0.771   1.261   1.146 -2.5653  0.0853  0.8716
 1720TIP3    H2 5167   0.831   1.347   1.037 -1.0275 -2.6693 -0.5583
 1721TIP3   OH2 5168   0.846   3.109   4.598  0.2712 -0.0736  0.3892
 1721TIP3    H1 5169   0.803   3.171   4.658 -2.9773 -0.6027 -1.2056
 1721TIP3    H2 5170   0.852   3.156   4.515  0.4014 -0.9377 -0.1012
 1722TIP3   OH2 5171   1.793   3.333   3.633 -0.3044 -0.5065  0.1987
 1722TIP3    H1 5172   1.876   3.287   3.621 -0.0857 -0.6552  2.0461
 1722TIP3    H2 5173   1.818   3.415   3.678 -0.8905  0.6190 -1.4450
 1723TIP3   OH2 5174   0.108   4.439   0.604 -0.1416 -0.6631 -0.3805
 1723TIP3    H1 5175   0.039   4.487   0.557  0.7563  0.7004 -0.3643
 1723TIP3    H2 5176   0.172   4.418   0.537  0.7668  0.5940  0.0497
 1724TIP3   OH2 5177   4.443   5.208   0.429  0.0665  0.1720  0.1693
 1724TIP3    H1 5178   4.483   5.148   0.492 -1.3827 -0.3836  0.6064
 1724TIP3    H2 5179   4.497   5.287   0.432  2.1504 -1.1482 -0.5763
 1725TIP3   OH2 5180   0.105   3.731   0.843  0.5388 -0.1377  0.1867
 1725TIP3    H1 5181   0.181   3.743   0.787  0.2694  1.2349  0.0752
 1725TIP3    H2 5182   0.141   3.736   0.932  1.0035 -2.5749  0.1937
 1726TIP3   OH2 5183   6.162   1.870   5.074  0.5209  0.2697 -0.2262
 1726TIP3    H1 5184   6.189   1.949   5.028  1.7308  1.1760  1.8870
 1726TIP3    H2 5185   6.217   1.801   5.038  0.4961  0.6839 -1.0698
 1727TIP3   OH2 5186   1.834   1.353   4.404 -0.1405 -0.2455  0.0559
 1727TIP3    H1 5187   1.904   1.298   4.370 -0.7222 -0.9160 -0.0690
 1727TIP3    H2 5188   1.854   1.363   4.497 -1.1719 -2.4688  0.5721
 1728TIP3   OH2 5189   2.649   5.473   2.045 -0.6337 -0.1112 -0.2640
 1728TIP3    H1 5190   2.580   5.424   2.000 -0.6747 -0.4619  0.1807
 1728TIP3    H2 5191   2.621   5.476   2.137  0.0519 -0.4507 -0.0400
 1729TIP3   OH2 5192   1.693   1.537   0.794  0.5713 -0.8654  0.3886
 1729TIP3    H1 5193   1.786   1.545   0.816  0.5803 -0.1890  0.1198
 1729TIP3    H2 5194   1.652   1.610   0.841  0.2375 -0.9187  0.1784
 1730TIP3   OH2 5195   2.422   2.279   2.771 -0.3844  0.0454 -0.0969
 1730TIP3    H1 5196   2.415   2.184   2.772  0.1412  0.0058 -0.1373
 1730TIP3    H2 5197   2.449   2.301   2.682  2.6279 -0.0124  0.7036
 1731TIP3   OH2 5198   1.680   0.854   1.425  0.6974 -0.6270  0.2884
 1731TIP3    H1 5199   1.634   0.781   1.383 -1.8693  1.7317 -1.3442
 1731TIP3    H2 5200   1.648   0.853   1.515 -0.4115 -0.7313 -0.0820
 1732TIP3   OH2 5201   3.288   5.688   1.297 -0.6063 -0.2666 -0.2764
 1732TIP3    H1 5202   3.272   5.760   1.358 -1.9776 -0.8458  0.0667
 1732TIP3    H2 5203   3.356   5.721   1.239 -0.6687  1.0191  0.3530
 1733TIP3   OH2 5204   5.214   5.520   0.464 -0.3022  0.1483  0.3975
 1733TIP3    H1 5205   5.205   5.429   0.434 -1.3776 -0.1623  1.5741
 1733TIP3    H2 5206   5.133   5.562   0.434 -0.0923  0.5584  0.4116
 1734TIP3   OH2 5207   5.753   2.986   3.809 -0.4308  0.0471 -0.0071
 1734TIP3    H1 5208   5.735   3.069   3.855 -1.6559 -0.2165  0.0173
 1734TIP3    H2 5209   5.699   2.990   3.730  0.0241 -0.4383 -0.3476
 1735TIP3   OH2 5210   4.025   4.950   4.201 -0.1709  0.1597 -0.4702
 1735TIP3    H1 5211   4.091   4.882   4.188  0.8575  1.0456 -0.0427
 1735TIP3    H2 5212   3.948   4.903   4.235  0.8418 -0.6691  0.7394
 1736TIP3   OH2 5213   2.820   2.298   4.825  0.1146 -0.4614  0.3121
 1736TIP3    H1 5214   2.880   2.356   4.872 -0.6293  1.9502 -1.4883
 1736TIP3    H2 5215   2.736   2.308   4.871  0.1196 -0.5580  0.3427
 1737TIP3   OH2 5216   0.226   3.348   2.612  0.3910  0.4794 -0.0660
 1737TIP3    H1 5217   0.184   3.432   2.631 -1.0644 -0.0153 -0.9371
 1737TIP3    H2 5218   0.273   3.363   2.530  0.9068  0.6791  0.2568
 1738TIP3   OH2 5219   5.970   0.924   3.664 -0.1076  0.1361 -0.0542
 1738TIP3    H1 5220   5.998   1.015   3.673 -0.6730  0.2988  0.1011
 1738TIP3    H2 5221   5.887   0.920   3.711  0.5291 -0.7704  1.0406
 1739TIP3   OH2 5222   4.682   0.688   3.290  0.3361 -0.1830 -0.8512
 1739TIP3    H1 5223   4.747   0.714   3.225  2.6053 -0.4811  1.1833
 1739TIP3    H2 5224   4.692   0.594   3.298  0.4291 -0.0871  0.2598
 1740TIP3   OH2 5225   1.645   2.858   3.624 -0.1927  0.1430  0.5662
 1740TIP3    H1 5226   1.641   2.943   3.668 -0.8805 -0.3144  1.4348
 1740TIP3    H2 5227   1.724   2.816   3.659 -0.6907 -0.1841  1.3387
 1741TIP3   OH2 5228   2.922   0.290   0.245 -0.4447 -0.1974  0.2092
 1741TIP3    H1 5229   2.982   0.216   0.240 -1.8150 -1.2722 -1.1388
 1741TIP3    H2 5230   2.908   0.303   0.339  1.8575  0.1140  0.5711
 1742TIP3   OH2 5231   3.323   0.274   2.753  0.2478 -0.0255  0.7240
 1742TIP3    H1 5232   3.259   0.330   2.796  0.4584  0.3464  0.5624
 1742TIP3    H2 5233   3.406   0.321   2.764  0.2856  0.1390 -0.1967
 1743TIP3   OH2 5234   4.544   0.346   0.724 -0.5953  0.3119 -0.0618
 1743TIP3    H1 5235   4.603   0.272   0.739 -2.2613 -0.7503  1.9438
 1743TIP3    H2 5236   4.580   0.416   0.777 -0.7003 -0.0978  0.5670
 1744TIP3   OH2 5237   3.329   4.949   3.754  1.2792  0.6906 -0.4195
 1744TIP3    H1 5238   3.277   5.011   3.806  0.0054 -0.2466 -0.5212
 1744TIP3    H2 5239   3.313   4.975   3.663  1.1290  0.5231 -0.4427
 1745TIP3   OH2 5240   3.425   4.641   1.406  0.3872 -0.2765 -0.0759
 1745TIP3    H1 5241   3.433   4.694   1.327  0.9267 -0.1808  0.0393
 1745TIP3    H2 5242   3.505   4.590   1.409 -0.4919 -1.7349 -0.6303
 1746TIP3   OH2 5243   6.232   3.397   1.317 -0.0822 -0.1427 -0.1645
 1746TIP3    H1 5244   6.284   3.471   1.287 -1.7650  0.5571 -1.5249
 1746TIP3    H2 5245   6.251   3.390   1.411  1.5370  0.7925 -0.4011
 1747TIP3   OH2 5246   1.225   1.963   0.814  0.3533 -0.1086  0.6395
 1747TIP3    H1 5247   1.269   1.917   0.742  1.1059  0.9364  0.4180
 1747TIP3    H2 5248   1.143   1.915   0.825  0.9842 -1.3213  0.2240
 1748TIP3   OH2 5249   1.546   0.655   1.895  0.5719  0.5770  0.4721
 1748TIP3    H1 5250   1.511   0.570   1.920 -2.1400  1.8043  1.2208
 1748TIP3    H2 5251   1.554   0.703   1.977 -2.6144  2.5775 -0.1704
 1749TIP3   OH2 5252   3.523   1.653   0.257  0.2989  0.2665  0.2518
 1749TIP3    H1 5253   3.530   1.558   0.253  1.7395  0.3331  0.8856
 1749TIP3    H2 5254   3.607   1.683   0.291 -0.4628  1.7072  0.9942
 1750TIP3   OH2 5255   5.502   5.135   3.625  0.3408 -0.0890 -0.1090
 1750TIP3    H1 5256   5.407   5.137   3.632  0.3378  1.8860 -0.1569
 1750TIP3    H2 5257   5.519   5.095   3.539 -0.5537  1.5186 -1.0816
 1751TIP3   OH2 5258   5.799   0.921   1.550  0.1193 -0.0169  0.2070
 1751TIP3    H1 5259   5.780   1.015   1.557 -2.8127 -0.4416 -0.7351
 1751TIP3    H2 5260   5.844   0.913   1.466 -0.6602  0.4538 -0.2738
 1752TIP3   OH2 5261   3.785   0.165   4.976  0.6543 -0.1587 -0.2890
 1752TIP3    H1 5262   3.695   0.192   4.989 -0.1096 -0.3613 -3.9909
 1752TIP3    H2 5263   3.831   0.244   4.950  1.2857 -0.2879  0.3948
 1753TIP3   OH2 5264   3.392   5.365   3.102  0.2035 -0.1497 -0.1624
 1753TIP3    H1 5265   3.480   5.393   3.126  1.7337 -3.5800 -1.1958
 1753TIP3    H2 5266   3.406   5.300   3.033 -3.2167 -0.1744 -0.9872
 1754TIP3   OH2 5267   0.707   5.738   2.241 -0.3074  0.0975 -0.2249
 1754TIP3    H1 5268   0.644   5.667   2.234 -1.5628  1.2851 -1.3451
 1754TIP3    H2 5269   0.792   5.694   2.245 -1.1291 -1.5075  0.7491
 1755TIP3   OH2 5270   2.980   4.658   4.916  0.3091  0.5266  0.1405
 1755TIP3    H1 5271   3.052   4.681   4.976 -1.7081  0.7539  2.6631
 1755TIP3    H2 5272   2.992   4.717   4.841  2.5746  0.7348  0.5948
 1756TIP3   OH2 5273   3.065   2.539   0.284 -0.0479 -0.2642  0.0267
 1756TIP3    H1 5274   3.031   2.465   0.233 -2.8230 -1.0973  2.7512
 1756TIP3    H2 5275   3.123   2.499   0.349  0.2462  0.2480  0.0841
 1757TIP3   OH2 5276   4.084   3.693   3.529  0.5086  0.2315 -0.4714
 1757TIP3    H1 5277   4.170   3.684   3.489  0.5014  1.6709 -0.8748
 1757TIP3    H2 5278   4.030   3.734   3.462 -0.2622  0.1297  0.0690
 1758TIP3   OH2 5279   4.012   2.173   4.388  0.3103 -0.1908  0.3471
 1758TIP3    H1 5280   3.959   2.197   4.312 -0.7121 -0.6873  0.8757
 1758TIP3    H2 5281   4.077   2.112   4.353  1.3247  1.3389 -0.5278
 1759TIP3   OH2 5282   1.218   4.713   3.866 -0.0744  0.5547 -0.3534
 1759TIP3    H1 5283   1.173   4.767   3.801 -0.8407 -0.0774 -0.3556
 1759TIP3    H2 5284   1.148   4.661   3.907  0.5427  0.1633  0.2227
 1760TIP3   OH2 5285   1.397   0.787   0.075  0.3582 -0.7199 -0.1972
 1760TIP3    H1 5286   1.342   0.709   0.066 -0.6854  0.1465 -1.7000
 1760TIP3    H2 5287   1.387   0.834  -0.008 -0.5677  1.9842  1.3147
 1761TIP3   OH2 5288   1.610   3.507   2.593  0.1278  0.1285  0.2521
 1761TIP3    H1 5289   1.657   3.469   2.518 -0.7159  1.7822 -1.1874
 1761TIP3    H2 5290   1.667   3.576   2.625  0.6225 -0.7742  1.3763
 1762TIP3   OH2 5291   1.339   5.130   1.300 -0.2798 -0.4606 -1.0172
 1762TIP3    H1 5292   1.320   5.037   1.305 -0.3439 -0.3843  1.4940
 1762TIP3    H2 5293   1.273   5.171   1.356 -1.4033  1.3458 -3.4839
 1763TIP3   OH2 5294   2.667   5.956   2.529 -0.4002 -0.2171  0.4556
 1763TIP3    H1 5295   2.579   5.919   2.521 -1.7246  2.4537  1.3079
 1763TIP3    H2 5296   2.687   5.949   2.622  0.0471 -0.2637  0.3572
 1764TIP3   OH2 5297   5.595   5.952   1.172  0.3873  0.0104 -0.5469
 1764TIP3    H1 5298   5.553   5.867   1.161 -1.0722  0.3561  1.7371
 1764TIP3    H2 5299   5.623   5.977   1.084  0.6295 -2.6937 -1.3110
 1765TIP3   OH2 5300   3.380   3.856   0.453  0.1429  0.3404 -0.2240
 1765TIP3    H1 5301   3.408   3.907   0.377  2.3163 -1.1537 -0.5107
 1765TIP3    H2 5302   3.369   3.767   0.420  1.1886 -0.3509  1.1987
 1766TIP3   OH2 5303   2.473   1.736   3.671 -0.3091 -1.1306  0.1313
 1766TIP3    H1 5304   2.533   1.769   3.738 -0.5282 -0.9636  0.2482
 1766TIP3    H2 5305   2.483   1.641   3.675  1.3200 -1.0542 -1.1423
 1767TIP3   OH2 5306   3.997   0.868   4.690 -0.0289  0.2224  0.4694
 1767TIP3    H1 5307   3.950   0.939   4.646  0.5788  1.6452  1.9994
 1767TIP3    H2 5308   4.089   0.884   4.669  0.0013 -1.1929 -0.6191
 1768TIP3   OH2 5309   2.721   3.569   4.418 -0.1766 -0.4735  0.2255
 1768TIP3    H1 5310   2.747   3.621   4.342 -0.2885 -0.9976 -0.1841
 1768TIP3    H2 5311   2.760   3.483   4.403  2.0027  0.1048  2.0508
 1769TIP3   OH2 5312   2.033   5.196   1.494  0.3983  0.3887  0.1257
 1769TIP3    H1 5313   2.093   5.122   1.497  0.3450  0.3709  1.1571
 1769TIP3    H2 5314   1.946   5.157   1.507  0.2990  0.5664  0.0055
 1770TIP3   OH2 5315   1.854   4.111   2.309 -0.2166 -0.1296 -0.4247
 1770TIP3    H1 5316   1.795   4.102   2.234  0.7205 -0.4754 -1.1324
 1770TIP3    H2 5317   1.909   4.033   2.305 -0.9089 -0.7513  1.3098
 1771TIP3   OH2 5318   0.654   5.852   4.207 -0.1050 -0.5449  0.5875
 1771TIP3    H1 5319   0.560   5.850   4.222 -0.0437 -0.3796  1.0171
 1771TIP3    H2 5320   0.687   5.918   4.268  0.2392 -0.2982  0.1440
 1772TIP3   OH2 5321   4.455   3.195   0.576 -0.7488  0.3609  0.4728
 1772TIP3    H1 5322   4.397   3.244   0.635 -0.0079 -0.1663  1.6724
 1772TIP3    H2 5323   4.538   3.241   0.579 -0.1756 -0.6787  1.2567
 1773TIP3   OH2 5324   4.979   2.746   2.714  0.6080  0.7360  0.8289
 1773TIP3    H1 5325   4.944   2.680   2.655  0.3696  1.8036 -0.2744
 1773TIP3    H2 5326   5.057   2.779   2.669 -0.8531  3.2116 -0.1187
 1774TIP3   OH2 5327   0.510   2.118   2.905 -0.0447  0.0736 -0.3637
 1774TIP3    H1 5328   0.532   2.186   2.842 -0.6537 -0.2997 -0.9868
 1774TIP3    H2 5329   0.436   2.153   2.954  1.1686  0.8612  0.9733
 1775TIP3   OH2 5330   3.745   3.470   2.228  0.6762 -0.1006  0.2410
 1775TIP3    H1 5331   3.696   3.455   2.147  0.8780 -1.1639  0.3129
 1775TIP3    H2 5332   3.810   3.537   2.205  0.9797 -0.6661 -0.5749
 1776TIP3   OH2 5333   5.636   1.162   4.186 -0.2822 -0.2283 -0.0560
 1776TIP3    H1 5334   5.702   1.121   4.130 -0.9708  0.1988 -1.2452
 1776TIP3    H2 5335   5.652   1.127   4.273  0.4841 -1.3677 -0.6290
 1777TIP3   OH2 5336   1.123   1.641   3.450 -0.1185  0.4316  0.2079
 1777TIP3    H1 5337   1.191   1.702   3.478 -0.5008  0.8266  0.2802
 1777TIP3    H2 5338   1.166   1.556   3.451  0.2847  0.6359  0.5648
 1778TIP3   OH2 5339   3.777   2.346   4.686 -0.2421 -0.0543 -0.5534
 1778TIP3    H1 5340   3.734   2.308   4.609 -0.0243 -0.3490 -0.5299
 1778TIP3    H2 5341   3.809   2.431   4.656 -1.2360  0.3710 -0.4474
 1779TIP3   OH2 5342   4.072   4.457   1.150 -0.3223 -0.4002  0.7607
 1779TIP3    H1 5343   4.076   4.455   1.245 -0.4934  0.5806  0.8059
 1779TIP3    H2 5344   4.106   4.544   1.126 -1.6501 -0.0475  0.0271
 1780TIP3   OH2 5345   5.907   2.117   2.882  0.1727  0.2041  0.0949
 1780TIP3    H1 5346   5.939   2.187   2.940  0.3664 -0.0327  0.2761
 1780TIP3    H2 5347   5.986   2.070   2.856 -0.1411 -1.7517  2.2683
 1781TIP3   OH2 5348   2.753   1.896   1.624 -0.3318  0.3924 -0.7068
 1781TIP3    H1 5349   2.828   1.846   1.656  0.1151  0.0388 -2.2390
 1781TIP3    H2 5350   2.702   1.915   1.703  0.7254 -0.4157  0.2068
 1782TIP3   OH2 5351   5.977   0.499   0.355  0.1916  0.9528  0.0482
 1782TIP3    H1 5352   6.066   0.486   0.389  0.7610  1.0300 -1.3615
 1782TIP3    H2 5353   5.924   0.436   0.403  1.0794  0.6070  0.6095
 1783TIP3   OH2 5354   2.057   4.472   3.572 -0.2372 -0.2491 -0.3889
 1783TIP3    H1 5355   2.033   4.379   3.577  2.4129 -0.9233  2.8442
 1783TIP3    H2 5356   1.999   4.515   3.634  1.3128 -0.5343  1.3241
 1784TIP3   OH2 5357   5.165   1.715   0.478  0.3061  0.4830  0.6847
 1784TIP3    H1 5358   5.163   1.791   0.536  0.8132  1.4899 -0.5805
 1784TIP3    H2 5359   5.250   1.718   0.436 -0.5595  0.5716 -1.1336
 1785TIP3   OH2 5360   5.397   5.805   1.787 -1.0811 -0.0323  0.1676
 1785TIP3    H1 5361   5.314   5.828   1.744  0.7658  1.5529 -2.8574
 1785TIP3    H2 5362   5.412   5.714   1.762 -1.4128  0.0025 -0.1805
 1786TIP3   OH2 5363   5.854   3.337   1.450 -0.4778  0.2243 -0.3250
 1786TIP3    H1 5364   5.899   3.362   1.369 -1.0053  0.7734 -0.4509
 1786TIP3    H2 5365   5.903   3.261   1.481 -0.2095  0.0619 -1.1119
 1787TIP3   OH2 5366   5.505   4.352   2.074  0.6011 -0.2725  0.0373
 1787TIP3    H1 5367   5.476   4.331   1.985 -1.8269  0.5678  0.5348
 1787TIP3    H2 5368   5.473   4.279   2.127 -0.2161  0.4471  0.5516
 1788TIP3   OH2 5369   6.248   1.844   0.409  0.0345 -0.2546  0.4310
 1788TIP3    H1 5370   6.234   1.888   0.325 -1.2243 -0.4435  0.5114
 1788TIP3    H2 5371   6.239   1.750   0.389 -0.7886 -0.2742  0.8498
 1789TIP3   OH2 5372   1.180   4.839   4.321 -0.2357 -0.1241 -0.2755
 1789TIP3    H1 5373   1.181   4.793   4.405  0.3354  0.3898  0.0077
 1789TIP3    H2 5374   1.202   4.772   4.256  0.3214 -0.3138  0.1025
 1790TIP3   OH2 5375   2.646   2.573   1.249  0.3553  0.0278 -0.5227
 1790TIP3    H1 5376   2.678   2.563   1.339 -1.3854  3.2900  0.6252
 1790TIP3    H2 5377   2.560   2.531   1.250  0.7968 -0.9163 -1.0340
 1791TIP3   OH2 5378   2.025   1.543   1.451  0.0725 -0.2481  0.5692
 1791TIP3    H1 5379   1.937   1.508   1.454 -0.6061  1.4249  1.4362
 1791TIP3    H2 5380   2.054   1.527   1.361 -1.1229 -0.7957  0.2665
 1792TIP3   OH2 5381   3.132   4.345   2.453  0.5821  0.1626  0.1598
 1792TIP3    H1 5382   3.048   4.364   2.410  0.6067  0.6196  0.3070
 1792TIP3    H2 5383   3.117   4.263   2.499  0.5929 -0.4119 -0.8189
 1793TIP3   OH2 5384   0.037   5.919   5.116 -0.3022 -0.3603 -0.6366
 1793TIP3    H1 5385   0.122   5.954   5.092 -0.0948 -0.5143 -0.1383
 1793TIP3    H2 5386   0.028   5.941   5.209 -0.9888  0.0364 -0.7878
 1794TIP3   OH2 5387   2.127   2.432   0.583  0.5702 -0.0971  0.2075
 1794TIP3    H1 5388   2.110   2.514   0.629 -0.3717  0.2457 -0.6838
 1794TIP3    H2 5389   2.114   2.364   0.649  0.2685  0.4247  0.6942
 1795TIP3   OH2 5390   3.488   0.417   0.533 -0.0465  0.0603  0.2514
 1795TIP3    H1 5391   3.428   0.400   0.606 -1.6860 -0.3171 -1.1167
 1795TIP3    H2 5392   3.433   0.410   0.455  1.3051  1.9510 -0.9659
 1796TIP3   OH2 5393   4.606   2.284   1.109  0.3958  0.0866 -0.3088
 1796TIP3    H1 5394   4.700   2.280   1.093  0.5404  2.5405 -0.4601
 1796TIP3    H2 5395   4.598   2.327   1.195 -0.5706  0.2158 -0.4514
 1797TIP3   OH2 5396   0.289   4.786   4.770  0.3080 -0.1405  0.4175
 1797TIP3    H1 5397   0.200   4.771   4.803  0.4707 -1.0622  0.4840
 1797TIP3    H2 5398   0.277   4.825   4.684 -0.2045 -1.3742 -0.0983
 1798TIP3   OH2 5399   5.663   5.354   0.871 -0.2376 -0.4732  0.0335
 1798TIP3    H1 5400   5.692   5.391   0.788 -2.9929  0.6227 -0.5311
 1798TIP3    H2 5401   5.680   5.424   0.935 -0.2740 -0.4106 -0.0252
 1799TIP3   OH2 5402   2.714   6.000   3.946 -0.0922 -0.4790 -0.5479
 1799TIP3    H1 5403   2.699   5.906   3.935 -0.1877 -0.7069  1.1511
 1799TIP3    H2 5404   2.803   6.014   3.913  0.1355 -1.2871 -0.3101
 1800TIP3   OH2 5405   1.207   3.166   2.819  0.6147 -0.3483 -0.2625
 1800TIP3    H1 5406   1.248   3.226   2.756  1.1857  1.1657  1.4456
 1800TIP3    H2 5407   1.279   3.136   2.874 -0.1025 -0.1696  0.8069
 1801TIP3   OH2 5408   0.724   4.342   3.414  0.2169  0.0170 -0.8429
 1801TIP3    H1 5409   0.649   4.295   3.450  0.1094  0.2928 -0.7028
 1801TIP3    H2 5410   0.738   4.414   3.474  1.6220 -0.9499  0.0348
 1802TIP3   OH2 5411   2.341   5.362   0.953 -0.0453 -0.2183  0.2737
 1802TIP3    H1 5412   2.339   5.458   0.950 -0.7618 -0.2449 -1.2185
 1802TIP3    H2 5413   2.264   5.335   0.902 -1.7635 -1.6173  3.3766
 1803TIP3   OH2 5414   0.082   2.270   2.690 -0.4626  0.5323  0.0854
 1803TIP3    H1 5415   0.021   2.211   2.646  0.8325 -1.3143  0.6164
 1803TIP3    H2 5416   0.079   2.243   2.782  1.5265 -0.0291  0.0346
 1804TIP3   OH2 5417   2.224   3.687   2.302 -1.2350  0.0804  0.0460
 1804TIP3    H1 5418   2.214   3.728   2.216 -0.1215  0.5804  0.1324
 1804TIP3    H2 5419   2.274   3.607   2.284  1.3150  1.4822  0.4966
 1805TIP3   OH2 5420   5.736   0.503   1.749  0.1845 -0.5747  0.1908
 1805TIP3    H1 5421   5.814   0.558   1.755 -0.3545  0.4111 -1.1938
 1805TIP3    H2 5422   5.735   0.472   1.659  0.4054 -2.8151  0.9159
 1806TIP3   OH2 5423   0.176   0.135   1.905 -0.0734  0.0063  0.5216
 1806TIP3    H1 5424   0.166   0.112   1.997  0.8739 -1.2343  0.3332
 1806TIP3    H2 5425   0.124   0.069   1.858 -2.1925  1.7672  0.2041
 1807TIP3   OH2 5426   5.193   1.751   4.698  0.3260 -0.8076  0.2087
 1807TIP3    H1 5427   5.270   1.802   4.722  0.2647  0.1575 -1.4366
 1807TIP3    H2 5428   5.128   1.772   4.765  0.8803 -0.1185  0.5429
 1808TIP3   OH2 5429   3.406   3.650   4.844  0.1501  0.7954 -0.1202
 1808TIP3    H1 5430   3.433   3.559   4.830 -0.5206  0.3215  1.4148
 1808TIP3    H2 5431   3.328   3.661   4.790 -0.3606  0.1262  0.4581
 1809TIP3   OH2 5432   4.141   4.395   2.421  0.4072 -0.1585 -0.5832
 1809TIP3    H1 5433   4.214   4.428   2.368 -0.0322  0.4414 -0.8284
 1809TIP3    H2 5434   4.070   4.456   2.404  0.0063 -0.4319  0.0663
 1810TIP3   OH2 5435   1.769   4.266   3.308 -0.2367  0.1314 -0.5152
 1810TIP3    H1 5436   1.697   4.273   3.371  0.2067 -0.4064  0.0667
 1810TIP3    H2 5437   1.736   4.309   3.229 -0.9404  0.4866 -0.0372
 1811TIP3   OH2 5438   0.863   4.795   3.052  0.2494  0.0725  0.1776
 1811TIP3    H1 5439   0.769   4.803   3.066  0.1058  0.0982 -0.7273
 1811TIP3    H2 5440   0.888   4.718   3.104 -0.6541 -1.1768 -1.1413
 1812TIP3   OH2 5441   5.882   0.310   1.952 -0.0145 -0.5579  0.3146
 1812TIP3    H1 5442   5.923   0.375   1.894 -0.8679 -0.2868 -0.0122
 1812TIP3    H2 5443   5.882   0.229   1.901  0.3111 -0.6150  0.4033
 1813TIP3   OH2 5444   4.003   3.902   4.223  0.3208  0.1232 -0.2959
 1813TIP3    H1 5445   4.064   3.907   4.297  0.2040 -0.0302 -0.1895
 1813TIP3    H2 5446   4.047   3.847   4.159  0.5157  0.4299 -0.4315
 1814TIP3   OH2 5447   5.403   4.364   1.823  0.2706  0.0480 -0.2286
 1814TIP3    H1 5448   5.318   4.392   1.857  0.8111  2.3198 -0.5782
 1814TIP3    H2 5449   5.445   4.445   1.795  1.6946 -1.2457 -2.0668
 1815TIP3   OH2 5450   0.293   1.207   3.005  0.2994  0.0634 -0.3924
 1815TIP3    H1 5451   0.318   1.280   2.948  0.8185 -0.2043 -0.5212
 1815TIP3    H2 5452   0.361   1.141   2.989  1.0436  0.3743  1.2815
 1816TIP3   OH2 5453   0.360   2.619   3.373 -0.5182  0.4542  0.2008
 1816TIP3    H1 5454   0.408   2.657   3.446 -0.4406 -2.1359  1.6112
 1816TIP3    H2 5455   0.427   2.576   3.319 -0.6707  1.6415 -0.9915
 1817TIP3   OH2 5456   4.243   2.665   2.381 -0.4461 -0.0257  0.3871
 1817TIP3    H1 5457   4.205   2.593   2.432 -2.0746  0.6387  0.1804
 1817TIP3    H2 5458   4.223   2.744   2.432  0.1325  0.4154 -0.0517
 1818TIP3   OH2 5459   5.024   4.026   3.938 -0.4452  0.0048  0.2687
 1818TIP3    H1 5460   5.022   4.049   3.845 -0.1490  0.7625  0.4431
 1818TIP3    H2 5461   4.954   4.079   3.977  0.6266  1.1060  0.7723
 1819TIP3   OH2 5462   1.713   2.743   2.405  0.1370 -0.2752 -0.0539
 1819TIP3    H1 5463   1.779   2.685   2.367  0.7289  0.2747  0.1051
 1819TIP3    H2 5464   1.669   2.782   2.329 -0.5133 -1.1941 -0.1609
 1820TIP3   OH2 5465   3.150   0.746   4.921  0.4780  0.2785 -0.0173
 1820TIP3    H1 5466   3.235   0.781   4.894  0.7786 -0.7204 -0.4046
 1820TIP3    H2 5467   3.131   0.677   4.858 -0.1088 -0.2536  0.7159
 1821TIP3   OH2 5468   5.569   0.821   0.013  0.1534 -0.0723  0.0836
 1821TIP3    H1 5469   5.659   0.789   0.014  0.6074  1.1584  0.5874
 1821TIP3    H2 5470   5.577   0.916   0.024 -1.1689  0.1537 -0.6899
 1822TIP3   OH2 5471   3.366   1.482   3.174  0.0305 -0.5078 -0.0222
 1822TIP3    H1 5472   3.319   1.480   3.257  0.9439  0.3037  0.5311
 1822TIP3    H2 5473   3.457   1.497   3.198  0.6099 -2.1393 -1.0738
 1823TIP3   OH2 5474   5.910   2.561   1.000 -0.1295 -0.4860 -0.8237
 1823TIP3    H1 5475   5.859   2.605   0.931 -1.0387 -1.0762 -0.5375
 1823TIP3    H2 5476   5.917   2.470   0.970  0.1926 -0.5558 -0.5386
 1824TIP3   OH2 5477   3.335   2.163   1.907 -0.4300  0.1525 -0.2292
 1824TIP3    H1 5478   3.326   2.141   2.000 -2.8644  1.7894  0.0333
 1824TIP3    H2 5479   3.257   2.125   1.866  1.5161 -2.2155 -2.0812
 1825TIP3   OH2 5480   2.888   2.905   1.778 -0.9918 -0.1890 -0.2153
 1825TIP3    H1 5481   2.909   2.998   1.791 -0.9419 -0.1940 -0.2609
 1825TIP3    H2 5482   2.964   2.859   1.814 -1.5943 -0.2486  1.0251
 1826TIP3   OH2 5483   0.377   2.554   1.604  0.0893  0.1108  0.3593
 1826TIP3    H1 5484   0.466   2.559   1.637  0.0959 -0.7949  0.4847
 1826TIP3    H2 5485   0.382   2.589   1.515  0.3529  1.1113  0.7524
 1827TIP3   OH2 5486   4.627   3.805   5.133  0.2508  0.0946 -0.3182
 1827TIP3    H1 5487   4.645   3.730   5.189  0.8152  0.4804  0.0334
 1827TIP3    H2 5488   4.711   3.850   5.126 -0.1175  0.7846 -0.3840
 1828TIP3   OH2 5489   4.821   3.730   4.821 -0.4626 -0.4462 -0.5840
 1828TIP3    H1 5490   4.797   3.640   4.841  2.6007 -0.8721  1.9855
 1828TIP3    H2 5491   4.916   3.733   4.832 -0.5800  3.4143  1.1466
 1829TIP3   OH2 5492   3.549   1.453   1.817  0.0934  0.3741  0.1572
 1829TIP3    H1 5493   3.566   1.529   1.762 -0.7791  1.0037  0.7262
 1829TIP3    H2 5494   3.620   1.392   1.797  1.6497  1.9131  0.7742
 1830TIP3   OH2 5495   3.171   2.812   3.835 -0.5106 -0.5525 -0.2003
 1830TIP3    H1 5496   3.211   2.866   3.903 -0.8453 -0.0881 -0.3668
 1830TIP3    H2 5497   3.197   2.854   3.752  1.9481 -2.4881 -0.5120
 1831TIP3   OH2 5498   1.065   4.047   4.990  0.3097 -0.5109  0.3241
 1831TIP3    H1 5499   1.041   3.988   5.062  1.5526  0.1487  1.3177
 1831TIP3    H2 5500   1.106   4.122   5.034 -1.6029  1.3319 -0.8438
 1832TIP3   OH2 5501   0.884   2.797   2.831 -0.1721  0.4147 -0.2391
 1832TIP3    H1 5502   0.959   2.835   2.785 -0.8450  1.3383 -0.6163
 1832TIP3    H2 5503   0.923   2.736   2.894  0.9095  1.0263 -0.2830
 1833TIP3   OH2 5504   2.428   1.535   5.041 -0.4760 -0.4953  1.0084
 1833TIP3    H1 5505   2.372   1.570   4.971 -2.0336  0.5008  2.6561
 1833TIP3    H2 5506   2.388   1.450   5.062 -0.1589 -0.6780  0.8849
 1834TIP3   OH2 5507   3.427   5.691   2.837 -0.6689  0.0097  0.3483
 1834TIP3    H1 5508   3.379   5.767   2.806 -0.2916 -0.3450 -1.1465
 1834TIP3    H2 5509   3.402   5.684   2.930 -0.7551  1.8836  0.5011
 1835TIP3   OH2 5510   4.729   3.384   0.880  0.3906 -0.0573  0.0875
 1835TIP3    H1 5511   4.686   3.460   0.920 -0.4253 -0.0338 -0.7887
 1835TIP3    H2 5512   4.703   3.310   0.934 -1.5736 -0.1868 -0.9359
 1836TIP3   OH2 5513   0.509   5.396   4.268 -0.1458  0.1071 -0.1489
 1836TIP3    H1 5514   0.590   5.447   4.272  0.6417 -1.1464  2.1631
 1836TIP3    H2 5515   0.525   5.330   4.200  0.7652 -0.0577  0.2084
 1837TIP3   OH2 5516   0.452   1.108   1.203 -0.1593 -0.4992  0.2442
 1837TIP3    H1 5517   0.538   1.067   1.194 -0.5533 -1.3517  0.2743
 1837TIP3    H2 5518   0.390   1.040   1.177 -0.8690 -0.1427  0.9522
 1838TIP3   OH2 5519   5.344   0.874   3.177 -0.1417 -0.2408  0.1388
 1838TIP3    H1 5520   5.434   0.844   3.167  0.1430  1.1310 -2.0220
 1838TIP3    H2 5521   5.351   0.958   3.222 -0.2651  0.1686 -0.5874
 1839TIP3   OH2 5522   3.106   5.378   0.782  0.1982 -0.2063  0.9976
 1839TIP3    H1 5523   3.174   5.391   0.849  2.0657 -0.7186 -0.6804
 1839TIP3    H2 5524   3.118   5.451   0.722 -0.1933 -0.7394  0.2582
 1840TIP3   OH2 5525   3.384   2.898   3.356  0.1821  0.1729  0.1184
 1840TIP3    H1 5526   3.423   2.917   3.270  1.4221 -0.7710  0.4340
 1840TIP3    H2 5527   3.437   2.825   3.389 -0.0748  0.7390  1.8255
 1841TIP3   OH2 5528   5.680   2.120   3.816 -0.1357 -0.3852  0.3538
 1841TIP3    H1 5529   5.690   2.092   3.725 -0.5497  0.2002  0.1257
 1841TIP3    H2 5530   5.613   2.062   3.852 -1.4003  0.6533 -0.2751
 1842TIP3   OH2 5531   1.659   5.800   3.286 -0.0924  0.3156  0.1675
 1842TIP3    H1 5532   1.703   5.774   3.366  0.1765  1.0577  0.2622
 1842TIP3    H2 5533   1.730   5.823   3.226 -0.3347  1.1391  0.1935
 1843TIP3   OH2 5534   4.755   3.050   0.296  0.2731  0.3872  0.1780
 1843TIP3    H1 5535   4.717   2.992   0.231  0.8631  0.7420 -0.4915
 1843TIP3    H2 5536   4.723   3.016   0.380 -0.3104 -0.2048 -0.2746
 1844TIP3   OH2 5537   5.027   3.618   3.005  0.3498 -0.7200  0.5822
 1844TIP3    H1 5538   5.029   3.689   2.940  0.7839 -0.9512  0.3375
 1844TIP3    H2 5539   4.966   3.649   3.072  2.5508  1.1699  1.9033
 1845TIP3   OH2 5540   2.520   1.876   1.179 -0.2546  0.5334  0.1846
 1845TIP3    H1 5541   2.518   1.819   1.102  0.6860 -1.1158  1.3210
 1845TIP3    H2 5542   2.607   1.860   1.217 -0.9562  0.7949  1.9460
 1846TIP3   OH2 5543   4.729   4.223   5.145  0.1531  0.2960  0.3675
 1846TIP3    H1 5544   4.799   4.262   5.092 -0.3009 -0.0455 -0.5068
 1846TIP3    H2 5545   4.744   4.128   5.139  0.6457  0.2638  1.6425
 1847TIP3   OH2 5546   4.401   5.942   0.244  0.0718  0.0007 -0.3150
 1847TIP3    H1 5547   4.443   6.028   0.249  1.3480 -0.6696  0.7145
 1847TIP3    H2 5548   4.434   5.904   0.162  2.0800 -0.7991  0.8138
 1848TIP3   OH2 5549   5.900   4.105   2.975 -0.2499 -0.0246  0.4804
 1848TIP3    H1 5550   5.830   4.170   2.976 -1.2999 -1.0773 -0.6114
 1848TIP3    H2 5551   5.923   4.095   2.882  0.1547 -0.9071  0.6593
 1849TIP3   OH2 5552   1.503   4.783   1.237 -0.0651 -0.3971  0.1045
 1849TIP3    H1 5553   1.415   4.813   1.263 -0.5853 -2.8869  1.5265
 1849TIP3    H2 5554   1.488   4.733   1.157  0.0302 -0.8876  0.3909
 1850TIP3   OH2 5555   5.391   0.363   2.153  0.2365 -0.3786 -0.0128
 1850TIP3    H1 5556   5.401   0.443   2.205 -0.3364  1.0137 -1.9199
 1850TIP3    H2 5557   5.480   0.337   2.130  0.3714  0.6589 -0.7041
 1851TIP3   OH2 5558   3.725   3.621   2.886 -0.0391 -0.1771 -0.1492
 1851TIP3    H1 5559   3.745   3.686   2.818 -0.3377 -1.4607 -1.4994
 1851TIP3    H2 5560   3.755   3.538   2.850 -0.9335 -1.0091  0.9645
 1852TIP3   OH2 5561   6.017   1.463   5.155  0.0803  0.4582  0.0926
 1852TIP3    H1 5562   6.013   1.547   5.199 -1.6801  0.2974  0.3379
 1852TIP3    H2 5563   5.928   1.449   5.122  0.0406 -1.7535  0.9490
 1853TIP3   OH2 5564   6.246   5.827   2.476 -1.3451  0.4126 -0.3892
 1853TIP3    H1 5565   6.247   5.922   2.476 -0.9102  0.4107 -0.6655
 1853TIP3    H2 5566   6.205   5.803   2.559  1.0646  0.8160  0.9956
 1854TIP3   OH2 5567   3.063   4.959   3.007 -0.1292  0.1848 -0.2494
 1854TIP3    H1 5568   2.987   4.987   2.957  0.3503 -0.6574 -1.5080
 1854TIP3    H2 5569   3.105   4.893   2.952  1.1842  0.2055  0.6706
 1855TIP3   OH2 5570   5.319   0.772   1.295 -0.1474  0.2116  0.0591
 1855TIP3    H1 5571   5.412   0.752   1.284 -0.4032 -0.8640 -0.2861
 1855TIP3    H2 5572   5.276   0.723   1.225 -0.8612  1.7329 -0.5981
 1856TIP3   OH2 5573   3.189   4.548   4.619 -0.4443 -0.2573  0.1658
 1856TIP3    H1 5574   3.240   4.530   4.698 -1.8261 -0.9280  0.9428
 1856TIP3    H2 5575   3.224   4.487   4.554  0.4691  0.0574  0.3423
 1857TIP3   OH2 5576   3.433   5.000   2.053  0.0020 -0.0002 -0.3443
 1857TIP3    H1 5577   3.384   5.056   2.114  0.9874  0.3966  0.0998
 1857TIP3    H2 5578   3.380   4.921   2.047  0.2454 -0.3750  1.6340
 1858TIP3   OH2 5579   2.505   5.076   3.386  0.3586 -0.1524 -0.3558
 1858TIP3    H1 5580   2.506   5.113   3.297 -1.5374 -1.4652 -0.9679
 1858TIP3    H2 5581   2.453   5.138   3.437  0.6159  0.0985 -0.3945
 1859TIP3   OH2 5582   4.203   0.310   0.461  0.1978 -0.2519  0.0413
 1859TIP3    H1 5583   4.127   0.361   0.432  0.7686  0.8926  0.4830
 1859TIP3    H2 5584   4.166   0.244   0.520 -0.7499 -1.4574 -1.8003
 1860TIP3   OH2 5585   0.771   4.138   0.532 -0.4565 -0.3332 -0.4166
 1860TIP3    H1 5586   0.858   4.099   0.539 -0.5877 -0.6143 -0.3149
 1860TIP3    H2 5587   0.753   4.140   0.438 -0.2293 -0.0266 -0.4526
 1861TIP3   OH2 5588   6.319   0.503  -0.010 -0.2144  0.0316 -0.0529
 1861TIP3    H1 5589   6.224   0.497  -0.008 -0.2091 -0.0818 -0.0918
 1861TIP3    H2 5590   6.348   0.437   0.054 -0.1547 -0.2154 -0.3313
 1862TIP3   OH2 5591   4.098   2.358   1.590  0.2934  0.2657  0.4116
 1862TIP3    H1 5592   4.036   2.406   1.644  1.7327  1.7944  0.7675
 1862TIP3    H2 5593   4.135   2.292   1.648 -2.1766 -1.8857 -0.2522
 1863TIP3   OH2 5594   0.841   5.156   0.508  0.3899 -0.0219 -0.6030
 1863TIP3    H1 5595   0.860   5.244   0.541  0.2246 -0.6468  1.3222
 1863TIP3    H2 5596   0.762   5.129   0.556 -0.2737 -0.7621 -2.0667
 1864TIP3   OH2 5597   0.644   5.388   1.583  0.2682 -0.5043 -0.3516
 1864TIP3    H1 5598   0.651   5.378   1.678  0.8965 -1.1119 -0.4552
 1864TIP3    H2 5599   0.556   5.357   1.562 -0.3823  0.8671  0.1736
 1865TIP3   OH2 5600   1.275   3.195   4.838 -0.0922 -0.0113 -0.6534
 1865TIP3    H1 5601   1.361   3.219   4.873  1.0093 -0.8108 -2.6015
 1865TIP3    H2 5602   1.235   3.278   4.814  0.6881  0.3139 -0.8764
 1866TIP3   OH2 5603   3.046   4.445   2.743  0.1947 -0.0989  0.7108
 1866TIP3    H1 5604   3.014   4.358   2.767 -0.3264 -0.2001 -0.2971
 1866TIP3    H2 5605   2.976   4.483   2.690  2.1603 -0.8200 -2.6985
 1867TIP3   OH2 5606   0.946   2.717   3.429  0.2273  0.3292  0.2329
 1867TIP3    H1 5607   0.881   2.692   3.364  0.9597  3.2453 -1.8801
 1867TIP3    H2 5608   1.028   2.680   3.396  0.5700  1.6650 -0.4896
 1868TIP3   OH2 5609   0.697   0.062   4.322  0.1367 -0.2998  0.3726
 1868TIP3    H1 5610   0.619   0.105   4.358  0.1170  1.7098 -1.7771
 1868TIP3    H2 5611   0.754   0.049   4.398 -0.9063  1.3717  1.5338
 1869TIP3   OH2 5612   4.474   0.827   3.172  0.0945  0.1453 -0.3892
 1869TIP3    H1 5613   4.538   0.789   3.233 -1.7430 -0.9374  0.9526
 1869TIP3    H2 5614   4.526   0.852   3.096  2.3172  0.5322  1.1594
 1870TIP3   OH2 5615   2.566   5.325   5.125 -0.5059  0.0959 -0.1615
 1870TIP3    H1 5616   2.650   5.281   5.135  0.1206  1.2634 -0.0201
 1870TIP3    H2 5617   2.502   5.267   5.167  0.7314  0.7569  2.9320
 1871TIP3   OH2 5618   2.594   1.988   1.809  0.3167  0.6558 -0.1573
 1871TIP3    H1 5619   2.529   1.921   1.789  0.3487  1.2546 -2.7016
 1871TIP3    H2 5620   2.542   2.065   1.833  0.2537  0.0644  1.7355
 1872TIP3   OH2 5621   2.610   5.763   3.950  0.0907 -0.3167  0.7043
 1872TIP3    H1 5622   2.541   5.741   3.887  2.3450 -3.1795 -1.0253
 1872TIP3    H2 5623   2.616   5.687   4.007  0.6061  0.6617  2.0036
 1873TIP3   OH2 5624   1.082   0.835   4.712  0.4339 -0.3374  0.1786
 1873TIP3    H1 5625   0.995   0.812   4.680 -0.2337  0.5739  1.2681
 1873TIP3    H2 5626   1.095   0.925   4.682  0.9581 -0.4270  0.1209
 1874TIP3   OH2 5627   0.266   2.429   0.913  0.4704  0.0972  0.1213
 1874TIP3    H1 5628   0.302   2.518   0.913 -1.4909  0.9267 -0.1485
 1874TIP3    H2 5629   0.183   2.436   0.959 -0.5148 -1.2660 -1.3472
 1875TIP3   OH2 5630   6.245   2.347   5.046 -0.3550  0.2826  0.1247
 1875TIP3    H1 5631   6.154   2.368   5.027 -0.1314 -0.0523 -1.4039
 1875TIP3    H2 5632   6.294   2.381   4.972  0.6523 -0.5003  0.4056
 1876TIP3   OH2 5633   0.041   4.980   0.755 -0.3587  0.1251 -0.1689
 1876TIP3    H1 5634   0.052   4.941   0.669  1.3251  1.5445 -0.6520
 1876TIP3    H2 5635   0.059   4.908   0.816  0.3317 -0.4393 -1.0071
 1877TIP3   OH2 5636   2.957   4.569   1.300  0.4739 -0.2767 -0.1703
 1877TIP3    H1 5637   2.929   4.598   1.386  1.0069  0.7056 -0.3201
 1877TIP3    H2 5638   2.877   4.568   1.247  0.4735  1.1105 -0.2151
 1878TIP3   OH2 5639   2.044   3.744   3.907  0.4085 -0.7335  0.5492
 1878TIP3    H1 5640   1.981   3.811   3.882  0.9745 -0.3006  0.2557
 1878TIP3    H2 5641   2.054   3.753   4.002  1.2393  0.2896  0.3826
 1879TIP3   OH2 5642   4.930   0.830   4.653 -0.3913 -0.0884  0.0079
 1879TIP3    H1 5643   4.868   0.781   4.599 -0.0224  0.2374 -0.7137
 1879TIP3    H2 5644   4.881   0.906   4.684 -0.2187  0.4376 -0.9756
 1880TIP3   OH2 5645   1.457   2.133   2.568  0.3731  0.6740 -0.1133
 1880TIP3    H1 5646   1.397   2.085   2.511  0.1608  2.1128 -1.1483
 1880TIP3    H2 5647   1.515   2.180   2.507  1.4279  0.6937  0.8723
 1881TIP3   OH2 5648   6.209   2.338   1.610  0.0378 -0.3663  0.2719
 1881TIP3    H1 5649   6.218   2.255   1.562  1.7207 -0.2393  0.3345
 1881TIP3    H2 5650   6.126   2.329   1.657 -0.8001 -1.2002 -1.2706
 1882TIP3   OH2 5651   0.813   4.874   2.659  0.0691  0.3985 -0.6450
 1882TIP3    H1 5652   0.865   4.954   2.652  2.0769 -0.7223  0.6237
 1882TIP3    H2 5653   0.869   4.813   2.706 -2.0797 -1.2080 -0.0354
 1883TIP3   OH2 5654   0.415   5.475   2.020  0.2211  0.0829 -0.4448
 1883TIP3    H1 5655   0.479   5.404   2.029 -0.2711 -0.4002 -0.6775
 1883TIP3    H2 5656   0.452   5.533   1.954 -0.1833 -0.8862 -1.5606
 1884TIP3   OH2 5657   3.017   0.953   1.116 -0.0781  0.6691  0.2121
 1884TIP3    H1 5658   2.999   0.944   1.209  1.2927  0.4742  0.4743
 1884TIP3    H2 5659   2.971   0.880   1.075  0.1752  0.1439  0.8585
 1885TIP3   OH2 5660   2.292   5.056   0.298 -0.2635  0.2823 -0.5458
 1885TIP3    H1 5661   2.258   5.084   0.383  0.0393 -0.3427 -0.2156
 1885TIP3    H2 5662   2.213   5.041   0.245 -0.4941 -0.3578 -0.0386
 1886TIP3   OH2 5663   1.418   5.472   2.246  0.1344  0.0047  0.2613
 1886TIP3    H1 5664   1.405   5.474   2.340  3.4065 -1.3658  0.8669
 1886TIP3    H2 5665   1.454   5.558   2.224  0.6575 -0.1526  0.5020
 1887TIP3   OH2 5666   0.703   1.759   2.535 -0.6002  0.3898  0.5599
 1887TIP3    H1 5667   0.674   1.847   2.512 -2.6849 -0.2547  0.4853
 1887TIP3    H2 5668   0.778   1.743   2.478 -0.5140  1.9115  0.1990
 1888TIP3   OH2 5669   5.365   0.398   0.173 -0.0028  0.4721  0.2113
 1888TIP3    H1 5670   5.451   0.415   0.211  0.5294  1.3196 -1.2827
 1888TIP3    H2 5671   5.319   0.482   0.181  0.0738  0.6290 -0.8393
 1889TIP3   OH2 5672   1.741   1.465   1.445  0.8415 -0.5501  0.0879
 1889TIP3    H1 5673   1.735   1.404   1.372  0.6044 -0.9195  0.4144
 1889TIP3    H2 5674   1.657   1.510   1.446  1.0546 -0.1371 -0.2185
 1890TIP3   OH2 5675   0.314   4.935   3.340 -0.4561  0.1760  0.2086
 1890TIP3    H1 5676   0.376   4.957   3.270 -1.2191  0.9190 -0.2717
 1890TIP3    H2 5677   0.307   4.840   3.338 -0.3083  0.1755 -0.6038
 1891TIP3   OH2 5678   0.837   4.072   0.038  0.4508  0.7587 -0.4008
 1891TIP3    H1 5679   0.888   3.998   0.070 -0.9405  0.3360  0.9854
 1891TIP3    H2 5680   0.801   4.112   0.118 -1.2512  1.1080 -1.3032
 1892TIP3   OH2 5681   5.086   4.362   0.220  0.6057  0.0707  0.3293
 1892TIP3    H1 5682   5.095   4.287   0.161 -0.7652 -0.5639  0.8758
 1892TIP3    H2 5683   5.083   4.438   0.161 -0.9944 -0.5619 -0.4842
 1893TIP3   OH2 5684   4.978   4.544   0.476 -0.1190 -0.3771 -0.0549
 1893TIP3    H1 5685   4.908   4.530   0.412  0.0325 -1.2748 -0.0328
 1893TIP3    H2 5686   5.052   4.573   0.424  0.5091 -2.6508 -0.5582
 1894TIP3   OH2 5687   3.825   0.738   3.744  0.0403 -0.1960 -0.7879
 1894TIP3    H1 5688   3.917   0.756   3.724 -0.0262  0.5384 -0.4717
 1894TIP3    H2 5689   3.820   0.642   3.750  1.7188 -0.2189  3.3807
 1895TIP3   OH2 5690   3.620   1.366   2.429 -0.1315 -0.5727 -0.1781
 1895TIP3    H1 5691   3.656   1.413   2.504 -1.1679 -0.1460  0.0649
 1895TIP3    H2 5692   3.570   1.432   2.381  1.1516 -0.6320 -1.7100
 1896TIP3   OH2 5693   6.058   5.125   2.030  0.3156  0.3288  0.6477
 1896TIP3    H1 5694   6.073   5.215   2.001 -1.6456  0.2886 -0.6918
 1896TIP3    H2 5695   5.992   5.133   2.099 -0.1933 -0.0762  0.2241
 1897TIP3   OH2 5696   1.661   4.711   4.958  0.5940  0.2214  0.3030
 1897TIP3    H1 5697   1.709   4.665   5.028 -0.2135  1.2907  1.6230
 1897TIP3    H2 5698   1.644   4.798   4.995  0.0168  0.7672 -1.2019
 1898TIP3   OH2 5699   0.929   2.063   4.376 -0.0001  0.0868 -0.1416
 1898TIP3    H1 5700   0.954   2.094   4.289  0.3912  0.4727  0.1091
 1898TIP3    H2 5701   1.008   2.019   4.409 -0.2993 -0.4883 -0.1738
 1899TIP3   OH2 5702   1.464   5.682   0.418  0.6614 -0.4333  0.1455
 1899TIP3    H1 5703   1.508   5.765   0.403 -1.3163  0.5316 -0.6589
 1899TIP3    H2 5704   1.476   5.634   0.336  0.8964 -0.5139  0.2255
 1900TIP3   OH2 5705   3.755   0.978   0.337 -0.0915 -0.1635  0.9094
 1900TIP3    H1 5706   3.780   0.887   0.353  0.1199 -0.6251 -1.6270
 1900TIP3    H2 5707   3.748   0.985   0.242 -0.8269  2.3026  1.0648
 1901TIP3   OH2 5708   3.588   1.366   0.158 -0.0851 -0.9079 -0.1945
 1901TIP3    H1 5709   3.601   1.411   0.074  0.2671  0.4509  0.5528
 1901TIP3    H2 5710   3.676   1.357   0.194 -0.2978 -0.8675  0.3398
 1902TIP3   OH2 5711   3.991   0.447   3.187  0.1753  0.2672  0.2569
 1902TIP3    H1 5712   3.946   0.531   3.174 -1.7812 -0.6056  0.9483
 1902TIP3    H2 5713   3.967   0.420   3.276  0.6874 -1.0597  0.0179
 1903TIP3   OH2 5714   3.939   5.496   3.272 -0.0306 -0.2387 -0.2851
 1903TIP3    H1 5715   3.949   5.590   3.284  1.0378 -0.1702 -1.4829
 1903TIP3    H2 5716   3.940   5.460   3.361 -1.2333  0.9239  0.2386
 1904TIP3   OH2 5717   5.458   0.304   1.456  0.3983 -0.5409 -0.3948
 1904TIP3    H1 5718   5.489   0.244   1.388 -2.0857 -1.4068 -0.8864
 1904TIP3    H2 5719   5.425   0.247   1.525  1.9338  0.3355  1.1418
 1905TIP3   OH2 5720   4.579   4.828   3.286 -0.2220  0.2620 -0.3785
 1905TIP3    H1 5721   4.486   4.847   3.298 -0.2925  0.4602 -1.1553
 1905TIP3    H2 5722   4.590   4.737   3.315 -0.7446  0.1038 -0.6702
 1906TIP3   OH2 5723   2.383   1.607   0.475  0.1048  0.0228 -0.4618
 1906TIP3    H1 5724   2.418   1.696   0.480 -0.7649  0.4707 -1.8111
 1906TIP3    H2 5725   2.451   1.552   0.514 -1.0412  1.5903  4.6150
 1907TIP3   OH2 5726   0.261   5.116   0.109  0.0059 -0.0022 -0.4146
 1907TIP3    H1 5727   0.193   5.167   0.151  0.9870  1.8610 -0.9664
 1907TIP3    H2 5728   0.220   5.082   0.030 -0.4302  0.7073 -0.5032
 1908TIP3   OH2 5729   3.986   3.722   4.828 -0.1532 -0.4523  0.5124
 1908TIP3    H1 5730   3.904   3.738   4.873 -1.0677 -1.8818 -0.5606
 1908TIP3    H2 5731   3.982   3.775   4.748  0.5924  0.5413  1.1149
 1909TIP3   OH2 5732   5.524   4.313   0.539 -0.7891  0.0665  0.0699
 1909TIP3    H1 5733   5.469   4.374   0.491  0.5526  1.8055  0.6527
 1909TIP3    H2 5734   5.612   4.352   0.537  0.6618 -2.9427 -1.4501
 1910TIP3   OH2 5735   5.339   2.148   0.780 -0.3705 -0.1325  0.5589
 1910TIP3    H1 5736   5.382   2.217   0.831  0.8340 -1.3629  1.2857
 1910TIP3    H2 5737   5.406   2.118   0.719 -0.6048 -1.2029  0.8147
 1911TIP3   OH2 5738   3.050   0.303   0.661 -0.2265 -0.0930 -0.4271
 1911TIP3    H1 5739   3.088   0.381   0.621 -0.1112 -0.0122 -0.1613
 1911TIP3    H2 5740   2.979   0.278   0.602  1.8138 -1.7590 -2.3941
 1912TIP3   OH2 5741   0.723   1.784   3.758  0.8098 -0.3566 -0.0796
 1912TIP3    H1 5742   0.711   1.765   3.851 -0.2060 -0.4298 -0.2104
 1912TIP3    H2 5743   0.806   1.743   3.736  0.7993 -0.8143  0.6702
 1913TIP3   OH2 5744   3.793   1.642   4.586  0.0581 -0.1383  0.1119
 1913TIP3    H1 5745   3.857   1.572   4.572 -0.0265 -0.1659 -0.1397
 1913TIP3    H2 5746   3.713   1.611   4.543  0.9552  1.5868 -3.0907
 1914TIP3   OH2 5747   1.725   3.937   4.086  0.3077 -0.1321 -0.6379
 1914TIP3    H1 5748   1.659   3.914   4.020 -1.0005 -0.3046  0.6813
 1914TIP3    H2 5749   1.770   3.855   4.104  0.1802 -0.2367 -0.7905
 1915TIP3   OH2 5750   1.865   0.720   5.012  0.0086 -0.3806  0.1137
 1915TIP3    H1 5751   1.817   0.716   4.929 -2.5991 -0.8274  1.5471
 1915TIP3    H2 5752   1.862   0.813   5.036  0.0720 -0.3771  0.1092
 1916TIP3   OH2 5753   2.110   3.154   1.341  0.3534  0.2970 -0.1941
 1916TIP3    H1 5754   2.050   3.084   1.368 -0.3380  1.2447  0.7834
 1916TIP3    H2 5755   2.192   3.134   1.388  1.1137 -1.3920 -2.0642
 1917TIP3   OH2 5756   5.424   1.473   2.402 -0.2384  0.2735 -0.2304
 1917TIP3    H1 5757   5.422   1.452   2.495  0.6027  1.7936  0.1494
 1917TIP3    H2 5758   5.479   1.405   2.363  0.3581  0.3018  0.5650
 1918TIP3   OH2 5759   1.366   4.950   0.885 -0.6709 -0.1776  0.1091
 1918TIP3    H1 5760   1.450   4.979   0.921  0.0982 -0.6426 -1.2386
 1918TIP3    H2 5761   1.365   4.984   0.796 -1.9923 -0.0711  0.1496
 1919TIP3   OH2 5762   1.819   0.907   0.256  0.8564  0.0905 -0.6360
 1919TIP3    H1 5763   1.833   0.983   0.313  0.0440  0.5630 -1.0376
 1919TIP3    H2 5764   1.905   0.866   0.248  1.5079  1.4940 -1.1326
 1920TIP3   OH2 5765   0.842   1.757   0.054 -0.1912  0.4375  0.1009
 1920TIP3    H1 5766   0.853   1.796   0.141  2.2877  3.3148 -1.2987
 1920TIP3    H2 5767   0.911   1.691   0.048 -0.2813  0.3274  0.2962
 1921TIP3   OH2 5768   5.513   3.076   3.983 -0.1271 -0.2084 -0.2742
 1921TIP3    H1 5769   5.548   2.991   3.958  2.6183  0.7965 -0.2494
 1921TIP3    H2 5770   5.494   3.068   4.077 -0.4377 -0.9291 -0.3954
 1922TIP3   OH2 5771   3.854   0.075   4.188 -0.3944 -0.0243 -0.3932
 1922TIP3    H1 5772   3.892   0.151   4.232 -0.3168 -1.0362  1.4269
 1922TIP3    H2 5773   3.929   0.016   4.174 -0.4111  0.3028 -1.9914
 1923TIP3   OH2 5774   3.181   4.540   3.774  0.5315  0.5080 -0.4062
 1923TIP3    H1 5775   3.248   4.599   3.809  0.5901 -0.1269  0.5965
 1923TIP3    H2 5776   3.230   4.476   3.723  0.5769  0.6962 -0.5994
 1924TIP3   OH2 5777   1.123   4.309   2.386  0.0859  0.7772  0.3453
 1924TIP3    H1 5778   1.093   4.290   2.474 -0.8504  1.4656  0.1843
 1924TIP3    H2 5779   1.213   4.276   2.384  0.3840  1.4288  1.7873
 1925TIP3   OH2 5780   0.095   5.888   2.173 -0.5683 -0.1135 -0.4226
 1925TIP3    H1 5781   0.008   5.906   2.207 -1.2617 -1.3664 -1.4254
 1925TIP3    H2 5782   0.111   5.796   2.195 -0.0616 -0.2625 -1.3518
 1926TIP3   OH2 5783   2.406   2.393   1.280 -0.0934 -0.3304 -0.1439
 1926TIP3    H1 5784   2.322   2.396   1.325 -0.3622  0.9039 -0.6787
 1926TIP3    H2 5785   2.412   2.305   1.245 -2.2653  0.1963 -2.0745
 1927TIP3   OH2 5786   2.185   3.080   0.549 -0.2852 -0.6904 -0.0576
 1927TIP3    H1 5787   2.103   3.036   0.574 -0.4021 -0.8418 -0.6924
 1927TIP3    H2 5788   2.157   3.158   0.503 -0.1894  2.1514  4.1213
 1928TIP3   OH2 5789   2.705   0.446   3.950  0.0004 -0.8335  0.4324
 1928TIP3    H1 5790   2.763   0.516   3.979 -0.9732 -0.0612  0.5811
 1928TIP3    H2 5791   2.760   0.368   3.949  1.4896  0.1567 -1.0316
 1929TIP3   OH2 5792   1.708   4.248   2.927 -0.0813 -0.1505  0.4735
 1929TIP3    H1 5793   1.731   4.287   2.843 -2.1435  0.8156  0.3053
 1929TIP3    H2 5794   1.705   4.154   2.909  0.1993 -0.0198 -0.3293
 1930TIP3   OH2 5795   0.178   5.955   3.465 -0.0451  0.1433  0.0488
 1930TIP3    H1 5796   0.151   5.918   3.549  1.0550 -1.9626 -0.4741
 1930TIP3    H2 5797   0.103   5.942   3.407 -0.2654  0.2718  0.3022
 1931TIP3   OH2 5798   1.796   5.751   0.805 -0.0291  0.1721  0.4147
 1931TIP3    H1 5799   1.790   5.707   0.890  0.4693  0.3699  0.5566
 1931TIP3    H2 5800   1.710   5.736   0.765  0.4480 -1.7670  0.0283
 1932TIP3   OH2 5801   3.325   0.182   4.154 -0.5146 -0.4477 -0.5804
 1932TIP3    H1 5802   3.328   0.246   4.225 -0.3626 -1.0246 -0.0580
 1932TIP3    H2 5803   3.328   0.234   4.074 -2.3978  0.3192 -0.2023
 1933TIP3   OH2 5804   5.974   3.751   1.953  0.1709  0.2271  0.8637
 1933TIP3    H1 5805   5.965   3.704   2.035 -0.2322  0.7523  1.1261
 1933TIP3    H2 5806   5.897   3.808   1.948 -0.0442 -0.1217 -0.0880
 1934TIP3   OH2 5807   2.865   1.619   0.025 -0.0711  0.2879  0.2042
 1934TIP3    H1 5808   2.802   1.691   0.026  0.0893  0.4296  0.2453
 1934TIP3    H2 5809   2.886   1.605   0.117  1.4765  1.5923  0.0967
 1935TIP3   OH2 5810   5.566   0.698   3.550 -0.2167 -0.1081  0.3571
 1935TIP3    H1 5811   5.628   0.662   3.487  0.6566  1.1829  0.4352
 1935TIP3    H2 5812   5.522   0.622   3.587  0.3599 -0.9722 -0.6848
 1936TIP3   OH2 5813   4.373   5.707   4.094 -0.6156  0.4767 -0.6344
 1936TIP3    H1 5814   4.439   5.722   4.026  0.4879  3.6210  0.9318
 1936TIP3    H2 5815   4.296   5.755   4.063  0.4768  3.5557  0.9469
 1937TIP3   OH2 5816   4.078   5.831   1.148 -0.0708  0.3123  0.6127
 1937TIP3    H1 5817   4.160   5.846   1.101 -1.0548  0.7465 -1.0430
 1937TIP3    H2 5818   4.039   5.918   1.154 -1.3869 -0.1649 -0.5402
 1938TIP3   OH2 5819   5.513   3.377   3.061  0.1164  0.4519  0.2325
 1938TIP3    H1 5820   5.528   3.300   3.115  1.1199  0.0373 -0.6064
 1938TIP3    H2 5821   5.418   3.382   3.052  0.0662 -1.1733 -0.4019
 1939TIP3   OH2 5822   1.652   1.864   1.838 -0.4745  0.0528 -0.1799
 1939TIP3    H1 5823   1.598   1.804   1.890 -0.9223  1.4281  1.0198
 1939TIP3    H2 5824   1.589   1.925   1.799  0.1734  2.3658  2.1183
 1940TIP3   OH2 5825   6.299   4.830   3.291 -0.3098  0.1294 -0.4523
 1940TIP3    H1 5826   6.207   4.813   3.309  0.3684 -2.8961  0.7692
 1940TIP3    H2 5827   6.332   4.750   3.251  2.0131  0.6837  0.1535
 1941TIP3   OH2 5828   0.993   5.822   3.680 -0.2908 -0.4394 -0.0033
 1941TIP3    H1 5829   0.994   5.915   3.704 -0.7861 -0.3796 -0.1962
 1941TIP3    H2 5830   1.078   5.807   3.639 -0.5831  0.1708 -0.8615
 1942TIP3   OH2 5831   3.643   5.367   3.907 -0.3004 -0.0538 -0.7058
 1942TIP3    H1 5832   3.549   5.387   3.908 -0.4310 -0.6142  0.3259
 1942TIP3    H2 5833   3.647   5.272   3.921  0.4446  0.2918  2.1035
 1943TIP3   OH2 5834   1.646   3.992   3.096 -0.0810  0.3797  0.5660
 1943TIP3    H1 5835   1.576   4.001   3.161 -2.1695 -1.6113 -1.2434
 1943TIP3    H2 5836   1.692   3.912   3.123 -0.1501  0.2532  0.3085
 1944TIP3   OH2 5837   4.786   2.339   3.212  0.2025 -0.3871  0.3671
 1944TIP3    H1 5838   4.840   2.387   3.149  1.9871 -2.5439  0.0985
 1944TIP3    H2 5839   4.749   2.267   3.160 -0.4302 -0.7039  1.2408
 1945TIP3   OH2 5840   5.138   5.164   1.599 -0.5722 -0.1657 -0.0585
 1945TIP3    H1 5841   5.146   5.223   1.524  1.7989 -1.5202 -1.0191
 1945TIP3    H2 5842   5.206   5.193   1.660 -3.0398  1.4608  2.0887
 1946TIP3   OH2 5843   0.312   2.444   4.068  0.2225  0.6495 -0.2337
 1946TIP3    H1 5844   0.245   2.512   4.063 -2.0072 -1.4944 -1.8732
 1946TIP3    H2 5845   0.306   2.397   3.985  1.0190 -2.0949  1.1273
 1947TIP3   OH2 5846   0.848   5.628   1.828 -0.2124 -0.5415 -0.0979
 1947TIP3    H1 5847   0.836   5.721   1.847  0.9151 -0.3288 -0.3340
 1947TIP3    H2 5848   0.766   5.600   1.787 -1.2391 -0.1053  1.6139
 1948TIP3   OH2 5849   4.397   2.293   2.207 -0.1205  0.2959 -0.2346
 1948TIP3    H1 5850   4.443   2.257   2.130  1.5090  0.7479  0.4852
 1948TIP3    H2 5851   4.427   2.383   2.212 -0.7066  0.4449  0.5770
 1949TIP3   OH2 5852   2.042   1.890   3.088 -0.2914 -0.4239  0.1848
 1949TIP3    H1 5853   2.077   1.849   3.009 -1.8393 -0.3982 -0.5492
 1949TIP3    H2 5854   2.082   1.977   3.090 -0.2148 -0.4334 -0.5596
 1950TIP3   OH2 5855   0.698   3.143   3.632  0.0012 -0.3709 -0.0797
 1950TIP3    H1 5856   0.685   3.145   3.537  0.3004  0.0039 -0.1115
 1950TIP3    H2 5857   0.661   3.059   3.659 -1.4516  0.1605 -0.3312
 1951TIP3   OH2 5858   2.568   3.647   1.646  0.1246 -0.0920  0.4423
 1951TIP3    H1 5859   2.487   3.641   1.595  0.2523 -0.8508  0.3168
 1951TIP3    H2 5860   2.565   3.735   1.685 -1.7841 -0.8192  2.1630
 1952TIP3   OH2 5861   4.585   0.242   4.247 -0.1062 -0.1712 -0.5621
 1952TIP3    H1 5862   4.528   0.168   4.225 -0.4678 -0.4471  1.1816
 1952TIP3    H2 5863   4.671   0.217   4.213 -1.0051  0.4035 -3.5484
 1953TIP3   OH2 5864   2.646   5.628   0.145 -0.5137 -0.4940 -0.2395
 1953TIP3    H1 5865   2.731   5.628   0.189 -0.2504 -1.3653 -0.7378
 1953TIP3    H2 5866   2.585   5.597   0.212 -1.0106  2.9593  1.1084
 1954TIP3   OH2 5867   1.188   2.317   1.144  0.3655 -0.3903  0.0404
 1954TIP3    H1 5868   1.230   2.301   1.228 -0.6635 -0.3990  0.5724
 1954TIP3    H2 5869   1.251   2.286   1.079  1.6305  0.5776  0.7461
 1955TIP3   OH2 5870   5.103   0.884   1.605 -0.0773 -0.6771 -0.2085
 1955TIP3    H1 5871   5.090   0.806   1.551  3.5777 -3.3959  2.2730
 1955TIP3    H2 5872   5.029   0.884   1.666  0.1165 -2.6682  0.1002
 1956TIP3   OH2 5873   4.127   0.096   3.031  0.3839 -0.0003  0.4552
 1956TIP3    H1 5874   4.187   0.081   3.103 -0.2231 -0.6414  0.8420
 1956TIP3    H2 5875   4.175   0.070   2.953  1.8924  2.8567  0.3087
 1957TIP3   OH2 5876   5.025   4.781   1.419  0.2151  0.2843 -0.1052
 1957TIP3    H1 5877   5.052   4.709   1.361  1.5522  1.0060 -0.4267
 1957TIP3    H2 5878   5.043   4.860   1.369  1.0468  0.9172  1.1367
 1958TIP3   OH2 5879   3.343   1.509   0.524 -0.7712  0.0516 -0.1542
 1958TIP3    H1 5880   3.301   1.448   0.584 -1.0520 -0.2869 -0.6908
 1958TIP3    H2 5881   3.280   1.520   0.453 -0.6629  0.8492 -0.1428
 1959TIP3   OH2 5882   5.376   2.218   2.098 -0.0571  0.4666  0.5167
 1959TIP3    H1 5883   5.289   2.216   2.058  0.1264 -0.3241  0.1426
 1959TIP3    H2 5884   5.360   2.204   2.191 -0.1869 -2.1771  0.1700
 1960TIP3   OH2 5885   4.670   4.943   0.400  0.2977 -0.1228  0.6353
 1960TIP3    H1 5886   4.691   5.004   0.329  1.7749  0.3373  1.4261
 1960TIP3    H2 5887   4.578   4.920   0.386 -0.0670  1.6642 -0.1448
 1961TIP3   OH2 5888   2.435   4.774   1.219 -0.1117 -0.4822  0.2321
 1961TIP3    H1 5889   2.429   4.841   1.287  0.3753 -0.8597  0.6576
 1961TIP3    H2 5890   2.506   4.804   1.162 -0.6321 -0.0809 -0.2124
 1962TIP3   OH2 5891   5.421   1.083   3.339  0.2391 -0.0299 -0.1308
 1962TIP3    H1 5892   5.494   1.029   3.370 -0.6175  0.0182  2.1096
 1962TIP3    H2 5893   5.423   1.161   3.394 -1.5410 -0.0706  0.0372
 1963TIP3   OH2 5894   5.201   1.266   0.494  0.1783 -0.1051  0.1480
 1963TIP3    H1 5895   5.220   1.181   0.534  1.7864  1.6657  3.6472
 1963TIP3    H2 5896   5.149   1.312   0.560 -1.0565  1.5143 -1.8472
 1964TIP3   OH2 5897   2.046   5.130   1.860  0.0840 -0.0897  0.9336
 1964TIP3    H1 5898   1.977   5.185   1.897  1.3525  2.0165  0.3509
 1964TIP3    H2 5899   2.117   5.136   1.923  2.3371  3.6606 -1.5264
 1965TIP3   OH2 5900   3.537   4.301   0.468 -0.6185 -0.2294 -0.4534
 1965TIP3    H1 5901   3.445   4.323   0.482 -0.2859  0.1408  1.5420
 1965TIP3    H2 5902   3.584   4.357   0.530  0.7963 -1.6041 -0.2252
 1966TIP3   OH2 5903   1.876   3.707   4.163 -0.5565  0.1958  0.4367
 1966TIP3    H1 5904   1.911   3.618   4.153  2.1998  1.3062 -0.9296
 1966TIP3    H2 5905   1.938   3.750   4.222 -0.9412  1.6301 -0.1622
 1967TIP3   OH2 5906   0.833   4.313   2.256  0.1390  0.4481 -0.1258
 1967TIP3    H1 5907   0.763   4.374   2.278  0.0578  1.8204 -3.5164
 1967TIP3    H2 5908   0.906   4.340   2.311 -1.3459  0.2976  2.0257
 1968TIP3   OH2 5909   0.795   3.986   4.227 -0.2092 -0.3357 -0.0418
 1968TIP3    H1 5910   0.750   3.931   4.291  0.0779  2.7643  3.1380
 1968TIP3    H2 5911   0.732   4.055   4.205  0.0349 -0.7886 -2.5518
 1969TIP3   OH2 5912   6.146   2.073   2.306  0.1049  0.2055 -0.6233
 1969TIP3    H1 5913   6.083   2.018   2.352 -2.0200  2.3628 -0.7186
 1969TIP3    H2 5914   6.093   2.143   2.268  2.3135  0.8886 -2.7259
 1970TIP3   OH2 5915   3.719   5.135   1.920 -0.3195  0.0128 -0.1198
 1970TIP3    H1 5916   3.720   5.055   1.972 -0.1748  0.8532  1.2260
 1970TIP3    H2 5917   3.806   5.139   1.881 -0.3892 -0.5715 -0.3411
 1971TIP3   OH2 5918   0.531   3.245   2.870 -0.1659 -0.1538  0.1300
 1971TIP3    H1 5919   0.537   3.149   2.869  0.5232 -0.1536 -2.4245
 1971TIP3    H2 5920   0.610   3.274   2.916  0.5779 -0.8090 -0.7008
 1972TIP3   OH2 5921   6.043   3.885   0.658  0.1603 -0.1407 -0.3006
 1972TIP3    H1 5922   6.133   3.884   0.690  0.3789 -3.5034 -0.6509
 1972TIP3    H2 5923   5.990   3.900   0.736  0.9486  2.1552 -0.1265
 1973TIP3   OH2 5924   5.776   1.955   3.128 -0.1617 -0.0628 -0.4796
 1973TIP3    H1 5925   5.870   1.975   3.127 -0.1187 -0.2598 -0.4433
 1973TIP3    H2 5926   5.734   2.040   3.113  0.0245  0.0034 -0.6375
 1974TIP3   OH2 5927   3.846   3.030   3.133 -0.5056  0.6328  0.5520
 1974TIP3    H1 5928   3.782   2.965   3.162 -0.8731  0.2584 -1.0194
 1974TIP3    H2 5929   3.931   2.990   3.151 -0.7241  0.2410  0.7224
 1975TIP3   OH2 5930   3.411   4.009   2.697  0.8665  0.2802  0.3302
 1975TIP3    H1 5931   3.429   4.103   2.704  1.9136  0.1952 -0.8441
 1975TIP3    H2 5932   3.383   3.983   2.785  1.3723  1.5312  0.8767
 1976TIP3   OH2 5933   0.721   5.483   3.697 -0.5434  0.1531 -0.6344
 1976TIP3    H1 5934   0.628   5.478   3.718 -0.6651 -0.5962 -1.2897
 1976TIP3    H2 5935   0.765   5.472   3.781 -1.0395 -0.1789 -0.4121
 1977TIP3   OH2 5936   1.761   5.281   1.304 -0.1118  0.2318  0.5335
 1977TIP3    H1 5937   1.697   5.250   1.240 -2.4603  1.4068  2.1407
 1977TIP3    H2 5938   1.789   5.203   1.351  0.0935 -0.3815 -0.5990
 1978TIP3   OH2 5939   2.891   5.090   0.609 -0.2155  0.2924 -0.1689
 1978TIP3    H1 5940   2.963   5.028   0.594  0.9970  1.1142  1.8196
 1978TIP3    H2 5941   2.879   5.133   0.524  2.3029  0.7552 -0.3900
 1979TIP3   OH2 5942   3.552   2.977   2.653  0.1357  0.2706  0.0901
 1979TIP3    H1 5943   3.474   3.028   2.678 -0.4366 -0.9710  0.9140
 1979TIP3    H2 5944   3.621   3.008   2.711 -0.7179 -1.2687  2.0165
 1980TIP3   OH2 5945   3.615   5.272   2.309 -0.1801  0.0535 -0.5339
 1980TIP3    H1 5946   3.689   5.220   2.277  2.1979  1.6000  2.0009
 1980TIP3    H2 5947   3.619   5.264   2.404 -2.4958  1.2702 -0.2636
 1981TIP3   OH2 5948   4.783   3.730   3.147  0.0322  0.2766 -0.1811
 1981TIP3    H1 5949   4.765   3.819   3.119  0.7611  0.3510 -0.4475
 1981TIP3    H2 5950   4.722   3.676   3.097 -1.6207  0.7437  1.2491
 1982TIP3   OH2 5951   3.510   3.832   2.014  0.3285 -0.3335 -0.0557
 1982TIP3    H1 5952   3.457   3.912   2.010 -1.2759 -1.3131  0.4103
 1982TIP3    H2 5953   3.525   3.808   1.922 -0.7682 -0.4713 -0.2130
 1983TIP3   OH2 5954   1.761   4.541   5.143  0.1693 -0.2862 -0.2806
 1983TIP3    H1 5955   1.673   4.506   5.128  0.1093 -0.9058  1.3379
 1983TIP3    H2 5956   1.819   4.480   5.099 -0.0790 -1.2909  0.7379
 1984TIP3   OH2 5957   5.051   1.217   4.482  0.1157 -0.1792 -0.7373
 1984TIP3    H1 5958   5.020   1.305   4.461  0.3364  0.2017  0.4476
 1984TIP3    H2 5959   5.062   1.217   4.577  1.6669 -0.9864 -0.8814
 1985TIP3   OH2 5960   3.105   3.725   0.260 -0.4133  0.5506  0.0061
 1985TIP3    H1 5961   3.020   3.685   0.239  0.2386 -0.9874  0.1481
 1985TIP3    H2 5962   3.119   3.703   0.352  0.9063 -0.7540 -0.4642
 1986TIP3   OH2 5963   3.949   2.308   1.344 -0.1485  0.0769  0.2653
 1986TIP3    H1 5964   3.969   2.401   1.332  1.5629 -0.1715  0.9026
 1986TIP3    H2 5965   4.007   2.280   1.415 -2.7638 -0.7948  2.2206
 1987TIP3   OH2 5966   2.984   4.218   0.475 -0.1313 -0.0049  0.0442
 1987TIP3    H1 5967   2.974   4.162   0.552  0.8185  0.0221  0.2055
 1987TIP3    H2 5968   2.950   4.166   0.403 -0.9796 -0.0525  0.4675
 1988TIP3   OH2 5969   5.782   4.295   2.037  0.2991  0.3337 -0.3871
 1988TIP3    H1 5970   5.725   4.368   2.059  0.1527  0.5812 -1.4981
 1988TIP3    H2 5971   5.734   4.247   1.969  0.3930 -0.8000  0.3130
 1989TIP3   OH2 5972   1.555   2.189   4.905  0.2078 -0.2035  0.2330
 1989TIP3    H1 5973   1.525   2.280   4.900 -1.5417 -0.7852 -0.6878
 1989TIP3    H2 5974   1.515   2.147   4.829  1.4839 -1.6158  0.3060
 1990TIP3   OH2 5975   5.638   2.070   0.312 -0.0494  0.4630  0.5996
 1990TIP3    H1 5976   5.655   2.076   0.218  2.9960  0.2432  1.0253
 1990TIP3    H2 5977   5.704   2.009   0.345 -1.9691 -0.6529  2.7201
 1991TIP3   OH2 5978   3.472   0.682   0.365  0.0074  0.3920  0.0708
 1991TIP3    H1 5979   3.555   0.655   0.404 -0.5410 -1.7160 -0.1427
 1991TIP3    H2 5980   3.479   0.778   0.359  2.0098  0.3486  0.9371
 1992TIP3   OH2 5981   2.115   3.791   3.120  0.4704 -0.2104  0.1402
 1992TIP3    H1 5982   2.067   3.711   3.099  1.1981 -0.8591  0.9178
 1992TIP3    H2 5983   2.123   3.791   3.215  0.0036  1.0775  0.2053
 1993TIP3   OH2 5984   0.657   4.826   2.388 -0.4353 -0.4551 -0.8295
 1993TIP3    H1 5985   0.574   4.806   2.345 -0.7615 -1.4414  0.2166
 1993TIP3    H2 5986   0.655   4.776   2.469 -0.1898  1.9157  0.7433
 1994TIP3   OH2 5987   3.346   2.546   1.055 -0.6054 -0.3039  0.7921
 1994TIP3    H1 5988   3.321   2.619   0.997 -0.0793  0.0101  0.9519
 1994TIP3    H2 5989   3.304   2.469   1.016  1.4075 -0.4888 -1.2522
 1995TIP3   OH2 5990   4.491   1.941   1.773  0.4846 -0.6473  0.1319
 1995TIP3    H1 5991   4.558   1.875   1.791  0.5847  0.1127  2.9486
 1995TIP3    H2 5992   4.418   1.890   1.736  2.3878 -1.5110 -2.8006
 1996TIP3   OH2 5993   1.299   0.700   3.458 -0.5727  0.4609 -0.4034
 1996TIP3    H1 5994   1.266   0.615   3.429  0.6396 -0.6896  1.4075
 1996TIP3    H2 5995   1.361   0.726   3.390 -0.3934 -0.4638 -0.6092
 1997TIP3   OH2 5996   4.433   2.553   3.744 -0.3605  0.5812  0.2375
 1997TIP3    H1 5997   4.405   2.511   3.663 -0.7354  1.7053 -0.2326
 1997TIP3    H2 5998   4.528   2.559   3.737 -0.5187  2.6820 -1.1888
 1998TIP3   OH2 5999   1.781   4.671   1.440 -0.7029  0.2808  0.1566
 1998TIP3    H1 6000   1.837   4.621   1.381 -0.8569  1.6080 -1.1627
 1998TIP3    H2 6001   1.783   4.760   1.406 -1.5273  0.9039  1.6359
 1999TIP3   OH2 6002   5.610   0.909   2.605  0.1884  0.4140 -0.2301
 1999TIP3    H1 6003   5.574   0.945   2.686  0.8918  1.6595 -0.4343
 1999TIP3    H2 6004   5.667   0.837   2.634  0.4777  0.8839  0.3971
 2000TIP3   OH2 6005   4.773   1.900   3.164  0.0930  0.4362 -0.0407
 2000TIP3    H1 6006   4.866   1.892   3.184 -0.1419 -1.1624  0.5487
 2000TIP3    H2 6007   4.752   1.822   3.114 -0.8553  0.9809 -0.5195
 2001TIP3   OH2 6008   2.210   5.123   0.585 -0.5734  0.5439  0.2006
 2001TIP3    H1 6009   2.200   5.212   0.620 -0.1308  1.6790 -2.2999
 2001TIP3    H2 6010   2.133   5.076   0.617 -0.7826  1.7933  1.6501
 2002TIP3   OH2 6011   5.227   1.107   1.516  0.5312 -0.0088  0.0827
 2002TIP3    H1 6012   5.312   1.103   1.472  1.2581 -2.0035  1.5212
 2002TIP3    H2 6013   5.204   1.016   1.531 -0.2166  0.5433  2.7291
 2003TIP3   OH2 6014   3.823   1.492   1.920  0.5050 -0.1506  0.5625
 2003TIP3    H1 6015   3.857   1.542   1.846  1.4461  3.0072  2.8773
 2003TIP3    H2 6016   3.890   1.425   1.937  1.6029  0.8011  0.1354
 2004TIP3   OH2 6017   0.145   5.892   1.270 -0.3502  0.1941 -0.3025
 2004TIP3    H1 6018   0.232   5.855   1.288 -0.1400  1.1587  0.7489
 2004TIP3    H2 6019   0.155   5.937   1.187  0.4727  1.1959  0.3121
 2005TIP3   OH2 6020   4.625   4.059   4.451  0.1454 -0.3946  0.1949
 2005TIP3    H1 6021   4.565   4.066   4.525  1.6286  0.0240  1.4044
 2005TIP3    H2 6022   4.604   4.135   4.396  0.4452  0.5064  1.2909
 2006TIP3   OH2 6023   2.724   3.289   0.048 -0.8767  0.2036 -0.0683
 2006TIP3    H1 6024   2.695   3.357  -0.012 -3.4657  0.4978  1.3852
 2006TIP3    H2 6025   2.690   3.208   0.011 -0.4289  0.0810 -0.2153
 2007TIP3   OH2 6026   6.327   3.357   4.198  0.0253  0.1870 -0.6374
 2007TIP3    H1 6027   6.282   3.410   4.264 -0.0821  0.8368 -1.2279
 2007TIP3    H2 6028   6.418   3.354   4.227 -0.1934 -0.3002  0.0268
 2008TIP3   OH2 6029   1.240   4.750   1.569  0.1534 -0.6683 -0.1137
 2008TIP3    H1 6030   1.318   4.796   1.601  0.0422 -0.6789  0.1791
 2008TIP3    H2 6031   1.224   4.683   1.635 -0.2984 -0.4555 -0.0073
 2009TIP3   OH2 6032   3.394   4.235   4.286 -0.1536 -0.5525 -0.5217
 2009TIP3    H1 6033   3.452   4.172   4.242 -0.1918  0.7976 -2.6534
 2009TIP3    H2 6034   3.317   4.184   4.311  0.3379 -1.5926 -1.0803
 2010TIP3   OH2 6035   1.289   0.936   2.258 -0.4739 -0.3397 -0.8847
 2010TIP3    H1 6036   1.352   0.913   2.326 -0.0990  0.8890 -0.7972
 2010TIP3    H2 6037   1.208   0.891   2.284 -0.5244  0.6168  0.7176
 2011TIP3   OH2 6038   4.776   0.166   0.738  0.2576  0.0941 -0.3889
 2011TIP3    H1 6039   4.727   0.094   0.699  0.9770 -0.6136 -0.0017
 2011TIP3    H2 6040   4.817   0.210   0.663  0.2092 -0.1968 -0.5878
 2012TIP3   OH2 6041   0.070   0.337   0.643 -0.2599  0.2735 -0.1997
 2012TIP3    H1 6042   0.077   0.343   0.548  2.0858 -0.4416 -0.1448
 2012TIP3    H2 6043   0.129   0.406   0.675  0.0109 -0.3701  0.7156
 2013TIP3   OH2 6044   4.393   2.827   1.118 -0.3745 -0.3762 -0.0947
 2013TIP3    H1 6045   4.486   2.846   1.107 -0.3860  0.1883  0.7394
 2013TIP3    H2 6046   4.387   2.732   1.116  0.1650 -0.4065 -0.5382
 2014TIP3   OH2 6047   5.362   0.399   0.534 -0.0103  0.0702  0.5958
 2014TIP3    H1 6048   5.342   0.485   0.496  0.2775  0.8916  2.2076
 2014TIP3    H2 6049   5.305   0.339   0.486 -1.1888  1.3503  0.3037
 2015TIP3   OH2 6050   2.968   5.264   3.198  0.0138  0.0970 -0.1675
 2015TIP3    H1 6051   2.875   5.249   3.182 -0.5534  0.2073  2.5043
 2015TIP3    H2 6052   2.998   5.312   3.121 -1.1749 -3.1558 -2.8609
 2016TIP3   OH2 6053   0.178   4.916   4.144 -0.0636  0.2154  0.2988
 2016TIP3    H1 6054   0.199   4.827   4.114 -0.3727  0.3539 -0.3662
 2016TIP3    H2 6055   0.240   4.934   4.214  0.8642 -0.0351 -0.4398
 2017TIP3   OH2 6056   4.148   5.010   2.784 -0.0054  0.9722  0.3011
 2017TIP3    H1 6057   4.184   5.093   2.815  3.1763 -0.8092  1.9921
 2017TIP3    H2 6058   4.122   4.964   2.864  1.4070 -0.8664 -0.2054
 2018TIP3   OH2 6059   2.881   2.836   2.206 -0.3422 -0.4238 -0.3175
 2018TIP3    H1 6060   2.896   2.928   2.183 -2.0190  0.6044  2.2408
 2018TIP3    H2 6061   2.968   2.797   2.204  0.4228  1.1919 -1.4470
 2019TIP3   OH2 6062   1.502   5.753   1.007 -0.2124 -0.5626  0.3219
 2019TIP3    H1 6063   1.492   5.659   1.022  2.4486 -0.5175  3.6698
 2019TIP3    H2 6064   1.449   5.794   1.076 -1.6362  0.4912 -1.3216
 2020TIP3   OH2 6065   6.325   5.642   0.351  0.6675 -0.0428 -0.1687
 2020TIP3    H1 6066   6.281   5.558   0.337 -0.4556  0.4764  0.1546
 2020TIP3    H2 6067   6.400   5.621   0.407  0.3683 -0.8205 -0.0534
 2021TIP3   OH2 6068   0.421   2.336   0.709  0.1888 -0.0591  0.7018
 2021TIP3    H1 6069   0.357   2.377   0.766 -0.8093 -0.1081 -0.3601
 2021TIP3    H2 6070   0.483   2.406   0.688  0.1972  0.1211  1.3058
 2022TIP3   OH2 6071   3.505   2.463   1.715  0.1811 -0.9023 -0.4059
 2022TIP3    H1 6072   3.559   2.508   1.650  0.5744 -2.0048 -0.8623
 2022TIP3    H2 6073   3.533   2.372   1.710 -0.5674 -1.1919  0.5342
 2023TIP3   OH2 6074   3.262   2.957   4.040 -0.3119 -0.0628 -0.9567
 2023TIP3    H1 6075   3.218   2.902   4.104  0.8126  0.0045 -0.1026
 2023TIP3    H2 6076   3.216   3.041   4.045  0.7711  0.4762  0.9908
 2024TIP3   OH2 6077   6.118   5.620   2.767 -0.4694 -0.0115  0.1159
 2024TIP3    H1 6078   6.058   5.681   2.808 -0.0350  0.7377 -0.3469
 2024TIP3    H2 6079   6.065   5.571   2.704 -0.4699  1.1083 -0.7755
 2025TIP3   OH2 6080   2.757   3.205   5.047 -0.0901  0.3149  0.5967
 2025TIP3    H1 6081   2.667   3.176   5.061 -0.6879  1.9922  0.4615
 2025TIP3    H2 6082   2.789   3.150   4.976 -0.1238 -1.9981  2.2479
 2026TIP3   OH2 6083   2.385   1.858   4.764  0.1185 -0.3756 -0.0492
 2026TIP3    H1 6084   2.417   1.943   4.734  0.2344  0.1973  1.5890
 2026TIP3    H2 6085   2.432   1.843   4.846 -1.2317 -1.1672  0.6120
 2027TIP3   OH2 6086   1.993   3.471   0.181 -0.0466 -0.1737 -0.3212
 2027TIP3    H1 6087   2.069   3.506   0.134 -0.7403  0.2913 -1.1116
 2027TIP3    H2 6088   1.926   3.539   0.173 -1.1455 -1.3253 -1.1889
 2028TIP3   OH2 6089   5.679   3.223   4.724 -0.0904 -0.1200 -0.3257
 2028TIP3    H1 6090   5.595   3.223   4.769 -0.2948  0.6811 -0.6965
 2028TIP3    H2 6091   5.657   3.232   4.631  0.4194  0.8611 -0.3649
 2029TIP3   OH2 6092   4.936   4.648   4.579  0.1662  0.2731  0.1039
 2029TIP3    H1 6093   4.890   4.671   4.498  1.4355  1.7525 -0.2705
 2029TIP3    H2 6094   5.008   4.592   4.550  0.1768  0.1785  0.3131
 2030TIP3   OH2 6095   1.703   3.073   1.521  0.3304 -0.5835  0.1663
 2030TIP3    H1 6096   1.712   2.979   1.510 -2.5530 -1.2314  2.2304
 2030TIP3    H2 6097   1.620   3.094   1.478 -0.1353  0.6048  1.5645
 2031TIP3   OH2 6098   6.056   0.487   0.052 -0.3595  0.2716  0.3133
 2031TIP3    H1 6099   5.974   0.449   0.020  0.4538 -2.0263  0.7718
 2031TIP3    H2 6100   6.043   0.494   0.147  0.7938 -2.5879  0.7919
 2032TIP3   OH2 6101   4.619   5.529   0.668  0.4159 -0.1830  0.1622
 2032TIP3    H1 6102   4.697   5.584   0.663  0.8903 -0.7591  0.9413
 2032TIP3    H2 6103   4.595   5.513   0.577  1.2419 -0.0372 -0.0874
 2033TIP3   OH2 6104   6.036   4.690   2.309 -0.3803  0.1984  0.6976
 2033TIP3    H1 6105   5.956   4.737   2.288 -0.2906  0.8684  1.7821
 2033TIP3    H2 6106   6.031   4.609   2.258 -1.3750  0.5770  0.1746
 2034TIP3   OH2 6107   5.218   0.192   2.259 -0.3336 -0.2606  0.0080
 2034TIP3    H1 6108   5.277   0.265   2.239 -0.7590 -0.2565 -1.3376
 2034TIP3    H2 6109   5.131   0.228   2.244 -0.5954 -0.7698  0.3103
 2035TIP3   OH2 6110   6.173   3.330   0.258  0.1073 -0.2854 -0.2894
 2035TIP3    H1 6111   6.168   3.397   0.326  0.1414  0.0602 -0.6234
 2035TIP3    H2 6112   6.211   3.375   0.183  3.8002 -1.5580  0.5899
 2036TIP3   OH2 6113   4.624   5.983   1.341  0.2046 -0.0320 -0.5144
 2036TIP3    H1 6114   4.656   5.895   1.318 -0.5383 -0.2665 -0.7143
 2036TIP3    H2 6115   4.639   5.990   1.435 -2.6755 -1.7171  0.2112
 2037TIP3   OH2 6116   6.021   3.501   3.880  0.0376 -0.1812  0.1951
 2037TIP3    H1 6117   6.116   3.513   3.891  0.5095 -2.5483 -0.6462
 2037TIP3    H2 6118   6.001   3.546   3.798  0.9975 -1.7239 -0.9662
 2038TIP3   OH2 6119   0.863   0.215   4.860  0.5501  0.1284  0.0392
 2038TIP3    H1 6120   0.950   0.252   4.879  0.3569  0.0571  1.1092
 2038TIP3    H2 6121   0.873   0.121   4.877 -0.0191  0.2738  1.2824
 2039TIP3   OH2 6122   1.916   1.749   0.619  0.0763 -1.1190  0.2462
 2039TIP3    H1 6123   1.992   1.694   0.640 -0.5371 -2.0677  0.0207
 2039TIP3    H2 6124   1.934   1.784   0.532  0.8924 -0.2046  0.7640
 2040TIP3   OH2 6125   3.378   1.687   4.229  0.2455 -0.7977  0.3693
 2040TIP3    H1 6126   3.404   1.620   4.165 -1.5714 -0.6342 -0.5990
 2040TIP3    H2 6127   3.345   1.759   4.177 -0.5647 -0.3349  1.4848
 2041TIP3   OH2 6128   1.117   1.857   3.940 -0.0728  0.6023 -0.2258
 2041TIP3    H1 6129   1.206   1.823   3.925  0.2163  1.4295 -0.4135
 2041TIP3    H2 6130   1.075   1.852   3.854 -0.7067 -1.1284  0.1318
 2042TIP3   OH2 6131   4.579   2.426   1.912  0.3674  0.0892 -0.4814
 2042TIP3    H1 6132   4.640   2.471   1.854  0.1567 -0.5085 -1.1736
 2042TIP3    H2 6133   4.544   2.496   1.968  1.4790  0.4745 -0.2496
 2043TIP3   OH2 6134   4.584   2.962   0.522 -0.1456  0.4607  0.2040
 2043TIP3    H1 6135   4.537   3.039   0.552 -4.1800 -1.5882 -0.0610
 2043TIP3    H2 6136   4.515   2.900   0.498  2.8091 -2.8715 -0.6106
 2044TIP3   OH2 6137   1.552   4.182   0.287 -0.1188  0.1520 -0.4395
 2044TIP3    H1 6138   1.544   4.087   0.297 -4.1969  0.2148 -1.5798
 2044TIP3    H2 6139   1.485   4.206   0.222 -0.0047  3.9407  0.5951
 2045TIP3   OH2 6140   4.422   4.058   3.746  0.5068 -0.3447 -0.1123
 2045TIP3    H1 6141   4.473   4.011   3.812  1.7183 -0.3016 -0.9678
 2045TIP3    H2 6142   4.483   4.069   3.673  0.3625  2.6044  0.0618
 2046TIP3   OH2 6143   3.226   1.690   4.464 -0.4537 -0.0918 -0.1127
 2046TIP3    H1 6144   3.286   1.712   4.536 -1.9794 -1.4076  1.6693
 2046TIP3    H2 6145   3.281   1.690   4.386  1.3267  1.2202  1.0676
 2047TIP3   OH2 6146   4.081   3.380   1.258 -0.0340  0.2833 -0.4724
 2047TIP3    H1 6147   4.144   3.431   1.310  0.5729 -0.2122 -0.7239
 2047TIP3    H2 6148   4.017   3.445   1.229 -0.5807  0.5320  1.1632
 2048TIP3   OH2 6149   1.857   4.424   4.491  0.2066 -0.7882 -0.3381
 2048TIP3    H1 6150   1.774   4.380   4.473  0.7024 -1.7269 -0.4106
 2048TIP3    H2 6151   1.837   4.517   4.482 -0.8222 -0.9986 -0.4054
 2049TIP3   OH2 6152   0.199   4.148   2.602  0.1324 -0.5308 -0.5064
 2049TIP3    H1 6153   0.267   4.113   2.659 -1.7089 -1.5902  1.1609
 2049TIP3    H2 6154   0.152   4.210   2.657 -0.4112 -0.0043 -1.5481
 2050TIP3   OH2 6155   4.476   5.250   3.111 -0.6312 -0.4852 -0.1154
 2050TIP3    H1 6156   4.570   5.266   3.108 -1.0616  2.6063  0.0615
 2050TIP3    H2 6157   4.463   5.194   3.188  0.8512  1.1732  1.4126
 2051TIP3   OH2 6158   1.693   4.671   4.688 -0.1405  0.4009  0.3563
 2051TIP3    H1 6159   1.610   4.708   4.659 -0.6079  0.0480  1.2108
 2051TIP3    H2 6160   1.703   4.703   4.778  0.7828  0.6544  0.1733
 2052TIP3   OH2 6161   2.383   5.807   4.482 -0.4064  0.7230 -0.3085
 2052TIP3    H1 6162   2.367   5.767   4.396  0.1148 -3.5174  1.3349
 2052TIP3    H2 6163   2.388   5.901   4.464 -2.3029  0.2450 -4.5720
 2053TIP3   OH2 6164   1.606   2.486   0.701 -0.3136 -0.0878  0.2098
 2053TIP3    H1 6165   1.570   2.543   0.633 -0.9427  0.1813  0.7623
 2053TIP3    H2 6166   1.657   2.544   0.756  0.1237 -0.2918  0.0264
 2054TIP3   OH2 6167   0.103   3.675   4.385 -0.3076 -0.4048  0.2105
 2054TIP3    H1 6168   0.042   3.601   4.394  1.4430 -1.8140  1.2004
 2054TIP3    H2 6169   0.078   3.735   4.454 -1.1067 -0.5471  0.0594
 2055TIP3   OH2 6170   3.908   3.280   1.474  0.0896  0.6271 -0.1128
 2055TIP3    H1 6171   3.979   3.288   1.409 -0.1684 -1.3968 -0.7100
 2055TIP3    H2 6172   3.889   3.186   1.476 -0.3226  0.7143  2.4846
 2056TIP3   OH2 6173   3.011   4.614   3.021  0.1760  0.0839  0.1017
 2056TIP3    H1 6174   3.037   4.534   2.974  3.8731  1.2540 -0.1803
 2056TIP3    H2 6175   3.024   4.684   2.958  1.1272  1.2824  1.5648
 2057TIP3   OH2 6176   0.460   4.023   4.015 -0.6116 -0.1641  0.2420
 2057TIP3    H1 6177   0.467   4.066   4.100 -0.4053 -0.7124  0.5023
 2057TIP3    H2 6178   0.389   4.070   3.971 -0.0973  0.7458  0.3464
 2058TIP3   OH2 6179   2.354   3.524   3.354 -0.1921 -0.1614 -0.4108
 2058TIP3    H1 6180   2.376   3.506   3.263 -0.9984 -1.3125 -0.4001
 2058TIP3    H2 6181   2.439   3.540   3.396  0.3376 -1.1923 -1.0409
 2059TIP3   OH2 6182   4.423   5.237   0.151  0.7449  0.1938 -0.3922
 2059TIP3    H1 6183   4.501   5.273   0.110  0.8353  1.0650  0.5115
 2059TIP3    H2 6184   4.450   5.216   0.241 -0.2644  1.3440  0.2197
 2060TIP3   OH2 6185   3.063   2.086   0.841 -0.0458  0.1553  0.1583
 2060TIP3    H1 6186   3.011   2.008   0.861 -1.0593  0.9151  0.5656
 2060TIP3    H2 6187   3.001   2.146   0.800  1.0162  0.2905 -1.3069
 2061TIP3   OH2 6188   2.747   0.765   1.327 -0.1225 -0.1291 -0.3834
 2061TIP3    H1 6189   2.705   0.770   1.413 -1.3849  1.5871 -1.0464
 2061TIP3    H2 6190   2.836   0.797   1.342 -0.8106  1.7059  0.0491
 2062TIP3   OH2 6191   3.696   1.919   0.510  0.5241  0.1562  0.1652
 2062TIP3    H1 6192   3.758   1.991   0.520  0.1607  0.6597 -1.0155
 2062TIP3    H2 6193   3.653   1.912   0.595  1.7423  0.2055  0.8132
 2063TIP3   OH2 6194   0.476   3.829   3.394 -0.5852  0.0105 -0.2923
 2063TIP3    H1 6195   0.404   3.783   3.438  0.2329  0.4686  1.6495
 2063TIP3    H2 6196   0.537   3.850   3.465  0.3585  1.6919 -1.5407
 2064TIP3   OH2 6197   5.831   0.658   4.915 -0.2490  0.8490  0.2033
 2064TIP3    H1 6198   5.923   0.668   4.892 -0.5190  1.3272 -0.6926
 2064TIP3    H2 6199   5.790   0.739   4.887 -1.1171  0.2504 -0.3204
 2065TIP3   OH2 6200   2.945   5.802   2.516 -0.2778  0.5342 -0.8917
 2065TIP3    H1 6201   2.870   5.744   2.508 -1.3312  1.7408 -0.1472
 2065TIP3    H2 6202   2.977   5.788   2.605  1.7618 -1.5210 -1.8453
 2066TIP3   OH2 6203   2.076   5.952   1.498 -0.0238 -0.6533  0.3905
 2066TIP3    H1 6204   2.013   5.916   1.560 -1.8794  1.7138  0.0156
 2066TIP3    H2 6205   2.076   5.890   1.425 -1.4098 -1.0293  0.6846
 2067TIP3   OH2 6206   4.288   4.996   0.030  0.3003  0.0449  0.3084
 2067TIP3    H1 6207   4.334   5.068   0.074 -0.9894  0.2502  1.3819
 2067TIP3    H2 6208   4.278   5.026  -0.060  1.5174  0.3450  0.2572
 2068TIP3   OH2 6209   5.486   3.907   1.751 -0.7372 -0.3920 -0.1503
 2068TIP3    H1 6210   5.467   3.964   1.826 -1.3598 -0.3830 -0.3125
 2068TIP3    H2 6211   5.526   3.829   1.789  0.4018  0.2566  0.0542
 2069TIP3   OH2 6212   1.655   5.885   2.214 -0.0013  0.0402 -0.5115
 2069TIP3    H1 6213   1.563   5.871   2.195  0.0821 -1.9711  0.3288
 2069TIP3    H2 6214   1.656   5.958   2.276 -1.2560 -1.2203  1.0900
 2070TIP3   OH2 6215   4.551   0.164   3.650 -0.4065 -0.9216  0.5753
 2070TIP3    H1 6216   4.537   0.101   3.579 -0.0435 -0.9208  0.5037
 2070TIP3    H2 6217   4.462   0.183   3.682 -0.9548  1.6741 -2.0885
 2071TIP3   OH2 6218   0.043   1.364   4.674 -0.1453  0.2617  0.6765
 2071TIP3    H1 6219   0.100   1.291   4.651  0.1919  0.2259  1.6132
 2071TIP3    H2 6220   0.075   1.395   4.758 -1.3663  0.3855  1.1188
 2072TIP3   OH2 6221   1.410   4.001   4.309  0.1388  0.1284  0.5081
 2072TIP3    H1 6222   1.333   3.945   4.317 -0.6437  1.2131  0.8176
 2072TIP3    H2 6223   1.479   3.943   4.277 -1.2240 -0.5402 -1.4016
 2073TIP3   OH2 6224   3.550   4.584   4.392  0.3581 -0.3462 -0.0216
 2073TIP3    H1 6225   3.513   4.669   4.415 -0.9303 -0.6214 -0.9426
 2073TIP3    H2 6226   3.501   4.556   4.315  1.1650 -1.6566 -0.1036
 2074TIP3   OH2 6227   3.423   5.957   3.442  0.1930  0.5783  0.0371
 2074TIP3    H1 6228   3.432   5.872   3.485  0.7559  0.2400 -0.7206
 2074TIP3    H2 6229   3.330   5.965   3.424  0.3059 -0.6073 -1.2918
 2075TIP3   OH2 6230   5.741   4.088   2.200 -0.0054 -0.6865 -0.4325
 2075TIP3    H1 6231   5.738   4.156   2.133  0.6678 -0.7649 -0.5523
 2075TIP3    H2 6232   5.818   4.036   2.177 -0.3801 -1.3519 -0.2130
 2076TIP3   OH2 6233   5.067   2.420   0.313 -0.5126  0.2061  0.1913
 2076TIP3    H1 6234   5.021   2.409   0.230  1.2954 -1.5366 -0.6751
 2076TIP3    H2 6235   5.153   2.381   0.298  0.6630  1.7716  2.2409
 2077TIP3   OH2 6236   3.430   3.522   4.453  0.3991 -0.4527  0.3894
 2077TIP3    H1 6237   3.436   3.427   4.458 -2.1356 -0.6918  0.3810
 2077TIP3    H2 6238   3.374   3.539   4.378  1.8941  1.1529 -0.4406
 2078TIP3   OH2 6239   2.358   4.150   5.087 -0.6365 -0.0275 -0.4320
 2078TIP3    H1 6240   2.273   4.130   5.046  0.6952 -3.2107 -1.9625
 2078TIP3    H2 6241   2.361   4.094   5.164  0.8627 -1.5741 -1.5603
 2079TIP3   OH2 6242   5.442   0.271   4.863 -0.1654  0.2073  0.0132
 2079TIP3    H1 6243   5.359   0.239   4.897  0.1449 -1.1902 -0.4659
 2079TIP3    H2 6244   5.452   0.226   4.779  1.3520 -0.1422  0.3448
 2080TIP3   OH2 6245   5.646   3.164   0.668  0.2068 -0.1226  0.0396
 2080TIP3    H1 6246   5.578   3.158   0.601  0.5620  0.5350 -0.3874
 2080TIP3    H2 6247   5.714   3.219   0.629  1.3940 -1.4776  0.1272
 2081TIP3   OH2 6248   4.008   0.165   2.194 -0.4723  0.1397 -0.8091
 2081TIP3    H1 6249   3.975   0.141   2.281 -2.4847 -0.7351 -1.7553
 2081TIP3    H2 6250   4.080   0.104   2.179 -0.6932 -0.3045 -0.1249
 2082TIP3   OH2 6251   4.735   4.937   1.830 -0.2481  0.2166 -0.3641
 2082TIP3    H1 6252   4.730   4.904   1.920  0.7951  0.7947 -0.0797
 2082TIP3    H2 6253   4.721   4.859   1.775  0.7552 -0.4465  0.2951
 2083TIP3   OH2 6254   0.421   3.147   2.643 -0.2476 -0.3307  0.2060
 2083TIP3    H1 6255   0.380   3.233   2.633  0.0914 -0.2418 -0.5236
 2083TIP3    H2 6256   0.476   3.138   2.565  2.8287  0.4804  2.0686
 2084TIP3   OH2 6257   4.164   3.047   0.624  0.2527 -0.2172 -0.3932
 2084TIP3    H1 6258   4.183   3.045   0.530  0.6259  0.6260 -0.3490
 2084TIP3    H2 6259   4.237   3.095   0.662 -0.1127 -0.1751  0.2741
 2085TIP3   OH2 6260   3.011   0.843   5.146 -0.3445 -0.8298  0.2068
 2085TIP3    H1 6261   3.055   0.844   5.230  0.0763 -1.4315 -0.0074
 2085TIP3    H2 6262   3.065   0.787   5.090 -1.3072 -1.4948 -0.0866
 2086TIP3   OH2 6263   6.073   4.297   1.906 -0.1153  0.5403 -0.0569
 2086TIP3    H1 6264   6.069   4.367   1.842 -1.7150  0.7125  0.1993
 2086TIP3    H2 6265   6.003   4.316   1.968 -0.3897 -1.1107  0.1950
 2087TIP3   OH2 6266   0.634   4.567   4.781 -0.3858 -0.1524  0.0016
 2087TIP3    H1 6267   0.590   4.482   4.773  0.3860 -0.8530  2.4168
 2087TIP3    H2 6268   0.727   4.547   4.775 -0.2268  0.7275 -0.6627
 2088TIP3   OH2 6269   0.312   3.318   1.926 -0.4019 -0.4433 -0.3139
 2088TIP3    H1 6270   0.378   3.340   1.860 -1.5160  0.7941 -1.0514
 2088TIP3    H2 6271   0.346   3.238   1.967  0.5556 -0.9977 -2.0529
 2089TIP3   OH2 6272   4.318   3.421   2.742 -0.6526  0.3821  0.4671
 2089TIP3    H1 6273   4.243   3.478   2.726 -1.5395 -0.5891  1.0655
 2089TIP3    H2 6274   4.334   3.428   2.836  0.1219  0.6980  0.3255
 2090TIP3   OH2 6275   2.145   5.944   2.801 -0.7922 -0.6096 -0.1613
 2090TIP3    H1 6276   2.178   5.855   2.792 -1.9147 -1.0122 -0.4413
 2090TIP3    H2 6277   2.125   5.971   2.712  0.2575  0.2198 -0.1628
 2091TIP3   OH2 6278   4.396   0.943   2.256 -0.3369 -0.3427  0.1767
 2091TIP3    H1 6279   4.471   0.924   2.312 -0.9068  1.3702  1.5908
 2091TIP3    H2 6280   4.429   0.930   2.167  1.9984  1.4620  0.6943
 2092TIP3   OH2 6281   1.480   1.749   3.362  0.2677 -0.5302  0.0586
 2092TIP3    H1 6282   1.474   1.818   3.427  1.5850 -0.9441  0.6475
 2092TIP3    H2 6283   1.499   1.670   3.412 -0.0629 -1.1141 -0.7077
 2093TIP3   OH2 6284   6.189   0.292   4.976  0.2660  0.4552  0.4871
 2093TIP3    H1 6285   6.180   0.248   4.892  1.0127 -1.0596  1.1585
 2093TIP3    H2 6286   6.121   0.253   5.031  2.5839 -1.9407  1.8802
 2094TIP3   OH2 6287   4.997   5.907   4.897 -0.1905 -0.2438 -0.0829
 2094TIP3    H1 6288   4.912   5.944   4.871 -0.9534 -1.8172  0.0315
 2094TIP3    H2 6289   5.000   5.919   4.992  0.3077  0.9387 -0.2285
 2095TIP3   OH2 6290   4.805   0.787   3.532  0.8005 -0.1949 -0.8865
 2095TIP3    H1 6291   4.782   0.791   3.439 -0.5259  1.3178 -0.5440
 2095TIP3    H2 6292   4.724   0.761   3.575  0.1004  3.1817  0.1691
 2096TIP3   OH2 6293   3.775   3.566   0.291 -0.1603  0.0736 -0.5651
 2096TIP3    H1 6294   3.756   3.639   0.349 -0.5773  0.1375 -0.7785
 2096TIP3    H2 6295   3.840   3.601   0.229 -2.1613  1.0531 -2.2134
 2097TIP3   OH2 6296   2.334   1.081   4.547 -0.0050  0.2043  0.2110
 2097TIP3    H1 6297   2.320   1.002   4.598  0.3881 -0.1306 -0.1896
 2097TIP3    H2 6298   2.423   1.072   4.512  1.4794  2.3750  2.9646
 2098TIP3   OH2 6299   5.505   4.337   4.019  0.2498 -0.4710 -0.0285
 2098TIP3    H1 6300   5.420   4.381   4.026  0.2559  0.0153 -2.1782
 2098TIP3    H2 6301   5.569   4.408   4.022  0.3724 -0.4890 -1.3967
 2099TIP3   OH2 6302   1.634   4.676   3.655  0.1218 -0.1832  0.3949
 2099TIP3    H1 6303   1.638   4.771   3.645  0.0299 -0.2152  0.0424
 2099TIP3    H2 6304   1.725   4.650   3.668  0.1663 -0.0652  0.3235
 2100TIP3   OH2 6305   3.994   1.733   1.201 -0.3665 -0.4587  0.1339
 2100TIP3    H1 6306   3.929   1.800   1.178  0.9985  0.3392 -1.7050
 2100TIP3    H2 6307   4.070   1.753   1.145  1.0476 -2.0299  1.3719
 2101TIP3   OH2 6308   0.510   2.897   2.369  0.1625  0.0636  0.0742
 2101TIP3    H1 6309   0.506   2.992   2.378  0.5453  0.0532  0.3240
 2101TIP3    H2 6310   0.564   2.867   2.442 -1.1397 -0.4768  0.8533
 2102TIP3   OH2 6311   2.256   5.374   2.778 -0.0304 -0.5840 -0.0620
 2102TIP3    H1 6312   2.238   5.318   2.702 -0.6731 -1.6111  0.8259
 2102TIP3    H2 6313   2.195   5.344   2.845  2.2321 -1.4965  1.7511
 2103TIP3   OH2 6314   0.862   3.540   2.481 -0.4000 -0.2677 -0.4047
 2103TIP3    H1 6315   0.869   3.628   2.520 -1.8120  0.0447 -0.7866
 2103TIP3    H2 6316   0.923   3.487   2.532 -1.0053  0.4926  1.1993
 2104TIP3   OH2 6317   0.943   5.837   1.126  0.8322  0.8161  0.3078
 2104TIP3    H1 6318   0.937   5.862   1.034  0.1143 -0.2792  0.0382
 2104TIP3    H2 6319   0.874   5.888   1.169 -0.2478 -0.1976 -0.1444
 2105TIP3   OH2 6320   1.680   3.285   2.831  0.2481  0.0560 -0.3183
 2105TIP3    H1 6321   1.692   3.201   2.876 -1.8332  0.1466  0.5280
 2105TIP3    H2 6322   1.709   3.269   2.742  0.8092 -1.2757  0.0756
 2106TIP3   OH2 6323   0.519   2.418   3.216 -0.0137 -0.0650  0.3123
 2106TIP3    H1 6324   0.598   2.399   3.165 -0.5211 -0.8954 -0.1933
 2106TIP3    H2 6325   0.522   2.356   3.289 -0.8541 -1.0209 -0.4410
 2107TIP3   OH2 6326   4.699   5.553   3.356 -0.1311  0.4494 -0.6662
 2107TIP3    H1 6327   4.611   5.535   3.323 -0.7420 -0.9645  1.5169
 2107TIP3    H2 6328   4.686   5.580   3.446  1.7509 -1.9739  0.4477
 2108TIP3   OH2 6329   3.847   6.000   2.350 -0.0156 -0.0646 -0.3875
 2108TIP3    H1 6330   3.924   6.016   2.295  0.6103 -0.8619  0.2159
 2108TIP3    H2 6331   3.825   5.908   2.333  0.7283 -0.6024  1.2977
 2109TIP3   OH2 6332   3.315   1.181   2.300  0.4778 -0.3606  0.0322
 2109TIP3    H1 6333   3.334   1.263   2.256  0.1722 -0.3904 -0.1544
 2109TIP3    H2 6334   3.231   1.196   2.344  0.1480 -0.7558 -0.4609
 2110TIP3   OH2 6335   5.759   2.688   2.507 -0.4491  0.1792  0.4388
 2110TIP3    H1 6336   5.681   2.687   2.452 -1.1766  0.3474  1.4408
 2110TIP3    H2 6337   5.826   2.728   2.452 -0.9077 -0.4798 -0.6333
 2111TIP3   OH2 6338   1.039   0.462   3.899 -0.3021  0.3142  0.3253
 2111TIP3    H1 6339   1.048   0.503   3.813  0.2830  2.3205  1.2662
 2111TIP3    H2 6340   0.993   0.528   3.952 -0.8584 -0.9655  1.4921
 2112TIP3   OH2 6341   4.002   2.512   0.175  0.0286  0.1534 -0.4135
 2112TIP3    H1 6342   4.085   2.475   0.147  0.4231 -1.5185  2.5541
 2112TIP3    H2 6343   3.936   2.452   0.141  0.4204 -1.2384  1.1676
 2113TIP3   OH2 6344   3.273   4.246   3.878 -0.1902 -0.2187 -0.0367
 2113TIP3    H1 6345   3.314   4.163   3.902  0.6514  0.2310  0.1254
 2113TIP3    H2 6346   3.346   4.306   3.863 -0.7710  1.0504  1.8155
 2114TIP3   OH2 6347   3.619   3.804   4.757  0.1474  0.2637  0.2159
 2114TIP3    H1 6348   3.675   3.738   4.717 -0.6724 -0.5593  0.3780
 2114TIP3    H2 6349   3.533   3.761   4.764 -0.2871  1.1909  0.7357
 2115TIP3   OH2 6350   3.977   1.840   5.111  0.1400  0.1134  0.5440
 2115TIP3    H1 6351   3.942   1.881   5.190 -0.4890  0.2647  0.1927
 2115TIP3    H2 6352   3.900   1.814   5.061  0.5275 -0.7111  0.3520
 2116TIP3   OH2 6353   3.106   5.461   1.662 -0.3924 -0.1438 -0.6938
 2116TIP3    H1 6354   3.122   5.519   1.587 -1.0943  0.1759 -0.6075
 2116TIP3    H2 6355   3.129   5.374   1.630 -2.4709 -0.3033 -1.9272
 2117TIP3   OH2 6356   2.996   4.752   4.640 -0.2005 -0.1856 -0.1185
 2117TIP3    H1 6357   3.074   4.698   4.632 -0.0880 -0.4707  2.2099
 2117TIP3    H2 6358   3.029   4.840   4.658 -0.4146  0.1444 -1.2738
 2118TIP3   OH2 6359   2.254   1.891   0.830 -0.3177  0.2142  0.0874
 2118TIP3    H1 6360   2.218   1.888   0.919  1.4448  1.2023  0.8678
 2118TIP3    H2 6361   2.322   1.824   0.830 -0.8768 -0.3778 -0.8221
 2119TIP3   OH2 6362   6.344   4.434   1.875  0.5421  0.1507  0.1029
 2119TIP3    H1 6363   6.293   4.498   1.926  0.2668 -0.2433  0.3283
 2119TIP3    H2 6364   6.368   4.481   1.795 -1.9211 -0.2472 -0.9705
 2120TIP3   OH2 6365   1.694   5.802   1.944 -0.3428 -0.4503  0.4392
 2120TIP3    H1 6366   1.702   5.816   2.038 -0.3628 -0.1121  0.3929
 2120TIP3    H2 6367   1.604   5.774   1.931 -0.1320 -1.2361  0.6047
 2121TIP3   OH2 6368   0.142   4.905   1.135 -0.5751  0.3584  0.2671
 2121TIP3    H1 6369   0.049   4.888   1.151 -0.6795 -0.1976 -0.8232
 2121TIP3    H2 6370   0.162   4.854   1.056 -0.1212  2.9233 -1.3801
 2122TIP3   OH2 6371   4.814   5.572   4.940  0.1248 -0.3161  0.1476
 2122TIP3    H1 6372   4.887   5.606   4.992  0.5080 -0.4274 -0.3082
 2122TIP3    H2 6373   4.784   5.646   4.888  0.4079 -0.4568 -0.2211
 2123TIP3   OH2 6374   0.792   0.977   0.569 -0.1260 -0.4692  0.3208
 2123TIP3    H1 6375   0.807   0.990   0.662  0.5033  1.6488 -0.0283
 2123TIP3    H2 6376   0.844   0.899   0.547  1.2599  0.1224  1.3828
 2124TIP3   OH2 6377   0.561   0.280   1.499 -0.7276  0.1777  0.2040
 2124TIP3    H1 6378   0.490   0.343   1.510 -1.1169 -0.1784 -0.2220
 2124TIP3    H2 6379   0.563   0.262   1.405 -0.4799 -0.2779  0.2918
 2125TIP3   OH2 6380   5.199   3.963   4.512  0.1331 -0.6201 -0.0625
 2125TIP3    H1 6381   5.177   3.944   4.604 -1.9908 -1.7315 -0.7369
 2125TIP3    H2 6382   5.160   3.891   4.463  1.5412 -0.2357 -1.8491
 2126TIP3   OH2 6383   3.256   2.436   4.387 -0.6733  0.1091  0.5238
 2126TIP3    H1 6384   3.291   2.523   4.372 -1.1156  0.2776  0.4636
 2126TIP3    H2 6385   3.161   2.445   4.377 -0.5525 -0.9864 -2.6096
 2127TIP3   OH2 6386   2.718   1.302   2.733 -0.1392  0.6088 -0.0861
 2127TIP3    H1 6387   2.727   1.307   2.638 -1.1747  1.6860 -0.1505
 2127TIP3    H2 6388   2.737   1.211   2.754  0.4096  0.4305 -1.2911
 2128TIP3   OH2 6389   3.896   0.259   3.860 -0.3443  0.0733  0.0768
 2128TIP3    H1 6390   3.957   0.275   3.932 -1.3789  0.5076  0.8842
 2128TIP3    H2 6391   3.822   0.214   3.900 -1.7477  1.8893 -0.3176
 2129TIP3   OH2 6392   4.100   0.755   3.675 -0.0520 -0.1756 -0.8749
 2129TIP3    H1 6393   4.145   0.687   3.625 -0.0332  0.0449 -1.1592
 2129TIP3    H2 6394   4.166   0.788   3.735  0.2563  0.3366 -1.4783
 2130TIP3   OH2 6395   0.539   2.716   3.534  0.3100 -0.5652  0.9344
 2130TIP3    H1 6396   0.598   2.767   3.479 -0.3584 -1.8852 -1.0847
 2130TIP3    H2 6397   0.548   2.756   3.621  1.0062  1.9283 -0.1996
 2131TIP3   OH2 6398   4.828   4.962   4.576 -0.6096  0.2386  0.1335
 2131TIP3    H1 6399   4.834   5.028   4.507  3.1086  0.6434  0.6230
 2131TIP3    H2 6400   4.871   4.885   4.540  0.1911  0.0146  1.4843
 2132TIP3   OH2 6401   0.135   2.705   1.678  0.5129 -0.2283 -0.8433
 2132TIP3    H1 6402   0.125   2.767   1.606  0.3064 -1.4315 -1.8920
 2132TIP3    H2 6403   0.219   2.661   1.660 -0.1139 -1.3852 -1.0635
 2133TIP3   OH2 6404   4.954   0.449   2.567 -0.0449  0.3870 -0.5411
 2133TIP3    H1 6405   5.044   0.422   2.547  0.4885  1.7435 -0.0603
 2133TIP3    H2 6406   4.912   0.370   2.601  1.3199  0.0172  0.3583
 2134TIP3   OH2 6407   2.730   4.679   3.924 -0.6542 -0.4142  0.8575
 2134TIP3    H1 6408   2.740   4.615   3.853 -2.8284 -0.9738  0.9725
 2134TIP3    H2 6409   2.741   4.764   3.881 -1.3721 -0.7637 -0.0742
 2135TIP3   OH2 6410   1.487   5.704   3.812  1.0515  0.5592  0.1897
 2135TIP3    H1 6411   1.554   5.659   3.760 -0.7586 -1.2970 -0.7001
 2135TIP3    H2 6412   1.410   5.704   3.755  0.0306  1.8115  1.5165
 2136TIP3   OH2 6413   3.910   0.963   3.568  0.2803 -0.0550 -0.3958
 2136TIP3    H1 6414   3.860   0.891   3.607  1.4287  0.8691  3.1577
 2136TIP3    H2 6415   3.998   0.927   3.556  0.3160  0.1224 -0.6619
 2137TIP3   OH2 6416   0.933   2.371   0.402 -0.0708 -0.1567 -0.2963
 2137TIP3    H1 6417   0.969   2.309   0.465  1.7498 -1.1365 -2.1682
 2137TIP3    H2 6418   0.986   2.358   0.323 -1.6133  1.6746 -1.7264
 2138TIP3   OH2 6419   2.511   2.992   1.446  0.1261  0.1581  0.0597
 2138TIP3    H1 6420   2.427   3.035   1.460 -0.4994 -1.2289  0.6703
 2138TIP3    H2 6421   2.490   2.899   1.437  1.6225 -0.2484  0.4828
 2139TIP3   OH2 6422   4.528   0.855   0.052 -0.0654  0.0327 -0.1650
 2139TIP3    H1 6423   4.527   0.923   0.119 -0.8261  1.7342 -1.8421
 2139TIP3    H2 6424   4.439   0.854   0.017 -0.0614 -1.8319 -0.2180
 2140TIP3   OH2 6425   2.516   5.397   4.408  0.3397  0.0794 -0.2992
 2140TIP3    H1 6426   2.461   5.391   4.487  1.2828  0.7624  0.4357
 2140TIP3    H2 6427   2.579   5.325   4.418 -0.6039 -0.9269 -1.3154
 2141TIP3   OH2 6428   3.481   0.706   2.080 -0.2146 -0.1845  0.6281
 2141TIP3    H1 6429   3.431   0.785   2.095 -2.6936 -1.8497  1.8949
 2141TIP3    H2 6430   3.471   0.687   1.987  1.1969  1.3934  0.0997
 2142TIP3   OH2 6431   0.176   5.355   2.416  0.2275  0.3796  0.0408
 2142TIP3    H1 6432   0.263   5.394   2.428 -0.5018  2.3305 -0.5699
 2142TIP3    H2 6433   0.185   5.302   2.337  1.4859 -1.5628  1.3938
 2143TIP3   OH2 6434   0.572   4.503   2.317 -0.0774 -0.3179  0.1064
 2143TIP3    H1 6435   0.490   4.455   2.332 -1.0165  1.0608 -0.4508
 2143TIP3    H2 6436   0.556   4.554   2.237  0.6132  1.4188  1.0185
 2144TIP3   OH2 6437   2.307   4.287   1.070  0.3805  0.0985 -0.4023
 2144TIP3    H1 6438   2.327   4.268   1.162 -0.5461 -0.3002 -0.2781
 2144TIP3    H2 6439   2.337   4.377   1.058  1.2914 -0.1261  0.0499
 2145TIP3   OH2 6440   3.874   1.778   0.193  0.0521 -0.3116 -0.0881
 2145TIP3    H1 6441   3.900   1.687   0.208  3.3696  0.3601 -1.0161
 2145TIP3    H2 6442   3.821   1.774   0.113 -0.6535 -1.5216  0.4125
 2146TIP3   OH2 6443   3.470   0.603   4.909  0.1200  0.3193 -0.0075
 2146TIP3    H1 6444   3.507   0.660   4.842 -0.1820  0.7845  0.2202
 2146TIP3    H2 6445   3.436   0.528   4.860  2.5321 -0.7891 -0.1273
 2147TIP3   OH2 6446   2.270   4.886   5.062  0.2122  0.1291 -0.3851
 2147TIP3    H1 6447   2.283   4.863   4.970  1.0392 -0.9202 -0.0277
 2147TIP3    H2 6448   2.246   4.803   5.104  0.9331  0.3705  0.5333
 2148TIP3   OH2 6449   6.286   5.482   3.157 -0.6490  0.3435 -0.2576
 2148TIP3    H1 6450   6.375   5.447   3.154 -1.5665 -2.1381 -0.9721
 2148TIP3    H2 6451   6.240   5.437   3.087 -2.5090  1.4764  0.1733
 2149TIP3   OH2 6452   5.580   2.110   5.118 -0.8567 -0.4016 -0.3093
 2149TIP3    H1 6453   5.563   2.051   5.045 -0.8745  0.0655 -0.6788
 2149TIP3    H2 6454   5.494   2.139   5.147 -0.8262 -0.2617 -0.3616
 2150TIP3   OH2 6455   0.147   5.329   4.010  0.7152  0.2335  0.5171
 2150TIP3    H1 6456   0.086   5.293   3.946  3.4526  1.9715 -3.4990
 2150TIP3    H2 6457   0.128   5.423   4.012  1.8455  0.4804  0.8168
 2151TIP3   OH2 6458   2.423   3.114   4.428  0.1332 -0.2425 -0.1653
 2151TIP3    H1 6459   2.508   3.104   4.472 -0.1392 -0.8948  0.2200
 2151TIP3    H2 6460   2.370   3.164   4.489 -0.1037 -0.7652  0.0576
 2152TIP3   OH2 6461   4.220   3.138   1.801 -0.2151 -0.4929 -0.5305
 2152TIP3    H1 6462   4.202   3.129   1.894 -1.9367 -0.4610 -0.8308
 2152TIP3    H2 6463   4.280   3.065   1.781  1.6218  0.5274  0.8950
 2153TIP3   OH2 6464   4.672   4.037   2.133 -0.1504 -0.0567  0.3314
 2153TIP3    H1 6465   4.604   4.065   2.072 -0.2750 -2.3477 -0.6707
 2153TIP3    H2 6466   4.751   4.029   2.079 -0.1075 -1.4862  0.5736
 2154TIP3   OH2 6467   5.038   3.205   1.437 -0.3201 -0.2715 -0.2220
 2154TIP3    H1 6468   5.126   3.225   1.404  0.0235 -0.3280  0.6090
 2154TIP3    H2 6469   4.988   3.181   1.360 -0.5185  2.8742 -1.2023
 2155TIP3   OH2 6470   0.915   5.344   1.597  0.5221 -0.1705 -0.5784
 2155TIP3    H1 6471   0.823   5.345   1.574  0.7601  0.8097 -1.5410
 2155TIP3    H2 6472   0.921   5.283   1.671 -1.3066  1.7525  1.2947
 2156TIP3   OH2 6473   4.997   3.350   4.425  1.0894 -0.5249  0.0488
 2156TIP3    H1 6474   4.927   3.414   4.422  1.9682  0.5541  1.1350
 2156TIP3    H2 6475   4.986   3.306   4.510  1.1945 -0.9604 -0.1619
 2157TIP3   OH2 6476   2.694   1.129   4.066 -0.5513 -0.2443 -0.5279
 2157TIP3    H1 6477   2.618   1.175   4.101 -0.0287  0.7735 -0.6968
 2157TIP3    H2 6478   2.690   1.143   3.972  0.2613  0.4957 -0.4686
 2158TIP3   OH2 6479   4.529   4.909   0.797  0.1307  0.0402  0.4728
 2158TIP3    H1 6480   4.435   4.894   0.813  0.0808  0.8757  1.0159
 2158TIP3    H2 6481   4.567   4.916   0.885  0.6375  0.0936  0.2475
 2159TIP3   OH2 6482   5.726   5.271   4.514 -0.3202 -0.1517  0.9120
 2159TIP3    H1 6483   5.728   5.323   4.433  0.7771 -2.2177 -0.4862
 2159TIP3    H2 6484   5.642   5.226   4.511 -1.1806  1.2746  2.0233
 2160TIP3   OH2 6485   4.727   1.559   2.298 -0.1126  0.6923  0.5787
 2160TIP3    H1 6486   4.643   1.514   2.307 -0.4806  0.9570 -1.2423
 2160TIP3    H2 6487   4.705   1.648   2.272  0.7284  0.5332 -0.7830
 2161TIP3   OH2 6488   4.523   1.743   0.865  0.5967  0.1205  0.0186
 2161TIP3    H1 6489   4.526   1.735   0.770 -0.1019 -0.2440  0.0194
 2161TIP3    H2 6490   4.510   1.653   0.896 -0.5765  0.3991  0.3850
 2162TIP3   OH2 6491   5.311   2.908   0.236  1.0406 -0.3608  0.3677
 2162TIP3    H1 6492   5.298   2.813   0.241 -2.2119 -0.1282 -0.7713
 2162TIP3    H2 6493   5.231   2.940   0.194  1.9590  2.9294  0.8683
 2163TIP3   OH2 6494   3.235   0.528   2.135  0.2623 -0.7320  0.0110
 2163TIP3    H1 6495   3.237   0.440   2.174  0.1004 -1.3382 -1.2823
 2163TIP3    H2 6496   3.294   0.522   2.060 -0.9720 -0.2081 -1.0308
 2164TIP3   OH2 6497   6.014   3.407   2.943 -0.0807 -0.1796  0.5544
 2164TIP3    H1 6498   6.013   3.419   2.848 -0.6552 -0.8523  0.4715
 2164TIP3    H2 6499   5.928   3.437   2.972  0.4277  0.9287  0.9932
 2165TIP3   OH2 6500   5.672   5.839   4.313  0.8167  0.2295  0.0483
 2165TIP3    H1 6501   5.671   5.817   4.406  0.4304  1.1286  0.2655
 2165TIP3    H2 6502   5.765   5.838   4.290  0.8568 -0.9469  0.1959
 2166TIP3   OH2 6503   2.984   0.364   4.519 -0.1606  0.8849  0.8281
 2166TIP3    H1 6504   2.963   0.281   4.562 -1.2487  0.9667  0.4824
 2166TIP3    H2 6505   3.067   0.347   4.474 -1.3095 -0.6619 -0.8767
 2167TIP3   OH2 6506   1.162   0.467   3.398 -0.3508  0.1358  0.0549
 2167TIP3    H1 6507   1.221   0.392   3.385  0.6967  0.6713  1.4788
 2167TIP3    H2 6508   1.080   0.440   3.357  0.7409 -0.7930 -1.6447
 2168TIP3   OH2 6509   2.252   1.245   1.748 -0.1743 -0.2397 -0.0818
 2168TIP3    H1 6510   2.254   1.290   1.832  2.5421  0.8594 -0.6044
 2168TIP3    H2 6511   2.234   1.314   1.684 -0.2015 -0.6849 -0.5604
 2169TIP3   OH2 6512   5.658   1.477   0.152 -0.2433 -0.3578 -0.7531
 2169TIP3    H1 6513   5.636   1.570   0.163  2.0534  0.2409 -0.6936
 2169TIP3    H2 6514   5.626   1.435   0.231 -0.7060  0.4971 -0.4682
 2170TIP3   OH2 6515   3.103   0.777   4.589  0.2012 -0.3220 -0.7656
 2170TIP3    H1 6516   3.044   0.798   4.515 -0.7115  0.3276  0.1082
 2170TIP3    H2 6517   3.044   0.749   4.659  0.7063  2.0776  0.7438
 2171TIP3   OH2 6518   5.533   0.355   1.849 -0.2805 -0.2222  0.0217
 2171TIP3    H1 6519   5.588   0.331   1.924  0.7435 -1.7932 -1.1607
 2171TIP3    H2 6520   5.582   0.422   1.803  1.1820 -2.1904 -1.4858
 2172TIP3   OH2 6521   3.256   4.774   4.121 -0.0138  0.8140 -0.2717
 2172TIP3    H1 6522   3.174   4.750   4.078 -0.6532  0.7117  0.9622
 2172TIP3    H2 6523   3.288   4.692   4.160  1.6573  0.4338 -2.2556
 2173TIP3   OH2 6524   4.489   1.494   4.000 -0.3311  0.0989  0.1619
 2173TIP3    H1 6525   4.465   1.500   3.907  0.8782  0.7407 -0.1275
 2173TIP3    H2 6526   4.431   1.555   4.044 -0.5614  0.1777 -0.2469
 2174TIP3   OH2 6527   6.094   5.357   1.391 -0.6239 -0.3455  0.3723
 2174TIP3    H1 6528   6.066   5.447   1.373 -1.5507 -0.4918  1.0150
 2174TIP3    H2 6529   6.085   5.312   1.307 -0.5555  0.0529  0.1457
 2175TIP3   OH2 6530   1.702   0.432   3.836  0.6356  0.3306  0.7535
 2175TIP3    H1 6531   1.659   0.496   3.892 -0.6244 -0.9197  1.2828
 2175TIP3    H2 6532   1.753   0.378   3.897 -0.6657 -0.9771  0.7354
 2176TIP3   OH2 6533   2.099   2.594   1.473  0.0605 -0.5058  0.6186
 2176TIP3    H1 6534   2.114   2.502   1.449  0.4342 -0.7414  1.7266
 2176TIP3    H2 6535   2.132   2.643   1.398  2.3922 -1.1829  1.1132
 2177TIP3   OH2 6536   3.206   0.701   2.997 -0.1687  0.3346 -0.4554
 2177TIP3    H1 6537   3.198   0.732   3.087 -0.7711 -0.1471 -0.3370
 2177TIP3    H2 6538   3.297   0.672   2.989  0.1125  1.1210 -0.2543
 2178TIP3   OH2 6539   3.490   3.989   1.307  0.7555 -0.3081 -0.0089
 2178TIP3    H1 6540   3.581   3.959   1.314  0.1286 -2.1207  0.9757
 2178TIP3    H2 6541   3.463   3.964   1.219  1.0283 -0.2821 -0.1010
 2179TIP3   OH2 6542   4.087   2.813   1.660  0.2653 -0.3992  0.3899
 2179TIP3    H1 6543   4.076   2.758   1.738  2.5074 -1.2994  0.1497
 2179TIP3    H2 6544   4.160   2.871   1.682 -2.5105  3.2965  0.9739
 2180TIP3   OH2 6545   3.000   5.822   1.542 -0.0066 -0.3526 -0.2870
 2180TIP3    H1 6546   3.017   5.808   1.635  1.1170  3.1099  0.1530
 2180TIP3    H2 6547   3.021   5.737   1.502  1.9296 -1.2656  2.3208
 2181TIP3   OH2 6548   2.677   2.102   1.444 -0.1865 -0.0803 -0.0648
 2181TIP3    H1 6549   2.701   2.033   1.505  0.7256  1.2469  1.1485
 2181TIP3    H2 6550   2.614   2.156   1.492  1.3780  1.6163  0.1922
 2182TIP3   OH2 6551   1.700   4.814   2.248  0.3729  0.2702  0.0286
 2182TIP3    H1 6552   1.647   4.735   2.247  1.7503 -0.6898 -0.4160
 2182TIP3    H2 6553   1.668   4.864   2.323 -0.0042 -1.0855  0.7987
 2183TIP3   OH2 6554   2.963   4.268   2.001  0.0673  0.5102  0.2559
 2183TIP3    H1 6555   2.919   4.326   1.939  0.2791 -1.2411 -1.6259
 2183TIP3    H2 6556   3.054   4.266   1.971  0.0769 -0.7376  0.3453
 2184TIP3   OH2 6557   1.481   5.192   2.254  0.0572  0.0026  0.2995
 2184TIP3    H1 6558   1.444   5.281   2.254 -0.7814 -0.1739  3.9492
 2184TIP3    H2 6559   1.566   5.202   2.212 -0.7607  2.1371 -1.0375
 2185TIP3   OH2 6560   3.094   1.421   0.822  0.2282  0.0834 -1.1002
 2185TIP3    H1 6561   3.047   1.339   0.807  1.2126 -0.5880 -0.6133
 2185TIP3    H2 6562   3.181   1.406   0.784  0.9745  0.2921  0.4596
 2186TIP3   OH2 6563   6.072   2.024   4.294  0.2649 -0.2646  0.4317
 2186TIP3    H1 6564   6.075   1.937   4.256  3.0216 -0.3026  0.5732
 2186TIP3    H2 6565   6.139   2.074   4.247  1.5073  0.6201  2.9495
 2187TIP3   OH2 6566   4.943   3.388   0.391 -0.1469  0.1621 -0.4945
 2187TIP3    H1 6567   4.850   3.372   0.405  0.1674 -1.5053 -0.0901
 2187TIP3    H2 6568   4.974   3.423   0.474 -0.2656 -0.0490 -0.3598
 2188TIP3   OH2 6569   2.732   0.477   2.399 -0.3319  0.2366 -0.4161
 2188TIP3    H1 6570   2.811   0.518   2.364  0.7585 -0.4005  1.1720
 2188TIP3    H2 6571   2.742   0.384   2.376 -1.6931  0.4401 -2.0411
 2189TIP3   OH2 6572   5.977   4.891   0.173 -0.5437  0.1442 -0.2672
 2189TIP3    H1 6573   5.991   4.876   0.266 -1.3196  0.9215 -0.0220
 2189TIP3    H2 6574   5.918   4.966   0.168 -0.3526  0.2467 -1.3877
 2190TIP3   OH2 6575   2.410   5.656   1.493 -0.3451  0.0799  0.0896
 2190TIP3    H1 6576   2.505   5.655   1.504 -0.5078  0.9102  1.8741
 2190TIP3    H2 6577   2.397   5.666   1.399  1.3387  0.6533 -0.1116
 2191TIP3   OH2 6578   2.688   5.214   3.098  0.0436  0.3727 -0.0105
 2191TIP3    H1 6579   2.639   5.236   3.019 -1.6171 -0.7146  0.6548
 2191TIP3    H2 6580   2.636   5.253   3.169  1.8388  1.8821  0.5476
 2192TIP3   OH2 6581   0.252   3.212   4.671 -0.4230 -0.0081  0.4359
 2192TIP3    H1 6582   0.291   3.219   4.758 -0.9774 -0.5710  0.7392
 2192TIP3    H2 6583   0.263   3.299   4.633  0.2949  0.0962  0.8617
 2193TIP3   OH2 6584   5.722   5.448   5.056  0.2182 -0.5951 -0.3029
 2193TIP3    H1 6585   5.779   5.525   5.051 -0.8581  0.3034  0.6083
 2193TIP3    H2 6586   5.738   5.413   5.143 -0.7692 -0.1975  0.0472
 2194TIP3   OH2 6587   0.396   0.282   1.812 -0.2874 -0.3146  0.4730
 2194TIP3    H1 6588   0.313   0.241   1.838  0.4491 -1.6681  0.7471
 2194TIP3    H2 6589   0.452   0.209   1.788  0.5493  0.6425 -0.5811
 2195TIP3   OH2 6590   2.582   5.207   4.643 -0.5145  0.1840 -0.5745
 2195TIP3    H1 6591   2.597   5.113   4.648 -1.7910 -0.1274 -1.9221
 2195TIP3    H2 6592   2.668   5.244   4.624 -0.2204 -0.8473 -1.3455
 2196TIP3   OH2 6593   6.023   2.418   4.615 -0.0101 -0.7907 -0.2916
 2196TIP3    H1 6594   5.945   2.470   4.599 -0.3452 -1.1455  0.1562
 2196TIP3    H2 6595   6.091   2.482   4.637 -0.3369 -0.5201 -0.0687
 2197TIP3   OH2 6596   4.097   0.509   4.203  0.4570 -0.2671  0.6446
 2197TIP3    H1 6597   4.102   0.573   4.132 -0.9287 -0.7212  0.0923
 2197TIP3    H2 6598   4.146   0.548   4.275 -0.7827  1.6518  0.5075
 2198TIP3   OH2 6599   5.865   5.398   1.534  0.6697 -0.0983  0.0872
 2198TIP3    H1 6600   5.846   5.439   1.450  0.4746 -0.7833 -0.2159
 2198TIP3    H2 6601   5.940   5.341   1.517 -1.1890 -2.5712 -0.4218
 2199TIP3   OH2 6602   0.215   1.905   1.345  0.1513  0.0686  0.0801
 2199TIP3    H1 6603   0.162   1.862   1.414 -0.0454 -0.2287 -0.2529
 2199TIP3    H2 6604   0.229   1.993   1.378  1.7760 -0.6466  1.4569
 2200TIP3   OH2 6605   3.921   5.235   0.933 -0.3990  0.1837 -0.1839
 2200TIP3    H1 6606   3.960   5.301   0.991 -0.8449  0.6247 -0.3733
 2200TIP3    H2 6607   3.994   5.196   0.887 -0.1993  1.1639 -0.7126
 2201TIP3   OH2 6608   1.221   3.571   1.571 -0.3622 -0.0091  0.1596
 2201TIP3    H1 6609   1.231   3.581   1.476  1.0477 -0.2914  0.2689
 2201TIP3    H2 6610   1.126   3.580   1.585 -0.7631 -1.2186 -1.4244
 2202TIP3   OH2 6611   3.724   3.884   4.215 -0.4137  0.5389 -0.2417
 2202TIP3    H1 6612   3.818   3.871   4.206 -0.3148  0.6141  0.5616
 2202TIP3    H2 6613   3.692   3.805   4.259 -0.5200  1.0326  0.5962
 2203TIP3   OH2 6614   6.149   5.909   1.980 -0.2589  0.0594 -0.2739
 2203TIP3    H1 6615   6.080   5.860   1.936  0.3857 -0.5688 -0.5971
 2203TIP3    H2 6616   6.228   5.855   1.971  0.4191  1.0365 -0.4424
 2204TIP3   OH2 6617   3.838   4.808   4.331  0.6550  0.4526  0.0056
 2204TIP3    H1 6618   3.789   4.812   4.413  0.3890  0.3323 -0.1472
 2204TIP3    H2 6619   3.840   4.715   4.308 -1.3841  0.6606 -1.3798
 2205TIP3   OH2 6620   2.515   4.211   2.294  0.5896  0.5106 -0.0006
 2205TIP3    H1 6621   2.570   4.144   2.254  0.6430  0.8701 -0.5355
 2205TIP3    H2 6622   2.438   4.163   2.327  1.3077 -0.0282  0.9511
 2206TIP3   OH2 6623   6.050   3.108   2.712 -0.0195  0.2434 -0.0955
 2206TIP3    H1 6624   6.071   3.025   2.668 -0.7619  0.5359 -1.0255
 2206TIP3    H2 6625   5.996   3.156   2.649 -2.5049  0.0119  1.7258
 2207TIP3   OH2 6626   5.793   4.760   5.182  0.6112 -0.5216  0.2423
 2207TIP3    H1 6627   5.855   4.711   5.128  1.1991 -1.1908  1.4672
 2207TIP3    H2 6628   5.730   4.693   5.211  0.8262 -0.3643  1.0957
 2208TIP3   OH2 6629   2.082   1.097   2.968  0.2806  0.1124 -0.5256
 2208TIP3    H1 6630   2.104   1.012   3.007 -1.6126 -0.3417 -0.3774
 2208TIP3    H2 6631   2.160   1.120   2.916  0.0292 -2.8520 -2.4927
 2209TIP3   OH2 6632   3.851   0.471   4.889 -0.0749  0.0260 -0.1942
 2209TIP3    H1 6633   3.887   0.510   4.968  2.6415 -0.6601 -0.9832
 2209TIP3    H2 6634   3.906   0.505   4.818 -2.1243  0.2629 -1.7860
 2210TIP3   OH2 6635   0.457   0.804   4.712 -0.1833  0.7924  0.2375
 2210TIP3    H1 6636   0.369   0.784   4.682 -0.4580  2.2457 -0.0268
 2210TIP3    H2 6637   0.512   0.736   4.673 -1.1056  0.1793 -0.0353
 2211TIP3   OH2 6638   5.541   2.757   2.329 -0.4596  0.4926 -0.1149
 2211TIP3    H1 6639   5.552   2.826   2.263 -0.0373  0.2085 -0.3419
 2211TIP3    H2 6640   5.448   2.760   2.351 -0.6170  0.5558 -0.7614
 2212TIP3   OH2 6641   2.689   2.994   0.760 -0.4211  0.3296 -0.7761
 2212TIP3    H1 6642   2.756   2.926   0.757  0.8223  1.4372  0.3148
 2212TIP3    H2 6643   2.712   3.053   0.688 -0.7392  0.2566 -0.9370
 2213TIP3   OH2 6644   2.932   1.211   3.282 -0.5408  0.2274 -0.5319
 2213TIP3    H1 6645   3.014   1.186   3.325  0.5998  0.0819 -2.6333
 2213TIP3    H2 6646   2.897   1.129   3.248 -0.2056  0.6065 -1.8308
 2214TIP3   OH2 6647   1.765   5.372   0.076 -0.2798  0.3464  0.9320
 2214TIP3    H1 6648   1.712   5.376  -0.004  2.6367 -1.1927 -1.3008
 2214TIP3    H2 6649   1.752   5.457   0.118 -0.4048  2.0919 -2.3209
 2215TIP3   OH2 6650   0.059   4.513   2.223  0.0280 -0.4027  0.0393
 2215TIP3    H1 6651  -0.018   4.549   2.180 -0.4622  0.8699  1.8648
 2215TIP3    H2 6652   0.132   4.538   2.166 -0.6810  0.3827 -0.5472
 2216TIP3   OH2 6653   2.113   0.895   1.486 -0.2066 -0.2183  0.0097
 2216TIP3    H1 6654   2.182   0.961   1.482 -3.1059  3.2317  1.2973
 2216TIP3    H2 6655   2.060   0.912   1.407 -0.5429 -1.6414 -0.0905
 2217TIP3   OH2 6656   1.554   0.085   5.097 -0.0160 -0.2769 -0.0743
 2217TIP3    H1 6657   1.517   0.105   5.010 -0.1097  1.3241  0.2911
 2217TIP3    H2 6658   1.484   0.037   5.142  0.3208 -1.8113 -1.1175
 2218TIP3   OH2 6659   0.447   2.216   2.155  0.3242 -0.1996 -0.7090
 2218TIP3    H1 6660   0.462   2.128   2.122  4.3595 -0.0743  0.2819
 2218TIP3    H2 6661   0.503   2.272   2.101 -0.7913  1.5294 -0.1739
 2219TIP3   OH2 6662   3.023   1.661   3.315  0.4471 -0.6546  0.3812
 2219TIP3    H1 6663   3.092   1.677   3.380  2.5657  0.2242 -1.9407
 2219TIP3    H2 6664   2.957   1.728   3.334 -0.0920 -1.7445  2.8902
 2220TIP3   OH2 6665   1.456   4.736   4.581  0.3136  0.3123  0.0537
 2220TIP3    H1 6666   1.400   4.788   4.524 -0.6894 -0.2970  0.4621
 2220TIP3    H2 6667   1.397   4.701   4.648  1.3726  0.5542  1.1425
 2221TIP3   OH2 6668   4.307   1.256   1.827 -0.1543  0.3117 -0.1404
 2221TIP3    H1 6669   4.329   1.187   1.764 -1.3640 -0.9633  0.7667
 2221TIP3    H2 6670   4.286   1.209   1.907  0.8291  1.8605  1.0974
 2222TIP3   OH2 6671   2.603   3.078   2.400  0.1945  0.4342 -0.1000
 2222TIP3    H1 6672   2.626   3.127   2.321 -0.8515  1.8203  0.4137
 2222TIP3    H2 6673   2.541   3.012   2.371  0.8779  0.0116 -0.6421
 2223TIP3   OH2 6674   1.576   4.959   3.951 -0.0706  0.2198 -0.7835
 2223TIP3    H1 6675   1.613   5.025   3.892  0.4087  1.2296  0.5852
 2223TIP3    H2 6676   1.643   4.891   3.957  0.0194  0.2762 -1.1416
 2224TIP3   OH2 6677   0.203   3.613   2.738  0.4291 -0.2287  0.1085
 2224TIP3    H1 6678   0.147   3.689   2.723  1.4712  0.4562 -0.3850
 2224TIP3    H2 6679   0.291   3.643   2.718  1.0768 -1.1184  1.4446
 2225TIP3   OH2 6680   6.180   3.037   3.786 -0.4133 -0.2980 -0.3144
 2225TIP3    H1 6681   6.228   2.990   3.854 -0.9980  1.5479  1.4904
 2225TIP3    H2 6682   6.106   2.979   3.766 -0.2379 -0.8937  0.6439
 2226TIP3   OH2 6683   1.068   5.510   0.793 -0.5711 -0.7594  0.1416
 2226TIP3    H1 6684   1.161   5.531   0.791  0.2214 -3.7482  0.8163
 2226TIP3    H2 6685   1.048   5.482   0.704 -1.0959  0.7154 -0.2300
 2227TIP3   OH2 6686   3.189   2.459   2.116 -0.4585 -0.4510  0.0542
 2227TIP3    H1 6687   3.126   2.415   2.060 -1.9721  1.6229  0.0232
 2227TIP3    H2 6688   3.274   2.443   2.074 -1.2672 -0.9968 -1.4344
 2228TIP3   OH2 6689   5.638   2.058   2.508 -0.4303  0.0913 -0.0371
 2228TIP3    H1 6690   5.673   2.034   2.423  0.0046  0.8369 -0.0823
 2228TIP3    H2 6691   5.665   1.987   2.567 -1.1209 -0.6515 -0.5965
 2229TIP3   OH2 6692   1.524   0.221   0.352  0.2157 -0.0889 -0.1403
 2229TIP3    H1 6693   1.441   0.174   0.348  0.2359 -0.0809 -0.8258
 2229TIP3    H2 6694   1.560   0.213   0.263  1.6783 -1.4074  0.5198
 2230TIP3   OH2 6695   3.588   5.816   1.511  0.5079  0.1792 -0.0562
 2230TIP3    H1 6696   3.568   5.750   1.577 -1.3880  0.2542 -0.5024
 2230TIP3    H2 6697   3.512   5.873   1.509  0.3162 -0.0290 -2.5387
 2231TIP3   OH2 6698   0.017   5.062   0.329 -0.1918 -0.1185  0.5992
 2231TIP3    H1 6699   0.089   5.118   0.358 -0.7484  1.9168 -1.6819
 2231TIP3    H2 6700  -0.062   5.108   0.357 -0.6643 -0.0113 -0.8637
 2232TIP3   OH2 6701   1.007   4.736   2.839  0.1244  0.1863  0.3909
 2232TIP3    H1 6702   1.098   4.745   2.865  0.0725 -0.6062  0.8783
 2232TIP3    H2 6703   0.957   4.762   2.916 -0.0320 -1.7073  0.9789
 2233TIP3   OH2 6704   6.303   3.455   3.956  0.1165 -0.4006  0.2776
 2233TIP3    H1 6705   6.321   3.395   4.029 -0.5735  1.1253  1.7826
 2233TIP3    H2 6706   6.364   3.428   3.887  0.5094 -2.1655  1.2433
 2234TIP3   OH2 6707   3.923   0.379   0.473 -0.3644  0.1144  0.3554
 2234TIP3    H1 6708   3.839   0.333   0.473 -0.8645  0.9947 -0.4656
 2234TIP3    H2 6709   3.951   0.378   0.565 -0.2831 -1.9228  0.3619
 2235TIP3   OH2 6710   4.766   1.169   4.341  0.9519 -0.0491  0.2337
 2235TIP3    H1 6711   4.692   1.228   4.325  0.7430 -0.6772 -1.3026
 2235TIP3    H2 6712   4.835   1.200   4.282  1.2906 -0.5396  0.3671
 2236TIP3   OH2 6713   4.596   1.487   1.617  0.2723  0.3703 -0.1698
 2236TIP3    H1 6714   4.663   1.554   1.632  1.3194 -0.6655 -0.0196
 2236TIP3    H2 6715   4.529   1.532   1.566  0.6636  1.6786  0.4141
 2237TIP3   OH2 6716   4.795   5.262   3.549  0.3187  0.0406  0.0970
 2237TIP3    H1 6717   4.793   5.173   3.586  0.8824 -0.4065 -0.9005
 2237TIP3    H2 6718   4.703   5.282   3.532  0.1658 -0.2636  0.5514
 2238TIP3   OH2 6719   1.083   4.778   0.818  0.2927  0.1166  0.2594
 2238TIP3    H1 6720   1.136   4.856   0.836  0.4851 -0.0595  0.4685
 2238TIP3    H2 6721   1.023   4.806   0.749  1.7580 -0.1262 -1.1996
 2239TIP3   OH2 6722   5.178   2.216   1.346  0.0090 -0.3252 -0.3845
 2239TIP3    H1 6723   5.259   2.243   1.301  0.3115 -1.1558 -0.3659
 2239TIP3    H2 6724   5.151   2.136   1.300 -0.5750 -0.2863 -0.1201
 2240TIP3   OH2 6725   2.088   5.344   2.495 -0.5102  0.1877 -0.1839
 2240TIP3    H1 6726   2.075   5.336   2.400  0.2184  0.2494 -0.2943
 2240TIP3    H2 6727   2.085   5.254   2.527 -1.9328  0.2453 -0.0924
 2241TIP3   OH2 6728   1.579   1.803   3.122  0.1002  0.3367 -0.9289
 2241TIP3    H1 6729   1.502   1.855   3.096  0.9159  2.4440  0.5274
 2241TIP3    H2 6730   1.555   1.766   3.207  0.3460  0.2392 -0.9019
 2242TIP3   OH2 6731   5.681   3.447   4.910  0.5112  0.0001  0.0086
 2242TIP3    H1 6732   5.733   3.388   4.856  2.3291  0.6534  0.9834
 2242TIP3    H2 6733   5.590   3.428   4.885  1.1938 -0.9681 -1.9453
 2243TIP3   OH2 6734   0.385   0.851   3.517 -0.2616 -0.2513  0.7845
 2243TIP3    H1 6735   0.379   0.757   3.532  0.1303 -0.6353 -1.1304
 2243TIP3    H2 6736   0.298   0.885   3.540 -1.3269 -1.5370 -1.0728
 2244TIP3   OH2 6737   2.083   0.543   1.631 -0.1035 -0.0147 -0.0657
 2244TIP3    H1 6738   2.016   0.601   1.668  0.7191  0.2719  1.0294
 2244TIP3    H2 6739   2.079   0.558   1.537  1.6013  3.5879  0.2702
 2245TIP3   OH2 6740   1.217   1.573   0.431  0.2982  0.2484 -0.0784
 2245TIP3    H1 6741   1.242   1.642   0.369  2.1559  0.2921  0.6554
 2245TIP3    H2 6742   1.273   1.499   0.409 -2.6141 -1.6558 -1.7688
 2246TIP3   OH2 6743   5.527   5.706   3.691 -0.2588 -0.1889 -0.5259
 2246TIP3    H1 6744   5.543   5.617   3.658 -1.6908 -0.1089 -1.5261
 2246TIP3    H2 6745   5.565   5.763   3.624 -1.3775 -0.0488 -1.0673
 2247TIP3   OH2 6746   1.311   0.986   4.268 -0.4008  0.2291  1.0543
 2247TIP3    H1 6747   1.376   0.981   4.338 -0.2699 -0.5718  0.8840
 2247TIP3    H2 6748   1.255   0.910   4.282 -1.2021  0.8061  1.0888
 2248TIP3   OH2 6749   3.582   1.997   0.249 -0.0633 -0.8883  0.3651
 2248TIP3    H1 6750   3.609   1.977   0.339 -0.4177 -1.3418  0.3695
 2248TIP3    H2 6751   3.527   1.924   0.223 -0.9011 -0.2077  0.1767
 2249TIP3   OH2 6752   4.715   3.318   3.328  0.3353  0.0035 -0.2071
 2249TIP3    H1 6753   4.776   3.318   3.401  0.1046 -0.6826 -0.0096
 2249TIP3    H2 6754   4.705   3.411   3.305  0.4983  0.2144  0.5542
 2250TIP3   OH2 6755   0.907   2.372   1.350  0.3951 -0.0667 -0.1098
 2250TIP3    H1 6756   0.944   2.366   1.262 -0.6012 -1.3032 -0.4760
 2250TIP3    H2 6757   0.886   2.465   1.361  0.4837  0.0978 -1.2048
 2251TIP3   OH2 6758   0.640   5.185   3.846  0.5213  0.2661  0.1367
 2251TIP3    H1 6759   0.615   5.126   3.775  0.0526  0.7871 -0.1373
 2251TIP3    H2 6760   0.712   5.140   3.890  0.2432 -0.4614 -0.1344
 2252TIP3   OH2 6761   1.576   3.486   2.136  0.0412  0.3114  0.2560
 2252TIP3    H1 6762   1.499   3.539   2.156  0.6098  0.5685  1.8529
 2252TIP3    H2 6763   1.633   3.545   2.086  0.5295  1.1432  1.7419
 2253TIP3   OH2 6764   2.035   3.766   1.581  0.5909 -0.0211  0.6890
 2253TIP3    H1 6765   1.943   3.794   1.586  0.9186  0.9924  1.3218
 2253TIP3    H2 6766   2.071   3.818   1.509  0.6676 -0.4321  0.4306
 2254TIP3   OH2 6767   1.655   0.690   0.609  0.0541 -0.5715 -0.2135
 2254TIP3    H1 6768   1.683   0.638   0.533  1.8872 -0.0204  0.0547
 2254TIP3    H2 6769   1.564   0.714   0.589  0.4946 -0.4275 -2.2409
 2255TIP3   OH2 6770   0.475   1.427   0.988  0.4062 -0.5633  0.1952
 2255TIP3    H1 6771   0.565   1.447   1.013  0.5344 -1.0904  0.1626
 2255TIP3    H2 6772   0.474   1.333   0.973  0.6442 -0.1682 -3.0459
 2256TIP3   OH2 6773   1.005   4.553   1.339  0.2577  0.1232  0.1862
 2256TIP3    H1 6774   1.100   4.545   1.347  0.2693 -0.9654 -0.7884
 2256TIP3    H2 6775   0.991   4.612   1.265  0.1626  0.4736  0.4779
 2257TIP3   OH2 6776   5.241   4.256   3.826 -0.1723 -0.3032 -0.5248
 2257TIP3    H1 6777   5.278   4.180   3.871 -2.5247 -0.4985  1.2634
 2257TIP3    H2 6778   5.299   4.328   3.851 -1.3445 -0.3927  3.0707
 2258TIP3   OH2 6779   6.211   1.977   0.178  0.3614 -0.1891  0.0364
 2258TIP3    H1 6780   6.167   1.908   0.128  1.9923 -1.0768 -0.2526
 2258TIP3    H2 6781   6.141   2.033   0.208 -0.8844 -1.0575 -1.1271
 2259TIP3   OH2 6782   2.834   5.315   3.701 -0.3265 -0.5943 -0.0152
 2259TIP3    H1 6783   2.741   5.333   3.708 -0.4133 -0.7841 -0.6054
 2259TIP3    H2 6784   2.844   5.270   3.617  0.3618 -0.1103 -0.2086
 2260TIP3   OH2 6785   0.986   2.698   4.928  0.2832  0.3583 -0.2834
 2260TIP3    H1 6786   0.985   2.736   4.840  1.1850  0.9645 -0.0579
 2260TIP3    H2 6787   1.079   2.684   4.946  0.0207 -1.0584  0.0419
 2261TIP3   OH2 6788   1.121   4.607   4.177  0.3080 -0.1582 -0.3170
 2261TIP3    H1 6789   1.068   4.682   4.149 -0.1676  0.1529  1.2931
 2261TIP3    H2 6790   1.064   4.531   4.164  0.5053 -0.1677 -1.2082
 2262TIP3   OH2 6791   2.955   5.053   2.102  0.4888  0.7402 -0.4848
 2262TIP3    H1 6792   2.957   5.146   2.080 -0.7790  1.2646  1.3996
 2262TIP3    H2 6793   2.998   5.047   2.187 -0.0709 -0.2941 -0.2536
 2263TIP3   OH2 6794   3.418   0.986   3.244 -0.2792 -0.0216  0.0304
 2263TIP3    H1 6795   3.398   0.968   3.336 -0.1430 -0.5981 -0.0471
 2263TIP3    H2 6796   3.342   1.036   3.213 -0.3255  0.1807  0.4536
 2264TIP3   OH2 6797   3.328   3.150   0.953 -0.1116 -0.4634 -0.0789
 2264TIP3    H1 6798   3.368   3.221   0.902 -0.2968 -1.6351 -1.9423
 2264TIP3    H2 6799   3.292   3.194   1.030 -0.0975  1.4563 -1.0986
 2265TIP3   OH2 6800   3.687   4.970   0.139 -0.4935 -0.0689  0.4722
 2265TIP3    H1 6801   3.594   4.974   0.161 -0.7105  0.4957 -0.4890
 2265TIP3    H2 6802   3.723   5.051   0.175 -0.3827 -0.2422  0.7598
 2266TIP3   OH2 6803   0.189   5.341   4.296 -0.0624 -0.2458 -0.1213
 2266TIP3    H1 6804   0.269   5.389   4.318 -0.3576  0.1082  0.2092
 2266TIP3    H2 6805   0.198   5.319   4.204  0.1645  0.2942 -0.2334
 2267TIP3   OH2 6806   0.403   5.675   4.449  0.4977  0.4359  0.0328
 2267TIP3    H1 6807   0.479   5.621   4.472  1.5671  2.1621  0.7354
 2267TIP3    H2 6808   0.430   5.722   4.370  0.0035  0.7766  0.0667
 2268TIP3   OH2 6809   2.360   5.994   4.153 -0.5266  0.0209 -1.0634
 2268TIP3    H1 6810   2.324   5.906   4.140 -0.2853  0.1556 -2.7879
 2268TIP3    H2 6811   2.384   6.024   4.066  2.4376  0.5153 -0.1761
 2269TIP3   OH2 6812   2.457   0.532   1.038 -0.1286 -0.4471  0.3732
 2269TIP3    H1 6813   2.419   0.587   1.106 -0.5151 -2.0782  1.5356
 2269TIP3    H2 6814   2.551   0.548   1.044 -0.2939  0.9139 -0.1102
 2270TIP3   OH2 6815   3.769   4.807   4.045 -0.1678  0.1764 -0.5377
 2270TIP3    H1 6816   3.789   4.791   4.137  0.0694 -0.5118 -0.7065
 2270TIP3    H2 6817   3.683   4.849   4.046  0.0020  0.5262  0.0198
 2271TIP3   OH2 6818   1.392   2.268   0.365 -0.5712  0.7036  0.3016
 2271TIP3    H1 6819   1.331   2.194   0.361 -0.7769  0.8344  0.9266
 2271TIP3    H2 6820   1.434   2.260   0.450  0.3014  0.6100 -0.1359
 2272TIP3   OH2 6821   5.626   0.283   0.290  0.6970  0.3736 -0.1090
 2272TIP3    H1 6822   5.577   0.203   0.269  0.4948 -0.3009  2.5629
 2272TIP3    H2 6823   5.712   0.269   0.252 -0.1859  0.2599 -2.2590
 2273TIP3   OH2 6824   2.216   0.246   1.498  0.3872 -0.5469 -0.3398
 2273TIP3    H1 6825   2.193   0.243   1.405  0.0485 -0.7388 -0.2497
 2273TIP3    H2 6826   2.245   0.336   1.512  1.3308 -0.7550 -0.8409
 2274TIP3   OH2 6827   4.819   1.752   2.474 -0.2188 -0.1944 -0.2062
 2274TIP3    H1 6828   4.725   1.753   2.455 -0.7815  2.0005  2.1636
 2274TIP3    H2 6829   4.836   1.664   2.506 -1.7374 -0.2952  0.4252
 2275TIP3   OH2 6830   5.019   2.751   1.968  0.3580 -0.3034 -0.0759
 2275TIP3    H1 6831   4.932   2.749   1.929  0.4958 -2.0531 -0.4018
 2275TIP3    H2 6832   5.069   2.687   1.917  0.5682 -2.7393  2.9011
 2276TIP3   OH2 6833   4.423   3.216   1.193 -0.7211 -0.1357  0.1754
 2276TIP3    H1 6834   4.459   3.209   1.281 -0.0236 -1.8199 -0.1880
 2276TIP3    H2 6835   4.399   3.308   1.183  1.8533  0.7127  1.0909
 2277TIP3   OH2 6836   1.981   5.524   3.094 -0.5479 -0.6276  0.3480
 2277TIP3    H1 6837   1.964   5.443   3.046  0.1168 -0.3813 -0.3167
 2277TIP3    H2 6838   1.897   5.547   3.133 -0.8793 -1.3233  0.0534
 2278TIP3   OH2 6839   1.263   3.606   3.001  0.5000  0.1299 -0.3452
 2278TIP3    H1 6840   1.206   3.538   3.036 -0.8016  1.4902  0.3010
 2278TIP3    H2 6841   1.339   3.606   3.058  0.4953 -0.7351 -0.3246
 2279TIP3   OH2 6842   0.574   0.586   4.596  0.1566  0.5933 -0.0572
 2279TIP3    H1 6843   0.612   0.521   4.655 -0.2419 -0.0297 -0.4783
 2279TIP3    H2 6844   0.551   0.537   4.517  1.0114  1.4797 -0.8882
 2280TIP3   OH2 6845   1.729   3.098   2.341 -0.1685 -0.3679  0.5479
 2280TIP3    H1 6846   1.743   3.131   2.252  0.0988 -1.4604  0.1696
 2280TIP3    H2 6847   1.705   3.006   2.329 -1.4242 -0.1920  1.5389
 2281TIP3   OH2 6848   4.114   3.534   1.819 -0.4386 -0.5161 -0.0035
 2281TIP3    H1 6849   4.118   3.459   1.759 -1.3765 -0.8165  0.2833
 2281TIP3    H2 6850   4.066   3.600   1.771  0.7062  0.0590 -0.3955
 2282TIP3   OH2 6851   5.319   2.632   0.171  0.1127  0.1397 -0.5575
 2282TIP3    H1 6852   5.347   2.558   0.117  2.9658 -0.4882  1.5471
 2282TIP3    H2 6853   5.306   2.595   0.258  1.4555  2.0318  0.5216
 2283TIP3   OH2 6854   3.590   3.324   2.658  0.6123  0.3040 -0.0184
 2283TIP3    H1 6855   3.644   3.373   2.720  0.4790 -0.1071  0.4260
 2283TIP3    H2 6856   3.648   3.308   2.583  0.7405  0.8931 -0.0504
 2284TIP3   OH2 6857   0.217   5.398   3.618 -0.5113  0.2353 -0.1831
 2284TIP3    H1 6858   0.176   5.431   3.698  0.8004  0.4870  0.4241
 2284TIP3    H2 6859   0.150   5.344   3.576 -1.1732 -0.0293  1.1676
 2285TIP3   OH2 6860   0.900   1.972   1.101  0.0269 -0.3886 -0.1233
 2285TIP3    H1 6861   0.914   1.995   1.193  0.5886 -2.6737  0.4280
 2285TIP3    H2 6862   0.819   2.016   1.077 -0.0611  0.3565  1.4324
 2286TIP3   OH2 6863   5.471   5.934   3.277  0.2155 -0.3908 -0.1069
 2286TIP3    H1 6864   5.424   6.009   3.240  0.4685  0.3746  1.0649
 2286TIP3    H2 6865   5.402   5.875   3.306 -0.1269  0.9613  2.0864
 2287TIP3   OH2 6866   6.233   3.218   5.167  0.2357  0.6742 -0.6697
 2287TIP3    H1 6867   6.325   3.243   5.171  0.5365 -0.2503 -1.4256
 2287TIP3    H2 6868   6.230   3.144   5.106 -1.1698  1.4191 -1.5882
 2288TIP3   OH2 6869   1.440   5.737   4.921 -0.6710  0.2428  0.6829
 2288TIP3    H1 6870   1.440   5.715   5.014  2.3486 -0.4846  0.6102
 2288TIP3    H2 6871   1.500   5.811   4.914 -0.6688  0.1353 -0.7271
 2289TIP3   OH2 6872   2.408   0.242   4.203 -0.2323 -0.2505 -0.0818
 2289TIP3    H1 6873   2.367   0.232   4.289  0.9584 -2.3956  0.3062
 2289TIP3    H2 6874   2.499   0.266   4.222 -0.5346  1.7144 -0.8573
 2290TIP3   OH2 6875   1.729   2.190   3.494  0.1800 -0.2346  0.0426
 2290TIP3    H1 6876   1.707   2.125   3.427 -0.4169 -1.4901  1.3944
 2290TIP3    H2 6877   1.645   2.232   3.514 -0.0293 -1.2192  1.3400
 2291TIP3   OH2 6878   4.803   3.598   0.098  0.3587 -0.0777 -0.1269
 2291TIP3    H1 6879   4.732   3.536   0.112 -0.6831  0.5511 -2.1599
 2291TIP3    H2 6880   4.801   3.616   0.004  3.3123 -0.1131 -0.2745
 2292TIP3   OH2 6881   1.373   2.306   2.746 -0.5091 -0.5192 -0.0911
 2292TIP3    H1 6882   1.405   2.257   2.670 -0.8906  0.0428 -0.6301
 2292TIP3    H2 6883   1.411   2.393   2.735  0.6311 -0.8363  1.1629
 2293TIP3   OH2 6884   0.344   1.443   4.792  0.4682  0.2528 -0.1884
 2293TIP3    H1 6885   0.370   1.376   4.729 -3.2140  0.2383 -2.0099
 2293TIP3    H2 6886   0.331   1.522   4.739  1.0832  1.3798  1.2698
 2294TIP3   OH2 6887   4.335   4.512   0.800  0.1327 -0.0599 -0.2050
 2294TIP3    H1 6888   4.325   4.570   0.876  0.4130 -0.2898  0.0164
 2294TIP3    H2 6889   4.282   4.435   0.822  1.5078 -0.8463  0.5244
 2295TIP3   OH2 6890   0.062   0.060   4.019  0.1649  0.3737  0.4668
 2295TIP3    H1 6891  -0.020   0.070   3.971 -0.9974 -2.5297  1.6585
 2295TIP3    H2 6892   0.129   0.051   3.950 -0.8187  0.6025 -0.5417
 2296TIP3   OH2 6893   4.943   3.661   1.533 -0.2226 -0.1395  0.8661
 2296TIP3    H1 6894   4.876   3.707   1.483  2.2705  2.2296 -0.5249
 2296TIP3    H2 6895   4.936   3.697   1.621 -0.5036  0.3945  0.6320
 2297TIP3   OH2 6896   3.976   0.955   3.881  0.2962  0.6574  0.3061
 2297TIP3    H1 6897   3.907   0.912   3.831  0.8309  0.3499 -0.1776
 2297TIP3    H2 6898   3.936   1.036   3.913  0.3458  1.5875 -1.8426
 2298TIP3   OH2 6899   4.340   1.555   0.711 -0.7703  0.0805  0.1677
 2298TIP3    H1 6900   4.334   1.633   0.657  1.1086  0.6038  0.6209
 2298TIP3    H2 6901   4.283   1.573   0.786 -3.2361 -0.5735 -1.4456
 2299TIP3   OH2 6902   5.644   3.891   2.591 -0.1514  0.3685 -0.2466
 2299TIP3    H1 6903   5.709   3.909   2.523 -0.3529  0.7281 -0.3480
 2299TIP3    H2 6904   5.620   3.977   2.624 -0.7121  0.2518 -0.3378
 2300TIP3   OH2 6905   0.806   4.841   4.984 -0.0898  0.6577  0.5013
 2300TIP3    H1 6906   0.853   4.769   4.942 -0.9375 -0.7863  1.9010
 2300TIP3    H2 6907   0.782   4.806   5.070 -1.4480  2.2559  0.8116
 2301TIP3   OH2 6908   1.226   0.785   2.797  0.5795 -0.0633 -0.1570
 2301TIP3    H1 6909   1.280   0.852   2.756  1.3883 -2.3559 -3.2920
 2301TIP3    H2 6910   1.282   0.747   2.864  0.0429  2.3333  1.7858
 2302TIP3   OH2 6911   3.446   5.359   2.027 -0.2769 -0.6414 -0.0278
 2302TIP3    H1 6912   3.428   5.379   1.935 -0.5716 -0.8005 -0.0078
 2302TIP3    H2 6913   3.534   5.322   2.027  0.8474  1.8630  0.1004
 2303TIP3   OH2 6914   1.863   2.060   0.043  0.4623  0.3793 -0.2066
 2303TIP3    H1 6915   1.915   2.104  -0.025 -0.7726 -0.7569 -1.9678
 2303TIP3    H2 6916   1.887   1.968   0.035 -0.5641  0.0780  0.1145
 2304TIP3   OH2 6917   1.051   0.382   3.103  0.1511 -0.4934 -0.3805
 2304TIP3    H1 6918   1.013   0.447   3.162 -0.0923  0.1392 -1.2227
 2304TIP3    H2 6919   1.090   0.433   3.033  1.2496 -1.2083 -0.3086
 2305TIP3   OH2 6920   4.890   0.799   5.065 -0.3966  0.1968  0.5754
 2305TIP3    H1 6921   4.866   0.759   4.981  0.1398  0.6496  0.2003
 2305TIP3    H2 6922   4.892   0.893   5.047  2.7563  0.1776  0.2436
 2306TIP3   OH2 6923   3.524   3.296   0.792  0.7778 -0.4568 -0.0707
 2306TIP3    H1 6924   3.544   3.360   0.860 -1.2398 -0.8394  0.9633
 2306TIP3    H2 6925   3.496   3.348   0.717  1.4004 -0.0772 -0.0428
 2307TIP3   OH2 6926   0.078   3.880   3.385 -0.3486  0.5530 -0.7822
 2307TIP3    H1 6927   0.060   3.800   3.337 -0.4380  0.0128  0.1292
 2307TIP3    H2 6928   0.149   3.858   3.445  0.2232  1.4009 -1.1363
 2308TIP3   OH2 6929   5.589   3.216   1.474  0.1642 -0.0988  0.0038
 2308TIP3    H1 6930   5.671   3.251   1.440 -0.3772 -0.2780 -1.5601
 2308TIP3    H2 6931   5.527   3.226   1.402  0.0221 -4.4538 -0.7556
 2309TIP3   OH2 6932   0.385   4.987   2.646  0.1034  0.2409 -0.3109
 2309TIP3    H1 6933   0.430   5.044   2.585 -0.2860 -0.5301 -1.3396
 2309TIP3    H2 6934   0.294   5.016   2.644  0.0309  0.0168 -0.3382
 2310TIP3   OH2 6935   3.166   2.315   1.031 -0.0899 -0.0192  0.2426
 2310TIP3    H1 6936   3.234   2.247   1.034  0.0967  0.0617 -1.3473
 2310TIP3    H2 6937   3.084   2.267   1.023  0.0376 -0.0906 -0.8238
 2311TIP3   OH2 6938   1.614   0.808   2.153  0.3230 -0.7701  0.1817
 2311TIP3    H1 6939   1.550   0.880   2.147  0.0834 -1.1039 -3.0511
 2311TIP3    H2 6940   1.698   0.852   2.165  0.0498  0.0431 -0.7132
 2312TIP3   OH2 6941   5.537   2.446   1.335 -0.2542  0.3134  0.3101
 2312TIP3    H1 6942   5.462   2.391   1.311 -0.6329  0.6958  0.6135
 2312TIP3    H2 6943   5.508   2.535   1.317 -0.2181  0.5391  1.3315
 2313TIP3   OH2 6944   0.566   4.876   2.818  0.3120  0.1375  0.4426
 2313TIP3    H1 6945   0.506   4.928   2.764  0.1706 -1.8442 -1.4746
 2313TIP3    H2 6946   0.646   4.869   2.765  0.2457 -1.7122  0.5257
 2314TIP3   OH2 6947   5.036   4.774   2.357 -0.1704 -0.2387 -0.8304
 2314TIP3    H1 6948   4.972   4.760   2.287 -0.7515 -1.0305 -0.1613
 2314TIP3    H2 6949   5.069   4.686   2.377  0.7378  0.0955 -0.7860
 2315TIP3   OH2 6950   4.596   4.150   4.020  0.2789  0.2221  0.4339
 2315TIP3    H1 6951   4.557   4.168   4.106 -0.0400  1.2738  0.0816
 2315TIP3    H2 6952   4.542   4.081   3.983  0.3938 -0.2098  1.0565
 2316TIP3   OH2 6953   3.073   0.097   2.844  0.0399  0.2468 -1.1238
 2316TIP3    H1 6954   3.159   0.139   2.847  0.6899 -1.0775 -0.4902
 2316TIP3    H2 6955   3.020   0.146   2.907 -0.0394  1.7863 -2.3270
 2317TIP3   OH2 6956   5.396   5.482   4.683 -0.0853  0.3216  0.1175
 2317TIP3    H1 6957   5.363   5.413   4.625 -2.0682  1.1428  0.2202
 2317TIP3    H2 6958   5.387   5.446   4.771 -1.9767  1.0070  0.2355
 2318TIP3   OH2 6959   5.486   5.008   3.379  0.0303  0.1692 -0.3659
 2318TIP3    H1 6960   5.558   5.006   3.316  1.3825 -0.5736  1.1506
 2318TIP3    H2 6961   5.437   4.928   3.362  0.0531  0.2488 -0.8305
 2319TIP3   OH2 6962   2.573   4.435   2.137  0.7434  0.3400 -0.2708
 2319TIP3    H1 6963   2.522   4.413   2.215 -0.7541  0.7487 -1.0885
 2319TIP3    H2 6964   2.561   4.360   2.078  2.1243 -0.1127 -0.0176
 2320TIP3   OH2 6965   4.442   0.015   3.437  0.7772  0.4980 -0.0483
 2320TIP3    H1 6966   4.432   0.065   3.357 -1.2034  0.2213 -0.0227
 2320TIP3    H2 6967   4.463  -0.074   3.408 -0.8265  0.1779 -0.3689
 2321TIP3   OH2 6968   2.904   0.412   4.965 -0.1328  0.0114 -0.7065
 2321TIP3    H1 6969   2.983   0.435   5.014 -0.5052  1.5553 -0.7912
 2321TIP3    H2 6970   2.858   0.351   5.023  1.4498 -1.5327 -0.9840
 2322TIP3   OH2 6971   0.099   2.513   3.649  0.0799 -0.2330 -0.0056
 2322TIP3    H1 6972   0.021   2.463   3.676 -0.6106  1.3848  1.1529
 2322TIP3    H2 6973   0.077   2.604   3.670  1.3739  0.5631 -1.8736
 2323TIP3   OH2 6974   1.652   0.335   2.215 -0.0396  0.3290 -0.2253
 2323TIP3    H1 6975   1.697   0.406   2.170 -0.6120  1.0560  0.3281
 2323TIP3    H2 6976   1.580   0.378   2.262  0.0214 -0.5274  0.6743
 2324TIP3   OH2 6977   6.104   1.089   3.253 -0.3094  0.0567  0.1442
 2324TIP3    H1 6978   6.048   1.160   3.282 -0.5486 -0.6504  1.4624
 2324TIP3    H2 6979   6.104   1.096   3.157 -1.4670  0.9360  0.1937
 2325TIP3   OH2 6980   6.041   1.185   2.146  0.4789 -0.5339 -0.6250
 2325TIP3    H1 6981   6.031   1.205   2.239 -1.2456  1.6369 -1.1876
 2325TIP3    H2 6982   5.978   1.115   2.129  1.0239 -1.1589 -0.1345
 2326TIP3   OH2 6983   5.819   2.002   1.356  0.4220 -1.0440 -0.0338
 2326TIP3    H1 6984   5.766   2.039   1.426  0.9287 -1.1045  0.3843
 2326TIP3    H2 6985   5.788   1.912   1.346 -0.9110 -0.4987 -1.1480
 2327TIP3   OH2 6986   0.325   3.075   4.391  0.8690  0.1604 -0.0755
 2327TIP3    H1 6987   0.303   3.167   4.405  0.5973  0.1511 -0.4085
 2327TIP3    H2 6988   0.403   3.077   4.335  3.2221  0.2275  2.9707
 2328TIP3   OH2 6989   1.551   0.365   4.969  0.4978 -0.1360 -0.3796
 2328TIP3    H1 6990   1.550   0.277   4.931  1.7216 -0.9088  1.2759
 2328TIP3    H2 6991   1.474   0.407   4.932 -0.3098 -2.0177 -0.9822
 2329TIP3   OH2 6992   3.198   0.853   2.480 -0.4188  0.2369  0.1948
 2329TIP3    H1 6993   3.152   0.786   2.530 -0.7734 -1.1054 -1.7729
 2329TIP3    H2 6994   3.173   0.835   2.389  3.0913  0.1298 -0.8775
 2330TIP3   OH2 6995   1.863   0.676   3.922 -0.2155  0.3263 -0.0623
 2330TIP3    H1 6996   1.844   0.639   4.008  0.1268 -2.1918 -0.9595
 2330TIP3    H2 6997   1.954   0.651   3.906  0.3440  2.4532 -0.3854
 2331TIP3   OH2 6998   5.714   4.277   1.573 -0.0058  0.3832 -0.3730
 2331TIP3    H1 6999   5.734   4.201   1.518  0.2133  0.1095  0.0803
 2331TIP3    H2 7000   5.797   4.325   1.579 -0.0221  0.3961 -0.2543
 2332TIP3   OH2 7001   3.339   3.211   3.786  0.2513  0.0049 -0.0466
 2332TIP3    H1 7002   3.284   3.209   3.864 -0.9488  2.7342 -0.6913
 2332TIP3    H2 7003   3.427   3.233   3.818 -0.0157  0.1227  0.6090
 2333TIP3   OH2 7004   2.500   2.265   1.591 -0.1768 -0.3687  0.2762
 2333TIP3    H1 7005   2.406   2.249   1.581 -0.1021 -0.1969 -0.8504
 2333TIP3    H2 7006   2.508   2.360   1.585  0.0006 -0.3276  1.0865
 2334TIP3   OH2 7007   2.166   1.440   4.274 -0.0890  0.4453 -0.3203
 2334TIP3    H1 7008   2.164   1.517   4.330 -0.4834  0.0091  0.2713
 2334TIP3    H2 7009   2.178   1.475   4.186 -0.4941  1.1995 -0.0827
 2335TIP3   OH2 7010   4.497   4.864   4.820 -0.3893  0.1079  0.1640
 2335TIP3    H1 7011   4.559   4.804   4.860  1.1854  1.5055 -0.0336
 2335TIP3    H2 7012   4.510   4.853   4.726 -0.5026  0.3290  0.1200
 2336TIP3   OH2 7013   0.204   5.941   4.396  0.0380  0.0826  0.1870
 2336TIP3    H1 7014   0.205   5.847   4.414 -1.3431  0.3615  2.0265
 2336TIP3    H2 7015   0.142   5.950   4.323  1.3119 -0.5340 -1.0191
 2337TIP3   OH2 7016   0.601   3.511   3.051 -0.8726 -0.6771 -0.6361
 2337TIP3    H1 7017   0.543   3.539   2.980 -1.8796  0.6291  0.6584
 2337TIP3    H2 7018   0.599   3.583   3.114 -0.9264 -2.2667  1.2757
 2338TIP3   OH2 7019   4.223   5.054   0.376 -0.1250  0.1910 -0.7401
 2338TIP3    H1 7020   4.316   5.066   0.359 -0.0509  1.1642  0.2201
 2338TIP3    H2 7021   4.220   5.015   0.464 -0.6298  1.4909 -0.1481
 2339TIP3   OH2 7022   5.881   3.627   4.657 -0.2091  0.1038 -0.1094
 2339TIP3    H1 7023   5.932   3.602   4.580 -0.2301  0.5732 -0.2772
 2339TIP3    H2 7024   5.809   3.564   4.659  0.2638 -0.4355  0.0123
 2340TIP3   OH2 7025   3.690   3.647   4.052  0.4653  0.1998  0.2635
 2340TIP3    H1 7026   3.726   3.734   4.039  1.4069  0.0647  1.7051
 2340TIP3    H2 7027   3.604   3.661   4.091  1.3256  0.5040  2.1343
 2341TIP3   OH2 7028   0.979   4.817   1.514 -0.5883 -0.4943 -0.1686
 2341TIP3    H1 7029   0.976   4.873   1.436 -0.4896  0.3261  0.4096
 2341TIP3    H2 7030   1.072   4.794   1.524 -0.6749 -1.0512 -0.6029
 2342TIP3   OH2 7031   0.743   2.265   1.804  0.0220 -0.1758 -0.6099
 2342TIP3    H1 7032   0.798   2.284   1.727 -1.9290  1.5714 -1.6536
 2342TIP3    H2 7033   0.790   2.306   1.877  0.1331  1.3601 -1.4869
 2343TIP3   OH2 7034   3.511   4.314   4.847 -0.0601 -0.3960  0.1357
 2343TIP3    H1 7035   3.536   4.238   4.794  1.9261 -0.3054  0.8495
 2343TIP3    H2 7036   3.535   4.289   4.937 -1.7437  0.1166  0.7540
 2344TIP3   OH2 7037   4.542   5.791   3.146  0.1408  0.0251 -0.1588
 2344TIP3    H1 7038   4.585   5.832   3.221  1.1154 -0.2984 -0.5285
 2344TIP3    H2 7039   4.448   5.796   3.167  0.3795  0.1694  0.9549
 2345TIP3   OH2 7040   0.238   0.129   3.681  0.0034  0.0295 -0.1479
 2345TIP3    H1 7041   0.236   0.137   3.586  0.6583  0.6534 -0.1125
 2345TIP3    H2 7042   0.149   0.150   3.709 -0.2608 -0.4220 -0.6350
 2346TIP3   OH2 7043   4.985   4.211   1.366 -1.0169 -0.2418 -0.1096
 2346TIP3    H1 7044   5.075   4.199   1.335 -1.2060 -2.7108  0.1023
 2346TIP3    H2 7045   4.943   4.264   1.298  0.1366 -0.5758 -1.1146
 2347TIP3   OH2 7046   3.904   2.818   5.016 -0.0765 -0.1753  0.0182
 2347TIP3    H1 7047   3.822   2.781   5.050 -0.5264  0.2679 -0.5691
 2347TIP3    H2 7048   3.972   2.764   5.056 -0.7048 -1.5598 -0.6845
 2348TIP3   OH2 7049   2.542   2.434   4.820 -0.3102  0.0390 -0.5882
 2348TIP3    H1 7050   2.525   2.524   4.845  0.7911 -0.4324  2.1457
 2348TIP3    H2 7051   2.482   2.382   4.873  0.3841 -0.9305 -0.7190
 2349TIP3   OH2 7052   3.111   4.409   4.346 -0.1236  0.7126 -0.2617
 2349TIP3    H1 7053   3.128   4.315   4.336 -1.3750  0.1438  2.2349
 2349TIP3    H2 7054   3.190   4.451   4.313  0.3324 -1.1625 -1.7644
 2350TIP3   OH2 7055   0.230   0.659   4.103  0.3686 -0.1031 -0.5256
 2350TIP3    H1 7056   0.281   0.708   4.167  0.1467 -0.6089  0.0500
 2350TIP3    H2 7057   0.295   0.618   4.046  0.5695  0.2474 -0.5458
 2351TIP3   OH2 7058   1.044   1.412   2.422  0.3755  0.0063  0.2308
 2351TIP3    H1 7059   1.114   1.464   2.462  1.8512 -0.2337 -1.8125
 2351TIP3    H2 7060   1.090   1.337   2.384 -1.2343 -0.9510  0.0832
 2352TIP3   OH2 7061   4.535   0.531   1.852  0.2681 -0.1789  0.4900
 2352TIP3    H1 7062   4.625   0.560   1.868  0.7560  0.2098 -2.4373
 2352TIP3    H2 7063   4.494   0.605   1.807 -1.0440 -0.9462  0.3778
 2353TIP3   OH2 7064   6.098   0.563   2.792  0.1066  0.0321 -0.1133
 2353TIP3    H1 7065   6.066   0.535   2.706  0.0163  1.7711 -0.6938
 2353TIP3    H2 7066   6.046   0.641   2.812  0.9795  0.3587  0.9612
 2354TIP3   OH2 7067   0.702   0.531   0.924 -0.7102 -0.2410 -0.5842
 2354TIP3    H1 7068   0.779   0.528   0.868  0.2211  1.2124  0.5398
 2354TIP3    H2 7069   0.685   0.440   0.948  1.2109 -0.5257 -0.1686
 2355TIP3   OH2 7070   1.853   4.581   3.274  0.6710  0.1423 -0.5115
 2355TIP3    H1 7071   1.918   4.523   3.315 -0.3418 -1.2921 -0.8486
 2355TIP3    H2 7072   1.852   4.555   3.182 -0.1960  0.3123 -0.5577
 2356TIP3   OH2 7073   2.151   0.254   4.961  0.1592 -0.8547 -0.2702
 2356TIP3    H1 7074   2.159   0.211   4.876  1.3106  0.0656 -0.6496
 2356TIP3    H2 7075   2.210   0.329   4.956 -0.4003 -0.2917  1.0404
 2357TIP3   OH2 7076   3.037   4.786   3.646  0.0255  0.1796 -0.5609
 2357TIP3    H1 7077   3.077   4.866   3.611  1.3688 -0.2609 -0.0962
 2357TIP3    H2 7078   3.022   4.731   3.570  1.9016 -0.3227 -0.6219
 2358TIP3   OH2 7079   6.032   1.882   3.843 -0.1339  0.2618  0.0606
 2358TIP3    H1 7080   6.013   1.961   3.794 -0.4262  0.0298 -0.2026
 2358TIP3    H2 7081   5.987   1.812   3.795  0.0607 -0.0522  0.3283
 2359TIP3   OH2 7082   5.648   2.792   0.032  0.0543 -0.2740  0.2970
 2359TIP3    H1 7083   5.718   2.857   0.020 -0.1556  0.1482  1.2698
 2359TIP3    H2 7084   5.659   2.760   0.121  0.0120 -1.4293 -0.0936
 2360TIP3   OH2 7085   4.407   5.153   1.922  0.0758 -0.2050  0.2347
 2360TIP3    H1 7086   4.372   5.162   1.834  1.8758 -1.6545 -0.7125
 2360TIP3    H2 7087   4.342   5.102   1.970 -1.1982  1.1245 -0.0419
 2361TIP3   OH2 7088   5.936   5.783   1.838  0.7379 -0.1330 -0.2996
 2361TIP3    H1 7089   5.966   5.795   1.748 -0.5791  0.1138 -0.7226
 2361TIP3    H2 7090   5.850   5.743   1.829  1.2154 -1.4906  0.9015
 2362TIP3   OH2 7091   0.340   1.379   0.708 -0.6063  0.2093 -0.0705
 2362TIP3    H1 7092   0.375   1.425   0.631  0.2332 -1.8148 -0.9666
 2362TIP3    H2 7093   0.417   1.366   0.764 -1.0763  0.9918  0.7753
 2363TIP3   OH2 7094   3.061   1.882   2.436  0.3470  0.1899  0.1328
 2363TIP3    H1 7095   3.147   1.859   2.472  0.0589  1.2087  1.5462
 2363TIP3    H2 7096   3.074   1.969   2.399  0.7988 -1.0485 -2.9628
 2364TIP3   OH2 7097   0.952   2.994   1.808  0.0030 -0.2422 -0.6128
 2364TIP3    H1 7098   1.030   2.939   1.817 -0.0246 -0.0664  1.1400
 2364TIP3    H2 7099   0.985   3.083   1.803 -0.0322 -0.2737 -1.5216
 2365TIP3   OH2 7100   3.738   3.471   1.400 -0.4695  0.2542  0.6925
 2365TIP3    H1 7101   3.778   3.413   1.464 -1.2185  0.3969  1.3034
 2365TIP3    H2 7102   3.739   3.421   1.318  0.0920 -0.1013  0.9125
 2366TIP3   OH2 7103   0.477   4.488   0.122 -0.0511 -0.3805  0.0017
 2366TIP3    H1 7104   0.518   4.401   0.123  0.2450 -0.2879  2.2874
 2366TIP3    H2 7105   0.536   4.542   0.174 -1.4208  0.5996  0.5901
 2367TIP3   OH2 7106   0.237   2.015   2.442 -0.5620 -0.7816  0.5294
 2367TIP3    H1 7107   0.191   2.062   2.373 -2.5152  0.3010  2.4242
 2367TIP3    H2 7108   0.178   2.020   2.518  2.0139 -0.7110  2.6829
 2368TIP3   OH2 7109   5.741   2.680   2.118 -0.3921 -0.7758 -0.2920
 2368TIP3    H1 7110   5.678   2.751   2.117  1.0444  0.6315  1.4132
 2368TIP3    H2 7111   5.806   2.704   2.051  0.5253 -0.0177  0.8412
 2369TIP3   OH2 7112   0.742   0.765   3.864 -0.0249 -0.0311  0.3583
 2369TIP3    H1 7113   0.739   0.715   3.945  0.7741 -0.2128  0.2825
 2369TIP3    H2 7114   0.723   0.700   3.796 -1.7012  0.3172  0.4637
 2370TIP3   OH2 7115   5.309   4.941   4.536  0.6939  0.2004  0.1987
 2370TIP3    H1 7116   5.263   4.906   4.460 -1.6905 -0.1710  1.6948
 2370TIP3    H2 7117   5.364   4.869   4.565  1.5265  0.3010 -1.0565
 2371TIP3   OH2 7118   1.406   2.545   4.463 -0.0149  0.3744  0.1730
 2371TIP3    H1 7119   1.480   2.605   4.475  2.0018 -2.2122  2.0966
 2371TIP3    H2 7120   1.436   2.483   4.398 -0.7347 -0.3795  0.5453
 2372TIP3   OH2 7121   4.275   0.411   3.172  0.0897 -0.2536 -0.4652
 2372TIP3    H1 7122   4.291   0.402   3.078 -1.5251 -2.3351 -0.6420
 2372TIP3    H2 7123   4.195   0.462   3.178  0.5280  0.4077 -0.1769
 2373TIP3   OH2 7124   3.862   2.567   3.859 -0.2063  0.1741 -0.2820
 2373TIP3    H1 7125   3.832   2.646   3.905  0.9212  0.1329  0.6038
 2373TIP3    H2 7126   3.783   2.518   3.839 -0.8238  0.8381  0.4774
 2374TIP3   OH2 7127   5.710   2.737   1.140  0.5054  0.0395 -0.3724
 2374TIP3    H1 7128   5.788   2.697   1.178  0.3788  1.9561  2.1483
 2374TIP3    H2 7129   5.669   2.666   1.090  3.4716 -1.1930 -1.3151
 2375TIP3   OH2 7130   5.121   4.092   1.827 -0.4441  0.7664  0.0670
 2375TIP3    H1 7131   5.100   4.052   1.743 -2.1630 -0.4700  1.0010
 2375TIP3    H2 7132   5.102   4.185   1.816 -0.5990  0.6245 -0.9058
 2376TIP3   OH2 7133   1.761   3.101   1.861 -0.1361  0.0907 -0.5001
 2376TIP3    H1 7134   1.839   3.085   1.808  1.0649  0.0691  1.1891
 2376TIP3    H2 7135   1.695   3.132   1.799  1.3973  0.6876 -1.8882
 2377TIP3   OH2 7136   3.921   1.199   1.451  0.5970 -0.5332  0.0973
 2377TIP3    H1 7137   3.971   1.280   1.442 -0.4121 -0.0469 -1.4686
 2377TIP3    H2 7138   3.978   1.132   1.413 -0.4199  0.2651 -3.1596
 2378TIP3   OH2 7139   2.956   4.113   0.166  0.1562 -0.2390 -0.0981
 2378TIP3    H1 7140   2.868   4.144   0.190  0.5509 -0.2805  1.4901
 2378TIP3    H2 7141   2.940   4.047   0.099 -0.8696  1.3555 -1.5270
 2379TIP3   OH2 7142   1.839   1.310   0.591  0.2734 -0.6994 -0.2124
 2379TIP3    H1 7143   1.749   1.330   0.615  0.7291  0.0573  0.9402
 2379TIP3    H2 7144   1.872   1.391   0.553  1.2294 -0.1297  1.7361
 2380TIP3   OH2 7145   3.267   2.542   3.496  0.2534 -0.2311  0.2435
 2380TIP3    H1 7146   3.345   2.589   3.526 -1.0421  1.5442  1.0399
 2380TIP3    H2 7147   3.265   2.558   3.401 -0.7825  2.5064  0.6238
 2381TIP3   OH2 7148   0.515   3.045   4.176 -0.5027 -0.1775 -0.1724
 2381TIP3    H1 7149   0.554   3.132   4.187 -0.4757 -0.2522  0.3704
 2381TIP3    H2 7150   0.555   3.010   4.097  0.9693 -0.4686  0.6678
 2382TIP3   OH2 7151   3.492   4.890   4.788 -0.2882  0.3638 -0.2383
 2382TIP3    H1 7152   3.396   4.890   4.784 -0.3544  1.5237  0.7311
 2382TIP3    H2 7153   3.512   4.872   4.879  0.3161  2.7135  0.1632
 2383TIP3   OH2 7154   2.337   2.864   5.169  0.2808  0.2723  0.0045
 2383TIP3    H1 7155   2.377   2.778   5.183  1.1215  0.3799 -1.5812
 2383TIP3    H2 7156   2.407   2.918   5.133 -0.2196  1.6677  1.0284
 2384TIP3   OH2 7157   6.290   3.732   3.662  0.4028 -0.0781 -0.3686
 2384TIP3    H1 7158   6.292   3.783   3.743  1.1822  0.1427 -0.5212
 2384TIP3    H2 7159   6.339   3.784   3.600 -0.9122  0.1694 -1.2489
 2385TIP3   OH2 7160   5.742   4.550   3.169  0.3802  0.4831  0.6680
 2385TIP3    H1 7161   5.650   4.524   3.171  0.1129  1.3985  2.3982
 2385TIP3    H2 7162   5.747   4.615   3.099 -0.7507  1.8884  1.8341
 2386TIP3   OH2 7163   2.492   1.275   3.698 -0.0212  0.0474 -0.1729
 2386TIP3    H1 7164   2.518   1.312   3.614  0.8134 -0.5033 -0.1659
 2386TIP3    H2 7165   2.547   1.198   3.708  0.0840  0.2626  1.0092
 2387TIP3   OH2 7166   0.947   2.884   4.231 -0.3319  0.0073 -0.3840
 2387TIP3    H1 7167   0.997   2.887   4.149 -0.5871 -0.6890 -0.5750
 2387TIP3    H2 7168   0.992   2.819   4.284 -0.4046  0.1673 -0.1257
 2388TIP3   OH2 7169   1.966   5.854   4.897 -0.1178  0.5157 -0.1580
 2388TIP3    H1 7170   2.049   5.873   4.939  0.0837 -0.2200 -0.2111
 2388TIP3    H2 7171   1.950   5.761   4.915 -0.4864  0.4244 -0.8963
 2389TIP3   OH2 7172   3.525   0.843   1.231  0.2849  0.1063  0.1440
 2389TIP3    H1 7173   3.469   0.799   1.296 -1.3060 -0.4861 -1.5164
 2389TIP3    H2 7174   3.497   0.934   1.233 -0.6842 -0.1605 -0.5766
 2390TIP3   OH2 7175   4.676   3.345   2.216  0.3613  0.1671  1.1058
 2390TIP3    H1 7176   4.678   3.309   2.127 -0.3136  0.8760  0.7857
 2390TIP3    H2 7177   4.634   3.431   2.206 -1.1374 -0.3764  2.3268
 2391TIP3   OH2 7178   2.593   1.940   2.369  0.1516 -0.4053  0.5380
 2391TIP3    H1 7179   2.625   1.911   2.283  0.4613  1.2331  0.0507
 2391TIP3    H2 7180   2.499   1.955   2.355 -0.4174 -2.8352  1.2973
 2392TIP3   OH2 7181   1.282   3.693   3.947  0.0034  0.5310 -0.0722
 2392TIP3    H1 7182   1.255   3.784   3.939 -1.5346  0.0481 -0.6144
 2392TIP3    H2 7183   1.263   3.654   3.861  0.0269 -0.4488  0.3521
 2393TIP3   OH2 7184   3.359   5.901   3.081  0.6103  0.0490  0.5069
 2393TIP3    H1 7185   3.414   5.840   3.130  2.3367 -1.5654 -3.0470
 2393TIP3    H2 7186   3.419   5.970   3.052 -0.4247  1.1584  0.9249
 2394TIP3   OH2 7187   2.640   4.747   4.171 -0.7455 -0.0606  0.0507
 2394TIP3    H1 7188   2.721   4.719   4.214  0.6226  1.5347 -1.3245
 2394TIP3    H2 7189   2.655   4.730   4.078 -2.0111  0.2367 -0.2257
 2395TIP3   OH2 7190   6.027   3.113   1.914 -0.1412 -0.0826  0.3619
 2395TIP3    H1 7191   6.014   3.117   1.819  0.7179  0.4903  0.2622
 2395TIP3    H2 7192   6.087   3.185   1.933 -1.0206  0.3972  1.4690
 2396TIP3   OH2 7193   4.466   3.248   2.398  0.3169  0.2147 -0.5656
 2396TIP3    H1 7194   4.469   3.169   2.451 -0.6313 -0.6703 -1.7534
 2396TIP3    H2 7195   4.536   3.237   2.334  2.2236  1.8090  1.1157
 2397TIP3   OH2 7196   1.544   3.965   2.858  0.0096  0.0967 -0.2566
 2397TIP3    H1 7197   1.469   3.908   2.873  0.3712 -0.2794  0.1430
 2397TIP3    H2 7198   1.573   3.991   2.945 -1.1171  2.1911 -0.4446
 2398TIP3   OH2 7199   0.361   2.901   1.815 -0.5752 -0.3019 -0.7448
 2398TIP3    H1 7200   0.315   2.932   1.894 -0.2573 -1.6645  0.0038
 2398TIP3    H2 7201   0.348   2.971   1.751 -1.6226  0.4314  0.2239
 2399TIP3   OH2 7202   1.398   3.634   2.279  0.4000 -0.3420 -0.3350
 2399TIP3    H1 7203   1.353   3.675   2.205 -1.8433  1.2180  1.7428
 2399TIP3    H2 7204   1.455   3.702   2.313 -0.9544  0.0764  1.2115
 2400TIP3   OH2 7205   0.723   2.736   4.740 -1.0858 -0.2590  0.3791
 2400TIP3    H1 7206   0.666   2.748   4.816  0.2951 -1.0813  1.5814
 2400TIP3    H2 7207   0.693   2.802   4.677 -0.4257  2.4821  2.7288
 2401TIP3   OH2 7208   1.497   2.800   1.818  0.2122 -0.3477 -0.3501
 2401TIP3    H1 7209   1.547   2.758   1.748  0.5182  0.6307 -0.7456
 2401TIP3    H2 7210   1.534   2.888   1.823 -1.4874  0.4228 -0.6841
 2402TIP3   OH2 7211   3.219   3.995   1.032  0.0131  0.2471 -0.0049
 2402TIP3    H1 7212   3.282   4.042   0.977  0.4055 -1.5896 -1.2085
 2402TIP3    H2 7213   3.258   3.910   1.047 -2.0089 -0.8370 -0.4988
 2403TIP3   OH2 7214   0.970   5.656   2.220 -0.0059  0.4710 -0.0395
 2403TIP3    H1 7215   1.011   5.603   2.151  1.8644  1.3494  0.3548
 2403TIP3    H2 7216   1.042   5.688   2.272 -1.3874 -0.3668  2.5562
 2404TIP3   OH2 7217   5.052   0.800   1.916  0.1297 -0.1519  0.6303
 2404TIP3    H1 7218   5.118   0.740   1.950 -1.7452 -1.9922  1.1868
 2404TIP3    H2 7219   5.036   0.770   1.827  1.7281  1.8420 -0.4360
 2405TIP3   OH2 7220   6.286   0.815   0.779 -0.7710 -0.3007  0.1685
 2405TIP3    H1 7221   6.311   0.774   0.862 -0.6127 -0.3867  0.0793
 2405TIP3    H2 7222   6.272   0.907   0.801 -0.8420 -0.3468  0.3137
 2406TIP3   OH2 7223   5.968   5.507   4.503  0.8891 -0.5649 -0.5898
 2406TIP3    H1 7224   5.934   5.545   4.423  1.6978 -1.0702 -1.1885
 2406TIP3    H2 7225   5.897   5.516   4.566  0.8440  1.3667 -0.8632
 2407TIP3   OH2 7226   1.803   0.664   3.185  0.1535  0.1698 -0.1035
 2407TIP3    H1 7227   1.793   0.604   3.111  3.1914 -0.9546  0.2634
 2407TIP3    H2 7228   1.826   0.748   3.146  0.8343 -0.1827 -0.4657
 2408TIP3   OH2 7229   2.463   1.080   1.863  0.2871 -0.5574  0.9950
 2408TIP3    H1 7230   2.483   0.996   1.822  0.8977 -0.2271  0.5931
 2408TIP3    H2 7231   2.389   1.114   1.812 -0.2813 -1.0649  1.4691
 2409TIP3   OH2 7232   3.017   3.623   4.476  0.2955 -0.2782 -0.4157
 2409TIP3    H1 7233   2.940   3.680   4.482  0.3189 -0.2474 -0.4074
 2409TIP3    H2 7234   2.981   3.537   4.458  0.1487 -0.5910  1.2373
 2410TIP3   OH2 7235   2.761   1.488   1.243  0.5145 -0.4671 -0.0035
 2410TIP3    H1 7236   2.692   1.423   1.256 -0.4834  0.3426 -0.9731
 2410TIP3    H2 7237   2.767   1.534   1.326 -0.5688 -0.1482 -0.0874
 2411TIP3   OH2 7238   6.281   4.801   0.191  0.0756  0.3847 -0.4610
 2411TIP3    H1 7239   6.313   4.882   0.231  0.1775  0.1798 -0.1213
 2411TIP3    H2 7240   6.187   4.813   0.184 -0.4854 -0.9550  3.1142
 2412TIP3   OH2 7241   4.066   4.302   2.029 -0.7989  0.1116 -0.1552
 2412TIP3    H1 7242   3.985   4.310   2.078  0.1016  2.4555  1.1327
 2412TIP3    H2 7243   4.061   4.371   1.962  0.0329  0.1640 -0.1812
 2413TIP3   OH2 7244   3.897   4.267   4.577 -0.0278 -0.2700 -0.8776
 2413TIP3    H1 7245   3.850   4.200   4.527 -0.9190  0.0723 -0.5247
 2413TIP3    H2 7246   3.881   4.243   4.669  0.5271 -0.1684 -0.7502
 2414TIP3   OH2 7247   4.354   4.363   2.772 -0.1887  0.0430 -0.1223
 2414TIP3    H1 7248   4.439   4.319   2.765 -0.0962 -0.0719  1.3711
 2414TIP3    H2 7249   4.370   4.451   2.739  0.2313 -0.3041 -0.8797
 2415TIP3   OH2 7250   4.887   3.137   3.105  0.3236 -0.0672 -0.5194
 2415TIP3    H1 7251   4.800   3.117   3.137  0.9116 -2.4456 -0.2236
 2415TIP3    H2 7252   4.877   3.219   3.056 -2.0214 -0.2362 -0.4012
 2416TIP3   OH2 7253   0.790   0.220   3.777 -0.2598 -0.0354  0.4160
 2416TIP3    H1 7254   0.859   0.275   3.815  0.2292 -0.9524  0.8947
 2416TIP3    H2 7255   0.823   0.131   3.787 -1.5479 -0.4912  0.6905
 2417TIP3   OH2 7256   4.708   5.817   2.640  0.1583  0.7906  0.8643
 2417TIP3    H1 7257   4.700   5.865   2.558 -1.0672 -0.7938  0.0097
 2417TIP3    H2 7258   4.793   5.773   2.633  0.2760  1.0441  0.6663
 2418TIP3   OH2 7259   4.424   2.530   0.285  0.1608 -0.4735  0.1099
 2418TIP3    H1 7260   4.361   2.458   0.286 -0.9435  0.4517 -0.6339
 2418TIP3    H2 7261   4.506   2.489   0.257 -0.4953 -1.4098 -0.5339
 2419TIP3   OH2 7262   2.745   2.423   3.923 -0.1191  0.1251  0.1133
 2419TIP3    H1 7263   2.822   2.464   3.963 -0.1655 -0.7379  1.1165
 2419TIP3    H2 7264   2.695   2.497   3.887 -0.8721  1.1813  2.9966
 2420TIP3   OH2 7265   5.783   3.341   1.764 -0.0714  0.0811 -0.2215
 2420TIP3    H1 7266   5.799   3.413   1.703  0.5916 -0.7826 -1.1063
 2420TIP3    H2 7267   5.828   3.267   1.724  0.2114 -0.5491  1.2398
 2421TIP3   OH2 7268   1.633   3.843   1.367  0.0917 -0.4582  0.2622
 2421TIP3    H1 7269   1.689   3.907   1.323 -0.8882  0.2803  0.0514
 2421TIP3    H2 7270   1.590   3.795   1.296  0.7028 -1.2586  0.4210
 2422TIP3   OH2 7271   6.237   5.130   0.053 -0.3044 -0.5479 -0.1160
 2422TIP3    H1 7272   6.314   5.125  -0.004  0.4741  0.0785  0.8491
 2422TIP3    H2 7273   6.251   5.061   0.118 -0.2193 -0.0120  0.4465
 2423TIP3   OH2 7274   2.805   0.317   2.037 -0.6717 -0.1435 -0.1476
 2423TIP3    H1 7275   2.738   0.383   2.057  0.4900  0.7485  0.9626
 2423TIP3    H2 7276   2.772   0.237   2.078 -0.2612  0.7081  2.0004
 2424TIP3   OH2 7277   0.421  -0.006   3.308  0.1298 -1.1126 -0.0921
 2424TIP3    H1 7278   0.356   0.062   3.329 -1.2022 -2.1873 -0.5948
 2424TIP3    H2 7279   0.477  -0.010   3.386  0.2158  0.5046 -0.0305
 2425TIP3   OH2 7280   2.821   0.478   0.030  0.4255  0.3838  0.5989
 2425TIP3    H1 7281   2.857   0.438   0.110  1.7017 -0.0753 -0.1761
 2425TIP3    H2 7282   2.739   0.517   0.059 -0.2870 -1.7052  1.6910
 2426TIP3   OH2 7283   5.353   4.496   3.439 -0.3309 -0.0530  0.0191
 2426TIP3    H1 7284   5.346   4.506   3.344 -0.7779  1.8286  0.2090
 2426TIP3    H2 7285   5.431   4.546   3.463 -0.4741 -0.1354  0.6782
 2427TIP3   OH2 7286   2.174   5.395   3.863 -0.0665  0.2913  0.6221
 2427TIP3    H1 7287   2.231   5.455   3.815  0.0627  0.9655  1.6061
 2427TIP3    H2 7288   2.187   5.417   3.955 -0.1376 -1.1366  1.0061
 2428TIP3   OH2 7289   3.538   1.906   0.747 -0.4900  0.0041  0.3604
 2428TIP3    H1 7290   3.503   1.974   0.804 -0.5711  0.2199  0.0594
 2428TIP3    H2 7291   3.463   1.879   0.694 -0.4847 -0.4052  0.5624
 2429TIP3   OH2 7292   4.877   4.104   4.344 -0.2597  0.1726  0.1551
 2429TIP3    H1 7293   4.914   4.044   4.408 -0.4460  0.7614  0.8251
 2429TIP3    H2 7294   4.828   4.168   4.396 -1.8760 -0.3339 -0.6886
 2430TIP3   OH2 7295   3.327   0.775   1.443  0.2113 -0.0407 -0.5207
 2430TIP3    H1 7296   3.241   0.738   1.463  0.8900 -3.2741 -2.8880
 2430TIP3    H2 7297   3.390   0.707   1.468  1.7697  0.5857 -2.4744
 2431TIP3   OH2 7298   5.414   4.162   0.759  0.4339 -0.0867  0.3869
 2431TIP3    H1 7299   5.454   4.076   0.771  1.0102  0.1251  0.0213
 2431TIP3    H2 7300   5.452   4.196   0.678  0.4232  0.6248  0.6639
 2432TIP3   OH2 7301   1.646   5.520   1.317 -0.0297 -0.4039  0.0536
 2432TIP3    H1 7302   1.732   5.563   1.321  0.2383 -0.9636  0.5562
 2432TIP3    H2 7303   1.666   5.427   1.330 -0.5903 -0.6935 -1.0549
 2433TIP3   OH2 7304   6.211   1.830   2.126  0.1245  0.5874  0.1939
 2433TIP3    H1 7305   6.170   1.912   2.153 -0.0688  1.1978 -1.7716
 2433TIP3    H2 7306   6.163   1.804   2.047  1.3358 -0.4658 -0.2336
 2434TIP3   OH2 7307   3.692   3.058   0.891  0.3887  0.2914 -0.1955
 2434TIP3    H1 7308   3.635   3.128   0.860 -0.4244 -0.8912 -1.5343
 2434TIP3    H2 7309   3.774   3.071   0.843  0.4817  0.7028  0.0689
 2435TIP3   OH2 7310   4.150   1.751   2.344 -0.1724  0.0423  0.4427
 2435TIP3    H1 7311   4.224   1.701   2.379 -1.1134 -0.3516  1.9547
 2435TIP3    H2 7312   4.074   1.695   2.359 -0.7982  0.4427 -1.0903
 2436TIP3   OH2 7313   1.922   1.076   2.319 -0.2400 -0.2537 -0.0871
 2436TIP3    H1 7314   1.877   1.006   2.367 -1.6103  1.3641  1.1267
 2436TIP3    H2 7315   2.013   1.048   2.315  0.4646  0.2386  5.2542
 2437TIP3   OH2 7316   1.134   2.556   3.994  0.3079  0.5911  0.0473
 2437TIP3    H1 7317   1.057   2.553   4.051 -0.4648 -0.2346 -1.0151
 2437TIP3    H2 7318   1.192   2.487   4.027  0.3258  0.7950  0.4508
 2438TIP3   OH2 7319   2.232   2.755   2.274 -0.3324  0.0279  0.6536
 2438TIP3    H1 7320   2.208   2.698   2.201  0.0742 -0.3829  0.8413
 2438TIP3    H2 7321   2.322   2.781   2.256 -0.5699  0.7653  0.4739
 2439TIP3   OH2 7322   5.863   5.159   2.212  0.5556 -0.3964  0.5262
 2439TIP3    H1 7323   5.912   5.131   2.289 -0.0103 -0.8077  0.7445
 2439TIP3    H2 7324   5.836   5.249   2.232  1.3997 -0.0799  0.3060
 2440TIP3   OH2 7325   5.232   3.906   4.771 -0.0704  0.2227 -0.2824
 2440TIP3    H1 7326   5.204   3.815   4.765 -1.5104  0.3774  2.4345
 2440TIP3    H2 7327   5.301   3.906   4.837  0.0779  1.0561 -0.4217
 2441TIP3   OH2 7328   0.538   3.776   3.688  0.0255  0.5430 -0.1706
 2441TIP3    H1 7329   0.628   3.779   3.722  1.0482 -1.6785 -2.3932
 2441TIP3    H2 7330   0.505   3.691   3.715 -0.7272  0.5734 -0.9708
 2442TIP3   OH2 7331   3.477   1.345   1.487 -0.0190 -0.3010  0.4037
 2442TIP3    H1 7332   3.548   1.294   1.447 -1.1460 -1.3628 -0.3328
 2442TIP3    H2 7333   3.434   1.284   1.546 -2.0010 -0.5854 -1.2161
 2443TIP3   OH2 7334   4.665   1.677   3.048 -0.6619 -0.2184  0.7909
 2443TIP3    H1 7335   4.641   1.643   2.961 -2.7978  1.9123  0.4246
 2443TIP3    H2 7336   4.586   1.666   3.100  0.2181 -0.3733  2.1217
 2444TIP3   OH2 7337   4.618   1.400   3.335 -0.3900 -0.0831  0.5607
 2444TIP3    H1 7338   4.568   1.395   3.253  1.7149 -0.4873 -0.7713
 2444TIP3    H2 7339   4.675   1.324   3.333 -0.5433 -0.3101  2.6345
 2445TIP3   OH2 7340   5.968   5.799   2.370 -0.3215  0.0391  0.2330
 2445TIP3    H1 7341   6.004   5.801   2.459  0.0896  0.3212  0.0629
 2445TIP3    H2 7342   5.886   5.849   2.377 -1.6813 -2.1587  1.0360
 2446TIP3   OH2 7343   0.009   1.447   3.452 -0.0544 -0.1426  0.4328
 2446TIP3    H1 7344  -0.001   1.514   3.520  0.7967  1.0951 -0.6181
 2446TIP3    H2 7345   0.073   1.483   3.392 -0.0209 -1.6652 -0.5017
 2447TIP3   OH2 7346   2.865   1.519   0.366 -0.6384 -0.1911 -0.2616
 2447TIP3    H1 7347   2.827   1.525   0.454 -1.5015 -0.5826 -0.5974
 2447TIP3    H2 7348   2.798   1.474   0.314 -0.3672  0.5311 -1.2587
 2448TIP3   OH2 7349   1.642   4.175   2.111  0.1617  0.0801 -0.6107
 2448TIP3    H1 7350   1.559   4.130   2.129 -0.9731  2.6952  1.4450
 2448TIP3    H2 7351   1.617   4.267   2.102  2.9203  1.0730  0.8085
 2449TIP3   OH2 7352   3.802   4.841   0.858 -0.1048 -0.2536 -0.1478
 2449TIP3    H1 7353   3.776   4.785   0.931  0.2442 -2.0128 -1.3105
 2449TIP3    H2 7354   3.720   4.866   0.816 -0.1917 -1.6600 -0.8549
 2450TIP3   OH2 7355   3.701   4.107   0.806 -0.3144 -0.4019  1.3710
 2450TIP3    H1 7356   3.696   4.197   0.775  2.4710  0.0368  1.9134
 2450TIP3    H2 7357   3.619   4.067   0.777 -0.7172  1.7112 -0.7143
 2451TIP3   OH2 7358   5.570   0.762   1.167  0.2779 -0.0525  0.2976
 2451TIP3    H1 7359   5.663   0.741   1.174  0.4196  0.1772 -0.8030
 2451TIP3    H2 7360   5.554   0.769   1.073 -0.8926 -0.2695  0.4743
 2452TIP3   OH2 7361   5.568   1.567   1.831 -0.1883  0.5012  0.0720
 2452TIP3    H1 7362   5.641   1.524   1.875  0.1110  1.4082  0.5044
 2452TIP3    H2 7363   5.516   1.605   1.902  1.0869  3.2479 -0.3281
 2453TIP3   OH2 7364   3.255   1.186   3.982 -0.0879  0.0391  0.1709
 2453TIP3    H1 7365   3.241   1.281   3.984  0.1631  0.0934 -0.3939
 2453TIP3    H2 7366   3.346   1.176   3.953 -0.0662 -0.3731  0.3730
 2454TIP3   OH2 7367   0.686   1.243   2.778 -0.7362  0.0469  0.1316
 2454TIP3    H1 7368   0.758   1.267   2.719 -1.6858  0.4606 -0.8899
 2454TIP3    H2 7369   0.721   1.172   2.831  0.8961  1.1514  0.6148
 2455TIP3   OH2 7370   6.126   2.550   0.088 -0.2885  0.1239 -0.0771
 2455TIP3    H1 7371   6.174   2.627   0.058 -0.2988  0.1410 -0.0496
 2455TIP3    H2 7372   6.193   2.493   0.125 -0.0964 -0.4372 -1.2326
 2456TIP3   OH2 7373   5.334   5.564   1.506 -0.2417  0.2958  0.1792
 2456TIP3    H1 7374   5.388   5.601   1.437 -2.8493  0.6505 -1.8295
 2456TIP3    H2 7375   5.355   5.471   1.507  0.9278  0.5515 -0.0102
 2457TIP3   OH2 7376   4.615   3.596   3.666 -0.0374 -0.6458  0.0939
 2457TIP3    H1 7377   4.660   3.584   3.582 -1.1263 -1.7079 -0.3654
 2457TIP3    H2 7378   4.643   3.683   3.696  3.0163 -1.6043  0.2985
 2458TIP3   OH2 7379   5.358   5.246   3.314  0.6045 -0.0709  0.2678
 2458TIP3    H1 7380   5.417   5.175   3.338  0.2727  0.1280  1.7625
 2458TIP3    H2 7381   5.274   5.223   3.354 -0.2402 -0.1209 -1.4396
 2459TIP3   OH2 7382   4.859   3.964   1.276  0.0449  0.1721 -0.3708
 2459TIP3    H1 7383   4.946   3.923   1.276 -0.1058 -0.1841 -1.1189
 2459TIP3    H2 7384   4.876   4.057   1.290  0.4562 -0.0405  0.5873
 2460TIP3   OH2 7385   5.018   1.754   3.139 -0.1310 -0.2304 -0.1156
 2460TIP3    H1 7386   5.104   1.796   3.141  0.0812 -0.6332 -0.5932
 2460TIP3    H2 7387   5.030   1.677   3.084 -1.1454  0.4776 -1.3874
 2461TIP3   OH2 7388   5.367   4.742   2.516 -0.4759  0.1699  0.1320
 2461TIP3    H1 7389   5.312   4.810   2.555  0.1962  1.4856 -1.0988
 2461TIP3    H2 7390   5.403   4.783   2.437  0.3475 -1.4687 -0.3918
 2462TIP3   OH2 7391   4.502   2.668   2.288  0.0580 -0.3509  0.5620
 2462TIP3    H1 7392   4.504   2.756   2.250  0.7345 -0.9551 -0.8831
 2462TIP3    H2 7393   4.416   2.660   2.327 -0.2580  0.7206  0.1107
 2463TIP3   OH2 7394   0.991   1.141   3.884 -0.3632 -0.3812  0.0689
 2463TIP3    H1 7395   0.974   1.218   3.939 -4.0888 -0.3564 -0.8476
 2463TIP3    H2 7396   1.032   1.176   3.805  1.5743  0.0455  1.1847
 2464TIP3   OH2 7397   4.606   0.448   2.117 -0.1693 -0.0975 -0.1114
 2464TIP3    H1 7398   4.607   0.471   2.024 -2.9186 -0.5768 -0.3317
 2464TIP3    H2 7399   4.616   0.353   2.119  0.0657 -0.0715  0.1191
 2465TIP3   OH2 7400   0.366   1.277   3.827  0.1909 -0.5214 -0.3183
 2465TIP3    H1 7401   0.437   1.341   3.836 -0.3619  0.0145  0.3785
 2465TIP3    H2 7402   0.349   1.272   3.733  1.6661 -1.2408 -0.5651
 2466TIP3   OH2 7403   4.249   4.141   3.229  0.2793 -0.3312  0.3376
 2466TIP3    H1 7404   4.292   4.065   3.267  0.1416 -0.0157  1.1506
 2466TIP3    H2 7405   4.295   4.156   3.147 -0.0635 -1.6286 -0.1031
 2467TIP3   OH2 7406   3.914   1.480   0.244  0.5247  0.8590 -0.2176
 2467TIP3    H1 7407   3.970   1.424   0.191 -1.1020  0.3569 -1.4926
 2467TIP3    H2 7408   3.854   1.420   0.288  0.9964  1.3761  1.1920
 2468TIP3   OH2 7409   5.872   2.668   0.539 -0.3220  0.2662 -0.1146
 2468TIP3    H1 7410   5.867   2.762   0.518  3.6861  0.4913 -0.9145
 2468TIP3    H2 7411   5.890   2.626   0.455  1.8388 -0.6461  0.7388
 2469TIP3   OH2 7412   6.179   0.562   3.775  0.2276  0.1308 -0.4721
 2469TIP3    H1 7413   6.275   0.556   3.773  0.4615  2.6953 -0.0222
 2469TIP3    H2 7414   6.159   0.593   3.863 -0.9242  0.8277 -0.9609
 2470TIP3   OH2 7415   0.972   1.079   4.956 -0.2681  0.4944  0.1956
 2470TIP3    H1 7416   0.940   0.989   4.965 -0.9750  0.8204  1.0615
 2470TIP3    H2 7417   0.914   1.119   4.892  1.2474 -0.1870 -1.7214
 2471TIP3   OH2 7418   0.222   5.093   3.544 -0.1766  0.0214 -0.2630
 2471TIP3    H1 7419   0.245   5.025   3.481 -0.0985  0.6901 -0.9653
 2471TIP3    H2 7420   0.161   5.150   3.497 -0.2501  0.4371  0.3199
 2472TIP3   OH2 7421   0.245   1.659   4.383  0.0563  0.0072 -0.2576
 2472TIP3    H1 7422   0.328   1.703   4.362 -0.7973  1.1100 -1.4814
 2472TIP3    H2 7423   0.255   1.633   4.475  1.5722  0.5317 -0.2384
 2473TIP3   OH2 7424   4.231   5.930   1.821 -0.0968 -0.0396 -0.0745
 2473TIP3    H1 7425   4.224   5.844   1.862  0.4338 -0.1101 -0.1163
 2473TIP3    H2 7426   4.145   5.946   1.783 -0.8548  0.3704  1.7219
 2474TIP3   OH2 7427   0.484   5.673   1.841 -0.3691 -0.7143  0.5788
 2474TIP3    H1 7428   0.475   5.768   1.845  0.6717 -0.4283 -1.7007
 2474TIP3    H2 7429   0.435   5.648   1.762 -0.3247 -2.0155  0.9478
 2475TIP3   OH2 7430   3.359   2.061   0.893  0.3185 -0.6887  0.1527
 2475TIP3    H1 7431   3.340   2.077   0.986  1.1190 -0.6583  0.3131
 2475TIP3    H2 7432   3.272   2.060   0.852 -0.0061  0.0544  0.7763
 2476TIP3   OH2 7433   5.652   1.810   4.629 -0.0190 -0.3505  0.0953
 2476TIP3    H1 7434   5.606   1.892   4.614 -1.7480 -1.5282 -1.5160
 2476TIP3    H2 7435   5.676   1.812   4.722 -1.3615  1.3039  0.4560
 2477TIP3   OH2 7436   1.924   5.437   1.640  0.2961 -0.1395 -0.1465
 2477TIP3    H1 7437   1.855   5.393   1.590 -1.5576  0.2195  1.9731
 2477TIP3    H2 7438   1.951   5.373   1.706 -0.2401  0.7763  0.9996
 2478TIP3   OH2 7439   2.125   0.660   4.785  0.2151  0.7760  0.6512
 2478TIP3    H1 7440   2.177   0.626   4.712 -2.5050 -0.2405 -0.9545
 2478TIP3    H2 7441   2.093   0.581   4.830 -1.2792  1.3090  0.5648
 2479TIP3   OH2 7442   5.368   3.247   3.827  0.0869  0.4684 -0.7565
 2479TIP3    H1 7443   5.434   3.194   3.871 -0.6868  1.8157  2.2726
 2479TIP3    H2 7444   5.343   3.314   3.891 -1.8862  2.0125 -2.9376
 2480TIP3   OH2 7445   1.981   0.430   1.081  0.1183  0.4378  0.1843
 2480TIP3    H1 7446   1.895   0.449   1.044  0.6810  1.0079 -0.8640
 2480TIP3    H2 7447   2.043   0.448   1.010  1.0851 -0.2807  0.8174
 2481TIP3   OH2 7448   1.294   4.234   1.261 -0.0411 -0.0816  0.2882
 2481TIP3    H1 7449   1.199   4.231   1.272 -0.0135 -0.8266  0.3531
 2481TIP3    H2 7450   1.329   4.189   1.337  0.3187 -0.8785 -0.3288
 2482TIP3   OH2 7451   1.136   5.719   4.242  0.1958 -0.6365 -0.3506
 2482TIP3    H1 7452   1.226   5.739   4.216  0.5890 -1.0146  0.6589
 2482TIP3    H2 7453   1.082   5.763   4.177  1.0957  0.5333 -0.3504
 2483TIP3   OH2 7454   0.536   3.864   0.258  0.0585 -0.4461  0.1529
 2483TIP3    H1 7455   0.460   3.814   0.226  0.4452  0.5382 -2.5816
 2483TIP3    H2 7456   0.611   3.809   0.236  0.2400 -0.9609  1.9375
 2484TIP3   OH2 7457   3.821   2.025   3.960  0.3250  0.6559  0.1837
 2484TIP3    H1 7458   3.811   1.931   3.977  2.5590  0.2506 -0.3821
 2484TIP3    H2 7459   3.740   2.050   3.916 -0.6814 -0.7941  1.0940
 2485TIP3   OH2 7460   5.113   0.212   4.137 -0.1100  0.0919 -0.1537
 2485TIP3    H1 7461   5.178   0.265   4.182 -0.4776  0.1209  0.3424
 2485TIP3    H2 7462   5.054   0.182   4.206 -0.2912 -0.4078 -0.5217
 2486TIP3   OH2 7463   6.047   1.077   4.302 -0.1329 -0.5951  0.0711
 2486TIP3    H1 7464   6.130   1.032   4.287  1.5216  1.9161  1.0312
 2486TIP3    H2 7465   6.014   1.038   4.383  0.0232 -1.6929 -0.3715
 2487TIP3   OH2 7466   1.018   4.003   2.317  0.0245  0.1335  0.1092
 2487TIP3    H1 7467   0.981   3.980   2.232 -0.3542 -0.6316  0.4690
 2487TIP3    H2 7468   1.099   4.049   2.296 -0.2147  0.2162 -0.6669
 2488TIP3   OH2 7469   1.356   1.565   0.013  0.6329 -0.0783  0.0141
 2488TIP3    H1 7470   1.437   1.535  -0.028  0.5014 -0.0742 -0.2481
 2488TIP3    H2 7471   1.306   1.485   0.030  0.6105 -0.0677 -0.0000
 2489TIP3   OH2 7472   2.678   4.320   1.525 -0.3351 -0.3605 -0.3660
 2489TIP3    H1 7473   2.740   4.393   1.535 -0.0659 -0.9110  2.7568
 2489TIP3    H2 7474   2.718   4.265   1.457  1.8538  0.0781  0.4787
 2490TIP3   OH2 7475   0.394   0.614   3.173  0.0750 -0.0117  0.2775
 2490TIP3    H1 7476   0.326   0.615   3.240 -0.0024  2.1644  0.2528
 2490TIP3    H2 7477   0.351   0.651   3.095  0.8549 -0.0927 -0.2008
 2491TIP3   OH2 7478   2.001   1.463   0.838  0.2006  0.8294 -0.0023
 2491TIP3    H1 7479   2.017   1.548   0.880  0.4272  0.8623 -0.1545
 2491TIP3    H2 7480   2.047   1.469   0.754  0.4940  0.4332  0.1279
 2492TIP3   OH2 7481   5.239   4.214   4.434 -0.3381  0.1880  0.1381
 2492TIP3    H1 7482   5.328   4.203   4.401 -0.4897  0.6682 -0.4347
 2492TIP3    H2 7483   5.204   4.125   4.438  0.0113  0.0389 -0.0567
 2493TIP3   OH2 7484   0.033   0.058   5.141  0.2452 -0.1129  1.0493
 2493TIP3    H1 7485   0.003   0.126   5.202 -1.7437  1.6467 -1.6619
 2493TIP3    H2 7486   0.126   0.074   5.131  0.1519  1.0498  1.8325
 2494TIP3   OH2 7487   3.960   3.300   3.951 -0.0770  0.6173 -0.3400
 2494TIP3    H1 7488   4.052   3.275   3.942  0.3933  1.6568  1.1784
 2494TIP3    H2 7489   3.961   3.396   3.946 -1.2441  0.6033 -1.4311
 2495TIP3   OH2 7490   1.001   1.542   0.076 -0.2329  0.0043 -0.2033
 2495TIP3    H1 7491   0.932   1.477   0.059  0.0538 -0.7043  1.1528
 2495TIP3    H2 7492   1.081   1.490   0.082  0.0212  0.4861  0.7475
 2496TIP3   OH2 7493   2.988   3.902   0.663  0.1706 -0.4712 -0.0358
 2496TIP3    H1 7494   2.900   3.936   0.679 -0.0163 -0.8260 -0.3065
 2496TIP3    H2 7495   2.985   3.870   0.573  0.4004 -1.0579  0.1652
 2497TIP3   OH2 7496   5.844   0.661   1.164  0.1545  0.5240 -0.9706
 2497TIP3    H1 7497   5.824   0.571   1.189 -0.4594  0.8568 -0.2259
 2497TIP3    H2 7498   5.900   0.653   1.087  0.3649 -0.4985 -0.7226
 2498TIP3   OH2 7499   6.183   3.294   4.604 -0.0878  0.0004 -0.2161
 2498TIP3    H1 7500   6.232   3.212   4.605  1.7160  1.0079  1.5084
 2498TIP3    H2 7501   6.171   3.316   4.696  0.0917  2.0009 -0.6227
 2499TIP3   OH2 7502   2.643   1.053   3.652  0.3859  0.4185 -0.1883
 2499TIP3    H1 7503   2.710   1.016   3.594 -0.2045  2.7460 -2.5763
 2499TIP3    H2 7504   2.562   1.009   3.626  0.4847 -0.1474  0.4654
 2500TIP3   OH2 7505   2.002   3.926   1.835  0.2888 -0.1273  0.3181
 2500TIP3    H1 7506   2.047   3.912   1.751  0.0373  0.2530  0.1147
 2500TIP3    H2 7507   1.940   3.996   1.817  0.5383  0.2588  0.9445
 2501TIP3   OH2 7508   0.821   0.320   2.817 -0.0034 -0.2651  0.5142
 2501TIP3    H1 7509   0.822   0.406   2.858  1.5447 -0.7152  1.5302
 2501TIP3    H2 7510   0.901   0.317   2.764 -0.8313 -0.5340 -0.7715
 2502TIP3   OH2 7511   1.946   2.993   3.452  0.4544 -0.4206 -0.4701
 2502TIP3    H1 7512   2.030   3.026   3.485  1.2339 -1.3153 -1.4729
 2502TIP3    H2 7513   1.965   2.904   3.423 -0.7469 -0.4915 -1.1216
 2503TIP3   OH2 7514   4.684   3.398   4.623  0.0668  0.7499 -0.0623
 2503TIP3    H1 7515   4.688   3.457   4.548 -1.7180  1.3015  0.2379
 2503TIP3    H2 7516   4.637   3.321   4.591  1.3072 -0.0123 -0.1093
 2504TIP3   OH2 7517   1.417   4.035   2.167 -0.0844 -0.4132  0.0496
 2504TIP3    H1 7518   1.389   3.947   2.143  0.2173 -0.2895 -0.7829
 2504TIP3    H2 7519   1.390   4.044   2.259  0.3853 -1.5760  0.3247
 2505TIP3   OH2 7520   4.020   3.441   0.156  0.3063  0.1170  0.4019
 2505TIP3    H1 7521   4.076   3.371   0.122  1.0994 -0.2431  2.3280
 2505TIP3    H2 7522   3.948   3.447   0.092  0.4026 -2.1970 -0.0327
 2506TIP3   OH2 7523   4.145   5.608   4.266 -0.1887 -0.2720 -0.1476
 2506TIP3    H1 7524   4.085   5.536   4.249  0.7867 -0.7407 -1.8779
 2506TIP3    H2 7525   4.230   5.577   4.234  0.3659  1.4431 -0.4622
 2507TIP3   OH2 7526   0.323   5.782   2.894  0.2390  0.1371 -0.1200
 2507TIP3    H1 7527   0.294   5.696   2.926 -2.0621  0.0294 -2.1932
 2507TIP3    H2 7528   0.416   5.771   2.877  0.3205 -1.4655  1.1123
 2508TIP3   OH2 7529   1.696   0.430   0.408 -0.2419  0.0397 -0.3994
 2508TIP3    H1 7530   1.642   0.357   0.378  2.0373 -1.3885 -1.2668
 2508TIP3    H2 7531   1.706   0.485   0.331  0.3504 -0.2414 -0.5290
 2509TIP3   OH2 7532   3.706   3.826   0.376 -0.3479 -0.2766 -0.2465
 2509TIP3    H1 7533   3.694   3.918   0.400 -2.5492  0.0980 -2.3956
 2509TIP3    H2 7534   3.678   3.777   0.454 -0.2183  0.8652  0.5330
 2510TIP3   OH2 7535   6.070   4.760   4.017  0.0152  0.3763 -0.4665
 2510TIP3    H1 7536   6.091   4.728   3.929 -0.5872 -0.2105 -0.4040
 2510TIP3    H2 7537   6.098   4.851   4.017  0.5512  0.2184 -1.0795
 2511TIP3   OH2 7538   5.734   5.316   3.072  0.2731  0.4368 -0.0140
 2511TIP3    H1 7539   5.752   5.324   3.165 -0.2131 -0.2931  0.1491
 2511TIP3    H2 7540   5.639   5.313   3.066  0.2957 -1.9251 -0.2936
 2512TIP3   OH2 7541   5.220   5.468   3.168  0.2977 -0.4207 -0.0926
 2512TIP3    H1 7542   5.224   5.374   3.187 -1.4054 -0.5335 -0.1607
 2512TIP3    H2 7543   5.295   5.505   3.216  0.8121 -1.7567  0.1843
 2513TIP3   OH2 7544   1.500   4.691   1.777  0.2285  0.2262  0.3031
 2513TIP3    H1 7545   1.414   4.701   1.818  0.3706 -1.6477  1.1614
 2513TIP3    H2 7546   1.514   4.773   1.729 -1.8045  0.7582  0.5490
 2514TIP3   OH2 7547   5.012   5.712   1.513 -0.0734 -0.0033  0.8235
 2514TIP3    H1 7548   5.019   5.617   1.524 -0.4859  0.0673  1.7598
 2514TIP3    H2 7549   5.025   5.726   1.419  2.4014 -0.7616  0.9673
 2515TIP3   OH2 7550   1.967   2.523   4.682  0.2087  0.1948 -0.0879
 2515TIP3    H1 7551   2.041   2.462   4.672 -0.5236 -0.5249 -1.3168
 2515TIP3    H2 7552   1.899   2.471   4.725 -0.7574 -0.1728 -1.9941
 2516TIP3   OH2 7553   2.641   1.579   2.682  0.6718  0.4386 -1.1871
 2516TIP3    H1 7554   2.680   1.502   2.725 -0.7185 -0.4182 -1.3941
 2516TIP3    H2 7555   2.712   1.644   2.681  1.4650 -0.3352  0.2599
 2517TIP3   OH2 7556   0.676   2.580   0.787  0.2974  0.1624 -0.1883
 2517TIP3    H1 7557   0.731   2.658   0.782  0.7815  0.0596  2.1463
 2517TIP3    H2 7558   0.587   2.613   0.781  0.4690  1.0553  1.4490
 2518TIP3   OH2 7559   2.427   1.970   2.786 -0.0563  0.7283 -0.1522
 2518TIP3    H1 7560   2.425   1.892   2.841  1.9290 -0.2239 -1.3009
 2518TIP3    H2 7561   2.339   1.976   2.748 -0.6100 -0.1995  0.9382
 2519TIP3   OH2 7562   1.087   0.125   0.828  0.1474 -0.1761  0.3557
 2519TIP3    H1 7563   0.996   0.154   0.824  0.4271  1.0411  2.1554
 2519TIP3    H2 7564   1.132   0.192   0.879  2.2086 -0.4382 -1.0189
 2520TIP3   OH2 7565   5.914   1.377   0.261 -0.4584 -0.7214  0.4044
 2520TIP3    H1 7566   5.903   1.317   0.336 -0.7415 -1.4379 -0.1968
 2520TIP3    H2 7567   5.825   1.398   0.235 -0.3592 -0.5738  0.1885
 2521TIP3   OH2 7568   5.533   3.711   3.915  0.0626  0.2263 -0.5937
 2521TIP3    H1 7569   5.591   3.649   3.871  0.5907  1.4737 -1.7557
 2521TIP3    H2 7570   5.589   3.787   3.934 -0.6930  0.5970  0.2355
 2522TIP3   OH2 7571   4.733   4.499   1.405 -0.0849 -0.1394 -0.0471
 2522TIP3    H1 7572   4.692   4.469   1.486 -0.4483 -1.0661 -0.5519
 2522TIP3    H2 7573   4.700   4.439   1.338 -0.1101  0.8572 -0.9553
 2523TIP3   OH2 7574   3.483   3.378   2.293  0.1417  0.1660  0.2436
 2523TIP3    H1 7575   3.470   3.324   2.371 -3.7190  2.5378  1.4998
 2523TIP3    H2 7576   3.534   3.453   2.324  0.3349  0.1511 -0.0329
 2524TIP3   OH2 7577   0.473   3.139   2.188 -0.2025 -0.3819  0.0630
 2524TIP3    H1 7578   0.561   3.104   2.179 -0.0040 -0.7398  2.7343
 2524TIP3    H2 7579   0.484   3.234   2.189  0.6186 -0.4047  3.2710
 2525TIP3   OH2 7580   3.987   1.861   2.940 -0.1577 -0.4818  0.5152
 2525TIP3    H1 7581   3.915   1.843   2.879  1.5310 -0.2642 -1.6622
 2525TIP3    H2 7582   3.944   1.902   3.015 -2.2641  0.1594 -0.9298
 2526TIP3   OH2 7583   0.657   1.143   2.307 -0.4435 -0.0586  0.0158
 2526TIP3    H1 7584   0.664   1.233   2.339  1.3048 -0.2237  0.1798
 2526TIP3    H2 7585   0.711   1.092   2.367 -1.6087 -1.2769  0.0714
 2527TIP3   OH2 7586   2.696   2.383   0.662 -0.2642  0.0992  0.0403
 2527TIP3    H1 7587   2.657   2.470   0.662  1.2820  0.8187 -0.3482
 2527TIP3    H2 7588   2.629   2.327   0.623 -1.0454  1.2229 -0.2758
 2528TIP3   OH2 7589   4.502   5.301   3.539  0.3599  0.4940  0.1224
 2528TIP3    H1 7590   4.499   5.276   3.446  3.2399  2.7535 -0.7585
 2528TIP3    H2 7591   4.424   5.355   3.551 -0.5244 -0.5446 -0.7030
 2529TIP3   OH2 7592   5.730   2.439   2.218 -0.0099  0.0402 -0.0683
 2529TIP3    H1 7593   5.645   2.415   2.254 -0.2627 -0.8088 -1.1644
 2529TIP3    H2 7594   5.722   2.532   2.196 -0.6767 -0.0480 -0.2080
 2530TIP3   OH2 7595   2.421   1.665   4.480  0.1330  0.5828 -0.6786
 2530TIP3    H1 7596   2.444   1.706   4.563 -0.0301  0.8838 -0.7803
 2530TIP3    H2 7597   2.333   1.630   4.493  0.2277  0.3637 -0.6281
 2531TIP3   OH2 7598   3.560   1.671   5.189 -0.3563  0.4319 -0.5494
 2531TIP3    H1 7599   3.524   1.642   5.105 -2.4957 -1.5554  0.9215
 2531TIP3    H2 7600   3.484   1.704   5.237  0.4060 -0.3893  1.3189
 2532TIP3   OH2 7601   2.773   5.394   0.361 -0.5609 -0.0185  0.3404
 2532TIP3    H1 7602   2.686   5.358   0.379 -0.3431 -0.3119  0.8498
 2532TIP3    H2 7603   2.828   5.316   0.347 -0.1704  0.1257  1.0443
 2533TIP3   OH2 7604   4.807   0.337   1.860 -0.1853 -0.5572  0.4815
 2533TIP3    H1 7605   4.780   0.260   1.909 -0.5553  0.1679  1.4351
 2533TIP3    H2 7606   4.891   0.362   1.898 -1.1681  0.8912  1.8237
 2534TIP3   OH2 7607   4.354   0.665   0.892 -0.2129 -0.0862  0.3902
 2534TIP3    H1 7608   4.326   0.673   0.983 -0.8811  0.1495  0.1699
 2534TIP3    H2 7609   4.301   0.594   0.856  1.0024 -1.1080  0.5319
 2535TIP3   OH2 7610   5.728   5.473   2.559  0.7806 -0.8424  0.8720
 2535TIP3    H1 7611   5.715   5.383   2.590 -0.4746 -1.4186 -1.0971
 2535TIP3    H2 7612   5.779   5.463   2.479  2.0248  0.3779  1.4810
 2536TIP3   OH2 7613   4.501   0.581   4.223  0.3536  0.2476 -0.2120
 2536TIP3    H1 7614   4.595   0.601   4.220  0.1678  1.8105  1.6340
 2536TIP3    H2 7615   4.462   0.658   4.265 -1.4200 -1.3358  1.2753
 2537TIP3   OH2 7616   2.220   4.323   4.256 -0.0166  0.3908  0.3819
 2537TIP3    H1 7617   2.279   4.304   4.183  2.3298  2.4672  1.5755
 2537TIP3    H2 7618   2.167   4.396   4.226  1.0407  1.3337  0.7361
 2538TIP3   OH2 7619   0.471   0.187   3.117 -0.0540  0.1972  0.0115
 2538TIP3    H1 7620   0.470   0.100   3.159  0.5161 -0.2607 -0.8904
 2538TIP3    H2 7621   0.557   0.222   3.138 -0.1040  0.3437 -0.0305
 2539TIP3   OH2 7622   4.754   0.693   4.485 -0.1095  0.5572 -0.2608
 2539TIP3    H1 7623   4.754   0.605   4.446  2.5940 -0.0672  0.9326
 2539TIP3    H2 7624   4.779   0.751   4.413 -0.2823  0.1319 -0.6682
 2540TIP3   OH2 7625   1.549   5.237   1.138 -0.5737  0.3133  0.2392
 2540TIP3    H1 7626   1.472   5.195   1.176 -0.2107 -2.0690 -1.4360
 2540TIP3    H2 7627   1.577   5.177   1.069  2.1018  1.6797  0.0173
 2541TIP3   OH2 7628   3.092   5.882   0.568 -0.0711  0.5969 -0.3424
 2541TIP3    H1 7629   3.045   5.919   0.493  0.7147  0.6951 -0.8017
 2541TIP3    H2 7630   3.148   5.953   0.599  0.0270  0.3827 -0.0205
 2542TIP3   OH2 7631   0.436   4.625   0.672 -0.2548 -0.2511  0.5772
 2542TIP3    H1 7632   0.450   4.543   0.719  2.1776 -0.6970 -0.7369
 2542TIP3    H2 7633   0.397   4.684   0.737  0.1745 -1.7193  2.2386
 2543TIP3   OH2 7634   3.794   1.930   1.127  0.3463  0.7616  0.1795
 2543TIP3    H1 7635   3.717   1.888   1.165  0.4689 -1.0663 -1.4195
 2543TIP3    H2 7636   3.772   2.023   1.125 -1.1236  0.4765  1.2625
 2544TIP3   OH2 7637   3.758   1.169   1.681 -0.6338  0.7223  0.2420
 2544TIP3    H1 7638   3.842   1.201   1.715 -0.1482 -0.0054 -0.2477
 2544TIP3    H2 7639   3.777   1.145   1.590 -1.0370 -0.6867  0.5126
 2545TIP3   OH2 7640   4.242   4.884   4.886 -0.5004 -0.0344 -0.4121
 2545TIP3    H1 7641   4.337   4.886   4.878 -0.4278  1.4833  0.4384
 2545TIP3    H2 7642   4.225   4.920   4.973 -1.8489 -0.4005 -0.5103
 2546TIP3   OH2 7643   3.461   1.992   4.991  0.5850  0.3187 -0.3209
 2546TIP3    H1 7644   3.465   2.060   4.924  1.3542 -1.6270 -2.3962
 2546TIP3    H2 7645   3.501   2.032   5.068 -0.0430  2.5470 -1.0722
 2547TIP3   OH2 7646   2.026   0.504   2.998  0.1103 -0.3242 -0.1058
 2547TIP3    H1 7647   1.944   0.491   2.950  0.6471 -0.8583 -0.8945
 2547TIP3    H2 7648   2.045   0.419   3.038  0.1431 -0.1310  0.2925
 2548TIP3   OH2 7649   2.090   4.194   1.281  0.4528 -0.1961  0.3358
 2548TIP3    H1 7650   2.172   4.230   1.313 -0.1386  0.9492  0.5967
 2548TIP3    H2 7651   2.091   4.102   1.309  0.8319  0.2704  1.9309
 2549TIP3   OH2 7652   1.980   2.981   2.654 -0.5590  0.4105 -0.0042
 2549TIP3    H1 7653   1.985   2.889   2.679 -1.1348 -0.0462 -1.4771
 2549TIP3    H2 7654   2.043   3.025   2.712 -0.1590 -0.9179  0.6126
 2550TIP3   OH2 7655   2.619   3.456   0.237  0.5387  0.0413  0.7781
 2550TIP3    H1 7656   2.683   3.394   0.205  1.6013  0.1700  2.5165
 2550TIP3    H2 7657   2.536   3.427   0.200  1.1900 -1.7182  0.6275
 2551TIP3   OH2 7658   5.746   5.954   0.525 -0.0590 -0.3406 -0.1319
 2551TIP3    H1 7659   5.690   5.878   0.507 -0.1691  0.1076 -1.8210
 2551TIP3    H2 7660   5.759   5.995   0.439  0.9651  0.8834  0.5817
 2552TIP3   OH2 7661   0.229   4.102   1.260  0.2866 -0.0940 -0.3116
 2552TIP3    H1 7662   0.308   4.137   1.303 -0.5317 -0.0565  1.2432
 2552TIP3    H2 7663   0.235   4.134   1.170  1.0419  1.6189  0.2995
 2553TIP3   OH2 7664   3.832   0.598   3.389  0.2975  0.4107  0.1731
 2553TIP3    H1 7665   3.832   0.619   3.296  1.0011  0.4974  0.1922
 2553TIP3    H2 7666   3.778   0.519   3.396  0.7826  0.0316 -0.3913
 2554TIP3   OH2 7667   2.881   1.566   2.856  0.3740  0.1138  0.1679
 2554TIP3    H1 7668   2.968   1.557   2.894 -0.5045  0.9213  2.5500
 2554TIP3    H2 7669   2.829   1.497   2.897 -0.3562  0.2842 -0.4367
 2555TIP3   OH2 7670   0.011   3.658   2.971  0.0256  0.5266 -0.0057
 2555TIP3    H1 7671   0.095   3.611   2.965  0.2541  0.7898  0.9194
 2555TIP3    H2 7672   0.021   3.732   2.911  2.0070  2.7856  2.7877
 2556TIP3   OH2 7673   3.341   4.491   4.200  0.0997  0.3298 -0.5812
 2556TIP3    H1 7674   3.378   4.496   4.112  1.3556 -0.3972 -0.1241
 2556TIP3    H2 7675   3.360   4.402   4.229  0.4814  0.8141  0.7374
 2557TIP3   OH2 7676   2.031   3.078   4.201  0.2059 -0.0453 -0.1243
 2557TIP3    H1 7677   1.967   3.100   4.134  0.3322  1.6615  0.2798
 2557TIP3    H2 7678   1.981   3.031   4.269 -0.1379 -0.7622 -0.8565
 2558TIP3   OH2 7679   2.952   5.830   4.831 -0.0811 -0.3045  0.4710
 2558TIP3    H1 7680   2.972   5.738   4.813 -1.9217 -0.8650  1.0364
 2558TIP3    H2 7681   2.916   5.830   4.920 -1.2862  0.7513  0.0111
 2559TIP3   OH2 7682   3.598   1.604   3.260 -0.1827  0.0202 -0.0323
 2559TIP3    H1 7683   3.662   1.604   3.331 -0.2543  0.6329  0.0430
 2559TIP3    H2 7684   3.647   1.634   3.183 -0.4516  0.8714  0.1117
 2560TIP3   OH2 7685   1.087   2.204   3.034  0.5989  0.1371  0.2190
 2560TIP3    H1 7686   1.069   2.112   3.052  0.2415  0.6843  2.9702
 2560TIP3    H2 7687   1.101   2.206   2.939 -2.1332 -2.2765 -0.4155
 2561TIP3   OH2 7688   1.204   2.474   3.290  0.1614  0.3502 -0.3164
 2561TIP3    H1 7689   1.297   2.494   3.302  0.1614 -0.1091  0.4857
 2561TIP3    H2 7690   1.196   2.453   3.197  0.5718  1.8432 -0.7275
 2562TIP3   OH2 7691   3.645   0.384   3.297 -0.4250  0.0559  0.1884
 2562TIP3    H1 7692   3.629   0.324   3.224  2.7365 -1.5869  0.6863
 2562TIP3    H2 7693   3.609   0.339   3.373  0.1951 -0.2989  0.2741
 2563TIP3   OH2 7694   6.075   3.787   1.319  0.1946  0.4428 -0.0236
 2563TIP3    H1 7695   5.992   3.829   1.341 -0.2114  0.3583 -1.3165
 2563TIP3    H2 7696   6.121   3.851   1.264  0.6879  0.2252  0.1329
 2564TIP3   OH2 7697   0.346   4.121   2.991 -0.0029 -0.0985  0.1397
 2564TIP3    H1 7698   0.353   4.095   3.082 -0.4885 -1.2505 -0.1384
 2564TIP3    H2 7699   0.255   4.103   2.967 -0.5642  2.4019  0.0659
 2565TIP3   OH2 7700   0.436   1.674   3.459  0.4171 -0.1156 -0.1299
 2565TIP3    H1 7701   0.447   1.746   3.521  2.0782  0.6390 -1.2342
 2565TIP3    H2 7702   0.523   1.663   3.419 -0.3972 -1.1152 -1.7330
 2566TIP3   OH2 7703   2.603   3.949   3.069 -0.1356 -0.1973  0.0224
 2566TIP3    H1 7704   2.554   3.931   2.989 -1.8356 -1.7970  1.3440
 2566TIP3    H2 7705   2.559   4.025   3.107 -0.1525 -0.2410  0.0900
 2567TIP3   OH2 7706   0.911   5.495   3.916  0.3789  0.0465 -0.4157
 2567TIP3    H1 7707   1.005   5.476   3.917  0.1045 -1.6482  1.6802
 2567TIP3    H2 7708   0.872   5.422   3.964 -1.9308  1.1502 -0.4820
 2568TIP3   OH2 7709   2.308   0.539   3.277 -0.1641  0.1976 -0.3019
 2568TIP3    H1 7710   2.333   0.529   3.369  0.8708  2.2708 -0.3181
 2568TIP3    H2 7711   2.244   0.610   3.277 -0.2917  0.0936 -1.1781
 2569TIP3   OH2 7712   4.954   0.689   0.381  0.2145  0.9375 -0.2836
 2569TIP3    H1 7713   4.905   0.608   0.397  0.7170  0.7269  0.2443
 2569TIP3    H2 7714   4.937   0.742   0.459 -0.3739  1.4803 -0.7726
 2570TIP3   OH2 7715   2.006   3.841   0.536  0.1483  0.8794 -0.2001
 2570TIP3    H1 7716   2.046   3.770   0.587 -1.9921  0.8774  1.6082
 2570TIP3    H2 7717   2.022   3.816   0.445 -0.3106 -1.8447  0.3693
 2571TIP3   OH2 7718   2.109   1.879   4.721  0.0883 -0.1160 -0.1293
 2571TIP3    H1 7719   2.202   1.857   4.732 -0.0682 -0.9768 -0.4229
 2571TIP3    H2 7720   2.105   1.926   4.638  0.2228 -0.3554 -0.2722
 2572TIP3   OH2 7721   3.408   5.153   0.859  0.1747  0.4211 -0.5361
 2572TIP3    H1 7722   3.473   5.156   0.788  0.5346  0.6067 -0.2046
 2572TIP3    H2 7723   3.393   5.245   0.881  0.7439  0.3315  0.2416
 2573TIP3   OH2 7724   4.396   4.438   5.069  0.4117  0.1782 -0.0899
 2573TIP3    H1 7725   4.318   4.493   5.060  0.8292  1.1031  1.4314
 2573TIP3    H2 7726   4.463   4.482   5.017  0.9693  1.6587  1.7589
 2574TIP3   OH2 7727   1.701   2.876   2.681 -0.6559  0.4282  0.2800
 2574TIP3    H1 7728   1.668   2.831   2.603  0.6170 -3.3447  1.6950
 2574TIP3    H2 7729   1.790   2.842   2.692 -0.1083  2.3171  2.3099
 2575TIP3   OH2 7730   1.452   5.523   4.242  0.1762 -0.2075 -0.7451
 2575TIP3    H1 7731   1.503   5.594   4.202 -1.2590 -0.1303 -2.5675
 2575TIP3    H2 7732   1.404   5.564   4.313  1.4676  0.0269  0.0228
 2576TIP3   OH2 7733   0.114   0.315   5.040  0.1332  0.6012 -0.0845
 2576TIP3    H1 7734   0.125   0.410   5.032 -0.7171  0.5879 -2.0824
 2576TIP3    H2 7735   0.020   0.301   5.029  0.2083 -0.4740  0.4790
 2577TIP3   OH2 7736   6.033   1.545   3.324  0.5249 -0.1587  0.2764
 2577TIP3    H1 7737   6.104   1.609   3.327 -0.7310  1.3072  0.4313
 2577TIP3    H2 7738   6.026   1.514   3.415  0.9514 -0.2890  0.2652
 2578TIP3   OH2 7739   2.889   3.034   4.064 -0.4379  0.5170 -0.4621
 2578TIP3    H1 7740   2.943   3.089   4.121  1.2928 -0.6291 -0.9302
 2578TIP3    H2 7741   2.922   3.050   3.976 -1.3789  0.3352 -0.8624
 2579TIP3   OH2 7742   2.861   3.599   1.046  0.0643 -0.1004  0.7200
 2579TIP3    H1 7743   2.909   3.517   1.042  0.5004  0.1913 -1.7054
 2579TIP3    H2 7744   2.913   3.660   0.993 -1.8351  0.8491 -0.1430
 2580TIP3   OH2 7745   1.578   1.601   2.432 -0.2036  0.4681  0.3531
 2580TIP3    H1 7746   1.653   1.660   2.437  0.8685 -0.7136 -0.7248
 2580TIP3    H2 7747   1.583   1.548   2.511 -0.8789  1.4771  1.0807
 2581TIP3   OH2 7748   3.096   4.043   2.453 -0.3227  0.1377 -0.3306
 2581TIP3    H1 7749   3.095   3.999   2.368 -2.5839 -0.4902 -0.0220
 2581TIP3    H2 7750   3.138   3.980   2.512 -0.0451  0.0025 -0.6657
 2582TIP3   OH2 7751   3.277   1.562   2.709  0.0646 -0.0504  1.1874
 2582TIP3    H1 7752   3.196   1.613   2.711 -1.5356 -2.3949  3.7652
 2582TIP3    H2 7753   3.331   1.600   2.777  1.5925  1.9723 -1.0043
 2583TIP3   OH2 7754   1.033   4.200   3.945  0.1464 -0.3338  0.4636
 2583TIP3    H1 7755   0.956   4.220   3.893  1.2315  1.7299 -0.4838
 2583TIP3    H2 7756   1.019   4.246   4.028  0.3402  0.0247  0.2990
 2584TIP3   OH2 7757   6.047   3.271   4.349 -0.6421 -0.1994  0.2205
 2584TIP3    H1 7758   6.122   3.292   4.293 -0.4440  0.5358  0.7309
 2584TIP3    H2 7759   6.084   3.269   4.438 -1.4356  1.5426  0.6433
 2585TIP3   OH2 7760   4.745   2.068   1.788  0.8030 -0.2728  0.2667
 2585TIP3    H1 7761   4.766   2.155   1.754  3.1642 -0.6974  0.4640
 2585TIP3    H2 7762   4.656   2.077   1.823  0.1343  1.4354 -1.6788
 2586TIP3   OH2 7763   5.574   5.465   3.604  0.5571  0.4620 -0.5696
 2586TIP3    H1 7764   5.506   5.402   3.627  0.2738  1.0491  0.2493
 2586TIP3    H2 7765   5.630   5.418   3.542 -1.0838  0.2666 -1.9767
 2587TIP3   OH2 7766   2.441   4.537   1.677  0.1298 -0.3266 -0.7935
 2587TIP3    H1 7767   2.492   4.526   1.596 -1.9110  2.1902 -2.6162
 2587TIP3    H2 7768   2.366   4.589   1.650 -0.7995  0.4059  2.7465
 2588TIP3   OH2 7769   6.161   5.969   2.240 -0.2360 -0.3077 -0.6028
 2588TIP3    H1 7770   6.147   5.947   2.147 -1.0813 -0.6799 -0.3943
 2588TIP3    H2 7771   6.122   5.897   2.288  0.8140 -0.4609  0.0496
 2589TIP3   OH2 7772   3.838   4.547   4.221 -0.0104 -0.6438  0.3285
 2589TIP3    H1 7773   3.784   4.506   4.153  2.1244 -0.8081 -1.3841
 2589TIP3    H2 7774   3.928   4.525   4.196  0.8814 -1.9327  4.0148
 2590TIP3   OH2 7775   5.402   1.525   1.380  0.2558 -0.0597 -0.1161
 2590TIP3    H1 7776   5.404   1.546   1.473 -2.1236 -3.1661  0.7824
 2590TIP3    H2 7777   5.327   1.573   1.345 -0.2278 -0.6471  0.1025
 2591TIP3   OH2 7778   2.502   3.905   0.101  0.3221  0.4896 -0.3312
 2591TIP3    H1 7779   2.409   3.896   0.079  0.9230 -1.3391 -2.4117
 2591TIP3    H2 7780   2.503   3.912   0.196 -1.8320 -1.5225 -0.0733
 2592TIP3   OH2 7781   5.170   4.770   3.421  0.2134  0.1491  0.5914
 2592TIP3    H1 7782   5.261   4.772   3.392 -0.3497  1.4001 -1.2516
 2592TIP3    H2 7783   5.140   4.681   3.404  0.8367 -0.0277  0.4050
 2593TIP3   OH2 7784   4.552   0.119   4.563 -0.1907 -0.0679 -0.0617
 2593TIP3    H1 7785   4.509   0.182   4.506 -0.2361 -1.0733 -1.1971
 2593TIP3    H2 7786   4.485   0.095   4.628  0.2379  1.9895  1.2385
 2594TIP3   OH2 7787   2.344   3.347   0.152  0.3783  0.7143 -0.3056
 2594TIP3    H1 7788   2.282   3.385   0.091  0.3142  0.3288 -0.4828
 2594TIP3    H2 7789   2.343   3.253   0.133 -1.8115  0.1209  2.2166
 2595TIP3   OH2 7790   1.062   5.584   2.740  0.3219 -0.3596 -0.0462
 2595TIP3    H1 7791   1.136   5.604   2.798  1.5289 -2.3013 -0.8161
 2595TIP3    H2 7792   0.997   5.543   2.797  0.5052 -0.0966  0.3531
 2596TIP3   OH2 7793   2.051   2.336   0.330  0.0390 -0.1907  0.1951
 2596TIP3    H1 7794   2.084   2.247   0.336 -1.6851 -0.8385  0.6731
 2596TIP3    H2 7795   2.066   2.373   0.418 -1.5964 -0.9129  0.8080
 2597TIP3   OH2 7796   3.406   0.008   2.645  0.3210 -0.6450  0.3497
 2597TIP3    H1 7797   3.476   0.017   2.580 -1.6067 -1.8233 -2.0244
 2597TIP3    H2 7798   3.382   0.099   2.667  1.7296 -0.2368  0.2957
 2598TIP3   OH2 7799   1.889   5.966   1.049  0.0585  0.8759 -0.6172
 2598TIP3    H1 7800   1.795   5.977   1.031 -0.3306 -1.4132 -0.2839
 2598TIP3    H2 7801   1.921   5.913   0.975 -0.0717 -2.6729  1.6291
 2599TIP3   OH2 7802   0.665   4.099   5.148  0.6056  0.3524 -0.2488
 2599TIP3    H1 7803   0.677   4.008   5.173  2.2409  0.5572 -0.1434
 2599TIP3    H2 7804   0.750   4.140   5.166  0.3099  1.5987 -1.5094
 2600TIP3   OH2 7805   6.126   1.478   0.837  0.0763  0.1287  0.2124
 2600TIP3    H1 7806   6.039   1.483   0.877  1.1912  0.9937  2.6665
 2600TIP3    H2 7807   6.119   1.532   0.758 -2.2722 -1.8987 -1.1328
 2601TIP3   OH2 7808   5.441   1.961   4.341 -0.5459  0.8069  0.0097
 2601TIP3    H1 7809   5.525   1.993   4.309 -1.1157  1.0628 -1.3073
 2601TIP3    H2 7810   5.450   1.865   4.341 -0.1990  0.8405  0.0285
 2602TIP3   OH2 7811   3.783   5.328   3.680  0.2937  0.3110 -0.2878
 2602TIP3    H1 7812   3.735   5.271   3.620 -0.0011  1.0147 -0.7412
 2602TIP3    H2 7813   3.736   5.321   3.763  0.4858 -0.3890 -0.2324
 2603TIP3   OH2 7814   4.888   0.851   0.635 -0.9122  0.1781  0.4031
 2603TIP3    H1 7815   4.971   0.874   0.679 -0.8322  0.6463  0.0156
 2603TIP3    H2 7816   4.829   0.829   0.707 -0.1182 -1.3296  0.6463
 2604TIP3   OH2 7817   1.322   1.109   0.177  0.0462  0.0174  0.4603
 2604TIP3    H1 7818   1.241   1.078   0.136 -0.8136  2.1809  0.3595
 2604TIP3    H2 7819   1.339   1.046   0.248 -0.8133 -1.3729 -0.5170
 2605TIP3   OH2 7820   4.772   5.977   0.289 -0.2916 -0.9132 -0.0164
 2605TIP3    H1 7821   4.765   5.895   0.241  0.0845 -1.6395  1.1291
 2605TIP3    H2 7822   4.845   6.024   0.248 -1.7197 -0.2302 -1.9502
 2606TIP3   OH2 7823   3.605   2.356   2.953 -0.3458 -0.5035 -0.1367
 2606TIP3    H1 7824   3.632   2.267   2.928  2.5498  0.0516  0.6909
 2606TIP3    H2 7825   3.619   2.408   2.874  1.1569 -0.2035  0.3105
 2607TIP3   OH2 7826   0.096   2.940   1.556  0.2856  0.3354  0.6899
 2607TIP3    H1 7827   0.076   2.906   1.469 -1.9288 -0.7060  1.5181
 2607TIP3    H2 7828   0.149   3.018   1.540  0.5935 -0.2657 -1.5324
 2608TIP3   OH2 7829   1.231   5.285   4.196 -0.1682 -0.6543 -0.4155
 2608TIP3    H1 7830   1.325   5.306   4.194 -0.4931  1.0608  0.2907
 2608TIP3    H2 7831   1.189   5.360   4.153 -1.2018 -1.5965 -1.0840
 2609TIP3   OH2 7832   0.420   1.093   5.062  0.2737 -0.2061  0.2902
 2609TIP3    H1 7833   0.495   1.056   5.015 -1.2763 -1.2606 -1.4922
 2609TIP3    H2 7834   0.426   1.056   5.150  0.9572 -1.5541 -0.2975
 2610TIP3   OH2 7835   0.041   3.234   0.429  0.2093  0.1790  0.5605
 2610TIP3    H1 7836  -0.049   3.266   0.418  0.0079 -0.5631 -0.0428
 2610TIP3    H2 7837   0.089   3.310   0.462 -0.3311  1.0120 -0.4938
 2611TIP3   OH2 7838   3.475   0.951   0.342  0.1881  0.1334 -0.2534
 2611TIP3    H1 7839   3.443   1.041   0.343  1.0021  0.4296  1.2214
 2611TIP3    H2 7840   3.570   0.959   0.340  0.3492 -0.6286  1.8281
 2612TIP3   OH2 7841   1.648   1.336   3.432 -0.0267 -0.5769 -0.0822
 2612TIP3    H1 7842   1.687   1.363   3.515  1.0547 -0.4383 -0.6237
 2612TIP3    H2 7843   1.574   1.280   3.457  0.5219 -0.8472  0.9591
 2613TIP3   OH2 7844   2.993   1.807   4.988 -0.2674 -0.1859  0.4584
 2613TIP3    H1 7845   2.984   1.886   4.934  0.8394 -0.2319  0.1935
 2613TIP3    H2 7846   2.910   1.801   5.035 -0.9929  0.2304 -0.7305
 2614TIP3   OH2 7847   0.838   2.758   2.199 -0.7069 -0.0329  0.1922
 2614TIP3    H1 7848   0.931   2.771   2.218 -1.1682  3.0406  0.9555
 2614TIP3    H2 7849   0.802   2.723   2.280 -0.2526 -1.4310 -0.1706
 2615TIP3   OH2 7850   4.054   2.379   4.561  0.0572 -0.7842  0.3441
 2615TIP3    H1 7851   4.045   2.286   4.541  1.4080 -1.0849  1.0447
 2615TIP3    H2 7852   4.101   2.381   4.645  0.3594  0.5324  0.1571
 2616TIP3   OH2 7853   4.831   5.452   1.366 -0.3147 -0.3524 -0.1803
 2616TIP3    H1 7854   4.841   5.459   1.461 -0.6371 -1.8655 -0.0247
 2616TIP3    H2 7855   4.745   5.412   1.353 -1.5816  2.4041 -1.2257
 2617TIP3   OH2 7856   3.740   3.285   0.126 -0.7423 -0.3810  0.7486
 2617TIP3    H1 7857   3.727   3.211   0.066  0.2337 -0.9807  1.2509
 2617TIP3    H2 7858   3.753   3.360   0.068  0.6424 -1.0303  0.1753
 2618TIP3   OH2 7859   4.555   1.352   0.186  0.2731  0.2646 -0.0427
 2618TIP3    H1 7860   4.502   1.427   0.159 -2.1432 -1.8127 -1.5029
 2618TIP3    H2 7861   4.621   1.344   0.118  1.6217  1.9217  0.9650
 2619TIP3   OH2 7862   0.461   1.712   2.256 -0.0211 -0.1522  0.0366
 2619TIP3    H1 7863   0.504   1.733   2.173 -0.0830 -1.1149 -0.2552
 2619TIP3    H2 7864   0.518   1.647   2.297  0.2369  0.6452  0.9689
 2620TIP3   OH2 7865   4.391   1.475   3.740 -0.5387 -0.3905  0.3869
 2620TIP3    H1 7866   4.473   1.449   3.698 -0.6055 -0.7084  0.4510
 2620TIP3    H2 7867   4.345   1.393   3.755 -0.8801 -0.2114  0.3322
 2621TIP3   OH2 7868   4.265   1.671   5.162  0.1014 -0.5572 -0.4575
 2621TIP3    H1 7869   4.198   1.708   5.220 -0.4175 -2.2952  0.1042
 2621TIP3    H2 7870   4.276   1.737   5.094 -0.3370  0.8883  0.8095
 2622TIP3   OH2 7871   0.158   3.022   4.923 -0.0381  0.4885 -0.5750
 2622TIP3    H1 7872   0.209   2.970   4.860 -1.6157 -0.0435 -1.4701
 2622TIP3    H2 7873   0.197   3.109   4.918  2.2139 -0.3729  0.4439
 2623TIP3   OH2 7874   5.756   0.428   3.751 -0.1739  0.3261 -0.5014
 2623TIP3    H1 7875   5.667   0.396   3.760 -0.3777  0.5565 -1.5149
 2623TIP3    H2 7876   5.750   0.522   3.768 -0.3138  0.5157 -1.5373
 2624TIP3   OH2 7877   0.860   2.968   0.486 -0.2123 -0.4186 -0.3585
 2624TIP3    H1 7878   0.949   2.936   0.475 -0.3190 -1.1846  0.8461
 2624TIP3    H2 7879   0.819   2.953   0.401  0.4495 -1.2386 -0.5445
 2625TIP3   OH2 7880   0.075   2.936   4.364 -0.3026 -0.0205  0.0020
 2625TIP3    H1 7881   0.164   2.972   4.366  0.0329 -0.8429  0.5774
 2625TIP3    H2 7882   0.025   2.998   4.312  0.7922  0.0658 -0.9936
 2626TIP3   OH2 7883   0.455   4.406   0.854  0.1146 -0.5847  0.1580
 2626TIP3    H1 7884   0.470   4.465   0.927 -1.4967 -1.1301  0.9686
 2626TIP3    H2 7885   0.361   4.406   0.841  0.2753 -1.3453 -1.2108
 2627TIP3   OH2 7886   0.987   4.270   3.328  0.0067  0.6292  0.2363
 2627TIP3    H1 7887   0.985   4.302   3.238 -1.2862  0.7259  0.2762
 2627TIP3    H2 7888   0.900   4.292   3.363  0.7397  1.2492  1.7385
 2628TIP3   OH2 7889   5.642   2.211   2.834 -0.1911  0.3945 -0.0052
 2628TIP3    H1 7890   5.660   2.292   2.882 -0.9687  2.3148 -2.6621
 2628TIP3    H2 7891   5.722   2.159   2.842  0.3113  1.3895  1.8325
 2629TIP3   OH2 7892   5.984   5.616   0.511  0.4440  0.0359 -0.0915
 2629TIP3    H1 7893   6.009   5.639   0.421 -0.4968  1.0753 -0.1000
 2629TIP3    H2 7894   6.067   5.613   0.559  0.8857  0.1703 -0.8268
 2630TIP3   OH2 7895   5.085   0.075   4.389 -0.0978 -0.3230  0.0458
 2630TIP3    H1 7896   5.131   0.121   4.460 -0.5457  0.0790  0.0813
 2630TIP3    H2 7897   4.992   0.089   4.408 -0.2218  0.2818 -0.9309
 2631TIP3   OH2 7898   0.952   2.301   4.624 -0.0829  0.1458  0.3336
 2631TIP3    H1 7899   0.907   2.364   4.679  0.2853  2.1489 -1.5304
 2631TIP3    H2 7900   0.965   2.225   4.680 -1.3905  1.3559  2.3859
 2632TIP3   OH2 7901   2.351   1.059   3.162 -0.1361  0.4338 -0.2467
 2632TIP3    H1 7902   2.431   1.089   3.206 -0.1176  0.8318 -0.5441
 2632TIP3    H2 7903   2.280   1.090   3.218 -0.1427  1.6644 -0.9111
 2633TIP3   OH2 7904   3.695   5.532   4.492  0.1882 -0.0131  0.1650
 2633TIP3    H1 7905   3.705   5.569   4.580  0.4989  1.5859 -0.5123
 2633TIP3    H2 7906   3.779   5.491   4.474  0.7305  1.1226 -0.0135
 2634TIP3   OH2 7907   2.995   2.464   4.432  0.2796 -0.0353  0.0204
 2634TIP3    H1 7908   2.944   2.405   4.488  2.9953 -1.8520  0.7661
 2634TIP3    H2 7909   2.951   2.459   4.347 -1.0233 -1.1909  0.7137
 2635TIP3   OH2 7910   3.369   1.791   3.199  0.5709 -0.3934 -0.5271
 2635TIP3    H1 7911   3.427   1.725   3.236  0.3995 -0.2474  0.0004
 2635TIP3    H2 7912   3.353   1.852   3.270  0.4274  0.0165 -0.9057
 2636TIP3   OH2 7913   1.922   4.127   0.501  0.7088 -0.1622 -0.1206
 2636TIP3    H1 7914   1.955   4.042   0.470  1.2799  0.3959 -1.1096
 2636TIP3    H2 7915   1.978   4.148   0.576  0.4417 -0.7342  0.2496
 2637TIP3   OH2 7916   1.471   5.339   3.890 -0.1611  0.1659  0.2284
 2637TIP3    H1 7917   1.509   5.304   3.809 -0.7508  0.6306 -0.2605
 2637TIP3    H2 7918   1.544   5.342   3.952  0.5094  0.6479 -0.5623
 2638TIP3   OH2 7919   3.084   4.748   3.286 -0.6022 -1.6845 -0.0221
 2638TIP3    H1 7920   3.079   4.768   3.192  0.9854  1.7191  0.4815
 2638TIP3    H2 7921   2.995   4.762   3.318 -0.5857 -0.0946 -0.5985
 2639TIP3   OH2 7922   2.726   4.229   4.525 -0.2710 -0.0616  0.7833
 2639TIP3    H1 7923   2.782   4.303   4.550  0.2961 -0.3802  0.4580
 2639TIP3    H2 7924   2.714   4.180   4.607  0.3746 -0.2949  0.7383
 2640TIP3   OH2 7925   4.875   0.740   3.121  0.2265  0.3287  0.8638
 2640TIP3    H1 7926   4.920   0.809   3.170 -0.3616  1.3186  0.0753
 2640TIP3    H2 7927   4.846   0.784   3.040 -0.9415 -0.6087  0.7420
 2641TIP3   OH2 7928   1.551   2.898   2.251  0.3988 -0.6770 -0.2192
 2641TIP3    H1 7929   1.526   2.970   2.310 -0.0956 -0.9032 -0.1498
 2641TIP3    H2 7930   1.479   2.893   2.188  0.5967 -0.8899 -0.4288
 2642TIP3   OH2 7931   3.745   2.424   0.228 -0.3010 -0.1901  0.6069
 2642TIP3    H1 7932   3.776   2.514   0.220 -0.6964 -0.2199 -1.7972
 2642TIP3    H2 7933   3.650   2.431   0.233 -0.2456 -0.3752  3.2922
 2643TIP3   OH2 7934   3.168   1.494   0.303 -0.2004 -0.7558 -0.3603
 2643TIP3    H1 7935   3.073   1.505   0.304 -0.3020 -1.4318  1.1516
 2643TIP3    H2 7936   3.195   1.518   0.214 -1.2196  3.8351  0.3148
 2644TIP3   OH2 7937   5.233   5.810   1.106  1.1144 -0.3148  0.3481
 2644TIP3    H1 7938   5.284   5.822   1.026 -0.6221  0.1589 -0.7670
 2644TIP3    H2 7939   5.229   5.897   1.145 -0.8172  0.2454 -0.9116
 2645TIP3   OH2 7940   2.368   2.266   3.239 -0.0854  0.4056 -0.6069
 2645TIP3    H1 7941   2.426   2.294   3.310 -0.8466  0.5354 -0.0236
 2645TIP3    H2 7942   2.397   2.317   3.163  0.1311  0.9713 -0.1561
 2646TIP3   OH2 7943   4.051   1.268   0.462  0.4925 -0.0896 -0.3967
 2646TIP3    H1 7944   3.957   1.288   0.468  0.0905 -2.0056  0.5638
 2646TIP3    H2 7945   4.054   1.184   0.416  1.7292 -0.1367 -0.2493
 2647TIP3   OH2 7946   2.774   0.576   4.515  0.0781  0.3881 -0.1837
 2647TIP3    H1 7947   2.858   0.531   4.506 -0.9639 -1.9800  0.9603
 2647TIP3    H2 7948   2.795   0.657   4.561  1.7079 -0.2431  0.2449
 2648TIP3   OH2 7949   0.606   3.208   0.808  0.4932 -0.1772 -0.0649
 2648TIP3    H1 7950   0.685   3.156   0.795 -0.4987 -1.6017 -0.6008
 2648TIP3    H2 7951   0.637   3.290   0.848  2.1315 -1.0170  0.4412
 2649TIP3   OH2 7952   1.326   0.430   1.693 -0.6534 -0.3752 -0.5189
 2649TIP3    H1 7953   1.313   0.523   1.712  0.7943 -0.1983 -0.2825
 2649TIP3    H2 7954   1.244   0.388   1.718  0.0379  0.2473  3.3951
 2650TIP3   OH2 7955   5.248   2.083   2.694 -0.1916 -0.2752  0.2175
 2650TIP3    H1 7956   5.277   1.997   2.666  0.1574 -0.9344  2.4411
 2650TIP3    H2 7957   5.214   2.070   2.782 -1.2951  1.6523  0.1397
 2651TIP3   OH2 7958   2.032   3.781   3.597  0.2053 -0.4845 -0.0630
 2651TIP3    H1 7959   1.973   3.817   3.531  1.3171  3.0466  0.6455
 2651TIP3    H2 7960   1.980   3.779   3.678  0.1891 -0.2934 -0.0686
 2652TIP3   OH2 7961   3.892   0.500   0.218 -0.2307 -0.8843  0.1779
 2652TIP3    H1 7962   3.917   0.451   0.296 -0.3124  0.2151  0.9181
 2652TIP3    H2 7963   3.869   0.433   0.154 -0.7530 -1.8015  1.2872
 2653TIP3   OH2 7964   5.425   5.348   2.080  0.1482 -0.6559  0.0733
 2653TIP3    H1 7965   5.413   5.384   2.168  0.4949  0.6343 -0.3753
 2653TIP3    H2 7966   5.520   5.346   2.068  0.0943  0.8185 -0.8780
 2654TIP3   OH2 7967   3.836   4.599   3.396  0.1554 -0.2115  0.3009
 2654TIP3    H1 7968   3.875   4.512   3.385 -0.3874 -0.3583 -0.5302
 2654TIP3    H2 7969   3.865   4.627   3.483 -0.9024 -1.8704  1.2432
 2655TIP3   OH2 7970   1.455   2.668   0.524  0.2501 -0.4163  0.0525
 2655TIP3    H1 7971   1.500   2.745   0.491 -1.7369  0.8172  0.0356
 2655TIP3    H2 7972   1.396   2.643   0.453  1.2936 -2.3942 -0.1969
 2656TIP3   OH2 7973   5.533   1.769   1.556 -0.0393  0.4062 -0.1646
 2656TIP3    H1 7974   5.457   1.827   1.554  1.1126  1.9672  0.3305
 2656TIP3    H2 7975   5.526   1.723   1.640 -1.2600 -0.6401 -0.8059
 2657TIP3   OH2 7976   1.816   2.246   4.529 -0.1307 -0.1847 -0.0343
 2657TIP3    H1 7977   1.772   2.169   4.566 -0.2764 -1.0581 -1.9090
 2657TIP3    H2 7978   1.840   2.220   4.441  2.0909  1.0928  0.1207
 2658TIP3   OH2 7979   3.627   4.079   1.720  0.3177 -0.7896 -0.2052
 2658TIP3    H1 7980   3.608   4.020   1.793  0.1661  1.8725  2.0261
 2658TIP3    H2 7981   3.676   4.151   1.758  1.4056  0.1183 -3.0220
 2659TIP3   OH2 7982   0.704   1.671   2.828  1.0911 -0.1256  0.5444
 2659TIP3    H1 7983   0.775   1.607   2.826  2.0808  0.9423 -0.3508
 2659TIP3    H2 7984   0.674   1.676   2.737  0.5426  0.1598  0.7386
 2660TIP3   OH2 7985   2.914   5.173   0.329 -0.0184  0.0634 -0.2498
 2660TIP3    H1 7986   3.006   5.198   0.339 -0.2301  0.5569  0.5679
 2660TIP3    H2 7987   2.906   5.145   0.238  0.6311  1.3011 -0.7044
 2661TIP3   OH2 7988   1.267   1.319   3.016  0.5716 -0.2276  0.3590
 2661TIP3    H1 7989   1.325   1.365   3.077 -0.7283  1.0631  0.6688
 2661TIP3    H2 7990   1.215   1.261   3.071 -0.5915  0.9258  0.5187
 2662TIP3   OH2 7991   4.913   1.287   3.493  0.0477 -0.1809 -0.0865
 2662TIP3    H1 7992   4.993   1.236   3.487 -0.9098 -1.9111  1.1028
 2662TIP3    H2 7993   4.852   1.243   3.433 -0.3964  0.3818 -0.0624
 2663TIP3   OH2 7994   2.100   0.500   0.470  0.2716  0.0777  0.5511
 2663TIP3    H1 7995   2.185   0.474   0.506  0.1045 -0.2782  0.6924
 2663TIP3    H2 7996   2.103   0.596   0.469 -0.1896  0.1647  2.7145
 2664TIP3   OH2 7997   2.644   4.899   3.756 -0.0451  0.1047 -0.1957
 2664TIP3    H1 7998   2.697   4.950   3.695  1.5954 -2.1249 -0.7722
 2664TIP3    H2 7999   2.556   4.899   3.718  0.3851  0.7816 -1.2362
 2665TIP3   OH2 8000   4.235   2.549   4.419 -0.0474 -0.8556 -1.2782
 2665TIP3    H1 8001   4.273   2.478   4.367  1.1873 -0.4017 -1.0237
 2665TIP3    H2 8002   4.174   2.505   4.479  2.4160 -2.0620  0.5252
 2666TIP3   OH2 8003   3.500   5.235   4.919  0.3402 -0.4210 -0.7668
 2666TIP3    H1 8004   3.584   5.204   4.953  0.0391  0.9373  1.4033
 2666TIP3    H2 8005   3.509   5.330   4.916 -1.4079 -0.1585  0.4843
 2667TIP3   OH2 8006   1.174   0.017   1.437 -0.5990  0.1762  0.0006
 2667TIP3    H1 8007   1.103   0.007   1.501 -0.3894  2.7404  0.7509
 2667TIP3    H2 8008   1.253  -0.011   1.484 -0.7177  0.1673  0.1942
 2668TIP3   OH2 8009   3.546   4.541   1.959  0.0010 -0.2688 -0.0346
 2668TIP3    H1 8010   3.514   4.489   1.885 -0.6432 -0.6090  0.4680
 2668TIP3    H2 8011   3.495   4.622   1.956  0.3723 -0.0437 -0.2925
 2669TIP3   OH2 8012   4.544   1.759   2.446 -0.2985 -0.1015 -0.1350
 2669TIP3    H1 8013   4.472   1.822   2.447 -1.2427 -1.1298 -0.2192
 2669TIP3    H2 8014   4.513   1.688   2.504 -0.6591 -1.9357 -2.4376
 2670TIP3   OH2 8015   5.854   0.310   2.391 -0.1884  0.8556 -0.2845
 2670TIP3    H1 8016   5.781   0.259   2.427 -1.1711  2.2961 -0.1415
 2670TIP3    H2 8017   5.913   0.245   2.355 -1.2805 -0.3964  0.0913
 2671TIP3   OH2 8018   6.163   2.820   0.657  0.0376  0.4544 -0.2567
 2671TIP3    H1 8019   6.169   2.740   0.710 -2.1478 -0.2233 -0.9371
 2671TIP3    H2 8020   6.101   2.876   0.704 -0.4982  0.6173 -1.1245
 2672TIP3   OH2 8021   4.067   5.207   1.265 -0.0819  0.1883 -0.0484
 2672TIP3    H1 8022   4.091   5.278   1.206 -1.0145  1.0717  0.5923
 2672TIP3    H2 8023   3.972   5.213   1.271  0.0601  1.1667  2.7328
 2673TIP3   OH2 8024   1.131   2.731   1.988 -0.0484 -0.1585  0.1765
 2673TIP3    H1 8025   1.131   2.712   1.894 -0.0075 -0.4893  0.2433
 2673TIP3    H2 8026   1.085   2.658   2.028 -0.2832  0.1060  0.3927
 2674TIP3   OH2 8027   0.445   1.314   4.195 -0.5747  0.5544  0.3249
 2674TIP3    H1 8028   0.537   1.331   4.176  0.3501 -1.6208  2.3012
 2674TIP3    H2 8029   0.431   1.224   4.164 -2.8089  1.6290 -2.1615
 2675TIP3   OH2 8030   5.873   5.424   2.312 -0.3466 -0.5570  0.1268
 2675TIP3    H1 8031   5.839   5.502   2.267 -0.1562  0.1015  1.0812
 2675TIP3    H2 8032   5.962   5.447   2.336  0.0535 -1.4606 -0.4418
 2676TIP3   OH2 8033   2.780   1.862   1.274 -0.7636 -0.0087  0.2961
 2676TIP3    H1 8034   2.838   1.795   1.308 -1.0156 -0.3174  0.1255
 2676TIP3    H2 8035   2.762   1.919   1.348 -1.9594 -1.1316  0.9008
 2677TIP3   OH2 8036   5.697   5.800   2.611 -0.7196  0.0232 -0.1162
 2677TIP3    H1 8037   5.690   5.705   2.613 -0.7577  0.0245 -0.1739
 2677TIP3    H2 8038   5.625   5.828   2.554 -2.8860  0.3085  2.5772
 2678TIP3   OH2 8039   3.782   0.911   0.036  0.2842  0.1812  0.5354
 2678TIP3    H1 8040   3.861   0.857   0.029  0.1013 -0.1735  1.1424
 2678TIP3    H2 8041   3.729   0.886  -0.040  1.2608  1.2824 -0.5441
 2679TIP3   OH2 8042   3.135   4.798   2.519  0.7573 -0.2232  0.2399
 2679TIP3    H1 8043   3.100   4.733   2.457 -1.2345  0.2450  0.8113
 2679TIP3    H2 8044   3.227   4.808   2.493  0.7603 -2.2159 -0.7505
 2680TIP3   OH2 8045   3.273   1.957   1.479  0.1249  0.0652  0.5390
 2680TIP3    H1 8046   3.258   2.043   1.518 -1.4253  0.8055 -1.5122
 2680TIP3    H2 8047   3.359   1.930   1.513 -0.5500  1.1216  3.4252
 2681TIP3   OH2 8048   2.651   1.405   0.188 -0.2885 -0.6808  0.5034
 2681TIP3    H1 8049   2.605   1.484   0.159 -0.8708 -0.1792  2.6231
 2681TIP3    H2 8050   2.665   1.355   0.108 -0.9720  1.0069 -0.7392
 2682TIP3   OH2 8051   3.578   0.413   1.574 -0.2292 -0.0491  0.7137
 2682TIP3    H1 8052   3.647   0.347   1.568 -1.7160 -1.5758 -0.1034
 2682TIP3    H2 8053   3.517   0.379   1.639 -1.7026 -0.1992 -0.6728
 2683TIP3   OH2 8054   0.667   2.785   3.101  0.5371  0.0446  0.3438
 2683TIP3    H1 8055   0.696   2.866   3.058  0.3646  0.0077  0.1570
 2683TIP3    H2 8056   0.621   2.736   3.032  0.3220 -0.0483  0.5503
 2684TIP3   OH2 8057   2.303   4.886   0.907  0.3440 -0.0220  0.3803
 2684TIP3    H1 8058   2.222   4.834   0.904  0.1734 -0.0090  2.7710
 2684TIP3    H2 8059   2.367   4.826   0.946  1.3881  0.1477 -1.0032
 2685TIP3   OH2 8060   5.115   1.843   4.447  0.0707  0.6903 -0.9725
 2685TIP3    H1 8061   5.157   1.811   4.527  2.2619 -2.2004 -3.0731
 2685TIP3    H2 8062   5.022   1.851   4.470  0.3894 -1.3942  1.4776
 2686TIP3   OH2 8063   1.390   1.993   5.096 -0.1916  0.2697 -0.2431
 2686TIP3    H1 8064   1.389   1.898   5.082 -1.0315  0.0451  1.1225
 2686TIP3    H2 8065   1.475   2.011   5.136  0.2855  0.2244 -1.2131
 2687TIP3   OH2 8066   1.400   0.533   4.319 -0.3995  0.1932  0.5492
 2687TIP3    H1 8067   1.428   0.515   4.229 -0.8324 -2.5819  0.8710
 2687TIP3    H2 8068   1.474   0.578   4.359  0.3505  0.2061 -0.7957
 2688TIP3   OH2 8069   0.577   2.899   4.505 -0.2993  0.0760 -0.2011
 2688TIP3    H1 8070   0.502   2.939   4.462  0.5096 -0.4482 -2.2024
 2688TIP3    H2 8071   0.649   2.910   4.444  0.6910 -1.6002  0.5745
 2689TIP3   OH2 8072   5.140   3.302   5.108 -0.3094 -0.0985 -0.1051
 2689TIP3    H1 8073   5.076   3.360   5.150  0.1516  1.6420 -1.6715
 2689TIP3    H2 8074   5.224   3.341   5.130  0.0211 -0.2622 -1.0603
 2690TIP3   OH2 8075   0.231   2.283   1.628  0.0641 -1.1321  0.5076
 2690TIP3    H1 8076   0.325   2.297   1.630  0.1240 -1.4112 -0.2289
 2690TIP3    H2 8077   0.204   2.283   1.720  0.5815  0.3203  0.6795
 2691TIP3   OH2 8078   2.184   0.311   3.147 -0.2679 -0.7652  0.4320
 2691TIP3    H1 8079   2.219   0.374   3.210 -1.4395 -0.0752  0.4253
 2691TIP3    H2 8080   2.093   0.297   3.174 -1.2188  0.5401 -1.8157
 2692TIP3   OH2 8081   1.194   3.650   0.882  0.1633 -0.2755 -0.2905
 2692TIP3    H1 8082   1.169   3.644   0.974 -0.0595 -1.3444 -0.4035
 2692TIP3    H2 8083   1.115   3.678   0.837  0.1801 -0.0899 -0.2077
 2693TIP3   OH2 8084   3.982   4.368   3.337 -0.0117 -0.0825  0.1953
 2693TIP3    H1 8085   4.048   4.327   3.393 -1.1472 -0.5482  1.2381
 2693TIP3    H2 8086   3.919   4.297   3.318 -0.2806  0.3710 -0.6828
 2694TIP3   OH2 8087   5.681   2.918   1.739  0.0960  0.2903 -0.0177
 2694TIP3    H1 8088   5.604   2.862   1.740  0.6492 -0.5342  2.0462
 2694TIP3    H2 8089   5.754   2.858   1.722  0.3667  0.9776 -1.4169
 2695TIP3   OH2 8090   3.522   2.986   4.564 -0.2707  0.0947 -0.3835
 2695TIP3    H1 8091   3.478   2.904   4.588  2.5193 -1.1973  0.7678
 2695TIP3    H2 8092   3.591   2.959   4.504  0.5631  1.6171 -0.1478
 2696TIP3   OH2 8093   3.917   4.112   0.962 -0.2755  0.4236 -0.5122
 2696TIP3    H1 8094   3.970   4.186   0.933 -0.0794  0.5382  0.1136
 2696TIP3    H2 8095   3.866   4.087   0.885 -1.3023  2.0208 -0.4007
 2697TIP3   OH2 8096   1.096   5.206   3.256  0.6269 -0.2801  0.2696
 2697TIP3    H1 8097   1.024   5.266   3.233 -0.4329 -2.3543 -2.2772
 2697TIP3    H2 8098   1.171   5.264   3.271 -0.6165  1.7634 -0.8914
 2698TIP3   OH2 8099   1.257   2.055   0.407 -0.2077 -0.3198  0.0589
 2698TIP3    H1 8100   1.180   2.061   0.464 -1.0263 -0.5803 -0.9685
 2698TIP3    H2 8101   1.257   1.964   0.377  0.0655 -0.1255 -0.5422
 2699TIP3   OH2 8102   6.050   2.975   3.199  0.3740 -0.6355  0.4161
 2699TIP3    H1 8103   6.041   3.049   3.139  0.1829 -0.5092  0.6006
 2699TIP3    H2 8104   6.120   2.922   3.161  0.5826 -0.3069  0.3405
 2700TIP3   OH2 8105   3.412   2.417   4.638  0.1508 -0.1963  0.3066
 2700TIP3    H1 8106   3.444   2.472   4.566 -1.2259 -1.4542 -1.3729
 2700TIP3    H2 8107   3.321   2.399   4.614 -0.5537 -0.1525  2.7331
 2701TIP3   OH2 8108   4.614   0.550   0.914 -0.0763  0.5372 -0.0770
 2701TIP3    H1 8109   4.547   0.618   0.920 -0.3237  0.2501  0.5133
 2701TIP3    H2 8110   4.610   0.506   0.999  0.7988  0.4588 -0.0719
 2702TIP3   OH2 8111   3.888   3.576   4.240 -0.0330  0.0103  0.0511
 2702TIP3    H1 8112   3.897   3.486   4.206  1.6274  0.6419 -1.3515
 2702TIP3    H2 8113   3.794   3.586   4.255 -0.1759 -2.2370  1.0877
 2703TIP3   OH2 8114   5.634   5.705   0.389  0.1880  0.1791  0.6209
 2703TIP3    H1 8115   5.652   5.762   0.313 -2.1061 -0.5179 -0.5402
 2703TIP3    H2 8116   5.656   5.617   0.358 -0.6032 -0.0894  0.8048
 2704TIP3   OH2 8117   1.210   2.019   1.618  0.0678 -0.5465 -0.2782
 2704TIP3    H1 8118   1.124   2.036   1.654  0.0415 -0.4436 -0.3902
 2704TIP3    H2 8119   1.198   1.941   1.563  0.1449 -0.8057  0.0713
 2705TIP3   OH2 8120  -0.001   1.052   3.834 -0.6809  0.0116 -0.0752
 2705TIP3    H1 8121   0.029   0.961   3.835 -0.7487 -0.0110  0.5120
 2705TIP3    H2 8122  -0.020   1.070   3.742 -2.5775 -1.2042  0.0190
 2706TIP3   OH2 8123   5.321   2.191   0.392 -0.3141  0.2094  0.2920
 2706TIP3    H1 8124   5.251   2.131   0.417  0.1451 -0.2387  0.5393
 2706TIP3    H2 8125   5.309   2.205   0.298 -0.9672  0.4550  0.4092
 2707TIP3   OH2 8126   5.897   4.082   4.731 -0.7236  0.2558 -0.0480
 2707TIP3    H1 8127   5.831   4.151   4.722 -0.6581  0.2221 -0.8826
 2707TIP3    H2 8128   5.855   4.004   4.694 -1.4970 -0.6625  2.5275
 2708TIP3   OH2 8129   5.984   1.996   2.527 -0.3792 -0.3551 -0.1863
 2708TIP3    H1 8130   6.049   2.009   2.596 -0.7572 -0.8786  0.2711
 2708TIP3    H2 8131   5.910   1.952   2.570 -1.5179  1.2239 -0.4383
 2709TIP3   OH2 8132   3.431   1.316   5.187  0.3627 -0.3868 -0.0406
 2709TIP3    H1 8133   3.507   1.287   5.136  0.2104 -1.7333  0.4701
 2709TIP3    H2 8134   3.374   1.239   5.192 -0.5696  0.3051  0.4691
 2710TIP3   OH2 8135   6.178   3.030   0.493  0.5245  0.2872 -0.4785
 2710TIP3    H1 8136   6.150   3.096   0.557 -1.0781  0.2701 -1.0931
 2710TIP3    H2 8137   6.193   2.951   0.545  2.1252  1.0153  0.2227
 2711TIP3   OH2 8138   5.922   2.287   3.808 -0.6812  0.2868  0.0464
 2711TIP3    H1 8139   5.977   2.313   3.882  0.1036  0.6226 -0.6480
 2711TIP3    H2 8140   5.848   2.241   3.849  0.1238 -0.2067  0.9956
 2712TIP3   OH2 8141   2.734   0.350   0.934  0.5240  0.2640  0.2410
 2712TIP3    H1 8142   2.691   0.279   0.887  0.1509  0.2530  0.5962
 2712TIP3    H2 8143   2.712   0.336   1.026  0.0551  1.1003  0.2703
 2713TIP3   OH2 8144   2.770   2.962   3.459  0.1784 -0.3264 -0.0394
 2713TIP3    H1 8145   2.810   3.022   3.396  0.0600 -0.1000  0.0970
 2713TIP3    H2 8146   2.764   2.878   3.413  0.1870 -0.1882 -0.2917
 2714TIP3   OH2 8147   1.847   3.691   2.241 -0.0474  0.2703  0.3128
 2714TIP3    H1 8148   1.874   3.782   2.254 -0.7565  0.3938  0.9670
 2714TIP3    H2 8149   1.848   3.679   2.146  0.8314  0.7162  0.2579
 2715TIP3   OH2 8150   6.159   5.160   4.879  0.0812 -0.1850  0.3684
 2715TIP3    H1 8151   6.220   5.145   4.807  0.1235 -0.2225  0.4121
 2715TIP3    H2 8152   6.113   5.240   4.856 -0.2627 -0.4717  0.0524
 2716TIP3   OH2 8153   2.580   0.824   2.125  0.3863  0.6154 -0.1920
 2716TIP3    H1 8154   2.517   0.897   2.127  0.5083  0.7050  0.6853
 2716TIP3    H2 8155   2.532   0.750   2.164  1.1195  0.9463  1.4282
 2717TIP3   OH2 8156   2.352   3.463   2.219  0.9887 -0.7152  0.2522
 2717TIP3    H1 8157   2.350   3.369   2.237 -0.0415 -0.5196  1.2733
 2717TIP3    H2 8158   2.443   3.489   2.234  0.9560 -1.2721  1.5208
 2718TIP3   OH2 8159   5.015   2.176   3.772 -0.0462  0.1327  0.5398
 2718TIP3    H1 8160   4.964   2.096   3.761  0.0356 -0.1429  1.9864
 2718TIP3    H2 8161   5.081   2.171   3.703 -0.4071 -0.7581  0.2419
 2719TIP3   OH2 8162   6.375   5.334   0.163 -0.5855  0.6088  0.1688
 2719TIP3    H1 8163   6.333   5.267   0.109 -0.7319  2.1901 -1.8188
 2719TIP3    H2 8164   6.316   5.344   0.238 -1.8800  0.2411 -0.7501
 2720TIP3   OH2 8165   4.958   1.292   4.169 -0.0982 -0.0786 -0.2612
 2720TIP3    H1 8166   4.939   1.253   4.083 -2.4206 -0.0489  0.1909
 2720TIP3    H2 8167   4.943   1.386   4.156  2.1920  0.3240 -0.4615
 2721TIP3   OH2 8168   1.578   4.387   4.442  0.4166 -0.4147 -0.0967
 2721TIP3    H1 8169   1.577   4.361   4.350 -1.1936 -1.4015  0.1424
 2721TIP3    H2 8170   1.522   4.465   4.446  1.1101  0.0896 -0.0531
 2722TIP3   OH2 8171   5.456   2.713   1.310  0.0354 -0.0081  0.5808
 2722TIP3    H1 8172   5.517   2.713   1.237  0.3127  0.9640  0.8015
 2722TIP3    H2 8173   5.489   2.780   1.370 -1.2843  0.6100  0.6550
 2723TIP3   OH2 8174   1.786   3.162   2.614  0.1800  0.0819 -0.2330
 2723TIP3    H1 8175   1.837   3.085   2.637 -0.4267  0.3289  2.1960
 2723TIP3    H2 8176   1.745   3.139   2.530  1.3184 -1.5459 -0.3888
 2724TIP3   OH2 8177   2.871   3.765   2.819 -0.1145 -0.4405 -0.4469
 2724TIP3    H1 8178   2.902   3.822   2.749 -1.7650 -0.6118 -1.3601
 2724TIP3    H2 8179   2.886   3.815   2.900  3.0984 -0.7901 -0.7017
 2725TIP3   OH2 8180   1.403   1.754   1.160  0.3588 -0.4164 -0.3531
 2725TIP3    H1 8181   1.324   1.799   1.130 -0.0644 -0.7807  0.1990
 2725TIP3    H2 8182   1.434   1.808   1.233  0.8732 -0.0302 -0.8530
 2726TIP3   OH2 8183   4.690   4.837   5.130  0.1115  0.3790 -0.3750
 2726TIP3    H1 8184   4.756   4.889   5.176 -1.2526  2.1000 -0.2577
 2726TIP3    H2 8185   4.611   4.890   5.134 -0.9559 -1.0274 -1.6566
 2727TIP3   OH2 8186   4.747   2.858   1.907  0.5466 -0.1732  0.1228
 2727TIP3    H1 8187   4.658   2.831   1.928  0.0055  1.2363 -0.2267
 2727TIP3    H2 8188   4.749   2.860   1.811  0.8240  0.1833  0.1337
 2728TIP3   OH2 8189   1.675   3.117   0.755  0.1810  0.9862  0.1051
 2728TIP3    H1 8190   1.741   3.074   0.809 -0.5292  1.6923  1.5809
 2728TIP3    H2 8191   1.663   3.204   0.795  0.7658  2.1687 -2.1198
 2729TIP3   OH2 8192   0.555   5.671   0.118 -0.6040 -0.2841  0.0823
 2729TIP3    H1 8193   0.574   5.604   0.053 -1.3955 -1.7562  1.3087
 2729TIP3    H2 8194   0.459   5.681   0.115 -0.5266  0.5950  0.1334
 2730TIP3   OH2 8195   3.068   3.934   5.092 -0.5840 -0.5328 -0.2350
 2730TIP3    H1 8196   3.112   3.941   5.007  0.1655 -1.3898  0.0656
 2730TIP3    H2 8197   3.008   3.860   5.081  0.7968 -1.8086  0.5040
 2731TIP3   OH2 8198   6.142   0.123   0.498  0.0334 -0.1799  0.3130
 2731TIP3    H1 8199   6.215   0.178   0.467  1.1380 -1.1058  1.2138
 2731TIP3    H2 8200   6.174   0.034   0.490 -0.6219 -0.5589  1.6729
 2732TIP3   OH2 8201   5.666   1.467   1.392  0.0149 -0.2931  0.2399
 2732TIP3    H1 8202   5.574   1.492   1.390  0.3630  1.1651 -3.1810
 2732TIP3    H2 8203   5.672   1.390   1.336  0.9661  0.0609 -0.1675
 2733TIP3   OH2 8204   1.553   4.411   2.107  0.0735 -0.2133  0.0536
 2733TIP3    H1 8205   1.590   4.468   2.040 -1.6145  0.7362 -0.1420
 2733TIP3    H2 8206   1.460   4.435   2.110 -0.1763 -1.2171  1.7456
 2734TIP3   OH2 8207   1.076   2.933   3.693  0.2345  0.1916  0.0068
 2734TIP3    H1 8208   1.156   2.969   3.655 -0.0395  1.1861  0.3369
 2734TIP3    H2 8209   1.007   2.956   3.631  0.3600 -1.7834 -0.9194
 2735TIP3   OH2 8210   1.961   5.008   0.646  0.2094 -0.2583 -0.4776
 2735TIP3    H1 8211   1.882   5.060   0.661 -0.0316 -1.1989  2.0263
 2735TIP3    H2 8212   1.957   4.938   0.712  2.3195 -1.3092 -1.3596
 2736TIP3   OH2 8213   2.372   1.283   5.156 -0.3105  0.0742  0.3278
 2736TIP3    H1 8214   2.465   1.267   5.172 -0.1218  0.4160 -0.3874
 2736TIP3    H2 8215   2.349   1.226   5.083 -0.6218  0.1069  0.3985
 2737TIP3   OH2 8216   0.443   5.122   1.647  0.0601  0.3653 -0.3794
 2737TIP3    H1 8217   0.468   5.126   1.555  0.2662 -0.1062 -0.3441
 2737TIP3    H2 8218   0.404   5.208   1.665  1.5521  1.1005 -0.4542
 2738TIP3   OH2 8219   2.531   5.633   2.744 -0.0222 -0.1146 -0.1765
 2738TIP3    H1 8220   2.523   5.601   2.654 -0.9396  3.3172 -1.4645
 2738TIP3    H2 8221   2.581   5.714   2.737 -1.5374  1.1475  2.1325
 2739TIP3   OH2 8222   4.381   4.334   3.868  0.1224 -0.5133 -0.1131
 2739TIP3    H1 8223   4.437   4.359   3.942 -2.5824 -1.7145  2.5945
 2739TIP3    H2 8224   4.412   4.247   3.842  0.3539 -0.6098  0.4732
 2740TIP3   OH2 8225   5.199   3.636   1.456 -0.5927  0.3532  0.3276
 2740TIP3    H1 8226   5.103   3.632   1.451 -0.5364  0.8572 -2.4340
 2740TIP3    H2 8227   5.218   3.729   1.465 -0.3320  0.3861 -0.5509
 2741TIP3   OH2 8228   2.453   2.701   4.021  0.3019 -0.7057  0.4073
 2741TIP3    H1 8229   2.419   2.625   3.974 -1.6917 -0.8961  1.9901
 2741TIP3    H2 8230   2.452   2.772   3.958  1.1603 -1.7220 -0.7974
 2742TIP3   OH2 8231   3.923   0.578   5.154  0.0360 -0.1462  0.0521
 2742TIP3    H1 8232   4.004   0.564   5.203  0.6257 -0.0614 -0.8749
 2742TIP3    H2 8233   3.870   0.500   5.173  1.9929 -2.2631 -2.5012
 2743TIP3   OH2 8234   2.021   2.712   3.408 -0.1780  0.4513  0.2550
 2743TIP3    H1 8235   2.101   2.663   3.391 -0.2966 -0.3027  1.6954
 2743TIP3    H2 8236   1.977   2.662   3.477 -2.8108 -0.1959 -1.7025
 2744TIP3   OH2 8237   2.383   2.524   3.829  0.0939 -0.4103  0.6294
 2744TIP3    H1 8238   2.394   2.459   3.899  2.3755 -0.9541 -0.1249
 2744TIP3    H2 8239   2.351   2.473   3.754 -0.4912 -0.1886  0.7242
 2745TIP3   OH2 8240   3.853   1.062   2.346 -0.1434  0.0955  0.0154
 2745TIP3    H1 8241   3.772   1.034   2.389  1.0471  0.4417  2.6799
 2745TIP3    H2 8242   3.833   1.150   2.313 -0.6943  0.4724  1.2620
 2746TIP3   OH2 8243   4.970   5.283   2.803  0.4680  0.1558 -0.0632
 2746TIP3    H1 8244   4.896   5.342   2.788  0.7443  1.1433  2.0427
 2746TIP3    H2 8245   4.929   5.198   2.820 -0.2253  0.6823  1.0327
 2747TIP3   OH2 8246   2.292   1.567   4.817  0.1215 -0.0665 -0.1062
 2747TIP3    H1 8247   2.248   1.505   4.760 -1.1028 -0.7141  1.4735
 2747TIP3    H2 8248   2.325   1.635   4.758 -1.4706 -0.4671 -1.5155
 2748TIP3   OH2 8249   4.299   5.289   0.638  0.2909  0.3472  0.0672
 2748TIP3    H1 8250   4.339   5.247   0.562 -1.3328  0.0798 -0.6733
 2748TIP3    H2 8251   4.371   5.338   0.679  1.7901 -1.5973 -0.1122
 2749TIP3   OH2 8252   5.648   2.494   1.630 -0.2409  0.0792  0.0878
 2749TIP3    H1 8253   5.604   2.436   1.692 -0.8775  0.3015 -0.1431
 2749TIP3    H2 8254   5.598   2.485   1.549 -0.1966  0.7557 -0.0223
 2750TIP3   OH2 8255   1.414   2.427   4.949  0.5316 -0.1028 -0.7124
 2750TIP3    H1 8256   1.452   2.515   4.955  1.0383 -0.3798  0.3901
 2750TIP3    H2 8257   1.372   2.425   4.863 -1.1028  1.8509 -0.0427
 2751TIP3   OH2 8258   3.348   3.684   3.326 -0.3109  0.3320 -0.1028
 2751TIP3    H1 8259   3.265   3.717   3.293 -0.7312  0.0542  0.6531
 2751TIP3    H2 8260   3.332   3.667   3.419  1.3383  2.8515  0.7549
 2752TIP3   OH2 8261   4.807   4.992   0.675  0.3870  0.3012  0.1049
 2752TIP3    H1 8262   4.790   5.086   0.688  1.7231  0.7178 -0.8795
 2752TIP3    H2 8263   4.723   4.956   0.646 -0.1444  1.1973  0.4931
 2753TIP3   OH2 8264   3.206   5.029   4.219 -0.0059 -0.4758  0.1643
 2753TIP3    H1 8265   3.250   4.944   4.225 -2.0522 -1.5508  0.9904
 2753TIP3    H2 8266   3.133   5.023   4.280 -0.2976  1.8687  0.1573
 2754TIP3   OH2 8267   4.404   3.070   0.165  0.4455  0.1060  0.5495
 2754TIP3    H1 8268   4.490   3.030   0.182  0.1789 -0.1672  1.2786
 2754TIP3    H2 8269   4.424   3.144   0.108  1.1168 -0.2225  0.3401
 2755TIP3   OH2 8270   4.537   5.845   2.205 -0.5991 -0.3928  0.1502
 2755TIP3    H1 8271   4.629   5.823   2.190 -0.7361 -0.1136 -1.1681
 2755TIP3    H2 8272   4.490   5.765   2.183 -0.6008 -1.0877  2.3909
 2756TIP3   OH2 8273   1.903   5.221   5.142 -0.1085 -0.6935 -0.4724
 2756TIP3    H1 8274   1.882   5.314   5.129  0.3207 -0.3973  0.7923
 2756TIP3    H2 8275   1.990   5.210   5.104 -0.0056 -0.4877 -0.3005
 2757TIP3   OH2 8276   1.497   5.410   2.978  0.5406 -0.3082  0.3831
 2757TIP3    H1 8277   1.414   5.404   2.931 -0.0427  0.1540  1.3072
 2757TIP3    H2 8278   1.490   5.344   3.047  0.0987  1.0543  1.6843
 2758TIP3   OH2 8279   3.376   0.262   4.501  0.9221 -0.2938  0.0287
 2758TIP3    H1 8280   3.438   0.276   4.572 -0.0296  0.4214  0.7536
 2758TIP3    H2 8281   3.320   0.190   4.531 -0.2363  0.7876  0.5730
 2759TIP3   OH2 8282   4.034   3.793   3.802  0.5502 -0.1988  0.1894
 2759TIP3    H1 8283   3.967   3.738   3.841 -0.9124  0.4480 -1.2967
 2759TIP3    H2 8284   4.063   3.744   3.725  0.7285  0.1821  0.0093
 2760TIP3   OH2 8285   0.075   3.101   2.641  0.0054 -0.4022 -0.1556
 2760TIP3    H1 8286   0.014   3.072   2.574 -0.9068  1.2528 -0.0904
 2760TIP3    H2 8287   0.128   3.169   2.598  0.8970 -0.8664  0.1793
 2761TIP3   OH2 8288   5.248   1.176   3.901 -0.9607  0.1077  0.6479
 2761TIP3    H1 8289   5.164   1.138   3.928 -1.1742  1.3409  1.7742
 2761TIP3    H2 8290   5.280   1.222   3.978 -1.0456  2.8287 -0.8233
 2762TIP3   OH2 8291   6.073   4.881   3.645  0.2625 -0.3729  0.0240
 2762TIP3    H1 8292   6.045   4.800   3.688 -1.0690  0.5063  0.8609
 2762TIP3    H2 8293   6.107   4.935   3.716  2.0462 -0.5248 -0.6575
 2763TIP3   OH2 8294   0.822   0.711   1.115  0.1733  0.4509 -0.0130
 2763TIP3    H1 8295   0.794   0.621   1.097  0.0101  0.4589  0.1895
 2763TIP3    H2 8296   0.835   0.750   1.029 -3.2838  1.3413 -0.2632
 2764TIP3   OH2 8297   1.656   1.170   5.115  0.0620 -0.6079 -0.6160
 2764TIP3    H1 8298   1.696   1.247   5.155  0.6711 -0.0769 -2.1646
 2764TIP3    H2 8299   1.563   1.178   5.133  0.1214  0.4979 -0.7503
 2765TIP3   OH2 8300   4.933   0.373   0.592  0.3507 -0.1694 -0.6055
 2765TIP3    H1 8301   4.974   0.329   0.517  1.0712 -0.7040  0.0908
 2765TIP3    H2 8302   4.863   0.425   0.553  1.2184  0.1882 -1.7546
 2766TIP3   OH2 8303   4.247   3.180   3.066 -0.1991 -0.5194 -0.1611
 2766TIP3    H1 8304   4.264   3.172   3.160 -0.8012  0.9281  0.0973
 2766TIP3    H2 8305   4.277   3.097   3.029 -0.6981 -1.4421  1.4100
 2767TIP3   OH2 8306   5.693   5.570   1.059  0.1358 -0.4881 -0.4106
 2767TIP3    H1 8307   5.683   5.591   1.152  1.3066 -0.8572 -0.1844
 2767TIP3    H2 8308   5.706   5.654   1.017  1.2456 -0.4289  0.0041
 2768TIP3   OH2 8309   5.667   3.882   0.179  0.1982  0.2601  0.3605
 2768TIP3    H1 8310   5.627   3.829   0.248 -0.5382  2.2301  1.5231
 2768TIP3    H2 8311   5.644   3.836   0.098 -1.5007 -0.5371  1.2233
 2769TIP3   OH2 8312   6.063   0.846   4.824 -0.1457 -0.2907  0.1344
 2769TIP3    H1 8313   6.136   0.858   4.885 -0.0988 -1.2023  0.2801
 2769TIP3    H2 8314   5.997   0.909   4.852  0.6112  0.5932 -0.0401
 2770TIP3   OH2 8315   4.418   0.116   1.461  0.4325  0.0327 -0.2327
 2770TIP3    H1 8316   4.485   0.061   1.419  0.0604  1.3325 -2.7506
 2770TIP3    H2 8317   4.340   0.060   1.463  0.6246 -0.2699 -0.7542
 2771TIP3   OH2 8318   0.735   1.742   0.340  0.3755  0.3595 -0.1625
 2771TIP3    H1 8319   0.732   1.786   0.425  0.8664 -0.8044  0.4801
 2771TIP3    H2 8320   0.807   1.679   0.348  1.4975  1.3155 -1.9972
 2772TIP3   OH2 8321   3.582   0.279   2.158  0.3557 -0.3820 -0.8584
 2772TIP3    H1 8322   3.645   0.230   2.211 -1.7063 -2.8810 -0.5440
 2772TIP3    H2 8323   3.547   0.345   2.218 -0.1135 -1.5309  0.1758
 2773TIP3   OH2 8324   3.534   1.099   1.128 -0.3767  0.1973  0.0883
 2773TIP3    H1 8325   3.472   1.127   1.060 -0.2904 -1.3354 -0.6538
 2773TIP3    H2 8326   3.540   1.175   1.186 -4.0561 -0.0030  1.0062
 2774TIP3   OH2 8327   5.932   2.204   2.181  0.3822 -0.4923  0.1749
 2774TIP3    H1 8328   5.871   2.271   2.213  2.4246  0.0788  3.3114
 2774TIP3    H2 8329   5.972   2.242   2.103 -0.9733  0.4147 -0.1145
 2775TIP3   OH2 8330   4.577   4.322   0.386  0.3481 -0.0501 -0.1444
 2775TIP3    H1 8331   4.518   4.247   0.392  0.7958 -0.3221  1.0629
 2775TIP3    H2 8332   4.554   4.376   0.462 -0.8395  1.7107 -1.6457
 2776TIP3   OH2 8333   3.613   0.314   0.973  0.2786  0.4041 -0.1837
 2776TIP3    H1 8334   3.596   0.231   0.928 -1.5783  0.4533  0.3667
 2776TIP3    H2 8335   3.611   0.380   0.903 -1.0490  0.2898 -0.2858
 2777TIP3   OH2 8336   2.401   0.005   4.056 -0.3258  0.2882  0.2776
 2777TIP3    H1 8337   2.412   0.081   4.113 -1.2901  0.0479  0.7934
 2777TIP3    H2 8338   2.430   0.036   3.970  4.2225 -0.2278  1.3760
 2778TIP3   OH2 8339   1.162   4.853   5.192  0.2220 -0.2506  0.3149
 2778TIP3    H1 8340   1.209   4.897   5.122 -0.2212  0.7950  0.6416
 2778TIP3    H2 8341   1.092   4.914   5.216 -1.0977 -1.6018  0.0670
 2779TIP3   OH2 8342   5.158   2.596   2.208 -0.0298 -0.1197 -0.2060
 2779TIP3    H1 8343   5.093   2.624   2.273 -0.4458 -0.0641 -0.6328
 2779TIP3    H2 8344   5.152   2.663   2.139  1.1552  0.4038  0.1804
 2780TIP3   OH2 8345   2.181   4.215   0.579  0.2227 -0.3314 -0.0941
 2780TIP3    H1 8346   2.228   4.231   0.498  0.0281 -1.4858 -0.4504
 2780TIP3    H2 8347   2.250   4.198   0.644  0.3349 -1.4493 -0.4871
 2781TIP3   OH2 8348   0.324   4.728   1.286 -0.0431  0.3451  0.3988
 2781TIP3    H1 8349   0.252   4.782   1.251  0.8533  0.5044 -1.2803
 2781TIP3    H2 8350   0.286   4.640   1.294 -0.8389  0.7199  0.9483
 2782TIP3   OH2 8351   0.849   3.237   2.060 -0.1208 -0.4549  0.0461
 2782TIP3    H1 8352   0.841   3.159   2.115  1.1867 -0.3171  0.4725
 2782TIP3    H2 8353   0.762   3.249   2.023 -0.5298 -1.6944  0.5429
 2783TIP3   OH2 8354   3.099   3.573   1.944  0.8545 -0.2125 -0.5635
 2783TIP3    H1 8355   3.063   3.646   1.894 -0.5445  0.4933  1.3611
 2783TIP3    H2 8356   3.151   3.614   2.013 -0.0950 -0.9712  0.6545
 2784TIP3   OH2 8357   3.462   0.339   1.249  0.4458 -0.2945  0.1055
 2784TIP3    H1 8358   3.540   0.307   1.295 -0.2180 -2.9569 -0.4603
 2784TIP3    H2 8359   3.490   0.349   1.158  0.1031 -1.5701 -0.1635
 2785TIP3   OH2 8360   6.203   4.483   4.036 -0.2584 -0.3276 -0.1916
 2785TIP3    H1 8361   6.137   4.437   4.087 -2.5005  1.2618 -1.4801
 2785TIP3    H2 8362   6.166   4.569   4.020  2.5899  1.0366 -0.1678
 2786TIP3   OH2 8363   4.665   5.396   0.105  0.0226  0.5488  0.3089
 2786TIP3    H1 8364   4.746   5.393   0.055  0.5915 -0.4443  1.2615
 2786TIP3    H2 8365   4.661   5.485   0.141  0.4866  0.7152 -0.0533
 2787TIP3   OH2 8366   0.460   1.054   0.573 -0.0411  0.5190 -0.0821
 2787TIP3    H1 8367   0.527   1.057   0.641  1.1121  0.9388 -1.2055
 2787TIP3    H2 8368   0.399   0.986   0.603  0.5880  0.4924  1.2131
 2788TIP3   OH2 8369   5.330   3.987   2.601  0.0945 -0.1463 -0.1102
 2788TIP3    H1 8370   5.351   3.948   2.516  0.7877 -1.5071  0.6505
 2788TIP3    H2 8371   5.235   3.972   2.611 -0.5401  2.2566 -1.6963
 2789TIP3   OH2 8372   4.862   0.906   1.239  0.0722 -0.3426 -0.6259
 2789TIP3    H1 8373   4.923   0.836   1.212  0.0612 -0.7064  0.2769
 2789TIP3    H2 8374   4.887   0.981   1.185  0.1291 -1.0164 -1.5692
 2790TIP3   OH2 8375   3.827   1.394   2.239 -0.2192 -0.6302  0.6924
 2790TIP3    H1 8376   3.765   1.371   2.309 -0.2653 -0.2446  0.7761
 2790TIP3    H2 8377   3.829   1.489   2.239 -0.8042 -0.6081 -0.3476
 2791TIP3   OH2 8378   3.473   0.639   2.981  0.1093  0.4446  0.2896
 2791TIP3    H1 8379   3.537   0.569   2.968  0.6813  1.2622 -1.6887
 2791TIP3    H2 8380   3.524   0.711   3.019 -0.1539  0.3087  0.9090
 2792TIP3   OH2 8381   4.892   3.377   2.947 -0.2547  0.0654 -0.2983
 2792TIP3    H1 8382   4.967   3.430   2.976 -2.1681  1.3444  2.7738
 2792TIP3    H2 8383   4.834   3.440   2.904  0.1770 -0.8551 -2.3513
 2793TIP3   OH2 8384   1.874   2.403   2.469 -0.7944 -0.2263  0.0758
 2793TIP3    H1 8385   1.804   2.417   2.405  0.0390 -0.5596 -0.9303
 2793TIP3    H2 8386   1.925   2.484   2.467  0.5250 -1.0346 -1.3521
 2794TIP3   OH2 8387   4.055   4.340   0.360 -0.2820  0.2073  0.1335
 2794TIP3    H1 8388   4.133   4.396   0.364 -0.0807 -0.0662  0.0454
 2794TIP3    H2 8389   4.088   4.255   0.332 -0.6720  0.2030 -0.3314
 2795TIP3   OH2 8390   3.893   2.942   3.631  0.1023  0.0128  0.1114
 2795TIP3    H1 8391   3.908   2.849   3.649 -2.4175 -0.6737 -0.9857
 2795TIP3    H2 8392   3.934   2.957   3.546 -0.1636 -0.3149 -0.0788
 2796TIP3   OH2 8393   5.379   1.928   2.031 -0.3408  0.8310 -0.0821
 2796TIP3    H1 8394   5.451   1.936   2.094 -1.1440  2.1847  0.7324
 2796TIP3    H2 8395   5.345   2.017   2.023 -0.8965  0.5052 -1.7050
 2797TIP3   OH2 8396   3.419   3.937   3.217  0.0857  0.2420 -0.8089
 2797TIP3    H1 8397   3.454   3.984   3.293  0.2580 -0.2042 -0.6051
 2797TIP3    H2 8398   3.410   3.846   3.248  0.0168  0.0888 -1.2755
 2798TIP3   OH2 8399   2.084   0.393   2.488  0.1959 -0.1447 -0.3892
 2798TIP3    H1 8400   2.103   0.434   2.404  0.4490 -0.7773 -0.6433
 2798TIP3    H2 8401   1.995   0.360   2.480  0.0900  0.1116 -0.2795
 2799TIP3   OH2 8402   0.965   1.764   1.943 -0.3475 -0.2263  0.8792
 2799TIP3    H1 8403   0.873   1.791   1.939 -0.4991 -0.7320  0.7860
 2799TIP3    H2 8404   1.008   1.831   1.995 -1.1848 -1.0622  2.7438
 2800TIP3   OH2 8405   5.276   2.491   3.960  0.3253 -1.0004 -0.4316
 2800TIP3    H1 8406   5.198   2.440   3.983  0.7150 -0.8996  1.2258
 2800TIP3    H2 8407   5.326   2.434   3.901 -0.9390 -1.0963 -1.4566
 2801TIP3   OH2 8408   5.087   3.658   2.702 -0.0980 -0.1807 -0.3110
 2801TIP3    H1 8409   5.081   3.606   2.622  2.0663  0.8003 -1.1854
 2801TIP3    H2 8410   5.070   3.748   2.674  0.7831  0.1861  0.2927
 2802TIP3   OH2 8411   2.128   0.278   0.712  0.1925 -0.0448 -0.0647
 2802TIP3    H1 8412   2.065   0.322   0.654 -0.4182 -0.2129  0.4573
 2802TIP3    H2 8413   2.089   0.193   0.730  0.8508 -0.3818 -0.1908
 2803TIP3   OH2 8414   0.635   5.910   0.246 -0.1296 -0.1175 -0.0771
 2803TIP3    H1 8415   0.598   5.831   0.205  0.3509 -0.2035 -0.3435
 2803TIP3    H2 8416   0.631   5.977   0.178 -0.2892  0.0207  0.0655
 2804TIP3   OH2 8417   3.305   3.733   1.036  0.3054 -0.4985 -0.4510
 2804TIP3    H1 8418   3.346   3.678   1.103 -0.0011 -0.0202  0.1390
 2804TIP3    H2 8419   3.320   3.686   0.954 -1.0730 -2.1439  0.1803
 2805TIP3   OH2 8420   3.167   0.779   2.197 -0.1245  0.4595 -0.3580
 2805TIP3    H1 8421   3.212   0.701   2.166 -0.1986 -0.2194  1.1552
 2805TIP3    H2 8422   3.218   0.852   2.162  0.9901 -0.2804 -0.3119
 2806TIP3   OH2 8423   0.359   3.741   2.045 -0.9033 -0.6260  0.5739
 2806TIP3    H1 8424   0.314   3.808   2.096  2.6595 -0.1309  3.4647
 2806TIP3    H2 8425   0.316   3.659   2.069 -1.3714 -0.0137  1.9287
 2807TIP3   OH2 8426   5.302   3.934   3.326 -0.2507  0.0127  0.1574
 2807TIP3    H1 8427   5.283   3.927   3.233 -0.6644  0.3449  0.2107
 2807TIP3    H2 8428   5.257   3.859   3.366  1.1392 -0.9667 -0.0711
 2808TIP3   OH2 8429   2.455   5.552   0.351 -0.1170 -0.4087  0.5160
 2808TIP3    H1 8430   2.417   5.485   0.294  0.0352 -0.3800  0.3821
 2808TIP3    H2 8431   2.500   5.503   0.420  0.2768 -0.4472  0.2345
 2809TIP3   OH2 8432   6.265   1.881   1.157 -0.1345 -0.0396  0.0563
 2809TIP3    H1 8433   6.331   1.811   1.155  1.0463  1.0238 -2.1881
 2809TIP3    H2 8434   6.305   1.950   1.211  0.1095  0.1519 -0.3641
 2810TIP3   OH2 8435   5.954   4.042   1.774 -0.0091 -0.3356  0.2854
 2810TIP3    H1 8436   5.884   3.999   1.823 -1.9521 -0.2132 -2.1778
 2810TIP3    H2 8437   5.995   4.100   1.838 -2.2467 -0.3101  1.8360
 2811TIP3   OH2 8438   5.925   0.179   5.036 -0.6828 -0.0939  0.5063
 2811TIP3    H1 8439   5.858   0.183   5.104 -0.0223 -0.1527  1.1622
 2811TIP3    H2 8440   5.884   0.221   4.960 -1.1914  0.5529  1.1284
 2812TIP3   OH2 8441   0.551   0.306   2.179  0.1129  0.4238 -0.0769
 2812TIP3    H1 8442   0.583   0.390   2.146 -1.4277  1.7365  1.5867
 2812TIP3    H2 8443   0.602   0.291   2.259 -0.0842  0.1117 -0.0093
 2813TIP3   OH2 8444   6.286   4.139   3.441 -0.1024 -0.0710  0.0324
 2813TIP3    H1 8445   6.322   4.197   3.375 -0.6811  0.3400  0.0689
 2813TIP3    H2 8446   6.337   4.059   3.434  1.4191  0.8000  0.6946
 2814TIP3   OH2 8447   4.859   1.885   0.712  0.4789  0.4786  0.6248
 2814TIP3    H1 8448   4.818   1.908   0.629 -1.5058  0.1182  1.4590
 2814TIP3    H2 8449   4.952   1.902   0.698  0.1026  1.1052 -1.4256
 2815TIP3   OH2 8450   2.529   4.500   4.580  0.7098 -0.5751 -0.0019
 2815TIP3    H1 8451   2.586   4.577   4.582  0.6987 -0.5617 -0.1647
 2815TIP3    H2 8452   2.528   4.469   4.670  0.4116 -0.1636  0.1401
 2816TIP3   OH2 8453   1.916   3.907   1.011 -0.3272 -0.1910 -0.6231
 2816TIP3    H1 8454   2.011   3.904   0.998 -0.2767  0.2944 -0.3777
 2816TIP3    H2 8455   1.889   3.988   0.968 -0.2920  0.9354  1.3721
 2817TIP3   OH2 8456   5.295   0.360   5.161 -0.1400 -0.3049 -0.0287
 2817TIP3    H1 8457   5.238   0.435   5.142 -1.4261 -0.1350  3.6837
 2817TIP3    H2 8458   5.253   0.286   5.116 -0.9013  0.5647 -0.7866
 2818TIP3   OH2 8459   3.255   4.385   3.547 -0.4811  1.2546 -0.2063
 2818TIP3    H1 8460   3.286   4.295   3.536  0.9875  1.6391  0.5212
 2818TIP3    H2 8461   3.207   4.405   3.466  0.2828  0.2588 -0.9161
 2819TIP3   OH2 8462   3.799   0.826   5.181  0.0598 -0.8429  0.1378
 2819TIP3    H1 8463   3.739   0.853   5.112 -0.1701 -1.4286  0.1112
 2819TIP3    H2 8464   3.832   0.741   5.154 -0.0646 -1.1022  0.7718
 2820TIP3   OH2 8465   4.141   3.229   0.977 -0.7240  0.6043 -0.0314
 2820TIP3    H1 8466   4.147   3.134   0.984 -4.2171  0.1582 -1.1776
 2820TIP3    H2 8467   4.156   3.260   1.067 -2.1854 -1.2775  0.9385
 2821TIP3   OH2 8468   2.887   1.843   2.835  0.2875  0.2655  0.1281
 2821TIP3    H1 8469   2.980   1.842   2.811  0.1060 -0.5931 -0.5954
 2821TIP3    H2 8470   2.862   1.751   2.838 -0.6971  0.5060 -0.2835
 2822TIP3   OH2 8471   3.647   0.484   0.749  0.7969 -0.0259 -0.3059
 2822TIP3    H1 8472   3.613   0.442   0.671 -0.0277 -1.7008  0.8926
 2822TIP3    H2 8473   3.590   0.560   0.762  0.9837  0.2992 -1.3415
 2823TIP3   OH2 8474   5.317   3.430   0.502 -0.1246  0.8906 -0.2640
 2823TIP3    H1 8475   5.226   3.457   0.511 -0.3018  0.0940  0.4773
 2823TIP3    H2 8476   5.365   3.484   0.564 -0.2988  0.3838  0.3239
 2824TIP3   OH2 8477   2.374   3.488   2.678 -0.5077  0.1257 -0.4821
 2824TIP3    H1 8478   2.418   3.403   2.672 -0.9619 -0.3180  1.6193
 2824TIP3    H2 8479   2.443   3.550   2.698 -0.2490  0.1616 -1.4774
 2825TIP3   OH2 8480   5.714   5.806   4.598  0.5930 -0.3446  0.0843
 2825TIP3    H1 8481   5.652   5.773   4.662  2.0109 -1.6057  0.8788
 2825TIP3    H2 8482   5.797   5.763   4.620  1.7322  1.1711 -0.9977
 2826TIP3   OH2 8483   1.888   4.612   1.697 -0.0556  0.3116 -0.2131
 2826TIP3    H1 8484   1.911   4.698   1.734  0.3851  0.0244  0.1941
 2826TIP3    H2 8485   1.846   4.633   1.614  1.9343  0.8803 -1.1512
 2827TIP3   OH2 8486   1.185   4.510   3.400  1.0622 -0.1098  0.1477
 2827TIP3    H1 8487   1.267   4.551   3.428  1.4298  0.8032 -2.0419
 2827TIP3    H2 8488   1.213   4.434   3.349  0.5770  0.1874 -0.5864
 2828TIP3   OH2 8489   3.468   5.834   4.145  0.0376  0.1657  0.2689
 2828TIP3    H1 8490   3.535   5.775   4.180 -0.1950 -0.3733 -0.1847
 2828TIP3    H2 8491   3.423   5.782   4.079 -0.2305  0.8262 -0.0700
 2829TIP3   OH2 8492   4.706   3.410   3.854 -0.4454 -0.5762 -0.0450
 2829TIP3    H1 8493   4.752   3.447   3.929  1.8093 -2.5502 -0.3066
 2829TIP3    H2 8494   4.657   3.483   3.816 -0.7642  0.7223  2.6490
 2830TIP3   OH2 8495   0.180   4.419   0.879  0.0721  0.0423 -0.1373
 2830TIP3    H1 8496   0.124   4.409   0.956  0.2507  0.5462  0.0574
 2830TIP3    H2 8497   0.121   4.402   0.805  0.2024 -1.7984  0.1375
 2831TIP3   OH2 8498   2.504   3.392   4.392 -0.8826  0.0351 -0.9720
 2831TIP3    H1 8499   2.538   3.480   4.404  0.3251 -0.4837 -0.4308
 2831TIP3    H2 8500   2.542   3.363   4.309  0.5809 -0.7855 -0.0501
 2832TIP3   OH2 8501   3.331   1.183   3.011 -0.5083  0.3452 -0.1433
 2832TIP3    H1 8502   3.284   1.261   3.040 -1.4669  0.0449 -0.8579
 2832TIP3    H2 8503   3.356   1.203   2.920  1.1621  0.6772  0.3508
 2833TIP3   OH2 8504   0.887   1.514   4.190  0.5533  0.1278 -0.5988
 2833TIP3    H1 8505   0.971   1.503   4.236 -0.1763 -0.8228  0.5712
 2833TIP3    H2 8506   0.861   1.604   4.211 -0.0684 -0.4732  1.4632
 2834TIP3   OH2 8507   1.142   5.023   1.049 -0.7099 -0.0674 -0.0459
 2834TIP3    H1 8508   1.078   5.043   0.980 -0.9280 -0.4203  0.0533
 2834TIP3    H2 8509   1.223   5.003   1.002 -0.5759  0.7008 -0.1630
 2835TIP3   OH2 8510   2.358   5.278   1.398 -0.4219 -0.1350 -0.1373
 2835TIP3    H1 8511   2.437   5.309   1.355 -0.0600 -0.8653 -0.0068
 2835TIP3    H2 8512   2.362   5.317   1.485  0.2306 -0.8450  0.1612
 2836TIP3   OH2 8513   1.533   3.432   0.286 -0.8373  0.1647 -0.3070
 2836TIP3    H1 8514   1.443   3.446   0.315 -0.7743 -0.2550  0.0972
 2836TIP3    H2 8515   1.526   3.425   0.191 -1.5928 -2.2916 -0.1608
 2837TIP3   OH2 8516   1.481   1.022   1.878 -0.6982 -0.1312  0.3723
 2837TIP3    H1 8517   1.502   1.008   1.971  1.5127  1.4374  0.1769
 2837TIP3    H2 8518   1.387   1.039   1.877 -0.6572  0.4929  2.4402
 2838TIP3   OH2 8519   0.794   3.649   2.020  0.0863 -0.3053  0.5712
 2838TIP3    H1 8520   0.870   3.600   2.050 -0.6260 -0.6516  1.8951
 2838TIP3    H2 8521   0.805   3.655   1.925  1.7296 -0.3700  0.7311
 2839TIP3   OH2 8522   3.871   4.904   0.450 -0.9392  0.2283 -0.2611
 2839TIP3    H1 8523   3.933   4.845   0.408 -0.5243  0.9172 -0.6173
 2839TIP3    H2 8524   3.902   4.992   0.429 -0.7695  0.5956  1.4104
 2840TIP3   OH2 8525   6.334   1.038   4.538 -0.0261 -0.8788  0.0039
 2840TIP3    H1 8526   6.411   1.088   4.564 -0.7779 -0.9385  2.5585
 2840TIP3    H2 8527   6.260   1.084   4.577 -1.4162 -0.6314 -2.6489
 2841TIP3   OH2 8528   2.548   0.445   3.129 -0.2358  0.3040 -0.2252
 2841TIP3    H1 8529   2.473   0.462   3.186 -0.7755 -0.9132 -0.5350
 2841TIP3    H2 8530   2.514   0.458   3.041 -0.3115 -0.9920 -0.4018
 2842TIP3   OH2 8531   0.106   2.522   3.273 -0.0806 -0.2442 -0.3297
 2842TIP3    H1 8532   0.047   2.521   3.349 -0.4084  0.7295 -0.5632
 2842TIP3    H2 8533   0.184   2.567   3.303 -0.1193 -0.0600 -0.5045
 2843TIP3   OH2 8534   5.738   4.729   4.495 -0.4946 -0.3721  0.8482
 2843TIP3    H1 8535   5.798   4.657   4.479 -1.6878 -1.1456 -0.2484
 2843TIP3    H2 8536   5.685   4.700   4.570 -0.7657 -0.5024  0.6064
 2844TIP3   OH2 8537   0.025   0.107   2.949 -0.7578 -0.3560  0.0635
 2844TIP3    H1 8538  -0.009   0.160   2.877 -1.7145  1.6439  1.9203
 2844TIP3    H2 8539   0.110   0.145   2.969 -0.2685 -1.2246 -0.2795
 2845TIP3   OH2 8540   1.781   1.222   3.222  0.2039 -0.1553  0.3533
 2845TIP3    H1 8541   1.731   1.248   3.144 -0.9443 -1.7148  0.5025
 2845TIP3    H2 8542   1.735   1.264   3.295 -0.1666 -0.5836  0.3762
 2846TIP3   OH2 8543   1.444   2.481   2.112 -0.6760 -0.1105  0.1128
 2846TIP3    H1 8544   1.529   2.521   2.096 -0.1862 -1.0236  0.3979
 2846TIP3    H2 8545   1.426   2.432   2.032 -0.8933 -0.0095  0.0981
 2847TIP3   OH2 8546   3.247   4.117   0.152 -0.0652 -0.3669 -0.6485
 2847TIP3    H1 8547   3.152   4.122   0.160 -0.0822 -1.4381  0.1107
 2847TIP3    H2 8548   3.262   4.078   0.066 -0.3328 -0.4850 -0.6433
 2848TIP3   OH2 8549   1.723   5.416   0.884  0.0803  0.0682  0.1204
 2848TIP3    H1 8550   1.793   5.437   0.946 -0.2214  1.8487 -0.0751
 2848TIP3    H2 8551   1.643   5.451   0.925 -0.2523  0.5070 -0.8795
 2849TIP3   OH2 8552   3.846   3.300   4.211  0.3720 -0.5220 -0.1045
 2849TIP3    H1 8553   3.874   3.277   4.122  0.3200  0.6442 -0.4336
 2849TIP3    H2 8554   3.768   3.246   4.225  0.2985 -0.6123 -0.8173
 2850TIP3   OH2 8555   4.186   4.946   1.283  0.2317  0.7795 -0.0147
 2850TIP3    H1 8556   4.270   4.991   1.291  0.4045  0.9372 -2.0540
 2850TIP3    H2 8557   4.122   5.017   1.273 -0.1810  0.6628  1.5939
 2851TIP3   OH2 8558   5.017   1.862   4.889 -0.2581  0.0317  0.3515
 2851TIP3    H1 8559   5.015   1.830   4.979  0.2739 -2.3432 -0.3939
 2851TIP3    H2 8560   4.931   1.841   4.854 -0.5182  1.0956  0.3388
 2852TIP3   OH2 8561   0.163   2.138   4.924  0.2732 -0.6035  0.4743
 2852TIP3    H1 8562   0.208   2.151   5.007  1.0854 -2.8040  0.4569
 2852TIP3    H2 8563   0.210   2.192   4.861  0.1043  0.5118  1.2866
 2853TIP3   OH2 8564   5.379   1.648   2.035 -0.1038  0.1989  0.0814
 2853TIP3    H1 8565   5.379   1.741   2.015 -0.3779  0.1829 -0.0027
 2853TIP3    H2 8566   5.299   1.634   2.087 -0.3593 -0.0853 -0.3805
 2854TIP3   OH2 8567   4.861   1.520   1.402  0.8291 -0.6208  0.6876
 2854TIP3    H1 8568   4.856   1.570   1.484 -0.6736 -1.3765  1.0997
 2854TIP3    H2 8569   4.948   1.481   1.403  0.7829 -0.7440  2.0279
 2855TIP3   OH2 8570   0.063   5.488   4.738 -0.3817  0.6486  0.4709
 2855TIP3    H1 8571   0.019   5.507   4.655 -1.3668 -2.1558  0.2589
 2855TIP3    H2 8572   0.156   5.495   4.718 -0.5759 -0.7426 -1.1417
 2856TIP3   OH2 8573   1.687   4.426   4.822  0.8163  0.0036 -0.1595
 2856TIP3    H1 8574   1.691   4.503   4.765 -0.6010  0.0779 -0.1853
 2856TIP3    H2 8575   1.623   4.448   4.889 -0.4922 -1.5470 -0.8249
 2857TIP3   OH2 8576   5.062   1.007   0.293  0.8529  0.1414 -0.0511
 2857TIP3    H1 8577   5.138   0.989   0.236  0.6334 -0.0335 -0.2906
 2857TIP3    H2 8578   4.998   0.941   0.268  0.3991  0.6571 -0.2586
 2858TIP3   OH2 8579   4.750   5.739   1.191  0.2204 -0.9320  0.7198
 2858TIP3    H1 8580   4.845   5.728   1.195  0.5884  1.6026  0.6689
 2858TIP3    H2 8581   4.736   5.791   1.111 -0.7496  1.9201  2.5967
 2859TIP3   OH2 8582   0.071   5.845   1.907  0.0838  0.0012  0.2937
 2859TIP3    H1 8583   0.094   5.880   1.993  0.9866  0.4844 -0.1414
 2859TIP3    H2 8584   0.111   5.905   1.845  1.3827 -1.5983 -0.4690
 2860TIP3   OH2 8585   2.777   4.117   0.716 -0.3383  0.4256 -0.5431
 2860TIP3    H1 8586   2.782   4.213   0.724 -1.2181  0.5089 -0.8360
 2860TIP3    H2 8587   2.757   4.102   0.623  0.3174 -0.0778 -0.6148
 2861TIP3   OH2 8588   6.260   1.564   4.195 -0.2365  0.3619 -0.3306
 2861TIP3    H1 8589   6.328   1.514   4.240 -1.1205 -0.0292  0.6123
 2861TIP3    H2 8590   6.285   1.561   4.102 -0.6563 -2.5697 -0.4469
 2862TIP3   OH2 8591   4.520   5.107   3.332  0.0491  0.1492  0.4304
 2862TIP3    H1 8592   4.590   5.049   3.304 -0.0158 -0.4214  1.4177
 2862TIP3    H2 8593   4.446   5.050   3.350 -0.1378  0.5737  1.0457
 2863TIP3   OH2 8594   4.036   4.694   4.048  0.1069 -0.0763 -0.5812
 2863TIP3    H1 8595   4.026   4.613   3.997  1.2998  0.5301 -1.8352
 2863TIP3    H2 8596   3.948   4.731   4.052 -0.1361 -0.5295 -1.5554
 2864TIP3   OH2 8597   6.228   2.613   1.620 -0.8955  0.3608 -0.0769
 2864TIP3    H1 8598   6.226   2.518   1.617 -0.4339  0.3010  0.9485
 2864TIP3    H2 8599   6.320   2.635   1.637 -0.5634  1.0956 -2.3949
 2865TIP3   OH2 8600   5.105   2.498   1.616  0.1420 -0.5931  0.1009
 2865TIP3    H1 8601   5.093   2.404   1.634  0.0187 -0.2968  1.7191
 2865TIP3    H2 8602   5.140   2.534   1.697 -2.0989  1.1823  0.4121
 2866TIP3   OH2 8603   0.679   3.594   1.524  0.1637 -0.2659 -0.4860
 2866TIP3    H1 8604   0.630   3.661   1.477  1.3907 -0.0045 -1.4553
 2866TIP3    H2 8605   0.636   3.587   1.609 -1.2324  0.2819 -1.1243
 2867TIP3   OH2 8606   2.706   4.729   4.907  0.2170 -0.2901 -0.3377
 2867TIP3    H1 8607   2.677   4.795   4.970 -0.0578 -0.4807 -0.2618
 2867TIP3    H2 8608   2.793   4.703   4.938 -0.7741 -1.9832  1.2669
 2868TIP3   OH2 8609   2.529   1.833   5.004 -0.0061 -0.6055  0.3885
 2868TIP3    H1 8610   2.624   1.820   5.002 -0.3170 -3.3710 -1.1945
 2868TIP3    H2 8611   2.494   1.751   5.039 -1.8526  0.2508  0.6760
 2869TIP3   OH2 8612   0.109   2.978   0.445  0.7392 -0.5327 -0.2428
 2869TIP3    H1 8613   0.016   2.956   0.442  0.7080 -0.3664 -0.6947
 2869TIP3    H2 8614   0.110   3.074   0.446  0.8768 -0.5294  1.5041
 2870TIP3   OH2 8615   4.113   2.110   3.074  0.6451 -0.2929  0.2102
 2870TIP3    H1 8616   4.022   2.089   3.095  0.9423  0.3933  2.4802
 2870TIP3    H2 8617   4.155   2.025   3.061  0.4993 -0.9283  3.1896
 2871TIP3   OH2 8618   0.322   5.292   4.603  0.0658 -0.2399  0.0697
 2871TIP3    H1 8619   0.346   5.318   4.692  2.4808 -0.3568 -0.4689
 2871TIP3    H2 8620   0.341   5.369   4.549 -0.3442 -0.5239 -0.4933
 2872TIP3   OH2 8621   1.542   4.146   3.977  0.4374  0.6448 -0.2121
 2872TIP3    H1 8622   1.612   4.082   3.994 -0.5615 -0.7769 -1.1938
 2872TIP3    H2 8623   1.560   4.178   3.889  0.9492  1.7664  0.2906
 2873TIP3   OH2 8624   2.205   0.370   4.102  0.6508  0.1510  0.4734
 2873TIP3    H1 8625   2.217   0.444   4.162  2.0803 -0.3432  0.8258
 2873TIP3    H2 8626   2.273   0.308   4.127 -0.9804 -1.6486  0.7014
 2874TIP3   OH2 8627   3.346   5.296   2.281 -0.3003  0.6480 -0.1973
 2874TIP3    H1 8628   3.432   5.297   2.323 -0.0164  0.6816 -0.7619
 2874TIP3    H2 8629   3.361   5.336   2.195 -1.3173  2.6755  0.5006
 2875TIP3   OH2 8630   4.126   3.753   1.198  0.0436 -0.3422  0.3281
 2875TIP3    H1 8631   4.047   3.786   1.241  1.3998  1.3775  1.6398
 2875TIP3    H2 8632   4.095   3.680   1.144 -2.3614  0.0228  1.0931
 2876TIP3   OH2 8633   5.424   1.677   0.382  0.4669  0.4411  0.6479
 2876TIP3    H1 8634   5.480   1.697   0.457  2.0159 -0.1882 -0.2998
 2876TIP3    H2 8635   5.478   1.697   0.305 -0.9175  0.6211 -0.3171
 2877TIP3   OH2 8636   0.280   5.711   0.097 -0.4251  0.4962 -0.5500
 2877TIP3    H1 8637   0.225   5.633   0.085  1.5604 -1.1343  0.3688
 2877TIP3    H2 8638   0.266   5.762   0.017 -2.0242 -0.6301 -1.0443
 2878TIP3   OH2 8639   3.852   0.446   1.009  0.6526 -0.7690  0.0717
 2878TIP3    H1 8640   3.803   0.528   1.000 -0.4807 -1.3130  0.9356
 2878TIP3    H2 8641   3.858   0.433   1.104  2.7215 -0.6104 -0.0049
 2879TIP3   OH2 8642   3.117   2.705   2.201 -0.2942  0.6819 -0.2661
 2879TIP3    H1 8643   3.134   2.620   2.160 -1.4624  0.0942  0.4112
 2879TIP3    H2 8644   3.202   2.750   2.200  0.1100 -0.0357 -1.6315
 2880TIP3   OH2 8645   6.264   0.919   5.068 -0.1532 -0.5790 -0.9559
 2880TIP3    H1 8646   6.188   0.978   5.067 -1.2826 -1.9543 -0.7983
 2880TIP3    H2 8647   6.248   0.862   5.144  2.1006  0.3820  0.3129
 2881TIP3   OH2 8648   0.996   0.169   4.182 -0.4489 -0.3910  0.2539
 2881TIP3    H1 8649   1.006   0.093   4.125 -0.1361 -0.0363 -0.1718
 2881TIP3    H2 8650   1.077   0.218   4.171 -1.7351  1.4684 -1.6636
 2882TIP3   OH2 8651   0.541   4.001   1.232  0.2343  0.2024  0.7259
 2882TIP3    H1 8652   0.505   4.075   1.182 -0.5266  0.2093  1.2726
 2882TIP3    H2 8653   0.559   3.934   1.166  0.2771  0.6203  0.3099
 2883TIP3   OH2 8654   6.105   2.499   4.261  0.3160 -0.0653  0.2107
 2883TIP3    H1 8655   6.188   2.540   4.286  1.3023 -1.5923 -0.3728
 2883TIP3    H2 8656   6.101   2.419   4.315  0.5168 -1.3244 -1.5542
 2884TIP3   OH2 8657   1.285   4.248   3.882 -0.1992  0.5097 -0.1387
 2884TIP3    H1 8658   1.191   4.251   3.898 -0.3847  1.3733 -1.2841
 2884TIP3    H2 8659   1.321   4.202   3.958 -1.6737 -1.0550 -0.3369
 2885TIP3   OH2 8660   4.925   1.610   0.780  0.7001  0.2771  0.0321
 2885TIP3    H1 8661   4.838   1.570   0.783  0.6995  0.3299  0.9893
 2885TIP3    H2 8662   4.908   1.703   0.765  0.6115  0.2373 -0.1173
 2886TIP3   OH2 8663   4.949   1.548   4.051  0.5095  0.0418 -0.6351
 2886TIP3    H1 8664   4.897   1.562   3.972  0.9606  1.7792 -0.6649
 2886TIP3    H2 8665   4.930   1.624   4.106  1.0420 -0.5950  0.4637
 2887TIP3   OH2 8666   0.470   5.416   3.745 -0.3270 -0.5418  0.2655
 2887TIP3    H1 8667   0.482   5.326   3.778  0.2546 -0.7332 -0.4342
 2887TIP3    H2 8668   0.389   5.413   3.696 -0.8459 -0.4231  1.0955
 2888TIP3   OH2 8669   1.199   5.310   1.062  0.3314  0.1753  0.2587
 2888TIP3    H1 8670   1.219   5.241   1.125  1.0149  0.0279 -0.1082
 2888TIP3    H2 8671   1.105   5.304   1.048  0.1498  0.2903  1.3549
 2889TIP3   OH2 8672   5.476   1.049   1.404  0.1689  0.3980  0.0750
 2889TIP3    H1 8673   5.415   1.003   1.346  1.6480  0.0106 -1.2612
 2889TIP3    H2 8674   5.501   0.985   1.470  0.1306  0.1378 -0.1622
 2890TIP3   OH2 8675   4.915   4.518   3.398 -0.5188 -0.4378 -0.0535
 2890TIP3    H1 8676   4.940   4.432   3.366  1.7666  0.2050 -0.1551
 2890TIP3    H2 8677   4.877   4.563   3.322  2.1883  0.0599 -1.2412
 2891TIP3   OH2 8678   1.451   5.489   1.022  0.0548  0.1498 -0.2861
 2891TIP3    H1 8679   1.496   5.436   1.088 -0.6491  0.0885  0.1556
 2891TIP3    H2 8680   1.365   5.447   1.013  0.6134 -0.6857 -2.2557
 2892TIP3   OH2 8681   1.939   4.237   4.304  0.2386  0.3116  0.5816
 2892TIP3    H1 8682   2.032   4.255   4.317  0.1245  0.5891  1.0077
 2892TIP3    H2 8683   1.894   4.316   4.333 -0.1476  0.0753  0.6362
 2893TIP3   OH2 8684   4.049   2.072   1.714 -0.2041 -0.3335  0.4010
 2893TIP3    H1 8685   4.025   2.002   1.775 -2.3742 -0.2912 -0.2948
 2893TIP3    H2 8686   4.143   2.083   1.725 -0.3455 -1.0805  2.9197
 2894TIP3   OH2 8687   4.059   0.603   1.373 -0.3265 -0.3275  0.1664
 2894TIP3    H1 8688   3.997   0.536   1.343  0.1294  0.0671 -1.8027
 2894TIP3    H2 8689   4.051   0.673   1.308 -1.0108  1.7231  2.3302
 2895TIP3   OH2 8690   1.200   1.357   0.135  0.0115 -0.1137  0.0608
 2895TIP3    H1 8691   1.246   1.308   0.202 -0.6831  0.5309  1.0339
 2895TIP3    H2 8692   1.145   1.292   0.091 -1.6840 -0.0948  2.0091
 2896TIP3   OH2 8693   6.306   0.916   1.724 -0.0059 -0.0671  0.1321
 2896TIP3    H1 8694   6.384   0.866   1.700  0.3084 -0.5898  2.0373
 2896TIP3    H2 8695   6.256   0.922   1.643  0.4428 -2.6041 -0.4355
 2897TIP3   OH2 8696   5.794   1.772   2.307  0.1788  0.1707  0.4523
 2897TIP3    H1 8697   5.768   1.806   2.221 -2.0318  1.6230  1.6152
 2897TIP3    H2 8698   5.890   1.782   2.308  0.3608 -0.4677 -2.0277
 2898TIP3   OH2 8699   2.897   0.227   3.973 -0.1345 -0.2493  0.0473
 2898TIP3    H1 8700   2.926   0.232   4.065 -1.9362 -0.3045  0.6555
 2898TIP3    H2 8701   2.851   0.144   3.967 -0.5290  0.0162 -0.7680
 2899TIP3   OH2 8702   2.352   3.440   0.841 -0.3109  0.1543 -0.3214
 2899TIP3    H1 8703   2.440   3.442   0.878 -0.8634  0.3033  1.0375
 2899TIP3    H2 8704   2.297   3.404   0.910 -1.5353  1.3031 -0.6418
 2900TIP3   OH2 8705   2.435   0.723   4.700 -0.2780 -0.0138  0.3168
 2900TIP3    H1 8706   2.469   0.802   4.740 -0.9746  1.3580 -1.6745
 2900TIP3    H2 8707   2.404   0.750   4.614 -1.1466 -2.3215 -0.1819
 2901TIP3   OH2 8708   5.384   4.738   0.998 -0.5345  0.1107 -0.0848
 2901TIP3    H1 8709   5.325   4.685   1.052  2.3346 -1.4353  1.7671
 2901TIP3    H2 8710   5.384   4.694   0.913  0.8683 -2.3031  1.0707
 2902TIP3   OH2 8711   0.720   3.695   0.136  0.1885  0.2676  0.4244
 2902TIP3    H1 8712   0.812   3.670   0.141  0.0637 -0.5342 -0.9390
 2902TIP3    H2 8713   0.702   3.706   0.043 -1.2692 -0.2465  0.6139
 2903TIP3   OH2 8714   4.626   4.239   2.788  0.0056 -0.0368  0.2150
 2903TIP3    H1 8715   4.638   4.209   2.877 -2.0265  0.8786  0.8768
 2903TIP3    H2 8716   4.701   4.205   2.740  0.2052 -2.1190  1.8559
 2904TIP3   OH2 8717   5.499   1.760   4.942  0.1527  0.1833 -0.3572
 2904TIP3    H1 8718   5.585   1.791   4.968  0.0244  0.4312 -0.2260
 2904TIP3    H2 8719   5.468   1.824   4.879  0.2628 -0.1620 -0.7689
 2905TIP3   OH2 8720   1.859   1.001   3.368  0.6269 -0.0446 -0.6736
 2905TIP3    H1 8721   1.866   0.924   3.310 -3.3026 -0.0085 -1.4943
 2905TIP3    H2 8722   1.846   1.075   3.308  0.5383  0.6385  0.1764
 2906TIP3   OH2 8723   3.063   1.293   2.974  0.3339  0.0772  0.0704
 2906TIP3    H1 8724   2.987   1.279   3.031 -0.1799 -0.1521 -0.6567
 2906TIP3    H2 8725   3.079   1.387   2.979 -1.6981  0.6181 -1.8326
 2907TIP3   OH2 8726   0.337   5.551   3.168 -0.1162 -0.0997 -0.3658
 2907TIP3    H1 8727   0.332   5.458   3.189  0.2806 -0.0154  0.1338
 2907TIP3    H2 8728   0.348   5.594   3.253  1.7671  0.2363 -0.7280
 2908TIP3   OH2 8729   6.099   5.560   2.340 -0.1280  0.0821 -0.2726
 2908TIP3    H1 8730   6.142   5.592   2.260 -1.0971  0.7244 -0.5543
 2908TIP3    H2 8731   6.052   5.636   2.374 -1.1871 -0.6454 -0.0695
 2909TIP3   OH2 8732   3.614   3.133   1.576 -0.6072  0.0534  0.3533
 2909TIP3    H1 8733   3.584   3.049   1.543  1.3125 -0.1341 -1.1061
 2909TIP3    H2 8734   3.708   3.122   1.589 -0.4328  1.7610  0.8181
 2910TIP3   OH2 8735   2.480   2.874   2.228 -0.7430 -0.4898  0.4925
 2910TIP3    H1 8736   2.536   2.797   2.239 -1.4052 -0.9484  0.6612
 2910TIP3    H2 8737   2.529   2.930   2.167  0.3082 -0.4939  1.2965
 2911TIP3   OH2 8738   0.939   5.050   0.861  0.6875 -0.0555  0.2010
 2911TIP3    H1 8739   0.892   4.976   0.899 -0.2878 -1.8370 -3.8791
 2911TIP3    H2 8740   0.871   5.104   0.820  1.5315  2.4538  1.8563
 2912TIP3   OH2 8741   5.231   2.758   2.845  0.4447 -0.7214 -0.1295
 2912TIP3    H1 8742   5.262   2.668   2.836  0.4115 -0.7238 -0.2224
 2912TIP3    H2 8743   5.139   2.754   2.821  1.1914 -0.0690 -3.7196
 2913TIP3   OH2 8744   3.907   2.590   2.229 -0.0299 -0.4615  0.1715
 2913TIP3    H1 8745   3.883   2.513   2.177  1.3587  0.7912 -2.5036
 2913TIP3    H2 8746   3.952   2.554   2.306 -0.7905 -2.3496 -0.2091
 2914TIP3   OH2 8747   2.148   1.137   1.172  0.4214 -0.1661 -0.2781
 2914TIP3    H1 8748   2.231   1.092   1.153 -0.5248 -1.6346 -1.1690
 2914TIP3    H2 8749   2.083   1.087   1.123 -0.9027  1.3820 -0.1486
 2915TIP3   OH2 8750   1.754   5.974   0.057  0.5488 -0.3105  0.2194
 2915TIP3    H1 8751   1.661   5.953   0.069  0.5989 -0.0533  1.0500
 2915TIP3    H2 8752   1.775   5.934  -0.028  0.0980 -1.8227  0.7724
 2916TIP3   OH2 8753   6.205   2.850   3.010 -0.0726  0.0455 -0.0789
 2916TIP3    H1 8754   6.275   2.911   2.986  1.4743 -1.5679  0.1344
 2916TIP3    H2 8755   6.211   2.781   2.944 -1.0536 -0.4358  0.3300
 2917TIP3   OH2 8756   3.793   2.906   4.409 -0.2314 -0.6446  0.2474
 2917TIP3    H1 8757   3.849   2.874   4.479  1.8798  0.4524 -0.8688
 2917TIP3    H2 8758   3.767   2.827   4.361 -2.4438 -1.5297  2.6574
 2918TIP3   OH2 8759   1.482   1.668   1.929 -0.5001  0.2562 -0.3131
 2918TIP3    H1 8760   1.510   1.577   1.920  0.7008  0.6742 -1.1338
 2918TIP3    H2 8761   1.388   1.663   1.949  0.0163 -1.2136  2.0944
 2919TIP3   OH2 8762   6.285   4.224   4.750 -0.2988 -0.0910 -0.2761
 2919TIP3    H1 8763   6.248   4.136   4.736  2.7469 -1.5518 -0.0724
 2919TIP3    H2 8764   6.379   4.209   4.755  0.1833  2.9090  2.3687
 2920TIP3   OH2 8765   2.482   0.872   0.567  0.3825 -0.1730  0.2145
 2920TIP3    H1 8766   2.501   0.828   0.650  0.5180 -0.8683 -0.1717
 2920TIP3    H2 8767   2.556   0.931   0.553 -0.9041  1.9659  1.8783
 2921TIP3   OH2 8768   1.791   4.961   4.407  0.8474  0.0601  0.1353
 2921TIP3    H1 8769   1.853   4.954   4.479 -0.1873 -0.1190  1.0271
 2921TIP3    H2 8770   1.810   4.885   4.352  2.1698  0.6222 -0.2310
 2922TIP3   OH2 8771   2.216   2.391   3.612 -0.0672 -0.0838  0.0667
 2922TIP3    H1 8772   2.139   2.448   3.605  0.0428 -0.1067 -2.3134
 2922TIP3    H2 8773   2.181   2.302   3.608 -0.0457 -0.1376  1.0009
 2923TIP3   OH2 8774   0.546   2.512   4.493 -0.0410 -0.5230 -1.0214
 2923TIP3    H1 8775   0.580   2.582   4.548 -2.0824  0.8766 -1.4204
 2923TIP3    H2 8776   0.519   2.443   4.554  2.0918 -1.0828 -0.6352
 2924TIP3   OH2 8777   2.327   2.209   0.075 -1.1454 -0.1201 -0.5654
 2924TIP3    H1 8778   2.377   2.285   0.106 -0.8321 -1.1380  1.6780
 2924TIP3    H2 8779   2.338   2.210  -0.020  0.1189  1.7535 -0.4647
 2925TIP3   OH2 8780   5.919   5.928   3.366  1.0535  0.0065  0.3776
 2925TIP3    H1 8781   5.929   5.897   3.277 -0.1133  1.2263 -0.2151
 2925TIP3    H2 8782   5.866   5.861   3.409 -1.8426  1.2341 -1.0110
 2926TIP3   OH2 8783   0.799   3.869   4.489 -0.3232 -0.0452 -0.1687
 2926TIP3    H1 8784   0.881   3.823   4.506 -0.5488 -0.4785 -0.2346
 2926TIP3    H2 8785   0.797   3.938   4.555  0.3795  0.3558 -0.5523
 2927TIP3   OH2 8786   0.200   3.516   2.073 -0.2764  0.5785  0.3541
 2927TIP3    H1 8787   0.244   3.447   2.023 -1.2048  0.8979 -0.9444
 2927TIP3    H2 8788   0.176   3.475   2.156  3.3009  0.6336  1.6215
 2928TIP3   OH2 8789   2.554   0.587   3.740 -0.2907  0.3401  0.0323
 2928TIP3    H1 8790   2.634   0.628   3.709  0.0064  1.4883  2.1188
 2928TIP3    H2 8791   2.585   0.524   3.806 -1.0706  0.4012  0.4582
 2929TIP3   OH2 8792   0.401   5.964   1.560 -0.3745  0.0495  0.1579
 2929TIP3    H1 8793   0.332   6.007   1.610 -0.6390  1.4309 -1.3198
 2929TIP3    H2 8794   0.361   5.882   1.531 -1.0435  0.3569  0.1822
 2930TIP3   OH2 8795   0.144   2.037   1.982 -0.5840 -0.0479  0.6702
 2930TIP3    H1 8796   0.159   1.945   2.003 -1.1361  0.0054  1.3428
 2930TIP3    H2 8797   0.179   2.048   1.894 -1.0518 -1.0468  0.3437
 2931TIP3   OH2 8798   2.089   4.574   4.134 -0.4429  0.1450 -0.0438
 2931TIP3    H1 8799   2.034   4.556   4.058  0.1576 -0.9747 -0.2465
 2931TIP3    H2 8800   2.176   4.589   4.098 -0.1109 -0.5886  0.4129
 2932TIP3   OH2 8801   2.930   3.355   0.900 -0.1999 -0.1424  0.0943
 2932TIP3    H1 8802   3.013   3.403   0.898 -0.2008 -0.1650 -1.3634
 2932TIP3    H2 8803   2.895   3.363   0.811 -1.4104 -0.7534  0.4888
 2933TIP3   OH2 8804   5.223   2.362   2.350  0.0525  0.5376 -0.4112
 2933TIP3    H1 8805   5.191   2.444   2.313 -1.2766  0.3404  0.2404
 2933TIP3    H2 8806   5.146   2.305   2.353  0.9757 -0.7877 -0.9650
 2934TIP3   OH2 8807   4.009   4.194   2.885 -0.0405 -0.2358 -0.5848
 2934TIP3    H1 8808   3.994   4.287   2.867  1.4140  0.3859  1.1187
 2934TIP3    H2 8809   3.935   4.169   2.941  0.3584  0.3357  0.2179
 2935TIP3   OH2 8810   3.180   2.772   1.347 -0.1057 -0.2838  0.3188
 2935TIP3    H1 8811   3.097   2.785   1.392 -0.8792  0.7305 -1.2910
 2935TIP3    H2 8812   3.194   2.677   1.346 -0.0255 -0.3428  2.6450
 2936TIP3   OH2 8813   1.661   1.703   0.178 -0.1972 -0.1044  0.0842
 2936TIP3    H1 8814   1.605   1.777   0.154 -0.2963 -0.4286 -0.7120
 2936TIP3    H2 8815   1.667   1.707   0.273 -0.5103  0.7053  0.0748
 2937TIP3   OH2 8816   1.701   3.997   3.578  0.8625  0.2247  0.3922
 2937TIP3    H1 8817   1.615   4.013   3.539  1.0447  0.4709  0.0817
 2937TIP3    H2 8818   1.750   3.950   3.509  0.8581 -0.2462  0.7027
 2938TIP3   OH2 8819   3.376   3.505   3.128 -0.0180  0.1579  0.0208
 2938TIP3    H1 8820   3.452   3.453   3.153  1.5495  1.9634 -0.7253
 2938TIP3    H2 8821   3.359   3.561   3.203  0.5025  0.9529 -0.4384
 2939TIP3   OH2 8822   3.011   3.678   3.402  0.5805  0.1377 -0.3401
 2939TIP3    H1 8823   3.060   3.599   3.421 -2.3760 -1.8178 -0.2057
 2939TIP3    H2 8824   2.951   3.687   3.476 -1.0463  0.8855 -1.6810
 2940TIP3   OH2 8825   2.088   2.366   5.126 -0.1425 -0.0492  0.3763
 2940TIP3    H1 8826   2.097   2.291   5.185 -0.2987 -0.7322 -0.4317
 2940TIP3    H2 8827   1.996   2.392   5.134 -0.4349 -0.8111 -0.3202
 2941TIP3   OH2 8828   3.739   5.686   4.730  0.4072  0.6865  0.5160
 2941TIP3    H1 8829   3.701   5.752   4.672  0.2306  1.5724  1.6050
 2941TIP3    H2 8830   3.807   5.733   4.778  1.0893 -0.2328  0.4798
 2942TIP3   OH2 8831   4.294   5.868   3.078 -0.2227 -0.0974 -0.3720
 2942TIP3    H1 8832   4.246   5.939   3.035 -0.1865 -0.4347 -0.9846
 2942TIP3    H2 8833   4.361   5.843   3.014  0.5890  0.1774  0.3569
 2943TIP3   OH2 8834   4.472   6.002   1.623  0.4995 -0.0006 -0.5157
 2943TIP3    H1 8835   4.388   5.962   1.647  1.6766 -1.5898  1.3571
 2943TIP3    H2 8836   4.534   5.966   1.687  2.8486  0.1871 -2.5429
 2944TIP3   OH2 8837   1.936   5.526   4.876  0.1872  0.4423 -0.2554
 2944TIP3    H1 8838   1.958   5.531   4.782  0.3474 -1.3996 -0.3589
 2944TIP3    H2 8839   2.020   5.508   4.918 -0.1400 -0.4832  0.0288
 2945TIP3   OH2 8840   1.863   5.794   2.787 -0.7149 -0.6080 -0.5109
 2945TIP3    H1 8841   1.910   5.856   2.731  0.1279  0.2624  1.0803
 2945TIP3    H2 8842   1.896   5.708   2.761  0.8013 -0.1092 -0.3524
 2946TIP3   OH2 8843   3.939   5.079   3.877  0.3002 -0.0225  0.0469
 2946TIP3    H1 8844   3.904   5.069   3.788  1.5394 -1.9681 -0.2843
 2946TIP3    H2 8845   4.028   5.044   3.872  1.3513  2.2194  1.4843
 2947TIP3   OH2 8846   1.943   2.057   2.770  0.8795 -0.1943  0.1564
 2947TIP3    H1 8847   1.946   2.141   2.816 -0.1757  0.2668 -0.5728
 2947TIP3    H2 8848   1.898   1.998   2.830 -0.7419  0.4779 -0.3480
 2948TIP3   OH2 8849   3.538   0.318   3.972  0.0843  0.3839  0.3600
 2948TIP3    H1 8850   3.613   0.337   4.027 -0.1913  1.4834  0.3845
 2948TIP3    H2 8851   3.516   0.402   3.931 -0.3658 -0.1831 -0.6029
 2949TIP3   OH2 8852   5.302   4.523   3.963 -0.1181  0.6202  0.6563
 2949TIP3    H1 8853   5.368   4.585   3.993  0.4812  1.8279 -2.6491
 2949TIP3    H2 8854   5.250   4.573   3.899 -1.5906 -1.4484  0.1274
 2950TIP3   OH2 8855   4.253   4.680   4.248  0.5170 -0.1933 -0.1977
 2950TIP3    H1 8856   4.215   4.666   4.334 -1.3877  2.7324 -0.4172
 2950TIP3    H2 8857   4.180   4.668   4.187  1.1619  0.4767 -1.1319
 2951TIP3   OH2 8858   4.903   0.246   0.262  0.6583 -0.5352 -0.0991
 2951TIP3    H1 8859   4.863   0.318   0.214 -0.5349 -0.1776  1.3575
 2951TIP3    H2 8860   4.891   0.170   0.206  0.4801  0.0985 -0.9365
 2952TIP3   OH2 8861   1.881   3.132   0.371  0.1912  0.3180  0.3527
 2952TIP3    H1 8862   1.885   3.053   0.318 -1.2458  0.9585 -0.7969
 2952TIP3    H2 8863   1.871   3.101   0.461 -0.1676 -0.8189 -0.0656
 2953TIP3   OH2 8864   1.556   3.508   2.948 -0.0023  0.5445  0.1543
 2953TIP3    H1 8865   1.603   3.450   2.889 -0.1653  1.9412 -1.4107
 2953TIP3    H2 8866   1.467   3.472   2.953 -0.2345  0.8962 -1.1824
 2954TIP3   OH2 8867   1.162   3.902   4.750 -0.7554  0.3678 -0.2889
 2954TIP3    H1 8868   1.176   3.960   4.674  0.8227  0.2769 -0.1076
 2954TIP3    H2 8869   1.106   3.953   4.808 -0.6757  1.0835 -0.8167
 2955TIP3   OH2 8870   0.046   5.581   5.107  0.2247 -0.2516 -0.7725
 2955TIP3    H1 8871  -0.034   5.566   5.056  0.3591 -0.1393 -1.0201
 2955TIP3    H2 8872   0.103   5.630   5.047  1.0299 -1.5603 -1.1198
 2956TIP3   OH2 8873   0.690   4.070   2.034  0.0727  0.0040  0.6730
 2956TIP3    H1 8874   0.652   4.045   2.119 -0.1112  0.0885  0.6151
 2956TIP3    H2 8875   0.778   4.032   2.036  0.1356  0.1626  0.9792
 2957TIP3   OH2 8876   3.120   2.226   0.595  0.1912 -0.8702 -0.2878
 2957TIP3    H1 8877   3.186   2.269   0.648 -1.3684  1.2439  0.0493
 2957TIP3    H2 8878   3.170   2.169   0.536  2.2568  0.2847  0.2548
 2958TIP3   OH2 8879   0.506   2.454   3.591  0.1294  0.3682 -0.4279
 2958TIP3    H1 8880   0.476   2.544   3.601  0.5412  0.2956  2.1452
 2958TIP3    H2 8881   0.602   2.460   3.591  0.1669 -0.1171  0.5505
 2959TIP3   OH2 8882   2.350   0.783   2.462  0.1921 -0.0988  0.6431
 2959TIP3    H1 8883   2.263   0.771   2.500 -0.4641  0.5165 -0.6292
 2959TIP3    H2 8884   2.389   0.853   2.514 -0.9212  1.1470 -0.1338
 2960TIP3   OH2 8885   4.641   1.225   3.954 -0.0277  0.5015  0.2401
 2960TIP3    H1 8886   4.729   1.234   3.918 -0.6292  0.8214 -1.2278
 2960TIP3    H2 8887   4.639   1.286   4.028  1.6553 -1.1501  1.7300
 2961TIP3   OH2 8888   5.535   4.108   0.352  0.0236  0.3517  0.0300
 2961TIP3    H1 8889   5.474   4.138   0.285 -0.3751  1.2578  0.7760
 2961TIP3    H2 8890   5.517   4.164   0.428  0.1397 -0.9597  1.0520
 2962TIP3   OH2 8891   2.556   2.343   0.940 -0.1950 -0.0969  0.1067
 2962TIP3    H1 8892   2.603   2.320   0.860 -1.1372  0.1496 -0.5327
 2962TIP3    H2 8893   2.623   2.379   0.998  0.2856  0.9375 -1.0524
 2963TIP3   OH2 8894   0.272   0.126   4.931  0.0216  0.1999  0.5535
 2963TIP3    H1 8895   0.212   0.060   4.896  0.8344  0.1360 -0.7986
 2963TIP3    H2 8896   0.216   0.187   4.978 -1.2279  0.5087 -1.2306
 2964TIP3   OH2 8897   6.014   0.125   1.169  0.5962 -0.7770  0.0170
 2964TIP3    H1 8898   5.959   0.125   1.247  0.4736 -0.5706 -0.0705
 2964TIP3    H2 8899   5.953   0.116   1.096  0.5283  1.0258 -0.1879
 2965TIP3   OH2 8900   3.295   5.224   2.753  0.3243 -0.6258 -0.3558
 2965TIP3    H1 8901   3.216   5.249   2.706  0.4633  2.0060  0.6206
 2965TIP3    H2 8902   3.357   5.295   2.736  1.0281 -0.5335  2.1587
 2966TIP3   OH2 8903   6.325   0.610   0.335 -0.1119 -0.7743  0.1855
 2966TIP3    H1 8904   6.357   0.632   0.422  2.7839 -1.1348 -0.6719
 2966TIP3    H2 8905   6.271   0.685   0.309  1.9554  1.0850  0.9217
 2967TIP3   OH2 8906   3.248   1.144   4.255 -0.3703  0.0455 -0.0107
 2967TIP3    H1 8907   3.238   1.142   4.160 -0.9775 -1.4318  0.0686
 2967TIP3    H2 8908   3.269   1.236   4.274  0.2670  0.2715 -1.6028
 2968TIP3   OH2 8909   5.950   5.951   0.743  0.9168  0.1301 -0.1929
 2968TIP3    H1 8910   6.041   5.962   0.714  1.0096 -2.2361 -1.0307
 2968TIP3    H2 8911   5.898   5.971   0.665  0.6571  1.8917  0.4021
 2969TIP3   OH2 8912   3.609   3.202   3.472 -0.2956 -0.0812 -0.3591
 2969TIP3    H1 8913   3.693   3.248   3.476  0.0100 -0.4140 -2.0025
 2969TIP3    H2 8914   3.550   3.254   3.526  0.6479  0.8821 -0.2195
 2970TIP3   OH2 8915   5.192   0.620   0.212 -0.2028 -0.4087  0.5308
 2970TIP3    H1 8916   5.176   0.693   0.153 -3.3276 -1.3892 -0.0318
 2970TIP3    H2 8917   5.142   0.641   0.291  2.1924 -0.1202  2.0813
 2971TIP3   OH2 8918   3.821   4.762   4.890  0.2003  0.6386  0.0967
 2971TIP3    H1 8919   3.903   4.725   4.921 -0.2894  0.8906  1.7722
 2971TIP3    H2 8920   3.765   4.686   4.874  0.7941  0.4493 -1.3028
 2972TIP3   OH2 8921   4.928   1.899   1.366 -0.2441  0.1832  0.9257
 2972TIP3    H1 8922   4.852   1.954   1.344  0.0074  0.1295 -0.1064
 2972TIP3    H2 8923   4.989   1.912   1.294  0.4629 -0.2840  1.4296
 2973TIP3   OH2 8924   6.265   1.879   0.731 -0.7754 -0.2300 -0.3392
 2973TIP3    H1 8925   6.351   1.904   0.764 -0.4116 -1.4513 -0.2907
 2973TIP3    H2 8926   6.203   1.915   0.794 -0.2324 -0.2900  0.2361
 2974TIP3   OH2 8927   2.985   2.284   0.189 -0.2993  0.0273  0.0084
 2974TIP3    H1 8928   2.983   2.279   0.093 -1.9367 -0.7071  0.0566
 2974TIP3    H2 8929   3.005   2.195   0.217 -1.0353 -0.0277  0.3704
 2975TIP3   OH2 8930   3.697   1.167   4.769  0.1368 -0.5366 -0.3564
 2975TIP3    H1 8931   3.761   1.218   4.818  2.2365 -2.0800 -1.3794
 2975TIP3    H2 8932   3.702   1.079   4.807 -0.3955 -1.0100 -1.3425
 2976TIP3   OH2 8933   6.343   2.494   2.998 -0.0581 -0.0914 -0.0834
 2976TIP3    H1 8934   6.382   2.526   3.079 -0.8989  3.2153 -0.8606
 2976TIP3    H2 8935   6.269   2.441   3.027 -1.1025  2.0434  1.3916
 2977TIP3   OH2 8936   4.923   4.979   0.137  0.0498 -0.2549 -0.0146
 2977TIP3    H1 8937   4.850   5.025   0.178 -3.0123 -2.0524 -2.8975
 2977TIP3    H2 8938   4.957   5.041   0.072  0.5641  0.2837  0.7513
 2978TIP3   OH2 8939   1.400   3.986   0.137 -0.2655  0.2446 -0.6569
 2978TIP3    H1 8940   1.348   3.909   0.162  0.6911  0.3146  1.8820
 2978TIP3    H2 8941   1.336   4.056   0.128 -0.9933 -0.4964 -1.5519
 2979TIP3   OH2 8942   5.275   3.391   4.027  0.4449  0.1854 -0.3764
 2979TIP3    H1 8943   5.341   3.376   4.094 -0.1381 -0.1488  0.1354
 2979TIP3    H2 8944   5.194   3.357   4.065 -0.4076  2.2048 -0.2525
 2980TIP3   OH2 8945   3.165   3.448   5.098  0.1161  0.8671  0.1113
 2980TIP3    H1 8946   3.102   3.384   5.131  0.7763 -0.5558 -1.2695
 2980TIP3    H2 8947   3.142   3.458   5.006  0.5768  1.9719  0.1054
 2981TIP3   OH2 8948   4.174   2.198   2.527 -0.2464 -0.1849 -0.1767
 2981TIP3    H1 8949   4.268   2.189   2.546 -0.5806  1.5776  3.1710
 2981TIP3    H2 8950   4.135   2.117   2.562 -0.1817  0.2013  0.8262
 2982TIP3   OH2 8951   2.415   3.680   4.195 -0.2333  0.2718 -0.2748
 2982TIP3    H1 8952   2.397   3.766   4.233 -0.0068  0.2599 -0.1412
 2982TIP3    H2 8953   2.374   3.618   4.255  1.2543  0.1729  0.6694
 2983TIP3   OH2 8954   1.312   0.602   2.578  0.1351 -0.3330  0.3776
 2983TIP3    H1 8955   1.221   0.619   2.601 -0.3035 -1.1026 -0.6827
 2983TIP3    H2 8956   1.362   0.634   2.653 -1.0020  0.0514  1.0059
 2984TIP3   OH2 8957   0.929   1.611   3.264  0.0622 -0.9754 -0.3695
 2984TIP3    H1 8958   0.895   1.523   3.251 -1.9485 -0.4349  0.7866
 2984TIP3    H2 8959   0.986   1.604   3.341 -0.6606 -1.1531  0.1592
 2985TIP3   OH2 8960   5.252   1.864   1.512  0.4774 -0.0103 -0.4321
 2985TIP3    H1 8961   5.261   1.840   1.420  0.1610 -0.6307 -0.3044
 2985TIP3    H2 8962   5.170   1.824   1.539 -0.3510  1.6559 -0.3452
 2986TIP3   OH2 8963   1.964   4.966   4.940  0.3438 -0.1091  0.1490
 2986TIP3    H1 8964   2.019   4.896   4.905  0.2060 -0.3156  0.3375
 2986TIP3    H2 8965   2.025   5.033   4.969  0.4582  0.0987 -0.5532
 2987TIP3   OH2 8966   0.451   1.720   5.095  0.0443  0.0577  0.1524
 2987TIP3    H1 8967   0.378   1.759   5.047 -0.6491 -1.6534 -0.2392
 2987TIP3    H2 8968   0.417   1.709   5.184 -0.0649 -0.4506  0.0476
 2988TIP3   OH2 8969   0.764   0.490   0.491 -0.2281 -0.2295 -0.1462
 2988TIP3    H1 8970   0.805   0.407   0.469 -2.2839 -1.5330  0.6823
 2988TIP3    H2 8971   0.742   0.529   0.407  1.9260  0.1575 -0.5830
 2989TIP3   OH2 8972   3.764   2.845   3.344  0.0022  0.6268  0.2370
 2989TIP3    H1 8973   3.780   2.897   3.423 -0.9925  0.1463  0.7728
 2989TIP3    H2 8974   3.738   2.759   3.377 -1.6964  0.7897 -0.5850
 2990TIP3   OH2 8975   5.834   0.117   1.667  0.0014  0.2334 -0.7376
 2990TIP3    H1 8976   5.802   0.195   1.624 -1.3948 -0.7167 -1.4886
 2990TIP3    H2 8977   5.757   0.079   1.710  1.0130  0.2719  1.2731
 2991TIP3   OH2 8978   4.947   5.210   1.032 -0.1381  0.5213  0.2235
 2991TIP3    H1 8979   5.017   5.207   0.967  1.1688 -0.1925  1.6044
 2991TIP3    H2 8980   4.867   5.221   0.981  0.8089 -0.2937 -1.5106
 2992TIP3   OH2 8981   5.853   2.739   3.722  0.6528 -0.3033 -0.6622
 2992TIP3    H1 8982   5.842   2.826   3.759 -0.1521 -0.9108  0.6308
 2992TIP3    H2 8983   5.767   2.697   3.733  1.3013 -1.6008 -0.2944
 2993TIP3   OH2 8984   4.302   2.152   1.766  0.0060  0.2037  0.1157
 2993TIP3    H1 8985   4.376   2.099   1.795  0.3448  0.0380 -1.0109
 2993TIP3    H2 8986   4.306   2.230   1.821  1.2210  0.3433 -0.1474
 2994TIP3   OH2 8987   0.153   1.768   1.914 -0.9162  0.3992  0.1159
 2994TIP3    H1 8988   0.123   1.689   1.958 -0.1704 -1.7245 -2.9139
 2994TIP3    H2 8989   0.237   1.744   1.876 -2.0363  1.5240 -3.4951
 2995TIP3   OH2 8990   4.784   2.773   2.411  0.5124  0.1327  0.0815
 2995TIP3    H1 8991   4.738   2.853   2.383  0.2823 -0.4584 -1.3229
 2995TIP3    H2 8992   4.760   2.708   2.345  1.0685 -0.9768  0.9518
 2996TIP3   OH2 8993   0.584   1.725   1.398  0.0385  0.0107 -0.6203
 2996TIP3    H1 8994   0.501   1.679   1.389  1.2893 -2.3886 -0.7497
 2996TIP3    H2 8995   0.621   1.728   1.310 -0.2674  1.8740 -0.7214
 2997TIP3   OH2 8996   1.527   5.194   3.629 -0.6855 -0.1356 -0.2866
 2997TIP3    H1 8997   1.442   5.224   3.597 -0.4950  0.2084 -0.4801
 2997TIP3    H2 8998   1.583   5.194   3.552  0.2326  2.3341  0.2934
 2998TIP3   OH2 8999   4.133   5.759   2.433  0.1250 -0.1060  0.7837
 2998TIP3    H1 9000   4.207   5.759   2.373  0.4358 -0.6212  1.1642
 2998TIP3    H2 9001   4.145   5.839   2.485  0.1076  0.0983  0.4791
 2999TIP3   OH2 9002   4.219   5.817   0.867 -0.9631 -0.2981 -0.6922
 2999TIP3    H1 9003   4.257   5.814   0.780  0.4713  0.5967 -0.1394
 2999TIP3    H2 9004   4.207   5.910   0.885  1.2207 -0.2581  1.0257
 3000TIP3   OH2 9005   1.998   1.761   2.223 -0.1965 -0.0228  0.5937
 3000TIP3    H1 9006   2.062   1.832   2.222 -0.9874  0.7097  0.2343
 3000TIP3    H2 9007   1.950   1.770   2.141 -1.0084 -0.3141  1.0218
 3001TIP3   OH2 9008   6.073   5.413   4.788  0.3876 -0.3731  0.3795
 3001TIP3    H1 9009   6.115   5.435   4.705  0.5228  0.5408  0.6780
 3001TIP3    H2 9010   5.979   5.411   4.767  0.4227 -0.1764  0.2025
 3002TIP3   OH2 9011   2.033   3.796   0.263  0.0757  0.8348  0.0739
 3002TIP3    H1 9012   2.011   3.724   0.205  0.4091  1.9683 -1.5238
 3002TIP3    H2 9013   1.965   3.861   0.249 -0.7294  0.5322  2.1620
 3003TIP3   OH2 9014   4.770   2.329   4.056  0.3826 -0.0544 -0.0383
 3003TIP3    H1 9015   4.689   2.283   4.033 -0.1056 -0.0803  1.5953
 3003TIP3    H2 9016   4.838   2.262   4.047 -0.0256 -0.5153  0.2384
 3004TIP3   OH2 9017   2.478   1.472   3.925  0.4753  0.8066  0.2772
 3004TIP3    H1 9018   2.483   1.404   3.859 -1.1995  0.0579  0.8569
 3004TIP3    H2 9019   2.567   1.508   3.930  0.8074  0.3742 -1.7994
 3005TIP3   OH2 9020   6.102   1.667   0.633 -0.0580  0.1042  0.5009
 3005TIP3    H1 9021   6.114   1.664   0.538 -1.6383  0.2677  0.2695
 3005TIP3    H2 9022   6.139   1.752   0.659  0.2229  0.1363  0.0109
 3006TIP3   OH2 9023   5.076   3.983   3.553  0.2919 -0.1986  0.7473
 3006TIP3    H1 9024   5.105   3.993   3.462 -1.0994  1.0715  0.3999
 3006TIP3    H2 9025   5.067   3.888   3.565 -2.7309 -0.3759 -1.5896
 3007TIP3   OH2 9026   4.670   1.740   1.849 -0.2632  0.3129 -0.0998
 3007TIP3    H1 9027   4.756   1.727   1.888  0.0081 -0.8099 -1.0285
 3007TIP3    H2 9028   4.611   1.685   1.900 -0.2581  0.3542 -0.0496
 3008TIP3   OH2 9029   0.481   3.474   2.735  0.0655  0.4216  0.4969
 3008TIP3    H1 9030   0.488   3.388   2.776 -1.5270  0.1688  0.3025
 3008TIP3    H2 9031   0.500   3.459   2.642 -2.2345 -0.1593  0.0609
 3009TIP3   OH2 9032   0.454   1.528   2.511 -0.5952 -0.5979 -0.2263
 3009TIP3    H1 9033   0.360   1.516   2.495 -0.7242 -0.2194  0.2482
 3009TIP3    H2 9034   0.463   1.621   2.531 -0.3218 -0.9090  1.1345
 3010TIP3   OH2 9035   0.593   3.797   4.114  0.2770  0.1767 -0.4703
 3010TIP3    H1 9036   0.556   3.882   4.089  0.3094  0.2806 -0.1667
 3010TIP3    H2 9037   0.525   3.733   4.092  0.5177  0.2024 -1.3544
 3011TIP3   OH2 9038   2.008   0.210   4.201 -0.3264  0.5083  0.0795
 3011TIP3    H1 9039   1.970   0.235   4.284  1.3920 -0.1357  1.1239
 3011TIP3    H2 9040   2.062   0.285   4.175 -0.2248  0.3956 -0.0421
 3012TIP3   OH2 9041   2.370   5.312   3.450  0.6013 -0.0705 -0.1670
 3012TIP3    H1 9042   2.362   5.320   3.355  0.3628 -0.0161 -0.1438
 3012TIP3    H2 9043   2.346   5.399   3.483 -3.0363 -1.0062  0.1594
 3013TIP3   OH2 9044   5.174   3.222   4.839 -0.0369  0.5310  0.0584
 3013TIP3    H1 9045   5.142   3.267   4.917  0.9860  1.0014  0.2147
 3013TIP3    H2 9046   5.159   3.285   4.768 -1.0832  0.0555 -0.1680
 3014TIP3   OH2 9047   2.374   3.298   4.625 -0.0766 -0.1739  0.0055
 3014TIP3    H1 9048   2.313   3.369   4.643 -1.1585 -0.9530 -0.5461
 3014TIP3    H2 9049   2.434   3.334   4.559 -0.8413  0.0996 -0.5431
 3015TIP3   OH2 9050   5.625   0.633   4.744  0.1672 -0.0192 -0.3077
 3015TIP3    H1 9051   5.685   0.605   4.814 -0.0468  0.2644 -0.0080
 3015TIP3    H2 9052   5.539   0.636   4.786  0.1773  1.0263 -0.3400
 3016TIP3   OH2 9053   4.141   3.346   1.638 -0.0035  0.3316 -0.1412
 3016TIP3    H1 9054   4.156   3.267   1.691  2.0919 -0.1348 -1.3256
 3016TIP3    H2 9055   4.057   3.330   1.595 -0.4533 -0.4542  0.9596
 3017TIP3   OH2 9056   3.637   5.911   4.397  0.2979 -0.3256  0.3130
 3017TIP3    H1 9057   3.635   5.823   4.358 -0.8068  0.2081 -0.9531
 3017TIP3    H2 9058   3.551   5.947   4.376  0.8810  1.2034  0.4543
 3018TIP3   OH2 9059   2.318   4.612   3.619 -0.2541 -0.1199 -0.6299
 3018TIP3    H1 9060   2.312   4.694   3.569 -0.1402  0.8395  0.8573
 3018TIP3    H2 9061   2.229   4.578   3.621  0.0299 -1.2127 -3.0658
 3019TIP3   OH2 9062   4.529   3.096   1.845 -0.3795  0.2114  0.0717
 3019TIP3    H1 9063   4.598   3.031   1.834 -0.0484  0.4790  0.5470
 3019TIP3    H2 9064   4.562   3.174   1.800 -0.4402  0.2882  0.1595
 3020TIP3   OH2 9065   3.771   5.232   5.020 -0.5046 -0.3216  0.4768
 3020TIP3    H1 9066   3.819   5.283   4.954 -0.9613 -0.1324  0.2886
 3020TIP3    H2 9067   3.796   5.141   5.002 -0.9767 -0.3197 -0.2655
 3021TIP3   OH2 9068   1.795   4.153   1.733  0.8877 -0.2038  0.0029
 3021TIP3    H1 9069   1.731   4.082   1.733  1.4041 -0.6754  0.8991
 3021TIP3    H2 9070   1.751   4.224   1.685 -0.3432 -0.4946  0.6425
 3022TIP3   OH2 9071   4.301   3.944   1.711 -0.0168 -0.2406  0.7196
 3022TIP3    H1 9072   4.310   3.893   1.792 -0.6561 -3.2343 -0.9377
 3022TIP3    H2 9073   4.387   3.984   1.698  0.4376 -0.6391  2.2828
 3023TIP3   OH2 9074   3.955   1.095   5.146  0.1905 -0.3431 -0.3731
 3023TIP3    H1 9075   3.943   1.000   5.138  0.7508 -0.4647  0.1733
 3023TIP3    H2 9076   4.041   1.105   5.186  1.3625  0.4794 -2.9268
 3024TIP3   OH2 9077   6.087   0.716   3.562  0.5947 -0.4368 -0.6725
 3024TIP3    H1 9078   6.124   0.687   3.645  2.4118  0.7140 -1.0328
 3024TIP3    H2 9079   6.039   0.796   3.583  0.5878 -0.4473 -0.6489
 3025TIP3   OH2 9080   4.467   0.667   2.522  0.3043 -0.1421 -0.1762
 3025TIP3    H1 9081   4.415   0.618   2.586 -0.2099  0.7405  0.0878
 3025TIP3    H2 9082   4.429   0.643   2.437 -0.1485  0.0486 -0.0261
 3026TIP3   OH2 9083   3.781   1.468   5.068 -0.0728 -0.1304  0.1010
 3026TIP3    H1 9084   3.710   1.497   5.011 -0.8510 -0.4061  0.9183
 3026TIP3    H2 9085   3.755   1.381   5.096  0.4792 -0.1417  0.5899
 3027TIP3   OH2 9086   0.565   3.309   0.113  0.1786 -0.3769  0.3287
 3027TIP3    H1 9087   0.655   3.321   0.144 -0.0293 -1.5154  1.4763
 3027TIP3    H2 9088   0.573   3.248   0.039  0.5432  1.2851 -1.0601
 3028TIP3   OH2 9089   0.701   2.019   2.529 -0.1250  0.0550  0.5790
 3028TIP3    H1 9090   0.618   2.067   2.524  0.7159  1.5415  0.5945
 3028TIP3    H2 9091   0.717   2.008   2.623 -1.4426 -2.3385  0.6037
 3029TIP3   OH2 9092   2.571   3.017   2.026  0.0380 -0.4000  0.1144
 3029TIP3    H1 9093   2.624   3.084   2.069  0.6869 -0.7815 -0.0850
 3029TIP3    H2 9094   2.532   3.062   1.951  1.2447 -0.4854 -0.5799
 3030TIP3   OH2 9095   0.111   2.767   4.666 -0.3744 -0.2747  0.1344
 3030TIP3    H1 9096   0.118   2.678   4.632  0.8420 -1.4658  3.1492
 3030TIP3    H2 9097   0.200   2.800   4.666 -0.5362  0.1864  0.8222
 3031TIP3   OH2 9098   1.254   0.752   3.836 -0.1327  0.1352  0.4659
 3031TIP3    H1 9099   1.240   0.675   3.780  0.9412  1.0680 -1.1563
 3031TIP3    H2 9100   1.169   0.766   3.878 -0.6764 -1.2391 -0.1063
 3032TIP3   OH2 9101   4.199   1.054   1.350  0.2408 -0.2371 -0.1013
 3032TIP3    H1 9102   4.265   1.090   1.291 -0.9574  0.7560 -0.8968
 3032TIP3    H2 9103   4.168   0.974   1.307  1.5208 -1.2048  0.7118
 3033TIP3   OH2 9104   5.349   3.594   2.827 -0.6172 -0.5604  0.2075
 3033TIP3    H1 9105   5.269   3.601   2.774 -0.3957  0.4306 -0.0113
 3033TIP3    H2 9106   5.389   3.681   2.821 -0.2109 -0.6552  1.4041
 3034TIP3   OH2 9107   2.524   1.804   4.218  0.4382 -0.0990 -0.2033
 3034TIP3    H1 9108   2.496   1.759   4.298 -0.8022 -2.1378 -1.6853
 3034TIP3    H2 9109   2.619   1.807   4.224  0.4003 -0.9093  1.0054
 3035TIP3   OH2 9110   5.507   3.369   2.714  0.2466 -0.0614  0.8128
 3035TIP3    H1 9111   5.457   3.300   2.757 -2.3164  1.9385  1.3277
 3035TIP3    H2 9112   5.533   3.428   2.786 -0.2753  1.0589  0.1141
 3036TIP3   OH2 9113   4.257   0.716   4.429  0.4113 -0.2711  0.3919
 3036TIP3    H1 9114   4.238   0.744   4.519  1.0726  0.3442  0.3577
 3036TIP3    H2 9115   4.323   0.779   4.398 -0.6639  0.2542 -0.9294
 3037TIP3   OH2 9116   5.606   3.702   2.372 -0.1041  0.2917  0.5376
 3037TIP3    H1 9117   5.608   3.780   2.428  0.8363  1.3424 -0.8962
 3037TIP3    H2 9118   5.537   3.648   2.409  0.7825  0.7102  3.0030
 3038TIP3   OH2 9119   0.822   3.368   0.188 -0.5370 -0.3472  0.6450
 3038TIP3    H1 9120   0.865   3.453   0.184 -1.0434 -0.1005  0.3470
 3038TIP3    H2 9121   0.894   3.305   0.193 -0.1400  0.0458 -0.0423
 3039TIP3   OH2 9122   0.742   0.065   2.779 -0.0862 -0.2359 -0.0562
 3039TIP3    H1 9123   0.772   0.151   2.808  0.8894 -1.1846  1.9884
 3039TIP3    H2 9124   0.668   0.045   2.836 -0.6523 -0.5527 -0.8788
 3040TIP3   OH2 9125   1.346   3.009   1.542  0.4450  0.8316  0.3608
 3040TIP3    H1 9126   1.331   3.092   1.496  1.9834  0.7865 -0.2653
 3040TIP3    H2 9127   1.400   2.958   1.482  0.2641 -0.2889  1.1213
 3041TIP3   OH2 9128   3.660   3.644   4.381  0.3933  0.5204  0.8438
 3041TIP3    H1 9129   3.707   3.628   4.463  0.4680 -0.0902  0.6852
 3041TIP3    H2 9130   3.587   3.582   4.383  1.0067 -0.2458 -0.0384
 3042TIP3   OH2 9131   4.261   1.187   4.123 -0.2120 -0.1781  0.3789
 3042TIP3    H1 9132   4.285   1.143   4.205  0.5390 -0.8686 -0.1928
 3042TIP3    H2 9133   4.168   1.208   4.134  0.0122  0.2645  1.6308
 3043TIP3   OH2 9134   3.741   4.095   0.430 -0.1967  0.1891 -0.6031
 3043TIP3    H1 9135   3.715   4.100   0.338  0.4593  0.6014 -0.7708
 3043TIP3    H2 9136   3.680   4.155   0.474  0.7608  1.5760 -1.0779
 3044TIP3   OH2 9137   2.506   0.491   1.402 -0.6029 -0.9209 -0.1245
 3044TIP3    H1 9138   2.500   0.584   1.426  1.9281  0.0140 -2.5488
 3044TIP3    H2 9139   2.514   0.445   1.485  1.5423  1.4360  1.1176
 3045TIP3   OH2 9140   5.600   4.003   1.351 -0.7941 -0.5826  0.9261
 3045TIP3    H1 9141   5.603   4.081   1.296 -1.3891 -1.7074 -0.7830
 3045TIP3    H2 9142   5.664   3.943   1.312 -0.4590 -1.0336  2.1114
 3046TIP3   OH2 9143   1.435   4.138   1.471  0.1449 -0.0202 -0.0894
 3046TIP3    H1 9144   1.456   4.046   1.455 -0.1161  0.0723 -1.0394
 3046TIP3    H2 9145   1.476   4.158   1.556  0.1900 -1.0077  0.1334
 3047TIP3   OH2 9146   4.260   4.342   4.341  0.6994 -0.1540  0.4635
 3047TIP3    H1 9147   4.202   4.416   4.359 -2.4269 -2.1942 -0.4032
 3047TIP3    H2 9148   4.271   4.299   4.426  3.7676  1.9383  1.2881
 3048TIP3   OH2 9149   3.794   5.221   1.336  0.4619  0.3098  0.1191
 3048TIP3    H1 9150   3.741   5.271   1.273  1.4030 -0.9025 -1.7404
 3048TIP3    H2 9151   3.849   5.287   1.378 -0.0637  1.1443 -0.4632
 3049TIP3   OH2 9152   1.301   3.132   0.346  0.5154 -0.2645  0.1132
 3049TIP3    H1 9153   1.394   3.141   0.368  0.7748 -0.3779 -0.8963
 3049TIP3    H2 9154   1.267   3.222   0.350  0.6056 -0.2481  0.7022
 3050TIP3   OH2 9155   2.772   4.769   2.701  1.0972  0.2683 -0.3788
 3050TIP3    H1 9156   2.717   4.794   2.627 -1.9152 -0.2200  1.4841
 3050TIP3    H2 9157   2.810   4.685   2.675 -0.1510 -0.0532 -1.2981
 3051TIP3   OH2 9158   0.899   4.754   0.570 -0.0938 -0.1001 -0.1278
 3051TIP3    H1 9159   0.827   4.783   0.513 -0.2383 -1.1418 -0.4906
 3051TIP3    H2 9160   0.978   4.790   0.529 -0.1043 -1.5610 -1.4979
 3052TIP3   OH2 9161   3.358   5.931   2.720 -0.6590 -0.1002  1.0501
 3052TIP3    H1 9162   3.384   6.005   2.775  2.3771  0.5495 -1.0025
 3052TIP3    H2 9163   3.306   5.970   2.650 -0.8779 -0.2734  1.1127
 3053TIP3   OH2 9164   2.266   4.633   0.592 -0.7141 -0.1172 -0.7483
 3053TIP3    H1 9165   2.171   4.638   0.581 -0.4719  1.9015 -2.2830
 3053TIP3    H2 9166   2.300   4.714   0.554  1.4893  0.2708  1.7345
 3054TIP3   OH2 9167   6.256   0.818   3.124 -0.5475 -0.3298 -0.3400
 3054TIP3    H1 9168   6.199   0.742   3.111 -2.0990  0.8565 -0.9419
 3054TIP3    H2 9169   6.205   0.891   3.089  1.5277  0.7664 -1.2393
 3055TIP3   OH2 9170   4.491   3.987   3.240  0.0273  1.1061 -0.7167
 3055TIP3    H1 9171   4.564   3.988   3.177  0.0893 -0.0951 -0.6810
 3055TIP3    H2 9172   4.534   3.979   3.325 -0.1415  0.5069 -0.6882
 3056TIP3   OH2 9173   1.575   3.328   1.664  0.6062  0.7917 -0.5507
 3056TIP3    H1 9174   1.540   3.387   1.731  0.6784  0.1193  0.0849
 3056TIP3    H2 9175   1.536   3.360   1.582 -0.8346  0.5796  0.0231
 3057TIP3   OH2 9176   1.030   2.886   3.959 -0.5902 -0.6132 -0.4128
 3057TIP3    H1 9177   1.071   2.924   3.882 -0.1135 -1.5051 -0.6195
 3057TIP3    H2 9178   0.949   2.847   3.926 -1.2814  0.5332 -0.1302
 3058TIP3   OH2 9179   2.223   0.086   1.743  0.3872 -0.5494  0.4513
 3058TIP3    H1 9180   2.156   0.130   1.796 -0.4984 -0.8783 -0.3722
 3058TIP3    H2 9181   2.220   0.131   1.658 -0.4672 -2.0953 -0.3821
 3059TIP3   OH2 9182   0.211   0.837   2.725 -0.1313  0.3973 -0.1443
 3059TIP3    H1 9183   0.234   0.749   2.695  1.3344  0.9417 -0.7539
 3059TIP3    H2 9184   0.177   0.880   2.647 -1.6542  0.1516  0.3470
 3060TIP3   OH2 9185   5.148   4.243   5.047  0.1264 -0.7087 -0.2659
 3060TIP3    H1 9186   5.223   4.295   5.077 -0.4725 -0.5090  0.9583
 3060TIP3    H2 9187   5.160   4.158   5.089 -0.1186 -0.8015 -0.3867
 3061TIP3   OH2 9188   4.938   5.079   0.405  0.4335 -0.1057  0.5775
 3061TIP3    H1 9189   4.890   5.012   0.454  0.6724 -0.0617  0.8750
 3061TIP3    H2 9190   4.973   5.031   0.329 -0.0890 -0.1323  0.3463
 3062TIP3   OH2 9191   5.994   4.682   3.051  0.1462 -0.4783 -0.0793
 3062TIP3    H1 9192   6.052   4.747   3.012 -1.1035 -0.4746 -2.0491
 3062TIP3    H2 9193   6.048   4.603   3.056  0.3891 -0.4864 -1.9029
 3063TIP3   OH2 9194   4.099   5.880   4.321  0.1328 -0.1258 -0.1909
 3063TIP3    H1 9195   4.130   5.792   4.299  0.5257 -0.2389  0.7407
 3063TIP3    H2 9196   4.011   5.885   4.284 -0.0702 -1.0868  0.1461
 3064TIP3   OH2 9197   5.524   5.827   0.069 -0.1771  0.2277 -0.2228
 3064TIP3    H1 9198   5.609   5.790   0.092  0.0413  0.2009 -1.0276
 3064TIP3    H2 9199   5.543   5.888  -0.003 -0.7804  0.5415 -0.1248
 3065TIP3   OH2 9200   4.999   5.504   3.030  0.0520  0.0287 -0.0262
 3065TIP3    H1 9201   5.077   5.496   3.084 -1.6216  2.0643  2.9881
 3065TIP3    H2 9202   4.949   5.425   3.049  0.9417 -0.9094 -1.3776
 3066TIP3   OH2 9203   3.360   1.312   0.750 -0.1286  0.2285  0.1764
 3066TIP3    H1 9204   3.352   1.231   0.699  2.2976 -0.6659  1.0774
 3066TIP3    H2 9205   3.452   1.337   0.741 -0.4205  1.9017  1.4048
 3067TIP3   OH2 9206   6.124   0.846   0.550  0.0138 -0.7244  0.2508
 3067TIP3    H1 9207   6.163   0.770   0.593  1.0633 -0.8225 -0.8234
 3067TIP3    H2 9208   6.183   0.918   0.571  0.7278 -0.8416 -1.2665
 3068TIP3   OH2 9209   2.537   3.639   2.479  0.3363 -0.2021 -0.1464
 3068TIP3    H1 9210   2.517   3.545   2.479 -0.2602 -0.1929  2.9164
 3068TIP3    H2 9211   2.627   3.645   2.512 -0.0704  0.3220  0.9075
 3069TIP3   OH2 9212   0.605   2.094   3.705  0.0384  0.0397  0.3179
 3069TIP3    H1 9213   0.635   2.176   3.743 -1.3257  0.1405  1.2426
 3069TIP3    H2 9214   0.647   2.091   3.618  0.1239  1.6931  0.2757
 3070TIP3   OH2 9215   2.487   1.192   2.479 -0.3369 -0.1408 -0.2063
 3070TIP3    H1 9216   2.489   1.138   2.557 -0.3676  0.8870  0.5283
 3070TIP3    H2 9217   2.576   1.225   2.469 -0.6324  0.8218  0.1987
 3071TIP3   OH2 9218   2.449   5.505   0.705  0.1378  0.4015 -0.2181
 3071TIP3    H1 9219   2.410   5.562   0.771  1.3045  0.0777  0.7914
 3071TIP3    H2 9220   2.532   5.548   0.681  0.2242 -0.0151 -0.6987
 3072TIP3   OH2 9221   2.087   2.861   3.804 -0.0632  0.4668  0.3211
 3072TIP3    H1 9222   2.110   2.809   3.880  0.3088 -0.2619 -0.2734
 3072TIP3    H2 9223   2.016   2.918   3.834  0.9267  1.1107  1.5448
 3073TIP3   OH2 9224   1.309   2.162   3.270 -0.0586 -0.0919 -0.0441
 3073TIP3    H1 9225   1.275   2.220   3.201 -1.0483  1.0109  1.3051
 3073TIP3    H2 9226   1.335   2.082   3.224 -3.5458 -0.6409 -1.4020
 3074TIP3   OH2 9227   6.189   0.340   0.796 -0.6970 -0.8478  0.4934
 3074TIP3    H1 9228   6.210   0.388   0.876 -0.2105 -0.8223  0.3590
 3074TIP3    H2 9229   6.269   0.347   0.743 -0.6465 -1.7345  0.4346
 3075TIP3   OH2 9230   5.208   4.484   1.953 -0.2189 -0.1390  0.4525
 3075TIP3    H1 9231   5.163   4.561   1.918  2.5873  1.2615 -0.3975
 3075TIP3    H2 9232   5.227   4.507   2.044  1.3722  0.6216 -0.0356
 3076TIP3   OH2 9233   5.551   4.953   0.728 -0.0944 -0.8363 -0.2838
 3076TIP3    H1 9234   5.605   4.889   0.681  0.5451  0.5075 -1.4958
 3076TIP3    H2 9235   5.464   4.944   0.690 -0.3661 -1.9373  0.5631
 3077TIP3   OH2 9236   3.312   3.281   0.524 -0.6488 -0.0203 -0.6438
 3077TIP3    H1 9237   3.276   3.303   0.439  1.4035 -0.0798 -1.5788
 3077TIP3    H2 9238   3.350   3.194   0.512 -2.4532 -1.1435  1.0536
 3078TIP3   OH2 9239   4.534   4.685   2.816 -0.2100  0.0557 -0.5098
 3078TIP3    H1 9240   4.538   4.647   2.903  1.7600  1.9714  0.3534
 3078TIP3    H2 9241   4.441   4.689   2.795 -0.7879  0.1881  1.8340
 3079TIP3   OH2 9242   2.189   4.025   0.989  0.0023 -0.0442 -0.2458
 3079TIP3    H1 9243   2.220   4.107   1.026 -0.8320  0.5804 -0.8876
 3079TIP3    H2 9244   2.248   4.008   0.915 -0.4976  0.5612 -0.7889
 3080TIP3   OH2 9245   2.763   2.761   3.267 -0.1144  0.5066  0.2333
 3080TIP3    H1 9246   2.808   2.746   3.184 -0.9948  1.0019 -0.3371
 3080TIP3    H2 9247   2.683   2.709   3.261 -0.4859  1.0390  0.5167
 3081TIP3   OH2 9248   6.179   5.820   4.576  0.2960 -0.5345 -0.5110
 3081TIP3    H1 9249   6.202   5.728   4.588  0.1012 -0.6040 -0.6752
 3081TIP3    H2 9250   6.248   5.868   4.621 -0.6190 -0.7992  1.2574
 3082TIP3   OH2 9251   0.057   5.628   3.359  0.9987  0.3636  0.3469
 3082TIP3    H1 9252   0.001   5.568   3.309  0.6999  1.9869 -1.3922
 3082TIP3    H2 9253   0.134   5.576   3.382  1.5802 -0.2829 -2.6424
 3083TIP3   OH2 9254   3.934   5.683   1.866  0.2737  0.8031 -0.6512
 3083TIP3    H1 9255   4.019   5.661   1.829  0.3265  0.5196 -0.3669
 3083TIP3    H2 9256   3.898   5.749   1.807 -0.0617 -0.3237 -1.7497
 3084TIP3   OH2 9257   2.104   2.024   2.224 -0.2393  0.1262  0.2318
 3084TIP3    H1 9258   2.128   2.061   2.139  2.4418  0.6454  1.1289
 3084TIP3    H2 9259   2.011   2.045   2.233 -0.5600  0.2180 -2.4582
 3085TIP3   OH2 9260   5.366   1.759   5.204 -0.0093 -0.1834 -0.5631
 3085TIP3    H1 9261   5.312   1.825   5.160  0.8298 -1.2510 -3.4173
 3085TIP3    H2 9262   5.433   1.737   5.140  2.1876 -0.9091  1.8437
 3086TIP3   OH2 9263   1.016   4.489   4.701  0.3945  0.2206 -0.3968
 3086TIP3    H1 9264   1.052   4.407   4.736 -1.3501 -0.8089 -0.9194
 3086TIP3    H2 9265   0.986   4.537   4.778  0.0501 -0.3116 -0.1980
 3087TIP3   OH2 9266   3.724   1.149   3.467 -0.3909 -0.0221  0.2181
 3087TIP3    H1 9267   3.747   1.122   3.379 -0.0230 -0.2508  0.3840
 3087TIP3    H2 9268   3.772   1.090   3.524  0.5704  1.0772  0.5934
 3088TIP3   OH2 9269   1.511   0.999   3.913  0.1360 -0.1155 -0.3526
 3088TIP3    H1 9270   1.511   1.087   3.874 -0.3173  0.5254  1.0179
 3088TIP3    H2 9271   1.422   0.987   3.946  0.1922 -1.0992 -0.5293
 3089TIP3   OH2 9272   4.813   2.977   0.696  0.1543 -0.0989 -0.5642
 3089TIP3    H1 9273   4.824   2.891   0.738 -1.3558 -0.8001 -1.5292
 3089TIP3    H2 9274   4.733   2.969   0.645 -1.1422  2.5099  0.8369
 3090TIP3   OH2 9275   0.686   3.893   0.995  0.1255  0.2060 -0.3924
 3090TIP3    H1 9276   0.696   3.986   0.976 -2.0906  0.5357 -0.1310
 3090TIP3    H2 9277   0.766   3.870   1.043  1.8431  1.3625 -2.4898
 3091TIP3   OH2 9278   3.715   4.530   3.031  0.6833  0.3347  0.3809
 3091TIP3    H1 9279   3.702   4.437   3.014  1.5261  0.3000 -0.1281
 3091TIP3    H2 9280   3.804   4.537   3.066  1.3260  1.1115 -1.2657
 3092TIP3   OH2 9281   5.147   2.333   2.983  0.1865 -0.6569 -0.3180
 3092TIP3    H1 9282   5.200   2.408   2.958  0.0129 -0.1493  0.7944
 3092TIP3    H2 9283   5.066   2.343   2.932  0.3232 -0.3200 -0.4745
 3093TIP3   OH2 9284   0.574  -0.003   4.078  0.1983  0.1302  0.0783
 3093TIP3    H1 9285   0.601   0.052   4.152  0.0768  0.8553 -0.4068
 3093TIP3    H2 9286   0.481  -0.018   4.091  0.1915  0.2007  0.1083
 3094TIP3   OH2 9287   0.030   3.879   4.611  0.2646  0.0103  0.2712
 3094TIP3    H1 9288  -0.065   3.891   4.605  0.1358 -1.1070 -0.1142
 3094TIP3    H2 9289   0.052   3.907   4.700  0.2349  4.3461 -0.8566
 3095TIP3   OH2 9290   3.907   4.571   1.767 -0.9224  0.2631 -0.5687
 3095TIP3    H1 9291   3.994   4.568   1.807 -1.3670  0.2800  0.4207
 3095TIP3    H2 9292   3.851   4.610   1.834 -1.6946  0.2614 -1.2028
 3096TIP3   OH2 9293   6.358   0.846   4.819 -0.5203 -0.2387  0.0147
 3096TIP3    H1 9294   6.322   0.911   4.757 -0.2426  0.2391  0.3511
 3096TIP3    H2 9295   6.337   0.881   4.905  0.3664 -0.1664  0.2134
 3097TIP3   OH2 9296   3.284   2.054   0.453 -0.3452  0.2429  0.4692
 3097TIP3    H1 9297   3.316   1.976   0.406  0.0947  0.8135 -0.1968
 3097TIP3    H2 9298   3.358   2.114   0.452 -0.9041  0.9399  0.3806
 3098TIP3   OH2 9299   3.171   3.297   1.224  0.3959 -0.0273 -0.7229
 3098TIP3    H1 9300   3.244   3.281   1.284 -0.4744 -1.3351  0.0288
 3098TIP3    H2 9301   3.096   3.311   1.281 -0.4287 -1.2028 -1.5010
 3099TIP3   OH2 9302   4.718   2.599   3.584  0.6955  0.6112  0.4540
 3099TIP3    H1 9303   4.789   2.660   3.564 -0.1425  1.9958  1.4613
 3099TIP3    H2 9304   4.762   2.520   3.615  1.8198  0.6761 -0.8641
 3100TIP3   OH2 9305   3.820   4.858   1.976  0.0843  0.1390 -0.0142
 3100TIP3    H1 9306   3.914   4.848   1.989  0.1085 -1.0095 -0.8958
 3100TIP3    H2 9307   3.785   4.770   1.982 -0.6475  0.2743 -1.7157
 3101TIP3   OH2 9308   4.401   4.428   3.625 -0.3325 -0.1060 -0.1920
 3101TIP3    H1 9309   4.411   4.416   3.719 -1.3951 -0.1409 -0.0641
 3101TIP3    H2 9310   4.489   4.418   3.589 -0.0924 -1.3156  0.6648
 3102TIP3   OH2 9311   2.100   2.217   2.434  0.5676 -0.0235  0.0655
 3102TIP3    H1 9312   2.107   2.158   2.359  1.0196 -0.7091  0.6310
 3102TIP3    H2 9313   2.037   2.284   2.407 -1.4113 -1.7760  0.0762
 3103TIP3   OH2 9314   1.755   3.727   3.145 -0.1162 -0.1414  0.7855
 3103TIP3    H1 9315   1.820   3.703   3.079 -0.4084  1.8256 -0.2990
 3103TIP3    H2 9316   1.686   3.662   3.135  0.4268 -0.6170  0.0126
 3104TIP3   OH2 9317   3.392   0.985   2.104  0.0060  0.2127 -0.3518
 3104TIP3    H1 9318   3.351   1.036   2.174 -0.1733 -0.0184 -0.2885
 3104TIP3    H2 9319   3.479   1.023   2.095 -0.3545  0.9717 -0.7559
 3105TIP3   OH2 9320   3.222   4.258   1.815  0.2765 -0.4016 -0.0226
 3105TIP3    H1 9321   3.173   4.281   1.736  0.8170 -1.4780 -0.6873
 3105TIP3    H2 9322   3.312   4.286   1.797 -0.0082  1.4963  1.1672
 3106TIP3   OH2 9323   5.909   3.721   0.475 -0.0902  0.2561 -0.3173
 3106TIP3    H1 9324   5.830   3.774   0.487 -1.0534 -1.1669 -0.2177
 3106TIP3    H2 9325   5.970   3.753   0.541 -1.0805  0.4542  0.5185
 3107TIP3   OH2 9326   3.485   1.209   3.858  0.1241  0.4038  0.5278
 3107TIP3    H1 9327   3.471   1.273   3.788 -2.1743  0.9844  1.3948
 3107TIP3    H2 9328   3.514   1.130   3.814 -2.3337  0.4005 -1.3131
 3108TIP3   OH2 9329   3.074   3.630   0.530 -0.3207 -0.2156 -0.5991
 3108TIP3    H1 9330   3.095   3.554   0.585  0.3952  0.6833  0.3939
 3108TIP3    H2 9331   2.989   3.660   0.562 -0.6888 -0.6845 -1.1107
 3109TIP3   OH2 9332   3.700   5.026   2.807 -0.2569 -0.2957  0.1890
 3109TIP3    H1 9333   3.785   5.015   2.763 -0.1822  0.7612  0.0419
 3109TIP3    H2 9334   3.684   4.941   2.849 -0.5857 -1.5680 -2.2990
 3110TIP3   OH2 9335   1.596   1.787   4.639 -0.1982  0.7425 -0.0712
 3110TIP3    H1 9336   1.664   1.733   4.679 -0.1319 -0.9648 -2.2934
 3110TIP3    H2 9337   1.515   1.740   4.658 -0.2664  0.4550 -1.0095
 3111TIP3   OH2 9338   2.777   3.772   2.451 -0.2849  0.5450  0.1497
 3111TIP3    H1 9339   2.759   3.830   2.378 -0.0916 -0.2016 -0.5159
 3111TIP3    H2 9340   2.872   3.756   2.446 -0.3583  0.0543  0.2156
 3112TIP3   OH2 9341   2.568   1.456   0.641  0.0076  0.1059  0.1228
 3112TIP3    H1 9342   2.588   1.388   0.705  0.2947  0.3404  0.2837
 3112TIP3    H2 9343   2.653   1.482   0.606 -0.1056  0.3406  0.0205
 3113TIP3   OH2 9344   2.337   2.114   4.684 -0.2839  0.4987 -0.0593
 3113TIP3    H1 9345   2.389   2.162   4.620 -0.7190 -1.3254 -1.8838
 3113TIP3    H2 9346   2.251   2.104   4.643  0.0594 -2.6208 -0.2878
 3114TIP3   OH2 9347   2.519   5.070   2.805 -0.4271  0.0221  0.5814
 3114TIP3    H1 9348   2.492   5.161   2.797 -2.0242 -0.3765  0.9003
 3114TIP3    H2 9349   2.559   5.049   2.721 -0.1430  0.9777  0.4655
 3115TIP3   OH2 9350   4.665   2.996   5.104  0.4550 -0.2754 -0.0263
 3115TIP3    H1 9351   4.751   2.991   5.147  0.4100 -2.2978 -0.0799
 3115TIP3    H2 9352   4.662   3.084   5.067  1.0537  1.1035  2.9171
 3116TIP3   OH2 9353   3.452   4.802   3.232 -0.1629  0.6451 -0.6013
 3116TIP3    H1 9354   3.545   4.824   3.229 -0.3281  1.8802  1.5277
 3116TIP3    H2 9355   3.446   4.720   3.182  1.9080  0.9551 -1.4834
 3117TIP3   OH2 9356   4.270   4.653   2.795 -0.3195 -0.1652 -0.4941
 3117TIP3    H1 9357   4.225   4.616   2.872 -1.2682  0.9753 -0.4690
 3117TIP3    H2 9358   4.202   4.654   2.727 -0.0293  0.5824 -0.7800
 3118TIP3   OH2 9359   2.656   5.207   1.856 -0.2804  0.2828  0.0962
 3118TIP3    H1 9360   2.659   5.218   1.761  2.1576 -1.6386 -0.1800
 3118TIP3    H2 9361   2.691   5.289   1.891 -1.1022  0.9680 -0.6615
 3119TIP3   OH2 9362   2.956   0.313   3.479 -0.5685  0.4542  0.0730
 3119TIP3    H1 9363   2.938   0.334   3.570  0.2354  0.1181  0.3175
 3119TIP3    H2 9364   2.944   0.218   3.473  2.3909 -0.0585  0.6033
 3120TIP3   OH2 9365   3.901   2.224   4.160  0.2432 -0.0998 -0.2305
 3120TIP3    H1 9366   3.852   2.154   4.118 -0.1500 -0.0473  0.1273
 3120TIP3    H2 9367   3.944   2.271   4.089  0.0779 -0.3807 -0.5139
 3121TIP3   OH2 9368   5.262   2.056   4.541  0.2145 -0.1216 -0.1205
 3121TIP3    H1 9369   5.347   2.060   4.498  0.2750  1.4275  0.0794
 3121TIP3    H2 9370   5.208   2.003   4.482  0.4436  1.4757 -1.8642
 3122TIP3   OH2 9371   4.361   1.914   3.377 -0.2243  0.1660 -0.3065
 3122TIP3    H1 9372   4.391   1.827   3.403 -2.9789 -0.7202  0.2477
 3122TIP3    H2 9373   4.424   1.974   3.416  0.8469 -1.5150  0.6811
 3123TIP3   OH2 9374   1.453   3.733   4.180  0.4079 -0.2437 -0.0813
 3123TIP3    H1 9375   1.474   3.641   4.196  0.6406 -0.2416 -0.3694
 3123TIP3    H2 9376   1.393   3.732   4.106  1.2522 -0.1010 -0.7873
 3124TIP3   OH2 9377   5.634   4.159   2.660 -0.1437  0.0810  0.3586
 3124TIP3    H1 9378   5.730   4.160   2.666 -0.1912  0.3785  1.2551
 3124TIP3    H2 9379   5.605   4.188   2.746 -1.0503 -0.4740  0.2503
 3125TIP3   OH2 9380   4.647   1.495   0.417 -0.0168 -0.1944 -0.6976
 3125TIP3    H1 9381   4.730   1.473   0.460  0.3826  2.7107  0.2333
 3125TIP3    H2 9382   4.641   1.433   0.344  1.9049 -1.8490  0.4475
 3126TIP3   OH2 9383   5.859   4.128   0.439  0.2716  0.9828  0.4903
 3126TIP3    H1 9384   5.903   4.047   0.415  1.7749  2.1195 -0.7523
 3126TIP3    H2 9385   5.793   4.141   0.372  0.1662  0.8952  0.5763
 3127TIP3   OH2 9386   5.335   0.859   3.599  0.1539  0.2893 -0.5387
 3127TIP3    H1 9387   5.429   0.844   3.604 -0.1729 -1.6653  1.5467
 3127TIP3    H2 9388   5.323   0.951   3.621  1.5325  0.3173  0.1639
 3128TIP3   OH2 9389   1.437   1.891   1.423 -0.2812  0.3174  0.3167
 3128TIP3    H1 9390   1.473   1.970   1.383  2.3789 -0.5494  0.8217
 3128TIP3    H2 9391   1.484   1.882   1.506 -2.2567 -0.5345  1.4243
 3129TIP3   OH2 9392   3.654   2.294   4.417 -0.1405 -0.8460  0.3853
 3129TIP3    H1 9393   3.731   2.343   4.387 -0.6037  0.2451  0.9235
 3129TIP3    H2 9394   3.580   2.337   4.376 -0.5140 -1.5771  0.2727
 3130TIP3   OH2 9395   5.425   5.541   1.001  0.3038 -0.3540  0.5863
 3130TIP3    H1 9396   5.518   5.525   1.016  0.9360  1.4070 -1.0735
 3130TIP3    H2 9397   5.418   5.558   0.907 -1.4201  1.1477  0.9370
 3131TIP3   OH2 9398   5.651   0.968   3.486  0.1675  0.2986 -0.3673
 3131TIP3    H1 9399   5.618   0.883   3.516 -0.3904  0.6280 -0.0199
 3131TIP3    H2 9400   5.736   0.949   3.447  0.1193 -0.3950 -0.1428
 3132TIP3   OH2 9401   6.287   4.881   2.687  0.0191  0.2016 -0.1018
 3132TIP3    H1 9402   6.268   4.878   2.593  0.8166 -1.9834 -0.2419
 3132TIP3    H2 9403   6.289   4.790   2.714 -2.0998  0.8151  2.4908
 3133TIP3   OH2 9404   5.715   4.291   4.437  0.5155 -0.3023 -0.3951
 3133TIP3    H1 9405   5.680   4.324   4.354  1.5113 -0.4233 -0.8828
 3133TIP3    H2 9406   5.804   4.264   4.416  0.6293 -0.7613  0.6218
 3134TIP3   OH2 9407   1.741   2.664   0.890  0.3165 -0.3743  0.3393
 3134TIP3    H1 9408   1.654   2.702   0.905  0.4160  0.0808 -0.2014
 3134TIP3    H2 9409   1.780   2.720   0.823  0.9167 -0.7520  0.3699
 3135TIP3   OH2 9410   5.788   5.306   0.477  0.6749 -0.4212 -0.4145
 3135TIP3    H1 9411   5.780   5.380   0.417  0.3893 -0.2586 -0.1735
 3135TIP3    H2 9412   5.701   5.297   0.516  0.8487 -0.5547 -0.0568
 3136TIP3   OH2 9413   6.292   0.459   2.212 -0.0933 -0.0318  0.4723
 3136TIP3    H1 9414   6.309   0.465   2.118 -3.1878  0.5899 -0.1654
 3136TIP3    H2 9415   6.223   0.393   2.220 -2.0835  2.0477  1.8866
 3137TIP3   OH2 9416   5.458   4.881   2.301 -0.4958  0.2272  0.0075
 3137TIP3    H1 9417   5.521   4.912   2.236 -0.8154  1.5537  0.2990
 3137TIP3    H2 9418   5.373   4.908   2.267 -0.8982 -1.1130 -0.1363
 3138TIP3   OH2 9419   1.078   1.371   4.952  0.6563 -0.5626 -0.0792
 3138TIP3    H1 9420   1.036   1.355   5.036 -0.4690  0.2294 -0.4723
 3138TIP3    H2 9421   1.044   1.303   4.895  0.9014 -0.6909 -0.0755
 3139TIP3   OH2 9422   5.084   2.808   1.508 -0.0902  0.2956 -0.3583
 3139TIP3    H1 9423   5.088   2.714   1.493 -0.5300  0.3759 -1.0455
 3139TIP3    H2 9424   5.001   2.822   1.553  0.8210  0.1583  1.4226
 3140TIP3   OH2 9425   0.915   5.845   3.330 -0.1016  0.1359  0.0847
 3140TIP3    H1 9426   0.926   5.765   3.382 -1.8367 -0.4667 -0.4120
 3140TIP3    H2 9427   0.856   5.899   3.381 -1.3253 -0.2006 -0.9244
 3141TIP3   OH2 9428   5.173   2.646   3.425  0.4021  0.2801 -0.6579
 3141TIP3    H1 9429   5.093   2.682   3.463  0.4543  0.1951 -0.4643
 3141TIP3    H2 9430   5.223   2.722   3.396 -0.6446  0.2845 -2.6339
 3142TIP3   OH2 9431   1.223   5.614   2.962  0.0022 -0.0905  0.2818
 3142TIP3    H1 9432   1.232   5.562   3.041  3.2204  0.5817  0.4679
 3142TIP3    H2 9433   1.174   5.692   2.989  2.5348  0.9874  2.1761
 3143TIP3   OH2 9434   0.926   4.774   4.561 -0.1528  0.1459 -0.8218
 3143TIP3    H1 9435   1.006   4.724   4.576 -0.8135 -0.8277 -0.4417
 3143TIP3    H2 9436   0.954   4.866   4.564  0.6454 -0.1187  1.1314
 3144TIP3   OH2 9437   0.851   5.568   0.952  0.9935  0.2668 -0.4500
 3144TIP3    H1 9438   0.906   5.616   1.014  2.9190 -1.4771 -0.7109
 3144TIP3    H2 9439   0.906   5.557   0.875  0.7887 -2.5369 -0.2998
 3145TIP3   OH2 9440   6.302   2.049   2.537  0.5841  0.1252  0.4263
 3145TIP3    H1 9441   6.234   2.059   2.470 -0.6956  1.2070  1.7913
 3145TIP3    H2 9442   6.312   1.955   2.548  0.8376 -0.0788 -1.2581
 3146TIP3   OH2 9443   3.282   5.462   4.849  0.3235 -0.1178 -0.2056
 3146TIP3    H1 9444   3.368   5.501   4.870  0.5206  0.0474 -1.2590
 3146TIP3    H2 9445   3.242   5.524   4.788 -0.0051 -0.8234 -0.7232
 3147TIP3   OH2 9446   0.804   3.748   3.951  0.9146  0.6250  0.3084
 3147TIP3    H1 9447   0.716   3.739   3.988  1.1106  0.8911  0.8583
 3147TIP3    H2 9448   0.855   3.790   4.021  1.3956  0.7745 -0.1246
 3148TIP3   OH2 9449   3.360   1.019   2.609 -0.4334 -0.1219  0.0099
 3148TIP3    H1 9450   3.321   0.941   2.570  0.1946 -1.1414  1.3499
 3148TIP3    H2 9451   3.285   1.072   2.636 -0.8894 -0.8026  0.1199
 3149TIP3   OH2 9452   0.433   3.597   3.984 -0.6165 -0.0120  0.4296
 3149TIP3    H1 9453   0.395   3.581   4.070  2.3859  1.3275  2.1592
 3149TIP3    H2 9454   0.458   3.511   3.951 -1.4076 -0.4915  1.0721
 3150TIP3   OH2 9455   0.187   3.395   4.352 -0.0894 -0.4573 -0.6002
 3150TIP3    H1 9456   0.190   3.431   4.440 -1.9119 -3.0218  0.6354
 3150TIP3    H2 9457   0.279   3.379   4.330  0.4081  0.2939  0.7838
 3151TIP3   OH2 9458   4.266   2.397   1.834  0.0184  0.3584 -0.2397
 3151TIP3    H1 9459   4.324   2.454   1.886  0.4697  1.8286 -2.2419
 3151TIP3    H2 9460   4.191   2.452   1.813 -1.0314 -0.7999  0.3407
 3152TIP3   OH2 9461   6.061   2.605   3.796 -0.9376 -0.1187 -0.3266
 3152TIP3    H1 9462   6.134   2.667   3.800 -0.9486 -0.1649  1.2823
 3152TIP3    H2 9463   5.986   2.658   3.767 -0.8286  0.5249  0.5160
 3153TIP3   OH2 9464   1.899   4.256   1.966  0.0891 -0.1680  0.0701
 3153TIP3    H1 9465   1.810   4.278   1.995  0.0206  0.4807 -0.6047
 3153TIP3    H2 9466   1.888   4.220   1.878  0.4803 -0.2461  0.0493
 3154TIP3   OH2 9467   2.631   5.903   4.235 -0.0494 -0.5460  0.3028
 3154TIP3    H1 9468   2.706   5.936   4.186 -0.2213 -0.9863 -0.2740
 3154TIP3    H2 9469   2.559   5.904   4.171 -0.9326  1.3195  1.2523
 3155TIP3   OH2 9470   1.309   0.787   4.849  0.0814 -0.5535  0.2310
 3155TIP3    H1 9471   1.364   0.731   4.794 -1.4507 -0.6155 -1.3409
 3155TIP3    H2 9472   1.229   0.799   4.798 -0.8584  0.5722  1.8745
 3156TIP3   OH2 9473   1.098   2.470   2.014  0.1986 -0.0726 -0.0975
 3156TIP3    H1 9474   1.072   2.379   2.027 -1.5340  0.2038 -1.3377
 3156TIP3    H2 9475   1.120   2.476   1.921  2.5925  0.2669  0.4412
 3157TIP3   OH2 9476   4.751   3.850   4.297  0.3464  0.6315  0.0351
 3157TIP3    H1 9477   4.698   3.913   4.348 -0.7213 -0.0463 -0.2151
 3157TIP3    H2 9478   4.790   3.793   4.363 -1.8719 -0.9047  0.1251
 3158TIP3   OH2 9479   3.700   4.373   0.701  0.6924  0.0373 -0.0207
 3158TIP3    H1 9480   3.751   4.383   0.620  1.1456 -0.4968  0.1899
 3158TIP3    H2 9481   3.744   4.430   0.764  0.9649 -0.3255  0.1254
 3159TIP3   OH2 9482   4.986   5.652   0.839 -0.8107 -0.0460  0.7193
 3159TIP3    H1 9483   5.060   5.593   0.826 -1.8163 -1.6018  1.7084
 3159TIP3    H2 9484   4.947   5.624   0.922 -1.4845  1.8689  1.0994
 3160TIP3   OH2 9485   0.802   1.642   2.254  0.6750 -0.0223  0.6471
 3160TIP3    H1 9486   0.882   1.695   2.259  0.7999 -0.0520 -0.6616
 3160TIP3    H2 9487   0.741   1.695   2.203 -0.0705 -0.0965  1.4510
 3161TIP3   OH2 9488   1.499   4.622   2.655 -0.1446  0.2334 -0.3767
 3161TIP3    H1 9489   1.572   4.640   2.715 -0.6214 -1.1390  0.6664
 3161TIP3    H2 9490   1.540   4.579   2.580  0.3501  1.1841 -0.6669
 3162TIP3   OH2 9491   3.971   1.495   1.452 -0.0024  0.0591 -0.1107
 3162TIP3    H1 9492   3.903   1.465   1.392 -0.8247 -0.0686  0.8765
 3162TIP3    H2 9493   4.051   1.491   1.400 -0.5071 -1.2206 -0.8406
 3163TIP3   OH2 9494   0.946   2.459   4.178  0.1658  0.3993 -0.4091
 3163TIP3    H1 9495   0.947   2.386   4.116 -0.2639 -0.3541  0.4570
 3163TIP3    H2 9496   1.001   2.430   4.251 -2.8703 -0.6153  1.6561
 3164TIP3   OH2 9497   4.269   1.030   1.651 -0.3032 -0.2831 -0.4035
 3164TIP3    H1 9498   4.213   1.049   1.575  0.3232 -0.3346 -0.8866
 3164TIP3    H2 9499   4.269   0.934   1.656 -0.5223 -0.2731 -0.1997
 3165TIP3   OH2 9500   4.745   5.942   0.844 -0.1265 -0.2490 -0.0684
 3165TIP3    H1 9501   4.692   6.019   0.864 -0.8421 -0.1422 -2.1390
 3165TIP3    H2 9502   4.685   5.868   0.851 -0.2914 -0.2528 -1.2265
 3166TIP3   OH2 9503   4.378   2.774   0.442 -0.4195 -0.0829  0.4857
 3166TIP3    H1 9504   4.295   2.799   0.400 -0.3094  2.4047  1.5714
 3166TIP3    H2 9505   4.386   2.680   0.425 -2.5030 -0.0272 -1.2792
 3167TIP3   OH2 9506   1.156   0.178   4.873  0.1572  0.1068 -0.1035
 3167TIP3    H1 9507   1.188   0.095   4.838 -1.4075 -1.2479  1.4996
 3167TIP3    H2 9508   1.210   0.193   4.952 -0.4747 -0.1188  0.3781
 3168TIP3   OH2 9509   2.578   2.043   4.452  0.3266 -0.0466  0.1050
 3168TIP3    H1 9510   2.528   1.963   4.468 -0.4620  0.4408  0.1213
 3168TIP3    H2 9511   2.661   2.012   4.414 -0.7594 -0.7723 -1.8314
 3169TIP3   OH2 9512   1.576   1.573   3.862  0.6442 -0.0031  0.3345
 3169TIP3    H1 9513   1.561   1.570   3.957  1.9840 -1.5474  0.5388
 3169TIP3    H2 9514   1.668   1.551   3.852  0.2500 -1.0046 -1.3972
 3170TIP3   OH2 9515   0.001   3.085   4.590 -0.2210 -0.1672 -0.2811
 3170TIP3    H1 9516   0.087   3.122   4.610 -0.3935 -0.6022  1.4267
 3170TIP3    H2 9517   0.016   3.028   4.515  0.9048  0.0967 -0.2679
 3171TIP3   OH2 9518   4.482   0.847   4.362 -0.1417  0.3250 -0.0897
 3171TIP3    H1 9519   4.462   0.939   4.379 -1.0325  0.1460 -0.1252
 3171TIP3    H2 9520   4.578   0.842   4.366 -0.0524  1.3548 -0.6033
 3172TIP3   OH2 9521   3.149   4.957   1.805  0.1362  0.4200  0.5696
 3172TIP3    H1 9522   3.145   4.877   1.858  0.9411  1.2189  1.8792
 3172TIP3    H2 9523   3.213   5.012   1.850  1.0960  1.0154 -1.4327
 3173TIP3   OH2 9524   5.530   0.839   1.590  0.3793 -0.3579  0.1404
 3173TIP3    H1 9525   5.619   0.874   1.593  0.2774 -0.0864  0.0061
 3173TIP3    H2 9526   5.541   0.749   1.559  0.5009  0.0633 -1.0826
 3174TIP3   OH2 9527   1.360   2.529   0.284  0.3454  0.7197  0.2162
 3174TIP3    H1 9528   1.326   2.543   0.196  2.0459 -2.6134 -1.1893
 3174TIP3    H2 9529   1.377   2.434   0.287  1.9058  0.9879  3.5436
 3175TIP3   OH2 9530   1.148   3.946   3.888  0.0591 -0.0329 -0.3501
 3175TIP3    H1 9531   1.092   3.918   3.961 -0.4852 -0.2524 -0.8437
 3175TIP3    H2 9532   1.121   4.036   3.870  0.2503  0.0495 -0.2297
 3176TIP3   OH2 9533   4.225   0.558   3.559 -0.1209  0.4488  0.0996
 3176TIP3    H1 9534   4.288   0.520   3.498  1.1372  1.7705  0.5209
 3176TIP3    H2 9535   4.207   0.487   3.621  0.3640 -0.1887 -0.4679
 3177TIP3   OH2 9536   4.999   5.684   0.265 -0.2059 -0.2708  0.2940
 3177TIP3    H1 9537   5.009   5.731   0.347  1.6596 -0.0779 -0.0150
 3177TIP3    H2 9538   4.904   5.675   0.254 -0.5408  1.5693  1.3937
 3178TIP3   OH2 9539   3.048   2.725   2.537 -0.0970  0.1411  0.2609
 3178TIP3    H1 9540   3.090   2.699   2.455  2.5398  0.7601  1.3093
 3178TIP3    H2 9541   2.968   2.770   2.509 -0.5923 -1.8202 -1.8326
 3179TIP3   OH2 9542   4.089   4.448   4.737 -0.3170  0.0583  0.0752
 3179TIP3    H1 9543   4.062   4.400   4.659  1.0725  1.0835 -1.1085
 3179TIP3    H2 9544   4.154   4.391   4.779 -0.6429 -0.2415  0.1793
 3180TIP3   OH2 9545   5.636   0.561   0.353 -0.5212  0.1117 -0.3432
 3180TIP3    H1 9546   5.621   0.471   0.327 -2.2885  0.7451 -1.7439
 3180TIP3    H2 9547   5.721   0.583   0.314 -0.6354 -0.5912 -1.0121
 3181TIP3   OH2 9548   4.869   4.694   4.850 -0.0789 -0.0130  0.1837
 3181TIP3    H1 9549   4.937   4.628   4.864  0.3524  0.0516 -1.4069
 3181TIP3    H2 9550   4.865   4.704   4.755 -0.1025  2.2787  0.3661
 3182TIP3   OH2 9551   5.376   0.327   2.798  0.5455 -0.1420 -0.7833
 3182TIP3    H1 9552   5.426   0.260   2.845  0.0914 -0.2693 -0.4794
 3182TIP3    H2 9553   5.437   0.400   2.789  0.9036 -0.4283 -0.7281
 3183TIP3   OH2 9554   4.700   2.211   5.126 -0.0442  0.1215  0.1916
 3183TIP3    H1 9555   4.634   2.196   5.194 -1.2328 -0.0640 -0.9722
 3183TIP3    H2 9556   4.756   2.280   5.161 -2.8134  2.7163 -0.1116
 3184TIP3   OH2 9557   0.834   1.363   1.594 -0.1234 -0.0159  0.0265
 3184TIP3    H1 9558   0.755   1.390   1.640 -0.2875  1.7044 -1.1635
 3184TIP3    H2 9559   0.901   1.425   1.624  0.5530 -0.8817  0.3371
 3185TIP3   OH2 9560   5.435   4.742   3.261 -0.9654 -0.5803  0.0252
 3185TIP3    H1 9561   5.527   4.736   3.234 -0.7965 -0.1517  0.4899
 3185TIP3    H2 9562   5.385   4.734   3.180 -0.4684  0.9133 -0.4589
 3186TIP3   OH2 9563   3.190   3.922   2.215  0.1855 -0.3729 -0.2974
 3186TIP3    H1 9564   3.129   3.936   2.142  0.2641  0.3151 -0.2376
 3186TIP3    H2 9565   3.273   3.958   2.184  0.2117 -0.0486  0.1416
 3187TIP3   OH2 9566   3.973   4.506   3.086  0.2112  0.2730 -0.0939
 3187TIP3    H1 9567   3.996   4.456   3.164 -0.5087 -1.2180 -0.7967
 3187TIP3    H2 9568   4.055   4.514   3.037  0.4269  0.2074  0.2568
 3188TIP3   OH2 9569   2.742   4.952   0.799  0.2317  0.3235  0.6176
 3188TIP3    H1 9570   2.804   4.945   0.871  1.6633 -0.5892 -0.6360
 3188TIP3    H2 9571   2.787   5.005   0.733  0.9500 -2.6365 -1.4768
 3189TIP3   OH2 9572   6.000   3.098   4.062  0.1186 -0.1621  0.2617
 3189TIP3    H1 9573   5.962   3.164   4.004  2.9486  0.5430 -0.9559
 3189TIP3    H2 9574   5.944   3.022   4.051 -1.1700  0.9101 -1.0656
 3190TIP3   OH2 9575   6.005   0.270   3.468  0.0362  0.0267  0.9631
 3190TIP3    H1 9576   5.946   0.346   3.462  0.1608  0.1538  1.2976
 3190TIP3    H2 9577   6.075   0.289   3.405 -1.0914 -0.8786 -0.6458
 3191TIP3   OH2 9578   3.457   4.993   2.638 -0.2439 -0.3338  0.4968
 3191TIP3    H1 9579   3.460   4.903   2.670 -2.5219 -0.2587  1.1113
 3191TIP3    H2 9580   3.398   5.038   2.699 -0.0979  1.2812 -0.4945
 3192TIP3   OH2 9581   4.654   4.176   0.752 -0.0546  0.2282  0.0695
 3192TIP3    H1 9582   4.607   4.237   0.695 -0.3706  1.0997  1.2286
 3192TIP3    H2 9583   4.594   4.159   0.824  0.3347 -0.8682  0.1608
 3193TIP3   OH2 9584   5.768   0.697   2.679  0.2479 -0.4045 -0.1950
 3193TIP3    H1 9585   5.831   0.685   2.608  0.6282 -0.5889  0.1704
 3193TIP3    H2 9586   5.820   0.728   2.753  0.1463 -1.8053  0.5095
 3194TIP3   OH2 9587   1.883   5.303   2.987  0.8269  0.4063  0.3453
 3194TIP3    H1 9588   1.908   5.310   2.895 -0.4670 -0.6377 -0.1157
 3194TIP3    H2 9589   1.890   5.210   3.007 -0.8242  0.3249  0.7065
 3195TIP3   OH2 9590   1.438   4.115   2.655 -0.5919 -0.2811 -0.4450
 3195TIP3    H1 9591   1.402   4.184   2.711  0.6851 -0.1901  0.3361
 3195TIP3    H2 9592   1.478   4.054   2.717  0.0581 -0.6581 -1.2166
 3196TIP3   OH2 9593   5.297   3.318   1.403  0.2106 -0.3236 -0.6033
 3196TIP3    H1 9594   5.349   3.398   1.390 -1.1441  0.4302 -1.7421
 3196TIP3    H2 9595   5.300   3.274   1.318 -2.1233  0.4673 -1.1528
 3197TIP3   OH2 9596   4.326   2.662   0.779 -0.8290  0.1111 -0.1846
 3197TIP3    H1 9597   4.301   2.602   0.849  2.4121 -0.9964  0.1596
 3197TIP3    H2 9598   4.345   2.606   0.704 -1.9855  1.1205 -1.2953
 3198TIP3   OH2 9599   2.459   3.287   2.866 -0.1605  0.4290  0.2769
 3198TIP3    H1 9600   2.553   3.304   2.876 -0.0122  0.0178 -0.3960
 3198TIP3    H2 9601   2.446   3.199   2.901 -0.6769  1.2535  2.3447
 3199TIP3   OH2 9602   3.857   1.509   1.200  0.5677  0.1802  0.5609
 3199TIP3    H1 9603   3.934   1.566   1.200  0.2609  0.6312 -0.4830
 3199TIP3    H2 9604   3.785   1.567   1.172 -0.1764 -0.1932  1.6504
 3200TIP3   OH2 9605   3.734   0.201   1.193  0.0187 -0.3582 -0.0155
 3200TIP3    H1 9606   3.693   0.223   1.109  0.0888 -0.2017 -0.0090
 3200TIP3    H2 9607   3.728   0.105   1.199 -1.7270 -0.2437  0.6865
 3201TIP3   OH2 9608   0.789   4.974   3.586  0.2208  0.5731 -0.1703
 3201TIP3    H1 9609   0.767   5.065   3.565 -1.8226 -0.2669 -2.0845
 3201TIP3    H2 9610   0.792   4.930   3.501  0.3154 -1.3281  0.7556
 3202TIP3   OH2 9611   5.006   5.742   2.852 -0.8401 -0.8651 -0.2152
 3202TIP3    H1 9612   5.020   5.654   2.887 -1.0017 -1.4017 -1.4521
 3202TIP3    H2 9613   5.001   5.729   2.757 -0.3350  0.5435 -0.4517
 3203TIP3   OH2 9614   5.783   4.428   1.035  0.3488 -0.7072  0.9157
 3203TIP3    H1 9615   5.777   4.522   1.053  2.7403 -0.6856  2.0174
 3203TIP3    H2 9616   5.809   4.422   0.943 -0.1709 -0.3007  0.7446
 3204TIP3   OH2 9617   1.093   1.234   3.645 -0.2785 -0.3650  0.7794
 3204TIP3    H1 9618   1.120   1.325   3.634 -2.5123  0.4723  1.6918
 3204TIP3    H2 9619   1.151   1.185   3.586  0.8140  1.6426  0.0735
 3205TIP3   OH2 9620   2.110   1.162   2.036 -0.3524  0.2843 -0.7769
 3205TIP3    H1 9621   2.126   1.238   1.981 -0.2700  1.0878  0.3206
 3205TIP3    H2 9622   2.102   1.198   2.125 -1.4268 -0.8505 -0.3793
 3206TIP3   OH2 9623   0.204   1.757   2.312  0.1281 -0.4211 -0.2689
 3206TIP3    H1 9624   0.296   1.743   2.286  0.5054  0.9431  0.2181
 3206TIP3    H2 9625   0.205   1.841   2.358 -1.2823 -0.6623  0.2559
 3207TIP3   OH2 9626   5.933   1.283   3.301  0.1120 -0.7836  0.1588
 3207TIP3    H1 9627   5.893   1.257   3.384  0.0391 -2.1821 -0.2908
 3207TIP3    H2 9628   5.977   1.366   3.320 -0.8782 -0.4968  1.2929
 3208TIP3   OH2 9629   2.810   4.516   3.672 -0.0053  0.3231 -0.0888
 3208TIP3    H1 9630   2.749   4.575   3.628 -0.6630 -0.0581  0.2813
 3208TIP3    H2 9631   2.879   4.500   3.608 -0.3315  0.7087 -0.5460
 3209TIP3   OH2 9632   3.661   5.516   2.552 -0.1083 -0.1322  0.5293
 3209TIP3    H1 9633   3.688   5.429   2.523  2.4656  0.7298 -0.0059
 3209TIP3    H2 9634   3.661   5.569   2.472 -0.1230  0.6918  1.0599
 3210TIP3   OH2 9635   4.346   2.767   4.630 -0.2779 -0.2038  0.0451
 3210TIP3    H1 9636   4.425   2.780   4.578 -0.4273 -0.1109 -0.1614
 3210TIP3    H2 9637   4.295   2.703   4.580 -1.5295  1.6611 -1.2006
 3211TIP3   OH2 9638   4.217   4.218   4.875  0.1287 -0.3838 -0.2868
 3211TIP3    H1 9639   4.302   4.231   4.916 -0.0175  0.2959 -0.1965
 3211TIP3    H2 9640   4.178   4.144   4.923  1.5659 -2.1910 -1.7556
 3212TIP3   OH2 9641   0.259   0.693   1.407 -0.2816  0.1901  0.4290
 3212TIP3    H1 9642   0.204   0.767   1.385  0.6867  0.7819 -0.0764
 3212TIP3    H2 9643   0.310   0.676   1.327  0.5521 -0.0620  0.9955
 3213TIP3   OH2 9644   1.222   2.960   4.682  0.3213  0.1631 -0.0717
 3213TIP3    H1 9645   1.300   2.904   4.674 -0.5001 -0.9874 -0.2729
 3213TIP3    H2 9646   1.243   3.018   4.755  1.6769  0.4060 -0.6152
 3214TIP3   OH2 9647   3.908   5.027   4.820 -0.3988 -0.4879  0.5232
 3214TIP3    H1 9648   3.871   4.946   4.856 -0.1393 -0.1439  1.6105
 3214TIP3    H2 9649   3.861   5.041   4.738 -1.0761 -1.2621  0.7669
 3215TIP3   OH2 9650   4.272   3.307   0.745 -0.0023 -0.5955  0.0784
 3215TIP3    H1 9651   4.240   3.306   0.835 -0.6365  1.1629 -0.0995
 3215TIP3    H2 9652   4.277   3.399   0.722  1.2215 -0.9734 -1.3370
 3216TIP3   OH2 9653   4.440   4.149   2.031  0.3296 -0.5693 -0.2747
 3216TIP3    H1 9654   4.411   4.071   1.984 -0.8960 -0.5224  0.3683
 3216TIP3    H2 9655   4.418   4.132   2.123 -0.5042  0.7633 -0.2006
 3217TIP3   OH2 9656   3.520   2.645   1.507 -0.3073  0.1438 -0.3404
 3217TIP3    H1 9657   3.544   2.734   1.531 -3.5263  0.4637  2.5157
 3217TIP3    H2 9658   3.481   2.653   1.420  0.0994  1.3658 -0.4237
 3218TIP3   OH2 9659   6.108   1.606   0.345  0.3717 -0.1997  0.2996
 3218TIP3    H1 9660   6.040   1.546   0.312 -0.4928  0.7568  0.2884
 3218TIP3    H2 9661   6.183   1.590   0.287 -0.1966 -0.5254 -0.3728
 3219TIP3   OH2 9662   3.542   5.184   2.964 -0.3559  0.5542 -0.4431
 3219TIP3    H1 9663   3.482   5.113   2.989 -1.2801  1.6162  0.5387
 3219TIP3    H2 9664   3.601   5.145   2.900 -0.1170 -1.4004  0.8754
 3220TIP3   OH2 9665   3.121   1.452   3.987  0.1276 -0.3716  0.1829
 3220TIP3    H1 9666   3.033   1.462   3.953 -0.3461 -1.6491  0.9802
 3220TIP3    H2 9667   3.125   1.512   4.062 -0.4667 -1.1704  0.8672
 3221TIP3   OH2 9668   1.578   0.281   3.017  0.4120  0.3143 -0.0727
 3221TIP3    H1 9669   1.537   0.345   2.959  0.4839 -0.3207 -0.8401
 3221TIP3    H2 9670   1.506   0.225   3.045  0.2425  1.0761  1.0875
 3222TIP3   OH2 9671   3.177   5.620   0.611  0.4665 -0.1363 -0.6847
 3222TIP3    H1 9672   3.168   5.700   0.663  3.1733  0.0833 -0.4022
 3222TIP3    H2 9673   3.118   5.634   0.536  0.3773  1.8454 -0.3163
 3223TIP3   OH2 9674   6.026   2.145   3.581  0.3489 -0.5966  0.6799
 3223TIP3    H1 9675   5.995   2.162   3.492 -0.8119 -1.5118  0.8773
 3223TIP3    H2 9676   5.979   2.208   3.635  2.1085  0.9293  0.5338
 3224TIP3   OH2 9677   5.400   0.686   0.455  0.1426  0.4585 -0.1271
 3224TIP3    H1 9678   5.481   0.637   0.443 -0.5771 -0.8196  0.1283
 3224TIP3    H2 9679   5.406   0.757   0.391  0.6140 -0.7138 -1.4439
 3225TIP3   OH2 9680   3.888   1.207   0.082  0.7355  0.4538  0.2717
 3225TIP3    H1 9681   3.831   1.134   0.107  0.1383  0.9088  0.2777
 3225TIP3    H2 9682   3.893   1.201  -0.013  1.9442 -0.5014  0.3773
 3226TIP3   OH2 9683   6.074   4.888   4.851  0.5277 -0.2695  0.2116
 3226TIP3    H1 9684   6.109   4.876   4.763  0.2949 -0.7081  0.1784
 3226TIP3    H2 9685   6.094   4.980   4.872 -1.8342  0.7240 -1.4029
 3227TIP3   OH2 9686   0.877   5.633   0.145 -0.1160  0.4434 -0.7351
 3227TIP3    H1 9687   0.786   5.660   0.154 -0.0227  0.8712 -1.0150
 3227TIP3    H2 9688   0.923   5.683   0.212 -0.3949 -1.4347  0.9267
 3228TIP3   OH2 9689   1.438   2.383   4.237  0.1902  0.2066 -0.1310
 3228TIP3    H1 9690   1.498   2.367   4.164 -0.2766 -0.9556 -0.2910
 3228TIP3    H2 9691   1.429   2.297   4.279 -1.1253  0.4155  0.0504
 3229TIP3   OH2 9692   5.856   1.975   0.455  0.3425 -0.5549  0.3206
 3229TIP3    H1 9693   5.828   1.946   0.542  0.3057 -0.2962  0.3978
 3229TIP3    H2 9694   5.941   2.017   0.471  0.2206 -0.2890  0.2688
 3230TIP3   OH2 9695   2.187   2.545   0.190 -0.3579 -0.1329 -0.1576
 3230TIP3    H1 9696   2.212   2.452   0.189 -1.2580 -0.3906  0.5793
 3230TIP3    H2 9697   2.162   2.564   0.100 -1.2189 -0.9105 -0.0993
 3231TIP3   OH2 9698   3.531   4.123   2.360  0.2677 -0.2697  0.4173
 3231TIP3    H1 9699   3.526   4.027   2.353 -0.4979 -0.4302  2.4715
 3231TIP3    H2 9700   3.454   4.154   2.312  0.8148 -0.6207 -0.7291
 3232TIP3   OH2 9701   0.881   3.836   4.850 -0.7774  0.1891  0.1100
 3232TIP3    H1 9702   0.842   3.914   4.809 -0.5983  0.5133  0.5526
 3232TIP3    H2 9703   0.892   3.861   4.942 -0.2531 -0.1825  0.1460
 3233TIP3   OH2 9704   2.699   4.891   1.200  0.1484 -0.1080 -0.5684
 3233TIP3    H1 9705   2.771   4.942   1.164  1.1871  0.2817  1.8834
 3233TIP3    H2 9706   2.734   4.802   1.206  0.2695 -0.0238  0.1118
 3234TIP3   OH2 9707   4.607   1.746   3.868  0.2111  0.1637 -0.1475
 3234TIP3    H1 9708   4.650   1.786   3.943  0.0574  0.1259 -0.0399
 3234TIP3    H2 9709   4.676   1.740   3.801  1.3096 -2.9437  1.0926
 3235TIP3   OH2 9710   2.853   3.197   1.140  0.2354  0.1292  0.1202
 3235TIP3    H1 9711   2.921   3.226   1.080  0.5780 -1.2241 -0.1933
 3235TIP3    H2 9712   2.784   3.164   1.083  0.9795 -2.0929  0.4072
 3236TIP3   OH2 9713   2.029   5.453   0.348 -0.0313  0.1516 -0.4744
 3236TIP3    H1 9714   2.056   5.444   0.439 -0.2411  0.6977 -0.3522
 3236TIP3    H2 9715   2.082   5.389   0.300  0.4261  0.1967 -0.0345
 3237TIP3   OH2 9716   4.286   4.218   0.662 -0.4325 -0.6147 -0.7883
 3237TIP3    H1 9717   4.342   4.207   0.585  0.1727  2.4048 -0.8835
 3237TIP3    H2 9718   4.199   4.238   0.626 -0.0516  1.2407 -0.7530
 3238TIP3   OH2 9719   2.827   0.321   0.501  0.1875  0.4218 -0.7635
 3238TIP3    H1 9720   2.808   0.414   0.485 -0.1611  0.3751 -0.6339
 3238TIP3    H2 9721   2.752   0.275   0.464  0.1704  0.2127 -0.4703
 3239TIP3   OH2 9722   1.447   1.743   5.016  0.1089 -0.5170  0.4774
 3239TIP3    H1 9723   1.402   1.666   4.981 -0.8181 -0.2869  1.1208
 3239TIP3    H2 9724   1.534   1.740   4.977 -0.6814 -0.5821 -1.3857
 3240TIP3   OH2 9725   0.252   0.078   2.753 -0.0879 -0.2410 -0.2651
 3240TIP3    H1 9726   0.251   0.148   2.819  1.4705 -0.2943 -0.1664
 3240TIP3    H2 9727   0.259  -0.003   2.803 -0.4107 -0.3835 -0.4455
 3241TIP3   OH2 9728   6.118   0.709   4.416 -0.4036 -0.5985 -0.3164
 3241TIP3    H1 9729   6.098   0.795   4.454  2.1303  0.6634 -1.5531
 3241TIP3    H2 9730   6.072   0.709   4.332  1.0531  0.4304 -1.1694
 3242TIP3   OH2 9731   4.891   4.245   0.403 -0.3068 -0.1849 -0.3841
 3242TIP3    H1 9732   4.967   4.278   0.354  0.5474  1.4058  1.8174
 3242TIP3    H2 9733   4.822   4.310   0.387 -0.2144  0.0119 -0.0097
 3243TIP3   OH2 9734   1.168   2.620   1.239 -0.4985  0.7307 -0.0756
 3243TIP3    H1 9735   1.201   2.534   1.212 -0.0536  0.9050 -0.1063
 3243TIP3    H2 9736   1.170   2.617   1.335  0.1269  0.9254 -0.0745
 3244TIP3   OH2 9737   4.523   5.052   2.713 -0.4989 -0.6721  0.6617
 3244TIP3    H1 9738   4.551   5.043   2.804  1.5860 -3.2380 -0.0815
 3244TIP3    H2 9739   4.605   5.060   2.663 -1.6068  2.3337 -0.9589
 3245TIP3   OH2 9740   0.472   0.840   0.118  0.8505  0.1749 -0.1478
 3245TIP3    H1 9741   0.529   0.883   0.054 -0.9393  3.4488  0.2157
 3245TIP3    H2 9742   0.495   0.882   0.201  0.4380 -1.1664  0.6665
 3246TIP3   OH2 9743   5.668   0.535   2.395  0.2391  0.1750 -0.2921
 3246TIP3    H1 9744   5.661   0.551   2.489 -0.5906  0.0747 -0.3291
 3246TIP3    H2 9745   5.702   0.446   2.389 -1.0127 -0.3513 -0.0627
 3247TIP3   OH2 9746   3.610   1.433   0.521 -0.5599  0.2560 -0.1442
 3247TIP3    H1 9747   3.668   1.503   0.492 -1.3166  0.6757 -0.6483
 3247TIP3    H2 9748   3.524   1.473   0.528 -0.6346 -0.0986  1.6290
 3248TIP3   OH2 9749   2.093   0.298   3.533  0.8815 -0.0764  0.2332
 3248TIP3    H1 9750   2.076   0.387   3.503 -0.9292 -0.0554  1.1845
 3248TIP3    H2 9751   2.024   0.245   3.493  0.3658 -0.5858  1.7180
 3249TIP3   OH2 9752   3.599   2.905   2.198 -0.0873 -0.8397 -0.5920
 3249TIP3    H1 9753   3.529   2.936   2.256 -2.5988 -1.8815 -2.8177
 3249TIP3    H2 9754   3.630   2.985   2.154  2.1678  0.0343  2.2538
 3250TIP3   OH2 9755   1.767   2.476   2.216  0.2108  0.1684  0.3873
 3250TIP3    H1 9756   1.806   2.398   2.176  1.1312  1.2939 -1.0582
 3250TIP3    H2 9757   1.739   2.529   2.141  0.6434  1.7250  1.2845
 3251TIP3   OH2 9758   5.668   5.022   4.292 -0.4252 -0.1800 -0.0881
 3251TIP3    H1 9759   5.748   5.021   4.241 -0.7784 -0.8337 -0.6430
 3251TIP3    H2 9760   5.620   5.098   4.260 -0.8206 -0.8056 -1.0217
 3252TIP3   OH2 9761   0.940   1.811   0.851  0.2960  0.4476  0.1179
 3252TIP3    H1 9762   0.981   1.739   0.897 -1.5432 -0.6994  0.0595
 3252TIP3    H2 9763   0.902   1.865   0.920 -0.7857 -0.2161  0.0588
 3253TIP3   OH2 9764   4.902   0.216   3.048  0.2334 -0.5567  0.2664
 3253TIP3    H1 9765   4.979   0.168   3.078  1.4747 -0.0718 -1.9285
 3253TIP3    H2 9766   4.933   0.306   3.035 -0.7386 -0.3060 -0.4463
 3254TIP3   OH2 9767   0.499   3.069   0.389 -0.3451 -0.0782 -0.1035
 3254TIP3    H1 9768   0.468   2.983   0.419  1.0839 -0.4006  0.5430
 3254TIP3    H2 9769   0.591   3.072   0.416  0.1319  0.9323 -1.6973
 3255TIP3   OH2 9770   5.682   5.665   1.577 -0.1957  0.3031 -0.1545
 3255TIP3    H1 9771   5.753   5.602   1.570 -0.2170  0.4296 -1.9212
 3255TIP3    H2 9772   5.615   5.619   1.628  0.5842 -0.3325  0.3285
 3256TIP3   OH2 9773   3.953   5.074   1.568 -0.1128 -0.1086  0.2252
 3256TIP3    H1 9774   3.943   5.044   1.477 -0.1353  0.5516  0.0038
 3256TIP3    H2 9775   3.993   5.000   1.613  2.2098  0.3934 -0.8639
 3257TIP3   OH2 9776   2.422   5.205   2.452 -0.2067 -0.5512 -0.2200
 3257TIP3    H1 9777   2.505   5.177   2.490 -0.5201 -1.1478  0.0424
 3257TIP3    H2 9778   2.356   5.157   2.502 -0.7449  0.3698 -0.0130
 3258TIP3   OH2 9779   1.876   4.775   1.980  0.0184 -0.0722 -0.0525
 3258TIP3    H1 9780   1.919   4.821   1.907 -1.7027  1.9131  0.0813
 3258TIP3    H2 9781   1.925   4.802   2.058 -0.3011  0.6773 -0.1041
 3259TIP3   OH2 9782   3.800   2.655   2.913 -0.6599  0.1226  0.6490
 3259TIP3    H1 9783   3.791   2.657   2.818 -1.3886 -1.8426  0.6320
 3259TIP3    H2 9784   3.794   2.747   2.940 -1.3265  0.6339 -1.1166
 3260TIP3   OH2 9785   1.429   5.780   1.911  0.6890 -0.8351 -0.2224
 3260TIP3    H1 9786   1.361   5.744   1.855  1.5365  0.1267 -1.9488
 3260TIP3    H2 9787   1.409   5.874   1.916  1.8639 -0.5326 -0.7714
 3261TIP3   OH2 9788   3.720   0.484   2.940 -0.3307  0.1382  0.5266
 3261TIP3    H1 9789   3.730   0.389   2.948  2.4673  0.3891  1.0391
 3261TIP3    H2 9790   3.754   0.505   2.854  0.4898  0.8208  1.0071
 3262TIP3   OH2 9791   2.284   0.141   2.960  0.4971 -0.1629 -0.1683
 3262TIP3    H1 9792   2.303   0.185   2.877  0.6508  2.6122  1.2259
 3262TIP3    H2 9793   2.231   0.203   3.009  2.2918 -0.7132  2.7220
 3263TIP3   OH2 9794   4.371   0.556   5.023  0.2810  0.2462  0.5052
 3263TIP3    H1 9795   4.458   0.525   5.050  1.4128  2.2186 -0.6268
 3263TIP3    H2 9796   4.387   0.644   4.991 -2.2331  0.7719  0.5470
 3264TIP3   OH2 9797   0.696   0.475   4.813 -0.2916 -0.2669  0.0810
 3264TIP3    H1 9798   0.642   0.447   4.887  0.6262 -0.0534  0.8540
 3264TIP3    H2 9799   0.780   0.498   4.852 -0.1831  1.0572 -0.8653
 3265TIP3   OH2 9800   3.854   4.737   3.812 -0.1328 -0.0165  0.1437
 3265TIP3    H1 9801   3.839   4.791   3.735 -0.6911 -0.4110 -0.0276
 3265TIP3    H2 9802   3.816   4.786   3.885 -1.4816 -0.5980 -0.1515
 3266TIP3   OH2 9803   5.753   4.571   1.939 -0.5142  0.1729 -0.2535
 3266TIP3    H1 9804   5.808   4.629   1.886 -0.4423  1.8671  1.5859
 3266TIP3    H2 9805   5.663   4.598   1.918 -0.6441 -1.0852 -1.5571
 3267TIP3   OH2 9806   2.628   2.995   4.587  0.2132 -0.3975 -0.4807
 3267TIP3    H1 9807   2.631   2.904   4.615  1.5981  0.0309  0.9342
 3267TIP3    H2 9808   2.639   2.991   4.492  1.1803 -1.6859 -0.3479
 3268TIP3   OH2 9809   4.712   1.829   2.199 -0.0122  0.2744 -0.0284
 3268TIP3    H1 9810   4.643   1.862   2.141  0.2076 -1.1495 -1.1576
 3268TIP3    H2 9811   4.679   1.846   2.288 -1.6160  0.0365 -0.5506
 3269TIP3   OH2 9812   2.297   1.067   4.996 -0.0022  0.2080 -0.1470
 3269TIP3    H1 9813   2.374   1.010   4.997  0.0155  0.1791 -1.3037
 3269TIP3    H2 9814   2.265   1.062   4.905 -0.7754  1.0077  0.0673
 3270TIP3   OH2 9815   5.284   1.929   3.534  0.0775  0.4146 -0.7675
 3270TIP3    H1 9816   5.363   1.916   3.483  0.8260  0.8730  0.2394
 3270TIP3    H2 9817   5.301   1.883   3.616 -0.2818  1.3612 -0.1492
 3271TIP3   OH2 9818   1.798   0.057   0.227 -0.1980 -0.0940 -0.0825
 3271TIP3    H1 9819   1.724   0.037   0.170  0.0328 -1.4592  0.0759
 3271TIP3    H2 9820   1.838   0.135   0.187 -1.7356  0.7152 -0.1280
 3272TIP3   OH2 9821   1.348   5.504   0.763 -0.3264  0.0809  0.9716
 3272TIP3    H1 9822   1.419   5.467   0.815  1.5414 -0.1928 -1.6236
 3272TIP3    H2 9823   1.387   5.579   0.718 -1.7000  0.0130 -0.4177
 3273TIP3   OH2 9824   3.909   3.130   0.673 -0.3142  0.7056  0.2339
 3273TIP3    H1 9825   4.003   3.114   0.673 -0.3883  0.1924 -0.6342
 3273TIP3    H2 9826   3.873   3.062   0.616 -1.3313  0.2813  1.3361
 3274TIP3   OH2 9827   0.046   4.342   3.257  0.1379  0.0960  0.2372
 3274TIP3    H1 9828   0.128   4.339   3.207 -0.0376 -2.2397 -0.0196
 3274TIP3    H2 9829  -0.021   4.316   3.195 -0.7365  1.3524  0.6224
 3275TIP3   OH2 9830   4.963   0.400   4.292  0.2495 -0.0674  0.0392
 3275TIP3    H1 9831   5.052   0.408   4.256 -0.1281  3.5283 -0.4196
 3275TIP3    H2 9832   4.913   0.359   4.222  1.4861 -2.2564  0.3463
 3276TIP3   OH2 9833   3.255   4.893   3.418  0.1461  0.1406  0.0354
 3276TIP3    H1 9834   3.180   4.842   3.387 -1.6697  2.7001 -0.1037
 3276TIP3    H2 9835   3.328   4.863   3.364 -1.1602 -1.1686 -1.0988
 3277TIP3   OH2 9836   3.108   2.756   1.874  0.4515  0.3835  0.0720
 3277TIP3    H1 9837   3.172   2.702   1.827 -2.1042 -1.7677 -1.2025
 3277TIP3    H2 9838   3.045   2.694   1.910 -0.5400  2.3379  2.0058
 3278TIP3   OH2 9839   3.722   1.598   3.891  0.1815 -0.3217 -0.2814
 3278TIP3    H1 9840   3.672   1.621   3.812 -2.8506 -0.7646  1.3451
 3278TIP3    H2 9841   3.743   1.505   3.881 -0.5644 -0.4822 -0.3931
 3279TIP3   OH2 9842   5.626   3.649   0.889 -0.5643  0.0375 -0.2687
 3279TIP3    H1 9843   5.672   3.696   0.958  2.0854 -0.9010 -1.2409
 3279TIP3    H2 9844   5.688   3.581   0.861 -1.7007  0.0550 -3.1876
 3280TIP3   OH2 9845   1.610   2.132   3.809  0.3692  0.8412  0.4046
 3280TIP3    H1 9846   1.555   2.067   3.854 -0.7741 -0.0820 -2.1572
 3280TIP3    H2 9847   1.687   2.082   3.782 -0.1583  0.7052 -0.8981
 3281TIP3   OH2 9848   4.903   0.939   3.936 -0.2778 -0.5243  0.4030
 3281TIP3    H1 9849   4.957   0.907   3.865 -0.3213 -0.4618  0.3415
 3281TIP3    H2 9850   4.903   1.034   3.926  1.5993 -0.3236  1.8369
 3282TIP3   OH2 9851   5.293   3.417   4.629  0.2417  0.9657 -0.2827
 3282TIP3    H1 9852   5.382   3.425   4.663  0.1375  3.4667 -0.4065
 3282TIP3    H2 9853   5.304   3.388   4.539  0.6841 -2.1531  0.6554
 3283TIP3   OH2 9854   1.384   0.168   0.665 -0.0844 -0.2973 -0.0366
 3283TIP3    H1 9855   1.436   0.111   0.608  0.8242 -0.1324  0.5914
 3283TIP3    H2 9856   1.295   0.135   0.657  0.0047 -0.2043 -1.6130
 3284TIP3   OH2 9857   1.538   3.668   3.532  0.0283  0.1642  0.1125
 3284TIP3    H1 9858   1.570   3.722   3.459 -1.2585 -1.1827 -1.5190
 3284TIP3    H2 9859   1.449   3.698   3.547  0.1583  0.1762  0.8965
 3285TIP3   OH2 9860   2.342   4.255   0.326  0.5238  0.0980 -0.5589
 3285TIP3    H1 9861   2.390   4.319   0.273 -0.5173  2.1103  0.8002
 3285TIP3    H2 9862   2.255   4.252   0.287  0.0889  0.7621  0.3146
 3286TIP3   OH2 9863   0.063   1.440   4.961 -0.1600  0.1044  0.0807
 3286TIP3    H1 9864   0.152   1.414   4.983  0.3900  2.3658  0.8590
 3286TIP3    H2 9865   0.007   1.380   5.010  0.9571 -0.5082  0.6525
 3287TIP3   OH2 9866   3.494   4.920   4.064  0.4214 -0.2082 -0.1725
 3287TIP3    H1 9867   3.512   4.940   4.155  1.2742  0.0766 -0.3973
 3287TIP3    H2 9868   3.403   4.888   4.064  1.4121 -3.3773  1.2509
 3288TIP3   OH2 9869   2.529   1.300   1.267 -0.3634 -0.2166 -0.3214
 3288TIP3    H1 9870   2.569   1.235   1.208  1.5998  0.5862  0.0457
 3288TIP3    H2 9871   2.551   1.270   1.355 -2.1535 -0.6977  0.0003
 3289TIP3   OH2 9872   1.855   3.184   3.272 -0.1919  0.5475  0.6063
 3289TIP3    H1 9873   1.939   3.223   3.299 -0.1814 -0.7653  2.7191
 3289TIP3    H2 9874   1.837   3.119   3.339 -0.8502 -2.1952 -2.0052
 3290TIP3   OH2 9875   6.102   3.308   4.872  0.2327  0.4153 -0.0747
 3290TIP3    H1 9876   6.151   3.241   4.921  0.5887  1.6010  1.2598
 3290TIP3    H2 9877   6.011   3.281   4.881  0.4081 -0.2105 -0.0543
 3291TIP3   OH2 9878   0.258   0.270   2.961 -0.5342  0.4951  0.3232
 3291TIP3    H1 9879   0.276   0.362   2.939  0.6518 -0.2048 -1.9997
 3291TIP3    H2 9880   0.340   0.237   2.998  0.1160 -0.3400 -1.6979
 3292TIP3   OH2 9881   3.990   2.736   2.008  0.7319  0.5060  0.1366
 3292TIP3    H1 9882   3.942   2.707   2.085  0.8835  0.2157  0.1232
 3292TIP3    H2 9883   3.938   2.809   1.973  0.9163  0.9517  0.7790
 3293TIP3   OH2 9884   1.395   4.297   2.315 -0.6383 -0.0618 -0.7265
 3293TIP3    H1 9885   1.459   4.301   2.385 -1.7422  0.1910  0.2955
 3293TIP3    H2 9886   1.447   4.289   2.235  0.6565  0.2670  0.0612
 3294TIP3   OH2 9887   0.495   2.420   1.156 -0.3768  0.8644  0.0797
 3294TIP3    H1 9888   0.552   2.395   1.083 -3.1260 -1.1762 -1.5519
 3294TIP3    H2 9889   0.513   2.355   1.223 -0.1018  0.8318 -0.0223
 3295TIP3   OH2 9890   3.637   1.100   3.000 -0.0964  0.2216  0.1507
 3295TIP3    H1 9891   3.617   1.007   2.986  1.0001 -0.0613  0.4126
 3295TIP3    H2 9892   3.577   1.128   3.069  0.0904 -0.4837  0.5983
 3296TIP3   OH2 9893   1.592   3.572   3.789 -0.1552 -0.0181  0.1296
 3296TIP3    H1 9894   1.587   3.579   3.694 -2.5220  0.7910  0.2459
 3296TIP3    H2 9895   1.520   3.514   3.813 -1.1690  1.6938  1.5423
 3297TIP3   OH2 9896   3.813   0.716   0.369  0.5935  0.4963 -0.4676
 3297TIP3    H1 9897   3.846   0.658   0.301 -0.8792  0.9116 -1.5992
 3297TIP3    H2 9898   3.858   0.689   0.449  1.2295 -1.0228 -1.3120
 3298TIP3   OH2 9899   2.359   1.217   0.044 -0.1351 -0.1851 -0.0646
 3298TIP3    H1 9900   2.322   1.298   0.007 -0.1967  0.2693  0.9599
 3298TIP3    H2 9901   2.453   1.226   0.032 -0.2751 -1.5799 -3.1642
 3299TIP3   OH2 9902   2.363   4.591   4.019 -0.2743  0.7216  0.0833
 3299TIP3    H1 9903   2.396   4.578   3.930 -0.0851  1.7555 -0.0057
 3299TIP3    H2 9904   2.397   4.516   4.068 -0.6172 -0.0068 -0.7703
 3300TIP3   OH2 9905   0.796   5.734   5.143  0.3835  0.5288  0.9805
 3300TIP3    H1 9906   0.851   5.670   5.189  0.9856  1.0415  0.9910
 3300TIP3    H2 9907   0.833   5.819   5.168  0.6139  0.8267 -0.3038
 3301TIP3   OH2 9908   4.907   4.417   4.255  0.1633  0.5429  0.1606
 3301TIP3    H1 9909   4.884   4.393   4.344  0.2775 -0.9857 -0.1938
 3301TIP3    H2 9910   4.875   4.345   4.201  2.0119  0.3694 -0.8043
 3302TIP3   OH2 9911   2.193   0.357   2.730  0.0419  0.1594 -0.3186
 3302TIP3    H1 9912   2.159   0.429   2.783  0.7492 -0.0038  0.3735
 3302TIP3    H2 9913   2.145   0.363   2.647  0.3076  1.6278 -0.3940
 3303TIP3   OH2 9914   2.228   3.952   0.106 -0.3810 -0.1659  0.4120
 3303TIP3    H1 9915   2.177   3.925   0.182 -2.7280  1.2299 -0.5261
 3303TIP3    H2 9916   2.163   3.992   0.047  1.8392  1.9084 -0.8290
 3304TIP3   OH2 9917   5.909   5.520   0.105 -0.5669  0.1831  0.0796
 3304TIP3    H1 9918   5.887   5.476   0.022 -1.8322 -0.0753  0.5252
 3304TIP3    H2 9919   6.000   5.548   0.094 -1.1658  1.5501 -2.0373
 3305TIP3   OH2 9920   0.403   2.029   3.247 -0.0947 -0.2825 -0.3730
 3305TIP3    H1 9921   0.395   2.120   3.278 -0.0071 -0.1018 -0.8649
 3305TIP3    H2 9922   0.405   2.037   3.152 -2.0481 -0.9493 -0.5239
 3306TIP3   OH2 9923   3.948   3.962   4.663  0.8293 -0.5016 -0.6908
 3306TIP3    H1 9924   3.859   3.982   4.631  0.8254  0.2258 -0.2644
 3306TIP3    H2 9925   3.952   4.006   4.748  1.3434 -1.1758 -0.3626
 3307TIP3   OH2 9926   4.482   2.401   2.574  0.2940  0.5769 -0.2137
 3307TIP3    H1 9927   4.417   2.400   2.644  1.5762 -1.9850  1.0627
 3307TIP3    H2 9928   4.552   2.458   2.607  0.9287 -0.6824  0.6771
 3308TIP3   OH2 9929   0.381   5.271   4.863 -0.0397 -0.0313 -0.1950
 3308TIP3    H1 9930   0.410   5.181   4.854 -1.1658 -0.8624  3.0636
 3308TIP3    H2 9931   0.285   5.265   4.865 -0.2817  1.6224 -2.4722
 3309TIP3   OH2 9932   0.955   5.060   2.969  0.0396  0.2733  0.2530
 3309TIP3    H1 9933   0.924   5.094   3.053  3.0398 -0.4842  1.8053
 3309TIP3    H2 9934   0.931   4.967   2.970  0.3509  0.1924  0.4423
 3310TIP3   OH2 9935   2.418   1.796   3.381  0.1019 -0.1335 -0.1930
 3310TIP3    H1 9936   2.435   1.777   3.473  1.1984  1.5006 -0.0165
 3310TIP3    H2 9937   2.492   1.758   3.334  0.6347  0.8289 -0.1615
 3311TIP3   OH2 9938   0.973   4.237   4.241  0.1441  0.0203  0.3025
 3311TIP3    H1 9939   0.934   4.298   4.305 -1.4649  0.2583 -0.8411
 3311TIP3    H2 9940   0.924   4.156   4.253  0.6931 -0.3227  0.2238
 3312TIP3   OH2 9941   5.758   3.739   2.771 -0.0149  0.2895 -0.3201
 3312TIP3    H1 9942   5.845   3.779   2.765 -0.2792  1.2358  1.3602
 3312TIP3    H2 9943   5.706   3.782   2.703  0.1025  1.7969  0.5026
 3313TIP3   OH2 9944   3.853   0.301   0.031  0.3007 -0.4722 -0.3471
 3313TIP3    H1 9945   3.947   0.296   0.015  0.0775  0.2308 -2.1453
 3313TIP3    H2 9946   3.817   0.222  -0.010 -0.1451  0.6293 -2.1674
 3314TIP3   OH2 9947   3.699   2.864   1.408  0.0588  0.2278 -0.2818
 3314TIP3    H1 9948   3.732   2.774   1.410 -0.9350 -0.1444  0.8884
 3314TIP3    H2 9949   3.706   2.890   1.316  1.8436 -0.4654 -0.3825
 3315TIP3   OH2 9950   3.495   2.315   2.288  0.5485  0.4818 -0.2527
 3315TIP3    H1 9951   3.478   2.323   2.195  1.0680  0.0393 -0.3922
 3315TIP3    H2 9952   3.526   2.402   2.314  1.4980  0.3002 -0.7344
 3316TIP3   OH2 9953   2.255   5.354   4.541 -0.0632  0.4681  0.7515
 3316TIP3    H1 9954   2.210   5.344   4.625 -2.4809 -0.9591 -0.5966
 3316TIP3    H2 9955   2.282   5.265   4.518 -1.8042  0.3625 -1.1434
 3317TIP3   OH2 9956   1.773   5.113   4.780  0.1365 -0.3823  0.2635
 3317TIP3    H1 9957   1.853   5.075   4.816 -0.4864 -3.5063 -1.2368
 3317TIP3    H2 9958   1.703   5.067   4.826 -0.7075 -0.2266 -0.8340
 3318TIP3   OH2 9959   0.648   4.996   3.289 -0.4119 -0.1518 -0.2000
 3318TIP3    H1 9960   0.711   5.046   3.237  0.4348 -0.5566  0.4082
 3318TIP3    H2 9961   0.602   5.061   3.341  0.5357  0.0374  0.4316
 3319TIP3   OH2 9962   2.448   4.687   2.348  0.1789  0.3042 -0.3514
 3319TIP3    H1 9963   2.433   4.678   2.254 -2.3547 -1.5575  0.1311
 3319TIP3    H2 9964   2.513   4.620   2.368 -0.4061 -0.3444 -0.5724
 3320TIP3   OH2 9965   4.852   2.390   4.315  0.6220 -0.1462  0.0591
 3320TIP3    H1 9966   4.805   2.394   4.231  1.6690 -1.2201 -0.6063
 3320TIP3    H2 9967   4.863   2.296   4.331  0.3014  0.0468  1.4876
 3321TIP3   OH2 9968   4.609   3.645   0.948  0.0792  0.2718 -0.4706
 3321TIP3    H1 9969   4.601   3.628   1.042 -0.0118 -1.5052 -0.7684
 3321TIP3    H2 9970   4.567   3.730   0.936 -0.0263  0.4754  1.0693
 3322TIP3   OH2 9971   3.986   1.552   2.531 -0.3943 -0.2692 -0.1957
 3322TIP3    H1 9972   3.943   1.477   2.573  0.9915 -1.2245 -0.4112
 3322TIP3    H2 9973   3.914   1.611   2.508 -1.5608 -1.6694 -0.2956
 3323TIP3   OH2 9974   5.916   4.438   4.566 -0.0488 -0.4514  0.1990
 3323TIP3    H1 9975   5.897   4.349   4.535 -2.5422 -0.1964  0.7969
 3323TIP3    H2 9976   5.890   4.437   4.658  2.0324  0.3198  0.8347
 3324TIP3   OH2 9977   3.041   4.689   1.981  0.0225  0.2541  0.6922
 3324TIP3    H1 9978   2.971   4.751   2.005 -1.6337 -1.6661  1.0671
 3324TIP3    H2 9979   2.996   4.618   1.936  1.8169 -0.8264  0.5044
 3325TIP3   OH2 9980   0.843   4.864   3.827 -0.5757 -0.3017 -0.0410
 3325TIP3    H1 9981   0.764   4.889   3.874 -1.1030 -2.1109  0.1232
 3325TIP3    H2 9982   0.825   4.886   3.736 -0.3996  1.2439  0.2762
 3326TIP3   OH2 9983   5.619   3.555   0.477  0.1271 -0.0531 -0.3007
 3326TIP3    H1 9984   5.602   3.630   0.420 -0.9787 -0.2334 -0.2433
 3326TIP3    H2 9985   5.536   3.543   0.525  0.3731 -1.1507 -0.1283
 3327TIP3   OH2 9986   1.858   1.152   0.360  0.0954  0.5450 -0.0984
 3327TIP3    H1 9987   1.814   1.153   0.445 -0.1025  0.0189 -0.1905
 3327TIP3    H2 9988   1.929   1.216   0.369 -0.5238  1.2036  0.1330
 3328TIP3   OH2 9989   1.605   4.977   2.455 -0.0348 -0.0934  0.5479
 3328TIP3    H1 9990   1.577   4.959   2.545 -0.3024 -0.5096  0.3823
 3328TIP3    H2 9991   1.565   5.061   2.434 -1.2926 -0.7444  0.2658
 3329TIP3   OH2 9992   6.247   4.811   1.824 -0.4070 -0.9697  0.3414
 3329TIP3    H1 9993   6.322   4.827   1.881 -0.1786  0.6607 -0.3739
 3329TIP3    H2 9994   6.172   4.808   1.884 -0.4319  2.5130  0.6918
 3330TIP3   OH2 9995   4.745   2.923   1.049 -0.5056 -0.2031  0.2006
 3330TIP3    H1 9996   4.717   2.846   1.099  1.1286 -0.2902  1.0592
 3330TIP3    H2 9997   4.779   2.887   0.967 -0.2765 -0.3482  0.3578
 3331TIP3   OH2 9998   2.655   2.594   4.430  0.0447  0.3252 -0.4012
 3331TIP3    H1 9999   2.587   2.537   4.393 -0.2793  0.9346 -0.7574
 3331TIP3    H210000   2.712   2.616   4.357  1.4873 -1.3160  0.1502
 3332TIP3   OH210001   2.408   1.764   3.045  0.0454  0.4434  0.4126
 3332TIP3    H110002   2.404   1.850   3.088  0.7833 -0.4120  2.3169
 3332TIP3    H210003   2.482   1.720   3.087 -0.8738 -1.4607  0.1345
 3333TIP3   OH210004   2.878   1.118   4.624 -0.4080  0.1295  0.6538
 3333TIP3    H110005   2.894   1.112   4.718  2.3951 -0.0609  0.2281
 3333TIP3    H210006   2.932   1.048   4.586 -1.7108  0.0090 -1.1074
 3334TIP3   OH210007   4.285   2.086   0.662  0.1342 -0.8637  0.4164
 3334TIP3    H110008   4.210   2.100   0.719  0.7759  0.1723  1.0497
 3334TIP3    H210009   4.360   2.083   0.721  0.9605  1.4264 -0.3686
 3335TIP3   OH210010   0.285   2.721   0.949  0.5944 -0.1527 -0.0124
 3335TIP3    H110011   0.333   2.779   1.008  0.9075  1.2315 -1.5591
 3335TIP3    H210012   0.194   2.748   0.958  0.6434  0.0651 -0.1568
 3336TIP3   OH210013   6.218   4.118   2.042 -0.2579  0.0148  0.1891
 3336TIP3    H110014   6.288   4.160   2.093 -0.4940  0.2664  0.3104
 3336TIP3    H210015   6.175   4.190   1.995 -2.4350  0.3786  2.5021
 3337TIP3   OH210016   3.187   4.490   3.307  0.5704  0.0357  0.4021
 3337TIP3    H110017   3.132   4.565   3.286  0.1606 -0.3115  0.2168
 3337TIP3    H210018   3.275   4.515   3.277 -0.0955 -0.7000 -2.4070
 3338TIP3   OH210019   4.528   4.641   4.379 -0.0992 -0.3113  0.4478
 3338TIP3    H110020   4.442   4.670   4.350 -1.1647 -1.0987  2.6192
 3338TIP3    H210021   4.558   4.709   4.440  2.0409  1.2612 -2.1464
 3339TIP3   OH210022   1.285   5.258   3.539 -0.2640  0.5221  0.0646
 3339TIP3    H110023   1.230   5.331   3.569 -1.1956 -0.7156  1.4869
 3339TIP3    H210024   1.275   5.258   3.444  0.3447  2.6811 -0.0491
 3340TIP3   OH210025   0.582   0.606   2.045  0.2294  0.7163  0.1353
 3340TIP3    H110026   0.530   0.662   2.103  1.5300  1.0298  1.0386
 3340TIP3    H210027   0.563   0.638   1.957 -2.8835 -0.6596  0.1593
 3341TIP3   OH210028   4.035   0.109   4.731 -0.1464 -0.3606 -0.1786
 3341TIP3    H110029   4.058   0.037   4.790 -0.4680  1.0779  1.7676
 3341TIP3    H210030   4.113   0.121   4.677  0.7836 -0.6519  1.0563
 3342TIP3   OH210031   2.803   2.872   2.500  0.1309 -0.5281 -0.0698
 3342TIP3    H110032   2.786   2.910   2.414  1.4837  0.2800 -0.0141
 3342TIP3    H210033   2.750   2.793   2.502 -0.1578 -0.4059 -1.5334
 3343TIP3   OH210034   5.813   1.672   1.278  0.1752 -0.1150 -0.0948
 3343TIP3    H110035   5.894   1.621   1.275  0.4004 -0.0382  2.2850
 3343TIP3    H210036   5.753   1.618   1.330  0.4281  1.9309  2.5240
 3344TIP3   OH210037   4.096   2.824   2.592  0.2087  0.0883  0.9177
 3344TIP3    H110038   4.095   2.917   2.615  2.4130  0.6794 -0.9741
 3344TIP3    H210039   4.177   2.791   2.633 -0.1048 -0.7855  0.8483
 3345TIP3   OH210040   5.253   5.569   0.747 -0.4649  0.7961  0.0451
 3345TIP3    H110041   5.243   5.540   0.656 -1.2552 -0.8324  0.6000
 3345TIP3    H210042   5.328   5.627   0.746  0.3619 -0.2303 -1.4328
 3346TIP3   OH210043   6.241   3.089   2.408 -0.2264 -0.5684 -0.1961
 3346TIP3    H110044   6.208   3.068   2.320 -1.3780  0.4043 -0.0153
 3346TIP3    H210045   6.238   3.184   2.413  1.2247 -0.5298  0.3929
 3347TIP3   OH210046   4.509   2.245   4.474  0.3562 -0.0555  0.0998
 3347TIP3    H110047   4.499   2.150   4.476  1.8987 -0.3719 -2.6295
 3347TIP3    H210048   4.451   2.274   4.404  0.9736  0.8201 -0.0660
 3348TIP3   OH210049   1.760   5.668   5.026 -0.0054  0.1287 -0.1755
 3348TIP3    H110050   1.793   5.662   5.116 -0.4029 -0.5489 -0.0693
 3348TIP3    H210051   1.809   5.601   4.978 -1.3421 -1.0537  0.0336
 3349TIP3   OH210052   2.941   5.511   2.970  0.0043 -0.2917  0.5501
 3349TIP3    H110053   3.012   5.572   2.990 -0.8829  0.9371  0.1059
 3349TIP3    H210054   2.984   5.426   2.960  1.7478  0.7534 -1.8536
 3350TIP3   OH210055   0.102   2.457   1.466  0.0303  0.3308 -0.1135
 3350TIP3    H110056   0.175   2.404   1.499  0.8990  2.5848  1.9583
 3350TIP3    H210057   0.027   2.431   1.520  0.4548  1.1206  0.9032
 3351TIP3   OH210058   1.200   0.329   0.939 -0.2388  0.1569 -0.2154
 3351TIP3    H110059   1.170   0.346   1.028  1.2601  1.6981  0.0561
 3351TIP3    H210060   1.214   0.416   0.901  2.0842 -0.4230 -0.8799
 3352TIP3   OH210061   2.993   3.057   2.032 -0.0823 -0.6771 -0.4515
 3352TIP3    H110062   3.078   3.017   2.051  0.1386 -1.3680 -2.6172
 3352TIP3    H210063   3.010   3.151   2.032 -0.0901 -0.5972  2.3550
 3353TIP3   OH210064   0.110   1.905   0.915 -0.1983  0.3528 -0.2173
 3353TIP3    H110065   0.196   1.868   0.939 -0.5081 -0.7230 -0.7196
 3353TIP3    H210066   0.049   1.865   0.977 -0.8770 -1.7845 -2.1182
 3354TIP3   OH210067   5.345   3.127   1.209 -0.4816 -0.2514  0.3554
 3354TIP3    H110068   5.433   3.095   1.189 -0.6302  0.1455 -1.0540
 3354TIP3    H210069   5.296   3.048   1.231  0.3354 -0.4189  1.7100
 3355TIP3   OH210070   5.662   1.785   0.535 -0.0836 -0.5832  0.2187
 3355TIP3    H110071   5.695   1.734   0.608 -0.2326  0.4045  1.0008
 3355TIP3    H210072   5.726   1.772   0.465  0.3520 -1.0868  0.7050
 3356TIP3   OH210073   5.851   4.494   4.825  0.0627  0.0626 -0.1598
 3356TIP3    H110074   5.809   4.577   4.802  0.9676  0.9344  1.1804
 3356TIP3    H210075   5.945   4.512   4.819  0.3544 -1.7168 -2.6501
 3357TIP3   OH210076   4.961   0.517   1.617 -0.5927  0.1272 -0.5634
 3357TIP3    H110077   5.047   0.558   1.626 -0.9796  0.9172 -0.3757
 3357TIP3    H210078   4.927   0.550   1.534 -0.2811 -1.0340 -1.1799
 3358TIP3   OH210079   2.823   0.012   3.464 -1.1259 -0.5362 -0.5277
 3358TIP3    H110080   2.757   0.006   3.395  0.4360 -1.7256 -2.0100
 3358TIP3    H210081   2.777  -0.014   3.544 -2.7603 -0.0334 -1.2660
 3359TIP3   OH210082   4.966   2.990   3.905 -0.1793  0.2604 -0.3552
 3359TIP3    H110083   4.927   3.006   3.991  1.7045  0.3641  0.5506
 3359TIP3    H210084   5.008   2.904   3.915 -0.0493  0.2210 -1.2172
 3360TIP3   OH210085   4.041   5.392   3.534  0.0021  0.4108  0.2496
 3360TIP3    H110086   3.972   5.339   3.572  0.0458  0.0012 -0.2337
 3360TIP3    H210087   4.069   5.449   3.606  0.8191 -1.0653  1.1576
 3361TIP3   OH210088   3.114   2.362   4.072  0.4654  0.3114 -0.5111
 3361TIP3    H110089   3.153   2.312   4.001  1.3073  0.5914 -0.2525
 3361TIP3    H210090   3.085   2.443   4.031 -0.7541 -0.2944 -0.8979
 3362TIP3   OH210091   3.407   5.728   0.420 -0.1663 -0.2271  0.6458
 3362TIP3    H110092   3.482   5.680   0.453 -0.2647 -0.5598  0.3841
 3362TIP3    H210093   3.362   5.759   0.499 -1.5729 -2.7888  0.9443
 3363TIP3   OH210094   1.843   2.053   2.300  0.0154  0.0587  0.3341
 3363TIP3    H110095   1.755   2.074   2.269 -0.0407  0.8835  0.9973
 3363TIP3    H210096   1.837   2.058   2.396  0.8168  0.3136  0.3824
 3364TIP3   OH210097   4.560   0.946   1.104  0.0104 -0.1715  0.1670
 3364TIP3    H110098   4.469   0.942   1.076 -0.1077 -1.2347  0.6689
 3364TIP3    H210099   4.583   1.039   1.099 -0.6744 -0.0518 -1.2897
 3365TIP3   OH210100   5.912   5.385   2.869  0.3445  0.1281  0.4048
 3365TIP3    H110101   5.870   5.374   2.955 -2.3116 -1.1254 -0.9140
 3365TIP3    H210102   5.900   5.478   2.849 -1.4298 -0.0659  0.3410
 3366TIP3   OH210103   5.699   4.273   2.987 -0.3361 -0.3525  0.7023
 3366TIP3    H110104   5.667   4.331   2.918 -1.1448 -2.5485 -0.8787
 3366TIP3    H210105   5.685   4.322   3.068  0.6266  2.3170 -0.6115
 3367TIP3   OH210106   3.878   2.259   3.796  0.9614 -0.3801  0.1511
 3367TIP3    H110107   3.954   2.313   3.818  2.0309 -1.2110 -1.2727
 3367TIP3    H210108   3.890   2.179   3.846  2.7086 -1.7403 -2.2118
 3368TIP3   OH210109   0.154   3.619   1.569  0.4185  0.0689  0.0043
 3368TIP3    H110110   0.180   3.679   1.639  0.5807  0.7898 -0.6643
 3368TIP3    H210111   0.060   3.636   1.558  0.3973 -0.0314  0.0335
 3369TIP3   OH210112   0.734   3.543   5.170 -0.5779  0.2352  0.0954
 3369TIP3    H110113   0.780   3.459   5.165 -1.6601 -0.3283 -0.7057
 3369TIP3    H210114   0.803   3.608   5.158  0.0831 -0.5709 -0.6208
 3370TIP3   OH210115   4.436   2.991   3.724 -0.2021 -0.0626  0.6177
 3370TIP3    H110116   4.459   3.019   3.813 -0.2660 -1.1894  1.0059
 3370TIP3    H210117   4.354   3.037   3.705 -0.0394  0.4005  1.0360
 3371TIP3   OH210118   0.557   4.333   0.612  0.1589 -0.3312  0.2343
 3371TIP3    H110119   0.649   4.310   0.597  1.3644  3.0684  1.4635
 3371TIP3    H210120   0.541   4.309   0.704  0.4292  0.6578  0.5559
 3372TIP3   OH210121   2.412   1.670   0.821 -0.0185 -0.3768 -0.1548
 3372TIP3    H110122   2.412   1.642   0.912  2.3559 -0.0573  0.0203
 3372TIP3    H210123   2.473   1.610   0.778  1.7815  1.6860 -0.6885
 3373TIP3   OH210124   4.312   4.394   2.119 -0.1301  0.1598 -0.5772
 3373TIP3    H110125   4.359   4.315   2.092  0.7042  0.6487 -0.5938
 3373TIP3    H210126   4.220   4.372   2.107  0.0607 -0.9946 -0.0751
 3374TIP3   OH210127   6.352   5.470   1.215  0.3694 -0.0171  0.3220
 3374TIP3    H110128   6.268   5.457   1.170  1.0144  0.1346 -0.9748
 3374TIP3    H210129   6.366   5.387   1.262 -1.1339  0.4499  1.6952
 3375TIP3   OH210130   3.959   5.569   2.409 -0.3108 -0.1454 -0.2362
 3375TIP3    H110131   3.879   5.619   2.393  0.7907  1.5671 -0.6682
 3375TIP3    H210132   4.028   5.635   2.412  0.8321 -1.3128  2.3655
 3376TIP3   OH210133   2.239   3.626   4.431 -0.9090 -0.4766  0.3775
 3376TIP3    H110134   2.227   3.608   4.524 -2.8414  0.3400  0.3432
 3376TIP3    H210135   2.178   3.697   4.413  2.7326  2.7676 -0.5382
 3377TIP3   OH210136   1.055   0.262   2.674  0.1208 -0.2657 -0.5028
 3377TIP3    H110137   0.988   0.291   2.612 -0.9513 -0.9332  0.3130
 3377TIP3    H210138   1.057   0.167   2.666 -0.3622 -0.4131  0.7786
 3378TIP3   OH210139   4.284   4.284   1.109 -0.6374  0.1142  0.2048
 3378TIP3    H110140   4.249   4.288   1.020 -0.3443 -0.4417  0.0569
 3378TIP3    H210141   4.252   4.364   1.151  0.3334  1.0807 -0.8145
 3379TIP3   OH210142   3.859   3.593   0.779  0.1750 -0.6592 -0.5121
 3379TIP3    H110143   3.874   3.510   0.823 -0.1803 -0.6126 -0.2962
 3379TIP3    H210144   3.841   3.655   0.850  2.4617  0.0733 -0.5000
 3380TIP3   OH210145   4.060   1.566   0.482  0.4189 -0.4870  0.6487
 3380TIP3    H110146   4.136   1.619   0.458 -0.4229 -0.8014 -3.2305
 3380TIP3    H210147   4.067   1.488   0.426 -1.4622 -1.7424  2.0436
 3381TIP3   OH210148   2.136   0.980   4.340 -0.4989  0.0532  0.0132
 3381TIP3    H110149   2.143   0.898   4.291 -0.5119  0.8002 -1.2835
 3381TIP3    H210150   2.200   0.971   4.411 -1.3325 -1.5401  0.6109
 3382TIP3   OH210151   0.684   2.160   4.174  0.1269 -0.1676  0.3507
 3382TIP3    H110152   0.735   2.143   4.253 -1.4359  0.9638  1.6696
 3382TIP3    H210153   0.744   2.140   4.102  0.9029 -3.4747  1.7330
 3383TIP3   OH210154   5.529   4.301   2.449  0.3406  0.1928 -0.2602
 3383TIP3    H110155   5.538   4.393   2.474 -0.6276  0.2703 -0.1563
 3383TIP3    H210156   5.536   4.253   2.532  0.3613  0.2157 -0.2490
 3384TIP3   OH210157   5.929   3.255   2.508 -0.0035  0.2975 -0.0393
 3384TIP3    H110158   5.918   3.343   2.543 -0.0441 -0.1604  1.1441
 3384TIP3    H210159   5.918   3.265   2.413 -0.8376  1.4174  0.1622
 3385TIP3   OH210160   3.902   4.138   4.117 -0.2484 -0.2376 -0.3909
 3385TIP3    H110161   3.932   4.055   4.154  1.0877  0.0820 -0.7024
 3385TIP3    H210162   3.912   4.127   4.023 -2.2524 -0.5230 -0.6054
 3386TIP3   OH210163   1.370   1.944   2.840  0.0899  0.2716  0.0147
 3386TIP3    H110164   1.391   2.016   2.780 -1.1938 -0.1095 -0.9323
 3386TIP3    H210165   1.363   1.867   2.785  3.2247 -1.0435  1.2254
 3387TIP3   OH210166   0.498   2.362   2.722  0.2366  1.0013  0.6634
 3387TIP3    H110167   0.416   2.387   2.680  0.6745  1.2516 -0.0693
 3387TIP3    H210168   0.565   2.381   2.656  0.6164 -2.5462 -0.2140
 3388TIP3   OH210169   4.236   0.024   3.616 -0.3626 -0.0768 -0.1062
 3388TIP3    H110170   4.305   0.015   3.551 -1.2109  1.3248 -1.2619
 3388TIP3    H210171   4.158   0.048   3.566 -1.1823  0.4927  1.3628
 3389TIP3   OH210172   4.245   0.027   2.146 -0.1017 -0.9253 -0.2960
 3389TIP3    H110173   4.284   0.093   2.088  0.8816 -1.8574 -0.7102
 3389TIP3    H210174   4.304   0.023   2.221 -1.2114  0.0586  0.6692
 3390TIP3   OH210175   1.528   4.588   0.774  0.1957  0.1224 -0.0131
 3390TIP3    H110176   1.497   4.502   0.746 -0.6604  0.4149 -0.0203
 3390TIP3    H210177   1.583   4.619   0.703  1.3592 -0.8483  0.4439
 3391TIP3   OH210178   0.572   1.878   0.163 -0.0376  0.4463 -0.3435
 3391TIP3    H110179   0.484   1.849   0.189  0.2200 -0.1857 -0.1565
 3391TIP3    H210180   0.631   1.820   0.211  0.4728  0.1773 -1.2792
 3392TIP3   OH210181   2.081   1.602   1.869 -0.3144  0.6369 -0.6643
 3392TIP3    H110182   2.040   1.524   1.905  0.4533 -0.0408 -1.2206
 3392TIP3    H210183   2.031   1.675   1.905  0.7747  0.0561  2.3135
 3393TIP3   OH210184   4.795   4.173   4.773 -0.0375 -0.1660  0.0872
 3393TIP3    H110185   4.807   4.118   4.695  0.1287 -1.8473  1.2600
 3393TIP3    H210186   4.883   4.181   4.810 -0.1926  0.2109  0.3753
 3394TIP3   OH210187   2.071   4.313   2.983 -0.5260  0.3998 -0.9131
 3394TIP3    H110188   2.020   4.358   3.051  0.2839 -0.6270  0.4203
 3394TIP3    H210189   2.082   4.224   3.016 -0.1309 -0.1361 -2.4204
 3395TIP3   OH210190   4.418   5.512   1.702  0.1360 -0.2720 -0.0968
 3395TIP3    H110191   4.509   5.519   1.673  0.3499  1.7602  0.8882
 3395TIP3    H210192   4.367   5.506   1.621  1.0687 -0.2116 -0.7053
 3396TIP3   OH210193   3.264   0.028   4.604 -0.1532 -0.2037  1.1583
 3396TIP3    H110194   3.337  -0.001   4.551  0.1127  1.6103  0.4592
 3396TIP3    H210195   3.273  -0.020   4.686  0.4716 -1.7008  0.2545
 3397TIP3   OH210196   5.151   0.014   3.311  0.1985 -1.1615  0.8667
 3397TIP3    H110197   5.171   0.003   3.404 -1.7198 -0.4024  1.4202
 3397TIP3    H210198   5.056   0.001   3.306  0.6043 -4.5827 -1.5472
 3398TIP3   OH210199   0.946   3.518   1.550  0.4008  0.4334  0.7787
 3398TIP3    H110200   0.861   3.560   1.540  0.1233 -0.2142  0.3653
 3398TIP3    H210201   0.940   3.439   1.496  1.6840  1.0057 -0.2626
 3399TIP3   OH210202   1.234   1.338   2.729  0.1812  0.3317  0.5574
 3399TIP3    H110203   1.222   1.330   2.823  3.3698 -1.7808  0.9145
 3399TIP3    H210204   1.198   1.424   2.707 -1.5453  0.4570  3.4749
 3400TIP3   OH210205   5.412   0.984   4.358 -0.1956 -0.3510  0.6704
 3400TIP3    H110206   5.386   1.073   4.379  0.3399  0.1824 -0.7740
 3400TIP3    H210207   5.504   0.979   4.384  0.4246  0.2638 -1.2550
 3401TIP3   OH210208   1.988   4.856   1.747  0.0190  0.3653 -0.8386
 3401TIP3    H110209   2.013   4.943   1.779  0.3989 -0.0893  0.0963
 3401TIP3    H210210   1.996   4.863   1.652  1.4634  0.9237 -0.6988
 3402TIP3   OH210211   6.299   2.684   4.893 -0.4045 -0.1213 -0.0525
 3402TIP3    H110212   6.348   2.731   4.825 -1.8969 -0.5473 -1.4885
 3402TIP3    H210213   6.295   2.594   4.862  1.1614 -0.9624  1.9616
 3403TIP3   OH210214   1.836   1.024   2.784 -0.0351  0.2389 -0.3075
 3403TIP3    H110215   1.835   0.929   2.797  0.3628  0.2753  0.0120
 3403TIP3    H210216   1.878   1.059   2.863 -0.9968  0.7545 -0.0070
 3404TIP3   OH210217   4.113   5.693   2.839  0.2743 -0.5294 -0.4554
 3404TIP3    H110218   4.141   5.660   2.925 -1.6890 -0.0941  0.3957
 3404TIP3    H210219   4.106   5.614   2.785 -1.2961 -1.2048  0.6545
 3405TIP3   OH210220   4.064   2.990   3.419 -0.4577 -0.3518  0.0674
 3405TIP3    H110221   4.036   2.965   3.331  0.3330 -2.0613  0.2661
 3405TIP3    H210222   4.122   2.919   3.447  0.1368  0.6790  1.5655
 3406TIP3   OH210223   5.834   0.336   3.200 -0.1889 -0.2745  0.1063
 3406TIP3    H110224   5.798   0.247   3.202 -0.5078 -0.1418  1.6537
 3406TIP3    H210225   5.880   0.341   3.117 -0.4386 -1.7844 -0.1577
 3407TIP3   OH210226   4.962   1.896   2.882  0.0589 -0.2196 -0.2607
 3407TIP3    H110227   4.984   1.842   2.958 -0.3702  0.6656  0.5124
 3407TIP3    H210228   5.025   1.969   2.886  0.3222 -0.3951 -1.0187
 3408TIP3   OH210229   5.842   1.754   0.319  0.5392 -0.3342  0.1650
 3408TIP3    H110230   5.922   1.704   0.301  1.0351  0.7848 -0.8497
 3408TIP3    H210231   5.873   1.842   0.342 -0.4006  0.4374 -1.3317
 3409TIP3   OH210232   3.901   0.397   1.301 -0.3970  0.2143 -0.1846
 3409TIP3    H110233   3.837   0.331   1.275 -1.6873  0.8520  1.1723
 3409TIP3    H210234   3.971   0.348   1.343 -0.1795 -0.4710 -1.3222
 3410TIP3   OH210235   5.873   0.842   1.794 -0.0842 -0.0831 -0.1591
 3410TIP3    H110236   5.816   0.892   1.853  0.8363  0.0347  0.6531
 3410TIP3    H210237   5.844   0.866   1.706 -0.1524  1.2973  0.2221
 3411TIP3   OH210238   3.526   0.257   4.995 -0.1661  0.0069  0.4824
 3411TIP3    H110239   3.508   0.330   5.054 -1.4581 -0.0493  0.1874
 3411TIP3    H210240   3.440   0.219   4.976  0.4996 -2.0096  1.1522
 3412TIP3   OH210241   0.848   5.433   4.597 -0.2512  0.0085 -0.5844
 3412TIP3    H110242   0.887   5.439   4.510 -1.5934  1.0378 -1.1620
 3412TIP3    H210243   0.826   5.524   4.620  0.4484 -0.1931  1.0147
 3413TIP3   OH210244   4.688   2.402   0.325 -0.5740  0.2788 -0.2188
 3413TIP3    H110245   4.710   2.495   0.332 -0.3446  0.2072  0.0197
 3413TIP3    H210246   4.750   2.368   0.260  0.5149 -0.0749  0.9801
 3414TIP3   OH210247   2.326   3.851   0.573  0.1005  0.2944  0.1907
 3414TIP3    H110248   2.288   3.794   0.639 -1.1415 -0.1834 -0.8846
 3414TIP3    H210249   2.264   3.847   0.500 -0.0340  2.9820  0.0436
 3415TIP3   OH210250   0.820   4.393   0.925  0.1620 -0.7046  0.3476
 3415TIP3    H110251   0.905   4.380   0.967 -0.3360  0.7815  1.9876
 3415TIP3    H210252   0.833   4.470   0.869  0.2657 -1.3797 -0.5669
 3416TIP3   OH210253   4.602   3.328   1.631 -0.2162  0.5439 -0.1188
 3416TIP3    H110254   4.578   3.421   1.629 -1.4629  0.2290 -0.3842
 3416TIP3    H210255   4.691   3.326   1.597  0.3891  1.8009  1.2449
 3417TIP3   OH210256   6.054   3.568   2.145  0.0397  0.2600  0.0181
 3417TIP3    H110257   6.035   3.480   2.179  1.4555  0.9289  2.8719
 3417TIP3    H210258   6.146   3.565   2.121  0.3503  1.1895  1.0316
 3418TIP3   OH210259   2.851   2.221   0.502  0.0499  1.2204  0.3232
 3418TIP3    H110260   2.939   2.208   0.536  0.0859  0.9308  0.1199
 3418TIP3    H210261   2.806   2.269   0.571 -0.4292 -0.9784  1.6384
 3419TIP3   OH210262   1.686   4.348   2.392 -0.5036 -0.6755  0.3097
 3419TIP3    H110263   1.767   4.311   2.358  0.1139  0.6875  0.2589
 3419TIP3    H210264   1.654   4.405   2.322  0.0476  1.0676  1.4436
 3420TIP3   OH210265   3.468   0.555   3.876 -0.5786  0.2061 -0.2632
 3420TIP3    H110266   3.494   0.620   3.940 -3.3423 -0.0210  1.2732
 3420TIP3    H210267   3.422   0.604   3.808 -2.0407  0.0332  0.5419
 3421TIP3   OH210268   2.228   3.618   4.723  0.4484 -0.2415  0.4047
 3421TIP3    H110269   2.266   3.549   4.777  0.6583 -0.1960  0.3181
 3421TIP3    H210270   2.134   3.612   4.738  0.3132 -1.4929 -0.6931
 3422TIP3   OH210271   2.716   2.277   4.254 -0.3052 -0.2755 -0.0344
 3422TIP3    H110272   2.785   2.343   4.247 -0.0153 -0.5567  0.1286
 3422TIP3    H210273   2.736   2.230   4.336 -1.5518  0.6152  0.8174
 3423TIP3   OH210274   4.178   5.327   0.289 -0.1829 -0.2068  0.7218
 3423TIP3    H110275   4.196   5.233   0.292 -1.2042 -0.6753 -3.1269
 3423TIP3    H210276   4.261   5.366   0.261 -0.6760 -0.4871 -1.2947
 3424TIP3   OH210277   6.252   5.254   2.724 -0.1099 -0.0101  0.6099
 3424TIP3    H110278   6.342   5.222   2.733 -0.5559 -1.4980  0.0445
 3424TIP3    H210279   6.259   5.329   2.665  0.5614 -1.2074 -0.8981
 3425TIP3   OH210280   4.891   0.490   2.975 -0.1979  0.8097 -0.3640
 3425TIP3    H110281   4.941   0.513   2.897  1.0796  0.7783  0.4218
 3425TIP3    H210282   4.915   0.557   3.039  0.6506 -0.5015  0.7547
 3426TIP3   OH210283   1.027   5.361   2.469  0.0568 -0.2539  0.1967
 3426TIP3    H110284   1.109   5.403   2.494  0.2290 -0.4028 -0.1081
 3426TIP3    H210285   0.959   5.420   2.502  0.2825 -0.1675  0.5163
 3427TIP3   OH210286   6.103   4.869   4.299 -0.0711  0.1725  0.3816
 3427TIP3    H110287   6.100   4.796   4.237 -0.1793  0.6710 -0.2034
 3427TIP3    H210288   6.196   4.877   4.322 -0.0411 -0.0612  0.3444
 3428TIP3   OH210289   2.880   1.024   2.519 -0.3782  0.0271  0.1827
 3428TIP3    H110290   2.842   1.004   2.604  0.4524  0.6236  0.7179
 3428TIP3    H210291   2.903   0.939   2.482 -0.2687 -0.2155  0.7914
 3429TIP3   OH210292   5.946   0.538   2.535  0.1094  0.0382 -0.3891
 3429TIP3    H110293   5.905   0.451   2.536  1.5249 -0.6593 -0.1304
 3429TIP3    H210294   5.995   0.539   2.452  1.0989  0.0778  0.1791
 3430TIP3   OH210295   3.003   4.890   0.232 -0.0346  0.0824  0.9022
 3430TIP3    H110296   2.948   4.861   0.160 -1.3844  2.5806  0.8202
 3430TIP3    H210297   3.065   4.951   0.193  0.5028 -0.0289  1.5582
 3431TIP3   OH210298   3.838   3.272   5.034  0.9630  0.3279 -0.6108
 3431TIP3    H110299   3.925   3.311   5.038  0.6470  1.0696 -0.8771
 3431TIP3    H210300   3.830   3.240   4.944  0.8381  0.5576 -0.6831
 3432TIP3   OH210301   4.210   2.515   2.866  0.2697 -0.2745 -0.4015
 3432TIP3    H110302   4.159   2.480   2.938  1.6440 -3.0745 -0.6453
 3432TIP3    H210303   4.147   2.527   2.795 -0.2632 -3.3439 -0.6002
 3433TIP3   OH210304   4.712   3.925   2.794 -0.1514 -0.4875  0.3090
 3433TIP3    H110305   4.622   3.902   2.773 -0.8903  2.1105  0.2002
 3433TIP3    H210306   4.710   3.947   2.887  0.4976 -0.9045  0.4270
 3434TIP3   OH210307   2.185   2.969   1.786 -0.3373 -0.0129  0.0014
 3434TIP3    H110308   2.155   3.047   1.832 -1.4908 -0.2984 -0.2368
 3434TIP3    H210309   2.105   2.926   1.756  0.2525 -1.5141  0.4859
 3435TIP3   OH210310   5.801   2.447   1.889  0.3820 -0.2510  0.6369
 3435TIP3    H110311   5.742   2.469   1.961  0.3239 -0.7086  0.7316
 3435TIP3    H210312   5.773   2.504   1.817  0.9133  0.7388  1.1910
 3436TIP3   OH210313   1.842   5.865   3.088 -0.2787  0.1192  0.3881
 3436TIP3    H110314   1.817   5.836   3.001  0.3596 -0.3655  0.3601
 3436TIP3    H210315   1.926   5.910   3.075 -0.1206 -0.0621  0.7630
 3437TIP3   OH210316   3.526   4.172   1.491 -0.0548 -0.1015 -0.5226
 3437TIP3    H110317   3.564   4.130   1.568  0.7406  1.3018 -0.0979
 3437TIP3    H210318   3.522   4.103   1.424 -1.5101 -1.5590  0.9762
 3438TIP3   OH210319   2.008   0.015   2.902 -0.3069 -0.3598  0.2696
 3438TIP3    H110320   1.961  -0.013   2.824 -1.1760  0.1573  0.5837
 3438TIP3    H210321   1.941   0.014   2.971 -0.2590  1.8764  0.4132
 3439TIP3   OH210322   2.705   3.432   1.750  0.7135  0.5168  0.2343
 3439TIP3    H110323   2.719   3.480   1.831  0.9668  1.1112 -0.1599
 3439TIP3    H210324   2.640   3.483   1.701 -0.5718 -0.6008  0.6858
 3440TIP3   OH210325   6.271   3.089   4.156 -0.8476 -0.0047 -0.1814
 3440TIP3    H110326   6.182   3.067   4.127 -1.3295  0.4303  0.8860
 3440TIP3    H210327   6.277   3.184   4.147 -0.9196  0.1112  0.8208
 3441TIP3   OH210328   1.690   5.003   5.026  0.1421 -0.0478 -0.7521
 3441TIP3    H110329   1.781   4.974   5.029  0.1364 -0.9518 -4.5893
 3441TIP3    H210330   1.694   5.098   5.036  1.4167 -0.1425 -0.2448
 3442TIP3   OH210331   5.333   5.629   2.950  0.0327 -0.1140 -0.2405
 3442TIP3    H110332   5.305   5.567   2.883  0.0394  0.5334 -0.8516
 3442TIP3    H210333   5.297   5.594   3.032 -0.7241 -0.4383 -0.7080
 3443TIP3   OH210334   2.687   2.690   2.100  0.1757  0.1005  0.0295
 3443TIP3    H110335   2.761   2.736   2.139 -0.6634  1.0226  0.5689
 3443TIP3    H210336   2.660   2.744   2.026 -0.6427  0.3587  0.4989
 3444TIP3   OH210337   6.311   1.591   2.950 -0.3462  0.6053 -0.2077
 3444TIP3    H110338   6.390   1.542   2.973  0.0994  1.2404 -0.3656
 3444TIP3    H210339   6.261   1.530   2.895 -1.4621 -0.9576  2.3699
 3445TIP3   OH210340   4.264   2.846   4.027 -0.0336 -0.3120  0.3644
 3445TIP3    H110341   4.212   2.817   3.952  0.4030 -0.5450  0.1529
 3445TIP3    H210342   4.345   2.880   3.988  0.3293 -0.7278  0.7524
 3446TIP3   OH210343   3.963   0.636   2.171 -0.5775  0.1124  0.0324
 3446TIP3    H110344   3.927   0.673   2.090 -0.0451  1.2395  0.2974
 3446TIP3    H210345   3.896   0.575   2.201 -1.6314  1.1172 -0.2371
 3447TIP3   OH210346   0.462   2.228   2.433  0.1729  0.2656 -0.5843
 3447TIP3    H110347   0.401   2.155   2.432 -1.3289  1.4623  0.2660
 3447TIP3    H210348   0.486   2.241   2.341 -2.5225  1.0764 -1.2707
 3448TIP3   OH210349   4.286   0.491   0.696  0.0341  0.5742 -0.5155
 3448TIP3    H110350   4.233   0.417   0.666  0.4843  1.2633 -3.3035
 3448TIP3    H210351   4.374   0.454   0.707 -0.0799  0.3663 -0.2783
 3449TIP3   OH210352   1.069   3.376   3.284  0.3465  0.0924 -0.3311
 3449TIP3    H110353   1.060   3.296   3.231 -0.7176  0.6171 -0.9888
 3449TIP3    H210354   1.163   3.394   3.284  0.5585 -0.9368 -0.5028
 3450TIP3   OH210355   3.859   2.443   3.103 -0.5335  0.0034  0.2512
 3450TIP3    H110356   3.839   2.517   3.046 -0.8757  1.6915  2.4519
 3450TIP3    H210357   3.954   2.445   3.113 -0.3119 -1.1294 -1.2480
 3451TIP3   OH210358   5.648   5.443   4.288 -0.5673  0.1657  0.1300
 3451TIP3    H110359   5.561   5.458   4.251 -0.9060 -2.5468 -0.4014
 3451TIP3    H210360   5.676   5.529   4.319 -2.3935  1.6137 -1.8873
 3452TIP3   OH210361   4.896   1.776   0.299  0.1324 -0.7875 -0.9710
 3452TIP3    H110362   4.848   1.827   0.364 -3.0829 -1.1168 -2.8624
 3452TIP3    H210363   4.925   1.698   0.347 -0.5365 -0.1771  0.4862
 3453TIP3   OH210364   1.627   1.560   4.475 -0.4516  0.3481 -0.0530
 3453TIP3    H110365   1.635   1.519   4.562 -0.8881  1.3413  0.4632
 3453TIP3    H210366   1.628   1.486   4.415 -1.0828 -0.4332  0.8523
 3454TIP3   OH210367   1.089   2.717   4.392 -0.2894  0.3135  0.4921
 3454TIP3    H110368   1.137   2.636   4.411  0.2099  0.6107  0.5329
 3454TIP3    H210369   1.093   2.768   4.473 -0.2554  0.5463  0.3473
 3455TIP3   OH210370   5.828   1.125   4.664 -0.1883 -0.8826  0.9060
 3455TIP3    H110371   5.881   1.191   4.619 -0.2342 -0.2968  1.6789
 3455TIP3    H210372   5.878   1.103   4.742 -0.4309 -1.3692  0.9285
 3456TIP3   OH210373   2.110   1.159   0.553  0.3976 -0.0294 -0.0587
 3456TIP3    H110374   2.020   1.178   0.582 -0.3391  0.6213 -2.5655
 3456TIP3    H210375   2.130   1.229   0.490  2.5521 -0.3725  0.1948
 3457TIP3   OH210376   5.741   4.728   1.015  0.4261  0.4381  0.1303
 3457TIP3    H110377   5.683   4.804   1.021  1.5406  1.2514  0.9139
 3457TIP3    H210378   5.773   4.730   0.924 -0.6747  0.0249 -0.2868
 3458TIP3   OH210379   0.647   3.673   4.379 -0.3197 -1.3885 -0.4820
 3458TIP3    H110380   0.591   3.714   4.314 -1.8717 -1.8033  0.5308
 3458TIP3    H210381   0.695   3.745   4.419  0.1188 -1.0589 -1.5685
 3459TIP3   OH210382   3.202   0.398   4.347 -0.1642  0.5590  0.1434
 3459TIP3    H110383   3.231   0.488   4.332 -0.2882  1.1505  2.9329
 3459TIP3    H210384   3.278   0.354   4.383 -0.6994  0.1555  0.8081
 3460TIP3   OH210385   5.576   0.180   2.931  0.0256  0.5283 -0.3047
 3460TIP3    H110386   5.670   0.159   2.934 -0.1167 -0.0753  0.1849
 3460TIP3    H210387   5.556   0.210   3.020 -0.5134 -0.5957 -0.0281
 3461TIP3   OH210388   1.349   3.019   3.981  0.0571 -0.0994 -0.6281
 3461TIP3    H110389   1.328   3.028   3.888 -1.7961  0.2033 -0.2194
 3461TIP3    H210390   1.287   2.955   4.014 -0.5006  1.0769  0.7325
 3462TIP3   OH210391   3.575   0.941   3.805  0.1631 -0.1209  0.5211
 3462TIP3    H110392   3.618   0.887   3.739 -1.9847 -0.6109 -0.5708
 3462TIP3    H210393   3.530   0.878   3.861 -0.3951  0.4306  0.6943
 3463TIP3   OH210394   1.525   1.265   4.309 -0.6208  0.0349 -0.4586
 3463TIP3    H110395   1.604   1.216   4.287 -0.2280  0.5828 -0.2912
 3463TIP3    H210396   1.458   1.230   4.250 -0.5467 -1.2308  0.1809
 3464TIP3   OH210397   4.525   1.002   1.951  0.4958  0.7977 -0.4144
 3464TIP3    H110398   4.518   1.088   1.991  1.9405  0.3711  0.8276
 3464TIP3    H210399   4.562   1.019   1.864 -0.5346  1.5224 -0.7299
 3465TIP3   OH210400   0.044   5.256   0.688 -0.1819 -0.2129  0.3082
 3465TIP3    H110401   0.084   5.276   0.773 -2.5009  0.6024  1.3041
 3465TIP3    H210402   0.051   5.161   0.681  0.5967 -0.2326  1.1277
 3466TIP3   OH210403   3.436   2.273   2.713  0.5392  0.3571  0.0342
 3466TIP3    H110404   3.484   2.190   2.719  1.6212  0.9058 -0.7037
 3466TIP3    H210405   3.504   2.339   2.699 -0.3870  1.2516 -0.3318
 3467TIP3   OH210406   6.209   4.504   4.451  0.5164 -0.6009 -0.6143
 3467TIP3    H110407   6.157   4.493   4.531 -0.5523 -0.2639 -1.2395
 3467TIP3    H210408   6.282   4.559   4.476 -1.1863  1.6928 -0.4134
 3468TIP3   OH210409   5.127   1.998   1.174 -0.2974  0.3912  0.4539
 3468TIP3    H110410   5.208   1.967   1.132  0.0718  1.2629  0.4812
 3468TIP3    H210411   5.074   2.030   1.101 -1.2067 -1.4128  0.2941
 3469TIP3   OH210412   6.325   5.166   1.083 -0.0409  0.7844 -0.7659
 3469TIP3    H110413   6.323   5.070   1.085  0.7121  0.7291  1.6464
 3469TIP3    H210414   6.246   5.191   1.035 -1.2283 -1.0693  0.0737
 3470TIP3   OH210415   2.468   0.886   4.127 -0.5183 -0.0002  0.5552
 3470TIP3    H110416   2.477   0.976   4.159 -1.4111  0.7468 -1.1605
 3470TIP3    H210417   2.377   0.863   4.143 -0.3001 -0.5941  0.9635
 3471TIP3   OH210418   5.194   0.566   4.606  0.6772  0.4025  0.7017
 3471TIP3    H110419   5.222   0.641   4.554  1.4337 -0.1040  0.3568
 3471TIP3    H210420   5.099   0.573   4.610  0.6835  0.9596  0.0342
 3472TIP3   OH210421   4.188   2.810   4.290 -0.5622 -0.3389 -0.3862
 3472TIP3    H110422   4.217   2.798   4.200  0.0180 -1.4534 -0.0687
 3472TIP3    H210423   4.193   2.723   4.329 -1.9053 -0.1007  0.4116
 3473TIP3   OH210424   5.381   1.357   2.082 -0.0581 -0.5189  0.6664
 3473TIP3    H110425   5.382   1.452   2.077 -0.3920 -0.5737 -1.7636
 3473TIP3    H210426   5.321   1.337   2.153  0.3106  1.0694  1.4564
 3474TIP3   OH210427   0.492   1.538   3.771 -0.0155 -0.7992 -0.0383
 3474TIP3    H110428   0.529   1.490   3.697  2.2829  0.6944  0.0547
 3474TIP3    H210429   0.445   1.611   3.730  0.1330 -0.7082 -0.0439
 3475TIP3   OH210430   5.539   5.631   0.645 -0.7024  0.4931  0.1945
 3475TIP3    H110431   5.528   5.537   0.634  1.2574  0.2711 -0.3653
 3475TIP3    H210432   5.569   5.661   0.559  3.3544  0.7646  1.4903
 3476TIP3   OH210433   0.213   1.149   4.645 -0.2609 -0.1216 -0.2190
 3476TIP3    H110434   0.271   1.107   4.580  1.5565 -0.5593  1.5958
 3476TIP3    H210435   0.232   1.104   4.727 -0.5699  2.1355  1.1768
 3477TIP3   OH210436   1.779   1.653   1.208 -0.2931 -0.1915  0.3385
 3477TIP3    H110437   1.766   1.592   1.280 -1.2877 -2.7173 -1.8118
 3477TIP3    H210438   1.707   1.635   1.148  0.1493  2.2098 -1.0390
 3478TIP3   OH210439   1.836   3.834   3.401  0.2992 -0.3062  0.0859
 3478TIP3    H110440   1.809   3.774   3.332 -0.6990  0.3947 -0.1630
 3478TIP3    H210441   1.897   3.894   3.358 -1.3161  0.9505 -0.5991
 3479TIP3   OH210442   2.213   3.016   3.569  0.5677 -0.0513 -0.3606
 3479TIP3    H110443   2.204   2.982   3.658 -0.1753  1.9015  0.3660
 3479TIP3    H210444   2.293   3.069   3.571 -0.6630  1.9197 -0.1206
 3480TIP3   OH210445   4.845   5.242   1.796  0.1946 -0.3021 -0.5199
 3480TIP3    H110446   4.792   5.198   1.729  0.2513  0.2380 -0.9262
 3480TIP3    H210447   4.891   5.171   1.840 -0.3232 -0.7230 -0.6319
 3481TIP3   OH210448   0.423   4.970   3.067  0.1730 -0.2281  0.3255
 3481TIP3    H110449   0.495   4.944   3.009  0.6699  0.8873  0.4278
 3481TIP3    H210450   0.428   5.065   3.070 -1.1847 -0.1492  0.5087
 3482TIP3   OH210451   4.487   3.475   5.045 -0.3620 -0.1865 -0.4982
 3482TIP3    H110452   4.427   3.486   5.119 -0.9102 -0.5537 -0.8824
 3482TIP3    H210453   4.487   3.381   5.029 -0.5816 -0.0650 -1.2378
 3483TIP3   OH210454   0.522   0.410   2.778 -0.1669 -0.1866  0.3683
 3483TIP3    H110455   0.565   0.354   2.714  0.4205  1.4349 -0.7370
 3483TIP3    H210456   0.591   0.469   2.808 -0.3143 -1.2187  2.9165
 3484TIP3   OH210457   5.575   1.750   3.129 -0.1088 -0.2436  0.5997
 3484TIP3    H110458   5.650   1.803   3.100 -0.3572 -0.3705 -0.3068
 3484TIP3    H210459   5.528   1.807   3.190 -0.3591  0.5887 -0.3465
 3485TIP3   OH210460   0.452   2.878   1.123  0.5556  0.0164  0.9691
 3485TIP3    H110461   0.547   2.885   1.115  0.4938  0.6246  0.7367
 3485TIP3    H210462   0.419   2.967   1.109 -0.0705 -0.2398  0.7475
 3486TIP3   OH210463   1.147   2.155   2.756  0.8370 -0.7177  0.1598
 3486TIP3    H110464   1.238   2.184   2.744  0.0655  1.6716 -0.4374
 3486TIP3    H210465   1.103   2.181   2.675 -0.6823 -0.5052  1.0187
 3487TIP3   OH210466   6.034   0.601   1.829 -0.2184  0.3700  0.7151
 3487TIP3    H110467   5.989   0.684   1.819  0.7296  1.0178  1.6656
 3487TIP3    H210468   6.081   0.608   1.912  1.8018 -0.1767 -0.3100
 3488TIP3   OH210469   1.136   5.426   3.666 -0.9166 -0.0486 -0.5583
 3488TIP3    H110470   1.183   5.470   3.736  0.0599 -0.3501 -1.0043
 3488TIP3    H210471   1.045   5.426   3.695 -0.3618 -1.5068  1.4454
 3489TIP3   OH210472   2.881   0.194   3.197 -0.4317 -0.3330  0.5225
 3489TIP3    H110473   2.930   0.152   3.268  2.0646  0.1788 -0.7997
 3489TIP3    H210474   2.906   0.286   3.202  1.1767 -0.5438 -1.9788
 3490TIP3   OH210475   3.329   0.706   1.860 -0.5076  0.3607 -0.2232
 3490TIP3    H110476   3.400   0.732   1.800  1.7795  0.9665  2.5035
 3490TIP3    H210477   3.263   0.774   1.851  0.3523  1.0954 -1.1431
 3491TIP3   OH210478   2.725   0.589   1.107 -0.0784  0.6828 -0.1357
 3491TIP3    H110479   2.719   0.641   1.188 -0.5060 -0.7735  0.8187
 3491TIP3    H210480   2.799   0.626   1.060  1.0821  0.6798  1.6059
 3492TIP3   OH210481   1.265   5.489   1.550  0.5254  0.2848  0.9091
 3492TIP3    H110482   1.185   5.541   1.546  0.6640  0.4286 -1.6621
 3492TIP3    H210483   1.331   5.549   1.584  0.3640  1.4177 -0.6494
 3493TIP3   OH210484   1.663   3.755   4.346  0.5188 -0.0066 -0.2457
 3493TIP3    H110485   1.582   3.737   4.298  1.4491 -2.9126 -0.9578
 3493TIP3    H210486   1.733   3.729   4.286  1.8341 -1.2682  1.7122
 3494TIP3   OH210487   3.916   2.638   0.509  0.5527  0.6280 -0.7197
 3494TIP3    H110488   3.916   2.701   0.581  0.9352  0.3779 -0.5004
 3494TIP3    H210489   3.849   2.671   0.449 -0.3103  0.4410  0.1038
 3495TIP3   OH210490   2.978   2.298   2.073  0.3731  0.1675  0.1040
 3495TIP3    H110491   2.955   2.385   2.040  1.3004  0.2032 -0.4909
 3495TIP3    H210492   2.919   2.238   2.028  0.3247  0.4054 -0.1490
 3496TIP3   OH210493   4.770   3.705   3.416 -0.6366 -0.1228 -0.6613
 3496TIP3    H110494   4.825   3.627   3.423  0.6195  0.5934 -1.8739
 3496TIP3    H210495   4.759   3.718   3.322 -1.4971  0.6966 -0.4574
 3497TIP3   OH210496   0.827   4.321   4.926 -0.0152 -0.3419  0.3414
 3497TIP3    H110497   0.878   4.240   4.919  0.0354 -0.1996 -1.6140
 3497TIP3    H210498   0.736   4.292   4.927 -0.0836 -0.4455 -2.1244
 3498TIP3   OH210499   5.351   4.744   2.966 -0.2659  0.4483 -0.2339
 3498TIP3    H110500   5.255   4.742   2.963 -0.3498  0.7548  1.2234
 3498TIP3    H210501   5.376   4.656   2.991 -0.4765  1.2599  3.5288
 3499TIP3   OH210502   1.634   0.323   2.698 -0.2534  0.1210 -0.1547
 3499TIP3    H110503   1.541   0.339   2.679 -0.0090 -0.2002 -1.8590
 3499TIP3    H210504   1.634   0.245   2.754 -0.9930 -0.6897 -1.2242
 3500TIP3   OH210505   1.938   1.257   1.548  0.3372  0.5886 -0.1168
 3500TIP3    H110506   1.962   1.192   1.615  0.9643  0.7370 -0.1944
 3500TIP3    H210507   2.020   1.275   1.502  0.6236  2.8862  1.1530
 3501TIP3   OH210508   5.980   5.065   2.440 -0.0971  0.0822 -1.0096
 3501TIP3    H110509   5.963   5.129   2.509  0.8687  1.0028 -1.5934
 3501TIP3    H210510   5.984   4.981   2.486 -2.5336  0.2339 -0.3811
 3502TIP3   OH210511   4.529   5.793   2.866  0.0552 -0.2878  0.0947
 3502TIP3    H110512   4.597   5.812   2.801  1.0153  0.8188  1.3902
 3502TIP3    H210513   4.569   5.813   2.950 -1.5120 -0.7050  0.9801
 3503TIP3   OH210514   4.453   0.207   4.862 -0.3164 -0.3439 -0.5680
 3503TIP3    H110515   4.381   0.257   4.825  0.6190 -0.1116 -2.1733
 3503TIP3    H210516   4.474   0.253   4.943 -2.3414 -0.7918  0.2698
 3504TIP3   OH210517   5.885   3.249   3.597  0.0796 -0.4212  0.0798
 3504TIP3    H110518   5.923   3.331   3.565  1.0414  0.4461  3.0851
 3504TIP3    H210519   5.936   3.181   3.555  0.4008  0.5491 -1.1745
 3505TIP3   OH210520   5.493   0.637   5.129  0.1711 -0.3921  0.6024
 3505TIP3    H110521   5.448   0.695   5.069 -0.1043  2.6380  3.4776
 3505TIP3    H210522   5.436   0.560   5.135 -0.4326 -0.2319 -1.8657
 3506TIP3   OH210523   5.630   2.214   0.896 -0.1386 -0.7753 -0.1934
 3506TIP3    H110524   5.694   2.248   0.833 -0.0489  1.2154  0.9003
 3506TIP3    H210525   5.677   2.213   0.980 -1.0560 -0.8704  0.3321
 3507TIP3   OH210526   5.834   0.055   1.367 -0.1207 -0.0645  0.3368
 3507TIP3    H110527   5.799   0.096   1.446 -1.8532 -0.9278  0.0597
 3507TIP3    H210528   5.842  -0.037   1.390 -0.8161 -0.3526 -0.5323
 3508TIP3   OH210529   4.441   2.349   4.713  0.2344  0.3682 -0.0543
 3508TIP3    H110530   4.515   2.314   4.762  1.5758  1.1456 -1.4408
 3508TIP3    H210531   4.447   2.307   4.628 -0.9520  0.4275 -0.1792
 3509TIP3   OH210532   0.275   0.100   4.453  0.2392  0.1622 -0.3353
 3509TIP3    H110533   0.193   0.137   4.487  0.1078 -0.0118 -0.4649
 3509TIP3    H210534   0.343   0.139   4.509 -0.0542 -0.9630  0.8575
 3510TIP3   OH210535   0.811   0.050   0.526  0.2417  0.1468 -0.7103
 3510TIP3    H110536   0.806   0.098   0.608 -2.1313 -1.5294  0.2429
 3510TIP3    H210537   0.730   0.073   0.480  1.1582  0.4342 -2.2325
 3511TIP3   OH210538   5.608   3.230   2.489  0.0069 -0.1978 -0.2446
 3511TIP3    H110539   5.638   3.147   2.526 -0.1145 -0.6982 -1.2401
 3511TIP3    H210540   5.571   3.277   2.563 -0.1960 -1.1619  0.2803
 3512TIP3   OH210541   5.886   0.743   0.455 -0.6616  0.0929 -0.8671
 3512TIP3    H110542   5.961   0.802   0.455  0.7930 -1.6681 -1.3703
 3512TIP3    H210543   5.921   0.659   0.426 -2.4009 -1.3631  0.9513
 3513TIP3   OH210544   2.724   2.905   4.352 -0.0883  0.0951 -0.0192
 3513TIP3    H110545   2.790   2.860   4.404 -1.1812 -0.4255  0.9465
 3513TIP3    H210546   2.707   2.846   4.279 -0.8280 -0.6398  0.7339
 3514TIP3   OH210547   5.111   1.171   3.313 -0.5713  0.3110  0.0976
 3514TIP3    H110548   5.149   1.246   3.269 -0.1725 -0.4968 -0.9770
 3514TIP3    H210549   5.176   1.147   3.380  0.3084 -0.3122 -0.9237
 3515TIP3   OH210550   5.004   3.752   0.727  0.1988 -0.4370  0.2656
 3515TIP3    H110551   4.955   3.700   0.791 -3.4446  1.0209 -1.1174
 3515TIP3    H210552   5.015   3.837   0.769  1.5581 -0.6802  0.4770
 3516TIP3   OH210553   5.526   5.243   0.635 -0.2578 -0.4177 -0.6158
 3516TIP3    H110554   5.572   5.160   0.646 -0.0648 -0.4560 -1.6134
 3516TIP3    H210555   5.438   5.219   0.606 -0.1100 -0.2753 -1.2020
 3517TIP3   OH210556   1.433   2.053   1.014 -0.0479  0.2846 -0.3362
 3517TIP3    H110557   1.520   2.036   0.979 -0.3844 -1.0567 -0.5714
 3517TIP3    H210558   1.382   2.083   0.939  0.3649  1.8009 -0.0568
 3518TIP3   OH210559   2.013   3.652   1.291 -0.2128  0.9773  0.2351
 3518TIP3    H110560   1.978   3.667   1.203 -0.9016  2.0223  0.6724
 3518TIP3    H210561   1.938   3.620   1.342  0.1718  0.4254  0.4675
 3519TIP3   OH210562   2.526   3.217   1.836 -0.0699 -0.3046 -0.1140
 3519TIP3    H110563   2.512   3.213   1.741  0.8848  2.1150 -0.4308
 3519TIP3    H210564   2.590   3.288   1.848  0.3434 -0.9857  2.3061
 3520TIP3   OH210565   1.609   5.068   0.933  0.4328  0.5209  0.5657
 3520TIP3    H110566   1.662   5.125   0.877 -0.9481 -0.4358 -1.8903
 3520TIP3    H210567   1.641   4.980   0.915 -0.6791  0.1124  0.5044
 3521TIP3   OH210568   5.677   4.272   1.240  0.3182  0.0525  0.3570
 3521TIP3    H110569   5.698   4.308   1.154 -1.5709 -1.5982 -0.8926
 3521TIP3    H210570   5.616   4.335   1.278 -0.5932 -0.2701 -0.5133
 3522TIP3   OH210571   4.823   1.492   2.595  0.2645  0.0777  0.5978
 3522TIP3    H110572   4.781   1.436   2.529 -0.3204 -0.4265  1.3786
 3522TIP3    H210573   4.914   1.466   2.595  0.7685  1.5649 -1.5277
 3523TIP3   OH210574   2.682   3.464   2.207 -0.0980 -0.0546  0.4175
 3523TIP3    H110575   2.772   3.452   2.237  0.0468  0.8752  0.3814
 3523TIP3    H210576   2.686   3.539   2.147 -1.0643  0.7387  1.3024
 3524TIP3   OH210577   3.299   2.042   4.576  0.3813  0.4277 -0.3635
 3524TIP3    H110578   3.355   1.966   4.555  0.4048  0.5609 -0.7950
 3524TIP3    H210579   3.344   2.085   4.648 -0.6693 -1.0990  1.2914
 3525TIP3   OH210580   1.184   5.657   1.789 -0.3023 -0.1517  0.6954
 3525TIP3    H110581   1.113   5.625   1.733 -0.8728  0.5491  1.0169
 3525TIP3    H210582   1.141   5.713   1.853  0.5147  0.0816  1.0453
 3526TIP3   OH210583   4.611   5.513   1.026 -0.0761  0.5518 -0.5825
 3526TIP3    H110584   4.706   5.527   1.032 -0.2218  0.9238  4.1409
 3526TIP3    H210585   4.572   5.589   1.068 -2.3765 -0.5417 -0.5764
 3527TIP3   OH210586   0.307   2.355   3.800  0.5742 -0.2789 -0.8043
 3527TIP3    H110587   0.373   2.387   3.738 -0.3606 -0.4663 -1.9230
 3527TIP3    H210588   0.225   2.391   3.769 -0.1089 -1.4902 -0.4707
 3528TIP3   OH210589   4.567   2.613   4.097 -0.1131 -0.5155  0.1078
 3528TIP3    H110590   4.646   2.609   4.044  0.9486 -1.8032  1.6876
 3528TIP3    H210591   4.571   2.698   4.141  1.1212 -1.0985  1.1804
 3529TIP3   OH210592   1.777   1.457   2.206  0.6139 -0.2866  0.1246
 3529TIP3    H110593   1.812   1.417   2.286 -0.6999 -0.2432  0.7375
 3529TIP3    H210594   1.721   1.528   2.237  1.7311  1.1031 -0.9104
 3530TIP3   OH210595   4.374   1.672   1.219  0.1396 -0.8266  0.1461
 3530TIP3    H110596   4.395   1.670   1.125 -3.9253  1.0791 -1.0365
 3530TIP3    H210597   4.368   1.765   1.240 -0.9415 -1.2255  1.7854
 3531TIP3   OH210598   3.259   2.943   0.603  0.6030 -0.0263 -0.2925
 3531TIP3    H110599   3.271   2.976   0.691  2.2610 -0.6923 -0.2296
 3531TIP3    H210600   3.164   2.943   0.590  0.3258  0.0610  1.4845
 3532TIP3   OH210601   2.017   4.439   1.529 -0.0245 -0.1008 -0.3332
 3532TIP3    H110602   1.990   4.473   1.444  0.0114  3.2964  0.8275
 3532TIP3    H210603   1.954   4.476   1.591  1.3700 -0.4005  1.3587
 3533TIP3   OH210604   5.994   1.560   1.511  0.3592  0.0821  0.7862
 3533TIP3    H110605   6.032   1.611   1.582 -2.5375  2.8322  0.5912
 3533TIP3    H210606   6.059   1.565   1.441  0.7771  2.4929  1.2437
 3534TIP3   OH210607   2.596   5.108   1.367  0.1113  0.2050 -0.0988
 3534TIP3    H110608   2.623   5.042   1.303  1.4458 -0.9518  1.5624
 3534TIP3    H210609   2.537   5.061   1.426 -1.4124  1.3592 -0.6535
 3535TIP3   OH210610   4.134   1.446   0.042 -0.1781 -0.7969 -0.0710
 3535TIP3    H110611   4.201   1.506   0.077 -0.2220  0.6372 -2.2582
 3535TIP3    H210612   4.165   1.359   0.067  0.7876 -0.0040  1.7570
 3536TIP3   OH210613   5.231   4.458   2.928 -0.2442 -0.1816  0.1975
 3536TIP3    H110614   5.199   4.524   2.866  0.3445 -1.1142 -1.1357
 3536TIP3    H210615   5.219   4.374   2.883 -0.1071 -0.9176  1.4871
 3537TIP3   OH210616   0.447   1.836   3.695  0.2783 -0.4867 -0.1580
 3537TIP3    H110617   0.510   1.797   3.757  0.7170  1.4850  0.6948
 3537TIP3    H210618   0.488   1.917   3.667 -1.9234  0.9263  0.4922
 3538TIP3   OH210619   2.553   3.001   5.050  0.4415  0.6428  0.2264
 3538TIP3    H110620   2.600   2.922   5.023  2.2976  1.5075  0.7865
 3538TIP3    H210621   2.528   3.044   4.969 -0.8567 -0.6446 -0.0899
 3539TIP3   OH210622   0.125   5.671   2.380 -0.4478 -0.0095 -0.3988
 3539TIP3    H110623   0.045   5.722   2.394  0.3128  0.7227  1.7255
 3539TIP3    H210624   0.128   5.610   2.454  0.1250 -1.2111 -1.3650
 3540TIP3   OH210625   3.662   1.220   5.090 -0.0948  0.1002 -0.6019
 3540TIP3    H110626   3.702   1.139   5.124 -1.5378 -0.1647  0.5782
 3540TIP3    H210627   3.604   1.191   5.020  1.1095  0.3962 -1.7570
 3541TIP3   OH210628   1.798   2.042   4.043  0.1950 -0.1229 -0.4063
 3541TIP3    H110629   1.715   2.001   4.068 -0.0681  1.1871  1.0063
 3541TIP3    H210630   1.858   1.969   4.028 -0.8796 -1.0565 -0.2265
 3542TIP3   OH210631   4.059   5.787   3.992 -0.3359 -0.3550 -0.1120
 3542TIP3    H110632   4.023   5.868   3.957 -0.6525 -0.8530 -0.9569
 3542TIP3    H210633   4.022   5.781   4.081  0.8965  1.1755  0.5523
 3543TIP3   OH210634   5.526   3.316   4.092 -0.2172 -0.3402 -0.3154
 3543TIP3    H110635   5.552   3.249   4.029  0.9959 -0.0437 -0.1564
 3543TIP3    H210636   5.602   3.324   4.150 -0.9447  0.0797  0.5966
 3544TIP3   OH210637   3.995   1.015   1.790  0.1878  0.5024  0.4666
 3544TIP3    H110638   3.966   0.968   1.711 -1.8210 -1.2784  2.1377
 3544TIP3    H210639   4.070   0.964   1.821  0.5654  0.8203  0.0933
 3545TIP3   OH210640   4.326   5.539   0.142 -0.2497  0.2163 -0.2652
 3545TIP3    H110641   4.288   5.563   0.057 -0.5188 -0.6079 -0.3817
 3545TIP3    H210642   4.379   5.461   0.124  0.1291  0.3540  0.2236
 3546TIP3   OH210643   4.196   5.432   3.057  0.2539 -0.4855 -0.0240
 3546TIP3    H110644   4.216   5.462   3.146  2.7758  1.9127 -1.2258
 3546TIP3    H210645   4.101   5.438   3.050 -0.1160 -1.6232  2.7193
 3547TIP3   OH210646   2.823   2.108   3.684 -0.4124  0.4431  0.3743
 3547TIP3    H110647   2.846   2.199   3.702 -1.4538  0.5162  1.4566
 3547TIP3    H210648   2.779   2.110   3.600 -0.2756  0.9110  0.3110
 3548TIP3   OH210649   1.659   4.592   4.193  0.7794 -0.6027 -0.2375
 3548TIP3    H110650   1.568   4.620   4.181  1.2418  0.0696 -2.5531
 3548TIP3    H210651   1.653   4.498   4.210 -0.4324 -0.2394  1.6526
 3549TIP3   OH210652   6.157   0.933   1.458  0.2567 -0.3775  0.4754
 3549TIP3    H110653   6.167   1.028   1.451 -0.3518 -0.4020 -1.2355
 3549TIP3    H210654   6.083   0.913   1.402  1.2812 -2.0335 -0.3609
 3550TIP3   OH210655   4.955   3.512   2.048 -0.1294  0.9336 -0.9644
 3550TIP3    H110656   4.903   3.431   2.045  2.8972 -1.2079 -0.6553
 3550TIP3    H210657   4.936   3.550   2.134 -0.2979 -0.4419 -0.3679
 3551TIP3   OH210658   4.898   5.737   3.204 -1.2761  0.6152 -0.2587
 3551TIP3    H110659   4.836   5.676   3.245  0.0019 -0.6862 -0.1842
 3551TIP3    H210660   4.936   5.687   3.132 -0.8510  1.6492 -0.7700
 3552TIP3   OH210661   2.463   0.754   0.853  0.3338  0.3134  0.2069
 3552TIP3    H110662   2.438   0.795   0.936 -2.1398  1.7352 -1.1361
 3552TIP3    H210663   2.439   0.662   0.864 -0.9090  0.6787  0.7633
 3553TIP3   OH210664   3.706   1.724   3.521  1.1113  0.1932  0.0211
 3553TIP3    H110665   3.672   1.812   3.535 -0.1777 -0.0322 -1.4436
 3553TIP3    H210666   3.675   1.673   3.596  0.3238  0.5706 -0.0468
 3554TIP3   OH210667   0.299   3.995   3.249 -0.0459  0.1193  0.0938
 3554TIP3    H110668   0.363   3.950   3.305 -1.6726 -2.1677  0.2664
 3554TIP3    H210669   0.215   3.979   3.291 -0.9351  1.5164 -1.0663
 3555TIP3   OH210670   2.749   0.875   4.171  0.2776 -0.3572  0.5086
 3555TIP3    H110671   2.655   0.859   4.175  0.2860 -1.2401 -1.6247
 3555TIP3    H210672   2.757   0.952   4.114  0.8205  0.4055  1.5835
 3556TIP3   OH210673   1.735   1.543   0.449  0.1400 -1.0030 -0.2722
 3556TIP3    H110674   1.656   1.508   0.490  0.3130 -1.3845 -0.2620
 3556TIP3    H210675   1.728   1.638   0.462  0.3911 -1.1408  0.9931
 3557TIP3   OH210676   1.062   3.309   0.870 -0.2009 -0.4821  0.4375
 3557TIP3    H110677   0.970   3.335   0.867  0.1848  0.9603 -2.2727
 3557TIP3    H210678   1.076   3.261   0.788  1.2565 -1.5336  1.2661
 3558TIP3   OH210679   3.943   1.210   3.722 -0.2637  0.1082  0.2516
 3558TIP3    H110680   3.954   1.279   3.657 -1.0787 -0.5397 -0.5968
 3558TIP3    H210681   3.953   1.129   3.673 -0.0975 -0.3929  1.0912
 3559TIP3   OH210682   5.882   3.552   1.605 -0.0648  0.2136  0.4224
 3559TIP3    H110683   5.976   3.556   1.624 -0.1717  0.2921  0.9511
 3559TIP3    H210684   5.873   3.478   1.546  0.2553 -0.1416  0.8127
 3560TIP3   OH210685   5.441   1.325   1.209 -0.3504 -0.8771  0.4347
 3560TIP3    H110686   5.465   1.275   1.288 -1.4785  0.7311  1.8847
 3560TIP3    H210687   5.418   1.412   1.242 -3.6365 -0.9282 -1.2770
 3561TIP3   OH210688   4.951   2.111   4.057 -0.0631 -0.1575  0.1621
 3561TIP3    H110689   4.959   2.032   4.005 -1.5211 -1.1208  1.3139
 3561TIP3    H210690   5.016   2.102   4.126 -1.7976 -1.5881  1.7194
 3562TIP3   OH210691   2.828   4.141   1.338  0.5267 -0.0782  0.0033
 3562TIP3    H110692   2.782   4.058   1.323  1.5184 -0.5762 -0.3927
 3562TIP3    H210693   2.886   4.151   1.262 -1.3239  2.2441 -1.2283
 3563TIP3   OH210694   5.624   3.123   2.154  0.1489 -0.6723  0.5423
 3563TIP3    H110695   5.567   3.186   2.199 -0.3954 -0.3702 -0.5494
 3563TIP3    H210696   5.692   3.177   2.113 -1.0559 -0.6395 -1.4938
 3564TIP3   OH210697   3.235   4.266   2.943 -0.1898 -0.0297 -0.4990
 3564TIP3    H110698   3.145   4.248   2.915 -0.9031  2.2498  0.0831
 3564TIP3    H210699   3.250   4.206   3.016 -1.0276 -0.8108 -0.9423
 3565TIP3   OH210700   0.093   5.277   4.923  0.1157 -0.8787 -0.2859
 3565TIP3    H110701   0.060   5.350   4.870  1.8673 -1.9547 -3.1018
 3565TIP3    H210702   0.020   5.255   4.981 -0.9843  2.1289 -0.3353
 3566TIP3   OH210703   4.682   3.923   0.659  0.1074 -0.6218 -0.0967
 3566TIP3    H110704   4.731   3.889   0.734 -0.3799  0.8489  0.9212
 3566TIP3    H210705   4.681   4.018   0.672 -1.9018 -0.5113 -0.7661
 3567TIP3   OH210706   2.549   2.397   3.443 -0.0844  0.7838  0.6437
 3567TIP3    H110707   2.561   2.428   3.533  0.6161 -1.0313  1.2223
 3567TIP3    H210708   2.549   2.477   3.390  0.4413  1.8363  2.1531
 3568TIP3   OH210709   6.287   2.820   3.310 -0.2688  0.1925 -0.0334
 3568TIP3    H110710   6.272   2.738   3.358 -2.0076 -0.2760 -1.2685
 3568TIP3    H210711   6.247   2.805   3.225 -0.0251  2.1128 -0.5255
 3569TIP3   OH210712   1.938   1.873   1.269 -0.1259 -0.2684 -0.6103
 3569TIP3    H110713   1.938   1.858   1.363 -2.7218 -0.3958 -0.5584
 3569TIP3    H210714   1.890   1.799   1.232 -0.7333  0.6745 -1.8100
 3570TIP3   OH210715   3.708   1.368   4.286  0.3354 -0.2356 -0.2959
 3570TIP3    H110716   3.661   1.308   4.228  1.8497 -1.2128 -0.5793
 3570TIP3    H210717   3.796   1.374   4.248 -0.0647  3.1045 -0.9127
 3571TIP3   OH210718   0.520   5.008   4.818  0.9710 -0.1741 -0.3432
 3571TIP3    H110719   0.605   5.048   4.835  1.0778 -1.3976  2.5838
 3571TIP3    H210720   0.478   5.002   4.904 -1.5700 -0.7504 -1.5236
 3572TIP3   OH210721   5.943   0.298   0.752  0.1414 -0.7138 -0.0385
 3572TIP3    H110722   6.037   0.315   0.750 -0.0303  0.4229  0.9550
 3572TIP3    H210723   5.913   0.321   0.664  0.6130  0.0051 -0.0174
 3573TIP3   OH210724   0.770   1.645   1.564 -0.0993  0.1915 -0.1613
 3573TIP3    H110725   0.821   1.595   1.500 -0.8613 -1.2873  0.3523
 3573TIP3    H210726   0.699   1.684   1.513  0.2690  0.4427 -0.4934
 3574TIP3   OH210727   0.790   5.324   4.134 -0.4085 -0.6595  0.0268
 3574TIP3    H110728   0.768   5.416   4.117 -0.5063 -0.7050 -0.0867
 3574TIP3    H210729   0.709   5.276   4.119  0.0394 -0.9728 -1.5503
 3575TIP3   OH210730   5.440   4.181   3.250  0.4212  0.7560 -0.2139
 3575TIP3    H110731   5.473   4.188   3.340 -1.5444  0.5291  0.5843
 3575TIP3    H210732   5.348   4.157   3.260  0.2684  0.2459 -2.3225
 3576TIP3   OH210733   2.875   3.253   1.746 -0.6062  0.1237 -1.2838
 3576TIP3    H110734   2.874   3.258   1.842 -1.2399 -1.4557 -1.1802
 3576TIP3    H210735   2.805   3.312   1.718 -1.1881 -0.2749 -0.7096
 3577TIP3   OH210736   3.249   5.871   3.637  0.3454 -0.6955  0.2194
 3577TIP3    H110737   3.168   5.918   3.619 -0.2317 -1.2929  1.1477
 3577TIP3    H210738   3.299   5.930   3.693 -0.3467 -1.1162  1.3230
 3578TIP3   OH210739   4.835   2.282   1.602 -0.6349 -0.6782  0.1120
 3578TIP3    H110740   4.747   2.250   1.580 -0.2016 -1.7190 -0.1465
 3578TIP3    H210741   4.873   2.306   1.518 -0.0875 -1.7760  0.0324
 3579TIP3   OH210742   4.148   4.573   1.930 -0.1288 -0.1233 -0.3754
 3579TIP3    H110743   4.157   4.572   2.026  1.6645 -0.4756 -0.5236
 3579TIP3    H210744   4.232   4.542   1.897 -0.6255  0.2385 -2.0899
 3580TIP3   OH210745   4.998   0.137   2.535 -0.3189 -0.5101 -0.1616
 3580TIP3    H110746   4.942   0.060   2.527  0.9075 -1.4174 -0.3668
 3580TIP3    H210747   5.009   0.169   2.445  1.2127 -1.6429 -0.4178
 3581TIP3   OH210748   4.920   3.984   5.103 -0.2551 -0.1986 -0.1234
 3581TIP3    H110749   5.015   4.000   5.106 -0.6347  2.5061  0.0428
 3581TIP3    H210750   4.904   3.955   5.013  0.7065 -0.5490 -0.1950
 3582TIP3   OH210751   5.370   5.720   2.081 -0.7079  0.0470  0.2019
 3582TIP3    H110752   5.434   5.743   2.013 -1.1568 -1.6633 -0.8371
 3582TIP3    H210753   5.356   5.803   2.128  1.9166  0.5945  0.2163
 3583TIP3   OH210754   0.906   0.268   0.294 -0.1463 -0.0159 -0.3963
 3583TIP3    H110755   0.948   0.182   0.297 -0.4485 -0.1717 -0.5675
 3583TIP3    H210756   0.826   0.253   0.245 -0.5903  0.1961  0.2540
 3584TIP3   OH210757   4.460   4.867   1.759 -0.1616 -0.3887 -0.0482
 3584TIP3    H110758   4.405   4.942   1.737 -1.7362 -1.3781  0.3422
 3584TIP3    H210759   4.441   4.850   1.852 -0.2337 -1.5852 -0.2672
 3585TIP3   OH210760   5.117   3.004   5.152 -0.1458  0.7045 -0.0033
 3585TIP3    H110761   5.112   3.097   5.128  2.8075  0.9403 -0.1137
 3585TIP3    H210762   5.148   3.004   5.243 -0.0809 -0.1623 -0.0168
 3586TIP3   OH210763   4.405   2.043   2.307 -0.7284  0.4295 -0.2036
 3586TIP3    H110764   4.477   2.056   2.369 -0.1602  0.9776 -0.9506
 3586TIP3    H210765   4.397   2.127   2.262 -1.9771  0.4296 -0.0060
 3587TIP3   OH210766   3.910   5.906   1.720  0.1843  0.3346  0.5377
 3587TIP3    H110767   3.968   5.919   1.645 -1.2145  0.3218 -0.5825
 3587TIP3    H210768   3.863   5.989   1.729 -1.3095 -0.4088 -0.0877
 3588TIP3   OH210769   3.626   2.971   4.819 -0.1069  0.2707 -0.2746
 3588TIP3    H110770   3.580   2.964   4.735  0.8134 -1.1665 -0.7101
 3588TIP3    H210771   3.717   2.987   4.795  0.0157  0.7545  0.4882
 3589TIP3   OH210772   4.333   5.687   0.359  0.5678 -0.0106  0.2652
 3589TIP3    H110773   4.295   5.627   0.295 -2.8303  1.7817  0.3237
 3589TIP3    H210774   4.374   5.756   0.307  1.4499 -0.6317  0.1305
 3590TIP3   OH210775   2.820   3.009   3.727 -0.6213 -0.0127  0.9171
 3590TIP3    H110776   2.892   3.065   3.701 -0.0241  0.0827  2.6314
 3590TIP3    H210777   2.779   2.983   3.645  0.6660  0.8377 -0.0395
 3591TIP3   OH210778   5.413   3.848   4.133 -0.7028  0.9782  0.4668
 3591TIP3    H110779   5.455   3.797   4.064  1.1979  3.4937 -0.4296
 3591TIP3    H210780   5.404   3.787   4.206  0.2308 -0.9263 -0.9140
 3592TIP3   OH210781   5.540   4.684   4.065  0.3565  0.2335  0.3300
 3592TIP3    H110782   5.524   4.703   4.157 -2.5085  0.6809 -0.1558
 3592TIP3    H210783   5.551   4.771   4.025 -1.6447  0.3276 -0.1637
 3593TIP3   OH210784   1.293   2.718   4.951  0.5158 -0.0644  0.8226
 3593TIP3    H110785   1.325   2.801   4.987  1.6468  0.1149 -0.5187
 3593TIP3    H210786   1.322   2.718   4.860  0.5571 -1.9363  0.7884
 3594TIP3   OH210787   0.237   0.286   1.579  0.7024  0.8613 -0.3720
 3594TIP3    H110788   0.235   0.192   1.593  1.0695  0.6905 -1.4313
 3594TIP3    H210789   0.303   0.318   1.641  1.9850  0.1670 -1.3389
 3595TIP3   OH210790   1.211   0.715   5.100 -0.2262  0.3145 -0.4486
 3595TIP3    H110791   1.269   0.760   5.161  0.4241 -0.1314 -0.7313
 3595TIP3    H210792   1.243   0.739   5.014 -2.3395  2.5542 -0.7271
 3596TIP3   OH210793   2.636   4.162   4.001  0.5227  0.0652 -0.3813
 3596TIP3    H110794   2.565   4.202   4.052  1.4446  1.0615  0.1584
 3596TIP3    H210795   2.664   4.232   3.942  1.7557  0.0246  0.1444
 3597TIP3   OH210796   5.832   1.011   2.088  0.3501  0.4583 -0.1937
 3597TIP3    H110797   5.752   0.993   2.040  0.8231 -0.9086 -0.5279
 3597TIP3    H210798   5.858   0.926   2.124  2.1677  0.6601 -0.9299
 3598TIP3   OH210799   1.631   3.748   2.382 -0.1711 -0.2874 -0.3579
 3598TIP3    H110800   1.701   3.719   2.324 -0.6002 -1.0399 -0.5186
 3598TIP3    H210801   1.650   3.709   2.466 -0.9925 -1.4440 -0.6885
 3599TIP3   OH210802   4.574   2.558   3.094 -0.2121 -0.3926  0.2995
 3599TIP3    H110803   4.545   2.567   3.003  0.5090  1.8393  0.2225
 3599TIP3    H210804   4.663   2.523   3.087 -0.0119  0.1479  0.1245
 3600TIP3   OH210805   1.786   1.036   1.837 -0.7334 -0.0139  0.2667
 3600TIP3    H110806   1.870   1.025   1.793 -1.1372 -1.4975 -0.1868
 3600TIP3    H210807   1.807   1.023   1.930 -0.3497  0.3651  0.2396
 3601TIP3   OH210808   0.796   0.194   2.270 -0.1371  0.4639  0.0344
 3601TIP3    H110809   0.783   0.101   2.252  2.4020 -0.0380  0.4045
 3601TIP3    H210810   0.825   0.198   2.361  2.0515  1.3041 -0.6309
 3602TIP3   OH210811   5.061   1.182   0.867 -0.4346 -0.1065 -0.0175
 3602TIP3    H110812   5.061   1.090   0.840 -0.2901 -0.1370  0.0798
 3602TIP3    H210813   5.130   1.187   0.934 -2.2154 -0.4957  1.9332
 3603TIP3   OH210814   5.583   1.738   0.178  0.3561 -0.0843  0.2365
 3603TIP3    H110815   5.663   1.781   0.210 -0.1123 -0.3460  1.8376
 3603TIP3    H210816   5.541   1.804   0.123  0.6760  0.7921  1.0114
 3604TIP3   OH210817   3.588   5.773   3.198  0.2923 -0.5012 -0.4207
 3604TIP3    H110818   3.610   5.741   3.286  1.5783 -2.9448 -1.5346
 3604TIP3    H210819   3.647   5.725   3.140 -2.5814 -1.2973 -2.9178
 3605TIP3   OH210820   3.018   5.675   0.874 -0.7647 -0.0126 -0.1309
 3605TIP3    H110821   2.947   5.707   0.818 -1.1602  1.2091  1.0023
 3605TIP3    H210822   2.979   5.602   0.922  0.0022 -2.0684 -2.3900
 3606TIP3   OH210823   1.767   0.245   3.640 -0.1654 -0.3634  0.3715
 3606TIP3    H110824   1.721   0.317   3.683 -0.8386 -0.2781 -0.4540
 3606TIP3    H210825   1.848   0.235   3.690  0.1847  1.2943  0.2046
 3607TIP3   OH210826   2.633   5.710   5.097  0.1904 -0.2577 -0.4012
 3607TIP3    H110827   2.716   5.748   5.125  0.5034 -1.0686 -0.1978
 3607TIP3    H210828   2.659   5.639   5.037 -0.3818 -0.0273 -0.9213
 3608TIP3   OH210829   6.189   2.361   1.193 -0.3370 -0.3091  0.0745
 3608TIP3    H110830   6.159   2.444   1.229  0.9302 -0.0106  0.5160
 3608TIP3    H210831   6.125   2.297   1.224 -0.7358  0.3523  0.6481
 3609TIP3   OH210832   1.445   4.052   3.461  0.5152 -0.2525 -0.0299
 3609TIP3    H110833   1.396   4.024   3.538 -0.6292  0.9284 -0.2881
 3609TIP3    H210834   1.383   4.106   3.411  1.1904 -1.0408 -1.8270
 3610TIP3   OH210835   0.454   0.729   2.843 -0.2653 -0.3831  0.3927
 3610TIP3    H110836   0.421   0.655   2.792 -0.4427  0.5100 -0.8562
 3610TIP3    H210837   0.392   0.800   2.824  0.4848  0.3786  0.7229
 3611TIP3   OH210838   4.863   3.807   2.592 -0.2295  0.7343 -0.1735
 3611TIP3    H110839   4.819   3.849   2.665 -0.4555  1.3767 -0.6784
 3611TIP3    H210840   4.800   3.742   2.560  0.9888 -1.8134  2.1293
 3612TIP3   OH210841   4.711   5.423   4.576  0.1616 -0.6984  0.9171
 3612TIP3    H110842   4.743   5.487   4.513  0.2853 -1.4659  0.1830
 3612TIP3    H210843   4.638   5.467   4.620  0.1473 -0.1156  0.3270
 3613TIP3   OH210844   3.559   2.614   4.795  0.0282 -0.4960 -0.0490
 3613TIP3    H110845   3.543   2.536   4.741  0.2320  0.0781 -0.9494
 3613TIP3    H210846   3.477   2.663   4.791 -0.1001 -0.6534  0.5199
 3614TIP3   OH210847   0.696   0.270   4.115 -0.1158 -0.4672 -0.2831
 3614TIP3    H110848   0.717   0.341   4.176  0.1740 -0.7852 -0.0050
 3614TIP3    H210849   0.764   0.205   4.131 -1.1386 -1.3976  0.4237
 3615TIP3   OH210850   0.899   2.318   3.274 -0.1215  0.1838 -0.2426
 3615TIP3    H110851   0.858   2.247   3.323 -0.4694  0.7447  0.2896
 3615TIP3    H210852   0.945   2.370   3.340  0.4054  0.2666 -0.6711
 3616TIP3   OH210853   4.085   0.199   1.903  0.2821  0.5870 -0.3274
 3616TIP3    H110854   4.064   0.114   1.864  3.1829  0.0585 -0.9647
 3616TIP3    H210855   4.045   0.196   1.990  0.5537 -1.5683 -0.2351
 3617TIP3   OH210856   3.577   4.171   3.854  0.0083 -0.1050 -0.2016
 3617TIP3    H110857   3.567   4.109   3.782 -0.3157 -0.4824  0.1633
 3617TIP3    H210858   3.546   4.123   3.932  1.9985 -0.3141  0.5013
 3618TIP3   OH210859   2.153   1.956   1.666  0.8407 -0.2550  0.0474
 3618TIP3    H110860   2.227   1.909   1.628  1.3782  1.1452 -0.7096
 3618TIP3    H210861   2.077   1.926   1.614  0.8420 -1.6738  0.8127
 3619TIP3   OH210862   4.960   1.219   2.519  0.1877  0.0135 -0.8290
 3619TIP3    H110863   5.054   1.223   2.533 -0.0339 -0.1207  0.8827
 3619TIP3    H210864   4.950   1.181   2.432  1.7035 -0.6382 -0.7422
 3620TIP3   OH210865   3.806   2.818   3.936  0.0024  0.2312 -0.0128
 3620TIP3    H110866   3.718   2.847   3.914  0.2050  0.5769 -0.3885
 3620TIP3    H210867   3.861   2.895   3.921  0.0240  0.8558  2.8317
 3621TIP3   OH210868   4.475   3.830   2.756  0.9036  0.3760  0.4157
 3621TIP3    H110869   4.413   3.821   2.682  1.1868 -1.3781  0.3578
 3621TIP3    H210870   4.430   3.788   2.829  1.4801  0.2744  0.7101
 3622TIP3   OH210871   0.313   0.552   2.664 -0.0168 -0.3146  0.4130
 3622TIP3    H110872   0.358   0.483   2.713  2.0799  0.5870 -0.1095
 3622TIP3    H210873   0.324   0.528   2.572 -1.3243 -0.4628  0.2784
 3623TIP3   OH210874   3.784   3.601   4.633  0.2493 -0.1811 -0.0985
 3623TIP3    H110875   3.793   3.525   4.691 -0.0388  0.8415  1.3348
 3623TIP3    H210876   3.874   3.620   4.605  0.3286 -1.0124 -0.4504
 3624TIP3   OH210877   4.323   2.933   2.967  0.1503 -0.2533 -0.3405
 3624TIP3    H110878   4.325   2.868   2.896  1.1271 -1.0296  0.3598
 3624TIP3    H210879   4.414   2.939   2.996 -0.1468  0.4808  0.4642
 3625TIP3   OH210880   1.443   3.185   2.006 -0.5641 -0.9149  0.0522
 3625TIP3    H110881   1.510   3.135   2.053 -0.3851 -2.0377 -1.2833
 3625TIP3    H210882   1.446   3.149   1.917  1.2618  3.0971 -1.7795
 3626TIP3   OH210883   5.423   4.734   0.089  0.3547 -0.9925 -0.1639
 3626TIP3    H110884   5.370   4.811   0.111  1.9616  0.5989 -1.6033
 3626TIP3    H210885   5.384   4.700   0.009 -0.9389 -2.3167  0.9761
 3627TIP3   OH210886   0.436   2.224   3.438 -0.4513  0.3075 -0.1703
 3627TIP3    H110887   0.453   2.300   3.495 -1.3298  0.6809 -0.3794
 3627TIP3    H210888   0.383   2.166   3.492 -0.2827  0.1104 -0.2157
 3628TIP3   OH210889   3.805   5.609   3.664 -0.3903 -0.2141  0.2240
 3628TIP3    H110890   3.848   5.524   3.671 -0.5935 -0.3024  0.4071
 3628TIP3    H210891   3.790   5.636   3.754  0.6082  0.5019  0.2013
 3629TIP3   OH210892   1.669   0.232   3.387  0.7283 -0.5252 -0.3295
 3629TIP3    H110893   1.720   0.227   3.467 -0.6290  0.3881  0.6395
 3629TIP3    H210894   1.641   0.142   3.371  0.0985 -0.5709  0.8825
 3630TIP3   OH210895   3.523   0.613   3.593  0.2093  0.5100 -0.1679
 3630TIP3    H110896   3.604   0.586   3.637 -0.4218  0.4555  0.9901
 3630TIP3    H210897   3.471   0.533   3.587  0.6050  0.3399 -1.7764
 3631TIP3   OH210898   5.571   2.905   4.489  1.0300  0.8744  0.0391
 3631TIP3    H110899   5.503   2.883   4.553  1.4245 -0.1148  0.1322
 3631TIP3    H210900   5.572   2.831   4.429  0.1941  2.0888 -1.5450
 3632TIP3   OH210901   4.136   2.789   1.313  0.2937  0.4041  0.2305
 3632TIP3    H110902   4.151   2.767   1.221 -3.4200  0.6527 -0.5821
 3632TIP3    H210903   4.188   2.868   1.327  1.5522 -0.0725 -1.3891
 3633TIP3   OH210904   3.526   2.013   2.727 -0.2433 -0.3524  0.1227
 3633TIP3    H110905   3.458   1.985   2.788 -0.4576  0.9913  0.5238
 3633TIP3    H210906   3.521   1.950   2.655 -1.4769 -0.6526  0.4545
 3634TIP3   OH210907   4.856   0.022   0.088  0.3458 -0.0718 -0.2750
 3634TIP3    H110908   4.766   0.003   0.061 -0.5416  1.6296  1.2711
 3634TIP3    H210909   4.906   0.018   0.007 -0.6015 -3.4718 -0.8516
 3635TIP3   OH210910   1.183   4.655   4.514  0.0502  0.9254 -0.0950
 3635TIP3    H110911   1.130   4.604   4.575  0.3494  0.7556  0.0263
 3635TIP3    H210912   1.217   4.590   4.452  0.2213  1.0129 -0.0945
 3636TIP3   OH210913   4.444   2.393   2.911 -0.7229 -0.1793  0.7166
 3636TIP3    H110914   4.363   2.437   2.886 -1.1675 -1.2286  0.2296
 3636TIP3    H210915   4.438   2.382   3.006 -1.7917 -1.4381  0.5271
 3637TIP3   OH210916   0.113   1.698   1.123 -0.3511  0.1579 -0.1328
 3637TIP3    H110917   0.123   1.603   1.134 -2.3780 -0.1735 -0.7311
 3637TIP3    H210918   0.180   1.722   1.058  0.4610 -0.7698  0.3307
 3638TIP3   OH210919   3.846   4.276   1.184  0.0267 -0.2540 -0.2040
 3638TIP3    H110920   3.845   4.203   1.122 -1.5414  0.7609 -1.4807
 3638TIP3    H210921   3.909   4.337   1.148 -1.9801  1.0294 -1.7814
 3639TIP3   OH210922   3.024   1.634   0.969  0.6774  0.4210 -0.2065
 3639TIP3    H110923   3.097   1.639   1.031  0.3682 -1.1756  0.3274
 3639TIP3    H210924   3.048   1.562   0.910 -0.0359  0.5088 -0.6182
 3640TIP3   OH210925   5.169   4.511   1.596  0.2153 -0.1180  0.1603
 3640TIP3    H110926   5.151   4.509   1.502  0.4384 -0.5724  0.1241
 3640TIP3    H210927   5.224   4.588   1.608 -0.4157  0.3656  0.0333
 3641TIP3   OH210928   5.345   4.533   4.397  0.9391 -0.4213 -0.4985
 3641TIP3    H110929   5.273   4.558   4.339  0.8298  0.5482  0.0314
 3641TIP3    H210930   5.381   4.454   4.357 -0.4608 -0.9744 -0.7292
 3642TIP3   OH210931   2.482   5.327   2.900  0.0058  0.9224 -0.4549
 3642TIP3    H110932   2.545   5.397   2.885 -0.0258  1.2347  0.7685
 3642TIP3    H210933   2.399   5.360   2.864  0.4512  0.6187 -1.8206
 3643TIP3   OH210934   2.881   1.498   3.845  0.3004 -0.0247  0.4784
 3643TIP3    H110935   2.895   1.556   3.770 -3.2406 -0.7472 -0.9671
 3643TIP3    H210936   2.814   1.542   3.898 -0.7347 -1.6525  0.6024
 3644TIP3   OH210937   1.707   5.319   4.033 -0.5741  0.2308  0.3923
 3644TIP3    H110938   1.755   5.261   3.973 -0.5959  1.0171 -0.4085
 3644TIP3    H210939   1.695   5.267   4.112  0.8888 -0.2690  0.3177
 3645TIP3   OH210940   1.773   0.932   3.917 -0.5855  0.0916  0.0991
 3645TIP3    H110941   1.678   0.932   3.905 -0.6761  1.5359  0.5390
 3645TIP3    H210942   1.797   0.840   3.918 -1.8670 -0.2851 -0.8655
 3646TIP3   OH210943   5.529   2.760   4.033  0.1382 -0.0160 -0.4147
 3646TIP3    H110944   5.433   2.764   4.024  0.2638  0.8071 -1.5517
 3646TIP3    H210945   5.543   2.751   4.127 -1.0919 -1.6891 -0.3342
 3647TIP3   OH210946   2.567   2.105   5.064 -0.5258  0.1106 -0.3301
 3647TIP3    H110947   2.660   2.110   5.082 -0.7475 -1.0919  1.3787
 3647TIP3    H210948   2.547   2.011   5.067 -1.9859  0.4193  0.5711
 3648TIP3   OH210949   0.715   5.003   4.533  0.0550  0.3149  0.4737
 3648TIP3    H110950   0.700   4.927   4.589  0.4310 -0.2459 -0.1727
 3648TIP3    H210951   0.693   5.078   4.588  1.0001 -0.1897  1.5798
 3649TIP3   OH210952   5.265   2.869   4.341  0.3781 -0.1620 -0.5236
 3649TIP3    H110953   5.214   2.788   4.344 -0.0692  0.0889 -1.1383
 3649TIP3    H210954   5.253   2.908   4.427  1.0858 -1.0409 -0.0166
 3650TIP3   OH210955   0.415   4.657   2.847 -0.1788 -0.1349  0.2241
 3650TIP3    H110956   0.447   4.734   2.800  2.7994 -1.5971 -0.3764
 3650TIP3    H210957   0.440   4.671   2.938 -1.1529  0.3074  0.4393
 3651TIP3   OH210958   1.739   1.764   4.987 -0.1111 -0.4028  0.2465
 3651TIP3    H110959   1.747   1.754   5.081  0.4527 -0.5915  0.1818
 3651TIP3    H210960   1.768   1.853   4.969 -1.1535 -0.0288  0.3547
 3652TIP3   OH210961   3.803   2.141   0.187 -0.0751  0.0251 -0.0703
 3652TIP3    H110962   3.773   2.230   0.206  0.5248  0.5041 -1.3085
 3652TIP3    H210963   3.733   2.085   0.221 -0.8895  0.9977 -0.0953
 3653TIP3   OH210964   1.956   0.011   3.719 -0.7025  0.2393  0.2206
 3653TIP3    H110965   2.035   0.043   3.674 -0.3536  0.5551  1.0383
 3653TIP3    H210966   1.884   0.053   3.672 -0.2959  1.5155  0.6843
 3654TIP3   OH210967   1.706   5.233   0.453  0.6466 -0.0027 -0.2145
 3654TIP3    H110968   1.621   5.241   0.410  1.2457  0.2938 -1.4099
 3654TIP3    H210969   1.767   5.212   0.382  1.2928 -2.1909  0.8873
 3655TIP3   OH210970   3.938   3.751   0.181 -0.3459 -0.5276 -0.3643
 3655TIP3    H110971   3.865   3.804   0.213  0.2476 -0.2765  0.6479
 3655TIP3    H210972   3.931   3.755   0.086 -0.4328  1.2295 -0.3235
 3656TIP3   OH210973   0.165   0.150   1.187  0.2792  0.6026 -0.4103
 3656TIP3    H110974   0.098   0.211   1.219 -2.5078 -2.7105  0.6625
 3656TIP3    H210975   0.226   0.143   1.260 -1.9338 -1.2129  1.4251
 3657TIP3   OH210976   1.573   4.986   2.990 -0.8358 -0.0195  0.4921
 3657TIP3    H110977   1.521   5.053   3.034 -0.6257  0.2558  0.3238
 3657TIP3    H210978   1.659   4.992   3.031 -0.8177 -0.1862  0.4778
 3658TIP3   OH210979   2.422   3.972   0.808 -0.4330  0.9845 -0.3886
 3658TIP3    H110980   2.428   4.062   0.778 -1.1018  0.9609 -0.6278
 3658TIP3    H210981   2.377   3.926   0.736  1.6908  0.0074 -1.1937
 3659TIP3   OH210982   2.468   1.072   2.164 -0.5831 -0.3492  0.8523
 3659TIP3    H110983   2.483   1.099   2.073  2.1893  1.7026  1.7815
 3659TIP3    H210984   2.481   1.152   2.215  0.5607 -1.9723  3.2652
 3660TIP3   OH210985   5.030   3.604   0.263 -0.1243 -0.1943 -0.1347
 3660TIP3    H110986   5.015   3.521   0.308  0.0845  0.1277  0.5432
 3660TIP3    H210987   4.956   3.612   0.203 -0.4277 -0.6210  0.1731
 3661TIP3   OH210988   5.813   5.677   3.423  0.5423  0.1340 -0.0371
 3661TIP3    H110989   5.900   5.654   3.453 -0.7683 -0.3958  3.8866
 3661TIP3    H210990   5.773   5.594   3.397  0.3767 -0.0305  0.7194
 3662TIP3   OH210991   5.174   1.636   1.314  0.7408 -0.8248  0.5270
 3662TIP3    H110992   5.150   1.618   1.224 -0.3207  1.2781  0.3401
 3662TIP3    H210993   5.091   1.643   1.361  1.1075  1.2034  0.9769
 3663TIP3   OH210994   2.560   4.692   2.871  0.1591 -0.1393 -0.2893
 3663TIP3    H110995   2.629   4.706   2.935  0.0899  0.3429 -0.3149
 3663TIP3    H210996   2.599   4.716   2.787  0.1327 -0.4056 -0.3800
 3664TIP3   OH210997   2.057   4.723   3.160  0.3697  0.8423 -0.1150
 3664TIP3    H110998   1.987   4.708   3.223  0.8747  0.9218  0.4749
 3664TIP3    H210999   2.124   4.657   3.182 -0.2158 -0.3788 -1.7445
 3665TIP3   OH211000   5.040   4.299   0.628 -0.0386  0.2446 -0.6057
 3665TIP3    H111001   4.962   4.264   0.585  1.2607 -0.8198 -2.2413
 3665TIP3    H211002   5.044   4.390   0.601 -1.2021  0.5715  0.2701
 3666TIP3   OH211003   0.285   1.941   2.834  0.2338 -0.2825 -0.2582
 3666TIP3    H111004   0.299   1.879   2.906 -0.5837 -0.2459 -0.0569
 3666TIP3    H211005   0.343   2.014   2.854 -0.4388  0.0082  0.7060
 3667TIP3   OH211006   4.281   0.724   0.523  0.1387  0.0087  1.0712
 3667TIP3    H111007   4.278   0.653   0.587 -0.4231 -0.0027  1.0361
 3667TIP3    H211008   4.253   0.801   0.573 -1.9081 -0.2847  0.4703
 3668TIP3   OH211009   3.507   5.871   5.103  0.1739  0.6436  0.2258
 3668TIP3    H111010   3.521   5.950   5.051 -0.3503 -0.3129 -1.4471
 3668TIP3    H211011   3.595   5.833   5.113  0.1081 -0.0926 -1.5732
 3669TIP3   OH211012   2.282   4.794   4.378  0.4256  0.0210 -0.5312
 3669TIP3    H111013   2.210   4.852   4.404  1.2470  0.7568  0.1492
 3669TIP3    H211014   2.338   4.848   4.322 -0.3811 -1.0254 -2.4883
 3670TIP3   OH211015   4.704   0.380   3.551 -0.2141 -0.0838  0.4328
 3670TIP3    H111016   4.664   0.439   3.615 -1.5120 -0.8931  0.3921
 3670TIP3    H211017   4.682   0.292   3.582 -2.4693 -0.5214 -2.0289
 3671TIP3   OH211018   0.033   4.645   1.629  0.1175  0.3823 -0.2562
 3671TIP3    H111019   0.004   4.725   1.673  1.8310 -0.1436  2.0229
 3671TIP3    H211020   0.126   4.637   1.653  0.7262 -0.9034 -2.6423
 3672TIP3   OH211021   6.351   2.130   1.301  0.1230 -0.3239  0.7905
 3672TIP3    H111022   6.410   2.165   1.234  0.5962 -2.2858  0.1109
 3672TIP3    H211023   6.264   2.158   1.273  0.1308 -2.3910 -1.5838
 3673TIP3   OH211024   5.928   0.478   0.962  0.2221 -0.5491 -0.0438
 3673TIP3    H111025   5.974   0.435   0.890 -0.5847 -1.4943 -0.0171
 3673TIP3    H211026   5.835   0.472   0.939 -0.0186 -0.4164  0.8247
 3674TIP3   OH211027   3.554   1.571   3.692 -0.3040  0.0866  0.2333
 3674TIP3    H111028   3.476   1.579   3.747  0.0790 -0.6752  0.9021
 3674TIP3    H211029   3.533   1.503   3.629  0.7352 -2.0498  2.0774
 3675TIP3   OH211030   0.268   3.655   3.107  0.1580 -0.1916  0.0388
 3675TIP3    H111031   0.335   3.724   3.108  3.0733 -2.7943  0.5225
 3675TIP3    H211032   0.246   3.642   3.199  0.5350 -0.7255  0.0526
 3676TIP3   OH211033   6.110   5.857   4.285  0.0060  0.3653  0.3614
 3676TIP3    H111034   6.138   5.847   4.376  0.0868 -0.6522  0.2369
 3676TIP3    H211035   6.192   5.873   4.237  0.3495 -1.8167  0.1102
 3677TIP3   OH211036   2.909   0.297   2.928  0.3216  0.1691  0.4593
 3677TIP3    H111037   2.833   0.273   2.981  0.3011  0.4073  0.5419
 3677TIP3    H211038   2.899   0.392   2.914 -0.3103 -0.0860 -0.9698
 3678TIP3   OH211039   4.773   5.634   4.426 -0.7980  0.6042 -0.4035
 3678TIP3    H111040   4.809   5.695   4.490  1.2613 -1.0009  0.0666
 3678TIP3    H211041   4.695   5.678   4.392  0.5205  3.4137 -0.0194
 3679TIP3   OH211042   1.410   0.916   2.511  0.1054 -0.8112 -0.7770
 3679TIP3    H111043   1.427   0.992   2.566  0.9142 -0.1724 -1.8692
 3679TIP3    H211044   1.466   0.847   2.548 -3.5075 -2.2629  2.7609
 3680TIP3   OH211045   1.598   3.844   3.870  0.1656  0.4039 -0.0712
 3680TIP3    H111046   1.542   3.884   3.804 -0.6502 -0.3273  0.1653
 3680TIP3    H211047   1.584   3.750   3.860  1.6042  0.1891 -0.2201
 3681TIP3   OH211048   2.864   5.216   1.127  0.1933 -0.0939 -0.1774
 3681TIP3    H111049   2.875   5.121   1.124 -0.0811 -0.1077 -1.1808
 3681TIP3    H211050   2.807   5.235   1.052 -0.8706  0.7186  0.8144
 3682TIP3   OH211051   3.656   2.380   5.068  0.5571 -0.1548 -0.0590
 3682TIP3    H111052   3.625   2.301   5.112  1.2707  0.4439  1.6161
 3682TIP3    H211053   3.667   2.355   4.977 -1.2191 -1.4030  0.0317
 3683TIP3   OH211054   2.980   0.218   1.695 -0.0386 -0.1332  0.2619
 3683TIP3    H111055   3.026   0.137   1.719  0.6281 -0.3461 -1.5549
 3683TIP3    H211056   2.895   0.188   1.662 -0.2304 -0.0057  0.6465
 3684TIP3   OH211057   0.339   1.725   1.647  0.2658  0.1899  0.3774
 3684TIP3    H111058   0.361   1.702   1.557  0.8831  0.2006  0.5179
 3684TIP3    H211059   0.325   1.641   1.690  0.8230  0.1407  0.4746
 3685TIP3   OH211060   0.463   2.975   5.027 -0.7316  0.3115 -0.6901
 3685TIP3    H111061   0.504   2.900   4.985 -1.3032  0.5731 -1.7527
 3685TIP3    H211062   0.438   3.033   4.954 -0.1818  1.5982  0.1062
 3686TIP3   OH211063   2.986   3.941   2.041  0.9188 -0.3799  0.4557
 3686TIP3    H111064   2.976   4.026   2.000 -0.6451 -0.8101 -0.1191
 3686TIP3    H211065   2.976   3.878   1.969 -0.4846 -1.1116  1.2529
 3687TIP3   OH211066   4.342   2.767   2.735  0.1014  0.3481  0.8020
 3687TIP3    H111067   4.426   2.754   2.693  0.6592 -0.9488  2.2261
 3687TIP3    H211068   4.331   2.691   2.792 -1.8368  0.7035  0.9813
 3688TIP3   OH211069   4.417   5.266   4.975  0.3948 -0.1109 -0.3869
 3688TIP3    H111070   4.443   5.358   4.969 -0.0070 -0.0375 -1.1313
 3688TIP3    H211071   4.392   5.242   4.886 -3.1881  0.1544  0.3788
 3689TIP3   OH211072   5.746   3.141   0.140  0.4999 -0.5358  0.2643
 3689TIP3    H111073   5.776   3.052   0.118 -0.2285 -0.8994  0.7247
 3689TIP3    H211074   5.668   3.128   0.194 -1.7931  0.3655 -2.5597
 3690TIP3   OH211075   0.778   4.531   4.040 -0.3699 -0.3965 -0.3189
 3690TIP3    H111076   0.755   4.442   4.012  1.2908 -1.0574  0.2703
 3690TIP3    H211077   0.863   4.548   3.999  1.5516 -0.8980  3.0440
 3691TIP3   OH211078   1.976   1.229   3.540  0.2714  0.1597  0.0221
 3691TIP3    H111079   1.960   1.181   3.458  0.8570 -0.4142  0.2352
 3691TIP3    H211080   2.034   1.301   3.515 -1.2710  1.2973 -0.4571
 3692TIP3   OH211081   6.244   2.081   4.928  0.2230 -0.1276 -0.7292
 3692TIP3    H111082   6.333   2.117   4.927  0.3003 -0.2885 -2.3016
 3692TIP3    H211083   6.188   2.158   4.933  0.4410  0.1197 -1.7067
 3693TIP3   OH211084   5.378   0.162   2.512 -0.1602 -0.2067  0.0238
 3693TIP3    H111085   5.318   0.119   2.451 -0.0643 -0.1086 -0.1443
 3693TIP3    H211086   5.460   0.170   2.462 -0.3142  0.5962 -0.1197
 3694TIP3   OH211087   0.249   1.915   0.532  0.0702 -0.7704  0.6786
 3694TIP3    H111088   0.278   1.998   0.493  0.1741 -1.5167 -0.9529
 3694TIP3    H211089   0.157   1.908   0.507 -0.3033 -0.5280  1.9631
 3695TIP3   OH211090   3.856   3.688   1.263  0.1762  0.3212  0.2318
 3695TIP3    H111091   3.830   3.748   1.333 -0.0518  0.8461 -0.2910
 3695TIP3    H211092   3.836   3.601   1.297 -0.7399  0.6195  0.4878
 3696TIP3   OH211093   3.365   1.053   0.641  0.5888  0.4387  0.4354
 3696TIP3    H111094   3.444   1.005   0.617 -0.5475 -1.0382 -0.6362
 3696TIP3    H211095   3.331   1.007   0.718  1.0137  1.3847  1.2073
 3697TIP3   OH211096   2.202   4.715   1.874  0.2163 -0.3704  0.1685
 3697TIP3    H111097   2.130   4.763   1.833  0.6577  0.5638  0.4642
 3697TIP3    H211098   2.159   4.649   1.928 -0.4015 -2.0869 -2.2159
 3698TIP3   OH211099   6.015   2.974   0.833 -0.2670  0.1849 -0.5160
 3698TIP3    H111100   5.920   2.969   0.845 -0.1391  0.7227  0.9705
 3698TIP3    H211101   6.048   3.008   0.916  1.3096 -0.7237 -0.7239
 3699TIP3   OH211102   0.109   4.355   4.328 -0.1212  0.1666  0.1235
 3699TIP3    H111103   0.019   4.371   4.357  0.0245 -0.6066  1.0491
 3699TIP3    H211104   0.143   4.292   4.391  1.7338  1.9250  0.9873
 3700TIP3   OH211105   6.329   0.988   3.335  0.0592 -0.4777  0.1294
 3700TIP3    H111106   6.251   1.041   3.319  0.8585  0.0360 -2.5812
 3700TIP3    H211107   6.325   0.917   3.271  1.8371 -0.3625 -0.1828
 3701TIP3   OH211108   0.333   4.377   2.440 -0.1930 -0.7127  0.0572
 3701TIP3    H111109   0.333   4.407   2.531 -1.8531 -2.0887  0.5649
 3701TIP3    H211110   0.242   4.352   2.423  0.4562 -2.3264 -1.3624
 3702TIP3   OH211111   3.553   3.681   1.532 -0.0892 -0.2213 -0.7546
 3702TIP3    H111112   3.463   3.681   1.500  0.1909 -1.8381 -1.6558
 3702TIP3    H211113   3.589   3.598   1.500  1.0922 -0.5784  1.3364
 3703TIP3   OH211114   2.910   4.873   1.680  0.1244 -0.2828 -0.3810
 3703TIP3    H111115   2.914   4.947   1.620 -0.7711  0.2175  0.1500
 3703TIP3    H211116   2.993   4.877   1.729  0.6207 -0.3772 -1.2027
 3704TIP3   OH211117   5.755   4.747   2.485  0.1230  0.1425  0.0597
 3704TIP3    H111118   5.733   4.781   2.398  4.3590  2.2950 -0.4295
 3704TIP3    H211119   5.729   4.816   2.546 -0.4286 -0.2187  0.2446
 3705TIP3   OH211120   1.481   3.162   4.179  0.1756 -0.3460 -0.1227
 3705TIP3    H111121   1.425   3.122   4.112 -0.0774 -0.2055  0.0009
 3705TIP3    H211122   1.439   3.137   4.262 -0.8943  1.4613 -0.0713
 3706TIP3   OH211123   4.318   2.397   1.346 -0.3488 -0.0804  0.5090
 3706TIP3    H111124   4.261   2.429   1.416  0.3930 -0.5659  1.3594
 3706TIP3    H211125   4.382   2.341   1.391  0.4025 -0.0617 -0.5050
 3707TIP3   OH211126   5.922   1.435   3.581  0.3031  0.2211  0.5088
 3707TIP3    H111127   5.835   1.469   3.563  0.6083  0.3732 -0.7412
 3707TIP3    H211128   5.951   1.483   3.659 -0.8161 -0.0223  1.0914
 3708TIP3   OH211129   4.011   2.212   2.804 -0.0608  0.2699  0.2488
 3708TIP3    H111130   4.062   2.171   2.873  1.9235  0.6260 -0.9480
 3708TIP3    H211131   4.050   2.299   2.793 -0.5354  0.3340 -1.1071
 3709TIP3   OH211132   4.473   0.362   1.257 -0.3030 -0.4379  0.4713
 3709TIP3    H111133   4.445   0.315   1.178  0.2183  0.5665 -0.3325
 3709TIP3    H211134   4.569   0.362   1.252 -0.2226 -1.1834  1.6125
 3710TIP3   OH211135   2.420   5.938   2.938  0.2859 -0.0552 -0.2996
 3710TIP3    H111136   2.328   5.949   2.915  0.4636  1.0699 -0.5333
 3710TIP3    H211137   2.426   5.849   2.972 -0.5424 -0.7760 -1.9459
 3711TIP3   OH211138   1.728   2.452   1.223 -0.1939  0.5714  0.3792
 3711TIP3    H111139   1.701   2.476   1.312 -0.9562 -1.4386  0.7421
 3711TIP3    H211140   1.795   2.517   1.200  0.9028  0.4444  2.8719
 3712TIP3   OH211141   1.951   5.030   3.354  0.2714  0.4416  0.0873
 3712TIP3    H111142   2.033   4.993   3.323 -0.8339 -1.9958 -0.0964
 3712TIP3    H211143   1.978   5.107   3.405  2.6066 -0.0085 -0.3505
 3713TIP3   OH211144   6.264   4.603   0.432 -0.3501 -0.6124 -0.3430
 3713TIP3    H111145   6.198   4.535   0.422  0.8699 -1.9650  0.4366
 3713TIP3    H211146   6.263   4.650   0.348 -3.3810  0.5104  0.1938
 3714TIP3   OH211147   4.116   0.034   0.189  0.2159  0.1372 -0.5585
 3714TIP3    H111148   4.127   0.107   0.128  0.1618  1.9754  1.4804
 3714TIP3    H211149   4.032  -0.004   0.166 -0.2152  1.3505 -1.0772
 3715TIP3   OH211150   2.332   3.431   0.415  0.2324 -0.4809  0.6056
 3715TIP3    H111151   2.351   3.419   0.322  0.5781  0.8197  0.4775
 3715TIP3    H211152   2.236   3.423   0.421  0.1514 -0.0316  0.0366
 3716TIP3   OH211153   6.312   0.322   0.365  0.2124 -0.5397 -0.1195
 3716TIP3    H111154   6.304   0.417   0.357 -0.9491 -0.6003  0.2280
 3716TIP3    H211155   6.365   0.296   0.289  0.6645  0.3894 -0.1322
 3717TIP3   OH211156   0.703   4.305   3.913 -0.3075 -0.4042  0.8681
 3717TIP3    H111157   0.610   4.326   3.915 -0.1413  0.6527 -0.8353
 3717TIP3    H211158   0.712   4.241   3.842  0.3647  0.1299  0.4580
 3718TIP3   OH211159   3.465   5.911   2.207 -0.4146  0.4329  0.4155
 3718TIP3    H111160   3.397   5.961   2.161 -1.0782 -0.1431  0.7480
 3718TIP3    H211161   3.422   5.830   2.232  1.5518 -1.9393 -3.1113
 3719TIP3   OH211162   4.142   3.930   4.458  0.1115  0.1310  0.2222
 3719TIP3    H111163   4.208   3.996   4.479  0.3626  0.3336 -1.1313
 3719TIP3    H211164   4.071   3.947   4.520  0.4617  1.2303  0.3465
 3720TIP3   OH211165   2.423   1.168   0.321  0.2691 -0.4347 -0.3072
 3720TIP3    H111166   2.425   1.081   0.279 -1.0710 -0.6832  0.1177
 3720TIP3    H211167   2.366   1.220   0.265 -1.2567 -0.6691  0.9590
 3721TIP3   OH211168   4.407   4.485   1.804  0.6462 -0.2824 -0.1661
 3721TIP3    H111169   4.500   4.493   1.826  0.3854 -2.9722  2.5705
 3721TIP3    H211170   4.405   4.416   1.737  0.6665  0.5314 -1.0194
 3722TIP3   OH211171   3.858   5.556   0.805 -0.0751  0.6998 -0.5056
 3722TIP3    H111172   3.773   5.518   0.825 -0.6481  1.3494 -1.5980
 3722TIP3    H211173   3.882   5.518   0.721  1.1934 -0.2334  0.2440
 3723TIP3   OH211174   5.467   5.318   1.514  0.0274 -0.3721  0.8497
 3723TIP3    H111175   5.501   5.271   1.591  2.0289 -0.0560  0.2208
 3723TIP3    H211176   5.474   5.255   1.443  0.9480  0.2228  0.3823
 3724TIP3   OH211177   4.873   2.381   0.121 -0.6329 -0.3694  0.1826
 3724TIP3    H111178   4.875   2.285   0.117  1.7212 -0.4091  0.5666
 3724TIP3    H211179   4.849   2.408   0.032 -2.2510 -1.2834  0.3047
 3725TIP3   OH211180   6.107   1.649   1.261 -0.0552 -0.3163 -0.2376
 3725TIP3    H111181   6.168   1.694   1.202  2.3530 -1.9266  0.8689
 3725TIP3    H211182   6.071   1.719   1.316  0.5479  0.7209 -1.1187
 3726TIP3   OH211183   1.059   5.130   1.787  0.0737  0.2349 -0.2055
 3726TIP3    H111184   1.116   5.063   1.824 -0.7333  0.4742  1.5944
 3726TIP3    H211185   1.071   5.206   1.844 -1.2083  0.6369 -0.4388
 3727TIP3   OH211186   2.740   2.684   2.787 -0.1773  0.7291  0.3763
 3727TIP3    H111187   2.721   2.616   2.723 -2.6659  0.5933  1.1526
 3727TIP3    H211188   2.823   2.656   2.827  1.1041  0.4965 -2.2525
 3728TIP3   OH211189   4.750   4.420   2.140 -0.5564  0.4672 -0.3351
 3728TIP3    H111190   4.761   4.365   2.217 -0.0476  0.3194 -0.5103
 3728TIP3    H211191   4.677   4.478   2.162 -2.6523 -1.7777 -1.0114
 3729TIP3   OH211192   3.605   3.627   2.463  0.1073  0.3968 -0.1660
 3729TIP3    H111193   3.595   3.707   2.412 -0.4433  0.1487 -0.4544
 3729TIP3    H211194   3.680   3.582   2.423 -0.2429  0.2665 -0.6759
 3730TIP3   OH211195   3.213   2.630   0.665 -0.1893 -0.0109  0.1921
 3730TIP3    H111196   3.125   2.611   0.698  0.2290 -1.5191  0.5319
 3730TIP3    H211197   3.208   2.720   0.634 -1.8448 -0.0534  0.2341
 3731TIP3   OH211198   5.848   3.980   3.212 -0.4461  0.2953  0.0529
 3731TIP3    H111199   5.930   4.010   3.252  1.3026 -1.1385 -2.1772
 3731TIP3    H211200   5.845   4.027   3.128 -2.6566  1.3052  0.6285
 3732TIP3   OH211201   3.986   0.183   1.507  0.1510 -0.1517 -0.3982
 3732TIP3    H111202   3.950   0.108   1.461 -1.6567 -0.5858  1.5150
 3732TIP3    H211203   4.053   0.147   1.565  0.6519  0.0098 -0.8751
 3733TIP3   OH211204   2.678   5.943   1.698 -1.0006 -0.1913  0.1663
 3733TIP3    H111205   2.764   5.910   1.721 -0.4698  0.1552 -1.2187
 3733TIP3    H211206   2.682   5.958   1.604 -2.7875 -0.8056 -0.0665
 3734TIP3   OH211207   4.628   0.558   4.886 -0.3036 -0.1671  0.2667
 3734TIP3    H111208   4.710   0.594   4.852 -1.0441  0.1733 -1.2509
 3734TIP3    H211209   4.639   0.559   4.981  1.4769 -0.2071  0.0995
 3735TIP3   OH211210   1.788   2.761   4.802  0.3883  0.3776 -0.1845
 3735TIP3    H111211   1.859   2.763   4.865 -0.4785 -0.2414  0.8375
 3735TIP3    H211212   1.822   2.710   4.728  1.5709  1.5016 -0.4471
 3736TIP3   OH211213   4.620   0.694   1.258  0.2493 -0.1904  0.3804
 3736TIP3    H111214   4.638   0.781   1.222  1.4227 -0.9287 -0.8826
 3736TIP3    H211215   4.526   0.681   1.243  0.4493  0.0530 -1.2945
 3737TIP3   OH211216   1.503   5.871   0.041  0.5374  0.5853 -0.3829
 3737TIP3    H111217   1.463   5.906  -0.039 -0.6636 -0.5529 -0.3015
 3737TIP3    H211218   1.505   5.776   0.028  0.1549  0.3637  1.0152
 3738TIP3   OH211219   1.365   2.839   2.057 -0.3610  0.4302  0.2259
 3738TIP3    H111220   1.427   2.816   1.988  0.5142 -1.4352  1.5495
 3738TIP3    H211221   1.293   2.777   2.047 -0.1975  0.0986  1.0102
 3739TIP3   OH211222   1.100   4.347   2.113 -0.0093 -0.1849 -0.1607
 3739TIP3    H111223   1.149   4.429   2.122 -1.0523  0.2740  2.2260
 3739TIP3    H211224   1.101   4.309   2.200 -0.6355 -2.1023 -0.9419
 3740TIP3   OH211225   1.191   5.812   2.301  0.2750 -0.1371  0.4313
 3740TIP3    H111226   1.124   5.880   2.294  0.0510 -0.2424  1.3403
 3740TIP3    H211227   1.201   5.799   2.396  1.2246 -0.4738  0.2916
 3741TIP3   OH211228   3.887   1.784   4.790  0.3553  0.2939 -0.3879
 3741TIP3    H111229   3.827   1.797   4.864  2.5200 -1.6708  1.8905
 3741TIP3    H211230   3.833   1.742   4.723 -0.8674 -1.5584  1.6123
 3742TIP3   OH211231   4.209   4.934   4.411  0.2997 -0.1947 -0.0494
 3742TIP3    H111232   4.157   4.979   4.344 -0.2310 -0.8038 -0.0638
 3742TIP3    H211233   4.300   4.949   4.386  0.1146  0.3148 -0.4163
 3743TIP3   OH211234   2.918   3.324   3.827  0.0732  0.0191 -0.2327
 3743TIP3    H111235   2.985   3.277   3.876 -1.5434 -1.3087  0.8208
 3743TIP3    H211236   2.918   3.284   3.740 -0.3357 -1.0126  0.2286
 3744TIP3   OH211237   0.223   5.392   5.148 -0.2471  0.2309 -0.0403
 3744TIP3    H111238   0.173   5.473   5.156  0.4703  0.6761  0.0649
 3744TIP3    H211239   0.179   5.343   5.079 -0.4040  0.9270 -0.4454
 3745TIP3   OH211240   4.454   5.110   3.766 -0.1881 -0.1013  0.6526
 3745TIP3    H111241   4.393   5.050   3.724  0.2025 -0.6214  0.8173
 3745TIP3    H211242   4.500   5.153   3.694  0.9375 -1.4588  0.5104
 3746TIP3   OH211243   2.940   0.394   3.771 -0.4009 -0.1795  0.3692
 3746TIP3    H111244   3.023   0.442   3.763 -0.5811 -0.0009 -0.4972
 3746TIP3    H211245   2.963   0.316   3.821  0.6838 -1.0153 -1.3242
 3747TIP3   OH211246   0.498   2.581   0.321 -0.0216  0.0918  0.4192
 3747TIP3    H111247   0.584   2.595   0.282 -0.4982  2.1046  0.0139
 3747TIP3    H211248   0.504   2.495   0.362  2.6449  0.7885  1.6378
 3748TIP3   OH211249   4.211   5.164   0.865 -0.2339  0.1462 -0.1210
 3748TIP3    H111250   4.217   5.205   0.778 -1.4981  0.8373  0.0855
 3748TIP3    H211251   4.267   5.217   0.921 -0.9367  0.9195 -0.1171
 3749TIP3   OH211252   4.682   2.437   2.783  0.0614 -0.1266 -0.3552
 3749TIP3    H111253   4.744   2.422   2.855 -0.3172 -0.9689 -0.1912
 3749TIP3    H211254   4.596   2.422   2.823 -0.2491  0.9863 -0.5910
 3750TIP3   OH211255   3.170   1.618   2.039 -0.0425  0.1226 -0.1067
 3750TIP3    H111256   3.197   1.534   2.075  1.0370  0.1678 -0.7551
 3750TIP3    H211257   3.115   1.657   2.107 -0.6667 -1.1471  0.1511
 3751TIP3   OH211258   0.863   3.289   5.131 -0.0031 -0.3956 -0.3307
 3751TIP3    H111259   0.900   3.202   5.145 -0.4234 -0.4508  0.4909
 3751TIP3    H211260   0.912   3.324   5.056  1.3150 -0.6882  0.3615
 3752TIP3   OH211261   6.152   5.248   0.867 -0.2585 -0.0164 -0.0449
 3752TIP3    H111262   6.163   5.314   0.799 -1.3395  1.1728  0.8997
 3752TIP3    H211263   6.121   5.171   0.821 -0.0006  0.4551 -1.0243
 3753TIP3   OH211264   2.264   3.214   5.043 -0.0876 -0.3672  0.0146
 3753TIP3    H111265   2.212   3.223   4.964 -1.5970 -0.6120  0.9488
 3753TIP3    H211266   2.329   3.146   5.023 -0.2058 -0.1517 -1.1156
 3754TIP3   OH211267   5.754   3.489   0.702 -0.9343 -0.5882  0.9882
 3754TIP3    H111268   5.701   3.497   0.623 -1.5850  0.8464  1.5409
 3754TIP3    H211269   5.844   3.487   0.671 -1.1074  1.2757  0.2466
 3755TIP3   OH211270   4.007   5.347   2.242 -0.0322  0.4598  0.4024
 3755TIP3    H111271   3.939   5.361   2.177  0.1930  1.8292  0.4183
 3755TIP3    H211272   3.992   5.416   2.307 -0.2301 -0.8436  1.7860
 3756TIP3   OH211273   1.632   1.288   2.955  0.0537  0.6744 -0.0553
 3756TIP3    H111274   1.680   1.277   2.873 -0.3871  0.2767 -0.2659
 3756TIP3    H211275   1.563   1.222   2.951  0.2487  0.4044  0.8021
 3757TIP3   OH211276   6.160   1.125   2.697  0.1927  0.2281  0.0251
 3757TIP3    H111277   6.146   1.216   2.670  0.2472  0.0691 -0.5369
 3757TIP3    H211278   6.246   1.126   2.741  0.6835  0.2486 -0.9141
 3758TIP3   OH211279   2.784   5.779   0.788 -0.1453  0.0505  0.3614
 3758TIP3    H111280   2.760   5.713   0.722 -0.6207 -1.3615  1.8826
 3758TIP3    H211281   2.701   5.824   0.807  0.2435  1.3664 -0.9226
 3759TIP3   OH211282   5.687   2.702   0.286  0.0410 -0.4786 -0.1126
 3759TIP3    H111283   5.726   2.785   0.313 -1.4888 -0.1460  1.3175
 3759TIP3    H211284   5.761   2.645   0.267  1.3594 -0.1777  3.2967
 3760TIP3   OH211285   3.861   2.375   2.079  0.0289 -0.1321  0.2660
 3760TIP3    H111286   3.848   2.413   1.992  1.1612 -0.9764 -0.2876
 3760TIP3    H211287   3.919   2.300   2.065 -2.4456 -2.4069  1.2220
 3761TIP3   OH211288   4.520   1.612   5.010  0.2511  0.0973  0.2128
 3761TIP3    H111289   4.607   1.580   4.986  0.5493  0.1697  1.1657
 3761TIP3    H211290   4.478   1.537   5.052  0.8325  0.8144  2.1632
 3762TIP3   OH211291   5.844   0.815   2.306 -0.4579 -0.1474 -0.2414
 3762TIP3    H111292   5.798   0.765   2.373  0.6096 -1.0584 -0.1576
 3762TIP3    H211293   5.824   0.907   2.326 -0.6864 -0.4393  0.9267
 3763TIP3   OH211294   3.163   5.030   4.993 -0.1410  0.0859  0.3202
 3763TIP3    H111295   3.165   4.937   4.972 -1.1014 -0.1193  1.0776
 3763TIP3    H211296   3.169   5.033   5.089  1.1114  0.8706  0.2473
 3764TIP3   OH211297   0.471   0.634   1.208 -0.0283  0.9212  0.0917
 3764TIP3    H111298   0.525   0.705   1.173 -0.4292  1.7963  1.1739
 3764TIP3    H211299   0.535   0.571   1.243  0.3375  0.5356 -1.2345
 3765TIP3   OH211300   3.784   0.470   2.306 -0.1291  0.0885  0.6272
 3765TIP3    H111301   3.706   0.461   2.251 -0.2859  1.9705  0.4854
 3765TIP3    H211302   3.769   0.549   2.357  2.0686  1.0545 -0.0694
 3766TIP3   OH211303   0.997   2.670   0.557 -0.7062 -0.3772 -0.6817
 3766TIP3    H111304   0.954   2.613   0.494  1.2622 -0.0794 -2.3690
 3766TIP3    H211305   1.065   2.715   0.507  1.2955 -0.4992  1.7377
 3767TIP3   OH211306   0.427   4.422   4.573  0.1912  0.1337  0.0761
 3767TIP3    H111307   0.354   4.425   4.511 -0.2709  0.5752  0.6321
 3767TIP3    H211308   0.389   4.451   4.656  1.4461  2.5021 -0.0836
 3768TIP3   OH211309   4.037   4.381   4.108  0.4148  0.0346  0.0489
 3768TIP3    H111310   3.970   4.314   4.100 -0.6843  1.1287 -0.2959
 3768TIP3    H211311   4.095   4.349   4.176  0.0397 -1.3480 -0.2501
 3769TIP3   OH211312   5.635   1.159   0.309 -0.4968 -0.0076 -0.3104
 3769TIP3    H111313   5.633   1.233   0.369 -1.3594 -0.8492  0.7589
 3769TIP3    H211314   5.557   1.169   0.255  0.7901  1.2801 -2.0210
 3770TIP3   OH211315   4.051   0.964   3.011 -0.5558 -0.4191 -0.2385
 3770TIP3    H111316   4.012   0.979   2.924 -1.6293 -0.0919  0.2741
 3770TIP3    H211317   4.106   0.887   3.000  0.4221  0.4242 -1.5429
 3771TIP3   OH211318   3.206   3.201   1.662 -0.3270  0.3875  0.5414
 3771TIP3    H111319   3.140   3.217   1.595  1.2524  0.0734 -1.1732
 3771TIP3    H211320   3.192   3.271   1.726 -1.5555  1.0210 -0.3805
 3772TIP3   OH211321   4.663   2.908   1.612  0.2359  0.7921 -0.2861
 3772TIP3    H111322   4.720   2.965   1.562 -0.8600  0.3787 -2.1039
 3772TIP3    H211323   4.601   2.874   1.548 -0.3021 -0.9712  1.0842
 3773TIP3   OH211324   5.495   2.440   1.852  0.2314  0.0753 -0.1130
 3773TIP3    H111325   5.448   2.362   1.823 -1.4693  0.8345  0.4934
 3773TIP3    H211326   5.485   2.440   1.947  0.9779  0.5754 -0.0265
 3774TIP3   OH211327   4.855   0.846   2.869 -0.0365 -0.1208  0.4736
 3774TIP3    H111328   4.919   0.775   2.869  1.2119  0.9570 -1.2877
 3774TIP3    H211329   4.906   0.925   2.854 -1.6731  0.8775 -0.0541
 3775TIP3   OH211330   2.129   0.068   0.108  0.7344  0.4198  0.5512
 3775TIP3    H111331   2.091   0.121   0.179 -2.2876 -0.2443 -0.3994
 3775TIP3    H211332   2.155  -0.013   0.151 -0.0983  0.4257  1.1039
 3776TIP3   OH211333   5.128   1.847   2.411  0.4809 -0.2956  0.0823
 3776TIP3    H111334   5.135   1.783   2.339 -0.1903 -0.8693  0.5195
 3776TIP3    H211335   5.038   1.839   2.442  0.3540  0.9516  0.0830
 3777TIP3   OH211336   1.704   0.568   4.817  0.1062  0.0558 -0.0939
 3777TIP3    H111337   1.739   0.502   4.757  0.5430 -0.0528  0.2738
 3777TIP3    H211338   1.623   0.529   4.851 -0.6116  0.4721 -1.2471
 3778TIP3   OH211339   5.012   0.620   2.767  0.1102  0.0765  0.6113
 3778TIP3    H111340   4.992   0.554   2.701 -0.8036 -1.2606  2.1670
 3778TIP3    H211341   5.050   0.692   2.717  1.1730 -1.5999 -1.1633
 3779TIP3   OH211342   3.360   1.768   0.578  0.2936 -0.3679 -0.5061
 3779TIP3    H111343   3.309   1.696   0.616  0.5188 -1.8111 -2.7283
 3779TIP3    H211344   3.448   1.732   0.569  0.5315  0.3538 -1.2012
 3780TIP3   OH211345   1.674   2.601   1.995  0.0868  0.5003 -0.1381
 3780TIP3    H111346   1.676   2.582   1.901 -0.3918  2.8441 -0.6786
 3780TIP3    H211347   1.727   2.680   2.004 -0.3179  0.6056  1.4946
 3781TIP3   OH211348   3.033   5.235   4.716 -0.1470 -0.3670  0.2559
 3781TIP3    H111349   2.980   5.156   4.723 -0.9025  0.0634 -0.3549
 3781TIP3    H211350   2.970   5.304   4.695  0.1632  0.8355  2.9132
 3782TIP3   OH211351   3.959   5.874   2.070  0.3179 -0.1153 -0.4643
 3782TIP3    H111352   3.866   5.892   2.078  0.2785 -0.4007 -0.2447
 3782TIP3    H211353   3.965   5.813   1.996  0.3238 -0.1321 -0.4499
 3783TIP3   OH211354   6.122   4.607   4.829  0.0821 -0.3425 -0.2422
 3783TIP3    H111355   6.209   4.569   4.819  0.3810  0.4200 -0.6001
 3783TIP3    H211356   6.135   4.702   4.820 -0.5745 -0.0946  1.1089
 3784TIP3   OH211357   6.012   3.819   2.283 -0.4605 -0.2479  0.0565
 3784TIP3    H111358   6.079   3.874   2.242 -1.7146 -0.1117 -1.9726
 3784TIP3    H211359   6.044   3.729   2.270  0.0991 -0.1279  0.5726
 3785TIP3   OH211360   0.426   4.253   0.377 -0.3246  0.1050  0.0473
 3785TIP3    H111361   0.376   4.326   0.342 -0.8322 -0.3109 -0.1047
 3785TIP3    H211362   0.442   4.277   0.469  0.1686  0.7478 -0.1982
 3786TIP3   OH211363   3.200   0.061   3.805 -0.4267 -0.1779 -0.1940
 3786TIP3    H111364   3.289   0.035   3.830  0.2662 -0.1943 -2.4196
 3786TIP3    H211365   3.199   0.156   3.814  0.1586 -0.0767 -1.0658
 3787TIP3   OH211366   4.118   0.328   2.808  0.3143  0.2365  0.1560
 3787TIP3    H111367   4.129   0.293   2.897  0.5565  0.4471  0.2091
 3787TIP3    H211368   4.066   0.408   2.820  0.6423  0.4517  0.1453
 3788TIP3   OH211369   4.136   2.054   3.398  0.0022 -0.0892  0.5161
 3788TIP3    H111370   4.125   2.089   3.310 -0.4502  0.0368  0.6205
 3788TIP3    H211371   4.215   2.001   3.393 -1.9392 -3.1275 -0.9543
 3789TIP3   OH211372   5.938   1.157   0.444 -0.1174  0.1128 -0.2663
 3789TIP3    H111373   5.900   1.122   0.525  1.3645 -3.3888 -0.8926
 3789TIP3    H211374   5.891   1.112   0.374  0.8647  0.5492 -1.2355
 3790TIP3   OH211375   1.987   1.873   0.378  0.1233 -0.1383  0.0876
 3790TIP3    H111376   1.946   1.869   0.291  0.3403  0.9800 -0.0720
 3790TIP3    H211377   2.057   1.937   0.369  1.3842 -1.3995  0.5922
 3791TIP3   OH211378   2.796   2.135   2.286  0.2568 -0.0781  0.1176
 3791TIP3    H111379   2.768   2.059   2.236  0.4427 -0.9269  1.2608
 3791TIP3    H211380   2.889   2.121   2.301  0.5389  0.9248 -0.5710
 3792TIP3   OH211381   4.134   0.025   3.912  0.4355 -0.4491  0.8411
 3792TIP3    H111382   4.133   0.116   3.943  1.4149 -0.4258  0.8242
 3792TIP3    H211383   4.160   0.031   3.821 -1.0289 -0.6387  0.3784
 3793TIP3   OH211384   1.763   5.197   0.719  0.7870  0.0473 -0.3021
 3793TIP3    H111385   1.750   5.233   0.632 -0.9014 -1.8087 -0.9028
 3793TIP3    H211386   1.756   5.271   0.778  1.2849  1.2351 -1.6853
 3794TIP3   OH211387   2.986   5.913   2.793 -0.0199 -0.5797 -0.0622
 3794TIP3    H111388   2.997   6.008   2.784  1.1234 -0.7923 -1.0347
 3794TIP3    H211389   3.036   5.891   2.871  0.9685 -0.5835 -0.6848
 3795TIP3   OH211390   2.134   4.623   0.931  0.0490 -1.0093 -0.8892
 3795TIP3    H111391   2.164   4.595   0.844 -0.3218  0.6823 -1.5942
 3795TIP3    H211392   2.122   4.541   0.979  0.5130 -1.9756 -2.3444
 3796TIP3   OH211393   1.021   3.854   0.098  0.4570  0.2345 -0.6580
 3796TIP3    H111394   1.074   3.864   0.018  0.7991  0.7273 -0.3790
 3796TIP3    H211395   1.055   3.922   0.157 -0.0600  0.1323 -0.2388
 3797TIP3   OH211396   4.423   0.388   4.067  0.0160 -0.2971 -0.6749
 3797TIP3    H111397   4.498   0.343   4.108  0.5004 -0.2233 -1.4571
 3797TIP3    H211398   4.421   0.473   4.111 -0.8560 -1.0181  0.7566
 3798TIP3   OH211399   2.344   2.757   0.205  0.0086 -0.2894 -0.2177
 3798TIP3    H111400   2.299   2.834   0.240  1.4105  0.3590  0.2150
 3798TIP3    H211401   2.273   2.695   0.186 -1.2658  1.5028 -1.6782
 3799TIP3   OH211402   2.389   2.668   4.756  0.1443  0.3437  0.5243
 3799TIP3    H111403   2.316   2.611   4.733  0.2667 -0.6076  2.3431
 3799TIP3    H211404   2.364   2.707   4.839  1.0819  1.1354  0.4466
 3800TIP3   OH211405   2.566   4.612   1.446  0.0542  0.0752  0.1666
 3800TIP3    H111406   2.528   4.548   1.386  1.3364  0.1551 -0.7697
 3800TIP3    H211407   2.514   4.692   1.432 -0.3866 -0.2347  0.0163
 3801TIP3   OH211408   6.093   4.763   0.711 -0.3521 -0.3005 -0.0797
 3801TIP3    H111409   6.174   4.813   0.708 -0.9730  0.6943 -3.4092
 3801TIP3    H211410   6.116   4.683   0.759  2.3988  0.2624 -0.3378
 3802TIP3   OH211411   3.154   2.024   3.612 -0.6583  0.3152 -0.0615
 3802TIP3    H111412   3.097   1.959   3.570 -0.6342  0.6745 -0.6506
 3802TIP3    H211413   3.185   2.079   3.541 -3.0036  2.8202  0.6945
 3803TIP3   OH211414   4.484   0.343   2.479  0.5098  0.3917  0.1005
 3803TIP3    H111415   4.528   0.386   2.552 -1.6025  1.4964  0.8101
 3803TIP3    H211416   4.456   0.415   2.421  0.6854 -0.3456 -0.9311
 3804TIP3   OH211417   3.042   1.681   1.682  1.1231  0.3452 -0.0187
 3804TIP3    H111418   3.123   1.645   1.647  0.5140 -0.2192 -0.8582
 3804TIP3    H211419   3.014   1.618   1.749  0.9446  0.1115 -0.3109
 3805TIP3   OH211420   2.240   5.577   3.464 -0.6580 -0.3159  0.1210
 3805TIP3    H111421   2.282   5.593   3.549  0.0988  0.1806 -0.3363
 3805TIP3    H211422   2.271   5.648   3.408  0.2529 -1.6056 -1.0817
 3806TIP3   OH211423   5.519   4.421   3.149  0.2604 -1.0444 -0.8404
 3806TIP3    H111424   5.436   4.449   3.112  0.7529  1.1162 -0.4650
 3806TIP3    H211425   5.500   4.337   3.190 -2.2790  0.2593  0.9366
 3807TIP3   OH211426   4.383   1.229   3.866  0.2114 -0.2718  0.0093
 3807TIP3    H111427   4.472   1.200   3.885 -0.4342 -1.7789  0.9596
 3807TIP3    H211428   4.347   1.254   3.951 -0.3732  0.0044 -0.3142
 3808TIP3   OH211429   4.097   4.814   2.426 -0.4657  0.1996  0.1382
 3808TIP3    H111430   4.073   4.821   2.334  0.5726 -1.0630 -0.2660
 3808TIP3    H211431   4.187   4.844   2.430 -1.0419  1.9355  1.0830
 3809TIP3   OH211432   4.945   4.578   1.039  0.6364 -0.6287 -0.1011
 3809TIP3    H111433   4.951   4.572   0.944 -0.3508 -0.0920 -0.2105
 3809TIP3    H211434   4.896   4.659   1.055 -1.2217 -1.8542  0.7779
 3810TIP3   OH211435   3.386   1.488   1.251 -0.5960 -0.3865 -0.6205
 3810TIP3    H111436   3.445   1.449   1.316 -1.9348  0.0217  0.9171
 3810TIP3    H211437   3.366   1.418   1.190  1.5072 -0.5128 -1.2254
 3811TIP3   OH211438   2.669   3.691   0.361  0.6441  0.6009 -0.1691
 3811TIP3    H111439   2.664   3.613   0.306 -1.4753  1.8134 -1.8678
 3811TIP3    H211440   2.580   3.700   0.397  1.9209 -0.1734  3.6808
 3812TIP3   OH211441   2.133   3.693   1.033  0.0077 -0.2076 -0.4010
 3812TIP3    H111442   2.203   3.734   1.084  1.2397 -1.7541 -0.7529
 3812TIP3    H211443   2.120   3.608   1.076 -1.2466 -0.1930 -0.7199
 3813TIP3   OH211444   3.441   2.656   4.168  0.7072 -0.2141  0.1102
 3813TIP3    H111445   3.485   2.722   4.115 -0.1465  0.8127  0.6418
 3813TIP3    H211446   3.420   2.701   4.250 -2.3837 -0.2646 -0.5399
 3814TIP3   OH211447   5.286   1.497   4.273  1.2891  0.1188 -0.3409
 3814TIP3    H111448   5.334   1.439   4.331  0.7621  0.2368  0.2237
 3814TIP3    H211449   5.245   1.439   4.209  2.0258  0.0054 -0.7277
 3815TIP3   OH211450   5.487   2.986   4.236  0.5143 -0.8767 -0.0682
 3815TIP3    H111451   5.551   2.924   4.270 -0.1895 -1.3511  0.3956
 3815TIP3    H211452   5.402   2.954   4.266  0.1747  0.6305  0.7099
 3816TIP3   OH211453   1.750   1.372   1.717  0.0880 -0.3227 -0.2569
 3816TIP3    H111454   1.827   1.349   1.664 -0.5273  0.6327 -1.6326
 3816TIP3    H211455   1.702   1.434   1.663 -1.2082 -0.2255  0.9567
 3817TIP3   OH211456   2.064   1.352   2.727  0.0134  0.2480 -0.1156
 3817TIP3    H111457   2.151   1.364   2.689  0.2155 -0.9041 -0.0388
 3817TIP3    H211458   2.034   1.441   2.745  1.5850  0.6523  0.7664
 3818TIP3   OH211459   3.778   4.271   2.411  0.0563 -0.5541 -0.1979
 3818TIP3    H111460   3.823   4.204   2.463 -2.2572 -0.1753  2.5297
 3818TIP3    H211461   3.697   4.229   2.382 -1.2683  0.8372  1.2700
 3819TIP3   OH211462   5.683   1.516   3.016 -0.0138  1.0218 -0.9647
 3819TIP3    H111463   5.618   1.573   3.056  0.1190 -0.8098  2.2456
 3819TIP3    H211464   5.767   1.550   3.045  0.0629 -0.7222  1.1222
 3820TIP3   OH211465   3.120   2.489   1.304  0.2083  0.5726  0.4054
 3820TIP3    H111466   3.131   2.460   1.213  1.2334  0.9633  0.3990
 3820TIP3    H211467   3.033   2.456   1.328 -0.2193  0.7435 -0.8124
 3821TIP3   OH211468   1.560   2.627   4.168  0.0475  0.1658  0.3552
 3821TIP3    H111469   1.511   2.642   4.087  1.1406 -0.3670 -0.4375
 3821TIP3    H211470   1.533   2.539   4.196 -0.3035  0.3357  0.5658
 3822TIP3   OH211471   2.123   5.126   0.938 -0.1333  0.1439  0.0266
 3822TIP3    H111472   2.049   5.154   0.992  0.6569  0.8302  0.8008
 3822TIP3    H211473   2.100   5.038   0.908 -0.3356 -0.5423  2.0476
 3823TIP3   OH211474   4.737   1.119   3.290  0.2619  0.1882 -0.4978
 3823TIP3    H111475   4.801   1.050   3.274  0.6112  0.7623 -1.6288
 3823TIP3    H211476   4.703   1.142   3.204 -2.0133 -0.5826  0.1011
 3824TIP3   OH211477   2.621   2.139   2.565 -0.1472 -0.1901  0.0127
 3824TIP3    H111478   2.538   2.097   2.586 -0.6982 -0.1909 -2.0595
 3824TIP3    H211479   2.644   2.108   2.478  2.3172 -0.6029  0.7101
 3825TIP3   OH211480   0.834   5.228   0.255 -0.4100 -0.1364 -0.4570
 3825TIP3    H111481   0.849   5.321   0.272  1.7038 -0.5507  0.2716
 3825TIP3    H211482   0.828   5.189   0.341  0.9152 -0.9516 -0.7067
 3826TIP3   OH211483   4.018   4.695   0.340 -0.0786  0.1807  0.2579
 3826TIP3    H111484   4.099   4.658   0.374 -0.8212 -1.8910 -0.0688
 3826TIP3    H211485   4.034   4.708   0.246  0.6967  2.3039  0.6169
 3827TIP3   OH211486   0.167   2.564   1.919 -0.7732  0.2121  0.2287
 3827TIP3    H111487   0.144   2.628   1.851 -1.6439 -0.4099 -0.0836
 3827TIP3    H211488   0.113   2.487   1.898 -1.3546  0.1417  1.8524
 3828TIP3   OH211489   2.248   2.730   1.291 -0.0240  0.1527  0.5028
 3828TIP3    H111490   2.324   2.729   1.349  0.1225 -0.4472  0.3025
 3828TIP3    H211491   2.266   2.800   1.229 -0.0485  0.6056  0.9965
 3829TIP3   OH211492   3.825   4.143   3.277  0.1424 -0.0665 -0.9224
 3829TIP3    H111493   3.895   4.132   3.212  0.6364 -1.0442 -0.2563
 3829TIP3    H211494   3.813   4.055   3.313 -0.4643  0.3667 -0.0457
 3830TIP3   OH211495   5.939   1.933   2.122  0.3770  0.6193  0.4775
 3830TIP3    H111496   5.910   2.024   2.127 -0.5841  0.3278  0.5064
 3830TIP3    H211497   5.968   1.922   2.031  1.6286  1.2671  0.7848
 3831TIP3   OH211498   1.893   3.029   0.902 -0.2772  0.1006  0.1773
 3831TIP3    H111499   1.983   3.048   0.876 -0.3858  0.3225 -0.0369
 3831TIP3    H211500   1.892   3.040   0.997 -0.8425  3.3053 -0.0852
 3832TIP3   OH211501   4.341   0.884   3.755  0.5152 -0.5163  0.6504
 3832TIP3    H111502   4.299   0.968   3.738  0.9129  0.1273  2.6220
 3832TIP3    H211503   4.358   0.884   3.849  1.2787 -2.4628  0.5553
 3833TIP3   OH211504   4.374   1.404   5.132 -0.3647 -0.1294  0.5024
 3833TIP3    H111505   4.285   1.438   5.137 -0.0506  0.8888 -0.4646
 3833TIP3    H211506   4.380   1.341   5.204 -2.3217 -1.3145 -0.2725
 3834TIP3   OH211507   3.141   3.865   3.221  0.5454 -0.5445 -0.2687
 3834TIP3    H111508   3.059   3.865   3.171  0.1991 -0.3699  0.2919
 3834TIP3    H211509   3.119   3.818   3.302  0.5308  0.9494  0.6311
 3835TIP3   OH211510   4.756   0.178   1.238  0.2538  0.0203  0.8592
 3835TIP3    H111511   4.844   0.161   1.203  0.0094  0.3218  0.0648
 3835TIP3    H211512   4.766   0.172   1.333  1.3104  0.8264  0.8141
 3836TIP3   OH211513   1.827   1.977   3.242 -0.0542 -0.2830 -0.3560
 3836TIP3    H111514   1.900   1.954   3.185 -0.3989  0.7849 -1.2817
 3836TIP3    H211515   1.752   1.929   3.206  0.1805 -1.4512  0.6475
 3837TIP3   OH211516   3.750   3.895   3.932  0.4303 -0.2973 -0.1669
 3837TIP3    H111517   3.776   3.949   3.858  0.7534  1.5857  1.2505
 3837TIP3    H211518   3.691   3.951   3.983 -0.2915 -1.7697  0.6868
 3838TIP3   OH211519   6.047   1.791   0.067  0.1666  0.1347  0.0043
 3838TIP3    H111520   6.046   1.703   0.030 -1.2868  0.2494 -0.3070
 3838TIP3    H211521   5.962   1.799   0.111 -0.6600  2.0771 -1.7677
 3839TIP3   OH211522   0.774   2.831   1.128 -0.0266  0.0349  0.0269
 3839TIP3    H111523   0.847   2.869   1.177 -0.7354  0.9109  0.4339
 3839TIP3    H211524   0.815   2.767   1.070  0.9192 -0.4677  1.2056
 3840TIP3   OH211525   3.114   5.829   4.396  0.0003  0.4391 -0.0192
 3840TIP3    H111526   3.080   5.796   4.313 -1.2946  0.7390  0.3792
 3840TIP3    H211527   3.051   5.896   4.423  1.0052  1.1404  0.6543
 3841TIP3   OH211528   3.251   0.440   3.583  0.0175  0.0924  0.1160
 3841TIP3    H111529   3.314   0.385   3.630  0.9187 -0.0347 -1.1851
 3841TIP3    H211530   3.223   0.505   3.647  1.2089 -0.0646  0.8204
 3842TIP3   OH211531   3.515   3.327   5.098  0.3092  0.1098  0.1111
 3842TIP3    H111532   3.610   3.316   5.094  0.1963 -1.3427  0.6198
 3842TIP3    H211533   3.500   3.390   5.168  0.8898  0.2826  0.0801
 3843TIP3   OH211534   3.154   2.217   3.842  0.9778  0.1679 -0.5974
 3843TIP3    H111535   3.098   2.281   3.799 -0.9181 -1.1283 -0.1576
 3843TIP3    H211536   3.143   2.137   3.791  0.5884 -0.7401  0.8496
 3844TIP3   OH211537   0.291   3.834   3.848  0.2433  0.2079  0.8645
 3844TIP3    H111538   0.286   3.869   3.937 -2.7494  0.5676  0.6642
 3844TIP3    H211539   0.352   3.761   3.854  1.0915  1.0161  2.9020
 3845TIP3   OH211540   3.394   1.630   2.950 -0.3713 -0.1319  0.3826
 3845TIP3    H111541   3.379   1.567   3.020  1.0783  0.6399  1.4203
 3845TIP3    H211542   3.392   1.715   2.993 -0.4982  0.4257 -0.6948
 3846TIP3   OH211543   1.496   5.274   3.220 -0.6459 -0.4328  0.2471
 3846TIP3    H111544   1.569   5.293   3.280  1.8048 -1.2205 -2.2553
 3846TIP3    H211545   1.459   5.192   3.253  0.0149 -0.3690  1.1939
 3847TIP3   OH211546   1.334   4.455   4.334  0.2487  0.4283 -0.2167
 3847TIP3    H111547   1.305   4.378   4.285  0.4669 -0.5924  1.1909
 3847TIP3    H211548   1.328   4.527   4.271 -0.6423 -0.6004 -1.3683
 3848TIP3   OH211549   5.893   0.085   4.056 -0.5855 -0.1365  1.1708
 3848TIP3    H111550   5.816   0.090   4.000 -1.0390 -1.4248  1.6649
 3848TIP3    H211551   5.881   0.155   4.120 -2.0754 -1.2102  2.1211
 3849TIP3   OH211552   5.534   2.932   1.461 -0.0109 -0.1268  0.0418
 3849TIP3    H111553   5.581   3.013   1.480  0.8318 -0.7285  0.5509
 3849TIP3    H211554   5.466   2.926   1.528  0.6298 -0.3958  0.6698
 3850TIP3   OH211555   5.739   4.431   5.081  0.3390  0.1960 -0.0225
 3850TIP3    H111556   5.704   4.351   5.040  0.2389  1.1740 -1.9427
 3850TIP3    H211557   5.803   4.464   5.019  1.2696  0.9866  1.3133
 3851TIP3   OH211558   0.380   4.979   1.053 -0.3160  0.5146  0.1954
 3851TIP3    H111559   0.299   4.994   1.103  1.0497  1.0391  2.3938
 3851TIP3    H211560   0.446   4.962   1.120  1.3886 -0.0563 -1.5545
 3852TIP3   OH211561   2.940   2.821   1.482 -0.6894  0.1244  0.1067
 3852TIP3    H111562   2.898   2.877   1.416  0.9218  0.9395 -0.2634
 3852TIP3    H211563   2.909   2.855   1.566  0.5252  1.8365 -0.0969
 3853TIP3   OH211564   1.623   3.142   3.685 -0.3480  0.1666  0.4110
 3853TIP3    H111565   1.559   3.199   3.641  0.3368  0.8328  0.2471
 3853TIP3    H211566   1.705   3.191   3.681  0.1355 -0.5903  0.7898
 3854TIP3   OH211567   2.297   4.964   2.279  0.3840  0.3877 -0.2188
 3854TIP3    H111568   2.303   4.975   2.374  0.6219 -1.0393 -0.0547
 3854TIP3    H211569   2.363   4.898   2.258 -1.3905 -1.2449 -1.0014
 3855TIP3   OH211570   1.913   1.573   2.862  0.2976  0.2561 -0.4695
 3855TIP3    H111571   1.873   1.558   2.948  0.1962  0.6066 -0.4536
 3855TIP3    H211572   1.995   1.618   2.881 -0.4705  1.7982 -0.6309
 3856TIP3   OH211573   6.158   0.217   3.125  0.0892 -0.3395 -0.2175
 3856TIP3    H111574   6.208   0.142   3.091  1.0976 -0.4282  1.3375
 3856TIP3    H211575   6.225   0.283   3.145 -0.7139  0.6475 -0.7174
 3857TIP3   OH211576   5.588   1.840   1.283  0.4005 -0.4711  0.5027
 3857TIP3    H111577   5.572   1.804   1.370  1.3488 -1.3178  0.3448
 3857TIP3    H211578   5.661   1.789   1.249  0.0009 -0.1913 -0.8249
 3858TIP3   OH211579   5.586   3.187   4.468 -0.1195  0.3017  0.5350
 3858TIP3    H111580   5.649   3.212   4.400  0.7033 -1.4909  0.5971
 3858TIP3    H211581   5.597   3.093   4.478 -0.2984  0.4941  3.1117
 3859TIP3   OH211582   4.037   2.333   2.335  0.8511  0.2302  0.0360
 3859TIP3    H111583   4.021   2.285   2.254 -0.7494  0.1136  0.3778
 3859TIP3    H211584   4.096   2.277   2.385 -0.4733 -1.1215  0.1584
 3860TIP3   OH211585   2.541   5.145   0.289 -0.0845  0.2619  0.1497
 3860TIP3    H111586   2.586   5.088   0.351 -0.3310  0.7557  0.7970
 3860TIP3    H211587   2.456   5.102   0.274 -1.2394  1.5588  2.4255
 3861TIP3   OH211588   2.510   0.477   0.750  0.2211 -0.2651  0.2025
 3861TIP3    H111589   2.596   0.515   0.731  0.9080 -1.4714  0.7540
 3861TIP3    H211590   2.522   0.433   0.835 -1.0409 -0.1588  0.4527
 3862TIP3   OH211591   0.432   3.398   2.427 -0.3356  0.1648  0.1539
 3862TIP3    H111592   0.507   3.350   2.392  0.2377  0.6189  0.7333
 3862TIP3    H211593   0.469   3.480   2.459 -1.2558  0.8730 -0.5437
 3863TIP3   OH211594   0.633   1.999   1.243  0.6684  0.0452 -0.6374
 3863TIP3    H111595   0.560   1.947   1.211  1.8519 -2.8501  0.9532
 3863TIP3    H211596   0.711   1.958   1.205  1.6938  0.1361  1.2241
 3864TIP3   OH211597   4.075   1.547   4.923  0.6545  0.0920 -0.4083
 3864TIP3    H111598   4.040   1.616   4.867  3.0356  1.0272 -0.8358
 3864TIP3    H211599   4.145   1.588   4.972 -0.5414 -1.0210  2.4428
 3865TIP3   OH211600   0.102   5.382   0.972  0.5298 -0.1151 -0.2609
 3865TIP3    H111601   0.072   5.446   1.037  3.1468 -0.1922  1.1578
 3865TIP3    H211602   0.099   5.298   1.017  0.9859 -0.3941 -0.7383
 3866TIP3   OH211603   3.907   5.871   2.850 -0.6153  0.2629  0.4863
 3866TIP3    H111604   3.977   5.807   2.847 -2.2500 -1.6360  0.6883
 3866TIP3    H211605   3.837   5.833   2.797 -1.4511  2.1518  0.1462
 3867TIP3   OH211606   2.053   4.320   0.803  0.3791 -0.1019  0.2962
 3867TIP3    H111607   2.087   4.267   0.731 -0.5199 -2.3564  1.4427
 3867TIP3    H211608   1.968   4.351   0.771  0.4502 -0.2035 -0.0009
 3868TIP3   OH211609   1.483   2.567   1.201 -0.1890  0.4560  0.5268
 3868TIP3    H111610   1.440   2.551   1.117  0.8201  2.1361 -0.3608
 3868TIP3    H211611   1.573   2.538   1.187 -0.1993  0.0269  1.2989
 3869TIP3   OH211612   2.865   4.199   1.708 -0.6576  0.1909  0.0138
 3869TIP3    H111613   2.800   4.239   1.650  1.7629 -0.6209 -3.5410
 3869TIP3    H211614   2.946   4.246   1.691  1.3909 -3.4156 -1.3785
 3870TIP3   OH211615   1.699   4.262   1.105 -0.4033 -0.1299  0.3195
 3870TIP3    H111616   1.608   4.277   1.078 -0.0943  3.2266  0.7133
 3870TIP3    H211617   1.708   4.313   1.185  1.5546 -1.4092  0.9874
 3871TIP3   OH211618   1.215   0.113   3.830 -0.2870 -0.1980  0.2312
 3871TIP3    H111619   1.169   0.139   3.751 -1.2152  0.3842  0.9494
 3871TIP3    H211620   1.195   0.020   3.839 -2.3052  0.2688  1.1321
 3872TIP3   OH211621   0.420   5.495   0.402 -0.8257  0.2069  0.4939
 3872TIP3    H111622   0.473   5.465   0.476 -1.9449  1.0951  1.7118
 3872TIP3    H211623   0.420   5.422   0.340 -1.0445 -1.1406  2.0203
 3873TIP3   OH211624   6.248   0.001   1.502  0.2789  0.2830 -0.3173
 3873TIP3    H111625   6.294   0.085   1.501  1.2692 -0.1626  1.7100
 3873TIP3    H211626   6.298  -0.055   1.443  1.2812  0.3524  0.4321
 3874TIP3   OH211627   1.917   2.088   5.087 -0.7764  0.7571 -0.0793
 3874TIP3    H111628   1.992   2.039   5.053 -1.3640 -0.6477  0.5368
 3874TIP3    H211629   1.847   2.071   5.024 -0.4391  2.6314 -1.0303
 3875TIP3   OH211630   1.385   3.309   4.480 -0.1412  0.6531  0.0848
 3875TIP3    H111631   1.332   3.230   4.496 -1.4098  1.7495  1.6200
 3875TIP3    H211632   1.457   3.303   4.543  0.4264  0.1787 -0.5926
 3876TIP3   OH211633   1.516   2.820   0.814  0.1236 -0.4031  0.0230
 3876TIP3    H111634   1.423   2.834   0.796  0.3115  0.1916 -0.5104
 3876TIP3    H211635   1.556   2.808   0.728  0.6451 -0.0098  0.2078
 3877TIP3   OH211636   0.884   5.434   3.240 -0.6423  0.2001  0.0018
 3877TIP3    H111637   0.914   5.508   3.188  1.0195 -0.8630 -0.6149
 3877TIP3    H211638   0.820   5.471   3.300 -1.3549  1.7685 -1.6381
 3878TIP3   OH211639   0.047   2.401   0.686 -0.2846  0.2119  0.5382
 3878TIP3    H111640   0.065   2.311   0.713 -3.0383 -0.5241  0.2143
 3878TIP3    H211641   0.093   2.411   0.604  0.7005 -0.6363  0.9681
 3879TIP3   OH211642   5.912   2.550   0.292 -0.2778 -0.3063  0.1284
 3879TIP3    H111643   5.984   2.527   0.234  0.7265 -1.4748  1.7648
 3879TIP3    H211644   5.867   2.468   0.309 -2.1363  0.4337 -0.9854
 3880TIP3   OH211645   1.315   0.034   0.323 -0.2894  0.3292 -0.0264
 3880TIP3    H111646   1.222   0.033   0.345 -0.6336 -0.1768 -1.4131
 3880TIP3    H211647   1.320  -0.002   0.235  1.0717  1.6880 -0.5665
 3881TIP3   OH211648   2.058   4.321   2.338 -0.4682 -0.0049 -0.2696
 3881TIP3    H111649   1.986   4.259   2.330  1.8928 -2.9457 -0.9772
 3881TIP3    H211650   2.095   4.325   2.249 -0.1942  2.0159 -0.1014
 3882TIP3   OH211651   2.160   1.819   1.076  0.2360 -0.0304 -0.0403
 3882TIP3    H111652   2.086   1.810   1.017 -0.1907 -0.8760  0.5868
 3882TIP3    H211653   2.121   1.842   1.160  0.6711 -0.5365  0.3101
 3883TIP3   OH211654   2.336   3.838   1.221 -0.6759 -0.6339 -0.1830
 3883TIP3    H111655   2.389   3.868   1.147 -0.3877  1.1430  0.6863
 3883TIP3    H211656   2.397   3.789   1.276 -0.1582  0.5073  0.2895
 3884TIP3   OH211657   5.225   4.000   5.126 -0.2106  0.2804 -0.1136
 3884TIP3    H111658   5.294   3.964   5.070  0.0460  0.2257  0.2354
 3884TIP3    H211659   5.221   3.940   5.201 -0.5118  0.3835 -0.0444
 3885TIP3   OH211660   3.539   1.205   4.111  0.3443 -0.0955 -0.6505
 3885TIP3    H111661   3.543   1.119   4.152 -0.6154  0.4369  0.6498
 3885TIP3    H211662   3.547   1.188   4.018 -2.2098 -1.8682 -0.6513
 3886TIP3   OH211663   2.230   1.381   3.619  0.0071  0.3969 -0.0619
 3886TIP3    H111664   2.205   1.429   3.698 -1.4392  0.0039 -0.2486
 3886TIP3    H211665   2.297   1.319   3.648 -1.3833 -0.6083  1.1485
 3887TIP3   OH211666   4.406   2.078   1.184  0.6013  0.3223  0.0127
 3887TIP3    H111667   4.422   2.169   1.161 -0.6851  1.2646  2.5124
 3887TIP3    H211668   4.492   2.044   1.208  1.2952  0.4566 -2.0724
 3888TIP3   OH211669   1.719   1.554   3.074  0.7549 -0.2407  0.7552
 3888TIP3    H111670   1.655   1.490   3.043  1.7283 -1.1801  0.6245
 3888TIP3    H211671   1.668   1.618   3.124 -1.1008  1.9148 -3.4279
 3889TIP3   OH211672   0.605   1.385   3.571  0.1197  0.0654 -0.2126
 3889TIP3    H111673   0.594   1.325   3.498  2.0435  0.9403 -1.3106
 3889TIP3    H211674   0.695   1.417   3.563  0.4061  0.2214  2.5498
 3890TIP3   OH211675   5.388   0.871   0.770 -0.1116  0.5220 -1.1221
 3890TIP3    H111676   5.464   0.813   0.776  0.5916  1.3029 -2.1702
 3890TIP3    H211677   5.422   0.957   0.796 -1.0741  0.5414  0.1460
 3891TIP3   OH211678   6.023   5.255   3.753  0.3302 -0.2752 -0.4132
 3891TIP3    H111679   5.944   5.223   3.710  1.7110 -0.4287 -3.0431
 3891TIP3    H211680   6.031   5.346   3.724 -0.6201  0.9258  2.6197
 3892TIP3   OH211681   5.876   1.833   4.431  0.2609 -0.5748 -0.5169
 3892TIP3    H111682   5.816   1.842   4.505  2.2385  2.1037  0.9836
 3892TIP3    H211683   5.823   1.854   4.354 -1.2141 -0.5277  0.4784
 3893TIP3   OH211684   5.668   1.143   0.018 -0.5563 -0.0048  0.2810
 3893TIP3    H111685   5.700   1.086  -0.052 -0.3777 -0.0060  0.3641
 3893TIP3    H211686   5.731   1.133   0.089 -1.1319 -0.5659  0.7237
 3894TIP3   OH211687   3.856   1.901   3.181  0.5674  0.2325 -0.4263
 3894TIP3    H111688   3.814   1.987   3.183 -0.6325 -0.3499  0.3479
 3894TIP3    H211689   3.785   1.839   3.163  0.8016 -0.9000  2.0029
 3895TIP3   OH211690   3.502   1.912   1.208  0.3354 -0.7459 -0.0216
 3895TIP3    H111691   3.456   1.980   1.159  1.1651  0.0208  0.2469
 3895TIP3    H211692   3.504   1.944   1.298  2.2792 -0.2537 -0.1911
 3896TIP3   OH211693   3.808   2.353   2.546  0.0021 -0.0942 -0.2721
 3896TIP3    H111694   3.824   2.259   2.538 -1.0581 -0.3578  0.4951
 3896TIP3    H211695   3.755   2.376   2.470 -2.8022 -0.8801  1.3149
 3897TIP3   OH211696   4.412   4.150   0.883 -0.2108  0.0640 -0.4252
 3897TIP3    H111697   4.342   4.127   0.944 -0.4199 -3.2534 -1.6969
 3897TIP3    H211698   4.367   4.191   0.809 -0.2466  1.7696  0.5004
 3898TIP3   OH211699   6.226   4.934   1.218 -0.3957  0.3126  0.1391
 3898TIP3    H111700   6.288   5.003   1.242  1.0546 -0.2241 -1.8682
 3898TIP3    H211701   6.142   4.966   1.251  0.1918  3.1203 -0.7706
 3899TIP3   OH211702   4.893   4.531   3.775 -0.4254  0.7618  0.6631
 3899TIP3    H111703   4.941   4.488   3.845  0.6681  1.2986  0.2713
 3899TIP3    H211704   4.957   4.590   3.735 -1.2260  0.9928 -0.3215
 3900TIP3   OH211705   0.777   1.152   4.294  0.3180  0.3458  0.2253
 3900TIP3    H111706   0.753   1.222   4.233 -1.2852 -0.5978 -0.2759
 3900TIP3    H211707   0.779   1.073   4.240  1.0271 -0.1882  1.0036
 3901TIP3   OH211708   0.894   1.335   3.259 -0.6644 -0.3845 -0.1286
 3901TIP3    H111709   0.844   1.254   3.251 -0.5276 -0.4244 -0.5860
 3901TIP3    H211710   0.979   1.315   3.220 -0.7200  0.0543 -0.4782
 3902TIP3   OH211711   4.218   0.713   3.086  0.2337  0.5164  0.0118
 3902TIP3    H111712   4.156   0.703   3.158 -0.2913  0.5563 -0.4326
 3902TIP3    H211713   4.304   0.710   3.128 -0.0849  2.0660  0.8459
 3903TIP3   OH211714   2.554   1.390   3.212 -0.3208  0.3032  0.7274
 3903TIP3    H111715   2.543   1.306   3.256 -0.4220  0.6886  1.4456
 3903TIP3    H211716   2.555   1.368   3.119  1.1913 -0.6647  0.9401
 3904TIP3   OH211717   4.337   3.275   2.054 -0.0576 -0.2477 -0.7365
 3904TIP3    H111718   4.262   3.215   2.058 -0.2472  0.0300  0.0341
 3904TIP3    H211719   4.405   3.224   2.010 -0.0112 -1.2691  0.4329
 3905TIP3   OH211720   5.963   1.136   0.121 -0.4933 -0.1858  0.4715
 3905TIP3    H111721   5.986   1.143   0.029 -1.6376  0.5910  0.2302
 3905TIP3    H211722   5.963   1.226   0.153 -4.6911  0.1839  0.0264
 3906TIP3   OH211723   3.603   4.254   3.040 -0.4885 -0.0024 -0.0145
 3906TIP3    H111724   3.548   4.192   2.993  0.5919 -2.8694  2.1550
 3906TIP3    H211725   3.571   4.251   3.130  1.4677  0.3168  0.7396
 3907TIP3   OH211726   6.064   5.758   0.276 -0.5200  0.7269 -0.6894
 3907TIP3    H111727   6.157   5.737   0.277 -0.3028  1.6735  0.1901
 3907TIP3    H211728   6.059   5.850   0.252 -1.1437  1.0109  0.4370
 3908TIP3   OH211729   1.807   2.450   2.731  0.0474  0.5113  0.1862
 3908TIP3    H111730   1.889   2.401   2.724 -1.3769 -2.1218  0.7193
 3908TIP3    H211731   1.782   2.469   2.641  0.5228  0.0542 -0.0419
 3909TIP3   OH211732   4.828   3.096   2.498  0.1077 -0.3476  0.1933
 3909TIP3    H111733   4.892   3.027   2.482  2.0816  1.3224  0.4196
 3909TIP3    H211734   4.863   3.172   2.452 -1.3629  0.8314  0.9302
 3910TIP3   OH211735   1.125   4.872   3.646  0.1188 -0.2962  0.5799
 3910TIP3    H111736   1.074   4.862   3.566  0.2357 -0.1163  0.4814
 3910TIP3    H211737   1.064   4.908   3.709 -0.1956 -1.2183  0.8180
 3911TIP3   OH211738   0.308   5.165   0.795  0.3320  0.1559  0.3790
 3911TIP3    H111739   0.289   5.082   0.838  1.0928 -0.7186 -0.9265
 3911TIP3    H211740   0.319   5.143   0.702  0.3096  1.7438 -0.0344
 3912TIP3   OH211741   3.239   3.645   4.620  0.2644 -0.4695 -0.1006
 3912TIP3    H111742   3.299   3.590   4.570  0.3460 -1.2281  0.8078
 3912TIP3    H211743   3.152   3.627   4.583  0.5362  0.3678 -1.1833
 3913TIP3   OH211744   3.329   1.823   1.942 -0.2034  0.5921 -0.0937
 3913TIP3    H111745   3.317   1.901   1.997 -0.3965  0.9677 -0.6616
 3913TIP3    H211746   3.275   1.756   1.983  0.2327  0.6512  0.5988
 3914TIP3   OH211747   4.857   4.769   2.795 -0.5505  0.2174 -0.0570
 3914TIP3    H111748   4.795   4.840   2.779 -1.4458 -0.9704 -2.4323
 3914TIP3    H211749   4.808   4.707   2.848 -0.4790  0.4614  0.2938
 3915TIP3   OH211750   6.113   3.710   1.034 -0.2856 -0.6207  1.1138
 3915TIP3    H111751   6.124   3.629   0.984  1.3670 -0.3290  0.9689
 3915TIP3    H211752   6.088   3.775   0.969  2.0599 -0.1933  0.5458
 3916TIP3   OH211753   2.598   3.568   3.502  0.6489 -0.4482 -0.7125
 3916TIP3    H111754   2.627   3.637   3.562 -1.2197  1.5811 -1.9776
 3916TIP3    H211755   2.556   3.616   3.430 -3.1287 -2.9811 -0.4431
 3917TIP3   OH211756   0.178   1.637   0.388 -0.4366  0.1855  0.1005
 3917TIP3    H111757   0.266   1.598   0.389  0.3226  1.7505 -1.4898
 3917TIP3    H211758   0.157   1.649   0.481 -0.6630 -3.6957  0.7156
 3918TIP3   OH211759   5.556   3.927   0.810  0.0556 -0.0457  0.3555
 3918TIP3    H111760   5.563   3.952   0.903  0.2015 -0.9316  0.5876
 3918TIP3    H211761   5.602   3.844   0.804  0.0770  0.0252 -0.5277
 3919TIP3   OH211762   2.460   4.122   3.453 -0.5243 -0.1272 -0.3094
 3919TIP3    H111763   2.442   4.123   3.547  0.8728  2.4716  0.0139
 3919TIP3    H211764   2.553   4.102   3.447 -0.8806 -1.6374 -1.2653
 3920TIP3   OH211765   2.162   3.848   2.053 -0.0356  0.3722 -0.7516
 3920TIP3    H111766   2.102   3.867   1.981  0.6749  2.1883 -0.9242
 3920TIP3    H211767   2.240   3.811   2.011 -0.1440  0.1580 -0.7652
 3921TIP3   OH211768   3.924   5.243   0.480 -0.7334 -0.0730  0.0549
 3921TIP3    H111769   4.008   5.251   0.435 -0.1426  1.4764  1.3432
 3921TIP3    H211770   3.940   5.177   0.548 -1.6742 -2.5419 -1.9763
 3922TIP3   OH211771   2.214   0.892   0.532 -0.2745  0.6261 -0.6346
 3922TIP3    H111772   2.309   0.878   0.536 -0.2948  0.8300  0.9226
 3922TIP3    H211773   2.203   0.986   0.545 -0.6796  0.6679 -1.2485
 3923TIP3   OH211774   3.425   5.954   0.614 -0.0190 -0.3581  0.6051
 3923TIP3    H111775   3.424   5.966   0.709 -1.0057 -4.6816  1.3569
 3923TIP3    H211776   3.514   5.975   0.588  0.3689  0.5685  2.5106
 3924TIP3   OH211777   0.364   2.161   0.472  0.1930  0.1804  0.8430
 3924TIP3    H111778   0.317   2.238   0.439 -0.0402 -0.3529 -0.0930
 3924TIP3    H211779   0.412   2.194   0.548 -1.8619  0.6936  1.9995
 3925TIP3   OH211780   2.712   3.235   0.405 -0.7350  0.3315  0.0698
 3925TIP3    H111781   2.653   3.187   0.463  0.7148 -0.9192  0.5822
 3925TIP3    H211782   2.665   3.315   0.383 -2.6661 -0.6719  0.3403
 3926TIP3   OH211783   3.424   4.612   0.141  0.1107 -1.0459 -0.0312
 3926TIP3    H111784   3.486   4.681   0.164 -1.0838 -0.3446  1.2169
 3926TIP3    H211785   3.476   4.531   0.142  1.1000 -0.4201  0.4908
 3927TIP3   OH211786   4.153   0.551   1.059 -0.1535  0.4799 -0.2375
 3927TIP3    H111787   4.127   0.643   1.067 -0.5643  0.2877  0.8659
 3927TIP3    H211788   4.071   0.504   1.044  0.0815  0.3144 -1.0159
 3928TIP3   OH211789   3.641   5.430   3.233 -0.3556  0.6095  0.1970
 3928TIP3    H111790   3.689   5.352   3.260  0.1818  0.4693 -1.0923
 3928TIP3    H211791   3.709   5.490   3.202 -0.8358  1.2729  0.4033
 3929TIP3   OH211792   2.836   3.348   2.560 -0.1227 -0.1330  0.1685
 3929TIP3    H111793   2.886   3.267   2.572 -0.8012 -0.8828 -1.6808
 3929TIP3    H211794   2.768   3.344   2.628 -0.0157 -1.0115  0.2356
 3930TIP3   OH211795   4.100   1.796   1.499 -0.1966  0.2058  0.5983
 3930TIP3    H111796   4.079   1.753   1.416 -0.4990 -0.6920  1.1297
 3930TIP3    H211797   4.053   1.745   1.565  0.2546  0.7481  1.3486
 3931TIP3   OH211798   4.250   5.311   3.360  0.3235 -0.3669  0.0197
 3931TIP3    H111799   4.197   5.333   3.436  0.1652  0.9567 -0.4552
 3931TIP3    H211800   4.193   5.256   3.306  0.1083 -0.5268  0.4097
 3932TIP3   OH211801   5.931   3.548   4.147  0.1887  0.6877  0.1987
 3932TIP3    H111802   5.956   3.508   4.064 -0.8115 -0.9166  0.6371
 3932TIP3    H211803   5.849   3.594   4.128 -0.5538 -0.4835  0.4889
 3933TIP3   OH211804   0.369   2.125   1.332 -0.3012 -0.5553 -0.4249
 3933TIP3    H111805   0.394   2.157   1.419 -0.6493 -0.7307 -0.2569
 3933TIP3    H211806   0.445   2.074   1.303 -0.0199 -0.1574 -0.3994
 3934TIP3   OH211807   4.212   1.897   4.380 -0.0153  0.1402  0.3219
 3934TIP3    H111808   4.129   1.895   4.331  0.8731  0.5182 -1.2516
 3934TIP3    H211809   4.237   1.805   4.388  0.2682  0.1115 -0.7460
 3935TIP3   OH211810   0.426   2.522   4.760 -0.3255 -0.1274 -0.0603
 3935TIP3    H111811   0.508   2.569   4.777  0.9208 -1.8816 -0.8960
 3935TIP3    H211812   0.381   2.522   4.844  1.8081 -1.4356  1.1680
 3936TIP3   OH211813   5.107   5.728   4.234  0.2904  0.0476  0.5653
 3936TIP3    H111814   5.050   5.652   4.247  0.6878 -0.2222  0.7309
 3936TIP3    H211815   5.053   5.803   4.260 -0.1424 -0.1642  0.2851
 3937TIP3   OH211816   2.953   3.118   2.617 -0.5370  0.5973  0.1400
 3937TIP3    H111817   2.917   3.056   2.554  0.5334  1.0372 -0.9353
 3937TIP3    H211818   3.026   3.071   2.658  0.0425  1.0051 -0.4120
 3938TIP3   OH211819   3.264   5.493   1.123  0.3953 -0.0439 -0.3161
 3938TIP3    H111820   3.283   5.564   1.184  0.2157  0.5234 -0.9090
 3938TIP3    H211821   3.275   5.413   1.175  0.2029  0.4271  0.4658
 3939TIP3   OH211822   5.835   2.804   4.514  0.1218 -1.2702 -0.0259
 3939TIP3    H111823   5.747   2.841   4.509 -0.0621 -1.6457  0.3454
 3939TIP3    H211824   5.891   2.868   4.470 -0.4482 -1.3884 -0.9532
 3940TIP3   OH211825   3.719   2.993   0.224 -0.5724 -0.1993 -0.1367
 3940TIP3    H111826   3.630   3.007   0.192 -0.9038 -0.1728  0.7463
 3940TIP3    H211827   3.728   3.055   0.297  0.2110 -0.1214 -0.2939
 3941TIP3   OH211828   2.810   4.362   3.916 -0.5166 -0.2469  0.3349
 3941TIP3    H111829   2.836   4.392   3.828 -1.2945 -0.1309  0.1407
 3941TIP3    H211830   2.893   4.351   3.963  0.0286 -1.6802 -0.8565
 3942TIP3   OH211831   5.871   4.680   4.172 -0.5016  0.2422 -0.2517
 3942TIP3    H111832   5.924   4.722   4.104  0.8406  0.0428  0.6415
 3942TIP3    H211833   5.832   4.753   4.221 -1.6605  0.3881 -1.3299
 3943TIP3   OH211834   0.415   1.859   0.780 -0.1966 -0.1089 -0.1065
 3943TIP3    H111835   0.362   1.875   0.702  0.4984 -0.7561 -0.7258
 3943TIP3    H211836   0.419   1.943   0.825  0.0650  0.4665 -1.1884
 3944TIP3   OH211837   0.829   4.069   4.678  0.3779 -0.0749 -0.1703
 3944TIP3    H111838   0.761   4.137   4.677  0.9671  0.5730 -2.0457
 3944TIP3    H211839   0.910   4.117   4.695  0.6610 -0.4504 -0.4487
 3945TIP3   OH211840   4.701   4.287   3.783  0.3126  0.3152  0.2897
 3945TIP3    H111841   4.791   4.265   3.763 -0.3310 -0.8171 -1.5752
 3945TIP3    H211842   4.684   4.246   3.868  0.9831 -1.1394 -0.2565
 3946TIP3   OH211843   1.574   2.903   0.235 -0.2568 -0.1329  0.5306
 3946TIP3    H111844   1.656   2.924   0.280 -0.1319 -0.8421  0.6488
 3946TIP3    H211845   1.601   2.855   0.157 -0.5339  0.1117  0.2819
 3947TIP3   OH211846   5.056   2.907   2.262 -0.0385 -0.1645  0.6297
 3947TIP3    H111847   5.012   2.991   2.253  1.4231  0.6417  0.7546
 3947TIP3    H211848   5.012   2.850   2.198 -0.4115  0.9626 -0.1401
 3948TIP3   OH211849   2.262   1.580   4.070  0.5481  0.2948 -0.4589
 3948TIP3    H111850   2.345   1.551   4.032  0.4825 -1.7706  0.8447
 3948TIP3    H211851   2.273   1.675   4.080  1.7336  0.4730 -2.6407
 3949TIP3   OH211852   2.854   0.011   1.322  0.3406  0.4758 -0.6457
 3949TIP3    H111853   2.783  -0.004   1.260  1.0804  1.5660 -1.8205
 3949TIP3    H211854   2.879   0.103   1.308  1.9212  0.1424 -0.2193
 3950TIP3   OH211855   5.875   3.133   1.250  0.4708  0.0148 -0.5230
 3950TIP3    H111856   5.930   3.092   1.183 -1.1212 -0.6310 -1.5083
 3950TIP3    H211857   5.837   3.060   1.298 -0.3842  0.3971 -0.5989
 3951TIP3   OH211858   0.823   4.456   1.527  0.4593  0.3963 -0.2520
 3951TIP3    H111859   0.891   4.501   1.477  1.2942 -1.1344 -0.5651
 3951TIP3    H211860   0.797   4.383   1.471 -1.6662  1.0834 -0.2485
 3952TIP3   OH211861   3.733   2.197   3.164  0.1267 -0.2760 -0.3120
 3952TIP3    H111862   3.711   2.159   3.079  0.6203  0.5091 -0.8056
 3952TIP3    H211863   3.782   2.277   3.143  1.5069 -0.8060  0.7156
 3953TIP3   OH211864   4.205   1.778   0.183  0.1707 -0.1803  0.0317
 3953TIP3    H111865   4.147   1.810   0.253 -0.3620 -0.4643 -0.2711
 3953TIP3    H211866   4.163   1.809   0.102  1.0298  0.5467 -0.1464
 3954TIP3   OH211867   3.680   1.302   1.291 -0.0502 -0.2804 -0.3942
 3954TIP3    H111868   3.748   1.345   1.239 -0.0943  1.4902  0.8963
 3954TIP3    H211869   3.723   1.226   1.330  1.6635  1.5101  1.4415
 3955TIP3   OH211870   4.386   0.063   1.781  0.1776 -0.1557  1.1492
 3955TIP3    H111871   4.432   0.147   1.782  0.8256 -0.4991  0.9547
 3955TIP3    H211872   4.327   0.069   1.706 -1.4760  0.9953  2.4840
 3956TIP3   OH211873   6.070   3.133   2.984 -0.0347  0.6693  0.1992
 3956TIP3    H111874   6.094   3.080   2.908  1.5826 -0.4207  1.4015
 3956TIP3    H211875   6.086   3.223   2.956  2.7088  0.1686 -0.0794
 3957TIP3   OH211876   1.476   2.501   1.485 -0.0188  0.1840  0.6047
 3957TIP3    H111877   1.510   2.588   1.506  0.2319  0.0468  0.7773
 3957TIP3    H211878   1.447   2.508   1.394  1.1026  0.1294  0.2273
 3958TIP3   OH211879   4.976   0.955   3.245 -0.3927  0.2945 -0.1195
 3958TIP3    H111880   5.032   1.033   3.240  0.0630  0.0820  1.2095
 3958TIP3    H211881   5.013   0.904   3.317 -0.5270 -1.2853 -1.1030
 3959TIP3   OH211882   4.492   5.338   2.635  0.0790 -0.0508 -0.0824
 3959TIP3    H111883   4.470   5.269   2.698 -1.4121  0.2947 -0.1911
 3959TIP3    H211884   4.572   5.377   2.670 -1.4366  1.0400  2.4131
 3960TIP3   OH211885   4.097   5.150   4.695  0.2708 -0.3632 -0.9408
 3960TIP3    H111886   4.080   5.079   4.757 -1.5592 -0.0955 -1.0933
 3960TIP3    H211887   4.040   5.132   4.621 -0.2264  1.2420 -0.9932
 3961TIP3   OH211888   4.359   2.573   3.284  0.1681  0.4653 -0.3628
 3961TIP3    H111889   4.415   2.558   3.207 -1.5068 -2.1461 -1.1811
 3961TIP3    H211890   4.412   2.542   3.358  1.1951  1.5628 -0.5931
 3962TIP3   OH211891   1.792   5.655   1.063  0.4750 -0.0573 -0.6821
 3962TIP3    H111892   1.838   5.603   1.129  0.6803  0.6059 -0.2940
 3962TIP3    H211893   1.724   5.702   1.111 -1.6638 -2.1469 -1.4623
 3963TIP3   OH211894   5.576   1.289   2.864 -0.0627 -0.0929 -0.3098
 3963TIP3    H111895   5.528   1.250   2.937 -0.8306  0.9804 -0.2275
 3963TIP3    H211896   5.639   1.348   2.905  0.7402 -0.8180 -0.4575
 3964TIP3   OH211897   0.838   0.738   4.418 -0.2375  0.2112  0.1668
 3964TIP3    H111898   0.832   0.810   4.480 -1.0959  0.3901 -0.0991
 3964TIP3    H211899   0.911   0.684   4.449  0.4472  1.2263  0.3312
 3965TIP3   OH211900   3.319   0.424   4.758  0.6798 -0.2500 -0.2286
 3965TIP3    H111901   3.279   0.340   4.779  0.7418 -0.7785 -2.0097
 3965TIP3    H211902   3.246   0.479   4.731  0.8619 -0.4928 -1.2788
 3966TIP3   OH211903   2.280   2.057   1.440 -0.0832  0.2998  0.5825
 3966TIP3    H111904   2.308   2.082   1.352 -1.6330  0.6169  0.1567
 3966TIP3    H211905   2.295   1.962   1.444  3.1696  0.7381  1.2156
 3967TIP3   OH211906   1.629   2.842   3.074  0.1705 -0.4931 -0.3051
 3967TIP3    H111907   1.616   2.849   3.168 -1.6279  0.7521 -0.5835
 3967TIP3    H211908   1.707   2.788   3.064  1.3398  0.6466  1.9195
 3968TIP3   OH211909   0.932   3.433   4.469  0.4901  0.4605 -0.4359
 3968TIP3    H111910   0.889   3.348   4.473 -1.5720  1.4643  0.0982
 3968TIP3    H211911   0.889   3.479   4.397 -0.9755  2.2780  1.4516
 3969TIP3   OH211912   3.899   1.620   1.692 -0.5525 -0.5347  0.0514
 3969TIP3    H111913   3.817   1.657   1.658  0.8549  1.1527 -1.7677
 3969TIP3    H211914   3.938   1.576   1.617  2.1446  2.3354 -0.4370
 3970TIP3   OH211915   0.647   5.567   4.092  0.5211  0.3146  0.2733
 3970TIP3    H111916   0.559   5.601   4.076  0.6447  0.5242  0.0256
 3970TIP3    H211917   0.705   5.641   4.073  0.6377  0.9078  2.6941
 3971TIP3   OH211918   5.345   2.615   2.513  0.1050  0.2959  0.4784
 3971TIP3    H111919   5.268   2.559   2.503  1.0211 -0.7302 -1.1903
 3971TIP3    H211920   5.314   2.703   2.489 -0.4932 -0.1525 -0.4300
 3972TIP3   OH211921   1.476   1.059   2.986  0.0231  0.2331  0.5667
 3972TIP3    H111922   1.513   0.971   2.976  0.2855  0.4796 -0.8149
 3972TIP3    H211923   1.421   1.053   3.064 -0.2582 -1.2607  0.2901
 3973TIP3   OH211924   2.602   3.770   4.830 -0.3468  0.7477 -0.1703
 3973TIP3    H111925   2.630   3.834   4.894  0.3234 -0.6546  1.0032
 3973TIP3    H211926   2.525   3.809   4.788  0.8421  2.8677 -0.4797
 3974TIP3   OH211927   1.566   1.367   0.610 -0.4726 -0.6067 -0.0927
 3974TIP3    H111928   1.585   1.438   0.671  1.1629  0.0998 -1.3098
 3974TIP3    H211929   1.556   1.289   0.665 -0.2159  0.2026  1.1448
 3975TIP3   OH211930   0.455   1.389   2.010  0.0552 -0.3910  0.1741
 3975TIP3    H111931   0.425   1.372   2.099  0.7003  0.3926  0.5641
 3975TIP3    H211932   0.544   1.424   2.022  0.5545 -1.2735 -0.8421
 3976TIP3   OH211933   3.330   4.486   2.559  0.3941 -0.0970  0.3299
 3976TIP3    H111934   3.251   4.435   2.541  0.0282 -0.0582  1.6652
 3976TIP3    H211935   3.337   4.546   2.485 -1.2225  0.3397  0.4788
 3977TIP3   OH211936   2.972   0.105   4.634  0.0450  0.2976  0.2383
 3977TIP3    H111937   2.955   0.084   4.726  1.3226 -0.9496  0.2339
 3977TIP3    H211938   3.065   0.083   4.622  0.3010  1.9034 -0.9647
 3978TIP3   OH211939   3.265   5.809   0.901 -0.2221 -0.5477 -0.3288
 3978TIP3    H111940   3.189   5.752   0.911  0.5804 -1.3408  1.7587
 3978TIP3    H211941   3.323   5.761   0.842 -0.3096 -1.0709  0.0060
 3979TIP3   OH211942   3.225   4.916   4.632 -0.2331 -0.3021 -0.3600
 3979TIP3    H111943   3.283   4.892   4.560 -0.1027 -2.0438  0.2911
 3979TIP3    H211944   3.266   4.994   4.670  0.8972 -0.6482 -0.8112
 3980TIP3   OH211945   3.785   0.793   1.309  0.1047  0.3175 -0.8938
 3980TIP3    H111946   3.843   0.767   1.237 -1.0219 -0.3643 -1.6018
 3980TIP3    H211947   3.707   0.826   1.264 -0.8725 -0.7071  0.0015
 3981TIP3   OH211948   3.438   4.411   1.726  0.4967  0.0149 -0.0665
 3981TIP3    H111949   3.518   4.416   1.674 -0.6187  1.0360 -1.8136
 3981TIP3    H211950   3.373   4.459   1.674 -1.0762 -0.1826  1.6132
 3982TIP3   OH211951   6.344   3.612   3.302 -0.7387 -0.7526  0.0243
 3982TIP3    H111952   6.303   3.587   3.386 -2.5499  1.4524 -0.0888
 3982TIP3    H211953   6.295   3.562   3.236 -1.3106 -0.2942  0.0945
 3983TIP3   OH211954   2.185   0.832   1.725 -0.2233 -0.0017 -0.0253
 3983TIP3    H111955   2.162   0.838   1.632  0.1970  3.2859 -0.0406
 3983TIP3    H211956   2.280   0.818   1.725  0.0074  1.4077 -0.1652
 3984TIP3   OH211957   2.999   0.034   0.245  0.4012 -0.2868 -0.3211
 3984TIP3    H111958   3.064  -0.010   0.301 -0.1790 -0.6466  0.0830
 3984TIP3    H211959   2.916  -0.006   0.270 -0.0284  0.4477 -0.5579
 3985TIP3   OH211960   3.088   4.898   0.614  0.7270  0.1283  0.2716
 3985TIP3    H111961   3.155   4.911   0.681  1.0331 -1.6186  0.3592
 3985TIP3    H211962   3.047   4.815   0.637 -0.0143  0.1067 -1.0112
 3986TIP3   OH211963   5.364   4.145   1.550  0.1178 -0.1239 -0.1979
 3986TIP3    H111964   5.327   4.181   1.469  0.3876 -1.0534 -0.7373
 3986TIP3    H211965   5.317   4.192   1.620 -0.0363  0.7674 -0.8776
 3987TIP3   OH211966   3.939   1.611   0.735 -0.4961  0.2319 -0.4109
 3987TIP3    H111967   3.998   1.597   0.661  0.3319 -1.8551  0.5643
 3987TIP3    H211968   3.857   1.639   0.696  0.4692  1.0435 -1.9549
 3988TIP3   OH211969   5.284   5.709   2.456 -0.2532 -0.0587  0.0375
 3988TIP3    H111970   5.372   5.692   2.422  0.3112  2.7674 -0.1561
 3988TIP3    H211971   5.225   5.686   2.384  0.5901  0.9262 -1.0016
 3989TIP3   OH211972   4.171   5.806   3.704  0.7587  0.0397 -0.0669
 3989TIP3    H111973   4.138   5.831   3.791  1.8937 -0.4769  0.5382
 3989TIP3    H211974   4.152   5.882   3.649  0.0845  0.4058  0.6494
 3990TIP3   OH211975   0.062   4.078   2.923  0.2472  0.3929 -0.1637
 3990TIP3    H111976  -0.021   4.050   2.961  0.9602  0.0986  1.2585
 3990TIP3    H211977   0.042   4.163   2.884 -0.5640  0.7176  0.8771
 3991TIP3   OH211978   0.859   3.638   2.814  0.0808  0.0268  0.5452
 3991TIP3    H111979   0.801   3.692   2.759  0.4690 -1.8574 -1.9375
 3991TIP3    H211980   0.947   3.663   2.788  0.2695 -2.0463 -1.0679
 3992TIP3   OH211981   3.097   0.848   1.941  0.4674  0.1424  0.7112
 3992TIP3    H111982   3.090   0.831   2.035 -5.7204 -0.1065  0.6626
 3992TIP3    H211983   3.019   0.806   1.904  0.5351  3.3946 -3.9957
 3993TIP3   OH211984   4.359   5.773   1.370  0.4691  0.1196  0.2107
 3993TIP3    H111985   4.376   5.817   1.287  0.1288 -0.1757 -0.0175
 3993TIP3    H211986   4.439   5.785   1.421  0.6858  0.2820 -0.1672
 3994TIP3   OH211987   3.681   4.533   4.761  0.4055 -0.0134  0.2056
 3994TIP3    H111988   3.735   4.509   4.686 -3.0958  0.6599 -2.7898
 3994TIP3    H211989   3.628   4.456   4.778 -0.3293  0.5540  0.5424
 3995TIP3   OH211990   1.211   2.348   0.630  0.8614 -0.0026 -0.4373
 3995TIP3    H111991   1.192   2.438   0.657  0.5680  0.2042 -1.3162
 3995TIP3    H211992   1.237   2.355   0.539 -0.4272 -0.9441 -0.9134
 3996TIP3   OH211993   3.902   1.324   2.646 -0.4183  0.5247 -0.6617
 3996TIP3    H111994   3.820   1.297   2.686 -0.8918  2.5994 -0.1085
 3996TIP3    H211995   3.968   1.307   2.713 -0.3882 -0.9477 -1.0289
 3997TIP3   OH211996   5.999   5.661   0.922 -0.2906 -0.2919 -0.2741
 3997TIP3    H111997   6.058   5.690   0.992 -1.0415  1.2794 -0.2572
 3997TIP3    H211998   5.989   5.737   0.865 -1.2100 -0.9606 -1.0439
 3998TIP3   OH211999   3.014   2.433   2.388 -0.5568  0.2266 -0.3000
 3998TIP3    H112000   3.048   2.490   2.456  0.2619 -0.1070 -0.4112
 3998TIP3    H212001   3.087   2.424   2.326 -0.0739 -2.1859  0.5108
 3999TIP3   OH212002   2.161   1.726   2.903  0.0157 -0.1351  0.2835
 3999TIP3    H112003   2.197   1.698   2.818 -0.4945 -0.8408  0.2957
 3999TIP3    H212004   2.237   1.731   2.961  0.3515  0.2300 -0.1799
 4000TIP3   OH212005   3.533   2.741   1.982  0.4257 -0.0681 -0.3202
 4000TIP3    H112006   3.568   2.770   2.066 -0.2107 -2.9599  1.0759
 4000TIP3    H212007   3.438   2.753   1.990  0.3345 -0.6468 -0.4749
 4001TIP3   OH212008   2.347   0.112   0.836 -0.3037 -0.0325  1.0532
 4001TIP3    H112009   2.296   0.133   0.914 -2.0359  0.9123 -0.2528
 4001TIP3    H212010   2.297   0.151   0.764  0.1325 -2.5987 -0.7844
 4002TIP3   OH212011   1.094   4.133   2.866  0.1724  0.7903  0.1138
 4002TIP3    H112012   1.030   4.077   2.909  0.3346  1.0679  0.7286
 4002TIP3    H212013   1.087   4.217   2.912  2.1016  0.3655  1.2819
 4003TIP3   OH212014   4.915   4.387   5.035  0.1622 -0.1460  0.6858
 4003TIP3    H112015   5.001   4.348   5.020  0.3680  0.2350  0.8751
 4003TIP3    H212016   4.933   4.471   5.076 -0.2539  0.4149 -0.2605
 4004TIP3   OH212017   6.105   1.965   0.953  0.4675  0.3547 -0.6808
 4004TIP3    H112018   6.142   1.947   1.040 -3.2393  2.5358  1.6480
 4004TIP3    H212019   6.126   2.057   0.937  0.5358  0.1531 -1.7922
 4005TIP3   OH212020   5.440   3.555   0.133  0.3774 -0.5511 -0.1531
 4005TIP3    H112021   5.403   3.479   0.177  1.1108 -0.3698  0.8144
 4005TIP3    H212022   5.516   3.520   0.085  0.4963 -0.4892 -0.0093
 4006TIP3   OH212023   5.327   1.258   4.441  0.6717 -0.4852  0.2021
 4006TIP3    H112024   5.236   1.265   4.470  0.1765 -2.1903 -0.8264
 4006TIP3    H212025   5.378   1.285   4.517 -0.6705  0.7082  0.7379
 4007TIP3   OH212026   2.425   3.156   1.105  0.0095  0.0136  0.0158
 4007TIP3    H112027   2.513   3.160   1.069  0.1278 -0.1673  0.2853
 4007TIP3    H212028   2.417   3.234   1.160 -0.6574  1.0618 -1.4836
 4008TIP3   OH212029   0.981   1.458   3.907  0.4293  0.4165  0.3500
 4008TIP3    H112030   0.952   1.501   3.988  0.9584  1.1786  0.1464
 4008TIP3    H212031   0.946   1.513   3.837  0.8898  0.3681  0.0791
 4009TIP3   OH212032   4.668   1.500   0.769  0.3896  0.0470  0.2900
 4009TIP3    H112033   4.611   1.563   0.726  0.4371 -0.4898 -0.5811
 4009TIP3    H212034   4.618   1.471   0.846 -0.1486  0.2220  0.0120
 4010TIP3   OH212035   0.581   5.631   4.907  0.1300  0.1892 -0.4193
 4010TIP3    H112036   0.487   5.617   4.896  0.3555 -0.6939 -1.3957
 4010TIP3    H212037   0.610   5.555   4.959  0.0543  1.2996  1.3190
 4011TIP3   OH212038   4.891   0.410   3.834 -0.0434 -0.8343 -0.3339
 4011TIP3    H112039   4.806   0.434   3.798  0.0509  0.6722  0.3970
 4011TIP3    H212040   4.943   0.384   3.758  0.1522  2.2120 -1.3516
 4012TIP3   OH212041   0.723   1.888   3.504  0.3331  0.0773  0.2985
 4012TIP3    H112042   0.719   1.854   3.593  0.9368  1.1990  0.7738
 4012TIP3    H212043   0.735   1.811   3.448  2.7526 -0.4215  1.4063
 4013TIP3   OH212044   4.821   2.387   3.734  0.0109  0.1687  0.0831
 4013TIP3    H112045   4.776   2.322   3.681  1.5579 -0.9187  0.0649
 4013TIP3    H212046   4.896   2.342   3.771  1.8190  2.2177 -0.8588
 4014TIP3   OH212047   4.035   4.009   3.144  0.0093  0.1806 -0.8391
 4014TIP3    H112048   4.041   4.017   3.049 -0.5417  2.3857 -0.7498
 4014TIP3    H212049   4.097   4.074   3.177 -1.9474  1.6201  0.2295
 4015TIP3   OH212050   3.974   1.413   3.533  0.3445  0.0668  0.6362
 4015TIP3    H112051   3.931   1.373   3.457 -0.1974  1.0529  0.4066
 4015TIP3    H212052   3.975   1.506   3.514 -0.0502  0.3704  1.9641
 4016TIP3   OH212053   0.226   1.131   3.316  0.5558 -0.6582 -0.1106
 4016TIP3    H112054   0.225   1.117   3.221  1.0681 -1.7985  0.0339
 4016TIP3    H212055   0.139   1.105   3.345 -1.2556  3.7523 -0.7164
 4017TIP3   OH212056   0.462   0.843   3.788 -0.1856  0.7284  0.3578
 4017TIP3    H112057   0.557   0.833   3.796 -0.5425 -3.7088  1.5199
 4017TIP3    H212058   0.447   0.858   3.694  1.5992  0.9740  0.0842
 4018TIP3   OH212059   2.992   4.157   1.102  0.3983 -0.1232 -0.2404
 4018TIP3    H112060   3.032   4.241   1.126  0.3004 -0.2770  0.4709
 4018TIP3    H212061   3.065   4.099   1.084  0.5863 -0.7388  2.1590
 4019TIP3   OH212062   1.048   1.604   1.026  0.3105  0.2074 -0.2207
 4019TIP3    H112063   1.139   1.578   1.013 -0.0942 -0.6187 -1.4923
 4019TIP3    H212064   0.996   1.536   0.983 -0.9808 -0.0472  1.6133
 4020TIP3   OH212065   2.789   4.391   0.741 -0.2457 -0.0740  0.1118
 4020TIP3    H112066   2.750   4.416   0.657 -1.1848  2.0690  1.1146
 4020TIP3    H212067   2.832   4.471   0.772  1.6768 -1.3184  0.8644
 4021TIP3   OH212068   2.429   2.692   1.502 -0.4486 -0.5423 -0.3536
 4021TIP3    H112069   2.520   2.669   1.521 -0.3470 -0.6851 -0.9813
 4021TIP3    H212070   2.378   2.647   1.570  0.0038  0.2660  0.5444
 4022TIP3   OH212071   2.109   0.518   2.210 -0.1610 -0.2789  0.1646
 4022TIP3    H112072   2.092   0.558   2.124  1.1932  1.1020  0.4822
 4022TIP3    H212073   2.084   0.426   2.200 -1.9919  0.2947 -1.0698
 4023TIP3   OH212074   0.142   1.734   5.202 -0.4410 -0.3279  0.0502
 4023TIP3    H112075   0.103   1.702   5.121  0.1953  0.5348 -0.6196
 4023TIP3    H212076   0.170   1.823   5.182  1.6717 -0.8205  0.5263
 4024TIP3   OH212077   1.775   4.579   1.009 -0.5973 -0.6205 -0.1102
 4024TIP3    H112078   1.688   4.566   1.046 -1.4471  0.3132 -1.6977
 4024TIP3    H212079   1.816   4.492   1.015 -1.3773 -0.9230  1.2359
 4025TIP3   OH212080   5.312   1.192   1.023 -0.2983  0.0039  0.0630
 4025TIP3    H112081   5.380   1.140   0.981 -0.7571  0.3653 -1.1524
 4025TIP3    H212082   5.360   1.247   1.086  0.4014 -0.5061 -0.0133
 4026TIP3   OH212083   5.835   2.573   5.080 -0.2957 -0.2057 -0.0337
 4026TIP3    H112084   5.911   2.562   5.024  1.5795  1.3056  2.0553
 4026TIP3    H212085   5.762   2.585   5.019  0.6787 -3.6148 -2.1523
 4027TIP3   OH212086   5.405   1.361   2.658 -0.4362 -0.2447  0.7114
 4027TIP3    H112087   5.480   1.348   2.716  1.6237  0.9762 -1.4869
 4027TIP3    H212088   5.340   1.405   2.713  0.5682 -0.9751  2.6055
 4028TIP3   OH212089   5.300   4.381   0.383 -0.1490  0.3802 -0.0209
 4028TIP3    H112090   5.372   4.420   0.334  0.7858 -0.2549  0.8008
 4028TIP3    H212091   5.229   4.374   0.320 -0.0029  2.3870 -0.4807
 4029TIP3   OH212092   0.999   3.957   0.853  0.1697  0.1183  0.4687
 4029TIP3    H112093   0.983   3.931   0.944  0.9652  0.0639  0.6069
 4029TIP3    H212094   0.949   3.895   0.801  0.5570 -0.5289  0.8444
 4030TIP3   OH212095   4.290   3.153   5.040 -0.2203  0.4861 -0.4888
 4030TIP3    H112096   4.264   3.136   5.130  0.7998  0.1583 -0.2480
 4030TIP3    H212097   4.241   3.089   4.988  1.1049 -1.0396  0.0904
 4031TIP3   OH212098   2.268   0.561   4.287 -0.0797 -0.1616  0.0045
 4031TIP3    H112099   2.223   0.638   4.253  0.8659  0.0849 -0.7252
 4031TIP3    H212100   2.340   0.596   4.338 -0.1937 -0.5612  0.4474
 4032TIP3   OH212101   5.776   3.330   2.048  0.0429  0.2723  0.6993
 4032TIP3    H112102   5.823   3.331   1.965  0.6635  1.2659  1.0410
 4032TIP3    H212103   5.698   3.382   2.032 -0.1716 -0.0819  0.5682
 4033TIP3   OH212104   1.516   4.633   2.337  0.1291  0.2785 -0.3674
 4033TIP3    H112105   1.456   4.708   2.343  1.6105  1.5176 -0.6621
 4033TIP3    H212106   1.463   4.559   2.368 -1.6796  1.2361 -0.9892
 4034TIP3   OH212107   5.212   3.915   1.479  0.7076  0.3279  0.2791
 4034TIP3    H112108   5.198   3.941   1.388  1.5271  0.7944  0.2743
 4034TIP3    H212109   5.131   3.939   1.523  0.9415  1.7479  0.0030
 4035TIP3   OH212110   3.080   4.095   4.644  0.6432  0.5370 -0.3133
 4035TIP3    H112111   3.003   4.134   4.686  0.8614 -0.2843  0.9178
 4035TIP3    H212112   3.149   4.160   4.655  1.2573 -0.4393  2.5742
 4036TIP3   OH212113   3.071   5.330   5.081  0.2177  0.4342 -0.2907
 4036TIP3    H112114   3.101   5.297   5.166  0.8840 -0.7823 -0.9617
 4036TIP3    H212115   2.993   5.279   5.062 -0.7370  1.6752  0.1980
 4037TIP3   OH212116   4.952   5.728   3.934  0.1383  0.2605  0.2571
 4037TIP3    H112117   4.912   5.784   4.001 -0.8736 -0.9345  0.6780
 4037TIP3    H212118   4.946   5.780   3.853 -3.2593 -0.2065  0.0548
 4038TIP3   OH212119   3.031   5.567   4.713 -0.0800  0.3152  0.3241
 4038TIP3    H112120   3.088   5.575   4.637 -0.1000 -1.1882  0.1355
 4038TIP3    H212121   2.942   5.563   4.678 -0.2645  1.7232  0.5676
 4039TIP3   OH212122   1.788   2.322   0.175  0.6308 -0.1502 -0.4875
 4039TIP3    H112123   1.822   2.246   0.128 -0.5527 -2.1398  1.6588
 4039TIP3    H212124   1.860   2.350   0.231  1.1921  0.6075 -1.5502
 4040TIP3   OH212125   2.173   1.614   0.661 -0.2617  0.6170 -0.2217
 4040TIP3    H112126   2.216   1.676   0.720  0.7013  1.3136 -1.5829
 4040TIP3    H212127   2.237   1.600   0.591 -2.1386  1.5235 -2.2458
 4041TIP3   OH212128   0.246   0.161   2.391  0.2981 -0.0346  0.2844
 4041TIP3    H112129   0.341   0.147   2.402  0.6330 -0.0812 -2.2107
 4041TIP3    H212130   0.240   0.230   2.325 -1.4402  1.0294  1.4922
 4042TIP3   OH212131   3.651   5.107   1.558  0.5590  0.1316 -0.2969
 4042TIP3    H112132   3.575   5.074   1.510 -0.2058  1.6962 -0.2183
 4042TIP3    H212133   3.712   5.136   1.490 -0.0351  1.2695 -0.3748
 4043TIP3   OH212134   1.800   0.282   2.478 -0.2822  0.4710  0.7209
 4043TIP3    H112135   1.762   0.278   2.390 -0.4497  1.4453  0.7407
 4043TIP3    H212136   1.726   0.303   2.535 -0.0892  0.2966  1.0398
 4044TIP3   OH212137   2.153   2.989   2.106 -0.1229 -0.0603  0.2249
 4044TIP3    H112138   2.191   2.933   2.039  0.0821  0.1461  0.1666
 4044TIP3    H212139   2.127   3.069   2.059  0.0791  0.1108  0.3996
 4045TIP3   OH212140   2.176   4.340   0.119  0.4150 -0.1898 -0.2275
 4045TIP3    H112141   2.127   4.395   0.180  0.2543 -1.0204  0.4084
 4045TIP3    H212142   2.111   4.308   0.056  0.9367  2.5233 -2.3093
 4046TIP3   OH212143   4.620   1.181   2.389 -1.1579  0.1742  0.1747
 4046TIP3    H112144   4.623   1.090   2.360 -0.8936  0.2700 -0.1075
 4046TIP3    H212145   4.619   1.177   2.484 -2.7966 -0.1774  0.1790
 4047TIP3   OH212146   5.323   3.182   1.932 -0.1566  0.3698  0.5908
 4047TIP3    H112147   5.406   3.139   1.912 -0.1104 -0.6224  2.6570
 4047TIP3    H212148   5.267   3.161   1.857  1.6032  1.7307 -1.2469
 4048TIP3   OH212149   2.622   4.442   4.103 -0.7785 -0.1858  0.9366
 4048TIP3    H112150   2.673   4.398   4.035  0.2475 -0.8402  2.0912
 4048TIP3    H212151   2.684   4.502   4.144 -0.9612 -0.8723  2.2572
 4049TIP3   OH212152   3.988   4.129   0.563  0.1743 -0.9840  0.3577
 4049TIP3    H112153   3.902   4.092   0.543 -0.6027  0.6836  0.4130
 4049TIP3    H212154   4.004   4.192   0.493  1.3978 -1.3265  0.3131
 4050TIP3   OH212155   5.777   5.106   3.980 -0.8653  0.7261  0.5639
 4050TIP3    H112156   5.851   5.092   4.039 -0.7290 -0.3841  0.1541
 4050TIP3    H212157   5.757   5.199   3.988  1.5518  1.3893 -0.5022
 4051TIP3   OH212158   2.510   5.900   0.307  0.0433 -0.5274 -0.2408
 4051TIP3    H112159   2.572   5.833   0.277 -0.5029 -0.0848 -2.5596
 4051TIP3    H212160   2.475   5.939   0.227 -3.1499 -0.6235  0.9467
 4052TIP3   OH212161   4.470   1.900   0.299 -0.1993 -0.3478 -0.3112
 4052TIP3    H112162   4.522   1.973   0.331 -0.6429  0.1473 -0.6940
 4052TIP3    H212163   4.525   1.858   0.233 -0.9133  1.2204 -1.9791
 4053TIP3   OH212164   2.640   5.897   2.802 -0.1378  0.5727  0.4718
 4053TIP3    H112165   2.573   5.922   2.865  0.2417  1.0857  0.6700
 4053TIP3    H212166   2.717   5.876   2.855  0.6878  2.5448  0.1147
 4054TIP3   OH212167   2.684   3.452   3.888 -0.1422  0.0234 -0.3566
 4054TIP3    H112168   2.757   3.394   3.869  1.7507  0.3413  4.6067
 4054TIP3    H212169   2.721   3.540   3.881 -0.9517  0.3511 -0.6942
 4055TIP3   OH212170   1.190   0.737   4.348  0.4348  0.5559 -0.3071
 4055TIP3    H112171   1.275   0.692   4.350  0.7759  1.1701 -0.6142
 4055TIP3    H212172   1.136   0.688   4.410  1.5651  1.2454  1.2989
 4056TIP3   OH212173   0.637   5.308   1.830  0.5872 -0.0172 -0.4318
 4056TIP3    H112174   0.713   5.330   1.884  0.8578 -0.1264 -0.7594
 4056TIP3    H212175   0.609   5.222   1.862 -0.7185  0.9275  1.1196
 4057TIP3   OH212176   1.956   3.602   4.796 -0.4934  0.1677 -0.5029
 4057TIP3    H112177   1.878   3.656   4.798 -1.6923 -1.4531 -1.2256
 4057TIP3    H212178   1.969   3.575   4.888 -0.4939  0.8268 -0.3080
 4058TIP3   OH212179   4.403   0.737   1.701  0.0722 -0.4195  0.5045
 4058TIP3    H112180   4.339   0.749   1.631 -0.8408  1.1101  1.5320
 4058TIP3    H212181   4.353   0.754   1.782  1.8448  1.3715  1.3172
 4059TIP3   OH212182   5.416   5.911   4.729  0.5935 -0.4632  0.5416
 4059TIP3    H112183   5.420   5.919   4.634  2.1614  0.8842  0.6774
 4059TIP3    H212184   5.482   5.844   4.750  0.3994 -0.6062  0.7092
 4060TIP3   OH212185   2.454   0.265   3.889  0.1949  0.1064  0.0293
 4060TIP3    H112186   2.486   0.290   3.803 -1.1182 -0.7912 -0.7650
 4060TIP3    H212187   2.495   0.327   3.949  0.5270  1.2509 -1.3249
 4061TIP3   OH212188   4.132   5.889   0.353  0.0048  0.2676 -0.3025
 4061TIP3    H112189   4.148   5.804   0.394 -2.8558 -1.6004 -2.6407
 4061TIP3    H212190   4.200   5.896   0.286  0.9352  0.3928  0.6326
 4062TIP3   OH212191   3.349   4.560   4.849 -0.0724  0.4151  0.0605
 4062TIP3    H112192   3.392   4.623   4.791 -1.9346  0.4981 -1.2993
 4062TIP3    H212193   3.398   4.479   4.837 -1.3044  0.0163 -2.8334
 4063TIP3   OH212194   4.358   3.555   2.000 -0.3763 -0.4435 -0.5457
 4063TIP3    H112195   4.417   3.484   1.976 -0.8395 -0.7049 -0.9362
 4063TIP3    H212196   4.288   3.552   1.935 -1.1663 -0.5598  0.2724
 4064TIP3   OH212197   0.438   2.557   1.899  0.3096 -0.2182  0.1812
 4064TIP3    H112198   0.346   2.572   1.876  0.3133  0.5118  0.6242
 4064TIP3    H212199   0.456   2.469   1.866 -0.8601 -0.8173  1.0808
 4065TIP3   OH212200   5.127   2.098   4.893 -0.0310 -0.3669  0.1156
 4065TIP3    H112201   5.073   2.019   4.886  1.0980 -1.0014 -2.3533
 4065TIP3    H212202   5.092   2.157   4.826  0.9641  0.0530 -0.0492
 4066TIP3   OH212203   3.629   2.471   2.705 -0.2750 -0.4485  0.5339
 4066TIP3    H112204   3.592   2.539   2.649 -0.1203 -0.1973  0.7338
 4066TIP3    H212205   3.706   2.439   2.657 -0.7472 -0.9719  0.1176
 4067TIP3   OH212206   1.360   2.859   3.676  0.3665  0.2058  0.0726
 4067TIP3    H112207   1.362   2.885   3.584  1.7017 -1.7051 -0.5039
 4067TIP3    H212208   1.453   2.857   3.702  0.0234  0.4268  1.3777
 4068TIP3   OH212209   0.538   4.882   1.266 -0.2492 -0.0331  0.8958
 4068TIP3    H112210   0.613   4.836   1.306 -0.1565 -0.3694  0.3441
 4068TIP3    H212211   0.461   4.839   1.304 -0.1676 -0.9743  0.0358
 4069TIP3   OH212212   4.660   4.637   0.857  0.3306 -1.1017  0.9955
 4069TIP3    H112213   4.616   4.721   0.871  0.8225 -0.7525  0.4768
 4069TIP3    H212214   4.651   4.591   0.940  0.1530 -0.4925  1.3194
 4070TIP3   OH212215   6.364   2.813   0.997 -0.4500  0.3028  0.6637
 4070TIP3    H112216   6.370   2.867   0.918 -0.5442 -0.2728  0.2563
 4070TIP3    H212217   6.271   2.792   1.005 -0.3355 -0.2960  0.4736
 4071TIP3   OH212218   5.855   5.793   3.120 -0.7104  0.2819  0.5634
 4071TIP3    H112219   5.778   5.739   3.100  1.0460 -1.5142 -2.0127
 4071TIP3    H212220   5.922   5.730   3.147  0.0900  1.7606  2.2900
 4072TIP3   OH212221   1.058   4.176   2.597  0.1398  0.3804  0.8028
 4072TIP3    H112222   1.094   4.088   2.582 -2.2996 -0.5152 -0.3585
 4072TIP3    H212223   1.044   4.180   2.691 -1.4639 -1.3018  0.6986
 4073TIP3   OH212224   1.944   1.812   1.523  0.3534 -0.5017 -0.8386
 4073TIP3    H112225   1.849   1.804   1.537  0.4523  0.2288  0.4239
 4073TIP3    H212226   1.976   1.722   1.528  0.0058 -0.5551  1.1475
 4074TIP3   OH212227   2.968   2.115   4.130 -0.1058  0.0310 -0.2677
 4074TIP3    H112228   2.907   2.112   4.205  0.3904 -3.4606  0.1617
 4074TIP3    H212229   3.010   2.200   4.138 -1.0617  0.3749  2.6506
 4075TIP3   OH212230   5.381   4.998   0.272  0.3470  0.4699  0.0035
 4075TIP3    H112231   5.470   4.967   0.289 -0.2497 -0.5838  1.3160
 4075TIP3    H212232   5.327   4.958   0.340 -1.4470 -0.4157 -1.8315
 4076TIP3   OH212233   1.030   0.609   2.657  0.4411  0.1492 -0.2793
 4076TIP3    H112234   1.001   0.656   2.735  2.3352 -0.8583  1.1321
 4076TIP3    H212235   0.957   0.551   2.635  0.3885 -0.6409  1.7079
 4077TIP3   OH212236   5.603   3.321   0.911  0.0653  0.2978 -0.1692
 4077TIP3    H112237   5.662   3.315   0.836 -0.9331 -2.2056 -0.8457
 4077TIP3    H212238   5.553   3.400   0.896  1.6180  1.2095 -0.7881
 4078TIP3   OH212239   6.035   4.092   3.398  0.5823 -0.5776 -0.3160
 4078TIP3    H112240   5.987   4.148   3.459  0.5561 -0.7527 -0.1757
 4078TIP3    H212241   6.127   4.100   3.425  0.7960  0.7090 -1.3339
 4079TIP3   OH212242   5.870   2.267   2.507 -0.0224  0.2649  0.9197
 4079TIP3    H112243   5.931   2.305   2.571  1.3871 -0.6174  0.1563
 4079TIP3    H212244   5.901   2.177   2.495 -0.2169  0.4109 -0.9923
 4080TIP3   OH212245   2.153   3.677   2.722  0.1913 -0.1499 -0.0457
 4080TIP3    H112246   2.191   3.718   2.644 -1.7202 -1.0153 -1.5252
 4080TIP3    H212247   2.217   3.693   2.791  0.3880  3.7839 -0.9032
 4081TIP3   OH212248   2.614   5.412   0.927  0.1521 -0.2462 -0.0034
 4081TIP3    H112249   2.545   5.421   0.861  0.3785 -1.0234 -0.3669
 4081TIP3    H212250   2.689   5.380   0.877  0.3742 -0.6779  0.5999
 4082TIP3   OH212251   2.462   3.893   2.826 -0.2616  0.3845 -1.1487
 4082TIP3    H112252   2.448   3.808   2.866 -0.3828  0.4019 -1.1524
 4082TIP3    H212253   2.374   3.923   2.802 -0.7972  2.3617  2.5503
 4083TIP3   OH212254   6.160   5.295   2.974  0.0984  0.0767  0.5498
 4083TIP3    H112255   6.224   5.284   2.904 -0.5285 -0.4363  0.0488
 4083TIP3    H212256   6.081   5.324   2.929 -0.2703 -0.1261  1.0614
 4084TIP3   OH212257   3.696   5.770   3.884 -0.4057 -0.4267  0.1082
 4084TIP3    H112258   3.680   5.861   3.908  1.3884  0.0528 -0.3084
 4084TIP3    H212259   3.612   5.726   3.894 -0.8295  0.7928  2.4675
 4085TIP3   OH212260   2.181   0.916   4.718  0.6953  0.0105 -0.3024
 4085TIP3    H112261   2.168   0.844   4.781 -0.1413  0.5474  0.1612
 4085TIP3    H212262   2.115   0.980   4.742  1.0064  0.6541 -1.1351
 4086TIP3   OH212263   2.480   3.320   2.481 -0.3186  0.1998  0.7347
 4086TIP3    H112264   2.454   3.256   2.416  0.8857  1.9760 -1.6531
 4086TIP3    H212265   2.556   3.282   2.524  0.6185  0.1246 -0.9148
 4087TIP3   OH212266   1.458   4.346   1.797 -0.2257 -0.0860 -0.3841
 4087TIP3    H112267   1.544   4.333   1.757 -0.0557  0.8714 -0.3445
 4087TIP3    H212268   1.442   4.440   1.791 -1.1499 -0.2139 -0.1340
 4088TIP3   OH212269   4.482   3.616  -0.031  0.3269  0.6054 -0.2858
 4088TIP3    H112270   4.514   3.608   0.059  2.3440  1.9462 -0.7907
 4088TIP3    H212271   4.393   3.651  -0.022  0.4010  0.4873  1.1806
 4089TIP3   OH212272   2.819   1.764   2.452 -0.3565 -0.5576 -0.1473
 4089TIP3    H112273   2.889   1.827   2.471  0.9847 -1.4859 -1.7334
 4089TIP3    H212274   2.740   1.817   2.445  0.7857  1.0289 -1.7156
 4090TIP3   OH212275   1.947   4.864   3.852  0.6138 -0.8356 -0.1902
 4090TIP3    H112276   1.869   4.840   3.901 -0.8358  1.5086 -1.1773
 4090TIP3    H212277   1.980   4.943   3.896 -1.3797  2.0305 -3.3617
 4091TIP3   OH212278   2.492   0.869   5.068 -0.0628 -0.5096 -0.1697
 4091TIP3    H112279   2.494   0.905   5.157 -2.3728 -0.2566 -0.1565
 4091TIP3    H212280   2.449   0.784   5.078 -3.2372  0.7916 -1.3275
 4092TIP3   OH212281   1.031   4.802   1.821  0.3889 -0.5152 -0.0539
 4092TIP3    H112282   0.971   4.731   1.842 -0.7621  0.4706  0.0926
 4092TIP3    H212283   1.009   4.825   1.730  0.3619  0.0274  0.0896
 4093TIP3   OH212284   0.603   4.225   4.653  0.4823 -0.2161 -0.3731
 4093TIP3    H112285   0.544   4.295   4.627  2.5643  1.7365 -0.1360
 4093TIP3    H212286   0.583   4.208   4.745 -0.8180 -0.8192 -0.7416
 4094TIP3   OH212287   1.051   2.078   4.125  0.0077  0.0584  0.2682
 4094TIP3    H112288   1.006   2.142   4.069  1.7556 -0.0971 -1.4319
 4094TIP3    H212289   1.045   1.996   4.076  0.9129 -0.2548  0.6600
 4095TIP3   OH212290   4.358   1.347   2.849  0.1138 -0.5800  0.8621
 4095TIP3    H112291   4.292   1.383   2.908 -0.9625  0.6003 -0.9616
 4095TIP3    H212292   4.414   1.421   2.828 -0.6003 -0.4848 -0.9403
 4096TIP3   OH212293   3.864   3.887   2.369 -0.7449  0.0446  0.1830
 4096TIP3    H112294   3.862   3.951   2.440 -2.3843  0.0948  0.1400
 4096TIP3    H212295   3.903   3.934   2.295 -2.4751  1.2620 -0.0332
 4097TIP3   OH212296   0.524   4.572   0.431  0.1090  0.1492  0.7315
 4097TIP3    H112297   0.506   4.627   0.508  1.2882 -0.2012  1.2831
 4097TIP3    H212298   0.524   4.482   0.465 -1.3944 -0.1950 -0.0863
 4098TIP3   OH212299   4.381   4.121   0.417 -0.1887 -0.2194  0.2614
 4098TIP3    H112300   4.309   4.137   0.356  1.4845 -2.2150 -2.4686
 4098TIP3    H212301   4.371   4.030   0.443  0.9135 -0.3146  0.4164
 4099TIP3   OH212302   5.077   2.006   0.369  0.0342  0.2604  0.3212
 4099TIP3    H112303   5.050   1.920   0.399  0.1168  1.0157  2.8108
 4099TIP3    H212304   4.997   2.059   0.373  0.6886  1.1785  2.4970
 4100TIP3   OH212305   0.314   5.579   3.449  0.3470  0.2122 -0.3175
 4100TIP3    H112306   0.265   5.521   3.507  0.7514  1.2910  1.1833
 4100TIP3    H212307   0.350   5.646   3.508  1.9440  0.5763 -1.6304
 4101TIP3   OH212308   4.587   2.918   3.060  0.2484 -0.2774 -0.0909
 4101TIP3    H112309   4.602   2.923   3.154  0.8678 -1.1323 -0.1325
 4101TIP3    H212310   4.648   2.852   3.029  1.0079  0.9400 -1.3099
 4102TIP3   OH212311   4.979   1.935   1.643 -0.7354  0.2970  0.7578
 4102TIP3    H112312   4.896   1.966   1.679 -0.8272 -0.1353  0.9257
 4102TIP3    H212313   4.972   1.950   1.549 -0.8503  0.6152  0.8169
 4103TIP3   OH212314   0.058   2.099   4.147 -0.5291  0.4752 -0.2172
 4103TIP3    H112315   0.055   2.153   4.226  0.8506  0.2751  0.0025
 4103TIP3    H212316   0.081   2.011   4.179 -0.9913  0.1593 -0.7421
 4104TIP3   OH212317   5.543   4.382   3.743 -0.4395 -0.9632 -0.4814
 4104TIP3    H112318   5.567   4.335   3.822 -0.3901  0.5394  0.4382
 4104TIP3    H212319   5.592   4.464   3.748 -1.6833 -0.1411 -1.2443
 4105TIP3   OH212320   4.363   3.432   3.037  0.0252 -0.0126 -0.0951
 4105TIP3    H112321   4.344   3.460   3.126  1.9463  0.8917  0.0821
 4105TIP3    H212322   4.342   3.338   3.036 -0.3988  0.0552  1.1938
 4106TIP3   OH212323   4.222   4.749   4.603  0.5432 -0.0016 -0.1921
 4106TIP3    H112324   4.241   4.788   4.689 -1.0239  1.2626 -0.3679
 4106TIP3    H212325   4.216   4.824   4.544  2.3480 -0.9145 -1.5925
 4107TIP3   OH212326   0.350   3.447   1.556 -0.2744  0.4994 -0.3860
 4107TIP3    H112327   0.390   3.410   1.635  0.3874  2.0023  0.0089
 4107TIP3    H212328   0.272   3.492   1.588  0.8396  2.4732 -0.3157
 4108TIP3   OH212329   4.346   5.229   4.696 -0.7265  0.5750  0.4051
 4108TIP3    H112330   4.265   5.178   4.701  0.7236 -1.9659 -0.1324
 4108TIP3    H212331   4.353   5.252   4.603  0.8085 -2.3345 -0.3375
 4109TIP3   OH212332   4.027   3.436   2.085  0.3917  0.2267 -0.1807
 4109TIP3    H112333   4.074   3.452   2.003  3.2841  0.2315  1.3513
 4109TIP3    H212334   4.020   3.341   2.090  0.8002  0.1969 -0.1383
 4110TIP3   OH212335   0.097   0.301   0.120  0.2606  0.7038 -1.0634
 4110TIP3    H112336   0.185   0.289   0.156 -0.3538 -1.5528 -0.0928
 4110TIP3    H212337   0.110   0.296   0.025  1.2013  0.5665 -0.9447
 4111TIP3   OH212338   1.683   2.984   4.443  0.4017 -0.5579 -0.1754
 4111TIP3    H112339   1.647   3.059   4.394  0.1529 -0.0359  0.7824
 4111TIP3    H212340   1.612   2.957   4.501  0.7416 -1.0835 -0.0014
 4112TIP3   OH212341   3.007   1.134   3.631 -0.2497 -0.2242  0.5013
 4112TIP3    H112342   3.063   1.209   3.612  0.5439 -0.5426  1.5150
 4112TIP3    H212343   2.963   1.116   3.548  1.4328 -0.1917 -0.4454
 4113TIP3   OH212344   0.621   1.696   4.652 -0.3618 -0.4309 -0.5466
 4113TIP3    H112345   0.702   1.745   4.634 -0.9847  0.6717 -0.4294
 4113TIP3    H212346   0.630   1.670   4.744 -0.0697 -0.4746 -0.5837
 4114TIP3   OH212347   6.114   1.035   2.985 -0.1590  0.0589  0.3870
 4114TIP3    H112348   6.166   1.110   2.953 -1.1824  1.0739  1.0330
 4114TIP3    H212349   6.060   1.010   2.910  0.3701 -0.2115  0.0897
 4115TIP3   OH212350   3.777   0.631   2.678 -0.4932  0.7050 -0.3591
 4115TIP3    H112351   3.867   0.663   2.683  0.1042 -0.2508 -3.0882
 4115TIP3    H212352   3.748   0.656   2.590 -2.0719 -0.9671 -0.3758
 4116TIP3   OH212353   6.217   3.361   2.388 -0.1492 -0.5297 -0.0906
 4116TIP3    H112354   6.180   3.387   2.472  0.2033  1.1716 -0.4356
 4116TIP3    H212355   6.141   3.335   2.336 -0.9026  2.2964 -0.5702
 4117TIP3   OH212356   2.984   5.520   3.810 -0.3344  0.8448 -0.2599
 4117TIP3    H112357   3.070   5.485   3.786  0.3032  0.9080  1.7248
 4117TIP3    H212358   2.921   5.459   3.771  0.6734 -0.6560  0.3529
 4118TIP3   OH212359   0.981   4.696   1.107  0.4509 -0.3483 -0.1005
 4118TIP3    H112360   0.926   4.743   1.045 -0.1311  1.0136  1.3845
 4118TIP3    H212361   1.071   4.708   1.074  0.2882  1.5479  0.0387
 4119TIP3   OH212362   5.865   1.330   2.666  0.0628  0.5404  0.2451
 4119TIP3    H112363   5.955   1.360   2.676  0.7132 -1.2495  0.2547
 4119TIP3    H212364   5.833   1.373   2.587  1.0670  0.8884  0.0184
 4120TIP3   OH212365   5.422   2.397   0.554  0.4468  0.3722 -0.0156
 4120TIP3    H112366   5.390   2.330   0.494  0.7535 -0.8353  1.1323
 4120TIP3    H212367   5.505   2.363   0.587 -0.0085  0.6874  1.5717
 4121TIP3   OH212368   3.049   2.141   3.151 -0.1786  0.6276 -0.5905
 4121TIP3    H112369   3.105   2.167   3.078  1.9616 -2.4569 -0.2657
 4121TIP3    H212370   2.989   2.077   3.114  0.4824 -0.4609  0.1388
 4122TIP3   OH212371   3.690   5.340   0.873  0.8894  0.0106  0.5245
 4122TIP3    H112372   3.765   5.282   0.887 -0.3900 -1.3590  2.1994
 4122TIP3    H212373   3.661   5.321   0.784  0.8830 -1.4806  0.8285
 4123TIP3   OH212374   1.814   1.766   2.433 -0.1352  0.1232 -0.2747
 4123TIP3    H112375   1.871   1.808   2.368 -1.6126  0.4127 -1.4584
 4123TIP3    H212376   1.786   1.837   2.490 -0.6948  0.3297 -0.7883
 4124TIP3   OH212377   0.766   4.859   0.951  0.4011 -0.0247  0.1937
 4124TIP3    H112378   0.730   4.781   0.908  0.7372 -0.4680  0.7043
 4124TIP3    H212379   0.714   4.868   1.031  1.2336 -0.5040  0.7960
 4125TIP3   OH212380   2.364   3.667   1.988 -0.2602 -0.2714 -0.2059
 4125TIP3    H112381   2.407   3.676   2.074 -0.2233  0.3218 -0.2822
 4125TIP3    H212382   2.432   3.629   1.932  0.1105  0.4468 -0.2654
 4126TIP3   OH212383   6.191   4.813   5.125  0.2327  0.6883  0.1226
 4126TIP3    H112384   6.128   4.749   5.092  1.2366 -0.6708  0.7360
 4126TIP3    H212385   6.137   4.887   5.154 -1.0655 -0.3212  0.3790
 4127TIP3   OH212386   0.296   2.280   1.921  0.1073  0.3279 -0.1629
 4127TIP3    H112387   0.264   2.208   1.975  2.2849  0.5859  1.6183
 4127TIP3    H212388   0.265   2.359   1.966 -0.2362  0.5477 -0.7668
 4128TIP3   OH212389   0.773   5.251   3.516 -0.2669 -0.2598  0.0424
 4128TIP3    H112390   0.767   5.324   3.578  2.5173 -1.0368  1.3824
 4128TIP3    H212391   0.823   5.287   3.442  2.3644 -1.0420  1.3205
 4129TIP3   OH212392   1.898   2.726   0.633 -0.2673  0.2639  0.2072
 4129TIP3    H112393   1.928   2.694   0.548 -1.4496  1.3720 -0.6629
 4129TIP3    H212394   1.929   2.660   0.696 -0.0993 -1.0256 -1.1666
 4130TIP3   OH212395   6.218   5.512   0.642 -0.1942 -0.2022 -0.4125
 4130TIP3    H112396   6.279   5.441   0.661 -0.9882 -0.8427 -0.1883
 4130TIP3    H212397   6.203   5.553   0.727 -0.9462 -0.7689 -0.2643
 4131TIP3   OH212398   2.072   4.459   0.374 -0.1340  0.3129  0.3121
 4131TIP3    H112399   2.072   4.493   0.464  1.0570 -0.8421  0.7916
 4131TIP3    H212400   1.980   4.445   0.353 -0.3758 -0.7843  1.9358
 4132TIP3   OH212401   6.022   3.106   0.295 -0.4784 -0.0732 -0.1538
 4132TIP3    H112402   6.089   3.067   0.352  0.8211 -0.4690 -1.8939
 4132TIP3    H212403   6.040   3.200   0.297  0.7763 -0.2647 -1.3602
 4133TIP3   OH212404   5.837   0.090   2.956 -0.1108 -0.7322  0.7011
 4133TIP3    H112405   5.822   0.106   3.049  0.1587  1.0032  0.4750
 4133TIP3    H212406   5.912   0.030   2.954 -1.0202 -1.9354  1.6079
 4134TIP3   OH212407   4.821   2.685   1.554 -0.1639 -0.0543  0.2680
 4134TIP3    H112408   4.842   2.624   1.626 -0.7772  1.4182  1.7459
 4134TIP3    H212409   4.729   2.707   1.567 -0.0350  0.9400 -0.4356
 4135TIP3   OH212410   2.138   4.058   3.050  0.3170  0.0031 -0.2165
 4135TIP3    H112411   2.142   3.974   3.095 -1.8842 -0.0622 -0.0115
 4135TIP3    H212412   2.161   4.038   2.959 -0.2344 -0.8524 -0.1781
 4136TIP3   OH212413   3.491   2.012   2.361 -0.2354 -0.1635 -0.3427
 4136TIP3    H112414   3.544   2.090   2.372  0.2262 -0.5331  0.0690
 4136TIP3    H212415   3.553   1.939   2.365 -0.5520 -0.5234 -1.4954
 4137TIP3   OH212416   5.080   4.565   2.722  0.7652  0.5193 -0.2225
 4137TIP3    H112417   5.030   4.647   2.714 -0.4448 -0.1212  0.4077
 4137TIP3    H212418   5.025   4.500   2.679  1.2314 -0.1453  0.1773
 4138TIP3   OH212419   2.893   4.366   2.259  0.0567 -0.2307 -0.2149
 4138TIP3    H112420   2.813   4.315   2.248  1.4787 -2.8794  0.8545
 4138TIP3    H212421   2.925   4.380   2.169 -0.7078 -0.6375 -0.5556
 4139TIP3   OH212422   5.206   1.556   2.664 -0.2743 -0.0723  0.4622
 4139TIP3    H112423   5.188   1.650   2.655  0.6152  0.0717  0.0807
 4139TIP3    H212424   5.173   1.517   2.583  1.8309  0.3110 -0.6276
 4140TIP3   OH212425   0.143   2.830   2.710 -0.0546 -0.2159 -0.0933
 4140TIP3    H112426   0.135   2.921   2.683  0.9112 -0.1438 -0.1869
 4140TIP3    H212427   0.148   2.833   2.806  0.4063 -0.1218 -0.1158
 4141TIP3   OH212428   6.210   5.594   0.019 -0.1148  0.3523 -0.3658
 4141TIP3    H112429   6.258   5.535   0.077 -2.9933 -1.9275 -0.0653
 4141TIP3    H212430   6.264   5.600  -0.060  0.5707 -2.2940 -0.1872
 4142TIP3   OH212431   3.587   0.824   3.134  0.0771 -0.3632 -0.0688
 4142TIP3    H112432   3.663   0.853   3.184  0.0329  0.3827 -0.4227
 4142TIP3    H212433   3.519   0.888   3.154 -0.0810 -0.3200 -0.7255
 4143TIP3   OH212434   3.357   5.346   0.196 -0.0787  0.7828 -1.2367
 4143TIP3    H112435   3.435   5.378   0.242 -0.7936  0.2736  0.3859
 4143TIP3    H212436   3.392   5.295   0.122  1.1355  0.6144 -0.5684
 4144TIP3   OH212437   1.324   5.727   3.283 -0.1640 -0.1596 -0.2595
 4144TIP3    H112438   1.400   5.782   3.264 -0.7874  1.2333  1.1550
 4144TIP3    H212439   1.305   5.742   3.376 -0.9991 -1.9712 -0.0939
 4145TIP3   OH212440   0.153   0.513   4.707  0.1217  0.0724  0.1762
 4145TIP3    H112441   0.127   0.430   4.667 -1.1562 -0.2344  1.5626
 4145TIP3    H212442   0.107   0.580   4.656  0.0323 -0.1752 -0.0697
 4146TIP3   OH212443   0.842   2.190   2.746 -0.3752  0.0688 -0.3879
 4146TIP3    H112444   0.816   2.104   2.780  0.3787 -0.1126 -0.2464
 4146TIP3    H212445   0.918   2.172   2.690 -0.5574  0.5777 -0.8093
 4147TIP3   OH212446   0.477   4.984   5.091 -0.7979  0.4499  0.4069
 4147TIP3    H112447   0.408   4.976   5.157  1.1679 -0.8754  2.4462
 4147TIP3    H212448   0.548   5.031   5.136  1.5206 -2.5334  0.1553
 4148TIP3   OH212449   1.582   3.930   5.062 -0.0971 -0.3092  0.7769
 4148TIP3    H112450   1.650   3.993   5.037  0.8391 -0.9371  1.6672
 4148TIP3    H212451   1.598   3.854   5.007 -0.8652 -0.0016  0.1145
 4149TIP3   OH212452   6.123   4.846   1.578  0.3195  0.1090 -0.3299
 4149TIP3    H112453   6.051   4.782   1.576  0.4570 -0.1214  1.1151
 4149TIP3    H212454   6.179   4.816   1.650  1.3645  0.8306 -0.8242
 4150TIP3   OH212455   2.389   2.543   0.595  0.2119  0.3810  0.0371
 4150TIP3    H112456   2.307   2.509   0.560  0.5084  0.5125 -0.8105
 4150TIP3    H212457   2.390   2.515   0.686 -0.4382 -0.2454 -0.1423
 4151TIP3   OH212458   0.764   5.870   1.976  0.4038 -0.5075 -0.1327
 4151TIP3    H112459   0.690   5.930   1.967 -0.4049 -1.3552  0.5963
 4151TIP3    H212460   0.758   5.838   2.066  1.8070 -0.4217  0.0210
 4152TIP3   OH212461   2.493   0.887   3.831 -0.1463 -0.0397 -0.3675
 4152TIP3    H112462   2.463   0.797   3.826 -0.5353  0.0285  0.5822
 4152TIP3    H212463   2.477   0.913   3.922  2.9518 -0.0623  0.2984
 4153TIP3   OH212464   5.840   4.982   0.739 -0.3748 -0.3735 -0.3138
 4153TIP3    H112465   5.882   4.905   0.778 -1.3126 -0.4039  0.6815
 4153TIP3    H212466   5.820   5.038   0.814 -1.7227 -0.1855 -0.7968
 4154TIP3   OH212467   3.373   0.221   0.276 -0.5948 -0.4356 -0.4252
 4154TIP3    H112468   3.327   0.295   0.237 -0.3913 -1.1980 -2.1970
 4154TIP3    H212469   3.364   0.150   0.213  1.8181 -1.0264 -0.2245
 4155TIP3   OH212470   0.181   5.280   3.196  0.0443  0.5303 -0.0560
 4155TIP3    H112471   0.215   5.240   3.116  1.4017  0.9232  0.3054
 4155TIP3    H212472   0.125   5.213   3.235  1.9469 -0.9284  0.3387
 4156TIP3   OH212473   5.130   5.316   0.859  0.0734 -0.4529  0.7763
 4156TIP3    H112474   5.173   5.259   0.796 -0.8319  0.4143 -0.6892
 4156TIP3    H212475   5.150   5.405   0.829 -1.6295 -0.0274  0.7822
 4157TIP3   OH212476   0.236   2.829   3.216 -0.2095 -0.0450  0.5992
 4157TIP3    H112477   0.296   2.770   3.262 -0.0895  0.0017  0.5032
 4157TIP3    H212478   0.155   2.824   3.266 -0.7673 -1.6294 -0.3922
 4158TIP3   OH212479   0.132   5.018   3.824 -0.1741 -0.0327 -0.2427
 4158TIP3    H112480   0.192   5.054   3.758 -0.9945  0.4616 -0.7391
 4158TIP3    H212481   0.054   5.073   3.818 -1.0228 -1.1931 -0.2122
 4159TIP3   OH212482   1.979   0.476   4.932  0.1610  0.4628  0.5994
 4159TIP3    H112483   1.939   0.408   4.986  1.0018  1.4685  2.6145
 4159TIP3    H212484   1.924   0.553   4.947 -0.4195  0.4398 -1.1684
 4160TIP3   OH212485   1.546   0.468   0.148  0.5960  0.4929 -0.3150
 4160TIP3    H112486   1.464   0.515   0.163 -0.3030 -0.7104 -1.3163
 4160TIP3    H212487   1.614   0.532   0.169 -0.5848  1.8818 -0.5798
 4161TIP3   OH212488   1.449   0.154   1.348 -0.2207  0.6342 -0.0352
 4161TIP3    H112489   1.412   0.091   1.286 -0.3681  0.3507  0.3391
 4161TIP3    H212490   1.463   0.103   1.428  0.6343  0.8278 -0.0557
 4162TIP3   OH212491   2.874   2.280   1.461 -0.5166  0.2130  0.4903
 4162TIP3    H112492   2.814   2.217   1.421 -0.2402  0.7856 -0.8964
 4162TIP3    H212493   2.943   2.226   1.499 -1.1611 -0.3866  0.8338
 4163TIP3   OH212494   1.221   0.294   4.266  0.0185 -0.9770  0.2955
 4163TIP3    H112495   1.254   0.373   4.308  0.5651 -1.4030  0.6905
 4163TIP3    H212496   1.249   0.301   4.175 -1.8673  0.3372 -0.2287
 4164TIP3   OH212497   4.394   0.998   3.363  0.5736 -0.3809  0.0192
 4164TIP3    H112498   4.390   0.910   3.327 -0.5645 -1.1448  1.9072
 4164TIP3    H212499   4.364   1.054   3.291 -1.3311 -1.8031 -0.3598
 4165TIP3   OH212500   4.132   5.491   1.594 -0.2879  0.1064 -0.2348
 4165TIP3    H112501   4.074   5.426   1.633 -0.7673  0.9409  0.4733
 4165TIP3    H212502   4.148   5.554   1.664 -0.8421  1.4249 -1.2431
 4166TIP3   OH212503   5.838   2.875   2.715 -0.3586 -0.6067  0.5711
 4166TIP3    H112504   5.803   2.794   2.678  2.3022 -1.2107 -0.9429
 4166TIP3    H212505   5.931   2.874   2.690  0.7916  0.8508  4.1665
 4167TIP3   OH212506   2.094   1.206   3.817 -0.4779  0.4022  0.8106
 4167TIP3    H112507   2.060   1.200   3.728  3.6634 -3.1072 -0.9045
 4167TIP3    H212508   2.059   1.129   3.862  1.2680 -0.6339  0.4954
 4168TIP3   OH212509   3.252   4.571   0.971  0.1608  0.0465  0.0497
 4168TIP3    H112510   3.199   4.567   0.891  0.1557 -0.0117  0.0559
 4168TIP3    H212511   3.326   4.513   0.954  0.0574 -0.1196  0.1613
 4169TIP3   OH212512   4.696   5.786   4.817 -0.0319 -0.1869  0.5422
 4169TIP3    H112513   4.723   5.868   4.858  1.8702 -1.2325  1.5384
 4169TIP3    H212514   4.665   5.811   4.730  0.4333  1.5767  0.8580
 4170TIP3   OH212515   4.001   2.448   3.391  0.1933 -0.1885  0.2794
 4170TIP3    H112516   3.922   2.396   3.375 -0.8192  1.1153  0.8298
 4170TIP3    H212517   4.024   2.428   3.482  0.0924 -0.0521  0.3353
 4171TIP3   OH212518   2.168   2.065   4.920  0.0141 -0.8202 -0.1613
 4171TIP3    H112519   2.250   2.090   4.876  1.0051 -1.4882  1.2295
 4171TIP3    H212520   2.127   2.002   4.861  0.4030 -0.3344 -0.9677
 4172TIP3   OH212521   4.008   1.985   0.300 -0.4005 -0.0174 -0.1265
 4172TIP3    H112522   3.943   2.048   0.269 -0.4704 -0.7526 -1.5445
 4172TIP3    H212523   3.966   1.900   0.292  0.2788 -0.3953  0.1839
 4173TIP3   OH212524   0.414   3.529  -0.017 -0.0056  0.4373  0.1895
 4173TIP3    H112525   0.487   3.491   0.031 -0.3753  0.8965  1.1666
 4173TIP3    H212526   0.383   3.600   0.040 -1.0167  0.4406 -0.3367
 4174TIP3   OH212527   5.461   1.527   3.782  0.6496 -0.0587 -0.4182
 4174TIP3    H112528   5.524   1.491   3.845  0.0095  1.5198  1.2111
 4174TIP3    H212529   5.384   1.548   3.835 -0.5438 -0.1460 -2.0413
 4175TIP3   OH212530   3.063   1.649   3.701  0.4902 -0.0222  0.0784
 4175TIP3    H112531   3.128   1.717   3.722  0.4221  0.8945 -2.3595
 4175TIP3    H212532   2.998   1.694   3.647 -0.7635 -1.5468  0.2535
 4176TIP3   OH212533   4.985   4.186   3.704  0.5271 -0.8428 -0.0578
 4176TIP3    H112534   5.011   4.130   3.630  1.2653  0.4577 -0.8061
 4176TIP3    H212535   5.067   4.223   3.736 -0.0969  1.6391 -1.0830
 4177TIP3   OH212536   0.949   5.174   3.887 -0.4936 -0.5333 -0.0933
 4177TIP3    H112537   1.045   5.179   3.887 -0.5302  1.6856  1.1372
 4177TIP3    H212538   0.927   5.127   3.967 -0.4614 -2.1205 -0.9772
 4178TIP3   OH212539   4.645   3.924   0.157 -0.1670  0.4793  0.1572
 4178TIP3    H112540   4.718   3.870   0.186 -1.1522 -0.8342  0.2918
 4178TIP3    H212541   4.571   3.895   0.211 -0.4409  2.9966  1.2843
 4179TIP3   OH212542   2.645   4.943   4.639  0.2434  0.4298  0.5308
 4179TIP3    H112543   2.682   4.955   4.552  0.9152  1.4269  0.9351
 4179TIP3    H212544   2.652   4.849   4.655  0.0942  0.2324 -0.4909
 4180TIP3   OH212545   4.100   2.456   0.469  0.3207 -0.4247 -0.6510
 4180TIP3    H112546   4.112   2.449   0.374 -0.6335 -0.3128 -0.7954
 4180TIP3    H212547   4.040   2.530   0.480  0.4127 -0.4491  0.0419
 4181TIP3   OH212548   1.960   3.444   4.182 -0.4616 -0.1163 -0.7794
 4181TIP3    H112549   1.934   3.390   4.107  0.8618 -1.0948 -0.5593
 4181TIP3    H212550   2.051   3.421   4.199 -0.3320  1.0547  0.3204
 4182TIP3   OH212551   3.850   4.442   0.075 -0.5152 -0.8719  0.2360
 4182TIP3    H112552   3.760   4.457   0.103 -0.1437  0.0682  0.9631
 4182TIP3    H212553   3.886   4.529   0.059  0.0833 -1.2645 -0.6826
 4183TIP3   OH212554   0.232   1.429   1.153 -0.9225  0.5172 -0.0290
 4183TIP3    H112555   0.191   1.366   1.093 -1.0951  1.2021 -0.6479
 4183TIP3    H212556   0.316   1.449   1.112 -1.2682  1.3943 -0.3294
 4184TIP3   OH212557   3.174   5.055   2.269  0.9485 -0.5894  0.2375
 4184TIP3    H112558   3.211   5.142   2.285 -0.5498 -0.0286  0.7873
 4184TIP3    H212559   3.232   4.995   2.316  1.2409  0.2389  0.9458
 4185TIP3   OH212560   2.396   1.658   2.465  0.4180 -0.8813  0.7568
 4185TIP3    H112561   2.469   1.655   2.527 -0.1288 -0.9996  1.3995
 4185TIP3    H212562   2.329   1.711   2.509  0.7823  0.7745 -0.5542
 4186TIP3   OH212563   5.277   3.612   3.122 -0.8853  0.4974 -0.7970
 4186TIP3    H112564   5.329   3.585   3.046  0.0040 -3.1649  0.8946
 4186TIP3    H212565   5.186   3.599   3.095 -0.5687 -1.1085 -1.1601
 4187TIP3   OH212566   6.036   3.771   2.717  0.0066 -0.7247  0.3544
 4187TIP3    H112567   6.068   3.771   2.807  1.5757  1.5194 -0.0862
 4187TIP3    H212568   6.085   3.701   2.674 -0.3501 -1.4505  1.1125
 4188TIP3   OH212569   5.644   0.151   5.008 -0.4736 -0.3669  0.0755
 4188TIP3    H112570   5.575   0.203   4.968 -0.4115 -0.1643  0.2268
 4188TIP3    H212571   5.627   0.156   5.102  0.6748  1.0536  0.2518
 4189TIP3   OH212572   0.982   1.936   3.120  0.3802 -0.0695 -0.0657
 4189TIP3    H112573   0.901   1.980   3.096 -0.3116  0.1745  2.4941
 4189TIP3    H212574   0.976   1.850   3.079 -1.2214 -0.0785  0.1519
 4190TIP3   OH212575   2.723   5.575   0.616  0.4286  0.0701  0.5561
 4190TIP3    H112576   2.722   5.578   0.520 -0.4966  0.3918  0.5701
 4190TIP3    H212577   2.752   5.486   0.636 -0.4755 -0.3761 -0.0414
 4191TIP3   OH212578   4.321   5.518   1.243 -0.5590  0.7005 -0.4033
 4191TIP3    H112579   4.228   5.504   1.224 -0.1352  0.9604 -3.1077
 4191TIP3    H212580   4.331   5.613   1.247 -0.2445  0.7181 -1.3103
 4192TIP3   OH212581   5.849   2.786   4.828 -0.8235 -0.5345  0.2253
 4192TIP3    H112582   5.755   2.774   4.812 -1.0136  1.1040 -0.0984
 4192TIP3    H212583   5.889   2.777   4.742 -0.7263 -0.9223  0.3122
 4193TIP3   OH212584   1.287   5.478   3.195 -0.0052  0.3644  0.5327
 4193TIP3    H112585   1.370   5.441   3.165 -0.0089  1.1954 -0.5685
 4193TIP3    H212586   1.311   5.549   3.254  0.0270 -0.3710  1.4211
 4194TIP3   OH212587   3.193   5.146   3.935  0.2396 -0.2346  0.4286
 4194TIP3    H112588   3.099   5.142   3.918  0.0353  2.5077  0.4667
 4194TIP3    H212589   3.200   5.140   4.030  0.0752  0.0199  0.4563
 4195TIP3   OH212590   3.150   3.407   3.018  1.0213 -0.3733  0.2031
 4195TIP3    H112591   3.239   3.425   3.047  1.7889  1.7688 -2.9348
 4195TIP3    H212592   3.139   3.461   2.940 -3.0818 -0.5417  0.4552
 4196TIP3   OH212593   6.174   5.713   3.589 -0.4959 -0.1439  0.0899
 4196TIP3    H112594   6.178   5.804   3.616 -0.4249  0.0482 -0.5461
 4196TIP3    H212595   6.239   5.705   3.519 -0.2453 -0.7705  0.3772
 4197TIP3   OH212596   4.307   1.494   4.697  0.0219  0.7394  0.3249
 4197TIP3    H112597   4.379   1.444   4.734  0.2526  2.0061  1.6886
 4197TIP3    H212598   4.308   1.577   4.745  0.1090  2.3818 -2.3197
 4198TIP3   OH212599   4.749   1.528   3.855 -0.0891 -0.3276  0.1565
 4198TIP3    H112600   4.688   1.568   3.917  0.1583 -0.7821  0.7062
 4198TIP3    H212601   4.697   1.510   3.777 -0.2853  0.7462  0.0282
 4199TIP3   OH212602   1.078   2.817   2.319  0.4217  0.1307 -0.1585
 4199TIP3    H112603   1.117   2.859   2.396 -0.0318  0.6084 -0.1850
 4199TIP3    H212604   1.136   2.743   2.301 -0.2853 -0.8772  1.5366
 4200TIP3   OH212605   3.766   2.722   0.284 -0.3841 -0.3569 -0.4234
 4200TIP3    H112606   3.827   2.777   0.235  0.5867 -0.3597  0.7289
 4200TIP3    H212607   3.687   2.775   0.292 -0.4972 -0.2865 -1.7997
 4201TIP3   OH212608   3.238   5.743   1.912  0.6448  0.4283 -0.4127
 4201TIP3    H112609   3.264   5.694   1.989 -1.2353  0.6703  0.4378
 4201TIP3    H212610   3.275   5.693   1.838  0.2837 -1.2744  0.5015
 4202TIP3   OH212611   5.474   4.575   0.746  0.1892 -0.3584  0.3194
 4202TIP3    H112612   5.547   4.545   0.800 -0.3677 -0.1306  1.2171
 4202TIP3    H212613   5.399   4.524   0.776 -0.3773  0.6188  0.6144
 4203TIP3   OH212614   1.071   0.078   1.176 -0.7806  0.1873 -0.5838
 4203TIP3    H112615   1.143   0.078   1.240 -1.7403  0.4366  0.5431
 4203TIP3    H212616   1.073   0.166   1.138  1.4680 -0.7394 -2.9496
 4204TIP3   OH212617   1.886   2.696   3.681  0.0336  0.2622 -0.0117
 4204TIP3    H112618   1.828   2.682   3.755 -0.8089  1.1628 -0.4759
 4204TIP3    H212619   1.969   2.725   3.719 -0.3204  0.4971  0.5868
 4205TIP3   OH212620   0.433   2.740   4.159  0.5609 -0.3851  0.6769
 4205TIP3    H112621   0.391   2.698   4.235  0.5241  1.2319  1.6044
 4205TIP3    H212622   0.435   2.832   4.182  0.0056  0.2443 -1.5787
 4206TIP3   OH212623   1.098   2.026   3.399 -0.0731 -0.0448 -0.0291
 4206TIP3    H112624   1.041   2.006   3.324 -0.1925 -1.3850  0.4008
 4206TIP3    H212625   1.173   2.071   3.361  0.5845 -2.0398 -1.1710
 4207TIP3   OH212626   2.796   1.797   4.245 -0.3503  0.4851 -0.4534
 4207TIP3    H112627   2.860   1.838   4.187  0.6424 -0.6282 -0.1710
 4207TIP3    H212628   2.843   1.725   4.287 -0.6581  1.9266  2.6606
 4208TIP3   OH212629   3.960   1.167   4.590 -0.1112  0.0237 -0.1282
 4208TIP3    H112630   3.951   1.154   4.684 -2.3904 -1.0173 -0.4186
 4208TIP3    H212631   3.956   1.261   4.578 -0.6269  0.1302  0.7792
 4209TIP3   OH212632   5.354   4.657   3.691  0.0452 -0.0678  0.0116
 4209TIP3    H112633   5.403   4.575   3.687  0.4548  0.0613  1.6827
 4209TIP3    H212634   5.271   4.638   3.648 -0.5421 -1.8892  1.7875
 4210TIP3   OH212635   2.903   4.697   0.924 -0.3399 -0.3435 -0.7016
 4210TIP3    H112636   2.933   4.775   0.972 -1.2734 -0.0473 -0.5787
 4210TIP3    H212637   2.935   4.711   0.834 -0.9077  0.4284 -0.7988
 4211TIP3   OH212638   4.590   5.911   0.493 -0.1118  0.4024 -0.1853
 4211TIP3    H112639   4.643   5.951   0.424  0.3477 -0.0621 -0.1117
 4211TIP3    H212640   4.621   5.820   0.496 -1.8188 -0.2476 -1.0481
 4212TIP3   OH212641   1.932   5.553   2.014  0.1924 -0.0039 -0.2513
 4212TIP3    H112642   1.941   5.648   2.022  2.3597 -0.2071  0.2686
 4212TIP3    H212643   2.009   5.525   1.965 -0.9280 -1.4116 -1.3153
 4213TIP3   OH212644   0.991   1.606   4.650 -0.3162 -0.0472 -0.0817
 4213TIP3    H112645   1.068   1.617   4.594 -1.5790  1.2172 -1.7073
 4213TIP3    H212646   0.941   1.535   4.609  0.4019 -1.5209  1.5131
 4214TIP3   OH212647   3.161   5.616   3.245 -0.2904  0.2107  0.3201
 4214TIP3    H112648   3.205   5.535   3.271 -0.5248  0.2128  0.7317
 4214TIP3    H212649   3.123   5.650   3.326  0.0908  0.9097  0.2146
 4215TIP3   OH212650   0.218   5.820   0.849 -0.2318  0.3232 -0.0058
 4215TIP3    H112651   0.297   5.779   0.814 -0.2696 -0.6938  1.0364
 4215TIP3    H212652   0.230   5.914   0.831  0.3726  0.0034 -1.4368
 4216TIP3   OH212653   3.041   1.202   2.404 -0.0677  0.0777 -0.2198
 4216TIP3    H112654   2.999   1.118   2.421 -1.3005  0.4826 -1.0632
 4216TIP3    H212655   3.058   1.239   2.490 -0.3048 -0.6645  0.1519
 4217TIP3   OH212656   3.915   0.305   4.314 -0.1932 -1.0687 -0.0544
 4217TIP3    H112657   3.962   0.385   4.291 -1.1368 -0.3266  0.5246
 4217TIP3    H212658   3.946   0.283   4.402  1.2910 -2.3028 -0.8301
 4218TIP3   OH212659   5.847   3.484   0.319 -0.5772  0.5864 -0.0105
 4218TIP3    H112660   5.929   3.504   0.365 -1.3393  0.6503  1.3873
 4218TIP3    H212661   5.779   3.493   0.386 -1.6198 -0.5786 -0.8576
 4219TIP3   OH212662   1.409   5.235   4.944 -0.5344  0.4412 -0.4242
 4219TIP3    H112663   1.379   5.325   4.931  1.7342  1.6129  1.4903
 4219TIP3    H212664   1.494   5.232   4.899  0.2517 -0.1124  1.0142
 4220TIP3   OH212665   4.913   3.298   2.333 -0.3425  0.1176  0.4600
 4220TIP3    H112666   4.944   3.277   2.245  0.7425  0.0872  0.8422
 4220TIP3    H212667   4.823   3.327   2.320 -0.0499  0.5464 -0.7188
 4221TIP3   OH212668   1.197   2.290   2.326 -0.1880  0.0327  0.2775
 4221TIP3    H112669   1.286   2.257   2.314  0.2387  1.4727 -0.9622
 4221TIP3    H212670   1.204   2.384   2.308 -1.8551  0.2824  0.7385
 4222TIP3   OH212671   1.228   4.306   0.626  0.5627 -0.2302  0.3199
 4222TIP3    H112672   1.194   4.396   0.631 -0.4394 -0.5883  0.1472
 4222TIP3    H212673   1.318   4.313   0.658 -0.4322  0.3185  3.3287
 4223TIP3   OH212674   5.011   5.742   0.543  1.0573 -0.3738 -0.0735
 4223TIP3    H112675   5.013   5.707   0.632 -0.0916 -1.4353 -0.4319
 4223TIP3    H212676   5.048   5.830   0.551 -0.3834  0.1422  1.7222
 4224TIP3   OH212677   1.820   0.025   5.152  0.3104 -0.2758 -0.3863
 4224TIP3    H112678   1.802  -0.056   5.200 -2.4631  0.0116 -0.7762
 4224TIP3    H212679   1.734   0.065   5.139  1.3876  1.7029 -2.0476
 4225TIP3   OH212680   4.124   2.788   0.346  0.1793  0.2080 -0.4669
 4225TIP3    H112681   4.105   2.737   0.425  1.2058  1.9691  1.0102
 4225TIP3    H212682   4.067   2.751   0.279 -0.4110 -1.6563  0.9699
 4226TIP3   OH212683   2.404   1.997   4.043 -0.3889 -0.4011 -0.5292
 4226TIP3    H112684   2.458   2.054   3.987 -0.2140  0.9903  0.9901
 4226TIP3    H212685   2.467   1.945   4.093 -0.4527  0.3899  0.3993
 4227TIP3   OH212686   1.147   3.786   3.462 -0.5078  0.1639  0.5158
 4227TIP3    H112687   1.106   3.872   3.452  0.5467  0.6036 -0.1921
 4227TIP3    H212688   1.091   3.727   3.412 -0.0401  0.8478 -0.8718
 4228TIP3   OH212689   2.336   3.679   2.944  0.6532  0.4317 -0.1630
 4228TIP3    H112690   2.356   3.591   2.974  0.7261  0.7920  0.8759
 4228TIP3    H212691   2.300   3.723   3.021  0.6605  1.3161 -0.6569
 4229TIP3   OH212692   4.516   2.223   4.037 -0.5801 -0.1961 -0.4767
 4229TIP3    H112693   4.494   2.311   4.067 -0.4863  0.2385 -1.6172
 4229TIP3    H212694   4.516   2.169   4.116 -0.8522  0.7846  0.2033
 4230TIP3   OH212695   0.389   5.590   3.965 -0.4289  0.0152 -0.0919
 4230TIP3    H112696   0.416   5.555   3.880 -2.0868  0.8809 -1.0192
 4230TIP3    H212697   0.295   5.571   3.970 -0.0381 -1.8473  2.4861
 4231TIP3   OH212698   2.407   3.195   3.612  0.0109  0.4940 -0.4997
 4231TIP3    H112699   2.462   3.203   3.690  2.0653 -1.9748 -1.5525
 4231TIP3    H212700   2.457   3.242   3.544 -0.8276  1.0123 -0.7690
 4232TIP3   OH212701   3.413   5.386   5.185 -0.1208 -0.2859  0.1327
 4232TIP3    H112702   3.438   5.391   5.093 -0.2778 -2.5592 -0.1048
 4232TIP3    H212703   3.491   5.354   5.230 -0.1402  0.5143  0.7584
 4233TIP3   OH212704   1.435   4.570   3.831 -0.5589 -0.1816 -0.4845
 4233TIP3    H112705   1.356   4.624   3.832  0.6937  1.7642 -1.4269
 4233TIP3    H212706   1.493   4.612   3.768  2.3151  0.0772  2.0489
 4234TIP3   OH212707   6.315   4.447   1.111  0.5884  0.1933  0.0035
 4234TIP3    H112708   6.255   4.375   1.133  1.4492 -0.4584  0.2833
 4234TIP3    H212709   6.285   4.520   1.164 -0.0547 -0.0761  0.0218
 4235TIP3   OH212710   4.665   2.931   3.556 -0.0152 -0.0757  0.0307
 4235TIP3    H112711   4.717   2.893   3.627  1.8312  2.7546  0.3481
 4235TIP3    H212712   4.581   2.954   3.597 -0.5098 -2.0610  0.2344
 4236TIP3   OH212713   5.555   3.036   0.317  0.1490  0.6412 -0.0607
 4236TIP3    H112714   5.502   3.091   0.375  0.4685 -1.3275  2.2665
 4236TIP3    H212715   5.493   2.969   0.286  0.3646  0.7313 -0.6974
 4237TIP3   OH212716   3.041   4.681   3.988  0.1126  0.3596  0.7764
 4237TIP3    H112717   3.073   4.648   3.904 -0.5395 -1.5561  1.2284
 4237TIP3    H212718   2.947   4.665   3.986 -0.0456  1.1410  1.5164
 4238TIP3   OH212719   0.278   1.852   0.219 -0.3631 -0.0202  0.2206
 4238TIP3    H112720   0.244   1.789   0.282 -1.6474  0.7137  0.2740
 4238TIP3    H212721   0.218   1.925   0.222  1.5392  1.6027  0.7500
 4239TIP3   OH212722   5.088   5.211   2.318 -0.1022 -0.3985 -0.1579
 4239TIP3    H112723   5.016   5.271   2.304 -0.6645 -0.7944  0.8919
 4239TIP3    H212724   5.053   5.145   2.379  1.6007  0.3063  1.7000
 4240TIP3   OH212725   2.453   0.170   3.194  0.0038 -0.3581  0.3022
 4240TIP3    H112726   2.410   0.192   3.111 -0.1824 -1.2721  0.1447
 4240TIP3    H212727   2.438   0.246   3.250 -0.2503  0.0871 -0.3591
 4241TIP3   OH212728   5.143   0.186   2.776 -0.5834  0.2695 -0.0099
 4241TIP3    H112729   5.238   0.200   2.774 -0.3923 -0.9439 -0.7992
 4241TIP3    H212730   5.118   0.179   2.684 -1.0941 -1.3908  0.2091
 4242TIP3   OH212731   0.318   4.494   4.813 -0.5187  0.2948 -0.1466
 4242TIP3    H112732   0.297   4.452   4.897 -1.5464 -0.6151 -0.8284
 4242TIP3    H212733   0.300   4.587   4.828 -0.5838  0.1588  0.6743
 4243TIP3   OH212734   3.996   0.596   4.689  0.5602 -0.0096  0.1430
 4243TIP3    H112735   3.958   0.684   4.687 -0.7925 -0.5520 -2.2720
 4243TIP3    H212736   4.089   0.610   4.704  0.4475  1.8970 -0.6318
 4244TIP3   OH212737   5.735   2.448   2.990  0.3090  0.2851  0.4227
 4244TIP3    H112738   5.815   2.499   2.996  1.2128 -1.1714  1.2617
 4244TIP3    H212739   5.680   2.481   3.061  1.4438 -0.7948  1.8539
 4245TIP3   OH212740   1.155   1.217   3.278 -0.2264  0.3507 -0.8511
 4245TIP3    H112741   1.133   1.151   3.344  0.6965 -0.2163 -1.0914
 4245TIP3    H212742   1.211   1.279   3.325  1.8593 -0.9616 -1.4581
 4246TIP3   OH212743   3.978   3.542   2.482 -0.3098  0.3413 -0.2103
 4246TIP3    H112744   3.973   3.625   2.435  1.2962  1.0052  0.6990
 4246TIP3    H212745   4.031   3.486   2.425 -1.2693 -0.0328 -0.7552
 4247TIP3   OH212746   4.864   2.863   4.430 -0.5083 -0.7828  0.1502
 4247TIP3    H112747   4.916   2.783   4.419  0.8766  0.1322 -0.2585
 4247TIP3    H212748   4.863   2.877   4.525  0.1655 -0.7106  0.1538
 4248TIP3   OH212749   4.303   3.146   2.663  0.1620  0.3227 -0.2489
 4248TIP3    H112750   4.395   3.120   2.674  0.1784 -0.2386 -1.5285
 4248TIP3    H212751   4.302   3.239   2.684  1.2137  0.5396 -1.0586
 4249TIP3   OH212752   3.928   1.469   4.180  0.4270  0.2270  0.3051
 4249TIP3    H112753   3.881   1.534   4.128  0.8403  1.5425  1.5424
 4249TIP3    H212754   4.013   1.462   4.138 -0.2280 -0.9208 -0.9292
 4250TIP3   OH212755   5.820   4.835   2.213 -0.2595 -0.1686  0.0728
 4250TIP3    H112756   5.750   4.830   2.147 -0.2951  1.7963 -0.0996
 4250TIP3    H212757   5.807   4.920   2.255  0.5574 -0.8317  1.7468
 4251TIP3   OH212758   3.703   5.415   1.759  0.3183 -0.0033  0.6496
 4251TIP3    H112759   3.744   5.332   1.735 -0.2214  0.4983 -2.4767
 4251TIP3    H212760   3.776   5.472   1.783  0.9964 -0.4791 -0.2421
 4252TIP3   OH212761   2.486   4.418   3.345 -0.7830 -0.4721 -0.2270
 4252TIP3    H112762   2.414   4.355   3.335 -1.2232 -0.2286  1.2104
 4252TIP3    H212763   2.558   4.379   3.295 -1.2975 -1.7176 -0.0349
 4253TIP3   OH212764   4.122   1.162   2.462 -0.0546  0.1338 -0.0254
 4253TIP3    H112765   4.043   1.186   2.510  0.1613  0.7469  0.0349
 4253TIP3    H212766   4.124   1.221   2.387 -0.0363 -0.3697 -0.4237
 4254TIP3   OH212767   3.279   3.637   1.364  0.3413 -0.7035 -0.1055
 4254TIP3    H112768   3.270   3.727   1.394  1.1665 -0.8760  0.6943
 4254TIP3    H212769   3.209   3.589   1.408 -1.2437 -0.1815 -1.8712
 4255TIP3   OH212770   6.128   0.263   4.494  0.1242  0.1432  0.8358
 4255TIP3    H112771   6.092   0.299   4.575  0.6392 -0.3781  1.3080
 4255TIP3    H212772   6.083   0.179   4.483 -0.0281  0.2651  0.5181
 4256TIP3   OH212773   0.442   1.166   0.881 -0.0749 -0.3797 -0.7530
 4256TIP3    H112774   0.531   1.137   0.862  0.0488 -1.5921  1.3520
 4256TIP3    H212775   0.389   1.087   0.875 -0.3041 -0.4981  1.8050
 4257TIP3   OH212776   4.129   1.336   2.262 -0.5741  0.1786 -0.3082
 4257TIP3    H112777   4.051   1.390   2.274 -0.8651 -0.4226  0.5999
 4257TIP3    H212778   4.153   1.349   2.170  0.1760  2.8976  0.2024
 4258TIP3   OH212779   2.844   0.930   3.810 -0.7832  0.0298 -0.5920
 4258TIP3    H112780   2.750   0.945   3.795 -0.6565  1.4395 -0.0498
 4258TIP3    H212781   2.877   1.014   3.841  0.7917 -0.2766 -1.3620
 4259TIP3   OH212782   5.573   1.940   0.928  0.0876 -0.6085  0.2814
 4259TIP3    H112783   5.657   1.896   0.915  0.5547  0.9022 -2.7190
 4259TIP3    H212784   5.596   2.033   0.940 -1.1104 -0.3872  1.0503
 4260TIP3   OH212785   1.834   5.136   0.179 -0.1704  0.1576  0.2453
 4260TIP3    H112786   1.766   5.084   0.138  1.0358 -0.2740 -1.2618
 4260TIP3    H212787   1.818   5.225   0.148  0.6166 -0.1344 -1.0468
 4261TIP3   OH212788   3.647   2.608   1.012 -1.0193 -0.1722 -0.4128
 4261TIP3    H112789   3.606   2.600   0.926 -0.4371  1.6846 -0.9142
 4261TIP3    H212790   3.736   2.640   0.993 -0.6082 -0.5211  0.8444
 4262TIP3   OH212791   5.206   5.931   0.087 -0.5911  0.0753  0.2005
 4262TIP3    H112792   5.270   5.982   0.037 -1.0930 -0.4707 -1.0463
 4262TIP3    H212793   5.239   5.932   0.177  0.7071  0.5287 -0.2571
 4263TIP3   OH212794   2.508   3.404   0.615  0.7212  0.3653  0.1745
 4263TIP3    H112795   2.445   3.404   0.687  0.0024  0.1481 -0.4320
 4263TIP3    H212796   2.453   3.413   0.537  1.5634  1.8259 -0.2819
 4264TIP3   OH212797   3.754   2.313   3.416 -0.1296  0.0676  0.0224
 4264TIP3    H112798   3.753   2.246   3.347  1.6735  2.9586 -3.1527
 4264TIP3    H212799   3.663   2.320   3.444 -0.6639 -2.3914 -0.8405
 4265TIP3   OH212800   2.162   5.870   0.815  0.2257 -0.3227  0.1834
 4265TIP3    H112801   2.210   5.892   0.895  0.6311 -1.3385  0.2386
 4265TIP3    H212802   2.158   5.952   0.767 -1.2112  0.6431  1.8363
 4266TIP3   OH212803   2.515   4.266   4.334  0.1358 -0.0073  0.1362
 4266TIP3    H112804   2.584   4.279   4.399 -1.2336  3.5448  1.1342
 4266TIP3    H212805   2.550   4.305   4.254  0.6986 -1.7238 -0.4859
 4267TIP3   OH212806   5.926   5.637   4.269 -0.1492  0.1602  0.5257
 4267TIP3    H112807   5.986   5.711   4.267  0.6579 -0.4873  0.1897
 4267TIP3    H212808   5.900   5.624   4.177  0.2556 -0.3853  0.4779
 4268TIP3   OH212809   2.091   2.275   0.798 -0.6013 -0.2380 -0.1124
 4268TIP3    H112810   2.010   2.251   0.842  0.0058  0.4407  1.4531
 4268TIP3    H212811   2.148   2.308   0.868  1.1538 -1.0078 -1.0977
 4269TIP3   OH212812   5.656   3.303   1.196 -0.3743  0.4590 -0.0482
 4269TIP3    H112813   5.730   3.242   1.197 -0.9341 -0.2675 -1.0961
 4269TIP3    H212814   5.623   3.300   1.106 -2.1504  0.1830  0.5620
 4270TIP3   OH212815   3.548   1.890   4.296 -0.1105  0.1602  0.2205
 4270TIP3    H112816   3.582   1.920   4.381 -1.5254  0.5464  0.6807
 4270TIP3    H212817   3.493   1.815   4.317 -1.1945  0.7993 -0.2101
 4271TIP3   OH212818   4.434   1.363   3.135 -0.3151 -0.7970 -0.3385
 4271TIP3    H112819   4.480   1.318   3.064 -1.3543 -0.6111 -1.1520
 4271TIP3    H212820   4.359   1.307   3.153 -1.4364  0.3912 -1.1307
 4272TIP3   OH212821   2.392   0.606   2.251 -0.3668 -0.7028 -0.2688
 4272TIP3    H112822   2.301   0.603   2.224 -0.6312 -1.0060  0.6063
 4272TIP3    H212823   2.394   0.670   2.322  0.1397 -0.5494 -0.4126
 4273TIP3   OH212824   1.529   3.151   0.066  0.1835  0.2994  0.6294
 4273TIP3    H112825   1.535   3.096   0.145 -0.7461  0.8291  1.0788
 4273TIP3    H212826   1.475   3.225   0.092  0.1248  0.6439 -0.4269
 4274TIP3   OH212827   1.567   0.069   2.085 -0.1454  0.1797 -0.9915
 4274TIP3    H112828   1.542   0.013   2.159 -0.2769  0.1363 -1.0671
 4274TIP3    H212829   1.620   0.138   2.124  1.9937 -1.2594 -1.2029
 4275TIP3   OH212830   5.868   4.643   3.430 -0.4989 -0.0855 -0.1068
 4275TIP3    H112831   5.851   4.619   3.339  0.1908 -1.8870  0.1900
 4275TIP3    H212832   5.931   4.715   3.425 -2.2673  1.4747 -1.0588
 4276TIP3   OH212833   2.952   3.341   2.007  0.1799 -0.6045 -0.4365
 4276TIP3    H112834   2.994   3.422   1.980 -0.4241  0.1038  0.6568
 4276TIP3    H212835   2.925   3.357   2.097  0.2112 -2.0926 -0.1347
 4277TIP3   OH212836   1.164   4.184   3.517 -0.8893 -0.3738 -0.4518
 4277TIP3    H112837   1.228   4.236   3.566 -3.1846  0.6641  1.6923
 4277TIP3    H212838   1.132   4.244   3.450 -1.8130  0.2381  0.4981
 4278TIP3   OH212839   5.982   5.029   1.736 -1.1131 -0.4531  0.1800
 4278TIP3    H112840   6.058   5.043   1.793 -1.1554 -0.1709  0.1679
 4278TIP3    H212841   6.018   4.982   1.661 -0.3247  2.2420 -1.2617
 4279TIP3   OH212842   2.668   0.067   1.115  0.5223 -0.3081  0.0540
 4279TIP3    H112843   2.643   0.156   1.140 -1.0866 -0.4263 -1.0006
 4279TIP3    H212844   2.639   0.059   1.024  1.1195 -1.7554 -0.0314
 4280TIP3   OH212845   4.151   4.055   3.735 -0.5383  0.0881 -0.0001
 4280TIP3    H112846   4.247   4.051   3.727 -0.4953 -1.5656  0.8396
 4280TIP3    H212847   4.125   3.964   3.753 -2.2585  0.5343 -0.0754
 4281TIP3   OH212848   1.656   3.148   1.166  0.2700 -1.0086 -0.1869
 4281TIP3    H112849   1.625   3.156   1.257 -0.0196  1.1372 -0.4260
 4281TIP3    H212850   1.747   3.120   1.174  0.0389 -1.5613  0.7258
 4282TIP3   OH212851   3.045   2.968   1.188  0.1327  0.0842  0.1582
 4282TIP3    H112852   3.111   2.959   1.257  0.2653 -1.5229 -0.1375
 4282TIP3    H212853   2.964   2.989   1.235  0.1698 -1.2132  0.8484
 4283TIP3   OH212854   3.095   5.122   0.888  0.3419  0.0992 -0.0691
 4283TIP3    H112855   3.093   5.206   0.842 -0.8568 -0.8757 -1.9045
 4283TIP3    H212856   3.183   5.088   0.872  1.1744  1.3921  1.5128
 4284TIP3   OH212857   4.417   3.643   4.758 -0.4467  0.1187  0.5339
 4284TIP3    H112858   4.398   3.581   4.828 -2.3132  0.8417  0.7283
 4284TIP3    H212859   4.419   3.728   4.801  0.1797  0.3978 -0.0229
 4285TIP3   OH212860   4.247   0.207   2.572 -0.3816 -0.2451 -0.2379
 4285TIP3    H112861   4.302   0.272   2.530 -0.7287  0.2369  0.0432
 4285TIP3    H212862   4.217   0.249   2.653 -0.6308 -0.7411 -0.0669
 4286TIP3   OH212863   0.342   1.357   2.256 -0.1884 -0.6399 -0.0760
 4286TIP3    H112864   0.359   1.273   2.299 -0.2665 -0.0405  1.1731
 4286TIP3    H212865   0.280   1.401   2.314  1.5486  1.1929  0.5088
 4287TIP3   OH212866   5.868   4.745   1.240  0.2995 -0.1919 -0.1025
 4287TIP3    H112867   5.807   4.705   1.303  0.5278  0.7147  0.7189
 4287TIP3    H212868   5.817   4.753   1.159 -1.1892  1.8294  0.9424
 4288TIP3   OH212869   3.120   1.383   3.669 -0.5867 -0.2786  0.1400
 4288TIP3    H112870   3.122   1.477   3.685 -2.0179 -0.1005 -0.6137
 4288TIP3    H212871   3.057   1.349   3.731 -1.4029 -0.4715 -0.7702
 4289TIP3   OH212872   5.473   3.658   4.751  0.5111 -0.6632  0.6469
 4289TIP3    H112873   5.529   3.597   4.702  1.6075  2.1918 -1.9828
 4289TIP3    H212874   5.531   3.695   4.818 -0.0822 -2.2032  2.0694
 4290TIP3   OH212875   1.475   2.111   1.282  0.0302  0.5250  0.3559
 4290TIP3    H112876   1.556   2.162   1.276  0.1951  0.2292  0.0526
 4290TIP3    H212877   1.464   2.073   1.195 -0.0423 -0.0292  0.6062
 4291TIP3   OH212878   4.173   1.542   4.048 -0.3279 -0.4589 -0.2352
 4291TIP3    H112879   4.126   1.607   3.996 -1.4775 -0.3861  0.8549
 4291TIP3    H212880   4.184   1.468   3.988 -1.2349 -0.2071 -0.7400
 4292TIP3   OH212881   0.338   3.626   4.248 -0.2133 -0.1625 -0.2980
 4292TIP3    H112882   0.245   3.604   4.250  0.3878 -3.1327 -0.2722
 4292TIP3    H212883   0.381   3.553   4.294  2.0759  1.5580  0.5108
 4293TIP3   OH212884   1.335   1.738   4.724 -0.1794 -0.0478 -0.2271
 4293TIP3    H112885   1.325   1.655   4.676 -2.2132  0.2456 -0.4246
 4293TIP3    H212886   1.282   1.726   4.803  1.3911  0.2615  0.9062
 4294TIP3   OH212887   5.012   3.174   2.098  0.4094  0.5758 -0.1212
 4294TIP3    H112888   5.106   3.174   2.117  0.4640 -0.2869 -0.3534
 4294TIP3    H212889   5.006   3.205   2.008  0.3009  2.6567  0.5575
 4295TIP3   OH212890   5.195   3.605   1.175 -0.2105  0.0173 -0.6499
 4295TIP3    H112891   5.104   3.579   1.189 -0.1776  0.7900  1.4013
 4295TIP3    H212892   5.240   3.575   1.254  0.7481  2.0002 -0.3785
 4296TIP3   OH212893   3.763   3.838   4.998  0.2311 -0.9483 -0.4677
 4296TIP3    H112894   3.696   3.807   5.059 -0.8651 -0.3008 -1.3106
 4296TIP3    H212895   3.729   3.817   4.911  0.9190 -0.2223 -0.9316
 4297TIP3   OH212896   1.695   0.130   0.951  0.1516 -0.2111  0.4654
 4297TIP3    H112897   1.602   0.149   0.955  0.2218  0.5865 -1.0236
 4297TIP3    H212898   1.702   0.059   0.886  0.6397  0.3566 -0.1183
 4298TIP3   OH212899   4.975   1.247   2.021 -0.2045 -1.0290 -0.5038
 4298TIP3    H112900   4.894   1.220   2.063 -0.1847 -0.4269 -0.0668
 4298TIP3    H212901   4.988   1.183   1.951 -3.0353  0.9371 -3.0888
 4299TIP3   OH212902   1.260   3.633   1.276  0.1257 -0.2404 -0.3459
 4299TIP3    H112903   1.192   3.625   1.209 -0.5238 -2.1717  0.4775
 4299TIP3    H212904   1.334   3.672   1.230 -0.5485 -0.8240 -2.0098
 4300TIP3   OH212905   1.739   3.126   5.108 -0.3854  0.3384 -0.0965
 4300TIP3    H112906   1.674   3.186   5.145  0.0151 -0.1432  1.4548
 4300TIP3    H212907   1.770   3.075   5.183  1.2677  0.0632 -0.9349
 4301TIP3   OH212908   3.687   0.237   0.487  0.2995 -0.2257  0.1999
 4301TIP3    H112909   3.668   0.186   0.409 -1.0968 -1.8940  1.5350
 4301TIP3    H212910   3.619   0.304   0.490 -0.1949 -0.7398  0.4638
 4302TIP3   OH212911   1.506   0.469   4.084  0.2060 -0.3668 -0.0024
 4302TIP3    H112912   1.521   0.545   4.027  1.7418 -1.6285 -1.3925
 4302TIP3    H212913   1.432   0.424   4.044  0.2933 -0.4149 -0.1134
 4303TIP3   OH212914   6.162   2.469   3.996 -0.0442 -0.2872  0.6724
 4303TIP3    H112915   6.090   2.520   3.958  1.9779  1.2808 -1.3230
 4303TIP3    H212916   6.152   2.478   4.090 -1.7785  0.8497  0.4142
 4304TIP3   OH212917   4.754   5.694   0.515  0.0010  0.2305  0.3329
 4304TIP3    H112918   4.751   5.700   0.419  0.9855 -2.3593  0.0563
 4304TIP3    H212919   4.847   5.700   0.537 -0.1934  0.5252  1.1143
 4305TIP3   OH212920   0.035   5.078   4.703  0.5954  0.1042  0.5128
 4305TIP3    H112921  -0.011   4.998   4.731  0.8246  0.1108  0.9120
 4305TIP3    H212922   0.121   5.047   4.674 -0.1313 -0.1110 -1.6482
 4306TIP3   OH212923   3.115   2.154   4.437 -0.4823  0.1594 -0.0698
 4306TIP3    H112924   3.163   2.234   4.414 -1.5142  0.6861 -0.4686
 4306TIP3    H212925   3.178   2.100   4.483  0.7277  0.4878 -1.2819
 4307TIP3   OH212926   5.175   1.729   4.210 -0.4316 -0.2741 -0.0745
 4307TIP3    H112927   5.180   1.788   4.285 -2.2236 -0.2090  0.0489
 4307TIP3    H212928   5.226   1.653   4.236  0.2901  0.3995  0.5537
 4308TIP3   OH212929   6.299   4.284   2.413 -0.3896 -0.0340  0.4159
 4308TIP3    H112930   6.328   4.374   2.423  2.4374 -1.0652  3.4938
 4308TIP3    H212931   6.227   4.274   2.475  0.1924 -0.1817  1.0796
 4309TIP3   OH212932   1.825   0.358   1.842  0.3637  0.1993 -0.6471
 4309TIP3    H112933   1.856   0.436   1.795 -0.3900  0.5728 -0.5396
 4309TIP3    H212934   1.732   0.375   1.857 -0.2859 -1.5097 -2.2598
 4310TIP3   OH212935   0.641   3.742   2.210 -0.1110 -0.3306 -0.3969
 4310TIP3    H112936   0.701   3.719   2.139 -0.0879 -0.1832 -0.4263
 4310TIP3    H212937   0.596   3.821   2.179  0.8156  0.4819  0.2808
 4311TIP3   OH212938   2.377   5.741   5.009  0.1198  0.1819  0.1513
 4311TIP3    H112939   2.386   5.732   4.914 -0.6889 -0.7019  0.1439
 4311TIP3    H212940   2.466   5.759   5.040  0.5440 -0.4147 -0.6862
 4312TIP3   OH212941   3.359   3.245   2.503 -0.1886 -0.2554 -0.2519
 4312TIP3    H112942   3.443   3.246   2.549  0.9072 -0.6450 -2.1166
 4312TIP3    H212943   3.294   3.253   2.572  1.3934  0.9389  1.2051
 4313TIP3   OH212944   6.307   0.485   2.511 -0.3456 -0.0740 -0.6551
 4313TIP3    H112945   6.319   0.475   2.416 -0.2898  1.3713 -0.8273
 4313TIP3    H212946   6.298   0.580   2.524 -0.9339 -0.2950  0.7249
 4314TIP3   OH212947   2.787   5.473   2.402  0.0649 -0.2153  0.2101
 4314TIP3    H112948   2.863   5.521   2.367 -0.4562  1.2450  1.0042
 4314TIP3    H212949   2.825   5.398   2.447  0.8382 -1.3272 -2.1138
 4315TIP3   OH212950   3.277   3.666   3.626 -0.1951  0.0689  0.5398
 4315TIP3    H112951   3.325   3.716   3.692  0.7765  0.0533 -0.1291
 4315TIP3    H212952   3.218   3.611   3.676  0.2046  0.3813  1.3771
 4316TIP3   OH212953   0.353   3.134   1.642  0.0829  0.1123 -0.4705
 4316TIP3    H112954   0.427   3.172   1.690 -0.6082  0.1780  0.5550
 4316TIP3    H212955   0.359   3.173   1.555  1.7991 -0.5891 -0.7076
 4317TIP3   OH212956   1.567   3.471   5.130 -0.4096  0.0489  0.5969
 4317TIP3    H112957   1.593   3.549   5.179  0.0218  1.7744 -2.1607
 4317TIP3    H212958   1.476   3.485   5.107 -0.4368 -0.4371  0.3759
 4318TIP3   OH212959   2.536   4.200   2.705  0.0913 -0.0463 -0.6064
 4318TIP3    H112960   2.569   4.116   2.673  0.0279 -0.3354  0.0765
 4318TIP3    H212961   2.453   4.212   2.658 -0.4027 -0.8570  0.0346
 4319TIP3   OH212962   0.790   3.519   4.205 -0.2975 -0.3913  0.1360
 4319TIP3    H112963   0.742   3.580   4.261 -0.8391 -0.2097 -0.5267
 4319TIP3    H212964   0.867   3.569   4.176 -0.5190 -0.1664 -0.0624
 4320TIP3   OH212965   6.042   0.342   4.737 -0.5692  0.0863 -0.1804
 4320TIP3    H112966   6.071   0.426   4.771 -0.4724  0.1208 -0.3490
 4320TIP3    H212967   5.955   0.329   4.775  0.2258 -0.6869  1.5053
 4321TIP3   OH212968   2.866   2.579   4.723 -0.1956  0.7141  0.6288
 4321TIP3    H112969   2.824   2.503   4.763  0.3167  1.1858  2.1437
 4321TIP3    H212970   2.794   2.641   4.710 -0.8127 -0.3928 -1.6546
 4322TIP3   OH212971   3.420   0.784   5.119 -0.1898 -0.3074 -0.3355
 4322TIP3    H112972   3.363   0.732   5.176 -1.1404  0.3342 -0.6572
 4322TIP3    H212973   3.434   0.729   5.042 -0.3272 -0.5111 -0.2143
 4323TIP3   OH212974   6.336   3.927  -0.010  0.1750  0.6151 -1.0319
 4323TIP3    H112975   6.303   3.934   0.080 -0.0780 -0.9582 -0.9701
 4323TIP3    H212976   6.267   3.880  -0.057  0.8741  0.2710 -1.7318
 4324TIP3   OH212977   1.759   5.604   3.996  0.1121  1.1203  0.1139
 4324TIP3    H112978   1.702   5.654   4.054 -1.7722 -0.2543 -0.4423
 4324TIP3    H212979   1.716   5.519   3.989  1.8780  0.2687 -0.9493
 4325TIP3   OH212980   2.637   2.188   4.018 -0.1867 -0.8427 -0.3586
 4325TIP3    H112981   2.653   2.211   4.109  1.8131 -1.1146 -0.5940
 4325TIP3    H212982   2.688   2.252   3.967  1.9441 -2.9985 -1.1251
 4326TIP3   OH212983   3.774   2.657   4.631  0.0239  0.0733 -0.3694
 4326TIP3    H112984   3.864   2.671   4.660  0.1240  0.3926 -0.8204
 4326TIP3    H212985   3.720   2.670   4.709  0.2648  1.1311 -0.3701
 4327TIP3   OH212986   2.325   2.952   2.691  0.5354  0.3745 -0.1761
 4327TIP3    H112987   2.285   2.939   2.605 -0.3315 -1.7731  0.4630
 4327TIP3    H212988   2.272   3.019   2.733 -0.3178 -0.0139 -0.6023
 4328TIP3   OH212989   0.365   0.774   0.689 -0.2510  0.1185 -0.0514
 4328TIP3    H112990   0.446   0.778   0.740  1.2497  0.5519 -2.3554
 4328TIP3    H212991   0.304   0.832   0.736  0.2694 -1.1868  2.4190
 4329TIP3   OH212992   2.765   2.753   3.891  0.9142 -0.3186  0.7273
 4329TIP3    H112993   2.820   2.694   3.841  2.5048  1.6832 -0.0374
 4329TIP3    H212994   2.782   2.840   3.854 -1.0838  0.6966  1.9687
 4330TIP3   OH212995   0.934   0.727   0.589 -0.6621 -0.0289 -0.1676
 4330TIP3    H112996   1.027   0.732   0.569 -0.4457 -1.3829  0.3291
 4330TIP3    H212997   0.904   0.649   0.542 -2.0247  1.4801 -1.9372
 4331TIP3   OH212998   2.165   3.592   0.039 -0.8827  0.7498  0.2155
 4331TIP3    H112999   2.106   3.597  -0.036  1.0440 -0.5882 -1.4987
 4331TIP3    H213000   2.236   3.652   0.017 -1.1198  1.7117  1.8659
 4332TIP3   OH213001   0.433   1.219   1.554  0.2211 -0.2654 -0.6046
 4332TIP3    H113002   0.498   1.177   1.610  1.2231  0.1780 -1.4080
 4332TIP3    H213003   0.482   1.245   1.476 -0.3966  2.0985 -0.2802
 4333TIP3   OH213004   2.347   0.237   3.450  0.4913  0.6526 -0.0107
 4333TIP3    H113005   2.346   0.143   3.430 -0.6404  0.7275 -0.4194
 4333TIP3    H213006   2.256   0.257   3.474  0.5414  1.7963 -0.7124
 4334TIP3   OH213007   1.424   0.762   0.530 -0.5344 -0.4337 -0.0153
 4334TIP3    H113008   1.331   0.760   0.508 -0.5187  0.2789 -0.1597
 4334TIP3    H213009   1.469   0.766   0.445 -0.3199 -1.7726  0.0014
 4335TIP3   OH213010   0.410   1.256   0.397  0.0439  0.8138  0.1005
 4335TIP3    H113011   0.433   1.176   0.444 -1.9910 -0.0375 -0.2686
 4335TIP3    H213012   0.443   1.241   0.308  0.6202  0.8444  0.3083
 4336TIP3   OH213013   5.019   5.386   3.644 -0.0645  0.2981  0.6990
 4336TIP3    H113014   5.040   5.315   3.705  0.3664 -0.2486 -0.0681
 4336TIP3    H213015   4.952   5.349   3.587  1.9014 -0.3977 -1.2807
 4337TIP3   OH213016   2.193   4.191   3.269 -0.0689 -0.1287  0.7224
 4337TIP3    H113017   2.271   4.143   3.295  0.6801  1.0752  0.7340
 4337TIP3    H213018   2.168   4.152   3.185 -0.2923 -1.4479  1.3706
 4338TIP3   OH213019   3.520   3.980   3.670 -0.8793 -0.3969  0.3508
 4338TIP3    H113020   3.599   3.975   3.618 -1.0115  0.2617  0.0751
 4338TIP3    H213021   3.523   3.903   3.726  0.5855  0.2492  1.2306
 4339TIP3   OH213022   4.198   5.114   5.073 -0.7283 -0.3320 -0.1337
 4339TIP3    H113023   4.261   5.082   5.137 -0.4987  0.3872  0.0084
 4339TIP3    H213024   4.249   5.171   5.016 -1.0739 -0.4247 -0.5429
 4340TIP3   OH213025   1.851   0.993   5.050  0.8089  0.1139  0.4166
 4340TIP3    H113026   1.789   1.062   5.071  0.3529 -0.4566  0.9768
 4340TIP3    H213027   1.931   1.017   5.097  0.7476  0.4085  0.3710
 4341TIP3   OH213028   1.962   4.397   4.981 -0.2285 -0.1266  0.9261
 4341TIP3    H113029   2.023   4.443   4.924 -0.5363 -3.0537 -2.0465
 4341TIP3    H213030   2.017   4.337   5.031 -0.3965 -1.3145 -0.2628
 4342TIP3   OH213031   4.871   4.676   4.078  0.0706  0.7778  0.1277
 4342TIP3    H113032   4.935   4.693   4.009  0.4427 -0.0380  0.2531
 4342TIP3    H213033   4.894   4.589   4.110 -3.1300 -1.1150 -2.0810
 4343TIP3   OH213034   4.978   2.197   3.356 -0.9679 -0.0957 -0.0343
 4343TIP3    H113035   4.931   2.265   3.308 -0.1584  0.9997  0.6822
 4343TIP3    H213036   4.911   2.131   3.376 -1.7833  0.5200 -0.6728
 4344TIP3   OH213037   4.738   0.464   0.136 -0.1045  0.0696 -1.0636
 4344TIP3    H113038   4.797   0.523   0.089 -1.2708  3.0049  0.9329
 4344TIP3    H213039   4.650   0.498   0.117 -0.7173  0.0695  1.5055
 4345TIP3   OH213040   5.902   2.048   1.634  0.5521  0.4119  0.3279
 4345TIP3    H113041   5.815   2.030   1.671  0.7758  0.9464  1.1389
 4345TIP3    H213042   5.920   2.139   1.656  1.5224  0.1722  0.6056
 4346TIP3   OH213043   6.077   1.409   2.820 -0.2401  0.3085  0.1021
 4346TIP3    H113044   6.020   1.383   2.893 -1.8685 -1.1353 -1.5644
 4346TIP3    H213045   6.154   1.353   2.829 -0.9408 -0.6819  0.1014
 4347TIP3   OH213046  -0.022   3.665   1.926 -0.0819  0.1362 -0.0297
 4347TIP3    H113047  -0.004   3.667   2.020  1.3262  1.3916 -0.2884
 4347TIP3    H213048   0.064   3.668   1.885 -0.6961  2.5755 -1.3524
 4348TIP3   OH213049   5.743   2.045   0.058  0.2073  0.0320  0.0881
 4348TIP3    H113050   5.664   2.027   0.008  0.6088  0.9041 -0.8987
 4348TIP3    H213051   5.815   2.020  -0.000  0.6707  0.0091  0.6611
 4349TIP3   OH213052   5.374   4.152   4.695 -0.2340 -0.2867 -0.0218
 4349TIP3    H113053   5.320   4.195   4.630 -0.7823 -0.3817  0.3627
 4349TIP3    H213054   5.340   4.063   4.700  0.6079 -0.6492 -0.4946
 4350TIP3   OH213055   5.282   0.703   2.886 -0.5084 -0.1464  0.4954
 4350TIP3    H113056   5.257   0.629   2.941 -0.4917 -0.7625 -0.3106
 4350TIP3    H213057   5.214   0.768   2.901 -1.1178 -0.7512  0.3877
 4351TIP3   OH213058   0.205   5.041   2.428 -0.0907 -0.0519 -0.3368
 4351TIP3    H113059   0.114   5.070   2.426 -0.1675 -0.3015 -1.6251
 4351TIP3    H213060   0.257   5.120   2.413 -0.0747  0.1378  0.6880
 4352TIP3   OH213061   1.021   1.664   1.684 -0.2997  0.0458 -0.4699
 4352TIP3    H113062   1.021   1.716   1.764 -0.5855  1.9559 -1.6404
 4352TIP3    H213063   0.929   1.651   1.663 -0.2382 -1.0596 -0.1639
 4353TIP3   OH213064   4.970   5.054   1.252  0.0228  0.0542  0.7017
 4353TIP3    H113065   4.983   5.104   1.171  0.5444  0.2740  0.9160
 4353TIP3    H213066   4.976   5.120   1.321 -0.1057 -0.1829  0.9387
 4354TIP3   OH213067   5.279   2.843   2.401  0.1531  0.1767 -0.1390
 4354TIP3    H113068   5.286   2.939   2.403 -1.2372  0.3902 -2.2618
 4354TIP3    H213069   5.198   2.826   2.354  0.2005 -2.0707  0.5049
 4355TIP3   OH213070   2.183   2.016   2.626  0.0308  0.0987  0.3389
 4355TIP3    H113071   2.096   2.020   2.666 -1.4787 -0.0463 -2.6410
 4355TIP3    H213072   2.195   2.102   2.586  1.5663  0.3169  1.1886
 4356TIP3   OH213073   5.198   3.711   3.427 -0.3404  0.1756 -0.1834
 4356TIP3    H113074   5.224   3.731   3.517 -1.6950  0.3808  0.1840
 4356TIP3    H213075   5.130   3.643   3.436 -1.0221  0.7239 -0.9927
 4357TIP3   OH213076   0.875   4.388   4.450  0.2737 -0.6062 -0.2947
 4357TIP3    H113077   0.839   4.477   4.443  2.5321  0.3670 -0.7435
 4357TIP3    H213078   0.872   4.368   4.543  0.8444  0.4809 -0.0194
 4358TIP3   OH213079   2.547   1.281   2.969 -0.2128  0.2333 -0.2939
 4358TIP3    H113080   2.480   1.217   2.946 -0.6692  0.9201 -0.9243
 4358TIP3    H213081   2.589   1.303   2.886 -0.1530  0.8481 -0.1047
 4359TIP3   OH213082   4.975   4.788   3.670 -0.3964 -0.4930 -0.2007
 4359TIP3    H113083   5.014   4.746   3.593 -0.3632 -0.4902 -0.1854
 4359TIP3    H213084   4.916   4.855   3.634 -0.2877 -0.4085 -0.2223
 4360TIP3   OH213085   3.476   0.053   1.992  0.3239 -0.3497 -0.2533
 4360TIP3    H113086   3.385   0.067   1.964  0.2667 -1.4983 -0.7062
 4360TIP3    H213087   3.480   0.088   2.081 -0.8991 -1.3858  0.2432
 4361TIP3   OH213088   1.605   0.178   4.430  0.8930  0.5576  0.3090
 4361TIP3    H113089   1.624   0.209   4.342  0.7655  0.3750  0.2189
 4361TIP3    H213090   1.669   0.110   4.447  0.4150  0.0403  0.0583
 4362TIP3   OH213091   2.185   3.052   0.831  0.0491 -0.3925  0.9420
 4362TIP3    H113092   2.190   3.101   0.749  0.8721 -0.6173  0.8455
 4362TIP3    H213093   2.254   2.986   0.824 -1.1761 -1.7217  0.9775
 4363TIP3   OH213094   3.641   1.967   3.557  0.0669  0.1388  0.0482
 4363TIP3    H113095   3.609   2.009   3.636 -0.2120  1.1860 -0.5999
 4363TIP3    H213096   3.726   2.008   3.541 -0.2551  0.5600 -0.6525
 4364TIP3   OH213097   5.314   3.817   2.116  0.2208 -0.0937  0.0125
 4364TIP3    H113098   5.334   3.900   2.073 -0.3891  0.9644  1.6410
 4364TIP3    H213099   5.386   3.759   2.092  1.5157  1.4080  0.0989
 4365TIP3   OH213100   1.219   1.011   0.514  0.1465  0.2251 -0.6599
 4365TIP3    H113101   1.171   0.951   0.458  0.0732  0.0641 -0.4238
 4365TIP3    H213102   1.173   1.094   0.506 -1.5079 -0.4192  1.2306
 4366TIP3   OH213103   3.600   3.172   2.114  0.6797 -0.2832  0.0047
 4366TIP3    H113104   3.536   3.171   2.043  2.2864  0.8091 -1.5708
 4366TIP3    H213105   3.568   3.239   2.174  1.4479  1.9810 -1.9577
 4367TIP3   OH213106   5.189   0.916   4.767  0.0270  0.4110  0.3565
 4367TIP3    H113107   5.196   0.997   4.818  0.7479  1.0532 -0.7232
 4367TIP3    H213108   5.095   0.897   4.764 -0.1105  0.9614  0.9910
 4368TIP3   OH213109   0.766   5.108   4.935 -0.0631  0.5663 -0.5408
 4368TIP3    H113110   0.778   5.015   4.956  0.9991  0.8149  0.0095
 4368TIP3    H213111   0.795   5.154   5.014 -1.3020  1.3617 -0.5165
 4369TIP3   OH213112   2.289   1.430   1.953 -0.1886  0.1774  0.5707
 4369TIP3    H113113   2.237   1.506   1.928 -1.9840 -0.8255  1.1179
 4369TIP3    H213114   2.304   1.441   2.047 -0.5864 -0.2287  0.6807
 4370TIP3   OH213115   1.064   5.470   0.004 -0.2540 -0.0228  0.0906
 4370TIP3    H113116   1.013   5.431  -0.067 -2.6530 -0.2819  1.8327
 4370TIP3    H213117   0.998   5.500   0.067  1.7448  0.8242  1.8895
 4371TIP3   OH213118   0.951   5.691   3.109  0.0304 -0.6555 -0.1665
 4371TIP3    H113119   0.996   5.755   3.054 -1.4359  0.5038 -0.0759
 4371TIP3    H213120   0.932   5.737   3.191  0.8392 -1.8895  0.7592
 4372TIP3   OH213121   2.427   3.468   4.035  0.3214 -0.5519 -0.0178
 4372TIP3    H113122   2.472   3.491   3.954 -0.5775  0.5792 -0.2192
 4372TIP3    H213123   2.443   3.542   4.093 -0.1995 -0.7203  0.3518
 4373TIP3   OH213124   5.779   1.097   2.810 -0.0120  0.1628  0.0401
 4373TIP3    H113125   5.821   1.173   2.770 -0.3945  0.5258  0.3122
 4373TIP3    H213126   5.687   1.105   2.783  0.1506 -0.8210 -0.8622
 4374TIP3   OH213127   4.048   2.950   2.330  0.2844 -0.1890  0.2365
 4374TIP3    H113128   3.962   2.990   2.320 -2.0114 -4.8425 -1.3224
 4374TIP3    H213129   4.057   2.935   2.424 -0.3575  0.6594  0.4485
 4375TIP3   OH213130   2.326   5.681   4.731  0.2506  0.1024 -0.2623
 4375TIP3    H113131   2.341   5.713   4.642 -0.5671 -0.0976 -0.4858
 4375TIP3    H213132   2.373   5.598   4.735 -2.2955 -1.5290 -1.6119
 4376TIP3   OH213133   0.427   1.887   1.143 -0.1423  0.0847 -0.0785
 4376TIP3    H113134   0.361   1.898   1.212 -0.4706  1.0117 -0.5275
 4376TIP3    H213135   0.415   1.798   1.112 -0.4277 -0.1283  0.6142
 4377TIP3   OH213136   1.010   0.213   2.094 -0.1543  0.0499 -0.0685
 4377TIP3    H113137   0.974   0.235   2.008 -0.5263 -1.2801 -0.2748
 4377TIP3    H213138   0.934   0.215   2.153  0.1157  1.0550  0.2633
 4378TIP3   OH213139   2.951   1.624   4.489 -0.1743  0.2454  0.5656
 4378TIP3    H113140   2.953   1.578   4.573 -1.3947  0.3104  0.6463
 4378TIP3    H213141   3.036   1.668   4.484  1.0168 -1.9293  0.5089
 4379TIP3   OH213142   0.094   4.194   2.196 -0.0088  0.6519 -0.0732
 4379TIP3    H113143   0.142   4.277   2.193 -1.4548  1.5058 -0.1964
 4379TIP3    H213144   0.041   4.200   2.274 -0.4869  0.0409 -0.3465
 4380TIP3   OH213145   1.956   5.321   4.495 -0.2805  0.3024  0.1632
 4380TIP3    H113146   2.010   5.394   4.464 -1.1649  0.4372 -1.1318
 4380TIP3    H213147   1.960   5.327   4.590 -0.0938  1.8665  0.0836
 4381TIP3   OH213148   3.897   1.848   0.893 -0.6893  0.1711  0.0366
 4381TIP3    H113149   3.886   1.753   0.889 -1.6165  0.2821 -0.5529
 4381TIP3    H213150   3.872   1.871   0.982  1.1234 -0.2947  0.6977
 4382TIP3   OH213151   1.752   5.247   2.245 -0.2050  0.0115 -0.0533
 4382TIP3    H113152   1.750   5.298   2.326  3.0176  2.6507 -1.3969
 4382TIP3    H213153   1.825   5.186   2.258 -1.4595 -1.5496 -0.0118
 4383TIP3   OH213154   6.063   2.128   1.297  0.2137 -0.0959 -0.7748
 4383TIP3    H113155   6.051   2.042   1.257 -2.1293 -0.2177 -0.0013
 4383TIP3    H213156   5.979   2.146   1.339  0.8735  2.2817 -0.3299
 4384TIP3   OH213157   5.818   1.572   0.587 -0.1171 -0.6634  0.1305
 4384TIP3    H113158   5.912   1.585   0.592 -0.2945  0.6054  0.5308
 4384TIP3    H213159   5.792   1.551   0.677 -0.3547  0.1070  0.2487
 4385TIP3   OH213160   1.001   5.762   0.370  0.1473 -0.7002  0.0652
 4385TIP3    H113161   0.943   5.753   0.445  1.1007 -0.9005  0.7949
 4385TIP3    H213162   1.087   5.781   0.408  0.3472  0.8043 -1.0287
 4386TIP3   OH213163   0.969   0.840   4.198 -0.0275  0.2024  0.1855
 4386TIP3    H113164   1.047   0.809   4.245  1.0483  3.6302  1.0217
 4386TIP3    H213165   0.898   0.832   4.261 -0.0789 -1.6240 -0.0749
 4387TIP3   OH213166   2.564   1.440   4.647  0.3812  0.1858  0.6678
 4387TIP3    H113167   2.586   1.523   4.690  2.5621 -0.2514  0.5028
 4387TIP3    H213168   2.502   1.465   4.579  1.6346  1.8669  0.0547
 4388TIP3   OH213169   3.504   5.077   1.132 -0.1987  0.5808 -0.5302
 4388TIP3    H113170   3.478   5.067   1.040  0.4050  0.4525 -0.6888
 4388TIP3    H213171   3.567   5.149   1.132  0.1379  0.2888 -0.2820
 4389TIP3   OH213172   3.331   1.858   2.526  0.3480 -0.4149  0.4741
 4389TIP3    H113173   3.372   1.772   2.519  1.3088 -0.0704  1.4623
 4389TIP3    H213174   3.393   1.917   2.482 -0.8749 -0.3651 -1.2623
 4390TIP3   OH213175   2.821   4.789   0.065  0.0882  0.3065 -0.1032
 4390TIP3    H113176   2.754   4.761   0.002 -0.2439  0.3042  0.2400
 4390TIP3    H213177   2.833   4.712   0.122  2.0629 -0.4970 -1.5293
 4391TIP3   OH213178   3.140   3.413   3.397  0.0010  0.6051  0.3418
 4391TIP3    H113179   3.197   3.433   3.471  1.6293 -0.2668 -0.6225
 4391TIP3    H213180   3.179   3.335   3.357 -1.6933  0.1725 -0.5611
 4392TIP3   OH213181   0.556   0.101   0.615  0.5067  0.5666  0.2232
 4392TIP3    H113182   0.588   0.051   0.691  2.5443 -0.1564 -1.0266
 4392TIP3    H213183   0.477   0.055   0.588 -0.0523  0.6185  1.6709
 4393TIP3   OH213184   5.072   2.700   3.854 -0.3492  0.4044 -0.3189
 4393TIP3    H113185   5.101   2.609   3.863 -1.2557 -0.0785 -1.8987
 4393TIP3    H213186   5.144   2.752   3.892 -0.7130 -0.9804  2.5661
 4394TIP3   OH213187   6.295   4.814   2.393  0.2959  0.1772 -0.0689
 4394TIP3    H113188   6.348   4.738   2.417  0.0400 -0.9651 -2.8322
 4394TIP3    H213189   6.206   4.780   2.384 -0.3888  1.4333  1.3349
 4395TIP3   OH213190   1.110   1.781   5.140 -0.0938  0.3569 -0.2017
 4395TIP3    H113191   1.092   1.748   5.053 -0.5999  1.5831 -0.5836
 4395TIP3    H213192   1.190   1.736   5.167 -0.5037 -0.7995 -0.8639
 4396TIP3   OH213193   3.821   2.382   0.548  0.2155 -0.4555 -0.6222
 4396TIP3    H113194   3.855   2.302   0.507 -0.7123 -0.8703 -0.6176
 4396TIP3    H213195   3.880   2.451   0.518  1.2937 -1.2001 -0.2854
 4397TIP3   OH213196   2.741   0.778   0.655 -0.1818 -0.4348  0.1682
 4397TIP3    H113197   2.715   0.805   0.743 -4.2566 -1.4572 -0.5027
 4397TIP3    H213198   2.761   0.684   0.663  2.0586  0.0077  0.3733
 4398TIP3   OH213199   5.809   2.414   1.240 -0.4750  0.1460  0.8661
 4398TIP3    H113200   5.723   2.433   1.277  0.3259  0.9704  2.3969
 4398TIP3    H213201   5.817   2.473   1.165 -0.0834  2.3265  2.5265
 4399TIP3   OH213202   1.222   5.712   0.536  0.1447  0.6469  0.3550
 4399TIP3    H113203   1.312   5.700   0.506 -0.0063  0.3173  0.0257
 4399TIP3    H213204   1.188   5.623   0.547 -1.1475  0.6595 -2.5764
 4400TIP3   OH213205   2.477   2.236   3.781  0.4902  0.1222  0.4913
 4400TIP3    H113206   2.557   2.189   3.806 -1.2455 -2.6347  1.2977
 4400TIP3    H213207   2.433   2.178   3.720 -2.3584  0.0167  2.4458
 4401TIP3   OH213208   6.303   3.095   3.353  0.1785 -0.2460  0.6040
 4401TIP3    H113209   6.339   3.160   3.294 -0.4394 -0.2753  0.1918
 4401TIP3    H213210   6.320   3.011   3.310 -0.6434 -0.2429  0.2533
 4402TIP3   OH213211   3.137   0.074   2.385 -0.3742  0.0837  0.1551
 4402TIP3    H113212   3.137   0.117   2.470 -1.3172  1.5901 -0.5795
 4402TIP3    H213213   3.055   0.023   2.384  0.5678 -1.5351  0.8802
 4403TIP3   OH213214   0.308   4.762   0.389  0.4870  0.3035 -0.1982
 4403TIP3    H113215   0.350   4.681   0.419  1.1717  0.9081  0.5517
 4403TIP3    H213216   0.266   4.739   0.306 -0.3077 -1.1043  0.5564
 4404TIP3   OH213217   2.917   2.433   3.429 -0.3096  0.3804 -0.4873
 4404TIP3    H113218   2.994   2.442   3.372 -0.7844 -0.9784 -1.3908
 4404TIP3    H213219   2.868   2.360   3.392 -2.1796  1.3636 -0.0610
 4405TIP3   OH213220   4.449   0.871   2.716  0.4926 -0.3470  0.1561
 4405TIP3    H113221   4.515   0.829   2.661 -0.3899  0.3706 -1.5430
 4405TIP3    H213222   4.367   0.826   2.694  0.1312 -0.1334  1.0094
 4406TIP3   OH213223   3.595   3.842   2.262 -0.2029 -0.0184 -0.1311
 4406TIP3    H113224   3.583   3.830   2.168 -2.4041 -1.9693  0.3121
 4406TIP3    H213225   3.690   3.843   2.274  0.2134  2.3901 -2.5405
 4407TIP3   OH213226   5.734   3.898   3.888 -0.4633  0.3334 -0.0807
 4407TIP3    H113227   5.673   3.970   3.872 -0.3981  1.0702  2.5796
 4407TIP3    H213228   5.803   3.911   3.824 -0.2215  2.9635  0.5751
 4408TIP3   OH213229   5.894   1.596   3.834  0.3435  0.5823 -0.8772
 4408TIP3    H113230   5.806   1.630   3.820  0.3455  0.9228 -0.0960
 4408TIP3    H213231   5.902   1.586   3.929  1.1255  0.4892 -0.9408
 4409TIP3   OH213232   0.347   3.310   0.789  0.3222 -0.2832  0.6702
 4409TIP3    H113233   0.356   3.368   0.864  1.3511  0.7502 -0.2169
 4409TIP3    H213234   0.435   3.274   0.776 -0.1008 -1.3388  0.6454
 4410TIP3   OH213235   2.304   2.850   4.340  1.0386 -0.0841 -0.2573
 4410TIP3    H113236   2.396   2.861   4.315  1.2840 -0.7511  0.3250
 4410TIP3    H213237   2.303   2.772   4.396  0.0386 -0.3946 -0.6826
 4411TIP3   OH213238   0.236   5.864   0.340  0.5755  0.2521  0.1578
 4411TIP3    H113239   0.197   5.805   0.404 -2.8736  1.3202 -0.7678
 4411TIP3    H213240   0.270   5.806   0.271  1.7311 -0.7655  1.5318
 4412TIP3   OH213241   0.303   0.477   0.466  0.0870  0.1381  0.0686
 4412TIP3    H113242   0.380   0.434   0.503  2.0701  2.2809 -1.2992
 4412TIP3    H213243   0.279   0.422   0.391  1.8908  0.7229 -0.9919
 4413TIP3   OH213244   1.568   4.493   1.197  0.3462  0.2136  0.2644
 4413TIP3    H113245   1.561   4.549   1.274 -1.6542  1.0434 -0.4413
 4413TIP3    H213246   1.480   4.455   1.187  0.5907  0.0446 -1.5317
 4414TIP3   OH213247   0.617   4.322   2.669 -0.3955 -0.4719  0.2342
 4414TIP3    H113248   0.660   4.297   2.751  1.8246  0.8875 -0.4275
 4414TIP3    H213249   0.671   4.283   2.601  0.0269  1.5277 -0.6407
 4415TIP3   OH213250   5.204   3.241   3.122 -0.6977 -0.7597 -0.5351
 4415TIP3    H113251   5.246   3.285   3.048 -1.2403  1.6905  0.5149
 4415TIP3    H213252   5.168   3.160   3.084  2.0700 -1.3819 -2.1256
 4416TIP3   OH213253   3.048   2.027   1.200 -0.0688  0.5894 -0.2651
 4416TIP3    H113254   3.038   1.945   1.249 -0.5212  0.8568  0.1054
 4416TIP3    H213255   2.958   2.055   1.182  0.0988  0.3908 -1.4406
 4417TIP3   OH213256   2.880   0.698   4.013 -0.6585  0.0303  0.1747
 4417TIP3    H113257   2.836   0.721   4.095 -0.2110 -2.2828  1.1561
 4417TIP3    H213258   2.860   0.770   3.954 -3.1648  0.5377  1.5057
 4418TIP3   OH213259   0.735   2.557   0.186 -0.2639  0.5690 -0.3708
 4418TIP3    H113260   0.717   2.532   0.095  1.5524 -1.7691 -0.1703
 4418TIP3    H213261   0.807   2.621   0.180 -1.1287  1.5544 -0.5991
 4419TIP3   OH213262   4.321   3.322   4.445 -0.6723  0.2714  0.1178
 4419TIP3    H113263   4.306   3.401   4.495 -1.7235 -0.5799  1.2124
 4419TIP3    H213264   4.267   3.333   4.366 -0.4854  0.8224  0.0692
 4420TIP3   OH213265   0.922   4.567   2.141  0.3958  0.2193  0.9348
 4420TIP3    H113266   0.919   4.581   2.235  1.4546 -0.1498  1.0308
 4420TIP3    H213267   0.938   4.473   2.131 -0.7695  0.0638  0.3700
 4421TIP3   OH213268   6.048   2.802   5.022  0.6221 -0.0220  0.0419
 4421TIP3    H113269   5.973   2.807   4.962  0.2825  1.0873  0.5366
 4421TIP3    H213270   6.108   2.741   4.979  0.2454  0.4883 -1.2736
 4422TIP3   OH213271   2.280   4.063   2.371  0.3479 -0.0044  0.2927
 4422TIP3    H113272   2.296   3.997   2.438  1.5492 -0.4221 -0.3702
 4422TIP3    H213273   2.245   4.015   2.297  2.0910 -0.0818 -0.5245
 4423TIP3   OH213274   2.347   5.636   0.962 -0.0704 -0.0765  0.4159
 4423TIP3    H113275   2.358   5.671   1.051 -1.3769 -0.1113  0.6112
 4423TIP3    H213276   2.259   5.663   0.936 -0.6498 -2.0995  0.0871
 4424TIP3   OH213277   4.132  -0.002   4.212 -0.1367  0.1483  0.0512
 4424TIP3    H113278   4.164   0.057   4.280 -1.8117  1.6321 -0.3737
 4424TIP3    H213279   4.199  -0.001   4.144  1.3122 -0.9425  1.3795
 4425TIP3   OH213280   3.577   3.276   3.197 -0.6564 -0.4271  0.1334
 4425TIP3    H113281   3.662   3.315   3.179  0.4880 -2.3554  1.0062
 4425TIP3    H213282   3.578   3.257   3.291 -3.1454  1.8643  0.7487
 4426TIP3   OH213283   4.648   3.304   0.220 -0.2277 -0.7454 -0.2202
 4426TIP3    H113284   4.644   3.357   0.300  0.6741 -1.6611  0.4475
 4426TIP3    H213285   4.683   3.220   0.248  1.0159 -0.7827 -1.7418
 4427TIP3   OH213286   6.339   5.322   3.505 -0.1557 -0.4107  0.6387
 4427TIP3    H113287   6.322   5.255   3.440  0.8445 -0.9190  0.8824
 4427TIP3    H213288   6.314   5.404   3.463  2.2938 -0.4807 -1.1791
 4428TIP3   OH213289   6.229   4.606   2.709 -0.1038  0.2007 -0.6318
 4428TIP3    H113290   6.136   4.631   2.704 -0.1759  0.0161 -0.2739
 4428TIP3    H213291   6.255   4.591   2.618 -0.6683 -0.6242 -0.6623
 4429TIP3   OH213292   3.450   3.502   1.201 -0.1120  0.1454  0.3576
 4429TIP3    H113293   3.465   3.422   1.250 -0.4580 -0.2655 -0.2007
 4429TIP3    H213294   3.394   3.555   1.257  1.1091  0.5314  1.2627
 4430TIP3   OH213295   1.871   0.470   2.706 -0.6811  0.1305  0.3884
 4430TIP3    H113296   1.787   0.424   2.699 -1.4073  1.0471  2.3179
 4430TIP3    H213297   1.890   0.498   2.617 -2.5072  0.0127 -0.0796
 4431TIP3   OH213298   1.901   4.609   3.751  0.7974  0.4097 -0.0174
 4431TIP3    H113299   1.887   4.560   3.831  3.1455  0.6997  0.6639
 4431TIP3    H213300   1.921   4.698   3.781  0.2043  0.8900 -1.0131
 4432TIP3   OH213301   2.852   0.243   2.322  0.3959 -0.1866  0.2933
 4432TIP3    H113302   2.910   0.182   2.367 -1.8544 -1.5147  1.5811
 4432TIP3    H213303   2.769   0.196   2.312 -0.6057  1.6925 -1.2039
 4433TIP3   OH213304   2.027   4.682   2.743 -0.1246 -0.0077  0.0947
 4433TIP3    H113305   2.006   4.599   2.701 -1.1240  0.6688 -0.8079
 4433TIP3    H213306   1.955   4.740   2.718 -0.3356  0.6678  2.0898
 4434TIP3   OH213307   3.961   0.273   3.447  0.0788 -0.3027  0.2449
 4434TIP3    H113308   4.008   0.307   3.523  0.8885  0.8420 -0.7157
 4434TIP3    H213309   4.021   0.211   3.407  0.4344  0.4917 -0.4834
 4435TIP3   OH213310   5.802   1.489   2.170  0.8791  0.4740 -0.0084
 4435TIP3    H113311   5.798   1.417   2.107  0.5277  0.6487 -0.1868
 4435TIP3    H213312   5.753   1.457   2.246  0.1885  0.7621 -0.3287
 4436TIP3   OH213313   0.024   1.901   3.827 -0.0785 -0.1735 -0.3235
 4436TIP3    H113314   0.012   1.926   3.735  0.8751  1.6196  0.0022
 4436TIP3    H213315   0.075   1.972   3.865  0.6352 -1.4968  1.3103
 4437TIP3   OH213316   0.201   1.509   2.441 -0.4102  0.1431  0.7271
 4437TIP3    H113317   0.198   1.593   2.396 -1.1047  0.0160  0.5161
 4437TIP3    H213318   0.118   1.467   2.417 -0.1515 -0.5180  0.9823
 4438TIP3   OH213319   4.599   0.920   2.937 -0.8189  0.0236 -0.3773
 4438TIP3    H113320   4.538   0.903   2.865  0.1672  0.2190 -1.2738
 4438TIP3    H213321   4.684   0.893   2.903 -0.5184 -1.0788  1.1714
 4439TIP3   OH213322   3.641   3.595   3.688  0.0137 -0.2286 -0.4404
 4439TIP3    H113323   3.619   3.628   3.600 -0.6564  0.2520 -0.1032
 4439TIP3    H213324   3.676   3.507   3.673  1.1157  0.3246 -1.2965
 4440TIP3   OH213325   0.963   3.692   1.795  0.2572 -0.2516  0.3481
 4440TIP3    H113326   0.928   3.776   1.767  1.4428  0.0619 -0.2301
 4440TIP3    H213327   0.941   3.631   1.724  1.4876  0.1031 -0.3567
 4441TIP3   OH213328   4.159   3.932   0.592  0.1928 -0.3617  0.0470
 4441TIP3    H113329   4.168   3.910   0.499  1.3211  0.2091  0.0015
 4441TIP3    H213330   4.083   3.990   0.596 -0.0161 -0.5951 -0.4833
 4442TIP3   OH213331   4.350   2.464   0.596 -0.1392 -0.1313  0.1468
 4442TIP3    H113332   4.390   2.395   0.543  0.9758 -0.0814  0.9094
 4442TIP3    H213333   4.256   2.453   0.581  0.0835 -0.9993 -0.7453
 4443TIP3   OH213334   0.086   4.486   3.703  0.0019 -1.3622 -0.0391
 4443TIP3    H113335   0.126   4.492   3.790  2.2261  0.6655 -1.0671
 4443TIP3    H213336   0.033   4.565   3.696  0.7418 -0.9116 -0.8707
 4444TIP3   OH213337   3.400   0.907   4.316  0.2818  0.1561  0.0544
 4444TIP3    H113338   3.487   0.945   4.306 -0.5658  2.0257 -0.7690
 4444TIP3    H213339   3.341   0.982   4.313 -1.4251 -1.1353 -0.2188
 4445TIP3   OH213340   1.854   2.649   3.167 -0.1374 -0.4662  0.2297
 4445TIP3    H113341   1.940   2.615   3.142 -0.0824 -1.6844  1.9329
 4445TIP3    H213342   1.873   2.716   3.232 -0.3937  1.1495 -1.2676
 4446TIP3   OH213343   2.443   2.908   3.846 -0.0820  0.0810 -0.4315
 4446TIP3    H113344   2.457   2.876   3.757 -1.6578  0.2903 -0.7847
 4446TIP3    H213345   2.487   2.994   3.847 -0.3035  0.2106 -1.0993
 4447TIP3   OH213346   0.581   4.249   4.924  0.3382  0.1955  0.4020
 4447TIP3    H113347   0.611   4.202   5.002 -0.1543  0.0201  0.4939
 4447TIP3    H213348   0.511   4.306   4.956  0.8970  0.9676  0.2805
 4448TIP3   OH213349   4.388   0.077   2.367  0.0045 -0.1758 -0.2031
 4448TIP3    H113350   4.328   0.117   2.430  0.5635 -0.3630  0.4623
 4448TIP3    H213351   4.460   0.140   2.359 -0.3298  0.1121 -1.1014
 4449TIP3   OH213352   2.060   0.617   1.373  0.3918  0.0853  0.4985
 4449TIP3    H113353   2.033   0.706   1.350  0.0947  0.8008  3.2950
 4449TIP3    H213354   1.987   0.562   1.342  0.6369  0.7193 -1.3715
 4450TIP3   OH213355   3.712   5.195   0.265  0.4673  0.4050 -0.0547
 4450TIP3    H113356   3.706   5.260   0.195  2.9671 -0.0041 -0.7441
 4450TIP3    H213357   3.783   5.226   0.321  1.2170 -1.2981  0.0223
 4451TIP3   OH213358   5.139   4.036   0.805 -0.3575  0.0351  0.5021
 4451TIP3    H113359   5.173   3.955   0.843 -1.9167  0.0695  2.0786
 4451TIP3    H213360   5.210   4.068   0.749  0.2085 -2.5319 -0.3775
 4452TIP3   OH213361   0.284   0.549   1.808  0.4031  0.0645 -0.0869
 4452TIP3    H113362   0.361   0.499   1.835  0.2692 -1.9591 -3.0454
 4452TIP3    H213363   0.210   0.494   1.831  0.2525 -1.3264 -3.3740
 4453TIP3   OH213364   5.510   4.636   1.832  0.3681  0.4254 -0.0070
 4453TIP3    H113365   5.433   4.694   1.829  0.1549  0.1172 -0.5457
 4453TIP3    H213366   5.529   4.617   1.740  0.3842 -0.4348  0.1730
 4454TIP3   OH213367   3.076   4.389   1.587 -0.3727  0.1152  0.6712
 4454TIP3    H113368   3.159   4.373   1.542 -1.3362 -0.3082 -1.0525
 4454TIP3    H213369   3.072   4.484   1.598  1.4546  0.0096  3.1268
 4455TIP3   OH213370   0.596   4.008   0.700 -0.4931 -0.0304  0.2871
 4455TIP3    H113371   0.641   4.064   0.764  0.6264 -0.3596 -0.1926
 4455TIP3    H213372   0.647   4.018   0.620 -0.5835 -1.3449  0.0540
 4456TIP3   OH213373   0.958   4.309   3.647  0.3077 -0.5814  0.3764
 4456TIP3    H113374   0.880   4.254   3.637  0.1274 -0.3011  0.1885
 4456TIP3    H213375   1.030   4.256   3.615  0.0431 -0.4793 -0.4156
 4457TIP3   OH213376   5.775   4.376   0.478  0.1406 -0.8210  0.6714
 4457TIP3    H113377   5.807   4.286   0.476 -0.0643 -0.8928  0.6062
 4457TIP3    H213378   5.778   4.405   0.386  2.3141 -0.0089  0.9512
 4458TIP3   OH213379   2.882   5.281   2.603  0.5070  0.0943 -0.0532
 4458TIP3    H113380   2.907   5.352   2.662  0.6003  1.1411 -1.3086
 4458TIP3    H213381   2.955   5.219   2.608  2.0772  1.7501 -1.5165
 4459TIP3   OH213382   4.246   5.225   2.270  0.0642 -0.0171  0.8065
 4459TIP3    H113383   4.205   5.149   2.229 -0.6812 -1.1567  3.4621
 4459TIP3    H213384   4.173   5.281   2.294  0.5324  0.9531  0.0416
 4460TIP3   OH213385   3.091   0.575   1.433  0.1461 -0.1243 -0.1911
 4460TIP3    H113386   3.091   0.578   1.338 -0.6607  0.0358 -0.1954
 4460TIP3    H213387   3.095   0.482   1.455 -0.0859 -0.1833 -0.3935
 4461TIP3   OH213388   1.166   5.956   1.612 -0.0702 -0.2966  0.1391
 4461TIP3    H113389   1.126   5.934   1.529 -0.0114  0.1230  0.0002
 4461TIP3    H213390   1.096   5.944   1.677  0.1251 -1.5171  0.1573
 4462TIP3   OH213391   3.964   4.430   2.759  0.0148  0.2533 -0.2513
 4462TIP3    H113392   3.869   4.437   2.746  0.0230  0.0165 -0.4395
 4462TIP3    H213393   3.999   4.507   2.714 -0.0950  0.4000 -0.0897
 4463TIP3   OH213394   3.560   4.231   5.124  0.4634 -0.2067 -0.0366
 4463TIP3    H113395   3.645   4.256   5.160 -0.3018  1.5891  0.5919
 4463TIP3    H213396   3.514   4.188   5.197 -0.2331  1.4213  0.5246
 4464TIP3   OH213397   6.101   0.582   3.101  0.1580 -0.1915 -0.1372
 4464TIP3    H113398   6.156   0.504   3.106  0.9319  0.2712 -1.1171
 4464TIP3    H213399   6.028   0.564   3.161  0.1371 -1.8016 -0.6038
 4465TIP3   OH213400   4.908   3.800   1.764 -0.0548  0.2361  0.1107
 4465TIP3    H113401   4.852   3.877   1.769  2.5600  2.2635  0.3737
 4465TIP3    H213402   4.994   3.831   1.793  1.2656 -2.6419 -0.3935
 4466TIP3   OH213403   1.299   4.564   2.066  0.2929  0.2268 -0.1850
 4466TIP3    H113404   1.299   4.609   2.150  0.7655  2.1759 -1.1679
 4466TIP3    H213405   1.286   4.633   2.001  0.0737 -1.1937 -1.7380
 4467TIP3   OH213406   1.454   2.134   4.389  0.1899 -0.0912  0.6286
 4467TIP3    H113407   1.377   2.168   4.434  1.2352  2.1384  0.8858
 4467TIP3    H213408   1.419   2.079   4.319 -1.6112  0.3684  1.1185
 4468TIP3   OH213409   0.145   1.429   3.085  0.3056 -0.1768  1.0475
 4468TIP3    H113410   0.201   1.352   3.092  0.3261 -0.2140  0.5623
 4468TIP3    H213411   0.164   1.481   3.163  0.6440 -0.4339  1.1372
 4469TIP3   OH213412   1.210   5.533   1.256  0.2431  0.1609  0.3310
 4469TIP3    H113413   1.246   5.488   1.333 -0.2125 -1.6605 -0.4633
 4469TIP3    H213414   1.206   5.465   1.189 -2.1173  0.9506 -0.4337
 4470TIP3   OH213415   0.429   4.970   2.051 -0.1681  0.0044 -0.0073
 4470TIP3    H113416   0.512   4.980   2.004 -1.9346 -0.0821 -3.4301
 4470TIP3    H213417   0.439   4.888   2.100  1.2709 -0.8181 -1.5636
 4471TIP3   OH213418   5.257   4.898   0.573  0.3170  0.4746 -0.0148
 4471TIP3    H113419   5.189   4.895   0.640 -0.2912  2.4307 -0.4627
 4471TIP3    H213420   5.235   4.828   0.512 -1.0435  0.7721  0.1108
 4472TIP3   OH213421   6.145   2.521   0.504  0.0226  0.3727  0.4988
 4472TIP3    H113422   6.174   2.559   0.587 -1.0129  0.5280  0.8132
 4472TIP3    H213423   6.085   2.586   0.468  0.7563  0.4761 -0.5713
 4473TIP3   OH213424   3.399   0.618   2.559  0.1668  0.3015  0.6417
 4473TIP3    H113425   3.390   0.681   2.488  0.4813 -0.2568  0.1028
 4473TIP3    H213426   3.311   0.608   2.594 -0.2954 -0.6163 -0.7027
 4474TIP3   OH213427   0.363   0.506   0.772 -0.2723  0.0784  0.4890
 4474TIP3    H113428   0.376   0.576   0.708 -1.3986 -0.4940 -0.4013
 4474TIP3    H213429   0.403   0.429   0.732 -0.5786 -0.1789  0.6696
 4475TIP3   OH213430   4.891   1.340   4.754  1.0544 -0.4569 -0.0889
 4475TIP3    H113431   4.852   1.269   4.703 -0.0491 -1.1777  1.6643
 4475TIP3    H213432   4.984   1.321   4.755  0.8529 -1.5076 -0.2231
 4476TIP3   OH213433   3.232   4.788   0.349  0.1141  0.2131  0.0284
 4476TIP3    H113434   3.243   4.702   0.309 -0.8307 -0.2459  0.6915
 4476TIP3    H213435   3.157   4.826   0.303  0.3851  0.5853 -0.1062
 4477TIP3   OH213436   2.120   3.669   3.353  0.6320  0.4310 -0.5218
 4477TIP3    H113437   2.201   3.617   3.357  0.0414 -0.4887 -0.2594
 4477TIP3    H213438   2.110   3.705   3.441  0.3639 -0.0683 -0.3461
 4478TIP3   OH213439   3.927   4.996   2.638  0.1883  0.4841 -0.3126
 4478TIP3    H113440   3.943   5.055   2.564 -0.2587  1.0119  0.0007
 4478TIP3    H213441   4.011   4.990   2.683  1.3087 -2.1383 -2.4455
 4479TIP3   OH213442   4.627   0.467   2.982  0.0048 -0.2836 -0.1807
 4479TIP3    H113443   4.610   0.476   3.076  0.1871  0.0567 -0.1762
 4479TIP3    H213444   4.722   0.468   2.975 -0.0125  0.3480 -0.4209
 4480TIP3   OH213445   5.526   4.056   1.062 -0.0114 -0.2043  0.1422
 4480TIP3    H113446   5.579   4.123   1.017  0.9391 -0.9609  0.1051
 4480TIP3    H213447   5.441   4.098   1.074  1.1982  1.9290  2.2337
 4481TIP3   OH213448   1.417   4.171   1.006  0.4717  0.2712 -0.3111
 4481TIP3    H113449   1.387   4.199   1.092  0.4071 -1.2373  0.1935
 4481TIP3    H213450   1.337   4.153   0.957  0.5056 -0.6153 -0.0603
 4482TIP3   OH213451   4.894   5.505   1.056 -0.1613  0.3193  0.3035
 4482TIP3    H113452   4.922   5.500   1.148 -0.3175 -0.8954  0.3089
 4482TIP3    H213453   4.895   5.414   1.026 -2.6220  0.3571 -0.1348
 4483TIP3   OH213454   1.846   2.531   4.404  0.9744 -0.1919  0.0624
 4483TIP3    H113455   1.830   2.437   4.396 -1.2143  0.2206 -1.7335
 4483TIP3    H213456   1.936   2.538   4.435  0.9645 -2.8646  0.9532
 4484TIP3   OH213457   2.837   5.335   0.755  0.0361  0.2456  0.0051
 4484TIP3    H113458   2.923   5.377   0.766  0.0089  0.5254 -0.7839
 4484TIP3    H213459   2.858   5.244   0.734  0.0867 -0.3607  2.4083
 4485TIP3   OH213460   0.911   1.616   3.692 -0.1913  0.3550  0.2956
 4485TIP3    H113461   0.972   1.676   3.650 -1.1033  0.6266 -0.6795
 4485TIP3    H213462   0.919   1.535   3.643 -0.3489  0.2788  0.3950
 4486TIP3   OH213463   4.005   3.672   4.498 -0.5233 -0.0758  0.5132
 4486TIP3    H113464   3.968   3.629   4.421 -0.6351  0.8229  0.0510
 4486TIP3    H213465   4.047   3.751   4.463  0.1172 -0.0724  1.2781
 4487TIP3   OH213466   0.602   2.071   0.371  1.0492  0.0453  0.7741
 4487TIP3    H113467   0.581   2.049   0.280  1.8759  1.9308  0.0838
 4487TIP3    H213468   0.518   2.070   0.416  0.6958 -1.5150  0.1561
 4488TIP3   OH213469   1.991   6.016   3.378 -0.2302 -0.0913 -0.4023
 4488TIP3    H113470   1.944   5.937   3.402  0.5084 -0.2438  0.5990
 4488TIP3    H213471   2.050   5.989   3.307 -0.8933 -0.1291 -0.9480
 4489TIP3   OH213472   2.382   4.406   3.797  0.1270 -0.3761  0.0962
 4489TIP3    H113473   2.374   4.464   3.722 -1.5821 -1.0281 -0.2741
 4489TIP3    H213474   2.406   4.321   3.760 -1.4399 -0.8847  0.1531
 4490TIP3   OH213475   2.822   4.748   3.396  0.7261  0.2602  0.0423
 4490TIP3    H113476   2.804   4.819   3.457  0.3533  1.7447 -1.7355
 4490TIP3    H213477   2.760   4.679   3.421  1.7506  0.0893  2.4143
 4491TIP3   OH213478   1.635   5.986   0.957  0.2437  0.3392 -0.3314
 4491TIP3    H113479   1.594   6.027   0.881 -1.0144  0.0302  0.1573
 4491TIP3    H213480   1.588   5.903   0.968  1.0332 -0.0504  0.2263
 4492TIP3   OH213481   5.777   4.167   0.938 -0.5891  0.0347 -0.3752
 4492TIP3    H113482   5.813   4.256   0.941  0.2599 -0.2893 -0.7554
 4492TIP3    H213483   5.753   4.154   0.846 -1.0526 -0.0079 -0.2530
 4493TIP3   OH213484   4.286   4.702   1.519  0.2032 -0.2494  0.2518
 4493TIP3    H113485   4.317   4.619   1.555  0.1199 -0.0143  0.8830
 4493TIP3    H213486   4.365   4.746   1.488  0.4576  0.1190  1.3760
 4494TIP3   OH213487   0.475   1.809   4.352  0.3181 -0.1357  0.4655
 4494TIP3    H113488   0.446   1.896   4.325  0.5897 -0.5999 -1.4972
 4494TIP3    H213489   0.558   1.796   4.306  0.5627 -1.2160  1.1776
 4495TIP3   OH213490   3.302   5.929   1.464 -0.0195 -0.3611 -0.6778
 4495TIP3    H113491   3.312   6.001   1.526  0.6298 -0.6866 -0.3980
 4495TIP3    H213492   3.215   5.942   1.426 -0.0097  0.4242 -0.4481
 4496TIP3   OH213493   5.453   0.461   3.744 -0.2477 -0.6512 -0.0159
 4496TIP3    H113494   5.380   0.455   3.683  0.3350  0.1943 -0.8362
 4496TIP3    H213495   5.438   0.392   3.808 -1.6742 -0.5880 -0.2594
 4497TIP3   OH213496   6.311   3.511   0.070 -0.1594  0.3339  0.3748
 4497TIP3    H113497   6.343   3.566   0.141  2.6218 -1.0255  0.3239
 4497TIP3    H213498   6.357   3.543  -0.008  1.4694 -1.8578  0.3298
 4498TIP3   OH213499   0.571   2.398   4.184 -0.0752 -0.4867 -0.2105
 4498TIP3    H113500   0.599   2.307   4.174 -0.8056 -0.8050  0.5323
 4498TIP3    H213501   0.485   2.401   4.141  0.2549  0.0322 -0.8498
 4499TIP3   OH213502   2.370   1.179   3.931  0.4231  0.7042 -0.0769
 4499TIP3    H113503   2.276   1.195   3.920  0.5087  0.3064 -1.5705
 4499TIP3    H213504   2.406   1.189   3.843  1.6950  0.2608  0.3820
 4500TIP3   OH213505   0.229   0.580   0.013 -0.2127  0.0800  0.1359
 4500TIP3    H113506   0.135   0.581   0.034 -0.6056  0.0228 -1.4758
 4500TIP3    H213507   0.241   0.655  -0.046  0.7522  0.0256  0.2460
 4501TIP3   OH213508   0.338   0.707   4.411 -0.0583  0.2660 -0.2854
 4501TIP3    H113509   0.354   0.789   4.458 -0.0278  1.2044 -1.8730
 4501TIP3    H213510   0.243   0.692   4.419  0.2630 -0.9937  2.2217
 4502TIP3   OH213511   2.882   4.547   4.245  0.3829 -0.0299 -0.1161
 4502TIP3    H113512   2.950   4.488   4.275  0.8728  0.8560  0.5491
 4502TIP3    H213513   2.899   4.630   4.289 -2.4138 -0.3401  1.8432
 4503TIP3   OH213514   6.262   2.354   2.393 -0.1257 -0.2701  0.1644
 4503TIP3    H113515   6.308   2.271   2.384 -1.0799 -0.9717  1.4212
 4503TIP3    H213516   6.309   2.414   2.335  0.3397 -1.7661 -1.0795
 4504TIP3   OH213517   4.300   5.107   4.129  0.0813 -0.3857  0.4131
 4504TIP3    H113518   4.326   5.018   4.105 -0.9747 -0.3886 -0.8240
 4504TIP3    H213519   4.204   5.106   4.121  0.1907  1.7840 -3.1953
 4505TIP3   OH213520   3.907   4.530   2.391  0.4335  0.2615 -0.3615
 4505TIP3    H113521   3.850   4.454   2.398  0.9410 -0.3290 -1.9386
 4505TIP3    H213522   3.853   4.604   2.417  0.3879 -0.7530  2.8047
 4506TIP3   OH213523   5.853   3.151   4.945  0.7248 -0.0147  0.0304
 4506TIP3    H113524   5.841   3.057   4.940  0.6638 -0.0457  0.6590
 4506TIP3    H213525   5.791   3.187   4.881 -0.6250 -0.3109  1.1271
 4507TIP3   OH213526   4.286   1.282   0.646  0.2872 -0.0191  0.0167
 4507TIP3    H113527   4.216   1.287   0.581 -1.7702  0.0149  2.1252
 4507TIP3    H213528   4.300   1.372   0.673  0.9241 -0.0633 -0.1526
 4508TIP3   OH213529   2.840   2.126   1.891  1.1934 -0.4224  0.1861
 4508TIP3    H113530   2.863   2.035   1.876 -0.5233 -0.9888  0.7537
 4508TIP3    H213531   2.755   2.137   1.850  2.5710  1.7625 -2.4487
 4509TIP3   OH213532   6.101   2.578   1.358 -0.0408 -0.6499 -0.2456
 4509TIP3    H113533   6.016   2.539   1.378  0.1541 -1.6222 -1.1782
 4509TIP3    H213534   6.125   2.625   1.438 -1.8608  0.4436 -0.2939
 4510TIP3   OH213535   0.432   0.516   1.540 -0.0090  0.1005 -0.9671
 4510TIP3    H113536   0.420   0.544   1.631  1.1272  1.7912 -1.2948
 4510TIP3    H213537   0.365   0.562   1.491 -0.0460 -0.1025 -1.1088
 4511TIP3   OH213538   2.878   3.697   1.618 -0.4029 -0.1159  0.3753
 4511TIP3    H113539   2.838   3.758   1.556 -0.0918 -1.3621 -1.1131
 4511TIP3    H213540   2.803   3.653   1.659 -0.6487 -1.7096 -1.6547
 4512TIP3   OH213541   4.397   5.859   1.107  0.0259  0.4507  0.1000
 4512TIP3    H113542   4.396   5.831   1.016  1.2157  0.5923  0.0311
 4512TIP3    H213543   4.405   5.954   1.102  0.5700  0.4184  0.3542
 4513TIP3   OH213544   3.755   0.455   3.694  0.3767  0.1416 -1.0393
 4513TIP3    H113545   3.790   0.431   3.780 -0.3715  0.7240 -0.5586
 4513TIP3    H213546   3.759   0.374   3.644  2.4154  0.1769 -1.0278
 4514TIP3   OH213547   2.557   1.387   0.911  0.6663  0.0371  0.0060
 4514TIP3    H113548   2.573   1.476   0.942 -0.1962  0.5180 -0.8737
 4514TIP3    H213549   2.480   1.358   0.961  0.2550  0.2185 -0.5113
 4515TIP3   OH213550   4.936   3.237   4.096 -0.3405  0.9062  0.1201
 4515TIP3    H113551   5.026   3.205   4.095 -1.0010 -1.1682  0.5110
 4515TIP3    H213552   4.900   3.204   4.179 -1.3935  1.9274  0.1026
 4516TIP3   OH213553   2.146   3.113   2.821 -0.1647  0.5030 -0.6855
 4516TIP3    H113554   2.119   3.205   2.823  1.2200  0.9353 -0.3698
 4516TIP3    H213555   2.124   3.080   2.908 -0.6541  0.5303 -0.7947
 4517TIP3   OH213556   3.662   5.660   4.264  0.2687  0.0088 -0.0595
 4517TIP3    H113557   3.666   5.609   4.345  2.9363  0.1522 -0.0050
 4517TIP3    H213558   3.674   5.596   4.194  0.2877  0.1654 -0.2012
 4518TIP3   OH213559   2.382   2.324   2.464  0.2373  0.1269  0.4552
 4518TIP3    H113560   2.340   2.389   2.408  1.3163 -1.4962 -2.4589
 4518TIP3    H213561   2.347   2.240   2.435  0.6392 -0.8216  2.4841
 4519TIP3   OH213562   1.413   2.387   4.678 -0.0553  0.0365  0.6598
 4519TIP3    H113563   1.388   2.305   4.635  2.3810 -1.1436  1.3115
 4519TIP3    H213564   1.403   2.454   4.611 -1.9916 -0.7699  0.0654
 4520TIP3   OH213565   3.263   3.972   0.652  0.5611 -0.1046 -0.0135
 4520TIP3    H113566   3.308   3.932   0.578 -0.6728 -2.1765  0.2706
 4520TIP3    H213567   3.170   3.954   0.637  0.3184 -1.3388  2.4018
 4521TIP3   OH213568   4.179   2.950   1.012  0.1317 -0.2492 -0.1575
 4521TIP3    H113569   4.162   2.876   0.954 -3.8445 -2.1760  2.9073
 4521TIP3    H213570   4.264   2.930   1.052  1.8280 -0.0486 -3.3402
 4522TIP3   OH213571   2.845   1.474   3.353 -0.2885  0.0673 -0.1623
 4522TIP3    H113572   2.932   1.509   3.334 -0.7540  0.2787 -2.1173
 4522TIP3    H213573   2.854   1.379   3.338  0.2247 -0.3136  2.2219
 4523TIP3   OH213574   4.123   0.948   0.650 -0.1115 -0.1069  0.4433
 4523TIP3    H113575   4.133   1.034   0.691  0.7380 -0.1663  0.3633
 4523TIP3    H213576   4.089   0.893   0.721  0.3845  0.0321  0.7920
 4524TIP3   OH213577   3.323   4.361   1.462 -0.1177 -1.2529  0.2250
 4524TIP3    H113578   3.329   4.415   1.383 -1.7416 -0.4918  0.5724
 4524TIP3    H213579   3.408   4.318   1.469  1.5620  1.8464  0.3597
 4525TIP3   OH213580   4.939   3.484   1.176 -0.1332 -0.7058 -0.4238
 4525TIP3    H113581   4.907   3.548   1.111 -1.3037 -1.5784 -0.7311
 4525TIP3    H213582   4.867   3.423   1.187  0.5891 -1.3903  0.6587
 4526TIP3   OH213583   3.272   5.609   3.547 -0.0083  0.0629 -0.6389
 4526TIP3    H113584   3.309   5.686   3.590 -0.1153 -0.6090  0.6902
 4526TIP3    H213585   3.344   5.574   3.495  0.8647 -0.4686  0.8778
 4527TIP3   OH213586   2.927   0.405   4.227  0.5290 -0.5664 -0.1354
 4527TIP3    H113587   2.977   0.405   4.309 -0.4450  1.4736  0.5129
 4527TIP3    H213588   2.985   0.449   4.164  0.2098  0.3749  0.2085
 4528TIP3   OH213589   0.727   2.307   4.418  0.3329  0.0533  0.4507
 4528TIP3    H113590   0.657   2.277   4.475 -0.1442 -0.4116 -0.3564
 4528TIP3    H213591   0.806   2.264   4.451 -0.0182 -0.5764  0.4810
 4529TIP3   OH213592   2.343   3.436   3.073 -0.0796  0.5871  0.3820
 4529TIP3    H113593   2.357   3.361   3.016 -1.3746  0.2361  0.4973
 4529TIP3    H213594   2.253   3.426   3.105  0.1153  1.5684  1.3095
 4530TIP3   OH213595   5.758   3.956   4.977  0.3922  0.3301  0.1327
 4530TIP3    H113596   5.812   3.977   4.900  1.9907 -0.9815  0.8297
 4530TIP3    H213597   5.737   3.863   4.967 -0.7411  0.5405  0.4840
 4531TIP3   OH213598   4.212   1.192   3.178 -0.2202 -0.4784  0.7639
 4531TIP3    H113599   4.145   1.157   3.118 -1.1509 -1.4964  2.3300
 4531TIP3    H213600   4.171   1.188   3.264  1.8875 -1.1862  1.8002
 4532TIP3   OH213601   6.040   5.028   5.162 -0.3885  0.2105 -0.1075
 4532TIP3    H113602   5.976   5.016   5.092  0.3630  0.3329 -0.8287
 4532TIP3    H213603   5.987   5.051   5.239 -1.3085 -0.9518 -0.3572
 4533TIP3   OH213604   1.601   5.429   1.820  0.0876  0.4078  0.0118
 4533TIP3    H113605   1.659   5.499   1.850  0.1631  0.2515  0.2364
 4533TIP3    H213606   1.602   5.435   1.725  0.4568  0.4170  0.0170
 4534TIP3   OH213607   4.515   5.608   2.090  0.4184  0.0631  0.0235
 4534TIP3    H113608   4.463   5.569   2.160 -0.4412  0.6939 -0.2344
 4534TIP3    H213609   4.529   5.538   2.027 -0.3882 -0.0460 -0.0400
 4535TIP3   OH213610   1.723   5.096   3.794 -0.0784  0.5340  0.3705
 4535TIP3    H113611   1.814   5.116   3.774  0.2690 -1.0317  0.2564
 4535TIP3    H213612   1.674   5.121   3.715  0.5880 -0.8661 -0.5081
 4536TIP3   OH213613   1.495   0.114   4.840  0.1201 -0.3485  0.0355
 4536TIP3    H113614   1.587   0.117   4.813  0.3711  1.0294  0.9462
 4536TIP3    H213615   1.446   0.130   4.759  0.7464  0.3889 -0.2106
 4537TIP3   OH213616   3.590   1.895   2.016 -0.5575  0.1439  0.3655
 4537TIP3    H113617   3.494   1.902   2.021 -0.4600  0.9300  1.3495
 4537TIP3    H213618   3.609   1.901   1.923 -1.5201 -0.7918  0.0894
 4538TIP3   OH213619   1.113   5.194   0.019 -0.2112 -0.0078 -0.3090
 4538TIP3    H113620   1.123   5.279   0.062  1.3204 -0.1304 -0.3504
 4538TIP3    H213621   1.104   5.131   0.091  0.5439 -0.0048 -0.1993
 4539TIP3   OH213622   1.596   3.483   3.289 -0.1379 -0.3498 -0.5362
 4539TIP3    H113623   1.630   3.417   3.228 -0.2489  0.9746 -2.1161
 4539TIP3    H213624   1.673   3.517   3.333 -0.1793 -2.3322  1.2460
 4540TIP3   OH213625   2.402   1.786   1.738  0.0731  0.0771 -0.0474
 4540TIP3    H113626   2.400   1.737   1.820 -0.7798  0.5220  0.2033
 4540TIP3    H213627   2.431   1.722   1.673  1.6446 -0.0560  0.7369
 4541TIP3   OH213628   2.516   5.528   2.464  0.4719  0.0581  0.5046
 4541TIP3    H113629   2.467   5.447   2.452  0.9363  0.0461 -1.8093
 4541TIP3    H213630   2.606   5.506   2.440  0.0240  1.9231 -3.8515
 4542TIP3   OH213631   1.427   3.427   1.859  1.2571  0.8924  0.1085
 4542TIP3    H113632   1.380   3.496   1.907  0.1842  0.1742  0.1232
 4542TIP3    H213633   1.406   3.347   1.907  0.2853  0.1721 -1.4454
 4543TIP3   OH213634   4.263   4.516   3.019  0.3910  0.6651  0.1059
 4543TIP3    H113635   4.295   4.494   3.107  1.8785  0.4481 -0.4739
 4543TIP3    H213636   4.295   4.446   2.963  0.4193  1.3815 -0.8026
 4544TIP3   OH213637   5.198   3.435   3.639  0.0747 -0.1664 -0.3726
 4544TIP3    H113638   5.203   3.342   3.663  0.9362 -0.7059 -2.4218
 4544TIP3    H213639   5.109   3.446   3.607 -0.3204 -0.0371  0.7421
 4545TIP3   OH213640   0.024   4.740   3.866 -0.6144 -0.0226 -0.6002
 4545TIP3    H113641   0.050   4.745   3.958 -1.0718 -0.0892 -0.4635
 4545TIP3    H213642   0.041   4.828   3.832 -0.4752  0.0116 -0.4441
 4546TIP3   OH213643   1.608   5.771   4.177 -0.3467 -0.3537 -0.2341
 4546TIP3    H113644   1.608   5.866   4.163 -0.8907 -0.4657 -1.0423
 4546TIP3    H213645   1.598   5.761   4.272  0.0740  0.3975 -0.1030
 4547TIP3   OH213646   0.101   2.968   0.785  0.2894  0.5208 -0.1645
 4547TIP3    H113647   0.081   2.982   0.692  2.2611  2.6882 -0.3760
 4547TIP3    H213648   0.197   2.975   0.789  0.2722  0.0574  1.9916
 4548TIP3   OH213649   3.873   5.311   2.716 -0.4499  0.2247 -0.2727
 4548TIP3    H113650   3.933   5.382   2.741  1.0615 -1.2790  0.5365
 4548TIP3    H213651   3.921   5.261   2.651 -1.0438 -0.7106 -0.0045
 4549TIP3   OH213652   5.851   0.989   4.047  0.4081 -0.4489  0.0368
 4549TIP3    H113653   5.833   0.957   3.958  0.1303 -1.4177  0.4236
 4549TIP3    H213654   5.946   0.989   4.054  0.4290 -1.9780  0.2616
 4550TIP3   OH213655   1.020   2.217   2.522 -0.1025  0.0646 -0.2580
 4550TIP3    H113656   1.083   2.213   2.450 -0.8823  1.4241 -1.0660
 4550TIP3    H213657   0.992   2.309   2.524 -0.2826 -0.0064  1.6409
 4551TIP3   OH213658   4.529   3.459   2.567 -0.5541 -0.5511 -0.1151
 4551TIP3    H113659   4.461   3.456   2.635 -1.0293 -0.9173 -0.5905
 4551TIP3    H213660   4.491   3.410   2.494 -0.1198 -0.0109 -0.7089
 4552TIP3   OH213661   5.839   0.122   0.949 -0.0410  0.6747  0.3036
 4552TIP3    H113662   5.876   0.195   0.900  0.2421 -0.3802 -1.1333
 4552TIP3    H213663   5.748   0.116   0.918  0.5942 -1.0373 -1.4713
 4553TIP3   OH213664   1.314   3.407   0.895 -0.1419  0.1813  0.1958
 4553TIP3    H113665   1.223   3.380   0.900  0.5285 -2.2540  0.5477
 4553TIP3    H213666   1.311   3.497   0.864 -2.5657 -0.7567 -2.8015
 4554TIP3   OH213667   4.706   3.785   1.434 -0.4327  0.1693  0.3004
 4554TIP3    H113668   4.650   3.857   1.462 -1.4051 -0.5468  0.2537
 4554TIP3    H213669   4.760   3.822   1.365 -1.0147  0.8185  0.1830
 4555TIP3   OH213670   3.975   3.665   2.217 -0.0560 -0.0500 -0.7998
 4555TIP3    H113671   4.055   3.698   2.258 -1.0573  1.5758 -0.0555
 4555TIP3    H213672   4.005   3.594   2.160  1.4569 -2.5929  2.7436
 4556TIP3   OH213673   1.087   0.965   3.427 -0.0739 -0.6083 -0.2084
 4556TIP3    H113674   1.014   0.903   3.428 -1.9372  1.3318  2.6063
 4556TIP3    H213675   1.132   0.950   3.510  1.6402 -0.5379 -1.0862
 4557TIP3   OH213676   0.124   5.828   1.552 -0.2907 -0.3362  0.0264
 4557TIP3    H113677   0.073   5.874   1.618  0.1281 -0.6925  0.6193
 4557TIP3    H213678   0.134   5.890   1.480 -1.8990 -0.4033 -0.2908
 4558TIP3   OH213679   0.850   1.879   4.643  0.3308 -0.0548  0.3201
 4558TIP3    H113680   0.911   1.805   4.646  2.3691  1.5051 -0.3219
 4558TIP3    H213681   0.842   1.900   4.550 -1.1035 -0.1071  0.4043
 4559TIP3   OH213682   3.766   1.261   0.370 -0.4701  0.0916 -0.4971
 4559TIP3    H113683   3.753   1.168   0.349  0.4386 -0.2659  0.4351
 4559TIP3    H213684   3.684   1.287   0.413 -0.8551 -0.1832 -1.0527
 4560TIP3   OH213685   1.310   1.934   3.114 -0.1274  0.3546 -0.1284
 4560TIP3    H113686   1.321   1.926   3.019  0.4798 -1.0401  0.0342
 4560TIP3    H213687   1.245   1.867   3.136 -1.2520  1.5431  0.2957
 4561TIP3   OH213688   2.985   4.357   3.162  0.9408  0.3243 -0.1811
 4561TIP3    H113689   3.039   4.432   3.186  1.5265 -0.0398 -0.3322
 4561TIP3    H213690   3.046   4.283   3.159  0.4784 -0.0520 -0.5920
 4562TIP3   OH213691   4.915   0.412   4.628 -0.2784 -0.3564  0.0172
 4562TIP3    H113692   4.937   0.321   4.648 -1.3083 -0.6809 -0.2632
 4562TIP3    H213693   4.884   0.410   4.538 -0.5483  0.2362  0.0925
 4563TIP3   OH213694   5.461   3.793   1.124  0.0499  0.0464 -0.3440
 4563TIP3    H113695   5.551   3.768   1.147 -0.3453  0.2029  1.5630
 4563TIP3    H213696   5.460   3.888   1.132 -0.1123  0.1174 -1.1218
 4564TIP3   OH213697   3.480   3.501   0.548 -0.3888 -0.5070 -0.1392
 4564TIP3    H113698   3.438   3.415   0.555  0.5762 -1.0868 -1.1491
 4564TIP3    H213699   3.466   3.527   0.458 -3.4575  1.9433  0.8772
 4565TIP3   OH213700   0.690   4.656   0.255 -0.3083  0.3098  0.2223
 4565TIP3    H113701   0.633   4.629   0.327  0.1693 -0.0585  0.4651
 4565TIP3    H213702   0.778   4.643   0.288 -0.0394  2.4898  0.4749
 4566TIP3   OH213703   0.396   3.058   0.113  0.4705  0.7547 -0.3350
 4566TIP3    H113704   0.307   3.092   0.123 -0.0053 -0.1839 -1.1797
 4566TIP3    H213705   0.429   3.051   0.202 -1.3883 -1.5992  0.2803
 4567TIP3   OH213706   0.718   4.648   4.438 -0.4711  0.1722 -0.2440
 4567TIP3    H113707   0.645   4.672   4.495 -0.3162 -1.0476  0.5064
 4567TIP3    H213708   0.793   4.696   4.474 -0.3693 -0.6082  0.6161
 4568TIP3   OH213709   4.451   1.841   4.130  0.2936 -0.4766 -0.4353
 4568TIP3    H113710   4.417   1.857   4.042 -0.7169  2.6274  0.3864
 4568TIP3    H213711   4.394   1.774   4.166  1.1033 -2.2688 -2.2695
 4569TIP3   OH213712   3.051   1.125   0.260 -0.5776 -0.3247 -0.6777
 4569TIP3    H113713   3.112   1.117   0.333 -1.0821  0.9363 -0.0976
 4569TIP3    H213714   3.100   1.093   0.184 -0.1582 -1.9679  0.2487
 4570TIP3   OH213715   2.369   0.226   4.466 -0.5425  0.2375 -0.9165
 4570TIP3    H113716   2.351   0.142   4.425 -2.0556  0.1924 -0.2364
 4570TIP3    H213717   2.441   0.209   4.526 -1.4198 -0.8223 -0.1152
 4571TIP3   OH213718   4.841   2.558   3.003  0.0997  0.1018 -0.3270
 4571TIP3    H113719   4.906   2.585   3.068  0.6242 -0.4056 -0.6287
 4571TIP3    H213720   4.808   2.640   2.965  1.5444  0.3323 -1.1267
 4572TIP3   OH213721   0.600   0.890   1.098 -0.3134  0.0235  0.7237
 4572TIP3    H113722   0.609   0.873   1.005 -0.8983  1.5269  0.3608
 4572TIP3    H213723   0.690   0.894   1.131 -0.0879  0.0641  0.1003
 4573TIP3   OH213724   2.342   3.794   5.025  0.0502  0.3692 -0.3807
 4573TIP3    H113725   2.379   3.882   5.015  0.2087  0.2574 -0.7955
 4573TIP3    H213726   2.258   3.808   5.068  1.3756  0.4975  2.4212
 4574TIP3   OH213727   5.943   2.661   3.017  0.2185 -0.0668  0.7945
 4574TIP3    H113728   5.922   2.752   3.036  1.4666 -0.0442  2.2341
 4574TIP3    H213729   6.033   2.663   2.983  1.0234 -0.9019  2.7305
 4575TIP3   OH213730   4.083   3.944   1.495 -0.0375 -0.0402 -0.2258
 4575TIP3    H113731   4.100   4.015   1.433  0.0168 -1.3029 -1.7295
 4575TIP3    H213732   4.132   3.968   1.573  1.4617  0.7031 -1.3480
 4576TIP3   OH213733   2.948   5.129   1.554 -0.1541  0.5276 -0.2223
 4576TIP3    H113734   2.865   5.168   1.584 -1.3153 -0.5033 -1.9000
 4576TIP3    H213735   2.979   5.189   1.486 -1.0946 -0.5650 -1.6598
 4577TIP3   OH213736   0.960   1.095   4.516 -0.1934  0.0111 -0.2270
 4577TIP3    H113737   1.023   1.163   4.493 -0.5202  0.6546  0.7048
 4577TIP3    H213738   0.895   1.098   4.446 -0.6247  1.2225  0.1836
 4578TIP3   OH213739   5.060   1.184   2.954 -0.5115 -0.5043 -0.2801
 4578TIP3    H113740   5.095   1.272   2.946  0.6543 -0.8793  0.4215
 4578TIP3    H213741   4.974   1.188   2.912  0.0248  0.6514 -1.3109
 4579TIP3   OH213742   4.295   1.710   0.416  0.3563 -0.0796  0.0357
 4579TIP3    H113743   4.375   1.753   0.448  0.8732 -0.9445 -0.0646
 4579TIP3    H213744   4.304   1.711   0.321 -0.0481  0.3612 -0.0010
 4580TIP3   OH213745   4.434   1.401   2.377  0.3275 -0.8479  0.8577
 4580TIP3    H113746   4.467   1.311   2.375 -1.2327 -1.4429 -0.4406
 4580TIP3    H213747   4.343   1.393   2.406 -0.1619  0.1608 -0.2761
 4581TIP3   OH213748   6.347   0.208   2.697 -0.0942 -0.2236 -0.4572
 4581TIP3    H113749   6.253   0.189   2.688 -0.1485 -1.4936  1.8597
 4581TIP3    H213750   6.350   0.297   2.734 -0.4075 -0.2616 -0.3382
 4582TIP3   OH213751   2.733   2.668   0.220 -0.3985  0.4494 -0.1103
 4582TIP3    H113752   2.772   2.722   0.289  0.8080 -1.3616  0.6899
 4582TIP3    H213753   2.752   2.578   0.246 -1.0966 -0.3371 -2.1311
 4583TIP3   OH213754   3.712   1.804   4.975 -0.3096 -0.1989  1.0035
 4583TIP3    H113755   3.684   1.750   5.049 -0.4080  0.1166  1.1981
 4583TIP3    H213756   3.643   1.870   4.966  0.9881  1.4106  2.3269
 4584TIP3   OH213757   1.147   2.718   3.015 -0.8178  0.1176  0.4161
 4584TIP3    H113758   1.112   2.642   3.061 -0.0357 -0.0092  0.8243
 4584TIP3    H213759   1.168   2.780   3.084  1.1623 -0.4038  0.3615
 4585TIP3   OH213760   1.591   0.115   1.793 -0.5966  0.3374  0.0736
 4585TIP3    H113761   1.495   0.119   1.797 -0.6122  1.2127 -0.7240
 4585TIP3    H213762   1.618   0.103   1.884 -1.4091  1.7825  0.5497
 4586TIP3   OH213763   1.524   0.690   3.926  0.4584 -0.1148  0.2168
 4586TIP3    H113764   1.430   0.708   3.915  0.7906  0.5449 -2.0782
 4586TIP3    H213765   1.564   0.721   3.845  2.6194 -0.8513  0.9299
 4587TIP3   OH213766   2.783   1.742   3.640  0.9332 -0.4462 -0.9478
 4587TIP3    H113767   2.770   1.829   3.602 -0.7417 -0.5482 -0.7192
 4587TIP3    H213768   2.760   1.752   3.732  0.8600 -1.0956 -0.8867
 4588TIP3   OH213769   4.147   0.168   0.709 -0.2914  0.6239 -0.0184
 4588TIP3    H113770   4.066   0.139   0.667 -0.6835  1.0937  0.4032
 4588TIP3    H213771   4.124   0.179   0.801  0.6614 -0.8103  0.4301
 4589TIP3   OH213772   5.074   4.190   2.504  0.4153 -0.2802 -0.3496
 4589TIP3    H113773   5.016   4.128   2.459 -2.3114  0.3864  1.9367
 4589TIP3    H213774   5.066   4.271   2.455  0.5809 -0.6035 -0.9105
 4590TIP3   OH213775   0.120   3.496   2.328  0.7439  0.0441  0.0106
 4590TIP3    H113776   0.121   3.585   2.363 -0.7553  0.8102 -1.7017
 4590TIP3    H213777   0.029   3.468   2.335  0.8580 -0.6650 -1.0669
 4591TIP3   OH213778   1.128   1.466   4.268 -0.1828  0.0235 -0.0605
 4591TIP3    H113779   1.202   1.477   4.207  0.8151 -0.5950  0.9928
 4591TIP3    H213780   1.135   1.375   4.297 -0.3719  0.4295  1.3111
 4592TIP3   OH213781   0.228   0.965   0.814 -0.3303  0.0896  0.2703
 4592TIP3    H113782   0.213   0.949   0.907 -0.0571  0.5666  0.4028
 4592TIP3    H213783   0.141   0.982   0.778 -0.4807 -0.5125  0.3565
 4593TIP3   OH213784   2.573   5.477   4.017 -0.1183 -0.7071 -0.2982
 4593TIP3    H113785   2.497   5.467   4.075  0.6263 -2.6473  0.4449
 4593TIP3    H213786   2.541   5.446   3.932 -0.7092  0.4232 -0.5021
 4594TIP3   OH213787   0.609   2.870   1.511  0.1676 -0.1077  0.1852
 4594TIP3    H113788   0.652   2.952   1.486  1.4568  0.4801  3.7342
 4594TIP3    H213789   0.526   2.871   1.464  2.1976  0.6720 -3.8673
 4595TIP3   OH213790   1.355   2.039   4.763  0.1213  0.7143  0.0412
 4595TIP3    H113791   1.323   2.038   4.853  1.8225  0.7265  0.6757
 4595TIP3    H213792   1.358   1.947   4.738 -2.2944  0.7779 -0.7864
 4596TIP3   OH213793   0.518   3.946   1.862  0.6107  0.1938  0.1677
 4596TIP3    H113794   0.479   3.885   1.925  2.1385 -1.1678 -0.1588
 4596TIP3    H213795   0.577   4.001   1.915 -0.0051  0.7443  0.2986
 4597TIP3   OH213796   3.934   4.758   2.894 -0.1901 -0.2629  0.1452
 4597TIP3    H113797   3.980   4.673   2.892  0.1609 -0.0750  0.1451
 4597TIP3    H213798   3.843   4.736   2.876 -0.0692 -0.6237 -0.0420
 4598TIP3   OH213799   5.156   1.911   0.683  0.2638  0.1053 -0.0219
 4598TIP3    H113800   5.231   1.851   0.693  2.4798  2.2493 -2.2832
 4598TIP3    H213801   5.191   1.997   0.707 -1.7430  1.0751 -0.3820
 4599TIP3   OH213802   2.399   3.346   1.576  0.4250 -0.2152 -0.0076
 4599TIP3    H113803   2.311   3.313   1.597  0.2103  0.4609  0.1970
 4599TIP3    H213804   2.382   3.427   1.526  0.9316 -0.1575 -0.0867
 4600TIP3   OH213805   3.146   4.211   5.164 -0.0975  0.0844  0.6107
 4600TIP3    H113806   3.122   4.257   5.083  1.0631 -0.7618 -0.2486
 4600TIP3    H213807   3.147   4.118   5.140  1.4688 -0.0980  1.2485
 4601TIP3   OH213808   6.317   1.167   1.039 -0.2571  0.4279 -0.0499
 4601TIP3    H113809   6.391   1.198   0.986 -0.0886 -0.5729 -0.4224
 4601TIP3    H213810   6.300   1.238   1.100 -0.9469  1.9743 -1.9343
 4602TIP3   OH213811   0.789   1.405   4.911  0.7413 -0.2120  0.1832
 4602TIP3    H113812   0.825   1.324   4.874  1.4459  0.0247  0.3452
 4602TIP3    H213813   0.781   1.463   4.835  0.8159 -0.2237  0.1660
 4603TIP3   OH213814   0.288   0.350   2.191  0.2719 -0.0427 -0.2751
 4603TIP3    H113815   0.250   0.390   2.113  0.8137  1.5238  0.2228
 4603TIP3    H213816   0.378   0.329   2.166  0.5438  0.7586  0.0178
 4604TIP3   OH213817   1.264   4.516   4.964  0.0122  0.2758 -0.8841
 4604TIP3    H113818   1.200   4.543   5.030  0.8733  0.9985 -0.3283
 4604TIP3    H213819   1.244   4.424   4.948 -2.9213  1.1097 -2.7456
 4605TIP3   OH213820   2.926   4.414   4.578 -0.4659  0.1723  0.1025
 4605TIP3    H113821   2.949   4.501   4.610 -0.3317 -0.7936  2.8028
 4605TIP3    H213822   2.988   4.398   4.507  1.0359  1.3586  1.0816
 4606TIP3   OH213823   2.557   4.767   0.943  0.0213  0.1669  0.0662
 4606TIP3    H113824   2.615   4.841   0.959  0.5664  0.0878 -1.3951
 4606TIP3    H213825   2.580   4.736   0.855 -0.7013 -1.2779  0.3455
 4607TIP3   OH213826   2.675   2.175   3.062 -0.1451 -0.7006  0.2187
 4607TIP3    H113827   2.675   2.157   2.967 -0.1932 -0.4611  0.1735
 4607TIP3    H213828   2.607   2.241   3.073  1.6826  1.3112  0.0524
 4608TIP3   OH213829   3.615   0.937   2.767 -0.4820  0.1622 -0.1335
 4608TIP3    H113830   3.630   0.843   2.764 -0.8640  0.1077 -0.5157
 4608TIP3    H213831   3.522   0.947   2.745 -0.4098  0.6384 -0.2350
 4609TIP3   OH213832   4.374   5.552   2.804 -0.3570  0.6036  0.6488
 4609TIP3    H113833   4.445   5.617   2.800  0.2782 -0.1190 -0.0578
 4609TIP3    H213834   4.407   5.484   2.862  0.5432 -0.8966 -1.5223
 4610TIP3   OH213835   5.906   0.087   4.576  0.1970  0.0520  0.1710
 4610TIP3    H113836   5.866   0.070   4.661  0.8511  0.1977  0.5157
 4610TIP3    H213837   5.863   0.026   4.517  0.3934 -0.7092  0.7935
 4611TIP3   OH213838   3.066   3.801   4.804 -0.1618 -0.0100  0.2500
 4611TIP3    H113839   3.116   3.726   4.772  0.0965  0.1098  0.3703
 4611TIP3    H213840   2.989   3.805   4.747  0.3021  0.2099 -0.3693
 4612TIP3   OH213841   1.957   1.120   4.539  0.2834 -0.2165  0.6706
 4612TIP3    H113842   2.031   1.105   4.480  0.1518  0.5701  0.2914
 4612TIP3    H213843   1.882   1.081   4.494  0.1870  0.3631  0.3270
 4613TIP3   OH213844   3.714   0.602   2.013  0.4512  0.2003  0.0942
 4613TIP3    H113845   3.639   0.626   2.068  0.9487  1.2461  0.3556
 4613TIP3    H213846   3.679   0.538   1.951 -0.7827  1.0128 -0.0917
 4614TIP3   OH213847   2.209   3.555   1.452  0.0207  0.9885  0.1218
 4614TIP3    H113848   2.153   3.630   1.470  0.0497  1.5358 -1.8595
 4614TIP3    H213849   2.206   3.544   1.357  0.2846 -1.3277  0.3141
 4615TIP3   OH213850   3.486   4.348   0.196 -0.0047 -0.0052 -0.2288
 4615TIP3    H113851   3.540   4.360   0.273  1.6658 -1.1671 -1.1585
 4615TIP3    H213852   3.396   4.359   0.227  0.4538 -2.5153  2.3344
 4616TIP3   OH213853   5.277   0.735   4.403  0.0627  0.1244  0.2893
 4616TIP3    H113854   5.215   0.738   4.330 -1.7401  0.0140  1.7451
 4616TIP3    H213855   5.312   0.824   4.408  0.5200  0.0357 -0.9269
 4617TIP3   OH213856   3.046   1.917   0.586  0.2766  0.3285  0.1524
 4617TIP3    H113857   3.140   1.899   0.593  0.4387 -0.3973 -2.6506
 4617TIP3    H213858   3.040   2.011   0.569  0.7211  0.0565 -1.7486
 4618TIP3   OH213859   2.084   3.189   1.923  0.3006  0.3049 -0.3942
 4618TIP3    H113860   1.996   3.219   1.901 -0.3060 -0.5194  0.8138
 4618TIP3    H213861   2.134   3.270   1.937 -0.2818  0.7750 -1.0160
 4619TIP3   OH213862   0.101   2.134   0.746 -0.3101 -0.2554  0.3830
 4619TIP3    H113863   0.060   2.093   0.823  0.9666  0.5209  1.5284
 4619TIP3    H213864   0.187   2.092   0.740  0.1958  0.7659  0.3125
 4620TIP3   OH213865   5.153   5.516   3.875 -0.0209  0.2195 -0.0313
 4620TIP3    H113866   5.093   5.577   3.920 -0.4031  0.0345 -0.2853
 4620TIP3    H213867   5.107   5.493   3.795  1.1748  1.4828 -1.1161
 4621TIP3   OH213868   3.632   2.036   4.515  0.4956  0.5389  0.3354
 4621TIP3    H113869   3.707   1.987   4.481 -0.9080  0.0554 -2.3326
 4621TIP3    H213870   3.636   2.120   4.470 -0.7297  0.3860 -0.0889
 4622TIP3   OH213871   6.371   3.937   1.916 -0.2882 -0.6704  0.6674
 4622TIP3    H113872   6.298   3.980   1.961 -1.7064 -0.1842 -1.8901
 4622TIP3    H213873   6.334   3.855   1.883  0.5606 -0.8378  0.0974
 4623TIP3   OH213874   3.154   2.948   2.703 -0.8866  0.2905  0.0812
 4623TIP3    H113875   3.111   2.862   2.706  0.5192 -0.4768 -0.7626
 4623TIP3    H213876   3.181   2.963   2.794 -0.2970 -0.6210  0.0713
 4624TIP3   OH213877   5.446   5.202   4.163  0.5726 -0.0680 -0.4127
 4624TIP3    H113878   5.417   5.244   4.082 -0.7036  0.6037  0.3485
 4624TIP3    H213879   5.383   5.232   4.229  1.4218 -0.8053  0.7757
 4625TIP3   OH213880   4.819   0.081   4.467 -0.7260 -0.5364 -0.1131
 4625TIP3    H113881   4.794   0.024   4.395  0.9482  0.0444 -1.2196
 4625TIP3    H213882   4.739   0.092   4.518 -1.9679 -1.0132 -1.8518
 4626TIP3   OH213883   4.710   1.031   0.370 -0.5005  0.2985  0.2800
 4626TIP3    H113884   4.776   1.093   0.401 -0.2882  0.3512 -0.2714
 4626TIP3    H213885   4.756   0.978   0.305 -1.1352  0.6687 -0.4845
 4627TIP3   OH213886   0.144   5.658   4.390 -0.2814 -0.3947  0.3749
 4627TIP3    H113887   0.153   5.610   4.307  0.7102  2.1140 -1.0760
 4627TIP3    H213888   0.230   5.652   4.430  0.1710  0.9889 -0.3355
 4628TIP3   OH213889   3.662   3.908   2.586 -0.4579 -0.5098  0.5515
 4628TIP3    H113890   3.571   3.919   2.611 -0.9028 -1.1189 -0.6925
 4628TIP3    H213891   3.701   3.995   2.598 -1.4516  0.0153  0.1295
 4629TIP3   OH213892   1.279   2.981   0.773  0.3235  0.5550 -0.7622
 4629TIP3    H113893   1.242   2.967   0.860  0.3412  0.2469 -0.8010
 4629TIP3    H213894   1.255   3.070   0.750 -0.0212  0.5037 -0.6054
 4630TIP3   OH213895   1.879   3.333   1.358  0.1094 -0.0203 -0.4860
 4630TIP3    H113896   1.864   3.374   1.443  0.8186 -0.4588 -0.1354
 4630TIP3    H213897   1.973   3.315   1.357 -0.0656 -0.9616 -0.9298
 4631TIP3   OH213898   0.462   3.337   4.314 -0.1350  0.2795 -0.0167
 4631TIP3    H113899   0.511   3.350   4.395  0.7462 -0.1182 -0.4644
 4631TIP3    H213900   0.529   3.339   4.246 -0.9684  1.6833 -0.8598
 4632TIP3   OH213901   4.889   3.388   1.579 -0.3927 -0.2089 -0.6671
 4632TIP3    H113902   4.916   3.475   1.549  2.2585  0.4356  2.8532
 4632TIP3    H213903   4.952   3.328   1.541 -0.0557 -0.0803 -0.3165
 4633TIP3   OH213904   5.136   5.939   3.802 -0.1629  0.0007  0.0252
 4633TIP3    H113905   5.149   5.870   3.737 -0.0766 -0.2472  0.3023
 4633TIP3    H213906   5.200   5.919   3.871 -0.6360 -0.0610  0.4501
 4634TIP3   OH213907   1.253   1.079   4.032 -0.1831  0.1707  0.1617
 4634TIP3    H113908   1.290   1.034   4.107  0.7121  0.2883 -0.1931
 4634TIP3    H213909   1.182   1.022   4.003 -0.7433  0.2832  1.2765
 4635TIP3   OH213910   1.231   1.561   0.726  0.0656  0.7393  0.1296
 4635TIP3    H113911   1.199   1.561   0.636  1.0927 -0.4795 -0.2666
 4635TIP3    H213912   1.251   1.652   0.744  0.1572  0.9631 -0.9998
 4636TIP3   OH213913   4.866   4.993   2.128  0.3852 -0.2813 -0.0514
 4636TIP3    H113914   4.813   4.913   2.121  0.2042 -0.0756 -1.1869
 4636TIP3    H213915   4.804   5.060   2.155  0.3120 -0.2886 -0.2015
 4637TIP3   OH213916   1.788   2.183   2.033 -0.4894  0.0316 -0.0516
 4637TIP3    H113917   1.720   2.125   2.068 -0.9775  1.4703  1.5112
 4637TIP3    H213918   1.870   2.145   2.065 -0.4571 -1.8565 -2.1506
 4638TIP3   OH213919   1.755   4.257   2.666 -0.2272 -0.4838 -0.0888
 4638TIP3    H113920   1.823   4.321   2.647 -0.4702 -0.6971 -1.7804
 4638TIP3    H213921   1.696   4.261   2.591 -0.5121 -2.3510  0.0001
 4639TIP3   OH213922   5.587   1.433   3.989 -0.5731 -0.4806  0.2064
 4639TIP3    H113923   5.649   1.491   4.033 -0.9066  0.6745 -0.8090
 4639TIP3    H213924   5.542   1.387   4.061  0.7565 -0.6335  0.9734
 4640TIP3   OH213925   4.798   2.123   0.121  0.1301 -0.4178  0.3136
 4640TIP3    H113926   4.799   2.041   0.170  0.7175  0.0345  1.0818
 4640TIP3    H213927   4.706   2.150   0.122  0.2135 -0.0503  1.8369
 4641TIP3   OH213928   5.522   5.532   1.752  0.3463  0.2703  0.4844
 4641TIP3    H113929   5.591   5.516   1.816  0.6396 -1.4977 -0.2133
 4641TIP3    H213930   5.478   5.448   1.743  0.4205  0.4012 -1.7292
 4642TIP3   OH213931   1.270   4.486   2.790 -0.6705 -0.1122  0.6014
 4642TIP3    H113932   1.346   4.524   2.747 -3.0017  2.2308 -1.8189
 4642TIP3    H213933   1.282   4.507   2.883  0.7473  1.8572  0.0396
 4643TIP3   OH213934   0.112   2.071   0.274 -0.2641  0.2874  0.2999
 4643TIP3    H113935   0.029   2.052   0.229 -0.4923 -0.1101  0.8753
 4643TIP3    H213936   0.087   2.134   0.342  0.0167  0.6249  0.0899
 4644TIP3   OH213937   1.070   2.428   4.417 -0.2784 -0.0857  0.4470
 4644TIP3    H113938   1.003   2.398   4.479  0.6463 -2.1375  0.5488
 4644TIP3    H213939   1.143   2.368   4.431  1.1793  1.4171 -0.4209
 4645TIP3   OH213940   1.879   2.334   3.967 -0.7808  0.2346 -0.1651
 4645TIP3    H113941   1.892   2.239   3.961  0.1423  0.2307  1.4501
 4645TIP3    H213942   1.949   2.365   4.025 -2.2529  1.6288  0.9744
 4646TIP3   OH213943   0.169   4.193   1.860  0.6118  0.4364  0.2893
 4646TIP3    H113944   0.096   4.254   1.869  0.6390  0.4194  0.6157
 4646TIP3    H213945   0.134   4.110   1.893  0.3880  0.1294 -0.6793
 4647TIP3   OH213946   1.963   4.556   1.273  0.0986 -0.0488  1.0898
 4647TIP3    H113947   1.948   4.499   1.197 -1.5314  0.5403  0.9195
 4647TIP3    H213948   2.024   4.622   1.241 -1.1952  0.6810 -0.0140
 4648TIP3   OH213949   5.758   4.671   0.334 -0.3808 -0.2719 -0.0552
 4648TIP3    H113950   5.740   4.584   0.297 -0.7036  0.3794 -1.4993
 4648TIP3    H213951   5.843   4.695   0.300  0.8571 -0.9841  2.2973
 4649TIP3   OH213952   1.938   1.773   0.897  0.2672 -0.7422  0.3284
 4649TIP3    H113953   1.937   1.777   0.801 -0.4224  0.3503  0.3613
 4649TIP3    H213954   1.885   1.847   0.924  2.4412  0.4360  1.6078
 4650TIP3   OH213955   4.402   4.562   1.243  0.1520 -0.6403  0.1500
 4650TIP3    H113956   4.387   4.510   1.322 -2.0272  0.5832  0.6374
 4650TIP3    H213957   4.457   4.635   1.273 -0.2689 -0.4358  0.4218
 4651TIP3   OH213958   4.583   0.753   0.492  0.4370  0.0273 -0.5111
 4651TIP3    H113959   4.610   0.667   0.460 -1.8813  0.5256 -4.4166
 4651TIP3    H213960   4.487   0.751   0.489  0.3014  2.5823 -0.2260
 4652TIP3   OH213961   1.127   3.365   4.224  0.0232  0.1664 -0.1723
 4652TIP3    H113962   1.123   3.273   4.250  2.6059  0.0459  0.1017
 4652TIP3    H213963   1.084   3.412   4.295  1.2530 -0.6454  1.1589
 4653TIP3   OH213964   4.672   1.122   0.725 -0.2033  0.1448 -0.5534
 4653TIP3    H113965   4.668   1.164   0.811  2.1805 -1.3173  0.3682
 4653TIP3    H213966   4.662   1.195   0.663 -2.2305  1.2019  0.8862
 4654TIP3   OH213967   1.998   4.204   3.639  0.4928 -0.0833 -0.5888
 4654TIP3    H113968   1.916   4.177   3.679  0.7624 -0.0472 -0.0028
 4654TIP3    H213969   2.003   4.154   3.557  1.1034 -2.0267  0.5896
 4655TIP3   OH213970   3.824   0.703   4.124  0.3232 -0.0172  0.4582
 4655TIP3    H113971   3.836   0.738   4.213 -1.2435  1.1933  0.2519
 4655TIP3    H213972   3.896   0.741   4.073  1.6334 -1.2606  1.3080
 4656TIP3   OH213973   3.409   3.574   2.639 -0.3165  0.0470 -0.0652
 4656TIP3    H113974   3.487   3.610   2.597  0.9726 -1.6465  0.7175
 4656TIP3    H213975   3.407   3.483   2.610 -1.7963 -0.0335  0.2438
 4657TIP3   OH213976   5.077   2.582   4.862 -0.2826 -0.6898 -1.2070
 4657TIP3    H113977   4.989   2.557   4.891 -0.8166 -0.5181 -2.6045
 4657TIP3    H213978   5.088   2.671   4.894  0.0319 -1.2449  0.3250
 4658TIP3   OH213979   3.195   1.148   1.260  0.4496 -0.1330  0.1895
 4658TIP3    H113980   3.117   1.190   1.297  0.7179  0.4223  0.1313
 4658TIP3    H213981   3.160   1.087   1.195  0.1434  1.8033 -1.5644
 4659TIP3   OH213982   3.015   5.602   2.291 -1.0620  0.1947 -0.2325
 4659TIP3    H113983   3.109   5.596   2.308 -1.1261  0.4534  0.2153
 4659TIP3    H213984   2.998   5.695   2.280 -1.3941  0.2274  0.4709
 4660TIP3   OH213985   4.356   5.763   0.635  0.0257 -0.0871 -0.5948
 4660TIP3    H113986   4.432   5.820   0.625 -1.5158  1.9780 -1.2556
 4660TIP3    H213987   4.340   5.728   0.547  0.2638 -0.6296 -0.4291
 4661TIP3   OH213988   5.358   1.521   1.662  0.0748 -0.1326  0.2372
 4661TIP3    H113989   5.334   1.432   1.687 -1.7812  0.1409 -0.4102
 4661TIP3    H213990   5.427   1.546   1.724  0.0213 -1.6883  0.9752
 4662TIP3   OH213991   4.893   0.196   1.484 -0.2344  0.5494  0.3298
 4662TIP3    H113992   4.826   0.252   1.525 -0.7645 -0.3676  0.7303
 4662TIP3    H213993   4.974   0.219   1.530 -0.5675  0.5282  0.9451
 4663TIP3   OH213994   6.089   5.386   1.108  0.3884  0.1585  0.4321
 4663TIP3    H113995   6.122   5.358   1.022  0.7972  0.8144  0.3726
 4663TIP3    H213996   6.031   5.460   1.089  0.6494  0.4428  0.7396
 4664TIP3   OH213997  -0.018   0.952   2.183  0.1838  0.2716  0.0373
 4664TIP3    H113998   0.052   0.898   2.147 -1.3202  0.7697 -4.1944
 4664TIP3    H213999  -0.025   1.026   2.123 -0.5555  3.1448  3.2933
 4665TIP3   OH214000   1.146   1.006   1.704  0.6810  0.6124 -0.5937
 4665TIP3    H114001   1.057   1.039   1.692  0.5028 -0.3667 -2.2835
 4665TIP3    H214002   1.174   1.044   1.787 -2.1536 -0.9140  1.2479
 4666TIP3   OH214003   3.846   5.721   1.033 -0.2448  0.3692 -0.4780
 4666TIP3    H114004   3.928   5.749   1.074 -0.7049 -1.6328  2.0809
 4666TIP3    H214005   3.874   5.667   0.959  0.7900 -0.2531  0.3375
 4667TIP3   OH214006   2.775   0.811   1.931 -0.3042 -0.0528 -0.0319
 4667TIP3    H114007   2.698   0.795   1.985 -0.0577 -0.4675  0.1984
 4667TIP3    H214008   2.753   0.774   1.846 -0.7883  0.8209 -0.2913
 4668TIP3   OH214009   2.071   3.351   0.455  0.4442 -0.3027 -0.4519
 4668TIP3    H114010   1.998   3.329   0.512  0.3068 -3.4318 -1.6206
 4668TIP3    H214011   2.033   3.404   0.385 -0.3219 -0.3588 -0.0802
 4669TIP3   OH214012   2.028   2.296   2.136  0.0587  0.0384  0.0191
 4669TIP3    H114013   1.972   2.359   2.091  1.7077  1.1460 -0.5967
 4669TIP3    H214014   2.107   2.346   2.158 -0.1727 -0.7743  3.1383
 4670TIP3   OH214015   6.167   3.317   3.707  0.0662 -0.3453 -0.2276
 4670TIP3    H114016   6.099   3.354   3.763  0.3815  0.3864 -0.3210
 4670TIP3    H214017   6.144   3.224   3.700 -0.6866 -0.1909  0.0751
 4671TIP3   OH214018   0.366   2.963   4.744 -0.2122  0.0209  0.1531
 4671TIP3    H114019   0.451   2.948   4.704 -0.5370 -0.7657 -0.2613
 4671TIP3    H214020   0.328   3.035   4.693  0.4265  0.7688  0.7072
 4672TIP3   OH214021   3.534   0.795   1.713  0.2003  0.0042 -0.8076
 4672TIP3    H114022   3.594   0.751   1.653  2.2112  2.5046 -0.7958
 4672TIP3    H214023   3.590   0.851   1.767 -2.0172  1.5496  0.0579
 4673TIP3   OH214024   3.503   0.546   4.255 -0.1963 -0.5079  0.3403
 4673TIP3    H114025   3.561   0.519   4.183 -0.2937 -0.3053  0.1831
 4673TIP3    H214026   3.549   0.521   4.334 -0.5307 -1.6278  0.1897
 4674TIP3   OH214027   1.763   1.897   3.699 -0.2897 -0.4502 -0.2475
 4674TIP3    H114028   1.768   1.811   3.657 -1.2683 -1.4897  1.6321
 4674TIP3    H214029   1.829   1.894   3.769 -0.0537  0.4887 -0.4104
 4675TIP3   OH214030   3.135   1.810   2.751 -0.5716 -0.1266  0.3849
 4675TIP3    H114031   3.196   1.820   2.825 -0.4417 -1.8225  0.5495
 4675TIP3    H214032   3.162   1.878   2.689  0.4272  0.2270  1.1699
 4676TIP3   OH214033   2.565   0.822   3.227  0.7963  0.6452  0.0152
 4676TIP3    H114034   2.585   0.772   3.306  1.0754  0.4936 -0.1502
 4676TIP3    H214035   2.472   0.805   3.210  0.9332  0.0449 -0.1395
 4677TIP3   OH214036   0.311   4.667   4.473  0.1561  0.9629  0.3063
 4677TIP3    H114037   0.347   4.709   4.395  1.6908  0.9070  0.9582
 4677TIP3    H214038   0.386   4.628   4.517 -0.9720 -0.9321  0.6815
 4678TIP3   OH214039   3.823   1.963   2.171 -0.1047 -0.0689 -0.8681
 4678TIP3    H114040   3.856   1.896   2.111 -0.6747  0.8421 -2.2657
 4678TIP3    H214041   3.730   1.970   2.150 -0.4549 -0.1726  0.6023
 4679TIP3   OH214042   0.448   4.949   0.215  0.2634  0.1473  0.0580
 4679TIP3    H114043   0.421   4.858   0.215  0.7208 -0.2037  4.6077
 4679TIP3    H214044   0.368   4.998   0.197 -0.4804 -1.1026 -0.1147
 4680TIP3   OH214045   1.872   3.523   3.837 -0.1222 -0.0896  0.3333
 4680TIP3    H114046   1.784   3.560   3.831 -0.6103 -1.3911 -1.0608
 4680TIP3    H214047   1.928   3.598   3.859 -1.6408  0.6309  1.9535
 4681TIP3   OH214048   5.213   5.172   0.573  0.1690  0.7989  0.6151
 4681TIP3    H114049   5.194   5.197   0.483  2.3140  0.9978  0.1759
 4681TIP3    H214050   5.206   5.076   0.573  0.2038  0.7963  0.2456
 4682TIP3   OH214051   4.760   0.088   4.846 -0.1029 -0.3517  0.0698
 4682TIP3    H114052   4.711   0.141   4.783  0.1205  0.2913  0.4313
 4682TIP3    H214053   4.852   0.104   4.825 -0.0313 -0.6064  0.1788
 4683TIP3   OH214054   5.626   4.193   1.813  0.0397 -0.2134  0.5253
 4683TIP3    H114055   5.667   4.226   1.733 -0.3814 -1.5275 -0.2525
 4683TIP3    H214056   5.540   4.234   1.814 -0.3919 -1.0731 -0.3144
 4684TIP3   OH214057   1.314   0.799   1.379  0.1920 -0.3062  0.4526
 4684TIP3    H114058   1.397   0.752   1.375  0.0414 -1.0850  3.6225
 4684TIP3    H214059   1.250   0.733   1.407 -0.9938  0.7922  0.4322
 4685TIP3   OH214060   6.240   3.163   1.569 -0.5558 -0.4260 -0.1188
 4685TIP3    H114061   6.204   3.075   1.557  1.6955 -1.4929  0.5083
 4685TIP3    H214062   6.307   3.153   1.637 -0.5965  1.8920  0.3596
 4686TIP3   OH214063   2.840   5.523   4.070  0.1161  0.4405  0.4473
 4686TIP3    H114064   2.876   5.549   3.985  2.0739 -0.8541  0.8083
 4686TIP3    H214065   2.751   5.493   4.051  1.7583 -3.6649 -1.9850
 4687TIP3   OH214066   4.660   2.633   0.599 -0.2481  0.4831 -0.1805
 4687TIP3    H114067   4.707   2.699   0.548 -0.2588 -0.2611 -1.1910
 4687TIP3    H214068   4.611   2.583   0.534 -2.6613  1.3747  0.8485
 4688TIP3   OH214069   4.813   5.183   4.424  0.3171  0.6215  0.2652
 4688TIP3    H114070   4.755   5.160   4.351  0.6988 -0.7486  0.3650
 4688TIP3    H214071   4.776   5.264   4.460  0.0253  1.2179 -1.3244
 4689TIP3   OH214072   2.119   5.807   3.099  0.0435 -0.0063  0.0885
 4689TIP3    H114073   2.038   5.756   3.090  0.0981 -0.7001  2.7452
 4689TIP3    H214074   2.168   5.787   3.019 -0.9242 -2.3664 -0.0125
 4690TIP3   OH214075   4.366   0.352   3.783  0.1080  0.4620 -0.6331
 4690TIP3    H114076   4.414   0.354   3.866  0.2671 -2.8360 -0.5259
 4690TIP3    H214077   4.417   0.409   3.725  1.1196  1.2487  0.9451
 4691TIP3   OH214078   5.398   0.909   4.090 -0.2302  0.1827 -0.4388
 4691TIP3    H114079   5.431   0.947   4.172  0.0862  0.6217 -0.7658
 4691TIP3    H214080   5.307   0.887   4.109 -0.0176 -0.1745  0.1861
 4692TIP3   OH214081   2.808   1.314   2.184 -0.4030  0.1766 -0.3181
 4692TIP3    H114082   2.879   1.264   2.144 -0.0846  1.0747 -0.9025
 4692TIP3    H214083   2.734   1.304   2.124 -0.2638  0.5959 -0.5666
 4693TIP3   OH214084   3.801   2.198   1.704  0.3261  0.1628  0.2442
 4693TIP3    H114085   3.796   2.278   1.651  1.4617  0.6206  0.8162
 4693TIP3    H214086   3.882   2.155   1.676 -0.4188 -0.9725 -0.2799
 4694TIP3   OH214087   2.110   2.087   4.550 -0.0577  0.1725 -0.4002
 4694TIP3    H114088   2.099   2.175   4.513  1.8700  0.8478  0.5218
 4694TIP3    H214089   2.084   2.028   4.479  0.7681  1.4509 -1.8340
 4695TIP3   OH214090   0.960   1.597   0.342  0.2350 -0.4796  0.6472
 4695TIP3    H114091   0.983   1.579   0.251 -0.5667  1.6925 -0.0387
 4695TIP3    H214092   1.044   1.599   0.388  0.8109  0.1372 -0.3995
 4696TIP3   OH214093   3.096   5.690   4.167 -0.2886 -0.1064 -0.1605
 4696TIP3    H114094   3.131   5.772   4.132 -1.0298  0.4088  0.2910
 4696TIP3    H214095   3.078   5.637   4.090 -1.2617  0.7527 -0.5398
 4697TIP3   OH214096   1.448   4.325   0.772 -0.1652 -0.0447 -0.1714
 4697TIP3    H114097   1.504   4.285   0.706  0.8089  2.1152 -0.7553
 4697TIP3    H214098   1.461   4.271   0.850 -0.3097 -1.8654 -1.3395
 4698TIP3   OH214099   1.436   1.815   0.694 -0.0972  0.2945 -0.0062
 4698TIP3    H114100   1.464   1.778   0.778  0.3747  1.9586  0.6191
 4698TIP3    H214101   1.505   1.877   0.671 -2.0943  2.8713  0.4557
 4699TIP3   OH214102   3.426   0.030   3.943  0.3988 -0.2885  0.4532
 4699TIP3    H114103   3.391   0.083   4.015  0.1912 -0.2565  0.3315
 4699TIP3    H214104   3.521   0.036   3.952  0.3783  0.2159  0.3645
 4700TIP3   OH214105   3.320   0.321   0.731 -0.2350  0.1721  0.7659
 4700TIP3    H114106   3.326   0.246   0.790  1.7702 -0.3159  0.0212
 4700TIP3    H214107   3.237   0.308   0.685  0.3741 -2.0318  0.1419
 4701TIP3   OH214108   6.144   3.049   2.163  0.0072 -0.4138  0.7041
 4701TIP3    H114109   6.117   2.957   2.169  0.7770 -0.8563 -1.6212
 4701TIP3    H214110   6.133   3.071   2.071  1.0573  1.4599  0.9746
 4702TIP3   OH214111   3.789   4.047   2.953  0.1927  0.3104  0.3647
 4702TIP3    H114112   3.744   4.125   2.985 -2.4552 -0.2737 -1.5741
 4702TIP3    H214113   3.730   3.975   2.976  0.5656 -0.6127 -1.4164
 4703TIP3   OH214114   4.460   1.547   2.600 -0.0928 -0.1437 -0.0347
 4703TIP3    H114115   4.478   1.496   2.521 -1.9816 -0.4076 -0.3414
 4703TIP3    H214116   4.375   1.514   2.631  0.4671  0.1752  1.9386
 4704TIP3   OH214117   6.217   0.735   2.024  0.0656  0.5238 -0.3602
 4704TIP3    H114118   6.199   0.820   2.065 -0.1586 -0.1425  0.9790
 4704TIP3    H214119   6.311   0.723   2.033  0.2884  1.1378 -1.6215
 4705TIP3   OH214120   0.323   1.469   1.769  0.3119 -0.6496  0.4794
 4705TIP3    H114121   0.348   1.416   1.845 -0.5518 -1.2089  0.3864
 4705TIP3    H214122   0.285   1.406   1.708  1.0410 -0.2186 -0.4466
 4706TIP3   OH214123   1.190   4.152   0.873  1.1272 -0.0357  0.1266
 4706TIP3    H114124   1.134   4.076   0.862  1.7645 -0.7397  1.4422
 4706TIP3    H214125   1.177   4.204   0.794 -1.3451 -0.1610  0.3875
 4707TIP3   OH214126   3.722   5.435   2.899 -0.1599 -0.4187  0.1951
 4707TIP3    H114127   3.640   5.385   2.901 -0.0716 -0.5529  0.5493
 4707TIP3    H214128   3.775   5.394   2.831 -0.2871 -0.4884  0.1379
 4708TIP3   OH214129   3.045   2.828   4.207  0.2653 -0.2413  0.0320
 4708TIP3    H114130   2.981   2.861   4.144  1.3289 -1.9487 -2.0436
 4708TIP3    H214131   2.992   2.789   4.277 -1.0090 -1.5778 -1.6066
 4709TIP3   OH214132   0.890   1.378   2.198 -0.1550 -0.4924  0.1744
 4709TIP3    H114133   0.930   1.414   2.278 -0.8559 -0.3856  0.4789
 4709TIP3    H214134   0.798   1.368   2.220 -0.6234  0.8342 -1.0870
 4710TIP3   OH214135   2.430   4.217   1.336  0.1150  0.2977 -0.1356
 4710TIP3    H114136   2.434   4.311   1.350  0.2155  0.2524  0.1368
 4710TIP3    H214137   2.521   4.188   1.341  0.0943  0.1975 -0.3073
 4711TIP3   OH214138   1.959   2.804   5.008  0.2499  0.0489 -0.0576
 4711TIP3    H114139   1.899   2.762   5.070  0.3624 -1.1807 -0.7644
 4711TIP3    H214140   1.989   2.882   5.055  0.7802 -1.1385  1.6845
 4712TIP3   OH214141   2.881   3.210   4.544  0.4490  0.1833  0.1137
 4712TIP3    H114142   2.962   3.159   4.541  0.8469  0.6665  1.5967
 4712TIP3    H214143   2.883   3.264   4.465  1.5973  0.2176  0.1493
 4713TIP3   OH214144   6.040   1.834   3.559  0.4620  0.4058  0.4285
 4713TIP3    H114145   5.997   1.812   3.477 -2.9168  0.5053  2.0034
 4713TIP3    H214146   6.065   1.926   3.549  0.8319  0.2010 -0.7275
 4714TIP3   OH214147   5.084   0.585   2.280  0.2848  0.2014  0.3995
 4714TIP3    H114148   5.056   0.623   2.363  1.5557  1.5374  0.2561
 4714TIP3    H214149   5.010   0.530   2.253 -1.5534  2.3303  0.7786
 4715TIP3   OH214150   3.253   2.398   2.892 -0.3988  0.2776  0.0181
 4715TIP3    H114151   3.316   2.355   2.833 -0.8683 -0.2861 -0.0839
 4715TIP3    H214152   3.214   2.468   2.840 -0.3252  0.2104 -0.1282
 4716TIP3   OH214153   3.710   3.190   0.417  0.1471 -0.2812 -0.4176
 4716TIP3    H114154   3.744   3.175   0.505 -1.3475 -1.0113  0.0634
 4716TIP3    H214155   3.615   3.179   0.425 -0.1069  0.5081 -1.9461
 4717TIP3   OH214156   4.061   2.436   2.656 -0.0832  0.2739 -0.6225
 4717TIP3    H114157   3.970   2.440   2.627 -0.5175 -0.2875  0.5795
 4717TIP3    H214158   4.098   2.360   2.612 -0.7142 -0.5282  0.1989
 4718TIP3   OH214159   2.124   4.861   2.928  0.3151 -0.4208  0.3575
 4718TIP3    H114160   2.117   4.818   3.013 -2.4362  0.6343  0.7618
 4718TIP3    H214161   2.079   4.801   2.868  0.4256 -0.1945  0.0467
 4719TIP3   OH214162   5.349   5.424   2.350  0.7338  0.2280 -0.0138
 4719TIP3    H114163   5.341   5.335   2.384 -0.7793 -0.7136 -2.5177
 4719TIP3    H214164   5.259   5.456   2.343  1.2486  2.0649  0.9973
 4720TIP3   OH214165   4.286   3.029   4.665 -0.0955 -0.1181  0.0568
 4720TIP3    H114166   4.214   3.019   4.727  0.1641 -1.3792  0.1763
 4720TIP3    H214167   4.309   2.940   4.640  0.6559  0.3176 -0.8795
 4721TIP3   OH214168   5.772   2.966   2.301  0.2686 -0.3134  0.0012
 4721TIP3    H114169   5.718   3.018   2.242 -0.8698  0.0399  1.3001
 4721TIP3    H214170   5.756   3.004   2.388  0.0163 -2.3254  0.8843
 4722TIP3   OH214171   4.693   0.336   1.594  0.4170  0.1811  0.6043
 4722TIP3    H114172   4.679   0.426   1.564  1.4023  0.0551 -0.2749
 4722TIP3    H214173   4.728   0.346   1.682 -1.2936  0.5840  1.2987
 4723TIP3   OH214174   4.462   3.635   2.250  0.7595 -0.0669 -0.3822
 4723TIP3    H114175   4.421   3.601   2.170  0.7485  1.5158 -1.0778
 4723TIP3    H214176   4.394   3.628   2.316  0.0879  0.4781 -1.0027
 4724TIP3   OH214177   5.372   0.573   2.310 -0.0491  0.0912 -0.1515
 4724TIP3    H114178   5.277   0.560   2.317  0.0886 -0.9439 -0.0425
 4724TIP3    H214179   5.399   0.601   2.398 -0.4172  1.5713 -0.4976
 4725TIP3   OH214180   0.317   1.685   4.644 -0.4865  0.0408  0.4198
 4725TIP3    H114181   0.406   1.722   4.648  0.1894 -1.0104 -2.5923
 4725TIP3    H214182   0.269   1.735   4.710  2.0218  1.5051  1.3248
 4726TIP3   OH214183   5.390   1.945   1.736 -0.5901  0.2602  0.5619
 4726TIP3    H114184   5.336   1.927   1.659  0.5517 -0.2136 -0.1674
 4726TIP3    H214185   5.339   1.913   1.810 -0.9828 -0.8757 -0.1744
 4727TIP3   OH214186   4.960   2.741   0.811 -0.3242  0.0519  0.6842
 4727TIP3    H114187   5.015   2.744   0.890  0.9810  0.8112 -0.2211
 4727TIP3    H214188   5.022   2.744   0.738 -1.4686 -1.3422 -0.4102
 4728TIP3   OH214189   5.007   0.071   1.161 -0.0860 -0.4605  0.2101
 4728TIP3    H114190   5.018   0.124   1.082 -0.7345 -2.3225 -1.1996
 4728TIP3    H214191   5.081   0.094   1.216  0.2519  1.0655 -0.8292
 4729TIP3   OH214192   5.184   5.109   3.721  0.2932 -0.7898  0.7761
 4729TIP3    H114193   5.210   5.046   3.788 -0.8050  0.9611  2.9931
 4729TIP3    H214194   5.095   5.134   3.744 -0.7849 -1.2372 -2.3273
 4730TIP3   OH214195   0.450   4.082   3.691  0.2237 -0.1282  0.0919
 4730TIP3    H114196   0.384   4.104   3.757  0.3091  1.8160 -0.4064
 4730TIP3    H214197   0.465   3.988   3.702 -1.5702 -0.3296  1.1646
 4731TIP3   OH214198   6.071   5.196   3.209  0.0282  0.1217 -0.3725
 4731TIP3    H114199   6.014   5.256   3.256 -0.4719  0.1554 -1.0053
 4731TIP3    H214200   6.082   5.236   3.122  1.5706  0.4569 -0.0436
 4732TIP3   OH214201   6.280   2.033   3.595  0.5489 -0.2353  0.0366
 4732TIP3    H114202   6.260   2.042   3.502  2.3408  1.1462 -0.2795
 4732TIP3    H214203   6.209   2.078   3.641 -1.4068 -2.5929 -0.4780
 4733TIP3   OH214204   0.848   0.367   1.574 -0.4013 -0.2211  0.0723
 4733TIP3    H114205   0.761   0.330   1.559 -0.2306 -0.9337  0.7886
 4733TIP3    H214206   0.831   0.458   1.599 -0.7715  0.5287 -2.6166
 4734TIP3   OH214207   2.449   4.582   4.325  0.2026  0.6351 -0.5541
 4734TIP3    H114208   2.404   4.666   4.332  0.0233  0.5444 -0.6254
 4734TIP3    H214209   2.503   4.590   4.246 -0.0792  0.5543 -0.7534
 4735TIP3   OH214210   5.715   0.910   4.856 -0.6230 -0.3476  0.3832
 4735TIP3    H114211   5.674   0.904   4.770  0.2430  0.1152 -0.0727
 4735TIP3    H214212   5.768   0.989   4.852  1.3747 -1.6175  0.4835
 4736TIP3   OH214213   3.369   4.081   1.973 -0.4447 -0.4416  0.2868
 4736TIP3    H114214   3.292   4.094   1.917 -0.7504 -1.5699  0.4147
 4736TIP3    H214215   3.364   4.150   2.038 -1.0277 -0.1482 -0.0683
 4737TIP3   OH214216   5.271   2.936   3.659 -0.3371  0.5429 -0.2146
 4737TIP3    H114217   5.193   2.988   3.644 -1.1069 -0.3370  0.6248
 4737TIP3    H214218   5.310   2.926   3.572 -1.2281  0.8741 -0.6661
 4738TIP3   OH214219   3.729   1.053   4.348 -0.4056 -0.1307  0.2239
 4738TIP3    H114220   3.750   1.130   4.402 -0.2060  0.0803 -0.1562
 4738TIP3    H214221   3.752   0.979   4.404  0.1049  0.0897  0.3121
 4739TIP3   OH214222   3.291   4.251   4.699  0.1963  0.0955 -0.5774
 4739TIP3    H114223   3.324   4.284   4.783  1.0010 -0.7319 -0.5510
 4739TIP3    H214224   3.357   4.277   4.635  0.9915 -1.6197 -0.5170
 4740TIP3   OH214225   6.155   3.546   1.747 -0.0651 -0.1576 -0.0536
 4740TIP3    H114226   6.221   3.564   1.681  1.3814 -1.1140  1.0839
 4740TIP3    H214227   6.195   3.573   1.830 -0.9851 -0.9995  0.6990
 4741TIP3   OH214228   1.298   1.676   1.655  0.5666 -0.1348 -0.3375
 4741TIP3    H114229   1.331   1.695   1.743  0.4850 -0.2460 -0.2845
 4741TIP3    H214230   1.203   1.681   1.663  0.4855 -1.7436 -0.0573
 4742TIP3   OH214231   1.029   4.951   3.354 -0.7056  0.0283  0.3169
 4742TIP3    H114232   1.042   4.903   3.273 -0.0450 -1.4877  1.2884
 4742TIP3    H214233   1.044   5.043   3.330  0.4218 -0.4846 -1.0623
 4743TIP3   OH214234   2.014   1.033   4.026 -0.4746  0.1496 -0.4577
 4743TIP3    H114235   1.991   1.059   4.115  1.0066 -0.6916  0.2104
 4743TIP3    H214236   1.931   1.004   3.987 -1.4164  1.9604  0.1020
 4744TIP3   OH214237   4.893   2.083   4.341 -0.9375  0.0075  0.2821
 4744TIP3    H114238   4.891   2.048   4.430  0.8747  0.5095  0.5725
 4744TIP3    H214239   4.813   2.051   4.300 -0.8917 -1.7811  1.5061
 4745TIP3   OH214240   6.135   4.674   1.218 -0.4627  0.2865  0.6111
 4745TIP3    H114241   6.176   4.756   1.191  0.8121  0.2284  2.2748
 4745TIP3    H214242   6.042   4.697   1.228 -0.4117  1.0985 -0.4846
 4746TIP3   OH214243   3.078   2.134   2.281 -0.0750 -0.4604  0.2994
 4746TIP3    H114244   3.063   2.202   2.214 -1.2206 -0.3745  0.6227
 4746TIP3    H214245   3.117   2.181   2.354  0.9646 -0.5123 -0.1991
 4747TIP3   OH214246   0.742   1.362   0.708  0.7398 -0.0648 -0.2200
 4747TIP3    H114247   0.775   1.352   0.618 -0.0985  0.1048 -0.5613
 4747TIP3    H214248   0.673   1.428   0.700  3.2827  3.0081  1.2504
 4748TIP3   OH214249   4.438   2.250   1.562 -0.4705 -0.4897  0.1116
 4748TIP3    H114250   4.510   2.192   1.539 -1.2011 -0.9147 -1.1994
 4748TIP3    H214251   4.396   2.209   1.637 -0.7570 -1.4768 -0.5748
 4749TIP3   OH214252   1.313   2.132   4.133  0.0998 -0.0858 -0.2268
 4749TIP3    H114253   1.315   2.210   4.077 -1.6620 -0.0836 -0.3303
 4749TIP3    H214254   1.221   2.121   4.156  0.6953 -0.3525  2.3289
 4750TIP3   OH214255   5.615   5.870   1.977 -0.4637  0.8172  0.2175
 4750TIP3    H114256   5.641   5.956   2.010 -1.6966  1.3600 -0.1676
 4750TIP3    H214257   5.570   5.888   1.895 -0.2087 -0.2601 -0.1880
 4751TIP3   OH214258   2.732   0.886   0.900 -0.8228 -0.5834  0.7654
 4751TIP3    H114259   2.643   0.860   0.925 -1.4903 -0.6462 -1.4451
 4751TIP3    H214260   2.734   0.981   0.914 -0.8102 -0.7436  1.9588
 4752TIP3   OH214261   2.808   2.829   0.460 -0.2768  0.5201 -0.2814
 4752TIP3    H114262   2.720   2.836   0.497  0.2830  1.4373  0.9474
 4752TIP3    H214263   2.866   2.838   0.535  0.8751  0.3652 -1.1364
 4753TIP3   OH214264   1.914   0.083   3.436  0.5869 -0.3379  0.0632
 4753TIP3    H114265   1.840   0.022   3.430 -0.4219  0.8844 -0.1335
 4753TIP3    H214266   1.972   0.058   3.363 -0.0558 -0.7314 -0.3189
 4754TIP3   OH214267   3.321   1.399   4.339 -0.4790  0.0514 -0.2428
 4754TIP3    H114268   3.347   1.426   4.251 -1.3741 -0.2007 -0.6034
 4754TIP3    H214269   3.384   1.441   4.398  1.7618 -1.8977 -1.1424
 4755TIP3   OH214270   1.362   4.659   0.489  0.4380 -0.6787 -0.8808
 4755TIP3    H114271   1.452   4.693   0.487  0.0422  0.5478  0.5159
 4755TIP3    H214272   1.351   4.616   0.404  0.9696  2.6993 -2.8355
 4756TIP3   OH214273   6.288   5.805   3.912  0.0819 -0.1869 -0.8918
 4756TIP3    H114274   6.233   5.871   3.869 -1.1968 -1.0914 -0.7148
 4756TIP3    H214275   6.225   5.744   3.952  1.2148 -0.1699  1.0417
 4757TIP3   OH214276   0.849   0.985   3.719  0.4401 -0.2432 -0.1411
 4757TIP3    H114277   0.914   1.043   3.757  2.0959 -1.6002 -0.7937
 4757TIP3    H214278   0.839   0.915   3.783 -1.2067  0.4645  0.4336
 4758TIP3   OH214279   0.433   5.479   2.441 -0.8769 -0.3884  0.5660
 4758TIP3    H114280   0.412   5.559   2.392  0.4085  0.0898  0.7583
 4758TIP3    H214281   0.499   5.506   2.504 -0.2944 -1.6414  0.5265
 4759TIP3   OH214282   1.512   3.219   1.376  0.7744 -0.1475  0.2119
 4759TIP3    H114283   1.454   3.243   1.304  0.2460  1.1298  1.0067
 4759TIP3    H214284   1.527   3.302   1.423  1.3105 -0.8870  1.4065
 4760TIP3   OH214285   1.929   1.827   3.910  0.2344 -0.6925 -0.6121
 4760TIP3    H114286   2.017   1.854   3.885  1.7294 -0.4009  3.9692
 4760TIP3    H214287   1.917   1.741   3.869  3.8072 -1.9286  0.5754
 4761TIP3   OH214288   4.385   2.751   0.126 -0.2752  0.1032 -0.5801
 4761TIP3    H114289   4.399   2.671   0.177 -4.0647  0.3531  1.1980
 4761TIP3    H214290   4.327   2.724   0.054 -0.5099  1.0224 -0.7481
 4762TIP3   OH214291   1.184   3.937   2.676  0.0679  0.1165 -0.9560
 4762TIP3    H114292   1.184   4.008   2.741  1.0017 -0.4061 -0.3638
 4762TIP3    H214293   1.243   3.871   2.713  0.3591 -0.3325 -2.1957
 4763TIP3   OH214294   4.488   1.889   2.064  0.4469  0.3715  0.6339
 4763TIP3    H114295   4.416   1.933   2.111  1.1576 -0.9935  3.1735
 4763TIP3    H214296   4.502   1.943   1.987 -1.7565  1.9886  1.2560
 4764TIP3   OH214297   5.631   3.918   4.409  0.2736  0.0586 -0.3785
 4764TIP3    H114298   5.702   3.906   4.346 -1.7993  0.5390 -3.0088
 4764TIP3    H214299   5.591   4.002   4.384  0.0484  0.9053  2.4165
 4765TIP3   OH214300   3.965   0.434   0.751 -0.4132 -0.0379 -0.0622
 4765TIP3    H114301   3.893   0.416   0.812 -1.0117 -0.9230 -0.9936
 4765TIP3    H214302   4.044   0.422   0.803 -0.9206 -0.1446  0.7020
 4766TIP3   OH214303   2.537   0.566   4.346  0.5927  0.2825  0.2114
 4766TIP3    H114304   2.557   0.514   4.269  0.1872 -2.7453  1.9741
 4766TIP3    H214305   2.609   0.548   4.407  0.0303  1.1697  1.1777
 4767TIP3   OH214306   0.303   3.474   4.590  0.0921  0.7867 -0.3958
 4767TIP3    H114307   0.305   3.530   4.667 -0.9543  0.1151  0.1344
 4767TIP3    H214308   0.395   3.466   4.564  0.6536 -0.2868  1.7484
 4768TIP3   OH214309   3.004   2.566   3.906 -0.0344  0.3061  0.4276
 4768TIP3    H114310   2.995   2.505   3.833  1.2991 -2.1922  2.1682
 4768TIP3    H214311   3.027   2.649   3.866  0.5225 -0.9265 -1.9823
 4769TIP3   OH214312   4.920   0.267   0.961  0.5465 -0.1269 -0.1720
 4769TIP3    H114313   4.863   0.208   0.911  0.3860  0.3526 -0.5556
 4769TIP3    H214314   4.980   0.303   0.896 -0.2505  1.2122 -0.2081
 4770TIP3   OH214315   2.485   4.195   3.003  0.5782 -0.0096  0.4089
 4770TIP3    H114316   2.508   4.189   2.910 -1.4823  0.9846 -0.2243
 4770TIP3    H214317   2.446   4.282   3.012  0.2738 -0.2901  2.1022
 4771TIP3   OH214318   5.032   5.201   3.185 -0.1245 -0.5039 -0.2131
 4771TIP3    H114319   5.009   5.263   3.255  1.0044 -0.3044  0.0104
 4771TIP3    H214320   5.035   5.116   3.229  1.4823 -0.2559  0.2182
 4772TIP3   OH214321   0.112   1.056   2.857  0.4952 -0.4629 -0.6746
 4772TIP3    H114322   0.139   0.965   2.852  0.8651 -0.3754 -0.3524
 4772TIP3    H214323   0.188   1.102   2.892 -0.0065 -0.1787  0.0649
 4773TIP3   OH214324   1.586   3.921   0.914 -0.4865 -0.0709 -0.4528
 4773TIP3    H114325   1.570   4.015   0.925 -0.0325  0.0706 -0.9493
 4773TIP3    H214326   1.678   3.916   0.889 -0.1074 -0.7486  0.9438
 4774TIP3   OH214327   5.070   0.982   4.376  0.5524 -0.3524 -0.0153
 4774TIP3    H114328   5.111   0.953   4.457  1.5223  1.1482  0.0720
 4774TIP3    H214329   5.085   1.077   4.374  0.7345 -0.3754 -2.0313
 4775TIP3   OH214330   3.578   2.025   1.464  0.1489 -0.1000  0.8497
 4775TIP3    H114331   3.583   2.105   1.412  1.5220 -0.4084  0.4496
 4775TIP3    H214332   3.591   2.054   1.554  2.9680 -0.0277  0.5166
 4776TIP3   OH214333   2.776   3.399   0.635  0.6795  0.6606 -0.6073
 4776TIP3    H114334   2.785   3.494   0.630 -2.3872  1.0520 -0.7509
 4776TIP3    H214335   2.681   3.385   0.641  1.1315 -2.2562  2.0845
 4777TIP3   OH214336   3.002   1.450   1.873  0.3315  0.1937 -0.1297
 4777TIP3    H114337   3.052   1.496   1.940  0.0543  0.5094 -0.1329
 4777TIP3    H214338   3.044   1.365   1.865  0.4954  0.2315  0.2960
 4778TIP3   OH214339   4.204   5.624   1.838 -0.1395 -0.3860  0.3072
 4778TIP3    H114340   4.285   5.602   1.792  0.8122  0.6442  1.4151
 4778TIP3    H214341   4.204   5.566   1.915 -0.6736 -0.6632  0.1043
 4779TIP3   OH214342   5.618   3.608   1.692  0.2555 -0.3071 -0.1206
 4779TIP3    H114343   5.690   3.626   1.753  0.6937  0.3587 -0.8079
 4779TIP3    H214344   5.615   3.513   1.685  0.0853 -0.4019  1.0616
 4780TIP3   OH214345   2.836   1.055   1.599  0.3354  0.0235 -0.1840
 4780TIP3    H114346   2.822   1.147   1.620  0.3736  0.1480 -0.6837
 4780TIP3    H214347   2.920   1.054   1.553  0.1629 -0.2118 -0.4979
 4781TIP3   OH214348   1.306   1.347   1.531  0.4185  0.0691 -0.3820
 4781TIP3    H114349   1.373   1.281   1.547  1.7600  1.5131  0.2194
 4781TIP3    H214350   1.241   1.333   1.599  1.2755  0.0851  0.4599
 4782TIP3   OH214351   1.937   2.335   1.860  0.6676 -0.0407  0.5026
 4782TIP3    H114352   1.888   2.278   1.920  1.6116  0.5732  1.9140
 4782TIP3    H214353   1.870   2.374   1.804 -0.2446 -0.6702  1.1345
 4783TIP3   OH214354   2.895   3.694   2.185 -0.3114  0.5284  0.4899
 4783TIP3    H114355   2.903   3.637   2.261  4.5823  1.3628  0.9137
 4783TIP3    H214356   2.962   3.761   2.198  1.4660  0.2495 -4.9035
 4784TIP3   OH214357   2.821   5.337   4.580 -0.0657 -0.7035  0.1274
 4784TIP3    H114358   2.790   5.416   4.624 -0.5310 -0.5613 -0.4328
 4784TIP3    H214359   2.857   5.369   4.497 -1.1895 -1.1656 -0.5576
 4785TIP3   OH214360   1.867   1.705   4.497 -0.3215  0.0729 -0.1674
 4785TIP3    H114361   1.874   1.761   4.420  0.6989 -0.1107 -0.2223
 4785TIP3    H214362   1.786   1.656   4.484  0.0204 -0.2028 -1.2839
 4786TIP3   OH214363   5.551   2.872   2.059 -0.2667  0.2455  0.6304
 4786TIP3    H114364   5.461   2.869   2.025 -0.4427  0.0432  1.1071
 4786TIP3    H214365   5.580   2.962   2.044  0.8685 -0.5792 -3.1385
 4787TIP3   OH214366   1.898   2.444   3.557 -0.3216  0.2979 -0.1097
 4787TIP3    H114367   1.891   2.533   3.593 -0.7849  0.2310 -0.0222
 4787TIP3    H214368   1.851   2.389   3.620  0.1029 -0.0356 -0.0801
 4788TIP3   OH214369   5.222   1.611   2.291  0.5137 -0.0960  0.6978
 4788TIP3    H114370   5.296   1.552   2.306  0.0697 -0.7102  0.5077
 4788TIP3    H214371   5.150   1.573   2.341 -0.0250 -0.2333 -0.1611
 4789TIP3   OH214372   5.388   2.279   1.179  0.0108 -0.0811  0.3206
 4789TIP3    H114373   5.357   2.307   1.092 -3.8434 -1.3383  1.0914
 4789TIP3    H214374   5.456   2.215   1.160  0.5420  0.9568 -1.6792
 4790TIP3   OH214375   2.192   0.205   3.778  0.4112 -0.0186 -0.4899
 4790TIP3    H114376   2.241   0.263   3.836 -1.9435  1.2886  0.2972
 4790TIP3    H214377   2.205   0.243   3.691 -1.1459  1.8386  0.0201
 4791TIP3   OH214378   2.368   4.978   3.707 -0.0029 -0.2851  0.2378
 4791TIP3    H114379   2.317   4.913   3.754 -2.4884  0.9007 -0.6419
 4791TIP3    H214380   2.382   4.939   3.620  3.1325 -1.7631  1.2631
 4792TIP3   OH214381   1.076   2.356   0.169 -0.1953  0.7110 -0.3736
 4792TIP3    H114382   1.156   2.344   0.118  0.4047  0.5645  0.5782
 4792TIP3    H214383   1.078   2.448   0.196  1.2280  0.0362  2.1508
 4793TIP3   OH214384   2.724   5.022   3.531 -0.0738 -0.1107 -0.0024
 4793TIP3    H114385   2.808   5.054   3.499 -0.6849  0.3142 -1.2281
 4793TIP3    H214386   2.663   5.037   3.459 -1.7725  1.9083  1.7249
 4794TIP3   OH214387   0.728   0.120   0.114  0.7992 -0.0435  0.1187
 4794TIP3    H114388   0.808   0.070   0.098  0.4992 -0.1142 -1.3058
 4794TIP3    H214389   0.704   0.154   0.028  1.5756  3.5014  1.1550
 4795TIP3   OH214390   5.570   5.292   4.812  0.4723 -0.0546 -0.6052
 4795TIP3    H114391   5.649   5.245   4.837 -0.4834 -1.8283 -0.8107
 4795TIP3    H214392   5.538   5.247   4.734 -2.4585 -1.4565  1.2310
 4796TIP3   OH214393   1.380   3.755   4.806  0.2768  0.0217 -0.0748
 4796TIP3    H114394   1.294   3.796   4.803  0.8746  1.2484 -1.0287
 4796TIP3    H214395   1.440   3.820   4.769  1.6158 -0.8194  0.5222
 4797TIP3   OH214396   5.439   4.688   4.608  0.0384  0.5193  0.5262
 4797TIP3    H114397   5.396   4.653   4.530 -0.3228  0.7469  0.6220
 4797TIP3    H214398   5.439   4.615   4.670 -1.1225  0.8118  0.8893
 4798TIP3   OH214399   0.966   2.002   1.378 -0.4610 -0.5762  0.0512
 4798TIP3    H114400   1.031   1.937   1.403 -0.3968 -0.5541 -0.0570
 4798TIP3    H214401   1.013   2.086   1.382 -0.9232 -0.3574  1.6342
 4799TIP3   OH214402   2.740   4.163   0.368  0.2674  0.3498 -0.1760
 4799TIP3    H114403   2.670   4.107   0.334 -0.1971  0.3784  0.7180
 4799TIP3    H214404   2.694   4.236   0.410  0.8486  0.6481 -0.0490
 4800TIP3   OH214405   4.393   1.592   0.113 -0.3307  0.1746  0.4718
 4800TIP3    H114406   4.472   1.623   0.157  1.0240 -0.1066 -1.6567
 4800TIP3    H214407   4.328   1.660   0.129  0.7724  1.1257  1.0276
 4801TIP3   OH214408   3.331   1.860   0.241  0.3619 -0.1652 -0.2271
 4801TIP3    H114409   3.296   1.839   0.154  2.2095 -0.3087 -0.9683
 4801TIP3    H214410   3.388   1.787   0.263 -1.3498 -0.9699  1.9096
 4802TIP3   OH214411   1.788   4.040   1.236  0.3195 -0.2721 -0.1416
 4802TIP3    H114412   1.776   4.116   1.179  0.8718 -0.1741 -0.1344
 4802TIP3    H214413   1.806   3.967   1.176  1.3949 -0.0710 -0.0826
 4803TIP3   OH214414   6.212   4.005   0.214  0.0689  0.2796 -0.6837
 4803TIP3    H114415   6.231   4.043   0.300  1.2378 -1.0072 -0.3411
 4803TIP3    H214416   6.121   3.976   0.221  0.0384  0.5130 -0.0058
 4804TIP3   OH214417   3.426   4.767   1.717 -0.1376 -0.2615  0.0374
 4804TIP3    H114418   3.521   4.777   1.721 -0.2945  1.2309  0.3329
 4804TIP3    H214419   3.410   4.733   1.629  0.7421 -1.7289  0.3977
 4805TIP3   OH214420   3.955   0.625   1.804  0.2626 -0.0571 -0.0575
 4805TIP3    H114421   3.936   0.686   1.876 -0.9080 -0.5085  0.0476
 4805TIP3    H214422   3.876   0.626   1.750  1.6361  1.3540 -2.1958
 4806TIP3   OH214423   6.310   1.200   2.043 -0.1650  0.6088 -0.3129
 4806TIP3    H114424   6.323   1.283   2.090 -1.3156  0.9467 -0.5582
 4806TIP3    H214425   6.216   1.187   2.044 -0.0189 -0.5320 -0.5874
 4807TIP3   OH214426   4.219   3.519   1.449 -0.1283  0.1616 -0.6761
 4807TIP3    H114427   4.304   3.553   1.475  0.2496 -0.3634 -1.2079
 4807TIP3    H214428   4.201   3.448   1.510  0.2636 -0.3636 -1.1665
 4808TIP3   OH214429   4.298   5.303   1.426 -0.2893 -0.1327 -0.2641
 4808TIP3    H114430   4.251   5.249   1.363 -0.0318  0.1149 -0.6706
 4808TIP3    H214431   4.306   5.388   1.384 -0.2242  0.0719  0.1540
 4809TIP3   OH214432   0.501   4.663   5.013 -0.2607  0.0548  0.2497
 4809TIP3    H114433   0.569   4.625   4.958  1.0869  1.5258  0.8319
 4809TIP3    H214434   0.515   4.758   5.008 -0.8954  0.2950  2.1050
 4810TIP3   OH214435   5.871   2.755   3.314 -0.4976  0.0907 -0.0572
 4810TIP3    H114436   5.929   2.687   3.349 -0.3301 -0.6216 -1.6187
 4810TIP3    H214437   5.925   2.834   3.312  1.0219 -0.8568 -2.7944
 4811TIP3   OH214438   0.552   0.190   1.229  0.1377 -0.5995 -0.0361
 4811TIP3    H114439   0.482   0.129   1.253 -0.3719 -0.5443 -1.2813
 4811TIP3    H214440   0.631   0.136   1.226 -0.2268 -1.1147 -0.6519
 4812TIP3   OH214441   4.823   2.872   4.703 -0.0505 -0.3843  0.1395
 4812TIP3    H114442   4.752   2.831   4.753  1.4151 -1.7852  1.2033
 4812TIP3    H214443   4.848   2.948   4.755  0.0305 -0.5944  0.4120
 4813TIP3   OH214444   1.379   4.679   3.526  0.1700  0.0369  0.1361
 4813TIP3    H114445   1.379   4.773   3.542 -2.0021 -0.0136  0.7661
 4813TIP3    H214446   1.453   4.646   3.576  1.2377  1.4420 -0.4486
 4814TIP3   OH214447   6.207   2.113   1.926  0.3291  0.3838 -0.0136
 4814TIP3    H114448   6.147   2.043   1.901  1.2930 -0.9862  1.3845
 4814TIP3    H214449   6.294   2.073   1.925  0.8616  1.4231  1.2857
 4815TIP3   OH214450   4.105   5.467   2.687 -0.3435  0.0720 -0.6289
 4815TIP3    H114451   4.200   5.459   2.702 -0.4782  1.5515  1.4376
 4815TIP3    H214452   4.099   5.505   2.599  0.8986 -1.1692 -1.3059
 4816TIP3   OH214453   6.013   1.612   2.046  0.0880  0.1080 -0.2148
 4816TIP3    H114454   5.982   1.618   1.956 -0.1704 -0.3593 -0.1597
 4816TIP3    H214455   5.934   1.601   2.099  0.2837 -0.2702  0.0061
 4817TIP3   OH214456   2.821   5.489   5.050 -0.1404 -0.1077  0.4770
 4817TIP3    H114457   2.907   5.493   5.008  0.5247 -2.4321  1.4677
 4817TIP3    H214458   2.812   5.398   5.077 -1.7995  0.6545  2.7466
 4818TIP3   OH214459   5.575   2.155   1.500  0.0563 -0.3192  0.1613
 4818TIP3    H114460   5.609   2.121   1.582  0.0965 -1.1559 -0.1919
 4818TIP3    H214461   5.484   2.177   1.518  0.7861  2.2151  1.2011
 4819TIP3   OH214462   3.794   4.330   2.131  0.2445  0.0420  0.4503
 4819TIP3    H114463   3.830   4.249   2.166  0.7720  0.0888  0.0137
 4819TIP3    H214464   3.729   4.357   2.197 -1.7321 -1.9817 -0.5256
 4820TIP3   OH214465   1.167   1.291   1.102  0.3560 -0.3944 -0.1785
 4820TIP3    H114466   1.228   1.352   1.143 -0.8897  0.9168 -0.2345
 4820TIP3    H214467   1.195   1.289   1.010  1.8184 -1.7134  0.2452
 4821TIP3   OH214468   2.198   5.483   4.933 -0.5825 -0.0153 -0.3590
 4821TIP3    H114469   2.250   5.558   4.905  1.9181 -1.4545  0.0732
 4821TIP3    H214470   2.230   5.463   5.021 -2.0845 -0.8278  0.0375
 4822TIP3   OH214471   1.742   1.965   2.932 -0.3886  0.1990  0.0569
 4822TIP3    H114472   1.694   2.047   2.945  0.7079  0.8692  0.0360
 4822TIP3    H214473   1.707   1.906   2.999  0.5019  1.4782  1.7506
 4823TIP3   OH214474   4.222   1.413   4.463  0.0981  0.2926  0.5360
 4823TIP3    H114475   4.232   1.431   4.557 -0.7943  0.3897  0.6303
 4823TIP3    H214476   4.294   1.354   4.442  1.0335  1.2247  1.0056
 4824TIP3   OH214477   5.634   4.837   1.571  0.0660 -0.6518 -0.9777
 4824TIP3    H114478   5.572   4.871   1.507  1.1525 -0.6683 -2.0793
 4824TIP3    H214479   5.672   4.760   1.529  1.0715 -0.4464 -0.4808
 4825TIP3   OH214480   3.503   4.009   4.491  0.6666  0.6817  0.2608
 4825TIP3    H114481   3.412   4.029   4.511  0.1578 -0.4336 -0.8182
 4825TIP3    H214482   3.500   3.956   4.411  2.1903 -0.0840  0.6587
 4826TIP3   OH214483   5.973   5.572   1.302  0.0027 -0.4335 -0.5426
 4826TIP3    H114484   5.895   5.622   1.278 -0.2454  0.2511  1.4924
 4826TIP3    H214485   6.037   5.638   1.328  0.0533 -1.0627  1.0931
 4827TIP3   OH214486   6.282   1.691   3.259  0.2292  0.3071  0.5068
 4827TIP3    H114487   6.302   1.667   3.169 -0.0167 -0.1956  0.5878
 4827TIP3    H214488   6.344   1.761   3.279  2.1509 -1.4094  0.8455
 4828TIP3   OH214489   1.261   4.557   2.439 -0.4673 -0.1810 -0.1924
 4828TIP3    H114490   1.190   4.514   2.391  0.3350  1.6366 -3.2637
 4828TIP3    H214491   1.217   4.628   2.486 -1.0628 -0.9667  0.4585
 4829TIP3   OH214492   1.418   1.061   1.234 -0.0641 -0.0750 -0.1587
 4829TIP3    H114493   1.335   1.084   1.275  0.0606 -0.1602  0.1454
 4829TIP3    H214494   1.468   1.019   1.304  0.3827  0.3242 -0.2338
 4830TIP3   OH214495   0.424   0.396   0.055 -0.0903 -0.0852  0.7990
 4830TIP3    H114496   0.366   0.472   0.054 -0.2288 -0.1381  2.5737
 4830TIP3    H214497   0.507   0.429   0.018 -0.2040  0.8886  1.3808
 4831TIP3   OH214498   5.907   4.359   3.539 -0.1716 -0.5868 -0.3251
 4831TIP3    H114499   5.912   4.452   3.519  0.4902 -0.8940 -1.6535
 4831TIP3    H214500   5.842   4.325   3.478  0.2664 -1.1559 -0.4789
 4832TIP3   OH214501   0.772   5.310  -0.003 -0.4945  0.0659  0.1941
 4832TIP3    H114502   0.801   5.275   0.081 -1.5067 -1.8273 -0.1984
 4832TIP3    H214503   0.760   5.233  -0.059 -3.3965  0.9209 -0.5326
 4833TIP3   OH214504   4.029   0.824   4.972  0.3189 -0.1334 -0.0833
 4833TIP3    H114505   3.988   0.738   4.981 -0.1683  0.0487 -0.5018
 4833TIP3    H214506   4.028   0.841   4.878  0.3811  0.3478  0.0004
 4834TIP3   OH214507   3.237   3.266   0.013  0.3196  0.3463  0.1159
 4834TIP3    H114508   3.160   3.320   0.028  0.1425  0.4981 -1.2481
 4834TIP3    H214509   3.308   3.312   0.058 -0.4021  0.0780  1.5972
 4835TIP3   OH214510   2.002   0.704   4.350  0.2466  0.0677  0.0124
 4835TIP3    H114511   1.994   0.744   4.436  1.4775  3.0796 -1.1409
 4835TIP3    H214512   2.068   0.635   4.362  1.0052  0.9841  1.3168
 4836TIP3   OH214513   1.143   0.466   2.868  0.0158 -0.1339 -0.6223
 4836TIP3    H114514   1.122   0.382   2.827 -2.7085 -0.4495  1.1455
 4836TIP3    H214515   1.101   0.531   2.812  2.6198  0.2456 -2.3238
 4837TIP3   OH214516   1.264   4.235   4.199  0.0180  0.2732 -0.6084
 4837TIP3    H114517   1.312   4.161   4.235 -0.0088 -0.1276 -1.3752
 4837TIP3    H214518   1.172   4.208   4.201 -0.2562  1.1718  1.1799
 4838TIP3   OH214519   3.125   2.152   5.190  0.4148  0.1202  0.0491
 4838TIP3    H114520   3.163   2.160   5.103  1.1135  0.4432  0.3707
 4838TIP3    H214521   3.191   2.105   5.241  0.4220  0.7339  0.6356
 4839TIP3   OH214522   2.873   3.438   3.120  0.5063 -0.0872 -0.5722
 4839TIP3    H114523   2.874   3.391   3.203 -1.0084  0.8833  0.0419
 4839TIP3    H214524   2.965   3.446   3.096  0.9207 -1.2798  0.4788
 4840TIP3   OH214525   1.605   2.614   5.002  0.2580  0.1471  0.1957
 4840TIP3    H114526   1.622   2.686   5.063  1.9744  1.3189 -1.5516
 4840TIP3    H214527   1.682   2.611   4.946 -1.9410  0.3953 -3.1336
 4841TIP3   OH214528   5.111   5.445   2.621  0.0399 -0.2200 -0.6169
 4841TIP3    H114529   5.191   5.465   2.669  0.2084  0.7783 -1.2880
 4841TIP3    H214530   5.070   5.375   2.671  0.7463  0.0562  0.3785
 4842TIP3   OH214531   4.119   1.629   3.194 -0.0259 -0.5670 -0.1400
 4842TIP3    H114532   4.083   1.699   3.139 -0.6193  0.5615  1.5951
 4842TIP3    H214533   4.081   1.645   3.281  0.9046 -2.2494  0.6240
 4843TIP3   OH214534   0.173   5.263   0.444 -0.0233  0.1000  0.7511
 4843TIP3    H114535   0.193   5.343   0.396  2.4839 -0.4017  0.8274
 4843TIP3    H214536   0.120   5.292   0.518 -0.9192  1.3636 -0.3318
 4844TIP3   OH214537   1.286   0.228   3.439 -0.0068  0.5165 -0.1727
 4844TIP3    H114538   1.341   0.228   3.518 -0.8377  1.6550  0.4225
 4844TIP3    H214539   1.197   0.236   3.471 -0.4909 -0.4979 -1.1780
 4845TIP3   OH214540   5.333   1.461   0.968 -0.1989  0.6477  0.0655
 4845TIP3    H114541   5.278   1.383   0.975 -1.1562  1.1049 -1.8946
 4845TIP3    H214542   5.279   1.532   1.001 -0.0635  0.7996 -0.0363
 4846TIP3   OH214543   5.574   0.146   1.257  0.2978  0.5163 -0.4489
 4846TIP3    H114544   5.662   0.117   1.282 -0.2484  0.0366  0.9807
 4846TIP3    H214545   5.546   0.082   1.191  1.1927  0.9585 -1.2922
 4847TIP3   OH214546   1.746   4.715   3.964 -0.2009 -0.7196 -0.5112
 4847TIP3    H114547   1.723   4.668   3.883 -0.0715 -0.5437 -0.6520
 4847TIP3    H214548   1.707   4.662   4.034 -0.6496 -0.6660 -0.7136
 4848TIP3   OH214549   3.141   2.127   2.860  0.3045 -0.1854  0.0905
 4848TIP3    H114550   3.099   2.121   2.774 -0.0593 -1.7346  0.3562
 4848TIP3    H214551   3.164   2.220   2.869 -0.3272  0.1316 -1.3519
 4849TIP3   OH214552   2.071   5.614   2.608  0.0876 -0.4215  0.0290
 4849TIP3    H114553   2.048   5.669   2.533 -0.1407 -0.7161 -0.1172
 4849TIP3    H214554   2.079   5.526   2.571 -1.4782 -0.8368  0.5950
 4850TIP3   OH214555   1.887   4.716   4.294  0.3210  0.0857 -0.2695
 4850TIP3    H114556   1.967   4.688   4.248  0.7418  1.7283 -0.6151
 4850TIP3    H214557   1.816   4.687   4.238  0.7260 -0.2168 -0.6375
 4851TIP3   OH214558   3.396   4.892   2.388 -0.2716 -0.3775 -0.2893
 4851TIP3    H114559   3.406   4.941   2.470 -0.7557  0.3525 -0.6523
 4851TIP3    H214560   3.476   4.911   2.339 -0.1172 -0.5668 -0.1092
 4852TIP3   OH214561   1.870   4.878   1.234  0.3597  0.4467 -0.2894
 4852TIP3    H114562   1.917   4.832   1.165 -0.2569  1.4973 -1.4517
 4852TIP3    H214563   1.938   4.903   1.296  0.8433 -1.0133 -0.1964
 4853TIP3   OH214564   0.881   0.321   4.376  0.1035 -0.4184  0.7434
 4853TIP3    H114565   0.839   0.280   4.452 -2.9234 -0.6884 -0.9482
 4853TIP3    H214566   0.932   0.251   4.336  1.0727 -0.4808  2.0016
 4854TIP3   OH214567   0.307   2.533   4.351  0.4247 -0.6324  0.0953
 4854TIP3    H114568   0.296   2.474   4.277  0.2234  0.0055 -0.3979
 4854TIP3    H214569   0.391   2.510   4.389  0.6436 -0.8049 -0.4859
 4855TIP3   OH214570   2.319   4.279   4.642 -0.0754 -0.0601 -0.1502
 4855TIP3    H114571   2.381   4.233   4.699  0.0434  1.8537  1.3333
 4855TIP3    H214572   2.252   4.213   4.623 -0.2819 -0.7272  2.4682
 4856TIP3   OH214573   4.238   2.624   1.501  0.0131 -0.0430 -0.4147
 4856TIP3    H114574   4.204   2.645   1.588 -0.8242  0.2230 -0.7922
 4856TIP3    H214575   4.180   2.672   1.441 -0.7173 -1.8419 -1.2110
 4857TIP3   OH214576   5.480   3.415   2.294 -0.2143 -0.1979 -0.2432
 4857TIP3    H114577   5.545   3.377   2.353 -0.9108  0.3320  0.8823
 4857TIP3    H214578   5.412   3.450   2.351 -1.3561 -0.4680 -1.3864
 4858TIP3   OH214579   2.411   0.248   5.156 -0.3213  0.1297 -0.1350
 4858TIP3    H114580   2.425   0.313   5.087  1.2785 -0.9597 -0.9023
 4858TIP3    H214581   2.478   0.267   5.222 -1.1233  0.4670  0.6055
 4859TIP3   OH214582   3.634   0.157   3.114  0.4083 -0.0090 -0.2003
 4859TIP3    H114583   3.726   0.148   3.089 -0.0783  0.2403 -2.1914
 4859TIP3    H214584   3.585   0.111   3.046 -1.0837  2.2504 -0.7930
 4860TIP3   OH214585   1.867   3.964   0.138  0.0311 -0.7773  0.2906
 4860TIP3    H114586   1.843   4.019   0.063  0.0183 -2.1757 -0.7683
 4860TIP3    H214587   1.790   3.909   0.152  0.8804 -2.1566 -0.2150
 4861TIP3   OH214588   1.002   1.194   0.458  0.2675 -0.1652 -0.5156
 4861TIP3    H114589   0.970   1.160   0.374  2.0621 -0.6214 -1.0628
 4861TIP3    H214590   0.962   1.280   0.466 -0.1464 -0.2299 -1.7099
 4862TIP3   OH214591   5.677   5.123   0.029 -0.1469  0.4609  0.1235
 4862TIP3    H114592   5.610   5.164   0.083  0.5192  0.9462  0.5869
 4862TIP3    H214593   5.721   5.061   0.087  0.1121  0.4806 -0.0468
 4863TIP3   OH214594   5.905   3.921   2.522  0.2833 -0.5763  0.0510
 4863TIP3    H114595   5.961   3.862   2.573  2.2833 -0.3599 -1.7075
 4863TIP3    H214596   5.924   3.898   2.431 -0.0884  1.6893 -0.6635
 4864TIP3   OH214597   3.838   3.701   2.666  0.1297 -0.3933 -0.2327
 4864TIP3    H114598   3.861   3.633   2.603  2.4269  1.3999 -1.4540
 4864TIP3    H214599   3.789   3.766   2.615  2.8735  1.5674 -0.5674
 4865TIP3   OH214600   0.493   2.977   2.866 -0.0904 -0.6300 -0.4059
 4865TIP3    H114601   0.427   3.013   2.807 -0.2962 -1.0290 -0.4291
 4865TIP3    H214602   0.449   2.902   2.907  0.7721 -1.7457 -1.4404
 4866TIP3   OH214603   1.344   2.976   5.057 -0.3574  0.2368  0.0691
 4866TIP3    H114604   1.278   3.044   5.070 -0.3145  0.3120 -0.1031
 4866TIP3    H214605   1.408   3.015   4.999 -0.6650 -0.1695 -0.5603
 4867TIP3   OH214606   4.576   1.958   5.003 -0.3172 -0.3965  0.0485
 4867TIP3    H114607   4.603   1.880   5.051  0.9389  0.4271  0.7418
 4867TIP3    H214608   4.636   1.962   4.928 -0.4751 -0.1932 -0.0684
 4868TIP3   OH214609   4.545   4.390   4.513  0.0252  0.0235  0.1302
 4868TIP3    H114610   4.551   4.481   4.484 -0.5929 -0.3434 -1.2240
 4868TIP3    H214611   4.523   4.396   4.606  1.0277  1.2421  0.3112
 4869TIP3   OH214612   4.771   1.539   4.917  0.4597  0.4830  0.4587
 4869TIP3    H114613   4.798   1.461   4.868 -0.4333  0.9161 -0.7507
 4869TIP3    H214614   4.852   1.570   4.958  1.9848  1.7849 -3.1071
 4870TIP3   OH214615   0.847   5.032   1.653 -0.0991  0.1280  0.2174
 4870TIP3    H114616   0.932   5.051   1.692  1.1832  2.0138 -3.1031
 4870TIP3    H214617   0.862   4.955   1.599 -0.7566 -0.0938  0.3431
 4871TIP3   OH214618   5.137   2.214   1.956 -0.3398  0.2143  0.3877
 4871TIP3    H114619   5.051   2.236   1.922  0.1263 -0.7013 -1.5727
 4871TIP3    H214620   5.148   2.121   1.934  0.9454  0.1976  1.0010
 4872TIP3   OH214621   3.677   5.129   3.530 -0.3006 -0.5929 -1.1623
 4872TIP3    H114622   3.664   5.141   3.436 -1.9926  1.5574 -0.7328
 4872TIP3    H214623   3.608   5.068   3.557 -0.5073 -0.3573 -1.1537
 4873TIP3   OH214624   5.267   3.279   0.019 -0.0887 -0.2311 -0.3018
 4873TIP3    H114625   5.212   3.357   0.026 -0.5935 -0.6879  1.1218
 4873TIP3    H214626   5.319   3.279   0.099 -0.5838 -1.7209  0.0561
 4874TIP3   OH214627   4.101   0.754   4.037 -0.2641  0.1212  0.3536
 4874TIP3    H114628   4.062   0.808   3.969  0.9195  0.5808  0.0174
 4874TIP3    H214629   4.195   0.774   4.033  0.4270 -2.8664 -0.6240
 4875TIP3   OH214630   4.768   0.982   4.889 -0.0256  0.0296  0.1529
 4875TIP3    H114631   4.701   0.919   4.862 -0.5771  0.2090  1.0665
 4875TIP3    H214632   4.744   1.063   4.843  0.6055 -0.3745 -0.9145
 4876TIP3   OH214633   5.059   2.843   4.936  0.4919 -0.3155 -0.0048
 4876TIP3    H114634   5.000   2.896   4.883  2.3008  0.4087 -1.4396
 4876TIP3    H214635   5.044   2.872   5.026 -1.9113 -0.8138 -0.1790
 4877TIP3   OH214636   1.891   3.416   2.637  0.4428  0.0710 -0.1425
 4877TIP3    H114637   1.872   3.322   2.627 -0.1396  0.3366 -1.8893
 4877TIP3    H214638   1.903   3.428   2.731 -1.0475 -1.4711  0.3010
 4878TIP3   OH214639   1.306   1.995   2.386  0.3906  0.2532 -0.3803
 4878TIP3    H114640   1.233   1.955   2.434  0.6765 -0.4850 -0.5444
 4878TIP3    H214641   1.315   1.941   2.308  0.9109  0.5296 -0.5137
 4879TIP3   OH214642   5.855   2.605   4.185 -0.1544  0.1512 -0.2195
 4879TIP3    H114643   5.853   2.542   4.113  0.1950  0.7962 -0.7986
 4879TIP3    H214644   5.925   2.573   4.242  1.1696  0.9101 -1.3601
 4880TIP3   OH214645   1.233   4.180   1.915 -0.3725 -0.0217  0.2699
 4880TIP3    H114646   1.229   4.160   2.008  0.4870 -0.0595  0.3043
 4880TIP3    H214647   1.283   4.261   1.909  1.2326 -0.9955 -0.2630
 4881TIP3   OH214648   0.958   2.489   2.394 -0.0798  0.1912 -0.3179
 4881TIP3    H114649   1.033   2.521   2.345  0.2762 -0.4527 -0.2072
 4881TIP3    H214650   0.950   2.549   2.468 -0.6846  1.2278 -1.2008
 4882TIP3   OH214651   2.834   0.642   3.689  0.2807 -0.3623  0.0097
 4882TIP3    H114652   2.870   0.722   3.728  0.0524  0.6471 -1.7469
 4882TIP3    H214653   2.880   0.571   3.733  0.2503  0.7060  1.8576
 4883TIP3   OH214654   5.125   1.942   1.874  0.0085 -0.1670 -0.4848
 4883TIP3    H114655   5.097   1.868   1.927 -1.2788  0.7539  0.1815
 4883TIP3    H214656   5.080   1.931   1.790  0.9218 -0.8644 -0.8954
 4884TIP3   OH214657   4.714   3.240   0.628  0.0111  0.0385 -0.6671
 4884TIP3    H114658   4.761   3.166   0.667 -0.0805  0.3188 -0.0062
 4884TIP3    H214659   4.705   3.303   0.700 -2.3490 -0.4553 -0.4353
 4885TIP3   OH214660   4.719   5.046   3.883  0.8292 -0.0558 -0.2081
 4885TIP3    H114661   4.650   5.068   3.821 -1.2176 -0.1710  1.8919
 4885TIP3    H214662   4.717   4.951   3.888 -0.5368  0.0051  1.5231
 4886TIP3   OH214663   5.888   1.961   0.740  0.6540  0.3739  0.0243
 4886TIP3    H114664   5.873   1.887   0.799  1.4464  1.2227  1.3607
 4886TIP3    H214665   5.924   2.029   0.797  2.2925  0.9488 -1.5956
 4887TIP3   OH214666   5.145   0.283   1.553 -0.3172 -0.6238 -0.0302
 4887TIP3    H114667   5.207   0.282   1.627  0.0245 -0.8333 -0.3167
 4887TIP3    H214668   5.123   0.376   1.543  0.1652 -0.5138 -0.0996
 4888TIP3   OH214669   3.874   1.693   2.304 -0.0048 -0.0316 -0.3804
 4888TIP3    H114670   3.815   1.717   2.376  0.3867  0.5876 -0.2526
 4888TIP3    H214671   3.889   1.776   2.258  1.1274 -0.0746 -0.1336
 4889TIP3   OH214672   2.332   3.185   2.266  0.6569  0.6592 -0.3089
 4889TIP3    H114673   2.286   3.171   2.349  1.7088  1.0324  0.3641
 4889TIP3    H214674   2.310   3.108   2.213 -1.7526  1.3996 -0.5311
 4890TIP3   OH214675   2.815   5.215   5.082  0.0796  0.5583  0.1627
 4890TIP3    H114676   2.800   5.203   5.176 -0.8525 -0.8433 -0.1255
 4890TIP3    H214677   2.786   5.132   5.043  3.0859 -0.0271 -1.1057
 4891TIP3   OH214678   5.937   0.894   0.964 -0.1355 -0.4911 -0.0636
 4891TIP3    H114679   5.935   0.836   0.887  0.3164 -1.1321  0.4013
 4891TIP3    H214680   6.023   0.934   0.961 -0.8370  1.0504 -1.0128
 4892TIP3   OH214681   0.768   3.882   1.718  0.5649  0.1515  0.0906
 4892TIP3    H114682   0.758   3.887   1.623  0.6110  2.7630  0.1483
 4892TIP3    H214683   0.680   3.900   1.752  1.2246  3.0989  0.4888
 4893TIP3   OH214684   5.641   2.129   1.161  0.6018 -0.3712 -0.6874
 4893TIP3    H114685   5.710   2.175   1.207 -0.0622  0.1157 -0.1598
 4893TIP3    H214686   5.626   2.050   1.212 -0.3856  0.3426  0.1787
 4894TIP3   OH214687   0.392   1.684  -0.003 -0.3494  0.1207 -0.1087
 4894TIP3    H114688   0.357   1.735   0.070 -0.3204  1.8336 -1.2214
 4894TIP3    H214689   0.316   1.660  -0.055 -0.2905 -0.2664 -0.0148
 4895TIP3   OH214690   5.095   2.726   4.611 -0.5363 -0.1303 -0.2977
 4895TIP3    H114691   5.058   2.662   4.550 -0.5952  0.5001 -0.9338
 4895TIP3    H214692   5.088   2.684   4.696 -1.8029 -0.4400 -0.5334
 4896TIP3   OH214693   1.752   2.815   1.277 -0.2671  0.7084  0.5501
 4896TIP3    H114694   1.766   2.758   1.202  0.2320  1.7472 -0.1665
 4896TIP3    H214695   1.701   2.762   1.338 -2.4718  0.5092 -1.3482
 4897TIP3   OH214696   4.657   4.386   3.528  0.2026 -0.3766  0.2441
 4897TIP3    H114697   4.694   4.316   3.475  0.7290  0.2201 -0.1998
 4897TIP3    H214698   4.691   4.370   3.616 -0.8564 -1.4990  0.4670
 4898TIP3   OH214699   3.767   3.342   2.461 -0.1387 -0.3636 -0.0871
 4898TIP3    H114700   3.768   3.387   2.376 -0.2581 -1.3117 -0.6116
 4898TIP3    H214701   3.857   3.349   2.493 -0.1598  0.2529 -0.1451
 4899TIP3   OH214702   3.107   4.766   2.810 -0.2176 -0.0200  0.0969
 4899TIP3    H114703   3.171   4.695   2.817 -2.0937 -1.9945 -1.4527
 4899TIP3    H214704   3.103   4.785   2.716 -1.4765  0.4922  0.2353
 4900TIP3   OH214705   1.587   5.895   0.293  0.3352 -0.2713 -0.4207
 4900TIP3    H114706   1.542   5.862   0.216  0.1014  1.3311 -1.0105
 4900TIP3    H214707   1.603   5.987   0.274  0.4665  0.1128  1.3561
 4901TIP3   OH214708   3.135   1.282   0.515  0.6193  0.2773  0.7360
 4901TIP3    H114709   3.053   1.281   0.566  1.2104 -1.0105  1.7021
 4901TIP3    H214710   3.108   1.310   0.428 -0.6907  0.8768  1.2968
 4902TIP3   OH214711   1.650   2.693   4.498  0.0839  0.2505  0.5838
 4902TIP3    H114712   1.699   2.775   4.489 -0.3192  0.3021 -1.6882
 4902TIP3    H214713   1.701   2.629   4.450  0.3241 -0.8443  2.2300
 4903TIP3   OH214714   1.563   1.761   0.929 -0.5966  0.8837  0.1389
 4903TIP3    H114715   1.605   1.847   0.929  1.5402  0.0354  3.3087
 4903TIP3    H214716   1.528   1.751   1.018 -1.3976 -1.2550 -0.3399
 4904TIP3   OH214717   6.124   5.547   5.021 -0.0950  0.1639 -0.1441
 4904TIP3    H114718   6.130   5.517   4.930 -0.7732 -0.7374  0.0975
 4904TIP3    H214719   6.080   5.476   5.067 -0.8112  1.1111  0.6656
 4905TIP3   OH214720   0.690   1.090   0.851  0.1608  0.1766  0.4795
 4905TIP3    H114721   0.735   1.162   0.807  0.0771  1.1999  1.9840
 4905TIP3    H214722   0.761   1.032   0.881  0.3317  0.4194  0.5538
 4906TIP3   OH214723   4.729   0.877   0.888  0.5278  0.4081 -0.2690
 4906TIP3    H114724   4.719   0.972   0.883  0.9599  0.4369 -0.7035
 4906TIP3    H214725   4.685   0.852   0.969  0.8870  1.0465  0.1349
 4907TIP3   OH214726   4.622   3.645   4.146 -0.0976  0.3068 -0.0525
 4907TIP3    H114727   4.699   3.591   4.127  0.5209  1.0612  0.2567
 4907TIP3    H214728   4.647   3.695   4.224 -1.2733 -0.1535  0.6515
 4908TIP3   OH214729   4.755   2.540   4.809 -0.0407  0.4105  0.1205
 4908TIP3    H114730   4.703   2.619   4.823 -0.4237  0.0518  0.8116
 4908TIP3    H214731   4.740   2.516   4.718 -1.3146  0.1597  0.3815
 4909TIP3   OH214732   4.128   3.297   4.254  0.4474  0.0264  0.3110
 4909TIP3    H114733   4.139   3.206   4.279  0.9749 -0.0959 -0.3350
 4909TIP3    H214734   4.034   3.314   4.263  0.5116 -0.2131  1.6152
 4910TIP3   OH214735   2.959   0.520   2.172 -0.0497  0.7266 -0.3529
 4910TIP3    H114736   3.045   0.539   2.136  0.1184  0.1864 -0.2396
 4910TIP3    H214737   2.941   0.430   2.146 -0.0091  0.3899  0.7204
 4911TIP3   OH214738   2.631   0.028   3.716  0.1546  0.3719 -0.2830
 4911TIP3    H114739   2.661   0.025   3.807  1.6436  0.0243 -0.7542
 4911TIP3    H214740   2.595   0.116   3.706 -2.0662 -0.2853  1.2127
 4912TIP3   OH214741   5.580   4.103   3.909  0.0705 -0.6761 -0.4001
 4912TIP3    H114742   5.653   4.135   3.963  0.6321 -1.1032 -0.8890
 4912TIP3    H214743   5.507   4.161   3.931  0.2785 -0.8319  0.8164
 4913TIP3   OH214744   3.429   3.686   4.131 -0.3564 -0.3986  0.8773
 4913TIP3    H114745   3.367   3.754   4.158  0.3707 -0.2237  2.1485
 4913TIP3    H214746   3.386   3.604   4.156 -1.5718 -0.5133 -1.3250
 4914TIP3   OH214747   6.144   3.980   4.718  0.1624  0.5305  0.0062
 4914TIP3    H114748   6.121   3.888   4.729  2.5973  0.0311  1.9911
 4914TIP3    H214749   6.062   4.023   4.693 -1.5296 -1.8261  1.1300
 4915TIP3   OH214750   2.095   5.785   0.502 -0.2799 -0.6587 -0.2424
 4915TIP3    H114751   2.075   5.762   0.593 -0.6431 -0.3992 -0.2556
 4915TIP3    H214752   2.010   5.794   0.460 -0.1132 -0.7048 -0.5903
 4916TIP3   OH214753   3.575   5.127   0.508 -0.2590 -0.3162 -0.5026
 4916TIP3    H114754   3.608   5.110   0.420  0.7636 -1.2199  0.0409
 4916TIP3    H214755   3.485   5.094   0.507 -0.2210 -0.4106 -1.1712
 4917TIP3   OH214756   2.291   1.594   2.208 -0.0387  0.1802  0.5964
 4917TIP3    H114757   2.219   1.602   2.271 -0.0010  1.4748  0.4998
 4917TIP3    H214758   2.370   1.612   2.260  0.1309 -0.2714  0.4976
 4918TIP3   OH214759   2.870   0.472   1.824  0.6655 -0.3084 -0.0655
 4918TIP3    H114760   2.935   0.411   1.789  0.6830  0.5436 -1.5865
 4918TIP3    H214761   2.829   0.423   1.896  3.0966 -0.7939  1.1200
 4919TIP3   OH214762   2.124   3.159   4.473 -0.4652  0.7549  0.3239
 4919TIP3    H114763   2.072   3.079   4.477  0.5529  0.0474 -0.0429
 4919TIP3    H214764   2.084   3.217   4.537 -0.0332 -0.7861  2.0937
 4920TIP3   OH214765   1.200   1.051   5.086  0.1954 -0.3250  0.2095
 4920TIP3    H114766   1.248   1.011   5.015 -0.2947 -2.3095  0.9306
 4920TIP3    H214767   1.119   1.084   5.045  1.2289  1.3094 -0.6416
 4921TIP3   OH214768   3.684   1.256   2.785  0.3182  0.5657 -0.3685
 4921TIP3    H114769   3.593   1.263   2.756  0.3161  0.9156 -0.2851
 4921TIP3    H214770   3.680   1.200   2.863  0.3226 -0.3695 -1.0259
 4922TIP3   OH214771   2.341   5.788   3.274  0.0555  0.2161  0.1812
 4922TIP3    H114772   2.264   5.809   3.221 -0.1363  0.6441  0.6135
 4922TIP3    H214773   2.406   5.756   3.212 -0.6133 -0.5533 -0.1417
 4923TIP3   OH214774   4.375   3.772   1.481 -0.4495  0.0491  0.2323
 4923TIP3    H114775   4.360   3.810   1.395  0.2707  0.7074  0.3845
 4923TIP3    H214776   4.337   3.835   1.542  1.4104  0.9596  0.5321
 4924TIP3   OH214777   0.096   1.305   0.283 -0.4489 -0.0260 -0.0536
 4924TIP3    H114778   0.014   1.277   0.325 -0.9448  1.5795  0.1066
 4924TIP3    H214779   0.164   1.278   0.345 -0.7615 -1.9191 -0.4632
 4925TIP3   OH214780   4.414   3.478   3.496 -0.1624  0.4236  0.4790
 4925TIP3    H114781   4.380   3.449   3.580  0.5956  1.3526  1.1221
 4925TIP3    H214782   4.483   3.541   3.518  0.1940  0.5189 -0.8285
 4926TIP3   OH214783   1.106   5.832   1.369 -0.0692  0.4720  0.1917
 4926TIP3    H114784   1.098   5.745   1.408 -0.3576  1.0899  1.5668
 4926TIP3    H214785   1.049   5.830   1.293 -0.1928 -0.4896  0.2996
 4927TIP3   OH214786   3.372   5.598   2.137  0.2181  0.5028  0.6080
 4927TIP3    H114787   3.352   5.579   2.228  1.4555 -0.7811  0.6425
 4927TIP3    H214788   3.386   5.512   2.097 -2.0783  0.8992 -1.2474
 4928TIP3   OH214789   5.659   3.697   5.030 -0.7018  0.3017 -0.3150
 4928TIP3    H114790   5.646   3.677   5.123 -1.6265  0.4107 -0.4074
 4928TIP3    H214791   5.665   3.611   4.988  0.3832  0.2543 -0.0750
 4929TIP3   OH214792   2.022   3.904   2.284  0.2656 -0.1212  0.3025
 4929TIP3    H114793   2.068   3.885   2.201  1.0514  3.7983 -0.3356
 4929TIP3    H214794   2.082   3.872   2.352  1.6174  0.3725 -0.6060
 4930TIP3   OH214795   0.103   2.945   2.971  0.3639  0.0676 -0.4658
 4930TIP3    H114796   0.126   3.038   2.964 -0.4857  0.3374  0.0657
 4930TIP3    H214797   0.172   2.907   3.025 -0.5088  0.9083  1.3349
 4931TIP3   OH214798   0.385   3.251   4.898 -0.7907  0.0381 -0.0409
 4931TIP3    H114799   0.480   3.255   4.906 -0.7359  2.3894 -1.0353
 4931TIP3    H214800   0.353   3.322   4.953 -2.1016 -1.4093  1.1819
 4932TIP3   OH214801   0.323   0.013   4.167  0.1750  0.9597 -0.3227
 4932TIP3    H114802   0.239   0.028   4.123 -1.0444  0.0546  1.5661
 4932TIP3    H214803   0.306   0.031   4.259  1.9976  0.4905  0.1544
 4933TIP3   OH214804   4.792   0.614   1.815  0.3432 -0.0406 -0.2791
 4933TIP3    H114805   4.845   0.570   1.748 -0.1085 -0.0930 -0.6002
 4933TIP3    H214806   4.822   0.576   1.897  0.9022  0.0249 -0.4447
 4934TIP3   OH214807   2.873   5.557   1.742 -0.4847  0.3486  0.1623
 4934TIP3    H114808   2.867   5.526   1.832  1.2034  1.9891  0.9049
 4934TIP3    H214809   2.937   5.500   1.701 -1.5474 -0.6530 -0.1468
 4935TIP3   OH214810   3.737   2.913   0.553  0.1228  0.2096  0.4092
 4935TIP3    H114811   3.680   2.946   0.484  1.4268 -1.2473 -1.4546
 4935TIP3    H214812   3.691   2.837   0.588  0.1509  0.0449  0.0872
 4936TIP3   OH214813   1.682   5.189   4.296  0.3987  0.0597 -0.2640
 4936TIP3    H114814   1.714   5.108   4.335 -1.4499 -0.1379  0.9795
 4936TIP3    H214815   1.659   5.245   4.370 -0.9005  0.6399 -1.0531
 4937TIP3   OH214816   5.107   4.457   4.552  0.3242 -0.0846 -0.5475
 4937TIP3    H114817   5.116   4.373   4.508  0.1405 -1.1426  1.3433
 4937TIP3    H214818   5.195   4.493   4.555  0.9218 -1.5912  1.1907
 4938TIP3   OH214819   5.151   0.909   2.973  0.5349 -0.3176  0.0864
 4938TIP3    H114820   5.102   0.990   2.987 -0.6701 -1.0248  0.1136
 4938TIP3    H214821   5.203   0.898   3.053 -0.6087 -0.4518  0.8397
 4939TIP3   OH214822   1.156  -0.008   2.197  0.1067 -0.1996  0.0495
 4939TIP3    H114823   1.194   0.016   2.281  3.1792  2.5279 -1.8678
 4939TIP3    H214824   1.097   0.064   2.176 -1.5758 -1.4456  0.2848
 4940TIP3   OH214825   5.575   2.530   3.173  0.1742  0.1390 -1.0170
 4940TIP3    H114826   5.525   2.608   3.150 -0.9869 -0.7361 -1.5564
 4940TIP3    H214827   5.562   2.520   3.267  0.3977  0.6378 -0.9315
 4941TIP3   OH214828   4.787   1.684   1.583 -0.1009 -0.7173  0.4398
 4941TIP3    H114829   4.725   1.749   1.553 -0.9523 -1.5295  0.3922
 4941TIP3    H214830   4.821   1.719   1.665  0.4736  0.4013 -0.2485
 4942TIP3   OH214831   1.356   1.748   3.826 -0.2234 -0.3998  0.0503
 4942TIP3    H114832   1.400   1.663   3.820 -1.0651 -0.9177  0.9446
 4942TIP3    H214833   1.353   1.780   3.735  0.4458 -1.1372 -0.2440
 4943TIP3   OH214834   1.954   0.081   1.058 -0.3304 -0.0110  0.0932
 4943TIP3    H114835   1.973   0.144   1.127 -0.6519 -2.2116  2.3057
 4943TIP3    H214836   1.860   0.089   1.044 -0.1966  0.7508 -0.4741
 4944TIP3   OH214837   1.382   4.873   2.655  0.6185  0.1144  0.2121
 4944TIP3    H114838   1.430   4.790   2.660  1.5149  0.5108 -1.0906
 4944TIP3    H214839   1.320   4.861   2.584 -0.0488  0.1860  0.7746
 4945TIP3   OH214840   6.077   0.267   2.196 -0.4792  0.3945 -0.0771
 4945TIP3    H114841   6.069   0.235   2.107  0.6998 -1.2112  0.3434
 4945TIP3    H214842   6.016   0.341   2.201 -2.1703 -0.7996 -1.5847
 4946TIP3   OH214843   5.106   4.530   3.600  0.1731  0.6340  0.0159
 4946TIP3    H114844   5.022   4.515   3.557  1.0927  1.3081 -2.1098
 4946TIP3    H214845   5.171   4.493   3.541  1.3971 -0.3442  1.8608
 4947TIP3   OH214846   6.067   4.356   0.069  0.5828  0.1929  0.8557
 4947TIP3    H114847   6.044   4.267   0.041  1.1286  0.6310 -1.2141
 4947TIP3    H214848   6.038   4.411  -0.004  1.1490  1.6023  1.6731
 4948TIP3   OH214849   2.125   4.152   4.943 -0.1497 -0.2250 -0.3448
 4948TIP3    H114850   2.117   4.191   4.856 -1.7054  0.8078  0.1911
 4948TIP3    H214851   2.042   4.104   4.955 -0.6814  0.9692  1.1239
 4949TIP3   OH214852   5.091   5.309   1.371  0.2037  0.3022 -0.0763
 4949TIP3    H114853   5.017   5.369   1.386 -0.0888  0.4801 -2.0164
 4949TIP3    H214854   5.127   5.336   1.286  1.3809 -0.9418 -0.0004
 4950TIP3   OH214855   0.895   4.069   1.283  0.1057  0.0181  0.1538
 4950TIP3    H114856   0.937   4.151   1.256  0.1700  0.3521  1.2132
 4950TIP3    H214857   0.905   4.011   1.208 -0.3105  1.1139 -0.7688
 4951TIP3   OH214858   3.429   4.295   2.722 -0.0533  0.0629  0.1607
 4951TIP3    H114859   3.365   4.295   2.793 -0.3216 -0.9504 -0.0624
 4951TIP3    H214860   3.402   4.367   2.666 -0.0915  0.6038  0.8643
 4952TIP3   OH214861   4.458   4.531   4.072  0.3229  0.1986 -0.2945
 4952TIP3    H114862   4.375   4.552   4.113 -0.7527 -2.1238 -1.1218
 4952TIP3    H214863   4.519   4.520   4.145 -0.5981 -0.0809  0.4482
 4953TIP3   OH214864   4.602   1.370   4.229  0.7926 -0.1960  0.2325
 4953TIP3    H114865   4.550   1.384   4.150  0.7230 -1.0912  0.1171
 4953TIP3    H214866   4.547   1.315   4.285 -0.4612  2.7748  2.2062
 4954TIP3   OH214867   3.276   3.891   4.235 -0.0474  0.0503  0.4574
 4954TIP3    H114868   3.197   3.882   4.182  0.2222 -2.0287  0.3417
 4954TIP3    H214869   3.245   3.903   4.324 -0.5267 -1.5333  0.5248
 4955TIP3   OH214870   2.944   0.717   0.956 -0.3231  0.5201 -0.5762
 4955TIP3    H114871   2.889   0.789   0.925 -0.6311 -0.3465 -2.1634
 4955TIP3    H214872   2.947   0.657   0.882  1.9187  0.0423 -0.1511
 4956TIP3   OH214873   6.087   2.679   1.905 -0.0537  0.7015 -0.2192
 4956TIP3    H114874   6.162   2.727   1.869  0.1567  0.3979 -0.1936
 4956TIP3    H214875   6.046   2.740   1.966  0.7589  0.5251  0.5159
 4957TIP3   OH214876   5.033   3.234   3.334  0.6904  0.0871  0.7005
 4957TIP3    H114877   5.090   3.260   3.262 -0.1602 -0.1727 -0.0943
 4957TIP3    H214878   4.955   3.197   3.291 -0.2420  0.7765  1.7340
 4958TIP3   OH214879   0.466   1.259   3.293  0.0095 -0.8327  0.0411
 4958TIP3    H114880   0.379   1.217   3.296 -1.2574  1.3343 -2.5986
 4958TIP3    H214881   0.521   1.197   3.245 -0.3877 -1.6758  0.6477
 4959TIP3   OH214882   2.881   1.303   0.585 -0.0275  0.6171  0.0744
 4959TIP3    H114883   2.890   1.216   0.622  0.6264  1.5989  2.4384
 4959TIP3    H214884   2.856   1.289   0.493  1.1661 -2.0162  0.0930
 4960TIP3   OH214885   2.850   0.074   4.368  0.5488  0.4799  0.1898
 4960TIP3    H114886   2.869   0.068   4.461  2.0068 -0.3237 -0.1360
 4960TIP3    H214887   2.933   0.098   4.327 -0.3516  2.1570 -0.7968
 4961TIP3   OH214888   2.696   3.364   4.173 -0.3316  0.3252 -0.8845
 4961TIP3    H114889   2.660   3.381   4.086 -0.4501 -0.4703 -0.9951
 4961TIP3    H214890   2.691   3.269   4.183  0.2427  0.3552 -0.2526
 4962TIP3   OH214891   5.998   2.397   4.941  0.9768 -0.0554  0.0658
 4962TIP3    H114892   5.976   2.397   4.848  0.7896  1.4627  0.0892
 4962TIP3    H214893   5.955   2.319   4.976 -0.7026  0.4721 -0.7304
 4963TIP3   OH214894   5.631   0.809   3.153 -0.1929  0.3483 -0.2198
 4963TIP3    H114895   5.676   0.740   3.202 -1.2202  0.6223  1.1567
 4963TIP3    H214896   5.693   0.881   3.150  0.6861 -0.4101 -1.2120
 4964TIP3   OH214897   2.572   5.392   3.702  0.3025 -0.1565 -0.6958
 4964TIP3    H114898   2.510   5.335   3.748  2.2172  0.1790  2.6106
 4964TIP3    H214899   2.522   5.472   3.684 -0.7622 -0.6315  0.0371
 4965TIP3   OH214900   3.651   4.917   2.246  0.1594  0.4832 -0.2824
 4965TIP3    H114901   3.614   4.924   2.158 -2.0542  2.7581  0.7015
 4965TIP3    H214902   3.714   4.989   2.251 -1.7472  2.1738  0.7880
 4966TIP3   OH214903   2.438   1.951   0.308 -0.1241  0.3589 -0.6897
 4966TIP3    H114904   2.526   1.979   0.282 -0.1057 -0.5762 -1.6885
 4966TIP3    H214905   2.450   1.912   0.394  0.1658  1.6254 -0.1316
 4967TIP3   OH214906   4.172   1.354   1.319  0.2334  0.0128  0.4176
 4967TIP3    H114907   4.202   1.358   1.228  0.0315  1.4779  0.4007
 4967TIP3    H214908   4.249   1.323   1.367  0.0666 -1.7296 -0.3314
 4968TIP3   OH214909   4.337   0.066   0.355  0.3963  0.2518  0.4637
 4968TIP3    H114910   4.271   0.061   0.286  0.2585  0.2641  0.5932
 4968TIP3    H214911   4.314   0.145   0.404  0.9167  0.6307  0.0952
 4969TIP3   OH214912   1.677   5.906   4.810  0.3148 -0.7115 -0.2825
 4969TIP3    H114913   1.750   5.896   4.870  0.8892  0.1070 -0.8260
 4969TIP3    H214914   1.649   5.997   4.820  0.3909 -0.5686 -1.1991
 4970TIP3   OH214915   5.911   1.663   3.087 -0.3848 -0.4515  0.8394
 4970TIP3    H114916   5.932   1.752   3.058 -2.3001 -0.4074 -0.6179
 4970TIP3    H214917   5.993   1.629   3.122  1.7711  0.1587 -3.0709
 4971TIP3   OH214918   0.363   1.387   5.066 -0.4564 -0.5571 -0.3552
 4971TIP3    H114919   0.381   1.293   5.062 -0.1275 -0.4763 -0.8084
 4971TIP3    H214920   0.344   1.412   4.976 -1.3391 -0.3375 -0.1190
 4972TIP3   OH214921   1.782   1.249   0.905 -0.1523  0.1782 -0.1605
 4972TIP3    H114922   1.708   1.307   0.887 -0.3869 -0.4073 -1.0894
 4972TIP3    H214923   1.859   1.306   0.895 -0.3177  0.0905 -2.1717
 4973TIP3   OH214924   1.846   5.930   0.411 -0.2155  0.3237 -0.3762
 4973TIP3    H114925   1.772   5.899   0.360  0.1175 -0.3184 -0.4773
 4973TIP3    H214926   1.916   5.944   0.347 -0.1335  0.5755 -0.2351
 4974TIP3   OH214927   3.782  -0.030   4.461  0.5709  0.4118  0.1549
 4974TIP3    H114928   3.787   0.053   4.509 -0.5477  0.0258  1.0053
 4974TIP3    H214929   3.765  -0.005   4.371  0.9340  1.1308  0.2798
 4975TIP3   OH214930   3.424   1.304   2.704  0.4732  0.4305  0.0923
 4975TIP3    H114931   3.346   1.360   2.701  0.1633 -0.0149 -0.3312
 4975TIP3    H214932   3.419   1.253   2.624  0.5704 -0.4540  0.6406
 4976TIP3   OH214933   0.693   4.418   3.149  0.4338  0.2553  0.5573
 4976TIP3    H114934   0.773   4.469   3.146  0.3152  0.5926  2.0287
 4976TIP3    H214935   0.695   4.376   3.235 -0.4835 -0.5309  0.2125
 4977TIP3   OH214936   3.813   2.712   2.642  0.2074 -0.3858 -0.2257
 4977TIP3    H114937   3.756   2.725   2.566  0.0024  2.2189  0.2863
 4977TIP3    H214938   3.902   2.714   2.607  0.0952  0.2470 -0.4817
 4978TIP3   OH214939   4.586   4.913   2.975 -0.0628  0.0270  0.0463
 4978TIP3    H114940   4.570   4.833   2.923 -0.6415  0.0914  0.1221
 4978TIP3    H214941   4.523   4.908   3.047  1.9829 -1.0315  1.8896
 4979TIP3   OH214942   6.033   5.598   3.190 -0.3580 -0.0032  0.2969
 4979TIP3    H114943   6.126   5.587   3.170 -0.0243  0.5744  1.4249
 4979TIP3    H214944   6.016   5.537   3.261 -0.2178  1.5561  1.7443
 4980TIP3   OH214945   2.941   4.959   1.036 -0.1767 -0.6753  0.0867
 4980TIP3    H114946   2.995   5.025   0.992  0.9805 -2.4296 -1.2456
 4980TIP3    H214947   3.003   4.911   1.091 -1.0755 -0.4610  1.3238
 4981TIP3   OH214948   6.315   5.110   3.321  0.3784  0.1509  0.2561
 4981TIP3    H114949   6.225   5.127   3.291  0.8441  0.2070 -1.2116
 4981TIP3    H214950   6.326   5.016   3.309  0.5641  0.1713  0.2728
 4982TIP3   OH214951   6.032   5.505   3.679 -0.3187  0.8926  0.4312
 4982TIP3    H114952   6.068   5.591   3.655 -1.0920  0.6027 -1.9376
 4982TIP3    H214953   5.942   5.523   3.705 -0.5680  0.7688 -0.3410
 4983TIP3   OH214954   4.728   2.414   4.563 -0.8556 -0.0018  0.0262
 4983TIP3    H114955   4.663   2.345   4.554 -1.2053  0.3540 -0.2344
 4983TIP3    H214956   4.762   2.427   4.475 -1.1631  0.5042 -0.0273
 4984TIP3   OH214957   1.772   0.033   3.044  0.3325 -0.0806 -0.0698
 4984TIP3    H114958   1.719  -0.046   3.058  0.9431 -0.4715  0.0814
 4984TIP3    H214959   1.713   0.105   3.066 -0.1071 -0.5088  0.1898
 4985TIP3   OH214960   2.829   2.244   3.263  0.1428  0.7729  0.2520
 4985TIP3    H114961   2.918   2.221   3.235 -0.0459  0.7505 -0.3405
 4985TIP3    H214962   2.773   2.215   3.192 -0.2064  2.1437 -0.0714
 4986TIP3   OH214963   5.798   2.293   4.761  0.1916  0.3508 -0.0934
 4986TIP3    H114964   5.766   2.374   4.800 -0.6299 -0.4954  1.0272
 4986TIP3    H214965   5.824   2.318   4.672  0.0483  1.8532  0.2648
 4987TIP3   OH214966   3.371   1.027   3.549  0.2236  0.1186  0.3345
 4987TIP3    H114967   3.314   1.006   3.622  0.6632  0.8809  0.9098
 4987TIP3    H214968   3.439   0.960   3.552  0.0909 -0.0102  0.4563
 4988TIP3   OH214969   3.886   5.190   3.088 -0.3536  0.2078 -0.3527
 4988TIP3    H114970   3.825   5.127   3.049 -0.4613  1.0246 -1.5535
 4988TIP3    H214971   3.874   5.270   3.038  1.8592  0.3417 -0.8075
 4989TIP3   OH214972   4.178   1.472   1.714  1.2485  0.5164 -0.7385
 4989TIP3    H114973   4.248   1.418   1.751  0.2072 -0.4246 -0.0571
 4989TIP3    H214974   4.119   1.409   1.673 -0.2566  1.0758  0.4934
 4990TIP3   OH214975   4.134   4.083   0.255 -0.2680 -0.3074 -0.1616
 4990TIP3    H114976   4.104   4.092   0.164  0.8912  0.0227 -0.5266
 4990TIP3    H214977   4.143   3.989   0.268 -0.3593 -0.3532 -0.4207
 4991TIP3   OH214978   2.632   1.021   1.304  0.0217  0.1451  0.3229
 4991TIP3    H114979   2.664   0.935   1.277  0.6791  0.3663  0.3736
 4991TIP3    H214980   2.693   1.048   1.373 -1.0044  0.0463  1.3032
 4992TIP3   OH214981   4.561   1.101   1.686  0.4115  0.4410 -0.1295
 4992TIP3    H114982   4.614   1.100   1.607 -1.5075  0.8047 -1.5078
 4992TIP3    H214983   4.479   1.058   1.661 -0.1412  0.2903  1.7603
 4993TIP3   OH214984   4.895   4.264   0.872 -0.3555  0.1329  0.4535
 4993TIP3    H114985   4.948   4.280   0.793 -0.3761  0.2257  0.4585
 4993TIP3    H214986   4.807   4.245   0.838 -0.2256 -0.4375  0.4241
 4994TIP3   OH214987   6.018   2.501   3.270 -0.1652  0.7311  0.3576
 4994TIP3    H114988   6.029   2.410   3.243 -1.1942  0.9550 -0.9314
 4994TIP3    H214989   5.946   2.534   3.216  0.2112  2.3285  0.7558
 4995TIP3   OH214990   5.715   3.364   5.206  0.5307  0.3072 -0.0761
 4995TIP3    H114991   5.691   3.355   5.114 -0.4030  1.9623 -0.0321
 4995TIP3    H214992   5.811   3.360   5.206  0.5927  1.0975 -1.2381
 4996TIP3   OH214993   0.297   5.440   0.747 -0.0531 -0.0282  0.6017
 4996TIP3    H114994   0.311   5.346   0.760 -0.4787  0.0256  1.4911
 4996TIP3    H214995   0.254   5.470   0.827  3.8463  1.8025  2.2659
 4997TIP3   OH214996   2.834   2.463   5.035 -0.0938  0.1387 -0.1805
 4997TIP3    H114997   2.924   2.495   5.033  0.2234 -0.7576 -1.4920
 4997TIP3    H214998   2.780   2.542   5.033  0.6687  0.6546 -1.3750
 4998TIP3   OH214999   0.632   0.265   0.942 -0.0610  0.2136 -0.3638
 4998TIP3    H115000   0.639   0.200   1.012  1.2605  1.1709  0.4274
 4998TIP3    H215001   0.538   0.270   0.923 -0.2313 -1.6227 -0.1818
 4999TIP3   OH215002   5.746   2.376   3.629  0.6573 -0.1636  0.4072
 4999TIP3    H115003   5.759   2.292   3.586 -1.7511 -1.1254  1.3852
 4999TIP3    H215004   5.810   2.377   3.700 -1.9273 -3.2464  3.1015
 5000TIP3   OH215005   5.872   3.269   0.530  0.2033 -0.1532  0.2810
 5000TIP3    H115006   5.958   3.250   0.567  1.1769  1.6558 -0.9258
 5000TIP3    H215007   5.884   3.259   0.435 -0.3404  2.0186 -0.0689
 5001TIP3   OH215008   0.612   0.358   2.479 -0.2346 -0.0164  0.8329
 5001TIP3    H115009   0.555   0.433   2.462 -0.9706 -0.4235  1.4809
 5001TIP3    H215010   0.555   0.292   2.516 -0.3713 -2.2265 -2.7978
 5002TIP3   OH215011   2.273   1.076   0.821  0.4093 -0.0927 -0.6769
 5002TIP3    H115012   2.321   1.159   0.819 -0.5545  0.5149  0.4580
 5002TIP3    H215013   2.203   1.088   0.757 -0.3692  0.4003  0.2380
 5003TIP3   OH215014   3.089   5.762   3.024 -0.7611 -0.3770 -0.1780
 5003TIP3    H115015   3.100   5.721   3.111 -1.0915 -0.3718 -0.1347
 5003TIP3    H215016   3.170   5.811   3.012 -0.6701 -0.4539  0.0881
 5004TIP3   OH215017   4.877   3.840   0.294 -0.3782  0.1942 -0.3512
 5004TIP3    H115018   4.890   3.779   0.366  0.8508  0.8214 -0.0190
 5004TIP3    H215019   4.965   3.862   0.264 -0.7771  1.9140 -0.3704
 5005TIP3   OH215020   4.795   4.982   3.557 -0.1867  0.1433 -0.2844
 5005TIP3    H115021   4.799   4.930   3.477  1.5187 -0.0401 -0.1355
 5005TIP3    H215022   4.718   4.951   3.604  0.3045 -1.6655 -0.6052
 5006TIP3   OH215023   5.123   3.060   2.576  0.0333  1.1161  0.5870
 5006TIP3    H115024   5.087   3.138   2.619 -1.8159  1.6941 -1.8027
 5006TIP3    H215025   5.196   3.094   2.523 -0.4023  1.1476 -0.0011
 5007TIP3   OH215026   0.561   4.793   4.658 -0.5020 -0.0695  0.0835
 5007TIP3    H115027   0.539   4.866   4.717  0.9227  0.4710 -0.0365
 5007TIP3    H215028   0.572   4.718   4.717  1.7016  0.6340  0.6712
 5008TIP3   OH215029   4.434   4.772   0.154 -0.3970 -0.0178  0.1265
 5008TIP3    H115030   4.363   4.708   0.158 -0.0575 -0.6163 -1.9992
 5008TIP3    H215031   4.396   4.846   0.105  0.0562  0.1990  0.0933
 5009TIP3   OH215032   1.154   3.217   0.614  0.2464  0.2373  0.3254
 5009TIP3    H115033   1.099   3.149   0.575 -0.0914  0.4068  0.5021
 5009TIP3    H215034   1.189   3.266   0.540  0.0164  0.2402  0.2195
 5010TIP3   OH215035   3.746   5.611   0.254 -0.1284  0.6236 -0.1625
 5010TIP3    H115036   3.733   5.680   0.189  1.8277  1.2403  0.0538
 5010TIP3    H215037   3.801   5.650   0.321  0.9365 -1.0874  0.0288
 5011TIP3   OH215038   0.444   2.701   2.665 -0.0243 -0.4175 -0.3530
 5011TIP3    H115039   0.498   2.775   2.637 -1.9452  0.4872 -1.9279
 5011TIP3    H215040   0.459   2.695   2.759  2.8467 -0.3160 -0.7062
 5012TIP3   OH215041   2.075   5.005   4.437  0.1009 -0.1418 -0.4213
 5012TIP3    H115042   2.026   5.071   4.390 -0.2329  0.4637  0.7426
 5012TIP3    H215043   2.139   5.054   4.488 -1.3960 -0.4829  1.9600
 5013TIP3   OH215044   2.061   2.614   2.497  0.0818  0.4064 -0.0592
 5013TIP3    H115045   2.079   2.621   2.403 -0.0275  0.3496 -0.0844
 5013TIP3    H215046   2.136   2.568   2.533 -0.3698 -0.5266 -0.2859
 5014TIP3   OH215047   2.291   1.358   0.981 -0.4085 -0.3389  1.2570
 5014TIP3    H115048   2.207   1.370   0.937  0.5401  2.1218 -0.0989
 5014TIP3    H215049   2.291   1.422   1.052  0.0300 -0.8495  1.7287
 5015TIP3   OH215050   2.646   2.661   0.817  0.2094 -0.1652 -0.5420
 5015TIP3    H115051   2.655   2.708   0.900  0.0094  3.2437 -2.2880
 5015TIP3    H215052   2.552   2.657   0.801  0.2869  0.2461 -1.1364
 5016TIP3   OH215053   4.130   3.814   0.361  0.3903  0.2434  0.7132
 5016TIP3    H115054   4.039   3.784   0.354  0.1629  1.1250 -0.3496
 5016TIP3    H215055   4.181   3.742   0.324  0.1969 -0.5010  1.8319
 5017TIP3   OH215056   5.391   4.358   5.062 -0.2769 -0.5508  0.1742
 5017TIP3    H115057   5.450   4.286   5.085 -1.4659 -1.7121 -0.3107
 5017TIP3    H215058   5.419   4.430   5.119  2.7058 -0.4791 -1.1893
 5018TIP3   OH215059   5.875   4.750   1.740 -0.1134  0.4145  0.0842
 5018TIP3    H115060   5.898   4.830   1.787  1.2942  0.8332 -1.2199
 5018TIP3    H215061   5.827   4.781   1.663 -0.8425 -0.1222  0.3118
 5019TIP3   OH215062   2.677   5.635   1.518  0.0492  0.4358  0.4411
 5019TIP3    H115063   2.728   5.714   1.497  0.5627  0.2462  0.9452
 5019TIP3    H215064   2.724   5.595   1.590 -0.7547  0.1762  0.8318
 5020TIP3   OH215065   0.690   3.615   3.437 -0.5594 -0.1533  0.0330
 5020TIP3    H115066   0.781   3.594   3.414 -0.9834  0.0478 -2.0039
 5020TIP3    H215067   0.691   3.710   3.454 -0.2162 -0.3263  1.0564
 5021TIP3   OH215068   5.457   4.098   4.247  0.1075 -0.8699 -0.4009
 5021TIP3    H115069   5.480   4.152   4.172  1.2004 -0.4944  0.1766
 5021TIP3    H215070   5.424   4.016   4.210 -0.6863 -0.1674 -1.2778
 5022TIP3   OH215071   0.167   0.744   1.657  0.0915 -0.6668  0.5741
 5022TIP3    H115072   0.166   0.691   1.578 -0.4669  0.1328  0.0302
 5022TIP3    H215073   0.210   0.689   1.723  1.0242 -1.1527 -0.4090
 5023TIP3   OH215074   5.666   0.547   3.324  0.0133  0.1605  0.1960
 5023TIP3    H115075   5.591   0.545   3.264 -1.2664  0.0723  1.7236
 5023TIP3    H215076   5.720   0.473   3.298 -1.0244 -0.4710 -0.2426
 5024TIP3   OH215077   4.704   2.323   2.420  0.6780 -0.1780 -0.0816
 5024TIP3    H115078   4.721   2.229   2.427 -0.0366 -0.3004  0.0548
 5024TIP3    H215079   4.617   2.334   2.457  0.8474  0.5726  0.0911
 5025TIP3   OH215080   4.201   0.925   2.587  0.3773  0.4347 -0.0551
 5025TIP3    H115081   4.207   1.007   2.537  1.7964  0.8758  0.7854
 5025TIP3    H215082   4.210   0.857   2.521  2.1223  1.0110 -0.4662
 5026TIP3   OH215083   0.139   5.797   3.151 -0.1824 -0.2940 -0.0143
 5026TIP3    H115084   0.224   5.773   3.113 -0.1779 -0.9165  0.3697
 5026TIP3    H215085   0.131   5.741   3.228  0.0419  1.2806  1.2038
 5027TIP3   OH215086   1.697   4.176   4.707 -0.5226 -0.2925 -0.4318
 5027TIP3    H115087   1.679   4.267   4.732 -0.3230  0.5076 -2.9645
 5027TIP3    H215088   1.787   4.177   4.676 -1.2067 -0.7916 -2.6174
 5028TIP3   OH215089   0.857   2.432   4.841  0.6446  0.4992  0.1344
 5028TIP3    H115090   0.874   2.520   4.873  1.9306  0.6038 -0.7516
 5028TIP3    H215091   0.936   2.382   4.862  0.8761  0.1716 -1.3982
 5029TIP3   OH215092   4.973   2.229   2.294 -0.5287  0.1438  0.0267
 5029TIP3    H115093   4.897   2.261   2.245  0.8752  0.8248 -1.8308
 5029TIP3    H215094   4.978   2.136   2.273  1.2265  0.7831 -2.9967
 5030TIP3   OH215095   4.182   4.241   1.482 -0.3703 -0.6533 -0.2894
 5030TIP3    H115096   4.153   4.330   1.462 -0.0098 -0.4820 -0.0634
 5030TIP3    H215097   4.276   4.250   1.500 -0.3892 -1.0361  0.0068
 5031TIP3   OH215098   0.337   0.206   0.233  0.4287  0.2105 -0.0912
 5031TIP3    H115099   0.389   0.126   0.239 -0.4454 -0.2870  1.8342
 5031TIP3    H215100   0.386   0.262   0.172  1.5929 -1.3738 -0.6946
 5032TIP3   OH215101   1.276   3.688   3.677 -0.4766  0.1986  0.4382
 5032TIP3    H115102   1.274   3.592   3.686 -0.1493  0.0876 -0.5319
 5032TIP3    H215103   1.205   3.707   3.615 -0.2843  0.5464  0.3232
 5033TIP3   OH215104   1.861   3.922   3.782  0.1479  0.3697  0.6909
 5033TIP3    H115105   1.783   3.921   3.839 -0.9084  0.0796 -0.7055
 5033TIP3    H215106   1.825   3.922   3.693  1.7520  1.2839  0.0059
 5034TIP3   OH215107   2.258   5.504   3.042 -0.2251 -0.1779 -0.0052
 5034TIP3    H115108   2.249   5.558   2.963  0.3495  0.7248  0.5339
 5034TIP3    H215109   2.168   5.495   3.075 -0.6972 -1.9014 -1.6038
 5035TIP3   OH215110   1.501   1.255   3.840 -0.3584 -0.0864  0.0861
 5035TIP3    H115111   1.558   1.328   3.819  0.1311 -0.4178  0.2469
 5035TIP3    H215112   1.412   1.288   3.824 -0.0819  0.1284 -1.1195
 5036TIP3   OH215113   2.212   2.674   1.779  0.3789  0.0167  0.0444
 5036TIP3    H115114   2.140   2.659   1.718 -0.8766 -0.4727  1.5671
 5036TIP3    H215115   2.228   2.768   1.775  0.0526  0.0441 -0.7485
 5037TIP3   OH215116   1.131   1.908   4.451  0.3347  0.1014 -0.3679
 5037TIP3    H115117   1.180   1.909   4.533 -0.0700 -1.1879 -0.0827
 5037TIP3    H215118   1.196   1.889   4.384  0.5419  0.3571 -0.2388
 5038TIP3   OH215119   4.349   4.473   0.149  0.2727 -0.6296 -0.7239
 5038TIP3    H115120   4.276   4.509   0.099  0.4213  0.7271 -0.0019
 5038TIP3    H215121   4.381   4.400   0.095  0.1110  0.4623 -2.3551
 5039TIP3   OH215122   4.735   5.309   3.144  0.2945  0.5155  0.6957
 5039TIP3    H115123   4.811   5.342   3.191  0.6410  0.3645  0.2511
 5039TIP3    H215124   4.699   5.385   3.100  1.6349  0.1961 -1.0854
 5040TIP3   OH215125   4.533   5.768   1.812 -0.1047  0.0588 -0.1343
 5040TIP3    H115126   4.528   5.698   1.747 -1.1314  1.3336 -1.4972
 5040TIP3    H215127   4.533   5.722   1.896  1.0431 -1.6287 -0.9896
 5041TIP3   OH215128   5.459   3.613   3.337  0.4766  0.0493 -0.6125
 5041TIP3    H115129   5.441   3.643   3.426  1.2248 -0.6101 -0.2346
 5041TIP3    H215130   5.373   3.611   3.295  0.3313  2.4404 -0.5827
 5042TIP3   OH215131   3.342   5.371   0.562  0.0101  0.2718 -0.5018
 5042TIP3    H115132   3.421   5.349   0.513  0.7192 -1.3958  1.2713
 5042TIP3    H215133   3.355   5.462   0.590  1.5894 -0.1437  0.2176
 5043TIP3   OH215134   1.464   3.163   3.044  0.4129  0.4742  0.5411
 5043TIP3    H115135   1.454   3.102   3.117 -1.9867 -1.0635 -0.9485
 5043TIP3    H215136   1.497   3.109   2.972 -0.7542  1.1127 -0.5112
 5044TIP3   OH215137   4.251   1.136   2.089 -0.1565 -0.4360  0.3283
 5044TIP3    H115138   4.178   1.076   2.076 -0.7580  0.5724 -1.2710
 5044TIP3    H215139   4.284   1.116   2.176 -0.6086 -2.7658  0.0264
 5045TIP3   OH215140   0.585   5.102   0.617 -0.0979  0.0130 -0.4516
 5045TIP3    H115141   0.494   5.078   0.596 -0.3777 -0.2293  0.8994
 5045TIP3    H215142   0.588   5.098   0.713  0.7360  2.2583 -0.3408
 5046TIP3   OH215143   0.682   1.411   2.405  0.5308 -0.4331  0.8629
 5046TIP3    H115144   0.741   1.484   2.389  0.8316 -0.9096 -0.3137
 5046TIP3    H215145   0.606   1.451   2.447  0.6328  0.5928  0.1363
 5047TIP3   OH215146   4.649   0.434   2.719  0.2873 -0.5321 -0.5828
 5047TIP3    H115147   4.719   0.370   2.707 -1.5463 -2.5851 -0.8316
 5047TIP3    H215148   4.641   0.444   2.814  1.4854  0.4476 -0.5538
 5048TIP3   OH215149   4.595   4.847   4.545  0.4531 -0.3966  0.1965
 5048TIP3    H115150   4.539   4.896   4.486  0.8039 -1.6343 -1.2349
 5048TIP3    H215151   4.677   4.897   4.549  0.0454  0.2551  0.5244
 5049TIP3   OH215152   3.710   5.960   2.044  0.1645  0.3908  0.3277
 5049TIP3    H115153   3.654   5.935   2.118  0.0230  0.4177  0.2317
 5049TIP3    H215154   3.648   5.985   1.976  0.2829 -0.1527  0.0144
 5050TIP3   OH215155   3.455   1.733   1.729 -0.2168  0.3524  0.2212
 5050TIP3    H115156   3.420   1.787   1.800 -0.1336  0.3437  0.2698
 5050TIP3    H215157   3.394   1.659   1.723 -0.9111  0.9788 -0.5460
 5051TIP3   OH215158   2.832   0.798   0.180  0.1192  0.5490  0.4641
 5051TIP3    H115159   2.774   0.726   0.159  0.7177  0.3187 -0.4617
 5051TIP3    H215160   2.774   0.870   0.203 -0.5837  0.5668 -1.2329
 5052TIP3   OH215161   4.804   3.272   5.048  0.1719  0.3495 -0.3623
 5052TIP3    H115162   4.725   3.243   5.003  0.7184 -0.0037 -1.1136
 5052TIP3    H215163   4.822   3.359   5.012  0.6092  0.0662 -0.8488
 5053TIP3   OH215164   4.621   0.886   2.396 -1.1903  0.1712 -0.2379
 5053TIP3    H115165   4.702   0.868   2.347  0.0010  2.4926  0.7071
 5053TIP3    H215166   4.603   0.805   2.443  0.6556 -0.3854 -0.4111
 5054TIP3   OH215167   5.621   5.903   3.502  0.9990  0.4235  0.1711
 5054TIP3    H115168   5.553   5.943   3.447 -0.2287 -1.4929  0.2268
 5054TIP3    H215169   5.665   5.840   3.444  2.5354  1.3632  0.2445
 5055TIP3   OH215170   5.317   2.282   4.959  0.3893  0.2763  0.8369
 5055TIP3    H115171   5.259   2.210   4.933  1.0997 -0.4358  1.1921
 5055TIP3    H215172   5.336   2.266   5.051  1.5263  0.2284  0.6070
 5056TIP3   OH215173   5.109   4.413   2.201  0.1535 -0.1715 -0.9706
 5056TIP3    H115174   5.056   4.477   2.152 -1.6832 -1.2643 -0.5055
 5056TIP3    H215175   5.131   4.458   2.282 -2.7965 -0.6692  0.2378
 5057TIP3   OH215176   5.543   4.559   2.547 -0.4480  0.2240  0.5103
 5057TIP3    H115177   5.622   4.612   2.533 -1.1713  1.1286 -0.3044
 5057TIP3    H215178   5.471   4.622   2.542 -1.1862 -0.4388  2.1465
 5058TIP3   OH215179   4.591   2.934   2.248  0.1384  0.2377 -0.1397
 5058TIP3    H115180   4.644   2.982   2.184  1.1825  0.2038  0.6698
 5058TIP3    H215181   4.507   2.981   2.249  1.2075  2.2577  0.8119
 5059TIP3   OH215182   3.105   2.489   4.683 -0.8950 -0.3582  0.4514
 5059TIP3    H115183   3.111   2.466   4.590 -0.5898  0.9157  0.1412
 5059TIP3    H215184   3.022   2.535   4.691 -0.1517  1.0266  0.4560
 5060TIP3   OH215185   0.510   5.414   5.063 -0.0268  0.3179  0.0157
 5060TIP3    H115186   0.490   5.347   4.999  0.6079 -2.3209  2.3956
 5060TIP3    H215187   0.428   5.429   5.110 -0.6430  2.6597 -1.6045
 5061TIP3   OH215188   4.170   1.797   0.727  0.4273 -0.1098  0.4382
 5061TIP3    H115189   4.077   1.792   0.705  0.6573 -1.3056 -0.3121
 5061TIP3    H215190   4.201   1.875   0.680  0.3033 -1.0506 -1.2851
 5062TIP3   OH215191   4.514   0.596   0.123  0.2490  0.2487 -0.3789
 5062TIP3    H115192   4.433   0.590   0.174  0.5470 -0.8856  0.0024
 5062TIP3    H215193   4.509   0.680   0.079 -1.1135  0.2181 -0.3182
 5063TIP3   OH215194   0.717   4.283   1.351 -0.4202 -0.2129  0.6150
 5063TIP3    H115195   0.760   4.198   1.349  0.6569  0.3365 -0.5129
 5063TIP3    H215196   0.625   4.263   1.369 -0.1694 -1.5992  0.4374
 5064TIP3   OH215197   6.290   4.020   1.310 -0.2382  0.0524  0.2191
 5064TIP3    H115198   6.383   4.039   1.299 -0.7105  1.9290 -1.1481
 5064TIP3    H215199   6.276   4.019   1.404  1.1971 -0.5424  0.4558
 5065TIP3   OH215200   1.237   0.395   2.071  0.2340 -0.6478  0.0085
 5065TIP3    H115201   1.189   0.313   2.070 -2.0921  0.6077 -2.0445
 5065TIP3    H215202   1.184   0.453   2.125  1.0095 -0.0558  0.1467
 5066TIP3   OH215203   5.135   1.243   4.747  0.2800 -0.0400 -0.4209
 5066TIP3    H115204   5.166   1.190   4.819  1.8517 -0.6732 -1.5286
 5066TIP3    H215205   5.187   1.323   4.751 -0.6961  0.6062  0.0315
 5067TIP3   OH215206   0.621   5.174   2.939  0.6175  0.2306  0.6373
 5067TIP3    H115207   0.670   5.130   2.869 -3.2091 -2.0853 -0.9402
 5067TIP3    H215208   0.611   5.264   2.908  0.1536 -0.4131 -1.2596
 5068TIP3   OH215209   4.245   2.082   4.183 -0.2295  0.5585 -0.0878
 5068TIP3    H115210   4.259   1.999   4.229  2.1715 -0.1699 -1.8865
 5068TIP3    H215211   4.221   2.055   4.094  1.1519  1.7590 -0.8465
 5069TIP3   OH215212   5.134   0.781   3.401 -0.7350 -0.1164 -0.0982
 5069TIP3    H115213   5.186   0.792   3.481 -2.6025  2.0486  0.9065
 5069TIP3    H215214   5.194   0.738   3.340  0.7609 -1.8609  2.4184
 5070TIP3   OH215215   6.307   2.656   4.378  0.1269 -0.1732 -0.5112
 5070TIP3    H115216   6.363   2.733   4.365 -0.0954  0.1480  0.3734
 5070TIP3    H215217   6.338   2.617   4.459 -0.0910 -0.7319 -0.6950
 5071TIP3   OH215218   5.738   3.883   4.659  0.1415  0.5996 -0.6967
 5071TIP3    H115219   5.695   3.917   4.580  0.1628  0.4230 -0.7862
 5071TIP3    H215220   5.778   3.800   4.630  0.7653  0.8895 -0.6840
 5072TIP3   OH215221   1.279   3.173   2.238 -0.9671 -0.2944  0.2861
 5072TIP3    H115222   1.232   3.091   2.222  3.2201 -3.0719  0.4594
 5072TIP3    H215223   1.312   3.199   2.152 -2.1915  1.2544  0.2519
 5073TIP3   OH215224   4.671   0.181   2.104 -0.1665 -0.1872 -0.3653
 5073TIP3    H115225   4.636   0.098   2.070 -0.8842  0.1734 -0.5112
 5073TIP3    H215226   4.719   0.155   2.183 -0.7314 -0.6968 -0.1756
 5074TIP3   OH215227   0.714   0.511   4.287 -0.2091  0.1004  0.1527
 5074TIP3    H115228   0.714   0.601   4.321  0.7653  0.1650  0.0189
 5074TIP3    H215229   0.764   0.461   4.352 -0.3225 -0.2468 -0.0264
 5075TIP3   OH215230   5.977   1.154   2.450 -0.3180  0.0022 -0.1691
 5075TIP3    H115231   5.942   1.194   2.530 -0.8722  1.2691 -1.0101
 5075TIP3    H215232   5.903   1.104   2.414 -0.1083 -0.4609  0.0420
 5076TIP3   OH215233   3.601   4.388   3.698  0.0995 -0.2627  0.1100
 5076TIP3    H115234   3.574   4.319   3.758 -0.5738 -2.8748 -2.9481
 5076TIP3    H215235   3.693   4.405   3.721 -0.3365 -0.5280  2.3128
 5077TIP3   OH215236   2.934   1.510   2.471  0.0045 -0.0370 -0.0013
 5077TIP3    H115237   2.899   1.599   2.465  0.2217  0.3848  3.0994
 5077TIP3    H215238   2.859   1.456   2.494  0.2782 -0.1917  0.5664
 5078TIP3   OH215239   3.088   4.405   1.132  0.1850 -0.3282  0.0827
 5078TIP3    H115240   3.131   4.466   1.073 -0.2404  1.0155  1.1276
 5078TIP3    H215241   3.047   4.460   1.198 -1.6439 -1.6642  0.1186
 5079TIP3   OH215242   3.353   2.720   2.422  0.4423  0.7644 -0.0680
 5079TIP3    H115243   3.367   2.759   2.509 -3.6698  2.9918 -0.1822
 5079TIP3    H215244   3.341   2.794   2.364  0.3642 -0.7096 -2.0293
 5080TIP3   OH215245   0.416   2.621   1.280 -0.0301 -0.6794  0.2659
 5080TIP3    H115246   0.445   2.550   1.222  1.0784 -0.0324 -0.0114
 5080TIP3    H215247   0.440   2.701   1.233  1.6719 -0.1203  1.9438
 5081TIP3   OH215248   1.476   3.083   1.758 -0.5859 -0.5988 -0.0889
 5081TIP3    H115249   1.527   3.159   1.730  1.0242 -1.0400  1.4559
 5081TIP3    H215250   1.439   3.048   1.677 -1.3605  1.7862 -0.8445
 5082TIP3   OH215251   2.789   4.935   5.082  0.0242  0.6327 -0.6702
 5082TIP3    H115252   2.873   4.905   5.116 -0.0337  0.9454 -0.2483
 5082TIP3    H215253   2.727   4.920   5.153 -0.7105 -1.5469 -1.6661
 5083TIP3   OH215254   3.772   5.430   4.136  0.0988 -0.3548 -0.1313
 5083TIP3    H115255   3.699   5.425   4.074 -1.3708  0.4768  1.4430
 5083TIP3    H215256   3.849   5.442   4.081 -1.3836  2.8508 -1.8108
 5084TIP3   OH215257   4.101   1.828   1.895 -0.1383  0.0410  0.0024
 5084TIP3    H115258   4.143   1.854   1.977  0.7984 -0.4025 -0.3244
 5084TIP3    H215259   4.013   1.798   1.921  0.6116 -1.3925  1.0344
 5085TIP3   OH215260   4.815   3.707   0.525 -0.4770  0.5464 -0.6105
 5085TIP3    H115261   4.767   3.788   0.541 -0.7604  0.6252 -1.7334
 5085TIP3    H215262   4.893   3.713   0.580 -0.5434  1.5356 -0.6113
 5086TIP3   OH215263   3.085   2.426   3.667  0.1531 -0.7300 -0.7303
 5086TIP3    H115264   3.161   2.477   3.637  0.9280 -1.8302 -0.7077
 5086TIP3    H215265   3.020   2.437   3.598  1.7838 -2.9433 -2.7907
 5087TIP3   OH215266   1.438   0.626   3.154  0.3659  0.4742 -1.2454
 5087TIP3    H115267   1.450   0.572   3.232 -0.4108  1.1454 -0.6455
 5087TIP3    H215268   1.425   0.563   3.083 -0.4295 -0.1333 -0.5780
 5088TIP3   OH215269   5.868   5.706   3.994 -0.2788 -0.1405 -0.3393
 5088TIP3    H115270   5.871   5.800   3.975  0.9743  0.0365  0.5624
 5088TIP3    H215271   5.812   5.669   3.926 -1.0670  1.2979 -0.5183
 5089TIP3   OH215272   1.417   1.471   3.202 -0.1152  0.0233 -0.1813
 5089TIP3    H115273   1.353   1.532   3.240  0.5631  0.0157  1.0418
 5089TIP3    H215274   1.458   1.430   3.278 -0.4379 -1.8609 -0.9690
 5090TIP3   OH215275   1.399   5.368   0.502 -0.2064 -0.4558  0.1337
 5090TIP3    H115276   1.399   5.461   0.479 -0.0750 -0.4599  0.1157
 5090TIP3    H215277   1.388   5.366   0.596 -0.3759 -0.4264  0.1138
 5091TIP3   OH215278   5.610   0.950   1.950  0.2840  0.2142 -0.2548
 5091TIP3    H115279   5.578   0.868   1.913 -0.7873 -0.8556  2.7028
 5091TIP3    H215280   5.556   1.018   1.910  0.8488 -0.5190 -2.3707
 5092TIP3   OH215281   4.734   4.194   0.107 -0.3464  0.0993  0.1653
 5092TIP3    H115282   4.687   4.113   0.124  1.8035 -0.9719  1.4167
 5092TIP3    H215283   4.724   4.245   0.188  1.3944 -0.5859  0.8632
 5093TIP3   OH215284   1.231   0.377   0.475  0.7669 -0.1818 -0.0651
 5093TIP3    H115285   1.291   0.444   0.510  2.4903 -1.0637 -1.2035
 5093TIP3    H215286   1.281   0.295   0.480 -0.3395 -0.9464 -1.0809
 5094TIP3   OH215287   3.904   1.180   3.059 -0.0916 -0.2117 -0.3967
 5094TIP3    H115288   3.815   1.153   3.034  0.0307 -0.5170 -0.5062
 5094TIP3    H215289   3.956   1.100   3.052  0.0409 -0.1948  0.3839
 5095TIP3   OH215290   6.143   2.950   4.701  0.1396 -0.5270  0.1298
 5095TIP3    H115291   6.227   2.983   4.670 -0.5036 -0.1324 -1.2501
 5095TIP3    H215292   6.080   2.977   4.634 -1.5500  1.4739  2.3554
 5096TIP3   OH215293   2.820   0.592   2.905  0.3893 -0.1236  0.3413
 5096TIP3    H115294   2.792   0.549   2.825  0.1533 -1.6461  1.2042
 5096TIP3    H215295   2.745   0.646   2.930  0.0883 -0.4076  0.0581
 5097TIP3   OH215296   3.052   0.115   4.190 -0.6207  0.3431 -0.0384
 5097TIP3    H115297   3.131   0.166   4.175  0.8283 -1.1555  1.9286
 5097TIP3    H215298   3.058   0.043   4.127  0.7001 -0.8862  1.4187
 5098TIP3   OH215299   1.498   5.806   3.541 -0.3551  0.4977 -0.4797
 5098TIP3    H115300   1.558   5.732   3.541 -1.9515 -0.8827  1.1754
 5098TIP3    H215301   1.547   5.876   3.585  0.6736  0.0132 -0.8155
 5099TIP3   OH215302   4.087   2.903   3.164 -0.0773 -0.2938  0.4760
 5099TIP3    H115303   4.178   2.898   3.135  0.7204  1.4034  2.4455
 5099TIP3    H215304   4.058   2.812   3.169  1.2423 -0.8345 -0.8662
 5100TIP3   OH215305   5.458   4.119   2.260  0.4243 -0.5106 -0.3714
 5100TIP3    H115306   5.466   4.195   2.319  1.7098  0.2434 -1.4619
 5100TIP3    H215307   5.548   4.094   2.240  0.0127 -1.5880 -0.9812
 5101TIP3   OH215308   0.145   2.970   2.336  0.1440 -0.5324  0.0150
 5101TIP3    H115309   0.192   3.053   2.325  1.2651 -1.1120  0.2448
 5101TIP3    H215310   0.055   2.995   2.355  0.7769  0.6732  1.6512
 5102TIP3   OH215311   5.517   5.906   5.156  0.5681  0.2283 -0.5771
 5102TIP3    H115312   5.429   5.918   5.120  0.5745  0.6611 -0.4633
 5102TIP3    H215313   5.540   5.815   5.136 -0.6519 -0.4755  1.0525
 5103TIP3   OH215314   0.545   1.589   0.662  0.1751  0.1651  0.0993
 5103TIP3    H115315   0.605   1.647   0.616  0.0131  0.7213  0.5758
 5103TIP3    H215316   0.495   1.647   0.720 -1.7043 -0.0912 -1.1753
 5104TIP3   OH215317   5.626   2.937   3.118 -0.2588 -0.1211  0.6428
 5104TIP3    H115318   5.712   2.919   3.079 -0.5551  1.0085 -0.5780
 5104TIP3    H215319   5.567   2.874   3.076 -0.2753 -0.0086  0.4985
 5105TIP3   OH215320   4.794   2.508   1.774  0.2888  0.2559  0.2323
 5105TIP3    H115321   4.811   2.430   1.720  1.5205  0.9920 -0.4914
 5105TIP3    H215322   4.804   2.478   1.864 -2.9668 -1.2892  0.2348
 5106TIP3   OH215323   6.283   2.757   3.760  0.2550  0.0047 -0.3310
 5106TIP3    H115324   6.318   2.813   3.690  1.4114 -0.2762  0.0048
 5106TIP3    H215325   6.315   2.797   3.841  2.3616 -1.9391 -0.1355
 5107TIP3   OH215326   2.086   3.296   3.639  0.3126  0.1133  0.1287
 5107TIP3    H115327   2.130   3.344   3.709  0.8451  0.6579 -0.5666
 5107TIP3    H215328   2.153   3.237   3.605  0.2205  0.2638 -0.3107
 5108TIP3   OH215329   0.141   3.136   3.849  0.1669 -0.0505 -0.0369
 5108TIP3    H115330   0.079   3.204   3.876  0.7332  0.1836  0.6820
 5108TIP3    H215331   0.168   3.163   3.761  0.9793  1.1051  0.5306
 5109TIP3   OH215332   5.356   4.063   1.961  0.6431 -0.1962 -0.6027
 5109TIP3    H115333   5.359   4.107   2.046  0.7085  0.9556 -1.1855
 5109TIP3    H215334   5.263   4.056   1.941  0.6248 -0.5350 -0.4137
 5110TIP3   OH215335   5.802   2.875   1.426 -0.3076 -0.0151  0.5576
 5110TIP3    H115336   5.809   2.813   1.498 -0.0415 -0.1092  0.4532
 5110TIP3    H215337   5.709   2.893   1.418 -0.3096  0.2428  1.1306
 5111TIP3   OH215338   4.495   4.329   2.444 -0.2427 -0.2283  0.1980
 5111TIP3    H115339   4.521   4.370   2.526  0.9397  2.8528 -1.5609
 5111TIP3    H215340   4.578   4.305   2.402 -0.8257 -1.7259 -0.1748
 5112TIP3   OH215341   2.586   1.555   1.893  0.1382  0.5443 -0.4013
 5112TIP3    H115342   2.526   1.617   1.935 -0.7397 -0.0090 -0.8096
 5112TIP3    H215343   2.613   1.497   1.965 -2.0136 -0.9161 -0.6689
 5113TIP3   OH215344   1.855   4.984   3.090 -0.5439 -0.2150  0.2776
 5113TIP3    H115345   1.877   5.005   3.180 -0.0719  0.6012 -0.0136
 5113TIP3    H215346   1.906   4.906   3.070  0.1552  0.2050  0.3981
 5114TIP3   OH215347   3.399   1.044   5.171 -0.7265  0.2380 -0.0369
 5114TIP3    H115348   3.390   0.961   5.123 -1.4489 -0.3539  1.0892
 5114TIP3    H215349   3.468   1.027   5.235 -2.1098 -0.1285  1.4240
 5115TIP3   OH215350   2.405   5.833   0.633 -0.2523 -0.2828  0.0209
 5115TIP3    H115351   2.327   5.828   0.688 -0.4637  0.3865 -0.2133
 5115TIP3    H215352   2.476   5.851   0.695 -0.6663  1.7330 -0.0274
 5116TIP3   OH215353   1.990   5.759   4.423  0.3345 -0.2997  0.4113
 5116TIP3    H115354   2.005   5.802   4.339  0.0736 -0.9883  0.0014
 5116TIP3    H215355   1.898   5.776   4.443  0.4588  0.0689  0.6813
 5117TIP3   OH215356   1.514   1.975   3.544  0.3819 -1.0526  0.8532
 5117TIP3    H115357   1.488   2.061   3.578  1.6061 -0.9749  1.6507
 5117TIP3    H215358   1.596   1.955   3.590 -0.2621 -2.9875  1.2523
 5118TIP3   OH215359   0.430   4.109   2.719  0.0173  0.2099  0.3278
 5118TIP3    H115360   0.487   4.180   2.688  0.3133 -0.4510 -0.6801
 5118TIP3    H215361   0.425   4.123   2.814  2.8582 -0.4127  0.6596
 5119TIP3   OH215362   4.502   1.106   0.207 -0.4545  0.3053 -0.2327
 5119TIP3    H115363   4.485   1.200   0.205  0.9757  0.5832 -1.2333
 5119TIP3    H215364   4.563   1.094   0.280  0.4595  0.4032 -0.9501
 5120TIP3   OH215365   4.016   3.572   3.201  0.2402  0.3055 -0.5243
 5120TIP3    H115366   4.097   3.557   3.249  0.0950 -1.7671 -0.8393
 5120TIP3    H215367   4.023   3.516   3.124 -0.2589  2.2936 -2.0907
 5121TIP3   OH215368   2.662   1.924   2.090 -0.0880  0.1247  0.0276
 5121TIP3    H115369   2.627   1.947   2.004 -1.9723 -0.2318  0.6393
 5121TIP3    H215370   2.725   1.854   2.073  0.1858  0.6313 -1.1272
 5122TIP3   OH215371   0.552   0.503   5.045 -0.3776  0.1689 -0.8032
 5122TIP3    H115372   0.474   0.469   5.001 -2.0771  0.9598  1.4087
 5122TIP3    H215373   0.551   0.597   5.026 -1.4309  0.6133  1.2142
 5123TIP3   OH215374   4.705   5.286   0.856  0.0439  0.6205  0.6872
 5123TIP3    H115375   4.684   5.370   0.816 -0.8726 -0.3298 -0.8714
 5123TIP3    H215376   4.647   5.280   0.932  0.3207  1.4978  0.9814
 5124TIP3   OH215377   2.086   2.153   3.101 -0.0630  0.2528  0.4799
 5124TIP3    H115378   2.063   2.163   3.194 -0.9376  0.7345  0.2220
 5124TIP3    H215379   2.164   2.207   3.090  1.1586 -1.2676  1.3356
 5125TIP3   OH215380   2.147   0.599   3.868 -0.3373  0.0387  0.4645
 5125TIP3    H115381   2.158   0.523   3.924 -0.6628  0.0764  0.5792
 5125TIP3    H215382   2.168   0.567   3.780 -0.9506 -0.3021  0.4438
 5126TIP3   OH215383   4.838   3.970   0.894  0.2802 -0.5041 -0.1660
 5126TIP3    H115384   4.772   4.003   0.956  1.3821  0.5110  0.5058
 5126TIP3    H215385   4.902   4.041   0.887  1.5986 -1.6692 -0.3675
 5127TIP3   OH215386   2.846   3.429   4.716  0.2153 -0.1088 -0.4092
 5127TIP3    H115387   2.759   3.410   4.751  1.5416 -1.6334  2.4292
 5127TIP3    H215388   2.871   3.350   4.669 -0.1502  0.5927 -1.8318
 5128TIP3   OH215389   3.006   4.649   0.684  0.6501 -0.2398  0.0728
 5128TIP3    H115390   3.096   4.618   0.674  0.3217 -1.2901  0.3202
 5128TIP3    H215391   2.955   4.598   0.622  0.3189  0.9067 -0.6421
 5129TIP3   OH215392   5.566   2.949   3.625 -0.2136  0.0821  0.0698
 5129TIP3    H115393   5.482   2.902   3.625 -0.0365 -0.2408 -0.5447
 5129TIP3    H215394   5.614   2.912   3.551  0.6580 -0.0558  0.6936
 5130TIP3   OH215395   3.308   2.893   2.036 -0.3477  0.8342 -0.2898
 5130TIP3    H115396   3.359   2.966   2.000  1.0692 -0.0778 -0.1752
 5130TIP3    H215397   3.251   2.867   1.964  1.8976 -0.4478 -1.7120
 5131TIP3   OH215398   5.982   5.190   2.679  0.3056  0.4622 -0.0713
 5131TIP3    H115399   6.071   5.218   2.703 -0.3524  2.6811  0.0075
 5131TIP3    H215400   5.924   5.244   2.733 -1.1013 -0.1829 -0.8764
 5132TIP3   OH215401   5.608   3.674   2.981  0.0962  0.2493 -0.1267
 5132TIP3    H115402   5.555   3.748   2.951 -1.7020 -0.7790  0.3443
 5132TIP3    H215403   5.686   3.677   2.927 -0.9712  1.1503 -1.7065
 5133TIP3   OH215404   5.174   3.540  -0.001 -0.2984  0.6540 -0.4491
 5133TIP3    H115405   5.267   3.553   0.020  0.2051 -0.1934 -1.9580
 5133TIP3    H215406   5.127   3.567   0.078  1.2675  0.3558  0.6309
 5134TIP3   OH215407   1.950   2.925   2.286  0.1965 -0.3860 -0.0199
 5134TIP3    H115408   2.026   2.965   2.244 -2.2167  2.4461 -2.0832
 5134TIP3    H215409   1.925   2.986   2.356 -1.5624  0.1101 -1.0065
 5135TIP3   OH215410   4.206   3.035   0.339  0.6064  0.4529 -0.8493
 5135TIP3    H115411   4.275   3.033   0.272  1.4860 -0.5712  0.0466
 5135TIP3    H215412   4.176   2.945   0.345  0.2375  0.6170 -0.1706
 5136TIP3   OH215413   4.427   5.849   2.470  1.1285  0.4495 -0.0185
 5136TIP3    H115414   4.451   5.865   2.379 -0.5353 -0.3786 -0.6329
 5136TIP3    H215415   4.449   5.757   2.485  2.1312  0.7815  0.6938
 5137TIP3   OH215416   6.243   5.618   1.826  0.2472  0.0076  0.4226
 5137TIP3    H115417   6.195   5.649   1.750 -0.6053 -1.8021  0.1539
 5137TIP3    H215418   6.313   5.682   1.840 -0.3051  0.9815 -1.1501
 5138TIP3   OH215419   1.230   3.902   1.367  0.2539  0.0814  0.0952
 5138TIP3    H115420   1.216   3.810   1.346 -1.0202  0.0342  0.9884
 5138TIP3    H215421   1.270   3.939   1.288 -1.6520 -0.6809 -1.3314
 5139TIP3   OH215422   3.823   2.917   1.894  0.6518  0.1427  0.2331
 5139TIP3    H115423   3.848   2.934   1.803  2.0659  1.3736  0.8126
 5139TIP3    H215424   3.727   2.915   1.892  0.6019  1.6330 -1.0705
 5140TIP3   OH215425   1.550   1.280   4.653  0.2331  0.0813  0.7403
 5140TIP3    H115426   1.538   1.287   4.559  0.1873  2.8980  0.8710
 5140TIP3    H215427   1.468   1.313   4.690  0.8924  0.6478  1.7422
 5141TIP3   OH215428   0.002   4.242   3.694 -0.0533  0.4376 -0.3034
 5141TIP3    H115429  -0.005   4.195   3.610  0.4246 -1.7338  0.8112
 5141TIP3    H215430   0.013   4.334   3.668 -2.3970  0.2289 -2.5851
 5142TIP3   OH215431   3.493   2.793   0.342  0.5295 -0.4184  0.6845
 5142TIP3    H115432   3.462   2.814   0.430 -0.8544  2.9435 -0.4596
 5142TIP3    H215433   3.415   2.797   0.287  1.7203 -0.0822 -1.0525
 5143TIP3   OH215434   2.198   5.407   0.635 -0.0645  0.4503 -0.3890
 5143TIP3    H115435   2.289   5.437   0.628  0.4417 -1.0919 -0.8630
 5143TIP3    H215436   2.148   5.485   0.657  1.8354  0.7694  3.6383
 5144TIP3   OH215437   0.301   5.634   1.630  0.2075  0.3436  0.3069
 5144TIP3    H115438   0.258   5.560   1.673  0.3436  0.5020  0.7126
 5144TIP3    H215439   0.230   5.680   1.585  0.1862 -0.2858 -0.3230
 5145TIP3   OH215440   4.079   0.239   0.980  0.6006 -0.5500 -0.3661
 5145TIP3    H115441   3.991   0.275   0.968  0.8906 -0.0608 -1.0797
 5145TIP3    H215442   4.064   0.155   1.024 -0.1158  0.2032  0.9073
 5146TIP3   OH215443   0.089   2.782   2.044  0.0751  0.1281 -0.2747
 5146TIP3    H115444   0.049   2.837   1.977  0.8040  1.0478  0.0357
 5146TIP3    H215445   0.145   2.721   1.994  0.5212  0.7295 -0.5190
 5147TIP3   OH215446   2.184   0.767   3.614  1.2071  0.2659  0.2897
 5147TIP3    H115447   2.117   0.831   3.591  0.6534 -0.4211 -0.0089
 5147TIP3    H215448   2.178   0.761   3.710  0.5751 -0.0777  0.2345
 5148TIP3   OH215449   6.380   3.827   5.160 -0.2866 -0.0767 -0.1986
 5148TIP3    H115450   6.307   3.881   5.131 -0.8204 -0.7298 -0.1094
 5148TIP3    H215451   6.340   3.742   5.179  0.0802  0.2091  2.1552
 5149TIP3   OH215452   6.124   1.347   4.015 -0.3769  0.5027  0.1069
 5149TIP3    H115453   6.126   1.269   3.959  1.0830  0.1328  0.6230
 5149TIP3    H215454   6.109   1.419   3.955 -1.7577 -0.1545 -0.3861
 5150TIP3   OH215455   0.010   1.906   4.507  0.3984  0.1134  0.1847
 5150TIP3    H115456   0.052   1.958   4.439  1.8330 -2.3815 -0.9954
 5150TIP3    H215457  -0.047   1.846   4.459 -0.4683 -0.0811  1.4047
 5151TIP3   OH215458   1.920   0.920   3.642 -0.1151 -0.2647 -0.1611
 5151TIP3    H115459   1.840   0.885   3.682  1.0866 -0.9523  1.8116
 5151TIP3    H215460   1.890   0.965   3.563 -2.2674 -1.7450 -0.2704
 5152TIP3   OH215461   2.651   3.958   2.639  0.0630 -0.5168 -0.4034
 5152TIP3    H115462   2.602   3.914   2.709  1.0954  0.1323  0.7519
 5152TIP3    H215463   2.643   3.899   2.564 -2.5179 -0.4083 -0.2986
 5153TIP3   OH215464   2.763   1.585   2.203  0.2612 -0.2558 -0.1311
 5153TIP3    H115465   2.719   1.575   2.287 -0.4540 -0.3778 -0.5013
 5153TIP3    H215466   2.810   1.503   2.190  2.2127  0.5996  1.1398
 5154TIP3   OH215467   1.413   0.152   0.941  0.2106  0.3897 -0.1065
 5154TIP3    H115468   1.426   0.196   0.857 -0.5704 -0.0788 -0.4874
 5154TIP3    H215469   1.328   0.183   0.972 -0.5960 -1.1823 -0.6284
 5155TIP3   OH215470   0.561   2.264   4.632  0.0709  0.0339  0.0475
 5155TIP3    H115471   0.591   2.173   4.635 -0.6561 -0.2203 -0.1653
 5155TIP3    H215472   0.591   2.302   4.715  2.9930  0.4671 -1.0844
 5156TIP3   OH215473   1.356   3.368   1.181 -0.0090  0.2621 -0.1171
 5156TIP3    H115474   1.346   3.400   1.091 -0.0906  1.6688  0.3663
 5156TIP3    H215475   1.394   3.442   1.229 -0.5173 -0.2522  1.1317
 5157TIP3   OH215476   3.991   2.034   4.691 -0.0718  0.0482 -0.4521
 5157TIP3    H115477   3.994   2.061   4.599  0.2508  0.3437 -0.3585
 5157TIP3    H215478   3.932   1.959   4.692  0.7588 -0.6408 -1.0851
 5158TIP3   OH215479   5.800   5.625   2.149  0.0875 -0.4022 -0.1319
 5158TIP3    H115480   5.767   5.664   2.068 -2.4531 -1.2191  0.3985
 5158TIP3    H215481   5.835   5.699   2.199 -0.7377  0.5405 -0.8925
 5159TIP3   OH215482   2.224   4.042   4.523  0.2611 -0.4169  0.1126
 5159TIP3    H115483   2.153   3.980   4.539 -1.7221  1.4127 -0.9891
 5159TIP3    H215484   2.261   4.014   4.439 -1.9079  0.8489 -1.3877
 5160TIP3   OH215485   3.818   3.384   3.448 -0.6061  0.6557  0.8119
 5160TIP3    H115486   3.894   3.436   3.472 -0.4071 -0.2388  2.2194
 5160TIP3    H215487   3.822   3.378   3.352  0.6866  1.1927  0.8164
 5161TIP3   OH215488   3.217   0.186   1.973  0.5340 -0.7089 -0.2691
 5161TIP3    H115489   3.246   0.248   1.907  0.4119  0.4745  0.7460
 5161TIP3    H215490   3.239   0.227   2.056 -0.4670 -1.5730  0.4585
 5162TIP3   OH215491   2.041   2.308   2.724  0.1970 -0.5709  0.2730
 5162TIP3    H115492   2.013   2.279   2.637  1.0719 -3.2103  0.7766
 5162TIP3    H215493   2.120   2.361   2.707  0.3249 -1.0051 -0.5542
 5163TIP3   OH215494   1.940   0.280   3.910  0.2606  0.2597  0.6140
 5163TIP3    H115495   2.010   0.243   3.856 -1.4863 -2.2264 -0.1155
 5163TIP3    H215496   1.964   0.254   4.000  0.4566 -0.3142  0.4036
 5164TIP3   OH215497   0.071   2.175   4.404 -0.0854 -0.0135  0.1092
 5164TIP3    H115498   0.147   2.169   4.462  0.6884  0.9078 -0.7719
 5164TIP3    H215499  -0.002   2.196   4.462  0.7172  1.1596  0.7201
 5165TIP3   OH215500   1.992   4.264   4.725  0.2859 -0.2555 -0.2429
 5165TIP3    H115501   1.965   4.314   4.648 -2.3212 -3.0377 -1.3590
 5165TIP3    H215502   1.932   4.293   4.794  0.8850  0.3729  0.0220
 5166TIP3   OH215503   0.196   4.429   0.337 -0.0457 -0.3282  0.0595
 5166TIP3    H115504   0.110   4.402   0.305  0.7787 -0.7804 -1.9943
 5166TIP3    H215505   0.216   4.508   0.286  0.5858 -0.0115  0.7879
 5167TIP3   OH215506   3.304   5.740   4.980  0.0781  0.2898 -0.2227
 5167TIP3    H115507   3.386   5.773   5.017  0.7098  1.0961 -2.2281
 5167TIP3    H215508   3.296   5.783   4.895 -0.8926 -2.0365 -1.4166
 5168TIP3   OH215509   3.722   5.183   4.677  0.2999 -0.6681  0.0448
 5168TIP3    H115510   3.630   5.163   4.698 -0.0669  0.9548  0.0745
 5168TIP3    H215511   3.726   5.176   4.582 -0.6127  2.0158 -0.2732
 5169TIP3   OH215512   5.135   1.665   1.055 -0.0761 -0.5849 -0.3394
 5169TIP3    H115513   5.179   1.750   1.053  0.6680 -0.9636 -2.3180
 5169TIP3    H215514   5.044   1.685   1.033 -0.0709 -0.2225 -0.0356
 5170TIP3   OH215515   1.719   0.941   0.543  0.5041 -0.3015 -0.0008
 5170TIP3    H115516   1.712   0.846   0.553  0.0257 -0.2195  0.4902
 5170TIP3    H215517   1.793   0.966   0.599 -1.5784  0.0361  2.8014
 5171TIP3   OH215518   1.125   4.867   0.505 -0.1645  0.1946 -0.3890
 5171TIP3    H115519   1.159   4.948   0.543 -0.2259  0.0172  0.0559
 5171TIP3    H215520   1.203   4.814   0.487 -0.0004  1.0059 -2.2480
 5172TIP3   OH215521   0.705   0.596   2.883 -0.2209  0.6223 -0.9800
 5172TIP3    H115522   0.634   0.657   2.906  0.4612  0.2748  2.6362
 5172TIP3    H215523   0.785   0.645   2.899  0.3306 -0.7921  0.9452
 5173TIP3   OH215524   0.347   3.173   3.628 -0.1664  0.5533  0.2608
 5173TIP3    H115525   0.403   3.221   3.567  0.8796  0.6496  1.2804
 5173TIP3    H215526   0.258   3.200   3.605  0.3030  1.7020 -0.2636
 5174TIP3   OH215527   0.525   5.141   1.384 -0.3262 -0.5743  0.4018
 5174TIP3    H115528   0.538   5.059   1.336 -1.4794 -1.6418  1.8065
 5174TIP3    H215529   0.461   5.189   1.332 -0.5952 -1.1428  0.1950
 5175TIP3   OH215530   4.498   1.333   2.008  0.5037 -0.4322 -0.0690
 5175TIP3    H115531   4.426   1.281   1.972  0.5536 -1.4299  1.1861
 5175TIP3    H215532   4.462   1.421   2.015 -0.1452 -0.6374 -0.7017
 5176TIP3   OH215533   0.683   5.595   1.193  0.1190  0.6973 -0.1831
 5176TIP3    H115534   0.591   5.569   1.186  0.1002  0.9090 -0.7696
 5176TIP3    H215535   0.727   5.546   1.124  0.3753  0.9093 -0.1718
 5177TIP3   OH215536   0.500   0.780   5.076 -0.9607  0.7242  0.1480
 5177TIP3    H115537   0.472   0.836   5.149 -0.9160  1.5130 -0.4190
 5177TIP3    H215538   0.419   0.753   5.034 -0.9809  0.3825  0.4002
 5178TIP3   OH215539   4.272   3.215   3.610  0.2843  0.2881  0.2835
 5178TIP3    H115540   4.291   3.289   3.668  1.5232  0.5090 -0.3648
 5178TIP3    H215541   4.216   3.251   3.542  1.6238  0.8922 -0.5410
 5179TIP3   OH215542   2.952   5.780   1.148 -0.2446 -0.1071 -0.1539
 5179TIP3    H115543   2.986   5.728   1.075 -2.5525 -1.7532 -0.1938
 5179TIP3    H215544   2.943   5.869   1.112  0.4498 -0.4680 -1.2695
 5180TIP3   OH215545   4.363   5.380   0.943 -0.3083 -0.6174  0.5994
 5180TIP3    H115546   4.292   5.442   0.927 -0.5156 -0.2687  2.5987
 5180TIP3    H215547   4.430   5.431   0.987  0.2706 -1.4402  0.7024
 5181TIP3   OH215548   3.980   2.532   1.149 -0.5285 -0.2885 -0.7219
 5181TIP3    H115549   3.911   2.568   1.094 -0.0940  1.5423 -0.1208
 5181TIP3    H215550   4.033   2.479   1.089 -0.8503  0.5511 -1.7833
 5182TIP3   OH215551   0.832   0.220   0.764  0.1927  0.4036 -0.1103
 5182TIP3    H115552   0.758   0.238   0.822  1.4701 -0.9826  2.0936
 5182TIP3    H215553   0.879   0.304   0.758 -0.5500  0.8321 -0.0181
 5183TIP3   OH215554   2.457   1.213   1.539  0.3601  0.5129 -0.4444
 5183TIP3    H115555   2.413   1.185   1.619  0.8062  0.7722 -0.1069
 5183TIP3    H215556   2.385   1.236   1.479  0.0294  0.7122  0.0220
 5184TIP3   OH215557   1.192   5.901   5.107  0.1302 -0.0033 -0.0101
 5184TIP3    H115558   1.276   5.879   5.149 -0.1931  0.9324  1.1777
 5184TIP3    H215559   1.128   5.844   5.150  0.2607 -1.4537 -1.6282
 5185TIP3   OH215560   5.354   3.105   3.313  0.4722 -0.3172  0.5717
 5185TIP3    H115561   5.359   3.154   3.394  1.2652  1.3327 -0.4189
 5185TIP3    H215562   5.300   3.159   3.255 -0.8911 -1.9148  0.2722
 5186TIP3   OH215563   2.059   5.627   0.758 -0.5136 -0.7124  0.0235
 5186TIP3    H115564   2.094   5.714   0.773 -0.4977 -0.2991 -2.0713
 5186TIP3    H215565   1.966   5.635   0.778 -0.5390 -0.1619 -0.2926
 5187TIP3   OH215566   3.181   3.310   2.702 -0.0731  0.0750 -0.3272
 5187TIP3    H115567   3.105   3.264   2.667 -0.4589 -0.1635  0.7643
 5187TIP3    H215568   3.148   3.395   2.729 -0.7853 -1.0748  3.0260
 5188TIP3   OH215569   5.098   0.551   5.053 -0.2781 -0.0876  0.6192
 5188TIP3    H115570   5.023   0.555   4.993  1.7450  0.7421 -2.0287
 5188TIP3    H215571   5.111   0.642   5.081  0.5301 -0.0120  0.0127
 5189TIP3   OH215572   3.625   3.706   3.424 -0.3744  0.3686  0.1839
 5189TIP3    H115573   3.536   3.701   3.388 -0.4668  1.0540  0.3027
 5189TIP3    H215574   3.682   3.684   3.351 -0.5867  1.2044 -0.2486
 5190TIP3   OH215575   1.781   3.370   3.076 -0.5828 -0.1560  0.2525
 5190TIP3    H115576   1.758   3.358   2.984 -3.0573 -2.0725  1.0231
 5190TIP3    H215577   1.795   3.281   3.109 -0.9656  0.3977  1.9999
 5191TIP3   OH215578   1.898   1.747   4.191 -0.1611 -0.0942 -0.6961
 5191TIP3    H115579   1.956   1.750   4.115 -0.1458 -0.0588 -0.6829
 5191TIP3    H215580   1.844   1.669   4.177  1.0043 -1.0856  0.1044
 5192TIP3   OH215581   5.332   5.734   0.345 -0.4540 -0.2892  0.1288
 5192TIP3    H115582   5.296   5.647   0.361 -1.5085 -0.0188 -0.6070
 5192TIP3    H215583   5.427   5.722   0.346 -0.4873 -0.8899  2.9430
 5193TIP3   OH215584   5.644   0.384   4.548 -0.5841  0.1964 -0.6204
 5193TIP3    H115585   5.582   0.436   4.498 -1.1622  0.0167 -0.1080
 5193TIP3    H215586   5.729   0.425   4.531 -0.9823  1.1090 -0.4767
 5194TIP3   OH215587   1.034   3.183   0.197 -0.1999  1.2967 -0.0987
 5194TIP3    H115588   1.123   3.158   0.222  0.0128 -0.1949 -2.0529
 5194TIP3    H215589   1.045   3.229   0.113 -1.3602 -1.0906 -1.6811
 5195TIP3   OH215590   0.844   3.881   3.719  0.3516  0.5210 -0.5458
 5195TIP3    H115591   0.851   3.829   3.799  0.9585 -0.1432 -1.0335
 5195TIP3    H215592   0.934   3.901   3.695  0.2446 -0.4368 -1.8210
 5196TIP3   OH215593   6.015   4.571   5.109  0.3447  0.1477 -0.0567
 5196TIP3    H115594   6.078   4.515   5.155 -0.6953 -0.9573  0.0620
 5196TIP3    H215595   6.032   4.555   5.016  0.3652  0.0240 -0.0306
 5197TIP3   OH215596   6.001   2.418   2.823 -0.4926  0.3925 -0.0506
 5197TIP3    H115597   6.029   2.376   2.904  0.3390  0.2547 -0.4030
 5197TIP3    H215598   6.039   2.506   2.827 -3.2238  1.6290  1.2600
 5198TIP3   OH215599   1.527   0.647   4.571  0.2991 -0.3547 -0.0760
 5198TIP3    H115600   1.619   0.632   4.592  0.3058 -0.5405 -0.2282
 5198TIP3    H215601   1.482   0.568   4.602  0.0202  0.2328  1.0555
 5199TIP3   OH215602   0.998   1.009   2.014  0.0027  0.3838 -0.1332
 5199TIP3    H115603   0.993   0.928   1.963  1.6386 -0.7719  1.4050
 5199TIP3    H215604   0.969   0.984   2.101  1.1108  1.2847  0.5141
 5200TIP3   OH215605   3.279   3.888   1.477 -0.7967 -0.2810  0.2115
 5200TIP3    H115606   3.193   3.930   1.465 -0.7175  0.3640  1.6942
 5200TIP3    H215607   3.341   3.951   1.441 -0.7768  0.3919  1.3547
 5201TIP3   OH215608   5.356   3.326   0.269  0.0704  0.2532 -0.0555
 5201TIP3    H115609   5.356   3.234   0.297 -0.5127  0.2849  0.0545
 5201TIP3    H215610   5.333   3.375   0.347  1.2890  0.5782  0.1227
 5202TIP3   OH215611   3.401   2.316   3.809  0.1375 -0.3807  0.3734
 5202TIP3    H115612   3.397   2.341   3.901 -0.5976  1.0093 -0.0100
 5202TIP3    H215613   3.321   2.265   3.795 -1.2707  1.8598 -0.1426
 5203TIP3   OH215614   4.229   3.552   4.550 -0.0630 -0.9746  0.0121
 5203TIP3    H115615   4.287   3.604   4.605  0.9770  0.0192 -1.9447
 5203TIP3    H215616   4.152   3.608   4.537  0.1355 -0.7990 -0.3879
 5204TIP3   OH215617   1.778   5.884   3.919 -0.1088  0.2112 -0.0970
 5204TIP3    H115618   1.784   5.790   3.934  0.9569 -0.0040 -1.6471
 5204TIP3    H215619   1.869   5.914   3.917 -0.3759  1.0061 -1.0449
 5205TIP3   OH215620   0.355   1.575   1.391  0.2403 -0.4795  0.5020
 5205TIP3    H115621   0.280   1.581   1.331 -2.1975 -1.0896  3.2705
 5205TIP3    H215622   0.394   1.490   1.371  0.9539  0.2847 -1.6874
 5206TIP3   OH215623   6.295   0.758   2.495  0.0208  0.3299  0.3735
 5206TIP3    H115624   6.352   0.832   2.518  0.3907  0.0226  0.4556
 5206TIP3    H215625   6.207   0.795   2.495  0.4104  2.4329 -5.5207
 5207TIP3   OH215626   6.122   1.652   1.744  0.0021 -0.2083  0.1809
 5207TIP3    H115627   6.184   1.722   1.724  0.5396  0.0624  2.5605
 5207TIP3    H215628   6.175   1.585   1.787 -1.3820  0.3603  2.9814
 5208TIP3   OH215629   2.887   2.289   0.832 -0.4001 -0.1849 -0.8213
 5208TIP3    H115630   2.815   2.310   0.772  1.1557  3.0903 -1.7858
 5208TIP3    H215631   2.871   2.343   0.909  1.2316  1.0212 -1.2752
 5209TIP3   OH215632   5.702   4.450   4.194 -0.0775  0.6950 -0.0008
 5209TIP3    H115633   5.774   4.468   4.133 -0.6640  1.5721 -0.4553
 5209TIP3    H215634   5.683   4.535   4.233 -0.6671  0.4062  0.3382
 5210TIP3   OH215635   1.411   4.632   4.110  0.1570 -0.2356  0.4456
 5210TIP3    H115636   1.445   4.611   4.023 -0.9762  3.5133 -1.0804
 5210TIP3    H215637   1.319   4.650   4.096 -0.1002  0.3127  2.5094
 5211TIP3   OH215638   5.780   3.349   4.316 -0.9412 -0.6133  0.3026
 5211TIP3    H115639   5.865   3.316   4.342 -1.2408 -0.2888  1.7793
 5211TIP3    H215640   5.799   3.432   4.271 -0.5428  0.3627  2.1805
 5212TIP3   OH215641   3.166   5.592   5.165 -0.5913 -0.0397  0.1844
 5212TIP3    H115642   3.200   5.633   5.086  1.2686  1.2700  1.5518
 5212TIP3    H215643   3.136   5.505   5.137  0.0509  0.3731 -1.9156
 5213TIP3   OH215644   0.525   4.984   3.693  0.3584  0.1568  0.4175
 5213TIP3    H115645   0.598   4.960   3.636  0.1751  0.3453  0.0989
 5213TIP3    H215646   0.460   4.914   3.680 -0.3607  1.0022 -0.8450
 5214TIP3   OH215647   5.989   2.816   2.289 -0.0608 -0.4074  0.2788
 5214TIP3    H115648   5.913   2.874   2.294 -0.6878 -1.1561 -0.3771
 5214TIP3    H215649   5.960   2.743   2.235  1.3256 -0.3772 -0.5584
 5215TIP3   OH215650   1.519   4.394   5.027  0.2080 -0.1538 -0.3231
 5215TIP3    H115651   1.435   4.439   5.035  1.7438  2.6153  3.4737
 5215TIP3    H215652   1.509   4.315   5.081  0.4689  1.1049  1.6539
 5216TIP3   OH215653   4.496   3.901   2.362 -0.2104  0.0404 -0.3641
 5216TIP3    H115654   4.446   3.961   2.307 -1.2676 -1.2436 -0.8473
 5216TIP3    H215655   4.550   3.959   2.417 -0.9636  1.4131 -1.0095
 5217TIP3   OH215656   4.164   4.905   3.898 -0.1307 -0.0190  0.1644
 5217TIP3    H115657   4.240   4.922   3.953 -0.7967 -0.3006  1.2139
 5217TIP3    H215658   4.122   4.828   3.938  1.3301 -2.6022 -2.8669
 5218TIP3   OH215659   4.732   0.418   1.115 -0.0007 -0.0195 -0.0584
 5218TIP3    H115660   4.800   0.483   1.132  0.3439 -0.6507  1.0941
 5218TIP3    H215661   4.780   0.337   1.100 -0.4831 -0.5444  1.1032
 5219TIP3   OH215662   0.712   2.347   3.797 -0.0970 -0.0824 -0.2472
 5219TIP3    H115663   0.748   2.380   3.715  3.4470  1.2694  1.6230
 5219TIP3    H215664   0.653   2.416   3.827  1.8785  1.4393  0.2908
 5220TIP3   OH215665   2.798   1.235   0.322 -0.1951  0.0868  0.6728
 5220TIP3    H115666   2.855   1.176   0.272  0.8096  0.1198  1.7518
 5220TIP3    H215667   2.747   1.280   0.255 -1.7480 -2.6985 -0.1752
 5221TIP3   OH215668   2.228   1.283   1.407  0.3091 -0.2676 -0.1018
 5221TIP3    H115669   2.197   1.253   1.322  0.7307  1.0062 -0.7412
 5221TIP3    H215670   2.250   1.375   1.392  0.7008 -0.1191  1.3077
 5222TIP3   OH215671   1.607   4.959   2.013  0.4204  0.3005  0.5413
 5222TIP3    H115672   1.552   4.993   2.083 -1.0803 -0.4444 -0.2261
 5222TIP3    H215673   1.640   4.876   2.047 -0.6213 -0.2500  0.2484
 5223TIP3   OH215674   4.836   0.244   2.752 -0.2454  0.0177 -0.1684
 5223TIP3    H115675   4.864   0.174   2.693  2.0787 -0.4021  1.3008
 5223TIP3    H215676   4.833   0.204   2.838  0.5895  1.5649  0.6243
 5224TIP3   OH215677   2.028   1.210   4.259  0.3774  0.3039 -0.4949
 5224TIP3    H115678   2.070   1.296   4.255 -1.8829  1.5972  0.8375
 5224TIP3    H215679   2.095   1.152   4.294  1.1697  2.2286  1.4756
 5225TIP3   OH215680   0.836   3.061   0.776 -0.4970 -0.5950 -0.3866
 5225TIP3    H115681   0.850   3.034   0.685  0.3913  0.1605 -0.4808
 5225TIP3    H215682   0.847   2.981   0.827  0.6889 -0.7097 -0.7947
 5226TIP3   OH215683   3.658   5.358   1.143  0.1911  0.0901  0.2374
 5226TIP3    H115684   3.662   5.448   1.175  2.2007 -0.0277  0.4477
 5226TIP3    H215685   3.649   5.365   1.048 -0.8794  0.4823  0.3590
 5227TIP3   OH215686   3.459   4.476   3.969  0.3929 -0.0249 -0.2229
 5227TIP3    H115687   3.555   4.471   3.967  0.4733  1.0059  0.5059
 5227TIP3    H215688   3.438   4.562   3.933 -0.2683 -0.2147 -0.3133
 5228TIP3   OH215689   3.242   0.727   0.697  0.0274  0.4500  0.6571
 5228TIP3    H115690   3.237   0.756   0.788 -1.0562  1.0196  0.4324
 5228TIP3    H215691   3.336   0.718   0.680  0.2447  0.3576  1.8167
 5229TIP3   OH215692   0.452   1.978   2.014 -0.1959 -0.0252  0.3420
 5229TIP3    H115693   0.404   1.974   1.931 -0.2687 -3.1276  0.3860
 5229TIP3    H215694   0.493   1.891   2.021  0.0809  0.2450  3.3880
 5230TIP3   OH215695   3.524   5.684   0.842 -0.2767  0.2161 -0.2196
 5230TIP3    H115696   3.552   5.659   0.753 -0.8453  0.7891 -0.5658
 5230TIP3    H215697   3.594   5.740   0.874  0.4159 -0.7807  0.0902
 5231TIP3   OH215698   2.512   4.152   1.678  0.2519 -0.0653  0.1121
 5231TIP3    H115699   2.570   4.202   1.622  0.5207  2.3195  2.3194
 5231TIP3    H215700   2.437   4.130   1.622 -0.5794  4.1137 -0.7517
 5232TIP3   OH215701   4.866   3.612   4.448  0.5033  0.6438  0.4701
 5232TIP3    H115702   4.931   3.680   4.467  0.8371  0.3482  0.4056
 5232TIP3    H215703   4.793   3.632   4.506  1.6479 -0.4618  2.4261
 5233TIP3   OH215704   5.133   3.699   4.490  0.2828 -0.2590  0.1864
 5233TIP3    H115705   5.176   3.646   4.557 -2.1596 -1.5108  0.8639
 5233TIP3    H215706   5.145   3.649   4.409  1.9767  0.5416 -0.1139
 5234TIP3   OH215707   5.229   5.765   3.620 -0.0129  0.4256 -0.1881
 5234TIP3    H115708   5.199   5.689   3.571 -1.1380  0.2039  0.7899
 5234TIP3    H215709   5.323   5.770   3.603 -0.0408 -0.8018 -0.7716
 5235TIP3   OH215710   5.107   3.537   4.264  0.2438  0.1077  0.0206
 5235TIP3    H115711   5.018   3.573   4.262  0.7954  1.7150  1.8618
 5235TIP3    H215712   5.099   3.456   4.315  0.3827  2.3773  4.0742
 5236TIP3   OH215713   1.290   3.585   4.414  0.1670 -0.6508 -0.0729
 5236TIP3    H115714   1.301   3.626   4.500 -2.0245 -0.8625  0.3737
 5236TIP3    H215715   1.345   3.506   4.418  0.8735 -0.1287  0.7428
 5237TIP3   OH215716   0.119   3.132   0.175  0.4584  0.2408 -0.3834
 5237TIP3    H115717   0.087   3.183   0.249 -0.6299  0.8061 -1.2118
 5237TIP3    H215718   0.048   3.070   0.156  1.1809 -0.6428 -0.2738
 5238TIP3   OH215719   6.288   4.520   2.982  0.0301  0.2517  0.3246
 5238TIP3    H115720   6.269   4.535   2.890 -1.3865  0.3362  0.6167
 5238TIP3    H215721   6.239   4.442   3.005 -1.3722  1.4143  1.5149
 5239TIP3   OH215722   3.063   3.034   4.488 -0.5855  0.2685 -0.4186
 5239TIP3    H115723   3.121   3.052   4.415 -1.8037  2.1691 -0.9884
 5239TIP3    H215724   3.083   2.944   4.514  0.5169 -0.1237 -2.4827
 5240TIP3   OH215725   1.715   3.435   2.358  0.3391 -0.0835  0.4500
 5240TIP3    H115726   1.691   3.471   2.273  2.3360  1.3185  0.4015
 5240TIP3    H215727   1.752   3.349   2.338  1.3673  0.4905 -0.2129
 5241TIP3   OH215728   3.438   2.404   1.994 -0.9425  0.6401 -0.4035
 5241TIP3    H115729   3.396   2.349   1.927 -1.7859  1.5062 -0.6123
 5241TIP3    H215730   3.458   2.486   1.948  0.9325  0.2871 -0.2792
 5242TIP3   OH215731   5.556   0.799   2.865 -0.5296  0.1152 -0.1134
 5242TIP3    H115732   5.570   0.816   2.958  0.0634 -0.1610 -0.1405
 5242TIP3    H215733   5.469   0.761   2.860 -0.3311 -0.4344  0.4162
 5243TIP3   OH215734   4.484   2.173   3.752 -0.2293  0.0621  0.2827
 5243TIP3    H115735   4.434   2.254   3.760  0.4563  0.3569  2.2232
 5243TIP3    H215736   4.497   2.144   3.842 -0.4274 -2.2212 -0.3675
 5244TIP3   OH215737   1.721   0.794   0.870  0.1837 -0.0445  0.0748
 5244TIP3    H115738   1.737   0.710   0.913 -0.7671 -1.0671 -1.5078
 5244TIP3    H215739   1.704   0.772   0.779 -2.2038  1.6516  0.0302
 5245TIP3   OH215740   2.089   5.540   0.083 -0.2578  0.0405 -0.6270
 5245TIP3    H115741   2.056   5.480   0.015  1.3112 -1.6396  0.0190
 5245TIP3    H215742   2.013   5.555   0.139 -0.4756 -2.2441 -0.2074
 5246TIP3   OH215743   4.237   0.427   1.478 -0.0417  0.4789 -0.4423
 5246TIP3    H115744   4.199   0.506   1.438 -1.4138  0.1472  0.1336
 5246TIP3    H215745   4.186   0.413   1.558  1.1329 -0.1862  0.2230
 5247TIP3   OH215746   0.029   3.822   2.699 -0.4847  0.1427  0.0612
 5247TIP3    H115747   0.050   3.911   2.728  0.3784 -0.0543  0.0819
 5247TIP3    H215748  -0.014   3.834   2.614  1.3001  0.5181 -0.8370
 5248TIP3   OH215749   0.025   3.806   2.163 -0.5311  0.1091 -0.1618
 5248TIP3    H115750   0.040   3.838   2.251  0.2496 -0.1414 -0.1974
 5248TIP3    H215751   0.060   3.874   2.106 -0.8289  0.1674 -0.2805
 5249TIP3   OH215752   0.474   1.949   3.984  0.0950 -0.2095  0.5727
 5249TIP3    H115753   0.457   2.022   3.925 -1.2983 -0.2229  0.9246
 5249TIP3    H215754   0.416   1.879   3.955 -0.2842 -0.3731  1.6547
 5250TIP3   OH215755   1.469   2.978   1.049  0.3232 -0.1717  0.0471
 5250TIP3    H115756   1.541   3.023   1.093  0.3573 -1.1858  1.0620
 5250TIP3    H215757   1.506   2.952   0.964 -0.1467  2.9611 -1.2300
 5251TIP3   OH215758   5.819   1.192   1.604 -0.1530  0.3171 -0.4510
 5251TIP3    H115759   5.896   1.208   1.549 -0.2214 -0.4421 -0.7855
 5251TIP3    H215760   5.789   1.279   1.630  0.3927  0.6487 -0.9030
 5252TIP3   OH215761   5.453   1.512   0.711 -0.0064  0.8341  0.2855
 5252TIP3    H115762   5.436   1.606   0.714 -1.7542  0.6130 -0.9635
 5252TIP3    H215763   5.421   1.479   0.794 -2.3518  0.9785 -0.4885
 5253TIP3   OH215764   1.981   0.266   5.162 -0.2610 -0.0597 -0.2583
 5253TIP3    H115765   1.941   0.179   5.162  0.1473 -0.2685 -1.6210
 5253TIP3    H215766   2.058   0.257   5.106  0.7166  0.7769  0.9073
 5254TIP3   OH215767   5.036   0.484   1.966 -0.8782  0.1070  0.2885
 5254TIP3    H115768   5.080   0.533   2.036 -0.0400  0.0705 -0.1947
 5254TIP3    H215769   5.107   0.462   1.905 -1.4817 -0.4863 -0.2038
 5255TIP3   OH215770   2.619   0.144   0.796 -0.1749  0.3325  0.0443
 5255TIP3    H115771   2.526   0.125   0.810  0.0745 -0.7143  0.3609
 5255TIP3    H215772   2.630   0.142   0.701 -0.0973 -1.5321  0.0639
 5256TIP3   OH215773   4.367   0.606   1.240  0.5264 -0.3726  0.2374
 5256TIP3    H115774   4.271   0.605   1.243  0.4589  2.1825  1.4021
 5256TIP3    H215775   4.391   0.514   1.253 -1.7633 -0.8910  1.5854
 5257TIP3   OH215776   2.379   4.870   4.118 -0.2308  0.3343  0.0230
 5257TIP3    H115777   2.334   4.785   4.110  0.1519 -0.0043  1.2609
 5257TIP3    H215778   2.466   4.855   4.083 -0.2963  0.3188 -0.1309
 5258TIP3   OH215779   1.883   4.706   2.432  0.2135  0.0529  0.0429
 5258TIP3    H115780   1.854   4.755   2.355  1.7273  2.8806  1.1442
 5258TIP3    H215781   1.977   4.697   2.421  0.0511 -2.6743 -0.0205
 5259TIP3   OH215782   3.769   1.657   0.419 -0.3097 -0.0133 -0.5038
 5259TIP3    H115783   3.859   1.626   0.410 -0.8747 -1.2885 -2.1813
 5259TIP3    H215784   3.778   1.744   0.458  1.4579 -1.1811  1.9839
 5260TIP3   OH215785   4.103   0.673   3.363 -0.3339  0.2384  0.9242
 5260TIP3    H115786   4.011   0.653   3.382 -0.3604 -0.4939  0.0930
 5260TIP3    H215787   4.152   0.623   3.428 -0.4510 -1.5166 -0.2680
 5261TIP3   OH215788   1.333   0.799   1.079  0.1090 -0.4542 -0.0509
 5261TIP3    H115789   1.351   0.705   1.077 -1.8856 -0.8955  0.2961
 5261TIP3    H215790   1.373   0.829   1.161 -1.2372 -1.5005  1.0367
 5262TIP3   OH215791   3.039   3.792   1.814 -0.1977  0.4816 -0.1061
 5262TIP3    H115792   3.120   3.825   1.774 -0.7646  0.9510 -0.9004
 5262TIP3    H215793   2.985   3.765   1.740 -0.4176 -0.6954  0.4573
 5263TIP3   OH215794   2.318   4.691   2.670 -0.4806  0.8164  0.2105
 5263TIP3    H115795   2.361   4.630   2.731 -0.0931 -0.1372 -0.9623
 5263TIP3    H215796   2.229   4.699   2.703 -0.6417 -0.6694  0.2210
 5264TIP3   OH215797   4.141   2.100   1.091 -0.1513  0.3340 -0.3235
 5264TIP3    H115798   4.231   2.092   1.124 -0.1346 -0.2429 -0.4968
 5264TIP3    H215799   4.114   2.010   1.075 -0.4663  0.5555 -1.0759
 5265TIP3   OH215800   5.809   4.300   2.365  0.3131 -0.1334 -0.1537
 5265TIP3    H115801   5.717   4.323   2.361  0.0027 -1.4390 -1.0974
 5265TIP3    H215802   5.814   4.212   2.327  1.8736 -0.2856  0.3242
 5266TIP3   OH215803   5.071   1.465   2.445  0.3170 -0.0162  0.1689
 5266TIP3    H115804   5.128   1.416   2.386  0.2422 -0.0986  0.1647
 5266TIP3    H215805   4.989   1.475   2.397  0.6322  0.9109 -0.2009
 5267TIP3   OH215806   3.969   5.592   0.010  0.3564  0.5306 -0.1104
 5267TIP3    H115807   3.889   5.613   0.059  1.3185  1.9345  0.9278
 5267TIP3    H215808   3.946   5.515  -0.041 -0.9404 -0.5670  1.9804
 5268TIP3   OH215809   4.541   4.559   3.342  0.1645  0.3577 -0.2220
 5268TIP3    H115810   4.477   4.488   3.354  0.6267  0.1740  1.4423
 5268TIP3    H215811   4.619   4.528   3.388  1.1232  1.0318 -1.3505
 5269TIP3   OH215812   5.578   1.387   3.304  0.1931 -0.5000  0.4574
 5269TIP3    H115813   5.635   1.453   3.344  0.4198 -1.3112  1.5224
 5269TIP3    H215814   5.561   1.324   3.374 -1.5791 -0.5752  0.0156
 5270TIP3   OH215815   0.585   3.588   1.812 -0.1859  0.1133  0.7385
 5270TIP3    H115816   0.562   3.495   1.804  0.6531 -0.0362 -0.0644
 5270TIP3    H215817   0.502   3.634   1.799 -0.7377 -0.5361  1.8470
 5271TIP3   OH215818   1.538   0.657   1.322  0.1336  0.8940  0.2385
 5271TIP3    H115819   1.592   0.598   1.374 -0.8166 -0.5492 -0.3549
 5271TIP3    H215820   1.525   0.612   1.239 -0.9400  1.7513 -0.0877
 5272TIP3   OH215821   1.084   2.042   0.096 -1.0292 -0.0741 -0.4468
 5272TIP3    H115822   1.145   2.090   0.153  0.1563 -1.2429 -0.7027
 5272TIP3    H215823   1.013   2.016   0.155  0.3443 -1.5756  0.6516
 5273TIP3   OH215824   4.437   1.996   4.469  0.6984  0.7529 -0.3421
 5273TIP3    H115825   4.349   1.969   4.444  2.2916 -3.7430 -2.0175
 5273TIP3    H215826   4.431   2.013   4.563 -1.9607  0.9731 -0.4728
 5274TIP3   OH215827   6.190   2.405   3.670 -0.0583 -0.1189 -0.0507
 5274TIP3    H115828   6.139   2.466   3.724  1.1483  0.8768  0.0220
 5274TIP3    H215829   6.157   2.319   3.693 -0.2266  0.3493  1.5813
 5275TIP3   OH215830   0.885   0.516   2.285  0.2371  0.0644  0.3228
 5275TIP3    H115831   0.842   0.495   2.202 -1.9680 -0.2641  1.4707
 5275TIP3    H215832   0.961   0.569   2.260 -0.3716 -0.0073 -1.8919
 5276TIP3   OH215833   2.598   4.623   0.344  0.3359 -0.2617 -0.2031
 5276TIP3    H115834   2.593   4.714   0.376  2.4832 -0.0338 -0.3967
 5276TIP3    H215835   2.528   4.617   0.279  0.2263  1.2857 -0.2704
 5277TIP3   OH215836   4.254   0.581   2.675 -0.4480 -0.2306  0.2289
 5277TIP3    H115837   4.211   0.532   2.605 -1.3273 -1.1200  1.3606
 5277TIP3    H215838   4.187   0.592   2.741 -0.0236  1.7948  0.3778
 5278TIP3   OH215839   5.239   3.009   0.683  0.4570 -0.6618  0.4311
 5278TIP3    H115840   5.316   3.040   0.731  0.5343  1.3018 -0.8372
 5278TIP3    H215841   5.166   3.056   0.723  0.4340  0.4218 -0.7977
 5279TIP3   OH215842   0.893   1.063   0.246 -0.2867 -0.9544  0.1154
 5279TIP3    H115843   0.864   1.111   0.168  0.6218 -1.3144 -0.4538
 5279TIP3    H215844   0.813   1.023   0.280 -0.6787 -0.8542 -0.6689
 5280TIP3   OH215845   4.244   2.678   2.093  0.5291 -0.1539  0.2218
 5280TIP3    H115846   4.154   2.704   2.072  0.1212 -1.0784  0.7626
 5280TIP3    H215847   4.243   2.660   2.187  0.5866 -2.7295 -0.1970
 5281TIP3   OH215848   2.938   3.406   2.297 -0.3407 -0.3559  0.1066
 5281TIP3    H115849   3.032   3.407   2.313 -0.0874 -2.3804 -0.9425
 5281TIP3    H215850   2.899   3.407   2.385  0.5752  1.3660  0.5491
 5282TIP3   OH215851   1.517   1.264   1.059 -0.1322  0.1104 -0.2663
 5282TIP3    H115852   1.453   1.322   1.101  1.5315 -0.1978  3.0622
 5282TIP3    H215853   1.506   1.181   1.105  0.1079 -1.0994 -2.3133
 5283TIP3   OH215854   4.337   5.614   3.591  0.0943  0.5909  0.4741
 5283TIP3    H115855   4.328   5.706   3.616 -0.4810  0.7361 -0.2453
 5283TIP3    H215856   4.320   5.566   3.672  2.4265  1.1382  1.3619
 5284TIP3   OH215857   0.235   2.237   1.121  0.7346  0.7833  0.2311
 5284TIP3    H115858   0.275   2.181   1.188 -0.6681  1.7126  1.9239
 5284TIP3    H215859   0.306   2.296   1.094  1.4132  0.1662  0.6181
 5285TIP3   OH215860   0.570   6.007   5.019 -0.6687  0.2979  0.3949
 5285TIP3    H115861   0.636   5.942   4.995 -0.1448  0.7158  0.6878
 5285TIP3    H215862   0.496   5.955   5.050  0.2792 -0.1509  2.0206
 5286TIP3   OH215863   3.923   1.092   1.074  0.3460  0.2170  0.1352
 5286TIP3    H115864   3.845   1.042   1.098  1.0267 -1.2703 -0.6547
 5286TIP3    H215865   3.996   1.040   1.109  1.1486 -0.0724 -1.8779
 5287TIP3   OH215866   0.643   0.653   0.289 -0.3402 -0.3534 -0.4577
 5287TIP3    H115867   0.603   0.681   0.207 -0.0016  0.3748 -0.3823
 5287TIP3    H215868   0.572   0.654   0.353 -0.0448  1.8821 -0.1038
 5288TIP3   OH215869   1.016   3.315   1.381 -0.1779 -0.7093 -0.3188
 5288TIP3    H115870   1.028   3.290   1.289 -0.9168 -0.4101 -0.4970
 5288TIP3    H215871   1.105   3.324   1.415  0.0987 -1.1152 -0.9251
 5289TIP3   OH215872   3.346   2.974   1.634 -0.0190  0.1828  0.2361
 5289TIP3    H115873   3.382   2.975   1.545 -0.2925  0.3650  0.1263
 5289TIP3    H215874   3.278   3.042   1.633  0.2719  0.4920  0.7037
 5290TIP3   OH215875   4.074   1.760   3.672  0.7806  0.6196  0.2843
 5290TIP3    H115876   4.163   1.727   3.658  0.8647  0.9538  0.0321
 5290TIP3    H215877   4.046   1.792   3.587 -0.1679 -0.8823  0.0022
 5291TIP3   OH215878   4.950   1.735   0.032 -0.1042 -0.0069 -0.6198
 5291TIP3    H115879   4.931   1.737   0.126 -1.3953  2.3908 -0.8649
 5291TIP3    H215880   4.917   1.650   0.003  1.3354 -1.2956  1.2283
 5292TIP3   OH215881   5.355   4.560   2.176  0.0676  0.2839  0.2596
 5292TIP3    H115882   5.413   4.494   2.135  1.0749  0.6839  0.9941
 5292TIP3    H215883   5.412   4.606   2.237 -1.3297 -0.0838  1.8854
 5293TIP3   OH215884   0.637   1.385   5.148  0.5483  0.4411 -0.3918
 5293TIP3    H115885   0.554   1.418   5.112  1.5042 -0.0182 -3.2914
 5293TIP3    H215886   0.690   1.365   5.071  1.6736 -3.7918  1.2186
 5294TIP3   OH215887   0.302   3.502   5.016  0.1574  0.1524 -0.3994
 5294TIP3    H115888   0.274   3.553   5.092 -1.8836  0.4697 -1.2830
 5294TIP3    H215889   0.380   3.547   4.985  0.5424  0.5172  0.9997
 5295TIP3   OH215890   2.583   2.576   3.644 -0.2201  0.2495 -0.5522
 5295TIP3    H115891   2.662   2.615   3.681  0.6914 -2.6052  0.7594
 5295TIP3    H215892   2.525   2.563   3.719 -0.0004 -1.9062 -0.6943
 5296TIP3   OH215893   1.368   3.177   3.416  0.3122 -0.0237 -0.2119
 5296TIP3    H115894   1.426   3.236   3.465  0.9227 -0.3334 -0.5509
 5296TIP3    H215895   1.280   3.207   3.438  0.6007  1.5183 -0.9742
 5297TIP3   OH215896   2.660   3.786   3.289 -0.0613 -0.0022 -0.1064
 5297TIP3    H115897   2.665   3.855   3.223  2.5972  0.2243  0.2271
 5297TIP3    H215898   2.644   3.706   3.239 -0.5612  0.4879 -0.7489
 5298TIP3   OH215899   4.179   0.776   2.340 -0.0435 -0.4580 -0.1934
 5298TIP3    H115900   4.106   0.772   2.278  1.3009 -0.7528 -1.8182
 5298TIP3    H215901   4.240   0.839   2.302  0.6277 -0.3109  1.0720
 5299TIP3   OH215902   5.107   5.253   5.088 -0.3349  0.3490  1.0504
 5299TIP3    H115903   5.111   5.328   5.029  0.6219 -0.6567 -0.2278
 5299TIP3    H215904   5.197   5.224   5.096 -0.7875 -1.3067  0.6174
 5300TIP3   OH215905   4.100   1.504   1.977 -0.2145 -0.0452  0.4947
 5300TIP3    H115906   4.062   1.592   1.978 -0.5123 -0.1720  0.4901
 5300TIP3    H215907   4.126   1.490   1.886  0.3100  0.2400  0.5995
 5301TIP3   OH215908   5.432   2.661   0.451 -0.6600  0.5068 -0.2501
 5301TIP3    H115909   5.439   2.580   0.502 -0.1340  1.1099  0.6515
 5301TIP3    H215910   5.492   2.647   0.377 -2.3923 -0.8969 -1.4722
 5302TIP3   OH215911   0.239   4.014   0.365 -0.0632  0.4512 -0.3318
 5302TIP3    H115912   0.190   4.043   0.288  0.7635 -1.3236 -1.5955
 5302TIP3    H215913   0.312   4.076   0.371  1.3338 -0.8050 -2.6106
 5303TIP3   OH215914   3.904   2.106   0.524  0.2163 -0.0677  0.8275
 5303TIP3    H115915   3.962   2.090   0.598 -1.5561 -1.8255  1.9297
 5303TIP3    H215916   3.955   2.078   0.448  0.9360 -1.2859  1.7233
 5304TIP3   OH215917   2.262   3.058   1.546 -0.4985 -0.1573 -0.4051
 5304TIP3    H115918   2.261   3.074   1.640  1.1101  0.5001 -0.4633
 5304TIP3    H215919   2.201   2.986   1.532 -0.0135 -0.9192  1.2660
 5305TIP3   OH215920   0.195   1.277   0.930  0.1874 -0.5779  0.2570
 5305TIP3    H115921   0.281   1.234   0.923 -0.1780 -1.1643 -0.9809
 5305TIP3    H215922   0.186   1.326   0.848 -0.0648  0.6527  1.0010
 5306TIP3   OH215923   5.744   1.042   2.429 -0.1450  0.0156  0.6388
 5306TIP3    H115924   5.679   1.063   2.363  0.8125  1.5976  0.1477
 5306TIP3    H215925   5.693   1.022   2.508 -1.2304  1.5888  0.3805
 5307TIP3   OH215926   5.896   1.555   2.485  0.6741  0.1607 -0.4838
 5307TIP3    H115927   5.959   1.515   2.424  0.9954  1.4196 -1.0234
 5307TIP3    H215928   5.868   1.635   2.440  0.9314  1.1406  1.0256
 5308TIP3   OH215929   2.206   4.205   1.924  0.0408 -0.0111 -0.0109
 5308TIP3    H115930   2.176   4.278   1.870 -0.3606 -0.4130 -0.3274
 5308TIP3    H215931   2.131   4.182   1.978  0.8892  1.4532  1.9283
 5309TIP3   OH215932   4.544   2.779   3.291  0.0286 -0.0239 -0.1487
 5309TIP3    H115933   4.597   2.780   3.370  0.7032  0.9601 -0.5877
 5309TIP3    H215934   4.562   2.695   3.250  0.4385 -0.1304  0.2458
 5310TIP3   OH215935   4.063   1.009   0.370  0.0325  0.1371 -0.6020
 5310TIP3    H115936   3.993   0.972   0.424 -0.8534  2.5790  0.0757
 5310TIP3    H215937   4.144   0.975   0.409 -0.5801  1.5315  2.1612
 5311TIP3   OH215938   5.517   2.562   1.016  0.0141  0.1821 -0.0150
 5311TIP3    H115939   5.446   2.499   1.036  0.2816 -0.1836 -0.2086
 5311TIP3    H215940   5.512   2.575   0.922 -2.2114  3.0612  0.3490
 5312TIP3   OH215941   3.489   1.268   3.541 -1.0156 -0.2435  0.1707
 5312TIP3    H115942   3.440   1.186   3.537 -0.7298 -0.4445  0.7612
 5312TIP3    H215943   3.581   1.242   3.535 -0.8784 -0.0420  1.1991
 5313TIP3   OH215944   6.304   3.469   0.935  0.4997 -0.6218  0.3201
 5313TIP3    H115945   6.388   3.508   0.960  0.1235 -0.1871  0.9319
 5313TIP3    H215946   6.322   3.375   0.934  1.8120 -0.4565 -2.6369
 5314TIP3   OH215947   2.321   0.947   1.064 -0.4166  0.1797 -0.6268
 5314TIP3    H115948   2.234   0.907   1.067  0.3417 -1.6086 -1.2313
 5314TIP3    H215949   2.327   0.985   0.976 -0.6999  0.5973 -0.4682
 5315TIP3   OH215950   5.059   2.936   3.195  0.3212  0.0513  0.2939
 5315TIP3    H115951   5.123   2.946   3.124 -0.5112 -0.3795 -0.5499
 5315TIP3    H215952   4.989   2.998   3.173 -0.9050 -1.5153 -0.4067
 5316TIP3   OH215953   6.055   0.112   2.690 -0.3774 -0.1749  0.6301
 5316TIP3    H115954   5.997   0.187   2.705 -0.7464 -0.4157  0.4273
 5316TIP3    H215955   6.029   0.048   2.756 -0.5878 -0.4262  0.3003
 5317TIP3   OH215956   0.676   5.097   2.412  0.2099 -0.0630  0.5008
 5317TIP3    H115957   0.662   5.002   2.416 -1.7508  0.0927 -1.1612
 5317TIP3    H215958   0.712   5.112   2.325 -0.6931  0.8152  0.2641
 5318TIP3   OH215959   2.641   1.251   1.984  0.3271 -0.2508  0.1959
 5318TIP3    H115960   2.722   1.199   1.981  0.5399  0.0472  0.6345
 5318TIP3    H215961   2.580   1.202   1.930  0.7644 -0.5472 -0.0428
 5319TIP3   OH215962   2.911   4.028   2.653 -0.2449  0.6622  0.1010
 5319TIP3    H115963   2.961   4.051   2.575  0.0709 -0.3153  0.0010
 5319TIP3    H215964   2.827   3.997   2.619 -0.6277  1.5308  0.2289
 5320TIP3   OH215965   4.051   5.613   4.949  0.2268 -0.2376  0.4916
 5320TIP3    H115966   4.062   5.556   4.873 -1.4418  0.6764 -0.5083
 5320TIP3    H215967   3.968   5.584   4.989  0.7933 -0.3313  1.6374
 5321TIP3   OH215968   6.087   2.391   2.028 -0.1624 -0.5425  0.5700
 5321TIP3    H115969   6.096   2.474   1.981  0.7282 -0.9032  0.0725
 5321TIP3    H215970   6.114   2.411   2.117  0.1065 -0.3106  0.4393
 5322TIP3   OH215971   2.862   1.294   4.203  0.0388  0.5785 -0.2900
 5322TIP3    H115972   2.788   1.246   4.166 -1.5840  1.9622  0.9785
 5322TIP3    H215973   2.831   1.323   4.289  2.8189 -0.5202  1.1930
 5323TIP3   OH215974   2.472   0.457   2.864  0.1299 -0.3265 -0.6630
 5323TIP3    H115975   2.396   0.492   2.816  0.3176  1.7438  0.4494
 5323TIP3    H215976   2.541   0.453   2.798 -0.7733 -1.7683 -1.5772
 5324TIP3   OH215977   1.830   4.132   0.911 -0.2297  0.1034 -0.1030
 5324TIP3    H115978   1.909   4.186   0.907 -0.5114  0.7178  1.6692
 5324TIP3    H215979   1.771   4.180   0.969 -2.3501  0.1838 -2.1503
 5325TIP3   OH215980   2.729   4.675   4.635  0.6763 -0.0832  0.3082
 5325TIP3    H115981   2.822   4.698   4.627  0.5526  0.7532  1.1211
 5325TIP3    H215982   2.716   4.660   4.729 -0.1108  0.2447  0.2607
 5326TIP3   OH215983   6.234   3.483   4.410  0.8973 -0.4093  0.1700
 5326TIP3    H115984   6.229   3.428   4.488  0.6675 -1.8231 -0.7802
 5326TIP3    H215985   6.151   3.531   4.409  0.4124 -1.2173  0.2318
 5327TIP3   OH215986   1.206   1.620   1.950  0.3868 -0.3575 -0.4407
 5327TIP3    H115987   1.125   1.672   1.950  1.7484  2.0387  2.4139
 5327TIP3    H215988   1.180   1.536   1.988 -0.6709  0.6686  1.2457
 5328TIP3   OH215989   0.033   4.605   1.373  0.3302  0.2023  0.2742
 5328TIP3    H115990  -0.050   4.647   1.351  1.0824  1.7964  0.3718
 5328TIP3    H215991   0.049   4.630   1.464  0.1734 -1.4088  0.7784
 5329TIP3   OH215992   5.703   3.759   3.242  0.4469  0.0979  0.0802
 5329TIP3    H115993   5.683   3.780   3.333  0.1408 -0.6551  0.1866
 5329TIP3    H215994   5.755   3.834   3.211  1.0639  0.0788  1.0480
 5330TIP3   OH215995   3.944   1.277   4.874  0.8904 -0.3035 -0.8051
 5330TIP3    H115996   3.939   1.372   4.883 -3.2807 -0.4241  0.9009
 5330TIP3    H215997   3.966   1.246   4.962 -0.8521 -0.8633 -0.5178
 5331TIP3   OH215998   0.637   1.435   1.758  0.3062 -0.7254  0.5294
 5331TIP3    H115999   0.632   1.477   1.844 -1.5024  0.2170  0.0314
 5331TIP3    H216000   0.572   1.482   1.705  1.7953 -0.8800 -1.5406
 5332TIP3   OH216001   5.017   1.865   3.451  0.2749  0.6112  0.0535
 5332TIP3    H116002   5.095   1.885   3.504 -1.3816 -0.2669  3.0998
 5332TIP3    H216003   5.036   1.780   3.412  0.5323 -0.0952  1.6120
 5333TIP3   OH216004   4.554   1.709   0.563  0.4517  0.0235 -0.2054
 5333TIP3    H116005   4.577   1.631   0.512 -0.3082 -0.5818  0.3525
 5333TIP3    H216006   4.612   1.778   0.530  1.2703 -0.8246 -0.5673
 5334TIP3   OH216007   6.254   5.695   1.377 -0.4991  0.2766  0.5847
 5334TIP3    H116008   6.333   5.749   1.368 -0.9058  0.5251 -2.1806
 5334TIP3    H216009   6.280   5.609   1.346 -1.3502  0.4351 -0.6277
 5335TIP3   OH216010   2.152   5.137   5.040 -0.2166 -0.1213  0.2432
 5335TIP3    H116011   2.227   5.192   5.063 -0.8702  0.9356 -0.0443
 5335TIP3    H216012   2.181   5.048   5.058  0.6936  0.3483  1.2515
 5336TIP3   OH216013   0.856   2.716   3.817  0.2982 -0.6633  0.6137
 5336TIP3    H116014   0.920   2.669   3.764  0.5954  0.6712 -0.2481
 5336TIP3    H216015   0.772   2.676   3.795  0.5385 -0.7522 -0.1491
 5337TIP3   OH216016   1.752   0.987   4.365  0.2842 -0.2985 -0.2003
 5337TIP3    H116017   1.755   1.047   4.291  3.1789 -0.0295  0.0159
 5337TIP3    H216018   1.826   0.927   4.350 -0.2035 -1.4154  1.5323
 5338TIP3   OH216019   2.147   3.237   4.801 -0.0204 -0.2696 -0.3553
 5338TIP3    H116020   2.209   3.226   4.730 -0.6101 -0.3910 -0.8595
 5338TIP3    H216021   2.076   3.289   4.764  0.5873  1.3881  0.7119
 5339TIP3   OH216022   1.207   4.268   5.091 -0.1592  0.6915  0.6525
 5339TIP3    H116023   1.192   4.315   5.173  1.5052 -0.1766  1.5104
 5339TIP3    H216024   1.292   4.226   5.103  0.0661  0.4421 -1.4913
 5340TIP3   OH216025   3.952   3.164   0.281 -0.0358  0.3308 -0.2187
 5340TIP3    H116026   4.036   3.121   0.296 -0.9681 -0.8650  2.1147
 5340TIP3    H216027   3.902   3.101   0.229  0.2713  0.7973 -1.1077
 5341TIP3   OH216028   4.968   3.480   3.442  0.2673  0.3232 -0.1020
 5341TIP3    H116029   4.937   3.408   3.496 -1.0139  0.6171 -0.4272
 5341TIP3    H216030   5.021   3.437   3.374 -2.0458 -0.5642 -1.4551
 5342TIP3   OH216031   2.765   0.263   5.148 -0.2049 -0.3520  0.9984
 5342TIP3    H116032   2.720   0.180   5.133  1.6216 -1.7864  2.8471
 5342TIP3    H216033   2.793   0.259   5.240 -1.8663  3.2856  1.8420
 5343TIP3   OH216034   1.261   0.529   0.067 -0.1803 -0.8392  0.2573
 5343TIP3    H116035   1.198   0.521   0.138 -1.2415 -0.6730 -0.6464
 5343TIP3    H216036   1.212   0.507  -0.012  0.6361  0.2595 -0.5826
 5344TIP3   OH216037   1.483   1.147   3.588 -0.3347 -0.0542  0.1825
 5344TIP3    H116038   1.415   1.212   3.569 -0.7795 -1.0799 -2.1927
 5344TIP3    H216039   1.441   1.086   3.648 -0.2722  1.2163  1.5704
 5345TIP3   OH216040   5.734   0.312   1.507  0.2725 -1.0614  0.6414
 5345TIP3    H116041   5.747   0.333   1.414 -0.3868 -1.3888  0.4643
 5345TIP3    H216042   5.640   0.320   1.520  0.4768  0.0582  1.5645
 5346TIP3   OH216043   1.205   2.905   1.002 -0.4036  0.0008  0.4237
 5346TIP3    H116044   1.125   2.911   1.053  1.0762 -1.8297  3.2572
 5346TIP3    H216045   1.275   2.909   1.067  1.6530 -2.4260 -1.4430
 5347TIP3   OH216046   2.960   0.796   4.350  0.0610 -0.5519  0.0856
 5347TIP3    H116047   2.880   0.762   4.310  0.3703  0.7048 -1.7357
 5347TIP3    H216048   2.974   0.880   4.308  1.4338  0.0410  1.6144
 5348TIP3   OH216049   6.353   0.704   3.444 -0.7214 -0.1467  0.1201
 5348TIP3    H116050   6.259   0.690   3.439 -1.1713 -0.4488  4.7971
 5348TIP3    H216051   6.385   0.635   3.502  2.3656  0.2106 -0.9480
 5349TIP3   OH216052   5.652   2.221   4.072  0.0069 -0.6355  0.0386
 5349TIP3    H116053   5.741   2.256   4.071 -0.0857 -0.3880  0.3775
 5349TIP3    H216054   5.638   2.187   3.984  1.0287 -2.1501  0.4162
 5350TIP3   OH216055   4.985   4.014   3.261 -1.2618 -0.2108 -0.0962
 5350TIP3    H116056   4.934   4.044   3.185 -1.8956 -2.2862 -0.5597
 5350TIP3    H216057   5.051   3.956   3.223  0.7595  1.5042  0.6284
 5351TIP3   OH216058   0.421   0.962   1.906 -0.0259  0.4624 -0.0439
 5351TIP3    H116059   0.448   1.028   1.843 -1.1147 -0.3262 -1.3865
 5351TIP3    H216060   0.326   0.969   1.910 -0.1121 -0.6659  0.2006
 5352TIP3   OH216061   5.400   0.855   0.236 -0.1306 -0.2579 -0.2999
 5352TIP3    H116062   5.364   0.828   0.151 -0.1856 -0.8530 -0.0887
 5352TIP3    H216063   5.495   0.848   0.225 -0.1484 -0.7157 -0.1925
 5353TIP3   OH216064   0.251   4.636   0.145  0.6626  0.3996 -0.4375
 5353TIP3    H116065   0.328   4.594   0.106 -0.2188 -1.3780 -0.4118
 5353TIP3    H216066   0.183   4.626   0.079 -0.1621 -0.2816  0.4749
 5354TIP3   OH216067   1.738   1.339   1.195 -0.6160  0.3070  0.3356
 5354TIP3    H116068   1.710   1.323   1.105  0.6144 -0.6783  0.0999
 5354TIP3    H216069   1.712   1.260   1.243  0.9005 -0.2387  0.2970
 5355TIP3   OH216070   5.302   0.946   2.377 -0.5016 -0.6558  0.3759
 5355TIP3    H116071   5.305   0.866   2.428 -0.3384  0.0881  1.5550
 5355TIP3    H216072   5.238   0.928   2.308  1.6509 -2.8550 -1.2515
 5356TIP3   OH216073   6.325   5.195   2.092 -0.2560  0.1896 -0.3043
 5356TIP3    H116074   6.279   5.178   2.174 -0.7897  0.7331 -0.4787
 5356TIP3    H216075   6.262   5.169   2.024 -0.2198  0.7231 -0.5445
 5357TIP3   OH216076   1.237   1.324   0.850  0.8995  0.2148 -0.5801
 5357TIP3    H116077   1.305   1.271   0.810  1.2204  0.3238 -0.1906
 5357TIP3    H216078   1.240   1.407   0.804  0.8662  0.1377 -0.7224
 5358TIP3   OH216079   6.179   3.033   4.956 -0.3527  0.1832 -0.3444
 5358TIP3    H116080   6.180   3.006   4.864 -0.3847 -1.5987  0.1362
 5358TIP3    H216081   6.126   2.966   5.000  0.7386  0.2615  1.1676
 5359TIP3   OH216082   5.136   3.609   1.878 -0.0051 -0.3050 -0.2551
 5359TIP3    H116083   5.153   3.525   1.835  0.3719 -0.4325  0.1426
 5359TIP3    H216084   5.072   3.588   1.947  0.8421 -0.4558  0.5006
 5360TIP3   OH216085   6.159   5.336   4.120 -0.3548  0.5116  0.2173
 5360TIP3    H116086   6.128   5.305   4.205  0.6510  1.2972  0.9009
 5360TIP3    H216087   6.214   5.266   4.086  0.4122  0.7708  0.8974
 5361TIP3   OH216088   4.019   3.246   2.572 -0.4893 -0.0245  0.0382
 5361TIP3    H116089   4.081   3.270   2.503 -0.1652  1.3051  0.7562
 5361TIP3    H216090   4.047   3.159   2.601  0.4782  0.1678 -0.2867
 5362TIP3   OH216091   1.049   1.901   2.500 -0.2789  0.1013  0.0415
 5362TIP3    H116092   0.968   1.951   2.507 -0.9819 -0.8280 -1.1902
 5362TIP3    H216093   1.069   1.876   2.591 -1.5201  0.1032  0.3320
 5363TIP3   OH216094   2.648   5.104   2.563 -0.1476 -0.3312  0.1491
 5363TIP3    H116095   2.685   5.034   2.509 -1.5591 -0.2822 -0.9304
 5363TIP3    H216096   2.719   5.167   2.572  0.2781 -0.5810 -1.2513
 5364TIP3   OH216097   4.403   4.842   4.060  0.0811  0.2469  0.1906
 5364TIP3    H116098   4.399   4.762   4.114  1.8674  0.3349  0.5040
 5364TIP3    H216099   4.490   4.840   4.021 -0.3941  1.3198 -0.9687
 5365TIP3   OH216100   1.978   2.851   1.482 -0.4599 -0.4854 -0.1919
 5365TIP3    H116101   1.981   2.760   1.511 -2.5354 -1.2511 -2.0953
 5365TIP3    H216102   1.891   2.861   1.444  0.2959  1.8382 -1.4938
 5366TIP3   OH216103   4.134   0.504   2.446  0.0830 -0.1246  0.0588
 5366TIP3    H116104   4.074   0.464   2.383 -2.9607  0.5939  2.2629
 5366TIP3    H216105   4.151   0.592   2.410 -3.5207  1.2065  1.0846
 5367TIP3   OH216106   5.661   1.745   3.796  0.2729  0.0741 -0.5477
 5367TIP3    H116107   5.692   1.786   3.877  0.0567 -1.7248  0.4811
 5367TIP3    H216108   5.566   1.736   3.808  0.2600 -0.3443 -0.9383
 5368TIP3   OH216109   3.122   4.155   4.195 -0.3475  0.0764 -0.1026
 5368TIP3    H116110   3.091   4.068   4.169 -2.8639  0.0387  2.6109
 5368TIP3    H216111   3.088   4.214   4.128 -1.4362 -0.6583 -0.2114
 5369TIP3   OH216112   1.019   0.539   4.484  0.1350  0.6443  0.4812
 5369TIP3    H116113   1.005   0.461   4.431  0.2366  0.2931  0.9655
 5369TIP3    H216114   1.033   0.506   4.572  1.2607  1.1373  0.5113
 5370TIP3   OH216115   0.559   3.887   4.900  0.3673  0.1967 -0.1643
 5370TIP3    H116116   0.509   3.908   4.821  0.0060 -1.5532 -0.4543
 5370TIP3    H216117   0.518   3.939   4.969  0.8212  1.9105 -1.1243
 5371TIP3   OH216118   0.732   1.960   2.837  0.0098  0.1095 -0.4682
 5371TIP3    H116119   0.663   1.989   2.897  0.9535 -0.2792  0.8384
 5371TIP3    H216120   0.726   1.864   2.838  1.3328  0.0124  0.6202
 5372TIP3   OH216121   4.651   1.512   2.815  0.5414 -0.1292  0.1002
 5372TIP3    H116122   4.583   1.550   2.759 -0.3250 -0.2997  1.0158
 5372TIP3    H216123   4.718   1.481   2.753  0.4665  1.3094 -0.7421
 5373TIP3   OH216124   1.468   2.222   0.636 -0.0030  0.6680  1.2395
 5373TIP3    H116125   1.511   2.293   0.684 -0.1148  0.0448  2.2765
 5373TIP3    H216126   1.522   2.145   0.652 -0.3839  0.3156  0.8642
 5374TIP3   OH216127   2.721   4.604   1.113  0.2719 -0.4032  0.0807
 5374TIP3    H116128   2.637   4.588   1.070 -0.0568 -1.2709  1.0112
 5374TIP3    H216129   2.782   4.621   1.041 -0.5193 -0.5828 -0.6500
 5375TIP3   OH216130   4.629   4.468   1.079  0.2959  0.5249  0.0143
 5375TIP3    H116131   4.556   4.503   1.129 -1.4518 -0.6110 -1.5945
 5375TIP3    H216132   4.633   4.376   1.106  0.2310  0.2518 -0.8861
 5376TIP3   OH216133   3.404   0.301   2.482  0.0890 -0.1921 -0.7480
 5376TIP3    H116134   3.486   0.341   2.512 -0.0225  0.9008 -1.8292
 5376TIP3    H216135   3.359   0.277   2.563  0.9442  0.2814 -0.1020
 5377TIP3   OH216136   4.026   4.967   0.193 -0.9467 -1.1038 -0.4152
 5377TIP3    H116137   3.999   5.024   0.121 -0.8422 -1.0518 -0.4131
 5377TIP3    H216138   4.103   5.009   0.229 -0.3151 -1.7342 -1.0044
 5378TIP3   OH216139   2.532   2.860   0.006 -0.1369 -0.0599  0.6427
 5378TIP3    H116140   2.462   2.876  -0.058 -1.4620  4.4796  2.8170
 5378TIP3    H216141   2.489   2.816   0.079  1.0215 -3.6822 -0.6330
 5379TIP3   OH216142   6.068   1.304   1.549 -0.0676 -0.0140  0.1286
 5379TIP3    H116143   6.070   1.289   1.644 -0.8209 -0.2161  0.1188
 5379TIP3    H216144   6.035   1.393   1.540  0.3676  0.1415  0.0655
 5380TIP3   OH216145   2.802   1.330   3.044  0.4224 -0.2764  0.7262
 5380TIP3    H116146   2.713   1.310   3.013  0.6441  1.5022 -1.3283
 5380TIP3    H216147   2.789   1.366   3.131 -0.5079 -3.1035  1.8546
 5381TIP3   OH216148   3.176   0.975   3.058 -0.4044 -0.0839 -0.2017
 5381TIP3    H116149   3.233   1.043   3.023 -2.6640  1.1570 -1.7765
 5381TIP3    H216150   3.117   1.022   3.117  0.5280 -1.4301  1.9213
 5382TIP3   OH216151   3.442   1.146   4.925 -0.1948 -0.2138  0.1457
 5382TIP3    H116152   3.400   1.126   5.009  2.0894  0.0775  1.4313
 5382TIP3    H216153   3.378   1.199   4.879 -1.6350 -0.5996  1.5902
 5383TIP3   OH216154   2.306   2.466   2.213  0.2388  0.1071  0.1673
 5383TIP3    H116155   2.260   2.523   2.150  0.8897 -0.9193 -1.2880
 5383TIP3    H216156   2.391   2.451   2.173  0.6127 -0.7192  1.2449
 5384TIP3   OH216157   4.645   3.541   0.375 -0.0513  0.1482 -0.3470
 5384TIP3    H116158   4.717   3.585   0.420  0.1650 -0.1254 -0.4256
 5384TIP3    H216159   4.591   3.612   0.340  0.4843  0.3494 -0.7689
 5385TIP3   OH216160   5.895   0.533   3.502 -0.6424 -0.2271 -0.2616
 5385TIP3    H116161   5.830   0.521   3.572 -1.2729 -0.2375 -0.8301
 5385TIP3    H216162   5.965   0.584   3.542 -1.3666  0.4652  0.1629
 5386TIP3   OH216163   1.095   3.383   4.692 -0.2526  0.3671 -0.0284
 5386TIP3    H116164   1.119   3.344   4.608  2.3471  0.7425  0.4819
 5386TIP3    H216165   1.023   3.443   4.670 -0.7332 -0.7316 -1.6707
 5387TIP3   OH216166   1.809   3.471   1.601 -0.2349 -0.2336 -0.0426
 5387TIP3    H116167   1.741   3.405   1.620 -1.1123  0.3625 -1.0066
 5387TIP3    H216168   1.760   3.549   1.576  0.8201 -0.1015 -1.7970
 5388TIP3   OH216169   4.646   4.556   4.992 -0.1791  0.1932 -0.1385
 5388TIP3    H116170   4.726   4.505   4.980 -0.6338  0.1717 -4.4121
 5388TIP3    H216171   4.670   4.645   4.966 -1.3184  0.3887 -0.5622
 5389TIP3   OH216172   1.399   4.720   4.844 -0.2070 -0.4145 -0.2850
 5389TIP3    H116173   1.488   4.725   4.879  0.3767  0.1627 -1.7682
 5389TIP3    H216174   1.363   4.639   4.882  0.9048 -0.5946  0.4266
 5390TIP3   OH216175   0.912   4.342   2.784  0.4353 -0.1035 -0.0658
 5390TIP3    H116176   0.946   4.373   2.868 -0.1740 -2.3197  1.0955
 5390TIP3    H216177   0.945   4.405   2.719  2.2930  0.7681  1.6205
 5391TIP3   OH216178   5.423   2.276   2.670  0.1143  0.2664 -0.0059
 5391TIP3    H116179   5.465   2.226   2.740  0.0149  0.0211 -0.1202
 5391TIP3    H216180   5.341   2.230   2.653 -1.1579  1.8323  1.5337
 5392TIP3   OH216181   2.098   3.371   2.842 -0.3256 -0.2697 -0.1725
 5392TIP3    H116182   2.182   3.412   2.819 -0.0159 -1.1186 -0.5913
 5392TIP3    H216183   2.079   3.405   2.929 -0.8398  1.9279 -1.0799
 5393TIP3   OH216184   2.062   0.562   3.456 -0.0823  0.4342  0.0568
 5393TIP3    H116185   2.120   0.608   3.517  0.7674  1.0786 -1.1791
 5393TIP3    H216186   2.072   0.610   3.374 -1.6954 -0.0095 -0.4266
 5394TIP3   OH216187   1.896   2.212   4.270 -0.0397  0.1140 -0.0116
 5394TIP3    H116188   1.976   2.161   4.283  1.1541  1.3426 -2.0977
 5394TIP3    H216189   1.852   2.169   4.197 -1.1596 -0.3349  0.8851
 5395TIP3   OH216190   5.200   3.867   2.376 -0.4563  0.2040  0.0063
 5395TIP3    H116191   5.260   3.843   2.304  0.9086  1.7448  0.5853
 5395TIP3    H216192   5.119   3.891   2.331  0.2760  0.8681 -1.0159
 5396TIP3   OH216193   4.566   4.024   1.401 -0.0132 -0.0313  0.5718
 5396TIP3    H116194   4.559   4.075   1.482 -1.9679 -0.0613  0.4576
 5396TIP3    H216195   4.545   4.087   1.332 -1.4843 -0.7122  0.3600
 5397TIP3   OH216196   0.466   2.718   0.698 -0.3400  0.5346  0.1022
 5397TIP3    H116197   0.480   2.747   0.608  0.9479  2.2227  0.7904
 5397TIP3    H216198   0.411   2.786   0.737 -0.9149 -0.1967  0.6081
 5398TIP3   OH216199   0.160   2.593   1.243 -0.4278 -0.3969  0.0755
 5398TIP3    H116200   0.252   2.607   1.266 -0.1090 -1.1714 -0.6876
 5398TIP3    H216201   0.120   2.560   1.323 -0.0104 -0.2251  0.3598
 5399TIP3   OH216202   1.914   0.263   1.510  0.2510  0.0039  0.1556
 5399TIP3    H116203   1.860   0.302   1.580  1.3901 -1.5145  1.9854
 5399TIP3    H216204   1.896   0.169   1.516  3.9917 -0.7997  1.8330
 5400TIP3   OH216205   2.400   0.248   1.890 -0.1819 -0.2191  0.4658
 5400TIP3    H116206   2.328   0.206   1.843 -0.5820 -0.2123  1.0621
 5400TIP3    H216207   2.362   0.274   1.974  0.8068 -1.3214  1.2996
 5401TIP3   OH216208   4.723   2.025   1.228  0.4777 -0.2107  0.0937
 5401TIP3    H116209   4.748   2.094   1.166  0.0523  0.2394  0.4141
 5401TIP3    H216210   4.731   1.944   1.178 -0.5463  0.2014 -0.7883
 5402TIP3   OH216211   3.082   3.555   2.789 -0.0674 -0.3319 -0.0683
 5402TIP3    H116212   3.136   3.624   2.750  0.3121  0.6628  2.0358
 5402TIP3    H216213   2.992   3.583   2.773  0.0597  1.2712  1.5736
 5403TIP3   OH216214   3.268   2.208   1.555 -0.4912  0.1083 -0.4059
 5403TIP3    H116215   3.347   2.190   1.606 -1.7907  0.0725  1.7048
 5403TIP3    H216216   3.205   2.239   1.620 -1.9450  1.0021 -2.1731
 5404TIP3   OH216217   6.251   4.070   1.030 -0.7307 -0.1199  0.6555
 5404TIP3    H116218   6.165   4.108   1.012 -0.2230  1.5466  1.5893
 5404TIP3    H216219   6.248   4.049   1.124 -0.2125 -0.3127  0.6307
 5405TIP3   OH216220   5.349   2.874   1.664  0.1694 -0.3229  0.1293
 5405TIP3    H116221   5.405   2.806   1.702  2.1232  0.9976 -0.2620
 5405TIP3    H216222   5.275   2.826   1.626  1.4725 -2.2276 -0.1334
 5406TIP3   OH216223   0.687   4.464   1.150  0.0683  0.2145  0.9844
 5406TIP3    H116224   0.715   4.432   1.064 -0.3239  0.6740  0.6841
 5406TIP3    H216225   0.704   4.390   1.209 -1.4595 -0.8337  0.1891
 5407TIP3   OH216226   4.281   5.230   2.896  0.7491 -0.6361 -0.1375
 5407TIP3    H116227   4.360   5.226   2.950 -0.5534 -2.6255  1.8052
 5407TIP3    H216228   4.216   5.272   2.953 -0.0084 -0.3986 -1.1519
 5408TIP3   OH216229   2.791   2.470   1.031 -0.3043  0.6333  0.3514
 5408TIP3    H116230   2.781   2.496   1.123  2.7240  0.4933  0.8233
 5408TIP3    H216231   2.817   2.551   0.987  1.7254  0.0187  0.3499
 5409TIP3   OH216232   0.004   0.415   3.160 -0.9066  0.2786  0.3456
 5409TIP3    H116233   0.082   0.391   3.109  0.3402  0.1406  2.2096
 5409TIP3    H216234   0.020   0.505   3.186 -2.5475  1.0791 -1.2401
 5410TIP3   OH216235   5.965   3.904   0.267  0.6116 -0.0208 -0.1072
 5410TIP3    H116236   5.927   3.886   0.181 -1.6281  0.7616  0.6511
 5410TIP3    H216237   5.950   3.823   0.317 -0.5743  0.4609  0.3444
 5411TIP3   OH216238   3.277   1.334   1.917  0.1128 -0.6974 -0.0570
 5411TIP3    H116239   3.289   1.353   2.010 -3.5362 -0.4408  0.5069
 5411TIP3    H216240   3.341   1.390   1.873  0.3849  0.9342  2.2219
 5412TIP3   OH216241   5.569   3.411   3.549 -0.1778  0.1352 -0.0700
 5412TIP3    H116242   5.545   3.319   3.536 -0.6911  0.4069 -1.1778
 5412TIP3    H216243   5.486   3.458   3.551  0.1067  0.6561 -0.2716
 5413TIP3   OH216244   4.169   3.753   0.825 -0.6282 -0.6615 -0.3601
 5413TIP3    H116245   4.147   3.788   0.739 -1.6565 -1.8313 -0.6043
 5413TIP3    H216246   4.188   3.830   0.879  2.0794  0.0364 -2.1281
 5414TIP3   OH216247   0.532   5.187   4.095  0.1177 -0.2275  0.5725
 5414TIP3    H116248   0.445   5.147   4.086 -0.0640  0.2152  0.3466
 5414TIP3    H216249   0.563   5.198   4.005  0.5673 -0.7281  0.6650
 5415TIP3   OH216250   4.963   4.921   4.993  0.2827 -0.0413  0.0947
 5415TIP3    H116251   5.041   4.925   4.938 -0.9241 -0.8018 -1.7928
 5415TIP3    H216252   4.917   4.841   4.964 -0.4846 -0.4177  2.1599
 5416TIP3   OH216253   4.794   2.800   2.912 -0.4292 -0.8562  0.1012
 5416TIP3    H116254   4.844   2.767   2.837 -2.5484 -2.1325 -0.8438
 5416TIP3    H216255   4.801   2.896   2.905  1.3453 -0.9797 -0.3092
 5417TIP3   OH216256   5.637   5.187   1.243 -0.2092 -0.3779  0.4796
 5417TIP3    H116257   5.613   5.115   1.301  0.8755 -1.5088 -0.4184
 5417TIP3    H216258   5.554   5.216   1.205 -0.9294  0.3509  2.4817
 5418TIP3   OH216259   0.943   5.489   1.254 -0.1389  0.1858 -0.3103
 5418TIP3    H116260   0.918   5.567   1.303  0.5108  2.0240 -2.6881
 5418TIP3    H216261   1.033   5.471   1.281 -1.4204 -2.2299  3.0824
 5419TIP3   OH216262   5.402   3.658   1.904 -0.2197  0.0485 -0.8069
 5419TIP3    H116263   5.307   3.649   1.891 -0.3400 -0.7978  0.4041
 5419TIP3    H216264   5.441   3.615   1.828 -0.8468 -2.1060 -0.0037
 5420TIP3   OH216265   1.547   5.545   1.584 -0.1007  0.0062  0.1718
 5420TIP3    H116266   1.575   5.507   1.501  1.2148 -0.4803  0.8024
 5420TIP3    H216267   1.514   5.632   1.561 -0.0812 -0.2574 -0.9001
 5421TIP3   OH216268   1.912   3.655   2.908  0.4681 -0.2647  0.1482
 5421TIP3    H116269   1.997   3.687   2.879  0.5989 -0.7152  0.0301
 5421TIP3    H216270   1.851   3.678   2.838  0.4437  0.2975  0.3541
 5422TIP3   OH216271   4.021   3.696   1.569  0.0091 -0.0808  0.1006
 5422TIP3    H116272   4.064   3.634   1.511 -0.2216 -0.2510  0.1080
 5422TIP3    H216273   4.040   3.782   1.531 -0.1587 -0.1913 -0.2429
 5423TIP3   OH216274   3.140   1.190   2.717 -0.0174  0.8703 -0.3692
 5423TIP3    H116275   3.122   1.239   2.797 -1.1419  1.9433 -1.2552
 5423TIP3    H216276   3.099   1.105   2.732  0.5858  0.7135  0.5412
 5424TIP3   OH216277   6.009   0.921   4.560 -0.0223  0.6251  0.1903
 5424TIP3    H116278   6.029   0.964   4.644 -0.5643  0.6053  0.3337
 5424TIP3    H216279   5.915   0.935   4.548  0.1436  1.0687 -0.6690
 5425TIP3   OH216280   2.346   2.031   2.036 -0.1905  0.3012 -0.1581
 5425TIP3    H116281   2.318   1.996   1.952  0.7620  0.3332 -0.5026
 5425TIP3    H216282   2.377   2.120   2.016  2.3959 -0.5386 -0.2666
 5426TIP3   OH216283   3.578   2.577   4.436 -0.0599  0.0493 -0.4732
 5426TIP3    H116284   3.669   2.579   4.463  0.1511 -1.8086 -0.9367
 5426TIP3    H216285   3.582   2.581   4.340 -0.3586 -1.4785 -0.5719
 5427TIP3   OH216286   5.902   1.458   0.988 -0.0518 -0.2169 -0.3626
 5427TIP3    H116287   5.914   1.369   1.021 -2.2195 -0.6099 -0.5381
 5427TIP3    H216288   5.878   1.509   1.066  0.7395  0.1406 -0.3412
 5428TIP3   OH216289   6.142   2.668   4.609  0.2846 -0.1430 -0.4058
 5428TIP3    H116290   6.157   2.749   4.657  2.2357 -0.0097 -1.1209
 5428TIP3    H216291   6.156   2.692   4.517  0.2270 -1.1396 -0.6856
 5429TIP3   OH216292   6.120   0.966   3.972  0.2831 -0.6332 -0.3243
 5429TIP3    H116293   6.160   1.020   3.903  0.2179 -1.0191 -0.6678
 5429TIP3    H216294   6.163   0.881   3.964 -0.7170 -1.1144 -0.8248
 5430TIP3   OH216295   3.618   3.793   1.769  0.0005  0.2844  0.4866
 5430TIP3    H116296   3.607   3.748   1.685  0.3216 -0.6946  0.9525
 5430TIP3    H216297   3.710   3.818   1.771  1.0557 -3.1894  2.1766
 5431TIP3   OH216298   1.060   3.396   4.975 -0.0634 -1.0590 -0.6138
 5431TIP3    H116299   1.073   3.369   4.884 -1.8475 -0.8915 -0.9483
 5431TIP3    H216300   1.027   3.486   4.969 -0.4443 -1.1376  0.1749
 5432TIP3   OH216301   2.355   1.004   1.366  0.0534 -0.5659 -0.1409
 5432TIP3    H116302   2.323   0.975   1.281  0.2397 -1.8153  0.1982
 5432TIP3    H216303   2.445   1.030   1.351 -0.1862  0.0838 -0.4963
 5433TIP3   OH216304   2.242   0.511   1.853  0.3024 -0.0200  0.8682
 5433TIP3    H116305   2.334   0.500   1.828  0.3509 -2.4877  1.8238
 5433TIP3    H216306   2.195   0.516   1.770  1.0226 -2.1103  0.2716
 5434TIP3   OH216307   3.810   5.346   2.062  0.3749  0.2062 -0.3950
 5434TIP3    H116308   3.807   5.440   2.044  0.5365  0.2677 -0.1072
 5434TIP3    H216309   3.761   5.306   1.990 -0.8025  0.6023  0.1751
 5435TIP3   OH216310   3.233   2.220   4.954  0.7746  0.1985  0.3473
 5435TIP3    H116311   3.195   2.307   4.943  0.6469  0.2621  1.2172
 5435TIP3    H216312   3.321   2.228   4.918  0.4890  0.4589 -0.3159
 5436TIP3   OH216313   5.279   4.405   0.810 -0.2205  0.0132 -0.1246
 5436TIP3    H116314   5.320   4.320   0.794  0.6097  0.3956 -0.0328
 5436TIP3    H216315   5.215   4.414   0.739 -2.0840 -1.7558  1.1871
 5437TIP3   OH216316   6.368   2.151   2.926 -0.2687 -0.1198 -0.3200
 5437TIP3    H116317   6.292   2.197   2.962  0.2880 -0.6755  1.7260
 5437TIP3    H216318   6.350   2.059   2.944  0.5804 -0.3143 -0.4583
 5438TIP3   OH216319   5.702   5.771   0.840 -0.0625  0.6018 -0.0106
 5438TIP3    H116320   5.657   5.723   0.770 -2.7789  2.1711  0.4871
 5438TIP3    H216321   5.772   5.818   0.796 -0.6391  0.2231 -1.3907
 5439TIP3   OH216322   2.724   4.348   2.851 -0.1600 -0.1030 -0.0812
 5439TIP3    H116323   2.671   4.421   2.885  0.3624  0.6475 -0.8536
 5439TIP3    H216324   2.662   4.295   2.801 -0.0649  1.1967 -1.6363
 5440TIP3   OH216325   5.386   1.955   4.801 -0.1018  0.1174  0.5873
 5440TIP3    H116326   5.430   2.022   4.748 -1.3583  0.9248  0.5315
 5440TIP3    H216327   5.295   1.984   4.806 -0.8498 -1.9245  0.0117
 5441TIP3   OH216328   0.381   0.400   4.864  0.1418 -0.0929 -1.0544
 5441TIP3    H116329   0.344   0.313   4.878 -1.1836  0.4538 -0.9720
 5441TIP3    H216330   0.315   0.446   4.811 -0.4094  1.6361  0.9486
 5442TIP3   OH216331   5.490   4.965   1.362 -0.4763 -0.3740  0.2279
 5442TIP3    H116332   5.521   4.947   1.274 -2.4801  1.3524 -0.9400
 5442TIP3    H216333   5.398   4.939   1.360 -1.3057  2.1750  0.8813
 5443TIP3   OH216334   5.497   2.651   2.736  0.1047  0.6786 -0.0785
 5443TIP3    H116335   5.446   2.652   2.655 -0.1024 -0.1336  0.0333
 5443TIP3    H216336   5.575   2.601   2.715  0.4999  1.2594 -0.0282
 5444TIP3   OH216337   0.771   0.853   4.969  0.1525  0.0728  0.6269
 5444TIP3    H116338   0.690   0.805   4.990  0.5561 -1.6991 -1.4700
 5444TIP3    H216339   0.835   0.820   5.033  0.8574 -3.6766 -1.7104
 5445TIP3   OH216340   3.081   0.947   2.790 -0.2084  0.6612 -0.0635
 5445TIP3    H116341   3.082   0.861   2.749  1.3000  2.0100 -3.1295
 5445TIP3    H216342   3.140   0.939   2.865  1.9536 -0.3968 -1.7748
 5446TIP3   OH216343   4.030   3.399   2.990 -0.5234  0.4447  0.6758
 5446TIP3    H116344   4.073   3.453   2.923 -1.0525  1.2689  0.9896
 5446TIP3    H216345   4.088   3.323   3.000  1.1304  1.7218  1.4098
 5447TIP3   OH216346   0.458   5.305   1.016 -0.2933 -0.4276  0.3100
 5447TIP3    H116347   0.412   5.277   1.095 -2.6268 -0.1620 -0.8751
 5447TIP3    H216348   0.399   5.283   0.944  1.6723 -0.4792 -1.3805
 5448TIP3   OH216349   6.182   0.946   1.045  0.1134 -0.4158 -0.1568
 5448TIP3    H116350   6.249   0.878   1.050 -0.1689 -0.6669  0.2586
 5448TIP3    H216351   6.229   1.027   1.063  0.1442 -0.6957  1.0731
 5449TIP3   OH216352   1.681   4.694   2.833  0.7147 -0.5279 -0.1437
 5449TIP3    H116353   1.648   4.709   2.922 -0.9087  1.9175 -1.0793
 5449TIP3    H216354   1.751   4.759   2.823  0.4422 -0.3404 -0.8620
 5450TIP3   OH216355   5.834   4.089   3.671 -0.6885  0.4020 -0.3521
 5450TIP3    H116356   5.842   4.180   3.699  0.3745  0.4889 -0.9100
 5450TIP3    H216357   5.920   4.051   3.685 -1.1697 -0.5966  0.0655
 5451TIP3   OH216358   5.349   3.291   4.372  1.0406  0.5252  0.0300
 5451TIP3    H116359   5.385   3.357   4.314  0.8627  1.4533  0.9461
 5451TIP3    H216360   5.419   3.226   4.382  0.6741 -0.2748 -2.1079
 5452TIP3   OH216361   0.222   5.141   2.958 -0.2343 -0.0497 -0.2478
 5452TIP3    H116362   0.201   5.049   2.973 -2.4899  0.4274 -0.0857
 5452TIP3    H216363   0.237   5.148   2.864  0.6903 -0.7011 -0.1558
 5453TIP3   OH216364   6.135   2.272   0.691 -0.5423 -0.6424  0.2256
 5453TIP3    H116365   6.146   2.330   0.616 -0.9614 -0.6137  0.1828
 5453TIP3    H216366   6.205   2.208   0.682 -0.1181 -0.1874  0.2353
 5454TIP3   OH216367   5.007   0.772   2.492  0.0935  0.0874 -0.1277
 5454TIP3    H116368   4.912   0.777   2.493  0.0905  0.0909  0.5767
 5454TIP3    H216369   5.034   0.828   2.565  0.5711 -0.9788  0.5373
 5455TIP3   OH216370   4.668   1.187   3.003 -0.2050  0.4123 -0.3760
 5455TIP3    H116371   4.718   1.225   2.931  0.3707 -1.7246 -1.1778
 5455TIP3    H216372   4.637   1.102   2.969 -2.0279  0.4464  1.0597
 5456TIP3   OH216373   4.919   3.031   2.787  0.3052 -0.1806  0.2160
 5456TIP3    H116374   5.009   2.999   2.783  1.2742  2.3823  0.2107
 5456TIP3    H216375   4.902   3.067   2.701  0.2891  1.8197  1.0060
 5457TIP3   OH216376   2.088   1.017   2.592  0.9600 -0.3656  0.4490
 5457TIP3    H116377   2.024   1.051   2.655  1.1666 -0.0822  0.5116
 5457TIP3    H216378   2.110   1.093   2.538  0.7113 -0.6335 -0.0287
 5458TIP3   OH216379   2.263   5.223   1.709 -0.2985 -0.1453  0.2544
 5458TIP3    H116380   2.287   5.149   1.764 -1.1414 -0.6468 -0.0294
 5458TIP3    H216381   2.187   5.192   1.659  1.3352 -0.2639 -2.3257
 5459TIP3   OH216382   5.676   0.675   3.850  0.1964  0.0430  0.1440
 5459TIP3    H116383   5.581   0.666   3.852 -0.2743  3.6492  1.7778
 5459TIP3    H216384   5.704   0.653   3.939  1.2585 -2.6392 -0.7299
 5460TIP3   OH216385   1.109   2.618   3.710 -0.0529  0.7212  0.0586
 5460TIP3    H116386   1.124   2.607   3.804 -0.5041  0.6632  0.1269
 5460TIP3    H216387   1.119   2.712   3.695  0.7240  0.6416  0.0332
 5461TIP3   OH216388   4.362   0.431   2.910  0.2080  0.1927 -0.3597
 5461TIP3    H116389   4.453   0.403   2.897  1.3565  2.1922  2.2662
 5461TIP3    H216390   4.346   0.492   2.838 -0.0289 -2.0292 -2.2924
 5462TIP3   OH216391   6.103   0.660   1.539  0.2883  0.1498  0.1234
 5462TIP3    H116392   6.113   0.754   1.530  0.6279 -0.0040 -1.3334
 5462TIP3    H216393   6.097   0.645   1.634  1.6067  1.4848  0.4412
 5463TIP3   OH216394   1.056   0.894   3.935 -0.1066 -0.6235  0.0410
 5463TIP3    H116395   1.016   0.881   4.021 -0.5578 -0.2034 -0.1021
 5463TIP3    H216396   1.026   0.980   3.907 -1.3796 -1.4599 -1.2852
 5464TIP3   OH216397   0.241   5.551   2.672  0.5695 -0.1112  0.1919
 5464TIP3    H116398   0.325   5.569   2.630  0.7761  2.6040  1.5827
 5464TIP3    H216399   0.265   5.508   2.754  0.3326 -2.4193 -0.8656
 5465TIP3   OH216400   2.686   0.450   2.683 -0.0206  0.1462 -0.3929
 5465TIP3    H116401   2.665   0.453   2.590  0.2501  0.2362 -0.4506
 5465TIP3    H216402   2.687   0.356   2.704 -0.7846  0.1479 -0.3186
 5466TIP3   OH216403   1.041   3.760   4.552  0.6538  0.0561  0.5033
 5466TIP3    H116404   1.001   3.676   4.577  0.1839  0.2145  0.2960
 5466TIP3    H216405   1.059   3.804   4.635 -0.8126  0.5422  0.5894
 5467TIP3   OH216406   2.825   5.782   3.658  0.0730  0.2601 -0.2999
 5467TIP3    H116407   2.814   5.805   3.750 -1.4279 -0.2686 -0.3192
 5467TIP3    H216408   2.736   5.770   3.625  0.6342 -1.8721 -1.2247
 5468TIP3   OH216409   1.424   5.763   4.407 -0.1290  0.1734 -0.2850
 5468TIP3    H116410   1.448   5.853   4.428  0.1998 -0.0751  0.4441
 5468TIP3    H216411   1.415   5.720   4.492 -0.3832 -0.4548 -0.6217
 5469TIP3   OH216412   3.579   2.549   3.242  0.1989  0.6244 -0.0872
 5469TIP3    H116413   3.644   2.590   3.299  1.1291 -1.6833  0.6076
 5469TIP3    H216414   3.625   2.477   3.200 -1.4634 -0.0004 -0.9490
 5470TIP3   OH216415   1.933   4.456   2.570  0.6060 -0.1053 -0.0576
 5470TIP3    H116416   1.885   4.532   2.536  0.3997 -0.2055  0.0096
 5470TIP3    H216417   1.994   4.434   2.500  1.7454  1.0690  0.5292
 5471TIP3   OH216418   4.104   5.517   3.822 -0.0465 -0.3825 -0.0105
 5471TIP3    H116419   4.093   5.609   3.846 -2.4771 -1.0110  1.7009
 5471TIP3    H216420   4.195   5.497   3.845  0.6159  1.6341 -0.6846
 5472TIP3   OH216421   3.664   2.669   5.034  0.6424  0.1686  0.6469
 5472TIP3    H116422   3.641   2.671   4.941  2.0788  0.0497  0.2732
 5472TIP3    H216423   3.643   2.580   5.062 -0.7015  0.4750  0.7063
 5473TIP3   OH216424   0.366   2.715   3.804 -0.2165  0.1875 -0.4348
 5473TIP3    H116425   0.342   2.755   3.721 -0.6089  0.3967 -0.2212
 5473TIP3    H216426   0.292   2.733   3.862 -0.0078 -0.0798 -0.0818
 5474TIP3   OH216427   5.129   0.028   3.597  0.0806 -0.1394 -0.2048
 5474TIP3    H116428   5.092  -0.000   3.680  1.6558 -0.5049  0.4031
 5474TIP3    H216429   5.115   0.123   3.595  1.5471  0.1546  1.3186
 5475TIP3   OH216430   2.207   5.621   2.165 -0.0742  0.5711 -0.0040
 5475TIP3    H116431   2.223   5.684   2.095  0.6480  0.5046  0.0971
 5475TIP3    H216432   2.255   5.543   2.138  0.7746  0.7681  0.8778
 5476TIP3   OH216433   5.922   5.961   4.138  0.1946 -0.3703 -0.5879
 5476TIP3    H116434   5.981   5.916   4.198  0.4725  0.1378 -0.4769
 5476TIP3    H216435   5.940   6.054   4.150 -1.4212 -0.1232  0.2817
 5477TIP3   OH216436   2.246   2.981   0.308 -0.1174  0.3176 -0.1008
 5477TIP3    H116437   2.248   2.996   0.403 -0.3557 -0.0658 -0.0352
 5477TIP3    H216438   2.191   3.052   0.275 -0.0981  0.4078  0.0563
 5478TIP3   OH216439   5.731   4.599   1.440 -0.3381  0.1182 -0.0478
 5478TIP3    H116440   5.678   4.537   1.491 -0.7121  0.6919  0.2725
 5478TIP3    H216441   5.816   4.555   1.430 -1.1853 -1.2987 -1.5325
 5479TIP3   OH216442   5.943   2.172   5.050 -0.0840 -0.4895  0.5756
 5479TIP3    H116443   5.954   2.104   4.984  1.5881  0.8986 -0.6579
 5479TIP3    H216444   5.901   2.127   5.124 -0.0653 -2.5701 -0.6033
 5480TIP3   OH216445   2.180   4.448   2.767 -0.0881 -0.9510  0.3630
 5480TIP3    H116446   2.131   4.530   2.771  2.9403  0.9887  1.4946
 5480TIP3    H216447   2.161   4.405   2.850 -1.1351 -1.0793  0.0712
 5481TIP3   OH216448   5.449   1.801   0.734  1.2452  0.1447  0.5029
 5481TIP3    H116449   5.497   1.847   0.802  0.5418  0.8905  0.5011
 5481TIP3    H216450   5.491   1.828   0.652  1.7596 -0.3560  0.5928
 5482TIP3   OH216451   0.709   1.252   3.805  0.3778  0.4661 -0.0246
 5482TIP3    H116452   0.659   1.299   3.738 -0.6514  0.1955  0.5248
 5482TIP3    H216453   0.767   1.194   3.756 -0.2406  0.3909 -0.6884
 5483TIP3   OH216454   0.302   2.566   5.022 -0.4819  0.4174 -0.0705
 5483TIP3    H116455   0.240   2.519   5.078  0.6704  0.2672  1.1180
 5483TIP3    H216456   0.280   2.659   5.035 -0.3930  0.3712  0.4149
 5484TIP3   OH216457   4.878   4.752   1.668 -0.0154 -0.0087  0.1317
 5484TIP3    H116458   4.807   4.697   1.634  0.8263  0.0604 -1.8517
 5484TIP3    H216459   4.922   4.785   1.590  1.5599  0.8021  1.3181
 5485TIP3   OH216460   0.321   5.568   4.721  0.0384 -0.3214  0.3526
 5485TIP3    H116461   0.285   5.592   4.806  0.8276 -0.5667  0.7612
 5485TIP3    H216462   0.374   5.644   4.695  0.8333 -0.7560  0.6768
 5486TIP3   OH216463   4.318   4.903   3.373  0.7143  0.4636  0.2592
 5486TIP3    H116464   4.279   4.923   3.458  0.2137 -1.8712  0.6539
 5486TIP3    H216465   4.256   4.940   3.309 -0.1369  0.1968  0.9040
 5487TIP3   OH216466   0.312   1.680   0.970 -0.4323 -0.4673 -0.2912
 5487TIP3    H116467   0.357   1.599   0.945  1.3358  0.7012 -1.1049
 5487TIP3    H216468   0.349   1.746   0.913 -2.4323  0.8024 -0.1961
 5488TIP3   OH216469   4.248   1.874   2.951  0.0437 -0.0067  0.0804
 5488TIP3    H116470   4.282   1.883   2.862  0.8721 -0.3364  0.3639
 5488TIP3    H216471   4.159   1.840   2.939  0.0498  0.2144 -0.6293
 5489TIP3   OH216472   1.962   4.087   3.389  0.0358 -0.0570 -0.0639
 5489TIP3    H116473   2.028   4.126   3.332 -0.2176 -0.5443 -0.6966
 5489TIP3    H216474   1.883   4.140   3.374  0.3443  0.7262  0.9276
 5490TIP3   OH216475   3.895   2.636   1.419 -0.3154 -0.6176  0.1417
 5490TIP3    H116476   3.884   2.610   1.328 -2.3696 -1.2934  0.5363
 5490TIP3    H216477   3.964   2.703   1.416 -1.0239  0.1024 -2.0314
 5491TIP3   OH216478   1.254   3.286   1.544  0.2420 -0.4421 -0.3849
 5491TIP3    H116479   1.233   3.248   1.629  1.5711 -1.4894 -0.5085
 5491TIP3    H216480   1.247   3.381   1.558  2.0347 -0.5096  1.3469
 5492TIP3   OH216481   3.568   2.324   0.894  0.3122 -0.1480  0.2204
 5492TIP3    H116482   3.564   2.335   0.989  1.1506  0.6246  0.1790
 5492TIP3    H216483   3.502   2.257   0.875 -1.4900  1.2933  1.0919
 5493TIP3   OH216484   3.264   0.271   2.244  0.1020 -0.1891  0.8413
 5493TIP3    H116485   3.335   0.272   2.309 -0.7611  3.2536  1.9545
 5493TIP3    H216486   3.199   0.210   2.281  1.4952 -1.7453  0.8551
 5494TIP3   OH216487   0.996   3.045   1.465 -0.0138 -0.3332 -0.2229
 5494TIP3    H116488   1.027   3.134   1.482 -0.1095 -0.5973  1.5439
 5494TIP3    H216489   0.915   3.056   1.417  0.6401  0.4827 -1.1720
 5495TIP3   OH216490   3.667   2.267   1.404 -0.1383 -0.0392 -0.2375
 5495TIP3    H116491   3.624   2.345   1.371 -0.5522 -0.0014  0.3748
 5495TIP3    H216492   3.759   2.277   1.378 -0.2538  0.4814 -0.4533
 5496TIP3   OH216493   4.914   0.571   0.869 -0.1525 -0.0508  0.1362
 5496TIP3    H116494   4.919   0.484   0.830  0.5008 -0.6416  1.4566
 5496TIP3    H216495   4.835   0.610   0.832  1.4500  0.2679 -3.3441
 5497TIP3   OH216496   4.732   3.863   3.743  0.4157  0.0779  0.1528
 5497TIP3    H116497   4.724   3.848   3.837  0.7246  0.1153  0.1850
 5497TIP3    H216498   4.795   3.934   3.734  0.2690  0.1808 -0.0767
 5498TIP3   OH216499   1.291   3.338   0.124 -0.7365 -0.0017  0.0238
 5498TIP3    H116500   1.263   3.392   0.197  0.0562 -0.0182  0.3454
 5498TIP3    H216501   1.217   3.340   0.063 -1.2815  0.2567  0.6819
 5499TIP3   OH216502   3.836   4.528   4.520 -0.2176 -0.2755 -0.5455
 5499TIP3    H116503   3.852   4.434   4.524  0.7149 -0.2765 -2.7331
 5499TIP3    H216504   3.815   4.545   4.428  0.7258  1.7904 -0.4330
 5500TIP3   OH216505   4.581   4.872   3.652 -0.0330 -0.0625  0.1127
 5500TIP3    H116506   4.487   4.894   3.648 -0.2542 -0.8321  0.7862
 5500TIP3    H216507   4.583   4.786   3.693  0.9091 -0.6334 -1.0989
 5501TIP3   OH216508   3.368   5.428   0.899 -0.0682  0.6973  0.2292
 5501TIP3    H116509   3.336   5.441   0.988  3.6246 -1.1487  2.0544
 5501TIP3    H216510   3.432   5.498   0.886  1.5392 -0.6916  0.2689
 5502TIP3   OH216511   4.710   3.045   3.306  0.2892 -0.5370  0.0549
 5502TIP3    H116512   4.700   3.006   3.393  1.9384 -0.1856  0.4310
 5502TIP3    H216513   4.696   3.139   3.320  1.7826 -0.3197  0.1922
 5503TIP3   OH216514   0.003   1.707   4.973 -0.7372  0.0001 -0.4448
 5503TIP3    H116515   0.046   1.761   4.906  1.7421  1.1364  1.9098
 5503TIP3    H216516   0.025   1.617   4.948  0.4126  0.4114 -1.0235
 5504TIP3   OH216517   2.662   4.135   4.866 -0.0099  0.3617 -0.3754
 5504TIP3    H116518   2.750   4.161   4.839  0.5116 -1.7962 -0.8999
 5504TIP3    H216519   2.630   4.210   4.916  1.6407  1.6879 -1.2048
 5505TIP3   OH216520   0.805   5.114   2.164  0.6082 -0.7514  0.1428
 5505TIP3    H116521   0.855   5.034   2.174  0.7455 -0.7403 -0.4143
 5505TIP3    H216522   0.869   5.184   2.176  0.3954 -0.7135  1.1148
 5506TIP3   OH216523   5.975   5.011   1.299 -0.6092  0.0062 -0.0476
 5506TIP3    H116524   5.912   5.073   1.336 -0.1379  0.2592  0.3432
 5506TIP3    H216525   5.923   4.932   1.281 -0.6961 -0.5149  2.1103
 5507TIP3   OH216526   4.571   0.097   3.918 -0.2321 -0.5138  0.3671
 5507TIP3    H116527   4.657   0.060   3.938  0.3673  0.9802  0.6489
 5507TIP3    H216528   4.572   0.111   3.824 -0.1432 -0.4257  0.3817
 5508TIP3   OH216529   0.170   0.955   0.381 -0.0391 -0.5096  0.1689
 5508TIP3    H116530   0.144   0.880   0.433  1.5948  0.0754  1.9484
 5508TIP3    H216531   0.157   1.030   0.439 -1.6301  0.6500 -1.5606
 5509TIP3   OH216532   0.455   4.258   3.484 -0.2434 -0.2153 -0.1085
 5509TIP3    H116533   0.444   4.193   3.554 -0.4042  1.9504  2.0048
 5509TIP3    H216534   0.377   4.312   3.489  0.3871  0.8267 -1.0715
 5510TIP3   OH216535   0.807   4.289   1.943  0.1450 -0.6562 -0.3890
 5510TIP3    H116536   0.882   4.281   2.001  0.4528 -1.0161 -0.8308
 5510TIP3    H216537   0.744   4.224   1.975 -0.2720  0.1341  0.4158
 5511TIP3   OH216538   6.201   1.189   1.360  0.1331  0.7422 -0.0981
 5511TIP3    H116539   6.283   1.237   1.371 -0.4333  1.4702  1.3487
 5511TIP3    H216540   6.136   1.243   1.406 -1.1272  0.1031 -1.0622
 5512TIP3   OH216541   4.679   2.126   3.038  0.4311  0.4072 -0.2688
 5512TIP3    H116542   4.710   2.053   3.091 -0.4521 -0.4827 -0.9416
 5512TIP3    H216543   4.584   2.113   3.031  0.2333  1.6878 -0.3026
 5513TIP3   OH216544   2.816   1.784   0.561  0.2892  0.1904 -0.3338
 5513TIP3    H116545   2.882   1.852   0.573  0.5369 -0.2782  1.2384
 5513TIP3    H216546   2.831   1.724   0.634 -0.9830 -0.6716 -0.7530
 5514TIP3   OH216547   5.555   0.079   0.876 -0.2830 -0.2905 -0.2656
 5514TIP3    H116548   5.491   0.009   0.888  0.0379 -0.7065 -0.9190
 5514TIP3    H216549   5.512   0.158   0.909 -0.8811 -0.6863 -0.0979
 5515TIP3   OH216550   1.454   5.009   3.281 -0.2544 -0.0871  0.1653
 5515TIP3    H116551   1.544   4.977   3.286 -0.0444  0.5213  0.4917
 5515TIP3    H216552   1.410   4.969   3.355  0.1579  0.8051  0.9215
 5516TIP3   OH216553   4.971   5.018   2.499 -0.0085  0.4564  0.8902
 5516TIP3    H116554   4.994   4.925   2.495 -0.6372  0.3328 -0.5674
 5516TIP3    H216555   4.879   5.021   2.475  0.9242  1.7320 -3.4903
 5517TIP3   OH216556   2.480   0.824   1.736  0.3169  0.2000 -0.0919
 5517TIP3    H116557   2.556   0.850   1.684  0.0022 -0.8812 -1.1454
 5517TIP3    H216558   2.508   0.745   1.781 -0.2948 -0.4246 -0.7910
 5518TIP3   OH216559   2.930   2.736   4.445 -0.6277 -0.0833  0.5011
 5518TIP3    H116560   2.937   2.642   4.462  2.6830 -0.0779 -0.1717
 5518TIP3    H216561   2.949   2.777   4.530 -0.7355 -0.0386  0.5038
 5519TIP3   OH216562   4.595   5.578   3.775  0.2473  0.0199 -0.1108
 5519TIP3    H116563   4.673   5.624   3.743  1.0857 -0.2134  1.5126
 5519TIP3    H216564   4.606   5.488   3.743  0.6536 -0.0159  0.1251
 5520TIP3   OH216565   1.174   5.201   0.748 -0.1414  0.2097 -0.1651
 5520TIP3    H116566   1.097   5.158   0.784  1.8237 -0.8702  3.1905
 5520TIP3    H216567   1.184   5.281   0.801  1.3570 -0.0160 -0.0451
 5521TIP3   OH216568   5.088   2.555   1.066 -0.2996 -0.2562  0.2751
 5521TIP3    H116569   5.068   2.551   1.159 -0.7908  0.5289  0.2046
 5521TIP3    H216570   5.007   2.530   1.022 -0.8404  1.7670  0.0207
 5522TIP3   OH216571   3.656   0.163   0.226 -0.4799 -0.1609 -0.0650
 5522TIP3    H116572   3.569   0.202   0.222 -0.2732  0.2324 -1.4072
 5522TIP3    H216573   3.706   0.209   0.158 -0.1990 -2.6588 -1.6974
 5523TIP3   OH216574   2.014   0.645   1.948 -0.2467  0.0062  0.0615
 5523TIP3    H116575   2.081   0.585   1.917 -0.8328  0.4610 -2.2675
 5523TIP3    H216576   2.058   0.730   1.954 -0.2893  0.0422 -0.1409
 5524TIP3   OH216577   4.025   2.044   0.775 -0.0991  0.1194 -0.0569
 5524TIP3    H116578   3.970   2.122   0.781  0.1053  0.3278 -0.7617
 5524TIP3    H216579   3.972   1.973   0.810 -0.8748  0.2923 -0.8452
 5525TIP3   OH216580   3.249   4.510   0.702 -0.1585  0.0418 -0.0166
 5525TIP3    H116581   3.275   4.418   0.693 -0.8834 -0.0790 -1.0976
 5525TIP3    H216582   3.313   4.558   0.649  1.0077  0.3314  1.5783
 5526TIP3   OH216583   1.628   2.004   0.664  0.2142 -0.3583 -0.2301
 5526TIP3    H116584   1.691   2.045   0.605  0.6166  0.9408  1.0313
 5526TIP3    H216585   1.677   1.991   0.746 -0.2653 -2.2577 -0.1846
 5527TIP3   OH216586   0.731   1.123   3.247 -0.7762 -0.4043 -0.0885
 5527TIP3    H116587   0.695   1.064   3.313 -0.3422  0.9098  1.3803
 5527TIP3    H216588   0.793   1.069   3.197 -2.1742 -1.7900 -0.3994
 5528TIP3   OH216589   1.598   4.712   3.089 -0.8874 -0.6583  0.6825
 5528TIP3    H116590   1.530   4.779   3.077  0.2619  0.1626 -2.0110
 5528TIP3    H216591   1.650   4.745   3.163 -0.0290  1.8432 -0.8909
 5529TIP3   OH216592   4.376   3.817   3.040 -0.1307 -0.3279  0.7266
 5529TIP3    H116593   4.448   3.754   3.043 -0.2441 -0.4866  0.3187
 5529TIP3    H216594   4.384   3.867   3.120  0.3370 -0.4538  0.7621
 5530TIP3   OH216595   0.012   5.935   4.196  0.1526 -0.2530 -0.1433
 5530TIP3    H116596   0.073   5.933   4.122 -0.2032 -0.1230 -0.4455
 5530TIP3    H216597  -0.028   6.022   4.191  2.4803  1.0777  2.1510
 5531TIP3   OH216598   5.245   0.433   1.805 -0.2188  0.0433  0.1262
 5531TIP3    H116599   5.255   0.525   1.783 -0.6779  0.7269  2.5564
 5531TIP3    H216600   5.335   0.402   1.818 -0.1337  0.7008  1.2565
 5532TIP3   OH216601   0.007   2.406   4.823 -0.5665  0.2794  0.3931
 5532TIP3    H116602  -0.053   2.349   4.774 -1.3419  1.2710  0.1728
 5532TIP3    H216603   0.093   2.390   4.782 -1.2815  1.5117 -1.7209
 5533TIP3   OH216604   3.629   0.774   4.726  0.4062 -0.3199  0.3273
 5533TIP3    H116605   3.694   0.738   4.665  1.8472  0.4880  1.3361
 5533TIP3    H216606   3.553   0.795   4.670  1.2165 -0.7348 -0.9788
 5534TIP3   OH216607   6.222   1.284   5.100  0.0049  0.3993  0.0181
 5534TIP3    H116608   6.186   1.196   5.104  0.7298  0.0601 -0.6925
 5534TIP3    H216609   6.155   1.339   5.141 -1.0979 -0.2812 -0.8178
 5535TIP3   OH216610   6.307   5.242   3.796 -0.3372 -0.0107  0.2962
 5535TIP3    H116611   6.212   5.235   3.793 -0.3480  0.2839 -0.1590
 5535TIP3    H216612   6.332   5.262   3.706  0.1944 -0.5261  0.3210
 5536TIP3   OH216613   3.433   0.196   1.691 -0.3160  0.0834 -0.1099
 5536TIP3    H116614   3.519   0.155   1.680 -0.7366 -1.1234  0.9171
 5536TIP3    H216615   3.370   0.126   1.674 -1.0725  0.6034  0.4734
 5537TIP3   OH216616   0.651   2.275   1.354  0.2445  0.4281 -0.2101
 5537TIP3    H116617   0.644   2.195   1.302  0.1974  0.1546  0.2147
 5537TIP3    H216618   0.745   2.295   1.354  0.2361  0.4791 -0.4689
 5538TIP3   OH216619   0.440   0.712   0.436  0.0477  0.4799  0.4330
 5538TIP3    H116620   0.412   0.768   0.509 -0.7268  0.9204 -0.1860
 5538TIP3    H216621   0.374   0.644   0.432  0.4543  0.0764  0.5599
 5539TIP3   OH216622   1.786   0.576   4.172  0.3208  0.4632 -0.2249
 5539TIP3    H116623   1.848   0.600   4.241 -0.1244 -0.0152  0.3531
 5539TIP3    H216624   1.701   0.605   4.205  0.0231 -0.2914 -0.2980
 5540TIP3   OH216625   2.749   2.093   2.803 -0.1167  0.5421 -0.0608
 5540TIP3    H116626   2.688   2.077   2.731 -1.1335 -0.0483  0.8984
 5540TIP3    H216627   2.809   2.019   2.801  0.1545  0.7751 -0.5962
 5541TIP3   OH216628   5.284   2.399   0.951 -0.1362  0.3834 -0.4623
 5541TIP3    H116629   5.285   2.410   0.856 -1.3826 -1.4419 -0.7398
 5541TIP3    H216630   5.209   2.451   0.981 -0.4201  0.0729 -0.6277
 5542TIP3   OH216631   4.698   1.433   1.859 -0.3037  0.1455  0.3019
 5542TIP3    H116632   4.644   1.390   1.925 -0.6547 -0.7301 -0.5114
 5542TIP3    H216633   4.649   1.420   1.777  0.2695  0.9150 -0.1700
 5543TIP3   OH216634   5.567   1.365   4.575  0.1670  0.0016  0.3738
 5543TIP3    H116635   5.514   1.442   4.555  0.3955 -0.1578 -0.9790
 5543TIP3    H216636   5.630   1.394   4.640 -1.1374  0.3751  1.4980
 5544TIP3   OH216637   1.243   2.227   0.873  0.5164 -0.1039 -0.1820
 5544TIP3    H116638   1.204   2.142   0.854  1.6483 -0.4104 -1.2479
 5544TIP3    H216639   1.230   2.278   0.793 -0.5933  0.9244  0.6159
 5545TIP3   OH216640   1.114   1.381   1.732 -0.0547  0.2852  0.5598
 5545TIP3    H116641   1.100   1.475   1.721 -1.5988 -0.1506 -2.1669
 5545TIP3    H216642   1.036   1.350   1.778 -2.7485 -0.3504 -3.8242
 5546TIP3   OH216643   4.312   1.611   4.280  0.0615 -0.0390 -0.8819
 5546TIP3    H116644   4.263   1.592   4.200  0.1676 -1.9824 -0.5255
 5546TIP3    H216645   4.287   1.541   4.341 -0.8712  1.9853  1.2098
 5547TIP3   OH216646   5.633   1.247   3.527 -0.5474  0.3563  0.1638
 5547TIP3    H116647   5.676   1.161   3.526 -0.7424  0.2611 -0.1188
 5547TIP3    H216648   5.647   1.280   3.616  0.1590  0.3487  0.0597
 5548TIP3   OH216649   1.406   0.489   0.660  0.0665 -0.1287  0.0476
 5548TIP3    H116650   1.459   0.413   0.683 -0.9278 -1.5646 -2.0231
 5548TIP3    H216651   1.468   0.561   0.656  1.3587 -1.1798  0.3924
 5549TIP3   OH216652   1.464   1.174   0.813  0.1715 -0.6473 -0.0052
 5549TIP3    H116653   1.516   1.197   0.890  1.9156 -1.3239 -0.9297
 5549TIP3    H216654   1.449   1.080   0.821 -0.1963 -0.6047 -0.1753
 5550TIP3   OH216655   3.627   1.605   2.775 -0.5327  0.1038 -0.5079
 5550TIP3    H116656   3.612   1.658   2.696 -0.2043 -0.0175 -0.6539
 5550TIP3    H216657   3.543   1.605   2.821 -0.7356  0.1444 -0.8781
 5551TIP3   OH216658   6.041   0.295   3.754 -0.2335  0.0135  0.0110
 5551TIP3    H116659   6.061   0.388   3.744 -0.1236  0.1968  1.6616
 5551TIP3    H216660   5.948   0.288   3.733  0.0339  0.2593 -1.3440
 5552TIP3   OH216661   0.150   4.158   0.130  0.2743 -0.0001 -0.2024
 5552TIP3    H116662   0.085   4.198   0.188  0.3131 -1.5845  1.0193
 5552TIP3    H216663   0.098   4.111   0.065 -0.0083 -2.8491  1.8590
 5553TIP3   OH216664   5.418   3.903   4.975  0.2834  0.0610 -0.2164
 5553TIP3    H116665   5.483   3.836   4.993  0.7576 -0.3986 -3.1518
 5553TIP3    H216666   5.466   3.972   4.929 -1.0494  0.2736 -1.3512
 5554TIP3   OH216667   2.106   2.338   1.376  0.0369  0.4021 -0.7338
 5554TIP3    H116668   2.141   2.323   1.289 -1.3208  2.4185 -1.6900
 5554TIP3    H216669   2.015   2.308   1.371 -0.1572  0.8571 -0.1218
 5555TIP3   OH216670   5.197   4.180   1.048 -0.4375 -0.0345  0.0435
 5555TIP3    H116671   5.110   4.219   1.040 -0.1237  0.9583  1.2677
 5555TIP3    H216672   5.201   4.117   0.976 -3.2221 -2.1548  1.5451
 5556TIP3   OH216673   1.890   5.003   2.291 -0.2467  0.6159 -0.1743
 5556TIP3    H116674   1.824   4.951   2.246 -0.2294  2.0698 -2.0314
 5556TIP3    H216675   1.971   4.984   2.244 -0.0617  1.5384 -0.2537
 5557TIP3   OH216676   1.037   1.678   3.018  0.1451 -0.3420  0.5395
 5557TIP3    H116677   1.015   1.591   2.983 -0.4248 -0.2404  0.6260
 5557TIP3    H216678   1.012   1.672   3.111  0.8368 -0.3352  0.7288
 5558TIP3   OH216679   1.918   5.378   1.091 -0.3074 -0.0880 -0.4218
 5558TIP3    H116680   1.993   5.391   1.149  1.0237 -0.3104 -2.0160
 5558TIP3    H216681   1.849   5.343   1.148  0.6165  0.6024  1.1818
 5559TIP3   OH216682   5.692   5.362   4.038  0.6349 -0.4268 -0.1135
 5559TIP3    H116683   5.597   5.352   4.034  0.7512 -1.2475 -1.4795
 5559TIP3    H216684   5.710   5.387   4.128 -0.9580  0.6975 -0.0733
 5560TIP3   OH216685   3.315   4.137   3.446 -0.3808  0.1285  0.5258
 5560TIP3    H116686   3.247   4.076   3.477 -1.1301  1.5907  1.9583
 5560TIP3    H216687   3.390   4.120   3.503 -0.5492  0.4387  0.8464
 5561TIP3   OH216688   1.805   4.314   0.338  0.7887  0.0364  0.1963
 5561TIP3    H116689   1.724   4.277   0.303  1.0831  0.5125 -1.0347
 5561TIP3    H216690   1.850   4.239   0.379 -0.1507 -0.2684  0.6924
 5562TIP3   OH216691   5.474   2.506   4.549 -0.1356  0.1378  1.1593
 5562TIP3    H116692   5.415   2.503   4.624 -1.0364  0.0357  0.4663
 5562TIP3    H216693   5.421   2.474   4.475  0.5928  0.6300  0.3997
 5563TIP3   OH216694   1.207   4.966   4.015 -0.0145 -0.0255 -0.0702
 5563TIP3    H116695   1.227   5.046   3.968  1.3776  0.5956  1.4860
 5563TIP3    H216696   1.257   4.898   3.970  1.0154  0.4965  0.2530
 5564TIP3   OH216697   5.434   2.334   3.780  0.2246 -0.3955  0.8581
 5564TIP3    H116698   5.517   2.304   3.742  0.2457 -0.1036  0.6713
 5564TIP3    H216699   5.399   2.395   3.716 -0.1438 -0.5266  0.9317
 5565TIP3   OH216700   2.985   2.589   2.893 -0.4692  0.4137 -0.4958
 5565TIP3    H116701   2.942   2.503   2.889 -1.1797  0.8009 -1.5128
 5565TIP3    H216702   3.052   2.585   2.825 -1.1672  1.0052 -1.2346
 5566TIP3   OH216703   0.018   3.945   3.814 -0.1114  0.1739 -0.9058
 5566TIP3    H116704   0.099   3.895   3.805  0.4592  1.3997 -3.3904
 5566TIP3    H216705   0.041   4.018   3.871 -0.0101 -0.4342 -0.1358
 5567TIP3   OH216706   0.927   0.365   3.506  0.5358 -0.1334 -0.5908
 5567TIP3    H116707   0.836   0.379   3.481 -0.3724 -2.0105  1.3674
 5567TIP3    H216708   0.943   0.429   3.575 -0.2645 -1.5971  1.0274
 5568TIP3   OH216709   2.913   1.028   0.614  0.3392 -0.0163  0.0690
 5568TIP3    H116710   2.978   0.985   0.559  0.1895 -0.4027  0.1867
 5568TIP3    H216711   2.837   0.969   0.611  0.5426 -0.3547  1.1701
 5569TIP3   OH216712   3.818   0.916   3.296  0.1631  0.3105 -0.2147
 5569TIP3    H116713   3.875   0.919   3.373  0.3323  0.0157 -0.3244
 5569TIP3    H216714   3.876   0.886   3.225  0.1499  1.1394 -0.5848
 5570TIP3   OH216715   2.751   0.101   1.551  0.6040  0.2768  0.2736
 5570TIP3    H116716   2.796   0.065   1.475  2.2225 -1.8257  2.1032
 5570TIP3    H216717   2.671   0.049   1.559  0.3211  0.6456 -0.0617
 5571TIP3   OH216718   1.176   3.446   2.028 -0.1368 -0.0729  0.0807
 5571TIP3    H116719   1.153   3.507   1.959 -2.9986 -2.6300 -1.4432
 5571TIP3    H216720   1.128   3.477   2.105 -1.3623 -0.2265 -0.6069
 5572TIP3   OH216721   1.429   3.722   0.476  0.1930  0.4494 -0.3744
 5572TIP3    H116722   1.427   3.635   0.516  5.5253  0.0438 -0.2166
 5572TIP3    H216723   1.430   3.782   0.550  0.8834  0.3054 -0.2584
 5573TIP3   OH216724   0.530   0.067   4.847  0.3033  0.2302  0.8537
 5573TIP3    H116725   0.505   0.087   4.757 -0.0787 -1.9122  0.4525
 5573TIP3    H216726   0.460   0.105   4.900 -0.1108  0.4292  0.1794
 5574TIP3   OH216727   4.845   2.528   0.960 -0.2615 -0.1666 -0.2603
 5574TIP3    H116728   4.774   2.551   1.020 -0.3357 -0.3855 -0.2626
 5574TIP3    H216729   4.836   2.590   0.887 -1.0603 -0.8103 -0.7273
 5575TIP3   OH216730   1.948   3.131   1.649  0.4800 -0.2806  0.6197
 5575TIP3    H116731   1.998   3.211   1.630  0.7533 -0.4316  0.6892
 5575TIP3    H216732   1.875   3.133   1.587  1.0120 -0.4469 -0.0250
 5576TIP3   OH216733   1.065   0.115   3.153 -0.3408 -0.0733 -0.2651
 5576TIP3    H116734   1.021   0.099   3.069 -0.0566 -0.9535 -0.2555
 5576TIP3    H216735   1.073   0.210   3.158 -1.4595  0.0563 -0.6698
 5577TIP3   OH216736   2.463   4.474   3.033  0.1244 -0.1620 -0.6169
 5577TIP3    H116737   2.482   4.545   2.972 -1.6926 -0.9980 -2.2292
 5577TIP3    H216738   2.458   4.517   3.118  2.1049  1.1178 -1.0689
 5578TIP3   OH216739   0.064   2.581   3.987  0.4356  0.3364 -0.0513
 5578TIP3    H116740  -0.022   2.549   3.959 -0.0679  1.5606  0.0311
 5578TIP3    H216741   0.046   2.637   4.062  1.0519  2.1941 -1.2064
 5579TIP3   OH216742   6.132   3.277   0.608  0.4626  0.4536 -0.3630
 5579TIP3    H116743   6.218   3.317   0.613  0.4627  0.4011  0.0849
 5579TIP3    H216744   6.086   3.307   0.686 -0.1536  1.0048 -0.9261
 5580TIP3   OH216745   1.775   1.489   4.146 -0.3652  0.0221  0.3150
 5580TIP3    H116746   1.807   1.433   4.076  2.5116  1.9284 -0.0702
 5580TIP3    H216747   1.819   1.456   4.225 -0.0693  0.5813  0.3917
 5581TIP3   OH216748   5.685   5.949   1.547 -0.1627  0.5671 -0.1005
 5581TIP3    H116749   5.696   5.854   1.557  0.4286  0.5553 -0.7758
 5581TIP3    H216750   5.622   5.973   1.615 -1.4692 -0.5443 -0.8512
 5582TIP3   OH216751   1.499   3.485   1.444 -0.0882 -0.9478 -0.3738
 5582TIP3    H116752   1.432   3.535   1.490  0.1452 -2.2401  1.4686
 5582TIP3    H216753   1.544   3.550   1.390 -0.2175  0.7302  1.4031
 5583TIP3   OH216754   3.575   2.549   2.429 -0.2147  0.2408  0.0859
 5583TIP3    H116755   3.492   2.588   2.457 -0.7071  2.1314 -3.3702
 5583TIP3    H216756   3.618   2.619   2.379  1.7367 -1.8220 -1.3273
 5584TIP3   OH216757   2.403   4.097   3.745 -0.2552 -0.6445 -1.0479
 5584TIP3    H116758   2.320   4.121   3.786  1.0183  2.5250 -0.0644
 5584TIP3    H216759   2.438   4.028   3.802 -0.9065  0.0119  0.1965
 5585TIP3   OH216760   3.244   5.244   1.573  1.0260  0.2226 -0.5707
 5585TIP3    H116761   3.224   5.171   1.514  0.6246 -0.9340  0.9296
 5585TIP3    H216762   3.322   5.215   1.620  1.1847  1.0051 -0.3457
 5586TIP3   OH216763   5.157   5.252   2.026 -0.0720  0.3565  0.3453
 5586TIP3    H116764   5.244   5.286   2.006 -0.1866  1.2449  1.2863
 5586TIP3    H216765   5.166   5.211   2.112 -0.3981 -0.2621  0.0881
 5587TIP3   OH216766   0.098   3.159   1.766 -0.4785  0.5332  0.0182
 5587TIP3    H116767   0.106   3.155   1.862  0.1525  2.8218  0.1191
 5587TIP3    H216768   0.188   3.154   1.735 -0.3436  3.1891 -0.2079
 5588TIP3   OH216769   0.302   1.322   3.559 -0.0686  0.1444  0.2246
 5588TIP3    H116770   0.359   1.384   3.514  0.7942  0.4220  1.6444
 5588TIP3    H216771   0.256   1.276   3.489  2.2296 -0.4139 -1.0104
 5589TIP3   OH216772   2.424   2.517   1.807 -0.3121 -0.6991 -0.4630
 5589TIP3    H116773   2.371   2.447   1.845 -0.6722 -0.6560 -0.8851
 5589TIP3    H216774   2.370   2.595   1.814  0.1354 -0.4317  0.1143
 5590TIP3   OH216775   0.466   0.072   2.046  0.0168 -0.2083  0.4446
 5590TIP3    H116776   0.466   0.144   2.108 -1.8267  0.1593  0.0725
 5590TIP3    H216777   0.424  -0.000   2.093 -0.4994 -0.2305 -0.0430
 5591TIP3   OH216778   2.959   2.561   0.740 -0.5065  0.2882 -0.5457
 5591TIP3    H116779   2.865   2.574   0.753 -0.5680  0.6962 -1.3139
 5591TIP3    H216780   2.974   2.469   0.761 -0.9659  0.3681  0.1594
 5592TIP3   OH216781   3.766   3.695   1.016 -0.0021  0.2393  0.1840
 5592TIP3    H116782   3.815   3.672   1.095 -0.1259 -0.1836  0.1424
 5592TIP3    H216783   3.734   3.783   1.032 -0.5317 -0.0652  0.8560
 5593TIP3   OH216784   3.260   0.485   0.305  0.3521 -0.5945 -0.0210
 5593TIP3    H116785   3.296   0.573   0.313  1.4056 -1.1074  1.2014
 5593TIP3    H216786   3.182   0.486   0.360  0.2208 -0.3638 -0.2082
 5594TIP3   OH216787   3.679   4.543   0.277 -0.6949  0.5881  0.2661
 5594TIP3    H116788   3.679   4.634   0.305 -0.5345  0.9881 -0.9943
 5594TIP3    H216789   3.755   4.504   0.321  0.1913  1.4706 -0.4508
 5595TIP3   OH216790   5.977   3.508   3.398 -0.0496 -0.4542  0.1027
 5595TIP3    H116791   5.907   3.488   3.336  2.1876 -2.9678 -1.8477
 5595TIP3    H216792   6.058   3.497   3.347  1.8535  2.1128  2.2691
 5596TIP3   OH216793   1.440   5.288   0.132 -0.9823 -0.0289 -0.5919
 5596TIP3    H116794   1.423   5.230   0.206  1.1562  0.2419  0.1978
 5596TIP3    H216795   1.450   5.229   0.057 -2.7597 -0.3348 -0.6211
 5597TIP3   OH216796   3.606   4.992   4.317 -0.5579  0.4675  0.2500
 5597TIP3    H116797   3.699   5.012   4.316 -0.3375 -0.5001 -1.2091
 5597TIP3    H216798   3.564   5.073   4.287 -0.0996  0.5475 -0.1788
 5598TIP3   OH216799   3.349   2.792   4.731  0.0509  0.6149  0.3000
 5598TIP3    H116800   3.287   2.849   4.775 -0.3634 -0.8427  1.7007
 5598TIP3    H216801   3.295   2.728   4.684  0.4648 -0.0890  0.7500
 5599TIP3   OH216802   0.981   2.372   0.964  0.2339 -0.0896 -0.3256
 5599TIP3    H116803   1.061   2.333   1.000  0.3836  0.1858 -0.3499
 5599TIP3    H216804   1.007   2.462   0.943 -0.8507  0.9469  2.3866
 5600TIP3   OH216805   0.188   5.527   0.523  0.3572  0.1576  0.5371
 5600TIP3    H116806   0.267   5.531   0.468 -0.7895 -1.6355 -1.3604
 5600TIP3    H216807   0.222   5.508   0.611  2.2725  3.5069  0.7134
 5601TIP3   OH216808   4.390   2.281   3.161  0.0968 -0.1812 -0.5362
 5601TIP3    H116809   4.354   2.195   3.183 -0.3424  0.0629 -0.2935
 5601TIP3    H216810   4.454   2.298   3.231 -0.3991  0.0411 -0.1269
 5602TIP3   OH216811   6.151   4.016   3.060  0.0122  0.0137 -0.0068
 5602TIP3    H116812   6.167   3.961   3.137  1.8326 -0.9900 -1.0331
 5602TIP3    H216813   6.056   4.011   3.047 -0.0218 -2.0500  0.5860
 5603TIP3   OH216814   4.644   0.185   0.422  0.3480 -0.6706  0.2580
 5603TIP3    H116815   4.639   0.100   0.376 -1.2768  1.0563 -3.1838
 5603TIP3    H216816   4.723   0.226   0.386 -0.0491  0.1063  0.2778
 5604TIP3   OH216817   1.078   0.481   0.265 -0.4093 -0.3807  0.5031
 5604TIP3    H116818   1.146   0.437   0.316 -0.4726  0.1980  1.0919
 5604TIP3    H216819   1.000   0.427   0.277  0.1874 -1.7158 -1.1178
 5605TIP3   OH216820   5.125   0.372   0.809  0.3064 -0.1427 -0.2667
 5605TIP3    H116821   5.067   0.379   0.734 -0.8569 -2.2441  0.3865
 5605TIP3    H216822   5.170   0.457   0.812 -1.2282  0.7912 -1.9808
 5606TIP3   OH216823   3.438   2.740   2.691  0.2518  0.0285  0.6887
 5606TIP3    H116824   3.475   2.680   2.755 -1.2934 -1.3684  0.3385
 5606TIP3    H216825   3.490   2.820   2.699  2.0449 -1.1764  1.5079
 5607TIP3   OH216826   3.574   5.810   1.149  0.5138 -0.2760 -0.1124
 5607TIP3    H116827   3.665   5.799   1.120  0.8932  1.0524  0.5076
 5607TIP3    H216828   3.532   5.857   1.077  0.7909  0.7180  0.3664
 5608TIP3   OH216829   1.260   4.820   1.953 -0.3532 -0.3060 -0.3831
 5608TIP3    H116830   1.276   4.914   1.954  0.7943 -0.4515 -1.8260
 5608TIP3    H216831   1.179   4.810   1.902 -0.4571 -0.1176 -0.2577
 5609TIP3   OH216832   0.573   1.144   0.152  0.4457 -0.1803 -0.9438
 5609TIP3    H116833   0.627   1.084   0.203  0.0941  0.0193 -0.3329
 5609TIP3    H216834   0.579   1.111   0.062  0.2001 -1.1750 -0.6085
 5610TIP3   OH216835   4.948   5.184   3.850 -0.1256 -0.0836 -0.5494
 5610TIP3    H116836   4.939   5.217   3.939  1.9129  0.3604 -0.4640
 5610TIP3    H216837   4.882   5.115   3.843 -1.0996  0.6543  0.9053
 5611TIP3   OH216838   5.951   5.168   0.236  0.4930 -0.7780  0.8856
 5611TIP3    H116839   5.890   5.190   0.306  0.2290 -0.9071  0.6982
 5611TIP3    H216840   6.015   5.239   0.237 -1.4462  1.1750 -1.0195
 5612TIP3   OH216841   1.895   1.796   0.042 -0.2542  0.1237  0.3217
 5612TIP3    H116842   1.921   1.768  -0.046 -0.3227 -0.3414  0.4469
 5612TIP3    H216843   1.812   1.752   0.058  0.4407 -0.9468  1.1696
 5613TIP3   OH216844   5.647   2.198   3.154 -0.0744 -0.3066  0.2685
 5613TIP3    H116845   5.663   2.261   3.084  3.3356 -0.8039  0.4235
 5613TIP3    H216846   5.552   2.196   3.164 -0.4919  2.0770 -2.1897
 5614TIP3   OH216847   4.169   4.636   3.363 -0.2937 -0.1325  0.3101
 5614TIP3    H116848   4.209   4.554   3.334 -1.9750 -1.2338  0.9379
 5614TIP3    H216849   4.202   4.649   3.452  0.3646  0.1557  0.0294
 5615TIP3   OH216850   2.417   4.729   2.049 -0.1998  0.0450  0.4652
 5615TIP3    H116851   2.343   4.723   1.989  0.4852  0.6104 -0.4712
 5615TIP3    H216852   2.491   4.694   1.999 -0.0434 -1.7013  1.8231
 5616TIP3   OH216853   1.045   2.897   1.232  0.1558  0.0178 -0.7026
 5616TIP3    H116854   1.082   2.810   1.247  1.0887  0.3853 -0.8037
 5616TIP3    H216855   1.071   2.947   1.309 -0.1782  0.2704 -0.7541
 5617TIP3   OH216856   1.352   2.493   3.571  0.2134  0.5176 -0.1448
 5617TIP3    H116857   1.439   2.533   3.576 -0.1084  1.7012 -2.4929
 5617TIP3    H216858   1.292   2.560   3.605 -0.0913  1.1872 -1.8983
 5618TIP3   OH216859   5.294   1.002   0.520  0.3409 -0.0913 -0.1243
 5618TIP3    H116860   5.292   0.925   0.576 -1.4528 -0.1482 -0.2102
 5618TIP3    H216861   5.240   0.978   0.444  0.6587  0.8731 -0.6735
 5619TIP3   OH216862   6.316   4.310   0.264 -0.0124  0.5993  0.2458
 5619TIP3    H116863   6.290   4.274   0.349  0.1500 -2.7883 -0.9550
 5619TIP3    H216864   6.235   4.313   0.213  0.1584  0.9483 -0.0103
 5620TIP3   OH216865   5.571   4.930   1.069  0.2955 -0.0083  0.0793
 5620TIP3    H116866   5.500   4.867   1.054 -0.7294  0.8020  1.3101
 5620TIP3    H216867   5.533   5.014   1.044  1.3880  0.2341 -0.7995
 5621TIP3   OH216868   3.979   4.804   3.273 -0.0593  0.1192  0.2079
 5621TIP3    H116869   4.062   4.757   3.263  0.0239  0.2429  0.3032
 5621TIP3    H216870   3.920   4.740   3.312  0.6250  0.6570  2.2745
 5622TIP3   OH216871   4.295   0.599   0.273 -0.2249 -0.7349 -0.2981
 5622TIP3    H116872   4.278   0.669   0.335 -2.6796 -0.6226 -0.9902
 5622TIP3    H216873   4.336   0.530   0.325 -0.2216  0.1746  0.9560
 5623TIP3   OH216874   3.216   1.255   4.812  0.2110 -0.2119  0.0388
 5623TIP3    H116875   3.194   1.296   4.728 -1.9558 -0.2749  0.5112
 5623TIP3    H216876   3.134   1.213   4.840  1.8436 -3.5002  0.3713
 5624TIP3   OH216877   5.211   4.490   1.048  0.3156 -0.3187  0.1226
 5624TIP3    H116878   5.232   4.451   0.963  0.0384  1.2836 -0.7318
 5624TIP3    H216879   5.119   4.517   1.039  0.4729  0.4353  0.6833
 5625TIP3   OH216880   3.732   2.173   4.896 -0.0313  0.0415 -0.4761
 5625TIP3    H116881   3.769   2.225   4.826 -1.9924  2.7867  0.3614
 5625TIP3    H216882   3.799   2.173   4.965  0.7398 -0.2174 -1.2178
 5626TIP3   OH216883   1.277   0.041   2.442  0.3159  0.1661  0.0128
 5626TIP3    H116884   1.186   0.029   2.470 -0.5065  0.2869 -2.3735
 5626TIP3    H216885   1.314   0.102   2.506 -1.6893  1.1699  0.3034
 5627TIP3   OH216886   1.097   4.207   4.748  0.2660 -0.0291  0.1002
 5627TIP3    H116887   1.151   4.160   4.685 -0.3879 -0.3774 -0.2188
 5627TIP3    H216888   1.130   4.179   4.834  0.3199 -0.5592 -0.0877
 5628TIP3   OH216889   3.173   3.921   3.558 -0.2798 -0.2162  0.2974
 5628TIP3    H116890   3.163   3.924   3.653 -1.8809  1.8499  0.1187
 5628TIP3    H216891   3.189   3.828   3.539  0.5358 -0.6160  2.5912
 5629TIP3   OH216892   1.184   2.664   1.512 -0.3531  0.1026  0.7064
 5629TIP3    H116893   1.191   2.744   1.564 -0.0339 -0.1291  1.0231
 5629TIP3    H216894   1.266   2.617   1.528 -0.3869 -0.1232  0.2466
 5630TIP3   OH216895   2.794   3.832   0.174 -0.5457 -0.0529 -0.8156
 5630TIP3    H116896   2.718   3.825   0.116 -1.2497  0.1980  0.0425
 5630TIP3    H216897   2.768   3.785   0.253  0.5970 -0.8528 -0.8956
 5631TIP3   OH216898   4.075   5.078   3.298  0.3025  0.0408 -0.3508
 5631TIP3    H116899   4.023   5.121   3.230 -1.9859 -1.4882  0.3549
 5631TIP3    H216900   4.053   4.985   3.290  1.3464 -0.3960  1.3452
 5632TIP3   OH216901   2.723   3.633   1.964  0.2715  0.7262  0.1898
 5632TIP3    H116902   2.769   3.664   2.042  0.1996 -0.0734  0.5536
 5632TIP3    H216903   2.695   3.713   1.920 -2.5928  1.2928  2.6728
 5633TIP3   OH216904   0.905   0.626   4.063  0.2012  0.1760 -0.0458
 5633TIP3    H116905   0.888   0.570   4.139 -0.1992 -0.7809 -0.8212
 5633TIP3    H216906   0.914   0.714   4.099  2.2860 -0.5474  1.4103
 5634TIP3   OH216907   5.114   0.920   0.829  0.0486 -0.3719  0.3691
 5634TIP3    H116908   5.102   0.833   0.868 -1.2142 -1.3381 -1.9301
 5634TIP3    H216909   5.207   0.924   0.807  0.4207 -0.4987  1.8025
 5635TIP3   OH216910   5.048   3.027   3.507 -0.3435  0.2795  0.4433
 5635TIP3    H116911   5.051   2.976   3.426 -1.2259  1.4403 -0.3462
 5635TIP3    H216912   5.039   3.118   3.478 -3.2908  0.5405  1.8115
 5636TIP3   OH216913   4.373   1.271   3.475  0.5550  0.0859 -0.2496
 5636TIP3    H116914   4.433   1.200   3.498  1.2762  1.4184  2.3395
 5636TIP3    H216915   4.427   1.350   3.475 -0.6936  0.9764 -0.5456
 5637TIP3   OH216916   1.162   5.240   1.472 -0.0539 -0.4974  0.0844
 5637TIP3    H116917   1.072   5.269   1.487  0.0713  0.6300 -1.1998
 5637TIP3    H216918   1.216   5.305   1.517  0.1720  0.0703 -0.9934
 5638TIP3   OH216919   4.366   1.299   1.072 -0.3784  0.0562 -0.1832
 5638TIP3    H116920   4.432   1.295   1.142  1.1449  2.1584 -1.3848
 5638TIP3    H216921   4.352   1.207   1.047  3.7844 -0.4879 -1.3023
 5639TIP3   OH216922   2.963   0.807   3.048 -0.5327 -0.3680  0.3847
 5639TIP3    H116923   2.947   0.724   3.002 -1.9919  1.2011 -2.2387
 5639TIP3    H216924   3.054   0.829   3.028 -0.3595 -0.9956  0.4758
 5640TIP3   OH216925   1.393   0.220   4.590 -0.1221 -0.5394 -0.1939
 5640TIP3    H116926   1.330   0.153   4.564  1.0901 -1.3657 -1.1393
 5640TIP3    H216927   1.468   0.207   4.532  1.2863 -0.1514  1.4204
 5641TIP3   OH216928   0.547   1.983   4.612  0.9910 -1.0453 -0.1910
 5641TIP3    H116929   0.587   1.960   4.696 -0.9551 -1.5460  0.6539
 5641TIP3    H216930   0.537   1.899   4.568  3.2106 -0.6686 -1.5686
 5642TIP3   OH216931   5.850   2.927   2.977  0.6603  0.4183  0.3912
 5642TIP3    H116932   5.827   2.924   2.884  0.2665  2.0850  0.4024
 5642TIP3    H216933   5.887   3.015   2.989  0.9697  0.1162  1.7508
 5643TIP3   OH216934   3.165   5.253   0.381 -0.1954 -0.2255 -0.2134
 5643TIP3    H116935   3.230   5.283   0.318 -0.8327 -0.7907 -1.1550
 5643TIP3    H216936   3.181   5.307   0.459  1.0843 -0.0340 -0.5868
 5644TIP3   OH216937   4.805   5.447   3.994  0.7109 -0.1058  0.5069
 5644TIP3    H116938   4.864   5.515   3.961  1.5587 -0.3706  1.4326
 5644TIP3    H216939   4.821   5.446   4.089 -1.0915  0.1071  0.8489
 5645TIP3   OH216940   4.902   2.491   2.632  0.0757 -0.2184 -0.4334
 5645TIP3    H116941   4.825   2.497   2.689  1.4652 -0.3324  1.5853
 5645TIP3    H216942   4.912   2.397   2.616  0.1083 -0.2588 -0.1939
 5646TIP3   OH216943   4.922   3.080   4.850  0.3200  0.5707  0.0903
 5646TIP3    H116944   4.879   3.141   4.910  0.4279 -0.0904  0.8595
 5646TIP3    H216945   4.966   3.135   4.786 -0.2820  1.2837  0.2812
 5647TIP3   OH216946   1.275   5.516   2.517  0.2468  0.3339  0.3476
 5647TIP3    H116947   1.330   5.510   2.596 -1.0698 -0.2509  1.2602
 5647TIP3    H216948   1.246   5.607   2.516  0.1671  0.3124  0.6073
 5648TIP3   OH216949   3.639   1.492   0.949  0.6945 -0.0557 -0.7396
 5648TIP3    H116950   3.639   1.564   1.012 -0.6349  0.1018 -0.8947
 5648TIP3    H216951   3.595   1.420   0.995  1.7738 -0.7023 -0.6814
 5649TIP3   OH216952   0.800   1.387   0.438  0.0698 -0.0587 -0.5001
 5649TIP3    H116953   0.780   1.348   0.354  0.1480 -0.5395 -0.2985
 5649TIP3    H216954   0.864   1.456   0.418  1.1009 -1.0430 -0.6815
 5650TIP3   OH216955   5.481   1.608   4.557  0.0585 -0.4285 -0.5084
 5650TIP3    H116956   5.540   1.664   4.607 -1.5080  0.3768  0.5577
 5650TIP3    H216957   5.477   1.649   4.470  0.6720 -0.2134 -0.4402
 5651TIP3   OH216958   0.219   2.348   2.212 -0.4364  0.1130 -0.0890
 5651TIP3    H116959   0.171   2.265   2.210 -0.6516  0.2289 -2.8285
 5651TIP3    H216960   0.302   2.329   2.168 -0.0614  1.1419  0.1488
 5652TIP3   OH216961   3.747   5.784   0.038  0.2833 -0.1727  0.5447
 5652TIP3    H116962   3.680   5.845   0.006  1.2453  0.1456 -0.9837
 5652TIP3    H216963   3.818   5.841   0.066  0.5302 -0.5518  0.6797
 5653TIP3   OH216964   3.856   1.754   1.990  0.2662  0.1619  0.0102
 5653TIP3    H116965   3.833   1.661   1.987  1.3474 -0.2130  1.9265
 5653TIP3    H216966   3.796   1.795   1.928  0.2915 -1.8985 -1.4921
 5654TIP3   OH216967   5.515   0.162   4.589  0.4455  0.2031 -0.0203
 5654TIP3    H116968   5.503   0.114   4.507 -0.9152  0.2539  0.1241
 5654TIP3    H216969   5.561   0.241   4.564 -0.0299  0.2580 -0.7631
 5655TIP3   OH216970   0.599   0.181   3.593 -0.1497  0.4364 -0.8917
 5655TIP3    H116971   0.689   0.201   3.617  0.4505 -2.3960 -0.4550
 5655TIP3    H216972   0.575   0.107   3.648 -2.5760  0.7410 -1.4031
 5656TIP3   OH216973   5.252   5.929   2.871  0.0845  0.4234 -0.3666
 5656TIP3    H116974   5.257   5.841   2.908  0.2374  0.1717 -0.9716
 5656TIP3    H216975   5.158   5.945   2.860  0.0563  0.3169 -0.2818
 5657TIP3   OH216976   6.076   4.331   3.742  0.0677  0.3629 -0.3393
 5657TIP3    H116977   6.145   4.268   3.759 -0.9531 -0.5549  0.5822
 5657TIP3    H216978   6.066   4.331   3.647  1.2575  0.4666 -0.4818
 5658TIP3   OH216979   0.292   3.342   1.286  0.6166 -0.3030  0.3357
 5658TIP3    H116980   0.279   3.370   1.376  0.9221  2.4783 -0.3974
 5658TIP3    H216981   0.293   3.423   1.235  0.8726 -1.7449 -2.1344
 5659TIP3   OH216982   1.575   1.967   0.067 -0.4641  1.4610  0.3730
 5659TIP3    H116983   1.662   1.978   0.030 -0.0895 -1.2745  0.2189
 5659TIP3    H216984   1.576   2.018   0.148  0.3518  3.5469 -0.8585
 5660TIP3   OH216985   0.438   4.279   2.202  0.1814  0.1663  0.2488
 5660TIP3    H116986   0.393   4.281   2.286 -0.2506  0.7373  0.0118
 5660TIP3    H216987   0.529   4.259   2.224  0.0075 -0.0098  0.8211
 5661TIP3   OH216988   4.756   3.590   2.775 -0.2237  0.5000  0.1274
 5661TIP3    H116989   4.709   3.530   2.717 -0.6053  1.3706 -0.4935
 5661TIP3    H216990   4.839   3.607   2.731 -1.0598  2.2256 -0.9062
 5662TIP3   OH216991   1.248   5.092   4.468 -0.5251 -0.0911 -0.0854
 5662TIP3    H116992   1.283   5.146   4.539  0.1182 -1.9581  1.1134
 5662TIP3    H216993   1.163   5.063   4.500  0.1128 -1.5971  0.3333
 5663TIP3   OH216994   3.822   5.557   5.116  0.5431  0.2551 -0.3312
 5663TIP3    H116995   3.835   5.480   5.171 -0.4350 -0.3452 -0.9181
 5663TIP3    H216996   3.806   5.628   5.178 -1.1820 -0.5326  0.1888
 5664TIP3   OH216997   6.140   5.348   1.892 -0.6939 -0.0098  0.1634
 5664TIP3    H116998   6.162   5.440   1.877 -0.6454  0.1101  0.9425
 5664TIP3    H216999   6.183   5.302   1.820 -2.0956  0.7242 -1.2085
 5665TIP3   OH217000   0.599   3.608   2.456  0.4645  0.3547 -0.1756
 5665TIP3    H117001   0.589   3.645   2.368  1.0408 -2.4135 -1.5183
 5665TIP3    H217002   0.693   3.594   2.466  0.3426  0.0199  0.5903
 5666TIP3   OH217003   5.116   5.593   3.448  0.4049  0.0385  0.3780
 5666TIP3    H117004   5.098   5.574   3.355  1.0077  1.2650 -0.0059
 5666TIP3    H217005   5.043   5.551   3.495 -1.4242  1.6506 -0.8425
 5667TIP3   OH217006   2.693   5.294   1.584  0.4162  0.2465  0.2874
 5667TIP3    H117007   2.676   5.245   1.503  1.1585  0.9105 -0.2881
 5667TIP3    H217008   2.614   5.347   1.597  0.4220  0.3747 -0.1808
 5668TIP3   OH217009   2.855   3.096   4.796  0.0282  0.5657 -0.0645
 5668TIP3    H117010   2.843   3.001   4.789  2.4559  0.2323 -0.5900
 5668TIP3    H217011   2.833   3.129   4.709 -0.7027  0.4985  0.0854
 5669TIP3   OH217012   4.967   5.443   1.620 -0.6037 -0.0807  0.2815
 5669TIP3    H117013   4.951   5.355   1.655 -1.2269  0.2895  0.9477
 5669TIP3    H217014   5.038   5.478   1.673  1.3460 -1.0609 -1.5432
 5670TIP3   OH217015   3.909   5.427   4.390  1.0363  0.5567  0.3472
 5670TIP3    H117016   3.976   5.361   4.370  1.6924  1.2744  0.1372
 5670TIP3    H217017   3.851   5.425   4.314  1.8572  1.2026 -0.3106
 5671TIP3   OH217018   5.849   3.483   2.679  0.5396 -0.4094 -0.2078
 5671TIP3    H117019   5.860   3.577   2.689 -0.3976 -0.3010 -0.1034
 5671TIP3    H217020   5.754   3.470   2.676  0.4126 -1.7070  3.6684
 5672TIP3   OH217021   0.937   4.569   4.954 -0.0030  0.0555 -0.3155
 5672TIP3    H117022   0.899   4.481   4.958 -1.6262  0.7601  1.0764
 5672TIP3    H217023   0.996   4.573   5.029  0.2906  0.0742 -0.5447
 5673TIP3   OH217024   2.894   5.618   2.035 -0.0016 -0.0916 -0.2622
 5673TIP3    H117025   2.810   5.578   2.056 -0.7508  0.2006 -2.5080
 5673TIP3    H217026   2.945   5.609   2.116 -1.9110 -0.9175  0.9249
 5674TIP3   OH217027   0.335   5.854   4.682 -0.3712 -0.1671 -0.8184
 5674TIP3    H117028   0.337   5.832   4.589 -0.4427  0.8209 -1.0713
 5674TIP3    H217029   0.426   5.865   4.707 -0.3836  0.3733 -0.9889
 5675TIP3   OH217030   1.735   0.013   1.595  0.2591 -0.3841 -0.0745
 5675TIP3    H117031   1.647   0.039   1.569  0.2512 -0.3436 -0.0067
 5675TIP3    H217032   1.742   0.039   1.687  0.0355 -1.1719  0.1741
 5676TIP3   OH217033   5.360   1.815   2.568  0.5241 -0.1639  0.1393
 5676TIP3    H117034   5.425   1.777   2.508  0.6555  2.6704 -1.6728
 5676TIP3    H217035   5.283   1.831   2.513 -0.2346  0.3202  1.3068
 5677TIP3   OH217036   0.761   2.003   3.966 -0.0255  0.1919  0.5263
 5677TIP3    H117037   0.762   1.972   3.876  0.7898 -0.8141  0.8509
 5677TIP3    H217038   0.668   2.006   3.989 -0.2294  0.2642 -0.2769
 5678TIP3   OH217039   2.130   5.258   4.784 -0.0593  0.2187  0.3232
 5678TIP3    H117040   2.143   5.181   4.840  2.9622  0.0238 -0.4433
 5678TIP3    H217041   2.146   5.332   4.842 -0.1044  0.1485  0.4273
 5679TIP3   OH217042   3.530   0.777   0.709 -0.7219  0.0537 -0.0870
 5679TIP3    H117043   3.547   0.839   0.780  1.8257  0.0471 -0.5828
 5679TIP3    H217044   3.617   0.757   0.674 -1.8406 -0.3418 -2.8872
 5680TIP3   OH217045   0.489   4.640   3.855 -0.2595 -0.0366 -0.5312
 5680TIP3    H117046   0.501   4.550   3.884 -2.3231 -0.7462 -1.6610
 5680TIP3    H217047   0.538   4.693   3.918 -1.0371 -1.7812  1.6444
 5681TIP3   OH217048   0.159   1.026   1.903  0.0300  0.4921 -0.4612
 5681TIP3    H117049   0.089   0.998   1.843 -2.6924  0.3946  2.4961
 5681TIP3    H217050   0.132   1.113   1.933  2.0081  1.1042 -0.3086
 5682TIP3   OH217051   0.923   4.566   3.538  0.4522 -0.4954  0.6466
 5682TIP3    H117052   0.934   4.474   3.561  0.7019 -0.5570  0.2717
 5682TIP3    H217053   1.009   4.595   3.509  0.2628 -0.2727  0.2965
 5683TIP3   OH217054   6.032   5.869   2.657 -0.2609 -0.1505  0.1980
 5683TIP3    H117055   5.972   5.902   2.723 -3.1762 -0.6567 -2.0189
 5683TIP3    H217056   6.070   5.948   2.617 -1.3698  0.2830 -0.0209
 5684TIP3   OH217057   1.238   5.778   3.550  0.1987 -0.4119  0.1731
 5684TIP3    H117058   1.237   5.873   3.541 -0.4169 -0.2350  1.7599
 5684TIP3    H217059   1.331   5.756   3.556  0.3158  0.3924  2.1572
 5685TIP3   OH217060   4.302   1.021   1.022 -0.0263 -0.2116  0.5253
 5685TIP3    H117061   4.245   1.046   0.949  0.6000  0.1478  0.1560
 5685TIP3    H217062   4.249   0.960   1.074 -0.5654 -0.2760 -0.0921
 5686TIP3   OH217063   4.547   5.362   4.014 -0.2889 -0.1948  0.0359
 5686TIP3    H117064   4.622   5.412   3.984  0.3016 -1.1929 -0.1916
 5686TIP3    H217065   4.581   5.274   4.031 -1.2047 -0.4192  0.8464
 5687TIP3   OH217066   1.630   5.937   5.167  0.5347  0.1621  0.4102
 5687TIP3    H117067   1.655   5.994   5.095  2.5486 -1.7466 -0.5084
 5687TIP3    H217068   1.704   5.938   5.227  0.1328 -0.6108  0.9480
 5688TIP3   OH217069   1.472   2.744   4.734  0.2800 -0.8400 -0.2219
 5688TIP3    H117070   1.525   2.724   4.657  0.1564  0.8532 -0.7991
 5688TIP3    H217071   1.534   2.778   4.798  0.1299 -0.4210 -0.2945
 5689TIP3   OH217072   0.334   1.768   2.632 -0.3570 -0.4030  0.1920
 5689TIP3    H117073   0.315   1.838   2.695  0.1800 -0.9020  0.9328
 5689TIP3    H217074   0.309   1.804   2.547  0.8173  1.0698  0.4281
 5690TIP3   OH217075   0.432   1.525   0.414 -0.0547 -0.3212 -0.1713
 5690TIP3    H117076   0.499   1.532   0.483  1.9981 -0.5683 -2.0170
 5690TIP3    H217077   0.419   1.431   0.403 -1.3131 -0.2601  0.7051
 5691TIP3   OH217078   2.976   3.262   1.502 -0.0603 -0.0542 -0.0104
 5691TIP3    H117079   2.900   3.234   1.451 -0.0131 -1.6443  0.7324
 5691TIP3    H217080   2.952   3.244   1.593  0.6472  0.7858  0.3526
 5692TIP3   OH217081   5.388   3.144   0.886  0.3226 -0.4293  0.1707
 5692TIP3    H117082   5.469   3.193   0.903 -0.2471  0.5901  0.0773
 5692TIP3    H217083   5.324   3.184   0.945 -0.2022 -0.9477 -0.0427
 5693TIP3   OH217084   4.288   5.175   1.662  0.2971 -0.0819 -0.0466
 5693TIP3    H117085   4.299   5.238   1.590 -0.4755  0.7244  0.5193
 5693TIP3    H217086   4.217   5.118   1.632  1.3530 -1.0297 -0.7864
 5694TIP3   OH217087   4.835   1.903   4.542 -0.1445  1.2049  0.5815
 5694TIP3    H117088   4.754   1.871   4.502  0.6376  0.4550 -0.4766
 5694TIP3    H217089   4.822   1.892   4.636 -0.0207 -2.1272  0.3237
 5695TIP3   OH217090   6.120   5.771   1.622 -0.4574  0.2462 -0.6362
 5695TIP3    H117091   6.052   5.838   1.608 -1.7328 -1.3490 -2.6444
 5695TIP3    H217092   6.185   5.788   1.554 -1.3277 -1.1384 -1.8622
 5696TIP3   OH217093   4.978   4.628   2.101  0.0691  0.3815 -0.0277
 5696TIP3    H117094   5.025   4.682   2.038  0.2861  1.5283  1.0976
 5696TIP3    H217095   4.886   4.635   2.074 -0.0893  2.4140  0.8543
 5697TIP3   OH217096   2.634   0.810   2.938 -0.5540  0.1930  0.0552
 5697TIP3    H117097   2.553   0.819   2.889 -0.3665 -0.6218 -0.4088
 5697TIP3    H217098   2.608   0.821   3.030 -0.7690  2.6739 -0.2369
 5698TIP3   OH217099   1.648   4.941   1.390 -1.0052  0.4876  0.2792
 5698TIP3    H117100   1.730   4.930   1.341 -1.4261 -0.0345 -0.3208
 5698TIP3    H217101   1.583   4.891   1.340 -1.3193 -0.6197  1.7344
 5699TIP3   OH217102   5.438   5.186   4.571 -0.1776  0.1908 -0.2662
 5699TIP3    H117103   5.413   5.096   4.593  1.2767 -0.3227 -0.6157
 5699TIP3    H217104   5.399   5.201   4.485 -0.9785  0.1411  0.0780
 5700TIP3   OH217105   4.835   3.899   4.615 -0.2383 -0.1796 -0.3774
 5700TIP3    H117106   4.742   3.881   4.601 -0.3245  0.6381 -0.8773
 5700TIP3    H217107   4.851   3.870   4.705 -1.0465 -0.0364 -0.1739
 5701TIP3   OH217108   6.051   1.961   3.121  0.0437  0.5850  0.3770
 5701TIP3    H117109   6.075   2.052   3.105  0.7835  0.7229  2.0522
 5701TIP3    H217110   6.134   1.918   3.142 -0.1212 -0.7632 -1.4406
 5702TIP3   OH217111   5.924   0.928   3.381 -0.1442  0.2109  0.0573
 5702TIP3    H117112   5.980   0.984   3.326  0.4524  0.4850  0.9254
 5702TIP3    H217113   5.956   0.943   3.470 -1.7151  0.5111  0.6032
 5703TIP3   OH217114   4.366   3.101   3.344  0.3146 -0.5125 -0.4334
 5703TIP3    H117115   4.330   3.021   3.383  0.5881 -0.2995  0.2708
 5703TIP3    H217116   4.390   3.156   3.419  2.2744 -0.7074 -0.8596
 5704TIP3   OH217117   2.117   3.914   1.353 -0.3412 -0.2269  0.3706
 5704TIP3    H117118   2.051   3.863   1.307 -0.1640 -0.1708  0.0523
 5704TIP3    H217119   2.196   3.904   1.301 -0.1745 -0.0428  0.5838
 5705TIP3   OH217120   5.046   3.953   2.814  0.1066  0.2729  0.3133
 5705TIP3    H117121   4.961   3.939   2.857  0.1736 -1.5801 -0.0616
 5705TIP3    H217122   5.082   4.030   2.857  0.3223 -1.6287  3.9580
 5706TIP3   OH217123   4.415   2.887   5.066 -0.3042 -0.5782  0.6938
 5706TIP3    H117124   4.498   2.932   5.080  0.0585 -1.1387  0.3548
 5706TIP3    H217125   4.350   2.944   5.108  0.1106  0.3728  0.0621
 5707TIP3   OH217126   1.742   5.396   2.493  0.6469 -0.4464 -0.4618
 5707TIP3    H117127   1.687   5.363   2.564  0.9595  0.1791  0.0867
 5707TIP3    H217128   1.716   5.488   2.483  2.4327  0.2368  0.6762
 5708TIP3   OH217129   3.502   5.492   3.486 -0.5517 -0.5019 -0.0995
 5708TIP3    H117130   3.478   5.405   3.515  0.3222 -0.7265 -0.0383
 5708TIP3    H217131   3.550   5.478   3.404  1.6871 -0.2981  1.0836
 5709TIP3   OH217132   1.179   0.565   0.800 -0.3534 -0.2876  0.1955
 5709TIP3    H117133   1.190   0.660   0.804 -1.0253 -0.1799 -0.4354
 5709TIP3    H217134   1.250   0.535   0.743 -0.1416 -0.1710  0.3941
 5710TIP3   OH217135   5.921   4.111   2.696  0.2820 -0.4091 -0.4804
 5710TIP3    H117136   5.931   4.039   2.634 -2.4489 -1.5937  0.3238
 5710TIP3    H217137   5.964   4.185   2.654  1.3408 -1.9662 -2.2916
 5711TIP3   OH217138   1.149   5.761   2.565  0.2632 -0.0563 -0.0129
 5711TIP3    H117139   1.178   5.818   2.636 -0.8301  0.1817  0.2655
 5711TIP3    H217140   1.123   5.680   2.608 -0.9580  0.2954 -0.0495
 5712TIP3   OH217141   0.003   5.106   4.084 -0.6188  0.7974  0.1043
 5712TIP3    H117142   0.054   5.026   4.076  0.0471  1.1003  1.0696
 5712TIP3    H217143   0.067   5.176   4.069 -0.8894  1.1706  0.6540
 5713TIP3   OH217144   0.208   0.942   0.112 -0.2850  0.4238 -0.0386
 5713TIP3    H117145   0.288   0.894   0.090  0.0551  1.3007 -0.7670
 5713TIP3    H217146   0.215   0.957   0.206  0.7510  1.0701 -0.1963
 5714TIP3   OH217147   4.183   0.222   5.067 -0.4149 -0.0884 -0.4931
 5714TIP3    H117148   4.230   0.255   5.144  0.5121  0.8746 -1.4222
 5714TIP3    H217149   4.234   0.146   5.039 -1.0028 -0.7078  0.0720
 5715TIP3   OH217150   0.434   4.210   1.080 -0.6798  0.1167 -0.2835
 5715TIP3    H117151   0.351   4.192   1.036 -0.1677 -0.4185 -1.0659
 5715TIP3    H217152   0.495   4.231   1.008 -0.2031  0.7798  0.2971
 5716TIP3   OH217153   4.082   2.204   4.882 -0.8182  0.4921  0.1570
 5716TIP3    H117154   4.084   2.143   4.808  0.7478  1.1067 -0.3558
 5716TIP3    H217155   3.998   2.187   4.925 -0.5985 -1.7590 -0.1701
 5717TIP3   OH217156   4.462   4.471   4.749 -0.5577  0.3120 -0.1862
 5717TIP3    H117157   4.406   4.544   4.776  1.2685  2.0915 -0.9923
 5717TIP3    H217158   4.477   4.422   4.830 -2.6022  0.2012  0.1898
 5718TIP3   OH217159   5.791   0.633   4.116  0.5352 -0.0332  0.1588
 5718TIP3    H117160   5.878   0.603   4.089  1.2316  0.7365  1.4604
 5718TIP3    H217161   5.808   0.702   4.180 -1.0366 -0.2736  0.8840
 5719TIP3   OH217162   1.840   0.744   2.804  0.1491  0.2233  0.3621
 5719TIP3    H117163   1.871   0.654   2.789  0.8726  0.7506 -1.5886
 5719TIP3    H217164   1.746   0.740   2.785 -0.2104 -0.4573  2.0502
 5720TIP3   OH217165   1.377   0.455   4.707 -0.5267 -0.2742 -0.3769
 5720TIP3    H117166   1.387   0.361   4.687 -0.8589 -0.1701 -1.0727
 5720TIP3    H217167   1.289   0.477   4.674 -0.4372  0.2889 -0.2446
 5721TIP3   OH217168   5.729   4.116   0.680  0.1168  0.0667 -0.0864
 5721TIP3    H117169   5.778   4.116   0.598  0.7113  2.9325  0.1346
 5721TIP3    H217170   5.674   4.038   0.676  1.6849 -1.0390 -2.2101
 5722TIP3   OH217171   5.799   1.096   0.696  0.6969  0.2041 -0.0496
 5722TIP3    H117172   5.711   1.093   0.660 -0.3412 -1.5817  2.3686
 5722TIP3    H217173   5.799   1.170   0.756  0.8349  0.1750 -0.0116
 5723TIP3   OH217174   6.046   0.885   2.583 -0.3132 -0.0049 -0.0880
 5723TIP3    H117175   6.081   0.953   2.640  0.1039  0.0299 -0.3855
 5723TIP3    H217176   5.980   0.930   2.530  2.4500  1.1071 -2.8925
 5724TIP3   OH217177   2.474   0.654   0.380 -0.1947 -0.0896  0.2624
 5724TIP3    H117178   2.459   0.584   0.444  1.4917 -0.8961 -0.1553
 5724TIP3    H217179   2.473   0.734   0.432  1.1741 -0.7267  1.3587
 5725TIP3   OH217180   5.578   3.149   1.852  0.2517 -0.0751 -0.3900
 5725TIP3    H117181   5.607   3.237   1.829  0.2366  0.2524  0.7439
 5725TIP3    H217182   5.633   3.091   1.800  2.1040  0.5652  0.7291
 5726TIP3   OH217183   1.871   5.781   3.518 -0.4972  0.1662  0.2194
 5726TIP3    H117184   1.952   5.749   3.557 -0.1310  1.8748  0.9146
 5726TIP3    H217185   1.821   5.816   3.591 -0.5434  1.8490 -0.5843
 5727TIP3   OH217186   4.139   5.525   4.535 -0.2703 -0.0093  0.1215
 5727TIP3    H117187   4.165   5.589   4.469  1.3142 -0.4326  0.2882
 5727TIP3    H217188   4.092   5.457   4.486 -0.2032  0.2984 -0.3686
 5728TIP3   OH217189   1.261   4.871   1.331  0.2230  0.2967 -0.0269
 5728TIP3    H117190   1.252   4.815   1.408 -0.6720  0.8240  0.2611
 5728TIP3    H217191   1.186   4.929   1.334  1.8242  2.4903  0.4714
 5729TIP3   OH217192   3.638   0.944   4.948  0.0777 -0.2115 -0.4875
 5729TIP3    H117193   3.561   1.001   4.947  0.1798  0.0406  1.6748
 5729TIP3    H217194   3.631   0.894   4.867 -2.7712 -0.7220 -0.0327
 5730TIP3   OH217195   2.400   4.815   3.452 -0.7546  0.6489 -0.0942
 5730TIP3    H117196   2.451   4.754   3.399  1.7394  1.6335  1.0021
 5730TIP3    H217197   2.395   4.895   3.399 -1.2130  0.5589 -0.1963
 5731TIP3   OH217198   2.152   0.777   0.874 -0.0880 -0.2077  0.9001
 5731TIP3    H117199   2.216   0.794   0.805 -0.0192  2.2042  1.4680
 5731TIP3    H217200   2.144   0.681   0.876  0.0468 -0.4174 -2.2712
 5732TIP3   OH217201   1.699   3.535   1.242 -0.6488  0.4011 -0.2189
 5732TIP3    H117202   1.742   3.549   1.157  1.3007 -0.3129  0.5996
 5732TIP3    H217203   1.744   3.459   1.279 -2.6660 -0.3824  0.7150
 5733TIP3   OH217204   2.576   5.435   1.358 -0.3372 -0.1352  0.0572
 5733TIP3    H117205   2.618   5.484   1.429  0.7224 -2.3334  1.0595
 5733TIP3    H217206   2.618   5.466   1.278 -0.4181  1.2563  0.5360
 5734TIP3   OH217207   3.806   1.888   2.731  0.5881 -0.2041 -0.1030
 5734TIP3    H117208   3.867   1.912   2.661  1.1070 -2.7864 -0.6519
 5734TIP3    H217209   3.736   1.841   2.685 -0.0382 -0.2917  0.9163
 5735TIP3   OH217210   0.638   5.853   4.600  0.7608 -0.5484  0.0080
 5735TIP3    H117211   0.672   5.791   4.536  0.2648 -1.6098  0.7503
 5735TIP3    H217212   0.709   5.864   4.664  1.2095  0.4158 -0.6312
 5736TIP3   OH217213   1.255   2.795   4.095  0.2442  0.3874 -0.1962
 5736TIP3    H117214   1.182   2.768   4.040 -0.7048  0.6870  0.8844
 5736TIP3    H217215   1.230   2.770   4.184  1.8550 -0.3188  0.0969
 5737TIP3   OH217216   0.982   5.317   2.188 -0.6340  0.5571 -0.9077
 5737TIP3    H117217   1.008   5.337   2.278  0.4628 -0.5902 -0.9415
 5737TIP3    H217218   1.065   5.319   2.139 -0.9619 -0.5810 -1.5363
 5738TIP3   OH217219   2.436   4.900   1.468  0.1511  0.4328 -0.5064
 5738TIP3    H117220   2.344   4.874   1.457 -0.1772  1.7650 -1.0707
 5738TIP3    H217221   2.459   4.871   1.556 -0.4055 -1.0636 -0.8234
 5739TIP3   OH217222   4.386   0.340   1.726  0.5223 -0.0472  0.1423
 5739TIP3    H117223   4.415   0.408   1.788  2.7653 -0.7356 -0.0661
 5739TIP3    H217224   4.291   0.348   1.726  0.5808  1.6127  1.8114
 5740TIP3   OH217225   4.530   1.236   0.520 -0.1413  0.8579  0.3167
 5740TIP3    H117226   4.454   1.254   0.576  1.5236  0.9909  2.7117
 5740TIP3    H217227   4.560   1.322   0.492 -0.2226  0.8902  0.3280
 5741TIP3   OH217228   2.884   2.332   2.808  0.1339 -0.0626  0.6906
 5741TIP3    H117229   2.830   2.367   2.738  1.3659  1.2113  0.3377
 5741TIP3    H217230   2.866   2.238   2.807  2.0022 -0.5837 -3.1416
 5742TIP3   OH217231   0.653   5.969   3.955 -0.0605  0.4294  0.2649
 5742TIP3    H117232   0.673   5.954   4.047 -0.4819 -0.8796  0.1616
 5742TIP3    H217233   0.677   5.887   3.911  0.5286  1.1760 -0.8667
 5743TIP3   OH217234   4.069   2.566   1.809 -0.3532 -0.7164 -0.1525
 5743TIP3    H117235   4.041   2.609   1.890  0.5618 -0.4191  0.0161
 5743TIP3    H217236   3.990   2.524   1.776 -0.5562 -1.6137  1.3714
 5744TIP3   OH217237   1.599   2.911   4.940  0.2184  0.2815  0.6416
 5744TIP3    H117238   1.665   2.965   4.984  1.6969 -0.6842 -0.2763
 5744TIP3    H217239   1.645   2.831   4.917 -1.2198 -0.3220 -0.2947
 5745TIP3   OH217240   1.346   5.070   0.580  0.0801 -0.1028  0.3836
 5745TIP3    H117241   1.303   5.143   0.624  3.2540  0.9667  2.0392
 5745TIP3    H217242   1.364   5.102   0.492  0.6265  0.8153  0.8104
 5746TIP3   OH217243   2.556   5.899   1.935 -0.7253  0.0353 -0.8850
 5746TIP3    H117244   2.595   5.813   1.949 -1.1866 -0.3893 -2.0518
 5746TIP3    H217245   2.599   5.932   1.856  2.7781  2.8967  1.9088
 5747TIP3   OH217246   3.360   3.009   2.335  0.0587 -0.3587  0.4743
 5747TIP3    H117247   3.352   3.088   2.389 -0.2892 -1.0557  1.4842
 5747TIP3    H217248   3.339   3.037   2.247 -2.0756  0.3083  1.1211
 5748TIP3   OH217249   4.673   3.114   2.882  0.1267  0.2476 -0.7229
 5748TIP3    H117250   4.641   3.078   2.965  0.6123  1.7420  0.1412
 5748TIP3    H217251   4.767   3.098   2.884  0.2266  0.8367 -0.7010
 5749TIP3   OH217252   4.934   5.758   4.602  0.0368 -0.1197 -0.5222
 5749TIP3    H117253   4.880   5.790   4.675  1.1821 -0.3066  0.4263
 5749TIP3    H217254   4.980   5.682   4.638  0.5762 -0.2502 -1.4613
 5750TIP3   OH217255   5.033   4.403   3.966  0.0645 -0.0392  0.0408
 5750TIP3    H117256   5.093   4.345   3.919  0.7366  0.5602  0.1311
 5750TIP3    H217257   4.981   4.346   4.022  0.7212 -0.5507  0.1342
 5751TIP3   OH217258   4.946   3.366   4.725 -0.0791 -0.6279  0.3531
 5751TIP3    H117259   4.853   3.370   4.745  0.0304 -0.9493  0.9690
 5751TIP3    H217260   4.973   3.458   4.717 -0.1920 -0.4777  1.4782
 5752TIP3   OH217261   0.584   3.429   4.569  0.3670  0.3463 -0.1158
 5752TIP3    H117262   0.613   3.499   4.511  1.1455 -0.7465 -1.0705
 5752TIP3    H217263   0.655   3.418   4.632  0.2285  0.4173  0.0569
 5753TIP3   OH217264   5.188   3.398   1.638 -0.1963  0.0172  0.4181
 5753TIP3    H117265   5.215   3.344   1.564 -2.1401  0.1168 -0.4228
 5753TIP3    H217266   5.178   3.486   1.601 -0.1570  0.2962  1.0538
 5754TIP3   OH217267   1.419   2.514   0.949  0.0291 -0.0735 -0.0896
 5754TIP3    H117268   1.405   2.558   0.865  3.2245 -0.2259 -0.8310
 5754TIP3    H217269   1.391   2.424   0.934 -1.7148  0.4289 -0.1505
 5755TIP3   OH217270   1.132   1.386   2.074 -0.2342 -0.3650  0.0450
 5755TIP3    H117271   1.040   1.395   2.099 -0.4395 -0.3022 -0.6970
 5755TIP3    H217272   1.172   1.338   2.146 -0.9166 -0.6618  0.2337
 5756TIP3   OH217273   3.105   5.965   1.887 -0.5522 -0.7764  0.0043
 5756TIP3    H117274   3.021   5.944   1.845  0.0545  0.1795 -1.8085
 5756TIP3    H217275   3.149   5.880   1.896 -1.2234 -1.1489 -0.1607
 5757TIP3   OH217276   1.197   5.471   3.941  0.0108  0.3839 -0.1384
 5757TIP3    H117277   1.206   5.566   3.937  0.8147  0.2878 -2.8478
 5757TIP3    H217278   1.287   5.438   3.941 -0.2445 -0.3717 -1.2341
 5758TIP3   OH217279   4.041   3.610   5.170 -0.2446 -0.6009 -0.6128
 5758TIP3    H117280   3.971   3.626   5.106  0.6888 -0.6750 -1.6922
 5758TIP3    H217281   4.087   3.533   5.136  0.7418 -0.1776 -0.2685
 5759TIP3   OH217282   3.291   5.056   0.539  0.5105  0.0491 -0.2649
 5759TIP3    H117283   3.225   5.125   0.536  0.4334 -0.0179 -0.1121
 5759TIP3    H217284   3.243   4.976   0.520  0.2802 -0.1906  1.1929
 5760TIP3   OH217285   0.899   1.090   1.652 -0.2652  0.4702 -0.4846
 5760TIP3    H117286   0.895   1.184   1.634  1.4780  0.9560  1.4123
 5760TIP3    H217287   0.820   1.055   1.610 -0.3992  2.5839 -2.1837
 5761TIP3   OH217288   1.115   4.942   2.457  0.0993  0.1822 -0.1913
 5761TIP3    H117289   1.129   5.018   2.513 -0.8028  0.1880  0.0384
 5761TIP3    H217290   1.021   4.939   2.443  0.2323 -0.2880 -1.0596
 5762TIP3   OH217291   2.854   0.617   0.423 -0.2637 -0.3731  0.3978
 5762TIP3    H117292   2.776   0.661   0.459 -0.1540 -0.0702  0.2695
 5762TIP3    H217293   2.871   0.662   0.341 -0.2984 -0.8275  0.1386
 5763TIP3   OH217294   0.045   2.541   2.236  0.4866  0.5305 -0.6056
 5763TIP3    H117295   0.114   2.476   2.226 -0.9435 -1.0026 -1.1171
 5763TIP3    H217296   0.058   2.601   2.162  0.5462 -0.4736 -1.4413
 5764TIP3   OH217297   5.151   2.180   1.604  0.4676 -0.0028  0.1247
 5764TIP3    H117298   5.111   2.093   1.605 -0.3581  0.3601  0.5702
 5764TIP3    H217299   5.162   2.200   1.512  2.8241 -1.4965  0.0034
 5765TIP3   OH217300   1.477   4.922   1.625  0.1194  0.1939 -0.1676
 5765TIP3    H117301   1.453   5.009   1.657  0.5970  0.3952 -0.3408
 5765TIP3    H217302   1.508   4.936   1.536  0.1185 -0.1698 -0.2299
 5766TIP3   OH217303   5.736   2.968   0.853 -0.8612  0.4610  0.3786
 5766TIP3    H117304   5.691   3.029   0.795  0.2578  1.2109  0.2633
 5766TIP3    H217305   5.750   2.890   0.799 -2.6441 -0.0830  0.6475
 5767TIP3   OH217306   1.050   3.906   3.062 -0.2013  0.5518 -0.1630
 5767TIP3    H117307   1.122   3.894   3.000  1.7998  0.4781  2.0069
 5767TIP3    H217308   1.001   3.824   3.058  0.4756  0.1712 -0.9206
 5768TIP3   OH217309   1.579   1.464   2.657  0.6666  0.0878 -0.2949
 5768TIP3    H117310   1.655   1.412   2.684  0.3776 -0.6454 -0.8655
 5768TIP3    H217311   1.578   1.539   2.718  0.5272 -1.0599  1.1734
 5769TIP3   OH217312   2.220   0.159   1.086  0.5283 -0.6217  0.3564
 5769TIP3    H117313   2.125   0.165   1.092  0.5355  1.6391 -0.6086
 5769TIP3    H217314   2.252   0.214   1.158  1.0551  0.1166 -0.4214
 5770TIP3   OH217315   1.671   1.175   2.354  0.0401  0.6758  0.1508
 5770TIP3    H117316   1.669   1.184   2.449 -1.8840 -0.2364  0.2428
 5770TIP3    H217317   1.757   1.139   2.335 -0.1761 -0.8127  1.7495
 5771TIP3   OH217318   1.850   3.501   3.373 -0.7130  0.2546  0.1575
 5771TIP3    H117319   1.881   3.418   3.337  0.2983 -0.1266  1.8042
 5771TIP3    H217320   1.915   3.566   3.344 -0.5077  0.1442  0.3661
 5772TIP3   OH217321   4.997   1.374   0.663  0.4430  0.1416 -0.2793
 5772TIP3    H117322   5.004   1.450   0.720 -2.1605 -0.3711  0.8644
 5772TIP3    H217323   5.005   1.299   0.722 -3.1747 -0.4042 -0.2403
 5773TIP3   OH217324   0.728   4.144   0.888 -0.3085  0.1520  0.1157
 5773TIP3    H117325   0.811   4.102   0.866 -0.2168  0.8416 -0.9020
 5773TIP3    H217326   0.746   4.237   0.883 -0.5139  0.3673  2.3351
 5774TIP3   OH217327   2.487   1.564   1.597  0.2421 -0.2532 -0.0122
 5774TIP3    H117328   2.400   1.557   1.635 -0.0056 -0.3798 -0.5876
 5774TIP3    H217329   2.546   1.528   1.663 -0.3861 -2.4637 -0.5521
 5775TIP3   OH217330   2.448   5.692   1.209 -0.4225 -0.5796  0.4587
 5775TIP3    H117331   2.527   5.639   1.204 -1.1776 -1.8530  1.3123
 5775TIP3    H217332   2.476   5.775   1.247  0.4883 -1.0653  0.8763
 5776TIP3   OH217333   3.640   3.295   1.784  0.3700  0.5401  0.2791
 5776TIP3    H117334   3.637   3.246   1.702 -1.3075 -1.3540  1.3883
 5776TIP3    H217335   3.693   3.241   1.843 -0.5874  0.5642  1.1938
 5777TIP3   OH217336   5.873   3.578   3.107  0.6078 -0.1517  0.1226
 5777TIP3    H117337   5.951   3.601   3.056 -0.0498 -0.3528 -1.0269
 5777TIP3    H217338   5.844   3.660   3.145  1.5551 -0.1312  0.8206
 5778TIP3   OH217339   6.187   3.308   1.861  0.5343 -0.6969  0.1020
 5778TIP3    H117340   6.167   3.388   1.814 -0.9182 -0.8498  0.4244
 5778TIP3    H217341   6.273   3.281   1.827  1.1277  1.0595  0.1231
 5779TIP3   OH217342   3.287   5.598   2.387  0.1479 -0.0477  0.2935
 5779TIP3    H117343   3.249   5.544   2.457 -0.6635  1.4527  1.0415
 5779TIP3    H217344   3.332   5.669   2.433  1.3198 -0.1315 -0.6776
 5780TIP3   OH217345   4.843   4.501   2.956 -0.0249 -0.6775 -0.4482
 5780TIP3    H117346   4.886   4.435   3.010  0.7001  0.2345  0.1198
 5780TIP3    H217347   4.892   4.500   2.873  0.5786 -0.2329 -0.1090
 5781TIP3   OH217348   2.629   0.954   0.245 -0.1820 -0.3636  0.3480
 5781TIP3    H117349   2.544   0.910   0.244 -0.4852  0.2127  0.5501
 5781TIP3    H217350   2.615   1.033   0.297  0.4095 -0.1186  0.1448
 5782TIP3   OH217351   1.540   2.317   0.083 -0.2272 -0.2082  0.1448
 5782TIP3    H117352   1.617   2.302   0.137  0.2418 -0.0093 -0.4555
 5782TIP3    H217353   1.568   2.294  -0.006 -0.3521  1.4294 -0.3497
 5783TIP3   OH217354   5.309   2.785   5.160  0.1100  0.2814 -0.0795
 5783TIP3    H117355   5.225   2.765   5.201 -0.1005  2.3168  0.5971
 5783TIP3    H217356   5.332   2.705   5.113 -0.7904 -1.3317  2.0556
 5784TIP3   OH217357   3.408   5.652   3.918 -0.2085 -0.2347 -0.2873
 5784TIP3    H117358   3.407   5.558   3.933  1.5340 -0.2393  0.0158
 5784TIP3    H217359   3.428   5.662   3.825 -1.4873 -0.1468 -0.5709
 5785TIP3   OH217360   2.071   0.706   3.234 -0.4246 -0.2898  0.6597
 5785TIP3    H117361   2.077   0.784   3.177  0.6634 -0.9282 -0.1489
 5785TIP3    H217362   2.009   0.649   3.189  1.2773 -1.2748 -0.5487
 5786TIP3   OH217363   0.997   5.264   4.734  0.2281 -0.2453 -0.3724
 5786TIP3    H117364   1.057   5.313   4.790  1.3305 -2.0463  0.1180
 5786TIP3    H217365   0.950   5.331   4.684  2.9156  1.2884 -1.0534
 5787TIP3   OH217366   5.968   4.390   3.236 -0.2733 -0.1499 -0.4499
 5787TIP3    H117367   5.891   4.430   3.196  0.9042  1.7550 -0.9982
 5787TIP3    H217368   5.935   4.314   3.282 -2.5088  0.7317 -0.4663
 5788TIP3   OH217369   0.904   4.577   2.422  0.3717 -0.2751 -0.2356
 5788TIP3    H117370   0.822   4.586   2.472  0.5628 -1.4518  0.3303
 5788TIP3    H217371   0.970   4.560   2.489  0.7855 -0.9964 -0.8124
 5789TIP3   OH217372   3.144   1.031   3.360  0.3206  0.3342  0.1877
 5789TIP3    H117373   3.207   1.034   3.431 -0.3359 -0.0424  0.7989
 5789TIP3    H217374   3.109   0.942   3.362 -0.0886  0.4793 -0.2660
 5790TIP3   OH217375   4.210   3.875   2.642 -0.3554 -0.8032 -0.2748
 5790TIP3    H117376   4.136   3.845   2.695 -0.7335 -1.9875 -1.4136
 5790TIP3    H217377   4.238   3.957   2.683 -0.8073 -1.5265  1.5692
 5791TIP3   OH217378   5.717   1.908   4.943 -0.2227 -0.2269  0.2122
 5791TIP3    H117379   5.788   1.938   4.888 -0.7427  1.7368  0.5542
 5791TIP3    H217380   5.751   1.912   5.032 -0.8357  1.1059  0.4166
 5792TIP3   OH217381   2.130   1.316   2.258  0.9078 -0.5511 -0.3507
 5792TIP3    H117382   2.092   1.394   2.297 -0.1056 -0.8648 -0.6677
 5792TIP3    H217383   2.165   1.266   2.332 -0.3895 -0.8206  0.1081
 5793TIP3   OH217384   1.935   4.688   4.588  0.1803  0.2118  0.4153
 5793TIP3    H117385   1.935   4.703   4.493  0.1319 -1.9216  0.0146
 5793TIP3    H217386   1.844   4.702   4.614  0.0378  0.0992 -0.0024
 5794TIP3   OH217387   4.787   2.121   2.050  0.6106 -0.0362 -0.1424
 5794TIP3    H117388   4.794   2.098   1.957  0.8489  0.7756 -0.3348
 5794TIP3    H217389   4.854   2.067   2.092  1.1811  0.3116 -0.5833
 5795TIP3   OH217390   2.816   3.791   4.314  0.2762  0.3940 -0.1620
 5795TIP3    H117391   2.786   3.846   4.241  0.0625 -1.4398 -1.5163
 5795TIP3    H217392   2.817   3.850   4.389  1.1940  2.5455 -1.7595
 5796TIP3   OH217393   2.886   3.310   3.416  0.2047 -0.1279 -0.4254
 5796TIP3    H117394   2.979   3.329   3.409  0.1966  0.4797  0.8179
 5796TIP3    H217395   2.869   3.247   3.346  1.7101 -0.8720 -0.1661
 5797TIP3   OH217396   1.313   4.989   4.998  0.3034  0.2772 -0.5590
 5797TIP3    H117397   1.362   4.948   4.927  0.5209  0.6434 -0.6249
 5797TIP3    H217398   1.318   5.083   4.979 -0.2541  0.3308 -0.4570
 5798TIP3   OH217399   1.418   2.846   4.304 -0.1239 -0.5239 -0.2346
 5798TIP3    H117400   1.485   2.778   4.304  0.0412 -0.3658  0.3702
 5798TIP3    H217401   1.394   2.855   4.212 -0.9152 -2.1421 -0.2137
 5799TIP3   OH217402   1.724   5.689   2.441 -0.3609  0.5877 -0.3093
 5799TIP3    H117403   1.808   5.681   2.395 -0.5748 -1.3824 -0.4589
 5799TIP3    H217404   1.679   5.759   2.395  0.6593  0.7502 -1.1188
 5800TIP3   OH217405   0.302   3.714   0.180  0.1052 -0.0259 -0.3065
 5800TIP3    H117406   0.275   3.779   0.114 -0.5294 -1.6757 -1.7646
 5800TIP3    H217407   0.220   3.681   0.216  0.4371  0.3210  0.8016
 5801TIP3   OH217408   2.343   0.948   0.147  0.3620 -0.7677 -0.3594
 5801TIP3    H117409   2.324   1.033   0.108 -1.5294 -0.1466  1.6958
 5801TIP3    H217410   2.404   0.906   0.086  0.5785  1.6399 -1.9163
 5802TIP3   OH217411   4.488   4.255   4.254 -0.3168 -0.2926 -0.4302
 5802TIP3    H117412   4.512   4.282   4.342  1.1601 -1.4677 -0.4446
 5802TIP3    H217413   4.393   4.269   4.249 -0.4898 -0.6377  1.4828
 5803TIP3   OH217414   2.150   2.651   4.870 -0.4743  0.4442  0.5203
 5803TIP3    H117415   2.098   2.712   4.922 -3.4108  1.4639 -3.1840
 5803TIP3    H217416   2.085   2.589   4.835  0.9018  0.7742 -3.0479
 5804TIP3   OH217417   1.099   1.986   2.041 -0.4932 -0.9904 -0.6771
 5804TIP3    H117418   1.033   2.048   2.072  0.0018 -0.8493  0.1277
 5804TIP3    H217419   1.153   2.038   1.980 -2.4927 -1.7101 -3.2297
 5805TIP3   OH217420   5.572   0.506   2.774  0.0034 -0.4837 -0.0161
 5805TIP3    H117421   5.614   0.592   2.769 -1.2914  0.1577 -0.2353
 5805TIP3    H217422   5.579   0.482   2.866  0.4992 -0.2179  0.0230
 5806TIP3   OH217423   4.466   2.179   3.411  0.1698 -0.4093 -0.2388
 5806TIP3    H117424   4.561   2.183   3.428 -0.2548 -0.9961  2.8822
 5806TIP3    H217425   4.434   2.266   3.433 -0.0752 -0.3000 -1.0016
 5807TIP3   OH217426   0.487   4.563   1.516  0.0462  0.4758  0.0445
 5807TIP3    H117427   0.557   4.613   1.473  0.9019  0.5134  1.4241
 5807TIP3    H217428   0.420   4.553   1.448  2.1488 -1.1715 -1.9255
 5808TIP3   OH217429   1.790   1.221   3.725 -0.3371  0.5545 -0.7049
 5808TIP3    H117430   1.795   1.125   3.724  0.1618  0.5797 -1.0009
 5808TIP3    H217431   1.846   1.249   3.653 -0.0230  1.0878 -0.2628
 5809TIP3   OH217432   5.349   2.237   3.173 -0.3618 -0.5426  0.0506
 5809TIP3    H117433   5.304   2.213   3.254  0.2445  2.6328  1.4673
 5809TIP3    H217434   5.279   2.268   3.115 -0.3802  1.9754  1.3106
 5810TIP3   OH217435   3.572   1.519   4.457  0.2120 -0.0269 -0.0412
 5810TIP3    H117436   3.609   1.471   4.383 -2.2884 -0.7948 -0.8897
 5810TIP3    H217437   3.556   1.451   4.523  0.5919  0.3494  0.4495
 5811TIP3   OH217438   0.713   2.037   3.120 -0.4384 -0.0478  0.1879
 5811TIP3    H117439   0.712   2.043   3.215  2.0154 -1.0431  0.3421
 5811TIP3    H217440   0.636   1.983   3.099  0.2722 -1.8084  1.8353
 5812TIP3   OH217441   5.574   5.687   4.805 -0.3922  0.0913 -0.0041
 5812TIP3    H117442   5.575   5.683   4.901 -0.8167  0.3412  0.0141
 5812TIP3    H217443   5.525   5.610   4.778 -2.1083  1.1008  0.0707
 5813TIP3   OH217444   3.427   0.054   0.478  0.5923  0.5563  0.0022
 5813TIP3    H117445   3.416   0.139   0.438  0.3336  0.0216 -1.0940
 5813TIP3    H217446   3.474   0.002   0.413  0.0933 -0.3559  0.3455
 5814TIP3   OH217447   1.937   0.389   4.404  0.2381  0.1168  0.2243
 5814TIP3    H117448   1.917   0.458   4.467 -0.0609 -0.2912  0.5838
 5814TIP3    H217449   1.989   0.325   4.453  0.8137  0.2491 -0.1992
 5815TIP3   OH217450   2.881   1.893   3.363  0.0247  0.2120  0.1210
 5815TIP3    H117451   2.818   1.959   3.393 -1.9918 -1.1351 -0.9081
 5815TIP3    H217452   2.878   1.899   3.267  0.6044 -0.6294  0.0397
 5816TIP3   OH217453   2.984   1.067   4.888 -0.2344 -0.3336 -0.1880
 5816TIP3    H117454   2.908   1.050   4.945  0.2258  0.2496  0.6264
 5816TIP3    H217455   3.024   0.981   4.877 -1.3196 -0.7437 -1.0917
 5817TIP3   OH217456   6.139   0.127   1.957  0.4417 -0.7178  0.3865
 5817TIP3    H117457   6.227   0.151   1.989  1.2105 -3.1123  0.2631
 5817TIP3    H217458   6.126   0.038   1.989 -1.7273 -0.6180 -0.1183
 5818TIP3   OH217459   0.621   3.758   3.155 -0.3373 -0.7779  0.1086
 5818TIP3    H117460   0.572   3.809   3.091 -0.6513 -3.1935 -1.7162
 5818TIP3    H217461   0.581   3.781   3.239 -1.9613  0.2333 -0.8780
 5819TIP3   OH217462   5.723   4.538   3.921 -0.1578  0.2925  0.4143
 5819TIP3    H117463   5.679   4.606   3.973 -0.6224  0.0035  0.4090
 5819TIP3    H217464   5.730   4.577   3.834  0.6136  0.7743  0.6824
 5820TIP3   OH217465   5.222   0.135   1.311  0.1264 -0.3582  0.3019
 5820TIP3    H117466   5.207   0.183   1.393  0.2702  0.7434 -0.2982
 5820TIP3    H217467   5.246   0.203   1.248  2.3192 -1.4194 -0.0965
 5821TIP3   OH217468   3.517   4.448   0.951 -0.5855  0.2478 -0.2928
 5821TIP3    H117469   3.526   4.432   1.045  1.4971 -0.4456 -0.5721
 5821TIP3    H217470   3.483   4.366   0.916  0.3059 -0.0937 -0.3674
 5822TIP3   OH217471   4.221   4.781   0.584  0.0860  0.5545 -0.0930
 5822TIP3    H117472   4.312   4.772   0.556 -0.1527 -0.0545 -0.6872
 5822TIP3    H217473   4.227   4.796   0.678  0.7299 -1.2347  0.1824
 5823TIP3   OH217474   0.230   4.671   4.053 -0.1090 -0.3162  0.6620
 5823TIP3    H117475   0.284   4.655   4.131 -0.4638 -1.6977  0.6444
 5823TIP3    H217476   0.189   4.586   4.034 -1.2561  0.3814 -0.1050
 5824TIP3   OH217477   5.774   5.023   0.489  0.5081  0.0831  0.2482
 5824TIP3    H117478   5.789   5.013   0.583 -1.5245 -1.3276  0.4966
 5824TIP3    H217479   5.781   5.117   0.474  1.6270  0.2563  1.6544
 5825TIP3   OH217480   1.408   0.510   1.085  0.2307 -0.4625 -0.1373
 5825TIP3    H117481   1.327   0.461   1.091 -0.4537  0.5613 -0.6684
 5825TIP3    H217482   1.476   0.448   1.112 -0.6487 -1.5184 -0.2719
 5826TIP3   OH217483   2.979   0.202   2.610 -0.1923  0.1334  0.2879
 5826TIP3    H117484   2.885   0.192   2.626 -0.4336 -3.4145 -2.1164
 5826TIP3    H217485   3.020   0.155   2.682 -0.4136 -0.2304  0.1844
 5827TIP3   OH217486   2.906   2.721   1.041 -0.2147  0.3997 -0.5204
 5827TIP3    H117487   2.819   2.762   1.038 -1.5414 -2.1978  0.0071
 5827TIP3    H217488   2.954   2.773   1.105 -1.7287  1.2335  0.0032
 5828TIP3   OH217489   1.284   0.689   1.787 -0.6936 -0.0890 -0.1052
 5828TIP3    H117490   1.364   0.699   1.840 -2.1856 -1.4975  2.6322
 5828TIP3    H217491   1.244   0.776   1.788  0.5017  0.5145 -1.1102
 5829TIP3   OH217492   0.041   3.864   4.874  0.0284 -0.3277 -0.5148
 5829TIP3    H117493   0.078   3.839   4.959  1.1747 -0.4981 -1.0480
 5829TIP3    H217494  -0.044   3.903   4.896  0.1800 -0.6227  0.6827
 5830TIP3   OH217495   4.718   0.748   3.960 -0.2501  0.1782  0.2744
 5830TIP3    H117496   4.783   0.805   3.919  0.8793 -0.7688  0.6846
 5830TIP3    H217497   4.655   0.808   4.001  1.5333  1.1785  1.6860
 5831TIP3   OH217498   5.500   4.495   0.233 -0.1862 -0.0875  0.0640
 5831TIP3    H117499   5.513   4.426   0.167 -0.3276 -0.5178  0.4810
 5831TIP3    H217500   5.507   4.577   0.184  0.0095 -0.3990 -0.4338
 5832TIP3   OH217501   4.626   4.283   1.882  0.0126 -0.2507  0.2951
 5832TIP3    H117502   4.562   4.255   1.947  1.4099 -0.1738  1.7596
 5832TIP3    H217503   4.681   4.347   1.928  0.5433  0.4193 -1.2048
 5833TIP3   OH217504   5.066   0.172   2.016 -0.0581 -1.0571 -0.0342
 5833TIP3    H117505   5.110   0.104   1.964  0.6643  0.1527 -1.0526
 5833TIP3    H217506   5.103   0.254   1.984 -0.3348 -0.2094  1.7221
 5834TIP3   OH217507   3.175   1.283   4.556  0.0213 -0.2907  0.1203
 5834TIP3    H117508   3.228   1.322   4.487  2.2713 -1.9554  0.7941
 5834TIP3    H217509   3.132   1.209   4.514  0.5135 -0.6355  0.2087
 5835TIP3   OH217510   4.323   1.927   1.418 -0.2621 -0.1134  0.4829
 5835TIP3    H117511   4.326   2.001   1.357  1.0458  0.2828  1.0047
 5835TIP3    H217512   4.232   1.924   1.446 -1.0907 -0.7733 -2.0355
 5836TIP3   OH217513   1.896   0.375   0.583 -0.1134 -0.0970  0.2884
 5836TIP3    H117514   1.952   0.444   0.547  0.5663  0.0979  1.6908
 5836TIP3    H217515   1.812   0.386   0.537  0.5355  0.5019 -0.8016
 5837TIP3   OH217516   6.049   4.188   4.969 -0.3841 -0.3053 -0.5851
 5837TIP3    H117517   5.990   4.151   4.902 -0.7977  0.4632 -0.6561
 5837TIP3    H217518   6.084   4.267   4.928 -0.2716 -0.0868 -0.0664
 5838TIP3   OH217519   5.050   4.124   4.822 -0.4648 -0.0138  0.6257
 5838TIP3    H117520   5.121   4.066   4.797  0.4759  1.8480 -1.3281
 5838TIP3    H217521   5.085   4.176   4.894  0.0649  0.6679 -0.1097
 5839TIP3   OH217522   6.230   5.742   1.082 -0.1879 -0.5363 -0.1644
 5839TIP3    H117523   6.266   5.715   1.166 -2.0688  0.9411  1.2005
 5839TIP3    H217524   6.241   5.837   1.080 -1.0665 -0.4333 -1.1281
 5840TIP3   OH217525   1.201   2.563   2.267  0.6502  0.4297  0.0321
 5840TIP3    H117526   1.176   2.537   2.178  0.3153 -1.3251  0.5986
 5840TIP3    H217527   1.297   2.562   2.267  0.6470 -0.7395 -0.0082
 5841TIP3   OH217528   0.735   3.135   3.334  0.7036  0.0484 -0.2081
 5841TIP3    H117529   0.671   3.168   3.270  0.1453 -0.3340  0.1393
 5841TIP3    H217530   0.819   3.165   3.302  0.2959  1.0097 -0.3948
 5842TIP3   OH217531   0.381   5.769   4.191  0.3065 -0.0119 -0.1040
 5842TIP3    H117532   0.378   5.705   4.120  0.7897  0.0558 -0.1896
 5842TIP3    H217533   0.352   5.851   4.151  1.3621  0.2140 -0.4410
 5843TIP3   OH217534   2.860   5.008   4.817  0.6246 -0.3673  0.0917
 5843TIP3    H117535   2.798   4.959   4.764  0.6581 -0.6660  0.3244
 5843TIP3    H217536   2.837   4.985   4.908 -1.8027  2.8701  0.4607
 5844TIP3   OH217537   0.953   2.193   2.177 -0.1383 -0.0570  0.0325
 5844TIP3    H117538   0.885   2.257   2.157 -0.6317 -1.1000 -1.8401
 5844TIP3    H217539   0.998   2.229   2.254 -0.7635  2.2113 -0.5958
 5845TIP3   OH217540   2.364   2.118   1.178 -0.6720 -0.1575  0.5450
 5845TIP3    H117541   2.446   2.069   1.185 -0.3898  0.3596  0.9005
 5845TIP3    H217542   2.301   2.054   1.142  0.3141 -0.0562 -1.5120
 5846TIP3   OH217543   2.849   2.229   5.170  0.2656 -0.4808 -0.1109
 5846TIP3    H117544   2.942   2.212   5.180  0.2063 -2.1633 -1.8134
 5846TIP3    H217545   2.845   2.312   5.122  0.8556 -0.1804  0.3479
 5847TIP3   OH217546   4.399   0.271  -0.003 -0.0138 -0.0079  0.1343
 5847TIP3    H117547   4.433   0.316   0.075 -0.2310  1.2565 -0.4776
 5847TIP3    H217548   4.433   0.182   0.005 -0.3880 -0.0353  1.9022
 5848TIP3   OH217549   4.587   3.104   2.614 -0.0540 -0.2961  0.5097
 5848TIP3    H117550   4.630   3.108   2.699 -0.5036  0.1404  0.7209
 5848TIP3    H217551   4.657   3.115   2.550  0.2042 -0.0326  0.8385
 5849TIP3   OH217552   3.412   3.373   0.191  0.7954  0.0251 -0.6437
 5849TIP3    H117553   3.387   3.465   0.196  2.2540  0.5299 -2.0387
 5849TIP3    H217554   3.507   3.374   0.184  0.8476 -1.6042 -0.5568
 5850TIP3   OH217555   4.536   5.385   1.913  0.0286  0.4527 -0.2274
 5850TIP3    H117556   4.478   5.420   1.845 -1.8433  0.4989  1.2857
 5850TIP3    H217557   4.513   5.293   1.920  2.4959 -0.3696 -1.7994
 5851TIP3   OH217558   4.711   4.991   1.417 -0.3537  0.5967 -0.0833
 5851TIP3    H117559   4.758   5.006   1.335 -0.6223  0.0328 -0.3450
 5851TIP3    H217560   4.773   5.017   1.485  0.5076 -0.5223 -0.4095
 5852TIP3   OH217561   3.984   3.946   5.148 -0.0954 -0.2944 -0.3724
 5852TIP3    H117562   3.905   3.919   5.100  0.0169  0.9394 -1.2916
 5852TIP3    H217563   3.958   3.945   5.240 -0.4385 -2.3218 -0.4424
 5853TIP3   OH217564   0.107   4.325   2.808 -0.5048  0.4839  0.7044
 5853TIP3    H117565   0.075   4.345   2.896 -0.1731 -0.5957  1.0882
 5853TIP3    H217566   0.178   4.387   2.793  0.4627 -0.3271  1.8292
 5854TIP3   OH217567   3.408   1.218   0.331  0.2172  0.5846  0.1796
 5854TIP3    H117568   3.359   1.272   0.393 -2.7834  1.2889 -2.5254
 5854TIP3    H217569   3.453   1.281   0.275 -0.6106  0.2057 -0.9526
 5855TIP3   OH217570   2.158   3.446   1.979 -0.4250 -0.2640  0.1070
 5855TIP3    H117571   2.137   3.505   1.907 -0.9618 -1.1329 -0.4652
 5855TIP3    H217572   2.249   3.467   2.001 -0.5950  0.7441 -0.0946
 5856TIP3   OH217573   3.534   4.733   0.945  0.2927  0.5358 -0.5256
 5856TIP3    H117574   3.558   4.786   0.869  2.1538  1.3368  0.5494
 5856TIP3    H217575   3.541   4.642   0.914  0.2867  0.8541 -1.5040
 5857TIP3   OH217576   2.007   1.085   4.827 -0.6269 -0.3889 -0.3892
 5857TIP3    H117577   1.931   1.046   4.871 -2.0271  2.6195  0.1542
 5857TIP3    H217578   1.969   1.127   4.749  0.4067  1.4118  0.0440
 5858TIP3   OH217579   3.109   0.648   2.659  0.3165 -0.2375  0.2908
 5858TIP3    H117580   3.113   0.594   2.738 -1.7980  0.8343  1.2371
 5858TIP3    H217581   3.051   0.600   2.600  0.3762 -0.1456  0.1568
 5859TIP3   OH217582   6.314   4.926   2.136 -0.8135  0.3194  0.2250
 5859TIP3    H117583   6.306   5.014   2.173  1.5334  0.3013  0.9577
 5859TIP3    H217584   6.329   4.869   2.212  0.4759 -0.2686 -0.4309
 5860TIP3   OH217585   1.065   3.386   2.585  0.5457  0.6925 -0.9062
 5860TIP3    H117586   1.045   3.313   2.526  0.3714  0.0460 -0.0665
 5860TIP3    H217587   1.150   3.418   2.556  1.1285 -0.5437 -0.6250
 5861TIP3   OH217588   4.791   1.858   4.040  0.9414 -0.0298  0.1310
 5861TIP3    H117589   4.802   1.798   4.114 -0.8304 -0.4629  0.0828
 5861TIP3    H217590   4.801   1.945   4.079 -1.3659 -0.1858  1.2328
 5862TIP3   OH217591   3.824   2.097   2.404  0.2307  0.4200 -0.1891
 5862TIP3    H117592   3.833   2.063   2.315 -1.8982  0.0741 -0.3444
 5862TIP3    H217593   3.851   2.024   2.460  0.4919  0.2340 -0.5540
 5863TIP3   OH217594   4.361   0.153   3.220 -0.1261  0.5942 -0.1599
 5863TIP3    H117595   4.317   0.235   3.198 -0.1255  0.2295 -1.6405
 5863TIP3    H217596   4.447   0.161   3.179  0.0392  0.0417  0.0794
 5864TIP3   OH217597   4.775   1.929   2.680 -0.3087 -0.2352  0.6013
 5864TIP3    H117598   4.787   1.846   2.633 -0.4346  0.4034 -0.6002
 5864TIP3    H217599   4.821   1.917   2.763 -0.3900 -1.5328  0.4729
 5865TIP3   OH217600   4.826   5.348   5.112 -0.2404  0.7640  0.7200
 5865TIP3    H117601   4.767   5.406   5.161 -1.5823  1.1139 -1.1538
 5865TIP3    H217602   4.868   5.406   5.048 -0.1749 -0.0131  0.0420
 5866TIP3   OH217603   2.673   0.369   3.362 -0.0678  0.7308  0.1481
 5866TIP3    H117604   2.638   0.390   3.275 -0.1066 -0.7704 -0.2277
 5866TIP3    H217605   2.768   0.376   3.352 -0.1149  1.9725  0.3951
 5867TIP3   OH217606   3.386   3.639   0.252 -0.1691  0.3648  0.0377
 5867TIP3    H117607   3.450   3.693   0.205  0.5091 -0.8914 -0.5302
 5867TIP3    H217608   3.302   3.681   0.234  0.2414  0.7366 -1.1207
 5868TIP3   OH217609   3.116   0.553   0.525 -0.0338 -0.0097 -0.0325
 5868TIP3    H117610   3.028   0.580   0.502  0.2199  0.7024 -0.1819
 5868TIP3    H217611   3.146   0.618   0.588  0.1632 -0.5934  0.4867
 5869TIP3   OH217612   5.837   5.098   5.001  0.6179 -0.1357 -0.0158
 5869TIP3    H117613   5.826   5.095   4.906 -0.6630 -1.3346  0.1413
 5869TIP3    H217614   5.750   5.079   5.036  1.1340 -0.0175  1.4016
 5870TIP3   OH217615   4.883   4.763  -0.019 -0.6587 -0.6030 -0.3724
 5870TIP3    H117616   4.898   4.836   0.041  0.3026  0.8699 -2.3223
 5870TIP3    H217617   4.817   4.710   0.025 -0.7925  0.9802  1.4759
 5871TIP3   OH217618   3.574   5.506   4.927  0.2777 -0.1616 -0.1825
 5871TIP3    H117619   3.622   5.546   4.855 -0.8786  1.1300 -0.2875
 5871TIP3    H217620   3.637   5.502   4.999  0.8196  0.6005 -0.6002
 5872TIP3   OH217621   0.304   2.007   1.756 -0.2384  0.3406  0.3463
 5872TIP3    H117622   0.328   2.070   1.687 -1.4478  1.6164  1.0338
 5872TIP3    H217623   0.310   1.922   1.713  1.3315  0.9016 -0.6586
 5873TIP3   OH217624   2.801   5.793   3.005  0.3900 -0.7182 -0.3857
 5873TIP3    H117625   2.888   5.791   2.965 -0.0689 -1.4916 -1.3946
 5873TIP3    H217626   2.787   5.704   3.038  0.7303 -0.1127  1.4972
 5874TIP3   OH217627   0.587   2.568   3.899  0.0517 -0.6730 -0.3293
 5874TIP3    H117628   0.588   2.562   3.995  0.6357 -0.0799 -0.2843
 5874TIP3    H217629   0.519   2.632   3.880 -0.4077 -1.1639 -0.3393
 5875TIP3   OH217630   5.705   5.358   2.010 -0.6980  0.0499  0.1851
 5875TIP3    H117631   5.750   5.422   2.064 -0.4351 -0.5244  0.6524
 5875TIP3    H217632   5.743   5.369   1.922  0.5727 -0.6208  0.6295
 5876TIP3   OH217633   4.169   3.958   4.963  0.2067  0.0094 -0.7584
 5876TIP3    H117634   4.198   3.868   4.951 -0.6438 -0.2953 -0.6008
 5876TIP3    H217635   4.094   3.952   5.023 -1.1604  0.5944 -2.3214
 5877TIP3   OH217636   3.369   2.419   0.611 -0.3506  0.1694  0.3609
 5877TIP3    H117637   3.314   2.493   0.638 -0.0172  0.2141  0.9475
 5877TIP3    H217638   3.451   2.431   0.661  0.6563  0.7537 -1.3442
 5878TIP3   OH217639   4.451   2.131   2.777  0.6354 -0.6388  0.5511
 5878TIP3    H117640   4.474   2.086   2.858 -0.6377  0.7291  1.7337
 5878TIP3    H217641   4.420   2.217   2.806 -1.1176 -0.5852 -1.2809
 5879TIP3   OH217642   3.416   3.058   0.192 -0.2747 -0.0376  0.3777
 5879TIP3    H117643   3.388   3.001   0.120  0.1557  0.4449 -0.1826
 5879TIP3    H217644   3.371   3.141   0.176 -1.0090 -0.2531  1.2685
 5880TIP3   OH217645   4.204   5.464   2.060  0.0027 -0.1546 -0.4523
 5880TIP3    H117646   4.272   5.401   2.082 -0.5067 -0.7671 -0.6152
 5880TIP3    H217647   4.127   5.434   2.107 -0.2657  0.3007 -0.5988
 5881TIP3   OH217648   4.547   2.721   2.589 -0.4092 -0.1014  0.2528
 5881TIP3    H117649   4.636   2.757   2.585 -0.8546  0.9389 -3.0794
 5881TIP3    H217650   4.526   2.699   2.499 -3.4010 -0.7907  1.0061
 5882TIP3   OH217651   5.026   0.133   4.737 -0.0640 -0.6348 -0.4770
 5882TIP3    H117652   5.041   0.041   4.759  0.0110 -0.7241 -0.8919
 5882TIP3    H217653   5.100   0.156   4.681  0.7981  0.1364  0.8941
 5883TIP3   OH217654   6.209   3.592   2.594 -0.0806  0.3079 -0.7387
 5883TIP3    H117655   6.273   3.660   2.617 -1.2760  0.7816  1.4796
 5883TIP3    H217656   6.232   3.518   2.650 -0.1024 -0.3657 -1.5953
 5884TIP3   OH217657   2.022   5.738   2.363 -0.7269  0.5343 -0.3442
 5884TIP3    H117658   2.099   5.697   2.323 -0.7653  0.7581 -0.6503
 5884TIP3    H217659   1.976   5.778   2.290 -1.1693  0.3495 -0.1682
 5885TIP3   OH217660   1.734   5.415   3.339  1.0329 -0.9725  0.1420
 5885TIP3    H117661   1.827   5.438   3.335  0.7702  0.0663 -0.2348
 5885TIP3    H217662   1.699   5.441   3.254  0.2788 -0.7875  0.4997
 5886TIP3   OH217663   5.362   1.801   3.776 -0.2958  0.1073  0.0983
 5886TIP3    H117664   5.308   1.745   3.831  0.7402 -0.4053  0.6340
 5886TIP3    H217665   5.375   1.880   3.827  0.1712 -0.1280  0.3564
 5887TIP3   OH217666   1.444   0.905   0.862  0.1896  0.7194 -0.1749
 5887TIP3    H117667   1.394   0.883   0.940 -0.1177  1.6840 -0.0830
 5887TIP3    H217668   1.532   0.873   0.880  0.5949  2.5353  1.3699
 5888TIP3   OH217669   5.108   4.129   0.055  0.1333  0.0005 -0.5615
 5888TIP3    H117670   5.033   4.071   0.040 -0.2445 -0.0813  1.4039
 5888TIP3    H217671   5.177   4.071   0.088 -0.0510  0.5406  0.8337
 5889TIP3   OH217672   1.819   0.666   1.731 -0.4859  0.1540 -0.5573
 5889TIP3    H117673   1.850   0.691   1.818 -0.6342 -1.1447 -0.1122
 5889TIP3    H217674   1.752   0.732   1.710 -2.0279 -0.7329  1.2699
 5890TIP3   OH217675   0.295   5.412   2.914  0.0778 -0.8638 -0.4659
 5890TIP3    H117676   0.263   5.332   2.956 -1.0763 -0.1947 -0.0510
 5890TIP3    H217677   0.336   5.462   2.984 -0.5107 -0.4282 -0.4295
 5891TIP3   OH217678   3.455   0.626   0.081 -0.2411 -0.8447  0.0813
 5891TIP3    H117679   3.449   0.664   0.169  1.8637  0.1630 -0.1440
 5891TIP3    H217680   3.517   0.553   0.091  0.5320 -0.3094 -0.6533
 5892TIP3   OH217681   4.088   5.718   3.407 -0.0781  0.2998  0.4940
 5892TIP3    H117682   4.169   5.691   3.364  0.0202  1.8932 -0.4242
 5892TIP3    H217683   4.113   5.734   3.498  0.8880  1.5926  0.0433
 5893TIP3   OH217684   5.759   5.733   1.284  0.3556  0.3156  0.2738
 5893TIP3    H117685   5.744   5.824   1.259 -0.7089  0.2569  0.6115
 5893TIP3    H217686   5.699   5.719   1.357 -2.4572 -1.7592 -2.2009
 5894TIP3   OH217687   2.258   5.812   3.994 -0.0785  0.0096  0.0697
 5894TIP3    H117688   2.208   5.876   3.943 -0.9807 -0.5116  0.2855
 5894TIP3    H217689   2.286   5.746   3.930 -0.8199 -0.4032  0.1635
 5895TIP3   OH217690   4.354   4.760   1.997  0.5484 -0.3900 -0.0979
 5895TIP3    H117691   4.280   4.714   1.957 -0.4661  1.4778 -0.4881
 5895TIP3    H217692   4.313   4.818   2.062  1.5906  1.0882 -0.7133
 5896TIP3   OH217693   1.736   3.745   1.597 -0.6302  0.3758  0.7067
 5896TIP3    H117694   1.698   3.788   1.521  2.5699  0.2325 -1.1672
 5896TIP3    H217695   1.683   3.775   1.671 -2.0544  2.9117 -1.1815
 5897TIP3   OH217696   3.670   4.473   1.617 -0.5170 -0.1941 -0.1597
 5897TIP3    H117697   3.739   4.451   1.679 -0.4963  1.4330  0.4400
 5897TIP3    H217698   3.702   4.552   1.572 -2.0072  0.6582  0.2082
 5898TIP3   OH217699   4.659   4.044   1.098  0.0918 -0.3624  0.9909
 5898TIP3    H117700   4.694   4.000   1.176 -0.5186 -0.3123  1.3025
 5898TIP3    H217701   4.596   4.108   1.133 -0.9816 -1.0623  0.4180
 5899TIP3   OH217702   1.587   3.650   4.613 -0.2408  0.1736  0.1613
 5899TIP3    H117703   1.621   3.658   4.524 -0.8658 -0.8613 -0.2017
 5899TIP3    H217704   1.564   3.739   4.639  3.9566  1.2302  1.0153
 5900TIP3   OH217705   2.775   1.009   2.806 -0.1145 -0.3451 -0.1247
 5900TIP3    H117706   2.867   1.008   2.835 -0.6962 -1.4205  1.9009
 5900TIP3    H217707   2.734   0.938   2.855 -2.1556  0.4616 -0.5631
 5901TIP3   OH217708   1.085   0.404   4.720  0.4119  0.2572 -0.6891
 5901TIP3    H117709   1.080   0.458   4.798 -0.4814  0.6858 -1.0323
 5901TIP3    H217710   1.094   0.314   4.753  0.3440  0.4587 -0.1120
 5902TIP3   OH217711   3.168   5.899   2.383  0.6898 -0.1894  0.5610
 5902TIP3    H117712   3.093   5.866   2.433  1.3117 -2.5173  0.0736
 5902TIP3    H217713   3.130   5.958   2.318 -0.5862 -0.5011  0.9922
 5903TIP3   OH217714   5.039   0.886   3.702  0.0067  0.5554 -0.2703
 5903TIP3    H117715   4.968   0.847   3.651  0.3290 -0.2126 -0.1497
 5903TIP3    H217716   5.065   0.963   3.652 -1.3471  1.2245  0.0243
 5904TIP3   OH217717   5.902   2.858   1.968 -0.7127 -0.6480  0.1334
 5904TIP3    H117718   5.819   2.871   1.922 -0.3638 -1.4464 -0.7662
 5904TIP3    H217719   5.952   2.937   1.951 -0.7538 -0.7558 -0.5316
 5905TIP3   OH217720   5.521   0.986   2.219  0.2518  0.4289  0.4600
 5905TIP3    H117721   5.451   0.946   2.270  2.0072 -1.5475  1.4451
 5905TIP3    H217722   5.503   0.959   2.129 -0.0787 -0.3234  0.7412
 5906TIP3   OH217723   4.484   3.754   0.292  0.3268 -0.1418 -0.6411
 5906TIP3    H117724   4.412   3.694   0.312 -0.4653  0.7478 -0.7142
 5906TIP3    H217725   4.494   3.807   0.371  2.4927 -1.7560  0.2541
 5907TIP3   OH217726   0.734   3.898   3.457  0.1081 -0.1957  0.5266
 5907TIP3    H117727   0.820   3.913   3.418  0.0415 -0.3943  0.3016
 5907TIP3    H217728   0.743   3.928   3.547  0.3943 -0.1550  0.4845
 5908TIP3   OH217729   3.501   4.004   4.072 -0.2648  0.0959 -0.1187
 5908TIP3    H117730   3.572   3.956   4.115 -0.4473 -0.9640 -0.9417
 5908TIP3    H217731   3.423   3.978   4.120 -0.3589 -0.4123 -0.5404
 5909TIP3   OH217732   0.132   5.919   3.744  0.0659  0.5138  0.0172
 5909TIP3    H117733   0.108   6.006   3.777  1.3985  0.3624  1.5164
 5909TIP3    H217734   0.101   5.859   3.811  1.2708  0.0448  0.1825
 5910TIP3   OH217735   4.864   0.595   1.371  0.2666 -0.2760 -0.1722
 5910TIP3    H117736   4.920   0.668   1.344  0.4217 -0.2193  0.2834
 5910TIP3    H217737   4.777   0.620   1.342  0.3183  0.0936 -0.0183
 5911TIP3   OH217738   5.325   4.894   3.833  0.4311  0.2856 -0.3276
 5911TIP3    H117739   5.399   4.913   3.891  0.4835  0.3847 -0.4284
 5911TIP3    H217740   5.351   4.816   3.785  0.1144 -0.2081  0.2718
 5912TIP3   OH217741   3.644   4.766   2.868 -0.5355  0.6975 -0.1724
 5912TIP3    H117742   3.639   4.691   2.927  0.9204  0.2307 -0.5827
 5912TIP3    H217743   3.599   4.737   2.789  0.1679  0.1750 -0.3921
 5913TIP3   OH217744   5.176   3.122   4.190 -0.0023 -0.5906 -0.2481
 5913TIP3    H117745   5.204   3.031   4.190  1.1789 -0.2606 -1.3300
 5913TIP3    H217746   5.224   3.162   4.263 -0.4059 -0.7966  0.1315
 5914TIP3   OH217747   0.580   1.822   3.028  0.4806 -0.3078 -0.0326
 5914TIP3    H117748   0.629   1.761   2.972 -0.5930 -0.0521 -1.3077
 5914TIP3    H217749   0.497   1.778   3.044 -0.4292  0.8974 -1.2211
 5915TIP3   OH217750   2.491   5.422   4.847  0.1514 -0.7237  0.0606
 5915TIP3    H117751   2.558   5.388   4.788  1.9458  1.8401  0.4484
 5915TIP3    H217752   2.516   5.390   4.933  2.0842  1.6542  0.4922
 5916TIP3   OH217753   5.920   2.040   4.799 -0.0180  0.4262  0.1985
 5916TIP3    H117754   5.978   2.020   4.726 -0.4279 -0.7193  0.1662
 5916TIP3    H217755   5.876   2.122   4.774  1.6297  1.3711  0.2755
 5917TIP3   OH217756   3.651   1.022   1.878 -0.0243 -0.6145 -0.1096
 5917TIP3    H117757   3.697   1.052   1.800 -0.1018 -1.3530 -0.4456
 5917TIP3    H217758   3.631   1.102   1.926 -0.1559 -0.1335 -0.9486
 5918TIP3   OH217759   2.887   4.000   4.475 -0.1929  0.9594 -0.0015
 5918TIP3    H117760   2.843   4.084   4.467 -0.9699  0.4726 -0.9742
 5918TIP3    H217761   2.975   4.022   4.507 -0.9998  1.9638  1.6450
 5919TIP3   OH217762   1.176   1.911   1.137 -0.2377  0.0960  0.5062
 5919TIP3    H117763   1.212   1.980   1.081  2.4014 -1.1876  0.4176
 5919TIP3    H217764   1.085   1.902   1.109  0.4397  0.8405 -2.2730
 5920TIP3   OH217765   4.466   4.085   4.712  0.0958  0.0060 -0.5885
 5920TIP3    H117766   4.499   4.140   4.783 -2.1067 -0.0236  0.5445
 5920TIP3    H217767   4.445   4.002   4.754  0.4715 -0.6492 -1.6577
 5921TIP3   OH217768   0.225   1.583   3.313 -0.3231  0.0384 -0.5613
 5921TIP3    H117769   0.189   1.660   3.270  2.0062  1.0765 -0.8050
 5921TIP3    H217770   0.297   1.616   3.365 -0.9434 -1.6621  1.5170
 5922TIP3   OH217771   0.089   0.732   0.566  0.4926 -0.6378 -0.1343
 5922TIP3    H117772   0.046   0.760   0.647  0.2451 -0.9686 -0.1503
 5922TIP3    H217773   0.179   0.714   0.592  0.3466 -1.0120  0.1285
 5923TIP3   OH217774   5.213   2.984   2.988  0.2495  0.0763  0.0818
 5923TIP3    H117775   5.233   3.039   2.913  2.4181 -0.0206  0.5255
 5923TIP3    H217776   5.211   2.895   2.953 -3.5869  0.2916 -0.7006
 5924TIP3   OH217777   4.997   4.049   1.585 -0.2993  0.4182  0.2915
 5924TIP3    H117778   4.933   4.068   1.654  0.5155 -1.3892  1.6254
 5924TIP3    H217779   4.974   4.109   1.514 -3.1758  0.1451  0.8768
 5925TIP3   OH217780   1.767   2.025   4.871 -0.2308  0.2748  0.6489
 5925TIP3    H117781   1.706   2.096   4.895 -0.7297  0.1330 -0.1620
 5925TIP3    H217782   1.734   1.993   4.787  2.0087  1.3927 -0.7557
 5926TIP3   OH217783   0.108   3.237   3.533 -0.2225 -0.3244 -0.2305
 5926TIP3    H117784   0.082   3.163   3.478  1.5742  0.4717 -2.2428
 5926TIP3    H217785   0.025   3.275   3.562 -1.1911 -2.2080 -0.3658
 5927TIP3   OH217786   5.751   2.634   0.787  0.1545 -0.2441 -0.0708
 5927TIP3    H117787   5.785   2.673   0.706  1.2549  2.2339  1.4378
 5927TIP3    H217788   5.658   2.622   0.771  0.3783  0.0401 -1.7582
 5928TIP3   OH217789   4.903   5.017   1.613 -0.0843  0.1587  0.8558
 5928TIP3    H117790   4.996   5.040   1.609  0.1242 -0.8156 -0.9979
 5928TIP3    H217791   4.893   4.972   1.697  0.6553  2.0131  2.0002
 5929TIP3   OH217792   0.378   5.609   1.132  0.2519  0.0215  0.1368
 5929TIP3    H117793   0.397   5.695   1.170  2.8172 -0.1027 -0.6557
 5929TIP3    H217794   0.336   5.628   1.048  1.7209  0.5844 -0.5028
 5930TIP3   OH217795   1.720   2.395   4.767 -0.0809  0.3193 -0.0008
 5930TIP3    H117796   1.625   2.402   4.753 -0.7049 -3.0433  1.4318
 5930TIP3    H217797   1.748   2.326   4.707  1.1286  0.1301  0.7567
 5931TIP3   OH217798   3.329   2.829   4.345 -0.7600  0.3735  0.3525
 5931TIP3    H117799   3.241   2.829   4.309 -1.4378  1.3897  1.8588
 5931TIP3    H217800   3.357   2.921   4.338 -0.0633  0.1687  0.4062
 5932TIP3   OH217801   0.694   4.775   1.744 -0.3505 -0.3924  0.1845
 5932TIP3    H117802   0.695   4.788   1.649  1.5406  0.8308  0.3179
 5932TIP3    H217803   0.678   4.862   1.781  0.1147 -0.6384  0.9980
 5933TIP3   OH217804   3.102   0.009   1.818  0.5462 -0.0260 -0.4065
 5933TIP3    H117805   3.144   0.059   1.888  1.8181  0.1439 -1.2543
 5933TIP3    H217806   3.037  -0.046   1.863  1.4210 -0.0239  0.9111
 5934TIP3   OH217807   1.668   4.591   1.950 -0.0498 -0.0780  0.1476
 5934TIP3    H117808   1.618   4.637   1.882 -0.6991  1.0283  1.3165
 5934TIP3    H217809   1.740   4.650   1.971 -0.2698 -0.0742  0.9152
 5935TIP3   OH217810   3.621   5.216   2.593 -0.0231  0.2928  0.0937
 5935TIP3    H117811   3.699   5.226   2.647  1.1943 -0.1618 -1.5261
 5935TIP3    H217812   3.570   5.148   2.637  0.9317 -0.0595  0.6929
 5936TIP3   OH217813   6.212   5.399   0.378  0.1912 -0.5735  0.0125
 5936TIP3    H117814   6.172   5.315   0.401 -1.5408  0.0166 -0.6125
 5936TIP3    H217815   6.229   5.441   0.463  0.1736 -1.1631  0.3128
 5937TIP3   OH217816   4.559   2.882   4.239 -0.5454  0.0266 -0.5308
 5937TIP3    H117817   4.473   2.923   4.234 -0.3271  0.8373  1.3964
 5937TIP3    H217818   4.562   2.843   4.326  1.8323  1.9536  0.3671
 5938TIP3   OH217819   6.282   1.352   4.407 -0.0857 -0.1940 -0.2416
 5938TIP3    H117820   6.370   1.374   4.375 -0.6689 -0.7078 -2.3715
 5938TIP3    H217821   6.285   1.370   4.501  1.6744  1.7660 -0.5973
 5939TIP3   OH217822   0.544   2.465   5.134  0.0340  0.6295 -0.3214
 5939TIP3    H117823   0.462   2.500   5.100 -2.3003 -2.8030  1.2374
 5939TIP3    H217824   0.559   2.513   5.215  0.0189  1.7452 -0.9508
 5940TIP3   OH217825   4.241   4.653   1.042  0.4307  0.7330  0.2264
 5940TIP3    H117826   4.180   4.720   1.073 -1.1349 -0.1884 -0.7347
 5940TIP3    H217827   4.302   4.641   1.114  0.2759  2.6136  0.7294
 5941TIP3   OH217828   3.532   0.486   5.165  0.1464  0.2670  1.0321
 5941TIP3    H117829   3.540   0.531   5.080 -0.5401 -1.0658  0.2339
 5941TIP3    H217830   3.618   0.497   5.205  0.6504  0.4833 -0.0633
 5942TIP3   OH217831   2.697   2.545   1.773  0.3922  0.1867 -0.6086
 5942TIP3    H117832   2.609   2.510   1.786  0.3171  1.0417  1.7727
 5942TIP3    H217833   2.690   2.637   1.800  1.8846  0.4187 -0.9452
 5943TIP3   OH217834   4.113   4.355   0.028  0.1876 -0.6508  0.4174
 5943TIP3    H117835   4.112   4.402  -0.055 -0.7054 -1.9317 -0.3359
 5943TIP3    H217836   4.033   4.384   0.072 -0.0693 -1.0316  0.2036
 5944TIP3   OH217837   2.217   0.985   2.302  0.0610 -0.8020 -0.6379
 5944TIP3    H117838   2.271   1.032   2.238  0.0318 -2.3465 -1.8412
 5944TIP3    H217839   2.273   0.912   2.331 -0.7180 -1.3718 -0.5464
 5945TIP3   OH217840   4.973   5.858   3.448  0.0616  0.2982  0.2778
 5945TIP3    H117841   5.058   5.815   3.436 -0.0750 -0.3353  1.4169
 5945TIP3    H217842   4.930   5.851   3.363  1.2740  0.9295 -0.4169
 5946TIP3   OH217843   5.802   4.423   0.201 -0.4045  0.3267 -0.4043
 5946TIP3    H117844   5.895   4.425   0.178  0.0322 -0.8591  1.0376
 5946TIP3    H217845   5.757   4.463   0.127  1.1426 -0.3512 -1.7640
 5947TIP3   OH217846   1.099   3.259   1.127 -0.0119 -0.1769 -0.1910
 5947TIP3    H117847   1.101   3.250   1.032  0.2400  0.8912 -0.2953
 5947TIP3    H217848   1.190   3.246   1.154 -0.0840 -0.4825 -0.0914
 5948TIP3   OH217849   0.257   3.693   4.795 -0.5985 -0.2114  0.0180
 5948TIP3    H117850   0.251   3.627   4.863 -0.8659 -0.9323 -0.6829
 5948TIP3    H217851   0.175   3.743   4.802 -0.3206  0.1580  0.6576
 5949TIP3   OH217852   5.366   3.504   2.522 -0.4375  0.1042 -0.6235
 5949TIP3    H117853   5.321   3.581   2.557 -1.2276 -0.6504  0.0366
 5949TIP3    H217854   5.413   3.467   2.597  1.8780  1.2338 -1.4128
 5950TIP3   OH217855   5.495   5.623   3.961 -0.0681  0.1762 -0.5246
 5950TIP3    H117856   5.448   5.647   3.881  0.1728  0.1493 -0.6777
 5950TIP3    H217857   5.552   5.698   3.978 -1.3729  0.9356  0.6050
 5951TIP3   OH217858   1.249   2.813   3.264  0.2373  0.7064  0.1239
 5951TIP3    H117859   1.280   2.722   3.263  0.4321  0.7786 -1.2196
 5951TIP3    H217860   1.327   2.865   3.245  0.3086  1.2400  1.7375
 5952TIP3   OH217861   0.594   4.440   1.777 -0.1341 -0.1274 -0.5701
 5952TIP3    H117862   0.579   4.490   1.697 -0.4934 -1.9121 -1.6842
 5952TIP3    H217863   0.512   4.391   1.789  0.2974 -0.6432  0.3207
 5953TIP3   OH217864   1.183   5.361   1.884 -0.3292 -0.4424 -0.0846
 5953TIP3    H117865   1.263   5.314   1.859  1.1478  0.2444  2.8973
 5953TIP3    H217866   1.196   5.449   1.848 -0.1193 -0.5512 -0.2822
 5954TIP3   OH217867   0.215   1.052   4.192 -0.2926 -0.3119 -0.6664
 5954TIP3    H117868   0.201   1.136   4.149  1.7445  0.5634  0.2308
 5954TIP3    H217869   0.244   0.994   4.122  3.4391  1.2180 -0.6288
 5955TIP3   OH217870   0.923   0.475   0.783  0.1175 -0.4296 -0.5469
 5955TIP3    H117871   1.017   0.469   0.798  0.0734  0.4526  0.1748
 5955TIP3    H217872   0.914   0.539   0.712  0.0977 -1.0781 -1.1299
 5956TIP3   OH217873   0.323   1.700   3.019 -0.2145  0.2728  0.8510
 5956TIP3    H117874   0.341   1.621   3.069 -3.5637 -0.5963  0.9052
 5956TIP3    H217875   0.287   1.668   2.936  0.2347  1.7557  0.0473
 5957TIP3   OH217876   4.505   0.717   3.554  0.0762  0.6960 -0.0024
 5957TIP3    H117877   4.420   0.708   3.598 -0.5744  1.8611 -0.9883
 5957TIP3    H217878   4.486   0.697   3.462  1.4746 -1.9920  0.1938
 5958TIP3   OH217879   4.427   5.527   3.333  0.2491  0.3327  0.0370
 5958TIP3    H117880   4.422   5.552   3.425 -0.6247 -0.6108  0.2606
 5958TIP3    H217881   4.368   5.452   3.325  1.3157 -0.4279 -1.0136
 5959TIP3   OH217882   4.695   5.440   2.805  0.0123 -0.6159 -0.8432
 5959TIP3    H117883   4.698   5.524   2.760 -1.5095 -0.7660 -1.2780
 5959TIP3    H217884   4.682   5.463   2.897  1.5709 -0.3582 -0.6476
 5960TIP3   OH217885   5.424   0.681   3.946 -0.1342  0.1153 -0.1136
 5960TIP3    H117886   5.336   0.671   3.909  0.1657  1.2681 -1.1943
 5960TIP3    H217887   5.421   0.765   3.991  0.4114  0.1449 -0.1321
 5961TIP3   OH217888   5.471   0.289   1.024  0.3258 -0.5974 -0.8077
 5961TIP3    H117889   5.382   0.312   1.050 -0.2914 -1.0908 -2.3468
 5961TIP3    H217890   5.512   0.256   1.104 -0.1647  1.6156  0.4275
 5962TIP3   OH217891   3.909   5.061   0.690 -0.6541 -0.0885 -0.5252
 5962TIP3    H117892   3.911   5.031   0.781  0.3979 -0.6681 -0.7186
 5962TIP3    H217893   3.874   4.986   0.641 -0.4052 -0.0915 -0.7009
 5963TIP3   OH217894   5.424   5.690   1.240  0.1388 -0.3538 -0.0446
 5963TIP3    H117895   5.336   5.726   1.240 -0.3260 -1.4617  0.4267
 5963TIP3    H217896   5.432   5.646   1.155 -0.1010 -1.0453  0.2872
 5964TIP3   OH217897   1.802   4.695   0.067 -0.0170  0.2694 -0.0439
 5964TIP3    H117898   1.844   4.747  -0.001  0.5277 -1.4735 -1.0748
 5964TIP3    H217899   1.823   4.741   0.149  1.9697  0.6769 -0.7462
 5965TIP3   OH217900   5.031   3.616   5.008  0.0975 -0.2024 -0.9155
 5965TIP3    H117901   4.994   3.558   5.075 -1.2727 -0.2225 -1.6496
 5965TIP3    H217902   5.099   3.665   5.054  0.3864 -1.4387  0.0524
 5966TIP3   OH217903   2.924   3.958   3.062 -0.3769 -0.1649 -0.2012
 5966TIP3    H117904   2.953   4.032   3.010 -0.0898 -1.6427 -2.2665
 5966TIP3    H217905   2.828   3.962   3.060 -0.3622  0.0736 -0.3832
 5967TIP3   OH217906   4.613   1.124   3.530  0.2417  0.1875 -0.7296
 5967TIP3    H117907   4.550   1.055   3.548  0.1136 -0.1227 -2.2289
 5967TIP3    H217908   4.656   1.097   3.448  1.4440  1.0022 -0.4057
 5968TIP3   OH217909   5.182   2.057   4.190  0.1337 -0.8307  0.3394
 5968TIP3    H117910   5.270   2.044   4.226  0.1366  0.5744  0.9153
 5968TIP3    H217911   5.144   1.969   4.187  1.6478 -1.4970 -0.1862
 5969TIP3   OH217912   5.087   1.356   1.405  0.3318 -0.2472  0.1649
 5969TIP3    H117913   5.126   1.273   1.433  1.3340  0.5191  1.1236
 5969TIP3    H217914   5.142   1.423   1.445 -0.0641  0.8966 -1.1216
 5970TIP3   OH217915   1.700   3.723   2.739 -0.2445 -0.8027 -0.0472
 5970TIP3    H117916   1.638   3.712   2.811 -0.7830  1.0325 -0.1962
 5970TIP3    H217917   1.689   3.813   2.711 -0.5682 -1.6460 -2.9314
 5971TIP3   OH217918   3.646   4.769   0.407  0.4071 -0.5295 -0.4437
 5971TIP3    H117919   3.619   4.847   0.360 -0.7341  0.1118  1.1673
 5971TIP3    H217920   3.730   4.793   0.447  0.4125 -0.3739 -0.5501
 5972TIP3   OH217921   2.433   2.366   0.335 -0.2130 -0.1875 -0.2538
 5972TIP3    H117922   2.473   2.303   0.395  2.1484  1.1105 -0.3392
 5972TIP3    H217923   2.412   2.441   0.390 -0.9602 -0.1783 -0.5400
 5973TIP3   OH217924   1.660   4.433   3.855  0.4982 -0.1345 -0.4002
 5973TIP3    H117925   1.575   4.474   3.873  0.7646 -0.5079  2.0670
 5973TIP3    H217926   1.638   4.351   3.810 -0.3281  0.4299 -1.0598
 5974TIP3   OH217927   6.079   0.288   4.230  0.2090 -0.7545 -0.0528
 5974TIP3    H117928   6.168   0.279   4.195 -0.2071 -1.2848 -1.0000
 5974TIP3    H217929   6.091   0.288   4.325  1.5866  2.6835 -0.0591
 5975TIP3   OH217930   4.246   4.645   3.648 -0.5461  0.5016  0.3472
 5975TIP3    H117931   4.183   4.613   3.713 -3.6296  0.6508 -2.3041
 5975TIP3    H217932   4.308   4.572   3.636 -1.2116 -0.3530  1.8289
 5976TIP3   OH217933   1.005   1.881   3.679 -0.1886 -0.0407 -0.5235
 5976TIP3    H117934   1.082   1.877   3.622  0.3759  1.5168  0.0633
 5976TIP3    H217935   0.951   1.950   3.641 -1.5709 -1.4598 -1.2122
 5977TIP3   OH217936   2.089   2.696   4.097 -0.2035 -0.7869 -0.2106
 5977TIP3    H117937   2.003   2.704   4.139  0.1011 -1.8982  0.6894
 5977TIP3    H217938   2.148   2.746   4.152 -0.5172  1.5166 -1.8135
 5978TIP3   OH217939   5.780   5.486   3.807  0.2317  0.6018  0.6004
 5978TIP3    H117940   5.713   5.490   3.738 -0.6590  3.6174  1.4648
 5978TIP3    H217941   5.761   5.406   3.856 -1.3534  0.2715 -0.4927
 5979TIP3   OH217942   3.002   3.831   0.924  0.6534  0.8341  0.1338
 5979TIP3    H117943   3.068   3.886   0.966  2.3811 -0.6846 -0.4442
 5979TIP3    H217944   3.004   3.857   0.831  2.0950 -0.6778 -0.3100
 5980TIP3   OH217945   1.431   5.207   1.834 -0.0882 -0.1760 -0.3137
 5980TIP3    H117946   1.508   5.151   1.828  0.1173  0.1193 -0.4200
 5980TIP3    H217947   1.464   5.296   1.825 -0.5153 -0.0784 -1.0453
 5981TIP3   OH217948   3.875   2.266   0.849  0.1081 -0.5009 -0.5603
 5981TIP3    H117949   3.842   2.313   0.773  2.3426  2.7604  0.3026
 5981TIP3    H217950   3.796   2.235   0.894 -1.6544  2.9541 -0.9442
 5982TIP3   OH217951   0.501   4.428   5.168  0.0620 -0.3159 -0.2605
 5982TIP3    H117952   0.573   4.430   5.231  0.1136  0.3532 -0.3315
 5982TIP3    H217953   0.503   4.514   5.127  0.9130 -1.2048 -2.2049
 5983TIP3   OH217954   6.190   4.900   2.972  0.9553 -0.4125 -0.0522
 5983TIP3    H117955   6.206   4.899   2.877  0.0072  0.3899 -0.2256
 5983TIP3    H217956   6.225   4.984   3.001  1.2947 -0.6808  0.3367
 5984TIP3   OH217957   0.615   4.749  -0.016  0.8607  0.9196  0.2060
 5984TIP3    H117958   0.669   4.683  -0.058 -1.7236 -1.2346  0.0661
 5984TIP3    H217959   0.629   4.735   0.078 -0.9786 -1.1046  0.2392
 5985TIP3   OH217960   5.302   3.000   4.912  0.3931  0.3650 -0.6608
 5985TIP3    H117961   5.252   2.922   4.936 -0.7640  1.6070  1.2367
 5985TIP3    H217962   5.236   3.069   4.904  1.5515  1.5163 -0.5916
 5986TIP3   OH217963   0.239   4.665   2.087 -0.1013 -0.2362  0.2734
 5986TIP3    H117964   0.263   4.724   2.159  0.2580 -0.2282  0.1495
 5986TIP3    H217965   0.322   4.646   2.044 -0.2545 -0.6168  0.1460
 5987TIP3   OH217966   3.607   5.095   3.885  0.6200  0.1922 -0.3573
 5987TIP3    H117967   3.569   5.023   3.935  1.6526 -0.8182 -0.9534
 5987TIP3    H217968   3.684   5.056   3.842  1.0630  1.5914 -0.9048
 5988TIP3   OH217969   1.591   0.835   1.683 -0.2708  0.2434  0.6123
 5988TIP3    H117970   1.559   0.915   1.726 -0.6242  0.7791 -0.5949
 5988TIP3    H217971   1.565   0.764   1.741 -0.6566  0.9506  1.3198
 5989TIP3   OH217972   1.051   2.561   1.747  0.2025 -0.1502  0.2989
 5989TIP3    H117973   1.101   2.541   1.668 -0.1632  0.2335 -0.0297
 5989TIP3    H217974   1.001   2.639   1.726 -0.7157 -0.6522  0.5492
 5990TIP3   OH217975   5.024   5.672   1.242 -0.3978  0.5561  0.2741
 5990TIP3    H117976   5.059   5.601   1.188 -2.8105 -0.9813  0.6007
 5990TIP3    H217977   5.078   5.748   1.219  0.7938 -0.8223 -1.8145
 5991TIP3   OH217978   4.994   3.152   0.206  0.3370  0.4625 -0.2257
 5991TIP3    H117979   4.917   3.102   0.234  1.0904 -1.0266 -0.7670
 5991TIP3    H217980   5.006   3.217   0.275 -0.3115 -0.4614  0.7821
 5992TIP3   OH217981   1.637   1.800   0.451 -0.3492 -0.1472  0.1366
 5992TIP3    H117982   1.587   1.817   0.531 -0.0959  1.5407 -0.0330
 5992TIP3    H217983   1.643   1.885   0.408  0.9565 -0.7103 -0.8497
 5993TIP3   OH217984   3.716   0.637   1.592 -0.0467  0.0993 -0.5061
 5993TIP3    H117985   3.748   0.625   1.503 -0.3060 -1.6145 -0.4027
 5993TIP3    H217986   3.661   0.560   1.609  0.9630 -0.2645  1.5245
 5994TIP3   OH217987   4.271   2.333   3.538 -0.0415 -0.2861  0.1186
 5994TIP3    H117988   4.223   2.302   3.615 -2.5147  0.1417 -1.1479
 5994TIP3    H217989   4.232   2.285   3.464  0.5270  1.1198 -1.1443
 5995TIP3   OH217990   3.788   4.314   1.846 -0.0498  0.4174  0.6551
 5995TIP3    H117991   3.877   4.345   1.833  0.0949  0.1193  0.9235
 5995TIP3    H217992   3.778   4.308   1.941  0.8878 -3.0276  0.6734
 5996TIP3   OH217993   1.228   2.833   1.720  0.1261 -0.2561  0.2964
 5996TIP3    H117994   1.249   2.907   1.663 -1.2116  2.7792  3.3402
 5996TIP3    H217995   1.306   2.823   1.775  0.0096 -0.5410  0.4094
 5997TIP3   OH217996   3.741   4.738   1.498 -0.2555  0.2156 -0.4941
 5997TIP3    H117997   3.828   4.771   1.477 -1.0806  1.1495 -2.7333
 5997TIP3    H217998   3.721   4.776   1.584  1.2485  0.5456 -0.2641
 5998TIP3   OH217999   3.392   2.268   3.099  0.2388 -0.0901  0.0866
 5998TIP3    H118000   3.359   2.319   3.025 -0.3378  0.9776  1.0436
 5998TIP3    H218001   3.487   2.278   3.095  0.3254 -1.0431 -1.1775
 5999TIP3   OH218002   3.225   1.867   4.053  0.0591  0.0657 -0.4498
 5999TIP3    H118003   3.262   1.953   4.075  0.5111 -0.0022 -0.9179
 5999TIP3    H218004   3.132   1.883   4.041 -0.1147  0.2109  0.9257
 6000TIP3   OH218005   6.089   0.624   4.693 -0.1680  0.3886 -0.4308
 6000TIP3    H118006   6.105   0.633   4.599  0.1382 -1.3018 -0.5773
 6000TIP3    H218007   6.084   0.714   4.726  1.0898  1.0109 -1.8304
 6001TIP3   OH218008   0.724   2.133   0.592  0.5686  0.5822 -0.4129
 6001TIP3    H118009   0.671   2.112   0.515 -1.2985 -2.9279  1.5878
 6001TIP3    H218010   0.705   2.225   0.610 -3.3714  0.0473 -1.0179
 6002TIP3   OH218011   3.757   3.389   1.136 -0.0434  0.0026 -0.5727
 6002TIP3    H118012   3.703   3.436   1.073 -1.2798 -1.7986 -0.9005
 6002TIP3    H218013   3.835   3.363   1.087 -0.0803  0.3137 -0.8016
 6003TIP3   OH218014   0.734   2.319   3.051 -0.8555 -0.1652 -0.7046
 6003TIP3    H118015   0.721   2.224   3.059  0.1056 -0.1640  1.7200
 6003TIP3    H218016   0.805   2.338   3.111 -2.3160  2.3736  0.3617
 6004TIP3   OH218017   0.053   4.816   0.545 -0.3163  0.5269  0.1273
 6004TIP3    H118018   0.145   4.808   0.518 -0.4403  2.3520 -0.9758
 6004TIP3    H218019   0.008   4.749   0.494  0.5842 -1.6102  1.9766
 6005TIP3   OH218020   5.224   1.656   3.952  0.3067  0.5530  0.2198
 6005TIP3    H118021   5.134   1.632   3.931 -0.4343  2.7393  0.6116
 6005TIP3    H218022   5.220   1.686   4.043  1.1897  1.6880 -0.0928
 6006TIP3   OH218023   3.562   3.076   3.016 -0.2342  0.3971  0.0279
 6006TIP3    H118024   3.564   3.147   3.079 -1.0731  1.7852 -1.4244
 6006TIP3    H218025   3.506   3.108   2.945  0.5897 -1.1045 -1.3860
 6007TIP3   OH218026   1.171   0.403   1.189  0.0557 -0.0797  0.2587
 6007TIP3    H118027   1.082   0.424   1.217  0.3690 -1.6552  2.6939
 6007TIP3    H218028   1.221   0.395   1.270  2.0483 -0.8325 -0.9648
 6008TIP3   OH218029   2.309   1.455   0.249  0.2899 -0.0083 -0.0191
 6008TIP3    H118030   2.312   1.497   0.335 -1.7210  0.4772 -0.1211
 6008TIP3    H218031   2.377   1.497   0.198  0.9711  0.2627  1.0944
 6009TIP3   OH218032   0.139   2.525   4.571 -0.1934 -0.5899 -0.2508
 6009TIP3    H118033   0.192   2.528   4.492  3.1655  1.6076  1.8490
 6009TIP3    H218034   0.176   2.453   4.622  2.4415  2.1867  2.0988
 6010TIP3   OH218035   5.199   1.109   3.624 -0.9807  0.4573  0.2260
 6010TIP3    H118036   5.203   1.127   3.717  2.0743 -0.3393  0.3407
 6010TIP3    H218037   5.231   1.190   3.583  0.4964 -0.1614  0.0857
 6011TIP3   OH218038   4.222   2.347   0.192 -1.1088  0.9097  0.3091
 6011TIP3    H118039   4.216   2.305   0.106 -0.0068 -0.9726  1.0775
 6011TIP3    H218040   4.239   2.275   0.252 -1.2528  2.2575  2.0382
 6012TIP3   OH218041   0.441   1.312   4.470  0.3716 -0.0130  0.5079
 6012TIP3    H118042   0.490   1.393   4.457 -0.1165  0.2144  0.0251
 6012TIP3    H218043   0.372   1.315   4.404 -1.8679  0.8924  2.6922
 6013TIP3   OH218044   4.505   5.579   4.680 -0.2914  0.4413  0.2929
 6013TIP3    H118045   4.516   5.633   4.758 -1.3056  0.8887  0.1456
 6013TIP3    H218046   4.410   5.576   4.667 -0.1234  0.5789 -1.0680
 6014TIP3   OH218047   5.766   0.778   4.548 -0.2608  0.6208  0.9049
 6014TIP3    H118048   5.703   0.728   4.601 -1.0742 -0.5699 -1.0621
 6014TIP3    H218049   5.848   0.729   4.556 -1.5726 -2.8091 -2.9209
 6015TIP3   OH218050   2.861   1.801   0.260 -0.8209  0.3493 -0.1892
 6015TIP3    H118051   2.926   1.868   0.281  0.1789 -0.4593 -0.6567
 6015TIP3    H218052   2.877   1.730   0.321 -1.7882  0.4559  0.2103
 6016TIP3   OH218053   1.500   5.559   0.176  0.7828 -0.2324 -0.1642
 6016TIP3    H118054   1.547   5.559   0.093  0.1053  2.1951 -0.6329
 6016TIP3    H218055   1.460   5.472   0.181  0.8363 -0.4420 -2.3785
 6017TIP3   OH218056   5.047   0.555   4.041  0.2302  0.5574  0.6036
 6017TIP3    H118057   5.120   0.553   3.979  0.6076 -0.8659  1.0500
 6017TIP3    H218058   4.972   0.528   3.989  0.3404  0.3994  0.5260
 6018TIP3   OH218059   2.228   5.104   1.226 -0.6298  0.3842 -0.4638
 6018TIP3    H118060   2.183   5.042   1.283 -0.7226 -0.3325 -1.2950
 6018TIP3    H218061   2.269   5.167   1.286  1.5722 -1.8668  0.5470
 6019TIP3   OH218062   2.738   0.130   0.085 -0.3433  0.3203  0.4223
 6019TIP3    H118063   2.719   0.174   0.002 -2.2921 -0.1658  0.5746
 6019TIP3    H218064   2.814   0.177   0.119 -0.2112  1.2810 -1.0809
 6020TIP3   OH218065   0.086   0.690   3.799 -0.1385 -0.2595 -0.1226
 6020TIP3    H118066   0.162   0.639   3.769  0.0934 -0.7365  1.1939
 6020TIP3    H218067   0.122   0.749   3.865 -0.6899  0.4745 -0.4725
 6021TIP3   OH218068   1.958   1.669   4.754  0.3363 -0.1884 -0.2328
 6021TIP3    H118069   1.908   1.688   4.675 -0.2527  0.9007  0.3716
 6021TIP3    H218070   2.006   1.749   4.772 -2.8079  1.2845  2.8383
 6022TIP3   OH218071   1.289   0.371   1.426 -0.0168  0.2527  0.3059
 6022TIP3    H118072   1.355   0.306   1.401 -0.4030  0.8117 -2.4124
 6022TIP3    H218073   1.313   0.396   1.515  0.5318 -3.0861  1.2232
 6023TIP3   OH218074   3.188   2.968   2.992  0.1112 -0.2349  0.4317
 6023TIP3    H118075   3.150   2.963   3.080  1.0829 -0.7272  0.8311
 6023TIP3    H218076   3.266   2.914   2.996  0.7251  0.5547 -0.4602
 6024TIP3   OH218077   4.904   4.172   2.039 -0.1375 -0.1505 -0.2059
 6024TIP3    H118078   4.852   4.249   2.063 -1.5737 -1.8149  2.5168
 6024TIP3    H218079   4.995   4.199   2.056 -0.3912  1.5485 -1.3022
 6025TIP3   OH218080   1.980   2.623   0.360 -0.5913 -0.5222  0.6090
 6025TIP3    H118081   1.923   2.547   0.371  0.6062 -1.3271  1.4195
 6025TIP3    H218082   2.059   2.589   0.318 -0.2678  0.3731  0.4689
 6026TIP3   OH218083   0.735   3.011   2.174  0.0082  0.4861 -0.0470
 6026TIP3    H118084   0.701   2.994   2.086 -1.9700  0.5186  0.6583
 6026TIP3    H218085   0.773   2.927   2.201  1.6938  0.7768 -1.3090
 6027TIP3   OH218086   3.973   1.777   3.402 -0.3281  0.3567  0.9967
 6027TIP3    H118087   3.886   1.763   3.439  0.3720  1.9387  3.4609
 6027TIP3    H218088   3.960   1.849   3.339 -0.7244  1.0594  1.8550
 6028TIP3   OH218089   1.980   3.425   2.184  0.3579  0.4289  0.2471
 6028TIP3    H118090   2.053   3.438   2.124  1.6322 -2.2438  1.0360
 6028TIP3    H218091   1.916   3.375   2.133  0.7109 -0.3946  0.5945
 6029TIP3   OH218092   5.803   4.770   4.844  0.0650 -0.0120 -0.0565
 6029TIP3    H118093   5.767   4.840   4.789  1.0451  0.7947  0.2866
 6029TIP3    H218094   5.895   4.794   4.856  0.4288 -1.3742  0.0770
 6030TIP3   OH218095   2.615   0.116   2.148  0.0027 -0.2548  0.1882
 6030TIP3    H118096   2.537   0.163   2.117  0.7651 -0.0459 -1.5624
 6030TIP3    H218097   2.587   0.025   2.158 -0.4248 -0.2206 -0.6314
 6031TIP3   OH218098   3.208   5.023   0.081  1.1701  0.2973 -0.1954
 6031TIP3    H118099   3.211   5.094   0.016  3.6069  0.5100  0.0562
 6031TIP3    H218100   3.215   4.944   0.028 -0.3333  0.2664 -0.3903
 6032TIP3   OH218101   3.358   1.290   1.019 -0.2358  0.2599 -0.3865
 6032TIP3    H118102   3.268   1.261   1.034 -0.5099 -0.5103 -3.1210
 6032TIP3    H218103   3.363   1.309   0.926  2.3638  0.6552 -0.2549
 6033TIP3   OH218104   4.223   3.252   3.972 -0.2783 -0.0959 -0.1859
 6033TIP3    H118105   4.317   3.244   3.987 -0.3630 -1.5934 -0.2193
 6033TIP3    H218106   4.184   3.241   4.059 -0.4848 -1.7579 -0.4534
 6034TIP3   OH218107   1.014   0.486   4.990  0.1451  0.0217  0.2188
 6034TIP3    H118108   0.954   0.448   5.054  1.7259 -0.6801  1.3724
 6034TIP3    H218109   1.061   0.554   5.039  1.6460 -0.7762 -0.0602
 6035TIP3   OH218110   3.053   2.279   1.695 -0.0442  0.4529  0.4980
 6035TIP3    H118111   3.040   2.366   1.657  1.4426 -0.1542 -1.5606
 6035TIP3    H218112   2.965   2.253   1.725 -0.7140  2.2172  0.1733
 6036TIP3   OH218113   6.067   5.246   4.376 -0.2423  0.3413  0.6100
 6036TIP3    H118114   6.153   5.216   4.404 -1.0626 -2.0831  0.8047
 6036TIP3    H218115   6.051   5.326   4.426  1.4433  0.2495  1.3425
 6037TIP3   OH218116   0.226   2.531   2.834 -0.6038  0.2839 -0.0699
 6037TIP3    H118117   0.145   2.491   2.864 -0.7472 -0.0252 -0.8331
 6037TIP3    H218118   0.295   2.491   2.887 -1.0872  1.8384  1.8175
 6038TIP3   OH218119   3.464   3.055   5.072 -0.4528 -0.0237 -0.8417
 6038TIP3    H118120   3.511   3.018   4.997 -1.0496 -2.3815 -0.1113
 6038TIP3    H218121   3.506   3.140   5.085  0.7371 -0.2197 -2.8417
 6039TIP3   OH218122   2.061   5.061   4.031 -0.6706  0.8500  0.2854
 6039TIP3    H118123   2.005   5.129   4.070  1.1153  1.7147  1.4526
 6039TIP3    H218124   2.139   5.060   4.086  0.8974  0.3376 -1.8418
 6040TIP3   OH218125   1.870   1.024   0.754 -0.3215 -0.2841  0.0857
 6040TIP3    H118126   1.817   0.961   0.802  0.2726 -0.8437  0.0347
 6040TIP3    H218127   1.844   1.110   0.788 -1.6450 -0.4976 -0.3367
 6041TIP3   OH218128   2.243   4.619   5.143  0.6555  0.1220 -0.3051
 6041TIP3    H118129   2.191   4.613   5.223  0.6726  0.0931 -0.2959
 6041TIP3    H218130   2.239   4.532   5.105  1.0510 -0.0012 -0.0785
 6042TIP3   OH218131   3.199   2.621   2.719  0.2470  0.2527  0.0591
 6042TIP3    H118132   3.138   2.639   2.647  0.4089 -0.5138 -0.2861
 6042TIP3    H218133   3.283   2.657   2.689  0.4050 -0.4112 -0.3146
 6043TIP3   OH218134   0.877   3.714   3.082 -0.1120 -0.3188 -0.1312
 6043TIP3    H118135   0.788   3.742   3.103 -1.3102 -2.5121 -1.7229
 6043TIP3    H218136   0.872   3.690   2.989  2.1092 -0.6681 -0.2016
 6044TIP3   OH218137   0.613   5.014   1.840 -0.2474  0.0006 -0.0537
 6044TIP3    H118138   0.540   5.060   1.798  0.5019 -0.8805 -2.4489
 6044TIP3    H218139   0.691   5.052   1.800  0.6266  0.2395  1.7761
 6045TIP3   OH218140   3.533   5.746   3.611  0.0043  0.4295  0.1689
 6045TIP3    H118141   3.627   5.759   3.620  0.3157 -0.6373 -1.1824
 6045TIP3    H218142   3.523   5.653   3.592 -1.5114  0.0708  2.3038
 6046TIP3   OH218143   5.893   0.504   4.542  0.3322 -0.2297  0.1996
 6046TIP3    H118144   5.940   0.477   4.621  3.1512  0.3861 -1.1293
 6046TIP3    H218145   5.962   0.527   4.479 -1.7886  1.0263 -1.8655
 6047TIP3   OH218146   4.903   3.177   1.178 -0.3931  0.6074 -0.7322
 6047TIP3    H118147   4.937   3.187   1.089 -0.2043  2.8655 -0.4708
 6047TIP3    H218148   4.838   3.107   1.171  0.0553  0.3133 -2.5090
 6048TIP3   OH218149   4.638   4.550   2.615  0.1465 -0.4908  0.0913
 6048TIP3    H118150   4.599   4.606   2.548  1.2926  1.0982  0.6768
 6048TIP3    H218151   4.614   4.593   2.698  0.4793 -1.2664  0.5979
 6049TIP3   OH218152   0.066   1.587   1.543  0.1647  0.8946  0.1119
 6049TIP3    H118153   0.093   1.677   1.564  0.1421  0.7362  0.8464
 6049TIP3    H218154   0.033   1.552   1.626 -0.5129  0.4461 -0.3397
 6050TIP3   OH218155   0.699   2.704   4.131 -0.5361  0.5939  0.2921
 6050TIP3    H118156   0.735   2.783   4.091 -0.0037  0.2677  0.1192
 6050TIP3    H218157   0.604   2.721   4.137 -0.4634  1.1252 -0.0002
 6051TIP3   OH218158   3.167   5.935   4.087 -0.0544  0.0021 -0.3654
 6051TIP3    H118159   3.261   5.948   4.076 -0.1330 -0.1772 -1.2734
 6051TIP3    H218160   3.141   6.004   4.149  0.6652  0.0487 -0.1060
 6052TIP3   OH218161   1.065   2.990   3.407  0.4013 -0.1497 -0.0204
 6052TIP3    H118162   0.985   2.985   3.354 -0.5442  1.1718  1.2110
 6052TIP3    H218163   1.126   2.932   3.362 -1.1032 -0.8880 -1.2412
 6053TIP3   OH218164   5.030   2.373   3.967  0.7132  0.2578 -0.0805
 6053TIP3    H118165   5.015   2.280   3.951  1.1951  0.3146 -0.9772
 6053TIP3    H218166   4.951   2.403   4.012 -0.7738  0.0117 -2.3328
 6054TIP3   OH218167   5.856   4.014   1.202  0.0216 -0.1308  0.2516
 6054TIP3    H118168   5.868   4.066   1.282  0.2147  0.0487  0.1061
 6054TIP3    H218169   5.804   4.070   1.144  1.3727  0.4551 -0.4302
 6055TIP3   OH218170   4.128   1.981   3.907  0.2836 -0.4386  0.3399
 6055TIP3    H118171   4.204   1.946   3.861  0.9861 -0.3261  1.3738
 6055TIP3    H218172   4.064   1.909   3.906  1.0804 -1.1857  0.9849
 6056TIP3   OH218173   0.734   0.091   1.661  0.4763  0.3147  0.2449
 6056TIP3    H118174   0.662   0.048   1.708  0.3940  0.1260 -0.0531
 6056TIP3    H218175   0.691   0.152   1.602  0.4876 -0.7387 -0.8902
 6057TIP3   OH218176   1.023   3.640   4.173  0.0135  0.0018 -0.1496
 6057TIP3    H118177   1.044   3.729   4.143 -1.3237 -0.1412 -1.6047
 6057TIP3    H218178   1.101   3.589   4.150  0.3741  0.5829 -0.2587
 6058TIP3   OH218179   6.315   1.824   1.705  0.2758 -0.3255 -0.3081
 6058TIP3    H118180   6.382   1.823   1.773  0.6044 -0.9219 -0.6297
 6058TIP3    H218181   6.328   1.905   1.658 -0.5283  0.5421  0.8942
 6059TIP3   OH218182   2.635   4.969   0.493 -0.0996 -0.2714 -0.1281
 6059TIP3    H118183   2.568   4.901   0.491 -0.6665  0.2847 -0.4682
 6059TIP3    H218184   2.718   4.921   0.496 -0.4942 -0.9695 -0.0673
 6060TIP3   OH218185   4.163   0.281   4.054 -0.3008 -0.3396 -0.5042
 6060TIP3    H118186   4.250   0.312   4.029  0.4240 -0.7875  1.3028
 6060TIP3    H218187   4.135   0.341   4.124 -1.2551 -0.4630 -0.7669
 6061TIP3   OH218188   0.917   5.294   1.040 -0.1367  0.2117 -0.1078
 6061TIP3    H118189   0.900   5.389   1.042 -1.1794  0.0713 -1.1770
 6061TIP3    H218190   0.910   5.267   1.132  0.5263  1.2232  0.2543
 6062TIP3   OH218191   3.278   3.818   2.517  0.1837 -0.1501 -0.2823
 6062TIP3    H118192   3.351   3.795   2.458 -0.2271  0.4736 -1.0568
 6062TIP3    H218193   3.319   3.869   2.587  0.5873 -0.3580 -0.3609
 6063TIP3   OH218194   3.486   3.266   4.454 -0.2428  0.6443 -0.3582
 6063TIP3    H118195   3.557   3.229   4.402 -0.3883  0.6087 -0.5340
 6063TIP3    H218196   3.453   3.193   4.506 -0.5045  0.5324 -0.6760
 6064TIP3   OH218197   5.723   0.229   0.042 -0.7386  0.0809 -0.4487
 6064TIP3    H118198   5.731   0.320   0.013 -1.6789  0.9138  1.6858
 6064TIP3    H218199   5.631   0.207   0.029 -0.9485  0.1298  0.8552
 6065TIP3   OH218200   1.441   1.388   2.192  0.4715 -0.0417 -0.5773
 6065TIP3    H118201   1.402   1.308   2.226 -1.1294  1.2510  0.8453
 6065TIP3    H218202   1.496   1.420   2.264 -0.4218  1.0735 -0.3467
 6066TIP3   OH218203   2.895   5.626   0.262  0.2668 -0.4782  0.2718
 6066TIP3    H118204   2.966   5.606   0.201  0.3785 -3.6662  1.2729
 6066TIP3    H218205   2.881   5.545   0.310 -2.6038  0.6979  1.6626
 6067TIP3   OH218206   0.364   3.921   4.685 -0.5216 -0.1657 -1.0312
 6067TIP3    H118207   0.326   3.837   4.711 -0.8706  0.1056 -0.6703
 6067TIP3    H218208   0.340   3.929   4.592 -0.3571 -0.5315 -1.1105
 6068TIP3   OH218209   3.472   2.693   1.248  0.1002 -0.4373 -0.4175
 6068TIP3    H118210   3.533   2.693   1.174 -0.3550 -0.7940 -0.7953
 6068TIP3    H218211   3.407   2.627   1.226 -1.8165  1.5531 -1.1573
 6069TIP3   OH218212   1.670   2.868   3.349  0.4763  0.5448  0.1905
 6069TIP3    H118213   1.654   2.811   3.424 -0.2201  0.7083  0.1741
 6069TIP3    H218214   1.739   2.927   3.378 -0.2188  1.0154  0.9367
 6070TIP3   OH218215   0.372   3.303   0.319 -0.1330  0.5464  0.2915
 6070TIP3    H118216   0.425   3.344   0.251 -0.2851 -1.1018 -0.8835
 6070TIP3    H218217   0.406   3.214   0.326 -1.2570  0.1543  1.1498
 6071TIP3   OH218218   5.327   0.672   1.745 -0.0161 -0.1635 -0.0349
 6071TIP3    H118219   5.308   0.763   1.724 -0.2350 -0.2789 -0.3554
 6071TIP3    H218220   5.419   0.671   1.771 -0.3688  0.3694  1.2703
 6072TIP3   OH218221   1.478   1.055   0.405 -0.0264  0.3320 -0.3101
 6072TIP3    H118222   1.565   1.022   0.425  1.3407  1.6529 -3.3561
 6072TIP3    H218223   1.421   1.020   0.474  2.8248 -0.8247  1.6011
 6073TIP3   OH218224   1.528   0.479   3.400 -0.1658  0.3611  0.5629
 6073TIP3    H118225   1.557   0.388   3.400 -2.5136 -0.4644 -0.3964
 6073TIP3    H218226   1.607   0.530   3.384  0.6159 -1.7558 -3.3966
 6074TIP3   OH218227   0.006   1.877   2.938  0.0022 -0.0500  0.1605
 6074TIP3    H118228  -0.010   1.783   2.932  0.9351 -0.2109 -0.0142
 6074TIP3    H218229   0.087   1.890   2.888  0.2980  0.7289  0.8317
 6075TIP3   OH218230   1.994   5.486   3.367  0.3587  0.6354  0.5460
 6075TIP3    H118231   1.998   5.532   3.283  1.6356 -1.4387 -0.6413
 6075TIP3    H218232   2.070   5.517   3.415  1.4924 -0.4960 -0.4443
 6076TIP3   OH218233   5.792   0.287   4.266 -0.0144 -0.0666  0.0235
 6076TIP3    H118234   5.881   0.324   4.266  0.2898 -0.7712 -0.3273
 6076TIP3    H218235   5.784   0.245   4.352 -0.0959  0.2124  0.1506
 6077TIP3   OH218236   0.144   2.803   0.087  0.3060  0.1747  0.0757
 6077TIP3    H118237   0.199   2.879   0.110 -0.1551  0.6103 -0.2296
 6077TIP3    H218238   0.177   2.774   0.003  0.6593 -0.1317  0.3208
 6078TIP3   OH218239   0.071   0.912   1.321 -0.2549  0.3738 -0.2945
 6078TIP3    H118240   0.107   0.985   1.371 -0.4466  0.7679 -0.7258
 6078TIP3    H218241  -0.022   0.911   1.344  0.0471 -0.8122  1.0277
 6079TIP3   OH218242   5.357   4.703   1.307  0.2711 -0.2729 -0.4141
 6079TIP3    H118243   5.315   4.767   1.250 -1.9925 -2.9805 -1.9975
 6079TIP3    H218244   5.352   4.742   1.394 -0.2412  2.0320 -1.4031
 6080TIP3   OH218245   3.013   5.610   3.482  0.1869 -0.1312  0.0260
 6080TIP3    H118246   3.097   5.617   3.527 -0.0127  0.4848  0.3150
 6080TIP3    H218247   2.954   5.668   3.531 -0.0531  0.5029 -0.9712
 6081TIP3   OH218248   1.691   5.162   3.425 -0.1122  0.1961  0.0018
 6081TIP3    H118249   1.708   5.254   3.405  0.0571 -0.4414 -3.2887
 6081TIP3    H218250   1.777   5.120   3.417 -0.2445 -0.3344  1.1612
 6082TIP3   OH218251   3.296   3.222   2.148  0.0040  0.3081  0.5285
 6082TIP3    H118252   3.271   3.249   2.060 -1.4022  0.3306  0.9056
 6082TIP3    H218253   3.347   3.295   2.182  1.5258 -0.1579 -0.6255
 6083TIP3   OH218254   0.083   1.359   0.005 -0.4093 -0.2828  0.0466
 6083TIP3    H118255   0.128   1.300  -0.055 -0.3624 -0.3207  0.1197
 6083TIP3    H218256   0.103   1.325   0.093  1.0133  0.8270  0.1740
 6084TIP3   OH218257   5.830   5.993   2.807 -0.0979  0.2422  0.0359
 6084TIP3    H118258   5.754   5.961   2.758  1.7331 -1.9291 -1.5232
 6084TIP3    H218259   5.805   5.980   2.899 -0.7537 -2.7279 -0.4548
 6085TIP3   OH218260   0.213   3.825   1.124  0.2309 -0.6255 -0.0455
 6085TIP3    H118261   0.217   3.920   1.113 -1.3838 -0.4028  0.9632
 6085TIP3    H218262   0.296   3.794   1.089 -0.1200  0.9172 -2.5014
 6086TIP3   OH218263   4.604   2.775   4.837 -0.0826  0.2428  0.1790
 6086TIP3    H118264   4.557   2.822   4.906 -1.8327  1.6732 -1.8239
 6086TIP3    H218265   4.539   2.717   4.799  0.0304  1.3486 -1.8622
 6087TIP3   OH218266   1.570   4.322   4.175  0.2652  0.3642  0.2626
 6087TIP3    H118267   1.478   4.342   4.157  0.1983  0.3485  0.5855
 6087TIP3    H218268   1.591   4.251   4.114  0.8040  2.0638 -1.6321
 6088TIP3   OH218269   0.819   1.449   4.505  0.0477 -0.3463 -0.0033
 6088TIP3    H118270   0.742   1.498   4.533 -0.7951 -0.8973 -1.2483
 6088TIP3    H218271   0.797   1.418   4.417  1.2509 -1.4693  0.0566
 6089TIP3   OH218272   0.064   4.072   4.106 -0.3149 -0.2547  0.2999
 6089TIP3    H118273   0.024   4.014   4.170 -1.4190  1.3632  1.1460
 6089TIP3    H218274   0.080   4.153   4.153 -0.1755  0.6323 -1.2024
 6090TIP3   OH218275   2.652   1.807   3.887 -0.0606 -0.7788  0.2212
 6090TIP3    H118276   2.714   1.870   3.923  1.5806 -0.7840 -2.3307
 6090TIP3    H218277   2.665   1.728   3.939  1.8699 -0.6681 -0.0297
 6091TIP3   OH218278   1.778   0.618   0.222 -0.3575 -0.0400 -0.7055
 6091TIP3    H118279   1.752   0.710   0.225 -0.3994 -0.0273 -1.3241
 6091TIP3    H218280   1.862   0.618   0.176 -0.5074 -0.3384 -0.9882
 6092TIP3   OH218281   5.501   3.503   1.312  0.1727  0.3136 -0.2466
 6092TIP3    H118282   5.578   3.451   1.286 -1.1401 -1.4156 -0.8900
 6092TIP3    H218283   5.486   3.562   1.239  1.2141  1.0771  0.1354
 6093TIP3   OH218284   6.032   0.004   3.287 -0.1506 -0.1244  0.5785
 6093TIP3    H118285   5.940  -0.001   3.264 -0.3996 -0.6453  1.6393
 6093TIP3    H218286   6.059   0.092   3.260 -0.6775 -0.3377 -0.6984
 6094TIP3   OH218287   5.869   5.675   4.987  0.0905  0.4299 -0.8620
 6094TIP3    H118288   5.937   5.677   5.054 -0.7178  0.3271 -0.0239
 6094TIP3    H218289   5.912   5.708   4.908  1.2128  0.0071 -0.4487
 6095TIP3   OH218290   5.529   5.608   2.430 -0.1577 -0.3423 -0.2582
 6095TIP3    H118291   5.475   5.539   2.391 -1.2620 -0.6546  1.7097
 6095TIP3    H218292   5.605   5.562   2.467 -0.1172 -0.3026 -0.2915
 6096TIP3   OH218293   3.770   0.747   4.459  0.2375  0.4116 -0.2339
 6096TIP3    H118294   3.770   0.652   4.469  1.5444  0.3114 -0.9576
 6096TIP3    H218295   3.847   0.766   4.405 -1.6705  1.5893 -2.8062
 6097TIP3   OH218296   0.599   4.097   3.244  0.7067 -0.0029 -0.0112
 6097TIP3    H118297   0.561   4.183   3.261  0.9497 -0.0054  0.5659
 6097TIP3    H218298   0.573   4.044   3.320  1.4971 -0.1170  0.1896
 6098TIP3   OH218299   4.115   2.633   3.226 -0.0845 -0.3640  0.0973
 6098TIP3    H118300   4.210   2.630   3.241  0.1082 -1.7070 -1.1584
 6098TIP3    H218301   4.080   2.565   3.284 -0.1264 -0.7524 -0.3813
 6099TIP3   OH218302   3.981   4.483   1.447 -0.6905 -0.1541  0.0433
 6099TIP3    H118303   3.932   4.505   1.526 -1.1103  0.7439 -0.4606
 6099TIP3    H218304   3.932   4.411   1.407 -0.9435 -0.0374  0.1477
 6100TIP3   OH218305   0.520   1.366   1.311 -0.3881 -0.6115 -0.3283
 6100TIP3    H118306   0.583   1.383   1.241  0.2760 -3.0306 -0.4032
 6100TIP3    H218307   0.452   1.314   1.269 -0.9085 -0.5578  0.4342
 6101TIP3   OH218308   4.861   5.219   4.779  0.2658  0.2591  0.1855
 6101TIP3    H118309   4.861   5.129   4.745  2.0065  0.1370  0.4528
 6101TIP3    H218310   4.795   5.264   4.725 -0.9158 -1.2418  0.3018
 6102TIP3   OH218311   2.871   2.819   4.904  0.1148 -0.0098 -0.4303
 6102TIP3    H118312   2.782   2.790   4.885 -0.3942  0.7892  0.6340
 6102TIP3    H218313   2.881   2.808   4.998  0.9909  0.3223 -0.4721
 6103TIP3   OH218314   5.495   1.169   1.839  0.3760  0.0726  0.0298
 6103TIP3    H118315   5.419   1.215   1.874  1.3853  1.0191  1.0690
 6103TIP3    H218316   5.520   1.219   1.761 -0.1661 -0.3457 -0.4151
 6104TIP3   OH218317   5.330   2.032   2.318 -0.0336  0.5850 -0.1372
 6104TIP3    H118318   5.270   1.974   2.272 -1.9629  2.0921  0.3595
 6104TIP3    H218319   5.316   2.013   2.410 -0.0158  1.1979 -0.0032
 6105TIP3   OH218320   5.325   5.714   4.530 -0.1092  0.2655  0.2004
 6105TIP3    H118321   5.324   5.630   4.575 -0.0010  0.4355  0.5277
 6105TIP3    H218322   5.337   5.692   4.438 -0.4546 -0.0946  0.2371
 6106TIP3   OH218323   4.972   2.230   2.574  0.5712  0.1119 -0.7519
 6106TIP3    H118324   5.033   2.157   2.586 -1.5258 -1.6438 -0.2794
 6106TIP3    H218325   4.965   2.240   2.479  1.8692  0.6409 -0.8215
 6107TIP3   OH218326   2.475   3.790   3.916  0.6390  0.2064  0.2635
 6107TIP3    H118327   2.451   3.792   4.009  1.5082 -0.8710  0.5364
 6107TIP3    H218328   2.393   3.769   3.871  0.2332  0.6235  0.7914
 6108TIP3   OH218329   6.214   2.231   0.959  0.3193 -0.0102  0.0803
 6108TIP3    H118330   6.227   2.289   1.035  2.9261  1.7807 -1.5517
 6108TIP3    H218331   6.206   2.291   0.885  1.1900 -1.7328 -1.4707
 6109TIP3   OH218332   2.417   4.832   0.382  0.1347  0.4064 -0.1636
 6109TIP3    H118333   2.366   4.758   0.349 -1.3684  1.2393  0.2040
 6109TIP3    H218334   2.382   4.908   0.336  1.0822  1.0205  0.0822
 6110TIP3   OH218335   2.817   3.671   0.602 -0.2928 -0.1045 -0.7439
 6110TIP3    H118336   2.765   3.729   0.657 -0.1995 -0.7524  0.0404
 6110TIP3    H218337   2.770   3.669   0.518 -0.0552  1.4389 -0.9397
 6111TIP3   OH218338   3.694   4.800   4.619 -0.0671  0.3731  0.1300
 6111TIP3    H118339   3.637   4.831   4.689 -3.8254 -0.4662 -2.2391
 6111TIP3    H218340   3.715   4.709   4.642 -1.6506 -0.0395  0.0434
 6112TIP3   OH218341   3.866   4.142   4.874 -0.0144  0.6601 -0.1516
 6112TIP3    H118342   3.788   4.093   4.902  0.6080 -0.7270 -0.7277
 6112TIP3    H218343   3.916   4.155   4.955 -0.5959  1.1066  0.1416
 6113TIP3   OH218344   2.938   5.069   4.342  0.3283 -0.3207  0.2560
 6113TIP3    H118345   2.957   5.149   4.294  1.1838 -1.1538 -0.8430
 6113TIP3    H218346   2.842   5.069   4.353  0.5068  2.2964  2.9377
 6114TIP3   OH218347   2.068   3.791   5.113  0.4195  0.4399  0.2059
 6114TIP3    H118348   2.063   3.699   5.140 -0.3781  0.9013  1.7101
 6114TIP3    H218349   2.035   3.840   5.188  1.1235  1.9873 -0.4554
 6115TIP3   OH218350   3.425   2.067   4.132 -0.1322  0.0353 -0.0391
 6115TIP3    H118351   3.460   2.156   4.140 -0.3156 -0.0669  2.6480
 6115TIP3    H218352   3.470   2.017   4.200 -1.7894 -1.3157  0.1324
 6116TIP3   OH218353   4.036   0.963   2.139 -0.2535 -0.1513 -0.4089
 6116TIP3    H118354   3.991   0.966   2.224 -0.6961  0.7519 -0.6686
 6116TIP3    H218355   3.973   0.924   2.079  0.5889 -2.2308 -0.0305
 6117TIP3   OH218356   5.693   4.871   3.240  0.2664  0.1723 -0.1155
 6117TIP3    H118357   5.735   4.873   3.326 -0.8209  1.7239  0.4164
 6117TIP3    H218358   5.760   4.904   3.180  0.6846  0.0900  0.2980
 6118TIP3   OH218359   4.003   3.877   2.826 -0.2245 -0.2011 -0.1699
 6118TIP3    H118360   3.953   3.801   2.793  0.1818 -0.1851 -0.8503
 6118TIP3    H218361   3.937   3.936   2.860 -0.5326 -0.9735  0.6107
 6119TIP3   OH218362   2.405   1.642   2.780 -0.0074  0.1758  0.4686
 6119TIP3    H118363   2.491   1.626   2.742 -0.4838 -0.1244 -0.5012
 6119TIP3    H218364   2.424   1.674   2.868  1.0893 -0.2339  0.4004
 6120TIP3   OH218365   2.850   0.528   0.755 -0.0387 -0.4845 -0.4115
 6120TIP3    H118366   2.916   0.471   0.715  2.8883  0.5246  2.5655
 6120TIP3    H218367   2.817   0.478   0.829 -1.1260 -0.1379 -0.6383
 6121TIP3   OH218368   4.536   4.413   0.641  0.4435  0.6752 -0.0070
 6121TIP3    H118369   4.589   4.470   0.697 -0.2975  0.7963  0.5945
 6121TIP3    H218370   4.445   4.438   0.660  0.1363 -0.0988 -0.3901
 6122TIP3   OH218371   5.692   5.463   0.284 -0.2479 -0.0520  0.0294
 6122TIP3    H118372   5.613   5.453   0.230 -0.3007 -0.7185  0.2260
 6122TIP3    H218373   5.762   5.476   0.220 -0.3906 -0.3092 -0.1845
 6123TIP3   OH218374   0.347   3.505   0.989 -0.1250  0.2634  0.4162
 6123TIP3    H118375   0.339   3.600   0.982 -0.8213  0.1532 -0.4855
 6123TIP3    H218376   0.435   3.490   1.024  0.6057  1.1976 -0.9250
 6124TIP3   OH218377   2.854   3.770   4.638  0.2759 -0.7224 -0.0945
 6124TIP3    H118378   2.832   3.853   4.595 -1.3333 -1.8221 -1.5138
 6124TIP3    H218379   2.769   3.732   4.662  1.0168 -1.6422  1.2212
 6125TIP3   OH218380   0.629   0.797   1.789  0.1633 -0.3466 -0.1233
 6125TIP3    H118381   0.562   0.834   1.846  0.6483 -0.8592  0.8125
 6125TIP3    H218382   0.612   0.836   1.704 -0.9706 -0.0331  0.2215
 6126TIP3   OH218383   4.493   3.206   4.622  0.2850 -0.5536  0.3852
 6126TIP3    H118384   4.444   3.250   4.553  0.1087  0.5683  1.2038
 6126TIP3    H218385   4.432   3.141   4.656 -0.1016 -0.1994  0.3787
 6127TIP3   OH218386   5.138   2.847   1.005  0.6184 -0.5257  0.2561
 6127TIP3    H118387   5.127   2.845   1.100  1.4196 -1.1036  0.3457
 6127TIP3    H218388   5.232   2.837   0.991  0.5554 -0.0615 -0.5940
 6128TIP3   OH218389   5.612   0.699   0.816  0.1546 -0.3581 -0.2678
 6128TIP3    H118390   5.628   0.605   0.822  2.6476  0.0147 -0.1512
 6128TIP3    H218391   5.695   0.736   0.787 -0.8120  1.8145 -0.4546
 6129TIP3   OH218392   0.628   2.677   1.667 -0.1308  0.1061  0.3339
 6129TIP3    H118393   0.722   2.659   1.672  0.1317  0.9754 -1.0548
 6129TIP3    H218394   0.621   2.752   1.609 -1.7316 -0.2524  0.0151
 6130TIP3   OH218395   5.795   1.016   3.069 -0.1846 -0.1266 -0.5150
 6130TIP3    H118396   5.759   1.050   2.986 -0.8693 -0.6008 -0.4185
 6130TIP3    H218397   5.867   1.076   3.089 -0.9223  0.8655 -0.7135
 6131TIP3   OH218398   3.667   1.674   0.714  0.7106  0.1266 -0.2765
 6131TIP3    H118399   3.643   1.765   0.726  0.3977  0.0908 -0.6435
 6131TIP3    H218400   3.635   1.630   0.793  1.2041  0.3927  0.0850
 6132TIP3   OH218401   5.265   4.282   2.706  0.0540 -0.1221  0.3892
 6132TIP3    H118402   5.203   4.246   2.643 -0.1746  1.2345 -0.1894
 6132TIP3    H218403   5.345   4.296   2.656  1.0332 -2.2804  1.2323
 6133TIP3   OH218404   1.551   0.886   3.397 -0.1495  0.1866 -0.2770
 6133TIP3    H118405   1.619   0.953   3.405  1.3840 -1.1421 -1.4862
 6133TIP3    H218406   1.583   0.814   3.451 -0.0676 -0.8399 -1.6499
 6134TIP3   OH218407   1.468   3.789   1.143  0.1311 -0.5219 -0.1641
 6134TIP3    H118408   1.528   3.780   1.070  0.7730  2.1924 -0.0805
 6134TIP3    H218409   1.392   3.834   1.106  0.4344  0.8237  0.7693
 6135TIP3   OH218410   2.258   4.034   1.594  0.2388 -0.0011  0.2196
 6135TIP3    H118411   2.230   4.126   1.591 -0.6485 -0.2177  1.2687
 6135TIP3    H218412   2.241   4.001   1.505  1.2442  1.0210 -0.3822
 6136TIP3   OH218413   1.137   0.860   2.486  0.3076 -0.1354 -0.0465
 6136TIP3    H118414   1.230   0.868   2.509  0.5790 -0.0921 -1.1066
 6136TIP3    H218415   1.119   0.766   2.492  0.1555 -0.0494  1.0913
 6137TIP3   OH218416   3.455   5.134   1.743 -0.0993 -0.1849 -0.4079
 6137TIP3    H118417   3.528   5.110   1.685 -0.3045 -1.1853 -0.2766
 6137TIP3    H218418   3.495   5.143   1.829  0.1077  0.7257 -0.5885
 6138TIP3   OH218419   3.405   3.088   1.886 -0.0125  0.4700  0.6567
 6138TIP3    H118420   3.413   3.046   1.800  1.6955  0.7293  0.6436
 6138TIP3    H218421   3.377   3.177   1.866  1.9369  1.0345  0.1778
 6139TIP3   OH218422   4.037   3.193   4.620  0.0747 -0.5872 -0.0139
 6139TIP3    H118423   4.122   3.150   4.631  0.2101 -0.1938  0.5511
 6139TIP3    H218424   4.021   3.192   4.526  1.6272  1.0486 -0.3495
 6140TIP3   OH218425   3.349   5.977   4.351  0.5652  0.1735  0.2137
 6140TIP3    H118426   3.266   5.931   4.363 -0.3105  1.8574  0.9069
 6140TIP3    H218427   3.385   5.941   4.270 -0.5964 -0.9437  0.1662
 6141TIP3   OH218428   1.532   4.586   1.516  0.0981  0.3045 -0.4133
 6141TIP3    H118429   1.619   4.611   1.484  1.0004 -1.4365  0.5791
 6141TIP3    H218430   1.525   4.626   1.602 -0.0582  0.3557 -0.4483
 6142TIP3   OH218431   0.685   1.776   4.208  0.0170  0.0785 -0.5402
 6142TIP3    H118432   0.730   1.852   4.172  0.3793  0.6882  1.0935
 6142TIP3    H218433   0.659   1.725   4.132  1.5766  0.7967 -1.6097
 6143TIP3   OH218434   5.991   3.770   4.872 -0.8792  0.1056  0.1961
 6143TIP3    H118435   6.020   3.692   4.918  0.4812  0.9455  0.8357
 6143TIP3    H218436   5.943   3.737   4.796 -2.7455 -1.3102  1.8966
 6144TIP3   OH218437   0.614   4.456   4.248 -0.1792  0.2286 -0.1363
 6144TIP3    H118438   0.692   4.490   4.203  1.9977 -1.5222  2.0200
 6144TIP3    H218439   0.601   4.515   4.321 -2.2616  1.6961 -1.5752
 6145TIP3   OH218440   2.972   5.915   0.299 -0.3827  0.1656  0.0912
 6145TIP3    H118441   2.890   5.944   0.259 -1.5825 -0.8808  1.6711
 6145TIP3    H218442   2.958   5.822   0.319  1.9243 -0.5633 -1.3202
 6146TIP3   OH218443   0.044   4.531   4.795  0.0872  0.1448 -0.0946
 6146TIP3    H118444   0.077   4.494   4.713  1.8650  1.1001  0.1413
 6146TIP3    H218445   0.049   4.460   4.858  1.6316  0.2201 -0.1054
 6147TIP3   OH218446   3.037   2.812   4.686  0.7143  0.4854  0.3146
 6147TIP3    H118447   2.974   2.750   4.723 -1.7376  2.0826 -0.9697
 6147TIP3    H218448   3.066   2.864   4.762 -0.3146  0.4110  0.7715
 6148TIP3   OH218449   0.020   4.811   4.838 -0.1239  0.1262 -0.2985
 6148TIP3    H118450  -0.030   4.812   4.919 -0.8352 -0.0805 -0.7211
 6148TIP3    H218451   0.016   4.720   4.808  1.3016 -0.0962  0.1266
 6149TIP3   OH218452   2.404   2.663   2.604  0.2130 -0.1204  0.5423
 6149TIP3    H118453   2.462   2.658   2.528 -1.8713  2.0738 -1.3782
 6149TIP3    H218454   2.386   2.757   2.614 -2.0997 -0.6144  1.6908
 6150TIP3   OH218455   6.306   3.949   0.755 -0.1767  0.0071  0.1838
 6150TIP3    H118456   6.345   3.862   0.766  1.5020  0.5639 -0.9117
 6150TIP3    H218457   6.301   3.985   0.843  0.8406 -0.5130  0.4670
 6151TIP3   OH218458   3.158   0.439   2.901  0.2639  0.4233 -0.2882
 6151TIP3    H118459   3.173   0.530   2.928 -1.6836  1.2004 -1.5551
 6151TIP3    H218460   3.086   0.409   2.955  0.2779 -0.0532 -0.5249
 6152TIP3   OH218461   5.659   0.604   2.125  0.2907 -0.1631  0.1292
 6152TIP3    H118462   5.629   0.616   2.215 -2.6844 -0.5731 -0.7135
 6152TIP3    H218463   5.685   0.511   2.121  1.8269  0.2004  0.8758
 6153TIP3   OH218464   0.760   2.648   1.946  0.4678  0.1056 -0.1242
 6153TIP3    H118465   0.782   2.672   2.036  2.3465 -1.2855 -0.1756
 6153TIP3    H218466   0.802   2.564   1.932 -0.6290 -0.1815 -2.0061
 6154TIP3   OH218467   5.568   2.118   4.697 -0.3201  0.0221 -0.0731
 6154TIP3    H118468   5.605   2.107   4.610 -0.3742 -0.0203 -0.0899
 6154TIP3    H218469   5.631   2.176   4.742  0.6487 -1.3800  0.4369
 6155TIP3   OH218470   3.284   5.951   1.125  0.2562 -0.2634  0.2513
 6155TIP3    H118471   3.246   5.887   1.064 -1.2987 -0.7100  1.6058
 6155TIP3    H218472   3.209   5.994   1.165  1.2579  1.0785  0.7739
 6156TIP3   OH218473   1.029   3.908   4.121  0.2949 -0.5395  0.0672
 6156TIP3    H118474   1.102   3.916   4.182  1.0076 -2.1073 -0.5374
 6156TIP3    H218475   0.955   3.946   4.168  1.3201  0.4068  0.9864
 6157TIP3   OH218476   6.316   1.440   1.784  0.2128 -0.2152  0.4497
 6157TIP3    H118477   6.259   1.365   1.797 -1.9324  1.2421 -0.1057
 6157TIP3    H218478   6.351   1.459   1.872 -0.7168 -0.7097  0.9412
 6158TIP3   OH218479   2.558   0.272   3.620  0.0898 -0.6098  0.4023
 6158TIP3    H118480   2.613   0.295   3.545 -0.9629 -0.1520 -0.2577
 6158TIP3    H218481   2.470   0.264   3.583 -0.4627 -0.3216  1.6052
 6159TIP3   OH218482   3.657   1.239   2.037  0.1595  0.7830  0.4101
 6159TIP3    H118483   3.631   1.331   2.035  1.2783  1.1042 -0.5698
 6159TIP3    H218484   3.752   1.241   2.028  0.0722 -0.4894 -1.4794
 6160TIP3   OH218485   4.190   1.071   3.582 -0.2469 -0.1228  0.0978
 6160TIP3    H118486   4.212   1.156   3.545 -0.0243  0.8977  2.3922
 6160TIP3    H218487   4.248   1.009   3.539  0.5011  1.0917 -0.6698
 6161TIP3   OH218488   4.006   5.103   1.879  0.0528 -0.2337 -0.7866
 6161TIP3    H118489   4.040   5.032   1.823  2.1685  0.5255 -0.5616
 6161TIP3    H218490   4.049   5.089   1.963 -0.9642  0.2528 -0.1771
 6162TIP3   OH218491   5.615   3.479   4.541 -0.7958  0.3056  0.1698
 6162TIP3    H118492   5.692   3.434   4.507 -1.3335 -1.8077  1.5400
 6162TIP3    H218493   5.584   3.532   4.468  0.4709 -0.7792 -1.2281
 6163TIP3   OH218494   1.749   4.182   5.034  0.4337  0.3970  0.2872
 6163TIP3    H118495   1.750   4.238   4.957  1.6636  0.3250  0.2188
 6163TIP3    H218496   1.806   4.109   5.011  1.7681  0.9421  1.6456
 6164TIP3   OH218497   4.931   4.598   0.755  0.0870 -0.5817 -0.3613
 6164TIP3    H118498   4.943   4.570   0.665 -0.2521  0.0951 -0.6282
 6164TIP3    H218499   4.837   4.589   0.771 -0.1454  0.9366 -0.6654
 6165TIP3   OH218500   5.351   1.135   0.175 -0.4137  0.4606 -0.2476
 6165TIP3    H118501   5.367   1.058   0.230 -1.4445  0.0116 -0.5563
 6165TIP3    H218502   5.285   1.107   0.112 -0.2940  1.3964 -0.8173
 6166TIP3   OH218503   4.041   5.561   0.296  0.0395  0.3356  0.4406
 6166TIP3    H118504   4.079   5.474   0.299 -0.9435 -0.0888  1.1489
 6166TIP3    H218505   4.007   5.570   0.207  0.3184  0.0796  0.3084
 6167TIP3   OH218506   0.768   0.281   1.888 -0.7172 -0.5710  0.2234
 6167TIP3    H118507   0.728   0.215   1.945  0.5079 -2.2798 -0.7926
 6167TIP3    H218508   0.765   0.242   1.801  0.0612  0.7416 -0.4215
 6168TIP3   OH218509   4.493   4.738   0.517  0.4480  0.3938  0.0136
 6168TIP3    H118510   4.509   4.704   0.605  0.1571 -1.7121 -0.6888
 6168TIP3    H218511   4.576   4.775   0.489  1.2153 -1.0330  0.3231
 6169TIP3   OH218512   5.220   4.143   2.928  0.3606  0.6444  0.7427
 6169TIP3    H118513   5.306   4.125   2.967  0.6400  2.4381  1.0080
 6169TIP3    H218514   5.239   4.194   2.850 -0.3314 -1.3038 -0.7867
 6170TIP3   OH218515   5.889   0.429   2.935  0.3666 -0.0411  0.3489
 6170TIP3    H118516   5.973   0.463   2.904  0.8749 -0.8455  0.8368
 6170TIP3    H218517   5.863   0.366   2.868  0.4167 -0.1910  0.4701
 6171TIP3   OH218518   3.907   2.085   3.569 -0.1374  0.3057  0.3681
 6171TIP3    H118519   3.916   2.160   3.628  0.6254  0.6893 -0.2212
 6171TIP3    H218520   3.997   2.063   3.545 -0.4728  0.5762 -1.1949
 6172TIP3   OH218521   1.837   4.015   4.395 -0.1472 -0.0920 -0.0600
 6172TIP3    H118522   1.760   4.012   4.339  0.0591 -0.4065 -0.3285
 6172TIP3    H218523   1.876   4.101   4.379 -0.6868  0.2538  0.4122
 6173TIP3   OH218524   0.322   5.012   4.592 -0.1116  0.3641  0.0918
 6173TIP3    H118525   0.309   5.106   4.578  1.9169  0.4474 -1.8264
 6173TIP3    H218526   0.395   5.006   4.652 -0.7121 -0.0217  0.7993
 6174TIP3   OH218527   0.993   4.820   4.046 -0.3144 -0.2067 -0.3144
 6174TIP3    H118528   1.041   4.902   4.032 -0.2120 -0.1900  0.1284
 6174TIP3    H218529   0.923   4.823   3.980 -0.7199  0.5573  0.1355
 6175TIP3   OH218530   0.499   4.716   4.290 -0.1104  0.5659  0.4235
 6175TIP3    H118531   0.566   4.711   4.223 -2.2628  3.0285 -2.1776
 6175TIP3    H218532   0.516   4.799   4.335 -0.3341  0.2792  1.0570
 6176TIP3   OH218533   3.032   4.277   0.829 -0.6317  0.2853  0.4266
 6176TIP3    H118534   2.980   4.223   0.889 -1.7844 -0.8284 -1.4885
 6176TIP3    H218535   2.967   4.317   0.771  0.5696 -0.5227 -1.5515
 6177TIP3   OH218536   4.020   0.769   2.712  0.1514 -0.3802  0.0870
 6177TIP3    H118537   4.104   0.778   2.666 -0.2802 -0.0416 -0.6558
 6177TIP3    H218538   3.991   0.859   2.727 -0.5048 -0.4799 -0.4827
 6178TIP3   OH218539   2.124   1.379   4.627 -0.6067  0.1039  0.0067
 6178TIP3    H118540   2.036   1.364   4.664 -0.1203  0.1607  1.2319
 6178TIP3    H218541   2.165   1.293   4.629 -0.7112  0.0291 -0.8037
 6179TIP3   OH218542   0.079   0.401   1.942  0.0943 -0.7084  0.2646
 6179TIP3    H118543   0.105   0.312   1.965 -1.8469 -1.3581  0.0874
 6179TIP3    H218544   0.029   0.391   1.861  0.8655  0.7033 -0.4208
 6180TIP3   OH218545   5.220   5.287   0.305 -0.1527  0.4510  0.1052
 6180TIP3    H118546   5.190   5.356   0.245 -0.3048 -0.2906 -0.7003
 6180TIP3    H218547   5.249   5.216   0.247 -0.2793 -0.2838  0.9147
 6181TIP3   OH218548   2.380   1.641   1.080 -0.0837 -0.4375  0.2693
 6181TIP3    H118549   2.398   1.642   1.174  1.9177 -1.0516 -0.0609
 6181TIP3    H218550   2.298   1.690   1.071 -1.1238 -1.6034  2.4671
 6182TIP3   OH218551   5.113   4.978   4.762  0.2148  0.4431 -0.1755
 6182TIP3    H118552   5.183   5.003   4.702  0.1350  0.0887 -0.4212
 6182TIP3    H218553   5.034   4.977   4.708  0.0323  0.7637  0.0834
 6183TIP3   OH218554   3.780   3.218   3.744 -0.0986 -0.1298  0.4358
 6183TIP3    H118555   3.864   3.259   3.765  0.9228 -1.4194 -0.9327
 6183TIP3    H218556   3.799   3.125   3.738 -1.8466 -0.5635  1.0003
 6184TIP3   OH218557   1.991   2.172   3.663  0.3989 -0.3708 -0.0993
 6184TIP3    H118558   1.935   2.238   3.624  0.2390  0.6348  1.6835
 6184TIP3    H218559   1.952   2.089   3.639 -1.1965  0.2740  0.1132
 6185TIP3   OH218560   3.516   5.979   1.826  0.2474  0.1145  0.0572
 6185TIP3    H118561   3.521   5.886   1.848  3.6264  0.7046  2.6615
 6185TIP3    H218562   3.449   6.014   1.885  1.2864 -0.2180  1.5021
 6186TIP3   OH218563   1.683   3.337   4.136 -0.8179 -0.3519  0.0868
 6186TIP3    H118564   1.605   3.282   4.126 -0.3964 -1.2123  1.2807
 6186TIP3    H218565   1.752   3.288   4.089 -0.2944 -1.2131  1.6861
 6187TIP3   OH218566   3.403   2.963   1.373 -0.0463  0.4723 -0.2887
 6187TIP3    H118567   3.486   2.922   1.350 -0.3494  0.6592 -1.8000
 6187TIP3    H218568   3.337   2.896   1.356 -0.2124  0.2782  1.0357
 6188TIP3   OH218569   0.811   5.759   3.849 -0.2017  0.0317 -0.8844
 6188TIP3    H118570   0.840   5.668   3.850 -1.6135 -0.4547 -1.5727
 6188TIP3    H218571   0.874   5.804   3.792  0.7978 -0.3834 -0.1363
 6189TIP3   OH218572   6.055   1.692   2.708  0.2287  0.1776 -0.6258
 6189TIP3    H118573   6.047   1.641   2.789 -0.5840 -0.5937 -1.1684
 6189TIP3    H218574   6.006   1.641   2.643  1.1042  0.6391 -1.6710
 6190TIP3   OH218575   5.516   3.724   1.483 -0.1032  0.4110  0.1106
 6190TIP3    H118576   5.560   3.682   1.557 -1.1243  1.4897  1.3899
 6190TIP3    H218577   5.501   3.653   1.421  0.9743 -0.4931  0.8370
 6191TIP3   OH218578   3.329   5.011   3.090 -0.2894 -0.2057 -0.1735
 6191TIP3    H118579   3.240   5.002   3.055 -0.3708  0.1557 -0.0604
 6191TIP3    H218580   3.348   4.925   3.129 -1.2405  0.2286  1.3246
 6192TIP3   OH218581   0.506   2.207   1.588  0.1749  0.0316 -0.0796
 6192TIP3    H118582   0.568   2.248   1.649  1.6843 -2.8580  0.5050
 6192TIP3    H218583   0.547   2.216   1.503 -0.0083  0.5933 -0.1141
 6193TIP3   OH218584   1.213   5.996   0.107  0.6145  0.2979 -0.1798
 6193TIP3    H118585   1.242   5.905   0.120  0.3771 -0.2621 -2.8872
 6193TIP3    H218586   1.147   5.989   0.038  0.0637  2.4780  0.0790
 6194TIP3   OH218587   2.381   2.303   5.026  0.4781 -0.1268 -0.1711
 6194TIP3    H118588   2.451   2.238   5.017 -0.0547 -0.5785 -1.1078
 6194TIP3    H218589   2.300   2.254   5.015  0.0898  1.0397 -3.6527
 6195TIP3   OH218590   0.781   5.218   1.301 -0.0504 -0.1004  0.4761
 6195TIP3    H118591   0.782   5.313   1.310  0.1361 -0.1114  0.5789
 6195TIP3    H218592   0.710   5.188   1.358  0.0857 -0.0450  0.6772
 6196TIP3   OH218593   3.617   2.960   3.624 -0.2533 -0.2335  0.2330
 6196TIP3    H118594   3.708   2.936   3.611 -0.9922 -2.7706 -0.9388
 6196TIP3    H218595   3.605   3.039   3.572  0.8124 -1.0412 -1.3322
 6197TIP3   OH218596   1.807   3.447   4.412 -0.4179  0.3536 -0.3729
 6197TIP3    H118597   1.853   3.415   4.334 -0.3275 -0.5590  0.0385
 6197TIP3    H218598   1.729   3.490   4.378 -3.0925 -4.2773 -0.9202
 6198TIP3   OH218599   3.405   1.795   4.660 -0.1046  0.0423  0.3086
 6198TIP3    H118600   3.498   1.782   4.639 -0.1123  1.1399 -0.4835
 6198TIP3    H218601   3.399   1.776   4.754  0.9014 -0.1087  0.3587
 6199TIP3   OH218602   1.350   5.098   0.310 -0.6666  0.2534 -0.4146
 6199TIP3    H118603   1.364   5.015   0.265  0.0541  0.2039 -0.1093
 6199TIP3    H218604   1.255   5.106   0.316 -0.7545 -1.4373  1.1786
 6200TIP3   OH218605   0.022   1.879   4.768  0.5379  0.1720  0.1808
 6200TIP3    H118606  -0.024   1.958   4.794 -1.4739 -0.7438 -0.3969
 6200TIP3    H218607   0.034   1.888   4.673 -1.8699 -1.1750 -0.3412
 6201TIP3   OH218608   0.812   0.645   1.635  0.1677 -0.2069  0.3878
 6201TIP3    H118609   0.761   0.707   1.687 -0.9629  1.2971 -2.2652
 6201TIP3    H218610   0.898   0.685   1.627  0.5680 -0.7886  1.6111
 6202TIP3   OH218611   0.292   4.161   5.092  0.9051  0.6936 -0.1657
 6202TIP3    H118612   0.255   4.137   5.177  0.5935  0.5258 -0.3470
 6202TIP3    H218613   0.384   4.134   5.097  1.0196  1.1293  0.2972
 6203TIP3   OH218614   2.629   1.906   0.860  0.2668  1.1780  0.4308
 6203TIP3    H118615   2.722   1.926   0.871  1.0557 -0.6372 -2.0381
 6203TIP3    H218616   2.622   1.813   0.881 -1.3310  1.6273  2.0627
 6204TIP3   OH218617   5.680   4.752   0.572 -0.1962 -0.0409  0.1037
 6204TIP3    H118618   5.712   4.739   0.483  2.2762 -0.7567  1.0036
 6204TIP3    H218619   5.610   4.687   0.582  0.2102 -0.6846 -1.0040
 6205TIP3   OH218620   1.766   3.931   2.561 -0.0244 -0.1348 -0.2438
 6205TIP3    H118621   1.747   3.969   2.475  0.4823  0.5124 -0.0834
 6205TIP3    H218622   1.788   4.007   2.615 -2.7608 -0.2160  1.1658
 6206TIP3   OH218623   2.917   2.805   3.036  0.2557 -0.1005  0.8593
 6206TIP3    H118624   2.952   2.730   2.987 -0.1270  0.3565 -0.1562
 6206TIP3    H218625   2.840   2.832   2.985  0.4470  1.0373  1.1557
 6207TIP3   OH218626   5.651   0.549   3.041  0.6466  0.5533  0.6049
 6207TIP3    H118627   5.720   0.484   3.060  1.3684  1.0064 -0.3939
 6207TIP3    H218628   5.699   0.631   3.029  0.0679  0.6472 -1.3025
 6208TIP3   OH218629   1.006   4.314   1.200  0.1884 -0.0888  0.1173
 6208TIP3    H118630   0.986   4.395   1.247  0.7310  0.2320 -0.1900
 6208TIP3    H218631   1.056   4.343   1.123  1.1905 -0.7925  0.4853
 6209TIP3   OH218632   2.651   3.267   1.463 -0.1347  0.7156 -0.5530
 6209TIP3    H118633   2.605   3.316   1.532  0.9509  0.2699  0.5340
 6209TIP3    H218634   2.606   3.183   1.459  0.9905 -0.0348  1.0831
 6210TIP3   OH218635   3.721   5.362   0.595  0.4176  0.3565  0.5255
 6210TIP3    H118636   3.806   5.317   0.590 -0.4987 -2.0630  3.5086
 6210TIP3    H218637   3.663   5.308   0.540  0.7278  2.1709 -1.7499
 6211TIP3   OH218638   5.986   5.334   5.126  0.0877 -0.2283 -0.1372
 6211TIP3    H118639   5.906   5.314   5.077  0.4964 -0.4752 -0.7116
 6211TIP3    H218640   6.035   5.252   5.126  1.4674  0.5144 -1.9318
 6212TIP3   OH218641   6.327   1.363   2.371 -0.6374 -0.0515 -0.1647
 6212TIP3    H118642   6.245   1.411   2.380 -1.2100 -0.8409 -1.0819
 6212TIP3    H218643   6.302   1.271   2.372  0.1831 -0.2969 -0.9228
 6213TIP3   OH218644   4.946   1.063   2.296  0.1858 -0.0247 -0.0614
 6213TIP3    H118645   4.877   1.010   2.254  0.8369 -1.2331  0.3439
 6213TIP3    H218646   5.026   1.011   2.285  0.5666  0.1240  1.7318
 6214TIP3   OH218647   1.597   3.330   0.949 -0.1217 -0.4915 -0.1629
 6214TIP3    H118648   1.503   3.346   0.939 -0.1844 -1.4537 -1.2769
 6214TIP3    H218649   1.605   3.280   1.030 -0.6924 -1.3312 -0.6155
 6215TIP3   OH218650   1.230   3.949   1.768  0.4512 -0.1828  0.0363
 6215TIP3    H118651   1.203   3.952   1.677  1.9141 -0.5957 -0.4440
 6215TIP3    H218652   1.222   4.039   1.799 -2.8826 -0.4778  0.4442
 6216TIP3   OH218653   0.645   1.643   4.939 -0.7203  0.4990  0.1944
 6216TIP3    H118654   0.570   1.646   4.999  0.4665  3.3680  1.7447
 6216TIP3    H218655   0.715   1.605   4.992 -0.8531 -1.6381 -1.0676
 6217TIP3   OH218656   4.049   4.237   1.714  0.3536 -0.4498  0.0199
 6217TIP3    H118657   4.116   4.197   1.659 -0.2619 -3.5545  1.3122
 6217TIP3    H218658   3.974   4.250   1.655  1.0461  0.2244 -0.7431
 6218TIP3   OH218659   4.886   4.335   1.142  0.5793  0.1846 -0.1516
 6218TIP3    H118660   4.877   4.430   1.137 -2.4508  0.0201  0.2023
 6218TIP3    H218661   4.871   4.305   1.053  3.2407  0.0261 -0.6352
 6219TIP3   OH218662   0.659   3.209   4.943 -0.0399 -0.3134  0.0805
 6219TIP3    H118663   0.689   3.118   4.943  0.2422 -0.2211  0.4540
 6219TIP3    H218664   0.710   3.251   5.011 -1.4101 -0.2776  1.1230
 6220TIP3   OH218665   4.660   3.691   2.462 -0.1509  0.3697  0.4938
 6220TIP3    H118666   4.628   3.616   2.513  2.2353 -0.8788  0.3406
 6220TIP3    H218667   4.585   3.720   2.411 -1.2957 -1.6297  0.9390
 6221TIP3   OH218668   4.605   0.967   5.172 -0.1087 -0.2640  0.2352
 6221TIP3    H118669   4.652   1.001   5.248 -0.4320  1.7611 -0.3867
 6221TIP3    H218670   4.655   0.998   5.097 -0.0143 -1.8882 -0.4105
 6222TIP3   OH218671   0.600   1.025   4.843  0.0887  0.3305 -0.3620
 6222TIP3    H118672   0.651   0.962   4.894 -2.2843 -1.9167 -0.5390
 6222TIP3    H218673   0.548   0.971   4.783 -0.8252  2.5960 -1.7528
 6223TIP3   OH218674   1.820   2.383   5.027 -0.3612  0.5579  0.1523
 6223TIP3    H118675   1.767   2.365   4.949  0.6966  1.0801 -0.7075
 6223TIP3    H218676   1.870   2.303   5.041 -0.4934  0.4923  0.2534
 6224TIP3   OH218677   2.662   1.665   4.786 -0.4519  0.0561  0.6366
 6224TIP3    H118678   2.744   1.617   4.798 -0.4386 -0.1272 -0.1811
 6224TIP3    H218679   2.686   1.757   4.796 -0.0894  0.0241  0.0950
 6225TIP3   OH218680   2.658   1.500   3.542  0.0470  0.0293 -0.2134
 6225TIP3    H118681   2.718   1.480   3.470 -1.7363  1.6360 -2.2624
 6225TIP3    H218682   2.672   1.593   3.560 -0.0188 -0.1881  1.1009
 6226TIP3   OH218683   3.979   1.686   3.911  0.0520 -0.1696 -0.2123
 6226TIP3    H118684   4.003   1.703   3.820  0.3902  0.9125  0.0586
 6226TIP3    H218685   3.888   1.657   3.907  0.4520 -1.3619 -0.9921
 6227TIP3   OH218686   2.586   0.134   4.596 -0.4407 -0.1567 -0.2727
 6227TIP3    H118687   2.641   0.071   4.549 -1.1188 -0.2563 -0.9435
 6227TIP3    H218688   2.636   0.155   4.675  0.2079 -0.8334 -0.4938
 6228TIP3   OH218689   5.379   2.222   1.753 -0.8046  0.4955 -0.0495
 6228TIP3    H118690   5.388   2.131   1.779 -0.4639  0.1926 -1.2116
 6228TIP3    H218691   5.301   2.225   1.698 -1.2292  1.0428  0.5632
 6229TIP3   OH218692   4.322   2.504   4.001 -0.0563 -0.1485 -0.4396
 6229TIP3    H118693   4.323   2.517   3.906  1.0944 -0.6013 -0.5082
 6229TIP3    H218694   4.393   2.560   4.033  0.4478 -1.0067 -0.0103
 6230TIP3   OH218695   3.267   4.905   0.817 -0.7018  0.5337  0.0777
 6230TIP3    H118696   3.326   4.854   0.872 -0.6273 -1.0618 -1.4143
 6230TIP3    H218697   3.320   4.976   0.783 -0.4776  0.9159  1.1768
 6231TIP3   OH218698   4.980   0.259   3.564  0.0988 -0.3575  0.3670
 6231TIP3    H118699   4.933   0.206   3.500  0.6579  0.5703 -0.8818
 6231TIP3    H218700   4.956   0.349   3.542  1.7546  0.0921  0.2266
 6232TIP3   OH218701   3.148   5.954   5.166 -0.4998  0.2838 -0.1814
 6232TIP3    H118702   3.193   5.940   5.249 -1.4609 -0.9851  0.1488
 6232TIP3    H218703   3.211   5.926   5.099  0.9992  3.0016 -0.0773
 6233TIP3   OH218704   2.636   1.113   0.516 -0.2261  0.3579  0.3048
 6233TIP3    H118705   2.709   1.151   0.467  0.8809 -2.1259 -0.1149
 6233TIP3    H218706   2.558   1.151   0.476  0.6264 -1.0710 -3.0733
 6234TIP3   OH218707   0.900   4.590   3.234  0.0483 -0.4148  0.6155
 6234TIP3    H118708   0.820   4.636   3.261 -1.0224 -1.8499  0.0155
 6234TIP3    H218709   0.955   4.590   3.312 -1.4844 -1.3677  1.7570
 6235TIP3   OH218710   0.344   4.378   1.955  0.6457 -0.0848 -0.1945
 6235TIP3    H118711   0.384   4.320   2.019 -0.1719 -0.4144  0.0349
 6235TIP3    H218712   0.262   4.335   1.932  0.2304  0.7659 -0.3492
 6236TIP3   OH218713   5.563   2.504   3.460 -0.1348  0.6097  0.2860
 6236TIP3    H118714   5.489   2.536   3.510  0.8439  1.0888  1.4899
 6236TIP3    H218715   5.627   2.477   3.526  0.2176 -1.1364 -0.7097
 6237TIP3   OH218716   2.174   4.699   1.218  0.0342  0.2894 -0.0627
 6237TIP3    H118717   2.267   4.699   1.197  0.1176  0.3192  0.3169
 6237TIP3    H218718   2.164   4.764   1.287 -0.2155  0.0292  0.1496
 6238TIP3   OH218719   4.460   0.391   0.439 -0.3857  0.5565 -0.4895
 6238TIP3    H118720   4.377   0.374   0.484 -0.4525 -0.7239 -1.0778
 6238TIP3    H218721   4.514   0.315   0.459  0.4939  1.1723 -0.4894
 6239TIP3   OH218722   3.059   3.640   4.166 -0.2268 -0.6393  0.5890
 6239TIP3    H118723   3.051   3.731   4.137 -0.9180 -1.0985 -0.6774
 6239TIP3    H218724   2.977   3.622   4.210 -0.1006 -0.6730  0.8138
 6240TIP3   OH218725   6.086   1.272   1.821  0.4301  0.0339 -0.9370
 6240TIP3    H118726   6.104   1.275   1.915 -0.5782  0.2988 -0.7386
 6240TIP3    H218727   6.065   1.180   1.803 -2.2672  0.4261 -0.2901
 6241TIP3   OH218728   3.637   3.721   0.627  0.5199  0.0820  0.9104
 6241TIP3    H118729   3.697   3.707   0.700  1.9603 -1.1096 -0.4591
 6241TIP3    H218730   3.593   3.637   0.616 -0.0867  0.4168  0.7112
 6242TIP3   OH218731   1.086   0.273   1.658 -0.3012 -0.0911 -0.1235
 6242TIP3    H118732   1.096   0.255   1.564  0.3621  0.6831 -0.2116
 6242TIP3    H218733   0.996   0.306   1.666 -0.2204  0.2508 -0.5572
 6243TIP3   OH218734   4.967   4.808   4.323 -0.0907  0.1544  0.2400
 6243TIP3    H118735   4.918   4.772   4.248  0.2795 -0.6681  0.3721
 6243TIP3    H218736   5.052   4.834   4.285  0.9976 -2.3516  0.6922
 6244TIP3   OH218737   2.726   3.929   2.233  0.0330 -0.3963  0.3030
 6244TIP3    H118738   2.783   3.876   2.178  0.5162 -0.0221  0.4357
 6244TIP3    H218739   2.721   4.014   2.187  0.3700 -0.1111  0.7915
 6245TIP3   OH218740   5.891   0.673   3.264 -0.0976 -0.2579  0.2530
 6245TIP3    H118741   5.925   0.755   3.300 -0.5267 -0.0530  0.2058
 6245TIP3    H218742   5.861   0.623   3.340 -0.6876  0.0292  0.2196
 6246TIP3   OH218743   5.911   0.263   0.486  0.5495  0.1974  0.7756
 6246TIP3    H118744   5.983   0.213   0.525 -0.0554 -0.5918  0.9244
 6246TIP3    H218745   5.854   0.196   0.447  0.2932  0.8568 -0.0239
 6247TIP3   OH218746   2.989   5.905   3.880  0.1191  0.2503 -0.4910
 6247TIP3    H118747   3.061   5.931   3.937 -0.2665  2.0690 -0.7857
 6247TIP3    H218748   3.012   5.816   3.852  1.3757  0.1387  0.7650
 6248TIP3   OH218749   2.392   4.963   0.030  0.3062  0.2324 -0.4194
 6248TIP3    H118750   2.446   5.022  -0.022  0.8594  1.6864  1.6562
 6248TIP3    H218751   2.320   5.017   0.062 -0.1879 -0.6751  0.0682
 6249TIP3   OH218752   5.744   2.153   4.465 -0.3384 -0.3332 -0.5462
 6249TIP3    H118753   5.709   2.225   4.413 -1.6394 -2.2116 -2.4370
 6249TIP3    H218754   5.772   2.088   4.400  3.4698 -0.4777  0.9634
 6250TIP3   OH218755   2.537   1.849   0.556  0.2419 -0.7390 -0.2516
 6250TIP3    H118756   2.539   1.879   0.647  0.4093 -1.3141 -0.0558
 6250TIP3    H218757   2.627   1.820   0.539  1.7079  4.0462 -2.2672
 6251TIP3   OH218758   2.613   4.390   0.482  0.5051 -0.1466 -0.2301
 6251TIP3    H118759   2.547   4.382   0.550  1.1042  1.9514  0.6880
 6251TIP3    H218760   2.589   4.469   0.434  2.6252  1.0390  0.5298
 6252TIP3   OH218761   5.182   0.631   1.524 -0.4226 -0.3991 -0.4310
 6252TIP3    H118762   5.238   0.647   1.448 -0.4026 -0.4189 -0.4204
 6252TIP3    H218763   5.241   0.643   1.599 -0.6922  0.7117 -0.3743
 6253TIP3   OH218764   2.233   2.091   0.642 -0.4797  0.0497 -0.4137
 6253TIP3    H118765   2.175   2.150   0.691  0.9037  1.1066  0.0076
 6253TIP3    H218766   2.240   2.014   0.697  0.2751  0.8290  0.6063
 6254TIP3   OH218767   0.337   1.896   4.880 -0.5652  0.0778 -0.1809
 6254TIP3    H118768   0.419   1.945   4.877 -0.5342 -0.0132 -1.3558
 6254TIP3    H218769   0.270   1.962   4.900 -0.2978  0.2635  0.1210
 6255TIP3   OH218770   5.740   0.942   3.790 -0.2512  0.2062 -0.2074
 6255TIP3    H118771   5.722   0.849   3.802 -1.2010  0.5318  1.1687
 6255TIP3    H218772   5.655   0.985   3.803  0.4262  1.3732  0.5690
 6256TIP3   OH218773   1.325   0.940   3.228  0.1350 -0.1007  0.2768
 6256TIP3    H118774   1.415   0.926   3.257  0.8177  2.6450 -0.3039
 6256TIP3    H218775   1.281   0.978   3.303  0.3335  1.4550 -0.3554
 6257TIP3   OH218776   1.616   1.053   4.835 -0.2324  0.2710 -0.1165
 6257TIP3    H118777   1.673   1.090   4.902 -1.0123  1.1280  0.0836
 6257TIP3    H218778   1.604   1.124   4.772 -0.1387 -0.2776 -0.7632
 6258TIP3   OH218779   2.307   1.384   2.609  0.7888 -0.2419  0.2804
 6258TIP3    H118780   2.357   1.327   2.551 -0.4857  0.1724 -1.3050
 6258TIP3    H218781   2.342   1.472   2.594 -0.5923  0.1253 -1.1853
 6259TIP3   OH218782   1.888   0.303   0.114 -0.1365  0.2979 -0.2385
 6259TIP3    H118783   1.932   0.333   0.035  0.2668  1.5198  0.4091
 6259TIP3    H218784   1.834   0.378   0.141  0.2594  0.1651  0.9984
 6260TIP3   OH218785   2.284   0.644   1.228 -0.1581  0.0413 -0.0373
 6260TIP3    H118786   2.206   0.625   1.280  0.2889 -1.3821  0.1617
 6260TIP3    H218787   2.347   0.679   1.291 -0.4717  0.7792 -0.1199
 6261TIP3   OH218788   4.794   3.017   2.113 -0.2703 -0.0636 -0.0744
 6261TIP3    H118789   4.804   2.970   2.030 -1.6684 -0.8348  0.1610
 6261TIP3    H218790   4.869   3.076   2.116  0.0031 -0.2700 -1.7167
 6262TIP3   OH218791   4.928   2.434   2.011  0.2373 -0.0256 -0.3551
 6262TIP3    H118792   4.905   2.474   2.095  0.7604 -2.1305  0.8677
 6262TIP3    H218793   5.017   2.400   2.024  1.7684  2.5353 -2.9270
 6263TIP3   OH218794   4.358   5.391   3.815  0.0394 -0.0391 -0.2145
 6263TIP3    H118795   4.422   5.415   3.882  1.4794 -0.9236 -1.2118
 6263TIP3    H218796   4.371   5.297   3.801 -2.2182 -0.4828  0.2748
 6264TIP3   OH218797   4.807   3.005   4.192 -0.3717  0.3622 -0.0252
 6264TIP3    H118798   4.712   2.994   4.189 -0.8253  2.7345  2.1805
 6264TIP3    H218799   4.835   2.952   4.267 -0.0202  0.2006 -0.2643
 6265TIP3   OH218800   5.915   1.266   1.212 -0.0337 -0.2716  0.1624
 6265TIP3    H118801   5.949   1.183   1.243 -0.5157 -0.6060 -0.1839
 6265TIP3    H218802   5.828   1.273   1.252  0.5298  0.7166  1.2892
 6266TIP3   OH218803   0.065   0.235   4.578  0.3052  0.1089  0.1973
 6266TIP3    H118804  -0.004   0.265   4.518 -0.1892 -1.5490 -0.1206
 6266TIP3    H218805   0.049   0.141   4.587 -0.0896  0.3657  3.5399
 6267TIP3   OH218806   4.924   2.267   4.710  0.8654  0.4864 -0.3587
 6267TIP3    H118807   4.978   2.293   4.636 -0.1758  0.3186 -1.2122
 6267TIP3    H218808   4.841   2.315   4.697  0.9835  1.1924  1.2208
 6268TIP3   OH218809   2.584   2.974   3.146  0.3646  0.0193  0.3859
 6268TIP3    H118810   2.619   2.894   3.184 -0.2349 -1.1161 -1.3318
 6268TIP3    H218811   2.623   2.978   3.059 -0.7107  0.8394 -0.0746
 6269TIP3   OH218812   2.121   2.065   3.908 -0.0733  0.4392 -0.4841
 6269TIP3    H118813   2.087   2.127   3.844 -0.2890 -0.6474 -1.4587
 6269TIP3    H218814   2.206   2.038   3.873 -0.4887 -0.6630 -0.6506
 6270TIP3   OH218815   2.432   0.423   4.950  0.1158  0.0740  0.1455
 6270TIP3    H118816   2.496   0.460   4.889  0.0229  0.7498  0.4505
 6270TIP3    H218817   2.389   0.500   4.989 -0.4096 -0.3636  0.4403
 6271TIP3   OH218818   3.396   0.564   3.270 -0.1862  0.2933  0.3000
 6271TIP3    H118819   3.489   0.555   3.293  0.2504  0.6464 -1.2384
 6271TIP3    H218820   3.388   0.654   3.238 -0.9948  0.1569  0.1025
 6272TIP3   OH218821   5.770   3.784   1.092 -0.1442  0.2424  0.4158
 6272TIP3    H118822   5.807   3.852   1.149  0.0793  0.5756 -0.1219
 6272TIP3    H218823   5.821   3.705   1.113 -0.2076  0.3074  0.8271
 6273TIP3   OH218824   5.439   5.281   1.815 -0.4624  0.1423 -0.2094
 6273TIP3    H118825   5.458   5.302   1.907 -0.7839 -1.3057  0.2174
 6273TIP3    H218826   5.497   5.208   1.795 -0.0951  0.7111 -1.3194
 6274TIP3   OH218827   3.846   4.765   0.099  0.0713  0.1407 -0.1116
 6274TIP3    H118828   3.770   4.823   0.096 -0.5641 -0.6104  0.9736
 6274TIP3    H218829   3.897   4.795   0.174 -0.0200 -0.3985  0.1714
 6275TIP3   OH218830   2.398   4.005   4.288 -0.0793 -0.5616  0.3821
 6275TIP3    H118831   2.422   4.095   4.268 -0.5619 -0.4179  0.4294
 6275TIP3    H218832   2.476   3.967   4.327  0.2184 -0.2498  0.0928
 6276TIP3   OH218833   1.233   1.137   1.940  0.5594  0.4084  0.3741
 6276TIP3    H118834   1.198   1.225   1.925 -0.2015  0.0051 -0.2963
 6276TIP3    H218835   1.164   1.091   1.988  0.7332  0.0186  0.2605
 6277TIP3   OH218836   3.598   5.583   1.290  0.3354  0.0018 -0.2188
 6277TIP3    H118837   3.620   5.628   1.372 -0.7657 -0.4931  0.3689
 6277TIP3    H218838   3.568   5.653   1.232 -0.5165  0.1712  0.3968
 6278TIP3   OH218839   1.239   5.131   3.803  0.3605  0.2920 -0.2078
 6278TIP3    H118840   1.211   5.143   3.713 -1.6413  1.6335  0.5132
 6278TIP3    H218841   1.331   5.156   3.803  0.6250 -0.5198 -1.9953
 6279TIP3   OH218842   2.310   4.966   2.567  0.5511 -0.4745  0.3155
 6279TIP3    H118843   2.347   4.889   2.610 -2.0928 -1.5149  0.9631
 6279TIP3    H218844   2.265   5.013   2.637  1.7491  1.5073 -0.1553
 6280TIP3   OH218845   4.597   1.685   3.400 -0.1174 -0.4834  0.1268
 6280TIP3    H118846   4.640   1.601   3.379 -0.5149 -0.4609 -0.8424
 6280TIP3    H218847   4.552   1.709   3.319  1.5099  1.6051 -0.2187
 6281TIP3   OH218848   3.582   4.898   0.714  0.3290  0.4352 -0.3768
 6281TIP3    H118849   3.545   4.829   0.659  0.9824 -0.9399  0.8392
 6281TIP3    H218850   3.615   4.963   0.652  0.3230 -0.6799 -1.5923
 6282TIP3   OH218851   2.882   2.522   4.197 -0.1693 -0.1048 -0.1023
 6282TIP3    H118852   2.829   2.593   4.162 -0.6012 -0.4971 -0.2589
 6282TIP3    H218853   2.960   2.521   4.142 -0.8056 -0.6679 -1.0268
 6283TIP3   OH218854   1.784   0.554   2.088 -0.3849  0.0883  0.2471
 6283TIP3    H118855   1.856   0.577   2.028 -0.3591 -1.3063 -0.3006
 6283TIP3    H218856   1.733   0.635   2.096  0.0661  0.5378 -1.0342
 6284TIP3   OH218857   3.446   4.361   4.531 -0.1492 -0.6732  0.2777
 6284TIP3    H118858   3.442   4.301   4.457  1.0355 -0.6279  0.1663
 6284TIP3    H218859   3.482   4.442   4.495  0.7598 -0.7596  0.9559
 6285TIP3   OH218860   1.334   3.522   4.970  0.2088  0.1082 -0.3322
 6285TIP3    H118861   1.314   3.519   4.877 -0.2368 -1.5678 -0.2153
 6285TIP3    H218862   1.268   3.580   5.008  0.8872  1.4598 -1.1380
 6286TIP3   OH218863   5.649   1.549   3.572  0.3792 -0.7187 -0.3703
 6286TIP3    H118864   5.624   1.549   3.665  1.5219 -0.8052 -0.0413
 6286TIP3    H218865   5.609   1.628   3.536  0.0305 -0.6173  0.2320
 6287TIP3   OH218866   0.204   3.184   2.903 -0.1952 -0.1635  0.3335
 6287TIP3    H118867   0.212   3.183   2.808 -0.0004  0.1586  0.3482
 6287TIP3    H218868   0.210   3.276   2.928  3.0051 -0.4029  0.9199
 6288TIP3   OH218869   0.781   2.503   3.559  0.1194 -0.1066 -0.2092
 6288TIP3    H118870   0.873   2.527   3.551 -0.2656  1.9302  0.7098
 6288TIP3    H218871   0.743   2.526   3.475  0.0055  1.4912  0.2453
 6289TIP3   OH218872   0.727   2.675   2.435  0.0566 -0.3548 -0.5094
 6289TIP3    H118873   0.716   2.583   2.461  1.2584 -0.1641  0.7669
 6289TIP3    H218874   0.722   2.724   2.517  1.6915  0.5045 -0.8870
 6290TIP3   OH218875   4.399   3.183   1.562 -0.2754  0.0041 -0.5223
 6290TIP3    H118876   4.471   3.243   1.580  1.6653 -1.6452 -2.1735
 6290TIP3    H218877   4.357   3.169   1.646  1.1545  1.2599  0.4484
 6291TIP3   OH218878   0.330   3.880   4.419  0.0221 -0.3027  0.0745
 6291TIP3    H118879   0.308   3.799   4.373  0.3774  0.5154 -1.6126
 6291TIP3    H218880   0.389   3.926   4.359  0.6692  0.7267  1.4652
 6292TIP3   OH218881   1.538   3.370   3.549 -0.0578 -0.2606  0.1290
 6292TIP3    H118882   1.520   3.457   3.513 -1.1557  0.6166  2.5932
 6292TIP3    H218883   1.633   3.368   3.560  0.3800 -0.6776 -2.8399
 6293TIP3   OH218884   4.371   5.591   2.541 -0.7555  0.4280 -0.1931
 6293TIP3    H118885   4.334   5.629   2.621 -1.1222 -1.5924  0.6529
 6293TIP3    H218886   4.393   5.501   2.565 -1.7075 -0.5304 -2.6081
 6294TIP3   OH218887   4.532   2.182   0.113  0.1733 -0.1277 -0.2324
 6294TIP3    H118888   4.503   2.256   0.060  0.0891  0.6873  0.9179
 6294TIP3    H218889   4.470   2.112   0.094 -1.4461  0.9857  0.7647
 6295TIP3   OH218890   4.377   3.555   4.069  0.2403 -0.1143  0.1730
 6295TIP3    H118891   4.458   3.596   4.100 -0.4026 -0.0159  1.7953
 6295TIP3    H218892   4.378   3.467   4.108 -0.8490  0.1974  0.9253
 6296TIP3   OH218893   4.363   1.572   1.477  0.5788 -0.1661 -0.5100
 6296TIP3    H118894   4.351   1.631   1.402  0.7766  0.7990  0.1956
 6296TIP3    H218895   4.337   1.624   1.553  0.4557 -1.1047  0.1126
 6297TIP3   OH218896   1.447   2.977   3.253  0.7687  0.1802 -0.1294
 6297TIP3    H118897   1.405   3.049   3.299  0.2181  0.2447 -0.7087
 6297TIP3    H218898   1.519   2.949   3.310 -0.0521  0.0809  0.8710
 6298TIP3   OH218899   3.488   3.255   1.347  0.1399  0.0652  0.1466
 6298TIP3    H118900   3.446   3.169   1.356 -1.0822  0.7428  1.3457
 6298TIP3    H218901   3.535   3.267   1.430 -0.0785  0.7276  0.1791
 6299TIP3   OH218902   1.037   4.415   3.000 -0.3785 -0.3782 -0.3239
 6299TIP3    H118903   0.985   4.466   3.063 -0.1691 -2.2906  1.5167
 6299TIP3    H218904   1.127   4.446   3.012 -0.5693  0.4454 -0.9415
 6300TIP3   OH218905   3.191   4.907   1.524  0.0574  0.1106  1.0258
 6300TIP3    H118906   3.111   4.946   1.491  0.4376  0.0455 -0.0262
 6300TIP3    H218907   3.195   4.932   1.616 -1.4801 -0.4132  1.2502
 6301TIP3   OH218908   3.343   5.139   4.719 -0.4681  0.0746  0.2670
 6301TIP3    H118909   3.365   5.219   4.671  0.8258 -1.6000 -2.1712
 6301TIP3    H218910   3.416   5.127   4.780  0.5195 -0.4051 -0.9795
 6302TIP3   OH218911   2.936   5.187   3.454 -0.2967 -0.1107  0.0839
 6302TIP3    H118912   3.010   5.149   3.501 -0.6152 -0.8692  0.0018
 6302TIP3    H218913   2.973   5.219   3.372  0.0636  0.1865  0.3603
 6303TIP3   OH218914   2.491   2.194   0.538 -0.1928  0.1249  0.2637
 6303TIP3    H118915   2.416   2.160   0.587 -1.1813  0.2992 -1.0642
 6303TIP3    H218916   2.536   2.116   0.506 -1.4356 -0.0350 -1.2658
 6304TIP3   OH218917   5.548   3.914   3.453 -0.1646  0.1360  0.5430
 6304TIP3    H118918   5.554   3.996   3.502  1.3963 -0.0145  0.6669
 6304TIP3    H218919   5.459   3.912   3.418 -0.2582  1.8210  0.6454
 6305TIP3   OH218920   4.603   3.682   4.494  0.1271  0.2866 -0.4003
 6305TIP3    H118921   4.535   3.648   4.436 -0.5368 -0.6143  0.8637
 6305TIP3    H218922   4.560   3.691   4.579  1.5370 -0.1605  0.3944
 6306TIP3   OH218923   4.101   4.575   4.446 -0.1924  0.6317  0.2253
 6306TIP3    H118924   4.006   4.574   4.457 -0.1928  0.2549  0.1912
 6306TIP3    H218925   4.135   4.603   4.531 -0.2687 -0.6726  0.7050
 6307TIP3   OH218926   4.582   0.159   1.019  0.2925 -0.4783 -0.1666
 6307TIP3    H118927   4.637   0.201   1.086 -0.0359 -0.0802 -0.1447
 6307TIP3    H218928   4.521   0.228   0.991  0.9661 -0.3834 -1.4836
 6308TIP3   OH218929   4.071   3.580   1.017  0.3583 -0.3944  0.0333
 6308TIP3    H118930   4.126   3.628   0.956 -1.2453  0.4851 -0.7904
 6308TIP3    H218931   4.103   3.490   1.012  0.8544 -0.1680 -1.4331
 6309TIP3   OH218932   4.700   0.497   0.411 -0.4873 -0.1778 -0.2224
 6309TIP3    H118933   4.709   0.468   0.320 -1.2487 -1.0694 -0.0281
 6309TIP3    H218934   4.625   0.448   0.445 -0.4911  0.4715  0.7623
 6310TIP3   OH218935   5.726   4.691   2.947  0.6502  0.2386 -0.7550
 6310TIP3    H118936   5.695   4.759   3.007  0.5371 -0.8263  0.4203
 6310TIP3    H218937   5.821   4.694   2.955  0.6516  0.3171 -0.7905
 6311TIP3   OH218938   2.180   2.247   1.632 -0.0728 -0.9978 -0.4026
 6311TIP3    H118939   2.153   2.283   1.548  1.2686 -1.7014 -1.1744
 6311TIP3    H218940   2.202   2.156   1.613  0.8105 -1.0137  0.5829
 6312TIP3   OH218941   5.947   3.632   3.646  0.1645  0.0271 -0.0614
 6312TIP3    H118942   5.904   3.708   3.608 -2.2189 -0.9231  0.5126
 6312TIP3    H218943   5.965   3.574   3.571 -2.4703 -0.8712 -0.1037
 6313TIP3   OH218944   1.395   1.245   5.131  0.0504 -0.0416  0.2211
 6313TIP3    H118945   1.389   1.279   5.221 -1.3303  1.2319 -0.3011
 6313TIP3    H218946   1.320   1.186   5.123  0.1960 -0.1834 -0.0784
 6314TIP3   OH218947   0.982   5.606   3.463 -0.0642 -0.0083 -0.4209
 6314TIP3    H118948   0.986   5.643   3.551 -1.2243  0.4992 -0.5550
 6314TIP3    H218949   1.046   5.536   3.463  0.9991  0.9263  0.3710
 6315TIP3   OH218950   2.445   0.827   4.429 -0.2260 -0.1971  0.2464
 6315TIP3    H118951   2.511   0.759   4.419  0.7343  0.9141 -1.5604
 6315TIP3    H218952   2.493   0.909   4.415 -1.7714  0.7079  0.0404
 6316TIP3   OH218953   5.489   2.704   0.746 -0.1170  0.3449  0.1172
 6316TIP3    H118954   5.443   2.720   0.663  0.9093 -0.6581 -0.6787
 6316TIP3    H218955   5.483   2.787   0.793  0.8577  1.5648 -1.7787
 6317TIP3   OH218956   3.995   5.949   0.092 -0.4366 -0.2926 -0.0276
 6317TIP3    H118957   4.083   5.962   0.058 -0.5174  0.1315 -0.0885
 6317TIP3    H218958   4.003   5.969   0.186 -0.7985  1.4635 -0.3213
 6318TIP3   OH218959   3.632   0.367   4.770  0.2650  0.4345 -0.6341
 6318TIP3    H118960   3.715   0.409   4.790  1.4455 -1.2966 -1.6547
 6318TIP3    H218961   3.603   0.329   4.853  2.4546 -2.1632 -0.9360
 6319TIP3   OH218962   5.722   0.062   3.217  0.7876  0.8782 -0.1701
 6319TIP3    H118963   5.744  -0.030   3.206 -0.9966  0.3649  0.1926
 6319TIP3    H218964   5.649   0.062   3.279  0.5636  2.5164 -0.3850
 6320TIP3   OH218965   2.148   1.451   3.360 -0.6973  0.0236 -0.1109
 6320TIP3    H118966   2.172   1.450   3.452 -0.7471  1.1728 -0.0735
 6320TIP3    H218967   2.154   1.543   3.334 -0.2323 -0.3409 -1.3732
 6321TIP3   OH218968   0.617   0.831   3.196 -0.0796  0.4414 -0.3623
 6321TIP3    H118969   0.552   0.762   3.202 -0.3541  0.7568  0.3195
 6321TIP3    H218970   0.639   0.853   3.286  1.5189 -0.1583 -0.5725
 6322TIP3   OH218971   2.344   4.491   1.352 -0.3946 -0.0140  0.0680
 6322TIP3    H118972   2.297   4.561   1.308  0.5987  0.9397  0.4744
 6322TIP3    H218973   2.292   4.472   1.430 -0.7819  0.1058 -0.1598
 6323TIP3   OH218974   2.412   2.888   0.816  0.1598  0.7541 -0.4617
 6323TIP3    H118975   2.382   2.843   0.737 -0.4549  1.1567 -0.4640
 6323TIP3    H218976   2.503   2.912   0.798  0.1486  0.4907 -0.8831
 6324TIP3   OH218977   0.979   2.869   4.621 -0.3273  0.3244  0.3284
 6324TIP3    H118978   1.071   2.892   4.630  0.5077 -2.0964 -1.0304
 6324TIP3    H218979   0.934   2.952   4.605  1.3331  1.7548  2.5841
 6325TIP3   OH218980   4.031   5.204   2.474  0.0951  0.2117 -0.1068
 6325TIP3    H118981   3.995   5.278   2.424 -1.2891  0.6062  1.3833
 6325TIP3    H218982   4.125   5.208   2.458 -0.1557  1.1203 -1.5905
 6326TIP3   OH218983   1.562   4.216   0.568 -0.0704  0.5219  0.6278
 6326TIP3    H118984   1.510   4.225   0.487  1.1089  0.7380 -0.1240
 6326TIP3    H218985   1.590   4.125   0.569 -1.0199  0.2243  1.3973
 6327TIP3   OH218986   4.617   0.552   3.745 -0.0601 -0.1791 -0.0333
 6327TIP3    H118987   4.571   0.614   3.688 -0.7843  1.2427  1.9745
 6327TIP3    H218988   4.619   0.596   3.830  1.7774 -1.8206  0.8335
 6328TIP3   OH218989   5.105   1.586   1.575 -0.5709  0.0053  0.0285
 6328TIP3    H118990   5.045   1.576   1.649 -0.1497 -1.5476  0.1929
 6328TIP3    H218991   5.189   1.554   1.607  0.0287  0.8424 -0.6400
 6329TIP3   OH218992   2.157   3.452   2.474 -0.0037 -0.1150 -0.3535
 6329TIP3    H118993   2.137   3.458   2.568 -0.1158  3.3383 -0.4715
 6329TIP3    H218994   2.253   3.461   2.470 -0.0455  0.1984 -0.6028
 6330TIP3   OH218995   6.358   2.940   3.589  0.1076 -0.0476 -0.1938
 6330TIP3    H118996   6.310   2.926   3.507 -0.3495 -0.1578  0.0878
 6330TIP3    H218997   6.309   3.009   3.635 -0.8740 -1.4304  0.9241
 6331TIP3   OH218998   4.528   5.506   5.045 -0.3233 -0.0212  0.2159
 6331TIP3    H118999   4.620   5.515   5.019 -0.1968 -1.9506 -0.1782
 6331TIP3    H219000   4.530   5.509   5.140  0.3760 -1.3659  0.2832
 6332TIP3   OH219001   3.233   0.852   0.217 -0.2857  0.2896  0.3060
 6332TIP3    H119002   3.326   0.875   0.208 -0.2222 -0.1439 -0.2193
 6332TIP3    H219003   3.212   0.873   0.308  0.3401  0.3508  0.4454
 6333TIP3   OH219004   0.264   4.161   3.878  0.2086  0.4082  0.1215
 6333TIP3    H119005   0.189   4.168   3.819  0.0828  0.2610  0.2645
 6333TIP3    H219006   0.228   4.176   3.965  0.2129 -0.3805  0.2693
 6334TIP3   OH219007   3.630   2.514   0.711  0.0925 -0.2655 -0.0010
 6334TIP3    H119008   3.608   2.435   0.761 -0.1106 -1.1140 -1.3630
 6334TIP3    H219009   3.704   2.487   0.656  1.4823  1.1514  1.0644
 6335TIP3   OH219010   5.389   3.628   3.616  0.6191  0.1972  0.3225
 6335TIP3    H119011   5.328   3.568   3.658 -2.6766  2.5330 -0.6803
 6335TIP3    H219012   5.390   3.705   3.673  2.4152  0.3803  0.0975
 6336TIP3   OH219013   6.087   0.991   1.878  0.0943  0.4139 -0.6473
 6336TIP3    H119014   6.164   0.956   1.834  0.2083 -0.4870  0.2289
 6336TIP3    H219015   6.022   0.920   1.873 -0.1664  0.6015 -0.0884
 6337TIP3   OH219016   4.658   4.786   3.978  0.7036  0.6452  0.1704
 6337TIP3    H119017   4.744   4.758   4.009 -0.3068 -1.7727  1.0345
 6337TIP3    H219018   4.627   4.714   3.923 -1.4563  0.6167  1.2933
 6338TIP3   OH219019   2.789   3.469   5.065 -0.3994  0.0425  0.1569
 6338TIP3    H119020   2.728   3.482   4.992  1.1162 -1.9772 -1.6140
 6338TIP3    H219021   2.801   3.374   5.069  1.6963  0.2935  1.1908
 6339TIP3   OH219022   2.074   3.479   3.116 -0.3496 -0.4748  0.2022
 6339TIP3    H119023   1.986   3.442   3.113 -0.4179 -0.3438  0.5191
 6339TIP3    H219024   2.099   3.472   3.208 -0.7644  1.2115  0.4682
 6340TIP3   OH219025   2.256   5.812   1.969  0.3129 -0.6635  0.2822
 6340TIP3    H119026   2.194   5.885   1.966 -1.1171 -1.8453 -0.3754
 6340TIP3    H219027   2.342   5.854   1.974 -0.3723  1.0898 -1.2895
 6341TIP3   OH219028   2.497   4.766   3.199 -0.3030 -0.1067  0.5223
 6341TIP3    H119029   2.589   4.748   3.180  0.0068  0.0117  1.7802
 6341TIP3    H219030   2.465   4.815   3.123  0.1345 -1.7986 -0.8072
 6342TIP3   OH219031   2.379   5.254   3.160 -0.1253 -0.0613 -0.1094
 6342TIP3    H119032   2.429   5.220   3.085 -0.1952  0.5367 -0.4312
 6342TIP3    H219033   2.336   5.333   3.126  1.5626  1.4769  1.1299
 6343TIP3   OH219034   3.113   1.575   1.228 -0.5759 -0.0218 -0.1776
 6343TIP3    H119035   3.103   1.657   1.276 -1.1169 -1.1936  1.7965
 6343TIP3    H219036   3.197   1.540   1.258 -0.7527 -0.6099 -0.3634
 6344TIP3   OH219037   1.451   2.245   3.531 -0.1531  0.2675 -0.3624
 6344TIP3    H119038   1.391   2.216   3.462  0.4927 -0.8159 -0.4927
 6344TIP3    H219039   1.415   2.329   3.560 -0.9517  0.2995 -1.3787
 6345TIP3   OH219040   2.487   2.249   1.931  0.1501  0.5837 -0.4859
 6345TIP3    H119041   2.503   2.313   2.001  1.0131 -0.3459  0.2083
 6345TIP3    H219042   2.508   2.296   1.850 -2.3551  2.1821 -0.3283
 6346TIP3   OH219043   3.938   5.069   4.482 -0.2335 -0.6799 -0.1284
 6346TIP3    H119044   3.923   5.119   4.402 -0.2087  0.2478  0.4325
 6346TIP3    H219045   3.988   4.993   4.454  0.5042  0.0660 -0.8634
 6347TIP3   OH219046   3.091   3.205   0.304 -0.2648  0.1626 -0.2426
 6347TIP3    H119047   3.045   3.232   0.383  0.3664 -1.1776  0.6207
 6347TIP3    H219048   3.050   3.122   0.280 -0.3788  0.5041 -1.2692
 6348TIP3   OH219049   1.542   5.491   5.109 -0.3829 -0.8003  0.5684
 6348TIP3    H119050   1.586   5.410   5.085  0.1553 -0.4006  0.1715
 6348TIP3    H219051   1.608   5.559   5.096 -0.3654 -0.4446  2.2259
 6349TIP3   OH219052   2.017   1.547   5.011 -0.7300  0.2209 -0.0168
 6349TIP3    H119053   2.108   1.535   4.984 -0.4390  1.8712  0.1283
 6349TIP3    H219054   1.973   1.579   4.932 -0.6827  1.5422  0.4736
 6350TIP3   OH219055   4.615   2.896   0.144  0.1084 -0.4009 -0.9236
 6350TIP3    H119056   4.533   2.849   0.156  1.3007 -2.3424  0.1154
 6350TIP3    H219057   4.667   2.840   0.086  0.7076  0.8162 -1.6096
 6351TIP3   OH219058   5.131   3.872   1.223  0.4209 -0.1543  0.0022
 6351TIP3    H119059   5.120   3.905   1.134 -0.8926 -1.2548 -0.2838
 6351TIP3    H219060   5.153   3.779   1.212  0.4102 -0.2650  0.8101
 6352TIP3   OH219061   6.226   5.554   4.539  0.4197  0.2028  0.5140
 6352TIP3    H119062   6.137   5.536   4.510 -0.1463  2.0715  0.9476
 6352TIP3    H219063   6.278   5.554   4.459 -0.2552  0.6394  0.0708
 6353TIP3   OH219064   1.136   5.458   4.878 -0.0654 -0.6396 -0.3197
 6353TIP3    H119065   1.214   5.453   4.822  0.7596 -2.5771  0.8934
 6353TIP3    H219066   1.164   5.510   4.953  0.4001 -2.1078  0.5576
 6354TIP3   OH219067   4.165   5.897   2.655  0.1781 -1.2084 -0.3258
 6354TIP3    H119068   4.183   5.828   2.719  0.7932 -0.6275  0.1431
 6354TIP3    H219069   4.098   5.951   2.697 -1.0535 -2.0824 -1.1207
 6355TIP3   OH219070   3.213   3.156   5.112 -0.4084 -0.0125  0.0654
 6355TIP3    H119071   3.222   3.251   5.114 -1.0210  0.0642  2.6767
 6355TIP3    H219072   3.302   3.124   5.098 -0.1957  0.9181 -0.8489
 6356TIP3   OH219073   3.665   5.953   0.295  0.3750 -0.2399 -0.0290
 6356TIP3    H119074   3.570   5.964   0.289  0.4075 -0.2338 -0.6408
 6356TIP3    H219075   3.685   5.959   0.388  0.0099  1.7374 -0.0384
 6357TIP3   OH219076   0.253   2.299   4.727  0.0846 -0.1164 -0.0709
 6357TIP3    H119077   0.340   2.337   4.739  0.5485 -0.6372 -1.6557
 6357TIP3    H219078   0.262   2.241   4.652 -1.6948  0.0011 -0.4057
 6358TIP3   OH219079   5.304   0.758   4.971  0.3890  0.0130 -0.1834
 6358TIP3    H119080   5.323   0.683   4.914  0.6798  0.3943 -0.5993
 6358TIP3    H219081   5.260   0.821   4.914  1.4195  0.7373 -0.2042
 6359TIP3   OH219082   4.755   0.650   2.481  0.4641 -0.3777 -0.3294
 6359TIP3    H119083   4.665   0.625   2.501 -0.0818  1.8064  0.2998
 6359TIP3    H219084   4.809   0.594   2.536 -0.6315 -0.3174  0.8590
 6360TIP3   OH219085   4.238   3.747   0.008  0.1389  0.2464 -0.4405
 6360TIP3    H119086   4.235   3.843   0.011 -2.0886  0.2277  2.2291
 6360TIP3    H219087   4.150   3.721  -0.019 -0.4123 -0.9651  2.1579
 6361TIP3   OH219088   4.419   1.645   3.192  0.1046  0.0211 -0.1659
 6361TIP3    H119089   4.421   1.551   3.175  0.2118  0.2536 -1.6228
 6361TIP3    H219090   4.326   1.668   3.189  0.1367  0.0949 -0.7065
 6362TIP3   OH219091   2.902   2.542   1.954  0.2563  0.6083  0.8094
 6362TIP3    H119092   2.857   2.511   1.875  1.9524  1.5430 -0.5854
 6362TIP3    H219093   2.851   2.618   1.983  0.7579  1.5041 -0.5970
 6363TIP3   OH219094   6.283   0.493   1.713 -0.2972 -0.3354 -0.0291
 6363TIP3    H119095   6.298   0.583   1.684 -1.9130 -0.3429 -1.0410
 6363TIP3    H219096   6.198   0.496   1.758 -0.4415 -1.3513 -0.2024
 6364TIP3   OH219097   4.573   4.245   4.903  0.1125  0.3629  0.5079
 6364TIP3    H119098   4.599   4.260   4.994  2.0839  1.7254 -0.2139
 6364TIP3    H219099   4.656   4.246   4.855 -1.0379  1.3437 -1.5246
 6365TIP3   OH219100   3.363   3.685   2.905  0.5516 -0.3499 -0.2733
 6365TIP3    H119101   3.396   3.645   2.825 -0.5262 -1.6631 -0.1053
 6365TIP3    H219102   3.390   3.625   2.974  1.9489  1.0541  0.4444
 6366TIP3   OH219103   3.342   0.110   0.928  0.2549 -0.1399 -0.3772
 6366TIP3    H119104   3.345   0.039   0.863 -2.4260 -0.5157 -0.2140
 6366TIP3    H219105   3.284   0.077   0.997  0.8194  1.3309  0.8577
 6367TIP3   OH219106   1.585   0.347   1.623  0.4553 -0.4076 -0.3711
 6367TIP3    H119107   1.498   0.388   1.622 -0.4264 -2.1959 -0.7023
 6367TIP3    H219108   1.577   0.276   1.686  3.2135  2.3532  3.5999
 6368TIP3   OH219109   3.397   5.992   0.327  0.7629 -0.0005  0.0110
 6368TIP3    H119110   3.336   6.038   0.385  1.3476 -0.2222  0.8029
 6368TIP3    H219111   3.390   5.900   0.353 -0.8942 -0.5295 -1.9952
 6369TIP3   OH219112   5.991   4.629   2.581 -0.0420  0.1202 -0.1775
 6369TIP3    H119113   5.910   4.678   2.564 -0.2805 -0.4485 -0.6966
 6369TIP3    H219114   6.032   4.621   2.495  1.4074  1.8303  0.2953
 6370TIP3   OH219115   5.900   2.302   0.837  0.0508 -0.6313  0.2087
 6370TIP3    H119116   5.878   2.376   0.781 -0.5106  0.5115  1.8515
 6370TIP3    H219117   5.994   2.291   0.826 -0.1364 -0.9107 -1.4469
 6371TIP3   OH219118   5.662   1.017   4.454 -0.0788 -0.3847  0.3877
 6371TIP3    H119119   5.697   1.081   4.516  1.8194  0.4627 -1.3966
 6371TIP3    H219120   5.707   0.936   4.475  2.7345  0.5375 -1.4425
 6372TIP3   OH219121   5.923   4.976   3.125  0.2305  0.8767 -0.2995
 6372TIP3    H119122   5.985   5.032   3.173 -0.4422  0.8966  0.5790
 6372TIP3    H219123   5.976   4.906   3.089  0.7478  0.7746  0.6289
 6373TIP3   OH219124   4.484   3.567   1.645  0.0682 -0.0067  0.1109
 6373TIP3    H119125   4.534   3.588   1.724 -0.8259 -2.1964  1.3392
 6373TIP3    H219126   4.463   3.652   1.607  2.9089  1.0397  0.6679
 6374TIP3   OH219127   3.502   2.831   3.099 -0.0578 -0.3718 -0.0864
 6374TIP3    H119128   3.508   2.790   3.012 -0.1705 -1.7907  0.5530
 6374TIP3    H219129   3.531   2.921   3.084  1.1104 -0.9134 -1.3687
 6375TIP3   OH219130   3.312   3.880   1.751  0.1029 -0.5517  0.2008
 6375TIP3    H119131   3.327   3.860   1.659  1.5556 -2.5554  0.8049
 6375TIP3    H219132   3.381   3.943   1.774  1.0030 -1.5854  0.3821
 6376TIP3   OH219133   5.295   4.034   3.967 -0.3507  0.5473  0.0012
 6376TIP3    H119134   5.332   3.975   4.033  0.7494  1.4325  0.2080
 6376TIP3    H219135   5.201   4.021   3.974 -0.3287  1.1892  2.3242
 6377TIP3   OH219136   3.318   0.731   3.461  0.5885 -0.9187 -0.0483
 6377TIP3    H119137   3.387   0.717   3.526  2.2563  0.2213 -1.4733
 6377TIP3    H219138   3.327   0.657   3.401  1.0754 -0.3967 -0.6314
 6378TIP3   OH219139   0.809   4.093   3.064 -0.0928  0.2178 -0.4302
 6378TIP3    H119140   0.859   4.016   3.091  0.8800  0.4951 -1.3686
 6378TIP3    H219141   0.738   4.099   3.128  1.2318 -0.0167  1.1371
 6379TIP3   OH219142   4.711   5.146   0.226  0.1745  0.6579 -0.3712
 6379TIP3    H119143   4.743   5.170   0.313 -1.3961  0.5222  0.2719
 6379TIP3    H219144   4.718   5.226   0.174 -1.7905  1.6554  0.7860
 6380TIP3   OH219145   4.204   5.802   2.174 -0.0055 -0.6068  0.4748
 6380TIP3    H119146   4.219   5.711   2.149  0.1851 -0.8594  1.4439
 6380TIP3    H219147   4.109   5.813   2.173 -0.0086 -0.6546 -0.1591
 6381TIP3   OH219148   4.785   2.605   3.913  0.1200 -0.7554  0.1129
 6381TIP3    H119149   4.870   2.649   3.918  0.2711 -1.1021  0.7577
 6381TIP3    H219150   4.801   2.528   3.859  0.0240 -0.4076 -0.4221
 6382TIP3   OH219151   4.600   3.612   1.234 -0.2348 -0.1996  0.3902
 6382TIP3    H119152   4.518   3.565   1.220 -0.7190  0.6634  0.3163
 6382TIP3    H219153   4.588   3.657   1.317  0.0678  0.1240  0.2598
 6383TIP3   OH219154   0.952   1.017   3.127 -0.5328 -0.0861  0.6625
 6383TIP3    H119155   1.001   0.937   3.144 -1.5148 -1.3255 -1.7762
 6383TIP3    H219156   1.019   1.084   3.116  0.3227 -0.5757  2.4870
 6384TIP3   OH219157   1.932   3.007   0.599  0.0985 -0.6056 -0.6361
 6384TIP3    H119158   1.899   3.060   0.671  1.8939 -1.4167  0.8410
 6384TIP3    H219159   1.915   2.917   0.625  2.2166 -0.9853 -0.4202
 6385TIP3   OH219160   5.456   0.134   3.871  0.1263 -0.2618 -0.5005
 6385TIP3    H119161   5.490   0.183   3.946  0.8846  1.7579 -2.0524
 6385TIP3    H219162   5.371   0.175   3.852  0.4366 -0.0125 -1.3878
 6386TIP3   OH219163   2.457   1.183   4.186  0.4231  0.4254  0.4338
 6386TIP3    H119164   2.413   1.190   4.101 -1.6229  0.6070  1.4408
 6386TIP3    H219165   2.415   1.250   4.240  1.7038  0.3392  1.5784
 6387TIP3   OH219166   4.513   2.751   1.452  0.8593 -0.3408 -0.4105
 6387TIP3    H119167   4.520   2.700   1.532  1.0856 -1.2066 -0.9664
 6387TIP3    H219168   4.423   2.738   1.423  0.6547  0.3125 -0.0811
 6388TIP3   OH219169   2.123   0.761   2.928  0.1554 -0.8242  0.1166
 6388TIP3    H119170   2.137   0.765   2.833 -0.9305 -1.2117 -0.0736
 6388TIP3    H219171   2.060   0.690   2.940 -1.5138  0.7020  0.8938
 6389TIP3   OH219172   0.891   5.145   2.570  0.3720 -0.4666 -0.2020
 6389TIP3    H119173   0.918   5.223   2.522 -1.3520  0.1108 -0.2895
 6389TIP3    H219174   0.805   5.123   2.535 -1.3412  0.4266  3.0518
 6390TIP3   OH219175   3.713   3.911   1.429 -0.6229  0.0521  0.6845
 6390TIP3    H119176   3.766   3.944   1.501  0.3444 -1.7271  0.8464
 6390TIP3    H219177   3.657   3.845   1.469  0.2416 -1.2850 -0.2134
 6391TIP3   OH219178   4.157   1.172   0.121 -0.3488  0.4875 -0.4681
 6391TIP3    H119179   4.138   1.125   0.202  1.5743 -2.3616 -1.4913
 6391TIP3    H219180   4.071   1.185   0.080 -1.0963 -1.0234  0.5187
 6392TIP3   OH219181   0.965   5.265   5.049 -0.0533  0.0323  0.4385
 6392TIP3    H119182   0.986   5.181   5.009 -2.7433 -0.8659  0.7293
 6392TIP3    H219183   1.020   5.328   5.003 -0.5850 -1.3917 -2.3801
 6393TIP3   OH219184   4.193   1.794   1.002  1.0088 -0.0960  0.4486
 6393TIP3    H119185   4.199   1.699   1.000  1.3619 -0.1307  1.8456
 6393TIP3    H219186   4.211   1.822   0.912  0.6688 -1.3514 -0.0238
 6394TIP3   OH219187   4.212   3.326   2.319  0.5018  0.0310 -0.1874
 6394TIP3    H119188   4.305   3.313   2.338  0.7411  1.9938  0.1102
 6394TIP3    H219189   4.209   3.340   2.224  0.7261  1.4574 -0.0042
 6395TIP3   OH219190   4.271   5.622   5.117 -0.0703  0.0001 -0.4031
 6395TIP3    H119191   4.201   5.615   5.053 -0.9179 -2.1981  0.6723
 6395TIP3    H219192   4.349   5.590   5.071 -0.6972 -1.6867 -0.3472
 6396TIP3   OH219193   5.434   3.851   2.839 -0.2577  0.0564  0.0542
 6396TIP3    H119194   5.425   3.896   2.755  1.6165 -0.8883 -0.7351
 6396TIP3    H219195   5.438   3.920   2.904 -1.0431  0.8404 -0.7072
 6397TIP3   OH219196   5.281   3.344   2.872  0.3940  0.6563 -0.6574
 6397TIP3    H119197   5.211   3.321   2.810  0.2307  0.7379 -0.5048
 6397TIP3    H219198   5.310   3.431   2.845 -1.3196  1.7506  0.8222
 6398TIP3   OH219199   5.455   3.571   0.691  0.0632  0.4515 -0.0734
 6398TIP3    H119200   5.531   3.617   0.727  1.6760 -1.8410 -0.3364
 6398TIP3    H219201   5.404   3.545   0.768 -0.7667  2.3943  0.0860
 6399TIP3   OH219202   0.497   3.396   3.458 -0.0261  0.5083  0.1931
 6399TIP3    H119203   0.495   3.363   3.368 -1.3407 -0.4450  0.5369
 6399TIP3    H219204   0.576   3.450   3.462  0.1856  0.3792 -1.4575
 6400TIP3   OH219205   0.692   4.890   0.444 -0.5203 -0.4230  0.2259
 6400TIP3    H119206   0.660   4.963   0.496 -1.1351 -0.0995 -0.5985
 6400TIP3    H219207   0.625   4.876   0.378 -0.0221 -1.2081 -0.1285
 6401TIP3   OH219208   5.559   1.259   2.275  0.2751 -0.1465 -0.3137
 6401TIP3    H119209   5.505   1.280   2.199  1.8617 -0.7603 -1.6730
 6401TIP3    H219210   5.579   1.166   2.264  1.3463  0.0005  0.3010
 6402TIP3   OH219211   1.685   0.708   3.709 -0.1781  0.0812 -0.0046
 6402TIP3    H119212   1.745   0.667   3.771 -0.8688  0.1640  0.7240
 6402TIP3    H219213   1.699   0.661   3.627 -0.0579 -0.7713  0.5030
 6403TIP3   OH219214   2.028   0.255   2.209  0.5577  0.0415 -0.3757
 6403TIP3    H119215   2.013   0.255   2.114  2.5332 -1.7797 -0.7676
 6403TIP3    H219216   1.990   0.173   2.239  1.8244 -0.4185  0.0274
 6404TIP3   OH219217   2.361   0.156   4.745 -0.0023 -0.2089 -0.1697
 6404TIP3    H119218   2.402   0.240   4.768  0.2020 -0.2400 -0.4229
 6404TIP3    H219219   2.428   0.110   4.695  0.3020 -0.9862  0.9083
 6405TIP3   OH219220   2.719   0.195   4.814  0.0503 -0.1194 -0.5854
 6405TIP3    H119221   2.714   0.290   4.827  1.4614 -0.0734 -0.1264
 6405TIP3    H219222   2.728   0.160   4.903  2.1856 -0.4309 -0.8601
 6406TIP3   OH219223   4.042   4.602   0.688  0.6127  0.0002 -0.3904
 6406TIP3    H119224   4.097   4.654   0.630  2.1129 -2.6120 -1.4730
 6406TIP3    H219225   4.011   4.665   0.754 -0.3144  2.8800 -3.3012
 6407TIP3   OH219226   1.132   1.628   4.879 -0.0639 -0.2437 -0.0712
 6407TIP3    H119227   1.115   1.538   4.909 -1.5687  0.0650  0.0606
 6407TIP3    H219228   1.081   1.637   4.799 -0.2417  0.6324  0.1328
 6408TIP3   OH219229   1.428   1.364   1.904 -0.8892  0.3267  0.2199
 6408TIP3    H119230   1.354   1.420   1.881 -0.1961  1.1436 -0.1093
 6408TIP3    H219231   1.429   1.363   2.000 -2.2661 -0.9978  0.2397
 6409TIP3   OH219232   0.976   3.810   2.533 -0.7687 -0.2803  0.4003
 6409TIP3    H119233   0.961   3.879   2.468 -0.6308 -0.7782 -0.1729
 6409TIP3    H219234   1.059   3.833   2.574  1.1819 -1.9465 -2.2741
 6410TIP3   OH219235   2.540   3.887   1.049  0.7075 -0.0113  0.5588
 6410TIP3    H119236   2.522   3.937   0.970 -0.7206 -0.2310  0.7066
 6410TIP3    H219237   2.624   3.919   1.080  0.8899  0.6627 -0.5936
 6411TIP3   OH219238   0.837   5.552   2.573  0.5839  0.1920  0.6367
 6411TIP3    H119239   0.858   5.644   2.557  2.0469 -0.4919 -1.8153
 6411TIP3    H219240   0.851   5.540   2.667  1.2323  2.2407  0.8336
 6412TIP3   OH219241   5.100   0.018   0.867 -0.5029 -0.4774  0.2068
 6412TIP3    H119242   5.044  -0.037   0.811 -0.7009  0.3196 -0.3975
 6412TIP3    H219243   5.182   0.025   0.818 -0.6200  0.0920  0.0949
 6413TIP3   OH219244   2.173   2.095   0.375  0.7328 -0.0887 -0.5962
 6413TIP3    H119245   2.208   2.117   0.461  0.8879  0.2976 -0.7579
 6413TIP3    H219246   2.250   2.085   0.319  0.5986  0.7161 -0.9393
 6414TIP3   OH219247   0.927   4.863   2.209  0.0984  0.2531 -0.8472
 6414TIP3    H119248   0.848   4.831   2.252 -0.2861  0.6900 -1.2379
 6414TIP3    H219249   0.937   4.807   2.132 -0.0638  0.4804 -1.0311
 6415TIP3   OH219250   2.734   0.630   4.978  0.1872 -0.2439 -0.4125
 6415TIP3    H119251   2.812   0.584   5.009 -0.0857 -1.0252 -0.8646
 6415TIP3    H219252   2.693   0.570   4.916 -0.0822  0.6794 -1.1664
 6416TIP3   OH219253   4.758   2.670   0.323  0.2396 -0.0798 -0.5150
 6416TIP3    H119254   4.851   2.688   0.337 -0.0482  1.4282 -0.3891
 6416TIP3    H219255   4.725   2.748   0.279 -1.5446  0.6890  1.9418
 6417TIP3   OH219256   4.888   1.306   5.090 -0.4178  0.4045 -0.0758
 6417TIP3    H119257   4.917   1.220   5.120  0.8795  1.6384  2.5172
 6417TIP3    H219258   4.795   1.294   5.069 -0.3636 -1.5405  0.6176
 6418TIP3   OH219259   3.708   2.564   1.914 -0.3323  0.0220 -0.2079
 6418TIP3    H119260   3.650   2.639   1.923 -2.2423 -1.3658 -0.4170
 6418TIP3    H219261   3.691   2.510   1.991  3.2000  1.1082  1.5423
 6419TIP3   OH219262   5.114   4.899   0.966 -0.1739 -0.6769  0.2906
 6419TIP3    H119263   5.092   4.912   0.873 -3.4780 -0.3218  1.0019
 6419TIP3    H219264   5.209   4.889   0.967  0.1770  1.0936 -2.9225
 6420TIP3   OH219265   0.725   4.133   3.714 -0.5974 -0.5243 -0.5082
 6420TIP3    H119266   0.634   4.117   3.690 -1.8058 -0.5884  3.3707
 6420TIP3    H219267   0.761   4.046   3.730 -0.0195 -0.4645 -1.4333
 6421TIP3   OH219268   2.027   0.246   1.270 -0.2529 -0.6398 -0.3590
 6421TIP3    H119269   2.026   0.321   1.210 -2.1174 -1.0443 -0.8902
 6421TIP3    H219270   1.979   0.276   1.347  0.3542 -0.8071  0.0997
 6422TIP3   OH219271   4.649   2.675   1.160  0.3194 -0.6627 -0.2411
 6422TIP3    H119272   4.587   2.603   1.153  0.1578 -0.4103 -1.5446
 6422TIP3    H219273   4.628   2.717   1.244 -1.0198 -0.8108 -0.4871
 6423TIP3   OH219274   5.386   2.468   2.906  0.7178  0.4127 -0.6039
 6423TIP3    H119275   5.471   2.469   2.951  0.2516 -1.9940  0.4837
 6423TIP3    H219276   5.406   2.434   2.819  0.9467  0.3487 -0.5277
 6424TIP3   OH219277   0.398   3.934   2.447 -0.0790  0.0225 -0.0924
 6424TIP3    H119278   0.346   3.995   2.499 -2.7295 -1.2013 -1.0744
 6424TIP3    H219279   0.422   3.864   2.508 -0.6391  0.0291  0.1398
 6425TIP3   OH219280   5.749   4.207   3.361 -0.6181 -0.0623  0.0397
 6425TIP3    H119281   5.767   4.119   3.328  0.4153  0.2632 -0.3298
 6425TIP3    H219282   5.676   4.196   3.421 -1.8841 -0.8482 -1.5618
 6426TIP3   OH219283   4.248   3.486   3.298  0.5220 -0.3530 -0.1640
 6426TIP3    H119284   4.323   3.500   3.356  0.2528 -1.6223  0.5416
 6426TIP3    H219285   4.202   3.412   3.338 -2.0058  1.3746  0.3401
 6427TIP3   OH219286   2.774   5.545   3.295 -0.2825  0.2647  0.1009
 6427TIP3    H119287   2.860   5.562   3.332  0.1471 -0.4339 -0.5453
 6427TIP3    H219288   2.737   5.476   3.350  0.2675 -0.6206 -0.6142
 6428TIP3   OH219289   4.522   0.517   4.632 -0.1303 -0.6706 -0.7306
 6428TIP3    H119290   4.558   0.540   4.718 -0.2660  0.0094 -0.8537
 6428TIP3    H219291   4.599   0.495   4.579  0.0274 -0.2093 -0.6978
 6429TIP3   OH219292   6.053   0.578   4.093  0.1915  0.2476 -0.3580
 6429TIP3    H119293   6.142   0.612   4.102 -0.5144  2.6705 -1.6313
 6429TIP3    H219294   6.059   0.487   4.122  2.2291  1.3737  3.4730
 6430TIP3   OH219295   1.914   0.856   1.279  0.0662  0.3083 -0.0244
 6430TIP3    H119296   1.837   0.852   1.335 -0.2155 -2.7976 -0.4579
 6430TIP3    H219297   1.881   0.884   1.194  0.1907  3.1136  0.7510
 6431TIP3   OH219298   5.944   3.896   4.440 -0.1699 -0.3201 -0.1881
 6431TIP3    H119299   5.893   3.925   4.365 -0.5647 -0.5248 -0.0038
 6431TIP3    H219300   6.028   3.942   4.433 -1.2216  1.8648  0.7713
 6432TIP3   OH219301   3.733   2.605   3.475 -0.2010 -0.1205 -0.1363
 6432TIP3    H119302   3.713   2.523   3.519 -0.0285  0.3126  0.7745
 6432TIP3    H219303   3.828   2.613   3.479 -0.1762 -0.1130 -0.6630
 6433TIP3   OH219304   2.030   1.081   1.734 -0.0567 -0.2017 -0.8324
 6433TIP3    H119305   2.083   1.002   1.728  0.4989  0.1030 -0.1388
 6433TIP3    H219306   2.092   1.148   1.764 -1.0292 -0.0600  0.9703
 6434TIP3   OH219307   1.591   4.199   3.722  0.0793 -0.1994 -0.0865
 6434TIP3    H119308   1.630   4.119   3.686 -1.6701 -0.8847 -0.5746
 6434TIP3    H219309   1.529   4.228   3.655 -1.3027 -0.0031  1.2199
 6435TIP3   OH219310   2.680   4.698   0.667 -0.3510 -0.2337 -0.1270
 6435TIP3    H119311   2.738   4.692   0.591  0.2907 -0.1916  0.3432
 6435TIP3    H219312   2.701   4.782   0.707 -2.5964  0.9923 -1.3918
 6436TIP3   OH219313   0.196   5.244   2.680  0.3182 -0.1245 -0.4914
 6436TIP3    H119314   0.230   5.323   2.721 -0.3382 -0.4593  0.7196
 6436TIP3    H219315   0.180   5.269   2.589  0.1509  1.1256 -0.1264
 6437TIP3   OH219316   2.053   5.378   2.218  0.3535 -0.0913 -0.2252
 6437TIP3    H119317   1.968   5.415   2.194  0.7646  0.0103 -1.6678
 6437TIP3    H219318   2.113   5.453   2.216  0.6882 -0.3603 -0.4239
 6438TIP3   OH219319   3.060   2.898   3.260  0.1988  0.0748 -0.2451
 6438TIP3    H119320   3.049   2.847   3.340 -1.2650  0.1541 -0.3534
 6438TIP3    H219321   3.015   2.845   3.193 -0.0526  0.7957 -0.6560
 6439TIP3   OH219322   0.953   1.842   0.503  0.1328 -0.2392  0.3288
 6439TIP3    H119323   0.962   1.917   0.563  0.8973  0.3580 -0.4987
 6439TIP3    H219324   0.879   1.792   0.538 -1.4136  1.7272  0.0400
 6440TIP3   OH219325   2.155   1.745   3.337  0.0216  0.4978  0.6092
 6440TIP3    H119326   2.248   1.769   3.331 -0.3831  2.2653  0.6672
 6440TIP3    H219327   2.115   1.788   3.261 -0.6897 -0.5882  0.3569
 6441TIP3   OH219328   5.704   2.483   2.685  0.0209  0.3545  0.1344
 6441TIP3    H119329   5.738   2.533   2.610  0.0869 -0.6089 -0.5034
 6441TIP3    H219330   5.779   2.472   2.743  0.2765  0.0542 -0.2510
 6442TIP3   OH219331   3.819   3.067   2.422 -0.2458 -0.5570  0.3494
 6442TIP3    H119332   3.749   3.030   2.475  0.3413 -0.1010  1.4826
 6442TIP3    H219333   3.799   3.160   2.417  0.4072 -0.3797  0.9032
 6443TIP3   OH219334   3.469   2.246   0.142  0.6301  0.3233 -0.2418
 6443TIP3    H119335   3.457   2.316   0.207 -0.4569  0.4202 -0.5198
 6443TIP3    H219336   3.469   2.165   0.194 -2.1711  0.2374 -0.2057
 6444TIP3   OH219337   1.412   3.278   2.625  0.3261  0.3535 -0.5991
 6444TIP3    H119338   1.385   3.335   2.553  0.6550  0.3686 -0.7120
 6444TIP3    H219339   1.478   3.329   2.672  1.5174 -0.3951 -1.4086
 6445TIP3   OH219340   1.631   3.385   4.638 -0.1413  0.2057 -0.3769
 6445TIP3    H119341   1.707   3.395   4.580 -0.5403  0.1012 -0.9229
 6445TIP3    H219342   1.595   3.473   4.646 -0.6441  0.0672 -1.0586
 6446TIP3   OH219343   3.006   0.484   2.461 -0.0766  0.2580 -0.2413
 6446TIP3    H119344   2.982   0.396   2.490  2.4130  0.1446  1.9374
 6446TIP3    H219345   3.000   0.480   2.366 -1.4269 -1.8157 -0.1425
 6447TIP3   OH219346   1.639   2.468   0.389 -0.1044 -0.2557 -0.7948
 6447TIP3    H119347   1.559   2.519   0.382 -0.6945 -1.3106 -2.0470
 6447TIP3    H219348   1.656   2.436   0.301  0.0137 -2.5366 -0.0195
 6448TIP3   OH219349   2.429   2.183   4.256 -0.3833  0.2068 -0.1749
 6448TIP3    H119350   2.463   2.128   4.327 -1.5507  1.1728  1.1977
 6448TIP3    H219351   2.438   2.129   4.177  0.2630 -1.2007  0.8209
 6449TIP3   OH219352   1.031   1.078   1.239  0.1991  0.0116  0.0062
 6449TIP3    H119353   0.954   1.116   1.281 -1.1835 -0.6980 -1.7588
 6449TIP3    H219354   1.078   1.152   1.201 -0.4447  0.3137 -0.2020
 6450TIP3   OH219355   0.594   5.396   0.581 -0.7235  0.1217 -0.0671
 6450TIP3    H119356   0.578   5.462   0.649 -1.0893  0.7525 -0.7407
 6450TIP3    H219357   0.577   5.312   0.624 -1.2417  0.5288  0.5416
 6451TIP3   OH219358   3.583   3.030   4.008  0.4363 -0.1616 -0.4507
 6451TIP3    H119359   3.531   2.984   3.943  0.6168  0.8435 -1.3289
 6451TIP3    H219360   3.528   3.103   4.036  1.1327  0.6061 -1.0042
 6452TIP3   OH219361   1.124   0.553   3.666 -0.3056 -0.5410  0.3939
 6452TIP3    H119362   1.206   0.506   3.682 -1.0865 -1.7905  0.8372
 6452TIP3    H219363   1.104   0.535   3.574 -0.6607 -1.1744  0.5934
 6453TIP3   OH219364   4.337   5.910   4.856 -0.1631 -0.2864 -0.0972
 6453TIP3    H119365   4.304   5.862   4.932 -0.0995  0.3260  0.3162
 6453TIP3    H219366   4.274   5.890   4.787  0.9480 -2.6759 -0.5546
 6454TIP3   OH219367   0.638   0.937   3.443  0.4088 -0.3814  0.2725
 6454TIP3    H119368   0.544   0.936   3.462  0.4112 -0.7185  0.2769
 6454TIP3    H219369   0.677   0.980   3.519  0.2336  0.0125  0.1434
 6455TIP3   OH219370   2.008   2.122   1.104 -0.2267  0.0006 -0.0792
 6455TIP3    H119371   1.974   2.075   1.181 -0.1439 -0.0205 -0.0554
 6455TIP3    H219372   1.958   2.087   1.031  0.8598 -1.2109 -0.2725
 6456TIP3   OH219373   4.667   2.398   0.710 -0.3421  0.5008  0.1264
 6456TIP3    H119374   4.669   2.489   0.682  1.3009  0.0215 -1.5094
 6456TIP3    H219375   4.590   2.392   0.767 -0.1618  3.0046  0.7407
 6457TIP3   OH219376   0.285   2.144   3.045 -0.1169 -0.3014  0.6863
 6457TIP3    H119377   0.256   2.174   3.131  0.5389 -0.2076  0.8823
 6457TIP3    H219378   0.210   2.161   2.987 -0.7466 -0.8201  1.3280
 6458TIP3   OH219379   6.066   3.107   3.460  0.2194  0.2650 -0.0351
 6458TIP3    H119380   6.160   3.102   3.441  0.2815 -0.1900  0.3633
 6458TIP3    H219381   6.023   3.080   3.379  0.4598 -0.7757  0.1677
 6459TIP3   OH219382   5.586   4.167   3.575  0.4983  0.1740 -0.4472
 6459TIP3    H119383   5.555   4.236   3.633  0.7642 -0.0445 -0.0323
 6459TIP3    H219384   5.666   4.134   3.618  0.8224  0.1549 -1.0495
 6460TIP3   OH219385   3.229   4.753   4.973  0.4509  0.1369 -0.3984
 6460TIP3    H119386   3.267   4.673   4.937  0.4499 -1.0752  2.0288
 6460TIP3    H219387   3.295   4.786   5.034 -1.3139 -0.7849  2.2259
 6461TIP3   OH219388   1.414   5.787   1.565  0.4277  0.1320 -0.4088
 6461TIP3    H119389   1.346   5.854   1.569 -0.7258 -1.0745  1.0895
 6461TIP3    H219390   1.485   5.821   1.620 -1.0771 -0.8025  2.2439
 6462TIP3   OH219391   3.722   0.681   1.069  0.1217  0.2546 -0.3806
 6462TIP3    H119392   3.658   0.683   1.140 -0.1729 -0.5543 -0.6057
 6462TIP3    H219393   3.693   0.748   1.008 -1.1196 -0.7715 -0.9688
 6463TIP3   OH219394   5.759   1.342   1.950 -0.3949 -0.0562 -0.2177
 6463TIP3    H119395   5.798   1.346   1.863 -1.0200  2.0362 -0.4654
 6463TIP3    H219396   5.773   1.252   1.979  1.9821 -0.1619 -1.4601
 6464TIP3   OH219397   4.320   3.459   3.779  0.1675  0.0617 -0.3426
 6464TIP3    H119398   4.369   3.540   3.797 -2.0721  1.5111 -0.3425
 6464TIP3    H219399   4.311   3.417   3.864  0.2538  0.4810 -0.1218
 6465TIP3   OH219400   4.676   5.060   4.171 -0.3626 -0.4006  0.6628
 6465TIP3    H119401   4.626   4.978   4.172  0.6479 -1.0490  1.5302
 6465TIP3    H219402   4.704   5.070   4.080  1.4282 -2.3121  0.8998
 6466TIP3   OH219403   1.478   2.321   1.887  0.6877  0.3459 -0.0466
 6466TIP3    H119404   1.501   2.310   1.794  1.1157  0.2844  0.0639
 6466TIP3    H219405   1.546   2.272   1.934  0.5168  0.4438  0.3032
 6467TIP3   OH219406   4.624   1.984   4.267 -0.1502  0.1921 -0.3474
 6467TIP3    H119407   4.587   1.967   4.354 -0.1407 -0.1745 -0.4124
 6467TIP3    H219408   4.566   1.937   4.207  0.1269  0.0356 -0.4936
 6468TIP3   OH219409   0.815   0.775   4.702  0.0252 -0.2117  0.5244
 6468TIP3    H119410   0.816   0.770   4.797 -0.3973  0.3210  0.5642
 6468TIP3    H219411   0.740   0.721   4.676 -1.3628  1.5403  0.6547
 6469TIP3   OH219412   3.742   5.980   0.547 -0.3573 -0.4207  0.4407
 6469TIP3    H119413   3.744   5.928   0.627 -0.5304 -0.6404  0.3056
 6469TIP3    H219414   3.833   5.984   0.517 -0.2017  0.1870  0.9796
 6470TIP3   OH219415   0.434   5.197   2.487  0.4140 -0.7429  0.0293
 6470TIP3    H119416   0.514   5.161   2.449  0.1500 -0.5860 -0.7101
 6470TIP3    H219417   0.446   5.292   2.479 -0.4654 -0.7205 -1.4940
 6471TIP3   OH219418   1.199   4.539   1.772 -0.5041 -0.1213 -0.1344
 6471TIP3    H119419   1.176   4.511   1.860 -0.9631 -0.6683 -0.4181
 6471TIP3    H219420   1.179   4.463   1.717  0.2076  0.0591 -0.6492
 6472TIP3   OH219421   5.255   0.433   3.550 -0.6700  0.6182 -0.0109
 6472TIP3    H119422   5.177   0.384   3.524 -2.1442  3.5478 -1.6048
 6472TIP3    H219423   5.311   0.432   3.472 -0.2455  0.6471  0.2904
 6473TIP3   OH219424   4.165   2.235   3.797  0.4048  0.7583 -0.0502
 6473TIP3    H119425   4.144   2.281   3.878  0.1744  0.3089  0.1436
 6473TIP3    H219426   4.164   2.142   3.820  0.8831  0.6498 -0.4398
 6474TIP3   OH219427   5.439   0.902   4.693  0.3662  0.2968  0.4156
 6474TIP3    H119428   5.348   0.922   4.717  0.4678  0.7269  0.4501
 6474TIP3    H219429   5.434   0.819   4.645  0.0813 -0.2423  1.3607
 6475TIP3   OH219430   0.259   0.599   1.030  0.4827  0.2258 -0.3300
 6475TIP3    H119431   0.278   0.544   0.954 -0.3950 -0.2799 -0.1927
 6475TIP3    H219432   0.328   0.577   1.093 -0.2572 -1.2416 -0.0085
 6476TIP3   OH219433   3.536   2.772   0.629  0.2825  0.0996  0.0367
 6476TIP3    H119434   3.542   2.677   0.638 -0.4614 -0.0723 -1.0907
 6476TIP3    H219435   3.501   2.802   0.714  1.7596 -0.4664  0.8791
 6477TIP3   OH219436   2.798   0.947   3.200 -0.4571 -0.1800 -0.3778
 6477TIP3    H119437   2.715   0.900   3.194 -0.0965 -1.0401  0.9425
 6477TIP3    H219438   2.860   0.894   3.152 -0.3740 -0.2832 -0.1597
 6478TIP3   OH219439   3.597   4.075   4.734 -0.6934  0.4013  0.2645
 6478TIP3    H119440   3.609   3.980   4.739  0.7720  0.5651  0.4708
 6478TIP3    H219441   3.591   4.095   4.641  2.0292  0.3656 -0.0131
 6479TIP3   OH219442   0.732   2.067   0.897  0.2800  0.2775  0.0284
 6479TIP3    H119443   0.712   2.151   0.938  0.6275  0.0848  0.6191
 6479TIP3    H219444   0.727   2.083   0.803 -0.4869  0.7509  0.1459
 6480TIP3   OH219445   2.216   3.667   0.770  0.2953  0.3208  0.5509
 6480TIP3    H119446   2.173   3.669   0.855 -0.5936 -0.8810  0.1651
 6480TIP3    H219447   2.266   3.586   0.769  0.9294  0.7021  0.2105
 6481TIP3   OH219448   5.798   5.130   0.977  0.3132  0.2870 -0.3464
 6481TIP3    H119449   5.802   5.163   1.067 -1.7423  0.1427 -0.1607
 6481TIP3    H219450   5.783   5.208   0.924  1.2293  0.3325 -0.5570
 6482TIP3   OH219451   0.071   4.726   0.875 -0.0756 -0.4078 -0.4872
 6482TIP3    H119452   0.150   4.674   0.863 -0.3025 -1.3799  1.7280
 6482TIP3    H219453  -0.001   4.663   0.865 -0.5400  0.2630 -1.4856
 6483TIP3   OH219454   0.451   0.780   2.202  0.4549  0.0942 -0.1355
 6483TIP3    H119455   0.442   0.875   2.195  0.3908  0.0347 -0.9725
 6483TIP3    H219456   0.512   0.767   2.274 -0.2152  0.7405  0.5714
 6484TIP3   OH219457   5.297   0.562   0.755 -0.1416  0.2395 -0.1743
 6484TIP3    H119458   5.314   0.648   0.719  0.9619  0.5045  0.8985
 6484TIP3    H219459   5.348   0.502   0.701  1.5181  0.6349  0.8666
 6485TIP3   OH219460   3.152   0.941   0.497  0.5336 -0.0877 -0.5152
 6485TIP3    H119461   3.152   0.876   0.567  0.9664 -1.1981 -1.4981
 6485TIP3    H219462   3.229   0.995   0.514  0.5925 -0.3046 -0.0876
 6486TIP3   OH219463   4.516   5.730   0.845 -0.6874 -0.3667 -0.1365
 6486TIP3    H119464   4.566   5.672   0.788  0.4021  0.4190  0.0071
 6486TIP3    H219465   4.431   5.738   0.801  0.1282  0.2401 -1.6774
 6487TIP3   OH219466   1.374   4.873   0.144 -0.0732  0.6735  0.4628
 6487TIP3    H119467   1.284   4.856   0.115  0.2440  1.0945 -0.8533
 6487TIP3    H219468   1.425   4.805   0.100  0.4805  1.5703 -0.3081
 6488TIP3   OH219469   0.164   5.958   2.677  0.4280  0.2625 -0.5233
 6488TIP3    H119470   0.165   5.880   2.621  1.0257  0.1321 -0.3430
 6488TIP3    H219471   0.215   6.023   2.629  1.2444  0.0368  0.0153
 6489TIP3   OH219472   0.508   0.206   4.574 -0.8210  0.3589  0.0399
 6489TIP3    H119473   0.481   0.296   4.561  0.5683  1.0514  1.5396
 6489TIP3    H219474   0.604   0.210   4.578 -0.7883 -0.7867  2.4634
 6490TIP3   OH219475   6.286   0.980   4.269 -0.1476 -0.2668 -0.2675
 6490TIP3    H119476   6.343   1.033   4.213 -0.5452  0.3585 -0.0956
 6490TIP3    H219477   6.327   0.984   4.356 -0.3544  0.0479 -0.1803
 6491TIP3   OH219478   1.872   2.651   1.112 -0.4336 -0.5249  0.1455
 6491TIP3    H119479   1.965   2.641   1.093 -0.4946 -1.5491  0.3107
 6491TIP3    H219480   1.830   2.658   1.026 -0.2258 -0.2959  0.0641
 6492TIP3   OH219481   4.954   1.502   2.173  0.6462  0.3689 -0.5682
 6492TIP3    H119482   4.966   1.414   2.136  0.8964 -0.6091  1.7037
 6492TIP3    H219483   4.860   1.513   2.181  0.6031  0.4530 -1.1473
 6493TIP3   OH219484   4.639   0.138   3.121 -0.0778  0.0814 -0.2107
 6493TIP3    H119485   4.718   0.166   3.074 -0.4231 -1.4679 -1.8321
 6493TIP3    H219486   4.587   0.092   3.055 -0.6492 -2.1747  1.6630
 6494TIP3   OH219487   2.639   2.663   2.391 -0.0843  0.4124 -0.6200
 6494TIP3    H119488   2.664   2.669   2.299  1.2343  2.4894 -0.1863
 6494TIP3    H219489   2.674   2.579   2.421 -0.1648 -0.0804 -1.8793
 6495TIP3   OH219490   1.445   3.057   2.452 -0.5050  0.0786  0.4355
 6495TIP3    H119491   1.428   3.124   2.518 -0.4308 -0.1461  0.6828
 6495TIP3    H219492   1.394   3.085   2.376  0.1368  0.8301  0.2670
 6496TIP3   OH219493   4.339   0.342   1.029  0.2911 -0.2835 -0.2568
 6496TIP3    H119494   4.262   0.295   0.995 -0.8390  1.2276  0.1358
 6496TIP3    H219495   4.303   0.415   1.079  1.9914  0.6929 -0.3787
 6497TIP3   OH219496   3.754   4.781   1.184  0.0038  0.6094 -0.0412
 6497TIP3    H119497   3.796   4.716   1.241 -0.1055 -0.3227 -0.9985
 6497TIP3    H219498   3.668   4.795   1.223  1.0382  2.3464  1.7969
 6498TIP3   OH219499   3.429   5.828   2.473  0.1653 -0.5914  0.1319
 6498TIP3    H119500   3.423   5.829   2.568 -1.3042 -1.0015  0.0656
 6498TIP3    H219501   3.356   5.883   2.443  0.5959 -0.4808 -0.7563
 6499TIP3   OH219502   2.365   4.951   1.802 -0.4233 -0.3506  0.3595
 6499TIP3    H119503   2.328   4.864   1.818  0.5407 -0.7358  0.5929
 6499TIP3    H219504   2.460   4.937   1.807 -0.2552  0.6609  0.0985
 6500TIP3   OH219505   3.195   4.527   0.242  0.1832  0.6505 -0.2723
 6500TIP3    H119506   3.118   4.489   0.199 -0.1675  1.3166 -0.2580
 6500TIP3    H219507   3.253   4.552   0.170  1.6030 -2.1846 -0.2569
 6501TIP3   OH219508   4.270   2.418   4.920 -0.2527 -0.0906 -0.4413
 6501TIP3    H119509   4.216   2.339   4.928  0.7888 -0.9132 -1.2853
 6501TIP3    H219510   4.322   2.404   4.841  2.7338 -0.2916  1.4172
 6502TIP3   OH219511   2.949   1.200   0.862 -0.1264 -0.0667  0.8399
 6502TIP3    H119512   2.872   1.154   0.828  1.0818 -2.0291  0.6036
 6502TIP3    H219513   2.919   1.240   0.944 -1.6081 -0.0352  0.3150
 6503TIP3   OH219514   1.319   1.345   4.075 -0.1347 -0.3658  0.3101
 6503TIP3    H119515   1.326   1.388   3.989 -0.1063  1.1413  1.0212
 6503TIP3    H219516   1.308   1.253   4.055  1.6969 -0.3185 -1.3007
 6504TIP3   OH219517   5.240   4.857   4.257 -0.0565 -0.3071  0.5690
 6504TIP3    H119518   5.238   4.765   4.232 -0.4913 -0.0468 -0.4153
 6504TIP3    H219519   5.313   4.894   4.206 -0.1710 -0.0174  0.6134
 6505TIP3   OH219520   6.229   1.678   3.702  0.3515  1.2030 -0.7445
 6505TIP3    H119521   6.284   1.736   3.754  0.5869  0.4805 -0.1692
 6505TIP3    H219522   6.164   1.736   3.661  1.8921  2.1557 -1.9327
 6506TIP3   OH219523   5.202   1.937   3.208 -0.3503  0.2873 -0.1133
 6506TIP3    H119524   5.295   1.948   3.231  0.3386  0.8866 -2.8641
 6506TIP3    H219525   5.155   1.963   3.288  1.8245  0.5598  1.1610
 6507TIP3   OH219526   5.057   4.714   1.858 -0.0262  0.0207 -0.1304
 6507TIP3    H119527   5.025   4.804   1.860 -0.9545 -0.3008  0.3722
 6507TIP3    H219528   5.005   4.671   1.790  0.5344 -0.0900 -0.4911
 6508TIP3   OH219529   2.827   4.608   1.521  0.5368  0.0264 -0.3333
 6508TIP3    H119530   2.825   4.678   1.586  0.0090 -1.2360  1.0503
 6508TIP3    H219531   2.747   4.619   1.470 -0.0774 -0.1915  0.5703
 6509TIP3   OH219532   6.146   2.886   1.547 -0.2370  0.3104  0.4989
 6509TIP3    H119533   6.179   2.797   1.557  1.8645  1.2174  2.3205
 6509TIP3    H219534   6.162   2.908   1.455  2.3217 -0.0800  0.7938
 6510TIP3   OH219535   0.800   2.642   1.357  0.1287  0.3988  0.3364
 6510TIP3    H119536   0.769   2.673   1.272 -1.7319 -1.2757  0.3505
 6510TIP3    H219537   0.760   2.701   1.420 -0.3958  0.2225  0.1708
 6511TIP3   OH219538   0.572   1.162   1.792 -0.0178  0.4642  0.2001
 6511TIP3    H119539   0.652   1.124   1.828  1.2657  0.4809 -2.4087
 6511TIP3    H219540   0.580   1.256   1.809 -0.0748  0.3239  1.0074
 6512TIP3   OH219541   2.899   0.787   2.368  0.1345 -0.3744 -0.0830
 6512TIP3    H119542   2.917   0.784   2.275 -1.0299 -0.2753 -0.3254
 6512TIP3    H219543   2.879   0.696   2.392  1.5912 -0.6144  0.3357
 6513TIP3   OH219544   5.475   4.071   2.977  0.4133  0.2153 -0.3434
 6513TIP3    H119545   5.481   4.081   3.072 -1.7022  2.3707 -0.3581
 6513TIP3    H219546   5.554   4.114   2.943  0.9389 -0.1491  0.3690
 6514TIP3   OH219547   4.158   4.311   3.580 -0.3245  0.0139  1.1677
 6514TIP3    H119548   4.158   4.248   3.652  1.6910 -0.8588  0.4844
 6514TIP3    H219549   4.213   4.383   3.610  0.6587 -0.4282  0.4858
 6515TIP3   OH219550   1.956   3.699   2.542 -0.7188 -0.4645  0.1561
 6515TIP3    H119551   2.020   3.717   2.611 -0.1778  1.3656 -0.7581
 6515TIP3    H219552   1.878   3.747   2.568 -0.2819  0.8190 -0.7993
 6516TIP3   OH219553   5.516   4.976   3.996 -0.5915  0.5150 -0.0327
 6516TIP3    H119554   5.480   5.030   4.066  2.1518  1.1514  0.9804
 6516TIP3    H219555   5.606   5.006   3.985  0.1569 -1.9248 -1.4206
 6517TIP3   OH219556   3.072   3.666   2.424 -0.0921 -0.2982 -0.6652
 6517TIP3    H119557   3.114   3.582   2.409 -0.8521 -0.8125 -0.0128
 6517TIP3    H219558   3.140   3.720   2.464 -0.0717 -1.1636  0.5215
 6518TIP3   OH219559   3.206   1.513   2.447 -0.0009 -0.2566 -0.5417
 6518TIP3    H119560   3.117   1.493   2.476  0.2849 -0.2405  0.3797
 6518TIP3    H219561   3.254   1.530   2.528  0.3678  1.6659 -1.1129
 6519TIP3   OH219562   2.710   2.408   2.616  1.1548  0.3648 -0.1558
 6519TIP3    H119563   2.718   2.395   2.521  1.7042 -1.6777  0.1201
 6519TIP3    H219564   2.666   2.329   2.648  1.8582  0.5531  1.3952
 6520TIP3   OH219565   0.935   1.287   2.657  0.3007  0.5239  0.4370
 6520TIP3    H119566   0.967   1.327   2.576 -2.6663 -0.4959 -1.3943
 6520TIP3    H219567   0.975   1.200   2.658 -0.0720  0.3341 -0.2758
 6521TIP3   OH219568   1.721   1.127   4.141 -1.1045  0.1163  0.1749
 6521TIP3    H119569   1.739   1.185   4.066 -0.4190  1.3884  1.2687
 6521TIP3    H219570   1.666   1.058   4.105 -1.0983  0.8864 -1.4254
 6522TIP3   OH219571   2.495   1.598   0.088  0.5749  0.2092  0.1323
 6522TIP3    H119572   2.458   1.685   0.075  0.0523  0.1360  1.0283
 6522TIP3    H219573   2.492   1.557   0.002 -2.8867 -0.3420  0.3548
 6523TIP3   OH219574   5.642   5.644   3.057  0.6124 -0.4655 -0.3145
 6523TIP3    H119575   5.560   5.665   3.013  1.5793 -0.6428 -2.3203
 6523TIP3    H219576   5.618   5.581   3.124 -0.8946 -0.4720 -0.8347
 6524TIP3   OH219577   0.464   3.732   2.717 -0.0417  0.0322 -0.3010
 6524TIP3    H119578   0.488   3.640   2.723 -0.2192  0.0430  0.7411
 6524TIP3    H219579   0.544   3.776   2.687  0.7127 -0.1866  1.2862
 6525TIP3   OH219580   4.988   5.711   2.584 -0.7623  0.4966  0.0789
 6525TIP3    H119581   5.036   5.629   2.575 -0.2989  0.5076  2.0513
 6525TIP3    H219582   5.026   5.769   2.518  1.1925  0.1556  0.8553
 6526TIP3   OH219583   1.186   1.217   4.359  0.2680 -0.1535  0.0229
 6526TIP3    H119584   1.282   1.207   4.364  0.2286 -1.6120 -1.3830
 6526TIP3    H219585   1.157   1.144   4.304 -1.7085  0.0693  0.6960
 6527TIP3   OH219586   0.412   2.167   5.088 -0.6507 -0.0939  0.3606
 6527TIP3    H119587   0.490   2.141   5.038 -0.3758 -2.6721  1.9052
 6527TIP3    H219588   0.441   2.241   5.141  0.2973 -0.0491 -0.1993
 6528TIP3   OH219589   0.383   4.960   4.340 -0.3560 -0.2443  0.3204
 6528TIP3    H119590   0.363   4.960   4.434 -1.2862  1.4996  0.1673
 6528TIP3    H219591   0.439   5.037   4.328  1.2526 -1.4415 -0.3151
 6529TIP3   OH219592   2.669   1.144   0.850 -0.9265  0.2075 -0.1275
 6529TIP3    H119593   2.630   1.113   0.769 -1.8446 -0.7492  0.6417
 6529TIP3    H219594   2.641   1.235   0.857 -0.4767  0.4303 -1.0800
 6530TIP3   OH219595   1.563   0.773   0.299  0.2284  0.1908  0.0065
 6530TIP3    H119596   1.628   0.843   0.295 -0.5638  0.9963  0.7615
 6530TIP3    H219597   1.492   0.802   0.243 -0.0514 -0.0575  0.2290
 6531TIP3   OH219598   0.191   1.096   1.480  0.1495 -0.4093  0.7310
 6531TIP3    H119599   0.140   1.168   1.443  1.2092  0.3266  0.6912
 6531TIP3    H219600   0.263   1.138   1.526  0.1839 -1.4079  1.6350
 6532TIP3   OH219601   0.450   4.573   3.132  0.4492  0.6671  1.2531
 6532TIP3    H119602   0.531   4.523   3.140 -1.0903 -1.9348  1.8979
 6532TIP3    H219603   0.423   4.589   3.223  0.5379  2.1315  1.0506
 6533TIP3   OH219604   0.779   0.210   4.590  0.5515 -1.1719 -0.5700
 6533TIP3    H119605   0.803   0.246   4.675  0.6300  0.0362 -1.0768
 6533TIP3    H219606   0.817   0.123   4.589  0.8201 -1.0783  0.5102
 6534TIP3   OH219607   3.769   0.200   4.613 -0.1138  0.2225 -0.1712
 6534TIP3    H119608   3.720   0.231   4.690  0.8590 -1.1446  1.0575
 6534TIP3    H219609   3.861   0.201   4.641  0.3743  0.6470 -1.6832
 6535TIP3   OH219610   1.821   2.678   4.179  0.5290 -0.0983 -0.5159
 6535TIP3    H119611   1.728   2.661   4.163 -0.8229  2.4135  3.2691
 6535TIP3    H219612   1.841   2.628   4.258  2.2361 -0.0200 -0.8636
 6536TIP3   OH219613   4.023   4.759   1.473  0.0025  0.1733 -0.3539
 6536TIP3    H119614   4.017   4.669   1.440  1.1919 -0.4328  0.9679
 6536TIP3    H219615   4.116   4.782   1.462  0.1587  0.4268  1.3079
 6537TIP3   OH219616   5.435   5.186   2.523  0.3008  0.2522 -0.1623
 6537TIP3    H119617   5.464   5.098   2.545 -0.4771 -0.3979 -1.5479
 6537TIP3    H219618   5.459   5.240   2.598 -0.8926 -1.4851  1.5538
 6538TIP3   OH219619   1.765   2.446   1.651  0.2058  0.1507  0.6528
 6538TIP3    H119620   1.761   2.541   1.639  1.1655  0.2671  1.1512
 6538TIP3    H219621   1.804   2.413   1.570  0.2214  0.2201  0.6322
 6539TIP3   OH219622   4.786   0.902   4.315  0.1801  0.1103 -0.8295
 6539TIP3    H119623   4.757   0.993   4.306  0.0467 -0.0326 -2.0786
 6539TIP3    H219624   4.877   0.910   4.344 -0.5763  0.5725  1.6765
 6540TIP3   OH219625   5.939   4.424   1.509 -0.3752 -0.5672  0.2006
 6540TIP3    H119626   5.991   4.374   1.446 -0.9097  0.7928 -1.3958
 6540TIP3    H219627   5.988   4.417   1.591  1.2319 -1.0511 -0.7455
 6541TIP3   OH219628   4.811   1.075   4.621  0.3536  0.1299 -0.0153
 6541TIP3    H119629   4.724   1.107   4.597  0.1460  0.2544  0.8807
 6541TIP3    H219630   4.866   1.098   4.546 -0.3729  0.0645 -0.5869
 6542TIP3   OH219631   3.299   3.379   1.911 -0.1906 -0.8174  0.1212
 6542TIP3    H119632   3.379   3.431   1.909  0.8203 -2.3173  0.0486
 6542TIP3    H219633   3.230   3.443   1.930  1.0358  0.4770  0.4370
 6543TIP3   OH219634   4.554   5.210   2.337 -0.3709 -0.0114  0.1205
 6543TIP3    H119635   4.511   5.245   2.415 -1.2520 -0.3068 -0.2201
 6543TIP3    H219636   4.491   5.147   2.302  0.0526  0.0591 -0.7856
 6544TIP3   OH219637   0.684   2.277   0.187 -0.0284 -0.5589 -0.5369
 6544TIP3    H119638   0.663   2.234   0.270 -2.5152  2.0825  0.3742
 6544TIP3    H219639   0.746   2.346   0.210  0.0369 -0.4375 -1.0679
 6545TIP3   OH219640   2.854   2.619   3.646 -0.1476  0.0424  0.3429
 6545TIP3    H119641   2.902   2.681   3.592 -1.4825  2.7005  1.9733
 6545TIP3    H219642   2.836   2.545   3.588  0.7998  1.5337 -2.0003
 6546TIP3   OH219643   3.220   0.023   3.256  0.2375 -0.1154  0.3795
 6546TIP3    H119644   3.272   0.020   3.336  1.1106 -1.9874 -0.1955
 6546TIP3    H219645   3.149  -0.038   3.271  0.0872 -0.0544 -0.0652
 6547TIP3   OH219646   6.119   3.544   4.998  0.3640 -0.3801 -0.3498
 6547TIP3    H119647   6.117   3.466   4.942  0.3166 -0.4827 -0.2061
 6547TIP3    H219648   6.178   3.519   5.069 -0.1892 -0.5315  0.0601
 6548TIP3   OH219649   4.974   2.773   3.594  0.0899  0.4218 -0.0691
 6548TIP3    H119650   4.985   2.865   3.571  2.1023 -0.0126 -1.0570
 6548TIP3    H219651   4.990   2.770   3.688  1.2673  0.9278 -0.2382
 6549TIP3   OH219652   0.446   0.890   1.537  0.1347  0.4224 -0.1906
 6549TIP3    H119653   0.388   0.863   1.608  0.3897  0.9462  0.2230
 6549TIP3    H219654   0.391   0.945   1.480  0.0492  0.3619 -0.1665
 6550TIP3   OH219655   5.831   5.441   1.805 -0.0951  0.1194 -0.2860
 6550TIP3    H119656   5.921   5.444   1.836 -0.0276 -0.1969 -0.4383
 6550TIP3    H219657   5.838   5.399   1.719 -0.4822 -0.6717  0.0641
 6551TIP3   OH219658   2.139   3.925   4.139  0.1005  0.5882  0.2834
 6551TIP3    H119659   2.201   3.911   4.211  0.1717  1.5706  0.4184
 6551TIP3    H219660   2.129   4.020   4.134 -1.8054  0.4544  0.6318
 6552TIP3   OH219661   2.154   5.080   2.752 -0.2249  0.3916  0.4312
 6552TIP3    H119662   2.073   5.071   2.702  0.5032 -1.1664 -0.5584
 6552TIP3    H219663   2.153   5.007   2.813  1.3840 -0.9901 -1.0823
 6553TIP3   OH219664   6.316   4.043   1.580 -0.2272  0.0688  0.0913
 6553TIP3    H119665   6.405   4.075   1.595  0.5770 -1.9020 -0.2940
 6553TIP3    H219666   6.298   3.988   1.656 -1.1148  0.3994  0.1306
 6554TIP3   OH219667   6.005   5.291   0.625  0.0845  0.0576 -0.0650
 6554TIP3    H119668   5.921   5.278   0.582  1.2687  0.5246 -2.7203
 6554TIP3    H219669   5.991   5.365   0.684 -1.3789  0.0498 -0.3637
 6555TIP3   OH219670   3.850   4.477   3.753 -0.2510 -0.3148  0.9601
 6555TIP3    H119671   3.827   4.570   3.756  0.2985 -0.0296 -1.4197
 6555TIP3    H219672   3.942   4.474   3.780  0.5275  0.2465 -1.4078
 6556TIP3   OH219673   1.359   1.349   0.384 -0.4460  0.0165 -0.3782
 6556TIP3    H119674   1.382   1.305   0.466 -0.4412 -1.3171 -1.0586
 6556TIP3    H219675   1.433   1.330   0.326 -1.1814 -0.4593 -1.1878
 6557TIP3   OH219676   3.011   2.563   1.635  0.2662 -0.0096  0.2478
 6557TIP3    H119677   2.952   2.620   1.585 -1.2658  2.1217  4.0564
 6557TIP3    H219678   3.087   2.618   1.655  1.8076 -1.4683 -1.2635
 6558TIP3   OH219679   5.599   2.373   4.287  0.1507  0.1390  0.1078
 6558TIP3    H119680   5.505   2.376   4.306  0.2398  0.8853  0.4873
 6558TIP3    H219681   5.605   2.337   4.199 -0.5959  1.5274 -0.5510
 6559TIP3   OH219682   0.893   2.048   0.297  0.1188 -0.2157 -0.2563
 6559TIP3    H119683   0.806   2.025   0.329  0.8149  0.3188  2.2429
 6559TIP3    H219684   0.953   2.021   0.366  1.8480  0.4788 -1.3899
 6560TIP3   OH219685   5.870   4.033   1.521 -0.1803  0.4532 -0.5867
 6560TIP3    H119686   5.903   4.041   1.610  1.1084 -0.3542 -0.9653
 6560TIP3    H219687   5.850   3.940   1.510 -2.2246  0.8369 -0.5354
 6561TIP3   OH219688   3.295   4.215   0.774 -0.1366 -0.3113  0.1486
 6561TIP3    H119689   3.287   4.127   0.735  0.1375 -0.3475  0.1709
 6561TIP3    H219690   3.205   4.245   0.784 -0.2432 -0.7363  0.4665
 6562TIP3   OH219691   3.130   3.302   4.784 -0.7427 -0.0056 -0.5235
 6562TIP3    H119692   3.110   3.396   4.784 -2.3753 -0.3176  1.1723
 6562TIP3    H219693   3.047   3.259   4.800  0.4948 -1.5781  2.3925
 6563TIP3   OH219694   1.363   3.631   2.576 -0.4664 -0.0222  0.1252
 6563TIP3    H119695   1.443   3.580   2.591  0.4645  1.7263  1.4223
 6563TIP3    H219696   1.350   3.628   2.482  0.7375 -0.9078 -0.0360
 6564TIP3   OH219697   4.664   5.119   4.981  0.0322 -0.1593  0.3318
 6564TIP3    H119698   4.627   5.080   4.902  1.3287  1.8602 -1.3885
 6564TIP3    H219699   4.614   5.200   4.993  1.0946  0.4906  0.4503
 6565TIP3   OH219700   4.462   2.244   0.463  0.1130 -0.2311  0.2830
 6565TIP3    H119701   4.417   2.251   0.379  0.2722  1.1208  0.2864
 6565TIP3    H219702   4.404   2.192   0.518 -0.6329  0.0366 -0.2421
 6566TIP3   OH219703   1.936   5.923   1.830 -0.5379 -0.0460  0.4664
 6566TIP3    H119704   1.987   5.846   1.804  0.8837  0.3083  2.0111
 6566TIP3    H219705   1.851   5.888   1.857 -0.7394 -0.7876 -1.0305
 6567TIP3   OH219706   0.015   3.649   1.194  0.4645 -0.4444 -0.2512
 6567TIP3    H119707   0.078   3.720   1.202 -1.2439  1.1149  0.0283
 6567TIP3    H219708  -0.066   3.691   1.165 -1.4395 -1.7831  2.6146
 6568TIP3   OH219709   0.107   4.619   3.167  0.4551  0.0854 -0.0737
 6568TIP3    H119710   0.057   4.598   3.088 -1.1654  0.8610  0.7099
 6568TIP3    H219711   0.198   4.598   3.144 -0.0432 -0.1508 -1.9770
 6569TIP3   OH219712   2.208   2.379   1.874 -0.3131 -0.5937  0.1347
 6569TIP3    H119713   2.114   2.398   1.873 -0.3271 -0.4717 -1.9793
 6569TIP3    H219714   2.221   2.323   1.797  1.5464  0.5988 -0.4705
 6570TIP3   OH219715   2.397   2.363   4.049  0.1831 -0.2498 -0.1749
 6570TIP3    H119716   2.450   2.310   3.988 -0.6502 -0.8974 -0.3575
 6570TIP3    H219717   2.394   2.310   4.129 -0.7718 -0.5562 -0.4048
 6571TIP3   OH219718   4.595   2.075   2.526  0.5258 -0.5008 -0.3321
 6571TIP3    H119719   4.646   2.009   2.572 -0.2992 -0.8273  0.1263
 6571TIP3    H219720   4.571   2.139   2.593 -2.2232 -1.9139  0.1414
 6572TIP3   OH219721   4.777   5.758   2.139 -0.2832  0.4559 -0.0938
 6572TIP3    H119722   4.727   5.683   2.108 -1.3956  1.1640 -0.0936
 6572TIP3    H219723   4.865   5.746   2.103 -0.5135 -0.6958 -0.3071
 6573TIP3   OH219724   1.705   0.295   4.153  0.3825 -0.0139  0.8101
 6573TIP3    H119725   1.748   0.331   4.231 -0.4661 -0.1942  1.3728
 6573TIP3    H219726   1.637   0.359   4.133 -0.4435 -0.7667  1.1825
 6574TIP3   OH219727   3.411   1.966   3.412 -0.0415  0.1757  0.2556
 6574TIP3    H119728   3.393   2.060   3.405 -1.3159  0.1013  2.1097
 6574TIP3    H219729   3.499   1.961   3.449 -0.1545  0.6385  0.5896
 6575TIP3   OH219730   1.662   1.245   0.196 -0.0912 -0.6270 -0.8401
 6575TIP3    H119731   1.603   1.195   0.251 -0.2924 -0.1329 -0.5999
 6575TIP3    H219732   1.749   1.232   0.234 -0.2460 -0.1808 -0.3221
 6576TIP3   OH219733   1.722   0.377   4.618  0.2675  0.2024 -0.3912
 6576TIP3    H119734   1.755   0.304   4.672  1.0573  1.0367  0.2870
 6576TIP3    H219735   1.687   0.335   4.540  1.4554 -0.8674 -0.3893
 6577TIP3   OH219736   1.988   3.588   1.796 -0.2804  0.0445  0.1297
 6577TIP3    H119737   1.927   3.554   1.731 -1.1761  0.3357  0.7993
 6577TIP3    H219738   2.026   3.666   1.755  0.9644 -1.0933 -0.9747
 6578TIP3   OH219739   0.711   5.211   0.882 -0.1813 -0.2614  0.4250
 6578TIP3    H119740   0.792   5.254   0.909  0.1003 -0.7232  0.3261
 6578TIP3    H219741   0.643   5.252   0.936 -0.4748  2.6841 -1.9191
 6579TIP3   OH219742   1.615   2.200   2.991  0.1289 -0.4062 -0.1374
 6579TIP3    H119743   1.603   2.249   3.072 -2.4172 -1.0786 -0.0061
 6579TIP3    H219744   1.663   2.260   2.934  0.1732  0.8800  1.1858
 6580TIP3   OH219745   1.093   5.000   0.217  0.3879 -0.4183 -0.3840
 6580TIP3    H119746   1.053   4.959   0.294 -1.4785  2.4306  0.3080
 6580TIP3    H219747   1.046   4.963   0.143 -1.2175  0.3021  0.2166
 6581TIP3   OH219748   5.350   2.845   4.664 -0.2350  0.1559  0.0065
 6581TIP3    H119749   5.328   2.912   4.728 -1.4809  2.2766 -2.4287
 6581TIP3    H219750   5.274   2.787   4.662  0.3570 -0.7041  1.2996
 6582TIP3   OH219751   4.858   3.652   2.260 -0.6658  0.8013 -0.0921
 6582TIP3    H119752   4.882   3.708   2.185 -0.7164  0.3253 -0.4648
 6582TIP3    H219753   4.782   3.696   2.298 -0.1510  1.4903  0.1761
 6583TIP3   OH219754   4.051   5.752   3.136 -0.0016  0.2055 -0.2360
 6583TIP3    H119755   4.018   5.749   3.225  0.7612 -1.4752  0.0289
 6583TIP3    H219756   4.131   5.805   3.141  0.0764  0.0571  0.1044
 6584TIP3   OH219757   1.277   3.386   2.408 -0.0636 -0.2567 -0.2359
 6584TIP3    H119758   1.328   3.445   2.352  0.7453 -0.5050  0.2285
 6584TIP3    H219759   1.271   3.304   2.358  0.2169 -0.3112 -0.1793
 6585TIP3   OH219760   6.340   2.571   2.562  0.3440 -0.2448 -0.0042
 6585TIP3    H119761   6.303   2.626   2.493 -0.7714 -0.1996  0.5963
 6585TIP3    H219762   6.323   2.481   2.534 -1.9301 -0.2418  1.0613
 6586TIP3   OH219763   5.360   5.224   1.184 -0.1709 -0.6887 -0.5983
 6586TIP3    H119764   5.304   5.302   1.184 -0.3052 -0.7747  0.2602
 6586TIP3    H219765   5.389   5.216   1.093 -1.4031 -0.5392 -1.0299
 6587TIP3   OH219766   5.654   4.997   2.646  0.2779  0.1075  0.1724
 6587TIP3    H119767   5.569   4.984   2.687  1.2718 -1.0850  1.9932
 6587TIP3    H219768   5.714   5.010   2.719  1.9483 -0.8512 -0.9537
 6588TIP3   OH219769   3.502   2.625   2.915 -0.3712 -0.1817  0.4604
 6588TIP3    H119770   3.590   2.608   2.947 -0.2309  0.1336  0.2473
 6588TIP3    H219771   3.446   2.567   2.968 -0.2244  0.7903  1.7401
 6589TIP3   OH219772   4.118   4.442   3.860 -0.0331 -0.1536 -0.5000
 6589TIP3    H119773   4.199   4.392   3.863  0.8106  1.2301  0.6163
 6589TIP3    H219774   4.077   4.427   3.945 -0.7634 -0.5107 -0.9024
 6590TIP3   OH219775   4.347   3.558   0.856  0.2207 -0.4241 -0.5104
 6590TIP3    H119776   4.290   3.634   0.842  1.2841  1.1590  2.6889
 6590TIP3    H219777   4.436   3.592   0.846  0.7277 -1.2056  1.0747
 6591TIP3   OH219778   3.851   0.699   0.660 -0.1367 -0.0836 -0.1428
 6591TIP3    H119779   3.897   0.744   0.731  0.8405 -1.3031  0.0293
 6591TIP3    H219780   3.873   0.607   0.671 -0.7508 -0.4213 -1.4613
 6592TIP3   OH219781   1.232   3.428   3.695  0.0121 -0.3314  0.5510
 6592TIP3    H119782   1.246   3.394   3.784  0.3986 -2.0182 -0.1023
 6592TIP3    H219783   1.188   3.356   3.649 -3.8648  1.9112  0.3553
 6593TIP3   OH219784   2.922   1.368   1.067 -0.0993  0.0923 -1.0096
 6593TIP3    H119785   2.838   1.410   1.083 -0.2480  0.2198 -2.0065
 6593TIP3    H219786   2.985   1.440   1.070 -0.4455  0.5979 -3.4779
 6594TIP3   OH219787   5.253   3.315   2.149  0.1531  0.4548 -0.1706
 6594TIP3    H119788   5.304   3.286   2.073  2.5728  0.9731  1.1400
 6594TIP3    H219789   5.297   3.396   2.177  0.1324 -0.3613  2.4568
 6595TIP3   OH219790   2.246   4.022   2.732 -0.3371 -0.0245 -0.1510
 6595TIP3    H119791   2.280   4.104   2.694  1.0736 -0.1766  0.6852
 6595TIP3    H219792   2.250   3.959   2.661  0.9370  0.0426 -0.1701
 6596TIP3   OH219793   2.054   5.832   1.248  0.1964  0.0133 -0.4185
 6596TIP3    H119794   2.017   5.865   1.167 -0.8889  0.3349  0.1788
 6596TIP3    H219795   2.041   5.737   1.244 -1.2829  0.1559  0.0104
 6597TIP3   OH219796   4.969   1.956   2.189 -0.0792  0.5487 -0.2529
 6597TIP3    H119797   4.887   1.908   2.204  0.0197  0.3576 -0.3106
 6597TIP3    H219798   5.013   1.905   2.121  0.9223 -0.3831  1.0540
 6598TIP3   OH219799   2.172   4.544   4.458  0.2680  0.0425  0.1383
 6598TIP3    H119800   2.111   4.558   4.530  0.8803 -0.2917  0.7327
 6598TIP3    H219801   2.175   4.628   4.412 -0.3404  0.1741  0.3292
 6599TIP3   OH219802   3.174   2.686   5.151  0.5235  0.2044  0.3343
 6599TIP3    H119803   3.257   2.719   5.185 -0.1755  2.2255  0.2285
 6599TIP3    H219804   3.108   2.746   5.188 -0.7479 -0.5845 -0.5869
 6600TIP3   OH219805   2.593   3.546   3.149  0.5284 -0.7664 -0.0124
 6600TIP3    H119806   2.531   3.474   3.158  0.2437 -0.3587  1.6079
 6600TIP3    H219807   2.676   3.503   3.126  0.5780 -1.7604  1.7832
 6601TIP3   OH219808   2.690   4.847   2.429  0.1793  0.2109  0.3275
 6601TIP3    H119809   2.603   4.808   2.440 -0.7206  1.6161 -1.3428
 6601TIP3    H219810   2.734   4.789   2.366 -0.1387  0.3521 -0.0304
 6602TIP3   OH219811   0.408   0.529   2.409  0.1407 -0.5448  0.4608
 6602TIP3    H119812   0.332   0.541   2.353  0.4239 -1.2271 -0.0767
 6602TIP3    H219813   0.480   0.568   2.359  0.2962 -0.6541  0.6007
 6603TIP3   OH219814   3.781   4.943   3.101 -0.1637  0.6916  0.0572
 6603TIP3    H119815   3.799   4.886   3.026 -0.2519 -0.3646  0.8039
 6603TIP3    H219816   3.843   4.913   3.168 -0.6304  1.0729  0.6688
 6604TIP3   OH219817   3.583   1.077   2.411  0.1341  0.2303 -0.3667
 6604TIP3    H119818   3.612   1.167   2.396 -0.0552  0.7951  2.1036
 6604TIP3    H219819   3.512   1.085   2.475 -0.2808 -1.6397 -0.5189
 6605TIP3   OH219820   2.098   3.305   3.364  0.4292  0.0540  0.4591
 6605TIP3    H119821   2.074   3.323   3.455 -0.8417 -1.3719  0.4518
 6605TIP3    H219822   2.194   3.298   3.366  0.5100  1.1473  1.4505
 6606TIP3   OH219823   3.642   1.310   0.741 -0.2706 -0.0728 -0.4446
 6606TIP3    H119824   3.669   1.342   0.655 -1.2949 -1.2699 -1.2403
 6606TIP3    H219825   3.678   1.374   0.803  0.4950  0.7974 -1.7499
 6607TIP3   OH219826   5.611   1.440   0.437 -0.2759 -0.2289 -0.1140
 6607TIP3    H119827   5.684   1.463   0.494  0.5265  1.4893 -1.7205
 6607TIP3    H219828   5.541   1.502   0.460  0.4588  1.2771 -1.6806
 6608TIP3   OH219829   5.261   2.879   3.955 -0.5414  0.3029  0.2067
 6608TIP3    H119830   5.291   2.876   3.864  0.5890 -1.0079  0.5792
 6608TIP3    H219831   5.285   2.967   3.985 -2.5497  1.4067 -1.2344
 6609TIP3   OH219832   1.996   2.561   0.819  0.3369 -0.5359  0.0266
 6609TIP3    H119833   2.052   2.576   0.896 -0.1166 -0.1459  0.2910
 6609TIP3    H219834   1.929   2.499   0.850  0.3884 -0.6853 -0.1661
 6610TIP3   OH219835   5.388   3.403   5.146 -0.0956  0.4733 -0.6904
 6610TIP3    H119836   5.481   3.424   5.148 -0.0553  0.2991 -0.7594
 6610TIP3    H219837   5.350   3.458   5.215  0.2694 -0.4865  0.3051
 6611TIP3   OH219838   2.138   5.463   1.865  0.5051  0.1143  0.5445
 6611TIP3    H119839   2.210   5.507   1.820  1.1465 -0.4108  1.0172
 6611TIP3    H219840   2.152   5.370   1.847 -1.6527  0.1385 -1.6505
 6612TIP3   OH219841   4.367   5.441   4.197 -0.1867 -0.4916  0.5789
 6612TIP3    H119842   4.409   5.393   4.125 -2.5720 -0.5394 -0.8912
 6612TIP3    H219843   4.401   5.530   4.188  1.6159 -1.0778  1.1525
 6613TIP3   OH219844   2.551   0.587   1.835  0.3115  0.5688  0.2278
 6613TIP3    H119845   2.593   0.539   1.763  0.6586  3.0542 -1.3709
 6613TIP3    H219846   2.592   0.553   1.914  0.5500 -1.6749 -0.7817
 6614TIP3   OH219847   0.638   5.566   3.427 -0.0838  0.2068 -0.8286
 6614TIP3    H119848   0.706   5.557   3.495  1.2642 -0.3555 -2.1941
 6614TIP3    H219849   0.558   5.584   3.476  0.9470  0.3972  0.8819
 6615TIP3   OH219850   0.829   2.685   4.448 -0.4318  0.3029  0.0813
 6615TIP3    H119851   0.922   2.673   4.429 -0.4322 -0.6766  0.6369
 6615TIP3    H219852   0.827   2.721   4.536 -0.5822  0.1312  0.1495
 6616TIP3   OH219853   2.942   3.919   0.397  0.0868 -0.1888  0.8016
 6616TIP3    H119854   2.859   3.944   0.357 -1.1387 -0.7020  2.8810
 6616TIP3    H219855   3.004   3.918   0.324 -1.6039  0.6694 -0.7370
 6617TIP3   OH219856   3.991   0.258   2.463 -0.1324  0.1928 -0.5476
 6617TIP3    H119857   4.078   0.275   2.498 -0.0882 -2.0346  0.6251
 6617TIP3    H219858   3.934   0.318   2.510  0.4055 -0.4237  0.9510
 6618TIP3   OH219859   0.941   2.286   1.603 -0.4909 -0.0490 -0.4385
 6618TIP3    H119860   0.916   2.299   1.512  0.6007  0.3219 -0.6970
 6618TIP3    H219861   1.022   2.336   1.613 -0.2046 -0.6860  0.5419
 6619TIP3   OH219862   2.676   0.654   3.458 -0.2458 -0.1888  0.0854
 6619TIP3    H119863   2.638   0.571   3.431 -1.4389  0.4248 -0.2023
 6619TIP3    H219864   2.753   0.630   3.510  1.5166 -1.4155 -2.8683
 6620TIP3   OH219865   4.268   4.613   4.858 -0.2100 -0.3073 -0.0564
 6620TIP3    H119866   4.208   4.592   4.786  1.1550 -0.4167 -1.2005
 6620TIP3    H219867   4.247   4.703   4.882 -1.6388 -0.7311  0.4046
 6621TIP3   OH219868   5.568   1.969   2.254  0.5605  0.1656  0.1134
 6621TIP3    H119869   5.573   1.894   2.313  0.4651  1.1267  1.4145
 6621TIP3    H219870   5.499   2.024   2.292  1.4509  1.4720 -0.0845
 6622TIP3   OH219871   2.347   2.911   1.087 -0.6033 -0.0327 -0.2502
 6622TIP3    H119872   2.368   3.005   1.082 -2.5329  0.3581 -2.7231
 6622TIP3    H219873   2.375   2.876   1.003 -0.3349 -1.6245  0.4688
 6623TIP3   OH219874   0.178   1.864   3.275  0.2483  0.0134 -0.2839
 6623TIP3    H119875   0.270   1.876   3.297 -0.0267 -1.5759  2.1086
 6623TIP3    H219876   0.147   1.952   3.251  1.9214  0.9342  0.7381
 6624TIP3   OH219877   4.579   4.608   3.064  0.5695 -0.2103 -0.2920
 6624TIP3    H119878   4.547   4.613   3.154  1.5033  0.5756  0.0134
 6624TIP3    H219879   4.603   4.516   3.052 -2.3751 -1.0303 -0.7886
 6625TIP3   OH219880   1.670   1.246   2.055  0.0598  0.1679 -0.0066
 6625TIP3    H119881   1.712   1.301   2.121  1.0395 -0.0048 -0.4552
 6625TIP3    H219882   1.593   1.209   2.098  0.1716  0.7873  0.7353
 6626TIP3   OH219883   3.221   3.440   2.348 -0.0015  0.3304 -0.9070
 6626TIP3    H119884   3.275   3.478   2.279  0.0735  0.0749 -0.9918
 6626TIP3    H219885   3.285   3.407   2.412 -0.0692  0.5543 -0.7197
 6627TIP3   OH219886   4.051   1.118   4.345 -0.1639  0.1049  0.0805
 6627TIP3    H119887   3.979   1.131   4.407 -1.1997  2.3793 -1.4380
 6627TIP3    H219888   4.124   1.169   4.381 -0.4370  0.5944 -0.0533
 6628TIP3   OH219889   4.859   2.378   1.344  0.3762 -0.7076 -0.6091
 6628TIP3    H119890   4.950   2.408   1.349 -0.2159  1.2555 -0.7108
 6628TIP3    H219891   4.807   2.456   1.362 -1.3183 -1.6394 -1.2390
 6629TIP3   OH219892   2.661   5.108   3.923  0.4707  0.2352 -0.5618
 6629TIP3    H119893   2.650   5.021   3.883 -2.0589 -1.0178  2.4128
 6629TIP3    H219894   2.586   5.158   3.891  0.1978  0.2548  0.0847
 6630TIP3   OH219895   0.501   5.180   3.449  0.4273  0.5551  0.3449
 6630TIP3    H119896   0.429   5.142   3.500  1.1528 -1.6595 -0.1576
 6630TIP3    H219897   0.575   5.182   3.509  0.2660  1.7875  0.5316
 6631TIP3   OH219898   1.494   0.466   2.414  0.4098 -0.1433  0.5059
 6631TIP3    H119899   1.474   0.380   2.451  0.7937 -0.2671  0.4207
 6631TIP3    H219900   1.427   0.524   2.452  0.3713 -0.4059  0.8460
 6632TIP3   OH219901   5.962   4.211   4.380 -0.3210 -0.0891 -0.1034
 6632TIP3    H119902   6.044   4.178   4.417 -0.5577  0.2299  0.7166
 6632TIP3    H219903   5.989   4.288   4.329  0.1103 -1.0001 -1.3102
 6633TIP3   OH219904   4.289   1.781   1.698 -0.3108 -0.0962  0.4453
 6633TIP3    H119905   4.226   1.771   1.770 -0.7461 -1.7473 -0.1327
 6633TIP3    H219906   4.235   1.792   1.620  0.0379 -2.0672 -0.1363
 6634TIP3   OH219907   0.486   3.719   1.160 -0.2269 -0.0441  0.6136
 6634TIP3    H119908   0.469   3.708   1.254  0.3790 -1.3570  0.5855
 6634TIP3    H219909   0.570   3.675   1.145  1.2832  2.7816 -0.0020
 6635TIP3   OH219910   3.874   3.290   3.199 -0.0342 -0.0574  0.3774
 6635TIP3    H119911   3.917   3.338   3.128  0.6018  0.6400  1.2066
 6635TIP3    H219912   3.859   3.202   3.163 -1.6469  0.8402 -1.3493
 6636TIP3   OH219913   0.992   0.764   1.893 -0.3980  0.0123 -0.6635
 6636TIP3    H119914   1.027   0.724   1.814 -0.3048  0.0719 -0.6523
 6636TIP3    H219915   0.930   0.699   1.927 -0.5355  0.0414 -0.8555
 6637TIP3   OH219916   1.870   2.886   0.261 -0.0129  0.1141 -0.4433
 6637TIP3    H119917   1.930   2.897   0.187  0.2301  1.2907 -0.1018
 6637TIP3    H219918   1.890   2.799   0.295 -0.8189 -0.8588 -2.3397
 6638TIP3   OH219919   1.311   5.716   3.994 -1.2534  0.0395 -0.2036
 6638TIP3    H119920   1.394   5.688   3.956 -0.0149 -0.6529  2.7139
 6638TIP3    H219921   1.307   5.810   3.979  1.1905  0.4874  1.4093
 6639TIP3   OH219922   2.509   5.937   1.325 -0.7860  0.4633  0.3550
 6639TIP3    H119923   2.531   5.997   1.254  0.5184  0.0012  0.3297
 6639TIP3    H219924   2.594   5.910   1.360 -1.3464  2.1233  3.3610
 6640TIP3   OH219925   3.784   5.778   3.422 -0.3854  0.2685 -0.2254
 6640TIP3    H119926   3.835   5.858   3.431 -0.0462  0.1416 -0.9237
 6640TIP3    H219927   3.800   5.730   3.503 -0.9865  1.1208  0.4127
   6.34399   5.98116   5.17985   0.00000   0.00000  -2.11467   0.00000  -2.11467  -2.99059
