Title
29212
    1ASP      N    1   2.882   2.503   2.967  0.0001  0.1751  0.4552
    1ASP    HT1    2   2.785   2.472   2.945  0.0115  0.9384 -0.7436
    1ASP    HT2    3   2.933   2.525   2.879 -1.7667  0.8558 -0.4599
    1ASP    HT3    4   2.861   2.590   3.019  0.2573 -0.7639  2.2126
    1ASP     CA    5   2.956   2.402   3.043 -0.2528  0.5922 -0.2184
    1ASP     HA    6   3.032   2.446   3.106 -0.0688 -0.9396  0.6734
    1ASP     CB    7   2.863   2.329   3.143  0.1179  0.6788  0.5454
    1ASP    HB1    8   2.902   2.238   3.193  2.8338  1.4203 -0.0919
    1ASP    HB2    9   2.785   2.291   3.073  2.0450 -2.1900 -0.1898
    1ASP     CG   10   2.793   2.402   3.251 -0.2934  0.5734  0.1965
    1ASP    OD1   11   2.830   2.520   3.274 -0.0314  0.0525  0.3447
    1ASP    OD2   12   2.707   2.337   3.315  0.5123 -0.0219 -0.3773
    1ASP      C   13   3.040   2.312   2.955  0.0064 -0.1204  0.1178
    1ASP      O   14   3.041   2.326   2.831  0.3945  0.6328 -0.3972
    2GLY      N   15   3.116   2.220   3.022  0.1999  0.3563 -0.0169
    2GLY     HN   16   3.110   2.211   3.121 -2.0433 -2.4699 -0.2839
    2GLY     CA   17   3.208   2.117   2.966 -0.3700 -0.4898 -0.9573
    2GLY    HA1   18   3.155   2.043   2.909 -0.7989  1.2325 -2.8895
    2GLY    HA2   19   3.259   2.062   3.044 -0.7080 -0.4429 -0.7024
    2GLY      C   20   3.316   2.166   2.876 -0.0663  0.4627  0.4849
    2GLY      O   21   3.341   2.284   2.867 -0.3769  0.2420  0.1817
    3ASP      N   22   3.388   2.085   2.796 -0.0664 -0.5463  0.1579
    3ASP     HN   23   3.362   1.989   2.787 -0.7356 -0.4508  0.9884
    3ASP     CA   24   3.472   2.135   2.688 -0.6081 -0.0683  0.5719
    3ASP     HA   25   3.523   2.225   2.718 -1.1874  0.2751  0.5531
    3ASP     CB   26   3.583   2.034   2.649  0.2055  0.3378 -0.0886
    3ASP    HB1   27   3.637   2.056   2.554  2.3636 -1.4951  0.6323
    3ASP    HB2   28   3.536   1.935   2.631  2.1331 -0.6590  0.0857
    3ASP     CG   29   3.684   2.018   2.757  0.3007 -0.4805 -0.9009
    3ASP    OD1   30   3.694   2.104   2.849  0.5047  0.6108  0.7994
    3ASP    OD2   31   3.771   1.933   2.742 -0.1056  0.7104 -0.0252
    3ASP      C   32   3.380   2.160   2.567  0.3969 -0.6570 -0.3598
    3ASP      O   33   3.286   2.084   2.538 -0.1261 -0.0231 -0.0637
    4GLY      N   34   3.404   2.269   2.491  0.0917 -0.2797 -0.2734
    4GLY     HN   35   3.476   2.326   2.530 -0.1603 -0.1559  0.0127
    4GLY     CA   36   3.323   2.323   2.378  0.5653 -0.0021 -0.1670
    4GLY    HA1   37   3.359   2.423   2.355  0.9805 -0.0798  0.1249
    4GLY    HA2   38   3.222   2.321   2.415  1.1986 -0.6650  1.6931
    4GLY      C   39   3.333   2.240   2.255  0.4245  0.4780 -1.2735
    4GLY      O   40   3.416   2.154   2.247 -0.4802  0.6317  0.0852
    5PRO      N   41   3.240   2.269   2.166  0.1326 -0.0452  0.2355
    5PRO     CD   42   3.120   2.349   2.182 -0.1987  0.1828  0.1930
    5PRO    HD1   43   3.148   2.454   2.208  1.1478 -0.1427  0.1292
    5PRO    HD2   44   3.051   2.295   2.251  0.6214 -0.7621  0.2958
    5PRO     CA   45   3.226   2.176   2.054  0.0487 -0.3223  0.3348
    5PRO     HA   46   3.244   2.076   2.090 -1.0857 -0.8166 -0.4217
    5PRO     CB   47   3.077   2.196   2.013  0.3144 -1.1338  0.9045
    5PRO    HB1   48   3.023   2.133   2.087  1.2148  1.7303  4.3139
    5PRO    HB2   49   3.056   2.170   1.907 -2.4004  0.7432  0.8855
    5PRO     CG   50   3.060   2.347   2.040 -0.1947  0.4120 -0.8211
    5PRO    HG1   51   3.120   2.402   1.965 -0.1929  0.6542 -0.6448
    5PRO    HG2   52   2.955   2.382   2.036  0.3138  2.4245  1.1084
    5PRO      C   53   3.327   2.202   1.948 -0.7493 -0.2667 -0.0027
    5PRO      O   54   3.318   2.299   1.873 -0.1397  0.2044 -0.2278
    6GLY      N   55   3.419   2.104   1.932  0.3942 -0.0933  0.6116
    6GLY     HN   56   3.424   2.037   2.006  0.0141 -0.7956  0.0132
    6GLY     CA   57   3.525   2.087   1.844  0.3421 -0.4724  0.3775
    6GLY    HA1   58   3.575   1.997   1.877 -0.3758 -1.5269 -1.2960
    6GLY    HA2   59   3.588   2.173   1.830  0.4915 -0.9907 -2.9414
    6GLY      C   60   3.478   2.047   1.710  0.6559 -0.4267  0.3259
    6GLY      O   61   3.532   2.082   1.609 -0.5341  0.0686  0.1051
    7ASP      N   62   3.364   1.977   1.706 -0.8724 -0.4379  0.0686
    7ASP     HN   63   3.311   1.956   1.788 -1.0833  3.7775  1.2588
    7ASP     CA   64   3.287   1.956   1.582  0.0984  0.1781 -0.5268
    7ASP     HA   65   3.350   1.958   1.494 -1.5959  1.9019 -1.7931
    7ASP     CB   66   3.200   1.821   1.588 -0.3135 -0.0372 -0.0478
    7ASP    HB1   67   3.119   1.826   1.513  1.0139  3.4320 -1.4616
    7ASP    HB2   68   3.148   1.825   1.685  1.0121  0.0511  0.6866
    7ASP     CG   69   3.285   1.702   1.577  0.3740 -0.2048 -0.4111
    7ASP    OD1   70   3.222   1.593   1.563  0.5960 -0.3206  0.5522
    7ASP    OD2   71   3.408   1.705   1.577 -0.0704  0.6014 -0.0280
    7ASP      C   72   3.187   2.070   1.553  0.4460 -2.2173  0.2177
    7ASP      O   73   3.126   2.122   1.648 -0.6898  0.0302 -0.5208
    8PRO      N   74   3.172   2.124   1.428 -0.1812 -0.7244 -0.1512
    8PRO     CD   75   3.232   2.077   1.304 -0.1588  0.2632  0.8070
    8PRO    HD1   76   3.209   1.969   1.299  1.5819 -0.0969 -2.1295
    8PRO    HD2   77   3.339   2.103   1.293  0.1012 -1.3217 -0.7994
    8PRO     CA   78   3.061   2.217   1.396 -0.4508 -0.8984 -0.3268
    8PRO     HA   79   3.071   2.303   1.460  1.0932 -1.5231  0.3281
    8PRO     CB   80   3.096   2.260   1.251 -0.6376 -0.1695  0.1429
    8PRO    HB1   81   3.176   2.337   1.261 -0.3832 -0.4658  0.4207
    8PRO    HB2   82   3.017   2.303   1.186 -0.5966 -1.1933 -0.6059
    8PRO     CG   83   3.148   2.133   1.189 -0.2137 -0.7872  0.9768
    8PRO    HG1   84   3.063   2.070   1.154  0.2014 -0.4945 -0.6355
    8PRO    HG2   85   3.211   2.159   1.102 -2.2667  1.7079  0.1528
    8PRO      C   86   2.927   2.151   1.402  0.5777 -1.0152  0.3892
    8PRO      O   87   2.916   2.031   1.413 -0.3402 -0.9997 -0.8755
    9GLY      N   88   2.818   2.227   1.401  0.6083  0.1206 -0.3071
    9GLY     HN   89   2.819   2.326   1.395 -0.0784  0.0831 -1.3018
    9GLY     CA   90   2.679   2.171   1.406  0.7895 -0.3278 -0.4078
    9GLY    HA1   91   2.615   2.241   1.457  0.5513  2.4950 -4.1627
    9GLY    HA2   92   2.676   2.073   1.453 -2.9418  0.4054  1.2731
    9GLY      C   93   2.626   2.160   1.265 -0.0508  0.3297  0.1523
    9GLY      O   94   2.521   2.098   1.245 -0.1557 -0.1485 -0.3176
   10ASP      N   95   2.698   2.223   1.169 -0.1382 -0.1873  0.2721
   10ASP     HN   96   2.771   2.288   1.190 -1.1674  1.4140 -0.8699
   10ASP     CA   97   2.665   2.239   1.029  0.7413  0.0350  0.2990
   10ASP     HA   98   2.581   2.307   1.021 -0.0841 -0.9923 -0.0929
   10ASP     CB   99   2.786   2.304   0.955 -0.2021  0.6292  0.6319
   10ASP    HB1  100   2.763   2.312   0.847 -2.4290 -2.5183  0.7201
   10ASP    HB2  101   2.873   2.236   0.951 -0.2959  0.5516 -0.2866
   10ASP     CG  102   2.843   2.430   1.010  0.0105 -0.2988 -0.2052
   10ASP    OD1  103   2.781   2.491   1.104  0.3574 -0.6226  0.5728
   10ASP    OD2  104   2.950   2.478   0.962 -0.8618 -0.0582 -0.4188
   10ASP      C  105   2.624   2.110   0.960  0.1544 -0.1277  0.9202
   10ASP      O  106   2.666   2.003   1.002 -0.0327 -0.4572  1.1549
   11GLY      N  107   2.533   2.111   0.861 -0.2904 -0.4471  0.6548
   11GLY     HN  108   2.509   2.195   0.815 -0.8278 -2.1458 -2.4561
   11GLY     CA  109   2.491   1.986   0.791  0.6131  0.4725  0.3483
   11GLY    HA1  110   2.385   1.996   0.776  0.5107 -0.7206  0.1835
   11GLY    HA2  111   2.520   1.901   0.852  1.6793 -1.4698 -2.6508
   11GLY      C  112   2.553   1.971   0.652 -0.0657 -0.3011 -0.5940
   11GLY    OT1  113   2.566   2.068   0.576 -0.2732 -0.3355  0.3043
   11GLY    OT2  114   2.579   1.855   0.612 -0.2016 -0.3150  0.4408
   12SOD    SOD  115   1.430   2.600   0.598 -0.0625 -0.0516  0.0717
   13SOD    SOD  116   0.519   1.467   3.875  0.0999  0.0538 -0.2888
   14SOD    SOD  117   2.326   0.608   1.922  0.0593 -0.9791  0.0013
   15SOD    SOD  118   4.304   3.478   3.766 -0.3320  0.3579 -0.1558
   16SOD    SOD  119   7.148   1.714   3.633  0.3522  0.2800  0.2030
   17SOD    SOD  120   0.702   4.596   2.276  0.4871 -0.2625 -0.4706
   18SOD    SOD  121   5.888   3.667   2.364  0.0162  0.2717 -0.0468
   19SOD    SOD  122   4.151   2.198   1.840  0.4656 -0.2753 -0.5994
   20SOD    SOD  123   5.640   0.062   2.388  0.0389 -0.1245  0.5173
   21SOD    SOD  124   1.132   6.440   3.161 -0.0064  0.3092  0.1700
   22SOD    SOD  125   4.682   2.729   0.906 -0.0348 -0.0371  0.2972
   23SOD    SOD  126   4.854   5.178   5.689  0.2576  0.4822 -0.5937
   24SOD    SOD  127   3.993   3.103   3.044 -0.4097 -0.0009  0.0024
   25SOD    SOD  128   1.355   2.654   4.610  0.6531  0.0361 -0.1962
   26SOD    SOD  129   4.802   5.529   4.097 -0.0540  0.7050  0.1290
   27SOD    SOD  130   2.885   3.492   1.132 -0.3356  0.0193  0.0973
   28SOD    SOD  131   7.196   2.929   0.814 -0.2474  0.0341  0.5681
   29SOD    SOD  132   1.082   5.023   3.092  0.3006  0.0297 -0.1410
   30SOD    SOD  133   2.634   1.285   3.969  0.4538 -0.1514  0.0379
   31SOD    SOD  134   5.790   2.558   2.332  0.1167  0.0517 -0.4141
   32SOD    SOD  135   4.454   4.036   4.740 -0.0356  0.0322  0.3381
   33SOD    SOD  136   1.982   0.366   3.368 -1.0808  0.4614 -0.0276
   34SOD    SOD  137   5.032   1.461   2.068  0.4989  0.0675  0.1415
   35SOD    SOD  138   5.119   5.558   1.614  0.1709  0.3451 -0.1120
   36SOD    SOD  139   3.419   2.835   5.119  0.3199  0.5008 -0.3498
   37SOD    SOD  140   2.628   1.261   5.746 -0.0554  0.0435 -0.2699
   38SOD    SOD  141   1.033   0.964   1.353 -0.3756  0.2513  0.2645
   39SOD    SOD  142   6.713   3.549   0.364 -0.0357 -0.1754 -0.1379
   40SOD    SOD  143   2.649   1.410   3.235  0.6773  0.0642 -0.0370
   41SOD    SOD  144   5.838   2.179   5.853  0.1561 -0.0964 -0.0261
   42SOD    SOD  145   0.658   5.308   4.650 -0.3334  0.1384  0.0099
   43CLA    CLA  146   5.753   6.671   4.323  0.0045  0.1356  0.3199
   44CLA    CLA  147   4.868   4.815   1.541  0.1482  0.8029  0.1681
   45CLA    CLA  148   0.152   3.374   1.053 -0.1480  0.2151  0.2126
   46CLA    CLA  149   2.609   1.042   2.939 -0.2521 -0.3694  0.2140
   47CLA    CLA  150   0.883   1.936   4.309 -0.3907 -0.3217 -0.1078
   48CLA    CLA  151   5.523   2.114   0.653  0.1779  0.2253  0.2546
   49CLA    CLA  152   0.887   3.696   4.412 -0.0984 -0.1462  0.4463
   50CLA    CLA  153   5.365   2.666   2.011 -0.1414 -0.4682  0.3909
   51CLA    CLA  154   0.621   5.373   1.225  0.0293  0.1740  0.0731
   52CLA    CLA  155   6.013   0.399   5.069 -0.2086  0.0752 -0.3148
   53CLA    CLA  156   1.657   3.489   0.963 -0.0806 -0.3288 -0.1607
   54CLA    CLA  157   4.649   1.042   2.492  0.0577 -0.4659  0.0372
   55CLA    CLA  158   3.985   4.635   5.826  0.1071 -0.2303  0.3002
   56CLA    CLA  159   5.383   5.781   4.639  0.0831  0.2411  0.0347
   57CLA    CLA  160   5.846   3.202   0.190  0.0480  0.6006  0.2400
   58CLA    CLA  161   3.176   0.614   4.967 -0.0893 -0.2866 -0.1534
   59CLA    CLA  162   1.940   3.680   2.586 -0.0066 -0.8144  0.3468
   60CLA    CLA  163   4.888   0.395   1.537 -0.1105  0.1388  0.1952
   61CLA    CLA  164   3.842   3.639   3.890 -0.1021  0.1220  0.3471
   62CLA    CLA  165   6.257   4.932   4.452 -0.6878  0.1966  0.3690
   63CLA    CLA  166   5.708   5.551   4.257  0.4551 -0.1932  0.2314
   64CLA    CLA  167   1.285   4.971   4.376  0.3126 -0.3919 -0.5435
   65CLA    CLA  168   6.416   3.235   3.383  0.1350  0.0240  0.0986
   66CLA    CLA  169   2.389   1.947   2.533 -0.2286  0.1336 -0.4483
   67CLA    CLA  170   0.508   1.792   3.565  0.1340 -0.1407 -0.0376
   68CLA    CLA  171   3.727   1.303   4.674  0.0081 -0.0342  0.4407
   69CLA    CLA  172   6.207   5.778   0.766 -0.0868  0.0391 -0.2910
   70TIP3   OH2  173   6.180   0.334   4.353 -0.2851  0.0170  0.5161
   70TIP3    H1  174   6.125   0.387   4.295  0.3813 -1.2814 -1.4323
   70TIP3    H2  175   6.203   0.257   4.300  0.6048 -1.1354  2.4455
   71TIP3   OH2  176   0.428   4.055   3.795  0.0213 -0.7629 -0.3786
   71TIP3    H1  177   0.430   3.966   3.831 -1.0587 -0.7808 -0.3269
   71TIP3    H2  178   0.339   4.086   3.813  0.6068  0.6233  0.3118
   72TIP3   OH2  179   1.752   3.277   3.694  0.1469  0.3665  0.1976
   72TIP3    H1  180   1.828   3.222   3.713  0.2171  0.2649 -0.3553
   72TIP3    H2  181   1.728   3.315   3.778 -0.1854 -0.8674  0.6845
   73TIP3   OH2  182   6.669   4.427   2.919 -0.1683  0.3349  0.1549
   73TIP3    H1  183   6.644   4.518   2.936 -2.4146  0.0666 -1.2547
   73TIP3    H2  184   6.599   4.375   2.958 -0.8283 -0.5956 -2.1263
   74TIP3   OH2  185   2.866   2.515   2.688 -0.4700  0.1151 -0.5336
   74TIP3    H1  186   2.915   2.592   2.659  1.6150 -1.3954 -1.2515
   74TIP3    H2  187   2.774   2.539   2.674 -0.0751  3.2875  1.4317
   75TIP3   OH2  188   4.765   0.973   3.709 -0.1309 -0.1587 -0.1571
   75TIP3    H1  189   4.818   0.903   3.670 -0.5897 -0.2179 -0.6772
   75TIP3    H2  190   4.830   1.032   3.749  0.3336 -0.2497 -0.7605
   76TIP3   OH2  191   0.863   4.026   4.810 -0.0616  0.4546  0.9048
   76TIP3    H1  192   0.843   4.007   4.719 -0.3215  0.5727  0.9366
   76TIP3    H2  193   0.902   4.113   4.809  2.3336 -0.5466  0.6037
   77TIP3   OH2  194   1.478   4.759   4.772 -0.0174  0.1029 -0.0400
   77TIP3    H1  195   1.496   4.723   4.859  2.8593  0.1094 -0.5064
   77TIP3    H2  196   1.488   4.685   4.713 -1.3259  0.2275 -0.4418
   78TIP3   OH2  197   0.714   4.133   3.798  0.0130  0.0847 -0.3313
   78TIP3    H1  198   0.730   4.076   3.873  0.7432  1.8021  0.9095
   78TIP3    H2  199   0.620   4.128   3.783 -0.6156  1.5575  2.3877
   79TIP3   OH2  200   2.383   1.300   5.186  0.1290  0.1154  0.0768
   79TIP3    H1  201   2.348   1.388   5.191  1.6198  0.7496 -0.0372
   79TIP3    H2  202   2.333   1.257   5.117 -3.1879 -0.4265  2.5486
   80TIP3   OH2  203   0.944   0.442   1.784  0.0918 -0.7749 -0.1768
   80TIP3    H1  204   0.937   0.537   1.799  1.9764 -0.5327 -0.5424
   80TIP3    H2  205   0.885   0.426   1.710 -0.0108  0.1690 -0.3231
   81TIP3   OH2  206   6.060   1.658   3.147 -0.2355  0.2022  0.4535
   81TIP3    H1  207   6.013   1.625   3.223  1.0127 -2.1949  0.2608
   81TIP3    H2  208   6.125   1.719   3.183  0.4840 -1.0718  1.3883
   82TIP3   OH2  209   5.333   6.624   4.246  0.4871  0.0458 -0.3565
   82TIP3    H1  210   5.310   6.699   4.301 -0.4101 -2.0697  2.4518
   82TIP3    H2  211   5.255   6.609   4.193  0.0468  0.1582  0.2467
   83TIP3   OH2  212   0.812   5.317   1.880  0.8148 -0.4027  0.0236
   83TIP3    H1  213   0.776   5.262   1.811  1.3443  0.8953 -1.3549
   83TIP3    H2  214   0.852   5.390   1.833  1.7168  0.2240  1.6952
   84TIP3   OH2  215   0.205   6.085   4.257  0.1622 -0.5370 -0.0252
   84TIP3    H1  216   0.161   6.029   4.321  1.8056 -1.3893  0.4356
   84TIP3    H2  217   0.191   6.174   4.289  0.5047 -0.9208  1.2594
   85TIP3   OH2  218   5.628   3.186   5.809  0.2685  0.3585  0.1517
   85TIP3    H1  219   5.681   3.218   5.882 -1.6996  0.1604  1.7297
   85TIP3    H2  220   5.590   3.104   5.840  0.8579 -0.7337 -1.8240
   86TIP3   OH2  221   3.073   0.756   3.867  0.4423 -0.2008 -0.3777
   86TIP3    H1  222   3.071   0.788   3.958  0.9847 -1.7970  0.2254
   86TIP3    H2  223   3.021   0.676   3.868  0.3696 -0.1815 -1.5122
   87TIP3   OH2  224   4.509   4.829   4.073 -0.5137  0.2630 -0.1668
   87TIP3    H1  225   4.557   4.747   4.059  0.8305  1.1039 -0.6615
   87TIP3    H2  226   4.480   4.824   4.164 -0.2667 -0.6735 -0.1304
   88TIP3   OH2  227   6.218   4.945   2.336  0.1572  0.3573  0.3586
   88TIP3    H1  228   6.124   4.963   2.347  0.0259 -0.8163  1.2796
   88TIP3    H2  229   6.250   5.018   2.282 -1.4949  0.1939 -0.9257
   89TIP3   OH2  230   0.888   5.939   0.593  0.5305  0.6423  0.0219
   89TIP3    H1  231   0.827   5.968   0.524  1.1196  0.3701 -0.6261
   89TIP3    H2  232   0.837   5.877   0.645  0.6776 -0.7638 -1.4190
   90TIP3   OH2  233   5.588   3.351   1.927  0.3575 -0.4171 -0.3706
   90TIP3    H1  234   5.584   3.446   1.942 -1.2746 -0.6529  0.9850
   90TIP3    H2  235   5.628   3.316   2.007 -0.7698 -0.9968 -0.0277
   91TIP3   OH2  236   2.609   1.188   1.160  0.0143  0.4284 -0.7042
   91TIP3    H1  237   2.680   1.245   1.189 -0.6143  0.4795  0.8422
   91TIP3    H2  238   2.645   1.099   1.167 -0.2299  0.4148  0.6421
   92TIP3   OH2  239   1.009   3.541   1.071  0.0467  0.3924 -0.4261
   92TIP3    H1  240   1.025   3.537   0.977  1.1781  1.6708 -0.3222
   92TIP3    H2  241   0.972   3.455   1.093  1.2135 -0.4970 -1.7689
   93TIP3   OH2  242   4.465   1.834   3.469 -0.3206 -0.3082  0.0543
   93TIP3    H1  243   4.474   1.741   3.488  0.1108 -0.3711 -0.4396
   93TIP3    H2  244   4.394   1.839   3.406  0.5282 -0.4516 -0.9546
   94TIP3   OH2  245   5.056   0.714   1.694 -0.0847 -0.1425 -0.0880
   94TIP3    H1  246   4.980   0.768   1.675 -0.2712 -0.2260  0.3985
   94TIP3    H2  247   5.023   0.646   1.752  0.2821 -0.4032 -0.1835
   95TIP3   OH2  248   2.181   5.331   0.245  0.0203 -0.4359  0.1347
   95TIP3    H1  249   2.095   5.372   0.250 -0.2556 -0.7391 -1.4850
   95TIP3    H2  250   2.174   5.270   0.171  0.5682 -3.0238  2.0654
   96TIP3   OH2  251   0.122   2.072   3.032  0.0103 -0.2196 -0.0277
   96TIP3    H1  252   0.111   2.003   3.098 -1.7543 -0.6589 -0.7456
   96TIP3    H2  253   0.199   2.045   2.982  0.1606 -0.9428  0.5730
   97TIP3   OH2  254   3.246   2.214   4.245 -0.0812  0.1062  0.6306
   97TIP3    H1  255   3.153   2.216   4.265  0.4448 -0.0324  3.4335
   97TIP3    H2  256   3.290   2.215   4.330  2.4773 -0.7470 -0.5598
   98TIP3   OH2  257   1.389   1.356   2.220 -0.2475 -0.3207  0.3154
   98TIP3    H1  258   1.480   1.324   2.216 -0.5423 -1.2004  0.5031
   98TIP3    H2  259   1.388   1.433   2.163  0.7163 -0.0568  0.6287
   99TIP3   OH2  260   2.299   1.461   0.060  0.4120  0.3651  0.1167
   99TIP3    H1  261   2.222   1.404   0.060  1.5542 -1.2702 -1.1978
   99TIP3    H2  262   2.269   1.542   0.102 -1.9208 -0.3205 -0.0992
  100TIP3   OH2  263   3.372  -0.016   4.592 -0.4586  0.5287 -0.1733
  100TIP3    H1  264   3.331  -0.008   4.506  1.5723  2.1999 -1.0905
  100TIP3    H2  265   3.405   0.072   4.611  1.0734 -0.2960  1.2803
  101TIP3   OH2  266   6.324   3.104   5.251  0.4268 -0.0953  0.4752
  101TIP3    H1  267   6.230   3.106   5.270 -0.1377  0.6406 -2.0625
  101TIP3    H2  268   6.358   3.035   5.308 -1.7345 -0.7218  1.1063
  102TIP3   OH2  269   3.378   2.124   4.464 -0.2091  0.4688  0.4152
  102TIP3    H1  270   3.461   2.081   4.443  1.2360  2.0896  2.3729
  102TIP3    H2  271   3.330   2.059   4.516 -0.5433 -0.7337 -1.2994
  103TIP3   OH2  272   6.706   4.031   5.732  0.0061  0.3210 -0.4119
  103TIP3    H1  273   6.652   3.953   5.725 -1.2502  0.9545  1.3638
  103TIP3    H2  274   6.796   3.997   5.742 -0.5625 -0.9401  0.7845
  104TIP3   OH2  275   5.568   1.040   4.740 -0.2406 -0.2824 -0.4432
  104TIP3    H1  276   5.635   0.972   4.735 -0.3957 -0.6227  1.3974
  104TIP3    H2  277   5.533   1.046   4.651  1.0292 -1.3118 -1.0449
  105TIP3   OH2  278   4.462   6.646   0.134  0.4168  0.1096 -0.4219
  105TIP3    H1  279   4.475   6.730   0.177 -0.3505 -0.5992  1.2730
  105TIP3    H2  280   4.397   6.601   0.187  1.7436 -2.0860 -0.4977
  106TIP3   OH2  281   5.937   3.676   0.434  0.6355  0.4343 -0.9295
  106TIP3    H1  282   5.950   3.722   0.351 -1.5747 -1.4778 -2.4661
  106TIP3    H2  283   5.956   3.585   0.414 -1.5800 -0.3295  0.1449
  107TIP3   OH2  284   2.311   5.183   2.061 -0.2668 -0.3865  0.1127
  107TIP3    H1  285   2.306   5.149   1.972 -0.9886 -1.2957  0.4782
  107TIP3    H2  286   2.373   5.256   2.056  0.1771 -0.8231 -0.9970
  108TIP3   OH2  287   2.760   1.267   2.269  0.1091  0.3114 -0.6395
  108TIP3    H1  288   2.707   1.194   2.301  1.2058 -1.4055 -2.4804
  108TIP3    H2  289   2.718   1.294   2.187 -0.3719  1.8962  0.0931
  109TIP3   OH2  290   1.078   6.630   1.745 -0.2738 -0.5008 -0.2957
  109TIP3    H1  291   0.984   6.612   1.745 -0.2742 -0.7463 -2.5165
  109TIP3    H2  292   1.094   6.671   1.661  1.0104  3.1610  1.5451
  110TIP3   OH2  293   2.228   2.130   4.856  0.2515 -0.5115 -0.0371
  110TIP3    H1  294   2.236   2.221   4.827  1.2000 -1.0938 -1.6943
  110TIP3    H2  295   2.210   2.080   4.776  2.8693 -2.1741  0.3102
  111TIP3   OH2  296   3.444   1.052   3.650 -0.1175  0.0628 -0.1015
  111TIP3    H1  297   3.479   0.966   3.670 -3.0263 -0.5911  3.0300
  111TIP3    H2  298   3.520   1.110   3.653  1.7700 -2.1559 -1.4093
  112TIP3   OH2  299   7.137   3.972   0.930 -0.1325  0.4422 -0.3409
  112TIP3    H1  300   7.206   4.010   0.983  0.6600  1.4803 -2.0489
  112TIP3    H2  301   7.179   3.899   0.884 -1.0590 -1.1053  1.1109
  113TIP3   OH2  302   5.731   1.573   2.743 -0.1861 -0.4873  0.0624
  113TIP3    H1  303   5.823   1.593   2.729  0.9087 -1.5945  4.1679
  113TIP3    H2  304   5.708   1.618   2.824 -2.2366 -2.8035  0.9242
  114TIP3   OH2  305   5.147   4.933   0.966  0.2676 -0.4019  0.2594
  114TIP3    H1  306   5.163   4.976   0.882  0.4835 -0.7875  0.0982
  114TIP3    H2  307   5.069   4.879   0.951  0.3491 -0.5269  0.2861
  115TIP3   OH2  308   6.566   5.196   2.004 -0.1789  0.1837 -0.0522
  115TIP3    H1  309   6.633   5.264   1.990  0.1302  0.2899  1.6618
  115TIP3    H2  310   6.616   5.120   2.034 -0.7049 -0.1269  0.0337
  116TIP3   OH2  311   0.544   5.833   1.508 -0.5177  0.5322  0.6106
  116TIP3    H1  312   0.465   5.866   1.465 -2.5286 -3.9186  0.2787
  116TIP3    H2  313   0.603   5.809   1.437 -1.7207 -2.0798  0.3636
  117TIP3   OH2  314   4.706   2.324   4.961  1.4800  0.1669  0.4496
  117TIP3    H1  315   4.788   2.285   4.931  0.3479 -1.5194 -0.6576
  117TIP3    H2  316   4.700   2.299   5.053  0.5892 -2.8727 -0.3106
  118TIP3   OH2  317   7.081   1.115   5.839 -0.1896 -0.0359  0.2087
  118TIP3    H1  318   7.058   1.204   5.865 -0.6083  0.1172 -0.6520
  118TIP3    H2  319   7.011   1.089   5.778  0.6351 -0.4606 -0.5732
  119TIP3   OH2  320   5.703   3.248   4.718  0.3705  0.1421 -0.2911
  119TIP3    H1  321   5.632   3.311   4.735  1.0378  0.3966  1.9695
  119TIP3    H2  322   5.771   3.272   4.781  0.9329 -2.4333  0.1884
  120TIP3   OH2  323   4.109   0.541   5.312 -0.0173 -0.5749  0.4540
  120TIP3    H1  324   4.021   0.516   5.284  1.4045 -3.2309 -2.2371
  120TIP3    H2  325   4.131   0.617   5.257  0.4260 -1.8512 -1.2209
  121TIP3   OH2  326   5.325   2.347   1.483 -0.4583  0.6855 -0.2049
  121TIP3    H1  327   5.409   2.391   1.470  0.4165  0.0648  2.5731
  121TIP3    H2  328   5.330   2.268   1.429 -0.1928  1.7137 -1.7330
  122TIP3   OH2  329   4.310   4.665   0.686  0.0954 -0.5939  0.0828
  122TIP3    H1  330   4.363   4.628   0.757  2.3870 -0.7431 -1.6034
  122TIP3    H2  331   4.307   4.595   0.621 -0.4170  0.1746 -0.7257
  123TIP3   OH2  332   2.195   1.509   1.077  0.5726 -0.5085 -0.0187
  123TIP3    H1  333   2.245   1.456   1.139  1.1796 -0.5542 -0.5321
  123TIP3    H2  334   2.257   1.575   1.047 -0.4855  1.2742  1.4935
  124TIP3   OH2  335   5.982   3.749   3.679  0.8332 -0.2843  0.4464
  124TIP3    H1  336   5.929   3.683   3.635  0.2470  1.0033 -0.8396
  124TIP3    H2  337   6.072   3.721   3.663  0.6990  0.5909 -2.4694
  125TIP3   OH2  338   1.845   1.277   4.203  0.1446  0.5207 -0.0258
  125TIP3    H1  339   1.765   1.224   4.202  0.7627 -0.4316  0.0941
  125TIP3    H2  340   1.836   1.335   4.127 -0.2561 -0.1922 -0.5337
  126TIP3   OH2  341   6.430   3.501   3.936 -0.1492 -0.5921  0.0933
  126TIP3    H1  342   6.439   3.596   3.936  0.4290 -0.6333  1.0420
  126TIP3    H2  343   6.415   3.478   3.844 -0.1666  0.3968 -0.1601
  127TIP3   OH2  344   4.675   3.690   0.051 -0.3427  0.3495 -0.0393
  127TIP3    H1  345   4.691   3.652  -0.035  0.1423 -0.5862  0.4487
  127TIP3    H2  346   4.581   3.705   0.053 -0.4329 -0.1002 -0.5473
  128TIP3   OH2  347   2.934   1.174   0.435  0.9663  0.2494 -0.6070
  128TIP3    H1  348   2.973   1.088   0.452  0.2623  0.1658  0.7155
  128TIP3    H2  349   2.868   1.158   0.368 -0.4227 -0.6262  0.8969
  129TIP3   OH2  350   3.274   3.058   1.183 -0.4011  0.1180 -0.7012
  129TIP3    H1  351   3.183   3.027   1.182 -0.2548 -0.9529  3.0089
  129TIP3    H2  352   3.307   3.040   1.095 -3.0395 -1.8216 -1.4248
  130TIP3   OH2  353   3.289   5.988   5.375 -0.7080 -0.5029 -0.1714
  130TIP3    H1  354   3.362   5.928   5.388 -0.2213  0.2648  0.8201
  130TIP3    H2  355   3.228   5.968   5.446  1.3077  2.7762  2.8254
  131TIP3   OH2  356   1.600   3.860   2.956  0.1765  0.1355  0.4123
  131TIP3    H1  357   1.623   3.887   3.045 -2.2586  0.4550  0.9952
  131TIP3    H2  358   1.527   3.916   2.932 -1.0476 -1.8448 -0.6969
  132TIP3   OH2  359   4.574   6.556   5.335  0.1199  0.2799 -0.1949
  132TIP3    H1  360   4.634   6.501   5.284  0.5015  1.0301 -0.5745
  132TIP3    H2  361   4.629   6.626   5.370 -0.4645  0.7758 -0.2445
  133TIP3   OH2  362   5.159   4.044   2.796  0.3262  0.0830  0.2058
  133TIP3    H1  363   5.245   4.052   2.754 -0.1566  0.0087 -0.8307
  133TIP3    H2  364   5.129   4.135   2.807 -0.4546  0.0692 -1.5759
  134TIP3   OH2  365   6.484   5.135   3.948  0.1334 -0.0050  0.4259
  134TIP3    H1  366   6.445   5.088   4.021 -1.3762 -0.6610 -0.7629
  134TIP3    H2  367   6.410   5.171   3.899  0.8124 -2.3250 -2.6127
  135TIP3   OH2  368   6.282   5.324   5.583 -0.5256 -0.0253  0.9843
  135TIP3    H1  369   6.333   5.402   5.561 -0.7105  0.1759  1.2694
  135TIP3    H2  370   6.254   5.338   5.673 -1.8227  0.2693  0.5626
  136TIP3   OH2  371   6.394   4.586   5.263  0.1906  0.7324  0.7166
  136TIP3    H1  372   6.334   4.511   5.263  1.5514 -0.4444 -1.0288
  136TIP3    H2  373   6.338   4.662   5.281 -1.3622 -0.5775  1.7156
  137TIP3   OH2  374   4.556   4.845   5.648  0.5807 -0.4382  0.2578
  137TIP3    H1  375   4.537   4.909   5.580  3.0177 -0.0846 -0.2063
  137TIP3    H2  376   4.516   4.881   5.727  0.0492  0.5602 -0.4456
  138TIP3   OH2  377   0.860   3.985   3.992  0.0028  0.4695 -0.6747
  138TIP3    H1  378   0.919   4.060   4.004  0.6001 -0.0593 -0.2121
  138TIP3    H2  379   0.843   3.954   4.080 -2.5473  1.7528 -0.6247
  139TIP3   OH2  380   3.188   3.580   4.592  0.0410 -0.3452  0.0555
  139TIP3    H1  381   3.237   3.661   4.581 -1.4569  0.7949  1.2221
  139TIP3    H2  382   3.248   3.511   4.565  2.0224  1.0089  0.7787
  140TIP3   OH2  383   5.570   5.667   4.003 -0.1840 -0.2013 -0.1285
  140TIP3    H1  384   5.614   5.626   4.077 -0.8751  0.0785  0.4528
  140TIP3    H2  385   5.632   5.732   3.971  0.3549 -0.7310 -0.1726
  141TIP3   OH2  386   1.288   4.503   3.707 -0.4417 -0.4477 -0.2471
  141TIP3    H1  387   1.310   4.594   3.687 -0.8624 -0.3201 -0.1509
  141TIP3    H2  388   1.210   4.486   3.654 -0.0981 -0.8990 -0.6173
  142TIP3   OH2  389   4.596   2.470   3.277 -0.3455 -0.0915  0.0097
  142TIP3    H1  390   4.690   2.479   3.296 -0.5489  0.5811  0.7468
  142TIP3    H2  391   4.591   2.474   3.182  0.2667  1.1083  0.0085
  143TIP3   OH2  392   2.336   4.340   4.059  0.2432  0.1829 -0.6195
  143TIP3    H1  393   2.333   4.434   4.044  2.5965  0.6707  1.3392
  143TIP3    H2  394   2.408   4.309   4.004 -0.7250 -0.5938 -1.5123
  144TIP3   OH2  395   6.962   3.917   3.198  0.5661 -0.5601  0.2380
  144TIP3    H1  396   7.017   3.993   3.181 -0.5180  0.1772 -0.0445
  144TIP3    H2  397   7.021   3.842   3.186  1.4320  0.1962 -0.3501
  145TIP3   OH2  398   0.919   2.016   1.435 -0.8215 -0.3092  0.0653
  145TIP3    H1  399   0.883   2.003   1.347 -0.1513 -0.8047 -0.1485
  145TIP3    H2  400   0.868   2.088   1.471 -2.6066 -1.5262  0.1194
  146TIP3   OH2  401   6.203   4.760   1.421  0.2626 -0.0157 -0.2591
  146TIP3    H1  402   6.268   4.819   1.460  0.1936 -0.5443  0.6640
  146TIP3    H2  403   6.254   4.689   1.383  0.2207 -0.5959  0.7455
  147TIP3   OH2  404   6.248   3.867   4.101  0.5258 -0.0643  0.2124
  147TIP3    H1  405   6.213   3.801   4.040 -0.2697 -0.4266  1.0466
  147TIP3    H2  406   6.171   3.898   4.149  1.1970 -0.0644  1.3015
  148TIP3   OH2  407   0.971   6.021   2.805 -0.1202 -0.5806 -0.7090
  148TIP3    H1  408   1.014   6.096   2.848 -0.7787 -1.1480  0.9973
  148TIP3    H2  409   0.913   6.061   2.741  0.2252  0.3455 -0.4667
  149TIP3   OH2  410   7.032   1.564   3.780 -0.4014  0.2951 -0.1012
  149TIP3    H1  411   7.058   1.478   3.812  1.2554  0.3087 -1.2803
  149TIP3    H2  412   6.998   1.609   3.857  0.3735 -0.7910  0.9088
  150TIP3   OH2  413   3.188   1.781   5.510 -0.2617  0.1794  0.1083
  150TIP3    H1  414   3.246   1.798   5.436  0.4104 -0.8310  0.3718
  150TIP3    H2  415   3.247   1.780   5.586 -1.0518  2.1103  0.8201
  151TIP3   OH2  416   1.008   6.504   4.647  0.2716 -0.7180  0.1276
  151TIP3    H1  417   1.083   6.457   4.612  2.1182  0.4642  2.2369
  151TIP3    H2  418   1.020   6.594   4.617 -1.6122 -0.9391 -1.4255
  152TIP3   OH2  419   1.201   4.556   1.539 -0.4660 -0.3820  0.1165
  152TIP3    H1  420   1.123   4.551   1.594  0.1475 -1.6148  0.9198
  152TIP3    H2  421   1.222   4.465   1.519 -0.4487  0.0027 -1.9009
  153TIP3   OH2  422   6.341   1.497   4.925 -0.9158 -0.1336 -0.3136
  153TIP3    H1  423   6.403   1.538   4.986 -0.9270 -1.2039  0.4573
  153TIP3    H2  424   6.351   1.403   4.941 -1.4572 -0.4027 -1.4656
  154TIP3   OH2  425   0.314   3.450   4.111 -0.2844  0.1046 -0.1996
  154TIP3    H1  426   0.244   3.452   4.176 -2.3702 -2.3798 -2.1618
  154TIP3    H2  427   0.294   3.522   4.052 -2.3736 -1.6128 -1.7347
  155TIP3   OH2  428   2.488   3.855   1.846  0.0839 -0.3718  0.3683
  155TIP3    H1  429   2.509   3.913   1.773  0.5998  0.4090  1.1150
  155TIP3    H2  430   2.491   3.911   1.923  0.2709 -1.3228  1.0805
  156TIP3   OH2  431   4.037   5.662   3.878  0.1885  0.4595 -0.0330
  156TIP3    H1  432   4.023   5.757   3.877 -2.4767  0.1844 -2.7529
  156TIP3    H2  433   4.015   5.636   3.967 -1.5280  2.1673  0.1315
  157TIP3   OH2  434   2.694   5.809   1.378  0.2100 -0.1255  0.5681
  157TIP3    H1  435   2.690   5.904   1.386 -0.0613 -0.1858  1.2100
  157TIP3    H2  436   2.788   5.790   1.366  0.2330  0.2370  0.1548
  158TIP3   OH2  437   4.549   6.253   1.770 -0.5321  0.2870  0.0866
  158TIP3    H1  438   4.612   6.324   1.786 -1.3194  0.9841  0.1570
  158TIP3    H2  439   4.594   6.175   1.801  0.6635  0.6291 -0.7228
  159TIP3   OH2  440   0.475   4.698   3.831 -0.2431 -0.3007 -0.2095
  159TIP3    H1  441   0.512   4.612   3.847  0.2816  0.4165  3.0437
  159TIP3    H2  442   0.486   4.712   3.737  1.5728 -2.8818 -0.4703
  160TIP3   OH2  443   0.750   2.780   3.620  0.4206  0.4965 -0.1262
  160TIP3    H1  444   0.694   2.820   3.686  1.0428  1.5368 -0.2085
  160TIP3    H2  445   0.767   2.692   3.653 -0.1917  0.6184  0.5380
  161TIP3   OH2  446   6.815   2.086   1.344  0.1001  0.6607  0.4877
  161TIP3    H1  447   6.902   2.126   1.347 -0.0532  1.0143  0.3019
  161TIP3    H2  448   6.760   2.145   1.397  0.3507 -0.5198  2.1521
  162TIP3   OH2  449   7.057   6.362   3.174  0.1631 -0.5338  0.0275
  162TIP3    H1  450   7.009   6.398   3.099 -0.7841 -1.1346  0.3152
  162TIP3    H2  451   6.998   6.376   3.249  1.2794  0.4630  0.7558
  163TIP3   OH2  452   1.264   4.078   5.300  0.7132 -0.4683 -0.1944
  163TIP3    H1  453   1.313   4.156   5.323  2.9353 -1.0386 -2.5803
  163TIP3    H2  454   1.235   4.094   5.210 -0.2208 -1.7428 -0.1468
  164TIP3   OH2  455   4.288   2.888   5.714 -0.4728 -0.5244 -0.6302
  164TIP3    H1  456   4.339   2.969   5.706 -0.3686 -0.6033 -0.7615
  164TIP3    H2  457   4.305   2.859   5.804  0.7638 -1.2419 -1.0656
  165TIP3   OH2  458   0.513   4.617   5.594 -0.1575 -0.8123 -0.4344
  165TIP3    H1  459   0.608   4.601   5.596 -0.1709 -0.9147 -0.6257
  165TIP3    H2  460   0.484   4.580   5.511 -0.3934 -0.9247 -0.3023
  166TIP3   OH2  461   1.333   0.565   1.360  0.3122 -0.1291  1.0967
  166TIP3    H1  462   1.374   0.562   1.274  0.3708 -0.9533  1.1468
  166TIP3    H2  463   1.401   0.599   1.419 -0.0187  1.3464  0.6713
  167TIP3   OH2  464   2.120   2.249   5.534  0.1856  0.1203 -0.3188
  167TIP3    H1  465   2.062   2.217   5.604  0.9134 -0.9399 -0.1734
  167TIP3    H2  466   2.203   2.268   5.579  0.5690 -0.2881 -0.8486
  168TIP3   OH2  467   2.910   4.931   1.691 -0.0441  0.4792  0.2190
  168TIP3    H1  468   2.947   5.006   1.738  1.7663  0.2840 -0.8030
  168TIP3    H2  469   2.833   4.967   1.647  0.4977  1.6340  0.1571
  169TIP3   OH2  470   6.494   5.343   2.835  0.4595  0.4854  0.0777
  169TIP3    H1  471   6.565   5.280   2.850  1.3417  1.0491 -1.5311
  169TIP3    H2  472   6.534   5.414   2.785 -1.3174  0.6262 -1.2537
  170TIP3   OH2  473   1.926   1.670   3.913  0.2100 -0.2132  0.3597
  170TIP3    H1  474   2.012   1.698   3.942  0.0465  2.9203 -1.7219
  170TIP3    H2  475   1.940   1.635   3.825 -0.5051 -0.7827  0.4575
  171TIP3   OH2  476   2.574   4.102   1.348 -1.1421 -0.4294 -0.0036
  171TIP3    H1  477   2.601   4.145   1.267 -1.1458  0.7790  0.6149
  171TIP3    H2  478   2.520   4.028   1.319  1.0203 -1.6431 -1.1711
  172TIP3   OH2  479   4.666   1.953   3.087 -0.4028  0.1074 -0.1060
  172TIP3    H1  480   4.709   1.981   3.168  0.8204 -0.3835 -0.5541
  172TIP3    H2  481   4.738   1.937   3.026 -1.1049 -2.3723 -0.3906
  173TIP3   OH2  482   2.429   5.792   5.486  0.7359 -0.0748  0.1044
  173TIP3    H1  483   2.476   5.842   5.552  1.7999  0.0824 -0.7484
  173TIP3    H2  484   2.369   5.855   5.446  1.4425  0.3134 -0.3637
  174TIP3   OH2  485   5.387   2.568   5.130 -0.6186 -0.1246 -0.3421
  174TIP3    H1  486   5.325   2.528   5.069 -2.7424 -0.1681  1.6929
  174TIP3    H2  487   5.471   2.527   5.110 -1.8724 -2.4891 -1.1420
  175TIP3   OH2  488   4.276   2.724   2.258 -0.1903  0.0125  0.2088
  175TIP3    H1  489   4.291   2.783   2.184  0.8624  0.9156  1.1031
  175TIP3    H2  490   4.306   2.638   2.226 -1.6335 -0.0613 -1.0708
  176TIP3   OH2  491   2.283   2.267   3.437 -0.0238  0.3880 -0.4140
  176TIP3    H1  492   2.215   2.318   3.394 -0.5902  1.2928  1.4495
  176TIP3    H2  493   2.364   2.314   3.418 -0.1351  0.2375 -1.2691
  177TIP3   OH2  494   1.574   3.499   2.992 -0.0344  0.3455  0.1607
  177TIP3    H1  495   1.658   3.535   2.965  0.0298  0.0374 -0.0550
  177TIP3    H2  496   1.510   3.543   2.937  0.1928 -1.1236 -1.3598
  178TIP3   OH2  497   5.186   5.256   3.732  0.0983  0.6639  0.0085
  178TIP3    H1  498   5.182   5.339   3.685 -0.9075 -0.0002 -1.1077
  178TIP3    H2  499   5.255   5.270   3.798  1.1615  1.7895 -1.2736
  179TIP3   OH2  500   1.057   0.658   3.372  0.4228 -0.6551  0.4720
  179TIP3    H1  501   1.006   0.715   3.429  1.8590  0.4961  0.6727
  179TIP3    H2  502   1.019   0.571   3.385 -0.4915 -0.1022  1.7482
  180TIP3   OH2  503   4.809   3.138   1.653  0.3751  0.7960 -0.2464
  180TIP3    H1  504   4.889   3.085   1.654  0.4391  0.9018  0.4062
  180TIP3    H2  505   4.820   3.199   1.726 -1.5695 -1.0752  1.7677
  181TIP3   OH2  506   3.636   4.411   2.987  0.1001 -0.6595 -0.3427
  181TIP3    H1  507   3.576   4.481   2.963  1.2854 -0.1049 -1.8443
  181TIP3    H2  508   3.697   4.405   2.913  1.5213 -1.5980  0.8443
  182TIP3   OH2  509   1.523   2.961   0.324 -0.0157 -0.3347  0.3439
  182TIP3    H1  510   1.535   2.994   0.413 -0.9074  0.1364  0.2923
  182TIP3    H2  511   1.526   3.039   0.269 -2.0989 -0.3106  0.2159
  183TIP3   OH2  512   0.907   2.227   4.021 -0.4536  0.2447 -0.2417
  183TIP3    H1  513   0.835   2.224   4.084  0.1248  2.6822  0.6239
  183TIP3    H2  514   0.863   2.220   3.936 -1.6835  1.2017  0.2806
  184TIP3   OH2  515   1.784   3.210   4.783 -0.0309 -0.6669 -0.8494
  184TIP3    H1  516   1.865   3.164   4.763  0.1469 -0.3783 -0.8021
  184TIP3    H2  517   1.777   3.277   4.715  0.5986  0.3431  0.0428
  185TIP3   OH2  518   2.570   4.708   5.025 -0.5863  0.4226  0.4707
  185TIP3    H1  519   2.616   4.750   5.097 -0.7200 -0.4801  1.0934
  185TIP3    H2  520   2.487   4.679   5.062 -0.1632 -1.1185  0.2885
  186TIP3   OH2  521   6.916   5.946   0.820 -0.0622  0.1490  0.5943
  186TIP3    H1  522   6.852   5.878   0.801  1.2570 -0.9808  0.0550
  186TIP3    H2  523   6.896   5.974   0.909 -0.1902 -1.4544  1.0932
  187TIP3   OH2  524   3.506   2.949   2.122  0.1013  0.2607 -0.1166
  187TIP3    H1  525   3.567   2.988   2.184 -1.9439  1.0096  1.5480
  187TIP3    H2  526   3.507   2.856   2.142 -0.0385  0.4079  0.5981
  188TIP3   OH2  527   2.375   5.899   0.248  0.3980 -0.1681  0.9627
  188TIP3    H1  528   2.359   5.820   0.299 -0.7547 -1.3963 -1.1611
  188TIP3    H2  529   2.357   5.873   0.157 -1.4486  2.9017  0.3211
  189TIP3   OH2  530   2.591   1.882   1.562 -0.1098  0.1629 -0.3283
  189TIP3    H1  531   2.558   1.794   1.547  0.4300  0.2515 -2.3430
  189TIP3    H2  532   2.516   1.930   1.598 -0.6491 -0.8935 -0.0196
  190TIP3   OH2  533   4.489   4.133   0.372 -0.4302 -0.2673  0.2412
  190TIP3    H1  534   4.575   4.175   0.374 -0.8615  0.6435 -0.2480
  190TIP3    H2  535   4.509   4.039   0.368  0.5375 -0.2705  3.0681
  191TIP3   OH2  536   3.282   0.663   3.612  0.0282 -0.8094 -0.0887
  191TIP3    H1  537   3.269   0.578   3.570 -0.3953 -0.8941  0.2055
  191TIP3    H2  538   3.283   0.644   3.706  1.6197 -0.7109 -0.0603
  192TIP3   OH2  539   6.375   6.542   5.521 -0.1262 -0.1415 -0.5150
  192TIP3    H1  540   6.309   6.600   5.482  0.3941 -0.4086 -1.8499
  192TIP3    H2  541   6.327   6.464   5.547 -1.2725  1.5862  3.3061
  193TIP3   OH2  542   5.699   6.341   4.617  0.3663  0.0125  0.0334
  193TIP3    H1  543   5.715   6.408   4.551  0.8195 -0.0737  0.0541
  193TIP3    H2  544   5.604   6.325   4.613  0.5576 -0.8946 -1.4540
  194TIP3   OH2  545   5.911   6.219   3.986  0.1022  0.3671  0.2584
  194TIP3    H1  546   5.866   6.195   3.906 -1.0011 -0.8858  1.2095
  194TIP3    H2  547   5.842   6.221   4.053  0.9226  1.7416  1.1167
  195TIP3   OH2  548   6.975   0.692   0.380  0.2901  0.0764 -0.3632
  195TIP3    H1  549   6.953   0.613   0.330  0.7593 -0.1102 -0.2896
  195TIP3    H2  550   6.961   0.667   0.471 -2.3898  1.0005 -0.4364
  196TIP3   OH2  551   3.101   3.547   3.306 -0.2626  0.9344  0.0827
  196TIP3    H1  552   3.096   3.534   3.401 -0.5214  0.6794  0.0364
  196TIP3    H2  553   3.186   3.589   3.292  0.4593 -0.4026  0.2774
  197TIP3   OH2  554   5.590   4.651   2.163 -0.4790 -0.3505  0.0662
  197TIP3    H1  555   5.526   4.721   2.176 -1.2047 -1.1215  0.7299
  197TIP3    H2  556   5.589   4.635   2.069  0.1158  0.9052 -0.1777
  198TIP3   OH2  557   0.522   5.251   2.301 -0.0632 -0.2937 -0.1908
  198TIP3    H1  558   0.497   5.254   2.209 -1.8693  1.0515  0.3071
  198TIP3    H2  559   0.618   5.253   2.299 -0.0430 -0.8582 -2.0312
  199TIP3   OH2  560   0.806   3.078   5.799 -0.5080  0.3960 -0.0962
  199TIP3    H1  561   0.759   3.058   5.880  4.8361  1.0061  3.6677
  199TIP3    H2  562   0.797   3.172   5.789 -1.0738  0.3374 -0.1829
  200TIP3   OH2  563   3.991   1.685   4.097  0.2584 -0.0087 -0.0363
  200TIP3    H1  564   3.966   1.595   4.078 -1.1848  0.5487 -0.9312
  200TIP3    H2  565   4.086   1.685   4.091  0.4805 -1.9232  2.0800
  201TIP3   OH2  566   6.151   2.303   5.338 -0.8042  0.1631 -0.0476
  201TIP3    H1  567   6.197   2.360   5.400 -1.1588 -1.0301  1.3895
  201TIP3    H2  568   6.220   2.253   5.296 -0.5254  1.2728 -0.9739
  202TIP3   OH2  569   3.349   5.071   0.452 -0.1251  0.4787 -0.2099
  202TIP3    H1  570   3.291   5.141   0.483 -0.4800  0.7420 -1.4224
  202TIP3    H2  571   3.431   5.086   0.499 -1.1191 -0.1564  1.8669
  203TIP3   OH2  572   2.640   4.066   0.778 -0.0864 -1.2380  0.4761
  203TIP3    H1  573   2.666   4.154   0.752  0.9367 -1.4969  0.5500
  203TIP3    H2  574   2.548   4.074   0.803  0.4445  0.1854  2.1861
  204TIP3   OH2  575   7.125   1.719   4.751 -0.1857  0.0249 -0.6406
  204TIP3    H1  576   7.179   1.658   4.802  0.4758  0.2138 -1.0919
  204TIP3    H2  577   7.061   1.663   4.707  0.0022 -0.2736 -0.5398
  205TIP3   OH2  578   6.248   0.525   1.953  0.3755 -0.0278  0.3741
  205TIP3    H1  579   6.173   0.543   2.009  1.4561  2.7256  1.1147
  205TIP3    H2  580   6.287   0.446   1.990 -0.6452  0.0199  1.6243
  206TIP3   OH2  581   2.328   0.342   4.977 -0.2087 -0.1280  0.3208
  206TIP3    H1  582   2.334   0.308   5.066 -1.2728 -0.6251  0.2152
  206TIP3    H2  583   2.264   0.413   4.983 -0.5501 -0.3935 -0.1101
  207TIP3   OH2  584   6.777   6.714   3.155  0.4797  0.0767 -0.4573
  207TIP3    H1  585   6.834   6.722   3.079  1.2762 -1.3170 -0.0523
  207TIP3    H2  586   6.694   6.683   3.120 -0.0861  2.1660 -1.0574
  208TIP3   OH2  587   2.150   4.230   5.186  0.3148 -0.3125 -0.3764
  208TIP3    H1  588   2.161   4.159   5.122 -1.4427 -0.7889 -0.1795
  208TIP3    H2  589   2.056   4.244   5.190  0.5899  1.5682  0.1263
  209TIP3   OH2  590   4.744   5.605   4.755  0.2479 -0.1945 -0.1129
  209TIP3    H1  591   4.781   5.518   4.738  0.1742 -0.5168  1.2375
  209TIP3    H2  592   4.683   5.619   4.683  0.1444 -1.3422 -0.2716
  210TIP3   OH2  593   0.335   3.598   2.019 -0.0167 -0.2763 -0.4452
  210TIP3    H1  594   0.241   3.603   2.036 -0.2704  0.1908 -1.9065
  210TIP3    H2  595   0.375   3.616   2.104 -1.2135  2.1128 -0.3066
  211TIP3   OH2  596   4.796   4.785   4.712 -0.4727 -0.6319 -0.7669
  211TIP3    H1  597   4.810   4.850   4.644 -0.4286 -0.1517 -0.3088
  211TIP3    H2  598   4.877   4.734   4.715 -0.1436 -0.0996 -0.4923
  212TIP3   OH2  599   5.395   1.234   4.258 -0.4358  1.0188  0.3727
  212TIP3    H1  600   5.331   1.306   4.255 -1.3750  0.2114  0.4257
  212TIP3    H2  601   5.416   1.217   4.167 -1.5442  0.2350  0.2399
  213TIP3   OH2  602   5.226   0.396   1.124  0.5712  0.4817  0.3155
  213TIP3    H1  603   5.174   0.433   1.195 -0.3731  0.4129 -0.3080
  213TIP3    H2  604   5.304   0.360   1.166 -1.1083 -1.8527  1.7207
  214TIP3   OH2  605   0.628   5.694   3.044  0.0242  0.3467  0.5179
  214TIP3    H1  606   0.652   5.666   3.132  1.9865  0.4458  0.0551
  214TIP3    H2  607   0.647   5.788   3.043  3.7173 -0.2633 -1.0617
  215TIP3   OH2  608   2.730   4.253   2.346 -0.2634 -0.0432  0.2023
  215TIP3    H1  609   2.714   4.325   2.286  1.5453  0.5296  0.3308
  215TIP3    H2  610   2.680   4.276   2.425  0.1883  1.0338  0.1978
  216TIP3   OH2  611   4.148   3.220   2.378  0.2379  0.4680  0.0971
  216TIP3    H1  612   4.075   3.159   2.391 -0.9329  1.7700 -0.1235
  216TIP3    H2  613   4.223   3.176   2.418 -0.7060 -0.8150  0.5443
  217TIP3   OH2  614   5.063   3.747   1.188 -0.0171 -0.2421 -0.4376
  217TIP3    H1  615   5.134   3.683   1.199  1.7051  1.6027 -0.1139
  217TIP3    H2  616   4.986   3.704   1.226  1.4649 -1.4375  1.3956
  218TIP3   OH2  617   0.925   2.822   2.521 -0.5187 -0.1084 -0.0820
  218TIP3    H1  618   0.990   2.816   2.590 -2.1078  0.6432  1.5548
  218TIP3    H2  619   0.866   2.748   2.538 -2.4845  1.6317  1.1459
  219TIP3   OH2  620   0.094   5.324   4.361 -0.5709  0.4278  0.6156
  219TIP3    H1  621   0.107   5.335   4.455  0.8700 -2.4692  0.8603
  219TIP3    H2  622   0.124   5.235   4.343 -1.5977  0.5982 -2.4669
  220TIP3   OH2  623   1.284   1.538   3.239  0.1532  0.0695  0.0290
  220TIP3    H1  624   1.318   1.628   3.241 -0.9348  0.4998  0.0762
  220TIP3    H2  625   1.191   1.549   3.221 -0.3983 -0.9288  1.9947
  221TIP3   OH2  626   0.357   3.155   4.134 -0.4868  0.0828  0.5602
  221TIP3    H1  627   0.279   3.130   4.084 -1.7461 -0.0757  2.4614
  221TIP3    H2  628   0.361   3.250   4.126 -0.1390 -0.0104 -0.5335
  222TIP3   OH2  629   7.096   3.776   1.504  0.1787  0.2740  0.1216
  222TIP3    H1  630   7.126   3.731   1.583  1.7694 -1.1083 -1.1865
  222TIP3    H2  631   7.079   3.705   1.442  0.1622  1.3662 -1.1585
  223TIP3   OH2  632   1.709   6.147  -0.022 -0.2284  0.5379 -0.1482
  223TIP3    H1  633   1.681   6.237  -0.006 -3.1352 -0.6193  2.3724
  223TIP3    H2  634   1.745   6.118   0.062  0.8851 -0.6016 -0.9756
  224TIP3   OH2  635   0.875   4.353   3.791  0.0218  0.4627 -0.5445
  224TIP3    H1  636   0.855   4.268   3.831  2.2883 -0.2134 -0.7107
  224TIP3    H2  637   0.946   4.388   3.844  1.1921  0.8228 -2.2583
  225TIP3   OH2  638   1.258   4.527   5.140  0.0922 -0.1112  0.0890
  225TIP3    H1  639   1.168   4.496   5.129 -0.9497  2.0224  1.8110
  225TIP3    H2  640   1.263   4.605   5.085  1.2625 -0.7892 -0.8077
  226TIP3   OH2  641   1.145   2.249   2.095  0.1122  0.0964 -0.0388
  226TIP3    H1  642   1.179   2.331   2.060  0.4377 -0.2973 -0.6638
  226TIP3    H2  643   1.220   2.208   2.137 -0.1179  0.2475  0.5309
  227TIP3   OH2  644   6.545   3.568   2.785 -0.0734 -0.0833 -0.2502
  227TIP3    H1  645   6.514   3.658   2.782  0.9392  0.3082  0.4312
  227TIP3    H2  646   6.597   3.563   2.866 -0.6005 -1.4398  0.0312
  228TIP3   OH2  647   5.574   6.096   3.861 -0.4051 -0.9666  0.6582
  228TIP3    H1  648   5.560   6.159   3.932 -0.1483 -1.8028  1.4667
  228TIP3    H2  649   5.619   6.022   3.903 -1.8351 -2.2468  0.0188
  229TIP3   OH2  650   6.191   5.905   0.475  0.2913  0.0690  0.2423
  229TIP3    H1  651   6.203   5.892   0.568 -1.5684 -0.5121  0.4520
  229TIP3    H2  652   6.131   5.835   0.448 -1.1836  1.6614 -0.8595
  230TIP3   OH2  653   4.387   2.587   3.663 -0.0522 -0.4937  0.6932
  230TIP3    H1  654   4.465   2.640   3.679 -1.2111  1.0167  1.6479
  230TIP3    H2  655   4.369   2.598   3.570 -0.8170  1.7046  1.0330
  231TIP3   OH2  656   4.372   0.574   0.934 -0.0945  0.1589  0.0115
  231TIP3    H1  657   4.441   0.523   0.891 -0.3944 -0.2731  0.0351
  231TIP3    H2  658   4.319   0.509   0.980 -1.1984  0.3607 -0.9488
  232TIP3   OH2  659   0.527   6.330   1.362  0.4605 -0.0685 -0.2922
  232TIP3    H1  660   0.565   6.403   1.312  2.0406  0.9376  2.1672
  232TIP3    H2  661   0.492   6.371   1.441  1.9612 -1.9634  1.4751
  233TIP3   OH2  662   0.359   1.183   1.190  0.2496 -0.2418 -0.4012
  233TIP3    H1  663   0.406   1.152   1.267 -0.3726 -1.1221 -0.3578
  233TIP3    H2  664   0.288   1.236   1.225  0.2639 -0.2333 -0.3855
  234TIP3   OH2  665   2.914   2.077   3.481 -0.2265 -0.0203 -0.1055
  234TIP3    H1  666   2.852   2.070   3.408  0.8274  2.3149 -1.3537
  234TIP3    H2  667   2.880   2.150   3.533  0.1901 -0.2772  0.5281
  235TIP3   OH2  668   1.186   3.788   3.155  0.6325  0.3848  0.2347
  235TIP3    H1  669   1.209   3.803   3.247 -2.1756 -1.0490  1.3073
  235TIP3    H2  670   1.237   3.711   3.130  1.3307  0.7108  0.6264
  236TIP3   OH2  671   7.019   0.314   4.262 -0.4877 -0.0200  0.2363
  236TIP3    H1  672   7.072   0.357   4.196  0.5269 -0.4008  0.7756
  236TIP3    H2  673   7.064   0.231   4.279 -1.3721 -0.4499  0.5562
  237TIP3   OH2  674   6.412   5.073   3.539 -0.4672  0.1014 -0.0536
  237TIP3    H1  675   6.354   5.027   3.478  0.6181 -0.9749 -0.3134
  237TIP3    H2  676   6.449   5.145   3.487 -1.7328  0.9556  0.1886
  238TIP3   OH2  677   1.803   5.235   5.445  0.0997 -1.2620 -0.2787
  238TIP3    H1  678   1.836   5.223   5.356 -1.2109 -2.6623 -0.6169
  238TIP3    H2  679   1.743   5.162   5.458 -0.7026 -0.3619  1.3104
  239TIP3   OH2  680   6.409   6.215   5.179 -0.3317 -0.1302 -0.2898
  239TIP3    H1  681   6.380   6.147   5.119 -0.7593 -2.9555  2.8119
  239TIP3    H2  682   6.504   6.203   5.186 -0.4969 -0.9100  0.7724
  240TIP3   OH2  683   3.136   2.643   2.938  0.2108  0.2358  0.1525
  240TIP3    H1  684   3.180   2.595   3.008 -1.6415 -0.3792  0.9849
  240TIP3    H2  685   3.206   2.669   2.878  2.1248  2.0690  2.9373
  241TIP3   OH2  686   2.288   1.849   1.707 -0.1168  0.2925 -0.4152
  241TIP3    H1  687   2.335   1.926   1.741 -0.6036  1.0163 -1.3190
  241TIP3    H2  688   2.323   1.776   1.757  0.5834  1.0657  0.2673
  242TIP3   OH2  689   2.270   4.722   4.160  0.4759 -0.1673 -0.4790
  242TIP3    H1  690   2.246   4.814   4.152 -2.0332 -0.5448  1.5306
  242TIP3    H2  691   2.301   4.698   4.073  0.9815  2.4838 -1.1183
  243TIP3   OH2  692   6.081   6.435  -0.034  0.2188 -0.5802 -0.1860
  243TIP3    H1  693   6.017   6.395   0.025 -0.7733 -0.3248 -1.0562
  243TIP3    H2  694   6.127   6.499   0.020  0.6046 -1.6471  0.7695
  244TIP3   OH2  695   3.050   3.453   3.050 -0.7329  0.3504 -0.0741
  244TIP3    H1  696   3.047   3.465   3.145  0.6208  1.4420 -0.1268
  244TIP3    H2  697   3.075   3.362   3.038  1.4309  0.7892  0.6990
  245TIP3   OH2  698   0.212   4.686   1.755  0.5271  0.3884  1.0990
  245TIP3    H1  699   0.285   4.739   1.723  1.3176 -1.9668 -1.3861
  245TIP3    H2  700   0.136   4.743   1.748  1.3074  1.2615 -1.5535
  246TIP3   OH2  701   0.421   1.024   3.491  0.3863  0.3066 -0.4006
  246TIP3    H1  702   0.437   0.954   3.428 -0.6184  1.4227 -1.9591
  246TIP3    H2  703   0.505   1.069   3.499  1.4519 -1.8258  1.7030
  247TIP3   OH2  704   2.925   4.569   2.552 -0.3222  0.4536  0.0448
  247TIP3    H1  705   2.965   4.615   2.478 -0.7953 -1.4899 -1.4956
  247TIP3    H2  706   2.964   4.609   2.629  1.8274  1.0998 -1.3002
  248TIP3   OH2  707   7.058   6.241   5.626  0.5110 -0.2551 -0.2805
  248TIP3    H1  708   7.063   6.326   5.583  1.8178 -0.4590 -0.5945
  248TIP3    H2  709   7.117   6.249   5.701  1.5208 -1.1882 -0.9278
  249TIP3   OH2  710   4.661   2.308   0.474  0.0789 -0.3634 -0.2335
  249TIP3    H1  711   4.722   2.305   0.547  0.3694  0.6467 -0.4215
  249TIP3    H2  712   4.707   2.264   0.402 -0.2866 -1.5376  0.2254
  250TIP3   OH2  713   2.476   0.311   2.179  0.4608  0.7780 -0.2728
  250TIP3    H1  714   2.512   0.322   2.267  0.6536  0.4867 -0.3153
  250TIP3    H2  715   2.461   0.217   2.171 -0.2545  0.8932 -0.2785
  251TIP3   OH2  716   0.321   5.680   0.352  0.4491 -0.1964 -0.8197
  251TIP3    H1  717   0.407   5.653   0.385 -0.0637 -1.1631 -0.2090
  251TIP3    H2  718   0.282   5.600   0.319 -0.5550  0.0600 -0.2951
  252TIP3   OH2  719   2.032   4.597   4.263 -0.1850  0.3683 -0.1872
  252TIP3    H1  720   2.118   4.637   4.249  0.1350 -0.0769  0.4566
  252TIP3    H2  721   2.044   4.541   4.340 -1.1871  0.7138  0.2382
  253TIP3   OH2  722   0.433   4.091   0.130  0.0291 -0.7687  0.3448
  253TIP3    H1  723   0.407   4.092   0.038 -2.8755  0.7428  1.0542
  253TIP3    H2  724   0.448   4.183   0.152  0.8024 -1.1161  1.3550
  254TIP3   OH2  725   2.022   4.585   0.597  0.1970 -0.2798 -0.3424
  254TIP3    H1  726   1.969   4.625   0.528 -1.7192 -2.0422 -0.0207
  254TIP3    H2  727   2.036   4.655   0.661 -2.1124  0.1959 -0.2779
  255TIP3   OH2  728   5.725   6.754   4.858  0.1058  0.1805  0.1169
  255TIP3    H1  729   5.667   6.690   4.818 -0.0244 -0.3265  1.0834
  255TIP3    H2  730   5.718   6.737   4.952  0.6211  1.1408  0.3418
  256TIP3   OH2  731   5.169   2.249   5.507  0.6917  0.0428  0.2243
  256TIP3    H1  732   5.111   2.174   5.493 -0.0445  0.7912 -0.9060
  256TIP3    H2  733   5.195   2.276   5.419  1.1878  0.9212  0.6294
  257TIP3   OH2  734   5.750   0.913   4.113  0.0596 -0.1890 -0.3457
  257TIP3    H1  735   5.744   0.932   4.207  1.4024  0.3274 -0.3452
  257TIP3    H2  736   5.659   0.910   4.084 -0.3506  0.8724  0.7262
  258TIP3   OH2  737   5.088   3.368   0.134  0.2721  0.2831 -0.0074
  258TIP3    H1  738   5.047   3.298   0.184  1.5493 -1.0166 -0.7025
  258TIP3    H2  739   5.043   3.448   0.162 -0.7304 -0.7169  1.3334
  259TIP3   OH2  740   0.049   4.478   1.669  0.1508 -0.1996 -0.4924
  259TIP3    H1  741   0.105   4.531   1.725  0.9501 -2.5959  1.1416
  259TIP3    H2  742  -0.033   4.469   1.718  0.0942 -0.5822 -0.6507
  260TIP3   OH2  743   2.192   1.223   4.974 -0.4781  0.3987  0.3329
  260TIP3    H1  744   2.130   1.285   4.936  0.3924  0.6626 -0.6840
  260TIP3    H2  745   2.251   1.200   4.902 -0.4838 -1.2488  0.7954
  261TIP3   OH2  746   1.512   5.886   1.983  0.3157 -0.1642  0.5035
  261TIP3    H1  747   1.477   5.915   2.067  0.0627  1.4442 -0.1200
  261TIP3    H2  748   1.568   5.811   2.004 -0.5223 -0.4060  1.9644
  262TIP3   OH2  749   5.106   5.765   1.739 -0.1268 -0.0112 -0.0814
  262TIP3    H1  750   5.157   5.789   1.816 -0.3259  0.8330 -0.1938
  262TIP3    H2  751   5.039   5.833   1.733  1.0479  1.0585 -2.0751
  263TIP3   OH2  752   2.084   3.497   5.571  0.2580 -0.1040 -0.2118
  263TIP3    H1  753   2.087   3.592   5.582  2.1731 -0.3407  2.3375
  263TIP3    H2  754   2.009   3.468   5.622  0.5218 -0.0650  0.1983
  264TIP3   OH2  755   4.696   2.012   4.524 -0.4251 -0.3851  0.0245
  264TIP3    H1  756   4.606   2.028   4.496 -0.9744 -1.4674  1.0741
  264TIP3    H2  757   4.729   2.098   4.549 -1.1200  0.0453 -0.4887
  265TIP3   OH2  758   6.495   0.560   3.154  0.3714  0.2139 -0.4544
  265TIP3    H1  759   6.549   0.604   3.220 -0.5684 -0.2468  0.6529
  265TIP3    H2  760   6.488   0.624   3.084  1.7993  0.5342 -0.3509
  266TIP3   OH2  761   0.221   4.386   2.968  0.3161  0.3395 -0.5720
  266TIP3    H1  762   0.183   4.422   2.888 -0.2832 -1.8613 -1.3543
  266TIP3    H2  763   0.149   4.338   3.010  1.2810 -0.7700 -0.1258
  267TIP3   OH2  764   5.022   6.390   2.373 -0.1118  0.2373  0.4591
  267TIP3    H1  765   4.965   6.319   2.403  0.2978 -0.0983  0.4450
  267TIP3    H2  766   4.985   6.469   2.413 -1.1069  0.1508 -0.2353
  268TIP3   OH2  767   4.881   5.329   4.680  0.0542 -0.2695 -0.5381
  268TIP3    H1  768   4.878   5.235   4.660  1.2834 -0.2162 -1.0754
  268TIP3    H2  769   4.930   5.367   4.607  0.7951  0.5905  0.3794
  269TIP3   OH2  770   0.319   3.048   2.367  0.4295  0.1100  0.4131
  269TIP3    H1  771   0.365   3.102   2.431  0.5908  0.4431  0.0169
  269TIP3    H2  772   0.231   3.086   2.362 -0.0042 -0.7101  1.3947
  270TIP3   OH2  773   0.387   2.308   1.982 -0.1862  0.4728 -0.1779
  270TIP3    H1  774   0.469   2.337   1.940 -0.0324 -0.2180 -0.3734
  270TIP3    H2  775   0.412   2.228   2.029 -0.7773  0.1820 -0.3537
  271TIP3   OH2  776   3.146   5.611   1.573  0.2580 -0.7364 -0.4763
  271TIP3    H1  777   3.213   5.591   1.507 -0.6654  0.0448 -1.6992
  271TIP3    H2  778   3.133   5.705   1.566 -1.8731 -1.0356 -1.1991
  272TIP3   OH2  779   3.194   6.324   5.389  0.4464 -0.4441 -0.1040
  272TIP3    H1  780   3.162   6.304   5.477  2.5184 -2.6420  0.2529
  272TIP3    H2  781   3.281   6.362   5.403  1.1420 -1.5738 -1.1770
  273TIP3   OH2  782   4.439   3.614   5.016 -0.1919 -0.2733 -0.3469
  273TIP3    H1  783   4.374   3.670   5.059  1.7241  1.8761 -0.0400
  273TIP3    H2  784   4.445   3.648   4.927  2.0548  1.1565  0.2480
  274TIP3   OH2  785   6.203   2.941   0.083  0.3350 -0.0216  0.1357
  274TIP3    H1  786   6.297   2.940   0.065  0.3221  0.8251 -0.0147
  274TIP3    H2  787   6.171   2.856   0.051  0.7458  0.4152 -1.5377
  275TIP3   OH2  788   6.294   0.549   1.249 -0.2053 -0.1237  0.0794
  275TIP3    H1  789   6.382   0.581   1.227  0.6193 -1.1790  1.6764
  275TIP3    H2  790   6.237   0.593   1.185  1.5801 -0.3135 -1.7757
  276TIP3   OH2  791   5.084   3.239   2.279 -0.1870 -0.3988  0.3740
  276TIP3    H1  792   5.099   3.179   2.352  1.6569 -1.1043 -0.5236
  276TIP3    H2  793   5.104   3.325   2.315  1.0575 -0.7787  0.6517
  277TIP3   OH2  794   3.919   3.524   4.168 -0.4648 -0.0755 -0.4041
  277TIP3    H1  795   3.841   3.475   4.192 -0.1583 -0.7046 -0.6657
  277TIP3    H2  796   3.901   3.557   4.080  0.3762 -2.0354 -1.3782
  278TIP3   OH2  797   3.755   1.827   3.328 -0.2409  0.3634  0.1476
  278TIP3    H1  798   3.713   1.767   3.266  0.4093  0.2499 -0.1934
  278TIP3    H2  799   3.767   1.774   3.407  0.6117 -0.0640 -0.2545
  279TIP3   OH2  800   0.866   2.690   4.579 -0.2973  0.2886  0.3858
  279TIP3    H1  801   0.808   2.766   4.574 -1.6177 -0.7204 -0.2538
  279TIP3    H2  802   0.847   2.640   4.500  1.6080  0.0086  0.0601
  280TIP3   OH2  803   3.037   0.908   0.732  0.2029  0.1527 -0.3781
  280TIP3    H1  804   3.049   0.827   0.783  1.5088  0.4108 -0.2526
  280TIP3    H2  805   2.966   0.954   0.776 -1.1717 -1.3115 -0.9598
  281TIP3   OH2  806   6.180   6.218   2.009 -0.0128  0.3597 -0.2178
  281TIP3    H1  807   6.168   6.215   1.914  1.2527  1.5524 -0.4464
  281TIP3    H2  808   6.182   6.311   2.030 -0.3583  0.1129  1.0119
  282TIP3   OH2  809   3.578   2.921   0.186 -0.1735 -0.5692 -0.5081
  282TIP3    H1  810   3.650   2.865   0.158  0.3131  0.5634 -1.6256
  282TIP3    H2  811   3.590   3.002   0.137 -0.4617  0.7993  1.5812
  283TIP3   OH2  812   4.504   3.657   4.493 -0.6771 -0.0970  0.3724
  283TIP3    H1  813   4.534   3.700   4.413 -0.3003 -0.3501  0.3768
  283TIP3    H2  814   4.427   3.607   4.466 -0.3204 -0.4955  0.0808
  284TIP3   OH2  815   0.563   2.856   3.357 -0.1592  0.3507 -0.0961
  284TIP3    H1  816   0.557   2.783   3.295  2.1980  0.1017 -0.1293
  284TIP3    H2  817   0.599   2.817   3.437 -0.3144  1.2212  0.4135
  285TIP3   OH2  818   1.550   3.134   4.937  0.0820 -0.2422  0.3129
  285TIP3    H1  819   1.536   3.187   5.015 -0.7561  0.3556 -0.2222
  285TIP3    H2  820   1.640   3.152   4.911  0.2533 -0.1776  0.9272
  286TIP3   OH2  821   2.663   0.841   0.219 -0.4842  0.0403 -0.0271
  286TIP3    H1  822   2.721   0.764   0.220 -0.5574 -0.0121  0.3752
  286TIP3    H2  823   2.589   0.815   0.273 -0.8973  0.1022 -0.5574
  287TIP3   OH2  824   5.639   0.771   3.592  0.3091 -0.5097  0.2779
  287TIP3    H1  825   5.671   0.806   3.675  1.9480 -0.5623 -0.3007
  287TIP3    H2  826   5.689   0.818   3.525 -0.1157 -1.3429 -0.6451
  288TIP3   OH2  827   2.783   4.526   3.330 -0.0323  0.0093 -0.2272
  288TIP3    H1  828   2.696   4.565   3.321  0.2111  1.1365  1.7474
  288TIP3    H2  829   2.811   4.550   3.418  0.8912 -3.2253  0.4987
  289TIP3   OH2  830   1.040   5.132   1.102  0.3001  0.1021 -0.2932
  289TIP3    H1  831   0.975   5.199   1.124 -0.9830 -1.9144  2.7412
  289TIP3    H2  832   1.007   5.095   1.020 -1.5595  0.2075  0.3433
  290TIP3   OH2  833   0.260   4.514   2.007 -0.0636  0.1474  0.0979
  290TIP3    H1  834   0.187   4.575   2.014  0.8107  1.0878  1.3999
  290TIP3    H2  835   0.221   4.428   2.022 -1.0734  0.5074 -0.3688
  291TIP3   OH2  836   6.795   6.501   1.294 -0.2429  0.3389  0.2266
  291TIP3    H1  837   6.886   6.498   1.265 -0.2440 -0.5723  0.2931
  291TIP3    H2  838   6.798   6.553   1.374  0.3612 -0.3427  0.6694
  292TIP3   OH2  839   5.524   5.406   1.697 -0.2833 -0.2740  0.7465
  292TIP3    H1  840   5.609   5.397   1.655 -1.0421  0.6310 -1.1157
  292TIP3    H2  841   5.481   5.321   1.685  0.4620 -0.8589  2.0312
  293TIP3   OH2  842   2.242   5.354   4.992  0.3269 -0.2868  0.8466
  293TIP3    H1  843   2.326   5.367   5.035  1.2507 -2.6348 -0.0359
  293TIP3    H2  844   2.222   5.438   4.951  1.4631  0.7598  2.3473
  294TIP3   OH2  845   3.943   5.117   0.993  0.3876 -0.3576 -0.6794
  294TIP3    H1  846   4.008   5.159   1.050 -0.3554  2.1063 -1.5012
  294TIP3    H2  847   3.990   5.048   0.949  1.6059 -0.7230  1.0830
  295TIP3   OH2  848   1.542   6.741   2.034  0.0076 -0.6240 -0.6697
  295TIP3    H1  849   1.585   6.800   1.972  0.8905 -0.4620  0.0841
  295TIP3    H2  850   1.459   6.720   1.992 -0.8040  1.9336 -0.5580
  296TIP3   OH2  851   2.793   5.584   3.363 -0.2337 -0.1417 -0.5177
  296TIP3    H1  852   2.753   5.516   3.309  0.1026  0.2594 -1.2861
  296TIP3    H2  853   2.862   5.621   3.309 -0.1974  0.5963  0.0101
  297TIP3   OH2  854   5.077   6.520   1.792  0.3275  0.2245 -0.2307
  297TIP3    H1  855   5.087   6.609   1.827  0.4713 -0.7054  2.3422
  297TIP3    H2  856   5.163   6.480   1.805  0.3364 -0.2430 -1.6067
  298TIP3   OH2  857   6.744   4.569   0.741 -0.1526  0.2606  0.4041
  298TIP3    H1  858   6.770   4.660   0.726 -0.6398  0.1962 -0.9395
  298TIP3    H2  859   6.774   4.523   0.663 -2.3653 -0.2181 -0.2049
  299TIP3   OH2  860   4.187   3.404   1.127 -0.0072 -0.2252 -0.7546
  299TIP3    H1  861   4.266   3.445   1.093 -0.0522 -0.6470 -1.3701
  299TIP3    H2  862   4.116   3.446   1.078 -0.2293  0.6369  0.2593
  300TIP3   OH2  863   4.715   3.358   4.641 -0.0544  0.0679 -0.2835
  300TIP3    H1  864   4.778   3.373   4.570  1.2349 -1.3706  0.5005
  300TIP3    H2  865   4.757   3.293   4.697 -2.7235 -1.8788 -0.3416
  301TIP3   OH2  866   0.946   2.658   5.005 -0.1268 -0.0973  0.1401
  301TIP3    H1  867   0.955   2.731   4.944 -1.4733  0.7664  0.9199
  301TIP3    H2  868   0.962   2.580   4.951 -3.0792  0.5077 -1.8493
  302TIP3   OH2  869   4.024   5.966   3.896  0.1489  0.8061 -0.0005
  302TIP3    H1  870   3.993   6.000   3.980  0.1041  0.5934  0.0727
  302TIP3    H2  871   3.955   5.990   3.834  0.4182  1.3981 -0.0724
  303TIP3   OH2  872   6.582   5.387   4.253 -0.4809  0.0484 -0.3186
  303TIP3    H1  873   6.633   5.422   4.327 -1.1589  1.4525 -0.4745
  303TIP3    H2  874   6.508   5.343   4.294  0.1053 -0.7817 -0.1284
  304TIP3   OH2  875   3.513   6.081   1.263  0.1016 -0.9693  0.3051
  304TIP3    H1  876   3.521   6.137   1.185 -0.4857 -0.5800  0.5175
  304TIP3    H2  877   3.445   6.018   1.240 -0.6645 -0.3470  0.7809
  305TIP3   OH2  878   1.041   5.117   1.738  0.1142  0.2761 -0.0199
  305TIP3    H1  879   1.066   5.039   1.689 -1.9007 -0.9082  0.6775
  305TIP3    H2  880   1.071   5.101   1.827 -2.4411 -0.9911  0.7364
  306TIP3   OH2  881   5.376   5.937   5.200 -0.2209 -1.1122 -0.2847
  306TIP3    H1  882   5.426   5.998   5.254 -1.1832 -0.9173  0.4024
  306TIP3    H2  883   5.428   5.928   5.120 -0.7387  1.7061 -1.0305
  307TIP3   OH2  884   4.168   0.842   0.323 -0.0954  0.2588  0.3283
  307TIP3    H1  885   4.226   0.810   0.254  0.5831  1.9843  0.0416
  307TIP3    H2  886   4.170   0.774   0.390  0.4798 -0.7264 -0.6610
  308TIP3   OH2  887   3.285   3.631   1.417 -0.1466 -0.4626 -0.4799
  308TIP3    H1  888   3.376   3.610   1.396  0.7690  0.5507  2.0738
  308TIP3    H2  889   3.241   3.637   1.332  2.5885  0.8883 -1.9374
  309TIP3   OH2  890   1.248   6.051   1.999 -0.1845 -0.0128  0.2577
  309TIP3    H1  891   1.339   6.045   1.969 -0.6612  1.7699 -1.8394
  309TIP3    H2  892   1.235   5.972   2.052  2.4424 -0.5213  0.3014
  310TIP3   OH2  893   2.951   4.431   5.704  0.3143 -0.2186  0.2000
  310TIP3    H1  894   2.875   4.461   5.653  0.2944  1.8720  1.3537
  310TIP3    H2  895   3.014   4.503   5.696  0.6358 -0.2167  2.3714
  311TIP3   OH2  896   3.955   5.989   2.382 -0.3611  0.0388 -0.2019
  311TIP3    H1  897   3.908   6.062   2.423  0.1902  0.8089 -0.8920
  311TIP3    H2  898   3.902   5.968   2.304 -0.3715 -0.1094 -0.1542
  312TIP3   OH2  899   1.495   0.650   2.751  0.3888  0.3225  0.2833
  312TIP3    H1  900   1.528   0.604   2.674 -0.3309  0.0940  0.1075
  312TIP3    H2  901   1.511   0.590   2.824  1.0565  0.5329  0.3236
  313TIP3   OH2  902   7.038   3.672   0.595  0.0417 -0.1559 -0.2833
  313TIP3    H1  903   7.082   3.682   0.511  2.0562 -1.5552  0.5348
  313TIP3    H2  904   7.104   3.696   0.660 -1.1750 -0.0139  0.9473
  314TIP3   OH2  905   4.182   2.071   5.577  0.2061  1.0216  0.2079
  314TIP3    H1  906   4.105   2.035   5.534 -0.6387  0.8773  1.7647
  314TIP3    H2  907   4.237   1.995   5.596 -0.0552  0.9167  0.5662
  315TIP3   OH2  908   5.117   5.414   1.798  0.2063  0.2020  0.3003
  315TIP3    H1  909   5.051   5.462   1.847 -0.3164 -0.3937  0.1913
  315TIP3    H2  910   5.173   5.375   1.864  0.2619  0.4515  0.3999
  316TIP3   OH2  911   2.963   0.157   5.368  0.2174  0.0219 -0.3738
  316TIP3    H1  912   2.960   0.086   5.303 -1.4984 -0.2632 -0.0265
  316TIP3    H2  913   2.872   0.170   5.394  0.9186 -0.7553  2.9433
  317TIP3   OH2  914   0.803   0.075   1.759 -0.1611 -0.2277  0.5663
  317TIP3    H1  915   0.816   0.144   1.694 -0.1431 -0.3930  0.3918
  317TIP3    H2  916   0.811  -0.007   1.709 -2.9025 -0.3624  0.2201
  318TIP3   OH2  917   6.242   2.905   5.616 -0.0435 -0.0862 -0.1469
  318TIP3    H1  918   6.327   2.862   5.621  0.7418  1.1067 -2.1650
  318TIP3    H2  919   6.242   2.968   5.688  0.5428 -0.4692  0.1968
  319TIP3   OH2  920   3.234   3.348   3.964  0.8209  0.3179 -0.3531
  319TIP3    H1  921   3.242   3.279   3.897 -2.2608  1.9929 -2.6804
  319TIP3    H2  922   3.266   3.306   4.044  2.8332 -2.4811 -2.3906
  320TIP3   OH2  923   0.134   0.659   0.398  0.3499 -0.1511  0.2019
  320TIP3    H1  924   0.200   0.592   0.381  1.4775  1.3340 -1.7650
  320TIP3    H2  925   0.150   0.687   0.488  1.8766 -0.4010  0.0358
  321TIP3   OH2  926   4.894   0.777   0.505  0.5625  0.0597  0.4055
  321TIP3    H1  927   4.980   0.765   0.464 -0.3744 -0.4688 -1.5125
  321TIP3    H2  928   4.873   0.869   0.492  0.4109 -0.0348 -0.0404
  322TIP3   OH2  929   1.140   0.079   5.245 -0.4877 -0.4914 -0.1295
  322TIP3    H1  930   1.120   0.172   5.254  1.4443  0.0482 -0.9492
  322TIP3    H2  931   1.189   0.073   5.162 -3.1502 -2.6837 -1.7440
  323TIP3   OH2  932   4.621   4.701   1.981 -0.1480 -0.2003 -0.3620
  323TIP3    H1  933   4.631   4.704   1.886  0.8112 -0.4916 -0.2743
  323TIP3    H2  934   4.674   4.774   2.013 -0.3423 -0.2029 -0.0344
  324TIP3   OH2  935   6.574   5.653   3.136  0.3404  0.3533  0.2767
  324TIP3    H1  936   6.624   5.573   3.120  0.5642  0.4297  0.5891
  324TIP3    H2  937   6.593   5.675   3.227 -1.3777 -0.4095  0.8683
  325TIP3   OH2  938   5.979   6.609   4.146 -0.2050 -0.3591  0.0617
  325TIP3    H1  939   5.959   6.682   4.088 -0.7059 -0.7042 -0.2092
  325TIP3    H2  940   5.907   6.607   4.209 -0.6824 -1.1677 -0.4840
  326TIP3   OH2  941   1.966   0.117   5.273  0.1277  0.2524  0.1637
  326TIP3    H1  942   1.927   0.157   5.195 -0.7717 -0.2348  0.3485
  326TIP3    H2  943   1.891   0.096   5.329  0.5684 -1.4277  0.1868
  327TIP3   OH2  944   3.464   2.025   0.310 -0.1942 -0.0575 -0.4603
  327TIP3    H1  945   3.502   2.053   0.393 -1.3514 -0.1499  0.1203
  327TIP3    H2  946   3.402   1.956   0.333 -1.5666  0.8748 -1.2130
  328TIP3   OH2  947   2.398   2.660   0.654 -0.2141  0.2980  0.2345
  328TIP3    H1  948   2.476   2.613   0.684  0.8869  1.3210 -0.8842
  328TIP3    H2  949   2.382   2.725   0.722 -1.3734 -1.2150  1.4819
  329TIP3   OH2  950   4.388   1.369   3.314  0.3944 -0.3349 -0.3764
  329TIP3    H1  951   4.312   1.422   3.289  0.3014 -0.7749 -1.0389
  329TIP3    H2  952   4.376   1.286   3.268  0.5248 -0.9587  0.6579
  330TIP3   OH2  953   6.575   2.566   5.453  0.4561 -0.4296 -0.2998
  330TIP3    H1  954   6.651   2.517   5.423  1.6926  0.4125  1.3350
  330TIP3    H2  955   6.595   2.657   5.431 -0.4974 -0.2925 -0.6577
  331TIP3   OH2  956   3.973   2.968   0.766  0.4003 -0.4939 -0.7092
  331TIP3    H1  957   4.061   2.999   0.746  1.2848 -2.3444  0.0325
  331TIP3    H2  958   3.961   2.989   0.859 -0.1877  0.2648 -0.9486
  332TIP3   OH2  959   2.533   0.708   3.856  0.2468  0.0495  0.3907
  332TIP3    H1  960   2.592   0.692   3.929  0.5765 -1.4526 -0.1589
  332TIP3    H2  961   2.447   0.720   3.896  0.8219  1.9089  1.1757
  333TIP3   OH2  962   3.521   5.791   1.505  0.6425  0.0849 -0.0275
  333TIP3    H1  963   3.470   5.803   1.425 -1.1461  0.6192  1.1321
  333TIP3    H2  964   3.554   5.701   1.499  0.3046  0.0221 -1.2210
  334TIP3   OH2  965   4.612   0.096   0.720 -0.1208 -0.2708  0.4264
  334TIP3    H1  966   4.682   0.159   0.706  0.6163 -1.0614  0.4644
  334TIP3    H2  967   4.544   0.121   0.657  0.1370  0.5775  0.4801
  335TIP3   OH2  968   7.203   1.886   1.920  0.1008  0.6646 -0.5332
  335TIP3    H1  969   7.243   1.799   1.924  0.0800  0.6692  2.2328
  335TIP3    H2  970   7.112   1.870   1.897  0.2813  0.0435 -0.8332
  336TIP3   OH2  971   5.225   4.672   2.016 -0.5119  0.3764  0.1675
  336TIP3    H1  972   5.217   4.642   2.106  0.2312 -0.1409  0.0772
  336TIP3    H2  973   5.176   4.754   2.012 -1.6877 -0.2884  0.6989
  337TIP3   OH2  974   3.841   1.867   2.022  0.0413 -0.0193 -0.0058
  337TIP3    H1  975   3.830   1.951   2.068  3.0765 -0.9494  2.7935
  337TIP3    H2  976   3.833   1.801   2.091  2.8466 -1.6478 -1.0868
  338TIP3   OH2  977   3.429   1.268   0.359  0.1409 -0.0335 -0.9239
  338TIP3    H1  978   3.397   1.181   0.337 -0.5302  0.3222 -1.3902
  338TIP3    H2  979   3.382   1.292   0.438  0.5556 -0.2169 -0.6190
  339TIP3   OH2  980   1.313   1.874   3.532 -0.3987 -0.3140 -0.2404
  339TIP3    H1  981   1.233   1.827   3.555  0.1101  0.2983  3.3406
  339TIP3    H2  982   1.286   1.938   3.466 -2.8586 -0.1687  0.8096
  340TIP3   OH2  983   1.002   3.851   5.671 -0.3336 -0.1607 -0.0505
  340TIP3    H1  984   1.024   3.923   5.731  0.1716 -0.3752  0.0325
  340TIP3    H2  985   1.022   3.886   5.584 -2.4955  0.6812 -0.2531
  341TIP3   OH2  986   6.696   5.383   2.267  0.1243  0.0709 -0.1057
  341TIP3    H1  987   6.771   5.342   2.223  1.0109  1.1280  0.3833
  341TIP3    H2  988   6.694   5.343   2.354 -0.6547 -0.8550 -0.5313
  342TIP3   OH2  989   5.100   0.520   1.342  0.3847 -1.0907  0.0194
  342TIP3    H1  990   5.032   0.502   1.406 -0.3875  1.0625 -0.1178
  342TIP3    H2  991   5.150   0.594   1.379 -0.2720  0.4233 -1.9115
  343TIP3   OH2  992   5.333   6.152   1.528  0.3197  0.1175  0.1058
  343TIP3    H1  993   5.409   6.096   1.514  0.4905  1.0846 -4.1759
  343TIP3    H2  994   5.369   6.240   1.537 -0.1947  0.4026 -0.5183
  344TIP3   OH2  995   2.164   0.581   2.346 -0.9868 -0.4727  0.5516
  344TIP3    H1  996   2.175   0.639   2.421 -2.6873 -0.9367  1.1923
  344TIP3    H2  997   2.192   0.495   2.378  1.7729 -0.0527 -0.4690
  345TIP3   OH2  998   3.386   5.817   4.768  0.3693  0.0323  0.0412
  345TIP3    H1  999   3.396   5.882   4.698 -0.0740 -1.1951 -1.1910
  345TIP3    H2 1000   3.468   5.768   4.767  0.9222  0.8502  1.3270
  346TIP3   OH2 1001   4.117   1.507   3.307 -0.6498 -0.1561  0.0094
  346TIP3    H1 1002   4.064   1.427   3.306  0.0373 -0.7759  2.7259
  346TIP3    H2 1003   4.054   1.578   3.295 -1.4851 -1.0380 -0.9632
  347TIP3   OH2 1004   0.462   6.567   0.226  0.1671  0.2043  0.2864
  347TIP3    H1 1005   0.444   6.568   0.132 -1.0894  0.9076  0.5050
  347TIP3    H2 1006   0.536   6.627   0.236  1.2848 -1.0039 -0.3936
  348TIP3   OH2 1007   7.043   0.812   4.345 -0.4330  0.3535  0.2378
  348TIP3    H1 1008   6.989   0.736   4.366 -1.4064  0.9232 -0.1104
  348TIP3    H2 1009   6.986   0.887   4.362 -0.6511  0.9093 -2.5263
  349TIP3   OH2 1010   4.624   4.510   4.469  0.5580  0.3626 -0.2838
  349TIP3    H1 1011   4.698   4.508   4.530 -0.7129 -1.1399  1.3376
  349TIP3    H2 1012   4.560   4.569   4.510  0.2481  0.4441 -0.8775
  350TIP3   OH2 1013   3.011   3.811   0.212 -0.1516  0.4742 -0.2366
  350TIP3    H1 1014   2.968   3.846   0.134 -0.0341  1.2610  0.0517
  350TIP3    H2 1015   2.947   3.751   0.250  0.0205 -0.3946 -1.2691
  351TIP3   OH2 1016   1.956   4.490   2.720  0.4375 -0.0774  0.0748
  351TIP3    H1 1017   1.861   4.489   2.727  0.4556  2.8812  3.7353
  351TIP3    H2 1018   1.985   4.409   2.762 -0.4750  0.3361  1.5541
  352TIP3   OH2 1019   3.592   1.524   0.512  0.0400 -0.3064  0.0744
  352TIP3    H1 1020   3.498   1.514   0.529 -0.1869  0.9264 -0.3587
  352TIP3    H2 1021   3.606   1.618   0.513  1.6493 -0.5138  2.0302
  353TIP3   OH2 1022   2.000   0.883   0.272  0.0453  0.1059 -0.3638
  353TIP3    H1 1023   1.976   0.973   0.253 -3.1221 -1.0772 -2.8484
  353TIP3    H2 1024   2.090   0.875   0.239 -0.3598  1.8398 -2.0645
  354TIP3   OH2 1025   6.220   0.828   2.138 -0.1696 -0.4455 -0.1797
  354TIP3    H1 1026   6.178   0.789   2.061  0.4352  2.4093 -2.1221
  354TIP3    H2 1027   6.285   0.763   2.166 -0.6590 -1.7216 -1.8561
  355TIP3   OH2 1028   4.806   5.263   2.819 -0.4507  0.5661 -0.0553
  355TIP3    H1 1029   4.797   5.182   2.868  2.1759  1.2678  1.8079
  355TIP3    H2 1030   4.794   5.332   2.884  3.6933  1.5172 -0.0585
  356TIP3   OH2 1031   4.550   1.918   1.469  0.0473 -0.2093 -0.2726
  356TIP3    H1 1032   4.505   1.877   1.394  0.3057 -2.0073  0.5107
  356TIP3    H2 1033   4.481   1.931   1.534  0.2736 -1.1030  0.1619
  357TIP3   OH2 1034   1.098   0.382   0.655 -0.0452 -0.0538  0.1000
  357TIP3    H1 1035   1.142   0.404   0.573 -2.2676  0.5735 -1.0169
  357TIP3    H2 1036   1.052   0.300   0.637 -0.4774  0.0356  0.7429
  358TIP3   OH2 1037   5.912   1.808   0.021 -0.0411 -0.4484 -0.1448
  358TIP3    H1 1038   5.849   1.853  -0.035 -3.5121  0.7865  4.1319
  358TIP3    H2 1039   5.976   1.875   0.044  0.9305 -0.7486 -1.8340
  359TIP3   OH2 1040   1.164   0.718   4.940  0.4514 -0.4196 -0.6420
  359TIP3    H1 1041   1.069   0.728   4.948  0.5381  0.9199 -1.0651
  359TIP3    H2 1042   1.177   0.623   4.937 -0.7999 -0.6542  0.1353
  360TIP3   OH2 1043   3.776   5.705   2.140  0.0171 -0.0960  0.0834
  360TIP3    H1 1044   3.856   5.756   2.145 -0.8955  1.4195 -0.1135
  360TIP3    H2 1045   3.729   5.741   2.064  0.3270 -2.7425 -1.5059
  361TIP3   OH2 1046   5.153   4.272   0.342 -0.4614 -0.3558  0.2283
  361TIP3    H1 1047   5.084   4.211   0.317 -1.7022  0.1695  2.1196
  361TIP3    H2 1048   5.124   4.356   0.306 -0.0487 -0.3936 -0.2050
  362TIP3   OH2 1049   4.511   3.806   2.375  0.2488 -0.2321 -0.2798
  362TIP3    H1 1050   4.442   3.743   2.399 -0.0716 -0.5611 -1.8841
  362TIP3    H2 1051   4.465   3.889   2.365  0.5569  0.1343  1.1802
  363TIP3   OH2 1052   1.297   2.446   0.458 -0.3389 -0.0009 -0.2679
  363TIP3    H1 1053   1.319   2.433   0.366  0.9752 -0.9287  0.1566
  363TIP3    H2 1054   1.233   2.377   0.476  0.4740 -0.7356 -0.1348
  364TIP3   OH2 1055   0.692   5.434   1.530  0.1197  0.1370  0.5642
  364TIP3    H1 1056   0.619   5.475   1.576  0.5112  1.7568 -0.1566
  364TIP3    H2 1057   0.664   5.431   1.438  0.3624 -0.6537  0.5078
  365TIP3   OH2 1058   1.340   2.224   2.487  0.4264  0.2431 -0.1426
  365TIP3    H1 1059   1.258   2.206   2.441  0.4844 -1.9169  0.4850
  365TIP3    H2 1060   1.390   2.142   2.481  2.3881  1.3679 -0.1588
  366TIP3   OH2 1061   4.684   2.810   4.831 -0.0522  0.5703  0.5449
  366TIP3    H1 1062   4.776   2.787   4.819 -0.3834 -0.9199  0.6386
  366TIP3    H2 1063   4.685   2.905   4.845  1.2473  0.9265 -1.5464
  367TIP3   OH2 1064   4.376   1.285   5.478 -0.4399 -0.4263 -0.2491
  367TIP3    H1 1065   4.282   1.284   5.492 -0.3761  1.1991  0.4608
  367TIP3    H2 1066   4.414   1.292   5.566  0.3792 -1.4652 -0.4902
  368TIP3   OH2 1067   2.075   4.165   1.793  0.5969  0.1215 -0.2052
  368TIP3    H1 1068   2.169   4.172   1.807  1.0133 -2.1321 -1.4354
  368TIP3    H2 1069   2.046   4.099   1.856 -0.3627  1.4441  0.7908
  369TIP3   OH2 1070   0.950   2.635   1.381  0.2682 -0.2774  0.3928
  369TIP3    H1 1071   0.978   2.726   1.385  1.0294 -0.4615 -0.5602
  369TIP3    H2 1072   0.867   2.637   1.334  0.0929 -0.0419  0.7064
  370TIP3   OH2 1073   0.166   3.388   4.849  0.5443 -0.1900 -0.3706
  370TIP3    H1 1074   0.091   3.342   4.812 -0.3127  0.6200  0.2892
  370TIP3    H2 1075   0.185   3.457   4.786  0.2915  0.0192 -0.2232
  371TIP3   OH2 1076   2.969   6.103   1.243 -0.4967  0.1793 -0.0385
  371TIP3    H1 1077   3.027   6.033   1.212 -0.6158  0.3318 -0.6108
  371TIP3    H2 1078   2.955   6.159   1.167 -0.7813  0.5713  0.2942
  372TIP3   OH2 1079   4.366   6.068   2.629 -0.0677 -0.0275  0.3577
  372TIP3    H1 1080   4.392   6.001   2.566 -2.8448  1.2347 -2.3182
  372TIP3    H2 1081   4.413   6.147   2.601 -1.2824  0.5319 -0.1426
  373TIP3   OH2 1082   2.287   2.236   2.135  0.1299 -0.3978 -0.0834
  373TIP3    H1 1083   2.224   2.170   2.106 -0.3510 -0.1122  0.2890
  373TIP3    H2 1084   2.351   2.187   2.187 -0.5642 -0.4908  0.7055
  374TIP3   OH2 1085   0.985   4.021   1.900  0.3077 -0.4164  0.6399
  374TIP3    H1 1086   0.917   4.087   1.894  1.4613  0.7193 -0.4218
  374TIP3    H2 1087   0.943   3.940   1.871 -0.7256  0.1287  0.5865
  375TIP3   OH2 1088   6.262   2.297   0.067 -0.1705  0.1366 -0.7328
  375TIP3    H1 1089   6.272   2.250  -0.015  0.0752 -0.9100 -0.1292
  375TIP3    H2 1090   6.329   2.259   0.124  0.8346  2.0629 -0.5729
  376TIP3   OH2 1091   7.059   3.508   5.294 -0.0033 -0.3535 -0.4080
  376TIP3    H1 1092   7.122   3.437   5.283  0.1918 -0.7256  2.4782
  376TIP3    H2 1093   7.105   3.572   5.348 -0.7591  1.2461 -1.5876
  377TIP3   OH2 1094   5.537   5.126   5.804  0.3344 -0.1143 -0.3465
  377TIP3    H1 1095   5.530   5.037   5.769 -0.3090  0.4270 -1.6544
  377TIP3    H2 1096   5.501   5.120   5.892  0.5358 -1.2028 -0.3266
  378TIP3   OH2 1097   2.992   2.591   0.299  0.1393  0.5788 -0.0803
  378TIP3    H1 1098   2.942   2.665   0.334 -1.6149 -0.4862 -0.2324
  378TIP3    H2 1099   2.926   2.525   0.278  1.6639 -1.1200  0.2330
  379TIP3   OH2 1100   0.538   2.474   2.797 -0.0477 -0.5791 -0.3258
  379TIP3    H1 1101   0.446   2.484   2.821 -0.1577  0.7514 -1.2151
  379TIP3    H2 1102   0.585   2.469   2.881 -0.6962  1.1120  0.1715
  380TIP3   OH2 1103   3.262   6.645   0.855 -0.1128 -0.0814  0.0708
  380TIP3    H1 1104   3.199   6.714   0.835  0.2582  0.1205 -0.4241
  380TIP3    H2 1105   3.260   6.587   0.779  1.6039  0.9117 -0.8009
  381TIP3   OH2 1106   2.343   0.302   5.253 -0.6418  0.3203  0.2098
  381TIP3    H1 1107   2.291   0.280   5.330 -0.9498  0.6138  0.0912
  381TIP3    H2 1108   2.398   0.225   5.237 -0.6291  0.2341  0.6765
  382TIP3   OH2 1109   6.267   2.196   5.801  0.2074  0.1310 -0.1085
  382TIP3    H1 1110   6.200   2.219   5.866 -0.7638  0.5856 -1.2403
  382TIP3    H2 1111   6.229   2.121   5.754  1.4497 -1.0223  0.6407
  383TIP3   OH2 1112   0.813   5.761   5.774 -0.6236 -0.3240 -0.4211
  383TIP3    H1 1113   0.867   5.809   5.836  0.5619 -2.5133  0.3346
  383TIP3    H2 1114   0.745   5.721   5.827 -0.9115 -0.4312 -0.8639
  384TIP3   OH2 1115   1.987   3.931   1.921  0.2084  0.3153 -0.2253
  384TIP3    H1 1116   1.964   3.846   1.883 -0.4448  0.2135  0.3864
  384TIP3    H2 1117   1.938   3.935   2.003  1.3335  0.6733  0.4526
  385TIP3   OH2 1118   1.646   5.958   4.958  0.0607  0.2799  0.5181
  385TIP3    H1 1119   1.724   5.918   4.994  0.9324  2.9278  1.8130
  385TIP3    H2 1120   1.576   5.932   5.018 -0.4212 -2.9407 -1.1966
  386TIP3   OH2 1121   4.399   5.441   3.528 -0.5881 -0.0536  0.5288
  386TIP3    H1 1122   4.334   5.479   3.470  0.7278  1.8996  0.2324
  386TIP3    H2 1123   4.368   5.461   3.616  0.2658  2.1736  0.3757
  387TIP3   OH2 1124   0.654   1.959   0.972 -0.8038 -0.1954 -0.1070
  387TIP3    H1 1125   0.560   1.941   0.964 -0.3481 -3.0293 -0.0909
  387TIP3    H2 1126   0.696   1.891   0.920  1.2760  0.6428  0.3798
  388TIP3   OH2 1127   3.582   4.416   0.272  0.0240 -0.1736 -0.5911
  388TIP3    H1 1128   3.636   4.443   0.198 -0.3971  0.5275 -0.6588
  388TIP3    H2 1129   3.643   4.377   0.334  0.5642  0.3506 -0.7877
  389TIP3   OH2 1130   5.501   6.545   4.849  0.3222  0.1077 -0.3005
  389TIP3    H1 1131   5.515   6.460   4.891 -0.2316 -0.3828 -1.0890
  389TIP3    H2 1132   5.456   6.524   4.767  0.2081  1.1604 -0.5153
  390TIP3   OH2 1133   6.313   6.339   0.233 -0.1329  0.2945  0.8402
  390TIP3    H1 1134   6.332   6.396   0.159  0.2109 -3.1030 -1.9538
  390TIP3    H2 1135   6.394   6.340   0.285  1.0468 -0.0676 -0.9208
  391TIP3   OH2 1136   4.943   5.187   4.377 -0.0498 -0.0340 -0.2752
  391TIP3    H1 1137   4.972   5.105   4.337  1.2408  0.0510  0.4479
  391TIP3    H2 1138   4.982   5.256   4.323 -0.4878  0.1032 -0.4221
  392TIP3   OH2 1139   1.082   5.389   1.645  0.3589 -0.4525 -0.0428
  392TIP3    H1 1140   1.059   5.387   1.552  0.0090 -0.2361  0.0384
  392TIP3    H2 1141   1.098   5.297   1.667  3.8464 -0.2617 -1.1423
  393TIP3   OH2 1142   0.799   4.431   5.817  0.0735 -0.1096  1.0052
  393TIP3    H1 1143   0.886   4.407   5.785  0.3712  0.7417  1.1519
  393TIP3    H2 1144   0.739   4.382   5.762  0.5185  1.9109 -1.4691
  394TIP3   OH2 1145   6.438   3.830   0.681 -0.0705  0.1400 -0.0156
  394TIP3    H1 1146   6.525   3.865   0.661  0.3089  1.2813  3.0919
  394TIP3    H2 1147   6.450   3.780   0.762 -2.6333  2.5534  2.0772
  395TIP3   OH2 1148   6.139   0.143   1.858 -0.1541 -0.1280 -0.1785
  395TIP3    H1 1149   6.059   0.194   1.873 -0.2015 -0.5785  1.3360
  395TIP3    H2 1150   6.199   0.172   1.927  0.3915 -0.9687 -0.2847
  396TIP3   OH2 1151   4.063   1.708   1.651  0.2568 -0.6237 -0.1783
  396TIP3    H1 1152   4.050   1.617   1.680 -0.4386 -0.0833  1.3087
  396TIP3    H2 1153   3.979   1.751   1.669  0.8250  0.5030 -0.1628
  397TIP3   OH2 1154   5.462   5.964   2.593 -0.3200  0.0663 -0.0077
  397TIP3    H1 1155   5.406   6.005   2.660 -0.0767 -0.1786  0.3517
  397TIP3    H2 1156   5.407   5.897   2.553 -0.4529  0.1812 -0.0178
  398TIP3   OH2 1157   0.754   2.167   0.095 -0.7464  0.0546  0.6550
  398TIP3    H1 1158   0.683   2.227   0.074 -1.1978  0.4315  3.0152
  398TIP3    H2 1159   0.803   2.211   0.164  1.7152 -0.2761 -0.7669
  399TIP3   OH2 1160   0.751   3.838   5.012  0.2378 -0.8320 -0.0908
  399TIP3    H1 1161   0.783   3.897   4.944  1.8831 -1.2396  0.2696
  399TIP3    H2 1162   0.787   3.873   5.093  0.4418 -1.7726  0.2456
  400TIP3   OH2 1163   0.956   2.104   2.274 -0.0363 -0.7319  0.0890
  400TIP3    H1 1164   0.991   2.147   2.196 -1.1400  0.2335  0.0986
  400TIP3    H2 1165   0.868   2.139   2.284 -0.6669 -2.3550  0.6269
  401TIP3   OH2 1166   7.078   1.810   5.111 -0.2638  0.5487  0.2083
  401TIP3    H1 1167   7.131   1.794   5.033 -1.0064 -0.3771 -0.1301
  401TIP3    H2 1168   6.992   1.834   5.077 -1.4512 -2.5923  0.6027
  402TIP3   OH2 1169   5.961   3.596   4.295  0.2450  0.2993 -0.1912
  402TIP3    H1 1170   5.919   3.578   4.211 -1.5553 -1.7344  1.0337
  402TIP3    H2 1171   6.031   3.530   4.301  0.9577  1.0208 -0.4602
  403TIP3   OH2 1172   5.567   5.321   4.768  0.0037  0.0086  0.4372
  403TIP3    H1 1173   5.535   5.257   4.705  2.6264 -2.0687  0.9970
  403TIP3    H2 1174   5.490   5.347   4.818 -1.8657  0.4906 -2.4531
  404TIP3   OH2 1175   3.472   2.463   4.371  0.0048  0.3550 -0.4916
  404TIP3    H1 1176   3.486   2.414   4.290  0.3483  0.6537 -0.6136
  404TIP3    H2 1177   3.387   2.506   4.359 -0.4522 -0.4529 -0.2555
  405TIP3   OH2 1178   1.911   0.301   4.418 -0.5821 -0.7555 -0.6998
  405TIP3    H1 1179   1.869   0.339   4.340 -0.6405  0.6536 -0.0146
  405TIP3    H2 1180   1.927   0.210   4.394 -0.4202 -0.3081 -2.4327
  406TIP3   OH2 1181   5.419   5.448   5.063 -0.0362  0.8872 -0.0371
  406TIP3    H1 1182   5.426   5.537   5.030  0.9058  1.6892  2.1348
  406TIP3    H2 1183   5.486   5.442   5.130  1.0136 -2.0243 -1.2043
  407TIP3   OH2 1184   1.791   2.372   1.467  0.0369 -0.4811  0.3626
  407TIP3    H1 1185   1.872   2.321   1.473 -0.8300 -1.9695 -0.0315
  407TIP3    H2 1186   1.791   2.426   1.545  1.1240 -0.8882  0.6661
  408TIP3   OH2 1187   1.025   5.970   5.653 -0.0143  0.0894  0.0262
  408TIP3    H1 1188   0.953   5.915   5.624  0.3495 -0.9318  0.9594
  408TIP3    H2 1189   1.021   5.967   5.749  0.9693  0.3954  0.0960
  409TIP3   OH2 1190   0.707   5.368   3.676  0.2422  0.6231  0.4588
  409TIP3    H1 1191   0.658   5.436   3.630  1.7804  0.2308 -1.9923
  409TIP3    H2 1192   0.658   5.288   3.660  0.3303  0.6229  0.1718
  410TIP3   OH2 1193   4.326   2.907   2.704  0.1194 -0.3417 -0.2806
  410TIP3    H1 1194   4.356   2.918   2.794 -0.0980  1.6259 -0.3977
  410TIP3    H2 1195   4.266   2.832   2.707  0.6297 -0.7205  1.0653
  411TIP3   OH2 1196   6.473   2.618   2.372  0.3678 -0.5334  0.2240
  411TIP3    H1 1197   6.378   2.608   2.378  0.5643 -3.2654 -0.1149
  411TIP3    H2 1198   6.500   2.553   2.307  2.4535  0.3757  0.1134
  412TIP3   OH2 1199   1.233   2.869   1.987  0.1531 -0.1189  0.1552
  412TIP3    H1 1200   1.180   2.880   2.066 -0.0896  0.1754 -0.0449
  412TIP3    H2 1201   1.313   2.827   2.018 -1.7520 -4.4198 -0.0730
  413TIP3   OH2 1202   6.890   0.463   0.566  0.2116 -0.3047  0.4781
  413TIP3    H1 1203   6.818   0.401   0.566 -0.3346  0.2611  2.3252
  413TIP3    H2 1204   6.961   0.419   0.519 -1.4977 -0.6100 -1.9835
  414TIP3   OH2 1205   0.465   1.398   1.015  0.0872 -0.1302  0.5266
  414TIP3    H1 1206   0.386   1.413   0.964  1.0179 -0.7817 -1.1819
  414TIP3    H2 1207   0.438   1.341   1.087 -0.9836 -0.3466 -0.0412
  415TIP3   OH2 1208   0.325   1.882   3.073  0.2156 -0.2321 -1.0259
  415TIP3    H1 1209   0.271   1.812   3.109 -0.3611  1.6055  2.0588
  415TIP3    H2 1210   0.406   1.880   3.124 -0.1634  1.8062 -0.2347
  416TIP3   OH2 1211   4.430   4.809   3.409 -0.4542 -0.1049 -0.1283
  416TIP3    H1 1212   4.376   4.848   3.477 -0.6653 -1.0852  0.2928
  416TIP3    H2 1213   4.436   4.716   3.433 -0.1685 -0.3878 -1.2029
  417TIP3   OH2 1214   4.285   6.210   0.665  0.1422  0.1313 -0.2867
  417TIP3    H1 1215   4.312   6.190   0.755  1.4226 -0.3935 -0.7578
  417TIP3    H2 1216   4.352   6.270   0.633  1.0099 -1.4355 -1.5987
  418TIP3   OH2 1217   0.886   2.723   0.658 -0.8263 -0.6527 -0.2199
  418TIP3    H1 1218   0.846   2.810   0.659 -0.6356 -0.5618 -0.4126
  418TIP3    H2 1219   0.926   2.716   0.571  1.6178  0.1817  0.7491
  419TIP3   OH2 1220   1.918   6.196   5.372 -0.2069  0.0987  0.1251
  419TIP3    H1 1221   1.875   6.217   5.289  1.4785  0.3880 -0.7147
  419TIP3    H2 1222   1.971   6.273   5.391  2.9336 -1.6440 -0.9092
  420TIP3   OH2 1223   5.041   2.054   3.418  0.1646  0.4248  0.2137
  420TIP3    H1 1224   4.977   2.104   3.468  0.3738 -0.3696  1.2887
  420TIP3    H2 1225   5.120   2.056   3.471  0.4082 -0.3872 -0.1096
  421TIP3   OH2 1226   2.384   1.666   5.845 -0.5024  0.4835 -0.7074
  421TIP3    H1 1227   2.362   1.681   5.753  0.3959  2.6488 -0.6230
  421TIP3    H2 1228   2.322   1.721   5.894 -2.2977 -2.1283  0.1665
  422TIP3   OH2 1229   0.751   0.447   1.201 -0.0309 -0.6437 -0.1874
  422TIP3    H1 1230   0.834   0.407   1.228 -0.7375 -1.7040  0.5132
  422TIP3    H2 1231   0.689   0.374   1.201 -0.6356 -0.1969 -2.2709
  423TIP3   OH2 1232   1.503   4.356   3.575  0.4385  0.5184 -0.1000
  423TIP3    H1 1233   1.451   4.411   3.633  0.1173  0.7658 -0.6158
  423TIP3    H2 1234   1.538   4.416   3.510  1.4642  0.3710  0.2996
  424TIP3   OH2 1235   2.543   3.007   5.086  0.3817  0.6067 -0.0881
  424TIP3    H1 1236   2.543   2.981   5.178 -2.1388  1.1939  0.1585
  424TIP3    H2 1237   2.555   3.102   5.088 -0.5310  0.7344 -0.2898
  425TIP3   OH2 1238   2.446   0.595   1.520  0.0325  0.2790 -0.4023
  425TIP3    H1 1239   2.403   0.670   1.478 -2.0505 -1.4285 -1.5789
  425TIP3    H2 1240   2.539   0.607   1.501 -0.5549  0.9454 -3.3950
  426TIP3   OH2 1241   5.638   4.636   5.709  0.1937  0.1010 -0.3639
  426TIP3    H1 1242   5.658   4.542   5.711 -1.2442 -0.2413 -1.0211
  426TIP3    H2 1243   5.702   4.675   5.769  2.0853 -1.0397 -1.5440
  427TIP3   OH2 1244   7.103   0.826   2.491  0.3459  0.0813  0.1849
  427TIP3    H1 1245   7.050   0.843   2.568  0.4269  1.9469 -0.1326
  427TIP3    H2 1246   7.109   0.730   2.487 -0.3349 -0.0738  2.0011
  428TIP3   OH2 1247   7.174   5.218   2.007 -0.0554 -0.2336 -0.0621
  428TIP3    H1 1248   7.244   5.262   1.959 -0.3139 -1.6750 -1.8969
  428TIP3    H2 1249   7.125   5.171   1.939 -1.5232 -0.9657  1.4371
  429TIP3   OH2 1250   6.380   1.667   5.354  0.1220  0.2060 -0.4034
  429TIP3    H1 1251   6.293   1.709   5.361 -0.1604  0.7575 -4.5908
  429TIP3    H2 1252   6.363   1.574   5.366 -0.2628  0.5815  2.8385
  430TIP3   OH2 1253   2.040   1.164   0.265  0.1597  0.8034  0.2108
  430TIP3    H1 1254   2.127   1.176   0.304  0.9547 -0.4857 -1.0137
  430TIP3    H2 1255   2.043   1.216   0.185  1.0828 -1.7294 -1.5273
  431TIP3   OH2 1256   0.643   1.238   2.799 -0.3189 -0.1377  0.1492
  431TIP3    H1 1257   0.738   1.231   2.803 -0.2437  0.5690 -0.1039
  431TIP3    H2 1258   0.613   1.152   2.772  0.2827 -0.2528 -0.1654
  432TIP3   OH2 1259   4.790   2.820   3.119 -0.2265  0.4126  0.0261
  432TIP3    H1 1260   4.700   2.812   3.088 -0.7526 -0.1040  1.5746
  432TIP3    H2 1261   4.833   2.740   3.089  0.1024  1.2164 -1.7876
  433TIP3   OH2 1262   5.051   0.680   5.713  0.5637 -0.4568 -0.3426
  433TIP3    H1 1263   5.104   0.714   5.641  3.3368 -1.1804  1.1925
  433TIP3    H2 1264   5.079   0.588   5.721 -0.3681 -0.6483  1.0580
  434TIP3   OH2 1265   2.506   4.555   4.116  0.1644  0.3276  0.2927
  434TIP3    H1 1266   2.505   4.588   4.205 -0.5008 -1.8585  1.1544
  434TIP3    H2 1267   2.594   4.518   4.105 -0.1094 -0.3818  0.4435
  435TIP3   OH2 1268   5.812   3.537   0.795  0.3553 -0.3161  0.0430
  435TIP3    H1 1269   5.775   3.515   0.710 -1.2383 -0.4481  0.7446
  435TIP3    H2 1270   5.739   3.530   0.856  1.3590  0.2354  1.3595
  436TIP3   OH2 1271   6.893   4.633   0.064  0.2206  0.2848 -0.3410
  436TIP3    H1 1272   6.984   4.606   0.071 -0.7286 -2.8842  2.3311
  436TIP3    H2 1273   6.883   4.704   0.127  1.0693  1.8286 -1.8422
  437TIP3   OH2 1274   1.385   3.317   4.818 -0.9744 -0.2100  0.1670
  437TIP3    H1 1275   1.364   3.371   4.894 -1.8045 -0.3318  0.0317
  437TIP3    H2 1276   1.439   3.246   4.853  0.7995  1.0797  0.2360
  438TIP3   OH2 1277   5.200   2.731   0.838  0.2456 -0.5714 -0.4359
  438TIP3    H1 1278   5.165   2.675   0.908  0.9787  0.8573  1.1354
  438TIP3    H2 1279   5.243   2.803   0.884  0.3369  0.6885 -2.3828
  439TIP3   OH2 1280   5.322   5.861   5.662 -0.0972 -0.1624 -0.0059
  439TIP3    H1 1281   5.285   5.804   5.594 -1.8192  0.8543  0.0199
  439TIP3    H2 1282   5.258   5.858   5.733 -2.8309  5.2204 -1.7066
  440TIP3   OH2 1283   6.238   1.744   5.012  0.3346  0.4254  0.4768
  440TIP3    H1 1284   6.146   1.770   5.019  0.2723  0.3043  0.1679
  440TIP3    H2 1285   6.235   1.650   4.992  0.5197  0.4638  0.2627
  441TIP3   OH2 1286   4.867   3.590   4.935  0.1752  0.0643  0.2354
  441TIP3    H1 1287   4.865   3.681   4.962  0.9804  0.0086  0.5086
  441TIP3    H2 1288   4.930   3.549   4.995 -1.8008 -1.1445  1.6058
  442TIP3   OH2 1289   1.479   3.295   4.577  0.5052  0.1836 -0.1602
  442TIP3    H1 1290   1.562   3.343   4.583 -0.3317  1.5894  0.6599
  442TIP3    H2 1291   1.443   3.298   4.666 -1.3089  1.2545 -0.8804
  443TIP3   OH2 1292   0.599   1.599   1.541  0.5137  0.4160 -0.1342
  443TIP3    H1 1293   0.521   1.546   1.523  1.2312 -0.8630  0.3157
  443TIP3    H2 1294   0.643   1.608   1.457  0.8660 -0.5460 -0.0694
  444TIP3   OH2 1295   6.144   5.120   2.551 -0.2536 -0.3445 -0.1005
  444TIP3    H1 1296   6.165   5.027   2.541 -0.4281 -0.7782  2.7003
  444TIP3    H2 1297   6.229   5.162   2.568 -0.1853  0.0189 -1.2743
  445TIP3   OH2 1298   3.145   6.634   2.455  0.0582 -0.1056  0.0427
  445TIP3    H1 1299   3.124   6.596   2.370 -1.2480  1.8795 -0.6174
  445TIP3    H2 1300   3.082   6.595   2.515  0.7207 -1.2088  0.0492
  446TIP3   OH2 1301   4.630   1.074   4.511  0.1328 -0.3141 -0.1878
  446TIP3    H1 1302   4.644   1.141   4.578  2.6510 -0.3444 -0.5991
  446TIP3    H2 1303   4.555   1.024   4.543 -0.7857  1.6661  0.9449
  447TIP3   OH2 1304   0.550   5.976   3.824 -0.0199 -0.6838  0.3616
  447TIP3    H1 1305   0.489   5.974   3.898 -0.0565 -0.5117  0.3361
  447TIP3    H2 1306   0.594   5.891   3.827 -1.2579 -1.3808 -0.4558
  448TIP3   OH2 1307   5.784   0.741   3.181 -0.0951 -0.9488  0.1394
  448TIP3    H1 1308   5.757   0.687   3.256  0.5306 -0.7157  0.5413
  448TIP3    H2 1309   5.838   0.683   3.129 -0.4316 -1.0745 -0.0753
  449TIP3   OH2 1310   2.378   5.619   2.718 -0.4730 -0.5288  0.1207
  449TIP3    H1 1311   2.420   5.550   2.666 -0.0495  1.1670 -1.9375
  449TIP3    H2 1312   2.334   5.674   2.653  1.6739  2.8026  1.2417
  450TIP3   OH2 1313   4.382   3.671   4.148  0.8571  0.3314 -0.5592
  450TIP3    H1 1314   4.457   3.691   4.203  2.3951 -0.8187 -2.1462
  450TIP3    H2 1315   4.407   3.700   4.061 -0.5754  0.0055 -1.1066
  451TIP3   OH2 1316   4.391   2.177   1.807  0.0811 -0.0742 -0.4194
  451TIP3    H1 1317   4.419   2.133   1.887  1.6116  0.6363 -0.5284
  451TIP3    H2 1318   4.461   2.240   1.789 -1.3305  1.3787 -1.0545
  452TIP3   OH2 1319   5.112   3.567   5.527  0.0131 -0.2371  0.7210
  452TIP3    H1 1320   5.028   3.556   5.481 -1.1654  1.1088  2.4355
  452TIP3    H2 1321   5.139   3.657   5.508 -0.6132  0.4279  2.7411
  453TIP3   OH2 1322   1.091   3.760   2.486 -0.3128 -0.0136 -0.1335
  453TIP3    H1 1323   1.021   3.766   2.421 -0.5929  0.3645  0.1969
  453TIP3    H2 1324   1.171   3.749   2.435 -0.8161 -2.7092 -0.5031
  454TIP3   OH2 1325   2.958   3.013   3.859 -0.2594  0.3084  0.0561
  454TIP3    H1 1326   2.910   3.059   3.927 -0.7621  2.3690 -1.5749
  454TIP3    H2 1327   3.034   2.977   3.903  0.1711  2.7507  1.4998
  455TIP3   OH2 1328   2.928   5.944   2.316 -0.4504  0.3498  0.0951
  455TIP3    H1 1329   2.882   6.026   2.299  0.2201  0.5326 -0.9087
  455TIP3    H2 1330   2.866   5.876   2.293 -0.1969  0.5924 -1.3992
  456TIP3   OH2 1331   6.536   3.901   1.172 -0.0031 -0.1024 -0.0859
  456TIP3    H1 1332   6.509   3.827   1.226  1.3337 -0.6027 -0.0856
  456TIP3    H2 1333   6.477   3.972   1.198 -1.0696 -1.0525  0.1589
  457TIP3   OH2 1334   7.037   2.060   2.907 -0.0391  0.1127 -0.3664
  457TIP3    H1 1335   7.030   2.131   2.970 -1.4826 -2.3212  2.4281
  457TIP3    H2 1336   7.131   2.042   2.901  0.2927  1.7849 -0.6680
  458TIP3   OH2 1337   0.707   1.479   2.568 -0.2144 -0.2624  0.0755
  458TIP3    H1 1338   0.755   1.400   2.589 -1.2483 -1.4314 -1.6856
  458TIP3    H2 1339   0.642   1.488   2.637  0.9415  0.0009  1.1653
  459TIP3   OH2 1340   3.875   1.979   2.475 -0.1332 -0.1976 -0.0305
  459TIP3    H1 1341   3.849   1.963   2.566 -0.9339 -1.1732 -0.4096
  459TIP3    H2 1342   3.796   1.958   2.424  0.7556 -1.1353 -1.0658
  460TIP3   OH2 1343   3.118   5.946   2.057  0.0892 -0.1535  0.1800
  460TIP3    H1 1344   3.109   6.000   2.135  0.7515  0.8289 -0.4081
  460TIP3    H2 1345   3.117   6.008   1.984  0.0570 -1.0053 -0.5642
  461TIP3   OH2 1346   1.607   0.340   2.323  0.2945 -0.3431 -0.5531
  461TIP3    H1 1347   1.642   0.332   2.412 -0.9557  1.8691  0.2133
  461TIP3    H2 1348   1.546   0.266   2.315 -0.6326  0.2006  1.0059
  462TIP3   OH2 1349   3.363   6.659   4.974  0.1150  0.6686  0.5213
  462TIP3    H1 1350   3.435   6.602   4.948 -0.1498  0.8550 -0.6993
  462TIP3    H2 1351   3.316   6.609   5.041  0.8107  0.1396  0.6289
  463TIP3   OH2 1352   3.357   3.239   0.761 -0.1129 -0.0452  0.3059
  463TIP3    H1 1353   3.320   3.323   0.735 -0.8631  0.0456  1.5891
  463TIP3    H2 1354   3.452   3.251   0.754 -0.2245  0.7897  0.1454
  464TIP3   OH2 1355   2.326   4.881   0.245 -0.3026 -0.1609 -0.3032
  464TIP3    H1 1356   2.345   4.967   0.208 -0.7726  0.3091  0.5196
  464TIP3    H2 1357   2.339   4.892   0.339 -0.5426 -0.9441 -0.1709
  465TIP3   OH2 1358   4.953   0.855   3.450 -0.7268  0.5910 -0.4149
  465TIP3    H1 1359   5.025   0.804   3.413  0.9334  1.4694  1.4648
  465TIP3    H2 1360   4.953   0.833   3.543 -2.5482  1.0689 -0.2531
  466TIP3   OH2 1361   0.541   2.961   0.796  0.0612 -0.1020 -0.3183
  466TIP3    H1 1362   0.526   2.892   0.861 -0.6618  1.3715  1.1536
  466TIP3    H2 1363   0.475   2.945   0.729 -0.1323 -0.7909  0.0249
  467TIP3   OH2 1364   2.131   0.228   0.825 -0.5067 -0.1579 -0.3686
  467TIP3    H1 1365   2.155   0.314   0.791  0.2581 -1.0111 -2.1161
  467TIP3    H2 1366   2.053   0.244   0.878  0.2683  1.7573  0.2552
  468TIP3   OH2 1367   6.160   1.844   0.489 -0.5694  0.5895 -0.0125
  468TIP3    H1 1368   6.191   1.848   0.579 -0.9480  1.0610  0.1004
  468TIP3    H2 1369   6.240   1.844   0.436 -0.3617  0.9940  0.3003
  469TIP3   OH2 1370   1.348   2.288   1.810 -0.1513 -0.1245  0.1305
  469TIP3    H1 1371   1.275   2.233   1.782 -1.0616  0.9895  0.2584
  469TIP3    H2 1372   1.376   2.250   1.893 -1.2109  0.0046  0.5553
  470TIP3   OH2 1373   0.688   5.927   3.162  0.1007  0.0505 -0.0972
  470TIP3    H1 1374   0.628   5.929   3.237 -0.9518  0.6692 -0.9216
  470TIP3    H2 1375   0.741   6.006   3.173 -0.6936  0.6491 -0.4971
  471TIP3   OH2 1376   7.081   5.764   4.558  0.4656 -0.0180  0.6759
  471TIP3    H1 1377   7.124   5.745   4.642 -0.1409 -0.6662  0.8416
  471TIP3    H2 1378   7.024   5.839   4.577  1.7309  1.0708  0.3766
  472TIP3   OH2 1379   3.720   5.894   4.375  0.4759  0.1005 -0.0031
  472TIP3    H1 1380   3.798   5.945   4.397  0.7907 -0.1797 -0.4572
  472TIP3    H2 1381   3.647   5.947   4.407  0.8444  0.4297  0.3006
  473TIP3   OH2 1382   1.483   6.473   2.872  0.0899 -0.0079  0.1795
  473TIP3    H1 1383   1.443   6.497   2.788 -0.5750  1.5213  0.8955
  473TIP3    H2 1384   1.573   6.447   2.849  0.0016  0.6386 -0.9773
  474TIP3   OH2 1385   5.845   4.630   4.615  0.6949 -1.2623 -0.5285
  474TIP3    H1 1386   5.939   4.646   4.625  0.9610 -2.8029 -0.4249
  474TIP3    H2 1387   5.838   4.536   4.597 -0.8012 -1.0994 -0.9244
  475TIP3   OH2 1388   0.979   3.164   4.389 -0.4077  0.0849 -0.2599
  475TIP3    H1 1389   0.936   3.130   4.310 -0.1620 -0.7020 -0.0700
  475TIP3    H2 1390   1.019   3.246   4.362 -2.7379  1.2963 -0.2438
  476TIP3   OH2 1391   2.047   0.874   4.959 -0.6719 -0.0835 -0.6090
  476TIP3    H1 1392   2.121   0.841   5.010 -1.4650 -3.0674 -1.1999
  476TIP3    H2 1393   1.971   0.854   5.013 -1.1686  1.7824 -0.5819
  477TIP3   OH2 1394   5.335   4.925   3.688 -0.0306  0.2237 -0.1126
  477TIP3    H1 1395   5.307   4.990   3.751  0.8888  0.1002  0.4430
  477TIP3    H2 1396   5.338   4.972   3.604  0.2964  0.8104  0.2218
  478TIP3   OH2 1397   2.102   5.057   0.884  0.9920 -0.4314 -0.6544
  478TIP3    H1 1398   2.126   5.078   0.794  1.5050 -2.6754 -1.0845
  478TIP3    H2 1399   2.178   5.082   0.936  0.4119  1.5858 -0.6756
  479TIP3   OH2 1400   6.149   3.361   4.282  0.0181  0.1735 -0.1617
  479TIP3    H1 1401   6.122   3.363   4.190 -1.5146 -0.8424  0.2090
  479TIP3    H2 1402   6.199   3.280   4.291  1.0276  0.7731 -0.2999
  480TIP3   OH2 1403   1.231   6.345   0.956 -0.0210 -0.2946 -0.5378
  480TIP3    H1 1404   1.158   6.398   0.925 -0.6615 -0.4166  0.6941
  480TIP3    H2 1405   1.308   6.383   0.914 -0.3862  1.9145  0.6320
  481TIP3   OH2 1406   0.386   1.317   3.138  0.5614 -0.6019  0.1648
  481TIP3    H1 1407   0.340   1.332   3.220  0.2198  0.0067 -0.1325
  481TIP3    H2 1408   0.318   1.290   3.076  0.5236  0.6046 -0.3567
  482TIP3   OH2 1409   5.433   2.712   3.179 -0.0417  0.1847  0.5683
  482TIP3    H1 1410   5.497   2.732   3.247 -1.0710  2.1548  1.0237
  482TIP3    H2 1411   5.369   2.654   3.223 -0.0654  0.4815  0.9312
  483TIP3   OH2 1412   5.090   4.519   0.208 -0.3061  0.0669 -0.2965
  483TIP3    H1 1413   5.021   4.525   0.143  1.3128 -0.9629 -2.2225
  483TIP3    H2 1414   5.141   4.599   0.198  0.7120 -0.6711 -1.2794
  484TIP3   OH2 1415   2.724   0.709   2.506 -0.1587  0.2020  0.5697
  484TIP3    H1 1416   2.813   0.716   2.470 -0.3589  1.7991  0.3189
  484TIP3    H2 1417   2.724   0.766   2.582 -0.4895 -1.1758  1.6444
  485TIP3   OH2 1418   5.200   4.615   2.274  0.1804  0.0553 -0.0014
  485TIP3    H1 1419   5.107   4.614   2.293 -0.3299 -2.6594 -2.1144
  485TIP3    H2 1420   5.232   4.529   2.303  1.9761  0.7858  0.3530
  486TIP3   OH2 1421   3.185   4.922   4.840 -0.1335  0.3305  0.2165
  486TIP3    H1 1422   3.229   4.868   4.774 -0.1722  2.5600 -1.7656
  486TIP3    H2 1423   3.182   4.866   4.918  1.5588 -1.7761 -1.0937
  487TIP3   OH2 1424   4.098   2.313   0.852 -0.5713 -0.0259 -0.9903
  487TIP3    H1 1425   4.072   2.404   0.864 -1.1814 -0.0159 -2.2804
  487TIP3    H2 1426   4.181   2.318   0.805  1.0311 -0.1026  1.6309
  488TIP3   OH2 1427   1.637   1.529   0.498  0.3055  0.0622 -0.5629
  488TIP3    H1 1428   1.603   1.471   0.431 -1.1528  0.0726  0.1301
  488TIP3    H2 1429   1.576   1.603   0.501  0.8746  0.5323  0.1085
  489TIP3   OH2 1430   7.108   4.315   1.083 -0.3834  0.6407 -0.4054
  489TIP3    H1 1431   7.092   4.404   1.113 -1.1574  0.6065 -0.7010
  489TIP3    H2 1432   7.102   4.320   0.988  0.9657  0.5322 -0.5237
  490TIP3   OH2 1433   0.496   0.083   4.363  0.8473  0.2852  0.0838
  490TIP3    H1 1434   0.429   0.078   4.431  0.0327  1.3492 -0.6190
  490TIP3    H2 1435   0.528   0.173   4.367  2.0067 -0.1102  0.1781
  491TIP3   OH2 1436   7.168   2.999   3.344  0.0885 -0.6879 -0.0450
  491TIP3    H1 1437   7.260   3.025   3.349  0.3107 -1.6088  0.8111
  491TIP3    H2 1438   7.163   2.943   3.267  0.7480 -2.4846  1.1461
  492TIP3   OH2 1439   6.597   5.500   4.758  0.2118 -0.9821 -0.2026
  492TIP3    H1 1440   6.669   5.461   4.806  1.5956  0.1670 -1.2562
  492TIP3    H2 1441   6.602   5.594   4.779 -0.3964 -0.7502 -1.0278
  493TIP3   OH2 1442   5.142   6.312   5.297 -0.0194 -0.3807  0.4286
  493TIP3    H1 1443   5.175   6.269   5.376  1.5932  1.0325  0.5851
  493TIP3    H2 1444   5.114   6.399   5.326 -0.8264 -0.3777 -0.3072
  494TIP3   OH2 1445   4.923   5.620   0.311  0.1394  0.1722 -0.2452
  494TIP3    H1 1446   4.997   5.567   0.339 -0.3813  0.4457  1.7550
  494TIP3    H2 1447   4.962   5.703   0.284  0.8115 -0.6695 -2.0877
  495TIP3   OH2 1448   5.838   4.464   2.580  0.2398 -0.0516  0.1086
  495TIP3    H1 1449   5.789   4.514   2.515 -0.0726  0.4338  0.7098
  495TIP3    H2 1450   5.930   4.481   2.559  0.2116 -1.5779 -1.5050
  496TIP3   OH2 1451   6.001   1.818   4.649 -0.2947  0.2387 -0.3277
  496TIP3    H1 1452   5.952   1.739   4.670 -2.6817  1.4719 -0.9566
  496TIP3    H2 1453   5.949   1.890   4.685  0.5417  1.6833 -1.8341
  497TIP3   OH2 1454   5.659   3.891   5.348 -0.3891 -0.1920  0.0755
  497TIP3    H1 1455   5.641   3.979   5.381 -1.7116 -0.3067 -0.2865
  497TIP3    H2 1456   5.747   3.898   5.310  0.7645  0.2038  2.5833
  498TIP3   OH2 1457   2.772   3.271   4.416  0.3077 -0.4822  0.1496
  498TIP3    H1 1458   2.748   3.296   4.327  1.3911 -2.6968 -0.8494
  498TIP3    H2 1459   2.854   3.317   4.433  0.3801 -0.4656 -0.2318
  499TIP3   OH2 1460   4.012   0.982   3.877  0.3073 -0.6439 -0.0290
  499TIP3    H1 1461   3.994   0.899   3.923 -0.1304  0.5593  2.1222
  499TIP3    H2 1462   4.105   0.999   3.895  0.0439  0.0127  0.7938
  500TIP3   OH2 1463   1.406   1.468   3.469 -0.2774 -0.1493  0.3075
  500TIP3    H1 1464   1.435   1.557   3.491  0.6150 -0.3024 -0.1804
  500TIP3    H2 1465   1.355   1.478   3.388 -0.0416 -0.0925  0.1637
  501TIP3   OH2 1466   7.054   4.477   0.314 -0.0355  0.4090  0.1340
  501TIP3    H1 1467   7.143   4.452   0.288  0.1026 -0.0686  1.0427
  501TIP3    H2 1468   7.005   4.395   0.312 -0.3462  0.5938  0.0901
  502TIP3   OH2 1469   2.551   5.177   0.448  0.2587  0.2301  0.7957
  502TIP3    H1 1470   2.598   5.099   0.479  0.7407  0.1745 -0.0350
  502TIP3    H2 1471   2.459   5.158   0.464  0.4209 -0.2485  1.1815
  503TIP3   OH2 1472   6.319   2.371   3.244 -0.0616  0.4293  0.2224
  503TIP3    H1 1473   6.323   2.451   3.193 -0.6265  0.0045 -0.5014
  503TIP3    H2 1474   6.409   2.356   3.273  0.3236  0.5290 -0.8779
  504TIP3   OH2 1475   4.106   2.520   0.176  0.5833 -0.6004  0.1157
  504TIP3    H1 1476   4.170   2.495   0.244 -0.3078 -1.4230  0.6782
  504TIP3    H2 1477   4.081   2.609   0.199  2.2938  0.1458 -0.7298
  505TIP3   OH2 1478   0.591   1.142   3.218  0.3224  0.5056 -0.5130
  505TIP3    H1 1479   0.557   1.053   3.230  0.5591  0.6064  1.0447
  505TIP3    H2 1480   0.515   1.192   3.187 -0.3805  0.2289  0.7104
  506TIP3   OH2 1481   1.992   4.059   5.555  0.2602 -0.0367  0.5276
  506TIP3    H1 1482   2.080   4.032   5.527  0.4417 -0.0896  1.1256
  506TIP3    H2 1483   1.933   4.017   5.493  0.7318  1.5278 -1.0693
  507TIP3   OH2 1484   6.585   6.487   2.716  0.5181 -0.2136  0.1733
  507TIP3    H1 1485   6.517   6.486   2.649  1.8306  1.8427 -1.2667
  507TIP3    H2 1486   6.545   6.440   2.790 -2.3676  0.6825 -0.6716
  508TIP3   OH2 1487   1.811   5.321   2.414  0.4695 -0.9550  0.2973
  508TIP3    H1 1488   1.723   5.356   2.428  0.3470 -1.4191  0.7031
  508TIP3    H2 1489   1.854   5.387   2.360  0.4860  0.2023  1.6511
  509TIP3   OH2 1490   4.731   3.869   2.211 -0.0376  0.1869  0.3625
  509TIP3    H1 1491   4.658   3.845   2.267  0.3953 -0.0304  0.8477
  509TIP3    H2 1492   4.780   3.934   2.262 -0.8523  1.6878 -0.6797
  510TIP3   OH2 1493   4.209   0.552   1.955 -0.0285 -0.0049 -0.0492
  510TIP3    H1 1494   4.161   0.469   1.948 -1.2354  0.7132 -0.5627
  510TIP3    H2 1495   4.170   0.608   1.888 -0.1176  1.3913  1.1107
  511TIP3   OH2 1496   2.996   0.189   2.885  0.5101  0.4604  0.4086
  511TIP3    H1 1497   3.031   0.123   2.946 -0.9161 -1.3019 -0.5579
  511TIP3    H2 1498   3.054   0.184   2.809 -0.0654 -0.3239  0.0028
  512TIP3   OH2 1499   1.821   6.164   4.308 -0.4431  0.2689 -0.0126
  512TIP3    H1 1500   1.857   6.079   4.282 -1.0920 -0.2075  0.6055
  512TIP3    H2 1501   1.757   6.184   4.239 -0.8428 -0.1198  0.2372
  513TIP3   OH2 1502   5.384   0.961   1.271  0.3834 -0.0041  0.0497
  513TIP3    H1 1503   5.398   1.006   1.189  0.7649 -1.9387 -1.0160
  513TIP3    H2 1504   5.469   0.962   1.315  1.3735 -2.5395 -1.5580
  514TIP3   OH2 1505   2.116   0.892   0.553 -0.4762 -0.0052  0.2588
  514TIP3    H1 1506   2.076   0.910   0.468 -0.5976  1.1355  0.5342
  514TIP3    H2 1507   2.162   0.809   0.542 -0.0724  0.3833 -1.0572
  515TIP3   OH2 1508   1.162   5.742   0.265  0.9422  0.1628  0.5138
  515TIP3    H1 1509   1.172   5.815   0.205  0.3378 -1.9820 -2.4495
  515TIP3    H2 1510   1.133   5.781   0.347 -0.4808  3.1063 -1.2445
  516TIP3   OH2 1511   3.973   4.142   4.465 -0.2238 -0.0922 -0.2324
  516TIP3    H1 1512   3.905   4.114   4.403  0.1626  2.4587 -1.9486
  516TIP3    H2 1513   3.926   4.195   4.529 -0.3400 -1.2432  0.6668
  517TIP3   OH2 1514   3.354   4.172   1.409  0.1961  0.1289  0.1029
  517TIP3    H1 1515   3.358   4.084   1.373 -0.6366  0.0909  0.0906
  517TIP3    H2 1516   3.260   4.189   1.422  0.4183  0.4627  1.4674
  518TIP3   OH2 1517   2.513   4.028   2.782  0.0421  0.4520  0.0129
  518TIP3    H1 1518   2.589   4.064   2.735  0.3870  0.7012  0.7418
  518TIP3    H2 1519   2.513   3.935   2.760 -0.1442  0.6698 -0.9354
  519TIP3   OH2 1520   0.059   4.510   4.728 -0.2726  0.0745 -0.0828
  519TIP3    H1 1521  -0.020   4.556   4.759  0.1555  2.6676 -2.3793
  519TIP3    H2 1522   0.032   4.472   4.645  0.3680 -0.8252  0.1208
  520TIP3   OH2 1523   3.168   5.709   4.593  0.3143  0.2516  0.2664
  520TIP3    H1 1524   3.161   5.692   4.499 -0.2941  0.5978  0.2463
  520TIP3    H2 1525   3.258   5.683   4.615  1.5251  2.9460 -0.9921
  521TIP3   OH2 1526   6.407   0.248   1.012 -0.4222  0.3437 -0.8072
  521TIP3    H1 1527   6.358   0.179   0.968 -1.0585  0.1288  0.2009
  521TIP3    H2 1528   6.471   0.201   1.066 -0.5969  0.5461 -0.4171
  522TIP3   OH2 1529   3.632   1.372   1.113 -0.6315  0.3268 -0.4728
  522TIP3    H1 1530   3.627   1.304   1.046  1.1875  0.8421 -1.1958
  522TIP3    H2 1531   3.571   1.440   1.083 -0.1744  0.3482 -1.3967
  523TIP3   OH2 1532   1.950   1.962   3.849  0.4199  0.1121 -0.6156
  523TIP3    H1 1533   1.866   1.920   3.826 -0.5050  1.0511  0.8841
  523TIP3    H2 1534   1.975   2.009   3.770  0.3998 -1.5079 -1.6393
  524TIP3   OH2 1535   1.690   1.652   1.641 -0.0390  0.4032  0.1731
  524TIP3    H1 1536   1.650   1.735   1.617 -0.0313  0.7817  1.3938
  524TIP3    H2 1537   1.653   1.632   1.727  0.8818 -0.2463  0.4320
  525TIP3   OH2 1538   5.270   2.223   3.267 -0.3239  0.1127  0.5504
  525TIP3    H1 1539   5.254   2.198   3.358  0.5087  0.3091  0.7593
  525TIP3    H2 1540   5.320   2.151   3.230 -1.4288 -0.3804 -0.0217
  526TIP3   OH2 1541   1.679   2.361   2.732 -0.4294 -0.2519  0.4568
  526TIP3    H1 1542   1.758   2.371   2.678 -0.7539 -2.9550 -0.6963
  526TIP3    H2 1543   1.712   2.359   2.822  0.3763  2.0110  0.2749
  527TIP3   OH2 1544   2.939   3.337   5.502 -0.4747 -0.0134  0.4179
  527TIP3    H1 1545   2.855   3.317   5.543  0.4842 -0.0857  2.5045
  527TIP3    H2 1546   2.982   3.252   5.492 -0.4439  0.0690 -0.1694
  528TIP3   OH2 1547   3.105   4.494   4.800 -0.0656  0.2235 -0.4152
  528TIP3    H1 1548   3.106   4.480   4.895 -3.4856 -1.0228 -0.4123
  528TIP3    H2 1549   3.180   4.445   4.768 -0.0564 -1.1325  1.5048
  529TIP3   OH2 1550   2.103   2.880   5.238  0.2974 -0.1057 -0.1842
  529TIP3    H1 1551   2.045   2.809   5.264  0.1771 -0.6993 -1.9141
  529TIP3    H2 1552   2.055   2.926   5.169  0.9691  0.7867 -0.0827
  530TIP3   OH2 1553   4.868   3.399   5.170 -0.1056  0.3018  0.4280
  530TIP3    H1 1554   4.943   3.347   5.143  1.1056  1.8151  0.7649
  530TIP3    H2 1555   4.808   3.335   5.210  0.2762 -1.1608 -1.2432
  531TIP3   OH2 1556   1.683   2.260   3.711 -0.4124  0.1751  0.2762
  531TIP3    H1 1557   1.646   2.341   3.675 -0.5411  0.0285  0.0716
  531TIP3    H2 1558   1.632   2.190   3.669 -0.3983 -0.0073  0.5619
  532TIP3   OH2 1559   2.767   1.762   4.939  0.3637  0.5437 -0.5473
  532TIP3    H1 1560   2.686   1.712   4.951  0.1854  0.9917  0.1479
  532TIP3    H2 1561   2.807   1.723   4.861 -0.0293 -0.3397 -0.3263
  533TIP3   OH2 1562   6.177   0.686   3.145 -0.2077  0.2898  0.3516
  533TIP3    H1 1563   6.186   0.774   3.182  0.1346 -0.0764  1.1709
  533TIP3    H2 1564   6.121   0.640   3.208  0.7467 -0.4798  0.6584
  534TIP3   OH2 1565   5.527   1.758   1.361  0.2934 -0.3220 -0.1398
  534TIP3    H1 1566   5.618   1.741   1.387  0.6832  0.6774 -0.7546
  534TIP3    H2 1567   5.490   1.672   1.344  0.9490 -0.7842  0.6840
  535TIP3   OH2 1568   3.255   5.244   0.189  0.1393  0.0521 -0.3387
  535TIP3    H1 1569   3.269   5.214   0.278  0.2315  0.5822 -0.1694
  535TIP3    H2 1570   3.344   5.257   0.154  0.1395  1.7261  0.1548
  536TIP3   OH2 1571   5.537   2.464   4.523  0.1625  0.4454 -0.0112
  536TIP3    H1 1572   5.536   2.546   4.474  2.3463  1.9634  2.2527
  536TIP3    H2 1573   5.445   2.438   4.526 -0.2133  0.7610 -3.8752
  537TIP3   OH2 1574   1.173   3.394   5.614  0.0776 -0.0498 -0.7266
  537TIP3    H1 1575   1.085   3.425   5.633  0.0227 -0.1906 -0.7460
  537TIP3    H2 1576   1.231   3.464   5.645 -0.0589  0.2698 -1.1829
  538TIP3   OH2 1577   3.670   6.691   4.262 -0.1263  0.2311 -0.4549
  538TIP3    H1 1578   3.677   6.745   4.340  0.5842 -0.3063 -0.1373
  538TIP3    H2 1579   3.576   6.678   4.250 -0.3003  1.4447 -0.4833
  539TIP3   OH2 1580   0.852   6.331   5.193 -0.2435  0.4721  0.6215
  539TIP3    H1 1581   0.772   6.368   5.231 -2.0815 -2.1579 -0.3693
  539TIP3    H2 1582   0.847   6.355   5.100 -0.0254  0.0602  0.5032
  540TIP3   OH2 1583   2.209   3.163   1.255  0.1559 -0.0531  0.6714
  540TIP3    H1 1584   2.157   3.232   1.213  1.6821  0.1020 -1.1296
  540TIP3    H2 1585   2.197   3.087   1.198 -0.5192 -0.9266  1.9502
  541TIP3   OH2 1586   3.724   3.212   4.976  0.1896  0.4778 -0.3506
  541TIP3    H1 1587   3.726   3.210   5.071  3.1295 -2.8538 -0.2686
  541TIP3    H2 1588   3.679   3.131   4.951  1.5136  0.0924 -1.6807
  542TIP3   OH2 1589   0.670   3.602   3.997  0.1792 -0.1857  0.0573
  542TIP3    H1 1590   0.662   3.643   3.911  0.8407 -4.1916 -2.1541
  542TIP3    H2 1591   0.765   3.595   4.011  0.1837 -2.4711 -0.6142
  543TIP3   OH2 1592   3.912   5.997   5.202 -0.0850 -0.6898  0.0633
  543TIP3    H1 1593   3.856   5.976   5.277  0.1299 -1.4807  0.0125
  543TIP3    H2 1594   3.998   6.011   5.240 -0.2536  0.3097  0.1153
  544TIP3   OH2 1595   2.681   1.330   4.525  0.1985 -0.1167 -0.2197
  544TIP3    H1 1596   2.755   1.388   4.507  2.2914 -3.1822 -2.5638
  544TIP3    H2 1597   2.675   1.327   4.620  1.6703  1.8443  0.0049
  545TIP3   OH2 1598   6.701   3.711   1.904 -0.1309  0.0614 -0.3670
  545TIP3    H1 1599   6.694   3.734   1.811  0.5402  2.0759  0.0308
  545TIP3    H2 1600   6.624   3.750   1.944 -0.4650 -0.8791 -0.0769
  546TIP3   OH2 1601   1.091   4.845   5.815 -0.4320 -0.2239  0.3875
  546TIP3    H1 1602   1.089   4.762   5.768  1.0697 -0.0737  0.0079
  546TIP3    H2 1603   1.141   4.904   5.757 -1.0041  0.7865  0.8916
  547TIP3   OH2 1604   1.849   0.232   0.519 -0.1870 -0.1083  0.3714
  547TIP3    H1 1605   1.863   0.256   0.427  0.2233 -1.3473  0.0943
  547TIP3    H2 1606   1.922   0.174   0.540 -0.0137  0.5550  1.6406
  548TIP3   OH2 1607   6.222   3.756   2.020 -0.0879 -0.0156  0.3334
  548TIP3    H1 1608   6.301   3.726   1.974  0.1174 -0.6003  1.0511
  548TIP3    H2 1609   6.195   3.834   1.973  1.2028  0.4758  0.3812
  549TIP3   OH2 1610   6.320   1.487   2.166  0.0924 -0.3631  0.4671
  549TIP3    H1 1611   6.311   1.542   2.089  1.5671  1.3330  1.4489
  549TIP3    H2 1612   6.413   1.462   2.167 -0.3987 -2.4303  0.3931
  550TIP3   OH2 1613   5.886   5.396   5.614 -0.5152 -0.3096 -0.4082
  550TIP3    H1 1614   5.957   5.446   5.655  0.2077 -0.6026 -1.2920
  550TIP3    H2 1615   5.881   5.315   5.665  0.7579 -0.9212 -1.2212
  551TIP3   OH2 1616   1.342   2.296   2.978  0.3960  0.3220 -0.0706
  551TIP3    H1 1617   1.345   2.318   2.885 -0.1574  0.5746 -0.0344
  551TIP3    H2 1618   1.254   2.323   3.006  1.3139  2.3998  1.0475
  552TIP3   OH2 1619   5.903   4.194   5.719 -0.0296  0.1961  0.0231
  552TIP3    H1 1620   5.851   4.164   5.644  0.0406  2.2937 -0.9412
  552TIP3    H2 1621   5.848   4.260   5.761  2.0535  3.1776 -1.5760
  553TIP3   OH2 1622   6.825   6.159   3.655  0.2785 -0.0770 -0.8274
  553TIP3    H1 1623   6.806   6.250   3.630 -1.5723  0.2744  1.4519
  553TIP3    H2 1624   6.898   6.166   3.716  0.5707 -0.2180 -1.1556
  554TIP3   OH2 1625   0.379   6.492   1.579 -0.5815 -0.2756 -0.4126
  554TIP3    H1 1626   0.424   6.562   1.531 -0.0115 -0.1920  0.2242
  554TIP3    H2 1627   0.289   6.494   1.546 -0.5743  0.7609 -0.3948
  555TIP3   OH2 1628   1.096   0.304   4.786  0.5349 -0.0366 -0.4970
  555TIP3    H1 1629   1.132   0.215   4.787  1.7478  0.4495  0.8400
  555TIP3    H2 1630   1.161   0.357   4.831 -1.2559  1.1198  0.8375
  556TIP3   OH2 1631   3.819   1.795   1.747 -0.0619 -0.2572  0.1488
  556TIP3    H1 1632   3.733   1.811   1.710  0.2273  0.8489 -0.0942
  556TIP3    H2 1633   3.805   1.796   1.842 -0.5591 -1.6355  0.1082
  557TIP3   OH2 1634   2.028   0.252   2.552  0.0289  0.5736  0.0119
  557TIP3    H1 1635   1.980   0.201   2.486  0.7828  0.5438 -0.5290
  557TIP3    H2 1636   2.082   0.312   2.501 -0.7354  1.8530  0.6390
  558TIP3   OH2 1637   4.997   5.005   2.833 -0.2123 -0.4753  0.2036
  558TIP3    H1 1638   5.033   5.017   2.921 -1.3328 -1.4251  0.8229
  558TIP3    H2 1639   5.052   5.060   2.777  0.3319  0.3964  1.5328
  559TIP3   OH2 1640   4.807   1.371   3.269  0.0250 -0.5367  0.3363
  559TIP3    H1 1641   4.789   1.333   3.355 -0.9228  0.7628  0.7408
  559TIP3    H2 1642   4.797   1.465   3.282  1.7394 -0.1641 -0.7694
  560TIP3   OH2 1643   0.368   1.474   2.458 -0.6372 -0.6373  0.0475
  560TIP3    H1 1644   0.414   1.520   2.528  0.3807  1.2750 -1.7729
  560TIP3    H2 1645   0.433   1.412   2.423 -0.8245 -0.8970  0.1546
  561TIP3   OH2 1646   4.455   3.383   5.171  0.9455  0.2644 -0.3428
  561TIP3    H1 1647   4.466   3.444   5.098  2.2183  1.0519  0.4598
  561TIP3    H2 1648   4.435   3.299   5.130  2.0433  0.5950 -1.6321
  562TIP3   OH2 1649   0.725   4.239   1.380  0.3188  0.4245  0.2636
  562TIP3    H1 1650   0.718   4.185   1.301 -2.1374  1.0873 -0.0606
  562TIP3    H2 1651   0.747   4.178   1.450  0.7874 -0.4492 -0.6359
  563TIP3   OH2 1652   3.738   3.394   5.665 -0.1957  0.3945 -0.1928
  563TIP3    H1 1653   3.824   3.371   5.701 -0.7514 -3.0254 -0.7389
  563TIP3    H2 1654   3.700   3.310   5.639 -3.8807  1.7360  0.3461
  564TIP3   OH2 1655   1.906   1.297   0.470 -0.2755  0.2803 -0.2132
  564TIP3    H1 1656   1.932   1.253   0.389 -1.4668  2.2933 -1.7943
  564TIP3    H2 1657   1.824   1.340   0.448 -1.0783  0.2445  2.3571
  565TIP3   OH2 1658   5.655   1.428   0.173  0.1044  0.0805 -0.0862
  565TIP3    H1 1659   5.722   1.443   0.106 -1.5107  2.0118 -1.3736
  565TIP3    H2 1660   5.572   1.427   0.125 -0.8945 -1.7287  1.5266
  566TIP3   OH2 1661   3.690   4.150   5.495 -0.5846  0.4207  0.1561
  566TIP3    H1 1662   3.746   4.212   5.542  2.0600 -2.2200  0.8307
  566TIP3    H2 1663   3.742   4.125   5.418 -1.6671 -0.7570 -0.2278
  567TIP3   OH2 1664   4.214   2.167   4.306 -0.5895 -0.2183  0.5338
  567TIP3    H1 1665   4.233   2.257   4.332  2.7164 -0.1162 -1.6614
  567TIP3    H2 1666   4.165   2.175   4.224 -1.1198 -0.4645  0.8179
  568TIP3   OH2 1667   4.872   3.755   5.522  0.2856  0.2617  0.2878
  568TIP3    H1 1668   4.842   3.668   5.495  3.4812 -1.6213  2.1690
  568TIP3    H2 1669   4.847   3.761   5.614  2.9826 -0.2691  1.1560
  569TIP3   OH2 1670   7.023   4.487   3.363 -0.3124 -0.1377 -0.3347
  569TIP3    H1 1671   7.054   4.398   3.382 -0.9505 -0.6401 -1.5280
  569TIP3    H2 1672   6.995   4.483   3.272 -1.9024  0.8599  0.0759
  570TIP3   OH2 1673   3.973   6.250   5.663  0.5186  0.7218  0.1083
  570TIP3    H1 1674   3.912   6.323   5.666  0.9085  1.1082 -1.0221
  570TIP3    H2 1675   4.015   6.251   5.749 -2.1895 -0.5890  1.5937
  571TIP3   OH2 1676   6.496   1.827   4.861 -0.2519 -0.1692 -0.6249
  571TIP3    H1 1677   6.403   1.849   4.864 -0.9263 -2.7575  0.4687
  571TIP3    H2 1678   6.511   1.779   4.943  1.5218 -1.6831 -1.7726
  572TIP3   OH2 1679   2.013   4.923   2.974  0.4164 -0.1926  0.4330
  572TIP3    H1 1680   2.066   4.886   2.905 -2.1317 -0.8333 -1.3165
  572TIP3    H2 1681   2.061   4.904   3.055  2.1717 -1.8119 -0.9227
  573TIP3   OH2 1682   2.820   0.709   0.948  0.1898  0.1343  0.0258
  573TIP3    H1 1683   2.845   0.695   1.039  0.5701 -1.0760 -0.2507
  573TIP3    H2 1684   2.812   0.621   0.911 -1.7468  0.5423 -0.6387
  574TIP3   OH2 1685   1.707   3.478   5.422  0.3713  0.4400  0.5223
  574TIP3    H1 1686   1.644   3.406   5.432  2.5332 -1.6315  0.2112
  574TIP3    H2 1687   1.715   3.515   5.510 -0.0795 -0.3343  0.9003
  575TIP3   OH2 1688   3.959   6.680   3.796 -0.3115 -0.1283  0.3688
  575TIP3    H1 1689   4.050   6.693   3.767 -1.0485  2.2531 -1.1461
  575TIP3    H2 1690   3.928   6.606   3.744  0.4061 -0.1812  0.0068
  576TIP3   OH2 1691   6.936   4.460   1.692  0.0190 -0.2890 -0.1545
  576TIP3    H1 1692   6.902   4.507   1.616 -0.2002 -0.5262 -0.2054
  576TIP3    H2 1693   6.955   4.372   1.659  0.4897 -0.2184 -0.0765
  577TIP3   OH2 1694   2.971   1.195   3.573 -0.4134  0.6794 -0.5475
  577TIP3    H1 1695   2.943   1.104   3.586 -1.7229  0.9381 -1.4032
  577TIP3    H2 1696   3.023   1.215   3.651 -1.8009 -0.1631  0.6349
  578TIP3   OH2 1697   3.517   1.755   3.197  0.3026  0.0022 -0.1394
  578TIP3    H1 1698   3.480   1.709   3.272  0.6552 -1.0750 -0.6120
  578TIP3    H2 1699   3.564   1.688   3.147  0.8985  0.8829 -0.8094
  579TIP3   OH2 1700   6.929   5.077   1.866  0.0074 -0.0564 -0.0783
  579TIP3    H1 1701   6.850   5.078   1.920 -0.1227  1.7540 -0.2644
  579TIP3    H2 1702   6.903   5.033   1.785 -0.6508  0.0165  0.0930
  580TIP3   OH2 1703   1.923   0.540   3.531  0.0472  0.2030  0.4014
  580TIP3    H1 1704   1.863   0.536   3.605  1.0069  0.4165  1.2181
  580TIP3    H2 1705   2.009   0.554   3.571  0.5124  0.8788 -0.7854
  581TIP3   OH2 1706   2.372   3.840   2.545 -0.6138  0.3869  0.4700
  581TIP3    H1 1707   2.438   3.874   2.485 -0.7263 -0.6096 -0.2349
  581TIP3    H2 1708   2.330   3.768   2.497 -0.7735 -0.3644  1.6986
  582TIP3   OH2 1709   4.494   6.391   0.560 -0.3944  0.0564  0.6372
  582TIP3    H1 1710   4.586   6.419   0.562 -0.5081  0.8196 -1.7624
  582TIP3    H2 1711   4.447   6.460   0.607  0.1380  0.0887  1.1445
  583TIP3   OH2 1712   1.553   4.326   4.636 -0.6608  0.0451 -0.0176
  583TIP3    H1 1713   1.608   4.291   4.706  0.3032  0.1686 -0.6918
  583TIP3    H2 1714   1.562   4.421   4.644 -3.2879  0.2424  1.8223
  584TIP3   OH2 1715   5.367   0.073   3.333  0.1994 -0.0664 -0.0158
  584TIP3    H1 1716   5.347   0.008   3.266 -0.5904  0.5427 -0.3908
  584TIP3    H2 1717   5.401   0.148   3.285  0.6169 -0.0043  0.3657
  585TIP3   OH2 1718   1.056   4.607   5.634  0.8120  0.3519  0.0112
  585TIP3    H1 1719   1.060   4.563   5.549  0.0879 -0.7732  0.5333
  585TIP3    H2 1720   1.093   4.545   5.696  0.5698  0.8202  0.6431
  586TIP3   OH2 1721   7.095   6.174   4.757 -0.2506  0.0593 -0.2920
  586TIP3    H1 1722   7.022   6.147   4.813  0.0741  1.1160  0.6775
  586TIP3    H2 1723   7.145   6.236   4.811  0.0066  1.2146 -1.8091
  587TIP3   OH2 1724   0.963   3.978   2.202 -0.1885 -0.2088  0.4831
  587TIP3    H1 1725   0.942   3.892   2.239 -1.7219 -0.0013  0.1797
  587TIP3    H2 1726   0.981   3.961   2.110  0.4684 -0.3104  0.6221
  588TIP3   OH2 1727   0.621   3.192   4.494  0.0030  0.3988  0.9140
  588TIP3    H1 1728   0.529   3.215   4.512  0.1704  1.1342  0.8430
  588TIP3    H2 1729   0.667   3.275   4.496  0.6401  0.0522  0.7317
  589TIP3   OH2 1730   3.864   5.330   1.402  0.4934 -0.1768 -0.1515
  589TIP3    H1 1731   3.816   5.317   1.319 -2.4837  1.0280  1.2133
  589TIP3    H2 1732   3.954   5.304   1.382 -0.5987 -2.3276 -3.0672
  590TIP3   OH2 1733   0.063   6.273   3.549 -0.0405 -0.3254 -0.5689
  590TIP3    H1 1734   0.093   6.211   3.483 -0.4681  0.5061 -1.5719
  590TIP3    H2 1735   0.143   6.315   3.580  0.2780 -1.5300  0.3026
  591TIP3   OH2 1736   4.075   2.094   5.141  0.0733 -0.0420 -0.1514
  591TIP3    H1 1737   4.160   2.127   5.169  0.0968 -0.3454  0.1459
  591TIP3    H2 1738   4.054   2.024   5.204 -0.4794  0.1528 -0.1129
  592TIP3   OH2 1739   3.085   1.048   1.619 -0.0755 -0.9710 -0.2450
  592TIP3    H1 1740   3.142   1.116   1.582 -0.8076 -0.5809 -0.6684
  592TIP3    H2 1741   3.143   0.998   1.678  0.3345  0.3989  0.5601
  593TIP3   OH2 1742   4.153   2.181   4.008 -0.1524 -0.4229 -0.2377
  593TIP3    H1 1743   4.223   2.190   3.943  0.1539 -0.6827  0.0493
  593TIP3    H2 1744   4.140   2.087   4.016  0.7557 -0.4669  1.0497
  594TIP3   OH2 1745   0.374   5.412   4.357 -0.1353  0.1653  0.0688
  594TIP3    H1 1746   0.388   5.492   4.305 -0.8033  0.5583  0.4695
  594TIP3    H2 1747   0.279   5.398   4.353 -0.5008  1.2803  2.7023
  595TIP3   OH2 1748   3.575   3.462   0.256  0.6916  0.4859 -0.2539
  595TIP3    H1 1749   3.481   3.452   0.242  0.8291  0.4179 -1.1752
  595TIP3    H2 1750   3.583   3.543   0.307  0.2001  1.1882 -1.2491
  596TIP3   OH2 1751   6.319   5.422   5.847 -0.6579 -0.5824  0.2951
  596TIP3    H1 1752   6.361   5.358   5.905 -1.9669 -0.4865  1.3973
  596TIP3    H2 1753   6.381   5.495   5.843 -0.6450 -0.4728  1.8349
  597TIP3   OH2 1754   0.541   5.936   3.408  0.3734  0.3841 -0.2453
  597TIP3    H1 1755   0.448   5.922   3.391  0.2402  0.7936  0.1441
  597TIP3    H2 1756   0.555   6.029   3.389  0.1334  0.9836  2.2298
  598TIP3   OH2 1757   5.542   1.975   3.519  0.0178 -0.1715  0.1423
  598TIP3    H1 1758   5.589   1.999   3.439 -0.8494  0.9803 -0.0587
  598TIP3    H2 1759   5.592   2.018   3.589 -1.1705  1.8559 -0.1586
  599TIP3   OH2 1760   5.881   5.128   5.467  0.5633  0.3914  0.2097
  599TIP3    H1 1761   5.802   5.130   5.413 -0.4967  1.1149  1.7109
  599TIP3    H2 1762   5.850   5.145   5.556  2.6043  2.7002  0.6056
  600TIP3   OH2 1763   6.022   4.650   3.475  0.0676 -0.8931  0.0785
  600TIP3    H1 1764   6.085   4.580   3.458 -0.6022 -1.1141 -1.6300
  600TIP3    H2 1765   5.937   4.610   3.459 -0.4068 -0.0770  0.4917
  601TIP3   OH2 1766   1.395   0.758   3.230  0.4737 -0.2211 -0.2765
  601TIP3    H1 1767   1.465   0.822   3.215 -0.7844  1.3596  0.4045
  601TIP3    H2 1768   1.374   0.767   3.323  0.1735 -1.5669 -0.1891
  602TIP3   OH2 1769   1.123   2.465   1.503  0.3459 -0.0104  0.4470
  602TIP3    H1 1770   1.070   2.423   1.571  0.5500 -1.3555 -0.1880
  602TIP3    H2 1771   1.067   2.533   1.467 -0.6511 -0.8694  0.3454
  603TIP3   OH2 1772   1.845   4.249   2.891 -0.3612  0.4155 -0.0454
  603TIP3    H1 1773   1.782   4.216   2.826 -0.1569 -2.2430  0.9975
  603TIP3    H2 1774   1.924   4.198   2.877  0.0911  0.6318  1.4949
  604TIP3   OH2 1775   3.688   0.148   0.460 -0.4800  0.1533 -0.1458
  604TIP3    H1 1776   3.612   0.194   0.496 -0.9001  0.7122 -1.6626
  604TIP3    H2 1777   3.692   0.066   0.509 -1.3084  0.6609  0.8063
  605TIP3   OH2 1778   7.034   3.144   0.091 -0.0038 -0.4106 -0.2345
  605TIP3    H1 1779   6.945   3.111   0.105 -0.3323  0.3034 -0.5507
  605TIP3    H2 1780   7.065   3.097   0.014 -0.3269 -0.2525 -0.4651
  606TIP3   OH2 1781   5.194   0.657   2.392 -0.1457 -0.7439  0.5497
  606TIP3    H1 1782   5.258   0.724   2.370  1.8230 -2.8888 -0.7223
  606TIP3    H2 1783   5.176   0.669   2.485  0.2571  1.3875  0.3870
  607TIP3   OH2 1784   4.800   1.064   3.409  0.0037 -0.2231 -0.0049
  607TIP3    H1 1785   4.756   1.051   3.325  1.3037  1.7114 -1.0520
  607TIP3    H2 1786   4.851   0.985   3.422 -1.6969 -1.3771 -0.0447
  608TIP3   OH2 1787   6.679   2.309   1.445  0.6916  0.0292  0.1038
  608TIP3    H1 1788   6.683   2.327   1.351  0.7353  0.3116  0.1605
  608TIP3    H2 1789   6.637   2.386   1.483  0.2781 -0.2718  0.2648
  609TIP3   OH2 1790   6.444   3.304   4.757 -0.2588 -0.4601 -0.0638
  609TIP3    H1 1791   6.503   3.296   4.832 -3.0379 -1.1537  2.2160
  609TIP3    H2 1792   6.408   3.393   4.764 -1.2779 -0.8699  0.0186
  610TIP3   OH2 1793   1.507   1.288   5.166  0.3170  0.3379 -0.5035
  610TIP3    H1 1794   1.535   1.206   5.208 -0.4938  0.1876 -0.2488
  610TIP3    H2 1795   1.589   1.335   5.149  0.8013 -0.5727 -0.7596
  611TIP3   OH2 1796   5.350   3.086   1.346 -0.0110  0.1929 -0.4285
  611TIP3    H1 1797   5.398   3.161   1.309 -0.2053  0.1886 -0.6984
  611TIP3    H2 1798   5.314   3.119   1.428  1.8028 -0.2881  0.6024
  612TIP3   OH2 1799   4.251   5.790   2.369 -0.1335 -0.0160 -0.4447
  612TIP3    H1 1800   4.266   5.738   2.289  0.2146 -1.5176  0.5554
  612TIP3    H2 1801   4.157   5.783   2.385  0.1066 -1.7652  0.5517
  613TIP3   OH2 1802   6.439   4.597   0.700 -0.0744  0.2878  0.3223
  613TIP3    H1 1803   6.453   4.626   0.610 -1.1526 -0.5375 -0.1377
  613TIP3    H2 1804   6.372   4.529   0.692  0.3103 -0.2632  1.6750
  614TIP3   OH2 1805   0.517   0.964   5.856  0.0915 -0.2619 -0.9654
  614TIP3    H1 1806   0.432   0.926   5.879  0.5339 -0.0594  1.2111
  614TIP3    H2 1807   0.580   0.895   5.876  0.7772  0.9962  1.7239
  615TIP3   OH2 1808   3.462   5.839   0.377  0.2742 -0.1330 -0.2270
  615TIP3    H1 1809   3.402   5.883   0.318 -0.3810 -0.4139  0.2214
  615TIP3    H2 1810   3.447   5.746   0.362  0.1369 -0.2049  0.3421
  616TIP3   OH2 1811   3.584   5.649   3.053 -0.1376  0.1869 -0.2001
  616TIP3    H1 1812   3.580   5.729   3.000  0.1700  0.2977 -0.0607
  616TIP3    H2 1813   3.598   5.680   3.142 -1.0219  0.0137  0.0005
  617TIP3   OH2 1814   0.555   4.292   0.700  0.2087 -0.5683 -0.2243
  617TIP3    H1 1815   0.523   4.205   0.677 -0.7025  0.0427 -1.3381
  617TIP3    H2 1816   0.614   4.316   0.628 -0.4419  0.2018 -0.5099
  618TIP3   OH2 1817   0.673   0.468   2.169 -0.0163 -0.6446 -0.2021
  618TIP3    H1 1818   0.591   0.429   2.138  0.3497 -1.3316 -0.3505
  618TIP3    H2 1819   0.719   0.395   2.212  0.5727 -0.3025 -0.2403
  619TIP3   OH2 1820   6.889   2.924   4.279  0.7130  0.8577 -0.2678
  619TIP3    H1 1821   6.870   2.990   4.346  1.0741 -0.0124  0.7278
  619TIP3    H2 1822   6.885   2.841   4.326 -3.2119 -0.2518 -2.0867
  620TIP3   OH2 1823   0.251   5.813   2.922  0.1678  0.0970  0.1202
  620TIP3    H1 1824   0.326   5.870   2.941 -0.1446  0.6499 -0.2605
  620TIP3    H2 1825   0.176   5.871   2.926 -0.3834 -0.6755  1.6185
  621TIP3   OH2 1826   1.084   1.534   2.652 -0.0030  0.5240  0.2821
  621TIP3    H1 1827   1.107   1.483   2.574  0.7160  1.3131 -0.0313
  621TIP3    H2 1828   1.099   1.625   2.626  0.6635  0.7653  1.4772
  622TIP3   OH2 1829   5.766   1.082   0.222 -0.6901  0.0567 -0.2960
  622TIP3    H1 1830   5.683   1.103   0.180 -0.8124  0.0514 -0.0538
  622TIP3    H2 1831   5.816   1.037   0.153 -1.0126 -0.2361 -0.3407
  623TIP3   OH2 1832   3.824   0.548   3.375  0.2657 -0.4414  0.5612
  623TIP3    H1 1833   3.890   0.617   3.388 -0.4069  0.7986 -1.9701
  623TIP3    H2 1834   3.830   0.527   3.282 -2.2698 -0.9406  0.4440
  624TIP3   OH2 1835   4.434   3.137   2.088 -0.1474  0.0553  0.4923
  624TIP3    H1 1836   4.343   3.128   2.117 -1.1829  0.5639 -2.3032
  624TIP3    H2 1837   4.461   3.222   2.121 -0.6411 -0.1182  1.3877
  625TIP3   OH2 1838   0.505   4.331   3.026  0.0853 -0.4382  0.1102
  625TIP3    H1 1839   0.497   4.236   3.017  0.5809 -0.5261  0.5290
  625TIP3    H2 1840   0.415   4.364   3.017 -0.3308 -1.0934  1.5938
  626TIP3   OH2 1841   7.071   2.479   1.508  0.2624 -0.4499 -0.2119
  626TIP3    H1 1842   6.999   2.536   1.534  1.1687 -0.0269  1.4857
  626TIP3    H2 1843   7.143   2.539   1.486 -0.0921 -0.8268 -2.7533
  627TIP3   OH2 1844   4.650   1.520   5.299  0.6252 -0.3145  0.4460
  627TIP3    H1 1845   4.687   1.433   5.310  1.0808 -0.2066 -0.1722
  627TIP3    H2 1846   4.582   1.527   5.367  1.0181 -0.9092  0.9037
  628TIP3   OH2 1847   2.928   6.351   5.330  0.0630 -0.3462  0.8094
  628TIP3    H1 1848   2.935   6.447   5.327  0.1987 -0.3780 -1.6247
  628TIP3    H2 1849   3.017   6.321   5.347  0.4502 -0.0575 -0.5825
  629TIP3   OH2 1850   3.726   6.277   3.296 -0.0080 -0.0826  0.1868
  629TIP3    H1 1851   3.740   6.357   3.246  0.4940  0.3213  0.9564
  629TIP3    H2 1852   3.814   6.242   3.311 -0.2455 -1.0206 -0.5184
  630TIP3   OH2 1853   3.536   2.243   4.111 -0.2872 -0.4993 -0.3769
  630TIP3    H1 1854   3.587   2.311   4.067 -0.7067 -0.1709 -0.3631
  630TIP3    H2 1855   3.460   2.229   4.054 -0.3925 -0.6880 -0.1924
  631TIP3   OH2 1856   6.208   3.237   0.801  0.5628 -0.6649  0.1795
  631TIP3    H1 1857   6.213   3.263   0.709 -0.0051  1.1100  0.6233
  631TIP3    H2 1858   6.123   3.268   0.830  0.7462 -1.2029  1.3159
  632TIP3   OH2 1859   1.274   3.464   4.496 -0.3387 -0.7389 -0.1896
  632TIP3    H1 1860   1.353   3.411   4.485 -1.5311 -2.4255 -1.0000
  632TIP3    H2 1861   1.214   3.407   4.545 -0.9561  0.6370  0.7109
  633TIP3   OH2 1862   0.804   6.583   1.765 -0.0786 -0.1259 -0.2861
  633TIP3    H1 1863   0.775   6.559   1.677 -1.6297  0.5558 -0.0045
  633TIP3    H2 1864   0.742   6.650   1.793  2.2374  1.9439  0.1551
  634TIP3   OH2 1865   3.497   4.119   0.386 -0.1310  0.2481  0.5126
  634TIP3    H1 1866   3.462   4.168   0.311  0.0705 -1.1013 -0.5155
  634TIP3    H2 1867   3.422   4.070   0.419  0.4545 -1.9406 -1.1238
  635TIP3   OH2 1868   2.487   4.803   5.862  0.2763  0.3052 -0.2877
  635TIP3    H1 1869   2.496   4.763   5.775 -0.6401  0.8373 -0.6423
  635TIP3    H2 1870   2.394   4.827   5.868  0.5131  1.0869  0.4839
  636TIP3   OH2 1871   6.638   0.049   4.492 -0.2721 -0.7168  0.3277
  636TIP3    H1 1872   6.705   0.023   4.556 -1.5589  1.0387  2.5765
  636TIP3    H2 1873   6.683   0.110   4.434 -0.0808  1.5955  2.6891
  637TIP3   OH2 1874   5.783   2.730   0.444 -0.6565  0.0369 -0.3088
  637TIP3    H1 1875   5.813   2.655   0.392 -0.8545  0.5144 -1.1419
  637TIP3    H2 1876   5.848   2.739   0.513 -1.2363 -1.5920  0.4910
  638TIP3   OH2 1877   4.385   1.467   2.361  0.3784  0.0902 -0.2217
  638TIP3    H1 1878   4.410   1.532   2.296 -0.5615  0.3857 -0.3138
  638TIP3    H2 1879   4.335   1.516   2.426  0.7174 -0.3246  0.3564
  639TIP3   OH2 1880   0.705   2.632   2.629  0.5228 -0.0308 -0.1062
  639TIP3    H1 1881   0.732   2.712   2.673 -1.3899  1.7489 -1.9454
  639TIP3    H2 1882   0.651   2.585   2.692  0.6789  0.7313  0.5991
  640TIP3   OH2 1883   4.618   0.577   1.886 -0.3742  0.8137  0.2257
  640TIP3    H1 1884   4.573   0.621   1.958  0.4886  1.4575  0.3917
  640TIP3    H2 1885   4.581   0.489   1.884 -0.2747  0.7360  1.5755
  641TIP3   OH2 1886   1.366   2.168   4.712 -0.3901  0.3371  0.9407
  641TIP3    H1 1887   1.320   2.103   4.659 -0.8393 -0.0273  1.7725
  641TIP3    H2 1888   1.457   2.163   4.681 -0.6063  0.0080  0.3305
  642TIP3   OH2 1889   6.121   1.713   1.896  0.9166  0.2173  0.1554
  642TIP3    H1 1890   6.074   1.759   1.965 -0.3704 -0.3707 -0.3157
  642TIP3    H2 1891   6.143   1.782   1.833  1.3420  0.6115  0.7216
  643TIP3   OH2 1892   1.292   6.158   2.570 -0.3545  0.2731 -0.3300
  643TIP3    H1 1893   1.332   6.166   2.484 -0.0815 -2.6794 -0.5840
  643TIP3    H2 1894   1.363   6.128   2.627 -1.1097 -0.2898  0.3420
  644TIP3   OH2 1895   5.794   2.518   0.038  0.3951 -0.3655  0.5611
  644TIP3    H1 1896   5.885   2.491   0.047  0.3311 -0.5337  0.7074
  644TIP3    H2 1897   5.760   2.517   0.128 -0.6009 -3.2632  0.2379
  645TIP3   OH2 1898   6.275   5.460   1.194 -0.3121  0.0598  0.0075
  645TIP3    H1 1899   6.315   5.373   1.199 -1.0284 -0.2280  1.1079
  645TIP3    H2 1900   6.246   5.468   1.103  1.2568 -0.1454 -0.5502
  646TIP3   OH2 1901   2.241   4.949   1.514 -0.3023  0.0045 -0.4592
  646TIP3    H1 1902   2.149   4.943   1.489  0.0038  0.7646 -1.8712
  646TIP3    H2 1903   2.261   5.042   1.513  0.2721 -0.0828  0.7372
  647TIP3   OH2 1904   5.352   1.766   0.689  0.5253 -0.6918  0.4106
  647TIP3    H1 1905   5.361   1.747   0.782  1.4295 -2.4346 -0.0054
  647TIP3    H2 1906   5.410   1.704   0.645  1.2584  1.0765 -1.2502
  648TIP3   OH2 1907   6.810   1.194   0.077 -0.0997  0.4115  0.2017
  648TIP3    H1 1908   6.838   1.116   0.125 -0.6707  0.3649  0.4612
  648TIP3    H2 1909   6.777   1.162  -0.006 -0.6471  0.3482  0.4444
  649TIP3   OH2 1910   3.789   5.633   3.767  0.0962 -0.5699 -0.1610
  649TIP3    H1 1911   3.881   5.648   3.788 -0.1217  0.1769  0.2971
  649TIP3    H2 1912   3.763   5.712   3.719 -0.4973 -0.4532  0.3497
  650TIP3   OH2 1913   0.928   0.291   2.638 -0.2159 -0.1940 -0.0661
  650TIP3    H1 1914   0.925   0.196   2.650  1.9067 -0.2411  0.5826
  650TIP3    H2 1915   0.936   0.303   2.544  0.2268 -0.7155 -0.1038
  651TIP3   OH2 1916   0.321   5.596   3.187 -1.1803 -0.0456  0.2658
  651TIP3    H1 1917   0.281   5.583   3.274 -1.4236 -0.2056  0.1323
  651TIP3    H2 1918   0.298   5.517   3.139 -0.4772 -0.2532  0.2666
  652TIP3   OH2 1919   0.848   0.883   2.472  0.8991 -0.3706  0.1779
  652TIP3    H1 1920   0.817   0.793   2.479 -0.3135 -0.1240 -1.4602
  652TIP3    H2 1921   0.883   0.889   2.383  1.2184  0.7129  0.3629
  653TIP3   OH2 1922   0.491   2.755   4.128 -0.8139  0.0178 -0.1045
  653TIP3    H1 1923   0.484   2.838   4.176 -2.0868 -0.7568  1.1404
  653TIP3    H2 1924   0.417   2.757   4.067 -0.9780 -0.2694  0.0793
  654TIP3   OH2 1925   0.805   0.609   1.968  0.1182 -0.4602  0.4746
  654TIP3    H1 1926   0.770   0.545   2.029  1.5276  0.4366  2.3039
  654TIP3    H2 1927   0.765   0.692   1.994 -1.1643 -0.3987 -1.4378
  655TIP3   OH2 1928   4.398   0.625   5.195 -0.0162  0.3031  0.1774
  655TIP3    H1 1929   4.353   0.669   5.266 -0.5008  2.0281 -1.1225
  655TIP3    H2 1930   4.390   0.685   5.121  0.0959 -1.5880 -1.4566
  656TIP3   OH2 1931   5.725   2.049   3.706  0.8642 -0.0930 -0.4639
  656TIP3    H1 1932   5.719   2.139   3.736 -0.5782 -0.2235 -0.2510
  656TIP3    H2 1933   5.760   2.000   3.780 -2.2072 -0.3329  0.9783
  657TIP3   OH2 1934   6.700   6.363   1.988  0.2342  0.7200  0.0697
  657TIP3    H1 1935   6.610   6.330   1.983 -0.0950  1.7604 -2.0395
  657TIP3    H2 1936   6.695   6.438   2.047 -0.0393  0.0848  0.8614
  658TIP3   OH2 1937   5.651   1.744   2.929  0.3115  0.3347  0.2214
  658TIP3    H1 1938   5.742   1.750   2.957  0.5646 -1.7120 -0.0021
  658TIP3    H2 1939   5.622   1.835   2.920  2.8325  1.0774 -1.4012
  659TIP3   OH2 1940   1.572   0.028   1.633  0.2655  0.7674  0.2819
  659TIP3    H1 1941   1.642   0.051   1.695  0.3877 -0.1199  0.4927
  659TIP3    H2 1942   1.612   0.038   1.547  0.3567  1.2062  0.3767
  660TIP3   OH2 1943   0.135   0.597   4.648 -0.4513  0.1262 -0.0442
  660TIP3    H1 1944   0.197   0.525   4.654 -0.0684  0.4492 -0.0711
  660TIP3    H2 1945   0.053   0.556   4.620 -0.2361 -0.2956 -0.0614
  661TIP3   OH2 1946   3.202   3.913   3.910  0.8171 -0.7006  0.0216
  661TIP3    H1 1947   3.196   3.825   3.873  1.0468 -0.5138 -0.4679
  661TIP3    H2 1948   3.137   3.914   3.980 -2.0430 -0.0438 -2.4052
  662TIP3   OH2 1949   0.460   1.997   2.620 -0.2689  0.4014 -0.0705
  662TIP3    H1 1950   0.539   1.967   2.575  0.4278  1.0502  0.6906
  662TIP3    H2 1951   0.451   1.937   2.694  0.0907  0.9594  0.4229
  663TIP3   OH2 1952   4.742   0.460   2.846  1.3304 -0.2992 -0.3476
  663TIP3    H1 1953   4.685   0.389   2.874  0.4192  0.4286 -0.2927
  663TIP3    H2 1954   4.793   0.482   2.925  0.6026  0.0317  0.0496
  664TIP3   OH2 1955   0.380   0.646   2.719 -0.0135 -0.3855 -0.5582
  664TIP3    H1 1956   0.472   0.648   2.745 -0.1951  2.4963  0.2049
  664TIP3    H2 1957   0.337   0.598   2.790  0.5685  0.7129  0.6039
  665TIP3   OH2 1958   5.478   4.967   3.270 -0.3872  0.2070  0.0477
  665TIP3    H1 1959   5.383   4.952   3.270 -0.3084 -0.3907  1.2802
  665TIP3    H2 1960   5.505   4.950   3.179 -1.3054 -0.6666 -0.0822
  666TIP3   OH2 1961   0.561   4.119   5.406 -0.3483 -0.1574 -0.0036
  666TIP3    H1 1962   0.611   4.038   5.406  0.2230  0.1484 -2.2788
  666TIP3    H2 1963   0.475   4.095   5.371 -0.2561  0.1583 -0.4586
  667TIP3   OH2 1964   4.096   0.064   4.368 -0.3209 -0.6109 -0.2836
  667TIP3    H1 1965   4.158   0.096   4.433 -0.6638 -1.5211  0.5170
  667TIP3    H2 1966   4.012   0.062   4.415 -0.6073 -1.1095 -0.8113
  668TIP3   OH2 1967   6.302   4.776   3.398 -0.5310 -0.3275  0.2487
  668TIP3    H1 1968   6.214   4.742   3.413 -1.0191  0.8598  0.2032
  668TIP3    H2 1969   6.289   4.869   3.379  0.8011  0.0427  0.9951
  669TIP3   OH2 1970   5.451   4.511   0.542  0.1616 -0.3022 -0.1636
  669TIP3    H1 1971   5.521   4.475   0.598 -0.0243  2.0881  1.7872
  669TIP3    H2 1972   5.379   4.448   0.550  0.6675 -0.7537  1.1208
  670TIP3   OH2 1973   2.204   1.635   2.226 -0.3136  0.2878 -0.5540
  670TIP3    H1 1974   2.153   1.710   2.255 -0.9416  0.2962 -1.6375
  670TIP3    H2 1975   2.276   1.673   2.175  1.4486  0.3495  1.7961
  671TIP3   OH2 1976   3.344   4.617   1.975 -0.0108 -0.5940 -0.5265
  671TIP3    H1 1977   3.289   4.683   2.016  1.0322  1.0229 -1.5800
  671TIP3    H2 1978   3.398   4.583   2.046 -1.5052 -1.3465  0.2854
  672TIP3   OH2 1979   2.304   3.090   3.778  0.2530 -0.3985 -0.7603
  672TIP3    H1 1980   2.254   3.014   3.747 -0.2556 -0.0630 -0.7665
  672TIP3    H2 1981   2.249   3.165   3.759  0.1082 -0.1426  0.5478
  673TIP3   OH2 1982   0.872   4.045   3.026 -0.4883  0.1381  0.5443
  673TIP3    H1 1983   0.852   4.080   3.113 -0.3980 -0.4855  0.8186
  673TIP3    H2 1984   0.851   4.117   2.966  0.9125  1.1100  1.1842
  674TIP3   OH2 1985   2.339   0.052   0.635 -0.5731  0.2888  0.5244
  674TIP3    H1 1986   2.312   0.099   0.714 -1.3702  1.6694 -0.5142
  674TIP3    H2 1987   2.314  -0.039   0.652  0.9900  0.1821  2.5829
  675TIP3   OH2 1988   5.488   1.460   3.442  0.0464  0.1159 -0.0818
  675TIP3    H1 1989   5.575   1.471   3.404  0.1473 -2.5539 -0.8040
  675TIP3    H2 1990   5.446   1.394   3.388 -1.5254 -0.4732  1.7316
  676TIP3   OH2 1991   1.218   2.746   1.724 -0.3792 -0.0408  0.4809
  676TIP3    H1 1992   1.189   2.788   1.805  1.6843  0.4104  1.0405
  676TIP3    H2 1993   1.296   2.795   1.698  0.6900 -1.9920 -0.2028
  677TIP3   OH2 1994   4.167   6.581   4.162 -0.6570  0.0038  0.1579
  677TIP3    H1 1995   4.077   6.551   4.145 -0.0972 -0.6741 -1.9048
  677TIP3    H2 1996   4.178   6.657   4.106  0.3390 -0.4839 -0.3404
  678TIP3   OH2 1997   1.545   5.852   3.109  0.3122 -0.1449 -0.2541
  678TIP3    H1 1998   1.597   5.859   3.189  0.5239  0.4989 -0.4456
  678TIP3    H2 1999   1.595   5.791   3.054  0.3506 -0.3056 -0.0423
  679TIP3   OH2 2000   5.637   5.192   5.337 -0.1520 -0.3376 -0.2290
  679TIP3    H1 2001   5.693   5.259   5.298  1.2821 -2.0184 -1.2310
  679TIP3    H2 2002   5.556   5.238   5.359  0.4935  1.5562 -1.5295
  680TIP3   OH2 2003   2.530   5.017   5.351  0.0571  0.7378  0.3332
  680TIP3    H1 2004   2.448   5.035   5.306  0.3446  0.4383 -0.3267
  680TIP3    H2 2005   2.574   4.952   5.296 -0.3443 -0.9671  1.9112
  681TIP3   OH2 2006   6.297   0.422   3.310  0.0830 -0.0184 -0.1929
  681TIP3    H1 2007   6.308   0.336   3.352 -0.5924  0.7739  1.6906
  681TIP3    H2 2008   6.387   0.450   3.292  0.3592 -0.7345  0.0083
  682TIP3   OH2 2009   0.870   3.394   3.147  0.2659 -0.5234 -0.4045
  682TIP3    H1 2010   0.775   3.396   3.130  0.3742 -3.0329 -1.7323
  682TIP3    H2 2011   0.909   3.435   3.070  0.3034  0.3979  0.0871
  683TIP3   OH2 2012   2.773   5.850   0.375  0.7577 -0.1274 -0.4781
  683TIP3    H1 2013   2.716   5.776   0.355  1.4965 -0.6087 -0.8511
  683TIP3    H2 2014   2.816   5.872   0.292  1.1394  0.2040 -0.2021
  684TIP3   OH2 2015   3.112   4.992   1.189 -0.2484 -0.3547 -0.6479
  684TIP3    H1 2016   3.060   4.933   1.243 -1.7645 -0.7263 -2.4086
  684TIP3    H2 2017   3.048   5.054   1.154  0.6074 -0.3243 -2.2374
  685TIP3   OH2 2018   1.986   0.372   5.867  0.0500 -0.1225 -0.2187
  685TIP3    H1 2019   1.935   0.427   5.808  0.1493  0.4876  0.2564
  685TIP3    H2 2020   1.944   0.286   5.862 -1.0124  0.3560  0.1446
  686TIP3   OH2 2021   2.506   3.086   3.171 -0.5799  0.5368  0.2326
  686TIP3    H1 2022   2.458   3.020   3.220 -1.9396  1.9819  0.9496
  686TIP3    H2 2023   2.496   3.060   3.079  0.1271 -0.9848  0.5549
  687TIP3   OH2 2024   4.295   1.440   5.270  0.4904  0.3115  0.4459
  687TIP3    H1 2025   4.329   1.367   5.323 -2.2219 -1.3107  0.1293
  687TIP3    H2 2026   4.276   1.401   5.185  0.0973  1.6937 -0.1224
  688TIP3   OH2 2027   6.272   0.351   2.420  0.1274  0.7691  0.4898
  688TIP3    H1 2028   6.243   0.261   2.406 -0.3941  0.9679  0.2436
  688TIP3    H2 2029   6.358   0.355   2.379 -1.0787  1.1698 -2.2691
  689TIP3   OH2 2030   1.030   6.220   2.101  0.4035 -0.0662  0.1876
  689TIP3    H1 2031   1.001   6.267   2.023 -0.3146 -0.0990  0.4308
  689TIP3    H2 2032   1.109   6.174   2.073  1.6040  1.9246  0.1506
  690TIP3   OH2 2033   3.904   0.755   0.155  0.0726 -1.0619  0.1135
  690TIP3    H1 2034   3.948   0.718   0.078  0.3327  0.1835 -0.3631
  690TIP3    H2 2035   3.976   0.776   0.215  0.1283  0.6486 -0.5180
  691TIP3   OH2 2036   1.320   3.386   1.270  0.4258 -0.1914 -0.1865
  691TIP3    H1 2037   1.307   3.346   1.356  0.1906  1.3307  0.5170
  691TIP3    H2 2038   1.275   3.327   1.210  1.3544 -1.7582  0.5906
  692TIP3   OH2 2039   1.883   5.261   1.273 -0.3329  0.1110 -0.4388
  692TIP3    H1 2040   1.919   5.342   1.308  0.9692  0.4016 -2.3131
  692TIP3    H2 2041   1.808   5.290   1.219 -1.1749 -0.1575  0.5560
  693TIP3   OH2 2042   6.860   5.953   4.568  0.7067 -0.0047  0.0074
  693TIP3    H1 2043   6.834   5.976   4.657 -0.7563  0.0623 -0.4175
  693TIP3    H2 2044   6.788   5.983   4.513  0.7970 -1.5375 -1.0215
  694TIP3   OH2 2045   4.981   4.846   1.255  0.3084  0.0332 -0.2333
  694TIP3    H1 2046   5.057   4.793   1.233 -1.3995 -2.0642 -1.4267
  694TIP3    H2 2047   4.947   4.808   1.336  0.0578  0.4746 -0.1247
  695TIP3   OH2 2048   5.133   5.925   4.820 -0.3552 -0.5340 -0.0720
  695TIP3    H1 2049   5.071   5.853   4.838  0.5244 -0.9382  1.6215
  695TIP3    H2 2050   5.190   5.891   4.751 -1.7123 -0.3168 -1.3531
  696TIP3   OH2 2051   6.084   3.742   5.633 -0.1735  0.0376  0.0897
  696TIP3    H1 2052   6.126   3.736   5.718 -0.9401  1.8842  0.6724
  696TIP3    H2 2053   6.004   3.689   5.641  0.1983 -0.5084  0.2084
  697TIP3   OH2 2054   5.169   4.701   3.758  0.0432  0.3420 -0.4789
  697TIP3    H1 2055   5.238   4.767   3.751 -1.0119  1.6127  0.6723
  697TIP3    H2 2056   5.136   4.691   3.669  0.1543  1.4572 -0.6578
  698TIP3   OH2 2057   2.495   5.661   4.237  0.6426  0.0431  0.0801
  698TIP3    H1 2058   2.480   5.680   4.329 -1.1430  0.2757 -0.2200
  698TIP3    H2 2059   2.407   5.660   4.198  1.0968 -2.5417 -1.1310
  699TIP3   OH2 2060   0.022   5.709   5.171 -0.5190 -0.1809 -0.6849
  699TIP3    H1 2061  -0.047   5.761   5.131  0.0045 -0.2613 -1.7165
  699TIP3    H2 2062   0.054   5.764   5.243 -0.7768  0.4150 -1.0207
  700TIP3   OH2 2063   4.310   3.173   1.229  0.6990  0.0763 -0.5244
  700TIP3    H1 2064   4.282   3.253   1.184 -0.3400 -0.1757 -0.3733
  700TIP3    H2 2065   4.328   3.201   1.319  1.9560  0.4268 -0.8647
  701TIP3   OH2 2066   3.593   4.777   4.917  0.5016 -0.2337  0.3208
  701TIP3    H1 2067   3.614   4.851   4.974 -0.8049 -0.3889  1.0306
  701TIP3    H2 2068   3.557   4.817   4.838  1.1013 -0.0757  0.1173
  702TIP3   OH2 2069   4.873   2.476   1.635 -0.4456  0.0922  0.1648
  702TIP3    H1 2070   4.947   2.467   1.575 -0.9193  0.5731 -0.5156
  702TIP3    H2 2071   4.831   2.390   1.635 -2.0029  0.7307 -2.3311
  703TIP3   OH2 2072   3.052   4.351   5.031 -0.2395  0.6326  0.0201
  703TIP3    H1 2073   3.112   4.330   5.103  1.2275  2.6724 -0.5251
  703TIP3    H2 2074   2.967   4.320   5.062  0.6484 -0.2140  1.8372
  704TIP3   OH2 2075   2.639   4.420   4.686 -0.6369  0.5103  0.3482
  704TIP3    H1 2076   2.598   4.343   4.648 -0.0783  0.7971 -0.9137
  704TIP3    H2 2077   2.726   4.423   4.646  0.5900  0.0266  2.7900
  705TIP3   OH2 2078   1.168   5.570   3.513  0.0947 -0.1011  0.1101
  705TIP3    H1 2079   1.230   5.532   3.575  0.9840 -2.1885 -1.9045
  705TIP3    H2 2080   1.216   5.571   3.430 -1.9843 -0.1300 -1.1512
  706TIP3   OH2 2081   6.910   6.281   1.828 -0.1005 -0.3318  0.6011
  706TIP3    H1 2082   6.869   6.213   1.776  0.3786  0.3870 -0.7829
  706TIP3    H2 2083   6.838   6.323   1.875 -0.5676 -0.8640  0.3697
  707TIP3   OH2 2084   6.419   0.646   2.216 -0.3802 -0.0822 -0.2553
  707TIP3    H1 2085   6.481   0.680   2.280  0.8158  1.0105 -1.8997
  707TIP3    H2 2086   6.422   0.551   2.228  0.2563  0.0685  0.8854
  708TIP3   OH2 2087   7.088   5.156   2.471  0.0490 -0.3834 -0.3134
  708TIP3    H1 2088   7.152   5.132   2.539  0.2878 -0.7274 -0.6571
  708TIP3    H2 2089   7.065   5.073   2.429 -1.0149 -0.3401  0.1416
  709TIP3   OH2 2090   5.075   4.357   3.602  0.1883  0.2056  0.0746
  709TIP3    H1 2091   5.131   4.409   3.545  0.2798  0.6031  0.5127
  709TIP3    H2 2092   5.093   4.266   3.579 -0.4055  0.3657 -1.1181
  710TIP3   OH2 2093   3.027   4.913   4.594  0.0173 -0.5804 -0.4594
  710TIP3    H1 2094   3.082   4.898   4.670 -0.2088 -0.4746 -0.2705
  710TIP3    H2 2095   2.985   4.829   4.577  0.0544 -0.5993 -0.4541
  711TIP3   OH2 2096   2.161   6.565   0.786  0.0590 -0.1924  0.3336
  711TIP3    H1 2097   2.164   6.647   0.737 -1.2288 -1.2325 -1.6133
  711TIP3    H2 2098   2.069   6.542   0.789  0.3077 -1.1382  1.6503
  712TIP3   OH2 2099   7.220   1.125   5.228 -0.3730 -0.6817 -0.1482
  712TIP3    H1 2100   7.216   1.047   5.173  1.4444 -0.7493 -0.2446
  712TIP3    H2 2101   7.133   1.131   5.267 -1.0755 -1.7700 -1.4643
  713TIP3   OH2 2102   5.895   0.252   2.960 -0.9074  0.0854 -0.2579
  713TIP3    H1 2103   5.944   0.239   2.879 -1.3664  3.8499 -1.3571
  713TIP3    H2 2104   5.803   0.241   2.934 -0.9603 -1.9622  0.6173
  714TIP3   OH2 2105   6.986   1.890   2.480  0.0885 -0.2689  0.7364
  714TIP3    H1 2106   7.028   1.804   2.474 -0.4777 -0.5627  0.9550
  714TIP3    H2 2107   6.995   1.927   2.392 -0.3745 -0.8928  0.4206
  715TIP3   OH2 2108   2.692   4.269   4.305  0.1644 -0.2821 -0.2399
  715TIP3    H1 2109   2.671   4.227   4.389 -1.7503  0.6939 -0.1872
  715TIP3    H2 2110   2.686   4.363   4.323  0.1301 -0.0520 -1.3767
  716TIP3   OH2 2111   5.240   5.220   0.391  0.0442 -0.3229 -0.1065
  716TIP3    H1 2112   5.321   5.253   0.432 -1.6972  1.9924  1.7930
  716TIP3    H2 2113   5.264   5.135   0.356  2.8099 -0.6764  2.2192
  717TIP3   OH2 2114   5.748   4.747   2.742  0.3609  0.1660 -0.1159
  717TIP3    H1 2115   5.776   4.838   2.742  0.9308  0.0334  1.6654
  717TIP3    H2 2116   5.824   4.698   2.775  0.3954 -1.0942 -1.8931
  718TIP3   OH2 2117   6.750   6.405   2.492 -0.1441 -0.3269  0.3229
  718TIP3    H1 2118   6.691   6.480   2.502 -0.8516 -1.0007  1.3318
  718TIP3    H2 2119   6.694   6.328   2.494  0.4986 -0.8861 -1.5026
  719TIP3   OH2 2120   2.908   6.674   1.681 -0.6750 -0.4995  0.0053
  719TIP3    H1 2121   2.858   6.705   1.606  2.1440  0.4467 -1.6118
  719TIP3    H2 2122   2.935   6.585   1.657 -0.4776 -0.5155  0.2839
  720TIP3   OH2 2123   1.036   1.322   3.053  0.3508  0.2950  0.7397
  720TIP3    H1 2124   0.996   1.285   2.974  0.5833 -0.5427  1.0034
  720TIP3    H2 2125   0.963   1.358   3.103  0.2212  1.0067  0.0631
  721TIP3   OH2 2126   6.178   6.398   5.239 -0.3175 -0.2123  0.2789
  721TIP3    H1 2127   6.206   6.463   5.174  0.9676  0.0382  1.0492
  721TIP3    H2 2128   6.244   6.329   5.234 -0.0864 -0.0884  1.4504
  722TIP3   OH2 2129   2.281   1.199   5.416 -0.2300 -0.5209 -0.1792
  722TIP3    H1 2130   2.193   1.159   5.421 -1.1946  1.5379  0.1756
  722TIP3    H2 2131   2.292   1.220   5.323  0.0633 -1.0848 -0.2803
  723TIP3   OH2 2132   5.008   1.148   5.470 -0.2184 -0.3431  0.2100
  723TIP3    H1 2133   5.067   1.095   5.418 -0.1317  0.0821 -0.1308
  723TIP3    H2 2134   4.924   1.144   5.424  0.0569  0.6740 -0.4119
  724TIP3   OH2 2135   0.326   0.271   5.396  0.1430  0.4413  0.1830
  724TIP3    H1 2136   0.263   0.289   5.465  1.6016  0.1062  1.6580
  724TIP3    H2 2137   0.412   0.279   5.438  1.0937  0.3540 -1.6178
  725TIP3   OH2 2138   6.930   1.194   5.298  0.2666 -0.1086  0.5754
  725TIP3    H1 2139   6.906   1.224   5.386 -0.1478  0.0154  0.4240
  725TIP3    H2 2140   6.957   1.274   5.252  1.3826 -0.3034  0.8677
  726TIP3   OH2 2141   3.095   4.538   3.245  0.1698  0.1398  0.0269
  726TIP3    H1 2142   3.162   4.569   3.185 -0.6529 -0.9396 -1.5418
  726TIP3    H2 2143   3.032   4.492   3.189 -1.9184  1.1509  1.4071
  727TIP3   OH2 2144   1.333   6.078   5.842  0.0121 -0.7712  0.1452
  727TIP3    H1 2145   1.361   6.004   5.787  0.5223 -0.5687  0.1235
  727TIP3    H2 2146   1.299   6.143   5.780  1.5404 -0.1165 -0.0523
  728TIP3   OH2 2147   0.841   4.803   2.672  0.3108 -0.0391 -0.2573
  728TIP3    H1 2148   0.770   4.738   2.680  1.2134 -0.9192  1.0176
  728TIP3    H2 2149   0.799   4.887   2.692 -0.8964 -0.1765 -1.9871
  729TIP3   OH2 2150   6.709   2.418   2.364 -0.7838 -0.3204  0.0965
  729TIP3    H1 2151   6.735   2.416   2.456  1.6601  0.2704 -0.4853
  729TIP3    H2 2152   6.743   2.336   2.328 -1.9469 -0.6653 -0.2348
  730TIP3   OH2 2153   0.528   4.597   5.312  0.0496 -0.3129 -0.4221
  730TIP3    H1 2154   0.573   4.672   5.350  1.0980 -1.7556  1.3527
  730TIP3    H2 2155   0.554   4.597   5.220  0.1072  1.4112 -0.4331
  731TIP3   OH2 2156   0.349   2.324   4.454  0.8706  0.7856  0.1941
  731TIP3    H1 2157   0.387   2.412   4.457 -0.8338  1.5331  2.2282
  731TIP3    H2 2158   0.342   2.297   4.546 -0.4695 -0.6389 -0.2750
  732TIP3   OH2 2159   0.995   6.298   3.850 -0.1426  0.3537  0.0086
  732TIP3    H1 2160   1.005   6.233   3.920 -0.8943  0.0195 -0.1864
  732TIP3    H2 2161   1.040   6.259   3.775  0.5763  0.6671  0.2683
  733TIP3   OH2 2162   0.572   6.004   2.111 -0.2365  0.5413  0.2710
  733TIP3    H1 2163   0.626   6.049   2.177 -1.3611  2.0461  0.2282
  733TIP3    H2 2164   0.633   5.981   2.041  0.5179  1.3395  0.6483
  734TIP3   OH2 2165   6.459   1.414   0.061 -0.0140  0.4606  0.3713
  734TIP3    H1 2166   6.541   1.429   0.107 -0.0605  1.2510  0.2114
  734TIP3    H2 2167   6.402   1.486   0.089  0.7497  2.4987 -2.8006
  735TIP3   OH2 2168   1.216   2.854   5.637  0.2630 -0.3341 -0.1824
  735TIP3    H1 2169   1.237   2.883   5.548  1.3158 -1.2463 -0.2618
  735TIP3    H2 2170   1.122   2.835   5.634 -0.1019  1.3793 -0.5760
  736TIP3   OH2 2171   3.343   1.042   4.929 -0.2622 -0.5802  0.0228
  736TIP3    H1 2172   3.393   0.970   4.966 -0.7460 -0.8223  0.2196
  736TIP3    H2 2173   3.271   0.999   4.882  0.8176 -0.3431 -1.9813
  737TIP3   OH2 2174   2.334   6.084   3.866 -0.0769 -0.4652 -0.0396
  737TIP3    H1 2175   2.387   6.107   3.789 -1.1072 -0.4626 -0.7661
  737TIP3    H2 2176   2.295   6.167   3.894  1.1067 -0.2728  1.1460
  738TIP3   OH2 2177   5.580   3.189   5.376  0.0858 -0.0485  0.3309
  738TIP3    H1 2178   5.601   3.108   5.330  0.1915  0.5040 -0.6152
  738TIP3    H2 2179   5.500   3.220   5.335 -1.2182 -0.7736  2.1551
  739TIP3   OH2 2180   6.824   3.993   1.074  0.2622 -0.0431 -0.3279
  739TIP3    H1 2181   6.733   4.022   1.069  0.2062 -0.0590  0.4696
  739TIP3    H2 2182   6.875   4.073   1.065  0.1287  0.1785  0.7148
  740TIP3   OH2 2183   1.236   1.053   3.345 -0.6271  0.6496 -0.9513
  740TIP3    H1 2184   1.261   1.109   3.272 -1.8364  1.9310 -0.4417
  740TIP3    H2 2185   1.318   1.032   3.389 -0.1585  2.8142 -0.6541
  741TIP3   OH2 2186   4.812   2.872   0.515  0.5339 -0.6410 -0.0668
  741TIP3    H1 2187   4.755   2.798   0.534  0.6136 -0.1649  2.4437
  741TIP3    H2 2188   4.900   2.840   0.537  0.4730  0.3674  1.8855
  742TIP3   OH2 2189   5.010   3.233   5.828 -0.2291  0.2364 -0.2491
  742TIP3    H1 2190   5.030   3.317   5.869 -1.3545  0.4630 -0.1320
  742TIP3    H2 2191   5.095   3.190   5.818  0.2061  0.7662  1.0243
  743TIP3   OH2 2192   3.984   1.001   0.492  0.0383  0.6411 -0.2771
  743TIP3    H1 2193   3.941   0.986   0.576 -0.4846  2.6449 -0.1289
  743TIP3    H2 2194   4.004   0.913   0.459 -0.5103 -0.2156  1.5297
  744TIP3   OH2 2195   1.753   5.079   0.361 -0.1032 -0.0032 -0.0804
  744TIP3    H1 2196   1.660   5.090   0.341  0.2279  1.5614 -0.9558
  744TIP3    H2 2197   1.765   5.126   0.444  0.0731  0.6378 -0.4612
  745TIP3   OH2 2198  -0.006   3.757   3.237 -0.6736 -0.1749 -0.1547
  745TIP3    H1 2199   0.078   3.736   3.197 -1.0251 -0.0748 -0.9456
  745TIP3    H2 2200  -0.025   3.682   3.294 -0.9483 -1.0884 -1.4117
  746TIP3   OH2 2201   3.411   1.272   1.263 -0.3954 -0.0448 -0.5204
  746TIP3    H1 2202   3.497   1.307   1.241 -0.2678 -1.3613 -2.3100
  746TIP3    H2 2203   3.411   1.268   1.359  1.3925  0.3419 -0.4728
  747TIP3   OH2 2204   4.613   2.156   0.782 -0.3236 -0.3127 -0.3065
  747TIP3    H1 2205   4.586   2.189   0.867 -1.3572 -0.3003 -0.6240
  747TIP3    H2 2206   4.532   2.155   0.730  0.1323 -1.1195 -1.0215
  748TIP3   OH2 2207   5.098   0.414   5.725  1.0156  0.0528 -0.4484
  748TIP3    H1 2208   5.192   0.398   5.733  0.6840 -1.2088  2.5058
  748TIP3    H2 2209   5.065   0.336   5.680  1.1089 -0.8996  1.0601
  749TIP3   OH2 2210   1.924   5.868   0.181  0.2902  0.0670 -0.4261
  749TIP3    H1 2211   1.881   5.827   0.106  2.0969 -2.8987 -0.0127
  749TIP3    H2 2212   2.015   5.878   0.154  0.9519 -0.9375  1.2684
  750TIP3   OH2 2213   2.087   6.612   3.118  0.5038  0.0217  0.2124
  750TIP3    H1 2214   2.166   6.643   3.160 -0.4374  1.0642  1.2780
  750TIP3    H2 2215   2.043   6.560   3.184 -0.7334  1.2446  0.4104
  751TIP3   OH2 2216   6.483   4.660   2.052 -0.5429  0.3620  0.3316
  751TIP3    H1 2217   6.404   4.681   2.101  0.5101  1.2551  1.7068
  751TIP3    H2 2218   6.551   4.648   2.118  0.6944  0.5623 -0.8416
  752TIP3   OH2 2219   3.233   5.086   3.141  0.3165  0.6190  0.3013
  752TIP3    H1 2220   3.245   5.150   3.211  0.5490  1.6952 -0.6817
  752TIP3    H2 2221   3.159   5.120   3.091  0.9958  0.6251 -0.7425
  753TIP3   OH2 2222   4.039   3.280   1.316  0.0498 -0.2307  0.1146
  753TIP3    H1 2223   4.095   3.348   1.277  0.8115 -1.2189 -0.5871
  753TIP3    H2 2224   4.068   3.273   1.406  0.2323  0.1074  0.0827
  754TIP3   OH2 2225   0.588   3.514   5.467  0.4032 -0.0776 -0.2625
  754TIP3    H1 2226   0.682   3.531   5.462  0.1633  1.4670  0.1595
  754TIP3    H2 2227   0.558   3.518   5.376  0.6447  0.0389 -0.3375
  755TIP3   OH2 2228   5.917   5.815   0.763 -0.4181 -0.4566 -0.2205
  755TIP3    H1 2229   6.010   5.815   0.739 -0.4207  1.0946 -0.3318
  755TIP3    H2 2230   5.875   5.757   0.700  0.4191 -0.8978 -0.3824
  756TIP3   OH2 2231   0.125   6.540   0.480  0.1985 -0.0511 -0.3745
  756TIP3    H1 2232   0.214   6.568   0.503 -0.9889  1.3441  3.2226
  756TIP3    H2 2233   0.089   6.611   0.428 -0.1585  1.6226  1.9772
  757TIP3   OH2 2234   0.382   4.140   5.768 -0.1161  0.6112  0.0741
  757TIP3    H1 2235   0.465   4.093   5.756 -0.9712 -0.9973  0.0923
  757TIP3    H2 2236   0.320   4.091   5.713 -0.7197  2.8010 -1.3134
  758TIP3   OH2 2237   2.316   0.193   3.675 -0.3475  0.4872 -0.5705
  758TIP3    H1 2238   2.357   0.117   3.633  0.2971 -0.0539  0.9546
  758TIP3    H2 2239   2.223   0.168   3.681  0.0507 -0.8262  1.1011
  759TIP3   OH2 2240   4.563   1.845   5.473  0.2633 -0.0564  0.2301
  759TIP3    H1 2241   4.498   1.866   5.540  0.4317 -0.2225  0.4457
  759TIP3    H2 2242   4.523   1.875   5.392  0.2757  0.6351  0.4681
  760TIP3   OH2 2243   6.406   1.150   4.959 -0.5427  0.3269 -0.0532
  760TIP3    H1 2244   6.346   1.095   5.010  2.5394 -1.5214  1.8438
  760TIP3    H2 2245   6.465   1.088   4.917  0.9511  2.1048 -0.6676
  761TIP3   OH2 2246   6.017   0.570   1.691  0.0126 -0.3364  0.4057
  761TIP3    H1 2247   6.075   0.520   1.633 -0.9600 -0.6623 -0.3153
  761TIP3    H2 2248   5.968   0.627   1.633 -1.5109 -1.1992  0.7976
  762TIP3   OH2 2249   6.629   1.172   2.585  0.2302 -0.1624 -0.3264
  762TIP3    H1 2250   6.642   1.085   2.548 -0.4018  0.2814 -1.6605
  762TIP3    H2 2251   6.714   1.195   2.621  0.1903 -1.6572  0.8152
  763TIP3   OH2 2252   6.007   0.707   5.206  0.5697 -0.5934 -0.2660
  763TIP3    H1 2253   5.974   0.625   5.170  0.8295 -0.0669 -1.7839
  763TIP3    H2 2254   5.988   0.702   5.300 -3.2896 -0.5762 -0.8870
  764TIP3   OH2 2255   0.155   6.399   0.111  0.1252  0.2634  0.0024
  764TIP3    H1 2256   0.178   6.489   0.087  2.2028 -0.0194  0.7409
  764TIP3    H2 2257   0.207   6.345   0.051 -2.4089 -0.5272 -1.6302
  765TIP3   OH2 2258   2.155   1.106   3.718  0.0040 -0.1374 -0.3135
  765TIP3    H1 2259   2.168   1.154   3.637  0.8565 -1.0581 -0.7415
  765TIP3    H2 2260   2.180   1.168   3.787 -2.3926  1.2476 -0.6083
  766TIP3   OH2 2261   0.140   2.956   2.005 -0.3789 -0.2252 -0.2046
  766TIP3    H1 2262   0.223   2.911   1.989 -0.4088  0.1235 -1.4842
  766TIP3    H2 2263   0.119   2.937   2.096  1.6087  0.5047  0.4563
  767TIP3   OH2 2264   4.939   1.245   0.613  0.4064  0.4098 -0.1040
  767TIP3    H1 2265   4.867   1.294   0.652  1.3178  1.8536 -0.1856
  767TIP3    H2 2266   4.923   1.154   0.640 -1.0793  0.7888  0.4055
  768TIP3   OH2 2267   4.783   1.605   0.998 -0.1329 -0.2177 -0.6713
  768TIP3    H1 2268   4.849   1.640   1.058 -0.5752 -0.4039 -0.0699
  768TIP3    H2 2269   4.801   1.649   0.915 -0.5412  1.2989  0.0081
  769TIP3   OH2 2270   6.969   5.640   1.606 -0.0786 -0.1338  0.1757
  769TIP3    H1 2271   7.045   5.637   1.548 -0.8732 -0.8464 -0.8538
  769TIP3    H2 2272   6.952   5.734   1.617 -1.1779  0.0967 -2.5159
  770TIP3   OH2 2273   6.000   6.330   4.897 -0.0387  0.0521 -1.1407
  770TIP3    H1 2274   6.077   6.274   4.891  0.0707 -0.4324  2.3967
  770TIP3    H2 2275   6.033   6.413   4.932 -0.9017  0.4018 -1.1263
  771TIP3   OH2 2276   1.145   2.520   5.564  0.2618 -0.0745  0.3760
  771TIP3    H1 2277   1.108   2.594   5.516  0.3712 -0.0056  0.3977
  771TIP3    H2 2278   1.210   2.483   5.504 -0.6177 -0.8757 -0.1075
  772TIP3   OH2 2279   4.355   3.330   4.280  0.3629 -0.4361  0.0667
  772TIP3    H1 2280   4.268   3.322   4.241  0.8979  0.1364 -1.3243
  772TIP3    H2 2281   4.345   3.395   4.349 -0.4816 -0.9887  0.4728
  773TIP3   OH2 2282   5.335   2.867   0.109 -0.2134 -0.2367  0.1741
  773TIP3    H1 2283   5.403   2.909   0.162  0.1429 -0.0182 -0.4374
  773TIP3    H2 2284   5.320   2.929   0.037 -0.8840 -0.3982  0.1755
  774TIP3   OH2 2285   3.886   5.742   4.158 -0.4204 -0.1186 -0.5312
  774TIP3    H1 2286   3.840   5.688   4.094 -0.7038  0.2221 -0.6165
  774TIP3    H2 2287   3.821   5.760   4.226 -0.1309 -0.4518 -0.1567
  775TIP3   OH2 2288   4.071   3.785   1.123 -0.4873  0.0968 -0.3359
  775TIP3    H1 2289   4.079   3.873   1.085 -0.5526  0.6042  0.7693
  775TIP3    H2 2290   4.151   3.774   1.174 -0.5026 -0.4736 -0.4275
  776TIP3   OH2 2291   5.249   0.466   5.028  0.7572  0.5863  0.4202
  776TIP3    H1 2292   5.206   0.421   4.955  1.0914 -0.1212  0.6468
  776TIP3    H2 2293   5.332   0.496   4.992  0.6425  0.8061  0.3368
  777TIP3   OH2 2294   1.571   4.521   3.036  0.0236  0.3603  0.3813
  777TIP3    H1 2295   1.665   4.520   3.022  0.1786  0.4871  1.3293
  777TIP3    H2 2296   1.550   4.432   3.065 -0.8674 -1.0765 -3.8659
  778TIP3   OH2 2297   6.000   2.078   5.411  0.6290 -0.3051  0.0825
  778TIP3    H1 2298   5.920   2.050   5.368  0.8421 -3.1517  1.3018
  778TIP3    H2 2299   6.013   2.168   5.382 -1.8821 -0.4289 -1.7380
  779TIP3   OH2 2300   6.330   4.438   0.944 -0.9348  0.0677 -0.3109
  779TIP3    H1 2301   6.252   4.487   0.919 -0.2982  0.6528 -1.2459
  779TIP3    H2 2302   6.390   4.505   0.977 -1.0579 -0.4605  1.0125
  780TIP3   OH2 2303   2.768   0.055   5.106  0.2954 -0.2659 -0.0340
  780TIP3    H1 2304   2.862   0.049   5.093  0.3494  0.4831 -0.0598
  780TIP3    H2 2305   2.745   0.143   5.076 -0.8238 -1.2932 -2.4985
  781TIP3   OH2 2306   3.207   1.334   1.960 -0.3243 -0.1025  0.1334
  781TIP3    H1 2307   3.225   1.426   1.979 -1.4430  0.3314 -0.7937
  781TIP3    H2 2308   3.118   1.320   1.992  0.4763 -1.4040  1.9718
  782TIP3   OH2 2309   5.951   1.321   2.579 -0.6678  0.4990  0.2225
  782TIP3    H1 2310   5.929   1.244   2.527 -0.9385  0.7852 -0.0884
  782TIP3    H2 2311   6.045   1.314   2.595 -0.3798  0.9346 -1.1711
  783TIP3   OH2 2312   4.226   4.941   2.232 -0.0984 -0.3183 -0.2626
  783TIP3    H1 2313   4.273   4.864   2.201 -2.4293 -0.9796 -2.5631
  783TIP3    H2 2314   4.160   4.906   2.292 -0.1788  0.0687 -0.1235
  784TIP3   OH2 2315   4.408   6.706   4.963 -0.0162  0.3436  0.3380
  784TIP3    H1 2316   4.419   6.728   5.055 -3.2954  0.4407  0.8322
  784TIP3    H2 2317   4.315   6.685   4.954  0.1944  0.2114 -2.9375
  785TIP3   OH2 2318   1.160   0.038   4.759 -0.0393  0.6969  0.3725
  785TIP3    H1 2319   1.075   0.003   4.788 -1.0237  0.6405 -2.2621
  785TIP3    H2 2320   1.204  -0.037   4.718 -0.6412  1.6199 -2.1315
  786TIP3   OH2 2321   0.908   4.524   4.595 -0.0278  0.0427  0.3569
  786TIP3    H1 2322   0.829   4.469   4.596 -0.9535  1.2612 -0.9149
  786TIP3    H2 2323   0.973   4.471   4.549  0.0180 -1.0931  1.6610
  787TIP3   OH2 2324   1.565   4.993   5.128 -0.1009  0.3700  0.0104
  787TIP3    H1 2325   1.481   4.950   5.146 -0.1883  0.1224 -0.9181
  787TIP3    H2 2326   1.616   4.981   5.208 -0.8007  0.1576  0.4328
  788TIP3   OH2 2327   7.129   3.661   0.347 -0.5031  0.3888  0.1489
  788TIP3    H1 2328   7.075   3.664   0.268  0.5595  0.3898 -0.5884
  788TIP3    H2 2329   7.218   3.647   0.316 -0.2322 -1.0217  1.4313
  789TIP3   OH2 2330   3.407   2.674   5.317  1.0654 -0.1402 -0.1445
  789TIP3    H1 2331   3.461   2.629   5.382  0.2039 -1.0678 -0.0427
  789TIP3    H2 2332   3.327   2.621   5.311  1.5519 -0.7466 -2.7348
  790TIP3   OH2 2333   0.281   2.749   2.689 -0.2484  0.0998  0.6815
  790TIP3    H1 2334   0.235   2.674   2.726  0.1377 -0.1266  0.7000
  790TIP3    H2 2335   0.301   2.723   2.599  0.6196 -0.1505  0.9371
  791TIP3   OH2 2336   5.588   6.029   5.360 -0.5500  0.3350  0.3320
  791TIP3    H1 2337   5.575   6.109   5.410  0.3996 -0.9788  2.8570
  791TIP3    H2 2338   5.674   6.041   5.318  0.0231  0.2885  1.4623
  792TIP3   OH2 2339   1.267   5.389   3.958  0.6234 -0.2651 -0.0177
  792TIP3    H1 2340   1.263   5.312   4.014  0.4246  0.7748  1.4554
  792TIP3    H2 2341   1.176   5.419   3.951  0.4424 -1.1291 -2.0450
  793TIP3   OH2 2342   4.500   1.516   1.941  0.4144  0.6614 -0.4518
  793TIP3    H1 2343   4.584   1.506   1.897 -0.3438 -0.0314 -1.7983
  793TIP3    H2 2344   4.466   1.427   1.949 -0.1987  0.9298  0.0840
  794TIP3   OH2 2345   1.562   1.718   5.348  0.1385  0.4221  0.1037
  794TIP3    H1 2346   1.484   1.754   5.307  0.1591  1.6182  1.0474
  794TIP3    H2 2347   1.629   1.786   5.337  2.1609 -1.8376 -3.6469
  795TIP3   OH2 2348   6.008   3.450   0.301 -0.5452  0.2969 -0.1783
  795TIP3    H1 2349   6.055   3.507   0.240 -1.2580  0.6369 -0.4279
  795TIP3    H2 2350   5.959   3.391   0.244  0.5521 -0.8965  0.0753
  796TIP3   OH2 2351   4.873   2.667   5.368 -0.6207 -0.3552  0.2511
  796TIP3    H1 2352   4.919   2.583   5.359 -0.8028 -0.5528  1.0452
  796TIP3    H2 2353   4.781   2.645   5.355 -0.5677 -0.0812 -0.6370
  797TIP3   OH2 2354   6.123   6.169   0.361 -0.3421 -0.0330  0.3243
  797TIP3    H1 2355   6.190   6.222   0.319 -0.2168  0.7631  1.4893
  797TIP3    H2 2356   6.168   6.088   0.385  0.2082  0.4678  1.0341
  798TIP3   OH2 2357   2.999   2.932   4.431 -0.0548  0.2115  0.1436
  798TIP3    H1 2358   3.004   3.005   4.369  1.3437  0.8405  0.9560
  798TIP3    H2 2359   3.069   2.949   4.494 -1.7099 -0.1514  2.1914
  799TIP3   OH2 2360   4.800   1.306   4.046 -0.2769  0.0828  0.1026
  799TIP3    H1 2361   4.869   1.330   3.983 -0.6868 -2.1422 -1.3076
  799TIP3    H2 2362   4.836   1.231   4.094 -2.0858 -2.0421 -1.6195
  800TIP3   OH2 2363   4.680   6.188   2.053 -0.1001 -0.3209  0.2730
  800TIP3    H1 2364   4.696   6.094   2.042  0.1365 -0.3138  0.5535
  800TIP3    H2 2365   4.744   6.230   1.995 -0.1018 -0.3292  0.2649
  801TIP3   OH2 2366   1.554   4.088   0.216 -0.2838  0.1670 -0.7562
  801TIP3    H1 2367   1.607   4.010   0.236  0.9886  1.2418  0.2406
  801TIP3    H2 2368   1.534   4.080   0.123 -2.6480 -2.7835 -0.1441
  802TIP3   OH2 2369   4.295   4.421   4.677 -0.1886 -0.1114  0.0236
  802TIP3    H1 2370   4.348   4.345   4.653 -0.1174 -0.2051  0.4721
  802TIP3    H2 2371   4.233   4.389   4.742 -1.5579 -0.2508 -1.3071
  803TIP3   OH2 2372   4.536   6.158   0.339 -0.2129  0.4988  0.8199
  803TIP3    H1 2373   4.484   6.186   0.415 -2.1323  2.4202 -1.0667
  803TIP3    H2 2374   4.473   6.112   0.283  0.8324  0.2521 -0.1871
  804TIP3   OH2 2375   4.763   6.354   5.226 -0.2447 -0.4390 -0.2891
  804TIP3    H1 2376   4.802   6.270   5.201 -2.0274 -0.8516 -1.9065
  804TIP3    H2 2377   4.794   6.415   5.158 -1.7414 -0.6160 -1.1738
  805TIP3   OH2 2378   4.408   1.450   1.244  0.0387  0.3118 -0.0457
  805TIP3    H1 2379   4.376   1.382   1.184 -0.5081  0.5694 -0.0557
  805TIP3    H2 2380   4.345   1.449   1.316 -1.0006  1.9870 -0.8668
  806TIP3   OH2 2381   4.635   5.346   0.998 -0.7650  0.3486  0.6297
  806TIP3    H1 2382   4.688   5.280   0.954 -1.6304  1.2050 -1.9056
  806TIP3    H2 2383   4.674   5.355   1.085 -0.3206 -3.0827  0.9168
  807TIP3   OH2 2384   3.286   0.192   3.300 -0.5666 -0.2798 -0.2452
  807TIP3    H1 2385   3.351   0.262   3.310  1.4343 -2.1537  0.4433
  807TIP3    H2 2386   3.246   0.186   3.387 -0.2793 -0.4186 -0.1209
  808TIP3   OH2 2387   5.722   4.483   3.744 -0.5911 -0.4827 -0.7112
  808TIP3    H1 2388   5.772   4.558   3.713 -1.5066 -0.3181 -1.8367
  808TIP3    H2 2389   5.785   4.431   3.795  0.5166  0.0986 -1.4623
  809TIP3   OH2 2390   5.182   1.627   5.634  0.1144 -0.4582 -0.0565
  809TIP3    H1 2391   5.255   1.660   5.582  0.2811 -1.0610 -0.2112
  809TIP3    H2 2392   5.221   1.564   5.694 -0.4305 -1.7927 -1.0408
  810TIP3   OH2 2393   2.874   1.989   2.831 -0.1637  0.4830  0.1685
  810TIP3    H1 2394   2.891   1.901   2.796 -0.6953  0.7808 -0.8850
  810TIP3    H2 2395   2.839   2.038   2.756  0.2920  1.6472  0.6933
  811TIP3   OH2 2396   0.505   2.509   5.281 -0.5434 -0.5387  0.8564
  811TIP3    H1 2397   0.587   2.483   5.239 -0.2357  1.1844  0.3302
  811TIP3    H2 2398   0.513   2.604   5.293 -2.4718 -0.3252  0.7492
  812TIP3   OH2 2399   6.390   1.802   5.806 -0.0408 -0.0712  0.4149
  812TIP3    H1 2400   6.457   1.736   5.824 -0.1669 -0.7963 -1.5653
  812TIP3    H2 2401   6.308   1.762   5.835 -0.1044 -0.7767 -0.6906
  813TIP3   OH2 2402   1.278   6.229   5.394 -0.7211 -0.0280 -0.0894
  813TIP3    H1 2403   1.258   6.231   5.487  2.0572  0.9417  0.5912
  813TIP3    H2 2404   1.302   6.319   5.373  0.9898 -0.6694 -1.1132
  814TIP3   OH2 2405   6.097   2.892   3.763  0.2117 -0.0918  0.2150
  814TIP3    H1 2406   6.099   2.917   3.855  0.5071 -0.2347  0.2486
  814TIP3    H2 2407   6.186   2.860   3.745 -0.3513 -1.9350  0.4238
  815TIP3   OH2 2408   2.823   0.410   1.102 -0.0902  0.2928 -0.0584
  815TIP3    H1 2409   2.736   0.411   1.141  0.4507  0.2377  1.1968
  815TIP3    H2 2410   2.870   0.480   1.146  0.8919 -0.5170  0.2097
  816TIP3   OH2 2411   2.177   5.482   3.496 -1.1049 -0.1517 -0.2016
  816TIP3    H1 2412   2.123   5.527   3.431  1.3344  0.7318 -1.7467
  816TIP3    H2 2413   2.266   5.492   3.464 -0.1378 -3.3510  1.1339
  817TIP3   OH2 2414   1.190   3.616   0.500  0.0627  0.5012  0.0063
  817TIP3    H1 2415   1.275   3.580   0.524 -0.7960 -0.9678  0.9850
  817TIP3    H2 2416   1.192   3.617   0.404  1.4383  1.2079  0.0075
  818TIP3   OH2 2417   3.968   4.729   1.980  0.2175 -0.0797  0.0741
  818TIP3    H1 2418   3.967   4.672   1.903  1.3073  0.7053 -0.5524
  818TIP3    H2 2419   3.949   4.816   1.945 -0.1217  0.1553  0.8254
  819TIP3   OH2 2420   6.086   1.078   1.813 -0.2751  0.3989  0.2299
  819TIP3    H1 2421   6.098   1.051   1.904 -0.8228  1.7487  0.7342
  819TIP3    H2 2422   6.149   1.149   1.800  0.0893 -0.0625 -0.5814
  820TIP3   OH2 2423   6.589   1.493   4.401  0.1007 -0.7470  0.0148
  820TIP3    H1 2424   6.565   1.565   4.343  0.3155 -1.0478 -0.4582
  820TIP3    H2 2425   6.625   1.535   4.479 -1.2967 -0.3137  0.4396
  821TIP3   OH2 2426   3.002   1.324   4.300  0.5844 -0.5348  0.2477
  821TIP3    H1 2427   3.058   1.261   4.253  0.2084  0.1096 -1.0991
  821TIP3    H2 2428   2.966   1.273   4.373  0.7998 -1.7066 -0.4314
  822TIP3   OH2 2429   4.586   1.186   4.758 -0.9439  0.0031 -0.4721
  822TIP3    H1 2430   4.640   1.224   4.827 -0.5494 -1.5384  0.0980
  822TIP3    H2 2431   4.538   1.261   4.722 -0.5744  0.9606  0.9372
  823TIP3   OH2 2432   6.477   6.741   3.604 -0.5081  0.2614  0.6654
  823TIP3    H1 2433   6.454   6.670   3.664 -2.7908  1.3182  1.1307
  823TIP3    H2 2434   6.538   6.700   3.542  0.4943 -1.3266  2.5657
  824TIP3   OH2 2435   6.861   2.842   3.254  0.3288  0.3024 -0.7181
  824TIP3    H1 2436   6.792   2.859   3.191  0.4758  1.4562 -0.5782
  824TIP3    H2 2437   6.819   2.791   3.324  0.3990 -1.9700 -2.2058
  825TIP3   OH2 2438   2.909   1.216   1.001 -0.3582 -0.0016  0.8019
  825TIP3    H1 2439   2.887   1.127   0.974 -2.1441  0.7501 -0.4594
  825TIP3    H2 2440   2.885   1.270   0.925 -0.9033  1.7209  2.1357
  826TIP3   OH2 2441   1.618   6.584   4.012  0.4337  0.4322  0.3562
  826TIP3    H1 2442   1.559   6.654   3.983  0.8008  0.6467  0.1189
  826TIP3    H2 2443   1.637   6.535   3.932 -1.3072 -1.0935  0.8095
  827TIP3   OH2 2444   0.472   3.415   5.703 -0.1480 -0.1619 -0.2993
  827TIP3    H1 2445   0.493   3.474   5.775 -0.2678 -0.7052  0.1820
  827TIP3    H2 2446   0.482   3.469   5.624 -1.5314  0.8693  0.1930
  828TIP3   OH2 2447   2.338   6.199   2.900 -0.3083  0.5090  0.1103
  828TIP3    H1 2448   2.276   6.186   2.972 -1.0031 -0.6511 -0.6725
  828TIP3    H2 2449   2.341   6.294   2.888 -2.7329  0.5518 -0.5148
  829TIP3   OH2 2450   0.753   0.190   4.727  0.0119 -0.3067  0.2021
  829TIP3    H1 2451   0.802   0.121   4.771  2.4542 -0.5110 -2.5329
  829TIP3    H2 2452   0.722   0.150   4.646 -2.6862  0.5531  0.7126
  830TIP3   OH2 2453   5.282   6.343   4.888  0.0299  0.1738  0.4025
  830TIP3    H1 2454   5.364   6.324   4.933  0.5243 -1.0444 -0.9298
  830TIP3    H2 2455   5.223   6.273   4.914  0.8625 -1.5991 -2.0484
  831TIP3   OH2 2456   4.243   2.119   2.760 -0.4351  0.0402 -0.3999
  831TIP3    H1 2457   4.252   2.038   2.709  0.7344  0.5032 -0.9773
  831TIP3    H2 2458   4.149   2.137   2.760 -1.1328 -2.7537  2.0988
  832TIP3   OH2 2459   6.124   6.570   4.979 -0.5519  0.4871 -0.2538
  832TIP3    H1 2460   6.216   6.546   4.965 -1.0532 -0.8204 -1.6254
  832TIP3    H2 2461   6.126   6.663   4.999  1.1510  0.2693  0.7922
  833TIP3   OH2 2462   0.121   3.360   5.131  0.6842 -0.2704  0.2916
  833TIP3    H1 2463   0.151   3.296   5.195 -1.5807 -2.1736 -0.3835
  833TIP3    H2 2464   0.179   3.349   5.056  0.7515 -1.0721  0.4516
  834TIP3   OH2 2465   6.161   5.180   0.900  0.0293 -0.1774  0.4003
  834TIP3    H1 2466   6.083   5.128   0.878  0.0899 -0.6910  1.3356
  834TIP3    H2 2467   6.192   5.143   0.982  1.4107 -0.1269 -0.0765
  835TIP3   OH2 2468   4.758   4.891   2.149 -0.4923 -0.1547 -0.6518
  835TIP3    H1 2469   4.752   4.980   2.184 -1.9129 -0.4079 -0.1573
  835TIP3    H2 2470   4.851   4.876   2.135 -0.2918  1.7635 -1.6736
  836TIP3   OH2 2471   5.130   3.146   0.702  0.1204  0.2021  0.5388
  836TIP3    H1 2472   5.055   3.203   0.687 -2.1133 -2.4169  1.1669
  836TIP3    H2 2473   5.203   3.207   0.716 -2.3538  2.9581  2.7814
  837TIP3   OH2 2474   2.637   2.007   5.022 -1.2372  0.2992  0.7904
  837TIP3    H1 2475   2.693   1.966   4.956 -1.1425  1.8933 -0.1632
  837TIP3    H2 2476   2.549   2.002   4.985 -1.5055 -0.7048  1.5319
  838TIP3   OH2 2477   2.139   2.534   1.378  0.0697 -0.1157 -0.0959
  838TIP3    H1 2478   2.212   2.509   1.435  1.0620 -0.1405 -1.3285
  838TIP3    H2 2479   2.125   2.456   1.324 -3.2348 -1.4748  2.3733
  839TIP3   OH2 2480   6.683   1.236   4.166  0.0970  0.1603 -0.8390
  839TIP3    H1 2481   6.618   1.231   4.095 -0.6230 -0.6235 -0.1446
  839TIP3    H2 2482   6.655   1.310   4.219  0.3837  0.4754 -1.1230
  840TIP3   OH2 2483   0.229   6.601   2.149  0.4185 -0.2791 -0.2616
  840TIP3    H1 2484   0.246   6.683   2.102  0.0243 -0.2178 -0.3047
  840TIP3    H2 2485   0.211   6.537   2.080  1.6054 -0.6216 -0.2682
  841TIP3   OH2 2486   2.272   2.713   2.180 -0.3778  0.3571  0.0813
  841TIP3    H1 2487   2.231   2.768   2.113 -0.4492  0.7514  0.4412
  841TIP3    H2 2488   2.213   2.639   2.191 -2.1171  1.9030  2.0512
  842TIP3   OH2 2489   2.707   4.975   4.142  0.3374  0.2913 -0.1921
  842TIP3    H1 2490   2.726   5.068   4.145 -1.6430  0.7281  0.2937
  842TIP3    H2 2491   2.659   4.963   4.060  0.7532 -0.3468 -0.3498
  843TIP3   OH2 2492   6.489   5.654   2.186 -0.4844 -0.0026 -0.4010
  843TIP3    H1 2493   6.547   5.586   2.151 -0.0231 -0.7509  1.6747
  843TIP3    H2 2494   6.541   5.696   2.254 -1.3488  1.3810 -0.5622
  844TIP3   OH2 2495   2.992   2.381   3.906  0.7856  0.2697 -0.1582
  844TIP3    H1 2496   2.954   2.467   3.924  0.5449 -0.0976  1.1580
  844TIP3    H2 2497   3.083   2.388   3.935  0.4824 -0.2299  0.9527
  845TIP3   OH2 2498   2.164   1.953   1.494 -0.2039  0.5726 -0.2003
  845TIP3    H1 2499   2.213   1.898   1.554  0.2182  0.4815 -0.6235
  845TIP3    H2 2500   2.221   1.963   1.418 -1.3872 -0.6935 -1.3211
  846TIP3   OH2 2501   4.334   5.528   0.211 -0.1911  0.8080 -0.2530
  846TIP3    H1 2502   4.338   5.475   0.290  1.4229  1.2122 -0.0320
  846TIP3    H2 2503   4.278   5.479   0.151  1.7409 -1.5035 -0.3073
  847TIP3   OH2 2504   3.064   4.258   1.135 -0.0052  0.2351  0.3091
  847TIP3    H1 2505   3.044   4.246   1.228  0.1651 -1.6619  0.1311
  847TIP3    H2 2506   3.159   4.250   1.128 -0.2129 -2.4413 -0.3429
  848TIP3   OH2 2507   3.533   1.466   1.438  0.0947  0.4370  0.4718
  848TIP3    H1 2508   3.490   1.487   1.521 -1.1084 -1.0305  0.2704
  848TIP3    H2 2509   3.517   1.543   1.383 -1.1494  0.4768  0.8461
  849TIP3   OH2 2510   4.010   4.670   2.239 -0.4171 -0.2658  0.1401
  849TIP3    H1 2511   4.033   4.685   2.148 -1.9741  0.4059 -0.1858
  849TIP3    H2 2512   3.952   4.743   2.262 -2.1923 -1.7929  0.8328
  850TIP3   OH2 2513   5.461   5.778   1.923 -0.1738 -0.1697 -0.4741
  850TIP3    H1 2514   5.509   5.761   1.842  0.9648 -0.2595  0.1916
  850TIP3    H2 2515   5.468   5.872   1.936  0.4004 -0.2614 -0.0494
  851TIP3   OH2 2516   7.076   5.680   0.812 -0.1668  0.3841 -0.2948
  851TIP3    H1 2517   7.040   5.759   0.849  0.5780  0.9323 -0.7012
  851TIP3    H2 2518   7.000   5.625   0.792 -0.6660  0.8640  0.2724
  852TIP3   OH2 2519   4.636   4.583   4.031 -0.3447 -0.1589 -0.2164
  852TIP3    H1 2520   4.570   4.514   4.031 -0.3974 -0.1490 -2.0737
  852TIP3    H2 2521   4.714   4.541   3.993  0.5218  0.0448  1.2393
  853TIP3   OH2 2522   2.764   2.430   0.271 -0.1349  0.4362  0.1656
  853TIP3    H1 2523   2.711   2.489   0.324  0.3194 -0.1640  1.3230
  853TIP3    H2 2524   2.725   2.344   0.285 -0.8480  0.4362 -1.5719
  854TIP3   OH2 2525   0.873   4.948   3.035 -0.3669 -0.1569 -0.1223
  854TIP3    H1 2526   0.895   4.854   3.036  0.1043 -0.0481  0.3273
  854TIP3    H2 2527   0.831   4.963   3.119  0.8045  0.3117  0.4059
  855TIP3   OH2 2528   4.716   5.603   1.406 -0.2175 -0.2194  0.1773
  855TIP3    H1 2529   4.708   5.512   1.435  0.2633 -0.3706 -0.1466
  855TIP3    H2 2530   4.640   5.616   1.348 -0.1398 -0.5018  0.0082
  856TIP3   OH2 2531   5.549   1.235   1.324 -0.1825  0.2956  0.2433
  856TIP3    H1 2532   5.465   1.269   1.295 -0.0858  0.5964  0.3117
  856TIP3    H2 2533   5.562   1.273   1.411  0.6966  1.4428 -0.3534
  857TIP3   OH2 2534   4.101   1.215   3.382 -0.1932  0.4070  0.3415
  857TIP3    H1 2535   4.185   1.249   3.413 -1.1802  1.3379  2.1362
  857TIP3    H2 2536   4.061   1.176   3.460 -0.2779 -2.6153 -1.0621
  858TIP3   OH2 2537   0.652   0.382   0.856  0.0827 -0.2629  0.0677
  858TIP3    H1 2538   0.631   0.452   0.794 -2.5270 -0.2249  0.8876
  858TIP3    H2 2539   0.618   0.302   0.815  1.4520 -0.8199 -0.0547
  859TIP3   OH2 2540   6.074   3.699   3.937  0.1982 -0.0121  0.0208
  859TIP3    H1 2541   6.002   3.638   3.955 -0.3796  0.4337 -0.7143
  859TIP3    H2 2542   6.042   3.754   3.865  1.0771  0.5364  0.0281
  860TIP3   OH2 2543   2.976   2.717   1.072 -0.2925 -0.0777  0.6686
  860TIP3    H1 2544   2.954   2.632   1.034 -2.5082  0.0084  1.6110
  860TIP3    H2 2545   3.071   2.716   1.082 -0.2259 -2.1985  0.1228
  861TIP3   OH2 2546   4.573   0.346   5.546  0.4884  0.7946  0.3325
  861TIP3    H1 2547   4.517   0.348   5.469 -0.5944 -1.5779  0.9529
  861TIP3    H2 2548   4.595   0.438   5.563 -2.6514  1.7912 -0.3708
  862TIP3   OH2 2549   0.085   1.677   2.529  0.1381 -0.3708  0.6608
  862TIP3    H1 2550   0.147   1.662   2.600 -0.6720  0.2438  1.5150
  862TIP3    H2 2551   0.108   1.764   2.495  0.8632 -0.8787 -0.2049
  863TIP3   OH2 2552   2.373   3.511   4.725 -0.0398 -0.0068 -0.1714
  863TIP3    H1 2553   2.459   3.547   4.702  1.5067 -2.6115  1.0188
  863TIP3    H2 2554   2.345   3.564   4.800  0.0153  1.5159 -1.1910
  864TIP3   OH2 2555   3.893   4.016   1.607 -0.5138 -0.2442 -0.1993
  864TIP3    H1 2556   3.874   3.923   1.619 -0.6527 -0.3971 -1.4464
  864TIP3    H2 2557   3.827   4.061   1.660 -1.3871 -0.8491 -0.7466
  865TIP3   OH2 2558   6.653   0.177   3.690 -0.1859 -0.2970 -0.2238
  865TIP3    H1 2559   6.647   0.160   3.596 -0.4785 -0.2729 -0.2095
  865TIP3    H2 2560   6.746   0.165   3.710 -0.3435 -1.7045 -0.2430
  866TIP3   OH2 2561   2.153   1.201   1.610 -0.4741  0.2119  0.5691
  866TIP3    H1 2562   2.207   1.152   1.548  0.5434  2.8627 -0.7837
  866TIP3    H2 2563   2.065   1.165   1.600 -0.2777  0.3146 -2.2408
  867TIP3   OH2 2564   2.154   0.669   0.831 -0.0849  0.1689  0.1288
  867TIP3    H1 2565   2.112   0.751   0.804  0.6410  0.9013  1.1562
  867TIP3    H2 2566   2.164   0.676   0.926  2.8560  0.3270 -0.0909
  868TIP3   OH2 2567   0.463   5.459   3.826 -0.1903  0.0616  0.5986
  868TIP3    H1 2568   0.409   5.380   3.835 -0.2365  0.1040  0.6857
  868TIP3    H2 2569   0.522   5.457   3.901  1.4582 -1.1710 -0.6406
  869TIP3   OH2 2570   2.802   0.190   0.701 -0.0242  0.3416  0.3092
  869TIP3    H1 2571   2.727   0.132   0.690  1.1499 -1.6207  1.8101
  869TIP3    H2 2572   2.875   0.141   0.663  1.0337  0.7346  1.7651
  870TIP3   OH2 2573   0.987   1.807   0.011 -0.2058  0.1944  0.2941
  870TIP3    H1 2574   1.044   1.804   0.088 -1.2974  0.0892  1.1028
  870TIP3    H2 2575   0.966   1.900   0.000  2.2426  0.6576 -1.6381
  871TIP3   OH2 2576   4.952   0.918   5.810 -0.3364 -0.3958 -0.3560
  871TIP3    H1 2577   5.023   0.957   5.758 -0.2202  0.2146  0.2492
  871TIP3    H2 2578   4.974   0.825   5.814  0.6064 -0.1709  0.0689
  872TIP3   OH2 2579   6.818   5.803   1.962  0.4349 -0.5193  0.0339
  872TIP3    H1 2580   6.887   5.857   1.924 -0.1220 -0.3033 -0.6806
  872TIP3    H2 2581   6.758   5.866   2.003 -0.4864 -0.5236 -1.2421
  873TIP3   OH2 2582   2.017   1.828   1.750 -0.0044 -0.2989  0.1769
  873TIP3    H1 2583   2.105   1.826   1.713  0.7201 -0.4189  1.8577
  873TIP3    H2 2584   1.976   1.747   1.718  0.2031  0.1076 -1.2113
  874TIP3   OH2 2585   2.005   5.632   3.881 -0.0396 -0.0006 -0.0981
  874TIP3    H1 2586   1.940   5.575   3.840  0.6996 -0.5734 -0.4898
  874TIP3    H2 2587   2.084   5.579   3.886  0.4361  0.7258  0.2743
  875TIP3   OH2 2588   4.439   4.361   4.034  0.0740  0.0055  0.3467
  875TIP3    H1 2589   4.351   4.325   4.035 -1.1464  2.7092 -0.4194
  875TIP3    H2 2590   4.496   4.285   4.045 -2.1718 -2.3575 -2.5941
  876TIP3   OH2 2591   0.096   2.264   3.202  0.0205 -0.1962  0.2363
  876TIP3    H1 2592   0.185   2.297   3.214 -0.4238  1.1974 -0.0755
  876TIP3    H2 2593   0.101   2.206   3.126  1.0950 -1.9751  1.6123
  877TIP3   OH2 2594   5.033   2.986   1.705 -0.3349  0.5905  0.1973
  877TIP3    H1 2595   5.107   2.927   1.697 -1.0655 -0.2359 -0.6315
  877TIP3    H2 2596   5.072   3.074   1.699  0.7991  0.2425  1.7928
  878TIP3   OH2 2597   2.026   6.247   2.407  0.2951 -0.2801 -0.1876
  878TIP3    H1 2598   1.960   6.206   2.350  0.5426  1.4244 -1.7875
  878TIP3    H2 2599   1.980   6.263   2.489  0.2777 -3.9638  0.6924
  879TIP3   OH2 2600   1.645   0.792   5.452  0.1629 -0.5387 -0.6109
  879TIP3    H1 2601   1.728   0.745   5.453  0.1193 -0.6164 -0.1019
  879TIP3    H2 2602   1.581   0.727   5.423  0.0071 -0.9776  0.6546
  880TIP3   OH2 2603   2.620   5.164   3.522 -0.0439 -0.2687  0.1884
  880TIP3    H1 2604   2.536   5.159   3.476 -0.3527  1.4061  0.5094
  880TIP3    H2 2605   2.600   5.205   3.606  0.9034 -1.0322  0.8157
  881TIP3   OH2 2606   2.326   1.840   5.339  0.3905 -0.6105  0.3399
  881TIP3    H1 2607   2.362   1.927   5.323  0.8315 -1.0890 -1.4649
  881TIP3    H2 2608   2.232   1.850   5.328  0.5477 -0.5977 -1.2281
  882TIP3   OH2 2609   1.916   3.955   2.473  0.1801  0.0588 -0.0569
  882TIP3    H1 2610   1.995   4.000   2.502  1.0576 -0.1356 -1.9772
  882TIP3    H2 2611   1.917   3.871   2.520 -0.2772  1.0641  1.8446
  883TIP3   OH2 2612   3.456   6.210   1.731 -0.6880  0.7736 -0.2929
  883TIP3    H1 2613   3.374   6.162   1.718 -0.0762 -0.2341 -0.5320
  883TIP3    H2 2614   3.504   6.198   1.650  0.9507 -1.1715  0.8626
  884TIP3   OH2 2615   4.660   2.306   5.482  0.0608 -0.1934 -0.4275
  884TIP3    H1 2616   4.690   2.262   5.561  3.8996 -1.9595 -2.6097
  884TIP3    H2 2617   4.683   2.398   5.495 -0.5108 -0.2325  0.9592
  885TIP3   OH2 2618   1.492   0.466   2.968 -0.1087  0.1498  0.8741
  885TIP3    H1 2619   1.498   0.374   2.942  1.1732  0.7120 -1.0524
  885TIP3    H2 2620   1.477   0.464   3.062  2.6687 -2.0600  1.3952
  886TIP3   OH2 2621   6.882   6.374   5.422 -0.1313 -0.3540  0.1653
  886TIP3    H1 2622   6.880   6.447   5.361 -1.3965 -1.2319 -0.9159
  886TIP3    H2 2623   6.962   6.327   5.402  0.3989  0.3989  0.4785
  887TIP3   OH2 2624   1.272   3.801   5.221  0.1030  0.6680  0.5811
  887TIP3    H1 2625   1.304   3.883   5.259  1.1044 -0.0463  1.3213
  887TIP3    H2 2626   1.322   3.791   5.140  0.9071  0.1783  1.1187
  888TIP3   OH2 2627   4.732   5.797   3.077 -0.3408 -0.2396 -0.5103
  888TIP3    H1 2628   4.749   5.760   2.990 -2.6162 -1.3945 -0.5415
  888TIP3    H2 2629   4.637   5.801   3.083 -0.2556  3.4440  0.4864
  889TIP3   OH2 2630   0.595   2.491   1.852  0.2754  0.4752 -0.7405
  889TIP3    H1 2631   0.562   2.579   1.870  0.1033  0.4305 -0.8400
  889TIP3    H2 2632   0.687   2.494   1.878  0.0195  0.3944  0.2218
  890TIP3   OH2 2633   7.195   3.302   0.592  0.0585  0.4428  0.6580
  890TIP3    H1 2634   7.194   3.230   0.655 -0.4354  1.1835  1.5169
  890TIP3    H2 2635   7.131   3.277   0.526 -0.4219  0.2829  1.1781
  891TIP3   OH2 2636   3.419   1.019   0.880 -0.0565  0.0984  0.1836
  891TIP3    H1 2637   3.492   1.081   0.886  0.0566 -0.0847  0.7779
  891TIP3    H2 2638   3.364   1.038   0.956 -1.1626  0.8908 -0.7871
  892TIP3   OH2 2639   7.007   0.102   5.135  0.2133 -0.5551 -0.0240
  892TIP3    H1 2640   7.093   0.068   5.112  1.6432  2.1333  0.8698
  892TIP3    H2 2641   6.985   0.161   5.063  1.2050  2.0475  1.6632
  893TIP3   OH2 2642   1.507   4.436   4.912  0.1548  0.2142  0.1552
  893TIP3    H1 2643   1.442   4.457   4.846  0.4292  0.1938 -0.1272
  893TIP3    H2 2644   1.530   4.520   4.952 -0.7508  0.1014  0.9302
  894TIP3   OH2 2645   3.610   6.343   0.137  0.4270 -0.4332 -0.3085
  894TIP3    H1 2646   3.698   6.330   0.172  0.2045 -0.8815  0.1092
  894TIP3    H2 2647   3.590   6.260   0.093  0.5457 -0.0198 -1.1617
  895TIP3   OH2 2648   2.322   1.580   1.921 -0.4196  0.2240 -0.3408
  895TIP3    H1 2649   2.250   1.641   1.902 -1.3267 -0.5088  0.6320
  895TIP3    H2 2650   2.300   1.543   2.007  1.7979  0.9641  0.6307
  896TIP3   OH2 2651   3.768   2.643   3.458  0.0450 -0.6439  0.1446
  896TIP3    H1 2652   3.760   2.557   3.416 -0.9707 -0.4544 -0.0796
  896TIP3    H2 2653   3.681   2.681   3.449 -0.2735 -0.6702  2.6144
  897TIP3   OH2 2654   1.581   6.282   3.641  0.4321 -0.2516 -0.7297
  897TIP3    H1 2655   1.490   6.306   3.627  0.6293 -0.3862 -2.3589
  897TIP3    H2 2656   1.619   6.358   3.686 -0.7019 -0.6252  0.9518
  898TIP3   OH2 2657   4.650   6.074   3.505  0.3521  0.0954 -0.4979
  898TIP3    H1 2658   4.728   6.107   3.460 -0.0839  0.4951 -0.9641
  898TIP3    H2 2659   4.604   6.152   3.535 -0.7238 -0.0619 -1.6589
  899TIP3   OH2 2660   2.119   0.982   0.058  0.4653 -0.1645  0.0274
  899TIP3    H1 2661   2.197   0.955   0.107 -0.1957  0.7037  1.6061
  899TIP3    H2 2662   2.115   1.077   0.070 -0.7875 -0.1888 -0.1127
  900TIP3   OH2 2663   5.431   1.382   0.392  0.1357  0.3435 -0.1981
  900TIP3    H1 2664   5.513   1.398   0.345  0.9069  1.0130  1.2774
  900TIP3    H2 2665   5.420   1.460   0.446 -1.5448  0.2993 -0.4260
  901TIP3   OH2 2666   2.280   4.488   3.141  0.1436  0.2195 -0.6310
  901TIP3    H1 2667   2.209   4.540   3.178 -0.5443 -1.3849  0.3925
  901TIP3    H2 2668   2.307   4.430   3.212  0.8008 -0.9028 -1.7658
  902TIP3   OH2 2669   5.738   1.499   3.189  0.8171 -0.0276 -0.1031
  902TIP3    H1 2670   5.815   1.511   3.244 -0.6900 -1.9987  2.6636
  902TIP3    H2 2671   5.751   1.413   3.148  0.0881 -0.4572  0.5224
  903TIP3   OH2 2672   4.998   5.560   3.687 -0.2983  0.2822 -0.6735
  903TIP3    H1 2673   5.066   5.567   3.620  0.0965 -1.1732 -0.4738
  903TIP3    H2 2674   5.021   5.627   3.751  1.9638 -1.1763  0.1970
  904TIP3   OH2 2675   3.114   1.523   5.397 -0.3297  0.1367  0.2254
  904TIP3    H1 2676   3.199   1.482   5.381 -0.5950  0.0730 -1.2028
  904TIP3    H2 2677   3.135   1.608   5.435  0.4065  0.2394 -0.3819
  905TIP3   OH2 2678   2.873   5.681   1.691 -0.1550  0.1668  0.4738
  905TIP3    H1 2679   2.939   5.740   1.656 -0.3086 -0.1753 -0.4165
  905TIP3    H2 2680   2.919   5.599   1.706 -0.9313 -1.1002 -3.1045
  906TIP3   OH2 2681   6.387   3.455   2.453  0.1399 -0.0208  0.0649
  906TIP3    H1 2682   6.474   3.416   2.442  0.3081  0.5022 -0.5210
  906TIP3    H2 2683   6.376   3.511   2.376 -0.0330  1.2053  0.9613
  907TIP3   OH2 2684   2.650   1.924   0.237 -0.0983  0.5105 -0.6982
  907TIP3    H1 2685   2.640   2.007   0.283 -1.6082  0.2354 -0.5032
  907TIP3    H2 2686   2.686   1.865   0.303 -0.5656  0.5803 -0.3845
  908TIP3   OH2 2687   3.260   3.528   4.242  0.1912 -0.0982  0.2177
  908TIP3    H1 2688   3.350   3.539   4.272  0.5023  0.4172 -0.8878
  908TIP3    H2 2689   3.263   3.543   4.148 -1.0871  0.1334  0.1940
  909TIP3   OH2 2690   2.310   5.805   3.892  0.1210  0.0589  0.1871
  909TIP3    H1 2691   2.300   5.771   3.804 -0.9559 -0.3137  0.4330
  909TIP3    H2 2692   2.326   5.898   3.881 -0.9981  0.1966 -0.3846
  910TIP3   OH2 2693   4.408   2.290   3.036  0.0807 -0.3168 -0.4707
  910TIP3    H1 2694   4.415   2.205   2.993  1.4441 -1.3134  1.5381
  910TIP3    H2 2695   4.498   2.324   3.037  0.0890 -0.2741  1.3666
  911TIP3   OH2 2696   0.182   3.074   2.993 -0.1852  1.1542 -0.1675
  911TIP3    H1 2697   0.231   3.045   2.917  2.1395  2.5220  0.6988
  911TIP3    H2 2698   0.114   3.007   3.005  0.6623 -0.1677 -2.1807
  912TIP3   OH2 2699   6.193   3.459   2.652  0.1108  0.5303 -0.2345
  912TIP3    H1 2700   6.233   3.396   2.712 -0.2476  0.7999  0.2909
  912TIP3    H2 2701   6.251   3.460   2.576  0.6299  0.2741  0.1565
  913TIP3   OH2 2702   0.475   1.492   5.568  0.0293  0.2523  0.1473
  913TIP3    H1 2703   0.561   1.532   5.582  0.8168 -0.9628 -0.9026
  913TIP3    H2 2704   0.484   1.403   5.603 -0.6246 -0.0463 -0.4027
  914TIP3   OH2 2705   5.047   5.254   0.205  0.0268  0.0991 -0.2715
  914TIP3    H1 2706   5.111   5.234   0.274 -0.0110 -1.9392 -0.7697
  914TIP3    H2 2707   5.101   5.283   0.131  0.2260  0.3196 -0.0409
  915TIP3   OH2 2708   0.379   1.058   2.179  0.0642  0.1358 -0.0065
  915TIP3    H1 2709   0.307   1.083   2.237  0.7139  1.3062  0.3247
  915TIP3    H2 2710   0.445   1.021   2.238 -1.0060 -2.8613 -0.5122
  916TIP3   OH2 2711   2.463   6.494   2.164 -0.1434  0.3217 -0.0956
  916TIP3    H1 2712   2.465   6.589   2.155 -0.4985  0.4750  1.2542
  916TIP3    H2 2713   2.545   6.464   2.124  0.1974  1.2405 -0.1063
  917TIP3   OH2 2714   3.504   0.216   2.975  0.3414  0.0076 -0.0576
  917TIP3    H1 2715   3.427   0.267   3.000  0.4522 -0.2013  0.7622
  917TIP3    H2 2716   3.578   0.275   2.993  0.3285  0.8401 -2.4374
  918TIP3   OH2 2717   1.152   4.472   2.833  0.1448 -0.5516 -0.0520
  918TIP3    H1 2718   1.160   4.567   2.823 -1.5166 -0.4825 -1.1225
  918TIP3    H2 2719   1.214   4.436   2.769 -1.4223 -0.1220 -1.9088
  919TIP3   OH2 2720   5.861   0.948   3.469 -0.4672  0.0871 -0.0089
  919TIP3    H1 2721   5.891   1.005   3.399  0.7273 -3.3139 -2.5870
  919TIP3    H2 2722   5.903   0.982   3.548  2.1704  1.3288 -1.7916
  920TIP3   OH2 2723   7.030   5.924   2.628  0.7411 -0.1047 -0.2192
  920TIP3    H1 2724   7.116   5.883   2.626  1.0156  0.4598 -0.2102
  920TIP3    H2 2725   7.003   5.927   2.536  1.0706  0.4011 -0.3084
  921TIP3   OH2 2726   0.949   2.117   5.229 -0.3415  0.7265 -0.3351
  921TIP3    H1 2727   0.958   2.066   5.149  0.7917 -0.7799  0.7061
  921TIP3    H2 2728   0.879   2.072   5.278 -0.6602  1.3238 -0.2254
  922TIP3   OH2 2729   1.292   3.193   5.146  0.3192 -0.2760  0.1005
  922TIP3    H1 2730   1.359   3.236   5.200 -0.3128  1.6810 -0.5700
  922TIP3    H2 2731   1.209   3.230   5.177 -0.1818 -0.2740 -1.1682
  923TIP3   OH2 2732   0.528   2.810   1.404  0.4406  0.1755 -0.1124
  923TIP3    H1 2733   0.555   2.878   1.341  1.9848  1.0929  1.4565
  923TIP3    H2 2734   0.573   2.833   1.485 -1.5848 -0.8861  1.4115
  924TIP3   OH2 2735   5.857   6.513   0.893 -0.4019  0.4680  0.0306
  924TIP3    H1 2736   5.920   6.458   0.846 -0.2660 -0.3820  1.1768
  924TIP3    H2 2737   5.823   6.572   0.826  1.6295  0.9884 -0.6146
  925TIP3   OH2 2738   3.900   6.436   0.833 -0.5889 -0.2767  0.0216
  925TIP3    H1 2739   3.951   6.447   0.753  1.0398  0.7158  1.1192
  925TIP3    H2 2740   3.869   6.346   0.830  1.5357 -1.0480 -0.5677
  926TIP3   OH2 2741   1.706   2.109   1.720  1.1305  0.2491  0.1676
  926TIP3    H1 2742   1.770   2.064   1.665  0.4940  0.9050 -1.1578
  926TIP3    H2 2743   1.653   2.160   1.658  0.9724  1.7392  1.4742
  927TIP3   OH2 2744   4.979   5.134   3.289  0.8198  0.0500  0.2507
  927TIP3    H1 2745   5.002   5.113   3.380 -0.9529 -0.8769  0.5271
  927TIP3    H2 2746   4.947   5.224   3.292  1.5463  0.3097  0.3850
  928TIP3   OH2 2747   0.072   2.074   1.746  0.0645  0.4608  0.5103
  928TIP3    H1 2748   0.043   2.028   1.825 -1.1424  1.5416  0.7310
  928TIP3    H2 2749   0.006   2.052   1.680  0.0596  1.0128  0.3219
  929TIP3   OH2 2750   3.265   3.738   2.356 -0.2315  0.1425 -0.6109
  929TIP3    H1 2751   3.178   3.774   2.373  0.2194  0.9021  0.1364
  929TIP3    H2 2752   3.273   3.663   2.415  0.3732  1.2803  0.8052
  930TIP3   OH2 2753   1.594   1.590   5.062  0.0639 -0.0413 -0.8468
  930TIP3    H1 2754   1.667   1.549   5.015  1.5333 -1.2831  2.1734
  930TIP3    H2 2755   1.633   1.620   5.144 -2.8385 -1.0622  1.0733
  931TIP3   OH2 2756   0.529   0.320   4.854 -0.4945  0.2116 -0.1390
  931TIP3    H1 2757   0.521   0.297   4.947 -1.4273  1.4472  0.1036
  931TIP3    H2 2758   0.586   0.252   4.818 -0.7790 -0.7620  1.1590
  932TIP3   OH2 2759   1.288   2.518   4.430 -0.5530 -0.2035  0.1525
  932TIP3    H1 2760   1.327   2.552   4.350  0.0633 -0.0359  0.5162
  932TIP3    H2 2761   1.259   2.430   4.407 -0.2487 -0.2112 -0.2157
  933TIP3   OH2 2762   3.172   1.454   3.246 -0.1888 -0.1226  0.0279
  933TIP3    H1 2763   3.177   1.476   3.339 -0.8543 -1.2632  0.3545
  933TIP3    H2 2764   3.261   1.429   3.222 -0.2443 -0.9774  0.6686
  934TIP3   OH2 2765   3.937   4.686   5.069  0.5767 -0.0956 -0.2511
  934TIP3    H1 2766   3.866   4.694   5.133 -0.9968 -1.3013 -1.7210
  934TIP3    H2 2767   3.902   4.726   4.990  2.3743  1.1161 -0.4793
  935TIP3   OH2 2768   6.824   1.485   3.157 -0.0764  0.9779 -0.8252
  935TIP3    H1 2769   6.866   1.570   3.168 -0.0661  1.0030 -1.0587
  935TIP3    H2 2770   6.734   1.506   3.132 -0.1829  0.9223 -0.4961
  936TIP3   OH2 2771   0.533   0.541   5.245 -0.1093  0.3770 -0.1923
  936TIP3    H1 2772   0.550   0.503   5.332 -1.4859 -0.3113 -0.1900
  936TIP3    H2 2773   0.620   0.559   5.209  0.5715 -1.4135  0.4290
  937TIP3   OH2 2774   1.880   1.725   5.884 -0.3688  0.1676 -0.5170
  937TIP3    H1 2775   1.953   1.696   5.830 -0.3741 -1.5176  0.3180
  937TIP3    H2 2776   1.819   1.651   5.884 -1.2903  0.9003  0.1609
  938TIP3   OH2 2777   0.429   5.253   1.429  0.0085  0.4420 -0.2895
  938TIP3    H1 2778   0.483   5.281   1.355  1.0240  2.9479  1.2624
  938TIP3    H2 2779   0.486   5.196   1.480 -0.6113 -1.0879 -1.2392
  939TIP3   OH2 2780   0.865   3.769   2.332 -0.4554 -0.2995  0.2927
  939TIP3    H1 2781   0.780   3.769   2.375  0.0708 -0.9740  1.3716
  939TIP3    H2 2782   0.891   3.676   2.330 -0.0009 -0.1656 -0.5386
  940TIP3   OH2 2783   6.927   3.862   5.790  0.1248  0.2015 -0.5296
  940TIP3    H1 2784   6.924   3.890   5.882 -0.1566 -0.9974 -0.1614
  940TIP3    H2 2785   6.902   3.770   5.792  1.0037 -0.0824 -1.7151
  941TIP3   OH2 2786   4.518   3.086   1.815  0.1193  0.1696 -0.5290
  941TIP3    H1 2787   4.508   3.108   1.908  2.9261 -1.5228  0.3080
  941TIP3    H2 2788   4.582   3.150   1.783 -1.9800  1.7574 -1.8324
  942TIP3   OH2 2789   2.047   0.052   0.573 -0.4695  0.0703  0.1251
  942TIP3    H1 2790   2.000   0.023   0.651 -0.1787  3.4069  1.6898
  942TIP3    H2 2791   2.123   0.100   0.606  0.4735  0.3885 -2.2618
  943TIP3   OH2 2792   5.612   5.031   1.624 -0.0094 -0.0593  0.0263
  943TIP3    H1 2793   5.646   5.084   1.552  1.5350 -2.6140 -1.2900
  943TIP3    H2 2794   5.671   5.049   1.697  0.2996  0.2807 -0.3008
  944TIP3   OH2 2795   1.978   2.151   3.640  0.5421 -0.2929  0.3202
  944TIP3    H1 2796   2.014   2.152   3.552 -2.0554 -0.0791 -0.8275
  944TIP3    H2 2797   1.905   2.213   3.637 -0.3352 -1.1338  2.2927
  945TIP3   OH2 2798   6.901   6.607   0.077  0.1069 -0.4632  0.4747
  945TIP3    H1 2799   6.921   6.649   0.160  0.7702  0.2681 -0.0408
  945TIP3    H2 2800   6.981   6.616   0.025  0.0734 -1.8521  0.1284
  946TIP3   OH2 2801   2.636   3.813   3.298 -0.3080  0.3941 -0.0645
  946TIP3    H1 2802   2.711   3.757   3.277 -0.5794 -0.1170  0.3179
  946TIP3    H2 2803   2.606   3.847   3.214  0.8532  1.2562 -0.1609
  947TIP3   OH2 2804   2.615   0.825   5.819 -0.1417  0.1596 -0.3807
  947TIP3    H1 2805   2.618   0.734   5.790  0.6973 -1.0862  3.1022
  947TIP3    H2 2806   2.533   0.860   5.784 -0.4929 -1.9236 -1.7811
  948TIP3   OH2 2807   6.090   4.211   2.551  0.3539 -0.6167 -0.1312
  948TIP3    H1 2808   6.058   4.249   2.469  0.2876 -2.1348 -0.8491
  948TIP3    H2 2809   6.185   4.211   2.541  0.4727  1.0471  0.6838
  949TIP3   OH2 2810   4.764   0.522   1.126  0.0022 -0.2101 -0.5026
  949TIP3    H1 2811   4.708   0.447   1.143  1.1285 -1.2799 -1.3617
  949TIP3    H2 2812   4.838   0.487   1.078  0.2510  1.5591 -1.5263
  950TIP3   OH2 2813   4.311   1.639   2.938  0.2480  0.2402 -0.2407
  950TIP3    H1 2814   4.332   1.711   2.998  2.1196 -0.1541 -0.3812
  950TIP3    H2 2815   4.395   1.611   2.903 -0.5628 -1.2529 -1.0980
  951TIP3   OH2 2816   6.055   2.433   0.080  0.1577  0.4794 -0.3545
  951TIP3    H1 2817   6.085   2.520   0.053 -1.2271  0.2329 -3.0310
  951TIP3    H2 2818   6.127   2.375   0.055  0.2737  0.6265 -0.3679
  952TIP3   OH2 2819   4.044   0.342   4.637  0.0568 -0.2206 -0.1105
  952TIP3    H1 2820   4.029   0.253   4.668 -1.2904  0.6106  1.8296
  952TIP3    H2 2821   4.060   0.393   4.716  2.8983  0.9558 -1.3103
  953TIP3   OH2 2822   6.311   1.410   5.324 -0.3407  0.5088  0.2785
  953TIP3    H1 2823   6.232   1.401   5.377 -1.2809  0.7379 -1.0291
  953TIP3    H2 2824   6.299   1.347   5.253  1.5721 -0.8754  1.0976
  954TIP3   OH2 2825   1.963   0.110   1.331  0.1406 -0.5653  0.0767
  954TIP3    H1 2826   2.020   0.149   1.265  0.5782 -1.4560 -0.0822
  954TIP3    H2 2827   1.965   0.172   1.404  0.7838 -0.2632 -0.1908
  955TIP3   OH2 2828   4.547   1.160   2.982 -0.2222  0.3919  0.3562
  955TIP3    H1 2829   4.534   1.096   2.912 -1.2497  1.1065 -0.1406
  955TIP3    H2 2830   4.480   1.227   2.965 -0.6973  0.4287  2.2065
  956TIP3   OH2 2831   5.186   5.540   0.262 -0.1721  0.0621 -0.0981
  956TIP3    H1 2832   5.231   5.623   0.244  0.2936 -0.4577 -1.4397
  956TIP3    H2 2833   5.168   5.503   0.176 -0.2752 -1.2939  0.4792
  957TIP3   OH2 2834   0.582   3.611   0.909 -0.2108  0.2816 -0.3048
  957TIP3    H1 2835   0.583   3.604   1.005  0.0427  0.0025 -0.3262
  957TIP3    H2 2836   0.625   3.531   0.879 -0.0793  0.4784 -0.6465
  958TIP3   OH2 2837   1.675   6.537   5.415  0.3008 -0.4996 -0.0966
  958TIP3    H1 2838   1.732   6.608   5.387  0.0472  0.3762  1.4690
  958TIP3    H2 2839   1.680   6.472   5.345  2.0190  0.2280 -0.6936
  959TIP3   OH2 2840   1.983   1.848   5.501  0.0758 -0.1568  0.8701
  959TIP3    H1 2841   1.957   1.889   5.419  0.2281 -1.3645  0.1987
  959TIP3    H2 2842   2.040   1.912   5.543 -0.8116  0.8943  0.5271
  960TIP3   OH2 2843   2.743   2.875   4.414  0.6220 -0.1488  0.0165
  960TIP3    H1 2844   2.838   2.879   4.423  0.7775 -1.5770 -0.6318
  960TIP3    H2 2845   2.723   2.933   4.341  0.9581  0.4013  0.3591
  961TIP3   OH2 2846   4.883   0.881   5.215 -0.3908  0.1208 -0.1830
  961TIP3    H1 2847   4.904   0.973   5.196 -1.1857 -0.1608 -2.9416
  961TIP3    H2 2848   4.800   0.885   5.262  0.2226  0.8346  0.8791
  962TIP3   OH2 2849   5.456   4.090   3.323  0.1535 -0.3751  0.2784
  962TIP3    H1 2850   5.503   4.173   3.316 -0.5609  0.0897  0.8612
  962TIP3    H2 2851   5.517   4.025   3.288  0.2980  0.5268 -1.2404
  963TIP3   OH2 2852   6.887   5.385   0.474  0.6500  0.0022 -0.4768
  963TIP3    H1 2853   6.829   5.451   0.437 -1.6575 -2.0239 -0.7221
  963TIP3    H2 2854   6.841   5.354   0.553  1.1213 -1.9687 -0.9138
  964TIP3   OH2 2855   2.070   1.774   5.179 -0.1845 -0.4402  0.3080
  964TIP3    H1 2856   2.124   1.699   5.154  1.0085  0.4359  0.1786
  964TIP3    H2 2857   2.042   1.812   5.096  1.5130  0.8582  0.2816
  965TIP3   OH2 2858   2.433   0.011   3.469 -0.5856 -0.9998 -0.4207
  965TIP3    H1 2859   2.365   0.055   3.417  0.0860 -0.0012 -0.4827
  965TIP3    H2 2860   2.515   0.047   3.435  0.0939 -3.4427 -1.5305
  966TIP3   OH2 2861   6.682   0.242   1.871 -0.4687 -0.9560 -0.1796
  966TIP3    H1 2862   6.765   0.287   1.891 -1.1484  0.1079  0.3350
  966TIP3    H2 2863   6.652   0.282   1.790 -0.4768 -1.3650 -0.3820
  967TIP3   OH2 2864   2.897   2.538   1.366  0.3592 -0.1165 -0.0322
  967TIP3    H1 2865   2.968   2.602   1.358 -1.2422  1.8275  0.5037
  967TIP3    H2 2866   2.864   2.528   1.277  0.0558  0.5239 -0.0019
  968TIP3   OH2 2867   3.407   5.205   1.633 -0.0893 -0.6131 -0.4692
  968TIP3    H1 2868   3.451   5.275   1.682  0.7592 -1.9130  0.7171
  968TIP3    H2 2869   3.455   5.198   1.551  0.2556 -0.2833 -0.2947
  969TIP3   OH2 2870   0.045   0.322   5.409  0.0072  0.5645  0.1590
  969TIP3    H1 2871  -0.049   0.336   5.419  0.2033  1.2713  1.0877
  969TIP3    H2 2872   0.070   0.379   5.336 -0.1411  1.0326  0.4675
  970TIP3   OH2 2873   6.338   5.426   3.190 -0.0102  0.7609 -0.9877
  970TIP3    H1 2874   6.292   5.362   3.136  0.0541 -1.1671  1.1155
  970TIP3    H2 2875   6.422   5.384   3.212  0.3413  1.8577 -0.1223
  971TIP3   OH2 2876   7.155   4.690   2.075  0.4909 -0.0989 -0.1550
  971TIP3    H1 2877   7.156   4.783   2.101  0.4095 -0.0897 -0.1830
  971TIP3    H2 2878   7.167   4.642   2.157 -2.1770 -0.1465  0.3254
  972TIP3   OH2 2879   4.509   5.081   5.080  0.2925 -0.0437  0.2557
  972TIP3    H1 2880   4.454   5.006   5.101  1.9972 -1.8762 -1.3689
  972TIP3    H2 2881   4.447   5.151   5.058 -1.3623 -0.4813  3.0632
  973TIP3   OH2 2882   0.425   0.899   0.391 -0.1624  0.4289 -0.5893
  973TIP3    H1 2883   0.346   0.891   0.444 -2.4369  0.3271 -3.7220
  973TIP3    H2 2884   0.473   0.972   0.430 -1.6453  0.3867  1.5191
  974TIP3   OH2 2885   0.137   1.175   0.494  0.2596 -0.1721  0.2863
  974TIP3    H1 2886   0.178   1.261   0.490  1.8184 -0.7896  1.6058
  974TIP3    H2 2887   0.088   1.167   0.412 -0.9828  2.4408  0.6946
  975TIP3   OH2 2888   1.376   0.475   2.062 -0.6986 -0.9148  0.2787
  975TIP3    H1 2889   1.415   0.562   2.055 -0.5209 -0.8397  1.7492
  975TIP3    H2 2890   1.284   0.488   2.040 -1.0041 -0.0281  1.8744
  976TIP3   OH2 2891   6.784   3.584   2.149  0.0760  0.0233  0.0674
  976TIP3    H1 2892   6.860   3.531   2.123  0.9088  0.9327  0.5654
  976TIP3    H2 2893   6.748   3.617   2.067  0.8756  0.4540 -0.1185
  977TIP3   OH2 2894   0.293   1.323   4.465 -0.2989 -0.2087  0.0732
  977TIP3    H1 2895   0.332   1.264   4.401  1.1714  0.8649 -0.0881
  977TIP3    H2 2896   0.363   1.384   4.487 -0.8327 -0.4110  2.5740
  978TIP3   OH2 2897   1.457   4.620   2.809 -0.6961 -0.1187 -0.4544
  978TIP3    H1 2898   1.451   4.711   2.837 -0.8970  0.2654 -1.7038
  978TIP3    H2 2899   1.505   4.576   2.880 -0.8326  0.8901  0.2786
  979TIP3   OH2 2900   0.508   0.254   5.131 -0.1977  0.6023 -0.3063
  979TIP3    H1 2901   0.441   0.262   5.199  0.9747  0.4590  0.9142
  979TIP3    H2 2902   0.586   0.225   5.178  0.2970 -0.8934 -1.9398
  980TIP3   OH2 2903   3.598   2.806   3.726 -0.6661 -0.2022  0.5729
  980TIP3    H1 2904   3.589   2.774   3.636 -0.7153 -1.9849  1.1744
  980TIP3    H2 2905   3.623   2.898   3.717 -0.5801 -0.3792 -1.2551
  981TIP3   OH2 2906   5.474   5.019   3.944 -0.3234 -0.4319 -0.9502
  981TIP3    H1 2907   5.569   5.019   3.950 -0.3959 -1.3801  0.8767
  981TIP3    H2 2908   5.450   4.926   3.938 -1.2068 -0.4737  1.6530
  982TIP3   OH2 2909   0.307   3.900   0.279 -0.5841  0.1702  0.3244
  982TIP3    H1 2910   0.321   3.890   0.373 -1.9290 -1.7894  0.3632
  982TIP3    H2 2911   0.384   3.947   0.248  1.8766 -2.6131  1.7876
  983TIP3   OH2 2912   0.353   3.798   4.034 -0.1219  0.5448  0.4875
  983TIP3    H1 2913   0.280   3.829   4.087 -0.5700  0.6035 -0.1544
  983TIP3    H2 2914   0.431   3.820   4.085 -0.5859 -0.7873  1.8509
  984TIP3   OH2 2915   3.268   5.292   3.330 -0.2283 -0.6174 -0.2078
  984TIP3    H1 2916   3.212   5.301   3.407 -1.1167  0.9145 -0.9999
  984TIP3    H2 2917   3.252   5.371   3.279  0.2598 -1.6552 -2.0298
  985TIP3   OH2 2918   1.903   1.853   2.616 -0.0553  0.6554  0.3736
  985TIP3    H1 2919   1.831   1.837   2.677  0.2701 -1.0871  0.3420
  985TIP3    H2 2920   1.903   1.778   2.558  1.9974  0.4348  0.5803
  986TIP3   OH2 2921   3.653   1.145   0.967  0.2936  0.6270  0.3397
  986TIP3    H1 2922   3.748   1.141   0.963  0.2944  0.3950  0.5238
  986TIP3    H2 2923   3.629   1.081   1.035 -0.1642 -1.6167 -1.7865
  987TIP3   OH2 2924   4.329   3.025   2.458 -0.1537 -0.6932 -0.7797
  987TIP3    H1 2925   4.419   3.021   2.426  0.5550  0.4315  0.9028
  987TIP3    H2 2926   4.331   2.981   2.543 -1.2799 -0.9548 -0.8706
  988TIP3   OH2 2927   2.357   5.545   5.205  0.1992 -0.2788 -0.0858
  988TIP3    H1 2928   2.332   5.636   5.188  1.5020  0.5447  2.0259
  988TIP3    H2 2929   2.283   5.509   5.254 -1.7521 -1.4337 -3.5885
  989TIP3   OH2 2930   7.034   1.876   0.892  0.0101 -0.2472  0.5067
  989TIP3    H1 2931   7.050   1.969   0.903 -1.1095 -0.1862  1.8482
  989TIP3    H2 2932   6.988   1.849   0.971  0.4735 -1.9858  0.2416
  990TIP3   OH2 2933   5.415   0.924   3.811 -0.2134  0.0227  0.4476
  990TIP3    H1 2934   5.487   0.976   3.775  1.0061 -1.6873  0.3150
  990TIP3    H2 2935   5.339   0.950   3.759  0.5438  0.9915 -0.2218
  991TIP3   OH2 2936   2.142   1.861   4.308  0.2653  0.0898 -0.3537
  991TIP3    H1 2937   2.129   1.950   4.341 -0.1281  0.1407 -0.6495
  991TIP3    H2 2938   2.136   1.870   4.213 -0.8923 -0.4360 -0.3349
  992TIP3   OH2 2939   0.449   1.564   4.468  0.4415 -0.0572  0.0469
  992TIP3    H1 2940   0.513   1.501   4.501  2.5645  1.9207 -0.0374
  992TIP3    H2 2941   0.394   1.584   4.544  0.4398 -1.1343  0.3533
  993TIP3   OH2 2942   6.692   5.140   2.905 -0.1405 -0.1445 -0.0232
  993TIP3    H1 2943   6.736   5.106   2.983 -0.4746  0.2804  0.3539
  993TIP3    H2 2944   6.762   5.148   2.840  0.2306 -0.0273  0.3873
  994TIP3   OH2 2945   1.490   1.235   0.882 -0.2726 -0.1211 -0.2369
  994TIP3    H1 2946   1.514   1.143   0.869 -1.6334 -0.7218  1.1377
  994TIP3    H2 2947   1.572   1.278   0.907  0.0298 -1.4408  1.2028
  995TIP3   OH2 2948   4.679   6.026   2.367  0.2916  0.2183  0.0296
  995TIP3    H1 2949   4.623   5.980   2.429  0.3786  0.1232  0.0387
  995TIP3    H2 2950   4.673   5.975   2.286 -0.6516  0.9269 -0.3664
  996TIP3   OH2 2951   4.783   0.514   5.376 -0.4425 -0.5740  0.3097
  996TIP3    H1 2952   4.763   0.545   5.288  0.6800 -0.3351  0.1198
  996TIP3    H2 2953   4.773   0.418   5.370  0.0988 -0.6064 -0.2149
  997TIP3   OH2 2954   2.564   1.664   4.362  0.0285 -0.1621 -0.0572
  997TIP3    H1 2955   2.506   1.687   4.289  1.5260  1.9521 -0.6749
  997TIP3    H2 2956   2.648   1.644   4.321  0.3409 -1.0413  0.9655
  998TIP3   OH2 2957   1.923   6.604   0.924  0.3774 -0.4022 -0.1642
  998TIP3    H1 2958   1.859   6.555   0.976 -1.9486  1.6870 -0.8658
  998TIP3    H2 2959   1.995   6.620   0.984 -0.2809 -1.7916  1.0603
  999TIP3   OH2 2960   6.610   2.289   3.209 -0.0838 -0.4799 -0.2000
  999TIP3    H1 2961   6.646   2.206   3.178 -0.5118 -0.4781 -0.7096
  999TIP3    H2 2962   6.569   2.328   3.132 -1.0862 -0.4334  0.3301
 1000TIP3   OH2 2963   6.112   5.913   4.419 -0.0419 -0.0742  0.3855
 1000TIP3    H1 2964   6.072   5.826   4.426 -0.2392  0.1055  1.6658
 1000TIP3    H2 2965   6.119   5.928   4.325  0.2925 -1.6058  0.1388
 1001TIP3   OH2 2966   4.146   5.655   4.254  0.3020  0.0370 -0.3492
 1001TIP3    H1 2967   4.052   5.670   4.244  0.4431  1.7549  0.4047
 1001TIP3    H2 2968   4.187   5.730   4.210  1.2406  0.2567  0.8267
 1002TIP3   OH2 2969   4.606   3.763   4.259 -0.2644  0.0688 -0.1043
 1002TIP3    H1 2970   4.560   3.844   4.238  0.5275  0.4227 -0.5154
 1002TIP3    H2 2971   4.698   3.787   4.257 -0.0449 -0.6842  0.4704
 1003TIP3   OH2 2972   2.048   6.700   1.146 -0.6924 -0.1115 -0.0922
 1003TIP3    H1 2973   2.046   6.789   1.110  0.7912 -0.2126 -0.5034
 1003TIP3    H2 2974   2.015   6.709   1.235 -0.5413  0.8700 -0.1239
 1004TIP3   OH2 2975   1.212   3.643   1.259  0.4763 -0.3134 -0.4218
 1004TIP3    H1 2976   1.156   3.631   1.182 -1.3159 -1.7126  1.0145
 1004TIP3    H2 2977   1.255   3.559   1.271  0.8256 -0.0713  0.0434
 1005TIP3   OH2 2978   6.782   1.838   5.735  0.2132 -0.0359 -0.5693
 1005TIP3    H1 2979   6.724   1.798   5.800  0.6010 -0.4686 -0.4834
 1005TIP3    H2 2980   6.829   1.905   5.784 -1.4104  1.5139 -1.0143
 1006TIP3   OH2 2981   7.012   5.689   2.138 -0.3729  0.5385 -0.0044
 1006TIP3    H1 2982   7.063   5.769   2.146 -0.7327  0.7346  0.3078
 1006TIP3    H2 2983   7.026   5.661   2.047  0.6360  0.3538  0.1969
 1007TIP3   OH2 2984   6.434   2.450   3.903 -0.6742  0.0380  0.0407
 1007TIP3    H1 2985   6.422   2.526   3.961 -0.4705  0.5389 -0.5671
 1007TIP3    H2 2986   6.356   2.448   3.849 -1.6571 -1.4212  1.4171
 1008TIP3   OH2 2987   4.153   3.383   2.645 -0.1171 -0.4509 -0.0015
 1008TIP3    H1 2988   4.115   3.333   2.572  0.0713 -1.4741  0.5784
 1008TIP3    H2 2989   4.246   3.389   2.623  0.1180 -1.6175  0.6141
 1009TIP3   OH2 2990   5.694   4.300   1.465  0.0948  0.0268  1.0158
 1009TIP3    H1 2991   5.748   4.222   1.460 -0.7969 -0.5306 -0.7021
 1009TIP3    H2 2992   5.610   4.269   1.500 -0.7169 -0.1127 -0.9060
 1010TIP3   OH2 2993   2.290   6.190   0.245  0.8074 -0.1945 -0.1281
 1010TIP3    H1 2994   2.230   6.187   0.171  0.7537  0.2594 -0.1077
 1010TIP3    H2 2995   2.346   6.114   0.234  0.4304 -0.4454 -0.3219
 1011TIP3   OH2 2996   3.024   6.422   1.090  0.2413  0.5784 -0.0268
 1011TIP3    H1 2997   2.970   6.455   1.018 -0.4016  3.2268  1.5367
 1011TIP3    H2 2998   2.985   6.460   1.169  0.6010 -2.6386  1.8568
 1012TIP3   OH2 2999   0.217   1.932   2.471 -0.2189 -0.2034  0.2496
 1012TIP3    H1 3000   0.196   1.944   2.564  1.2704  1.6534  0.4082
 1012TIP3    H2 3001   0.313   1.931   2.469 -0.2244 -2.0401 -1.0991
 1013TIP3   OH2 3002   5.016   1.562   3.026  0.9185 -0.1319 -0.5675
 1013TIP3    H1 3003   5.085   1.496   3.034  1.6949  0.6313 -0.7988
 1013TIP3    H2 3004   5.019   1.588   2.933  0.2181 -0.1997 -0.6093
 1014TIP3   OH2 3005   4.906   4.139   3.414  0.2408 -0.2961 -0.2055
 1014TIP3    H1 3006   4.843   4.153   3.343 -0.4787  0.2880  0.5341
 1014TIP3    H2 3007   4.870   4.188   3.488  3.2315  2.9752 -0.6470
 1015TIP3   OH2 3008   3.572   3.822   0.871  0.1566 -0.3302  0.1154
 1015TIP3    H1 3009   3.650   3.817   0.927  0.9295 -0.5857 -0.9341
 1015TIP3    H2 3010   3.539   3.910   0.884  2.2832  0.8146 -1.4739
 1016TIP3   OH2 3011   0.448   6.461   2.265 -0.1134 -0.6422  0.3091
 1016TIP3    H1 3012   0.404   6.421   2.341  0.3434  1.3207  1.7034
 1016TIP3    H2 3013   0.382   6.520   2.228  0.0424 -0.7161 -0.0880
 1017TIP3   OH2 3014   2.168   4.440   0.917  0.0354  0.4122  0.3964
 1017TIP3    H1 3015   2.230   4.508   0.891  0.2368 -0.5634 -1.9522
 1017TIP3    H2 3016   2.211   4.358   0.895 -2.7907 -0.3188 -3.7511
 1018TIP3   OH2 3017   4.274   0.602   3.388 -0.5352  0.1209  0.7976
 1018TIP3    H1 3018   4.362   0.568   3.396 -0.3335  0.5189  0.3348
 1018TIP3    H2 3019   4.278   0.664   3.315 -1.2656 -0.0892  0.5620
 1019TIP3   OH2 3020   0.359   0.949   2.992  0.5861  0.4785 -0.2193
 1019TIP3    H1 3021   0.439   0.949   3.045  1.2886 -2.6810 -1.0778
 1019TIP3    H2 3022   0.296   0.899   3.043 -0.4294  1.7593 -0.1725
 1020TIP3   OH2 3023   3.736   3.806   4.757  0.1746 -0.2283 -0.0907
 1020TIP3    H1 3024   3.720   3.894   4.792  0.4609 -0.2944  0.2125
 1020TIP3    H2 3025   3.768   3.756   4.832  0.2473 -0.5262 -0.3193
 1021TIP3   OH2 3026   2.849   6.212   3.922 -0.2187  0.8881 -0.2984
 1021TIP3    H1 3027   2.874   6.227   3.830 -0.0924 -0.0381 -0.4177
 1021TIP3    H2 3028   2.776   6.273   3.936 -0.2038  1.0840 -0.9958
 1022TIP3   OH2 3029   4.559   4.202   1.120 -0.0081 -0.2393  0.0634
 1022TIP3    H1 3030   4.484   4.221   1.176 -1.0072 -2.3358 -0.4560
 1022TIP3    H2 3031   4.624   4.164   1.179 -0.4295 -0.9518  0.0734
 1023TIP3   OH2 3032   4.312   6.249   3.295 -0.1991 -0.0113  0.2932
 1023TIP3    H1 3033   4.271   6.210   3.372 -3.6155  1.4398 -0.6151
 1023TIP3    H2 3034   4.302   6.343   3.307  2.7884  0.4735 -0.1890
 1024TIP3   OH2 3035   5.114   6.040   1.450  0.0815  0.7263 -0.1811
 1024TIP3    H1 3036   5.139   6.063   1.360  1.3871  0.4845  0.0916
 1024TIP3    H2 3037   5.188   6.068   1.503 -0.7380  0.9945  0.8516
 1025TIP3   OH2 3038   4.374   5.524   4.348 -0.2156  0.5095 -0.1956
 1025TIP3    H1 3039   4.312   5.596   4.350  0.1800  0.8454  0.1754
 1025TIP3    H2 3040   4.358   5.480   4.265 -0.7396  0.7760 -0.2359
 1026TIP3   OH2 3041   3.994   6.758   1.493  0.2628  0.3361  0.0853
 1026TIP3    H1 3042   3.971   6.840   1.451 -0.4270  0.8415  1.3955
 1026TIP3    H2 3043   3.910   6.721   1.521  0.5846 -0.6926 -0.2456
 1027TIP3   OH2 3044   5.690   4.677   0.857  0.4968  0.5015  0.3896
 1027TIP3    H1 3045   5.719   4.656   0.946  0.4904 -0.4427  0.1693
 1027TIP3    H2 3046   5.607   4.632   0.848  1.1897 -0.6212 -0.6028
 1028TIP3   OH2 3047   2.937   4.291   3.199  0.3222 -0.3154  0.2403
 1028TIP3    H1 3048   2.894   4.212   3.233 -1.7391  0.5150 -0.2754
 1028TIP3    H2 3049   2.935   4.352   3.273 -1.0746  0.3326 -0.3038
 1029TIP3   OH2 3050   5.999   4.323   2.059  0.5940 -0.4117  0.1983
 1029TIP3    H1 3051   5.957   4.239   2.039  0.5078 -0.3796  0.2408
 1029TIP3    H2 3052   5.985   4.334   2.153  1.6491 -0.9259  0.4268
 1030TIP3   OH2 3053   5.114   3.970   3.355 -0.0140  0.5759 -0.5984
 1030TIP3    H1 3054   5.025   4.005   3.360  0.6286  2.3253 -0.3441
 1030TIP3    H2 3055   5.159   4.009   3.430  0.3438 -2.3580  0.8551
 1031TIP3   OH2 3056   3.606   1.039   0.561 -0.0410 -0.5076 -0.6922
 1031TIP3    H1 3057   3.516   1.019   0.587  0.1362 -1.6539 -0.9059
 1031TIP3    H2 3058   3.646   0.953   0.547  1.1690 -0.0193 -0.3230
 1032TIP3   OH2 3059   1.303   3.374   2.855  0.0684 -0.0604  0.3166
 1032TIP3    H1 3060   1.371   3.353   2.792  1.1286 -1.0858  1.7669
 1032TIP3    H2 3061   1.249   3.295   2.861 -0.7776  0.4581 -0.2012
 1033TIP3   OH2 3062   7.086   0.997   0.379 -0.5292 -0.5323  0.3118
 1033TIP3    H1 3063   7.026   1.071   0.375 -0.2136 -0.2048  1.2282
 1033TIP3    H2 3064   7.153   1.017   0.313 -1.7324 -1.2132 -1.1668
 1034TIP3   OH2 3065   5.651   2.686   1.890 -0.2703  0.2229  0.2684
 1034TIP3    H1 3066   5.666   2.625   1.819  1.6062  0.4213  0.4388
 1034TIP3    H2 3067   5.558   2.676   1.912 -0.9210  0.2427 -2.2406
 1035TIP3   OH2 3068   3.736   3.527   2.701  0.1694 -0.0680  0.3101
 1035TIP3    H1 3069   3.813   3.539   2.645  1.3953 -0.8289  1.7590
 1035TIP3    H2 3070   3.662   3.525   2.640  1.2566  0.9253 -1.1075
 1036TIP3   OH2 3071   3.465   3.272   3.592 -0.0527  0.0864 -0.7515
 1036TIP3    H1 3072   3.405   3.266   3.666 -0.0553 -0.1816 -0.7758
 1036TIP3    H2 3073   3.425   3.337   3.534  0.4300  1.0340 -0.0689
 1037TIP3   OH2 3074   5.956   1.214   3.257 -0.4343  0.1849 -0.0803
 1037TIP3    H1 3075   6.011   1.146   3.297 -0.3965  1.1680  1.6739
 1037TIP3    H2 3076   5.931   1.179   3.172  1.4768 -1.0349 -0.1954
 1038TIP3   OH2 3077   0.528   3.016   4.267 -0.6137  0.8868 -0.4956
 1038TIP3    H1 3078   0.519   3.060   4.351 -2.4305 -2.1736  1.0811
 1038TIP3    H2 3079   0.462   3.057   4.211 -0.3591  1.9904 -0.0241
 1039TIP3   OH2 3080   6.396   0.897   1.408  0.2216  0.6086 -0.3354
 1039TIP3    H1 3081   6.433   0.985   1.406  0.6399  0.4503  0.3052
 1039TIP3    H2 3082   6.302   0.910   1.391  0.3352  1.1415 -0.5637
 1040TIP3   OH2 3083   5.290   2.049   3.569  0.5593  0.5616  0.0643
 1040TIP3    H1 3084   5.361   2.007   3.520  0.1712  0.0253 -0.0488
 1040TIP3    H2 3085   5.328   2.130   3.602  0.9186  0.7836 -0.8746
 1041TIP3   OH2 3086   5.881   3.209   3.120  0.8007 -0.0988  0.4682
 1041TIP3    H1 3087   5.823   3.142   3.085  0.0422 -0.4339  2.2898
 1041TIP3    H2 3088   5.896   3.268   3.046 -0.1499 -1.1592 -0.6068
 1042TIP3   OH2 3089   0.325   3.787   3.317  0.0307  0.4401  0.3792
 1042TIP3    H1 3090   0.298   3.706   3.274 -0.9113  0.3295  1.1409
 1042TIP3    H2 3091   0.298   3.857   3.258 -0.7009  0.2652  0.4999
 1043TIP3   OH2 3092   3.082   5.534   4.774 -0.3550  0.0124  0.6068
 1043TIP3    H1 3093   3.085   5.552   4.680 -1.9311 -0.5693  0.4075
 1043TIP3    H2 3094   3.123   5.610   4.815  0.9594 -0.0313 -0.5624
 1044TIP3   OH2 3095   4.007   0.010   1.042 -0.4443 -0.3440 -0.3060
 1044TIP3    H1 3096   4.048   0.001   0.956 -0.4651 -0.0120 -0.3479
 1044TIP3    H2 3097   4.005   0.104   1.059  0.6392 -0.4572  0.5693
 1045TIP3   OH2 3098   1.508   5.191   0.317 -0.0120 -0.3091 -0.6153
 1045TIP3    H1 3099   1.453   5.216   0.392 -0.2060  0.3653 -0.9754
 1045TIP3    H2 3100   1.449   5.140   0.261  0.3297 -1.4545  0.0221
 1046TIP3   OH2 3101   3.108   3.010   4.915  0.4198  0.3507 -0.4452
 1046TIP3    H1 3102   3.167   3.084   4.903 -0.8708  1.3238 -0.9631
 1046TIP3    H2 3103   3.020   3.046   4.901 -0.4208 -0.7752  1.4873
 1047TIP3   OH2 3104   1.483   5.604   1.143 -0.1561  0.6992  0.6605
 1047TIP3    H1 3105   1.496   5.605   1.049 -2.7562  2.0205  0.2072
 1047TIP3    H2 3106   1.569   5.583   1.180  0.8093 -0.3401 -1.9818
 1048TIP3   OH2 3107   3.867   2.045   3.836  0.3376 -0.5624  0.2605
 1048TIP3    H1 3108   3.808   1.989   3.785  1.6048 -0.9427 -0.8246
 1048TIP3    H2 3109   3.896   2.112   3.774  1.8400 -0.9812  0.4738
 1049TIP3   OH2 3110   2.645   2.542   0.689 -0.0332 -0.6868  0.8209
 1049TIP3    H1 3111   2.605   2.499   0.764  0.4780 -0.6448  1.1207
 1049TIP3    H2 3112   2.735   2.560   0.716  0.2754 -1.0342  0.0637
 1050TIP3   OH2 3113   0.731   6.143   1.459 -0.6818 -0.6094 -0.1950
 1050TIP3    H1 3114   0.730   6.076   1.528 -0.8552  0.7644  1.2024
 1050TIP3    H2 3115   0.657   6.200   1.481  0.1395  0.6866 -0.6674
 1051TIP3   OH2 3116   4.455   4.947   1.624 -0.4362  0.0606 -0.0226
 1051TIP3    H1 3117   4.383   4.990   1.670  0.2923  0.3975  0.8322
 1051TIP3    H2 3118   4.502   4.900   1.693 -0.7423 -1.4572 -0.8097
 1052TIP3   OH2 3119   6.798   1.471   1.549  0.5265  0.1474  0.2444
 1052TIP3    H1 3120   6.881   1.423   1.544  0.0354 -0.6482 -0.4070
 1052TIP3    H2 3121   6.778   1.492   1.458  0.5021  1.2046  0.4839
 1053TIP3   OH2 3122   1.266   5.652   1.980  0.6510 -0.6369  0.1013
 1053TIP3    H1 3123   1.234   5.562   1.975  1.4529 -0.9301  0.2118
 1053TIP3    H2 3124   1.309   5.667   1.896 -0.0358 -0.1360 -0.1694
 1054TIP3   OH2 3125   5.403   1.555   5.136  0.0683 -0.2372 -0.4870
 1054TIP3    H1 3126   5.373   1.523   5.051  1.1212  0.8010 -1.2696
 1054TIP3    H2 3127   5.402   1.477   5.192 -1.8372 -0.7001 -1.0698
 1055TIP3   OH2 3128   4.567   5.649   3.613  0.0730  0.6901 -0.2723
 1055TIP3    H1 3129   4.540   5.559   3.596  1.1833  0.8411 -3.4629
 1055TIP3    H2 3130   4.662   5.643   3.624 -0.1377  1.1958  2.3705
 1056TIP3   OH2 3131   4.490   2.557   3.027 -0.2878 -0.1259 -0.2953
 1056TIP3    H1 3132   4.498   2.544   2.933 -1.5260  1.0935 -0.5978
 1056TIP3    H2 3133   4.409   2.512   3.051 -0.6535  0.6385 -0.0582
 1057TIP3   OH2 3134   3.593   1.551   3.040  0.1190 -0.3966 -0.8036
 1057TIP3    H1 3135   3.618   1.459   3.034  0.8710 -0.3197  0.7210
 1057TIP3    H2 3136   3.598   1.583   2.950 -0.4622 -1.9077 -1.4091
 1058TIP3   OH2 3137   4.400   2.282   5.030  0.5298  0.0276 -0.0737
 1058TIP3    H1 3138   4.485   2.289   5.074  1.2452  0.9878 -1.5254
 1058TIP3    H2 3139   4.421   2.248   4.944 -0.5480  0.4376 -0.5157
 1059TIP3   OH2 3140   6.334   0.022   2.229 -0.3820 -0.8220  0.2167
 1059TIP3    H1 3141   6.403   0.033   2.295 -0.8645 -0.9242  0.7483
 1059TIP3    H2 3142   6.381   0.013   2.146  0.2122  0.0909  0.4411
 1060TIP3   OH2 3143   5.501   2.900   3.818  0.2673  0.5752 -0.3746
 1060TIP3    H1 3144   5.415   2.941   3.820  1.0783  2.4071  0.9220
 1060TIP3    H2 3145   5.535   2.911   3.907  1.3471 -1.2550 -0.5037
 1061TIP3   OH2 3146   6.121   6.747   2.147 -0.5607  0.1313 -1.0167
 1061TIP3    H1 3147   6.173   6.730   2.067 -1.3172  0.7039 -1.6438
 1061TIP3    H2 3148   6.065   6.821   2.124 -0.4837  0.5920  0.2046
 1062TIP3   OH2 3149   3.840   4.381   5.122  0.5325 -0.3270 -0.1515
 1062TIP3    H1 3150   3.748   4.376   5.093  0.6268 -0.3892 -0.4420
 1062TIP3    H2 3151   3.843   4.461   5.175  0.1579 -0.6802  0.4191
 1063TIP3   OH2 3152   0.301   4.649   2.932 -0.4809 -0.7465  0.0213
 1063TIP3    H1 3153   0.353   4.573   2.959 -0.1358 -0.3986  0.3424
 1063TIP3    H2 3154   0.216   4.636   2.974 -0.1949 -0.6017  0.6622
 1064TIP3   OH2 3155   3.664   2.119   5.400 -0.5386  0.2984 -0.1525
 1064TIP3    H1 3156   3.675   2.046   5.340  1.0499 -0.5611  1.1058
 1064TIP3    H2 3157   3.752   2.152   5.415 -0.7692  0.0436  2.1947
 1065TIP3   OH2 3158   5.444   1.151   3.983  0.0318 -0.4539  0.0634
 1065TIP3    H1 3159   5.401   1.122   3.902 -1.2714 -1.1976  0.9835
 1065TIP3    H2 3160   5.444   1.074   4.040  3.2303 -0.7084 -0.0737
 1066TIP3   OH2 3161   2.967   0.486   1.612 -0.0112 -0.5966  0.1473
 1066TIP3    H1 3162   3.053   0.519   1.586 -0.5370  0.8632  0.2149
 1066TIP3    H2 3163   2.972   0.479   1.708  0.1348 -0.8593  0.1238
 1067TIP3   OH2 3164   0.807   3.450   0.120 -0.4120 -0.3681 -0.4224
 1067TIP3    H1 3165   0.741   3.517   0.135  1.0755  0.9450  0.5469
 1067TIP3    H2 3166   0.873   3.465   0.189  0.6523 -1.9214 -1.0483
 1068TIP3   OH2 3167   1.736   0.263   4.623  0.4177 -0.4562 -0.1450
 1068TIP3    H1 3168   1.800   0.272   4.553  0.4015 -1.5319 -0.3079
 1068TIP3    H2 3169   1.685   0.344   4.619  0.0421 -0.7349 -1.7591
 1069TIP3   OH2 3170   5.892   0.680   4.800 -0.2940  0.3746  0.2847
 1069TIP3    H1 3171   5.885   0.591   4.764  0.7125 -0.3838  1.8337
 1069TIP3    H2 3172   5.855   0.673   4.888 -0.5855  1.6030  0.2657
 1070TIP3   OH2 3173   5.053   3.131   3.313 -0.3482  0.3695 -0.3528
 1070TIP3    H1 3174   5.143   3.161   3.302 -1.2155  3.2523 -0.3047
 1070TIP3    H2 3175   5.013   3.139   3.226 -0.9216  0.3987 -0.0968
 1071TIP3   OH2 3176   6.278   3.938   5.815 -0.1827 -0.1616  0.1609
 1071TIP3    H1 3177   6.221   3.868   5.847 -0.7131  0.5624  0.8106
 1071TIP3    H2 3178   6.350   3.891   5.771 -1.1187 -1.0877 -0.4366
 1072TIP3   OH2 3179   0.157   6.502   4.558  0.4112 -0.3885  0.1609
 1072TIP3    H1 3180   0.135   6.498   4.651 -0.3426  3.1440  0.2588
 1072TIP3    H2 3181   0.246   6.538   4.557 -0.2973  1.4492 -0.4303
 1073TIP3   OH2 3182   2.144   3.912   1.112 -0.3620 -0.2636 -0.1909
 1073TIP3    H1 3183   2.151   3.896   1.206 -1.2524  1.5335  0.2194
 1073TIP3    H2 3184   2.070   3.859   1.084 -0.7651  0.0232  0.3323
 1074TIP3   OH2 3185   2.226   4.469   5.497  0.0250 -0.5458  0.4151
 1074TIP3    H1 3186   2.190   4.451   5.410  0.6521 -0.0431  0.0413
 1074TIP3    H2 3187   2.274   4.390   5.519 -0.6109 -0.9005  0.5610
 1075TIP3   OH2 3188   2.570   5.831   2.821 -0.4886  0.0543 -0.0461
 1075TIP3    H1 3189   2.495   5.780   2.791 -0.9249  0.2089  0.7531
 1075TIP3    H2 3190   2.645   5.773   2.810 -1.0169 -0.8694  1.1223
 1076TIP3   OH2 3191   5.750   4.985   2.889  0.0101 -0.1841 -0.4369
 1076TIP3    H1 3192   5.746   5.073   2.925 -0.4719  0.3200 -1.6646
 1076TIP3    H2 3193   5.661   4.951   2.897  0.7658 -1.7922  2.8462
 1077TIP3   OH2 3194   4.480   6.274   3.891  0.1746  0.6056 -0.1544
 1077TIP3    H1 3195   4.401   6.235   3.853  0.4341 -0.1201  0.0361
 1077TIP3    H2 3196   4.485   6.360   3.851  1.2605 -0.6343 -2.9832
 1078TIP3   OH2 3197   2.674   6.057   4.113 -0.0202  0.3807  0.1941
 1078TIP3    H1 3198   2.713   5.992   4.172  0.3686 -0.9491 -1.4178
 1078TIP3    H2 3199   2.741   6.070   4.045  0.0179  2.7107  0.6047
 1079TIP3   OH2 3200   5.007   0.680   5.353 -0.5025 -0.1238 -0.0247
 1079TIP3    H1 3201   4.951   0.610   5.388 -0.7698 -0.3096 -0.7886
 1079TIP3    H2 3202   4.945   0.747   5.324 -0.2280  0.6368  1.1054
 1080TIP3   OH2 3203   4.070   6.740   3.500 -0.5217 -0.2698  0.2758
 1080TIP3    H1 3204   4.034   6.829   3.492 -0.8270 -0.2773  1.4951
 1080TIP3    H2 3205   4.159   6.747   3.465 -0.0174  0.8672  1.7179
 1081TIP3   OH2 3206   6.838   1.636   2.715  0.3109  0.0726  0.7071
 1081TIP3    H1 3207   6.782   1.566   2.749 -0.3769  0.1242 -0.2881
 1081TIP3    H2 3208   6.925   1.596   2.709 -0.4050 -1.3308 -1.5852
 1082TIP3   OH2 3209   0.393   6.274   4.100  0.5183 -0.0954 -0.7722
 1082TIP3    H1 3210   0.472   6.315   4.138 -0.1677 -0.3767  1.0782
 1082TIP3    H2 3211   0.382   6.193   4.150 -2.5003  1.2874  1.0593
 1083TIP3   OH2 3212   7.072   5.939   1.875  0.5865 -0.3918 -0.2145
 1083TIP3    H1 3213   7.065   6.031   1.849 -0.0587 -0.5644 -0.6693
 1083TIP3    H2 3214   7.126   5.899   1.807  2.0082 -0.0809  0.6975
 1084TIP3   OH2 3215   6.262   6.552   3.642 -0.2471 -0.1769  0.2466
 1084TIP3    H1 3216   6.189   6.491   3.657  0.5498 -1.2673 -0.1429
 1084TIP3    H2 3217   6.231   6.636   3.676 -2.2698 -0.2380 -1.2075
 1085TIP3   OH2 3218   5.138   3.815   5.237  0.3863 -0.0653 -0.1232
 1085TIP3    H1 3219   5.183   3.781   5.315  0.5916  0.1309 -0.1558
 1085TIP3    H2 3220   5.074   3.876   5.271 -1.4057 -1.9516  0.1042
 1086TIP3   OH2 3221   4.669   5.835   2.155 -0.4056  0.2421 -0.2151
 1086TIP3    H1 3222   4.594   5.854   2.098 -0.9655  1.0819  0.7793
 1086TIP3    H2 3223   4.740   5.887   2.118  0.0821 -1.5483 -1.9413
 1087TIP3   OH2 3224   0.558   2.638   3.205  0.1975 -0.1429  0.3237
 1087TIP3    H1 3225   0.652   2.618   3.202 -0.0389 -1.2670 -0.5359
 1087TIP3    H2 3226   0.516   2.555   3.183 -0.9708  0.5593 -0.1554
 1088TIP3   OH2 3227   2.866   6.265   3.242 -0.3355  0.1977 -0.2658
 1088TIP3    H1 3228   2.879   6.171   3.244 -1.4827  0.0361  1.0633
 1088TIP3    H2 3229   2.824   6.282   3.158  0.5685 -0.3453 -0.8493
 1089TIP3   OH2 3230   6.095   0.919   1.388 -0.5822 -0.2892 -0.1365
 1089TIP3    H1 3231   6.061   0.941   1.475 -1.9594  0.5253 -0.8413
 1089TIP3    H2 3232   6.061   0.831   1.370  0.8544 -1.0553  0.6733
 1090TIP3   OH2 3233   0.144   5.486   2.239 -0.3864  0.1289 -0.2468
 1090TIP3    H1 3234   0.141   5.529   2.154  0.1949 -0.4993 -0.5905
 1090TIP3    H2 3235   0.234   5.498   2.269 -0.7514  0.9069  0.5788
 1091TIP3   OH2 3236   0.400   0.616   5.546  0.5081 -0.4116 -0.2704
 1091TIP3    H1 3237   0.315   0.620   5.590  1.0958  3.0512  0.8369
 1091TIP3    H2 3238   0.403   0.696   5.492  3.3998  0.1043  0.4791
 1092TIP3   OH2 3239   1.847   1.755   3.243 -0.9274 -0.0142  0.5532
 1092TIP3    H1 3240   1.764   1.719   3.276 -0.7928 -0.2998  0.5880
 1092TIP3    H2 3241   1.900   1.768   3.321 -1.7254  2.3020  0.7964
 1093TIP3   OH2 3242   2.191   0.710   1.100  0.6505  0.0846  0.4708
 1093TIP3    H1 3243   2.118   0.769   1.118 -1.0307 -1.8433  0.3376
 1093TIP3    H2 3244   2.189   0.647   1.172  1.3229 -0.7994 -0.2646
 1094TIP3   OH2 3245   3.961   5.975   1.326  0.2167 -0.1864  0.1181
 1094TIP3    H1 3246   3.904   6.046   1.297  2.3242  1.7067  0.3949
 1094TIP3    H2 3247   4.013   5.953   1.249  0.6086 -0.4024  0.4425
 1095TIP3   OH2 3248   3.402   1.041   0.012 -0.3054  0.6862  0.4318
 1095TIP3    H1 3249   3.437   1.129   0.027 -0.1626  0.9202 -1.1102
 1095TIP3    H2 3250   3.336   1.029   0.081  0.6210  1.4480  1.4844
 1096TIP3   OH2 3251   0.556   1.769   3.217 -0.0849  0.2761 -0.4920
 1096TIP3    H1 3252   0.539   1.787   3.310 -0.6406 -0.3014 -0.4761
 1096TIP3    H2 3253   0.581   1.854   3.181  0.2920  0.4804  0.2158
 1097TIP3   OH2 3254   6.966   0.371   5.435  0.1661  0.3451  0.1780
 1097TIP3    H1 3255   6.948   0.416   5.353  0.0596  2.7097  1.4272
 1097TIP3    H2 3256   6.897   0.305   5.442  2.2995 -2.6757 -3.3896
 1098TIP3   OH2 3257   3.507   2.256   5.735 -0.4731 -0.0151 -0.6856
 1098TIP3    H1 3258   3.598   2.285   5.745 -0.6319  0.6013 -1.0024
 1098TIP3    H2 3259   3.514   2.169   5.695  0.1112 -1.5414  2.4186
 1099TIP3   OH2 3260   5.156   3.745   0.605  0.1214 -0.4110  0.2135
 1099TIP3    H1 3261   5.125   3.836   0.609  1.7232  0.1569  0.3188
 1099TIP3    H2 3262   5.081   3.696   0.570 -0.2761  1.1775 -1.3148
 1100TIP3   OH2 3263   2.926   6.124   5.147  0.3211  0.2308 -0.3191
 1100TIP3    H1 3264   2.923   6.180   5.225  0.3736  1.5799 -1.2433
 1100TIP3    H2 3265   3.006   6.073   5.156  0.3291  0.3768  0.5032
 1101TIP3   OH2 3266   1.637   5.802   4.135  0.1720  0.0425  0.2915
 1101TIP3    H1 3267   1.628   5.803   4.040 -1.0618 -1.8322  0.3429
 1101TIP3    H2 3268   1.708   5.739   4.151 -0.6656 -0.8431  0.6313
 1102TIP3   OH2 3269   5.966   0.380   1.244 -0.0384  0.2712 -0.1904
 1102TIP3    H1 3270   6.037   0.320   1.222 -0.1621  0.3927 -0.9490
 1102TIP3    H2 3271   5.945   0.360   1.335  0.9242  0.1937  0.0260
 1103TIP3   OH2 3272   4.258   5.925   2.845 -0.1038 -0.0065 -0.1716
 1103TIP3    H1 3273   4.263   5.978   2.765 -1.5467  1.6332  0.7335
 1103TIP3    H2 3274   4.194   5.857   2.824 -2.8925  2.2198  0.3947
 1104TIP3   OH2 3275   2.343   3.229   2.237 -0.0105 -0.2845  0.4739
 1104TIP3    H1 3276   2.327   3.290   2.165 -2.4107 -0.2508  0.9462
 1104TIP3    H2 3277   2.373   3.284   2.309  2.8836 -0.3699 -0.5143
 1105TIP3   OH2 3278   5.428   2.175   0.081 -0.0965 -0.3388 -0.4340
 1105TIP3    H1 3279   5.458   2.116   0.012  0.5175 -0.1379 -0.3398
 1105TIP3    H2 3280   5.333   2.164   0.082 -0.0402 -0.8754 -0.8242
 1106TIP3   OH2 3281   5.733   3.747   2.497  0.5691 -0.0942 -0.0817
 1106TIP3    H1 3282   5.682   3.679   2.541  1.5088 -0.4850  0.4262
 1106TIP3    H2 3283   5.667   3.806   2.461 -0.2493 -0.7918  0.2281
 1107TIP3   OH2 3284   2.926   2.499   4.336  0.0250  0.2120  0.4374
 1107TIP3    H1 3285   3.011   2.469   4.367  0.8654  0.6709 -1.2858
 1107TIP3    H2 3286   2.867   2.485   4.410  1.4102 -0.9191  1.3814
 1108TIP3   OH2 3287   4.379   0.619   4.464 -0.0838  0.2080 -0.1835
 1108TIP3    H1 3288   4.445   0.608   4.532  0.6934  0.2840 -0.9155
 1108TIP3    H2 3289   4.296   0.596   4.507  0.1588  1.8412  1.2537
 1109TIP3   OH2 3290   1.277   0.962   1.366  0.3229 -0.6267 -0.0821
 1109TIP3    H1 3291   1.345   0.897   1.382  1.2668  0.2036 -0.5660
 1109TIP3    H2 3292   1.320   1.028   1.311 -1.1904 -0.6413 -1.3660
 1110TIP3   OH2 3293   4.294   1.410   1.512 -0.3266 -0.0613 -0.6544
 1110TIP3    H1 3294   4.209   1.389   1.550 -0.2441 -1.8239 -1.3084
 1110TIP3    H2 3295   4.314   1.498   1.543 -1.8489 -0.0684  0.4622
 1111TIP3   OH2 3296   5.669   0.754   2.449  0.4923 -0.1217  0.8141
 1111TIP3    H1 3297   5.594   0.814   2.450  1.7695  1.5351  0.2703
 1111TIP3    H2 3298   5.734   0.796   2.505  1.3083 -1.1872  0.6898
 1112TIP3   OH2 3299   0.403   1.665   3.841 -0.0839 -0.1241 -0.0265
 1112TIP3    H1 3300   0.457   1.673   3.762 -0.8619 -0.0861 -0.5591
 1112TIP3    H2 3301   0.429   1.741   3.895 -1.1500  1.1696 -1.2430
 1113TIP3   OH2 3302   6.091   0.272   0.189 -0.2163  0.0201  0.4428
 1113TIP3    H1 3303   6.060   0.349   0.236 -2.8266 -1.9034  2.1969
 1113TIP3    H2 3304   6.130   0.217   0.257  0.1332 -0.8969 -0.4809
 1114TIP3   OH2 3305   3.438   0.419   1.493 -0.0395 -0.0657 -0.0221
 1114TIP3    H1 3306   3.469   0.435   1.403  0.2572  1.0597  0.2536
 1114TIP3    H2 3307   3.492   0.478   1.546 -2.2827  1.5836  0.5498
 1115TIP3   OH2 3308   2.197   1.638   3.519 -0.6914  0.5607 -0.0738
 1115TIP3    H1 3309   2.288   1.664   3.501 -1.2857  2.0872 -1.1681
 1115TIP3    H2 3310   2.202   1.545   3.541  1.0127  0.3290 -1.2336
 1116TIP3   OH2 3311   0.302   6.027   3.703 -0.5753  0.1140  0.4654
 1116TIP3    H1 3312   0.279   6.095   3.641  0.9669 -0.6474 -1.0260
 1116TIP3    H2 3313   0.397   6.036   3.715 -0.3421 -1.6746  0.3046
 1117TIP3   OH2 3314   2.463   5.504   5.902  0.1839 -0.1229 -0.2923
 1117TIP3    H1 3315   2.414   5.521   5.821  0.5354 -2.7744 -1.1820
 1117TIP3    H2 3316   2.501   5.417   5.888  0.0845 -0.7656  2.8270
 1118TIP3   OH2 3317   3.919   2.519   2.066 -0.0305 -0.4413  0.1690
 1118TIP3    H1 3318   3.838   2.468   2.073  0.4396 -1.4016 -0.9855
 1118TIP3    H2 3319   3.955   2.519   2.155 -1.1093 -0.2998  0.6221
 1119TIP3   OH2 3320   3.011   4.781   3.416  0.2493 -0.3166  0.0184
 1119TIP3    H1 3321   3.084   4.807   3.472 -0.1440  0.7683  0.0419
 1119TIP3    H2 3322   3.039   4.697   3.378  1.3083 -0.1361  0.3639
 1120TIP3   OH2 3323   4.966   0.771   3.710  0.2157  0.1357  0.3667
 1120TIP3    H1 3324   5.040   0.712   3.722 -1.5736 -2.5396 -0.7259
 1120TIP3    H2 3325   4.902   0.742   3.775 -0.2711  1.7526  0.6508
 1121TIP3   OH2 3326   6.762   0.782   1.141  0.0487 -0.4485  0.1129
 1121TIP3    H1 3327   6.831   0.839   1.107 -0.4966  1.1740  1.5956
 1121TIP3    H2 3328   6.806   0.699   1.159  1.3594  0.2010  0.0123
 1122TIP3   OH2 3329   0.511   1.070   1.931  0.0531 -0.1540  0.2154
 1122TIP3    H1 3330   0.466   1.019   1.864  0.2013  0.6663 -0.5254
 1122TIP3    H2 3331   0.445   1.087   1.998  0.2204 -2.0585  0.9377
 1123TIP3   OH2 3332   5.181   1.049   3.664 -0.2008  0.2410 -0.3618
 1123TIP3    H1 3333   5.103   1.023   3.712  0.4290  1.5124  1.4432
 1123TIP3    H2 3334   5.152   1.121   3.608 -0.6727 -0.4343 -1.0025
 1124TIP3   OH2 3335   6.068   6.153   2.574  0.3583 -0.7319 -0.0220
 1124TIP3    H1 3336   5.972   6.153   2.570  0.1615  0.9979  2.4407
 1124TIP3    H2 3337   6.092   6.063   2.595 -0.7738 -1.0440 -0.0110
 1125TIP3   OH2 3338   6.265   5.985   2.776  0.8575 -0.3047  0.4159
 1125TIP3    H1 3339   6.196   5.975   2.841  0.1021 -3.5628 -0.7102
 1125TIP3    H2 3340   6.346   5.980   2.826  0.3917  1.9780  1.5589
 1126TIP3   OH2 3341   0.246   1.340   2.022 -0.0442 -0.0334  0.0663
 1126TIP3    H1 3342   0.255   1.341   2.117 -1.9973 -2.8045  0.4287
 1126TIP3    H2 3343   0.185   1.411   2.003 -0.3342 -0.0153  1.0144
 1127TIP3   OH2 3344   1.495   1.068   1.735 -0.4428 -0.0709  0.2020
 1127TIP3    H1 3345   1.512   1.069   1.829 -0.0427  1.0299  0.1335
 1127TIP3    H2 3346   1.400   1.077   1.727 -0.4833 -0.2277  0.4998
 1128TIP3   OH2 3347   1.971   5.641   2.674 -0.1005 -0.9101  0.5407
 1128TIP3    H1 3348   2.018   5.617   2.753  1.9690 -1.0920 -0.6764
 1128TIP3    H2 3349   2.035   5.633   2.604 -1.8368 -0.7137 -1.1749
 1129TIP3   OH2 3350   6.179   4.597   5.494  0.2926  1.1178  0.1383
 1129TIP3    H1 3351   6.256   4.549   5.523  0.7089  2.2911  1.0450
 1129TIP3    H2 3352   6.110   4.572   5.555 -0.2363 -0.3287 -0.9759
 1130TIP3   OH2 3353   4.441   3.129   5.075  0.1152 -0.0806 -0.2999
 1130TIP3    H1 3354   4.402   3.050   5.114 -0.3626 -0.2183 -1.0204
 1130TIP3    H2 3355   4.493   3.096   5.002 -2.2014  0.3741 -2.3190
 1131TIP3   OH2 3356   3.373   2.948   3.865  0.2606  0.1968 -0.0664
 1131TIP3    H1 3357   3.305   2.897   3.910  0.2882  1.1713  1.1055
 1131TIP3    H2 3358   3.448   2.888   3.861 -0.6390 -0.9118 -1.4192
 1132TIP3   OH2 3359   0.749   3.869   1.764  0.0978  0.4913 -0.2727
 1132TIP3    H1 3360   0.756   3.796   1.703 -2.3092  0.2272 -0.3307
 1132TIP3    H2 3361   0.665   3.855   1.808 -0.2717  3.0203 -0.0345
 1133TIP3   OH2 3362   2.947   4.774   0.929 -0.0933 -0.8847  0.1259
 1133TIP3    H1 3363   2.962   4.681   0.942  0.0586 -0.7919  0.6171
 1133TIP3    H2 3364   3.032   4.809   0.902 -0.4558 -1.1178 -1.4266
 1134TIP3   OH2 3365   0.947   3.965   4.256 -0.0447 -0.2493 -0.0779
 1134TIP3    H1 3366   1.035   3.956   4.221 -0.9654 -2.1954 -2.1458
 1134TIP3    H2 3367   0.928   3.879   4.294 -0.5340  0.6213  1.7402
 1135TIP3   OH2 3368   2.376   2.878   0.433  0.5277 -0.3414  0.5498
 1135TIP3    H1 3369   2.374   2.803   0.493 -0.5361 -0.3668  0.5064
 1135TIP3    H2 3370   2.389   2.839   0.346 -0.8939 -0.5734  0.4176
 1136TIP3   OH2 3371   5.279   5.522   2.242 -0.4129  0.5240  0.4981
 1136TIP3    H1 3372   5.233   5.595   2.203  0.0479  1.9928  2.5226
 1136TIP3    H2 3373   5.330   5.484   2.170 -2.4852  0.6517 -1.1240
 1137TIP3   OH2 3374   2.911   1.544   0.857 -0.4193  0.3457 -0.8495
 1137TIP3    H1 3375   2.957   1.591   0.926 -2.2378 -0.3135  0.9266
 1137TIP3    H2 3376   2.827   1.589   0.849 -1.1536 -0.9755 -0.9581
 1138TIP3   OH2 3377   0.184   2.594   5.273  0.0450  0.0886 -0.5893
 1138TIP3    H1 3378   0.123   2.523   5.253 -0.3067  0.4904 -0.9683
 1138TIP3    H2 3379   0.266   2.568   5.231  0.6958 -1.2921  1.3371
 1139TIP3   OH2 3380   6.780   3.735   5.575  0.4711  0.1612  0.1972
 1139TIP3    H1 3381   6.760   3.700   5.488 -0.5950  0.6760  0.2206
 1139TIP3    H2 3382   6.870   3.766   5.568  0.4815 -0.0325 -0.6508
 1140TIP3   OH2 3383   4.628   3.002   5.379 -0.1932 -0.3927  0.3352
 1140TIP3    H1 3384   4.573   2.931   5.413 -0.4901 -0.5114 -0.3683
 1140TIP3    H2 3385   4.677   2.962   5.307  0.4296 -0.1503  0.6152
 1141TIP3   OH2 3386   3.682   4.712   5.185  0.1294  0.3781 -0.3239
 1141TIP3    H1 3387   3.641   4.738   5.102 -1.0393  0.2657  0.2020
 1141TIP3    H2 3388   3.609   4.698   5.245  0.8902 -0.8372  0.3639
 1142TIP3   OH2 3389   3.235   3.824   0.701 -0.4036 -0.3265 -0.1139
 1142TIP3    H1 3390   3.247   3.879   0.624 -0.4068 -0.6017 -0.3126
 1142TIP3    H2 3391   3.165   3.763   0.677  0.0550 -0.8543 -0.1449
 1143TIP3   OH2 3392   0.958   1.304   2.118 -0.4709  0.1158  0.1086
 1143TIP3    H1 3393   1.024   1.367   2.089  0.2601 -0.8801 -0.4803
 1143TIP3    H2 3394   0.875   1.340   2.088 -0.0378  0.6993 -0.4123
 1144TIP3   OH2 3395   0.942   5.548   5.641 -0.0182  0.2724  0.2317
 1144TIP3    H1 3396   0.882   5.588   5.704 -1.0676  1.8577 -1.6425
 1144TIP3    H2 3397   0.915   5.584   5.556  2.8877  0.2069 -0.8459
 1145TIP3   OH2 3398   6.983   1.449   5.153 -0.0376  0.5503 -0.0592
 1145TIP3    H1 3399   7.065   1.479   5.114 -0.0688 -2.0245 -2.4577
 1145TIP3    H2 3400   6.916   1.504   5.113  0.3321  1.0971  0.0726
 1146TIP3   OH2 3401   1.307   5.046   0.982 -0.1978 -0.0301  0.2523
 1146TIP3    H1 3402   1.338   5.135   0.964 -1.8201  0.2916 -1.3141
 1146TIP3    H2 3403   1.223   5.058   1.027 -1.9169 -0.5809 -2.5278
 1147TIP3   OH2 3404   3.583   5.718   4.238  0.1870 -0.2000  0.3478
 1147TIP3    H1 3405   3.500   5.737   4.281 -0.9679  0.8022 -2.0807
 1147TIP3    H2 3406   3.641   5.788   4.266 -0.3956  0.1772  0.6344
 1148TIP3   OH2 3407   4.471   1.307   0.543 -0.2712 -0.3191  0.2368
 1148TIP3    H1 3408   4.499   1.265   0.624  1.1037 -0.1882 -0.1431
 1148TIP3    H2 3409   4.384   1.343   0.563  0.2519  0.1406  1.7969
 1149TIP3   OH2 3410   6.453   2.836   0.334  0.5043 -0.0338  0.6064
 1149TIP3    H1 3411   6.437   2.862   0.243  1.6222  1.0666  0.7012
 1149TIP3    H2 3412   6.544   2.860   0.350  0.3749 -0.3737  1.9697
 1150TIP3   OH2 3413   4.254   5.145   1.627  0.0187  0.2290 -0.1635
 1150TIP3    H1 3414   4.183   5.083   1.640  1.2211 -0.9944  0.8833
 1150TIP3    H2 3415   4.239   5.213   1.693 -0.7686  0.5631 -0.6757
 1151TIP3   OH2 3416   2.623   3.359   2.975  0.2424 -0.3892  0.3261
 1151TIP3    H1 3417   2.531   3.376   2.993  0.6466  0.6618  1.5599
 1151TIP3    H2 3418   2.636   3.388   2.885 -0.7305 -0.9983 -0.0190
 1152TIP3   OH2 3419   4.861   2.855   0.817 -0.3496  0.1940 -0.2167
 1152TIP3    H1 3420   4.902   2.812   0.742  0.1775  2.6196 -1.4046
 1152TIP3    H2 3421   4.920   2.836   0.890  1.2463  0.9793 -1.2479
 1153TIP3   OH2 3422   3.344   6.490   4.518  0.5222 -0.2635  0.0363
 1153TIP3    H1 3423   3.285   6.523   4.585 -0.2592 -0.6311 -0.4504
 1153TIP3    H2 3424   3.339   6.555   4.448 -2.1039 -1.9716 -1.5256
 1154TIP3   OH2 3425   2.140   5.611   4.904  0.3445  0.4777  0.5024
 1154TIP3    H1 3426   2.130   5.700   4.872  0.9051  1.1292  2.0512
 1154TIP3    H2 3427   2.103   5.612   4.993 -2.5992 -1.6371 -0.5261
 1155TIP3   OH2 3428   4.484   2.853   5.134 -0.2374  0.4188 -0.4375
 1155TIP3    H1 3429   4.508   2.865   5.042 -1.6603  0.5935 -0.8076
 1155TIP3    H2 3430   4.442   2.767   5.136 -1.9292  1.2064 -0.3443
 1156TIP3   OH2 3431   2.699   5.161   5.646  0.2662  0.4821  0.0138
 1156TIP3    H1 3432   2.630   5.186   5.585  0.6896  1.1394 -0.2005
 1156TIP3    H2 3433   2.772   5.134   5.590  0.0302 -0.6803  0.2380
 1157TIP3   OH2 3434   2.796   2.309   3.570  0.5738  0.1804 -0.0265
 1157TIP3    H1 3435   2.786   2.311   3.475  0.1285 -0.8315 -0.0119
 1157TIP3    H2 3436   2.783   2.399   3.598 -0.9060  0.2156 -0.7634
 1158TIP3   OH2 3437   6.830   6.396   2.963 -0.4287 -0.0403  0.4719
 1158TIP3    H1 3438   6.775   6.452   3.018 -0.1037 -0.8415  1.6618
 1158TIP3    H2 3439   6.776   6.319   2.945 -0.1066 -0.3308  0.7165
 1159TIP3   OH2 3440   0.391   6.088   1.807 -0.0305 -0.2054  0.1518
 1159TIP3    H1 3441   0.367   6.114   1.896  2.0199  0.4394  0.5780
 1159TIP3    H2 3442   0.341   6.146   1.750 -0.4558  0.2008  0.9346
 1160TIP3   OH2 3443   2.885   1.937   1.884  0.5206 -0.4155  0.3688
 1160TIP3    H1 3444   2.832   2.016   1.880 -1.3163 -1.6244 -0.4637
 1160TIP3    H2 3445   2.905   1.916   1.792 -2.0928 -2.8102  0.2134
 1161TIP3   OH2 3446   3.072   1.949   3.298  0.2603  0.9515 -0.1242
 1161TIP3    H1 3447   3.036   1.998   3.371  0.4719  1.5877 -0.4445
 1161TIP3    H2 3448   3.006   1.954   3.229  0.0805  0.3898 -0.0034
 1162TIP3   OH2 3449   1.647   5.292   1.161  0.2621 -0.1655 -0.0925
 1162TIP3    H1 3450   1.621   5.322   1.073  2.2937 -0.5339 -0.8790
 1162TIP3    H2 3451   1.631   5.198   1.160  1.9293 -0.4724 -0.7457
 1163TIP3   OH2 3452   3.325   4.161   4.344 -0.1421  0.2246  0.2283
 1163TIP3    H1 3453   3.358   4.077   4.313 -1.2083 -0.2718  0.3759
 1163TIP3    H2 3454   3.391   4.194   4.404 -0.5662 -1.4157  1.6423
 1164TIP3   OH2 3455   1.375   1.467   4.399  0.0013  0.6582  0.1545
 1164TIP3    H1 3456   1.453   1.518   4.421 -1.4361  3.3237 -0.5477
 1164TIP3    H2 3457   1.376   1.394   4.461  3.1928  0.3845 -0.0549
 1165TIP3   OH2 3458   0.133   4.400   0.788 -0.0446 -0.8107 -0.7510
 1165TIP3    H1 3459   0.083   4.319   0.794 -1.4159 -0.2705 -3.4075
 1165TIP3    H2 3460   0.137   4.420   0.695  0.3065  2.1239 -0.2316
 1166TIP3   OH2 3461   6.809   4.298   5.319 -0.1733  0.5139 -0.0271
 1166TIP3    H1 3462   6.786   4.320   5.409 -0.1135  2.2979 -0.4141
 1166TIP3    H2 3463   6.730   4.315   5.268 -0.1197 -0.2045 -0.3733
 1167TIP3   OH2 3464   7.100   1.576   5.718 -0.3664 -0.2852  0.0287
 1167TIP3    H1 3465   7.053   1.520   5.656  1.4761  1.2936 -3.0211
 1167TIP3    H2 3466   7.181   1.529   5.738  0.9131  0.8706 -2.0804
 1168TIP3   OH2 3467   0.800   0.420  -0.014  0.4041  0.2678 -0.4304
 1168TIP3    H1 3468   0.878   0.448   0.034  1.0161  0.4057 -1.4688
 1168TIP3    H2 3469   0.729   0.426   0.050  0.9321  1.8685  0.0654
 1169TIP3   OH2 3470   4.792   0.192   3.116 -0.5825  0.3417 -0.1377
 1169TIP3    H1 3471   4.811   0.133   3.043 -1.7968  0.3149 -0.4505
 1169TIP3    H2 3472   4.842   0.272   3.097 -0.3377  0.0716 -0.6260
 1170TIP3   OH2 3473   6.700   4.997   1.083 -0.0507  0.5565 -0.6028
 1170TIP3    H1 3474   6.607   4.990   1.062  0.2700  0.5872 -2.0852
 1170TIP3    H2 3475   6.745   4.951   1.013  1.0596  0.2726  0.2586
 1171TIP3   OH2 3476   2.360   2.853   3.290 -0.1648 -0.1482  0.6930
 1171TIP3    H1 3477   2.274   2.826   3.323  0.0806 -1.8651  0.0326
 1171TIP3    H2 3478   2.397   2.774   3.251  0.7680  1.0899 -1.0927
 1172TIP3   OH2 3479   6.176   3.995   1.873  0.0308 -0.3940  0.2122
 1172TIP3    H1 3480   6.258   4.021   1.832  0.1827 -1.6634 -0.3224
 1172TIP3    H2 3481   6.110   4.005   1.804 -0.3082  0.7445  0.6760
 1173TIP3   OH2 3482   3.678   5.867   0.669 -1.0991  0.5321 -0.6167
 1173TIP3    H1 3483   3.716   5.905   0.590  2.5412  1.3482  1.3071
 1173TIP3    H2 3484   3.688   5.935   0.735  1.4415 -1.9897  1.8832
 1174TIP3   OH2 3485   4.593   3.280   4.124 -0.0213  0.3426  0.1746
 1174TIP3    H1 3486   4.645   3.205   4.096 -1.5014 -1.0480  0.9776
 1174TIP3    H2 3487   4.530   3.244   4.186 -3.2200  1.5049 -2.1204
 1175TIP3   OH2 3488   1.378   6.521   2.610  0.0631  0.3566  0.3321
 1175TIP3    H1 3489   1.296   6.490   2.573  0.0919  0.3031  0.3137
 1175TIP3    H2 3490   1.445   6.469   2.567  0.1271  0.6140  0.1162
 1176TIP3   OH2 3491   2.168   3.859   4.316  0.4926 -0.6266  0.0638
 1176TIP3    H1 3492   2.213   3.788   4.362 -0.1851 -1.0916  0.0281
 1176TIP3    H2 3493   2.104   3.891   4.379  0.0007 -0.8345 -0.3249
 1177TIP3   OH2 3494   5.560   1.882   0.881 -0.3200 -1.0706 -0.0564
 1177TIP3    H1 3495   5.546   1.951   0.817 -2.0650 -0.7569  0.6120
 1177TIP3    H2 3496   5.473   1.864   0.917  0.4606 -1.9279  1.5185
 1178TIP3   OH2 3497   2.270   5.245   2.711  0.0612 -0.2479 -0.2895
 1178TIP3    H1 3498   2.288   5.268   2.620 -0.4635  1.7531  0.0719
 1178TIP3    H2 3499   2.174   5.244   2.717  0.0691 -1.6883 -0.0404
 1179TIP3   OH2 3500   5.784   2.260   0.730 -0.7998  0.0077  0.3921
 1179TIP3    H1 3501   5.698   2.229   0.699 -1.1413 -0.2146  1.5423
 1179TIP3    H2 3502   5.842   2.247   0.655 -1.2860 -1.9291  0.3030
 1180TIP3   OH2 3503   2.777   2.742   3.056  0.1845 -0.1626 -0.3557
 1180TIP3    H1 3504   2.754   2.774   3.143  1.1252 -0.8974  0.1874
 1180TIP3    H2 3505   2.695   2.744   3.007 -0.2817  0.6150  0.4345
 1181TIP3   OH2 3506   6.752   2.366   3.583  0.1913 -0.7189 -0.5553
 1181TIP3    H1 3507   6.766   2.386   3.676  0.3405 -3.1992  0.0436
 1181TIP3    H2 3508   6.660   2.340   3.578  0.4921 -1.8091 -0.7995
 1182TIP3   OH2 3509   0.955   6.245   0.462 -0.1094  0.2416 -0.3437
 1182TIP3    H1 3510   0.882   6.183   0.457  1.5861 -1.9002  0.4152
 1182TIP3    H2 3511   1.026   6.202   0.415  0.7703  2.2135 -0.9107
 1183TIP3   OH2 3512   6.220   4.123   4.877  0.6554  0.1495  0.1810
 1183TIP3    H1 3513   6.276   4.130   4.800 -1.0370 -0.6521 -1.1978
 1183TIP3    H2 3514   6.132   4.107   4.841 -0.1943 -0.1907  2.2812
 1184TIP3   OH2 3515   5.967   3.884   2.404  0.4180 -0.2780  0.6390
 1184TIP3    H1 3516   6.033   3.884   2.335 -0.0812  1.0188  0.1533
 1184TIP3    H2 3517   5.929   3.971   2.402 -0.9560 -0.8335  1.2736
 1185TIP3   OH2 3518   6.940   2.545   5.894 -0.7646 -0.4341  0.4765
 1185TIP3    H1 3519   6.926   2.632   5.857  1.9027 -0.0094  0.3164
 1185TIP3    H2 3520   6.910   2.486   5.824 -0.4972  0.3638 -0.3426
 1186TIP3   OH2 3521   0.189   4.997   5.202  0.0400 -0.1785 -0.0711
 1186TIP3    H1 3522   0.203   5.017   5.109  1.6258  0.5561  0.2950
 1186TIP3    H2 3523   0.119   4.932   5.202  0.4102 -0.6348 -1.8157
 1187TIP3   OH2 3524   0.504   4.998   4.831  0.1022 -0.2122 -0.4467
 1187TIP3    H1 3525   0.576   5.059   4.847  0.6037 -0.1053 -2.8218
 1187TIP3    H2 3526   0.513   4.933   4.901 -0.9593  2.7353  2.6997
 1188TIP3   OH2 3527   0.450   1.123   1.452  0.0414  0.1141  0.1791
 1188TIP3    H1 3528   0.369   1.140   1.500 -0.9367  0.8710 -1.6185
 1188TIP3    H2 3529   0.514   1.181   1.493 -0.8645  1.0646  0.3267
 1189TIP3   OH2 3530   2.375   2.161   5.803  0.6898  0.2543 -0.7329
 1189TIP3    H1 3531   2.298   2.161   5.860  1.8259  0.5037  0.8471
 1189TIP3    H2 3532   2.414   2.074   5.815  0.0278 -0.3311 -2.4640
 1190TIP3   OH2 3533   0.655   6.087   5.364  0.5076  0.2983  0.1734
 1190TIP3    H1 3534   0.621   6.052   5.282 -1.6409 -0.4816  1.3262
 1190TIP3    H2 3535   0.688   6.011   5.412 -1.4204  0.1541  1.4136
 1191TIP3   OH2 3536   5.338   0.662   1.160  0.1451  0.0850 -0.5656
 1191TIP3    H1 3537   5.264   0.606   1.137  0.5045  0.1737 -2.0090
 1191TIP3    H2 3538   5.298   0.742   1.194 -0.3825 -0.4901  0.2144
 1192TIP3   OH2 3539   6.039   5.915   0.127  0.1880  0.1598  0.1998
 1192TIP3    H1 3540   5.953   5.927   0.086 -0.3033 -0.7472  0.9276
 1192TIP3    H2 3541   6.099   5.963   0.071 -0.5422 -0.6056 -1.2978
 1193TIP3   OH2 3542   1.396   0.498   3.212  0.0394  0.8179 -0.7030
 1193TIP3    H1 3543   1.412   0.476   3.303  1.9351 -0.4898 -1.2848
 1193TIP3    H2 3544   1.392   0.593   3.210 -2.0826  0.8413  1.0010
 1194TIP3   OH2 3545   0.698   2.608   0.808  0.2348  0.3920  0.7414
 1194TIP3    H1 3546   0.743   2.569   0.883 -1.8913 -2.9100  0.4787
 1194TIP3    H2 3547   0.768   2.649   0.757  2.1826 -0.1432  2.8303
 1195TIP3   OH2 3548   5.390   4.689   1.164 -0.2490  0.0572  0.1508
 1195TIP3    H1 3549   5.363   4.755   1.228 -0.6316 -1.3462  1.5057
 1195TIP3    H2 3550   5.405   4.610   1.216  1.0994 -0.6951 -1.2948
 1196TIP3   OH2 3551   3.569   6.314   4.678  0.2085  0.5028 -0.4417
 1196TIP3    H1 3552   3.577   6.321   4.583  0.8005  2.3991 -0.2914
 1196TIP3    H2 3553   3.634   6.248   4.703 -0.2536 -0.3202 -1.3810
 1197TIP3   OH2 3554   0.501   0.951   2.724 -0.3960 -0.8215 -0.2525
 1197TIP3    H1 3555   0.487   0.943   2.819  2.3960 -1.2536  0.2042
 1197TIP3    H2 3556   0.508   0.861   2.693 -0.3234 -0.6619 -0.7048
 1198TIP3   OH2 3557   4.757   3.105   0.723 -0.3685  0.0829  0.4730
 1198TIP3    H1 3558   4.811   3.032   0.691  0.1564  0.5711  0.2281
 1198TIP3    H2 3559   4.689   3.063   0.775  0.5138 -0.5297  1.1837
 1199TIP3   OH2 3560   0.591   3.247   0.849  0.0489  0.0930 -0.3119
 1199TIP3    H1 3561   0.587   3.152   0.839 -1.2666 -0.2694  2.5203
 1199TIP3    H2 3562   0.554   3.281   0.768  0.2739 -1.8070 -1.2717
 1200TIP3   OH2 3563   6.606   6.188   2.510  0.0922 -0.3916 -0.5136
 1200TIP3    H1 3564   6.531   6.147   2.466  0.2393 -1.9387  0.6014
 1200TIP3    H2 3565   6.659   6.114   2.541  0.7596  0.6488  0.9353
 1201TIP3   OH2 3566   0.239   6.552   4.081 -0.2528 -0.6602  0.4183
 1201TIP3    H1 3567   0.266   6.462   4.098 -1.2921 -1.0174  0.2886
 1201TIP3    H2 3568   0.313   6.606   4.108 -0.5408 -1.3886  2.9406
 1202TIP3   OH2 3569   2.523   3.303   4.536 -0.1626  0.2957  0.1073
 1202TIP3    H1 3570   2.604   3.280   4.490 -1.0712  0.4083 -1.6410
 1202TIP3    H2 3571   2.499   3.389   4.502 -1.8931 -0.4590 -0.7301
 1203TIP3   OH2 3572   1.007   4.916   5.086 -0.2262  0.6577  0.1221
 1203TIP3    H1 3573   1.035   4.934   5.176 -0.1263 -0.8558  0.4230
 1203TIP3    H2 3574   0.934   4.855   5.096 -1.1935  1.6459 -0.7895
 1204TIP3   OH2 3575   6.701   3.987   0.692 -0.4444  0.2622 -0.4285
 1204TIP3    H1 3576   6.778   3.953   0.738  0.1655  0.9285 -0.9259
 1204TIP3    H2 3577   6.651   4.032   0.760  0.2073  0.8356 -0.3114
 1205TIP3   OH2 3578   3.278   6.166   0.435 -0.2050 -0.3559 -0.2381
 1205TIP3    H1 3579   3.341   6.158   0.363  1.4205 -0.4877  1.1092
 1205TIP3    H2 3580   3.206   6.217   0.399  0.1049 -1.2412 -2.2178
 1206TIP3   OH2 3581   3.580   4.944   5.697 -0.2435  0.0618 -0.0241
 1206TIP3    H1 3582   3.494   4.961   5.660  0.0155  1.3888 -0.0686
 1206TIP3    H2 3583   3.563   4.916   5.787 -0.8210 -2.1380 -0.7562
 1207TIP3   OH2 3584   4.596   3.618   5.597 -0.1732  0.8038  0.1958
 1207TIP3    H1 3585   4.611   3.523   5.596  0.2815  0.8607  1.2055
 1207TIP3    H2 3586   4.514   3.629   5.548  0.2469 -0.0180 -0.7277
 1208TIP3   OH2 3587   6.626   6.766   0.789  0.0175 -0.1982  0.3610
 1208TIP3    H1 3588   6.586   6.740   0.872 -0.2641  0.1224  0.3301
 1208TIP3    H2 3589   6.578   6.846   0.764 -0.2218 -0.5573 -0.3387
 1209TIP3   OH2 3590   7.107   1.137   2.016  0.0387 -0.3908 -0.1755
 1209TIP3    H1 3591   7.070   1.050   2.024 -1.3571 -0.0815 -2.5538
 1209TIP3    H2 3592   7.055   1.191   2.076 -0.0831 -0.8871  0.1672
 1210TIP3   OH2 3593   0.933   3.973   1.443  0.1540  0.2757  0.4419
 1210TIP3    H1 3594   0.955   4.049   1.389  0.0788  0.1655  0.2523
 1210TIP3    H2 3595   0.886   4.009   1.518 -0.0038  0.4054  0.2829
 1211TIP3   OH2 3596   0.400   1.491   1.814 -0.1648  0.4086 -0.2530
 1211TIP3    H1 3597   0.376   1.420   1.875 -0.0844  0.6975  0.1174
 1211TIP3    H2 3598   0.477   1.531   1.853 -0.3274  0.8290 -0.3618
 1212TIP3   OH2 3599   3.075   4.063   2.747 -0.4466  0.1705 -0.5673
 1212TIP3    H1 3600   3.070   3.981   2.796  2.2874  0.3477  0.2122
 1212TIP3    H2 3601   3.071   4.036   2.655 -3.5686 -0.3699 -0.3596
 1213TIP3   OH2 3602   2.854   4.816   0.579 -0.0171 -0.2765 -0.4204
 1213TIP3    H1 3603   2.907   4.786   0.654  0.7063 -1.9711 -1.5517
 1213TIP3    H2 3604   2.855   4.742   0.518  0.0875  1.3358 -2.4755
 1214TIP3   OH2 3605   3.571   5.387   1.789  0.3521  0.1128 -0.7429
 1214TIP3    H1 3606   3.632   5.446   1.833 -0.5011 -1.1929  2.5290
 1214TIP3    H2 3607   3.598   5.299   1.818 -1.6389 -0.6570 -1.0671
 1215TIP3   OH2 3608   5.995   4.539   5.256 -0.2258  0.2212  0.6677
 1215TIP3    H1 3609   6.056   4.577   5.319  1.3150  2.0788 -1.7339
 1215TIP3    H2 3610   5.934   4.610   5.236 -0.7946 -0.3833  0.2155
 1216TIP3   OH2 3611   3.166   3.418   4.968  0.4002 -0.6907  0.1088
 1216TIP3    H1 3612   3.222   3.356   5.016  0.7801 -1.9994 -1.9313
 1216TIP3    H2 3613   3.179   3.396   4.876 -1.1916  0.9904 -0.5711
 1217TIP3   OH2 3614   3.305   6.417   3.650 -0.1886  0.0170  0.0642
 1217TIP3    H1 3615   3.232   6.371   3.692  0.3278  0.8873  2.0113
 1217TIP3    H2 3616   3.373   6.351   3.641 -1.1600 -0.8141 -1.7948
 1218TIP3   OH2 3617   2.791   2.436   4.593 -0.6975  0.3103 -0.3326
 1218TIP3    H1 3618   2.771   2.347   4.624 -0.2273  0.6616  1.0435
 1218TIP3    H2 3619   2.727   2.491   4.638  0.1407  0.8665  0.1987
 1219TIP3   OH2 3620   6.334   0.345   1.739 -0.0050  0.1834 -0.5140
 1219TIP3    H1 3621   6.267   0.278   1.752 -0.7409  0.7256 -1.3865
 1219TIP3    H2 3622   6.302   0.398   1.665  0.9137  1.0459 -0.3267
 1220TIP3   OH2 3623   5.971   2.310   4.355 -0.4790  0.0764 -0.3002
 1220TIP3    H1 3624   6.048   2.303   4.410 -0.8735 -0.9735  0.1443
 1220TIP3    H2 3625   5.929   2.391   4.382  0.4032  0.6057 -0.4824
 1221TIP3   OH2 3626   0.601   2.288   5.384  0.3025 -0.4453 -0.0348
 1221TIP3    H1 3627   0.559   2.371   5.406 -0.4788 -0.2029 -2.2597
 1221TIP3    H2 3628   0.549   2.252   5.312  0.9495 -2.6144  0.4861
 1222TIP3   OH2 3629   5.125   3.666   2.722  0.2544  0.4645  0.1484
 1222TIP3    H1 3630   5.182   3.669   2.798  1.4549  0.4627 -0.7196
 1222TIP3    H2 3631   5.146   3.583   2.679  1.4786  1.6060 -1.5613
 1223TIP3   OH2 3632   1.912   2.719   2.240 -0.0170  0.1606 -0.0834
 1223TIP3    H1 3633   1.889   2.678   2.156 -0.7280  0.9982 -0.3109
 1223TIP3    H2 3634   1.920   2.812   2.221 -0.5082  0.4098  0.8316
 1224TIP3   OH2 3635   1.548   5.386   1.401  0.2371 -0.0541  0.0422
 1224TIP3    H1 3636   1.578   5.477   1.400  0.6400 -0.1410  1.4976
 1224TIP3    H2 3637   1.593   5.345   1.326 -1.8885  1.4695 -2.2160
 1225TIP3   OH2 3638   3.490   0.366   3.368 -0.2221 -0.6410 -0.2517
 1225TIP3    H1 3639   3.527   0.368   3.457  0.3062 -2.2944 -0.3999
 1225TIP3    H2 3640   3.505   0.454   3.334  0.7496 -0.3580  0.8389
 1226TIP3   OH2 3641   4.614   2.046   3.570 -0.7782 -0.9209 -0.3811
 1226TIP3    H1 3642   4.542   2.109   3.562 -0.9069 -0.8263  1.2330
 1226TIP3    H2 3643   4.583   1.967   3.525 -1.7716 -0.7789  0.0430
 1227TIP3   OH2 3644   3.920   6.368   4.753 -0.1339 -0.1806 -1.0249
 1227TIP3    H1 3645   3.873   6.288   4.777  1.8957 -1.0108  0.5913
 1227TIP3    H2 3646   4.002   6.362   4.802  0.8414  2.0689 -2.2394
 1228TIP3   OH2 3647   2.970   3.406   5.834  0.5122  0.0047 -0.3262
 1228TIP3    H1 3648   2.921   3.405   5.752  0.5252  0.4037 -0.3405
 1228TIP3    H2 3649   2.957   3.494   5.868  1.1904  0.1044 -0.3150
 1229TIP3   OH2 3650   5.613   1.884   4.398  0.1250 -0.0003 -0.5642
 1229TIP3    H1 3651   5.543   1.883   4.463  0.3996  0.8610 -0.2328
 1229TIP3    H2 3652   5.652   1.797   4.404  1.8197  0.7925  2.3385
 1230TIP3   OH2 3653   5.270   0.547   4.372  0.1412 -0.3074 -0.2437
 1230TIP3    H1 3654   5.184   0.563   4.333 -0.8131 -0.0090  1.8686
 1230TIP3    H2 3655   5.277   0.452   4.378  0.8161 -0.4281 -2.1108
 1231TIP3   OH2 3656   6.306   1.843   1.135 -0.2602 -0.0627  0.0818
 1231TIP3    H1 3657   6.220   1.857   1.096 -0.7912 -1.2508  0.7669
 1231TIP3    H2 3658   6.368   1.861   1.065 -0.9686  2.2095 -0.0483
 1232TIP3   OH2 3659   2.730   3.034   1.127 -0.5395  0.2221  0.7508
 1232TIP3    H1 3660   2.664   3.014   1.194  0.6168  0.1988  1.9149
 1232TIP3    H2 3661   2.721   2.962   1.064 -2.9995  1.2739 -0.2544
 1233TIP3   OH2 3662   2.709   5.204   5.223  0.6670 -0.2879 -0.6324
 1233TIP3    H1 3663   2.631   5.149   5.233 -0.5517  1.7117  3.0418
 1233TIP3    H2 3664   2.676   5.286   5.187  1.0823  0.3920  0.4674
 1234TIP3   OH2 3665   4.809   3.696   5.812 -0.2723  0.3522 -0.0044
 1234TIP3    H1 3666   4.798   3.772   5.868  3.2146 -1.6780  4.0163
 1234TIP3    H2 3667   4.727   3.647   5.821  0.1983 -0.0107  3.9057
 1235TIP3   OH2 3668   2.173   1.967   0.188 -0.0855  0.0381  0.6185
 1235TIP3    H1 3669   2.240   1.981   0.255  0.8028  0.2243 -0.2967
 1235TIP3    H2 3670   2.195   2.029   0.118 -1.4242  0.3623  0.4455
 1236TIP3   OH2 3671   0.491   3.317   3.886 -0.2396 -0.0993 -0.1288
 1236TIP3    H1 3672   0.396   3.320   3.874 -0.5356 -0.1976  1.8199
 1236TIP3    H2 3673   0.511   3.394   3.938  1.1768  1.3705 -2.6490
 1237TIP3   OH2 3674   3.012   3.703   3.695  0.5482  0.4125 -0.5000
 1237TIP3    H1 3675   3.005   3.683   3.788  1.3698 -0.2942 -0.5792
 1237TIP3    H2 3676   2.922   3.716   3.667  0.1893 -0.5539  0.1436
 1238TIP3   OH2 3677   1.912   1.658   2.428 -0.6831  0.1945  0.2118
 1238TIP3    H1 3678   1.903   1.575   2.381 -1.2767  0.3796 -0.0059
 1238TIP3    H2 3679   1.948   1.718   2.363  1.6422 -0.3565  0.8790
 1239TIP3   OH2 3680   4.140   5.264   0.182 -0.0051 -0.0269  0.3489
 1239TIP3    H1 3681   4.187   5.208   0.120  1.2463  2.2317 -0.8363
 1239TIP3    H2 3682   4.137   5.213   0.263  1.4308 -1.6292 -0.5458
 1240TIP3   OH2 3683   3.261   0.189   1.472  0.2849 -0.1678  0.2754
 1240TIP3    H1 3684   3.222   0.161   1.389  0.3214 -2.3614  0.9329
 1240TIP3    H2 3685   3.305   0.272   1.451 -0.0177 -0.4753 -1.7992
 1241TIP3   OH2 3686   5.906   2.641   0.789  0.3226  0.1895  0.0712
 1241TIP3    H1 3687   5.973   2.601   0.844  0.5661 -0.1483 -0.4666
 1241TIP3    H2 3688   5.953   2.673   0.712 -0.2032 -0.5080 -0.5538
 1242TIP3   OH2 3689   3.762   6.512   0.450  0.3431  0.3366  0.3676
 1242TIP3    H1 3690   3.730   6.526   0.539  0.3692 -0.7039  0.5516
 1242TIP3    H2 3691   3.836   6.452   0.460  1.8500  2.0197 -0.1392
 1243TIP3   OH2 3692   4.438   2.960   0.570  0.0535  0.0330 -0.3291
 1243TIP3    H1 3693   4.357   3.006   0.549  1.2148  2.0928 -0.5190
 1243TIP3    H2 3694   4.456   2.906   0.493 -0.1412  1.0582 -1.1171
 1244TIP3   OH2 3695   5.502   4.243   1.900 -0.0636  0.4977  0.1541
 1244TIP3    H1 3696   5.584   4.249   1.852  0.8990  0.7782  1.7756
 1244TIP3    H2 3697   5.453   4.321   1.873  0.8857  1.1967  0.3919
 1245TIP3   OH2 3698   5.721   0.279   2.384  0.3168 -0.5137  0.2113
 1245TIP3    H1 3699   5.700   0.358   2.434  0.9196  0.8190 -1.5324
 1245TIP3    H2 3700   5.800   0.303   2.335 -0.6520 -1.4702 -1.9252
 1246TIP3   OH2 3701   2.997   5.004   2.175 -0.2687  0.7873 -0.6155
 1246TIP3    H1 3702   2.969   5.053   2.253 -0.5379  1.7503 -1.2859
 1246TIP3    H2 3703   2.927   5.021   2.111 -1.5965 -2.3817 -0.1911
 1247TIP3   OH2 3704   0.299   2.092   0.245  0.0156  0.1120  0.4545
 1247TIP3    H1 3705   0.328   2.002   0.233 -1.1084 -0.4173  1.4707
 1247TIP3    H2 3706   0.225   2.101   0.184 -0.2736  0.1278  0.8017
 1248TIP3   OH2 3707   5.357   5.115   3.487 -0.4260  0.0516 -0.4321
 1248TIP3    H1 3708   5.339   5.202   3.451  1.6441  1.0187  0.6462
 1248TIP3    H2 3709   5.403   5.069   3.417  0.8352  0.8232 -0.1564
 1249TIP3   OH2 3710   5.069   1.871   3.665  0.1728 -0.1305  0.6736
 1249TIP3    H1 3711   5.160   1.872   3.695  0.3179 -0.0348  0.2302
 1249TIP3    H2 3712   5.073   1.893   3.572 -0.4662  1.9805  1.0855
 1250TIP3   OH2 3713   4.913   0.867   2.517 -0.1436 -0.2019 -0.1709
 1250TIP3    H1 3714   4.823   0.898   2.531 -0.4130 -0.3293 -1.5348
 1250TIP3    H2 3715   4.936   0.825   2.600 -0.4898  1.8424  1.0099
 1251TIP3   OH2 3716   4.943   3.791   2.017  0.5828  0.0436  0.8344
 1251TIP3    H1 3717   4.879   3.799   1.947  0.9180  0.3289  0.5537
 1251TIP3    H2 3718   4.893   3.805   2.097  0.1103 -0.7447  0.6877
 1252TIP3   OH2 3719   0.805   2.210   2.541  0.0597 -0.7879  0.1821
 1252TIP3    H1 3720   0.723   2.235   2.499 -0.1065 -0.6155  0.6132
 1252TIP3    H2 3721   0.845   2.292   2.569  0.2666 -0.8875  0.1875
 1253TIP3   OH2 3722   0.705   0.595   3.848 -0.5772  0.0735 -0.1277
 1253TIP3    H1 3723   0.665   0.664   3.900 -1.9708 -0.6713 -0.1560
 1253TIP3    H2 3724   0.631   0.547   3.811  0.3683 -0.7139 -1.0565
 1254TIP3   OH2 3725   1.976   2.571   4.873 -0.1002  0.1769  0.4025
 1254TIP3    H1 3726   1.984   2.528   4.958  3.0086  1.0475  0.6854
 1254TIP3    H2 3727   2.047   2.635   4.872 -1.9890  2.4133 -1.6413
 1255TIP3   OH2 3728   1.143   5.273   2.336  0.1996 -0.6150  0.0750
 1255TIP3    H1 3729   1.106   5.224   2.409 -1.2262 -0.7405 -0.6886
 1255TIP3    H2 3730   1.079   5.263   2.265  1.5233 -0.4847 -1.1976
 1256TIP3   OH2 3731   2.094   4.661   2.512  0.4826 -0.2785 -0.4378
 1256TIP3    H1 3732   2.032   4.659   2.439 -0.1729  1.7753  0.0221
 1256TIP3    H2 3733   2.065   4.590   2.569 -1.8742  1.0083  0.0681
 1257TIP3   OH2 3734   0.074   3.857   5.167 -0.3631 -0.4476  0.6915
 1257TIP3    H1 3735  -0.021   3.848   5.157 -0.4576 -0.4416  1.5203
 1257TIP3    H2 3736   0.093   3.948   5.142 -0.6057 -0.3924  0.7090
 1258TIP3   OH2 3737   5.614   0.449   1.684 -0.1500 -0.3944  0.5469
 1258TIP3    H1 3738   5.533   0.428   1.730 -0.9803  1.7569  0.1938
 1258TIP3    H2 3739   5.666   0.498   1.748 -0.7332  1.4225 -0.3035
 1259TIP3   OH2 3740   0.970   3.697   2.056 -0.2284 -0.1653  0.1336
 1259TIP3    H1 3741   0.999   3.618   2.101 -0.9237 -0.2149  0.5216
 1259TIP3    H2 3742   0.875   3.685   2.046 -0.2053  0.2137 -0.6160
 1260TIP3   OH2 3743   1.803   5.458   5.609 -0.0974  0.2826  0.0020
 1260TIP3    H1 3744   1.776   5.510   5.533 -0.7359 -1.2127 -0.8548
 1260TIP3    H2 3745   1.804   5.368   5.576  1.1081 -0.2443  1.3801
 1261TIP3   OH2 3746   5.026   5.760   3.855 -0.1638  0.2387 -0.5656
 1261TIP3    H1 3747   4.944   5.763   3.904 -0.0423 -2.0835 -0.1281
 1261TIP3    H2 3748   5.093   5.788   3.918 -0.3573  0.0925 -0.2949
 1262TIP3   OH2 3749   1.730   5.895   5.515  0.2273 -0.0687  0.3799
 1262TIP3    H1 3750   1.641   5.865   5.494  0.4358 -2.0352  1.9527
 1262TIP3    H2 3751   1.719   5.986   5.541 -1.2103 -0.0456 -0.1918
 1263TIP3   OH2 3752   0.826   5.206   1.377  0.3256 -0.7967 -0.0421
 1263TIP3    H1 3753   0.757   5.251   1.328 -1.2204 -1.3503  1.5538
 1263TIP3    H2 3754   0.901   5.267   1.374 -0.3745  0.0481 -1.3624
 1264TIP3   OH2 3755   6.436   1.097   2.777 -0.2339  0.6655  0.5086
 1264TIP3    H1 3756   6.353   1.066   2.742 -0.4783 -0.2383  1.8171
 1264TIP3    H2 3757   6.483   1.132   2.701 -1.1501 -0.2630 -0.5140
 1265TIP3   OH2 3758   5.998   1.596   3.653  0.0342 -0.2002  0.4284
 1265TIP3    H1 3759   5.933   1.654   3.612 -0.9896 -0.5789  1.4474
 1265TIP3    H2 3760   5.960   1.508   3.645  0.5111 -0.4505  0.8792
 1266TIP3   OH2 3761   3.766   5.002   1.456 -0.7525  0.5431  0.6796
 1266TIP3    H1 3762   3.787   4.947   1.380  2.2203  1.2022  0.8911
 1266TIP3    H2 3763   3.725   4.942   1.518 -1.1913 -0.5169 -0.5718
 1267TIP3   OH2 3764   5.403   6.402   3.304 -0.6245  0.8018 -0.2754
 1267TIP3    H1 3765   5.380   6.369   3.217 -0.6900  0.0804  0.0101
 1267TIP3    H2 3766   5.414   6.496   3.292  0.2284  0.5946 -1.2539
 1268TIP3   OH2 3767   6.983   3.570   5.803 -0.6455 -0.4607 -0.4228
 1268TIP3    H1 3768   7.065   3.613   5.827 -1.0246  0.3839 -0.5956
 1268TIP3    H2 3769   7.004   3.522   5.723 -0.6482  0.9055 -1.2721
 1269TIP3   OH2 3770   2.777   5.601   2.208 -0.4167  0.4119 -0.5565
 1269TIP3    H1 3771   2.723   5.681   2.207 -0.8329  0.1481 -1.9046
 1269TIP3    H2 3772   2.862   5.630   2.177 -0.1000  0.6070  0.4538
 1270TIP3   OH2 3773   0.795   3.981   4.537 -1.1229 -0.6979 -0.0877
 1270TIP3    H1 3774   0.737   4.025   4.474 -3.5635 -2.5247  0.7235
 1270TIP3    H2 3775   0.808   3.893   4.500  1.2754 -0.3269 -0.2655
 1271TIP3   OH2 3776   3.473   2.375   0.389 -0.0746  0.3952 -0.2836
 1271TIP3    H1 3777   3.411   2.332   0.329  0.3715 -0.7981  0.0787
 1271TIP3    H2 3778   3.418   2.408   0.460 -0.7061  2.4940 -1.6681
 1272TIP3   OH2 3779   0.609   6.613   2.851 -0.3333  0.4410 -0.3538
 1272TIP3    H1 3780   0.675   6.667   2.895  0.5779 -1.1262  0.3096
 1272TIP3    H2 3781   0.526   6.655   2.873  0.3917  2.5524 -1.3293
 1273TIP3   OH2 3782   3.749   0.953   2.926 -0.0111  0.3773 -0.1316
 1273TIP3    H1 3783   3.800   1.029   2.896  1.1242  0.2034  1.2174
 1273TIP3    H2 3784   3.781   0.880   2.873  0.0889  0.5374 -0.2932
 1274TIP3   OH2 3785   5.337   1.989   2.023 -0.1846  0.0939  0.2095
 1274TIP3    H1 3786   5.281   1.912   2.011 -0.3884  0.5454 -2.2535
 1274TIP3    H2 3787   5.278   2.056   2.057 -1.2032  0.5001 -2.1439
 1275TIP3   OH2 3788   2.145   5.832   3.517  0.3678  0.1408 -0.0587
 1275TIP3    H1 3789   2.208   5.884   3.468 -0.5751 -0.6971 -2.2971
 1275TIP3    H2 3790   2.198   5.782   3.579  1.6846  0.8272 -0.6063
 1276TIP3   OH2 3791   2.202   5.833   1.926 -0.2101 -0.0703  0.4198
 1276TIP3    H1 3792   2.109   5.851   1.907 -0.3623 -1.4739 -0.2828
 1276TIP3    H2 3793   2.205   5.740   1.948  1.1322 -0.2303 -0.3151
 1277TIP3   OH2 3794   5.621   2.876   5.798 -0.0371  0.1538 -0.2789
 1277TIP3    H1 3795   5.568   2.867   5.718  0.4928  0.0862 -0.6264
 1277TIP3    H2 3796   5.627   2.788   5.834 -3.1899  0.6144  1.7689
 1278TIP3   OH2 3797   3.980   5.955   0.831  0.4664  0.3115 -0.0237
 1278TIP3    H1 3798   3.957   5.865   0.855 -1.1819  0.4602 -0.8932
 1278TIP3    H2 3799   3.957   5.961   0.738  0.8347  1.5532 -0.0484
 1279TIP3   OH2 3800   3.950   1.656   0.923  0.2300  0.5944 -0.2336
 1279TIP3    H1 3801   3.925   1.600   0.996  1.0325  0.5513  0.0247
 1279TIP3    H2 3802   3.900   1.737   0.936 -1.9786 -0.4900 -1.3576
 1280TIP3   OH2 3803   3.405   4.036   3.163 -1.0727  0.1780  0.3298
 1280TIP3    H1 3804   3.334   3.973   3.178  0.0795 -0.7968  2.1239
 1280TIP3    H2 3805   3.387   4.072   3.076 -1.6970 -2.7946 -0.9101
 1281TIP3   OH2 3806   5.511   2.794   0.821 -1.1530 -0.3112 -0.0057
 1281TIP3    H1 3807   5.431   2.770   0.775 -2.2528 -0.7260  2.0180
 1281TIP3    H2 3808   5.566   2.716   0.816 -0.4515  0.2462 -2.1203
 1282TIP3   OH2 3809   6.879   3.295   4.684 -0.1461 -0.0240 -0.7443
 1282TIP3    H1 3810   6.914   3.384   4.678  0.0738  0.0737  1.4403
 1282TIP3    H2 3811   6.785   3.306   4.695 -0.2173 -0.1076 -1.2332
 1283TIP3   OH2 3812   3.649   2.667   1.420 -0.4737 -0.1748  0.9785
 1283TIP3    H1 3813   3.709   2.603   1.381  0.3368  1.6280 -0.9430
 1283TIP3    H2 3814   3.676   2.672   1.512  2.2441  0.3304  0.2717
 1284TIP3   OH2 3815   5.596   3.175   2.446 -0.5410  0.0575  0.2111
 1284TIP3    H1 3816   5.518   3.159   2.392 -0.9520  1.7694  0.2267
 1284TIP3    H2 3817   5.586   3.116   2.520 -2.5291  1.0903  0.8626
 1285TIP3   OH2 3818   2.673   5.336   1.649 -0.5555  0.2107 -0.2983
 1285TIP3    H1 3819   2.647   5.411   1.703  0.5288  0.8806 -0.6533
 1285TIP3    H2 3820   2.769   5.339   1.650 -0.4906  0.4427 -2.4742
 1286TIP3   OH2 3821   6.144   6.459   2.174 -0.3561 -0.5064  0.1926
 1286TIP3    H1 3822   6.099   6.393   2.228  0.5341 -0.6486  0.7939
 1286TIP3    H2 3823   6.101   6.542   2.197  0.4124 -0.4655  1.6418
 1287TIP3   OH2 3824   3.399   3.859   5.307 -0.1917  0.6328  0.4015
 1287TIP3    H1 3825   3.488   3.860   5.342  0.1212  0.3912 -0.3823
 1287TIP3    H2 3826   3.409   3.867   5.213 -1.1498  5.3605  0.4533
 1288TIP3   OH2 3827   0.276   4.772   5.647 -0.5649 -0.4401 -0.4170
 1288TIP3    H1 3828   0.269   4.855   5.598  0.9278  0.7326  1.2246
 1288TIP3    H2 3829   0.369   4.752   5.647 -0.7336 -1.2998  0.5184
 1289TIP3   OH2 3830   2.731   4.520   4.401  0.0969  0.5391 -0.3089
 1289TIP3    H1 3831   2.645   4.495   4.433 -0.5013  0.6529 -1.7346
 1289TIP3    H2 3832   2.719   4.609   4.367  0.7929  0.5773 -0.4731
 1290TIP3   OH2 3833   1.362   4.275   0.223  0.3653  0.3857 -0.0902
 1290TIP3    H1 3834   1.452   4.244   0.219  0.2437  0.1877 -1.7735
 1290TIP3    H2 3835   1.310   4.196   0.235  0.3399  0.3770 -0.2547
 1291TIP3   OH2 3836   2.462   2.416   0.055 -0.1855 -0.3554  0.0981
 1291TIP3    H1 3837   2.424   2.395  -0.030  0.5187 -1.1092 -0.0348
 1291TIP3    H2 3838   2.416   2.496   0.082 -0.9478 -0.5295 -0.6370
 1292TIP3   OH2 3839   2.999   5.230   0.809  0.5339 -0.3435 -0.2431
 1292TIP3    H1 3840   2.946   5.172   0.754  0.0285  1.3052 -1.5843
 1292TIP3    H2 3841   2.972   5.211   0.898 -0.0188 -1.7460 -0.6896
 1293TIP3   OH2 3842   4.204   4.557   0.142 -0.0729  0.4060 -0.4891
 1293TIP3    H1 3843   4.208   4.481   0.083 -0.9765 -0.0114 -0.0394
 1293TIP3    H2 3844   4.182   4.520   0.227  1.8126  0.9356  0.2854
 1294TIP3   OH2 3845   0.536   4.817   4.369 -0.2501 -0.6975 -0.9817
 1294TIP3    H1 3846   0.505   4.775   4.450  1.9090  1.9563  1.3983
 1294TIP3    H2 3847   0.607   4.761   4.339  1.4143  0.1561  1.1475
 1295TIP3   OH2 3848   2.313   3.794   3.885  0.4415 -0.4263 -0.3226
 1295TIP3    H1 3849   2.334   3.730   3.817 -0.8188 -1.1602 -0.0736
 1295TIP3    H2 3850   2.257   3.745   3.947  0.0918  0.7040  0.2872
 1296TIP3   OH2 3851   7.028   4.524   1.295  0.4084 -0.4544  0.3788
 1296TIP3    H1 3852   7.117   4.556   1.305  0.3305 -0.3896  0.8804
 1296TIP3    H2 3853   6.980   4.561   1.369 -0.4718  0.9855 -0.8719
 1297TIP3   OH2 3854   3.852   1.914   0.935 -0.2349  0.0893  0.9095
 1297TIP3    H1 3855   3.763   1.948   0.945 -0.8738 -1.4941  0.8426
 1297TIP3    H2 3856   3.887   1.962   0.860 -1.0079  0.7495  0.9485
 1298TIP3   OH2 3857   0.695   1.253   1.787 -0.3079  0.0200  0.1556
 1298TIP3    H1 3858   0.645   1.174   1.807 -1.9284  0.6748 -1.0805
 1298TIP3    H2 3859   0.666   1.317   1.852 -0.0525  0.0137  0.2775
 1299TIP3   OH2 3860   5.074   3.593   1.524  0.3461  0.0745 -0.1487
 1299TIP3    H1 3861   4.980   3.612   1.528 -0.2194 -1.9882 -1.8196
 1299TIP3    H2 3862   5.082   3.503   1.555  1.7870  0.2267 -0.0090
 1300TIP3   OH2 3863   2.629   4.937   3.881 -0.0892  1.1064  0.5369
 1300TIP3    H1 3864   2.533   4.935   3.883 -0.1846  1.8088 -1.3902
 1300TIP3    H2 3865   2.651   5.030   3.880  0.6293  0.9510  1.1409
 1301TIP3   OH2 3866   6.582   0.473   5.353 -0.2399  0.2271 -0.8652
 1301TIP3    H1 3867   6.504   0.500   5.403  0.4308  1.8923 -0.6489
 1301TIP3    H2 3868   6.626   0.556   5.332  1.3795 -0.6801 -1.1312
 1302TIP3   OH2 3869   6.481   2.635   3.452 -0.2247  0.0725  0.2488
 1302TIP3    H1 3870   6.423   2.579   3.505 -1.4284  1.1291  0.1114
 1302TIP3    H2 3871   6.487   2.716   3.502  3.7531 -1.0012  1.8468
 1303TIP3   OH2 3872   0.469   5.998   4.163 -0.0110 -0.7161  0.2619
 1303TIP3    H1 3873   0.498   5.921   4.115  0.0748  0.0838 -1.0086
 1303TIP3    H2 3874   0.546   6.055   4.165  0.1515 -0.9346  1.8266
 1304TIP3   OH2 3875   4.823   4.940   5.699  0.1504 -0.4725 -0.5692
 1304TIP3    H1 3876   4.733   4.930   5.665 -0.4185  2.0825  0.0332
 1304TIP3    H2 3877   4.820   4.898   5.785 -1.3056  1.9355  0.6473
 1305TIP3   OH2 3878   2.654   3.873   4.192 -0.4429 -1.0388  0.0242
 1305TIP3    H1 3879   2.605   3.806   4.144  0.8626 -1.4561 -0.7841
 1305TIP3    H2 3880   2.636   3.954   4.144  0.4274 -1.3626 -0.8886
 1306TIP3   OH2 3881   2.117   3.456   2.783 -0.2433 -0.9502  0.1603
 1306TIP3    H1 3882   2.061   3.412   2.847 -0.6334 -1.7855 -0.7283
 1306TIP3    H2 3883   2.059   3.521   2.741  0.3202  0.4414  1.4431
 1307TIP3   OH2 3884   3.279   3.957   1.258 -0.1409 -0.0510 -0.1193
 1307TIP3    H1 3885   3.234   3.950   1.173  1.2109  0.8319 -0.9581
 1307TIP3    H2 3886   3.348   3.892   1.253  1.1215  1.2691 -0.5043
 1308TIP3   OH2 3887   2.059   1.027   4.350  0.3300  0.6138 -0.1843
 1308TIP3    H1 3888   1.969   1.011   4.322  0.4186 -2.1348  0.8534
 1308TIP3    H2 3889   2.107   1.037   4.268 -0.5470 -0.1565 -0.8153
 1309TIP3   OH2 3890   5.422   0.628   3.803  0.2322  0.6327 -0.2913
 1309TIP3    H1 3891   5.423   0.724   3.799 -1.5878  0.6779 -0.2479
 1309TIP3    H2 3892   5.411   0.600   3.713  0.7669  0.4527 -0.3038
 1310TIP3   OH2 3893   0.184   1.145   0.949 -0.6489  0.2774 -0.2072
 1310TIP3    H1 3894   0.181   1.236   0.919 -1.7317  0.9499  1.7426
 1310TIP3    H2 3895   0.238   1.148   1.028  1.8752 -1.3659 -1.7046
 1311TIP3   OH2 3896   5.420   6.309   4.670  0.0200  0.3544  0.7478
 1311TIP3    H1 3897   5.355   6.329   4.738  0.4539  0.7306  1.0595
 1311TIP3    H2 3898   5.403   6.372   4.601  1.1658  1.6393  1.5823
 1312TIP3   OH2 3899   2.446   2.439   3.671  0.0768  0.4613 -0.1159
 1312TIP3    H1 3900   2.530   2.443   3.717 -0.4360  0.7460  0.8393
 1312TIP3    H2 3901   2.469   2.446   3.578  0.9864  2.3209  0.2036
 1313TIP3   OH2 3902   7.103   6.158   0.818 -0.1403 -0.4793  0.1530
 1313TIP3    H1 3903   7.189   6.176   0.781  0.0345 -0.0087  0.7654
 1313TIP3    H2 3904   7.072   6.081   0.771  0.5650 -0.5864 -0.1512
 1314TIP3   OH2 3905   2.405   2.493   1.994  0.6561 -0.5073  0.3467
 1314TIP3    H1 3906   2.387   2.432   2.065 -1.7442 -0.8305 -0.4575
 1314TIP3    H2 3907   2.411   2.578   2.037 -1.4555 -0.5959  0.9167
 1315TIP3   OH2 3908   6.527   1.132   5.242 -0.1526 -0.0137 -0.0041
 1315TIP3    H1 3909   6.441   1.175   5.241 -0.3186 -0.3038  0.7069
 1315TIP3    H2 3910   6.549   1.119   5.150 -1.2652 -0.7135 -0.1854
 1316TIP3   OH2 3911   5.397   0.137   1.547  0.0466  0.6684  0.4623
 1316TIP3    H1 3912   5.318   0.179   1.515 -1.2399 -0.1017  2.4525
 1316TIP3    H2 3913   5.402   0.055   1.497 -0.3309  0.7770  0.2403
 1317TIP3   OH2 3914   0.185   3.100   5.354  0.3897  0.6816 -0.1201
 1317TIP3    H1 3915   0.181   3.013   5.316  0.8634 -0.4993  2.3210
 1317TIP3    H2 3916   0.277   3.113   5.376 -0.1006  0.3197  2.5311
 1318TIP3   OH2 3917   0.878   6.444   0.641 -0.2940  0.1214 -0.3376
 1318TIP3    H1 3918   0.865   6.375   0.705  0.3789  0.8110  0.5640
 1318TIP3    H2 3919   0.923   6.401   0.568  1.2250 -0.1633  0.7208
 1319TIP3   OH2 3920   1.337   3.305   5.425 -0.1787  0.6911 -0.1275
 1319TIP3    H1 3921   1.375   3.265   5.503 -1.9167 -1.6389 -0.3503
 1319TIP3    H2 3922   1.256   3.347   5.456  0.3681  1.9094 -0.3092
 1320TIP3   OH2 3923   2.390   1.691   0.675  0.7411  0.2013 -0.5236
 1320TIP3    H1 3924   2.451   1.762   0.655  2.3050 -0.7266  0.7647
 1320TIP3    H2 3925   2.306   1.721   0.638  0.9258  3.4668  1.3439
 1321TIP3   OH2 3926   4.164   3.601   0.579  0.0506  0.1692  0.7388
 1321TIP3    H1 3927   4.256   3.575   0.581  0.1337  0.4828  1.0412
 1321TIP3    H2 3928   4.164   3.691   0.547 -0.1665  0.1029  0.5490
 1322TIP3   OH2 3929   0.338   6.094   0.920 -0.2761  0.0735  0.1138
 1322TIP3    H1 3930   0.255   6.088   0.873  1.3794 -0.0978 -3.0089
 1322TIP3    H2 3931   0.318   6.147   0.997 -3.0443  0.9570 -1.1013
 1323TIP3   OH2 3932   0.212   4.115   3.984 -0.2047  0.1204 -0.2415
 1323TIP3    H1 3933   0.120   4.133   3.964 -0.6176 -2.8597 -1.4745
 1323TIP3    H2 3934   0.211   4.037   4.039  1.5858 -1.0714 -1.7667
 1324TIP3   OH2 3935   7.039   0.869   5.253  0.4779  0.0332 -0.2858
 1324TIP3    H1 3936   7.078   0.931   5.315  0.8481  1.3361 -1.7412
 1324TIP3    H2 3937   7.104   0.862   5.183 -0.8968  0.4242 -1.6418
 1325TIP3   OH2 3938   3.547   4.083   4.551  0.5539 -0.5722  0.6264
 1325TIP3    H1 3939   3.543   4.099   4.645 -1.2139 -0.3398  0.5406
 1325TIP3    H2 3940   3.494   4.004   4.538 -0.6235  0.3467 -0.3467
 1326TIP3   OH2 3941   6.675   4.402   4.563  0.1011 -0.1472  0.4562
 1326TIP3    H1 3942   6.710   4.481   4.520  1.7532 -1.0297  0.0841
 1326TIP3    H2 3943   6.644   4.433   4.648 -0.0687  1.0533 -0.0177
 1327TIP3   OH2 3944   5.816   5.161   4.931 -0.1405 -0.1572  0.5686
 1327TIP3    H1 3945   5.728   5.198   4.937 -0.7984 -1.4434 -0.6314
 1327TIP3    H2 3946   5.847   5.188   4.845  0.1407 -0.7379  0.4862
 1328TIP3   OH2 3947   6.852   2.181   0.722 -0.2210 -0.0103  0.0860
 1328TIP3    H1 3948   6.771   2.131   0.711 -0.4216  0.0075  1.3741
 1328TIP3    H2 3949   6.912   2.144   0.657 -1.7393  1.0537 -2.0416
 1329TIP3   OH2 3950   1.378   1.792   1.156  0.4925 -0.1634 -0.1808
 1329TIP3    H1 3951   1.286   1.809   1.139 -0.0130 -0.5471  1.9149
 1329TIP3    H2 3952   1.409   1.744   1.079 -0.7419  0.9334 -1.4050
 1330TIP3   OH2 3953   3.202   0.664   1.512 -0.3897  0.2968  0.1997
 1330TIP3    H1 3954   3.181   0.717   1.435  2.0050 -1.0947 -1.5674
 1330TIP3    H2 3955   3.287   0.696   1.541  0.2594 -1.3435  0.2102
 1331TIP3   OH2 3956   2.708   6.331   2.740 -0.5189 -0.2944 -0.2722
 1331TIP3    H1 3957   2.755   6.284   2.671 -0.3665  1.5622 -1.5371
 1331TIP3    H2 3958   2.633   6.371   2.696 -1.1324 -0.0770  0.9145
 1332TIP3   OH2 3959   6.726   5.244   5.697 -0.1926 -0.2641  0.1409
 1332TIP3    H1 3960   6.812   5.202   5.704  1.1564  2.3587  0.4731
 1332TIP3    H2 3961   6.682   5.222   5.779 -0.1080 -2.0909 -0.2632
 1333TIP3   OH2 3962   2.698   0.161   0.375 -0.6477  0.0115 -0.0756
 1333TIP3    H1 3963   2.752   0.235   0.346 -0.0896  0.3325  1.6724
 1333TIP3    H2 3964   2.754   0.111   0.434 -1.7065 -0.6247  0.4295
 1334TIP3   OH2 3965   5.434   2.813   5.593  0.0898 -0.3972 -0.5369
 1334TIP3    H1 3966   5.437   2.751   5.520  0.8576 -0.1367 -0.7420
 1334TIP3    H2 3967   5.396   2.893   5.556 -2.5615 -1.2411  0.1446
 1335TIP3   OH2 3968   4.844   3.500   0.179 -0.0744 -0.5337 -0.1366
 1335TIP3    H1 3969   4.771   3.447   0.210 -0.7719 -0.3421 -1.3929
 1335TIP3    H2 3970   4.805   3.584   0.154  0.5651 -0.4218 -0.8057
 1336TIP3   OH2 3971   5.130   2.810   5.385  0.0643  0.0139  0.2694
 1336TIP3    H1 3972   5.139   2.872   5.457  1.1789  0.6006 -0.3320
 1336TIP3    H2 3973   5.044   2.770   5.397  0.0083  0.4989  1.5945
 1337TIP3   OH2 3974   3.598   4.324   4.135 -0.5904 -0.3251  0.8899
 1337TIP3    H1 3975   3.634   4.306   4.048  0.0944 -0.7549  1.2504
 1337TIP3    H2 3976   3.508   4.292   4.131 -1.8996  3.0071 -0.8360
 1338TIP3   OH2 3977   1.778   4.889   2.161 -0.2863 -0.2503 -0.0454
 1338TIP3    H1 3978   1.785   4.977   2.123 -1.9670  0.4143  1.0669
 1338TIP3    H2 3979   1.738   4.837   2.091 -1.3306  0.4345  0.0069
 1339TIP3   OH2 3980   4.413   0.136   0.928  0.0210  0.1327  0.0040
 1339TIP3    H1 3981   4.479   0.129   0.859 -1.3508 -1.0259 -1.2801
 1339TIP3    H2 3982   4.348   0.196   0.893 -0.4434 -0.0657  0.5064
 1340TIP3   OH2 3983   6.550   2.738   5.057  0.3833 -0.3984 -0.0555
 1340TIP3    H1 3984   6.575   2.666   4.999 -0.1325 -0.3970 -0.2885
 1340TIP3    H2 3985   6.520   2.695   5.137 -0.0659 -0.4568 -0.2496
 1341TIP3   OH2 3986   4.859   2.040   0.045 -0.1109 -0.1205 -0.1470
 1341TIP3    H1 3987   4.831   1.950   0.060 -0.3895  0.0248  0.2056
 1341TIP3    H2 3988   4.863   2.079   0.132 -0.5323  0.3703 -0.3445
 1342TIP3   OH2 3989   0.754   6.144   2.254  0.1697  0.2216  0.0441
 1342TIP3    H1 3990   0.814   6.154   2.180 -1.2955 -2.8098 -1.7455
 1342TIP3    H2 3991   0.696   6.220   2.248  1.3677  1.1355 -0.5795
 1343TIP3   OH2 3992   1.931   5.403   2.984 -0.5911  0.5362 -0.0472
 1343TIP3    H1 3993   1.851   5.411   2.932 -0.5340  0.1082 -0.2035
 1343TIP3    H2 3994   1.990   5.468   2.945 -0.6761  0.4737 -0.2873
 1344TIP3   OH2 3995   5.394   6.318   4.048  0.3793 -0.0824  0.0033
 1344TIP3    H1 3996   5.476   6.350   4.084  0.0125 -0.1092  0.8985
 1344TIP3    H2 3997   5.368   6.247   4.107 -0.6491  0.4032  0.1526
 1345TIP3   OH2 3998   4.430   3.413   2.233  0.3697 -0.3328 -0.1562
 1345TIP3    H1 3999   4.510   3.382   2.191  0.3902 -1.0120  0.3733
 1345TIP3    H2 4000   4.373   3.438   2.160  0.6055 -0.9980 -0.5787
 1346TIP3   OH2 4001   5.699   4.055   4.676  0.2170  0.1748  0.4811
 1346TIP3    H1 4002   5.669   4.026   4.590  0.7426 -1.2075  0.7397
 1346TIP3    H2 4003   5.647   4.005   4.739  0.8724  0.0481  0.9422
 1347TIP3   OH2 4004   6.371   4.127   1.240  0.4173  0.3131 -0.3938
 1347TIP3    H1 4005   6.398   4.214   1.269  0.6330  0.6607 -1.5855
 1347TIP3    H2 4006   6.307   4.099   1.306  0.2333  1.4342 -0.0738
 1348TIP3   OH2 4007   7.070   5.051   4.252 -0.6568  0.2372 -0.0605
 1348TIP3    H1 4008   7.095   4.972   4.300 -1.5824  0.4909  0.8672
 1348TIP3    H2 4009   7.035   5.110   4.318 -0.8513  1.0656 -0.8813
 1349TIP3   OH2 4010   0.004   5.617   3.377  0.1534  0.4386 -0.1584
 1349TIP3    H1 4011   0.005   5.712   3.383 -0.9893  0.3501  2.7926
 1349TIP3    H2 4012   0.092   5.590   3.405 -0.2263  0.5947  1.2477
 1350TIP3   OH2 4013   6.501   3.681   1.318 -0.0797  0.6289  0.6695
 1350TIP3    H1 4014   6.427   3.620   1.326  0.9711 -0.4844  2.5518
 1350TIP3    H2 4015   6.578   3.627   1.337  1.1186  2.0425 -0.0115
 1351TIP3   OH2 4016   5.795   4.894   1.325 -0.0628  0.0054  0.0135
 1351TIP3    H1 4017   5.817   4.853   1.242  0.8291 -0.3175  0.3965
 1351TIP3    H2 4018   5.809   4.826   1.390  1.1517  0.8109  0.6299
 1352TIP3   OH2 4019   0.885   6.693   3.701  0.3150  0.0312 -0.2672
 1352TIP3    H1 4020   0.820   6.627   3.724 -0.0390  0.0647 -1.1288
 1352TIP3    H2 4021   0.908   6.735   3.784 -0.4928 -0.2287  0.0927
 1353TIP3   OH2 4022   1.241   1.368   0.448  0.2616 -0.4221 -0.4795
 1353TIP3    H1 4023   1.311   1.321   0.401  0.3257 -0.0878 -0.7181
 1353TIP3    H2 4024   1.162   1.318   0.428  0.3403 -0.4732 -0.6741
 1354TIP3   OH2 4025   4.565   1.298   1.529  0.3881  0.0196 -0.8189
 1354TIP3    H1 4026   4.473   1.285   1.508  0.0633 -0.0247  0.5437
 1354TIP3    H2 4027   4.587   1.225   1.587  1.5647 -0.5377 -1.9208
 1355TIP3   OH2 4028  -0.006   4.271   1.508  0.1865 -0.1022 -0.2767
 1355TIP3    H1 4029   0.028   4.312   1.429  1.6689  0.9841  0.8601
 1355TIP3    H2 4030   0.011   4.335   1.578 -0.0828 -1.4704  1.1017
 1356TIP3   OH2 4031   3.242   1.165   5.617  0.4900 -0.5036 -0.2195
 1356TIP3    H1 4032   3.333   1.137   5.606  1.5432  2.9144 -1.3022
 1356TIP3    H2 4033   3.240   1.211   5.700 -0.4655 -1.1024  0.1139
 1357TIP3   OH2 4034   6.847   3.297   0.961  0.2870  0.3475  0.4951
 1357TIP3    H1 4035   6.931   3.263   0.993  0.5532  1.5287  1.1255
 1357TIP3    H2 4036   6.832   3.375   1.014 -1.3354  0.0316  0.5312
 1358TIP3   OH2 4037   6.005   2.061   3.492 -0.0551 -0.0329 -0.6890
 1358TIP3    H1 4038   6.092   2.021   3.490  0.3493  0.7363  0.4603
 1358TIP3    H2 4039   5.956   2.011   3.557  0.6700  1.6742  1.2700
 1359TIP3   OH2 4040   3.795   2.239   4.427 -0.1483 -0.4294  0.3572
 1359TIP3    H1 4041   3.790   2.196   4.342 -0.5036  0.8922 -0.3090
 1359TIP3    H2 4042   3.704   2.256   4.451  0.0003  0.4147  0.3530
 1360TIP3   OH2 4043   2.284   3.563   0.266  0.2634  0.6702  0.1121
 1360TIP3    H1 4044   2.242   3.532   0.186 -0.4400  1.9125 -0.0204
 1360TIP3    H2 4045   2.253   3.503   0.334 -0.4606  0.6086 -0.2632
 1361TIP3   OH2 4046   1.982   6.291   0.427 -0.2931 -0.3175 -0.4870
 1361TIP3    H1 4047   2.000   6.330   0.341 -0.1655  2.6636  0.7808
 1361TIP3    H2 4048   2.064   6.246   0.450 -0.3497 -1.2166 -1.8885
 1362TIP3   OH2 4049   4.319   2.571   5.132  0.5092 -0.1626 -0.0944
 1362TIP3    H1 4050   4.279   2.602   5.051  0.6413  1.2653  0.3580
 1362TIP3    H2 4051   4.403   2.534   5.105  1.5205  2.2276 -0.4338
 1363TIP3   OH2 4052   0.395   2.247   1.438 -0.2429  0.0703  0.0412
 1363TIP3    H1 4053   0.376   2.300   1.361 -0.7478  0.8144  0.6629
 1363TIP3    H2 4054   0.402   2.310   1.510  0.1232 -0.6154  0.6234
 1364TIP3   OH2 4055   5.436   3.982   1.722 -0.6587 -0.6207  0.8532
 1364TIP3    H1 4056   5.480   3.899   1.738 -0.3476 -0.7846 -0.7025
 1364TIP3    H2 4057   5.418   4.017   1.810 -1.5830 -2.7089  1.5694
 1365TIP3   OH2 4058   6.150   1.585   5.708  0.2428  0.0281 -0.1805
 1365TIP3    H1 4059   6.122   1.572   5.617 -0.0481  2.5499 -0.5392
 1365TIP3    H2 4060   6.232   1.537   5.715  1.2437  1.2473 -2.3892
 1366TIP3   OH2 4061   3.546   3.320   4.050 -0.0681 -0.4008  0.0182
 1366TIP3    H1 4062   3.553   3.406   4.093 -0.9824 -0.6287  0.6513
 1366TIP3    H2 4063   3.476   3.275   4.097  1.6294 -2.2277  0.9118
 1367TIP3   OH2 4064   7.069   3.261   4.456 -0.4122 -0.5467 -0.7419
 1367TIP3    H1 4065   7.068   3.206   4.378  0.9086 -0.1878 -1.0456
 1367TIP3    H2 4066   7.055   3.350   4.422 -0.9506 -0.5173 -0.4419
 1368TIP3   OH2 4067   0.446   3.631   4.765 -0.4404 -0.1879  0.1400
 1368TIP3    H1 4068   0.397   3.575   4.705  0.6971 -2.1237  0.9197
 1368TIP3    H2 4069   0.524   3.656   4.716  0.5530 -1.8755  0.7564
 1369TIP3   OH2 4070   2.290   5.962   2.461 -0.1255 -0.6276 -0.2338
 1369TIP3    H1 4071   2.199   5.937   2.448 -0.4311 -1.2942  2.5642
 1369TIP3    H2 4072   2.336   5.878   2.467  0.0228 -0.4280  2.0454
 1370TIP3   OH2 4073   7.005   0.160   0.760 -0.1838 -0.0787 -0.1200
 1370TIP3    H1 4074   7.083   0.148   0.813 -1.0449 -1.3953  0.9110
 1370TIP3    H2 4075   7.004   0.084   0.701  0.4240  1.0383 -1.6328
 1371TIP3   OH2 4076   3.926   6.498   4.079  0.4294  0.8814 -0.1333
 1371TIP3    H1 4077   3.873   6.460   4.149  0.8108 -2.1273 -1.3470
 1371TIP3    H2 4078   3.863   6.524   4.012  0.2867  0.3343 -0.2120
 1372TIP3   OH2 4079   2.500   3.820   0.525  0.2259 -0.0003 -0.4961
 1372TIP3    H1 4080   2.500   3.747   0.464 -1.4833  0.0005 -0.5549
 1372TIP3    H2 4081   2.471   3.895   0.473  0.4623  0.3761 -0.0905
 1373TIP3   OH2 4082   0.561   0.218   3.729  0.9787 -0.3713 -0.1533
 1373TIP3    H1 4083   0.490   0.161   3.698 -1.5297  1.9060  0.9756
 1373TIP3    H2 4084   0.618   0.161   3.780 -1.3546 -1.9605  0.8545
 1374TIP3   OH2 4085   0.153   6.321   5.785 -0.2670 -1.0018  0.1323
 1374TIP3    H1 4086   0.112   6.255   5.841 -0.2014 -2.7668 -1.7972
 1374TIP3    H2 4087   0.236   6.282   5.759  0.2037  0.2619 -0.3236
 1375TIP3   OH2 4088   1.586   3.333   5.121 -0.0443 -0.0352 -0.0355
 1375TIP3    H1 4089   1.640   3.286   5.185  0.9870  0.2409 -0.6674
 1375TIP3    H2 4090   1.562   3.414   5.166 -0.0303 -0.2153  0.3017
 1376TIP3   OH2 4091   4.550   6.362   2.758  0.3403 -0.4227 -0.9228
 1376TIP3    H1 4092   4.533   6.456   2.765 -0.7447 -0.6321 -0.3699
 1376TIP3    H2 4093   4.512   6.337   2.674 -0.8240 -0.6226 -0.3636
 1377TIP3   OH2 4094   1.580   4.596   4.585 -0.2889 -0.5191  0.1562
 1377TIP3    H1 4095   1.673   4.579   4.569 -0.5380 -0.3903 -1.6024
 1377TIP3    H2 4096   1.540   4.596   4.498 -1.7753  0.4276  0.8013
 1378TIP3   OH2 4097   4.647   5.146   5.803 -0.0199 -0.6476 -0.0015
 1378TIP3    H1 4098   4.554   5.165   5.789 -0.3812 -2.1810  0.0861
 1378TIP3    H2 4099   4.652   5.121   5.896  0.8479  1.2828  0.5149
 1379TIP3   OH2 4100   2.251   3.658   4.482 -0.5927 -0.4461  0.6229
 1379TIP3    H1 4101   2.234   3.624   4.570  0.3289 -0.3433  0.8600
 1379TIP3    H2 4102   2.335   3.618   4.458 -1.5137 -1.6351 -0.8163
 1380TIP3   OH2 4103   5.188   6.392   0.570 -0.2728  0.4145  0.1333
 1380TIP3    H1 4104   5.244   6.324   0.606 -0.2098 -0.7627 -2.0257
 1380TIP3    H2 4105   5.109   6.346   0.541 -1.2037  1.6281  0.6141
 1381TIP3   OH2 4106   5.945   4.852   4.899 -0.3551 -0.0419 -0.0903
 1381TIP3    H1 4107   5.975   4.928   4.948 -1.1440 -0.5129  1.1571
 1381TIP3    H2 4108   6.010   4.784   4.919 -0.9013 -0.3560  0.6736
 1382TIP3   OH2 4109   1.222   0.829   5.178 -0.0715  0.2358 -0.3439
 1382TIP3    H1 4110   1.284   0.901   5.168  0.2359  0.0126 -0.0786
 1382TIP3    H2 4111   1.181   0.820   5.092 -0.3258  0.9167 -0.2979
 1383TIP3   OH2 4112   6.329   2.646   2.025 -0.0243 -0.1657  0.4944
 1383TIP3    H1 4113   6.356   2.730   2.060 -0.7157  0.1912  0.1885
 1383TIP3    H2 4114   6.265   2.613   2.088  1.2982 -1.1574  1.3912
 1384TIP3   OH2 4115   2.756   0.304   4.970  0.2741  0.0757  0.1893
 1384TIP3    H1 4116   2.677   0.344   5.006  0.6353 -1.0754  2.4058
 1384TIP3    H2 4117   2.819   0.376   4.964 -0.4008  0.6640 -0.0124
 1385TIP3   OH2 4118   5.086   4.691   5.274  0.0550  0.1470 -0.4850
 1385TIP3    H1 4119   5.143   4.765   5.292 -0.0618 -0.0180  0.6370
 1385TIP3    H2 4120   5.042   4.673   5.357  0.1654 -1.2598 -0.6993
 1386TIP3   OH2 4121   5.425   6.193   0.597 -0.1052 -0.3547 -0.5332
 1386TIP3    H1 4122   5.349   6.142   0.623  1.1279 -1.9463  0.0799
 1386TIP3    H2 4123   5.415   6.203   0.502 -0.0503 -2.3849 -0.8016
 1387TIP3   OH2 4124   1.615   2.383   4.396 -0.8033  0.2263 -0.2234
 1387TIP3    H1 4125   1.708   2.384   4.420 -0.3770  0.2226 -1.7500
 1387TIP3    H2 4126   1.574   2.447   4.455 -0.1246 -0.8762  1.4902
 1388TIP3   OH2 4127   1.436   1.111   1.182 -0.1056 -0.3681 -0.1805
 1388TIP3    H1 4128   1.386   1.098   1.102  1.4877 -1.4190 -1.0404
 1388TIP3    H2 4129   1.381   1.170   1.235 -1.7026 -0.5788 -1.5337
 1389TIP3   OH2 4130   5.100   0.623   3.442  0.3278  0.0723  0.1607
 1389TIP3    H1 4131   5.145   0.615   3.526  2.1328 -2.9228 -0.9148
 1389TIP3    H2 4132   5.037   0.550   3.442 -1.0383  1.2057 -0.3674
 1390TIP3   OH2 4133   0.193   2.529   3.959  0.2398  0.1580  0.0824
 1390TIP3    H1 4134   0.157   2.563   3.877  2.1083 -1.1567 -1.3846
 1390TIP3    H2 4135   0.143   2.450   3.977  0.8399 -0.4043 -0.6753
 1391TIP3   OH2 4136   2.514   1.493   0.531 -0.2547  0.2934  0.0387
 1391TIP3    H1 4137   2.444   1.453   0.480 -0.2980  2.6440 -1.9566
 1391TIP3    H2 4138   2.486   1.584   0.542  1.9074  0.9938  0.2003
 1392TIP3   OH2 4139   6.372   1.396   5.793  0.1870 -0.0300  0.4308
 1392TIP3    H1 4140   6.327   1.322   5.753  1.1104 -1.4339  1.8583
 1392TIP3    H2 4141   6.347   1.392   5.886 -0.1406  1.7797  0.4582
 1393TIP3   OH2 4142   0.370   6.652   0.485 -0.0590  0.1785  0.1001
 1393TIP3    H1 4143   0.455   6.623   0.518 -0.3012 -0.7252 -0.0439
 1393TIP3    H2 4144   0.379   6.648   0.390  0.5021  2.3853  0.0071
 1394TIP3   OH2 4145   4.822   2.504   2.075  0.1959  0.5260  0.7029
 1394TIP3    H1 4146   4.856   2.490   2.164  0.0157  0.4159  0.7546
 1394TIP3    H2 4147   4.897   2.538   2.026  0.9758 -1.6199  0.3028
 1395TIP3   OH2 4148   2.115   1.481   0.791  0.3567  0.0558 -0.1813
 1395TIP3    H1 4149   2.068   1.411   0.747 -1.6142  0.9664  0.3384
 1395TIP3    H2 4150   2.118   1.454   0.883 -1.1019  0.9212  0.1650
 1396TIP3   OH2 4151   5.392   6.548   5.464  0.1399  0.4559 -1.3062
 1396TIP3    H1 4152   5.483   6.530   5.489 -0.0637 -1.0669 -1.5864
 1396TIP3    H2 4153   5.340   6.497   5.525 -0.6023  2.1273 -0.4797
 1397TIP3   OH2 4154   0.503   1.043   5.031 -0.1739 -0.1955  0.0305
 1397TIP3    H1 4155   0.425   1.030   4.976 -1.2595  0.9252  1.2280
 1397TIP3    H2 4156   0.534   1.130   5.008 -0.1723 -0.0370  0.6215
 1398TIP3   OH2 4157   5.806   4.748   5.202 -0.4592 -0.2251  0.4267
 1398TIP3    H1 4158   5.752   4.714   5.273 -1.3478 -0.5420 -0.3849
 1398TIP3    H2 4159   5.761   4.722   5.122 -0.7197  2.0680 -0.2634
 1399TIP3   OH2 4160   0.582   2.056   3.110  1.3037  0.0970  0.4401
 1399TIP3    H1 4161   0.633   2.060   3.029 -0.9814 -2.5406 -1.3321
 1399TIP3    H2 4162   0.541   2.143   3.117 -0.3972 -0.2770 -2.7618
 1400TIP3   OH2 4163   2.912   4.111   5.482  0.4328  0.1825 -0.9677
 1400TIP3    H1 4164   2.938   4.028   5.441  2.1342  1.2840 -2.2942
 1400TIP3    H2 4165   2.838   4.142   5.429 -1.0121 -1.0220  0.2828
 1401TIP3   OH2 4166   3.268   4.490   2.794  0.5130  0.1882 -0.2079
 1401TIP3    H1 4167   3.324   4.491   2.716 -1.9970 -2.3387 -2.2466
 1401TIP3    H2 4168   3.321   4.445   2.860  1.7122 -0.1064 -1.3191
 1402TIP3   OH2 4169   2.232   2.950   2.723  0.4144 -0.2257 -0.2532
 1402TIP3    H1 4170   2.169   2.962   2.652 -0.1804  0.4231  0.3648
 1402TIP3    H2 4171   2.250   2.856   2.723  0.0014 -0.3155 -0.8992
 1403TIP3   OH2 4172   3.505   5.531   1.189  0.3157  0.3004  0.0995
 1403TIP3    H1 4173   3.459   5.537   1.105  1.0358  0.3155 -0.3059
 1403TIP3    H2 4174   3.476   5.447   1.226  2.8305 -1.6882 -1.9548
 1404TIP3   OH2 4175   4.106   3.949   5.768  0.4080 -0.1525 -0.2528
 1404TIP3    H1 4176   4.156   3.983   5.843 -0.1169 -0.1029  0.0813
 1404TIP3    H2 4177   4.073   4.027   5.724  1.3114 -0.1497 -0.9704
 1405TIP3   OH2 4178   6.508   2.901   1.093 -0.2710 -0.4227  0.0531
 1405TIP3    H1 4179   6.469   2.977   1.136 -0.0981 -0.8369  0.9789
 1405TIP3    H2 4180   6.600   2.903   1.122  0.0163 -0.3563 -0.8232
 1406TIP3   OH2 4181   6.253   0.518   5.231  0.7060 -0.3581  0.1787
 1406TIP3    H1 4182   6.309   0.511   5.154 -0.4126 -0.6720 -0.6284
 1406TIP3    H2 4183   6.164   0.515   5.197  0.1636  0.8751  1.3565
 1407TIP3   OH2 4184   2.604   4.701   0.419  1.1571  0.0571  0.0093
 1407TIP3    H1 4185   2.616   4.616   0.375 -1.7053 -1.7031  2.2575
 1407TIP3    H2 4186   2.518   4.731   0.388  1.6869  1.6820  0.0438
 1408TIP3   OH2 4187   3.731   4.568   1.217  0.8128  0.0574  0.3085
 1408TIP3    H1 4188   3.777   4.606   1.143 -1.1533  0.4070 -0.8047
 1408TIP3    H2 4189   3.688   4.642   1.260  1.8687 -0.1429  1.8068
 1409TIP3   OH2 4190   5.440   4.868   5.733 -0.0218 -0.2117  0.0853
 1409TIP3    H1 4191   5.457   4.779   5.703  0.2893 -0.6186  1.4130
 1409TIP3    H2 4192   5.346   4.881   5.716  0.1823 -0.3330 -1.2263
 1410TIP3   OH2 4193   3.425   5.526   5.792  0.1776  0.3348  0.1252
 1410TIP3    H1 4194   3.330   5.526   5.782  0.0423  4.0291  0.2523
 1410TIP3    H2 4195   3.459   5.547   5.705  0.7801  0.8352  0.4726
 1411TIP3   OH2 4196   1.152   2.139   3.758 -0.5126  0.2245 -0.2613
 1411TIP3    H1 4197   1.177   2.062   3.809 -2.2728 -0.3326 -0.1896
 1411TIP3    H2 4198   1.173   2.214   3.814 -0.1167 -0.2544  0.2377
 1412TIP3   OH2 4199   1.468   6.551   2.285 -0.3605  0.4178  0.2705
 1412TIP3    H1 4200   1.458   6.534   2.191 -0.1687 -1.1894  0.5099
 1412TIP3    H2 4201   1.392   6.509   2.325  0.4629 -0.4593  0.9690
 1413TIP3   OH2 4202   4.983   0.372   5.114  0.7923 -0.2132 -0.1996
 1413TIP3    H1 4203   5.061   0.427   5.118  0.2256  0.5739  0.4017
 1413TIP3    H2 4204   4.938   0.387   5.197 -0.9897  0.8746 -1.2818
 1414TIP3   OH2 4205   3.743   0.992   3.590  0.1108 -0.6402 -0.4457
 1414TIP3    H1 4206   3.721   1.024   3.502  0.0600 -2.8720 -1.3103
 1414TIP3    H2 4207   3.672   0.932   3.612  1.4918 -2.2414 -0.1110
 1415TIP3   OH2 4208   2.436   5.048   2.349  0.4779 -0.1957  0.1472
 1415TIP3    H1 4209   2.378   5.115   2.314  2.2460  0.7959 -1.0114
 1415TIP3    H2 4210   2.470   5.086   2.431  3.2382  1.4666 -1.6059
 1416TIP3   OH2 4211   1.325   4.555   0.317 -0.4524 -0.5138 -0.8507
 1416TIP3    H1 4212   1.247   4.570   0.370  1.0279 -0.1363  1.3341
 1416TIP3    H2 4213   1.312   4.467   0.281 -1.1786 -1.1276  0.8063
 1417TIP3   OH2 4214   5.254   5.343   3.390  0.7692  0.3285  0.1418
 1417TIP3    H1 4215   5.266   5.374   3.300  1.0931 -1.0711 -0.3231
 1417TIP3    H2 4216   5.159   5.338   3.401  0.7089  1.3995  0.2196
 1418TIP3   OH2 4217   1.522   1.974   0.820 -0.0746 -0.6512 -0.3229
 1418TIP3    H1 4218   1.500   2.066   0.804  2.6747  0.3192  0.8744
 1418TIP3    H2 4219   1.517   1.964   0.915 -0.8525 -1.9031 -0.4782
 1419TIP3   OH2 4220   4.556   5.557   1.188  0.6325 -0.1763  0.2083
 1419TIP3    H1 4221   4.628   5.582   1.131  0.1663 -2.1417 -1.3360
 1419TIP3    H2 4222   4.493   5.514   1.130 -1.5914  1.0250  1.5746
 1420TIP3   OH2 4223   6.961   0.996   3.550  0.1422 -0.2505 -0.0374
 1420TIP3    H1 4224   6.893   1.056   3.578  0.5191  0.7035 -1.0586
 1420TIP3    H2 4225   7.012   0.978   3.629 -1.4524 -1.2484  0.8140
 1421TIP3   OH2 4226   5.715   0.865   3.841  0.3633  0.0486  0.4021
 1421TIP3    H1 4227   5.712   0.960   3.826 -0.5177  0.0299  0.4287
 1421TIP3    H2 4228   5.752   0.856   3.928  0.2925  0.3768  0.4684
 1422TIP3   OH2 4229   6.386   2.221   1.015 -0.7702 -0.1732 -0.1520
 1422TIP3    H1 4230   6.368   2.191   0.925 -3.2999  0.1170  0.1748
 1422TIP3    H2 4231   6.375   2.316   1.011 -2.9788 -0.3412  0.8233
 1423TIP3   OH2 4232   1.908   2.748   5.667 -0.2190  0.4327  0.1455
 1423TIP3    H1 4233   1.874   2.820   5.614 -1.0619 -0.0079  0.0628
 1423TIP3    H2 4234   1.837   2.728   5.728 -1.6203 -2.7812 -2.2104
 1424TIP3   OH2 4235   6.312   5.831   3.100 -0.0645  0.3716  0.3595
 1424TIP3    H1 4236   6.277   5.755   3.053  1.0918  0.1169 -0.1106
 1424TIP3    H2 4237   6.396   5.802   3.134  0.8080  1.7144 -0.5691
 1425TIP3   OH2 4238   2.682   5.499   4.662 -0.1152  0.0694 -0.0581
 1425TIP3    H1 4239   2.741   5.442   4.613 -0.7105 -0.5290 -0.0963
 1425TIP3    H2 4240   2.640   5.441   4.726 -1.5371  0.2146 -0.8068
 1426TIP3   OH2 4241   2.619   2.128   3.655 -0.1094 -0.0266 -0.6098
 1426TIP3    H1 4242   2.688   2.193   3.638  0.1576  0.5621  2.1869
 1426TIP3    H2 4243   2.552   2.176   3.703 -0.2264 -1.6328  0.9275
 1427TIP3   OH2 4244   0.371   2.500   0.485  0.3152  0.0922  0.1001
 1427TIP3    H1 4245   0.358   2.449   0.405 -2.4185 -0.3214  0.6961
 1427TIP3    H2 4246   0.466   2.511   0.492  0.6990 -0.9458 -2.4963
 1428TIP3   OH2 4247   4.144   0.006   0.820  0.1304  0.2925 -0.6110
 1428TIP3    H1 4248   4.182   0.085   0.782  3.1835 -1.5089 -1.6290
 1428TIP3    H2 4249   4.218  -0.040   0.860 -1.4938 -2.1044 -0.1174
 1429TIP3   OH2 4250   3.165   3.012   0.120  0.4116  0.2694 -0.4087
 1429TIP3    H1 4251   3.195   2.972   0.201 -0.0604  0.0337 -0.3491
 1429TIP3    H2 4252   3.122   2.942   0.072 -1.3683  0.9135  0.1647
 1430TIP3   OH2 4253   5.646   5.712   1.677  0.2484 -0.0070 -0.5532
 1430TIP3    H1 4254   5.619   5.731   1.587 -1.1136  1.5763  0.1350
 1430TIP3    H2 4255   5.669   5.620   1.676 -1.9836 -0.6407 -2.0391
 1431TIP3   OH2 4256   6.448   3.474   3.631  0.6672  0.4054 -0.0286
 1431TIP3    H1 4257   6.519   3.539   3.623  0.5332  0.5837  0.2474
 1431TIP3    H2 4258   6.452   3.426   3.548  0.8422  0.6894 -0.1884
 1432TIP3   OH2 4259   2.599   4.221   3.389  0.1941 -0.1398  0.2567
 1432TIP3    H1 4260   2.660   4.159   3.348 -0.0736 -0.7383  0.7523
 1432TIP3    H2 4261   2.639   4.241   3.474 -0.7632 -1.3199  1.0267
 1433TIP3   OH2 4262   4.941   2.625   4.377  0.4249 -0.0715 -0.0660
 1433TIP3    H1 4263   4.882   2.586   4.311  0.2608  0.3611 -0.1775
 1433TIP3    H2 4264   4.897   2.608   4.460  0.8936 -1.0889 -0.0157
 1434TIP3   OH2 4265   1.642   3.988   3.261 -0.3437  0.4743 -0.3839
 1434TIP3    H1 4266   1.654   4.058   3.324 -2.2986  0.8237 -0.3317
 1434TIP3    H2 4267   1.630   3.909   3.314  1.8434  0.0337 -0.4422
 1435TIP3   OH2 4268   4.367   3.410   4.541 -0.1884  0.1528 -0.2332
 1435TIP3    H1 4269   4.456   3.389   4.567 -0.6684 -0.2341  1.2059
 1435TIP3    H2 4270   4.320   3.422   4.624 -1.0728  2.1218 -0.9698
 1436TIP3   OH2 4271   1.902   2.366   4.195  0.1388  0.3767 -0.3010
 1436TIP3    H1 4272   1.860   2.446   4.227  1.7132  1.8396 -1.7101
 1436TIP3    H2 4273   1.870   2.357   4.105  0.6595 -0.0574 -0.4459
 1437TIP3   OH2 4274   5.767   5.448   5.178  0.0012  0.0514 -0.1040
 1437TIP3    H1 4275   5.781   5.518   5.242  1.4440  0.9017 -1.2856
 1437TIP3    H2 4276   5.798   5.485   5.095  0.5180 -1.8824 -0.8198
 1438TIP3   OH2 4277   4.620   3.504   2.709 -0.6337 -0.2691  0.2014
 1438TIP3    H1 4278   4.639   3.598   2.704 -0.4094 -0.3206  0.0159
 1438TIP3    H2 4279   4.618   3.476   2.617  0.7033 -0.7085  0.2792
 1439TIP3   OH2 4280   6.121   3.491   1.119 -0.2731  0.3392  0.6912
 1439TIP3    H1 4281   6.050   3.546   1.152 -1.0486 -0.7215  0.8596
 1439TIP3    H2 4282   6.127   3.511   1.026 -0.0031  1.2840  0.9099
 1440TIP3   OH2 4283   4.880   6.443   4.464 -0.1517  0.0013  0.3861
 1440TIP3    H1 4284   4.954   6.501   4.479 -0.9905  0.8532  1.4333
 1440TIP3    H2 4285   4.853   6.415   4.552 -1.7050  0.5597  0.1241
 1441TIP3   OH2 4286   5.885   5.588   1.492 -0.4851 -0.2417 -0.4025
 1441TIP3    H1 4287   5.825   5.515   1.501  0.3413 -1.0251 -1.0533
 1441TIP3    H2 4288   5.969   5.548   1.471  0.2694  0.8307  0.4490
 1442TIP3   OH2 4289   2.913   1.394   5.294  0.3996  0.9233  0.0191
 1442TIP3    H1 4290   2.975   1.457   5.331  0.3148  0.8907  0.2182
 1442TIP3    H2 4291   2.955   1.309   5.306  1.0608  1.0442 -1.3533
 1443TIP3   OH2 4292   6.738   2.819   2.974  0.1586  0.3401 -0.3868
 1443TIP3    H1 4293   6.813   2.875   2.955 -0.3737  0.6631 -1.6729
 1443TIP3    H2 4294   6.674   2.879   3.013  0.3448  0.1868  0.1615
 1444TIP3   OH2 4295   0.680   3.163   4.038 -0.4741 -0.3482  0.1613
 1444TIP3    H1 4296   0.612   3.124   4.095 -0.1071 -0.0288  0.8270
 1444TIP3    H2 4297   0.633   3.227   3.986 -1.1106 -1.7158 -1.0119
 1445TIP3   OH2 4298   1.776   5.440   4.858  0.0664 -0.1173  0.1015
 1445TIP3    H1 4299   1.782   5.528   4.893  1.8571 -1.1872  2.7871
 1445TIP3    H2 4300   1.685   5.414   4.872  0.2080  0.2947  2.0727
 1446TIP3   OH2 4301   0.251   4.653   1.210  0.0747  0.2760 -0.6947
 1446TIP3    H1 4302   0.210   4.736   1.186 -0.9805 -0.4382 -1.5103
 1446TIP3    H2 4303   0.181   4.604   1.254  0.7793 -0.0629  0.0809
 1447TIP3   OH2 4304   6.183   1.710   2.401 -0.0763 -1.1425  0.4557
 1447TIP3    H1 4305   6.156   1.796   2.433 -0.8686 -1.3114  0.2598
 1447TIP3    H2 4306   6.273   1.700   2.432  0.2874  0.0723 -0.1434
 1448TIP3   OH2 4307   0.778   1.682   5.138  0.0764  0.2696  0.1384
 1448TIP3    H1 4308   0.828   1.624   5.195 -0.1316 -2.3985 -2.1334
 1448TIP3    H2 4309   0.727   1.737   5.197  1.3055 -0.9627  2.4653
 1449TIP3   OH2 4310   7.233   6.284   2.177  0.7008 -0.0845 -0.1715
 1449TIP3    H1 4311   7.187   6.229   2.241 -0.7771 -0.7569 -1.7520
 1449TIP3    H2 4312   7.173   6.357   2.162  2.3839  1.7605  1.4525
 1450TIP3   OH2 4313   2.486   4.613   5.505 -0.0806 -0.3509 -0.1854
 1450TIP3    H1 4314   2.398   4.627   5.470  0.1981  1.0804 -0.3619
 1450TIP3    H2 4315   2.516   4.700   5.530  1.3403 -0.8102 -0.2214
 1451TIP3   OH2 4316   6.529   6.631   3.070 -0.2442  0.6117 -0.2976
 1451TIP3    H1 4317   6.449   6.642   3.020 -0.1528  0.3776 -0.4963
 1451TIP3    H2 4318   6.537   6.536   3.082  0.4267  0.5774 -0.9660
 1452TIP3   OH2 4319   0.897   6.407   3.122 -0.6214  0.3684 -0.5198
 1452TIP3    H1 4320   0.858   6.356   3.051 -0.6633 -0.2428 -0.0629
 1452TIP3    H2 4321   0.823   6.450   3.165 -1.0824 -2.1833  1.4640
 1453TIP3   OH2 4322   6.565   0.223   0.251  0.3582 -0.0367 -0.3931
 1453TIP3    H1 4323   6.572   0.318   0.248 -1.2606  0.1338  0.1953
 1453TIP3    H2 4324   6.490   0.203   0.194 -0.2909 -0.8113  0.6974
 1454TIP3   OH2 4325   5.605   5.911   0.771 -0.2002 -0.3563  0.6126
 1454TIP3    H1 4326   5.613   5.821   0.741  3.7017 -0.5628  1.6913
 1454TIP3    H2 4327   5.647   5.963   0.703  2.3641 -0.0719  2.2681
 1455TIP3   OH2 4328   6.180   2.256   0.761 -0.3470  0.0285 -0.0643
 1455TIP3    H1 4329   6.128   2.297   0.830 -0.7860  1.5113 -1.2009
 1455TIP3    H2 4330   6.214   2.330   0.710  0.1967 -1.0029 -1.2664
 1456TIP3   OH2 4331   1.469   4.160   4.915  0.3058 -0.0958 -0.1679
 1456TIP3    H1 4332   1.533   4.094   4.888 -0.7702 -0.8525 -0.9685
 1456TIP3    H2 4333   1.511   4.243   4.894  0.6937 -0.5953 -1.5311
 1457TIP3   OH2 4334   0.574   3.615   2.208  0.2014 -0.0888 -0.4818
 1457TIP3    H1 4335   0.564   3.708   2.229 -0.6398  0.0223 -1.3151
 1457TIP3    H2 4336   0.626   3.614   2.128  1.8481 -0.4360  0.5489
 1458TIP3   OH2 4337   3.208   2.460   1.698  0.9756  0.3058  0.3072
 1458TIP3    H1 4338   3.228   2.403   1.772  0.8931  2.3335  1.9647
 1458TIP3    H2 4339   3.127   2.424   1.661  2.6916 -2.6643 -0.9270
 1459TIP3   OH2 4340   1.807   3.627   4.247  0.2313 -0.1011 -0.4625
 1459TIP3    H1 4341   1.761   3.592   4.324 -1.2910 -1.2397 -1.8259
 1459TIP3    H2 4342   1.771   3.715   4.236  1.3038  0.5208  0.7690
 1460TIP3   OH2 4343   3.897   6.515   5.148 -0.2959 -0.5341  0.1083
 1460TIP3    H1 4344   3.964   6.500   5.215  0.8868  0.6374 -0.7509
 1460TIP3    H2 4345   3.860   6.428   5.131 -1.5091 -0.7091  3.1014
 1461TIP3   OH2 4346   6.588   1.630   5.066  0.4676  0.3442  0.3950
 1461TIP3    H1 4347   6.628   1.633   5.153 -0.0255 -1.6518  0.7432
 1461TIP3    H2 4348   6.655   1.591   5.010  0.2969  0.3646  0.1731
 1462TIP3   OH2 4349   4.500   0.526   0.172  0.2123  0.1965 -0.0868
 1462TIP3    H1 4350   4.577   0.574   0.203 -0.2190  0.7376  0.1653
 1462TIP3    H2 4351   4.456   0.496   0.252  0.0917 -0.0017 -0.2255
 1463TIP3   OH2 4352   4.083   4.901   1.191  0.3943 -0.7629 -0.0336
 1463TIP3    H1 4353   4.149   4.927   1.255  0.1577 -2.2573  0.8583
 1463TIP3    H2 4354   4.099   4.808   1.175  0.3751 -0.4612 -2.1057
 1464TIP3   OH2 4355   0.723   0.753   3.071 -0.1758  0.1158  0.4337
 1464TIP3    H1 4356   0.800   0.701   3.094 -0.6017 -0.2895  0.9868
 1464TIP3    H2 4357   0.660   0.735   3.141 -0.9991 -0.0234 -0.3238
 1465TIP3   OH2 4358   7.018   5.191   5.720 -1.4542  0.3966 -1.0002
 1465TIP3    H1 4359   7.066   5.256   5.669 -0.2775  0.0678 -0.3583
 1465TIP3    H2 4360   7.063   5.190   5.805 -1.2153 -1.4838 -1.1014
 1466TIP3   OH2 4361   6.383   3.241   3.946 -0.1453 -0.4254  0.1163
 1466TIP3    H1 4362   6.409   3.333   3.939 -1.3611 -0.0486  0.3432
 1466TIP3    H2 4363   6.348   3.219   3.860  1.7197 -1.2141 -0.4912
 1467TIP3   OH2 4364   6.001   1.037   3.694  0.0503  0.2162 -0.8155
 1467TIP3    H1 4365   6.092   1.067   3.693 -0.8537  3.2657 -0.6583
 1467TIP3    H2 4366   5.972   1.050   3.784 -0.7207 -0.1988 -0.9918
 1468TIP3   OH2 4367   4.240   1.179   0.833 -0.3361 -0.2481 -0.4072
 1468TIP3    H1 4368   4.233   1.204   0.741  0.8618  0.2390 -0.3853
 1468TIP3    H2 4369   4.193   1.096   0.838 -3.8141  1.5189 -0.6184
 1469TIP3   OH2 4370   0.116   5.204   2.973  0.0899 -0.3999  0.4052
 1469TIP3    H1 4371   0.106   5.164   3.059 -2.6646  1.0436  0.8597
 1469TIP3    H2 4372   0.191   5.263   2.982  1.3852 -2.0282  1.0026
 1470TIP3   OH2 4373   1.634   2.465   0.271  0.0022 -0.1204 -0.0414
 1470TIP3    H1 4374   1.591   2.549   0.288 -0.9743 -0.3421 -1.2788
 1470TIP3    H2 4375   1.568   2.413   0.227  0.6875 -1.4689  0.4630
 1471TIP3   OH2 4376   5.138   6.194   4.206  0.5087 -0.0023  0.4800
 1471TIP3    H1 4377   5.134   6.266   4.269  0.1522 -0.0035  0.4607
 1471TIP3    H2 4378   5.138   6.115   4.261 -2.0156 -0.1000  0.4780
 1472TIP3   OH2 4379   6.717   0.923   2.873 -0.1701 -0.1244  0.3566
 1472TIP3    H1 4380   6.660   0.982   2.823 -0.6898  0.2648  1.3828
 1472TIP3    H2 4381   6.774   0.982   2.922 -0.6342 -0.4749  1.3241
 1473TIP3   OH2 4382   5.898   6.308   3.493 -0.7097  0.7276 -0.5618
 1473TIP3    H1 4383   5.980   6.342   3.455 -0.2658  1.7903  1.1990
 1473TIP3    H2 4384   5.911   6.316   3.588 -3.3796  2.3003 -0.2254
 1474TIP3   OH2 4385   1.670   2.671   5.782 -0.3907 -0.0303 -0.3793
 1474TIP3    H1 4386   1.630   2.603   5.836  1.0103  0.0267  0.8117
 1474TIP3    H2 4387   1.598   2.730   5.760 -0.9228  0.4300  2.1936
 1475TIP3   OH2 4388   1.762   2.845   0.973  1.1135  0.5430 -0.4966
 1475TIP3    H1 4389   1.844   2.796   0.976  0.1045 -1.2180 -0.2817
 1475TIP3    H2 4390   1.748   2.873   1.063  0.6162 -0.7085 -0.1613
 1476TIP3   OH2 4391   3.895   4.464   0.393  0.0084 -0.1539  0.4778
 1476TIP3    H1 4392   3.848   4.471   0.310 -0.1391  2.0709  0.6640
 1476TIP3    H2 4393   3.941   4.381   0.389 -1.3080 -0.8508 -1.1231
 1477TIP3   OH2 4394   6.401   4.804   3.008 -0.0095 -0.1698  0.2884
 1477TIP3    H1 4395   6.398   4.900   3.010  0.0424 -0.1533 -0.2118
 1477TIP3    H2 4396   6.309   4.777   3.009 -0.0419 -0.1940  2.6329
 1478TIP3   OH2 4397   2.712   1.510   3.941  0.0118 -0.3011 -0.5611
 1478TIP3    H1 4398   2.657   1.521   3.863 -0.7180  0.6011  0.0608
 1478TIP3    H2 4399   2.778   1.578   3.934 -0.8319  0.6389  0.2258
 1479TIP3   OH2 4400   1.678   6.576   4.268  0.4547  0.9074 -0.0779
 1479TIP3    H1 4401   1.662   6.591   4.175 -2.1165  0.6598  0.2701
 1479TIP3    H2 4402   1.712   6.660   4.300  1.6580  0.9056 -1.2431
 1480TIP3   OH2 4403   4.136   2.822   4.658 -0.2310  0.1245 -0.0826
 1480TIP3    H1 4404   4.163   2.730   4.659  0.9339  0.3941  2.8374
 1480TIP3    H2 4405   4.041   2.818   4.650 -0.1395 -1.2750 -0.8671
 1481TIP3   OH2 4406   1.860   0.738   3.967 -0.4172 -0.6733  0.2855
 1481TIP3    H1 4407   1.782   0.777   3.927 -1.0678 -1.2409  0.9697
 1481TIP3    H2 4408   1.934   0.778   3.920 -1.1344 -1.4302 -1.6023
 1482TIP3   OH2 4409   3.306   4.723   5.793  0.2095 -0.2247 -0.0942
 1482TIP3    H1 4410   3.335   4.654   5.854  0.9703 -0.3979 -0.6297
 1482TIP3    H2 4411   3.292   4.677   5.710 -2.0922 -0.2267  0.2320
 1483TIP3   OH2 4412   2.678   5.765   2.511 -0.1343 -0.1405 -0.7982
 1483TIP3    H1 4413   2.709   5.830   2.575 -2.2704 -0.4367  0.6312
 1483TIP3    H2 4414   2.756   5.713   2.490  0.8237  0.5349  0.8902
 1484TIP3   OH2 4415   5.273   4.411   3.431  0.1945  0.0289 -0.3903
 1484TIP3    H1 4416   5.349   4.428   3.487  1.0999 -1.0806 -1.2329
 1484TIP3    H2 4417   5.257   4.317   3.441 -1.1200  0.2476 -0.1952
 1485TIP3   OH2 4418   1.493   6.061   2.709  0.0044 -0.2173 -0.0738
 1485TIP3    H1 4419   1.579   6.031   2.681  0.5747 -0.0225  1.3631
 1485TIP3    H2 4420   1.458   5.989   2.762  0.0599  0.3886  0.8120
 1486TIP3   OH2 4421   6.581   0.582   5.084  0.3914  0.2391 -0.0538
 1486TIP3    H1 4422   6.556   0.499   5.126 -0.6126  1.0190  0.9786
 1486TIP3    H2 4423   6.537   0.580   4.999 -0.9312  0.3401  0.5909
 1487TIP3   OH2 4424   7.007   5.481   3.584  0.0890  0.6721 -0.2248
 1487TIP3    H1 4425   7.042   5.567   3.606  2.2383 -0.1615 -0.1156
 1487TIP3    H2 4426   7.079   5.437   3.538 -1.5114 -0.5053 -1.7462
 1488TIP3   OH2 4427   6.626   3.700   3.599  0.2108 -0.2471 -0.0815
 1488TIP3    H1 4428   6.721   3.715   3.592  0.4306 -0.1396  2.2289
 1488TIP3    H2 4429   6.589   3.788   3.608 -0.0678 -0.3113 -0.6125
 1489TIP3   OH2 4430   4.305   5.578   0.634  0.0209  0.4279  0.1181
 1489TIP3    H1 4431   4.335   5.669   0.642  0.5736  0.3224 -0.6257
 1489TIP3    H2 4432   4.228   5.582   0.578  0.4408  0.3704 -0.4704
 1490TIP3   OH2 4433   6.215   1.017   2.629 -0.0928  0.0417 -0.3161
 1490TIP3    H1 4434   6.181   1.106   2.637 -3.9082 -1.3415  1.5854
 1490TIP3    H2 4435   6.201   0.994   2.537 -0.4772  0.9348 -0.4929
 1491TIP3   OH2 4436   1.401   2.469   1.573  0.2085  0.4328 -0.7017
 1491TIP3    H1 4437   1.398   2.393   1.631  1.5823  1.4567  0.8227
 1491TIP3    H2 4438   1.311   2.482   1.545  0.1077 -2.5104 -2.1048
 1492TIP3   OH2 4439   5.551   1.098   5.495  0.1207 -0.0947  0.2780
 1492TIP3    H1 4440   5.478   1.132   5.547 -1.4155 -2.6030 -0.0789
 1492TIP3    H2 4441   5.521   1.104   5.405  2.3046  3.1314 -0.4066
 1493TIP3   OH2 4442   2.402   4.512   1.126 -0.4018  0.2570 -0.2080
 1493TIP3    H1 4443   2.374   4.421   1.131  1.5648 -0.3407  0.8992
 1493TIP3    H2 4444   2.461   4.524   1.200 -0.7675  2.5152 -0.1959
 1494TIP3   OH2 4445   2.821   5.887   4.263  0.3165 -0.0313 -0.1267
 1494TIP3    H1 4446   2.856   5.823   4.203  1.2019 -0.4316  0.7898
 1494TIP3    H2 4447   2.821   5.843   4.348 -0.6376  0.6101  0.2293
 1495TIP3   OH2 4448   3.817   1.350   3.477  0.6670  0.1201  0.1120
 1495TIP3    H1 4449   3.876   1.312   3.542 -0.7647 -0.0617  1.3496
 1495TIP3    H2 4450   3.767   1.276   3.444  1.4481  0.1906 -1.3266
 1496TIP3   OH2 4451   0.757   0.027   4.489 -0.2652 -0.0277 -0.6324
 1496TIP3    H1 4452   0.828  -0.028   4.456 -0.8201 -0.8787 -0.4502
 1496TIP3    H2 4453   0.729   0.079   4.414 -1.9566 -2.3986 -1.7650
 1497TIP3   OH2 4454   5.629   5.416   3.854  0.0634 -0.3385 -0.3285
 1497TIP3    H1 4455   5.598   5.411   3.764 -0.7617  0.9687 -0.1469
 1497TIP3    H2 4456   5.638   5.510   3.871 -1.5730 -0.4671  1.5266
 1498TIP3   OH2 4457   1.398   0.071   3.230 -0.0672  0.7059 -0.6720
 1498TIP3    H1 4458   1.403   0.119   3.313 -0.1816 -0.1712 -0.1446
 1498TIP3    H2 4459   1.460  -0.002   3.242  0.1877  0.7806 -1.5000
 1499TIP3   OH2 4460   7.119   5.447   5.188 -0.5859  0.2014  0.5520
 1499TIP3    H1 4461   7.158   5.533   5.173  0.9364 -0.4914  0.3455
 1499TIP3    H2 4462   7.192   5.386   5.182 -1.0940 -0.8594  3.6368
 1500TIP3   OH2 4463   3.655   1.433   5.146 -0.2943  0.0504  0.0755
 1500TIP3    H1 4464   3.707   1.511   5.165 -1.4667  0.7509  0.5081
 1500TIP3    H2 4465   3.642   1.435   5.052  0.2550 -0.0139 -0.0086
 1501TIP3   OH2 4466   2.091   4.893   2.156  0.2498  0.7358 -0.1304
 1501TIP3    H1 4467   2.049   4.977   2.140  1.1530  1.2800  0.2915
 1501TIP3    H2 4468   2.095   4.851   2.070 -2.1627  0.1459 -0.0379
 1502TIP3   OH2 4469   4.416   3.755   4.765  0.3698 -0.1080  0.1933
 1502TIP3    H1 4470   4.320   3.749   4.763  0.2970  0.6306 -2.7610
 1502TIP3    H2 4471   4.444   3.710   4.685  2.6521 -1.5779  1.6994
 1503TIP3   OH2 4472   7.011   5.030   0.806  0.4108  0.7743 -0.2291
 1503TIP3    H1 4473   7.060   5.112   0.813 -0.7837  1.4763  0.1641
 1503TIP3    H2 4474   7.023   5.003   0.715 -0.0664  1.9791 -0.6773
 1504TIP3   OH2 4475   2.278   3.824   0.121 -0.0215  0.3285  0.2220
 1504TIP3    H1 4476   2.283   3.740   0.167 -0.4178  0.3176  0.2546
 1504TIP3    H2 4477   2.327   3.885   0.175  1.3214 -0.1393 -0.4163
 1505TIP3   OH2 4478   1.203   2.755   3.653 -0.2240 -0.0758  0.7419
 1505TIP3    H1 4479   1.240   2.841   3.672  2.2335 -1.1257  1.0118
 1505TIP3    H2 4480   1.236   2.698   3.723 -3.3363 -0.9318  1.6883
 1506TIP3   OH2 4481   0.394   4.843   2.242  0.3172 -0.1515 -0.0537
 1506TIP3    H1 4482   0.409   4.912   2.307  0.6677  1.0041 -1.3046
 1506TIP3    H2 4483   0.366   4.767   2.293 -1.1337  1.2113  1.2970
 1507TIP3   OH2 4484   2.445   2.104   1.751 -0.2021 -0.1968  0.0269
 1507TIP3    H1 4485   2.490   2.188   1.762 -0.1927 -0.4400  2.1852
 1507TIP3    H2 4486   2.352   2.126   1.751 -0.2215 -0.2384  1.3248
 1508TIP3   OH2 4487   6.038   5.308   2.384  0.0403 -0.0167 -0.6282
 1508TIP3    H1 4488   6.121   5.340   2.349 -0.3276 -1.3959 -2.9674
 1508TIP3    H2 4489   6.063   5.244   2.450  0.8776 -0.7176 -1.5933
 1509TIP3   OH2 4490   2.846   0.876   3.105  0.1251  0.1172  0.4202
 1509TIP3    H1 4491   2.809   0.911   3.186  0.2157 -0.5174  0.7377
 1509TIP3    H2 4492   2.789   0.909   3.036  1.0709  2.1734  0.5471
 1510TIP3   OH2 4493   5.752   5.113   2.538  0.1354  0.7120 -0.0009
 1510TIP3    H1 4494   5.795   5.045   2.486 -0.4150  1.0723 -0.9599
 1510TIP3    H2 4495   5.747   5.189   2.479  1.2978  1.8082  1.2323
 1511TIP3   OH2 4496   2.762   4.749   0.116 -0.2552  0.0029  0.1714
 1511TIP3    H1 4497   2.688   4.699   0.150 -1.5895  0.8143 -1.3921
 1511TIP3    H2 4498   2.826   4.749   0.187 -1.4878 -1.2555  1.3352
 1512TIP3   OH2 4499   7.186   1.542   1.021  0.1233 -0.2085 -0.6225
 1512TIP3    H1 4500   7.114   1.555   1.082 -0.0307  1.5914 -1.1260
 1512TIP3    H2 4501   7.235   1.467   1.056 -1.3586 -0.7679  0.3132
 1513TIP3   OH2 4502   5.870   2.783   1.336  0.0259 -0.2578  0.3946
 1513TIP3    H1 4503   5.865   2.704   1.281  0.1401 -0.2116  0.3172
 1513TIP3    H2 4504   5.958   2.780   1.374 -0.0579 -0.2979  0.5883
 1514TIP3   OH2 4505   3.835   2.873   4.481  0.2486 -0.1086 -0.5273
 1514TIP3    H1 4506   3.836   2.914   4.568  1.3185 -0.2791 -0.4513
 1514TIP3    H2 4507   3.755   2.820   4.481 -0.4083  0.8461 -0.1070
 1515TIP3   OH2 4508   6.553   1.984   4.255 -0.2900 -0.1686 -0.2745
 1515TIP3    H1 4509   6.504   1.929   4.316  0.3975  0.4957  0.9041
 1515TIP3    H2 4510   6.635   1.937   4.242 -0.0803  0.1250 -0.0030
 1516TIP3   OH2 4511   5.424   5.569   4.387 -0.3295  0.1436 -0.0805
 1516TIP3    H1 4512   5.414   5.645   4.445 -0.2594 -1.3348  1.9879
 1516TIP3    H2 4513   5.515   5.572   4.358  0.6888 -0.8806  2.6902
 1517TIP3   OH2 4514   6.621   4.795   2.814  0.6565 -0.1734  0.7701
 1517TIP3    H1 4515   6.538   4.812   2.859  0.8841 -0.4408  1.3008
 1517TIP3    H2 4516   6.600   4.726   2.751  0.8479 -1.5310  2.1296
 1518TIP3   OH2 4517   2.339   0.467   1.749  0.2415 -0.0678  0.0704
 1518TIP3    H1 4518   2.339   0.485   1.655  0.7942  0.0414  0.0850
 1518TIP3    H2 4519   2.373   0.378   1.756 -1.2856 -0.6701  0.0763
 1519TIP3   OH2 4520   7.090   4.750   3.502 -0.1314  0.7742  0.2615
 1519TIP3    H1 4521   7.074   4.666   3.459  3.0605 -0.9106  1.9633
 1519TIP3    H2 4522   7.009   4.770   3.549 -1.0430 -1.2413 -0.3631
 1520TIP3   OH2 4523   6.340   5.234   5.200  0.1957  0.1873 -0.2721
 1520TIP3    H1 4524   6.398   5.256   5.273  1.0601 -2.1782 -0.1398
 1520TIP3    H2 4525   6.257   5.211   5.242  0.7364 -1.3121  0.0375
 1521TIP3   OH2 4526   6.730   0.738   5.525  0.2957  0.0338  0.1760
 1521TIP3    H1 4527   6.695   0.756   5.612  0.8554  0.3265  0.3416
 1521TIP3    H2 4528   6.697   0.810   5.471 -0.7158 -0.5725 -0.0457
 1522TIP3   OH2 4529   2.757   2.016   5.867 -0.5626 -0.4980 -0.1704
 1522TIP3    H1 4530   2.681   1.971   5.831 -0.8232 -0.5868  0.4922
 1522TIP3    H2 4531   2.829   1.992   5.808 -0.4276 -2.7790  0.8392
 1523TIP3   OH2 4532   6.468   2.301   4.533  0.2593 -0.6035 -0.9252
 1523TIP3    H1 4533   6.478   2.214   4.572  1.2617 -0.6925 -1.3491
 1523TIP3    H2 4534   6.378   2.302   4.501 -0.4372 -0.7186  0.8959
 1524TIP3   OH2 4535   5.010   4.618   5.536 -0.0460 -1.0636 -0.1535
 1524TIP3    H1 4536   4.921   4.644   5.562  0.6192 -0.2114  1.4178
 1524TIP3    H2 4537   5.021   4.532   5.576  0.2154 -0.6703  0.6603
 1525TIP3   OH2 4538   0.628   0.830   5.136  0.5691  0.0400 -0.2548
 1525TIP3    H1 4539   0.564   0.761   5.153  0.3951 -0.0679 -1.2467
 1525TIP3    H2 4540   0.575   0.904   5.106  0.7708  0.5421  0.6006
 1526TIP3   OH2 4541   3.694   0.940   1.187 -0.0061 -0.5031  0.3093
 1526TIP3    H1 4542   3.634   0.986   1.246 -0.3679 -0.7800  0.1576
 1526TIP3    H2 4543   3.728   0.868   1.240  1.7887  0.8203  1.0843
 1527TIP3   OH2 4544   6.335   6.622   3.318  0.0523 -0.3870  0.4984
 1527TIP3    H1 4545   6.252   6.581   3.341  0.3674 -0.4821  1.5408
 1527TIP3    H2 4546   6.379   6.557   3.263 -0.7213 -0.1666 -0.4053
 1528TIP3   OH2 4547   6.704   4.239   4.164  0.0360 -0.2685 -0.2868
 1528TIP3    H1 4548   6.793   4.267   4.145 -0.1415  0.4446 -0.1193
 1528TIP3    H2 4549   6.650   4.315   4.140 -0.3114  0.2019  1.8160
 1529TIP3   OH2 4550   4.178   6.289   0.971 -0.1462  0.0095  0.3003
 1529TIP3    H1 4551   4.104   6.303   0.912  1.1649  2.2103 -0.9533
 1529TIP3    H2 4552   4.217   6.206   0.941 -0.8686 -0.0980 -0.3803
 1530TIP3   OH2 4553   4.946   6.267   0.523 -0.1475 -0.5545  0.6987
 1530TIP3    H1 4554   4.884   6.242   0.455 -1.6308  0.3597  1.6603
 1530TIP3    H2 4555   4.923   6.212   0.598 -0.0028  0.0245  1.1761
 1531TIP3   OH2 4556   2.239   6.560   1.502 -0.5866  0.1706  0.0755
 1531TIP3    H1 4557   2.270   6.470   1.491 -1.8535 -0.1265 -1.7495
 1531TIP3    H2 4558   2.160   6.551   1.555 -0.3540  0.2805  0.4372
 1532TIP3   OH2 4559   5.808   1.780   0.933 -0.6116  0.3807  0.0207
 1532TIP3    H1 4560   5.821   1.841   0.860 -0.7310  1.5121  0.9098
 1532TIP3    H2 4561   5.713   1.779   0.946 -0.6040  0.0495  0.0541
 1533TIP3   OH2 4562   6.696   4.173   2.368  0.0767 -0.0005  0.6231
 1533TIP3    H1 4563   6.639   4.168   2.292  1.0112 -2.2103 -0.0360
 1533TIP3    H2 4564   6.679   4.259   2.407 -2.4334  0.0735 -0.4825
 1534TIP3   OH2 4565   6.556   6.478   0.905 -0.2621 -0.9787 -0.7123
 1534TIP3    H1 4566   6.520   6.447   0.988 -0.8988  3.2211  0.8254
 1534TIP3    H2 4567   6.651   6.481   0.920 -0.3735 -0.2655 -0.1570
 1535TIP3   OH2 4568   3.678   5.463   5.217 -0.5520 -0.6418  0.0732
 1535TIP3    H1 4569   3.722   5.547   5.226  1.8452 -1.8001  0.1073
 1535TIP3    H2 4570   3.616   5.475   5.146 -1.0473  1.4288  0.7987
 1536TIP3   OH2 4571   3.465   0.744   0.607 -0.3028  0.4525 -0.3274
 1536TIP3    H1 4572   3.385   0.743   0.659 -0.3799  0.8806 -0.4382
 1536TIP3    H2 4573   3.435   0.739   0.516 -0.1276 -1.6180 -0.3071
 1537TIP3   OH2 4574   1.942   3.913   4.494 -0.6060 -0.0946 -0.1697
 1537TIP3    H1 4575   1.910   3.877   4.576 -0.3613  0.7128  0.2924
 1537TIP3    H2 4576   1.879   3.982   4.472  1.2416  2.2198  1.2746
 1538TIP3   OH2 4577   3.139   6.139   3.086 -0.0876  0.6802  0.2574
 1538TIP3    H1 4578   3.197   6.113   3.157  1.2754 -0.4399 -1.1867
 1538TIP3    H2 4579   3.066   6.077   3.090  0.4745 -0.0088  0.1142
 1539TIP3   OH2 4580   5.907   3.471   2.667  0.1482  0.3837 -0.0082
 1539TIP3    H1 4581   5.913   3.385   2.626  2.9472 -0.4332  1.8356
 1539TIP3    H2 4582   5.994   3.509   2.655 -0.4605  2.1559  0.8723
 1540TIP3   OH2 4583   5.425   3.855   1.139  0.2908 -0.5707 -0.1300
 1540TIP3    H1 4584   5.368   3.815   1.204  0.8810  0.8819  1.3707
 1540TIP3    H2 4585   5.441   3.943   1.173  0.2219  0.4227 -2.5326
 1541TIP3   OH2 4586   1.210   4.267   1.509  0.5933  0.5018 -0.1782
 1541TIP3    H1 4587   1.138   4.233   1.456 -0.4426  0.5007  1.1560
 1541TIP3    H2 4588   1.220   4.203   1.579  0.4862  1.5427  0.8173
 1542TIP3   OH2 4589   4.454   4.101   3.580  0.1216 -0.2129 -0.8083
 1542TIP3    H1 4590   4.436   4.186   3.621  1.7025 -0.3522  0.2875
 1542TIP3    H2 4591   4.448   4.118   3.486  0.4012  1.1200 -0.6085
 1543TIP3   OH2 4592   0.481   1.055   3.835  0.1539  0.3378  0.3066
 1543TIP3    H1 4593   0.388   1.078   3.831 -0.1695 -0.7411  1.0949
 1543TIP3    H2 4594   0.525   1.136   3.859 -0.4942  1.0441 -0.8461
 1544TIP3   OH2 4595   6.375   3.506   1.956 -0.1882  0.3644 -0.1446
 1544TIP3    H1 4596   6.313   3.433   1.962 -0.3688  0.6464  3.2083
 1544TIP3    H2 4597   6.461   3.465   1.960 -0.2151  0.2140 -0.9204
 1545TIP3   OH2 4598   5.535   4.936   4.619  0.1940 -0.2092 -0.0915
 1545TIP3    H1 4599   5.627   4.947   4.643 -0.2016  0.4549  1.2965
 1545TIP3    H2 4600   5.497   4.889   4.694 -1.1979  2.2859  0.8978
 1546TIP3   OH2 4601   0.062   1.551   1.971 -0.2187  0.2198 -0.0437
 1546TIP3    H1 4602   0.099   1.584   1.890  0.4218 -1.1644 -0.3483
 1546TIP3    H2 4603  -0.014   1.499   1.944 -0.3355  0.2133  0.2868
 1547TIP3   OH2 4604   0.246   1.683   5.632  0.5021  0.0352  0.3685
 1547TIP3    H1 4605   0.187   1.642   5.695  1.0345  1.1096  1.6116
 1547TIP3    H2 4606   0.325   1.630   5.634  1.1989  1.0440  1.9900
 1548TIP3   OH2 4607   4.577   0.739   0.876 -0.5469  0.4643  0.4929
 1548TIP3    H1 4608   4.503   0.694   0.917  0.8609  0.0531  2.7862
 1548TIP3    H2 4609   4.593   0.815   0.933 -0.0741  1.3434 -0.7689
 1549TIP3   OH2 4610   6.751   4.434   1.278  0.0142 -0.1540  0.5939
 1549TIP3    H1 4611   6.750   4.484   1.360  1.8103  1.2803 -0.1894
 1549TIP3    H2 4612   6.837   4.392   1.277 -0.3269 -0.8623 -0.1840
 1550TIP3   OH2 4613   3.440   1.204   4.177  0.7635  0.3102  0.5049
 1550TIP3    H1 4614   3.448   1.167   4.265 -0.3826  0.4218  0.6757
 1550TIP3    H2 4615   3.470   1.135   4.119  0.4462 -0.1948  0.9308
 1551TIP3   OH2 4616   3.889   0.758   4.543  0.1960  0.1309 -0.1672
 1551TIP3    H1 4617   3.877   0.853   4.547  0.0081  0.0964  0.1339
 1551TIP3    H2 4618   3.860   0.734   4.455 -0.8919  0.1995  0.1541
 1552TIP3   OH2 4619   5.880   1.159   4.551  0.0392 -0.0408  0.1922
 1552TIP3    H1 4620   5.805   1.103   4.569  0.9680 -1.7254 -0.8741
 1552TIP3    H2 4621   5.915   1.181   4.637 -1.4995  0.5874  0.6950
 1553TIP3   OH2 4622   5.967   5.560   1.883 -1.0466 -0.2613  0.5156
 1553TIP3    H1 4623   6.038   5.563   1.819 -1.0139  1.2975  0.6070
 1553TIP3    H2 4624   6.010   5.543   1.966 -0.5866  2.0353  0.7954
 1554TIP3   OH2 4625   6.823   0.786   3.469  0.1162 -0.1496 -0.3772
 1554TIP3    H1 4626   6.856   0.866   3.510  0.5673 -0.1914 -0.6483
 1554TIP3    H2 4627   6.899   0.728   3.465 -0.0869 -0.4010 -0.6495
 1555TIP3   OH2 4628   2.270   5.285   0.965 -0.3930 -0.3147  0.3607
 1555TIP3    H1 4629   2.278   5.329   0.881  0.9434 -1.7212 -0.2801
 1555TIP3    H2 4630   2.351   5.306   1.011 -0.4483 -0.7940  0.6882
 1556TIP3   OH2 4631   1.685   0.098   1.027  0.3118  0.0556  0.3219
 1556TIP3    H1 4632   1.622   0.048   1.077  0.9703 -1.2441 -0.1074
 1556TIP3    H2 4633   1.648   0.103   0.939  0.9586 -1.0467 -0.0314
 1557TIP3   OH2 4634   5.328   0.402   0.822 -0.1769 -0.0178 -0.4107
 1557TIP3    H1 4635   5.412   0.440   0.797  1.2316 -2.2442  0.6331
 1557TIP3    H2 4636   5.289   0.467   0.880  1.7114  0.2951  0.6038
 1558TIP3   OH2 4637   3.078   0.890   0.080  0.4711  0.0931 -0.2496
 1558TIP3    H1 4638   3.086   0.834   0.002  0.1880  0.1040 -0.2855
 1558TIP3    H2 4639   3.053   0.975   0.045 -0.2404 -0.0496 -0.0993
 1559TIP3   OH2 4640   1.712   3.939   1.461 -0.7899 -0.1751  0.1218
 1559TIP3    H1 4641   1.804   3.913   1.467 -0.6323  0.5030  0.8207
 1559TIP3    H2 4642   1.664   3.862   1.489 -0.6928 -2.0266 -4.0841
 1560TIP3   OH2 4643   0.303   5.966   5.845  0.9551  0.2423  0.0530
 1560TIP3    H1 4644   0.244   5.891   5.839 -1.1477  1.8697 -0.8161
 1560TIP3    H2 4645   0.309   5.985   5.939 -0.9587  0.7659  0.1126
 1561TIP3   OH2 4646   6.206  -0.024   5.886 -0.1270 -0.3577 -0.2397
 1561TIP3    H1 4647   6.168   0.061   5.911 -0.5265 -0.4049 -0.6732
 1561TIP3    H2 4648   6.267  -0.004   5.815  0.9733 -0.2311  0.7105
 1562TIP3   OH2 4649   7.096   0.276   3.666  0.0880  0.8937 -0.1090
 1562TIP3    H1 4650   7.136   0.246   3.747  0.5968 -0.1318 -0.7258
 1562TIP3    H2 4651   7.165   0.270   3.600 -0.0196  2.6791 -0.4411
 1563TIP3   OH2 4652   6.412   2.257   0.290 -0.0748  0.1293  0.6546
 1563TIP3    H1 4653   6.365   2.317   0.348 -1.7165  1.5156 -1.9246
 1563TIP3    H2 4654   6.497   2.298   0.277 -0.9313  1.6445 -0.5308
 1564TIP3   OH2 4655   3.324   0.922   2.295 -0.1166 -0.1962 -0.3957
 1564TIP3    H1 4656   3.331   1.001   2.348 -2.5969 -1.1501  1.5673
 1564TIP3    H2 4657   3.320   0.850   2.358 -0.7113 -1.6246 -1.9667
 1565TIP3   OH2 4658   2.655   1.049   2.401 -0.3783  0.3656  0.1522
 1565TIP3    H1 4659   2.739   1.059   2.446 -0.1422  2.7021 -0.6710
 1565TIP3    H2 4660   2.590   1.053   2.471  0.1354 -0.0216  0.6628
 1566TIP3   OH2 4661   4.081   4.215   5.727  0.3365  0.1806 -0.2866
 1566TIP3    H1 4662   4.142   4.282   5.756  0.7473 -0.5026  0.4507
 1566TIP3    H2 4663   4.035   4.255   5.654 -0.3257  1.7521  0.9288
 1567TIP3   OH2 4664   3.488   6.682   1.966 -0.3357  0.4222  0.1155
 1567TIP3    H1 4665   3.468   6.597   1.928 -0.2421 -0.2995  1.6092
 1567TIP3    H2 4666   3.584   6.684   1.971 -0.3172  0.8048 -0.3086
 1568TIP3   OH2 4667   1.726   3.681   5.173  0.4525  0.2540  0.8213
 1568TIP3    H1 4668   1.736   3.604   5.230 -1.0191 -0.7165 -0.1320
 1568TIP3    H2 4669   1.632   3.700   5.176  0.8261  2.1958  1.2181
 1569TIP3   OH2 4670   2.940   4.257   4.066 -0.4428  0.4226  0.0265
 1569TIP3    H1 4671   3.023   4.305   4.076 -0.1433 -0.2174  0.7751
 1569TIP3    H2 4672   2.874   4.325   4.059  0.2297  0.9606 -1.5326
 1570TIP3   OH2 4673   5.521   4.496   4.980 -0.1089  0.1687 -0.3241
 1570TIP3    H1 4674   5.583   4.532   4.918 -0.6251 -0.3173 -1.1422
 1570TIP3    H2 4675   5.565   4.502   5.065  1.5364 -1.2259 -1.0347
 1571TIP3   OH2 4676   1.269   1.904   0.481 -0.1853  0.4765  0.4643
 1571TIP3    H1 4677   1.194   1.922   0.425 -0.5208 -0.5176  0.5578
 1571TIP3    H2 4678   1.232   1.857   0.556  0.4803  0.2786  0.6820
 1572TIP3   OH2 4679   2.215   5.032   5.555  0.0877  0.0779 -0.3016
 1572TIP3    H1 4680   2.194   5.105   5.497 -1.4193 -0.7744 -0.8788
 1572TIP3    H2 4681   2.131   5.005   5.592  1.0270  1.0504  2.9358
 1573TIP3   OH2 4682   6.262   6.669   0.368  0.2572  0.4068 -0.5555
 1573TIP3    H1 4683   6.316   6.741   0.399  1.3219 -0.4966 -0.2463
 1573TIP3    H2 4684   6.225   6.631   0.448  0.6697 -0.1265 -0.6124
 1574TIP3   OH2 4685   3.190   2.276   0.291  0.2594  0.2549  0.2873
 1574TIP3    H1 4686   3.107   2.322   0.303  0.4465  1.2415 -1.7656
 1574TIP3    H2 4687   3.193   2.213   0.363 -2.1019  0.4174  0.6041
 1575TIP3   OH2 4688   2.852   3.323   0.166 -0.0461  0.7410  0.0137
 1575TIP3    H1 4689   2.782   3.343   0.103 -0.0070 -0.8862 -0.5802
 1575TIP3    H2 4690   2.826   3.369   0.246 -2.2432 -0.4930  0.0781
 1576TIP3   OH2 4691   6.844   0.557   5.061 -0.2708 -0.0527  0.3548
 1576TIP3    H1 4692   6.753   0.580   5.081 -0.7117 -0.8809 -0.6208
 1576TIP3    H2 4693   6.891   0.574   5.143 -0.9279  2.1772  0.3415
 1577TIP3   OH2 4694   5.021   2.830   1.135  0.2168  0.2884  0.1870
 1577TIP3    H1 4695   5.035   2.735   1.139 -0.2193  0.1881 -0.4971
 1577TIP3    H2 4696   5.109   2.866   1.119  0.4964  0.0633  1.1325
 1578TIP3   OH2 4697   1.287   6.218   0.497  0.1110  0.2453  0.9707
 1578TIP3    H1 4698   1.355   6.159   0.466 -0.3901  0.1510  0.0285
 1578TIP3    H2 4699   1.292   6.294   0.438 -1.3406 -0.2598  0.1483
 1579TIP3   OH2 4700   5.011   0.043   0.809  0.1309  0.9266  0.0118
 1579TIP3    H1 4701   5.009   0.039   0.905 -0.7335 -0.0187 -0.0334
 1579TIP3    H2 4702   5.101   0.021   0.787  0.3937  1.3598  0.6087
 1580TIP3   OH2 4703   0.075   1.144   0.224 -0.0820  0.5151 -0.0185
 1580TIP3    H1 4704   0.091   1.213   0.160 -1.5106  0.1509 -0.7913
 1580TIP3    H2 4705   0.090   1.063   0.177 -0.0048  0.2555  0.4442
 1581TIP3   OH2 4706   1.928   5.866   1.504 -0.2604 -0.3328  0.8639
 1581TIP3    H1 4707   1.899   5.952   1.473  1.5114  0.6937  1.8510
 1581TIP3    H2 4708   1.868   5.845   1.575 -0.5567  0.2301  0.7907
 1582TIP3   OH2 4709   3.990   0.826   4.876 -0.1262  0.3103 -0.8563
 1582TIP3    H1 4710   3.909   0.877   4.880 -0.5117 -0.2400 -1.4247
 1582TIP3    H2 4711   3.963   0.741   4.840  0.7583  0.2406 -1.3796
 1583TIP3   OH2 4712   1.484   2.386   1.316 -0.4995  0.3726 -0.5664
 1583TIP3    H1 4713   1.460   2.404   1.407 -1.1417  0.4704 -0.7464
 1583TIP3    H2 4714   1.411   2.423   1.265  0.5574  1.6397 -1.2016
 1584TIP3   OH2 4715   0.073   5.655   3.057 -0.4287 -0.3388  0.4595
 1584TIP3    H1 4716   0.160   5.688   3.037 -0.0901 -2.2872 -1.8396
 1584TIP3    H2 4717   0.064   5.666   3.151  2.9135 -1.3494  1.0383
 1585TIP3   OH2 4718   4.141   2.674   3.762 -0.0309  0.0941 -0.0122
 1585TIP3    H1 4719   4.104   2.591   3.792 -0.1566  0.0118 -0.3806
 1585TIP3    H2 4720   4.230   2.652   3.735 -0.3973 -0.1542 -1.1009
 1586TIP3   OH2 4721   4.929   5.718   4.132 -0.0131  0.1183  0.2509
 1586TIP3    H1 4722   5.018   5.750   4.146 -0.4798  1.4962  0.2497
 1586TIP3    H2 4723   4.875   5.797   4.133 -1.1603 -0.6308 -0.3694
 1587TIP3   OH2 4724   4.137   4.471   1.373 -0.1323 -0.0877 -0.2213
 1587TIP3    H1 4725   4.110   4.488   1.464  1.3056 -0.3887  0.2796
 1587TIP3    H2 4726   4.178   4.553   1.345  1.4198 -0.6915  0.1782
 1588TIP3   OH2 4727   5.124   1.372   2.754 -0.4887  1.0408 -0.2138
 1588TIP3    H1 4728   5.043   1.417   2.775 -0.5121  0.6817  0.5025
 1588TIP3    H2 4729   5.129   1.300   2.818  0.4248  1.1072 -0.1933
 1589TIP3   OH2 4730   5.588   1.719   3.284  0.0628 -0.0920 -0.1218
 1589TIP3    H1 4731   5.652   1.785   3.261 -0.3988  0.1970 -0.6201
 1589TIP3    H2 4732   5.620   1.639   3.242  0.9373 -0.3369  0.9867
 1590TIP3   OH2 4733   4.989   2.129   1.224 -0.1402 -0.2097 -0.4484
 1590TIP3    H1 4734   4.943   2.053   1.189 -1.1900  0.4938 -0.6254
 1590TIP3    H2 4735   4.975   2.198   1.158  2.2910 -0.3267 -1.1764
 1591TIP3   OH2 4736   0.084   3.555   2.073 -0.8617 -0.1097  0.4641
 1591TIP3    H1 4737  -0.009   3.571   2.057 -0.5507 -0.3488 -1.9702
 1591TIP3    H2 4738   0.099   3.467   2.038  0.4245  0.2612  0.0247
 1592TIP3   OH2 4739   2.211   0.221   4.328  0.3589  0.8412 -0.3429
 1592TIP3    H1 4740   2.239   0.130   4.324 -0.9220  0.3633  0.7982
 1592TIP3    H2 4741   2.223   0.254   4.239  3.1699  0.3243 -0.2614
 1593TIP3   OH2 4742   6.766   3.285   1.730 -0.1148 -0.6830 -0.1445
 1593TIP3    H1 4743   6.802   3.340   1.661 -1.2216  0.0923 -0.1294
 1593TIP3    H2 4744   6.687   3.246   1.692 -2.0081  1.4980  1.3086
 1594TIP3   OH2 4745   3.479   0.620   3.241  0.2628  0.6305  0.4233
 1594TIP3    H1 4746   3.385   0.624   3.255  0.2222  1.8640 -0.0719
 1594TIP3    H2 4747   3.490   0.621   3.146  0.7998  2.5607  0.4508
 1595TIP3   OH2 4748   0.642   5.353   2.636  0.2764  0.4826 -0.0061
 1595TIP3    H1 4749   0.622   5.432   2.687  1.1322 -0.6135  2.1952
 1595TIP3    H2 4750   0.574   5.291   2.660  0.0200  0.2999 -1.1585
 1596TIP3   OH2 4751   2.991   1.489   4.971  0.3745  0.0180 -0.6194
 1596TIP3    H1 4752   3.047   1.423   4.930  0.1326 -1.7962  1.7353
 1596TIP3    H2 4753   3.021   1.492   5.062 -1.0536  1.6105 -0.1563
 1597TIP3   OH2 4754   2.127   0.031   3.556  0.1647 -0.0137 -0.4749
 1597TIP3    H1 4755   2.153   0.017   3.465  1.7009 -0.0862 -0.0481
 1597TIP3    H2 4756   2.164  -0.043   3.603  1.4834  1.2656  0.5691
 1598TIP3   OH2 4757   4.599   4.326   0.845  0.1996  0.1327  0.3328
 1598TIP3    H1 4758   4.600   4.267   0.921  2.1126  0.1845  0.4025
 1598TIP3    H2 4759   4.567   4.272   0.773 -1.7598  0.1103  1.1425
 1599TIP3   OH2 4760   2.279   3.712   3.479  0.6201  0.2805  0.2899
 1599TIP3    H1 4761   2.252   3.752   3.561 -0.9625  1.6098 -0.8198
 1599TIP3    H2 4762   2.242   3.768   3.411 -0.6481 -2.3586 -1.3728
 1600TIP3   OH2 4763   6.751   1.632   1.286  0.3898 -0.2852 -0.2432
 1600TIP3    H1 4764   6.716   1.718   1.307 -1.5388 -0.7123 -1.4475
 1600TIP3    H2 4765   6.713   1.610   1.201  0.9446 -2.2562 -0.0453
 1601TIP3   OH2 4766   2.471   0.718   0.356  0.0857 -0.0134 -0.0562
 1601TIP3    H1 4767   2.391   0.677   0.390  0.4856 -1.2426 -0.5505
 1601TIP3    H2 4768   2.540   0.687   0.415  0.2624  0.7097  0.1198
 1602TIP3   OH2 4769   2.978   1.400   1.167  0.1263 -0.4654 -0.3205
 1602TIP3    H1 4770   2.979   1.329   1.103 -0.4753 -0.1038 -0.7442
 1602TIP3    H2 4771   2.893   1.443   1.154  0.5947  0.5168 -0.2869
 1603TIP3   OH2 4772   5.158   3.471   4.984  0.0646 -0.5275  0.9610
 1603TIP3    H1 4773   5.138   3.454   4.892 -0.2815 -0.2025  0.9739
 1603TIP3    H2 4774   5.240   3.521   4.982 -0.1238 -0.2200  0.8090
 1604TIP3   OH2 4775   0.974   4.686   3.424  0.0867  0.2283  0.1922
 1604TIP3    H1 4776   0.970   4.770   3.469  1.6642 -0.1405  1.1328
 1604TIP3    H2 4777   0.995   4.623   3.494  0.8471 -0.6319 -0.7791
 1605TIP3   OH2 4778   0.818   4.510   5.177 -0.1186 -0.2453 -0.0346
 1605TIP3    H1 4779   0.885   4.499   5.110 -0.9788  0.6119 -1.0892
 1605TIP3    H2 4780   0.841   4.447   5.245  1.2962 -0.5092 -0.7196
 1606TIP3   OH2 4781   2.122   2.580   5.568  0.4548 -0.2238 -0.3740
 1606TIP3    H1 4782   2.090   2.490   5.559 -0.1823 -0.0927  0.4446
 1606TIP3    H2 4783   2.044   2.631   5.589  1.1660  0.0794  1.7936
 1607TIP3   OH2 4784   5.584   6.471   5.233  0.1375  0.2865 -0.2098
 1607TIP3    H1 4785   5.546   6.559   5.230 -2.6785 -0.7688  1.1020
 1607TIP3    H2 4786   5.677   6.486   5.252 -0.3035  2.9624  0.2616
 1608TIP3   OH2 4787   4.412   2.020   4.452 -0.1555 -0.6196 -0.4310
 1608TIP3    H1 4788   4.358   1.967   4.511  0.1656 -0.3931  0.0781
 1608TIP3    H2 4789   4.369   2.013   4.367 -0.6688 -0.8975 -0.1545
 1609TIP3   OH2 4790   2.278   1.675   1.398 -0.1055  0.1120 -0.3698
 1609TIP3    H1 4791   2.294   1.688   1.304  0.9931 -0.1459 -0.2335
 1609TIP3    H2 4792   2.183   1.666   1.405 -0.2667  0.9113 -1.3562
 1610TIP3   OH2 4793   6.371   1.596   1.910  0.1975  0.0128  0.3140
 1610TIP3    H1 4794   6.422   1.677   1.917  0.6708 -0.1937 -0.7120
 1610TIP3    H2 4795   6.282   1.626   1.889  0.0067  0.3341  1.4781
 1611TIP3   OH2 4796   2.445   0.958   1.591 -0.3811 -0.5278 -0.0809
 1611TIP3    H1 4797   2.403   1.034   1.632 -2.5610 -0.3588 -2.3305
 1611TIP3    H2 4798   2.537   0.964   1.617 -0.8436  1.7829  1.3601
 1612TIP3   OH2 4799   0.148   5.712   0.860  0.3279  0.3026  0.2507
 1612TIP3    H1 4800   0.057   5.684   0.866  0.2711  0.5848  0.8022
 1612TIP3    H2 4801   0.156   5.751   0.773 -0.3234  1.1210  0.5419
 1613TIP3   OH2 4802   2.435   5.052   2.788  0.0533 -0.0585 -0.4463
 1613TIP3    H1 4803   2.380   5.130   2.788  0.9220  0.6681  2.1071
 1613TIP3    H2 4804   2.376   4.980   2.767 -1.8942  0.7122  1.9657
 1614TIP3   OH2 4805   2.330   3.437   4.121 -0.0865  0.1943  0.1572
 1614TIP3    H1 4806   2.365   3.356   4.082  0.8783  0.4759  0.3966
 1614TIP3    H2 4807   2.261   3.408   4.180 -0.1106 -0.4129 -0.1591
 1615TIP3   OH2 4808   4.997   4.997   0.141  0.4779 -0.4661  0.1723
 1615TIP3    H1 4809   5.027   5.082   0.172  1.3889 -0.8746  0.4517
 1615TIP3    H2 4810   4.930   5.017   0.076 -0.7784  0.4180  1.7007
 1616TIP3   OH2 4811   0.434   2.247   2.301 -0.4085 -0.3720 -0.6266
 1616TIP3    H1 4812   0.342   2.266   2.283 -0.0494  2.1817 -0.1754
 1616TIP3    H2 4813   0.458   2.309   2.371  1.8328 -0.4172 -1.2748
 1617TIP3   OH2 4814   0.394   2.392   3.199  0.1568  0.0046  0.3065
 1617TIP3    H1 4815   0.347   2.406   3.117 -0.3099  0.0478  0.5787
 1617TIP3    H2 4816   0.343   2.440   3.264 -0.1617 -1.0453  0.8489
 1618TIP3   OH2 4817   0.365   4.331   4.326  0.0617  0.0522  0.0558
 1618TIP3    H1 4818   0.342   4.423   4.313 -0.9919  0.1153  1.9730
 1618TIP3    H2 4819   0.282   4.284   4.318  0.4261 -0.6094  0.1337
 1619TIP3   OH2 4820   3.497   2.000   0.626  0.1878 -0.0850  0.0645
 1619TIP3    H1 4821   3.428   1.938   0.601  1.4718 -1.2584 -0.6952
 1619TIP3    H2 4822   3.485   2.012   0.721 -0.5643 -0.8881  0.0848
 1620TIP3   OH2 4823   2.239   5.905   4.353 -1.2206  0.3989  0.5416
 1620TIP3    H1 4824   2.310   5.944   4.302 -1.4874  1.6713  1.1173
 1620TIP3    H2 4825   2.280   5.883   4.437 -0.7371 -1.8531 -0.1881
 1621TIP3   OH2 4826   1.990   4.897   1.477 -0.3556 -0.1520 -0.1300
 1621TIP3    H1 4827   1.925   4.937   1.419  0.2918  0.5400 -0.3943
 1621TIP3    H2 4828   1.966   4.804   1.479 -0.9703 -0.0143 -0.7226
 1622TIP3   OH2 4829   2.375   6.477   4.017 -0.4405  0.2002 -0.4331
 1622TIP3    H1 4830   2.295   6.426   4.005 -0.1703 -0.1681 -0.7020
 1622TIP3    H2 4831   2.355   6.538   4.089 -0.0451 -1.8150  1.5098
 1623TIP3   OH2 4832   0.066  -0.019   1.430  0.2432 -0.4417  0.0454
 1623TIP3    H1 4833  -0.015  -0.044   1.385  0.6537  0.2904 -1.1701
 1623TIP3    H2 4834   0.045   0.064   1.472 -0.0370 -0.9516  0.9297
 1624TIP3   OH2 4835   3.764   6.436   4.306 -0.3603  0.0503  0.7110
 1624TIP3    H1 4836   3.732   6.521   4.276  0.2998  0.1211  0.1681
 1624TIP3    H2 4837   3.835   6.457   4.367  2.3001 -0.0194 -2.1016
 1625TIP3   OH2 4838   5.523   6.758   0.181 -0.0170  0.4251 -0.0362
 1625TIP3    H1 4839   5.499   6.757   0.088  0.3007  1.1654 -0.1287
 1625TIP3    H2 4840   5.440   6.743   0.227 -0.3351  1.0130 -0.4125
 1626TIP3   OH2 4841   1.947   2.129   1.489 -0.8104  0.4761  0.1880
 1626TIP3    H1 4842   2.024   2.071   1.491  0.3769  1.9582 -0.4004
 1626TIP3    H2 4843   1.885   2.086   1.431  0.3321  0.1191 -0.7985
 1627TIP3   OH2 4844   6.815   4.954   4.467  0.4961 -0.2384  0.4750
 1627TIP3    H1 4845   6.882   5.012   4.503 -0.1218  1.5676 -1.1127
 1627TIP3    H2 4846   6.737   5.010   4.459 -0.4720 -1.6080 -0.0621
 1628TIP3   OH2 4847   2.273   5.399   0.694 -0.1867 -0.5614  0.2440
 1628TIP3    H1 4848   2.263   5.321   0.640  0.2223 -0.6390  0.2801
 1628TIP3    H2 4849   2.367   5.416   0.695 -0.2198 -0.3974  0.7018
 1629TIP3   OH2 4850   6.608   3.253   0.400 -0.8242  0.0060 -0.3124
 1629TIP3    H1 4851   6.604   3.185   0.467 -1.1790 -0.4234 -0.7638
 1629TIP3    H2 4852   6.523   3.248   0.356 -1.1425  1.2311  0.1278
 1630TIP3   OH2 4853   4.392   0.505   0.429  0.9947  0.1700 -0.3795
 1630TIP3    H1 4854   4.312   0.496   0.481  0.4772 -0.8060 -1.3211
 1630TIP3    H2 4855   4.443   0.570   0.477  1.0821 -1.5331  2.0243
 1631TIP3   OH2 4856   4.781   4.037   2.762 -0.3414 -0.0060  0.2398
 1631TIP3    H1 4857   4.833   3.974   2.713  3.4267  1.0746  2.4409
 1631TIP3    H2 4858   4.759   3.991   2.843 -1.6093  0.0506 -0.0561
 1632TIP3   OH2 4859   2.915   1.511   4.510 -0.2372  0.0070 -0.0612
 1632TIP3    H1 4860   2.959   1.503   4.425 -0.2198 -0.5918  0.0007
 1632TIP3    H2 4861   2.986   1.508   4.574 -0.3597 -1.1013  0.0465
 1633TIP3   OH2 4862   6.278   5.416   3.611 -0.1086  0.3289 -0.0006
 1633TIP3    H1 4863   6.289   5.387   3.702 -0.0173 -2.0695 -0.7078
 1633TIP3    H2 4864   6.195   5.379   3.584  0.8093 -0.7730 -1.4894
 1634TIP3   OH2 4865   3.001   4.477   4.507  0.1997  0.2711 -0.0508
 1634TIP3    H1 4866   2.996   4.482   4.602  1.0179 -0.8307  0.0799
 1634TIP3    H2 4867   2.917   4.512   4.476 -0.5867 -0.4884  1.1264
 1635TIP3   OH2 4868   6.520   2.076   1.506 -0.0873  0.4181  0.2169
 1635TIP3    H1 4869   6.548   2.098   1.595  0.7104  2.6594 -0.5134
 1635TIP3    H2 4870   6.524   2.159   1.458 -1.1017 -0.5934 -1.7704
 1636TIP3   OH2 4871   3.066   4.214   1.399 -0.7039  0.0919  0.0301
 1636TIP3    H1 4872   3.004   4.141   1.406  0.1223 -0.5025  2.3154
 1636TIP3    H2 4873   3.049   4.267   1.477 -0.7279  1.9332 -1.1796
 1637TIP3   OH2 4874   3.875   4.724   0.457  0.2160  0.0349 -0.6879
 1637TIP3    H1 4875   3.784   4.742   0.436  0.7044  0.9726 -2.1734
 1637TIP3    H2 4876   3.884   4.629   0.452 -0.6180 -0.0396 -0.7620
 1638TIP3   OH2 4877   6.944   0.377   3.445  0.4263 -0.6063 -0.1263
 1638TIP3    H1 4878   6.943   0.472   3.454  2.0521 -0.4250 -1.3775
 1638TIP3    H2 4879   6.991   0.346   3.523  1.4228 -0.2225 -0.5510
 1639TIP3   OH2 4880   1.682   4.786   3.595 -0.1541  0.0942 -0.0656
 1639TIP3    H1 4881   1.669   4.696   3.565 -0.2167  0.3318 -0.7684
 1639TIP3    H2 4882   1.709   4.834   3.516  3.1749  0.0260  0.8951
 1640TIP3   OH2 4883   1.198   1.725   3.804  0.0787 -0.3247 -0.1642
 1640TIP3    H1 4884   1.234   1.733   3.892  0.9755  1.0296 -0.6170
 1640TIP3    H2 4885   1.163   1.636   3.800 -0.1307 -0.3620  1.6029
 1641TIP3   OH2 4886   5.804   1.941   1.321 -0.4803  0.5867  0.1368
 1641TIP3    H1 4887   5.824   1.974   1.234 -1.0958 -0.5620 -0.4792
 1641TIP3    H2 4888   5.787   1.847   1.307  2.3542 -0.3282  1.9405
 1642TIP3   OH2 4889   1.573   3.272   3.365  0.2877  0.4602  0.2178
 1642TIP3    H1 4890   1.593   3.250   3.275  1.2218 -1.1127  0.7783
 1642TIP3    H2 4891   1.537   3.361   3.361  2.5034  1.3574 -1.4283
 1643TIP3   OH2 4892   5.505   1.510   3.066  0.4224 -0.1816  0.2094
 1643TIP3    H1 4893   5.586   1.485   3.110  0.9510 -1.3394 -1.3470
 1643TIP3    H2 4894   5.531   1.583   3.009  0.6450 -1.2004 -1.0440
 1644TIP3   OH2 4895   5.483   1.839   5.040  0.0291 -0.6471 -0.0513
 1644TIP3    H1 4896   5.470   1.767   5.101 -0.7371 -0.4315  0.0582
 1644TIP3    H2 4897   5.411   1.829   4.977 -0.6934  0.5790  0.5327
 1645TIP3   OH2 4898   5.081   3.596   3.110 -0.6036  0.9130  0.5822
 1645TIP3    H1 4899   5.020   3.653   3.065 -1.8406  1.4067  2.7266
 1645TIP3    H2 4900   5.160   3.649   3.122 -0.3718  0.8687 -0.6697
 1646TIP3   OH2 4901   1.296   5.457   1.344  0.0773  0.2327  0.1985
 1646TIP3    H1 4902   1.385   5.436   1.374  0.0979  0.1761  0.1008
 1646TIP3    H2 4903   1.283   5.399   1.268  0.2830  0.8465 -0.3124
 1647TIP3   OH2 4904   6.425   4.477   5.528 -0.1241 -0.4022  0.1006
 1647TIP3    H1 4905   6.427   4.528   5.447 -0.2764 -1.2381 -0.4498
 1647TIP3    H2 4906   6.495   4.413   5.518  0.3764 -0.0111  0.9833
 1648TIP3   OH2 4907   4.317   1.998   1.608  0.0915  0.3218  0.4271
 1648TIP3    H1 4908   4.363   2.070   1.651  0.1425  0.4625  0.1390
 1648TIP3    H2 4909   4.238   2.038   1.572 -0.2388  0.0931  0.8728
 1649TIP3   OH2 4910   5.531   0.375   0.432 -0.3160 -0.1268  0.2787
 1649TIP3    H1 4911   5.572   0.389   0.347 -2.9028  0.2505 -1.0104
 1649TIP3    H2 4912   5.534   0.461   0.475  2.6862 -0.7128  1.5075
 1650TIP3   OH2 4913   2.807   4.633   3.599  0.4079  0.2736 -0.0711
 1650TIP3    H1 4914   2.779   4.651   3.689 -0.5931  0.4111 -0.3951
 1650TIP3    H2 4915   2.866   4.706   3.577 -0.2057  0.8333  0.1043
 1651TIP3   OH2 4916   6.826   6.441   2.237 -0.2443  0.7203 -0.6622
 1651TIP3    H1 4917   6.749   6.497   2.225  0.9385  3.0393  1.4965
 1651TIP3    H2 4918   6.832   6.429   2.331 -0.0248 -2.6554 -0.9966
 1652TIP3   OH2 4919   7.157   4.634   0.849  0.0198  0.0539 -0.1798
 1652TIP3    H1 4920   7.206   4.717   0.855  1.0625 -0.5557 -0.0108
 1652TIP3    H2 4921   7.225   4.566   0.850 -0.8829 -0.9265  2.0827
 1653TIP3   OH2 4922   3.252   2.963   2.962 -0.0505 -0.1075 -0.4876
 1653TIP3    H1 4923   3.175   2.906   2.962 -0.2743  0.1939 -0.8392
 1653TIP3    H2 4924   3.302   2.936   2.885 -0.3144  0.3794 -0.8320
 1654TIP3   OH2 4925   2.007   5.290   2.632  0.2360 -0.4396  0.2379
 1654TIP3    H1 4926   2.044   5.369   2.594  0.3594  0.0449  1.3256
 1654TIP3    H2 4927   1.922   5.281   2.591  1.0325 -0.8956 -1.4040
 1655TIP3   OH2 4928   3.570   1.393   1.882  0.4627 -0.1138  0.2924
 1655TIP3    H1 4929   3.538   1.311   1.921  1.1448 -1.1866 -1.3075
 1655TIP3    H2 4930   3.500   1.419   1.822  0.6962 -0.0920  0.0282
 1656TIP3   OH2 4931   3.010   1.294   2.837 -0.0615 -0.6073 -0.1808
 1656TIP3    H1 4932   3.021   1.304   2.932 -0.8581  3.0370 -0.3269
 1656TIP3    H2 4933   2.924   1.253   2.827  0.1838 -1.3582  0.6409
 1657TIP3   OH2 4934   0.085   0.161   0.285 -0.1176 -0.3996 -0.4310
 1657TIP3    H1 4935   0.114   0.072   0.300 -1.3646 -0.6657  0.6332
 1657TIP3    H2 4936   0.067   0.195   0.373 -0.3120  0.6566 -0.8629
 1658TIP3   OH2 4937   4.399   4.923   0.744  0.9019 -0.0644  0.2637
 1658TIP3    H1 4938   4.373   4.832   0.727  0.5465 -0.3183  1.9453
 1658TIP3    H2 4939   4.438   4.920   0.832  2.0621  1.1988 -0.1825
 1659TIP3   OH2 4940   5.095   2.137   0.859 -0.6277 -0.4545  0.3074
 1659TIP3    H1 4941   5.119   2.114   0.770  2.2473 -2.4683  1.4529
 1659TIP3    H2 4942   5.073   2.054   0.900 -2.0217  0.4512  1.4843
 1660TIP3   OH2 4943   2.233   2.869   5.703  0.1201  0.3010 -0.0405
 1660TIP3    H1 4944   2.179   2.892   5.778  0.3483  0.2992  0.1256
 1660TIP3    H2 4945   2.236   2.774   5.703 -1.1888  0.2316 -0.9875
 1661TIP3   OH2 4946   1.522   0.600   0.669  0.0466  0.4001  0.5736
 1661TIP3    H1 4947   1.450   0.653   0.704 -0.7569 -1.0335  1.1613
 1661TIP3    H2 4948   1.547   0.645   0.589 -1.7328  0.7870  0.1837
 1662TIP3   OH2 4949   7.062   1.251   1.219  0.0256  0.7359 -0.0984
 1662TIP3    H1 4950   6.989   1.282   1.166 -0.8369  0.4835  0.9008
 1662TIP3    H2 4951   7.041   1.279   1.308  0.4221 -0.5712  0.4394
 1663TIP3   OH2 4952   0.754   1.207   0.469  0.6120  0.0944  0.3027
 1663TIP3    H1 4953   0.672   1.179   0.428  1.1444  0.9973 -1.4947
 1663TIP3    H2 4954   0.736   1.296   0.499  1.5866  1.3210 -2.4134
 1664TIP3   OH2 4955   2.931   0.507   4.806 -0.7026  0.5556  0.1684
 1664TIP3    H1 4956   2.964   0.440   4.746 -0.7308  1.9572 -1.4792
 1664TIP3    H2 4957   3.009   0.542   4.849 -0.1932  2.0365 -1.7862
 1665TIP3   OH2 4958   4.252   5.215   4.800 -0.3033 -0.0270 -0.5946
 1665TIP3    H1 4959   4.277   5.296   4.756  0.9483 -0.0274  0.0723
 1665TIP3    H2 4960   4.333   5.164   4.805 -0.8675 -0.9142 -0.1486
 1666TIP3   OH2 4961   1.012   3.275   2.016  0.1456 -0.2978  0.1601
 1666TIP3    H1 4962   1.053   3.218   1.952 -0.2010 -0.0539 -0.2892
 1666TIP3    H2 4963   0.984   3.217   2.086  2.0346 -0.3605  0.8932
 1667TIP3   OH2 4964   5.409   4.272   4.531  0.2014 -0.1207  0.0313
 1667TIP3    H1 4965   5.470   4.318   4.589  0.6830  1.3191 -1.5597
 1667TIP3    H2 4966   5.420   4.179   4.554 -0.0649  0.4237  2.6116
 1668TIP3   OH2 4967   4.753   4.138   3.899  0.0208  0.4210  0.3093
 1668TIP3    H1 4968   4.773   4.046   3.886  2.8604  1.1892 -1.6932
 1668TIP3    H2 4969   4.702   4.141   3.981  0.3581 -2.7943  0.7460
 1669TIP3   OH2 4970   5.039   1.203   1.367  0.7655 -0.2151 -0.8166
 1669TIP3    H1 4971   5.075   1.243   1.445  0.5919 -0.1412 -0.7749
 1669TIP3    H2 4972   4.944   1.212   1.376  0.7446 -0.2079 -1.0340
 1670TIP3   OH2 4973   1.979   3.918   1.567  0.4255 -0.3476 -0.1084
 1670TIP3    H1 4974   2.065   3.880   1.589 -0.5369 -1.7492  1.5302
 1670TIP3    H2 4975   1.976   4.000   1.616  0.3687 -0.9004  0.8360
 1671TIP3   OH2 4976   3.842   2.889   4.990  0.1681 -0.7250  0.2926
 1671TIP3    H1 4977   3.841   2.840   5.072 -0.5340 -0.6726  0.3248
 1671TIP3    H2 4978   3.932   2.919   4.980  0.3301 -1.0134  0.8750
 1672TIP3   OH2 4979   0.938   2.356   1.286  0.2382  0.1752  0.0144
 1672TIP3    H1 4980   0.870   2.313   1.339  0.4003  0.9293  0.8717
 1672TIP3    H2 4981   0.952   2.440   1.330  0.9384  0.4927 -0.7983
 1673TIP3   OH2 4982   1.505   4.289   2.301 -0.4048 -0.1953  0.4126
 1673TIP3    H1 4983   1.559   4.217   2.335 -1.3628 -0.8397  0.6326
 1673TIP3    H2 4984   1.487   4.264   2.211  0.0922  0.2769  0.1831
 1674TIP3   OH2 4985   3.363   5.732   3.684  0.0660 -0.3276 -0.2303
 1674TIP3    H1 4986   3.375   5.712   3.776  0.7656 -0.3693 -0.3242
 1674TIP3    H2 4987   3.276   5.700   3.663 -0.6747  0.9644  0.7547
 1675TIP3   OH2 4988   2.175   4.024   2.596  0.2914 -0.4077 -0.3270
 1675TIP3    H1 4989   2.218   4.107   2.619  1.5345 -1.6496  2.1614
 1675TIP3    H2 4990   2.243   3.958   2.606 -1.1272 -1.9668 -0.5372
 1676TIP3   OH2 4991   4.609   3.385   0.283  0.0672  0.7744  0.0552
 1676TIP3    H1 4992   4.605   3.350   0.194  0.0730  1.6392 -0.2915
 1676TIP3    H2 4993   4.581   3.312   0.339  0.0086  0.2446 -0.6565
 1677TIP3   OH2 4994   1.383   2.678   2.184 -0.0772 -0.1182  0.0796
 1677TIP3    H1 4995   1.455   2.733   2.153  0.9844 -0.8586  1.1371
 1677TIP3    H2 4996   1.359   2.715   2.269 -0.3704 -0.4075  0.1256
 1678TIP3   OH2 4997   1.989   2.945   1.692  0.1920 -0.0253  0.5990
 1678TIP3    H1 4998   1.978   3.033   1.726 -0.7737 -0.7148  2.1893
 1678TIP3    H2 4999   2.076   2.917   1.722  1.5201  1.1228 -1.8292
 1679TIP3   OH2 5000   4.273   6.572   2.733  0.1765  0.3167  0.0110
 1679TIP3    H1 5001   4.242   6.484   2.754  2.1739 -0.4386 -0.0350
 1679TIP3    H2 5002   4.226   6.629   2.795 -1.4375 -0.7033 -0.2242
 1680TIP3   OH2 5003   2.495   2.455   3.403  0.5695  0.2133  0.0303
 1680TIP3    H1 5004   2.576   2.409   3.380 -0.8169 -2.8837  0.7909
 1680TIP3    H2 5005   2.464   2.492   3.320  3.0612  2.2188 -0.1459
 1681TIP3   OH2 5006   4.772   2.542   4.568  0.2024  0.1901 -0.1810
 1681TIP3    H1 5007   4.824   2.582   4.638 -0.5411  0.4479  0.2356
 1681TIP3    H2 5008   4.686   2.583   4.576 -0.5149 -1.2693  0.0779
 1682TIP3   OH2 5009   4.382   1.352   2.845 -0.0813  0.5420 -0.2065
 1682TIP3    H1 5010   4.352   1.328   2.757 -0.9342  1.8694 -0.3188
 1682TIP3    H2 5011   4.304   1.390   2.887  0.3287 -0.0160  1.1117
 1683TIP3   OH2 5012   4.634   0.865   3.950 -0.0864  0.6474  0.0464
 1683TIP3    H1 5013   4.604   0.925   4.019  1.9041  1.2282  0.4919
 1683TIP3    H2 5014   4.662   0.923   3.879  0.7863  0.2131  0.0247
 1684TIP3   OH2 5015   3.578   4.852   1.960  0.0122 -0.1325 -0.1716
 1684TIP3    H1 5016   3.608   4.761   1.958  0.8030  0.1115  0.4490
 1684TIP3    H2 5017   3.555   4.868   2.052 -0.6385  0.1406 -0.3703
 1685TIP3   OH2 5018   0.173   2.372   0.055  0.0312 -0.7287 -0.0519
 1685TIP3    H1 5019   0.148   2.289   0.015 -0.8471 -0.2167 -0.6152
 1685TIP3    H2 5020   0.215   2.421  -0.015 -0.5810 -0.2256 -0.0788
 1686TIP3   OH2 5021   1.560   6.428   5.057  0.5601 -0.2774 -0.2649
 1686TIP3    H1 5022   1.489   6.478   5.097 -2.0134 -2.1280 -2.2920
 1686TIP3    H2 5023   1.633   6.490   5.055 -1.4093  2.2449  0.4550
 1687TIP3   OH2 5024   2.830   3.512   2.559 -0.5822  1.1618 -0.5435
 1687TIP3    H1 5025   2.757   3.492   2.617  1.6422 -1.0176  1.7672
 1687TIP3    H2 5026   2.880   3.579   2.604 -0.1649  1.2818 -1.1693
 1688TIP3   OH2 5027   0.624   5.557   2.807 -0.2676 -0.8342  0.5104
 1688TIP3    H1 5028   0.650   5.604   2.886 -1.4058 -3.3391  2.5090
 1688TIP3    H2 5029   0.528   5.557   2.810 -0.3014 -2.5560  0.1747
 1689TIP3   OH2 5030   5.201   2.405   5.285 -0.2361  0.2444  0.1676
 1689TIP3    H1 5031   5.267   2.473   5.276  0.5194 -0.0944  2.3254
 1689TIP3    H2 5032   5.118   2.452   5.291  0.1229  0.8800  0.2617
 1690TIP3   OH2 5033   2.839   0.369   4.296 -0.3987 -0.2561  0.4555
 1690TIP3    H1 5034   2.762   0.348   4.348 -1.3666  0.0274 -0.8143
 1690TIP3    H2 5035   2.893   0.422   4.354 -1.8520  0.8056  0.8902
 1691TIP3   OH2 5036   6.739   0.984   2.098  0.5240 -0.1123 -0.0141
 1691TIP3    H1 5037   6.789   0.907   2.123  0.2144 -0.3890 -0.2487
 1691TIP3    H2 5038   6.801   1.057   2.110  0.6882 -0.3456  0.5927
 1692TIP3   OH2 5039   0.864   3.365   4.763  0.3285  0.0774  0.0005
 1692TIP3    H1 5040   0.857   3.422   4.686 -0.8669  1.0882  0.8152
 1692TIP3    H2 5041   0.828   3.417   4.834 -0.4501 -1.5707  0.8550
 1693TIP3   OH2 5042   3.334   4.373   2.239  0.0562  0.0705 -0.6275
 1693TIP3    H1 5043   3.304   4.383   2.329  3.0325 -1.1632  0.6383
 1693TIP3    H2 5044   3.256   4.349   2.190 -1.3676 -0.9794  1.9657
 1694TIP3   OH2 5045   4.742   1.012   3.145  0.4472  0.5032  0.0176
 1694TIP3    H1 5046   4.778   0.952   3.080  2.3759  1.8515 -0.2682
 1694TIP3    H2 5047   4.674   1.060   3.098  1.3523  0.9835 -0.8466
 1695TIP3   OH2 5048   4.403   1.265   1.962  0.0501  0.3408  0.0913
 1695TIP3    H1 5049   4.369   1.230   1.880  0.0591  1.6082 -0.4833
 1695TIP3    H2 5050   4.330   1.259   2.023 -1.3767  3.1453 -1.1482
 1696TIP3   OH2 5051   5.731   4.615   0.170  0.7017 -0.0209  0.3664
 1696TIP3    H1 5052   5.724   4.666   0.089 -1.3927 -1.5342 -0.4766
 1696TIP3    H2 5053   5.641   4.607   0.202  0.9315 -2.9754  0.5454
 1697TIP3   OH2 5054   0.983   1.930   3.595 -0.0639 -0.0398 -0.0250
 1697TIP3    H1 5055   1.008   2.008   3.646  0.3863 -0.7517  0.8716
 1697TIP3    H2 5056   0.966   1.863   3.661  1.5486 -1.3047 -0.8148
 1698TIP3   OH2 5057   5.455   0.863   2.596  0.0148 -0.6187 -0.4277
 1698TIP3    H1 5058   5.457   0.776   2.635  0.7007 -0.0912  0.7750
 1698TIP3    H2 5059   5.418   0.919   2.665  1.5926  0.4119 -0.3777
 1699TIP3   OH2 5060   4.116   5.849   5.465  0.4513  0.1666  0.4544
 1699TIP3    H1 5061   4.196   5.900   5.474 -0.1869  0.8615  2.7850
 1699TIP3    H2 5062   4.048   5.902   5.506 -0.6139 -1.6871  1.2344
 1700TIP3   OH2 5063   4.175   2.722   4.928  0.1818  0.6226  0.1265
 1700TIP3    H1 5064   4.157   2.807   4.969  2.6779  0.5910  1.4905
 1700TIP3    H2 5065   4.215   2.744   4.844  0.5671  0.7904  0.3528
 1701TIP3   OH2 5066   4.146   3.316   4.108  0.4610  0.2580 -0.3618
 1701TIP3    H1 5067   4.063   3.350   4.140  0.9291  0.1433  1.0579
 1701TIP3    H2 5068   4.149   3.342   4.016 -0.9684  0.5756 -0.3406
 1702TIP3   OH2 5069   6.748   1.392   1.811  0.5499 -0.0209  0.2829
 1702TIP3    H1 5070   6.677   1.328   1.804  0.6562  0.0075 -1.5930
 1702TIP3    H2 5071   6.766   1.417   1.721  1.4895  1.6008  0.8849
 1703TIP3   OH2 5072   3.968   1.969   5.409  0.2572  0.3280 -0.1898
 1703TIP3    H1 5073   3.923   1.980   5.493  1.0871 -0.0675  0.3171
 1703TIP3    H2 5074   3.930   1.891   5.371 -0.9537  1.1534 -0.7409
 1704TIP3   OH2 5075   1.208   5.186   4.165 -0.0020 -0.4689 -0.2370
 1704TIP3    H1 5076   1.225   5.116   4.228 -0.7659 -2.2335 -1.8924
 1704TIP3    H2 5077   1.134   5.233   4.203 -0.2452 -1.2889  0.3562
 1705TIP3   OH2 5078   3.204   5.740   5.694  0.1432  0.1468  0.3232
 1705TIP3    H1 5079   3.184   5.827   5.729 -1.3527 -0.5065  1.2060
 1705TIP3    H2 5080   3.149   5.681   5.745  0.3000 -1.2097 -1.0143
 1706TIP3   OH2 5081   7.025   1.962   1.608 -0.4174 -0.1867  0.2493
 1706TIP3    H1 5082   6.934   1.936   1.625 -0.7389  0.3156 -0.6247
 1706TIP3    H2 5083   7.017   2.035   1.547  0.6136 -0.8741 -0.7374
 1707TIP3   OH2 5084   4.938   3.115   0.135 -0.0627  0.6470 -0.0086
 1707TIP3    H1 5085   4.916   3.031   0.093  1.4640 -0.3893  1.1286
 1707TIP3    H2 5086   4.892   3.113   0.218 -0.1677  1.0201 -0.0585
 1708TIP3   OH2 5087   4.598   1.335   3.684 -1.0388  0.3636 -0.6954
 1708TIP3    H1 5088   4.574   1.295   3.767  0.1558 -0.4870 -0.7221
 1708TIP3    H2 5089   4.589   1.429   3.699  0.1334  0.2901  0.7539
 1709TIP3   OH2 5090   1.131   4.671   2.021 -0.5409 -0.0084 -0.0850
 1709TIP3    H1 5091   1.221   4.646   2.042  0.2661  1.4691 -1.5307
 1709TIP3    H2 5092   1.132   4.766   2.024 -2.0366  0.0296 -0.2631
 1710TIP3   OH2 5093   6.703   4.953   2.086  0.7567  0.4252  0.4118
 1710TIP3    H1 5094   6.769   4.921   2.148  0.6821 -0.1872  0.1881
 1710TIP3    H2 5095   6.687   4.878   2.029 -0.3585  0.4668  0.6530
 1711TIP3   OH2 5096   5.003   6.519   5.412  0.2299 -0.3017 -0.4175
 1711TIP3    H1 5097   5.046   6.524   5.497  0.5982 -2.3560 -0.4322
 1711TIP3    H2 5098   5.018   6.605   5.372  3.7878 -0.6334 -0.1446
 1712TIP3   OH2 5099   3.116   3.084   2.224 -0.2907 -0.4780 -0.1610
 1712TIP3    H1 5100   3.163   3.053   2.302  1.9900 -1.5308 -1.8633
 1712TIP3    H2 5101   3.177   3.072   2.152 -0.4451  4.8784 -1.6137
 1713TIP3   OH2 5102   1.962   3.644   5.776 -0.0179 -0.6440 -0.3224
 1713TIP3    H1 5103   1.888   3.666   5.720 -1.2771 -0.3133  1.3756
 1713TIP3    H2 5104   1.936   3.562   5.819 -0.8521  1.0048  2.5749
 1714TIP3   OH2 5105   0.423   2.648   0.828  0.0253 -0.3728 -0.1528
 1714TIP3    H1 5106   0.517   2.643   0.808  0.2361 -2.4262  0.9452
 1714TIP3    H2 5107   0.388   2.565   0.795 -0.7927 -0.9538  1.9997
 1715TIP3   OH2 5108   4.122   4.771   5.485  0.3141  0.8776 -0.3538
 1715TIP3    H1 5109   4.046   4.794   5.432  0.8152  1.0116 -1.0387
 1715TIP3    H2 5110   4.176   4.850   5.485  0.9807  0.4387 -0.8361
 1716TIP3   OH2 5111   3.741   0.307   0.011 -0.6183 -0.3992 -0.5998
 1716TIP3    H1 5112   3.767   0.218  -0.011 -0.6513 -0.6386  0.3079
 1716TIP3    H2 5113   3.687   0.298   0.089  2.2565  0.7118  1.6949
 1717TIP3   OH2 5114   5.240   0.763   0.180 -0.4075  0.5148  0.0539
 1717TIP3    H1 5115   5.200   0.761   0.093  0.7848  0.6662 -0.5194
 1717TIP3    H2 5116   5.245   0.671   0.206  0.4827  0.3308 -0.6647
 1718TIP3   OH2 5117   0.444   3.185   1.528 -0.1536  0.3338 -0.5382
 1718TIP3    H1 5118   0.418   3.161   1.616  0.3632  1.0096 -0.1870
 1718TIP3    H2 5119   0.525   3.135   1.512  0.3517  1.0343 -0.2049
 1719TIP3   OH2 5120   6.839   3.996   4.340  0.4214 -0.1619  0.5700
 1719TIP3    H1 5121   6.828   4.043   4.422  0.9256 -0.1410  0.6320
 1719TIP3    H2 5122   6.898   4.052   4.288 -2.0938  1.2486 -0.9487
 1720TIP3   OH2 5123   0.850   5.130   3.998 -0.3845  0.2610 -0.5415
 1720TIP3    H1 5124   0.920   5.095   4.053 -2.0231 -0.7873  0.9955
 1720TIP3    H2 5125   0.782   5.063   4.001 -1.4137  1.1676 -2.1216
 1721TIP3   OH2 5126   0.873   4.600   4.866  0.0908  0.0089  0.4817
 1721TIP3    H1 5127   0.892   4.554   4.784  1.9015  1.4811  0.0128
 1721TIP3    H2 5128   0.842   4.686   4.838 -2.2628 -0.4836  1.3605
 1722TIP3   OH2 5129   2.827   5.862   4.793 -0.0037 -0.2703 -0.3729
 1722TIP3    H1 5130   2.739   5.898   4.795  0.7170  1.5998 -0.0008
 1722TIP3    H2 5131   2.849   5.847   4.885 -0.5776 -2.5117 -0.5559
 1723TIP3   OH2 5132   2.589   2.645   2.507 -0.1104  0.0398  0.3678
 1723TIP3    H1 5133   2.631   2.560   2.493 -0.6253 -0.3455  1.0965
 1723TIP3    H2 5134   2.658   2.709   2.488  0.9759 -0.5798  1.9741
 1724TIP3   OH2 5135   3.374   0.586   3.889 -0.3026 -0.2352 -0.0197
 1724TIP3    H1 5136   3.445   0.558   3.947 -1.0702  0.3090  1.2376
 1724TIP3    H2 5137   3.306   0.619   3.949 -2.6379 -2.9347 -0.9847
 1725TIP3   OH2 5138   5.744   4.142   0.443 -0.5095 -0.8892 -0.3702
 1725TIP3    H1 5139   5.708   4.090   0.516  1.2813 -1.1348  0.3991
 1725TIP3    H2 5140   5.712   4.231   0.459  1.2657 -0.5321  1.8328
 1726TIP3   OH2 5141   4.430   0.171   4.930  0.8932  0.3191  0.7704
 1726TIP3    H1 5142   4.418   0.266   4.926 -0.8644  0.1658  1.6912
 1726TIP3    H2 5143   4.411   0.147   5.020  0.0716 -1.0438  0.2776
 1727TIP3   OH2 5144   0.027   1.827   3.455 -0.3054 -0.3163  0.8639
 1727TIP3    H1 5145  -0.030   1.873   3.394  0.6155  0.1317  0.3162
 1727TIP3    H2 5146   0.094   1.892   3.479  1.1122 -1.3824 -0.0527
 1728TIP3   OH2 5147   4.677   2.647   0.685 -0.2522 -0.3945  0.1526
 1728TIP3    H1 5148   4.616   2.624   0.616 -2.3081  0.4571  1.5869
 1728TIP3    H2 5149   4.756   2.597   0.665 -1.2069 -1.1400 -2.0671
 1729TIP3   OH2 5150   4.915   2.557   2.996  0.3553 -0.1794  0.9485
 1729TIP3    H1 5151   4.908   2.478   2.942  1.0750  1.7799 -2.2800
 1729TIP3    H2 5152   5.007   2.561   3.020  0.3617 -0.2098  0.9302
 1730TIP3   OH2 5153   0.322   5.914   1.357 -0.1152  0.3069 -0.0038
 1730TIP3    H1 5154   0.244   5.964   1.380 -0.8830 -0.5043 -0.7466
 1730TIP3    H2 5155   0.292   5.851   1.292  1.2344  0.1763 -0.5422
 1731TIP3   OH2 5156   3.133   4.437   3.495  0.0997  0.0140 -0.4280
 1731TIP3    H1 5157   3.119   4.478   3.410 -0.4855  0.7106 -0.0009
 1731TIP3    H2 5158   3.151   4.345   3.474 -1.0370 -0.0443 -1.2427
 1732TIP3   OH2 5159   2.559   1.570   3.648  0.3035  0.1413  0.1704
 1732TIP3    H1 5160   2.641   1.586   3.600  0.0651  0.7091 -0.0589
 1732TIP3    H2 5161   2.516   1.655   3.649 -0.5634 -0.2823 -0.2297
 1733TIP3   OH2 5162   2.324   0.758   2.104  0.2720  0.5542  0.3859
 1733TIP3    H1 5163   2.240   0.787   2.138 -0.3085 -0.8082  0.1550
 1733TIP3    H2 5164   2.384   0.829   2.126 -0.9862  1.6986  0.2552
 1734TIP3   OH2 5165   0.303   2.335   4.983  0.0892  0.0548  0.1465
 1734TIP3    H1 5166   0.321   2.281   5.059  0.0326 -1.0169 -0.5764
 1734TIP3    H2 5167   0.341   2.420   5.004  2.1779 -0.8867  0.4167
 1735TIP3   OH2 5168   3.514   0.609   2.970 -0.1184  0.1592  0.4319
 1735TIP3    H1 5169   3.566   0.583   2.893 -1.2799  0.8372 -0.6274
 1735TIP3    H2 5170   3.435   0.554   2.965 -1.8213  2.5176 -0.8893
 1736TIP3   OH2 5171   5.452   2.177   4.742  0.3992 -0.2270 -0.1649
 1736TIP3    H1 5172   5.421   2.086   4.748  0.5295 -0.1933  2.0375
 1736TIP3    H2 5173   5.427   2.205   4.654 -0.5542 -2.0664 -0.5453
 1737TIP3   OH2 5174   4.562   2.481   2.133  0.5905  0.2361 -0.9160
 1737TIP3    H1 5175   4.649   2.450   2.108 -0.5074 -3.1518 -1.0865
 1737TIP3    H2 5176   4.520   2.503   2.050 -0.3336 -3.1728 -1.4970
 1738TIP3   OH2 5177   5.965   3.108   3.620  0.1745  0.1859  0.3981
 1738TIP3    H1 5178   5.915   3.073   3.546 -1.3342 -0.7031  1.7657
 1738TIP3    H2 5179   6.001   3.031   3.664 -0.3963  0.5305  1.5394
 1739TIP3   OH2 5180   6.195   1.335   1.304 -0.0305  0.2743  0.1735
 1739TIP3    H1 5181   6.173   1.267   1.240  0.1053  1.2308 -0.9222
 1739TIP3    H2 5182   6.229   1.407   1.251  1.4430  0.5656  1.4388
 1740TIP3   OH2 5183   0.864   6.712   4.952 -0.0940  0.2200 -0.1628
 1740TIP3    H1 5184   0.923   6.724   5.026 -0.1546 -0.5009  0.0041
 1740TIP3    H2 5185   0.862   6.618   4.938  1.4295  0.4447 -2.3287
 1741TIP3   OH2 5186   5.293   1.197   1.825 -0.1687 -0.3174 -0.3693
 1741TIP3    H1 5187   5.384   1.216   1.850 -0.5794 -0.2263  1.1287
 1741TIP3    H2 5188   5.287   1.102   1.826  0.0093 -0.3402 -0.8994
 1742TIP3   OH2 5189   5.918   3.890   5.202 -0.1663 -0.6994  0.1748
 1742TIP3    H1 5190   5.988   3.848   5.251  0.8444  0.8459  0.1324
 1742TIP3    H2 5191   5.883   3.822   5.145 -0.0005 -1.9910  1.5574
 1743TIP3   OH2 5192   3.299   1.879   3.434  0.1312  0.5722  0.4516
 1743TIP3    H1 5193   3.360   1.889   3.360  0.5030  0.6869  0.7702
 1743TIP3    H2 5194   3.219   1.923   3.405  0.2323  0.5056  0.0678
 1744TIP3   OH2 5195   6.913   5.940   5.779 -0.1895  0.4783 -0.0341
 1744TIP3    H1 5196   6.822   5.913   5.767 -0.0154 -0.2862  0.3388
 1744TIP3    H2 5197   6.959   5.903   5.704  0.1775 -0.9098  0.8394
 1745TIP3   OH2 5198   3.642   4.238   2.693 -0.5074  0.6219  0.5885
 1745TIP3    H1 5199   3.570   4.189   2.654  0.8430 -1.1063  0.0895
 1745TIP3    H2 5200   3.666   4.187   2.771  0.7202  0.6352  0.2434
 1746TIP3   OH2 5201   4.475   4.467   1.995  0.1600  0.3928  0.2192
 1746TIP3    H1 5202   4.527   4.547   2.003  0.4057  0.4126 -1.2806
 1746TIP3    H2 5203   4.476   4.447   1.901 -1.9179 -0.0254  0.2379
 1747TIP3   OH2 5204   5.585   3.731   1.772 -0.6103 -0.1455  0.2267
 1747TIP3    H1 5205   5.671   3.766   1.752  0.4533 -2.0399  1.2181
 1747TIP3    H2 5206   5.596   3.686   1.856 -2.7801  0.2575  0.7979
 1748TIP3   OH2 5207   4.734   1.374   2.995  0.1443  0.1230 -0.5721
 1748TIP3    H1 5208   4.772   1.376   3.083  0.6314  0.9183 -0.7996
 1748TIP3    H2 5209   4.672   1.300   2.998  0.8904 -0.4929  0.1270
 1749TIP3   OH2 5210   6.346   0.196   0.072  0.1459  0.2401 -0.0658
 1749TIP3    H1 5211   6.266   0.248   0.062  0.6168  1.0449  0.2272
 1749TIP3    H2 5212   6.316   0.106   0.083 -0.7591  0.6358  0.8161
 1750TIP3   OH2 5213   0.583   5.015   4.213 -0.1543 -0.0472 -0.1544
 1750TIP3    H1 5214   0.577   4.956   4.288  1.9798 -0.0642  0.0779
 1750TIP3    H2 5215   0.598   4.957   4.138 -0.3278  0.0735 -0.2832
 1751TIP3   OH2 5216   2.986   1.098   5.047  0.0075 -0.7830 -0.4091
 1751TIP3    H1 5217   3.026   1.117   5.132  0.8307  0.0986 -0.9712
 1751TIP3    H2 5218   2.936   1.018   5.062  0.9756 -1.2274  0.6506
 1752TIP3   OH2 5219   3.908   2.063   3.336 -0.4087  0.0690  0.6542
 1752TIP3    H1 5220   3.901   2.062   3.240  1.6387  0.3340  0.4628
 1752TIP3    H2 5221   3.855   1.989   3.365  2.1488 -2.6226 -0.9928
 1753TIP3   OH2 5222   5.318   1.618   2.332  0.0166  0.0644  0.1367
 1753TIP3    H1 5223   5.327   1.713   2.345  0.4630 -0.0337  0.5443
 1753TIP3    H2 5224   5.345   1.580   2.415  1.6474 -0.5142 -0.6311
 1754TIP3   OH2 5225   1.690   0.578   2.213 -0.1049 -0.1384  0.1313
 1754TIP3    H1 5226   1.646   0.498   2.239  0.1585 -1.2753 -2.5559
 1754TIP3    H2 5227   1.637   0.613   2.141  1.4515  0.3566 -0.8407
 1755TIP3   OH2 5228   6.121   5.788   1.295 -0.1998 -0.2047  0.3486
 1755TIP3    H1 5229   6.164   5.799   1.210  0.0105 -0.7472  0.3859
 1755TIP3    H2 5230   6.068   5.867   1.305  1.0677  0.6703  0.4609
 1756TIP3   OH2 5231   1.566   6.226   0.427  0.5350 -0.4579  0.3112
 1756TIP3    H1 5232   1.634   6.160   0.412 -2.1482 -3.1371 -1.3528
 1756TIP3    H2 5233   1.549   6.264   0.341  0.2290  0.4907  0.7794
 1757TIP3   OH2 5234   5.234   4.134   5.196  0.0019  0.6010 -0.0444
 1757TIP3    H1 5235   5.325   4.157   5.214 -0.0652  0.2955  0.7178
 1757TIP3    H2 5236   5.231   4.039   5.203 -0.2208  0.5405 -0.8340
 1758TIP3   OH2 5237   4.743   4.146   5.247  0.3696 -0.1103  0.0585
 1758TIP3    H1 5238   4.702   4.232   5.236  0.7681  0.1576  0.6233
 1758TIP3    H2 5239   4.677   4.084   5.218  0.3375  0.4176 -1.0507
 1759TIP3   OH2 5240   0.594   4.397   3.867  0.4219  0.3143  0.2247
 1759TIP3    H1 5241   0.618   4.435   3.951 -0.5428 -0.0416  0.6745
 1759TIP3    H2 5242   0.677   4.385   3.821  1.1629 -1.1090  1.8214
 1760TIP3   OH2 5243   5.865   5.296   1.113 -0.2988 -0.2974  0.0648
 1760TIP3    H1 5244   5.941   5.272   1.166  0.1003  1.4393  0.3489
 1760TIP3    H2 5245   5.833   5.377   1.153 -2.1015 -0.8005 -0.2644
 1761TIP3   OH2 5246   6.992   0.793   4.755 -0.3210 -0.4176 -0.0839
 1761TIP3    H1 5247   6.929   0.844   4.806 -0.9955  0.8340 -2.0538
 1761TIP3    H2 5248   6.940   0.754   4.684  0.9558  0.0611 -1.3384
 1762TIP3   OH2 5249   4.488   5.921   1.944  0.2127  0.7127  0.1643
 1762TIP3    H1 5250   4.424   5.989   1.968  0.0397  1.3881 -1.9506
 1762TIP3    H2 5251   4.558   5.969   1.901  0.3974 -0.3724 -0.7953
 1763TIP3   OH2 5252   2.248   0.197   4.713  0.4035 -0.0013 -0.3114
 1763TIP3    H1 5253   2.261   0.243   4.796 -1.0957  1.7537 -0.9916
 1763TIP3    H2 5254   2.246   0.266   4.647 -0.3795 -1.1914 -1.5814
 1764TIP3   OH2 5255   2.042   4.352   4.440 -0.0794  0.0400 -0.1129
 1764TIP3    H1 5256   2.117   4.344   4.500  0.5554 -0.1344 -0.9106
 1764TIP3    H2 5257   2.066   4.298   4.364 -0.4545  0.9882 -0.9313
 1765TIP3   OH2 5258   3.288   4.842   1.496  0.2663 -0.2154 -0.5752
 1765TIP3    H1 5259   3.296   4.789   1.575 -2.1770 -2.0686 -1.4440
 1765TIP3    H2 5260   3.225   4.910   1.519 -0.8968 -1.1049 -1.0378
 1766TIP3   OH2 5261   1.125   0.205   1.750 -0.1058  0.7372  0.0791
 1766TIP3    H1 5262   1.090   0.153   1.678  1.9693  1.0469 -1.2332
 1766TIP3    H2 5263   1.068   0.282   1.753 -0.4208  0.5742 -1.0402
 1767TIP3   OH2 5264   2.731   5.613   0.633  0.2847  0.5984  0.1951
 1767TIP3    H1 5265   2.698   5.703   0.638  0.0663  0.4690  1.6912
 1767TIP3    H2 5266   2.730   5.592   0.540 -2.5923  1.0811  0.0347
 1768TIP3   OH2 5267   5.694   5.259   2.759 -0.2454  0.0697 -0.2498
 1768TIP3    H1 5268   5.634   5.330   2.736  1.0800  0.7936 -1.6507
 1768TIP3    H2 5269   5.699   5.206   2.679  0.4452 -0.3738  0.0755
 1769TIP3   OH2 5270   2.345   0.823   1.796  0.0258  0.4621 -0.1000
 1769TIP3    H1 5271   2.359   0.887   1.866  0.8818  1.4475 -1.1340
 1769TIP3    H2 5272   2.401   0.854   1.724 -0.8494 -0.5137 -1.2296
 1770TIP3   OH2 5273   3.299   0.406   4.508 -0.2862  0.2470 -0.0441
 1770TIP3    H1 5274   3.239   0.424   4.580 -0.8369 -0.2421 -0.3685
 1770TIP3    H2 5275   3.313   0.311   4.511  0.3293  0.3368 -0.0802
 1771TIP3   OH2 5276   6.630   5.982   2.044 -0.6909  0.1126 -0.3329
 1771TIP3    H1 5277   6.688   6.033   2.101  0.8588  0.8177 -2.4183
 1771TIP3    H2 5278   6.551   5.968   2.096 -0.0255  2.1708  1.3522
 1772TIP3   OH2 5279   2.699   4.268   1.134 -0.2836  0.2198  0.6798
 1772TIP3    H1 5280   2.706   4.337   1.068  0.8175 -0.1037  0.4449
 1772TIP3    H2 5281   2.695   4.315   1.217  0.2611  0.5744  0.5072
 1773TIP3   OH2 5282   0.546   2.412   2.517 -0.1409  0.6166 -0.0010
 1773TIP3    H1 5283   0.603   2.486   2.495  2.7572 -1.8491 -1.5642
 1773TIP3    H2 5284   0.543   2.411   2.612 -0.0876  2.5464  0.0617
 1774TIP3   OH2 5285   2.075   0.507   5.511  0.4114  0.0571  0.0037
 1774TIP3    H1 5286   2.057   0.600   5.530  0.7577  0.0366  0.4348
 1774TIP3    H2 5287   1.989   0.470   5.494  0.2214  0.3578  0.2880
 1775TIP3   OH2 5288   5.755   0.640   4.225  0.2520 -0.1219 -0.4712
 1775TIP3    H1 5289   5.786   0.723   4.190 -0.6040 -0.1503 -1.3159
 1775TIP3    H2 5290   5.663   0.655   4.247  0.0220 -0.8998 -0.8499
 1776TIP3   OH2 5291   5.828   0.695   1.535 -0.1754 -0.2319  0.0230
 1776TIP3    H1 5292   5.867   0.781   1.548 -0.3040  0.0217 -1.1407
 1776TIP3    H2 5293   5.803   0.693   1.443 -0.4243 -1.4162  0.0886
 1777TIP3   OH2 5294   4.146   1.887   4.404  0.3844 -0.5729  0.1353
 1777TIP3    H1 5295   4.088   1.867   4.330  0.7790  0.1673 -0.3791
 1777TIP3    H2 5296   4.168   1.979   4.394 -0.2597 -0.2129  1.6802
 1778TIP3   OH2 5297   2.298   4.531   2.850  0.1929  0.1832 -0.2322
 1778TIP3    H1 5298   2.220   4.491   2.812 -0.9816  3.5543 -1.7557
 1778TIP3    H2 5299   2.283   4.529   2.945 -0.4174 -1.6035 -0.3359
 1779TIP3   OH2 5300   6.044   4.520   4.359 -0.7179  0.1501 -0.5419
 1779TIP3    H1 5301   6.094   4.443   4.387 -1.0464  0.6153  1.4803
 1779TIP3    H2 5302   5.980   4.485   4.298  0.2002 -0.9111 -0.9456
 1780TIP3   OH2 5303   0.662   0.615   5.495 -0.1299  0.5305 -0.0251
 1780TIP3    H1 5304   0.571   0.588   5.511 -0.8348  1.5920 -1.8073
 1780TIP3    H2 5305   0.662   0.709   5.515  0.0397  0.9409 -1.7556
 1781TIP3   OH2 5306   6.500   1.274   2.043 -0.0040 -0.1093 -0.0719
 1781TIP3    H1 5307   6.470   1.307   1.958 -0.9536  0.5151  0.4947
 1781TIP3    H2 5308   6.472   1.183   2.044  0.8542 -0.4031 -0.8072
 1782TIP3   OH2 5309   1.193   0.330   3.819  0.0675 -0.4136  0.6414
 1782TIP3    H1 5310   1.099   0.347   3.831 -0.3359 -1.7212 -0.4740
 1782TIP3    H2 5311   1.229   0.334   3.908 -1.3191 -1.3902  1.2861
 1783TIP3   OH2 5312   1.078   2.173   1.136 -0.0396  0.0781  0.3087
 1783TIP3    H1 5313   1.154   2.152   1.191 -0.2213 -1.0560  0.1539
 1783TIP3    H2 5314   1.026   2.233   1.189 -0.3955 -1.2770  1.5690
 1784TIP3   OH2 5315   5.767   5.893   4.272 -0.3358 -0.1395 -0.3363
 1784TIP3    H1 5316   5.788   5.920   4.362 -1.4838  0.7341 -0.3172
 1784TIP3    H2 5317   5.741   5.801   4.281 -1.1433  0.1377  0.3603
 1785TIP3   OH2 5318   6.176   0.967   0.052  0.7613 -0.3780 -0.6333
 1785TIP3    H1 5319   6.217   0.890   0.090  0.8820 -0.3362 -0.6781
 1785TIP3    H2 5320   6.243   1.036   0.060 -0.0918  0.3067  1.4037
 1786TIP3   OH2 5321   6.677   1.930   5.193 -0.1638  0.0350  0.1348
 1786TIP3    H1 5322   6.583   1.926   5.173  0.1776 -0.3633 -1.5334
 1786TIP3    H2 5323   6.692   1.857   5.253 -1.2857  1.4207  2.2188
 1787TIP3   OH2 5324   3.499   2.754   3.413  0.5608  0.3692 -0.0673
 1787TIP3    H1 5325   3.412   2.747   3.453  0.7964  0.0272  0.3964
 1787TIP3    H2 5326   3.488   2.720   3.324  0.5030 -0.9100  0.4093
 1788TIP3   OH2 5327   4.821   0.911   4.659  0.3452  0.2331  0.7188
 1788TIP3    H1 5328   4.770   0.980   4.617  0.9619  0.2967  0.0755
 1788TIP3    H2 5329   4.860   0.862   4.587 -0.2694 -0.9384  1.1609
 1789TIP3   OH2 5330   2.413   3.387   0.516 -0.3127 -0.1362  0.8333
 1789TIP3    H1 5331   2.394   3.318   0.452  1.0299  1.7963 -1.8593
 1789TIP3    H2 5332   2.499   3.364   0.551  0.4829  0.4843 -0.6252
 1790TIP3   OH2 5333   0.903   5.358   1.082  0.0786 -0.2182 -0.4113
 1790TIP3    H1 5334   0.923   5.450   1.102  0.2448 -0.0568 -1.2619
 1790TIP3    H2 5335   0.809   5.351   1.092  0.0457  0.0905 -0.4805
 1791TIP3   OH2 5336   6.210   2.918   3.323 -0.2065  0.4091 -0.2397
 1791TIP3    H1 5337   6.269   2.856   3.279 -1.1202 -1.1192  0.6085
 1791TIP3    H2 5338   6.264   2.996   3.336  2.3489 -1.5377  2.2259
 1792TIP3   OH2 5339   0.214   4.668   0.648 -0.1363  0.2063 -0.1999
 1792TIP3    H1 5340   0.298   4.658   0.693 -0.6989 -0.5512  0.7407
 1792TIP3    H2 5341   0.189   4.578   0.624 -1.1649  0.2787  0.4978
 1793TIP3   OH2 5342   4.454   5.842   1.270 -0.1249  0.1133  0.3905
 1793TIP3    H1 5343   4.493   5.759   1.242  0.5519  0.7813 -0.7311
 1793TIP3    H2 5344   4.487   5.856   1.358  0.7902 -0.1903  0.1086
 1794TIP3   OH2 5345   4.027   2.618   1.126 -0.0412  0.7793  0.3017
 1794TIP3    H1 5346   3.948   2.567   1.109  1.2011 -0.6528 -1.7622
 1794TIP3    H2 5347   4.072   2.570   1.195 -0.9272  1.5889  1.4688
 1795TIP3   OH2 5348   6.001   2.438   2.785  0.0550  0.1043  1.0986
 1795TIP3    H1 5349   6.063   2.482   2.726  1.0437  1.4833  3.0472
 1795TIP3    H2 5350   6.054   2.376   2.834 -0.8974 -1.5821  0.0750
 1796TIP3   OH2 5351   3.996   4.670   3.571 -0.4890  0.1869  0.0243
 1796TIP3    H1 5352   4.004   4.706   3.483  2.6428  0.1924  0.2127
 1796TIP3    H2 5353   3.918   4.713   3.607 -1.4641  0.6742 -2.4617
 1797TIP3   OH2 5354   4.191   5.708   2.692  0.5456  0.3488 -0.4557
 1797TIP3    H1 5355   4.127   5.698   2.622  1.6055  0.4610 -1.4723
 1797TIP3    H2 5356   4.264   5.650   2.668  0.6173 -0.1902  0.9509
 1798TIP3   OH2 5357   2.613   3.174   4.763  0.0355 -0.3663 -0.1283
 1798TIP3    H1 5358   2.707   3.159   4.756  0.1350  0.2177 -0.1425
 1798TIP3    H2 5359   2.585   3.196   4.674 -0.4831 -2.4407 -0.5129
 1799TIP3   OH2 5360   4.263   4.372   5.835 -0.4833  0.2836 -0.0524
 1799TIP3    H1 5361   4.256   4.465   5.813 -2.7785  0.2457  0.2237
 1799TIP3    H2 5362   4.354   4.360   5.860  0.7697  1.7200 -3.2904
 1800TIP3   OH2 5363   6.255   2.007   3.470 -0.0560  0.0427  0.4996
 1800TIP3    H1 5364   6.291   2.023   3.383 -0.8180  0.2873  0.2226
 1800TIP3    H2 5365   6.329   2.021   3.530  0.1384  1.2313  0.0088
 1801TIP3   OH2 5366   0.757   4.158   3.251 -0.4598  0.1479 -0.3812
 1801TIP3    H1 5367   0.773   4.252   3.245 -0.6993  0.3256  1.2201
 1801TIP3    H2 5368   0.757   4.140   3.345 -1.7500 -1.2121 -0.6063
 1802TIP3   OH2 5369   0.087   3.958   1.415 -0.6135 -0.7857  0.1739
 1802TIP3    H1 5370   0.069   4.046   1.382 -0.4684 -0.2616  1.4582
 1802TIP3    H2 5371   0.003   3.928   1.451 -0.4360 -0.7923  0.5866
 1803TIP3   OH2 5372   0.938   0.762   3.791 -0.2609 -0.2268 -0.0969
 1803TIP3    H1 5373   0.885   0.685   3.772  2.2992 -2.0036 -0.6164
 1803TIP3    H2 5374   1.006   0.731   3.850  0.9332  1.6066 -0.4110
 1804TIP3   OH2 5375   1.986   1.634   0.603 -0.6845  0.5136 -0.2281
 1804TIP3    H1 5376   2.022   1.597   0.684 -0.9925 -1.2324 -0.8341
 1804TIP3    H2 5377   1.896   1.656   0.625  0.0267  2.8245  0.6757
 1805TIP3   OH2 5378   1.907   6.410   0.652  0.6084 -0.5852 -0.1111
 1805TIP3    H1 5379   1.916   6.364   0.569  0.0813  0.0886 -0.5514
 1805TIP3    H2 5380   1.902   6.341   0.718  0.8803 -1.1261 -0.6532
 1806TIP3   OH2 5381   1.428   0.233   0.187 -0.1469  0.0236  0.0800
 1806TIP3    H1 5382   1.383   0.204   0.108  2.0725 -1.4558 -0.7596
 1806TIP3    H2 5383   1.472   0.314   0.161 -0.4340  0.2112  0.1805
 1807TIP3   OH2 5384   5.020   0.935   1.334 -0.7092 -0.1928 -0.1433
 1807TIP3    H1 5385   5.060   1.012   1.374 -1.0765 -0.8018  1.5251
 1807TIP3    H2 5386   5.092   0.873   1.322 -0.4351  0.3510 -1.3683
 1808TIP3   OH2 5387   0.587   4.348   3.475 -0.1679 -0.2533 -0.1602
 1808TIP3    H1 5388   0.669   4.300   3.481  0.4539  0.7920 -0.1430
 1808TIP3    H2 5389   0.530   4.306   3.540  0.0022 -1.6031 -0.8424
 1809TIP3   OH2 5390   4.365   1.230   2.584 -0.2862 -0.2867  0.8574
 1809TIP3    H1 5391   4.339   1.161   2.524  0.5713 -0.9238  1.1919
 1809TIP3    H2 5392   4.415   1.291   2.530 -0.3155 -0.3705  0.7357
 1810TIP3   OH2 5393   2.818   1.313   5.573 -0.1059 -0.1169  0.0428
 1810TIP3    H1 5394   2.767   1.351   5.501  0.1806  0.0144 -0.0923
 1810TIP3    H2 5395   2.817   1.219   5.555 -0.5324 -0.1442  0.1934
 1811TIP3   OH2 5396   3.806   1.670   5.753  0.4663 -0.1231 -0.3896
 1811TIP3    H1 5397   3.716   1.703   5.760  0.6464  0.2455  0.3244
 1811TIP3    H2 5398   3.855   1.724   5.815  1.2522 -0.0744 -1.0461
 1812TIP3   OH2 5399   0.444   3.108   5.054  0.3616  0.2528 -0.2237
 1812TIP3    H1 5400   0.480   3.125   4.968  0.8336  4.1471  0.5757
 1812TIP3    H2 5401   0.352   3.085   5.038  0.5966  0.3385 -1.7806
 1813TIP3   OH2 5402   4.675   6.546   0.945 -0.0112  0.6323 -0.0371
 1813TIP3    H1 5403   4.660   6.640   0.943  1.0199  0.9721  3.0811
 1813TIP3    H2 5404   4.600   6.509   0.991  0.7503  0.2956  0.9869
 1814TIP3   OH2 5405   0.431   6.541   4.555 -0.2864 -0.7810 -0.4568
 1814TIP3    H1 5406   0.525   6.551   4.570 -0.5200  0.3421  0.3546
 1814TIP3    H2 5407   0.409   6.609   4.492 -0.4316 -1.5554 -1.2700
 1815TIP3   OH2 5408   5.954   2.721   3.604  0.3347  0.1217 -0.3740
 1815TIP3    H1 5409   5.869   2.761   3.620  0.3647 -0.5352  1.7653
 1815TIP3    H2 5410   6.017   2.783   3.640  0.4852 -0.9948  1.4041
 1816TIP3   OH2 5411   2.583   3.755   2.760  0.5588 -0.1645  0.0443
 1816TIP3    H1 5412   2.569   3.717   2.846  2.3718 -0.5716  0.2093
 1816TIP3    H2 5413   2.513   3.720   2.706  0.9162 -2.0110  0.7215
 1817TIP3   OH2 5414   2.098   2.145   0.489 -0.3704  0.6122 -0.6142
 1817TIP3    H1 5415   2.057   2.186   0.413  0.1478  1.6422 -0.3629
 1817TIP3    H2 5416   2.170   2.094   0.452 -1.7063 -1.0532 -1.0374
 1818TIP3   OH2 5417   0.325   4.217   1.978 -0.0140  0.0192 -0.8073
 1818TIP3    H1 5418   0.369   4.238   1.895  2.0319  2.1915  0.6961
 1818TIP3    H2 5419   0.358   4.131   2.002 -0.6717 -0.6681 -2.2040
 1819TIP3   OH2 5420   0.412   5.392   4.939  0.1026  0.0714 -0.1371
 1819TIP3    H1 5421   0.351   5.334   4.894  0.4713  1.1936 -2.2256
 1819TIP3    H2 5422   0.357   5.465   4.969  0.1437  0.2426 -0.4739
 1820TIP3   OH2 5423   0.466   4.324   1.420 -0.0254  0.0335  0.0308
 1820TIP3    H1 5424   0.468   4.411   1.460  1.0012 -0.4054  0.9797
 1820TIP3    H2 5425   0.558   4.303   1.404 -0.2346 -1.0774  0.2470
 1821TIP3   OH2 5426   6.741   3.918   2.505 -0.9839 -0.4674  0.2132
 1821TIP3    H1 5427   6.752   4.013   2.491 -1.4446 -0.5844 -1.1288
 1821TIP3    H2 5428   6.650   3.901   2.481 -1.3464 -1.0327  1.8791
 1822TIP3   OH2 5429   3.725   2.342   2.962  0.0163  0.7317  0.2398
 1822TIP3    H1 5430   3.701   2.269   2.906  1.1925  0.8202 -0.3999
 1822TIP3    H2 5431   3.662   2.337   3.035  0.6338 -1.4742  0.6986
 1823TIP3   OH2 5432   0.476   3.228   1.912 -0.0504  0.3249  0.3818
 1823TIP3    H1 5433   0.517   3.212   1.997  0.1241 -0.2958  0.1854
 1823TIP3    H2 5434   0.470   3.142   1.871 -1.5071  0.4038  0.3742
 1824TIP3   OH2 5435   2.271   0.680   3.363  0.2138  0.1673  0.1668
 1824TIP3    H1 5436   2.254   0.662   3.271  1.1503  0.4052 -0.0658
 1824TIP3    H2 5437   2.366   0.676   3.371  0.1291 -0.1933  1.1987
 1825TIP3   OH2 5438   6.740   3.156   2.338  0.4470 -0.4203 -0.7332
 1825TIP3    H1 5439   6.830   3.153   2.370 -0.1883 -2.7124  1.2226
 1825TIP3    H2 5440   6.735   3.086   2.273 -0.3561 -1.8061  0.7404
 1826TIP3   OH2 5441   3.123   0.039   4.767 -0.3273  0.0527  0.0963
 1826TIP3    H1 5442   3.193   0.021   4.829  0.5875  1.1563 -0.5892
 1826TIP3    H2 5443   3.120  -0.039   4.712  1.4867  0.6290 -0.8914
 1827TIP3   OH2 5444   4.276   1.802   5.179  0.0769  0.1401  0.6621
 1827TIP3    H1 5445   4.288   1.718   5.224 -1.7628 -1.4156 -1.5161
 1827TIP3    H2 5446   4.185   1.801   5.152  1.0894  0.7595 -3.2947
 1828TIP3   OH2 5447   4.362   2.000   0.420 -0.1125 -0.2964  0.1208
 1828TIP3    H1 5448   4.435   2.011   0.359  1.2252 -0.7852  1.5496
 1828TIP3    H2 5449   4.284   1.999   0.365  0.8204  1.5666 -1.3444
 1829TIP3   OH2 5450   6.453   5.076   3.031  0.2422 -0.3186 -0.0124
 1829TIP3    H1 5451   6.544   5.105   3.028  0.6185 -1.5270 -2.4916
 1829TIP3    H2 5452   6.402   5.153   3.007  0.4377  0.7109  2.6051
 1830TIP3   OH2 5453   7.017   6.703   3.312  0.3999 -0.3374  0.2066
 1830TIP3    H1 5454   6.950   6.659   3.259  1.0852  0.1875 -1.1311
 1830TIP3    H2 5455   7.091   6.714   3.252  0.4951  2.0315  0.6934
 1831TIP3   OH2 5456   0.201   6.648   2.514 -0.4013  0.9294  0.0986
 1831TIP3    H1 5457   0.170   6.561   2.488 -0.0409  0.9630 -0.4655
 1831TIP3    H2 5458   0.225   6.690   2.431  0.4131  1.1800  0.4515
 1832TIP3   OH2 5459   4.868   4.900   3.179 -0.3215  0.1246 -0.2438
 1832TIP3    H1 5460   4.901   4.984   3.209  1.0683 -0.7832  0.9239
 1832TIP3    H2 5461   4.854   4.850   3.260  0.9275 -1.4777 -0.9662
 1833TIP3   OH2 5462   4.322   4.341   3.688 -0.3134 -0.2002  0.5053
 1833TIP3    H1 5463   4.276   4.344   3.772  0.4574  1.0500  0.9145
 1833TIP3    H2 5464   4.254   4.319   3.624 -1.4384  1.2908  1.1384
 1834TIP3   OH2 5465   0.240   1.049   0.709  0.3748 -0.6830 -0.2233
 1834TIP3    H1 5466   0.207   1.115   0.648  2.2096  0.4405 -0.0690
 1834TIP3    H2 5467   0.195   1.068   0.792 -0.7810 -1.0836 -0.7404
 1835TIP3   OH2 5468   1.792   3.091   5.745  0.0370  0.2753  0.3221
 1835TIP3    H1 5469   1.779   3.041   5.825 -1.9338  0.2058  0.0009
 1835TIP3    H2 5470   1.756   3.036   5.676  3.1812 -0.4304 -0.9567
 1836TIP3   OH2 5471   4.207   4.121   4.350  0.0048  0.2363 -0.1109
 1836TIP3    H1 5472   4.202   4.180   4.275  1.6913 -1.3331 -1.5355
 1836TIP3    H2 5473   4.116   4.100   4.370 -0.5014  1.3032 -1.1845
 1837TIP3   OH2 5474   3.698   6.005   2.268  0.3090  0.0275 -0.0590
 1837TIP3    H1 5475   3.680   5.949   2.193 -1.0550  1.5041 -0.9120
 1837TIP3    H2 5476   3.626   5.989   2.328 -0.8640  1.7902 -0.9205
 1838TIP3   OH2 5477   1.120   0.707   4.228  0.4400 -0.7116  0.0636
 1838TIP3    H1 5478   1.181   0.682   4.298 -0.0153 -0.6762  0.4840
 1838TIP3    H2 5479   1.045   0.746   4.275 -1.0174 -2.9513 -0.2329
 1839TIP3   OH2 5480   6.620   4.724   2.288 -0.4050  0.1620  0.2521
 1839TIP3    H1 5481   6.582   4.782   2.353 -1.7376  0.1512 -0.4799
 1839TIP3    H2 5482   6.712   4.749   2.284 -0.9877  2.3988 -0.2199
 1840TIP3   OH2 5483   2.955   5.352   1.565  0.7041 -0.4223 -0.2514
 1840TIP3    H1 5484   2.962   5.258   1.549 -0.8752 -0.3900 -1.3807
 1840TIP3    H2 5485   3.001   5.393   1.492  1.9856 -0.2893  0.5990
 1841TIP3   OH2 5486   4.207   1.665   0.856 -0.2503 -0.3772  0.1896
 1841TIP3    H1 5487   4.116   1.650   0.881 -0.4999 -0.7418 -0.8985
 1841TIP3    H2 5488   4.209   1.756   0.827  0.3787  0.5708  2.8921
 1842TIP3   OH2 5489   1.451   2.584   1.822 -0.0767  0.1355  0.2346
 1842TIP3    H1 5490   1.375   2.595   1.765  0.2240  0.7658 -0.0564
 1842TIP3    H2 5491   1.460   2.490   1.833 -0.9564  0.0590  0.3491
 1843TIP3   OH2 5492   4.522   2.224   1.016  0.1458  0.0200  0.1731
 1843TIP3    H1 5493   4.432   2.256   1.024  0.2532  0.3583  0.0445
 1843TIP3    H2 5494   4.560   2.238   1.102  0.4869  1.1578 -0.1409
 1844TIP3   OH2 5495   5.455   0.397   3.933  0.0108 -0.5276  0.3314
 1844TIP3    H1 5496   5.444   0.320   3.877  1.2040 -0.1362 -0.4835
 1844TIP3    H2 5497   5.443   0.471   3.874 -2.7477  0.0056  1.4110
 1845TIP3   OH2 5498   2.544   3.759   5.650  0.3013  0.2278  0.8396
 1845TIP3    H1 5499   2.584   3.779   5.565  0.4822 -0.5208  0.7367
 1845TIP3    H2 5500   2.605   3.698   5.692  0.2883  0.7143  1.5817
 1846TIP3   OH2 5501   4.191   1.597   4.540  0.2321  0.6935  0.2494
 1846TIP3    H1 5502   4.154   1.646   4.466 -1.9336 -0.5734  0.4151
 1846TIP3    H2 5503   4.197   1.661   4.610  1.2144  1.6313 -0.6445
 1847TIP3   OH2 5504   5.500   2.961   2.108 -0.0188 -0.0986 -0.9622
 1847TIP3    H1 5505   5.490   2.963   2.013 -0.9161  0.5052 -0.8699
 1847TIP3    H2 5506   5.468   2.874   2.133  0.7169 -0.4586 -1.2567
 1848TIP3   OH2 5507   6.710   2.620   0.082  0.1463  0.3212 -0.1733
 1848TIP3    H1 5508   6.620   2.586   0.086  0.6829 -1.1193  0.2188
 1848TIP3    H2 5509   6.738   2.604  -0.008  1.0484 -2.1418  0.4684
 1849TIP3   OH2 5510   3.406   0.047   5.837  0.2498 -0.4621 -0.3843
 1849TIP3    H1 5511   3.408  -0.030   5.895 -0.5401 -0.3821 -0.2412
 1849TIP3    H2 5512   3.440   0.118   5.891 -0.1762 -0.4569 -0.1158
 1850TIP3   OH2 5513   1.402   6.041   3.232 -1.1608  0.6019 -0.6667
 1850TIP3    H1 5514   1.422   5.955   3.197  1.0432  0.7721  0.0200
 1850TIP3    H2 5515   1.402   6.099   3.155  0.4071  0.4497 -0.8135
 1851TIP3   OH2 5516   3.405   5.404   0.469 -0.6653 -0.5115  0.1066
 1851TIP3    H1 5517   3.361   5.423   0.552 -1.6073 -1.7965 -0.0675
 1851TIP3    H2 5518   3.469   5.336   0.490  0.5004  0.5540  0.1343
 1852TIP3   OH2 5519   0.701   3.769   1.233  0.7245 -0.0826 -0.0564
 1852TIP3    H1 5520   0.789   3.735   1.248  1.0525  0.2106 -1.2059
 1852TIP3    H2 5521   0.648   3.691   1.213  0.7332 -0.2536  0.5819
 1853TIP3   OH2 5522   4.172   3.509   0.244 -0.2806 -0.6067  0.6442
 1853TIP3    H1 5523   4.241   3.565   0.277 -0.6417  0.1325  0.1876
 1853TIP3    H2 5524   4.185   3.508   0.149 -0.5001 -0.9990  0.6138
 1854TIP3   OH2 5525   0.583   0.870   5.556 -0.3449  0.7366  0.8342
 1854TIP3    H1 5526   0.660   0.926   5.547 -0.4278  0.5468 -1.6288
 1854TIP3    H2 5527   0.535   0.908   5.629  0.4560  2.8452  0.3399
 1855TIP3   OH2 5528   6.330   2.743   1.532  0.2446 -0.4506  0.0956
 1855TIP3    H1 5529   6.332   2.684   1.608 -1.0045 -0.2834  0.2838
 1855TIP3    H2 5530   6.420   2.774   1.523  0.5175 -0.8857  1.1861
 1856TIP3   OH2 5531   5.697   1.140   5.227  0.0574  0.2128  0.3292
 1856TIP3    H1 5532   5.700   1.208   5.159 -0.8505 -0.6916 -0.6510
 1856TIP3    H2 5533   5.760   1.074   5.197 -1.2985 -0.8143 -0.3672
 1857TIP3   OH2 5534   5.416   1.591   4.268  0.0710  0.0450  0.1042
 1857TIP3    H1 5535   5.483   1.632   4.212 -1.2111  0.6632 -1.0270
 1857TIP3    H2 5536   5.383   1.662   4.323  1.9364 -0.7239  2.3889
 1858TIP3   OH2 5537   4.760   1.474   2.440  0.0920 -0.1728 -0.6558
 1858TIP3    H1 5538   4.695   1.447   2.375  0.8187 -0.1010 -1.4345
 1858TIP3    H2 5539   4.768   1.399   2.499 -0.0422 -0.5293 -1.0836
 1859TIP3   OH2 5540   4.775   0.279   2.538  0.1189 -0.0053  0.2079
 1859TIP3    H1 5541   4.787   0.374   2.541 -1.6113  0.2598 -0.0956
 1859TIP3    H2 5542   4.696   0.263   2.588 -0.6408 -1.0693 -1.2444
 1860TIP3   OH2 5543   4.586   6.055   5.584 -0.7465 -0.3494  0.0215
 1860TIP3    H1 5544   4.656   6.052   5.519 -1.4435  0.4874 -0.7899
 1860TIP3    H2 5545   4.603   6.135   5.634 -1.6689  0.4033 -0.8339
 1861TIP3   OH2 5546   3.881   0.636   5.078 -0.2342 -0.0288 -0.0068
 1861TIP3    H1 5547   3.896   0.618   4.985  0.5991  1.1334 -0.1218
 1861TIP3    H2 5548   3.800   0.590   5.098 -0.5871 -0.0680 -1.3819
 1862TIP3   OH2 5549   1.761   3.111   1.904 -0.2457  0.2927 -0.3106
 1862TIP3    H1 5550   1.714   3.056   1.841  0.1598  0.9701 -1.2054
 1862TIP3    H2 5551   1.693   3.169   1.939 -0.3146  0.4599 -0.7157
 1863TIP3   OH2 5552   5.670   0.541   3.399  0.6902  0.0251  0.0151
 1863TIP3    H1 5553   5.578   0.515   3.399  0.6822 -0.2954 -2.8825
 1863TIP3    H2 5554   5.674   0.617   3.457 -1.5073  0.3885 -0.2404
 1864TIP3   OH2 5555   3.164   4.116   5.836 -0.0272  0.0549  0.0688
 1864TIP3    H1 5556   3.179   4.026   5.806 -0.2328 -0.0690  0.3364
 1864TIP3    H2 5557   3.072   4.133   5.816 -0.4349 -0.3686  1.4997
 1865TIP3   OH2 5558   6.685   0.132   3.438  0.2601  0.2204 -0.9462
 1865TIP3    H1 5559   6.750   0.076   3.396  1.3565 -0.8730  1.9870
 1865TIP3    H2 5560   6.679   0.209   3.381  2.1838 -0.8105 -2.6535
 1866TIP3   OH2 5561   3.794   2.755   2.513  0.3530 -1.0224  0.3945
 1866TIP3    H1 5562   3.879   2.757   2.470  0.6919  0.0860  1.0405
 1866TIP3    H2 5563   3.814   2.774   2.605 -0.7286  1.4172  0.2259
 1867TIP3   OH2 5564   4.682   2.443   2.469 -0.6550  0.1611  0.7259
 1867TIP3    H1 5565   4.628   2.485   2.401  0.8457  0.6293 -0.2325
 1867TIP3    H2 5566   4.695   2.354   2.438  2.1032  1.0361 -1.0099
 1868TIP3   OH2 5567   6.638   3.408   1.944 -0.1521  0.2721  0.7756
 1868TIP3    H1 5568   6.663   3.497   1.921 -0.1491  0.6054  2.0127
 1868TIP3    H2 5569   6.677   3.353   1.875 -1.7508  1.3577 -1.1050
 1869TIP3   OH2 5570   4.502   1.083   3.562 -0.1261 -0.4920 -0.5534
 1869TIP3    H1 5571   4.506   1.177   3.578  0.7868 -0.6147  0.0562
 1869TIP3    H2 5572   4.583   1.048   3.602 -0.3311 -1.4992 -0.9704
 1870TIP3   OH2 5573   0.304   4.108   5.253 -0.2506  0.2707 -0.3085
 1870TIP3    H1 5574   0.347   4.105   5.167 -0.2282  0.5963 -0.3077
 1870TIP3    H2 5575   0.236   4.174   5.243 -0.3449  0.2024 -0.1170
 1871TIP3   OH2 5576   4.493   5.043   4.305  0.6565  0.0963 -0.0281
 1871TIP3    H1 5577   4.541   4.977   4.354  0.4369 -1.1551 -1.4406
 1871TIP3    H2 5578   4.407   5.046   4.346  0.3927 -1.1161 -0.4791
 1872TIP3   OH2 5579   6.823   2.109   2.046  0.0662 -0.5129 -0.3777
 1872TIP3    H1 5580   6.733   2.130   2.019 -0.0496 -0.3568  0.1203
 1872TIP3    H2 5581   6.841   2.025   2.006 -0.9844 -1.4688  1.0572
 1873TIP3   OH2 5582   5.971   6.341   0.199 -0.2345 -0.0910 -0.1275
 1873TIP3    H1 5583   5.964   6.247   0.214  0.2677 -0.1996 -0.5676
 1873TIP3    H2 5584   6.005   6.376   0.282  0.4542 -0.4128 -0.2763
 1874TIP3   OH2 5585   1.590   2.120   2.327  0.2966 -0.1899 -0.1418
 1874TIP3    H1 5586   1.594   2.056   2.398 -2.6352 -1.1746 -0.7417
 1874TIP3    H2 5587   1.679   2.154   2.321  0.8581 -0.6126  3.4660
 1875TIP3   OH2 5588   3.033   0.218   3.870 -0.5887 -0.3873 -0.2833
 1875TIP3    H1 5589   3.076   0.272   3.804  1.4542 -1.5954 -0.0219
 1875TIP3    H2 5590   2.963   0.274   3.904 -0.0813  1.1865 -1.6789
 1876TIP3   OH2 5591   6.973   0.751   3.748 -0.1205  0.0566  0.0652
 1876TIP3    H1 5592   6.893   0.789   3.710  0.5488  0.2196 -1.2444
 1876TIP3    H2 5593   7.023   0.826   3.780  0.3286  0.1391 -0.7900
 1877TIP3   OH2 5594   4.747   6.743   5.425  0.1009 -0.5442  0.6631
 1877TIP3    H1 5595   4.774   6.707   5.509  0.0941 -0.8459  0.5374
 1877TIP3    H2 5596   4.825   6.785   5.391  1.3416 -3.8031 -0.9939
 1878TIP3   OH2 5597   4.565   2.458   2.723 -0.3705  0.6897  0.5414
 1878TIP3    H1 5598   4.596   2.521   2.659  0.4294  0.9884  1.2010
 1878TIP3    H2 5599   4.509   2.398   2.673  0.2638  0.8862 -0.4321
 1879TIP3   OH2 5600   0.970   2.381   0.697 -0.6037  0.0741  0.3570
 1879TIP3    H1 5601   1.066   2.377   0.688 -0.5341  0.5536  0.8384
 1879TIP3    H2 5602   0.947   2.301   0.744 -0.7935 -1.6305 -2.3902
 1880TIP3   OH2 5603   0.495   4.005   2.055 -0.2486 -0.2735  0.1035
 1880TIP3    H1 5604   0.512   3.931   1.996 -1.3838  0.0778 -0.7165
 1880TIP3    H2 5605   0.490   3.966   2.142  2.4413 -0.6713  0.1575
 1881TIP3   OH2 5606   7.157   5.509   0.252 -0.5287 -0.0817  0.1671
 1881TIP3    H1 5607   7.248   5.498   0.225 -0.6018 -0.0120 -0.1071
 1881TIP3    H2 5608   7.117   5.423   0.240 -0.8991  0.2657 -1.2237
 1882TIP3   OH2 5609   6.077   2.228   2.937  0.2755 -0.2222 -0.1445
 1882TIP3    H1 5610   6.052   2.140   2.912 -0.3434 -0.3679  0.9061
 1882TIP3    H2 5611   6.141   2.216   3.007  0.3748  0.1523 -0.1695
 1883TIP3   OH2 5612   6.070   5.522   0.833  0.2381 -0.2522 -0.8239
 1883TIP3    H1 5613   6.093   5.613   0.815 -0.4895  0.1432  0.1310
 1883TIP3    H2 5614   6.032   5.524   0.921  1.1403 -1.6411 -0.3699
 1884TIP3   OH2 5615   0.082   2.556   4.910 -1.0324 -0.2649  0.3469
 1884TIP3    H1 5616   0.161   2.592   4.950  0.0824 -1.8591 -0.3152
 1884TIP3    H2 5617   0.069   2.608   4.831  0.9111 -1.5639 -0.9261
 1885TIP3   OH2 5618   1.590   5.646   1.427  0.7763 -0.0132  0.0701
 1885TIP3    H1 5619   1.597   5.731   1.383  0.8205  0.1772  0.4381
 1885TIP3    H2 5620   1.547   5.666   1.511 -0.1151 -0.5010 -0.2540
 1886TIP3   OH2 5621   1.192   3.061   3.285 -0.4710  0.0907  0.3983
 1886TIP3    H1 5622   1.271   3.007   3.293  0.6635  1.6070 -0.1281
 1886TIP3    H2 5623   1.183   3.103   3.371 -1.5988 -1.2130  0.9477
 1887TIP3   OH2 5624   1.557   0.174   5.078 -0.3360  0.0677  0.1044
 1887TIP3    H1 5625   1.612   0.096   5.076  0.0685  0.3613 -1.1532
 1887TIP3    H2 5626   1.526   0.179   5.169  2.2893  0.2864  1.0694
 1888TIP3   OH2 5627   2.793   0.191   5.586  0.1627 -0.1813 -0.3516
 1888TIP3    H1 5628   2.880   0.225   5.608  0.2980 -0.2674 -0.7517
 1888TIP3    H2 5629   2.742   0.204   5.666  0.3413  0.5310 -0.3420
 1889TIP3   OH2 5630   1.346   2.782   0.488 -0.5344 -0.4664 -0.1128
 1889TIP3    H1 5631   1.414   2.824   0.435  0.5445  1.2270  2.4241
 1889TIP3    H2 5632   1.283   2.852   0.505 -0.7939 -0.9342  0.8849
 1890TIP3   OH2 5633   2.162   4.003   0.677 -0.3740  0.4873 -0.5016
 1890TIP3    H1 5634   2.106   4.023   0.752 -1.6703 -1.7894 -0.7709
 1890TIP3    H2 5635   2.100   3.991   0.604  0.7435  1.1430 -1.5973
 1891TIP3   OH2 5636   3.016   2.750   2.673 -0.3576 -0.0262  0.1364
 1891TIP3    H1 5637   3.078   2.690   2.716 -0.8212 -0.7270 -0.1427
 1891TIP3    H2 5638   3.040   2.837   2.704  0.9543 -0.2532 -0.2023
 1892TIP3   OH2 5639   0.629   0.117   2.370 -0.5994  0.0695  0.3755
 1892TIP3    H1 5640   0.583   0.045   2.327 -0.3360  0.5600 -0.7823
 1892TIP3    H2 5641   0.559   0.167   2.412 -1.0376  0.2526 -0.5287
 1893TIP3   OH2 5642   2.606   3.150   3.816 -0.0314  0.2604 -0.6298
 1893TIP3    H1 5643   2.654   3.200   3.750 -0.7878  1.1295 -0.5521
 1893TIP3    H2 5644   2.519   3.138   3.777 -0.4481  0.6791  0.1571
 1894TIP3   OH2 5645   0.301   5.660   3.697  0.1593  0.4178 -0.9243
 1894TIP3    H1 5646   0.257   5.718   3.759  0.4197 -0.6730  0.3449
 1894TIP3    H2 5647   0.344   5.594   3.752  1.0527 -0.1573 -2.2424
 1895TIP3   OH2 5648   6.093   4.688   0.252  0.0872 -0.5458  0.9268
 1895TIP3    H1 5649   6.090   4.783   0.250  0.6480 -0.5314  0.1509
 1895TIP3    H2 5650   6.012   4.660   0.209  0.5999 -0.3894 -0.1942
 1896TIP3   OH2 5651   6.001   0.619   2.059 -0.2374 -0.6405 -0.1508
 1896TIP3    H1 5652   5.968   0.606   1.971 -1.3986 -0.3241  0.2240
 1896TIP3    H2 5653   5.941   0.682   2.099  0.7958 -0.0707  0.5715
 1897TIP3   OH2 5654   3.994   2.538   4.959  0.1444  0.0300 -0.1463
 1897TIP3    H1 5655   4.052   2.464   4.946  0.8227  0.4651  0.3297
 1897TIP3    H2 5656   4.052   2.614   4.959 -0.3778  0.4435  0.6938
 1898TIP3   OH2 5657   1.547   5.617   4.826 -0.6126 -0.2812  0.5208
 1898TIP3    H1 5658   1.562   5.557   4.753 -1.3887 -0.1988  0.2853
 1898TIP3    H2 5659   1.568   5.704   4.790 -1.3769 -0.1941  0.2641
 1899TIP3   OH2 5660   5.336   1.754   2.713  0.3652 -0.5554 -0.1097
 1899TIP3    H1 5661   5.254   1.789   2.678 -0.0584 -0.9474  0.4551
 1899TIP3    H2 5662   5.342   1.793   2.801  1.4059  0.4160 -0.5959
 1900TIP3   OH2 5663   2.415   1.470   3.314 -0.4754 -0.2153  0.5374
 1900TIP3    H1 5664   2.339   1.425   3.276 -0.8390  0.9797 -0.2152
 1900TIP3    H2 5665   2.385   1.560   3.328  0.4651 -0.0007  1.2806
 1901TIP3   OH2 5666   4.766   2.327   2.846  0.3822  0.3731 -0.1201
 1901TIP3    H1 5667   4.803   2.250   2.803  0.0564  0.5891 -0.8001
 1901TIP3    H2 5668   4.691   2.351   2.791  0.2378  0.9305  0.3156
 1902TIP3   OH2 5669   3.231   0.972   4.335 -0.1322 -0.2069  0.0411
 1902TIP3    H1 5670   3.158   1.013   4.289 -1.0343 -0.9297  0.7779
 1902TIP3    H2 5671   3.268   0.910   4.272 -1.9379 -1.8728  0.5246
 1903TIP3   OH2 5672   6.068   3.648   3.386 -0.2927 -0.1552 -0.1692
 1903TIP3    H1 5673   6.093   3.563   3.351  0.9491  0.4472 -0.8208
 1903TIP3    H2 5674   6.082   3.639   3.481 -2.7725 -1.4914  0.1338
 1904TIP3   OH2 5675   0.275   2.448   2.970  0.0159  0.3699  0.7704
 1904TIP3    H1 5676   0.201   2.475   2.915 -0.2738  1.2282  1.5387
 1904TIP3    H2 5677   0.291   2.357   2.946 -1.4013  0.1131  0.6825
 1905TIP3   OH2 5678   5.086   1.183   2.943 -0.4810  0.3192  0.0099
 1905TIP3    H1 5679   4.997   1.172   2.908 -1.2804 -0.2015  2.0883
 1905TIP3    H2 5680   5.096   1.112   3.006  0.7776  1.3932  1.0743
 1906TIP3   OH2 5681   3.098   1.719   2.945  0.2889 -0.2680  0.1076
 1906TIP3    H1 5682   3.010   1.693   2.917  0.7983 -0.0982 -1.8301
 1906TIP3    H2 5683   3.102   1.697   3.038 -1.7049 -0.5165  0.1722
 1907TIP3   OH2 5684   3.517   0.623   4.527  0.0555  0.0988  0.3815
 1907TIP3    H1 5685   3.442   0.569   4.503  1.8958 -1.8036 -1.4575
 1907TIP3    H2 5686   3.509   0.636   4.622 -1.5715 -1.6225  0.5212
 1908TIP3   OH2 5687   6.568   0.960   1.138  0.3661 -0.4403  0.7383
 1908TIP3    H1 5688   6.586   1.003   1.222  1.8391  0.7139 -0.1288
 1908TIP3    H2 5689   6.634   0.891   1.133  0.3089 -0.4758  0.4984
 1909TIP3   OH2 5690   6.862   5.644   5.889  0.4691 -0.2861 -0.2069
 1909TIP3    H1 5691   6.770   5.633   5.914  0.1796 -0.0874 -1.1405
 1909TIP3    H2 5692   6.859   5.680   5.801  1.4198 -2.3175 -1.1491
 1910TIP3   OH2 5693   1.456   1.207   0.409 -0.2066 -0.8574 -0.4940
 1910TIP3    H1 5694   1.492   1.145   0.346  0.5519 -2.0454  1.0285
 1910TIP3    H2 5695   1.514   1.199   0.486 -0.0554  1.7760 -0.2367
 1911TIP3   OH2 5696   2.618   5.182   0.913  0.5221 -0.9520  0.5772
 1911TIP3    H1 5697   2.659   5.098   0.933  0.3161 -0.4228  3.9045
 1911TIP3    H2 5698   2.541   5.185   0.971 -0.7007  0.6596 -1.0034
 1912TIP3   OH2 5699   5.188   6.795   3.677 -0.2911  0.0604 -0.1144
 1912TIP3    H1 5700   5.272   6.748   3.681  0.6089  1.6617  2.4462
 1912TIP3    H2 5701   5.133   6.749   3.740 -0.3240  0.7586  0.3718
 1913TIP3   OH2 5702   1.735   4.086   4.410  0.0563 -0.5691  0.4516
 1913TIP3    H1 5703   1.690   4.170   4.396 -0.0179 -0.2486  2.3222
 1913TIP3    H2 5704   1.664   4.022   4.416 -0.0916 -0.3058  1.8198
 1914TIP3   OH2 5705   5.290   5.350   4.679  0.1036  0.5361 -0.2775
 1914TIP3    H1 5706   5.356   5.356   4.610  0.9279  0.3587  0.4833
 1914TIP3    H2 5707   5.245   5.435   4.676  1.5186  1.3511  0.3158
 1915TIP3   OH2 5708   4.391   1.610   4.351  0.6689 -0.0043  0.2210
 1915TIP3    H1 5709   4.349   1.608   4.437 -0.9196 -0.5826 -0.5304
 1915TIP3    H2 5710   4.452   1.684   4.356 -1.5342  1.8747  0.8951
 1916TIP3   OH2 5711   0.141   0.368   1.275  0.1353  0.2630 -0.4003
 1916TIP3    H1 5712   0.141   0.463   1.264 -0.1301  0.5775  1.8814
 1916TIP3    H2 5713   0.070   0.338   1.218 -0.0901  1.4890 -0.7963
 1917TIP3   OH2 5714   2.089   2.849   3.004 -0.2407  0.6538 -0.3018
 1917TIP3    H1 5715   1.994   2.838   2.999 -0.2977  0.9611  0.1121
 1917TIP3    H2 5716   2.107   2.930   2.956 -0.0028 -0.2504 -1.8224
 1918TIP3   OH2 5717   0.296   0.710   5.127  0.0982  0.7474  0.3260
 1918TIP3    H1 5718   0.338   0.630   5.157 -1.5541 -0.4253 -0.3517
 1918TIP3    H2 5719   0.302   0.770   5.201  3.2239  0.8220  0.1675
 1919TIP3   OH2 5720   6.802   3.930   3.795  0.1035  0.2785  0.0071
 1919TIP3    H1 5721   6.794   3.901   3.885 -0.7525  1.3126  0.2851
 1919TIP3    H2 5722   6.891   3.904   3.769 -0.0851 -1.1737  0.7039
 1920TIP3   OH2 5723   0.375   2.796   2.410  0.0127  0.4807 -0.1264
 1920TIP3    H1 5724   0.464   2.788   2.443  0.4740  1.2173 -1.1867
 1920TIP3    H2 5725   0.363   2.889   2.392 -0.1126  0.0800 -2.3340
 1921TIP3   OH2 5726   4.225   6.420   5.273  0.0024 -0.1104 -0.8694
 1921TIP3    H1 5727   4.190   6.350   5.328  1.5593 -1.2827 -1.3251
 1921TIP3    H2 5728   4.270   6.376   5.201 -2.0413  1.3870 -3.2312
 1922TIP3   OH2 5729   5.782   4.242   0.872 -0.2184  0.2050 -0.1411
 1922TIP3    H1 5730   5.832   4.175   0.825  0.8083 -0.2754  1.5492
 1922TIP3    H2 5731   5.727   4.192   0.933 -0.1957  0.8511  0.4258
 1923TIP3   OH2 5732   1.276   3.685   0.851 -0.0557  0.5269 -0.5421
 1923TIP3    H1 5733   1.340   3.687   0.922 -0.8311 -1.6626  0.3300
 1923TIP3    H2 5734   1.322   3.722   0.776  0.6102  3.4485  1.1667
 1924TIP3   OH2 5735   3.591   3.465   3.793  0.1847  0.1025 -0.3448
 1924TIP3    H1 5736   3.557   3.410   3.863  1.0007 -0.2930 -0.2507
 1924TIP3    H2 5737   3.670   3.503   3.829  2.0655 -2.0967 -1.8523
 1925TIP3   OH2 5738   1.522   2.617   5.481  0.1393  1.0384  0.2050
 1925TIP3    H1 5739   1.427   2.604   5.478 -0.1628  2.9005  0.5316
 1925TIP3    H2 5740   1.547   2.623   5.389  0.2299 -1.0306  0.0472
 1926TIP3   OH2 5741   1.630   1.040   5.293 -0.2634 -0.4017 -0.0415
 1926TIP3    H1 5742   1.607   0.950   5.315  1.0842 -0.8585 -0.4033
 1926TIP3    H2 5743   1.724   1.037   5.274 -0.5710  0.6811 -2.0563
 1927TIP3   OH2 5744   6.572   1.739   2.897  0.4674  0.4439 -0.2354
 1927TIP3    H1 5745   6.532   1.821   2.871 -0.9894 -0.5048 -1.1388
 1927TIP3    H2 5746   6.511   1.672   2.867  1.5877 -0.9711  0.5150
 1928TIP3   OH2 5747   3.732   1.747   4.370 -0.2021 -0.1096  0.0022
 1928TIP3    H1 5748   3.711   1.744   4.277 -2.5307  1.4634  0.4081
 1928TIP3    H2 5749   3.706   1.835   4.398  1.1940 -0.2660  1.9990
 1929TIP3   OH2 5750   5.647   4.687   5.435  0.9203 -0.0879 -0.5893
 1929TIP3    H1 5751   5.613   4.776   5.423  2.1261  0.3691 -0.7587
 1929TIP3    H2 5752   5.638   4.671   5.529  0.0858 -0.0512 -0.6565
 1930TIP3   OH2 5753   5.057   2.188   1.891  0.3405 -0.5449  0.4777
 1930TIP3    H1 5754   5.100   2.234   1.819  0.7546 -3.8442 -1.5566
 1930TIP3    H2 5755   4.965   2.183   1.864  0.5666 -2.1358 -0.1271
 1931TIP3   OH2 5756   3.730   4.479   2.726  0.1485 -0.0089  0.2081
 1931TIP3    H1 5757   3.724   4.390   2.690  0.4039  0.6846 -1.6421
 1931TIP3    H2 5758   3.664   4.529   2.678  0.4340  0.9516  0.7828
 1932TIP3   OH2 5759   5.740   0.520   4.974 -0.0630 -0.4344  0.4592
 1932TIP3    H1 5760   5.694   0.453   4.923  0.5917 -1.4715  1.1749
 1932TIP3    H2 5761   5.816   0.474   5.009  2.1704  1.4456 -1.5344
 1933TIP3   OH2 5762   5.064   3.022   3.570  0.8212 -0.3210  0.5807
 1933TIP3    H1 5763   5.048   3.066   3.487  0.2600 -0.0833  0.8097
 1933TIP3    H2 5764   5.156   2.997   3.567  1.3598  1.5039  0.7469
 1934TIP3   OH2 5765   6.817   0.971   3.952 -0.1302  0.0026 -0.0228
 1934TIP3    H1 5766   6.789   0.901   4.012  0.3648 -0.0528  0.1497
 1934TIP3    H2 5767   6.781   0.945   3.867  1.3084 -1.2755 -0.2912
 1935TIP3   OH2 5768   1.226   4.094   2.567 -0.2351  0.3983  0.2722
 1935TIP3    H1 5769   1.237   4.021   2.628  0.6697  0.3497  0.0644
 1935TIP3    H2 5770   1.274   4.166   2.606 -3.1099  1.6874  1.7042
 1936TIP3   OH2 5771   3.643   2.014   2.299 -0.9784 -0.0632  0.0602
 1936TIP3    H1 5772   3.548   2.019   2.284 -0.9754 -2.0303 -0.9485
 1936TIP3    H2 5773   3.679   2.084   2.244 -1.7591 -0.2702 -0.7502
 1937TIP3   OH2 5774   3.743   1.779   0.506  0.0563  0.0643  0.0529
 1937TIP3    H1 5775   3.765   1.860   0.462 -1.8779  0.2335 -0.6842
 1937TIP3    H2 5776   3.810   1.717   0.477 -0.3979  0.5141 -2.1162
 1938TIP3   OH2 5777   2.348   5.695   3.652  0.1287  0.7856 -0.0530
 1938TIP3    H1 5778   2.422   5.690   3.592  0.3828  0.0164  0.3001
 1938TIP3    H2 5779   2.333   5.604   3.678 -1.1800  0.8796 -0.4044
 1939TIP3   OH2 5780   0.756   0.544   5.106  0.0545  0.0924 -0.0930
 1939TIP3    H1 5781   0.851   0.554   5.101  0.2349 -1.1430  0.4895
 1939TIP3    H2 5782   0.725   0.557   5.016  0.9723 -1.2559 -0.6252
 1940TIP3   OH2 5783   2.044   2.059   3.395 -0.0142 -0.1595 -0.1275
 1940TIP3    H1 5784   2.106   2.059   3.322  1.6216  0.0726  1.1869
 1940TIP3    H2 5785   2.033   1.967   3.417 -0.1052 -0.2009 -0.3484
 1941TIP3   OH2 5786   4.985   4.091   1.576 -0.0040 -0.6397 -0.0602
 1941TIP3    H1 5787   4.986   4.045   1.492  1.3743  0.9909 -0.9969
 1941TIP3    H2 5788   5.068   4.066   1.618  1.0407  1.3258 -0.8334
 1942TIP3   OH2 5789   6.369   3.323   5.090 -0.2665 -0.4366  0.3265
 1942TIP3    H1 5790   6.352   3.257   5.157  0.9572  0.1520  1.2426
 1942TIP3    H2 5791   6.464   3.322   5.079 -0.4887 -1.0887 -2.0142
 1943TIP3   OH2 5792   2.763   0.451   0.829  0.6501  0.1856 -0.2302
 1943TIP3    H1 5793   2.785   0.401   0.908  1.1743  1.3277  0.3763
 1943TIP3    H2 5794   2.774   0.389   0.757  0.8501 -0.6821  0.5303
 1944TIP3   OH2 5795   4.896   0.456   3.084 -0.3966 -0.2797  0.2892
 1944TIP3    H1 5796   4.977   0.506   3.088  0.2297 -1.2293 -0.1579
 1944TIP3    H2 5797   4.847   0.482   3.162 -0.0108  0.8713  0.1617
 1945TIP3   OH2 5798   6.710   4.379   3.470 -0.0784  0.2087 -0.4476
 1945TIP3    H1 5799   6.776   4.312   3.451  1.7746  1.1146  2.1363
 1945TIP3    H2 5800   6.757   4.462   3.463 -1.5484  1.0582 -0.6754
 1946TIP3   OH2 5801   0.884   6.330   2.805  0.0904 -0.3621  0.2484
 1946TIP3    H1 5802   0.895   6.425   2.793 -0.6833 -0.2105  0.6860
 1946TIP3    H2 5803   0.919   6.292   2.724 -1.5897  0.4155 -0.8984
 1947TIP3   OH2 5804   5.449   2.376   1.855 -0.1975  0.4644  0.1892
 1947TIP3    H1 5805   5.529   2.393   1.807  0.0973 -0.6328  0.2661
 1947TIP3    H2 5806   5.443   2.448   1.918 -0.5197  1.8464 -1.3460
 1948TIP3   OH2 5807   3.384   1.128   1.787  0.0296 -0.1573 -0.0998
 1948TIP3    H1 5808   3.455   1.066   1.806  1.2624  1.0885 -0.4396
 1948TIP3    H2 5809   3.352   1.156   1.872  0.1958 -0.4646  0.0641
 1949TIP3   OH2 5810   2.736   2.739   0.965 -0.0011 -0.3087  0.5115
 1949TIP3    H1 5811   2.826   2.739   0.999  0.0845 -2.6764  0.3910
 1949TIP3    H2 5812   2.690   2.675   1.019 -0.9828 -0.9249 -1.0027
 1950TIP3   OH2 5813   3.918   2.220   4.183  0.3468  0.5902 -0.0241
 1950TIP3    H1 5814   3.912   2.133   4.222  0.4791  0.4543 -0.3031
 1950TIP3    H2 5815   3.995   2.215   4.126 -1.0322  0.1389 -1.9480
 1951TIP3   OH2 5816   1.958   6.378   1.317  0.3108  0.2240  0.0751
 1951TIP3    H1 5817   1.972   6.467   1.349 -1.5717  1.1110 -1.3600
 1951TIP3    H2 5818   2.000   6.322   1.382  3.0243  2.1821  0.1728
 1952TIP3   OH2 5819   2.989   5.458   1.815 -0.3325 -0.8167  0.1129
 1952TIP3    H1 5820   2.992   5.443   1.721  0.3808  1.0552 -0.2023
 1952TIP3    H2 5821   3.044   5.389   1.852 -0.3934 -1.3989 -0.8520
 1953TIP3   OH2 5822   6.179   1.318   2.360 -0.0051  0.2616 -0.2543
 1953TIP3    H1 5823   6.250   1.305   2.423 -2.1136  1.7013  2.6395
 1953TIP3    H2 5824   6.216   1.377   2.294  1.8099  0.0288  0.4833
 1954TIP3   OH2 5825   6.044   2.698   4.085 -0.5089 -0.3612  0.5479
 1954TIP3    H1 5826   6.072   2.787   4.063 -1.3168 -0.5518 -1.4400
 1954TIP3    H2 5827   6.107   2.669   4.150 -0.4798  1.8130  1.5930
 1955TIP3   OH2 5828   3.384   6.350   1.400  0.2310  0.5381 -0.4678
 1955TIP3    H1 5829   3.315   6.289   1.425 -0.3888  1.4850  0.2418
 1955TIP3    H2 5830   3.433   6.305   1.332 -1.0691 -0.1863 -0.9616
 1956TIP3   OH2 5831   6.499   0.083   1.985 -0.4834  0.1635 -0.1142
 1956TIP3    H1 5832   6.565   0.145   1.954 -0.3709  1.6318  2.6730
 1956TIP3    H2 5833   6.540  -0.003   1.976  0.6008  0.7669 -1.2140
 1957TIP3   OH2 5834   1.761   2.912   4.452  0.2110  0.0839  0.1372
 1957TIP3    H1 5835   1.715   2.865   4.383  0.2587  1.0087 -0.5456
 1957TIP3    H2 5836   1.691   2.948   4.508  0.1554 -0.0535  0.1562
 1958TIP3   OH2 5837   2.645   3.898   1.070 -0.3705 -0.3461  0.0776
 1958TIP3    H1 5838   2.639   3.992   1.050  0.0188  0.1214  1.9541
 1958TIP3    H2 5839   2.698   3.862   0.999  0.5308  1.0947 -0.0184
 1959TIP3   OH2 5840   3.759   2.862   5.457  0.0047 -0.1184  0.0322
 1959TIP3    H1 5841   3.810   2.788   5.425  0.0837 -0.1969  0.3348
 1959TIP3    H2 5842   3.705   2.826   5.526 -0.4820 -0.0384 -0.3036
 1960TIP3   OH2 5843   4.456   1.655   2.164  0.5597 -0.0350 -0.3672
 1960TIP3    H1 5844   4.382   1.713   2.147 -1.4297 -1.8871  1.3161
 1960TIP3    H2 5845   4.474   1.614   2.080 -0.2108  0.5938 -0.8524
 1961TIP3   OH2 5846   2.812   0.339   3.270  0.1006  0.1846 -0.2123
 1961TIP3    H1 5847   2.888   0.288   3.241  0.3209  0.7074 -0.5624
 1961TIP3    H2 5848   2.790   0.301   3.355  0.3573 -0.3943 -0.3973
 1962TIP3   OH2 5849   6.097   3.481   2.094 -0.8624 -0.1249 -0.0471
 1962TIP3    H1 5850   6.147   3.400   2.082 -0.6752  0.2102 -1.7690
 1962TIP3    H2 5851   6.157   3.550   2.066 -0.9525  0.6640  1.5910
 1963TIP3   OH2 5852   1.742   0.856   2.250  0.8930 -0.0018  0.2383
 1963TIP3    H1 5853   1.747   0.773   2.202  0.2037 -0.5860  1.1389
 1963TIP3    H2 5854   1.810   0.848   2.318  0.5286 -0.0321  0.6072
 1964TIP3   OH2 5855   4.074   6.544   3.166 -0.1380 -0.9104 -0.4593
 1964TIP3    H1 5856   4.064   6.454   3.136 -1.7625 -0.7306 -0.5644
 1964TIP3    H2 5857   4.089   6.595   3.086  0.9121 -1.0884 -0.3868
 1965TIP3   OH2 5858   3.012   3.051   2.698 -0.0973 -0.4591  0.2984
 1965TIP3    H1 5859   2.923   3.083   2.680  0.2835  0.2972 -0.3167
 1965TIP3    H2 5860   3.042   3.105   2.771  0.2264  0.0072 -0.1704
 1966TIP3   OH2 5861   1.287   1.685   4.055  0.1260 -0.0091  0.1952
 1966TIP3    H1 5862   1.330   1.755   4.103 -2.1499  1.3146  0.4143
 1966TIP3    H2 5863   1.203   1.672   4.099  0.5760 -3.1743  0.3971
 1967TIP3   OH2 5864   2.623   4.956   1.304 -0.0583  0.3653 -0.8121
 1967TIP3    H1 5865   2.589   4.913   1.225  1.5511 -0.4827 -1.0934
 1967TIP3    H2 5866   2.648   4.884   1.362 -0.9989  0.9807  0.4044
 1968TIP3   OH2 5867   0.679   3.722   4.647 -0.0955 -0.2092 -0.4396
 1968TIP3    H1 5868   0.712   3.701   4.559 -0.5635 -1.1608 -0.3929
 1968TIP3    H2 5869   0.757   3.721   4.703  0.4025  1.5898 -1.0293
 1969TIP3   OH2 5870   2.448   1.323   0.910  0.0461 -0.1602 -0.2861
 1969TIP3    H1 5871   2.417   1.274   0.834  1.1445 -0.8644 -0.3008
 1969TIP3    H2 5872   2.502   1.261   0.958  1.5788  1.0438 -0.3789
 1970TIP3   OH2 5873   6.905   5.914   1.622 -0.2353 -0.1280 -0.3685
 1970TIP3    H1 5874   6.878   5.967   1.548 -1.7617 -0.1101  0.1461
 1970TIP3    H2 5875   6.851   5.945   1.695  1.3762  0.0125  0.8218
 1971TIP3   OH2 5876   0.748   4.333   0.912  0.2934 -0.3494  0.3843
 1971TIP3    H1 5877   0.734   4.321   1.006  0.1511 -1.8744  0.2009
 1971TIP3    H2 5878   0.663   4.314   0.872  0.6272 -0.8310 -0.1200
 1972TIP3   OH2 5879   1.134   2.738   4.584  0.7439  0.1602  0.2521
 1972TIP3    H1 5880   1.149   2.761   4.493 -0.4785  2.5037  0.5540
 1972TIP3    H2 5881   1.043   2.710   4.587  0.6422  0.5230  0.7988
 1973TIP3   OH2 5882   0.384   1.121   2.550 -0.4039 -0.7145  0.4842
 1973TIP3    H1 5883   0.439   1.176   2.494 -0.6386 -1.4373 -0.4795
 1973TIP3    H2 5884   0.445   1.061   2.592 -0.2440 -0.2535  0.9320
 1974TIP3   OH2 5885   3.141   0.158   4.124  0.0004  0.5960 -0.3472
 1974TIP3    H1 5886   3.139   0.159   4.028  1.9819 -1.3505 -0.4711
 1974TIP3    H2 5887   3.170   0.246   4.148 -1.6812  1.5016 -1.4316
 1975TIP3   OH2 5888   6.368   4.140   2.602  0.1040  0.3323 -0.2363
 1975TIP3    H1 5889   6.377   4.095   2.518  2.5910  0.4632 -0.1092
 1975TIP3    H2 5890   6.403   4.078   2.666  0.2944  1.0775  0.3961
 1976TIP3   OH2 5891   1.804   6.497   2.583 -0.7496 -0.2916  0.1847
 1976TIP3    H1 5892   1.773   6.547   2.507 -1.9918 -1.1118  0.1338
 1976TIP3    H2 5893   1.810   6.561   2.653 -1.2870  0.1310 -0.1513
 1977TIP3   OH2 5894   7.044   1.765   3.218  0.0033  0.3214  0.1920
 1977TIP3    H1 5895   7.068   1.848   3.259  0.9803 -0.5481  1.4734
 1977TIP3    H2 5896   7.006   1.790   3.134 -0.1699  2.0782  0.7463
 1978TIP3   OH2 5897   0.509   3.789   1.827  0.0696  0.4441 -0.3582
 1978TIP3    H1 5898   0.452   3.720   1.862  1.7183 -1.4050 -1.1232
 1978TIP3    H2 5899   0.489   3.792   1.734  0.3081  0.7170 -0.4027
 1979TIP3   OH2 5900   0.825   2.661   3.231  0.2474 -0.4690 -0.1063
 1979TIP3    H1 5901   0.857   2.588   3.284  0.5645 -0.5053 -0.3423
 1979TIP3    H2 5902   0.900   2.721   3.226 -1.0278  1.6456  3.1133
 1980TIP3   OH2 5903   0.043   0.227   3.427  0.1299  0.0176  0.1865
 1980TIP3    H1 5904   0.110   0.162   3.449  0.1180  0.3295  1.1879
 1980TIP3    H2 5905  -0.017   0.181   3.368  1.3064 -0.2132 -0.8573
 1981TIP3   OH2 5906   4.186   5.578   2.949  0.0196  0.0009 -0.4971
 1981TIP3    H1 5907   4.200   5.491   2.913 -1.2770  0.1914 -1.4985
 1981TIP3    H2 5908   4.187   5.636   2.873  0.4004  0.8171  0.1135
 1982TIP3   OH2 5909   2.923   2.139   0.033 -0.0891  0.2718 -0.5334
 1982TIP3    H1 5910   2.941   2.203  -0.036  0.3955  2.4026  1.4108
 1982TIP3    H2 5911   3.010   2.115   0.066 -0.3049  1.6044  1.2049
 1983TIP3   OH2 5912   3.669   6.743   4.806  0.1977 -0.1967 -0.0160
 1983TIP3    H1 5913   3.631   6.657   4.828  1.8422 -1.2274 -0.9527
 1983TIP3    H2 5914   3.758   6.739   4.842  0.1798  1.2733  0.2242
 1984TIP3   OH2 5915   4.382   2.534   5.704  0.2013 -0.0771 -0.1210
 1984TIP3    H1 5916   4.392   2.440   5.721  0.8651 -0.1586 -0.9062
 1984TIP3    H2 5917   4.424   2.576   5.778  0.1756 -0.4014  0.0817
 1985TIP3   OH2 5918   1.411   4.061   2.873  0.5199  0.1956 -0.1389
 1985TIP3    H1 5919   1.389   4.071   2.965  0.8179 -0.1504 -0.0297
 1985TIP3    H2 5920   1.336   4.013   2.836  1.2386 -1.3522  0.3178
 1986TIP3   OH2 5921   5.708   1.995   1.698 -0.8575 -0.3879  0.4857
 1986TIP3    H1 5922   5.617   1.985   1.725 -1.2923 -0.2860 -0.8853
 1986TIP3    H2 5923   5.704   2.023   1.606  0.5614 -1.7366 -0.0434
 1987TIP3   OH2 5924   1.861   5.214   0.104 -0.4712  0.0222 -1.2225
 1987TIP3    H1 5925   1.813   5.297   0.098 -1.1006 -0.3850 -1.8857
 1987TIP3    H2 5926   1.842   5.182   0.192 -0.2703  0.5486 -0.9793
 1988TIP3   OH2 5927   6.868   3.430   0.500  0.9172  0.2504 -0.9327
 1988TIP3    H1 5928   6.941   3.464   0.552  0.3409  0.6428 -0.3760
 1988TIP3    H2 5929   6.839   3.353   0.547  0.5694  0.4512 -0.8168
 1989TIP3   OH2 5930   0.095   0.016   2.622 -0.7020 -0.2940 -0.3378
 1989TIP3    H1 5931   0.110   0.104   2.587 -0.0513 -0.8946 -1.6130
 1989TIP3    H2 5932   0.066   0.032   2.712  0.2370  1.1961 -0.2520
 1990TIP3   OH2 5933   2.795   5.299   0.493 -0.2598  0.5988  0.2685
 1990TIP3    H1 5934   2.807   5.242   0.569 -0.6804 -0.5968 -0.5188
 1990TIP3    H2 5935   2.705   5.283   0.465 -0.2257  1.2888 -0.2677
 1991TIP3   OH2 5936   5.675   4.097   2.646  0.3260  0.3064 -0.0050
 1991TIP3    H1 5937   5.761   4.058   2.658 -0.1787 -0.5423  0.9021
 1991TIP3    H2 5938   5.675   4.126   2.554  1.3075 -0.3294 -0.2198
 1992TIP3   OH2 5939   1.361   3.235   1.929 -0.4568  0.1006 -0.0738
 1992TIP3    H1 5940   1.374   3.204   2.019 -0.3019 -0.4430 -0.2784
 1992TIP3    H2 5941   1.430   3.191   1.879 -0.4867  0.4697 -0.4459
 1993TIP3   OH2 5942   3.292   4.425   1.530  0.9444 -0.1812  0.2093
 1993TIP3    H1 5943   3.329   4.388   1.610 -0.9691 -1.0405  0.7653
 1993TIP3    H2 5944   3.308   4.357   1.464  0.6820 -0.4107  0.3750
 1994TIP3   OH2 5945   1.464   5.986   2.242 -0.4656 -0.1972 -1.2600
 1994TIP3    H1 5946   1.465   6.050   2.313 -0.1898 -1.7060  0.1774
 1994TIP3    H2 5947   1.482   5.902   2.286 -1.7922 -1.4061 -2.8986
 1995TIP3   OH2 5948   7.071   4.429   5.052  0.8099 -0.1514  0.3101
 1995TIP3    H1 5949   7.060   4.523   5.067 -2.4656 -0.3335 -0.3798
 1995TIP3    H2 5950   7.089   4.421   4.958  0.6583 -0.2584  0.2909
 1996TIP3   OH2 5951   1.251   4.843   0.603  0.0615  0.3749  0.1285
 1996TIP3    H1 5952   1.338   4.867   0.571  0.4728 -0.8825  0.2804
 1996TIP3    H2 5953   1.258   4.751   0.625 -1.5308  0.0451 -0.6140
 1997TIP3   OH2 5954   4.252   0.248   1.806  0.1078 -0.2825 -0.5183
 1997TIP3    H1 5955   4.157   0.254   1.798 -0.2885 -2.1171  1.7262
 1997TIP3    H2 5956   4.269   0.155   1.823  2.0278  0.3354  1.4183
 1998TIP3   OH2 5957   3.744   6.758   4.508 -0.4211 -0.3710 -0.0306
 1998TIP3    H1 5958   3.823   6.812   4.504 -1.2244  0.7967 -0.5970
 1998TIP3    H2 5959   3.711   6.772   4.597 -0.2147 -0.5612  0.0799
 1999TIP3   OH2 5960   1.437   2.126   5.013  0.0800  0.6910 -0.0279
 1999TIP3    H1 5961   1.384   2.142   4.935  0.9514 -0.6919 -0.9454
 1999TIP3    H2 5962   1.382   2.155   5.086 -1.6691 -0.0760 -0.9931
 2000TIP3   OH2 5963   0.753   4.306   2.957 -0.4180 -0.2535  0.1430
 2000TIP3    H1 5964   0.658   4.311   2.956 -0.4555 -0.9338 -0.2071
 2000TIP3    H2 5965   0.780   4.360   3.031 -0.9450  2.1442 -1.3228
 2001TIP3   OH2 5966   2.159   1.191   5.745  0.4039  0.0075 -0.0788
 2001TIP3    H1 5967   2.233   1.247   5.766 -0.0230  0.4794  0.2151
 2001TIP3    H2 5968   2.082   1.243   5.768 -0.0422 -0.2077 -1.0276
 2002TIP3   OH2 5969   4.332   0.003   4.266  0.0963 -0.2052  0.8447
 2002TIP3    H1 5970   4.361   0.077   4.212 -1.7858 -0.1354 -0.1265
 2002TIP3    H2 5971   4.240   0.022   4.286  0.0762 -1.4234  2.0765
 2003TIP3   OH2 5972   7.054   4.796   4.333  0.4754 -0.6220  0.1620
 2003TIP3    H1 5973   7.030   4.743   4.409 -0.4618 -0.9887 -0.3772
 2003TIP3    H2 5974   7.032   4.741   4.258  2.3927 -0.7242 -0.3999
 2004TIP3   OH2 5975   4.889   2.753   1.546  0.5512  0.3364 -0.1234
 2004TIP3    H1 5976   4.865   2.749   1.638  0.5974  2.2159  0.0136
 2004TIP3    H2 5977   4.984   2.764   1.547  0.6131 -0.1456 -0.4198
 2005TIP3   OH2 5978   5.203   4.488   2.578 -0.5024  0.2025  0.0383
 2005TIP3    H1 5979   5.142   4.525   2.642  0.6588  0.4923  1.0127
 2005TIP3    H2 5980   5.262   4.560   2.556 -1.9815  0.6867 -2.8550
 2006TIP3   OH2 5981   0.544   6.648   5.325 -0.3806  0.1799  0.1462
 2006TIP3    H1 5982   0.588   6.566   5.346  1.9680  1.2097 -0.3942
 2006TIP3    H2 5983   0.579   6.673   5.240 -1.8388  1.2396 -0.1810
 2007TIP3   OH2 5984   5.790   6.619   2.947 -0.5070 -0.0245  0.1200
 2007TIP3    H1 5985   5.724   6.574   2.894 -0.2411 -0.4922  0.1893
 2007TIP3    H2 5986   5.805   6.561   3.022 -2.1256  1.3778  1.6327
 2008TIP3   OH2 5987   5.671   6.739   5.175 -0.0033 -0.4896 -0.1106
 2008TIP3    H1 5988   5.735   6.738   5.246 -0.5218  0.3609  0.3781
 2008TIP3    H2 5989   5.667   6.831   5.148 -1.1264 -0.5021 -0.0271
 2009TIP3   OH2 5990   6.158   2.568   2.591  0.5470 -0.3603 -0.3377
 2009TIP3    H1 5991   6.161   2.660   2.619  0.1790  0.3173 -2.3238
 2009TIP3    H2 5992   6.245   2.534   2.610  1.4124  1.0568 -1.5491
 2010TIP3   OH2 5993   4.171   3.079   0.062 -0.0681 -0.1220 -0.1252
 2010TIP3    H1 5994   4.131   3.153   0.017 -3.8797 -0.3629  2.4357
 2010TIP3    H2 5995   4.159   3.005   0.003 -2.3598  0.0999 -0.0137
 2011TIP3   OH2 5996   1.787   6.795   2.881 -0.4233 -0.1645 -0.3889
 2011TIP3    H1 5997   1.751   6.795   2.793 -0.6787 -4.0467 -0.4861
 2011TIP3    H2 5998   1.862   6.735   2.877 -1.8764 -2.4382  2.4172
 2012TIP3   OH2 5999   3.877   0.030   3.136  0.2355 -0.1072  0.3153
 2012TIP3    H1 6000   3.815  -0.008   3.075 -1.3195  0.6933  1.3397
 2012TIP3    H2 6001   3.823   0.078   3.198  1.9603  2.5231 -0.0401
 2013TIP3   OH2 6002   0.767   5.183   1.655  0.1214 -0.1522  0.6371
 2013TIP3    H1 6003   0.811   5.102   1.628  0.9513  0.4319  0.1754
 2013TIP3    H2 6004   0.773   5.240   1.579  2.8453  1.6681  2.0496
 2014TIP3   OH2 6005   2.692   2.511   3.765  0.1140  0.3056 -0.1722
 2014TIP3    H1 6006   2.666   2.592   3.721 -1.4491 -0.4091 -0.6088
 2014TIP3    H2 6007   2.648   2.514   3.849 -1.4890 -0.9322 -0.9294
 2015TIP3   OH2 6008   0.563   1.737   5.384 -0.0028 -0.1497 -0.0935
 2015TIP3    H1 6009   0.581   1.644   5.370  0.9565 -0.2110  1.3793
 2015TIP3    H2 6010   0.468   1.741   5.396 -0.4041 -0.5639 -2.5430
 2016TIP3   OH2 6011   6.709   2.966   3.657  0.1553  0.0894 -0.1532
 2016TIP3    H1 6012   6.772   2.924   3.598 -0.3356  1.4537 -1.7149
 2016TIP3    H2 6013   6.745   3.054   3.671 -0.9748  0.6095 -0.4201
 2017TIP3   OH2 6014   7.127   5.458   2.920  0.1767  0.3766  0.0740
 2017TIP3    H1 6015   7.189   5.512   2.969 -0.9575  0.9435  0.9133
 2017TIP3    H2 6016   7.132   5.491   2.830  2.9710 -1.2868 -0.5046
 2018TIP3   OH2 6017   5.625   2.610   3.392  0.1978 -0.3606 -0.0179
 2018TIP3    H1 6018   5.593   2.522   3.373 -1.1322  0.0377  0.2817
 2018TIP3    H2 6019   5.720   2.604   3.381  0.1874 -1.9711  0.5546
 2019TIP3   OH2 6020   4.712   2.017   3.838  0.5997 -0.1617 -0.0206
 2019TIP3    H1 6021   4.672   2.040   3.754 -2.2908 -1.3368  0.9287
 2019TIP3    H2 6022   4.754   1.932   3.822  0.3911 -0.1991 -0.3704
 2020TIP3   OH2 6023   1.256   5.594   1.670 -0.3016  0.0194 -0.2586
 2020TIP3    H1 6024   1.211   5.510   1.665  1.0233 -0.6865 -1.1212
 2020TIP3    H2 6025   1.193   5.658   1.637 -1.1821 -0.6948  0.0079
 2021TIP3   OH2 6026   0.034   0.599   3.872 -0.1012 -0.2157 -0.2205
 2021TIP3    H1 6027   0.009   0.612   3.781 -0.4944 -1.1065 -0.2542
 2021TIP3    H2 6028   0.083   0.678   3.896 -0.6123  0.3398 -0.9804
 2022TIP3   OH2 6029   0.936   1.435   4.209 -0.1993  0.3222  0.3825
 2022TIP3    H1 6030   0.850   1.437   4.166  0.3264  1.7718 -0.6677
 2022TIP3    H2 6031   0.942   1.519   4.254  0.6105  0.1784  0.5545
 2023TIP3   OH2 6032   2.983   2.753   4.238  0.1713 -0.3789  0.4287
 2023TIP3    H1 6033   2.963   2.665   4.270 -0.5987 -1.5710 -2.8566
 2023TIP3    H2 6034   3.011   2.801   4.315 -1.3925 -2.8894  2.7650
 2024TIP3   OH2 6035   0.266   0.876   3.678  0.2252 -0.2059 -0.2084
 2024TIP3    H1 6036   0.252   0.950   3.737  0.6536 -0.2860 -0.0057
 2024TIP3    H2 6037   0.352   0.892   3.639  0.4964 -0.7974  0.1309
 2025TIP3   OH2 6038   5.793   2.825   1.012  0.2086  0.1389 -0.2076
 2025TIP3    H1 6039   5.807   2.732   1.029  0.0518  0.3175  0.9645
 2025TIP3    H2 6040   5.835   2.840   0.927 -0.3298 -1.1339 -0.7295
 2026TIP3   OH2 6041   5.329   2.279   4.515  0.0470 -0.1106 -0.5017
 2026TIP3    H1 6042   5.246   2.327   4.517 -0.1164 -0.3328 -1.5751
 2026TIP3    H2 6043   5.323   2.225   4.436  0.2203 -1.9028  0.6605
 2027TIP3   OH2 6044   4.062   3.152   1.574 -0.2209  0.7169  0.4944
 2027TIP3    H1 6045   4.046   3.058   1.565 -1.0669  0.8462  0.5109
 2027TIP3    H2 6046   3.974   3.189   1.588  0.0025  1.6094 -0.3803
 2028TIP3   OH2 6047   6.263   4.329   2.112  0.3775  0.1202 -0.0791
 2028TIP3    H1 6048   6.181   4.298   2.076  1.0955 -0.6203 -1.1124
 2028TIP3    H2 6049   6.244   4.419   2.141 -0.2479  0.7582 -2.2886
 2029TIP3   OH2 6050   4.670   1.702   5.077  0.1194 -0.0828  0.2455
 2029TIP3    H1 6051   4.727   1.655   5.015 -0.2021  0.0293 -0.1390
 2029TIP3    H2 6052   4.671   1.648   5.156  0.3460 -0.3527  0.0616
 2030TIP3   OH2 6053   4.418   5.639   1.918 -0.1016  0.5044 -0.1577
 2030TIP3    H1 6054   4.426   5.599   1.832  0.7017 -0.3004  0.2766
 2030TIP3    H2 6055   4.410   5.733   1.900  4.3034  0.9336 -1.0265
 2031TIP3   OH2 6056   5.060   6.545   0.356 -0.2559 -0.2168 -0.1451
 2031TIP3    H1 6057   5.089   6.470   0.408  0.2699 -0.3988 -0.6990
 2031TIP3    H2 6058   5.097   6.531   0.269 -0.1793  0.6694 -0.2659
 2032TIP3   OH2 6059   1.120   5.443   0.829 -0.0412 -0.0234  0.0211
 2032TIP3    H1 6060   1.154   5.428   0.741 -0.7352  1.1033 -0.4674
 2032TIP3    H2 6061   1.150   5.532   0.851  1.5975 -0.9314  1.6503
 2033TIP3   OH2 6062   4.304   4.630   5.667  0.1950  0.5937  0.6156
 2033TIP3    H1 6063   4.226   4.682   5.688 -1.1249 -0.3433 -1.6214
 2033TIP3    H2 6064   4.327   4.658   5.579 -0.1260 -2.0439 -0.3826
 2034TIP3   OH2 6065   3.197   4.278   5.547 -0.1346 -0.7851  0.5038
 2034TIP3    H1 6066   3.102   4.271   5.548 -0.1382 -1.1103 -0.6635
 2034TIP3    H2 6067   3.228   4.188   5.538  0.2346 -0.5868 -0.3656
 2035TIP3   OH2 6068   1.133   4.122   4.415 -0.1833 -0.3841 -0.2777
 2035TIP3    H1 6069   1.040   4.100   4.405 -0.0319 -0.7471 -0.9857
 2035TIP3    H2 6070   1.159   4.080   4.498 -1.1911  1.6717  1.1539
 2036TIP3   OH2 6071   6.476   4.219   2.955 -0.5751 -0.0745  0.0815
 2036TIP3    H1 6072   6.514   4.180   2.877 -0.3794 -0.1844  0.2289
 2036TIP3    H2 6073   6.436   4.145   3.001  0.0689 -0.1565  0.5180
 2037TIP3   OH2 6074   3.443   6.740   2.434 -0.0069 -0.3619  0.1398
 2037TIP3    H1 6075   3.458   6.666   2.492  1.2814  1.0256  1.7179
 2037TIP3    H2 6076   3.530   6.766   2.405  0.1933  2.9398  2.9354
 2038TIP3   OH2 6077   0.247   1.412   0.187 -0.1336 -0.5604 -0.5345
 2038TIP3    H1 6078   0.299   1.333   0.172 -1.7481 -1.5055 -1.5085
 2038TIP3    H2 6079   0.191   1.419   0.109 -1.1922  0.6067  0.2817
 2039TIP3   OH2 6080   4.413   5.564   2.646  0.0658  0.2701 -0.0544
 2039TIP3    H1 6081   4.440   5.639   2.698 -0.4512  0.3054  0.1687
 2039TIP3    H2 6082   4.483   5.500   2.658 -0.6638 -0.2469  1.7827
 2040TIP3   OH2 6083   3.169   5.245   0.595 -0.0058  0.1088  0.9084
 2040TIP3    H1 6084   3.130   5.325   0.560  0.8977  0.1301 -0.0989
 2040TIP3    H2 6085   3.118   5.226   0.674 -0.2647  1.6474  1.1435
 2041TIP3   OH2 6086   6.526   4.217   2.131 -0.3033  0.2080 -0.6180
 2041TIP3    H1 6087   6.457   4.278   2.104  0.2413  1.8497  1.4293
 2041TIP3    H2 6088   6.602   4.244   2.080  0.0038  1.4686  0.4601
 2042TIP3   OH2 6089   3.901   1.717   4.647  0.1549  0.3823 -0.2114
 2042TIP3    H1 6090   3.929   1.645   4.590  1.9865  2.2371 -1.7830
 2042TIP3    H2 6091   3.880   1.788   4.587  0.2914  1.8042  1.3674
 2043TIP3   OH2 6092   3.762   6.126   4.813  0.2112 -0.5334 -0.1538
 2043TIP3    H1 6093   3.823   6.062   4.777 -1.2502 -1.2627 -1.4904
 2043TIP3    H2 6094   3.714   6.079   4.880 -0.6992 -0.8107 -0.9712
 2044TIP3   OH2 6095   7.099   2.862   1.563 -0.8899  0.2100  0.7969
 2044TIP3    H1 6096   7.051   2.895   1.487 -0.7549 -1.0445  0.1306
 2044TIP3    H2 6097   7.050   2.893   1.639 -0.3224  2.5907  0.2710
 2045TIP3   OH2 6098   5.633   5.980   2.307 -0.2684  0.2039  0.2449
 2045TIP3    H1 6099   5.544   6.001   2.336 -0.5922 -0.2894 -0.3778
 2045TIP3    H2 6100   5.656   5.902   2.357 -0.9454 -0.8319 -1.0056
 2046TIP3   OH2 6101   3.963   1.604   5.516 -0.1494 -0.1460  0.7844
 2046TIP3    H1 6102   3.901   1.639   5.580  1.2385  1.1334  1.4898
 2046TIP3    H2 6103   3.980   1.514   5.545  1.4924  0.8133  3.1163
 2047TIP3   OH2 6104   3.825   2.445   5.490  0.1160  0.4908  0.3500
 2047TIP3    H1 6105   3.866   2.394   5.559 -0.4808  0.4837  0.7086
 2047TIP3    H2 6106   3.844   2.396   5.410  0.7366  0.4545  0.5157
 2048TIP3   OH2 6107   6.840   5.142   1.320 -0.3035  0.2868 -0.1739
 2048TIP3    H1 6108   6.825   5.095   1.238 -2.2238 -0.2057  0.4282
 2048TIP3    H2 6109   6.876   5.227   1.292  2.2351 -1.0328 -1.3130
 2049TIP3   OH2 6110   0.286   3.520   4.576 -0.3583  0.1895 -0.1932
 2049TIP3    H1 6111   0.193   3.540   4.581 -0.1175  2.1413 -2.1017
 2049TIP3    H2 6112   0.295   3.463   4.500  0.1961  2.1315 -1.6977
 2050TIP3   OH2 6113   5.073   1.917   5.022  0.5976 -0.8742  0.1517
 2050TIP3    H1 6114   4.988   1.940   5.059  1.2032  0.1823  0.9485
 2050TIP3    H2 6115   5.127   1.894   5.098  1.0966 -1.3027 -0.3165
 2051TIP3   OH2 6116   4.311   5.998   5.586  0.5844  0.2956  0.2743
 2051TIP3    H1 6117   4.406   6.007   5.583  0.8072 -0.3645  3.2312
 2051TIP3    H2 6118   4.295   5.926   5.646 -1.8056  0.7828  0.3087
 2052TIP3   OH2 6119   0.504   2.791   5.233  0.1273  0.0641 -0.5000
 2052TIP3    H1 6120   0.524   2.821   5.322  1.3579 -0.3532 -0.6169
 2052TIP3    H2 6121   0.490   2.871   5.183  2.1708  0.4546 -0.5313
 2053TIP3   OH2 6122   4.333   1.238   4.100  0.3572  0.4679 -0.2210
 2053TIP3    H1 6123   4.356   1.272   4.187 -0.6767 -1.1621  0.7470
 2053TIP3    H2 6124   4.237   1.244   4.096  0.4716  1.8249 -1.8497
 2054TIP3   OH2 6125   3.213   5.983   4.012  0.5387 -0.1260  0.1314
 2054TIP3    H1 6126   3.281   5.992   3.945  0.8037  0.2495  0.4448
 2054TIP3    H2 6127   3.177   6.071   4.022 -0.8069 -0.5337 -0.8570
 2055TIP3   OH2 6128   6.171   5.270   4.171  0.1394 -0.1755 -0.1397
 2055TIP3    H1 6129   6.216   5.297   4.251  0.8741  1.2829 -0.9975
 2055TIP3    H2 6130   6.102   5.336   4.159  0.7923  0.3310 -1.3132
 2056TIP3   OH2 6131   1.725   2.772   3.605  0.7325  0.6047 -0.3990
 2056TIP3    H1 6132   1.803   2.725   3.636  0.3167 -0.4764 -0.9540
 2056TIP3    H2 6133   1.759   2.854   3.571  1.5994  0.2772 -0.3617
 2057TIP3   OH2 6134   5.849   5.261   3.884 -0.4742 -0.4119 -0.5655
 2057TIP3    H1 6135   5.882   5.308   3.960  0.8894 -1.2360 -0.6081
 2057TIP3    H2 6136   5.767   5.305   3.862 -0.8798 -0.1326  1.3419
 2058TIP3   OH2 6137   2.523   0.275   0.772  0.8604 -0.0387  0.2301
 2058TIP3    H1 6138   2.455   0.271   0.839 -1.1306 -1.3367 -1.7317
 2058TIP3    H2 6139   2.581   0.345   0.801 -1.0408  0.8181  2.2583
 2059TIP3   OH2 6140   5.982   0.514   3.633  0.2929 -0.8354  0.0674
 2059TIP3    H1 6141   6.023   0.576   3.693 -0.2409  1.8789 -2.1403
 2059TIP3    H2 6142   5.890   0.512   3.659  0.2482 -0.3929 -0.0377
 2060TIP3   OH2 6143   0.415   0.740   4.796 -0.4570  0.1468  0.6517
 2060TIP3    H1 6144   0.345   0.684   4.830  0.7714 -2.3649 -0.7232
 2060TIP3    H2 6145   0.496   0.697   4.822  0.5399 -0.1374 -2.4917
 2061TIP3   OH2 6146   0.715   2.972   1.907  0.4155 -0.1179 -0.1261
 2061TIP3    H1 6147   0.680   2.959   1.818  1.8416  0.6678 -0.8428
 2061TIP3    H2 6148   0.785   3.036   1.895  0.7170 -0.1036  1.5668
 2062TIP3   OH2 6149   2.749   1.279   4.180 -0.1274  0.1845  0.7026
 2062TIP3    H1 6150   2.836   1.306   4.210 -0.0659 -0.6035  1.2640
 2062TIP3    H2 6151   2.710   1.235   4.255 -0.6616 -0.2653  0.1710
 2063TIP3   OH2 6152   7.140   4.113   3.911  0.1940  0.1876 -0.2465
 2063TIP3    H1 6153   7.097   4.169   3.847  1.0631  0.4268 -0.6320
 2063TIP3    H2 6154   7.134   4.025   3.875  1.7124  0.4622 -1.2614
 2064TIP3   OH2 6155   3.536   3.035   4.302  0.4265 -0.2950 -0.0648
 2064TIP3    H1 6156   3.615   3.073   4.263  0.7182 -1.2465 -0.4262
 2064TIP3    H2 6157   3.520   2.955   4.252 -0.6506 -0.2308  0.1474
 2065TIP3   OH2 6158   0.215   6.172   3.049  0.6653 -0.6690  0.0366
 2065TIP3    H1 6159   0.149   6.112   3.016  0.2306 -0.4394  0.4659
 2065TIP3    H2 6160   0.232   6.232   2.977 -0.9887  0.4322  0.5134
 2066TIP3   OH2 6161   3.713   3.135   5.539 -0.5525 -0.4692  0.1820
 2066TIP3    H1 6162   3.759   3.077   5.479  1.4965  0.6737  0.5426
 2066TIP3    H2 6163   3.740   3.107   5.626  0.1161  0.6937  0.3725
 2067TIP3   OH2 6164   0.854   0.426   4.648  0.4476  0.0232 -0.1722
 2067TIP3    H1 6165   0.943   0.434   4.684  0.6319 -0.8323 -0.4046
 2067TIP3    H2 6166   0.825   0.340   4.677  0.1370 -0.1753 -1.0546
 2068TIP3   OH2 6167   1.409   0.361   4.640 -0.3029 -0.5294 -0.4558
 2068TIP3    H1 6168   1.421   0.284   4.696  2.3459 -0.2045 -0.4681
 2068TIP3    H2 6169   1.345   0.333   4.575 -0.9060 -2.0396  0.7176
 2069TIP3   OH2 6170   3.284   3.030   2.008  0.3538 -0.0900 -0.5348
 2069TIP3    H1 6171   3.360   2.997   2.057 -0.2850  0.0590  0.5937
 2069TIP3    H2 6172   3.322   3.082   1.937  1.3240  0.8869  0.6392
 2070TIP3   OH2 6173   5.188   0.275   2.823 -0.4168 -0.0247 -0.5372
 2070TIP3    H1 6174   5.220   0.201   2.772  0.0696  0.4096 -0.8737
 2070TIP3    H2 6175   5.174   0.240   2.911  0.9798 -0.2351 -0.3808
 2071TIP3   OH2 6176   7.172   2.869   3.086 -0.1871 -0.1293 -0.0861
 2071TIP3    H1 6177   7.082   2.891   3.106 -0.1328  0.5932 -0.6039
 2071TIP3    H2 6178   7.167   2.785   3.040 -0.6580  0.2453 -0.7300
 2072TIP3   OH2 6179   3.040   0.618   5.600  0.2666 -0.1346  0.9872
 2072TIP3    H1 6180   3.134   0.633   5.611  0.2652  0.6039  0.0600
 2072TIP3    H2 6181   3.012   0.682   5.534 -0.8244 -0.5651  1.0045
 2073TIP3   OH2 6182   6.347   3.600   2.233 -0.6705  0.4132  0.3885
 2073TIP3    H1 6183   6.420   3.662   2.236 -1.2368  1.0910  0.4247
 2073TIP3    H2 6184   6.325   3.594   2.140  0.1000 -0.6098  0.2518
 2074TIP3   OH2 6185   6.086   0.823   0.720 -0.1222  0.3856 -0.4716
 2074TIP3    H1 6186   6.016   0.884   0.741 -0.5895 -0.1707 -0.4005
 2074TIP3    H2 6187   6.059   0.740   0.759  0.7116  0.2317 -0.1906
 2075TIP3   OH2 6188   3.565   5.501   1.493 -0.1072  0.1448 -0.4784
 2075TIP3    H1 6189   3.566   5.454   1.576  1.9053  2.5005  0.9858
 2075TIP3    H2 6190   3.619   5.448   1.435  0.6910 -0.2490  0.5867
 2076TIP3   OH2 6191   5.981   6.333   0.520 -0.3196  0.4644 -0.5424
 2076TIP3    H1 6192   5.886   6.326   0.519 -0.3434  0.7030 -0.0267
 2076TIP3    H2 6193   6.011   6.261   0.463 -0.7926  0.2290 -0.4963
 2077TIP3   OH2 6194   0.693   4.057   2.320 -0.1459  0.5442  0.4113
 2077TIP3    H1 6195   0.788   4.054   2.325 -0.1411 -1.5721  0.1218
 2077TIP3    H2 6196   0.664   3.980   2.369 -1.4347 -1.8096 -3.5538
 2078TIP3   OH2 6197   1.131   6.455   4.128 -0.3783 -0.0448  0.2557
 2078TIP3    H1 6198   1.223   6.431   4.140 -0.3523 -0.0227  0.1136
 2078TIP3    H2 6199   1.130   6.500   4.043 -0.5939 -0.4249  0.0556
 2079TIP3   OH2 6200   4.848   3.191   5.508 -0.7273 -0.0677 -0.2889
 2079TIP3    H1 6201   4.801   3.144   5.439 -0.1306 -5.1864  2.3328
 2079TIP3    H2 6202   4.797   3.175   5.587 -0.1292  3.5687  1.0393
 2080TIP3   OH2 6203   2.777   3.348   1.672  0.2132 -0.0403  0.1440
 2080TIP3    H1 6204   2.817   3.268   1.706  0.7901  0.9502  1.9017
 2080TIP3    H2 6205   2.705   3.316   1.617  1.0761 -1.7752 -0.0664
 2081TIP3   OH2 6206   3.545   0.900   2.566  0.2113 -0.2818 -0.1403
 2081TIP3    H1 6207   3.541   0.946   2.482 -0.9317 -0.8479 -0.4072
 2081TIP3    H2 6208   3.614   0.946   2.614 -1.5357  2.3949  0.0005
 2082TIP3   OH2 6209   2.480   5.642   4.523  0.2542 -0.2847  0.4308
 2082TIP3    H1 6210   2.548   5.583   4.555  1.2972  0.8909  0.5121
 2082TIP3    H2 6211   2.433   5.670   4.602  0.9316  0.3617  0.6185
 2083TIP3   OH2 6212   3.614   2.724   4.436  0.0653  0.6959  0.2986
 2083TIP3    H1 6213   3.625   2.632   4.413  0.8035  0.5369  1.2192
 2083TIP3    H2 6214   3.553   2.758   4.370 -1.2315 -0.7538  0.6837
 2084TIP3   OH2 6215   5.614   3.038   4.993  0.3644 -0.0494  0.4212
 2084TIP3    H1 6216   5.534   3.058   4.943  0.2693  2.1553  1.3565
 2084TIP3    H2 6217   5.678   3.015   4.926 -0.1995  1.3130 -0.6519
 2085TIP3   OH2 6218   1.828   4.083   0.552 -0.4310  0.0713  0.0599
 2085TIP3    H1 6219   1.863   4.009   0.602  0.6460  1.4320  1.4262
 2085TIP3    H2 6220   1.873   4.159   0.588 -0.7700  1.3068 -1.9779
 2086TIP3   OH2 6221   3.647   0.353   5.555  0.3352 -0.2962  0.2690
 2086TIP3    H1 6222   3.578   0.287   5.565  1.2411 -1.5607 -1.2820
 2086TIP3    H2 6223   3.709   0.334   5.625  0.0498 -0.4023  0.4923
 2087TIP3   OH2 6224   1.032   1.413   1.514 -0.0102  0.1425 -0.4605
 2087TIP3    H1 6225   1.085   1.485   1.480  1.2926 -1.0129 -0.9781
 2087TIP3    H2 6226   1.007   1.441   1.602  1.6820  0.6308 -0.1025
 2088TIP3   OH2 6227   0.162   6.616   3.600 -0.0224 -0.1438  0.1013
 2088TIP3    H1 6228   0.106   6.567   3.660 -0.0644  1.3214  1.3013
 2088TIP3    H2 6229   0.101   6.658   3.539 -0.4167  2.3486  2.0749
 2089TIP3   OH2 6230   5.240   6.386   0.157  0.1889  0.5870 -0.2849
 2089TIP3    H1 6231   5.245   6.329   0.080 -0.8134  0.6578 -0.4152
 2089TIP3    H2 6232   5.222   6.473   0.121 -0.8938  0.5143  0.0498
 2090TIP3   OH2 6233   1.890   3.635   0.595 -0.4627  0.0261  0.6224
 2090TIP3    H1 6234   1.908   3.592   0.511  2.4214  1.2087  0.5431
 2090TIP3    H2 6235   1.872   3.562   0.655 -0.8339 -0.9389 -0.6094
 2091TIP3   OH2 6236   4.722   5.276   5.535  0.4140 -0.7324 -0.3322
 2091TIP3    H1 6237   4.734   5.248   5.444 -1.6254 -0.9943 -0.5649
 2091TIP3    H2 6238   4.757   5.366   5.537 -1.0998 -0.0444 -1.8632
 2092TIP3   OH2 6239   0.651   1.293   1.527  0.3059  0.2470 -0.2174
 2092TIP3    H1 6240   0.692   1.257   1.605  1.9103  0.8492 -0.7503
 2092TIP3    H2 6241   0.586   1.356   1.560 -1.1706 -1.6378  0.6646
 2093TIP3   OH2 6242   0.046   5.964   4.049 -0.4978  0.3728 -0.7499
 2093TIP3    H1 6243   0.009   5.891   4.099  0.8214 -1.0794 -1.8179
 2093TIP3    H2 6244   0.093   6.016   4.113  3.4059 -2.8519 -0.5821
 2094TIP3   OH2 6245   6.554   3.181   2.131  0.0328  0.1369 -0.8804
 2094TIP3    H1 6246   6.610   3.240   2.081  1.7204 -0.0544  0.6952
 2094TIP3    H2 6247   6.480   3.235   2.158  0.2392  0.8248 -1.6733
 2095TIP3   OH2 6248   2.564   0.794   0.901  0.2567 -0.0601  0.2542
 2095TIP3    H1 6249   2.652   0.776   0.933 -0.6870 -0.8710  2.6536
 2095TIP3    H2 6250   2.530   0.708   0.874 -0.3781 -0.0681  1.0330
 2096TIP3   OH2 6251   4.261   4.430   2.727  0.6117 -0.0162 -0.7060
 2096TIP3    H1 6252   4.246   4.391   2.813 -1.2691  1.6442 -0.2026
 2096TIP3    H2 6253   4.335   4.381   2.690  0.2618 -1.9863  1.0674
 2097TIP3   OH2 6254   2.730   1.413   4.918  0.5577  0.1589  0.2636
 2097TIP3    H1 6255   2.820   1.444   4.933  0.4366  1.0963 -0.8244
 2097TIP3    H2 6256   2.675   1.483   4.953  0.2305 -0.4974  1.0952
 2098TIP3   OH2 6257   4.591   3.683   1.409 -0.0974  0.5335 -0.0418
 2098TIP3    H1 6258   4.577   3.753   1.473  0.7174  0.6803 -0.0067
 2098TIP3    H2 6259   4.505   3.643   1.398 -0.4883  1.2705  0.2526
 2099TIP3   OH2 6260   2.061   4.573   1.319 -0.2800 -0.2032  0.1077
 2099TIP3    H1 6261   2.145   4.602   1.356  0.2332 -0.0218 -1.1296
 2099TIP3    H2 6262   1.998   4.586   1.389  0.2057  2.4462  0.1641
 2100TIP3   OH2 6263   0.190   0.837   2.667  0.1253 -0.9554  0.0135
 2100TIP3    H1 6264   0.236   0.909   2.710  1.2648 -2.2793  1.1113
 2100TIP3    H2 6265   0.247   0.762   2.678 -2.3911 -2.7832  1.7083
 2101TIP3   OH2 6266   3.628   6.512   0.689  0.1932 -0.4220 -0.3540
 2101TIP3    H1 6267   3.606   6.540   0.778  1.0061 -0.8698  0.0020
 2101TIP3    H2 6268   3.590   6.425   0.682  0.2301 -0.4336 -0.4042
 2102TIP3   OH2 6269   0.755   5.069   2.819  0.3811 -0.2037  0.0011
 2102TIP3    H1 6270   0.815   5.142   2.804 -1.2595  1.4481  0.9319
 2102TIP3    H2 6271   0.795   5.018   2.889  0.7309  0.8550  0.5937
 2103TIP3   OH2 6272   5.363   2.390   0.765  0.4215  0.2393  0.1684
 2103TIP3    H1 6273   5.429   2.459   0.762 -1.6715  2.3339 -0.4155
 2103TIP3    H2 6274   5.404   2.316   0.721  1.9038  1.9203 -1.4471
 2104TIP3   OH2 6275   6.853   3.058   4.534  0.1469 -0.3712 -0.0132
 2104TIP3    H1 6276   6.896   3.143   4.541  0.0185 -0.4323  2.0707
 2104TIP3    H2 6277   6.772   3.068   4.584 -1.6351 -0.7043 -2.6588
 2105TIP3   OH2 6278   1.698   5.647   2.596 -0.1358 -0.5347 -0.0255
 2105TIP3    H1 6279   1.665   5.572   2.546  0.1431 -0.9752  0.4408
 2105TIP3    H2 6280   1.792   5.632   2.602 -0.0035  0.1434 -0.4022
 2106TIP3   OH2 6281   1.368   0.982   4.532 -0.3186  0.2684 -0.0154
 2106TIP3    H1 6282   1.320   1.049   4.483 -0.7233 -0.8940 -1.2589
 2106TIP3    H2 6283   1.314   0.964   4.608 -0.1655  1.3993  0.3760
 2107TIP3   OH2 6284   5.779   3.720   5.014 -0.2534  0.4347 -0.0199
 2107TIP3    H1 6285   5.736   3.674   5.086  0.7001 -0.7149 -0.1519
 2107TIP3    H2 6286   5.708   3.742   4.954 -0.9471  0.6347  0.8443
 2108TIP3   OH2 6287   0.940   0.358   3.931  0.0368  0.3859  0.0641
 2108TIP3    H1 6288   0.881   0.411   3.876  1.0651  0.8883 -0.5851
 2108TIP3    H2 6289   0.891   0.277   3.946 -1.0686  1.0199  0.0456
 2109TIP3   OH2 6290   3.393   2.825   5.825 -0.2049  0.4222 -0.4788
 2109TIP3    H1 6291   3.313   2.834   5.772  0.3221  1.2412 -1.1525
 2109TIP3    H2 6292   3.385   2.894   5.891 -1.1955 -1.0328  1.0042
 2110TIP3   OH2 6293   6.339   5.747   3.823 -0.3654  0.0910  0.3115
 2110TIP3    H1 6294   6.414   5.688   3.812 -0.8529 -0.2728 -1.3067
 2110TIP3    H2 6295   6.350   5.783   3.911  0.5506 -1.5658  0.9278
 2111TIP3   OH2 6296   0.728   1.432   3.420  0.1808 -0.2755  0.1803
 2111TIP3    H1 6297   0.776   1.356   3.389 -0.7516 -1.5663  1.7592
 2111TIP3    H2 6298   0.700   1.477   3.340  0.5317 -1.7095 -0.7886
 2112TIP3   OH2 6299   0.519   3.643   0.434  0.3409  0.5420  0.2278
 2112TIP3    H1 6300   0.440   3.647   0.488  0.4805  2.7527  0.3681
 2112TIP3    H2 6301   0.591   3.644   0.497  0.4901  1.0658  0.0529
 2113TIP3   OH2 6302   6.849   5.046   3.431 -0.2719 -0.1315 -0.1012
 2113TIP3    H1 6303   6.808   5.125   3.467  0.1955  0.3539 -0.6074
 2113TIP3    H2 6304   6.826   4.977   3.492 -0.6883  0.4023  0.3557
 2114TIP3   OH2 6305   2.545   0.111   4.331 -0.2773 -0.2179  0.0305
 2114TIP3    H1 6306   2.450   0.102   4.341 -0.3084 -1.0858 -0.9004
 2114TIP3    H2 6307   2.558   0.131   4.239  0.4679 -0.3644  0.0974
 2115TIP3   OH2 6308   4.384   3.938   4.261  0.4009  0.5802  0.4030
 2115TIP3    H1 6309   4.319   3.873   4.232 -0.6909  2.2134 -1.0609
 2115TIP3    H2 6310   4.332   4.016   4.281  1.8135  1.5740  0.3472
 2116TIP3   OH2 6311   6.035   3.820   1.482 -0.7869  0.1622 -0.0012
 2116TIP3    H1 6312   6.097   3.893   1.476 -0.2666 -0.1914  0.8320
 2116TIP3    H2 6313   5.971   3.837   1.413 -1.3344  2.0184  0.8950
 2117TIP3   OH2 6314   3.554   1.710   2.813  0.4831  0.3716 -0.2065
 2117TIP3    H1 6315   3.480   1.741   2.761  0.8447 -1.2549 -1.7865
 2117TIP3    H2 6316   3.616   1.783   2.814 -0.4362  1.1740 -0.2165
 2118TIP3   OH2 6317   3.352   3.735   5.568 -0.3175  0.0094 -0.3405
 2118TIP3    H1 6318   3.366   3.672   5.639  0.8595  2.4960  1.8251
 2118TIP3    H2 6319   3.420   3.714   5.504 -0.9783 -1.8859 -0.4718
 2119TIP3   OH2 6320   5.430   4.725   4.778  0.4947 -0.1047  0.4657
 2119TIP3    H1 6321   5.387   4.690   4.856 -1.4945 -0.4354 -0.7260
 2119TIP3    H2 6322   5.396   4.671   4.707  1.4406  0.9045 -0.7791
 2120TIP3   OH2 6323   5.912   0.313   1.870  0.6386  0.9396  0.3269
 2120TIP3    H1 6324   5.934   0.394   1.826  0.8648  1.1555  0.8256
 2120TIP3    H2 6325   5.824   0.291   1.839  0.5857  1.3650  0.1776
 2121TIP3   OH2 6326   5.993   6.083   1.331 -0.3175 -0.3014  0.4418
 2121TIP3    H1 6327   5.972   6.139   1.256 -1.2432 -0.2153  0.7547
 2121TIP3    H2 6328   5.912   6.035   1.349 -0.9823  1.5956  3.0330
 2122TIP3   OH2 6329   5.709   0.095   2.137 -0.3263  0.3614 -0.5155
 2122TIP3    H1 6330   5.804   0.095   2.129 -0.2675  0.1371  0.0934
 2122TIP3    H2 6331   5.679   0.043   2.063  0.1645 -1.4348  0.4769
 2123TIP3   OH2 6332   2.094   1.159   2.467 -0.1985 -0.1911 -0.1780
 2123TIP3    H1 6333   2.118   1.252   2.464 -0.2939 -0.1856 -0.9029
 2123TIP3    H2 6334   2.158   1.120   2.528  1.2119 -0.0397 -1.5027
 2124TIP3   OH2 6335   3.846   2.424   2.719  0.2997  0.0900 -0.0547
 2124TIP3    H1 6336   3.795   2.422   2.800  1.5410  0.3784  0.7507
 2124TIP3    H2 6337   3.790   2.379   2.655  0.6393 -3.1635  1.7325
 2125TIP3   OH2 6338   4.546   0.617   0.637 -0.6278  0.6209 -0.0480
 2125TIP3    H1 6339   4.552   0.666   0.719  0.1368 -1.1881  1.0366
 2125TIP3    H2 6340   4.608   0.545   0.648  0.2777  0.8942 -2.6475
 2126TIP3   OH2 6341   2.419   4.615   3.858 -0.2199 -0.7187  0.5056
 2126TIP3    H1 6342   2.398   4.708   3.865 -3.0309 -1.2902  1.1646
 2126TIP3    H2 6343   2.464   4.595   3.940  0.1008 -0.0159  0.5103
 2127TIP3   OH2 6344   0.849   1.092   5.151  0.1006  0.4260 -0.2915
 2127TIP3    H1 6345   0.765   1.098   5.196  0.0914 -1.9426  0.1221
 2127TIP3    H2 6346   0.913   1.079   5.221  0.3813 -0.9642 -0.7804
 2128TIP3   OH2 6347   2.248   1.113   0.651  0.4279 -0.7237 -0.3329
 2128TIP3    H1 6348   2.315   1.076   0.710 -1.2520 -0.9965  1.5245
 2128TIP3    H2 6349   2.193   1.038   0.628 -0.3758 -0.1837 -0.2080
 2129TIP3   OH2 6350   0.338   4.360   5.512 -0.3831 -0.0041 -0.6527
 2129TIP3    H1 6351   0.267   4.406   5.557 -0.6983 -0.1150 -1.0282
 2129TIP3    H2 6352   0.301   4.338   5.427  0.0220 -0.2862 -0.7554
 2130TIP3   OH2 6353   4.205   2.702   5.548  0.1424 -0.2431  0.4594
 2130TIP3    H1 6354   4.226   2.779   5.600 -0.0834  0.1127  0.0262
 2130TIP3    H2 6355   4.236   2.628   5.601  1.5333  0.1993  0.3144
 2131TIP3   OH2 6356   3.418   1.344   4.912  0.3331  0.3995 -0.0294
 2131TIP3    H1 6357   3.447   1.356   4.822 -0.8169  1.0238 -0.3376
 2131TIP3    H2 6358   3.442   1.254   4.934  1.9710  0.7106 -0.4285
 2132TIP3   OH2 6359   2.588   1.537   3.066 -0.0003 -0.3170  0.2266
 2132TIP3    H1 6360   2.527   1.490   3.009 -1.1225 -0.2839  1.3531
 2132TIP3    H2 6361   2.553   1.625   3.071  0.9401  0.0978 -0.2165
 2133TIP3   OH2 6362   5.884   2.413   5.787 -0.2367 -0.1110  0.3637
 2133TIP3    H1 6363   5.930   2.446   5.710 -0.0222 -1.0918  0.0449
 2133TIP3    H2 6364   5.817   2.478   5.805 -0.3777  0.0745 -0.7507
 2134TIP3   OH2 6365   1.333   5.048   0.141 -0.1530 -0.1552 -0.1892
 2134TIP3    H1 6366   1.311   5.098   0.063 -2.0062  0.8569  0.9154
 2134TIP3    H2 6367   1.356   4.961   0.108 -0.1531  0.4585 -1.9000
 2135TIP3   OH2 6368   3.558   0.352   2.339 -0.7837  0.1359  0.1224
 2135TIP3    H1 6369   3.571   0.441   2.372 -1.2715  0.3099 -0.1553
 2135TIP3    H2 6370   3.639   0.306   2.363 -0.8666  0.4231  1.0046
 2136TIP3   OH2 6371   5.080   3.419   3.888  0.1874  0.1637 -0.0806
 2136TIP3    H1 6372   5.163   3.445   3.927  0.1299  0.3963 -0.1138
 2136TIP3    H2 6373   5.040   3.362   3.954 -0.4223  1.4480  0.7072
 2137TIP3   OH2 6374   6.806   1.333   0.579  0.1516 -0.7370 -0.3983
 2137TIP3    H1 6375   6.733   1.282   0.613  0.6882 -0.6839  0.8898
 2137TIP3    H2 6376   6.844   1.279   0.509 -0.3019 -1.3494 -0.1750
 2138TIP3   OH2 6377   3.485   4.655   5.387 -0.2431  0.2019  0.3006
 2138TIP3    H1 6378   3.509   4.636   5.478  2.3305 -1.5230 -0.6094
 2138TIP3    H2 6379   3.398   4.617   5.376  0.6301 -2.3138  1.3252
 2139TIP3   OH2 6380   4.707   5.938   0.164  0.3976  0.0677  0.0870
 2139TIP3    H1 6381   4.671   5.904   0.245  0.3443  0.8755  0.4193
 2139TIP3    H2 6382   4.687   5.872   0.098  1.2251 -1.0050  0.8892
 2140TIP3   OH2 6383   6.793   4.434   5.559 -0.4071  0.3676  0.0658
 2140TIP3    H1 6384   6.748   4.428   5.643 -1.4064  0.9259 -0.4018
 2140TIP3    H2 6385   6.793   4.528   5.539 -2.0433  0.1118 -1.4810
 2141TIP3   OH2 6386   5.734   2.311   3.774 -0.1968 -0.5631 -0.5550
 2141TIP3    H1 6387   5.727   2.406   3.776  0.1102 -0.5518  0.5555
 2141TIP3    H2 6388   5.821   2.294   3.737 -0.4979 -0.4321 -1.3358
 2142TIP3   OH2 6389   1.500   5.482   4.093 -0.5468  0.1023 -0.0882
 2142TIP3    H1 6390   1.566   5.510   4.030 -1.5460  1.1615 -0.6995
 2142TIP3    H2 6391   1.425   5.456   4.040 -0.2626 -2.2431  0.5382
 2143TIP3   OH2 6392   1.190   6.205   2.833 -0.4203 -0.4738 -0.4930
 2143TIP3    H1 6393   1.217   6.198   2.742 -1.4170 -2.0836 -0.7053
 2143TIP3    H2 6394   1.271   6.202   2.883 -0.0018 -2.2396 -1.2289
 2144TIP3   OH2 6395   0.950   3.733   1.325  0.3985  0.0961 -0.2199
 2144TIP3    H1 6396   1.043   3.707   1.324  0.3133 -0.2187 -0.0577
 2144TIP3    H2 6397   0.951   3.825   1.350  0.6004 -0.2005  0.8828
 2145TIP3   OH2 6398   3.905   0.419   1.463 -0.0923 -0.7473  0.3597
 2145TIP3    H1 6399   3.939   0.505   1.488  0.0376 -0.1712 -1.5914
 2145TIP3    H2 6400   3.814   0.437   1.436  0.4425 -0.8491 -1.6849
 2146TIP3   OH2 6401   4.854   2.286   0.769 -0.6445 -0.5036  0.7661
 2146TIP3    H1 6402   4.775   2.234   0.764 -0.6040 -0.4276 -1.4578
 2146TIP3    H2 6403   4.923   2.225   0.795 -1.0707 -0.9816  0.7623
 2147TIP3   OH2 6404   6.518   5.442   1.687 -0.3042 -0.0627 -0.0587
 2147TIP3    H1 6405   6.422   5.443   1.693 -0.2719  0.3353  0.4956
 2147TIP3    H2 6406   6.539   5.514   1.629 -0.3209  0.2170  0.2757
 2148TIP3   OH2 6407   6.478   2.923   3.510  0.2154 -0.0890 -0.3376
 2148TIP3    H1 6408   6.436   3.003   3.479 -2.3429 -0.5634  1.5442
 2148TIP3    H2 6409   6.561   2.952   3.547 -0.1837  1.5347 -0.6472
 2149TIP3   OH2 6410   1.109   0.597   3.964  0.3693 -0.4094  0.3144
 2149TIP3    H1 6411   1.095   0.630   4.053 -1.0131 -0.0619 -0.0133
 2149TIP3    H2 6412   1.085   0.505   3.968  4.0406 -1.5106  1.1805
 2150TIP3   OH2 6413   5.799   1.227   5.481  0.1605 -0.2295  0.7808
 2150TIP3    H1 6414   5.830   1.245   5.569 -0.0257  1.0058  0.6156
 2150TIP3    H2 6415   5.721   1.174   5.493 -1.0098  1.5668  1.4754
 2151TIP3   OH2 6416   3.968   5.478   1.608 -0.1829 -0.2992  0.0852
 2151TIP3    H1 6417   3.933   5.401   1.652  0.0598 -0.4507  0.0177
 2151TIP3    H2 6418   3.933   5.473   1.519  0.7864 -0.9831 -0.2730
 2152TIP3   OH2 6419   4.051   4.992   3.565  0.2203 -0.4641 -0.3227
 2152TIP3    H1 6420   3.998   4.941   3.626  1.1442 -0.9690  0.0740
 2152TIP3    H2 6421   4.061   4.936   3.488  0.8370 -0.6929 -0.0786
 2153TIP3   OH2 6422   0.487   4.962   1.844  0.1939 -0.0229 -0.1220
 2153TIP3    H1 6423   0.485   5.030   1.776  0.4761  0.8183  0.6856
 2153TIP3    H2 6424   0.579   4.957   1.870 -0.1144  0.8332  1.3010
 2154TIP3   OH2 6425   4.114   2.920   1.263 -0.7367  0.2266 -0.4289
 2154TIP3    H1 6426   4.049   2.880   1.321 -0.8453  1.3470  0.2605
 2154TIP3    H2 6427   4.171   2.969   1.322  0.9256 -0.9287 -0.9791
 2155TIP3   OH2 6428   5.962   4.399   1.412  0.3387 -0.1141 -0.0451
 2155TIP3    H1 6429   5.987   4.415   1.321  1.3240 -0.7286  0.1001
 2155TIP3    H2 6430   5.871   4.373   1.408  1.4675 -4.6914 -1.4166
 2156TIP3   OH2 6431   3.565   2.069   3.488 -0.2484 -0.1138  0.1264
 2156TIP3    H1 6432   3.633   2.006   3.468  1.0589  1.1617  0.3698
 2156TIP3    H2 6433   3.541   2.052   3.579  1.0118  0.5450  0.5948
 2157TIP3   OH2 6434   2.237   5.246   2.386  0.3374 -0.1391 -0.2136
 2157TIP3    H1 6435   2.155   5.270   2.343  0.3325  0.3970  0.0805
 2157TIP3    H2 6436   2.211   5.187   2.456  0.0490  0.9326  0.6177
 2158TIP3   OH2 6437   1.559   3.005   0.606  0.8625 -0.2595 -0.1895
 2158TIP3    H1 6438   1.556   2.932   0.669 -0.3113 -0.4589 -0.4511
 2158TIP3    H2 6439   1.524   3.080   0.654  1.8113  0.0770 -0.0076
 2159TIP3   OH2 6440   1.769   1.320   0.836 -0.6460  0.1606  0.1033
 2159TIP3    H1 6441   1.775   1.413   0.860 -0.1821 -0.1968  1.4427
 2159TIP3    H2 6442   1.858   1.296   0.813 -0.8436  0.1425 -0.6679
 2160TIP3   OH2 6443   5.156   0.985   2.202  0.3652  0.4879 -0.0810
 2160TIP3    H1 6444   5.114   1.056   2.250 -1.4726  0.8903 -2.0845
 2160TIP3    H2 6445   5.095   0.912   2.211  1.1659 -0.1606  0.1612
 2161TIP3   OH2 6446   1.212   1.903   3.163 -0.5197 -0.3814  0.1007
 2161TIP3    H1 6447   1.142   1.838   3.159 -1.5026  0.4952  2.0611
 2161TIP3    H2 6448   1.175   1.981   3.124 -1.4464  0.6896  2.8745
 2162TIP3   OH2 6449   4.827   3.287   1.080  0.1417 -0.3344 -0.7866
 2162TIP3    H1 6450   4.878   3.216   1.041  1.1570 -0.0459 -0.0220
 2162TIP3    H2 6451   4.736   3.267   1.057  0.3957 -1.9693 -0.4660
 2163TIP3   OH2 6452   0.842   1.605   0.327  0.3349 -0.0299 -0.1569
 2163TIP3    H1 6453   0.886   1.568   0.403  0.9565  1.0735  0.0393
 2163TIP3    H2 6454   0.777   1.539   0.302  0.5424 -0.6733  0.9468
 2164TIP3   OH2 6455   2.315   1.987   0.437  0.7149  0.1623  0.3572
 2164TIP3    H1 6456   2.399   2.018   0.469  2.1597 -1.2573 -1.7737
 2164TIP3    H2 6457   2.293   1.914   0.495  1.9084 -0.6384 -0.1648
 2165TIP3   OH2 6458   6.592   4.484   4.099  0.9668  0.1446  0.0406
 2165TIP3    H1 6459   6.554   4.549   4.040 -0.1080 -0.7188 -0.2489
 2165TIP3    H2 6460   6.577   4.518   4.187 -1.5483 -0.6831  0.0026
 2166TIP3   OH2 6461   5.113   0.169   1.877  0.6280  0.0148  0.0377
 2166TIP3    H1 6462   5.121   0.256   1.839 -1.4571  0.7894  1.2308
 2166TIP3    H2 6463   5.043   0.127   1.827  0.2361 -0.2316  0.7829
 2167TIP3   OH2 6464   5.411   1.508   1.757 -0.3247  0.5362  0.0944
 2167TIP3    H1 6465   5.474   1.574   1.786 -0.3149 -0.3393  2.2461
 2167TIP3    H2 6466   5.424   1.503   1.662  0.5645  2.6730  0.0400
 2168TIP3   OH2 6467   3.772   3.344   4.335 -0.0329 -0.1732  0.0721
 2168TIP3    H1 6468   3.822   3.358   4.416  1.9754 -2.0521 -0.7328
 2168TIP3    H2 6469   3.779   3.250   4.319  0.9337  0.3404 -3.0427
 2169TIP3   OH2 6470   4.045   2.881   3.017 -0.3112  0.1842  0.4871
 2169TIP3    H1 6471   4.137   2.854   3.011 -0.0332  0.8206  1.5647
 2169TIP3    H2 6472   3.997   2.799   3.025  0.2018 -0.1412  0.3281
 2170TIP3   OH2 6473   5.423   4.349   5.577 -0.5115 -0.4130  0.8668
 2170TIP3    H1 6474   5.401   4.432   5.534  0.1599 -1.9763 -2.7995
 2170TIP3    H2 6475   5.339   4.313   5.603 -0.9850  0.4157  0.5286
 2171TIP3   OH2 6476   6.257   5.062   5.696  0.3786  0.3499 -0.1669
 2171TIP3    H1 6477   6.301   5.128   5.642 -0.2056  1.3718  0.5642
 2171TIP3    H2 6478   6.328   5.006   5.728  0.7977  0.0964 -1.4752
 2172TIP3   OH2 6479   3.308   1.100   2.928  0.7603  1.1354  0.2215
 2172TIP3    H1 6480   3.356   1.033   2.976  1.1616  0.0525 -1.6024
 2172TIP3    H2 6481   3.227   1.112   2.977  0.0074 -1.7574 -0.1612
 2173TIP3   OH2 6482   5.712   2.593   3.782 -0.2287 -0.6586  0.4452
 2173TIP3    H1 6483   5.796   2.606   3.739 -1.6030 -0.3114 -2.3211
 2173TIP3    H2 6484   5.691   2.679   3.819 -1.0606  0.3794 -2.2244
 2174TIP3   OH2 6485   2.406   1.606   0.928  0.1575 -0.1229  0.1717
 2174TIP3    H1 6486   2.408   1.631   0.836  2.5279 -0.3962  0.1015
 2174TIP3    H2 6487   2.411   1.511   0.928 -0.7338 -0.1802  0.5890
 2175TIP3   OH2 6488   6.328   1.893   1.434 -0.1308  0.1021 -0.1166
 2175TIP3    H1 6489   6.356   1.820   1.377 -0.4031  0.4627 -0.7266
 2175TIP3    H2 6490   6.409   1.940   1.453  0.1837 -0.8750  1.0335
 2176TIP3   OH2 6491   3.857   5.272   4.744  0.2776 -0.4383 -0.6044
 2176TIP3    H1 6492   3.766   5.294   4.764  0.3045 -0.7032 -0.1894
 2176TIP3    H2 6493   3.904   5.287   4.826  1.1174  2.4073 -1.5128
 2177TIP3   OH2 6494   1.269   2.498   5.265  0.3634 -0.6125  0.6192
 2177TIP3    H1 6495   1.238   2.585   5.239  2.3402 -0.1777 -0.4770
 2177TIP3    H2 6496   1.208   2.437   5.222  0.2981  0.2048 -0.5017
 2178TIP3   OH2 6497   6.413   2.586   1.304 -0.0533 -0.0633 -0.2659
 2178TIP3    H1 6498   6.504   2.616   1.300  0.1838 -0.8061 -0.4425
 2178TIP3    H2 6499   6.372   2.644   1.368  0.1477  1.3113 -1.3172
 2179TIP3   OH2 6500   0.210   5.797   5.376 -0.2899  0.0627 -0.1480
 2179TIP3    H1 6501   0.211   5.732   5.446 -0.2596 -1.0869 -1.1876
 2179TIP3    H2 6502   0.302   5.809   5.354 -0.3093  0.3260 -0.0867
 2180TIP3   OH2 6503   6.617   5.136   4.437 -0.0884  0.2297 -0.1184
 2180TIP3    H1 6504   6.591   5.183   4.515  3.1601  2.1207  0.0012
 2180TIP3    H2 6505   6.631   5.204   4.371 -0.1623 -1.0635 -1.5316
 2181TIP3   OH2 6506   6.234   4.393   3.671 -0.4699 -0.0899  0.4225
 2181TIP3    H1 6507   6.262   4.348   3.751 -0.8554  1.6258  1.5900
 2181TIP3    H2 6508   6.213   4.482   3.701  1.3798  1.2559 -1.9349
 2182TIP3   OH2 6509   2.383   4.246   4.312 -0.3532  0.0170  0.2030
 2182TIP3    H1 6510   2.369   4.283   4.225  0.2233  0.1537  0.1698
 2182TIP3    H2 6511   2.366   4.153   4.301  1.1872 -0.2190 -0.4072
 2183TIP3   OH2 6512   5.306   5.982   2.831 -0.1126  0.0303  0.3404
 2183TIP3    H1 6513   5.292   5.900   2.783  1.8894 -0.3355  0.2831
 2183TIP3    H2 6514   5.248   5.976   2.907 -1.1896 -0.6831 -0.4973
 2184TIP3   OH2 6515   4.718   5.065   3.023  0.9132 -0.1997 -0.2113
 2184TIP3    H1 6516   4.630   5.089   3.054  1.3922  1.1571  0.2072
 2184TIP3    H2 6517   4.746   4.994   3.081  0.8264  0.6549  0.9107
 2185TIP3   OH2 6518   1.052   3.421   4.343  0.0458 -0.1597  0.1171
 2185TIP3    H1 6519   1.127   3.454   4.392  0.4510 -0.5374 -0.2447
 2185TIP3    H2 6520   0.987   3.491   4.350  0.6405  0.4226 -0.0627
 2186TIP3   OH2 6521   3.951   0.614   5.779  0.0777 -0.3242 -0.0202
 2186TIP3    H1 6522   3.973   0.527   5.814  1.8035  0.0301 -0.1355
 2186TIP3    H2 6523   3.939   0.669   5.856  1.5233 -0.0998  0.0772
 2187TIP3   OH2 6524   5.012   1.330   4.769 -0.4328 -0.4985  0.1754
 2187TIP3    H1 6525   5.020   1.240   4.800 -0.1842 -1.6597 -2.9433
 2187TIP3    H2 6526   5.006   1.323   4.674  0.7327  2.8679 -0.2867
 2188TIP3   OH2 6527   1.947   4.573   1.749 -0.1089 -0.6827  0.1566
 2188TIP3    H1 6528   2.016   4.511   1.726 -0.8947 -1.3680 -0.3896
 2188TIP3    H2 6529   1.867   4.521   1.749 -0.4219 -0.3168  2.5942
 2189TIP3   OH2 6530   6.884   6.196   4.919  0.0821  0.2054  0.2844
 2189TIP3    H1 6531   6.792   6.169   4.914  0.1648 -0.2701  1.2719
 2189TIP3    H2 6532   6.880   6.287   4.947 -0.0591 -0.1882  1.5827
 2190TIP3   OH2 6533   7.185   2.534   3.044 -0.1460  0.0670 -0.6397
 2190TIP3    H1 6534   7.195   2.587   3.123  0.1028  0.1409 -0.7210
 2190TIP3    H2 6535   7.126   2.463   3.071 -0.9793  0.7223 -0.7008
 2191TIP3   OH2 6536   0.542   1.292   2.351 -0.2653 -0.1083 -0.4349
 2191TIP3    H1 6537   0.533   1.240   2.272 -1.0863  0.6424 -0.8456
 2191TIP3    H2 6538   0.631   1.275   2.381  0.1560 -0.1796 -1.6804
 2192TIP3   OH2 6539   5.805   2.154   5.194  0.2940  0.1009  0.6395
 2192TIP3    H1 6540   5.817   2.097   5.118  0.8552  1.1167 -0.0637
 2192TIP3    H2 6541   5.713   2.181   5.188  1.0318  2.5689 -1.4937
 2193TIP3   OH2 6542  -0.035   6.790   0.019 -0.0659  0.1008  0.0649
 2193TIP3    H1 6543   0.020   6.742  -0.043 -0.7154  0.0452 -0.4765
 2193TIP3    H2 6544   0.027   6.825   0.083  0.2967 -3.2283  1.7383
 2194TIP3   OH2 6545   0.004   0.015   4.955 -0.4724 -0.1694  0.2670
 2194TIP3    H1 6546  -0.045   0.054   4.883 -0.6699 -0.8896 -0.0072
 2194TIP3    H2 6547   0.095   0.041   4.940 -0.6700  0.6147  0.3986
 2195TIP3   OH2 6548   1.463   5.085   2.586 -0.8225  0.2223  0.0283
 2195TIP3    H1 6549   1.401   5.157   2.575 -2.3660 -1.3942 -3.1276
 2195TIP3    H2 6550   1.504   5.075   2.500  2.3287 -0.1794  1.4455
 2196TIP3   OH2 6551   1.404   4.619   2.003  0.3140  0.3362 -0.5853
 2196TIP3    H1 6552   1.462   4.610   2.078 -1.2694  1.2353  0.8209
 2196TIP3    H2 6553   1.375   4.530   1.983 -1.7500  0.2902  2.0304
 2197TIP3   OH2 6554   5.986   2.816   4.544 -0.0969 -0.8222  0.4455
 2197TIP3    H1 6555   5.905   2.833   4.496  0.1171 -0.2725  0.2745
 2197TIP3    H2 6556   6.055   2.845   4.485  0.3134 -2.6108 -0.0011
 2198TIP3   OH2 6557   1.478   1.955   2.548  0.1203  0.1068  0.1398
 2198TIP3    H1 6558   1.514   1.958   2.637 -1.7166  3.7147  0.9097
 2198TIP3    H2 6559   1.413   1.884   2.551  0.4935 -0.2125  1.4634
 2199TIP3   OH2 6560   4.798   6.407   0.063  0.0194  0.4829  0.8130
 2199TIP3    H1 6561   4.830   6.324   0.096  0.5225  0.1793 -0.4069
 2199TIP3    H2 6562   4.725   6.384   0.005  0.4501  0.8405  0.1111
 2200TIP3   OH2 6563   2.625   0.147   2.986  0.1633 -0.1248  0.2131
 2200TIP3    H1 6564   2.547   0.123   2.937  1.4018 -0.3965 -1.7373
 2200TIP3    H2 6565   2.600   0.225   3.036 -0.5311  1.6930 -2.7616
 2201TIP3   OH2 6566   1.393   4.101   4.633  0.0436  0.1502  0.1627
 2201TIP3    H1 6567   1.437   4.043   4.695  0.5678 -0.8501 -1.1070
 2201TIP3    H2 6568   1.422   4.189   4.658 -0.0181 -0.1883  1.5221
 2202TIP3   OH2 6569   2.996   1.331   2.402 -0.4354 -0.3230  0.2881
 2202TIP3    H1 6570   2.911   1.324   2.358 -1.0729 -1.1712  1.6181
 2202TIP3    H2 6571   2.982   1.395   2.472  0.3867  0.4848 -0.2544
 2203TIP3   OH2 6572   0.581   1.918   0.273 -0.4466 -0.6814 -0.3873
 2203TIP3    H1 6573   0.560   1.825   0.263  1.7696 -1.3040  0.2589
 2203TIP3    H2 6574   0.602   1.948   0.184 -0.4654 -0.9819 -0.4935
 2204TIP3   OH2 6575   1.143   3.963   0.740  0.4616 -0.0285 -0.1501
 2204TIP3    H1 6576   1.062   4.009   0.759 -0.9083 -2.1375 -0.5622
 2204TIP3    H2 6577   1.200   3.983   0.815 -0.3960  1.5030  0.1297
 2205TIP3   OH2 6578   5.415   2.594   2.938 -0.3438  0.1600 -0.3248
 2205TIP3    H1 6579   5.466   2.516   2.959 -0.4770  0.1276 -0.1163
 2205TIP3    H2 6580   5.436   2.656   3.008 -0.8055  0.0448 -0.0788
 2206TIP3   OH2 6581   3.388   5.139   4.562  0.0381  0.3076  0.1849
 2206TIP3    H1 6582   3.308   5.119   4.514  0.0078  0.7628  0.0472
 2206TIP3    H2 6583   3.448   5.174   4.496 -0.0593  1.0845  0.4977
 2207TIP3   OH2 6584   4.011   0.744   3.999  0.1643  0.0393  0.1823
 2207TIP3    H1 6585   4.106   0.730   4.000  0.1302 -0.1787  0.5439
 2207TIP3    H2 6586   3.977   0.675   3.943  0.3440  0.9728 -1.1268
 2208TIP3   OH2 6587   0.356   0.359   0.702 -0.6805 -0.0146  0.3302
 2208TIP3    H1 6588   0.345   0.264   0.701  0.1871 -0.1403  0.8267
 2208TIP3    H2 6589   0.307   0.388   0.779  0.7515 -0.3358  1.4153
 2209TIP3   OH2 6590   2.155   3.363   4.663 -0.0606 -0.3444 -0.2138
 2209TIP3    H1 6591   2.234   3.409   4.691 -0.6097  0.4466  0.0811
 2209TIP3    H2 6592   2.183   3.272   4.649  0.9185 -0.0416 -0.2470
 2210TIP3   OH2 6593   3.837   0.957   0.715  0.2918 -0.0875 -0.1283
 2210TIP3    H1 6594   3.862   0.982   0.804 -0.8661 -1.1136  0.5183
 2210TIP3    H2 6595   3.772   1.022   0.688 -0.8836 -0.9207  0.5966
 2211TIP3   OH2 6596   4.083   4.836   3.342 -0.5341 -0.1190 -0.7066
 2211TIP3    H1 6597   4.044   4.917   3.310  0.6887  0.8516  0.1541
 2211TIP3    H2 6598   4.068   4.772   3.271 -2.2727  0.5886 -1.0354
 2212TIP3   OH2 6599   1.233   3.858   3.664 -0.1305  0.2581  0.5849
 2212TIP3    H1 6600   1.165   3.795   3.641 -0.2697  0.5337  0.2496
 2212TIP3    H2 6601   1.277   3.818   3.740  0.3363 -0.6606 -0.1338
 2213TIP3   OH2 6602   0.512   1.654   0.228  0.7744  0.1902  0.0933
 2213TIP3    H1 6603   0.562   1.573   0.243  1.0950  0.6445  1.7858
 2213TIP3    H2 6604   0.505   1.661   0.133  0.5160 -1.9489 -0.0888
 2214TIP3   OH2 6605   0.298   2.260   3.459 -0.2352 -0.0265 -0.4217
 2214TIP3    H1 6606   0.376   2.233   3.411  0.8579 -0.0193  1.2510
 2214TIP3    H2 6607   0.307   2.354   3.471 -0.0276 -0.1511  0.5253
 2215TIP3   OH2 6608   4.518   5.703   4.075  0.0414  0.0412 -0.0843
 2215TIP3    H1 6609   4.461   5.644   4.025  1.2111 -2.7519  1.6416
 2215TIP3    H2 6610   4.462   5.736   4.145  0.0279 -1.3990  0.6384
 2216TIP3   OH2 6611   6.063   3.174  -0.015 -0.3220 -0.1463 -0.1110
 2216TIP3    H1 6612   5.989   3.157   0.044 -0.2103 -0.9774 -0.1927
 2216TIP3    H2 6613   6.131   3.113   0.015  0.5926  1.1042  0.4195
 2217TIP3   OH2 6614   4.190   5.624   1.612 -0.0815  0.0648 -0.0783
 2217TIP3    H1 6615   4.162   5.713   1.591 -1.0146 -0.5853 -1.8130
 2217TIP3    H2 6616   4.108   5.576   1.627  0.3880 -0.5741  0.4927
 2218TIP3   OH2 6617   0.175   6.446   1.912  0.2545  0.2747 -0.1042
 2218TIP3    H1 6618   0.211   6.473   1.828  0.1371 -2.4743 -1.1463
 2218TIP3    H2 6619   0.095   6.399   1.889 -1.5366  2.1959  1.8312
 2219TIP3   OH2 6620   0.366   3.776   4.973  0.3554  0.4178 -0.4247
 2219TIP3    H1 6621   0.341   3.695   5.017 -1.0454  1.4836  0.8057
 2219TIP3    H2 6622   0.407   3.746   4.891  1.0267 -1.5465  0.5473
 2220TIP3   OH2 6623   5.536   5.431   3.032  0.3455 -0.1171 -0.1491
 2220TIP3    H1 6624   5.552   5.369   3.103  1.3996 -0.1331 -0.3825
 2220TIP3    H2 6625   5.479   5.383   2.971  0.3172 -0.4870  0.1611
 2221TIP3   OH2 6626   4.350   5.149   5.745  0.4568  0.3030  0.4446
 2221TIP3    H1 6627   4.311   5.235   5.727 -1.2037 -0.6387 -0.7100
 2221TIP3    H2 6628   4.289   5.087   5.706  0.3607 -1.5736  3.2943
 2222TIP3   OH2 6629   1.836   0.175   2.338  0.1264 -1.0331  0.2233
 2222TIP3    H1 6630   1.884   0.245   2.294  0.0683  0.2367  2.0750
 2222TIP3    H2 6631   1.750   0.175   2.295 -0.3528  1.0044  1.0781
 2223TIP3   OH2 6632   0.511   6.531   1.166  0.0554 -0.0634 -0.3185
 2223TIP3    H1 6633   0.432   6.518   1.114 -0.8140 -0.9954  1.1518
 2223TIP3    H2 6634   0.583   6.516   1.105 -0.9130 -1.1354 -1.2477
 2224TIP3   OH2 6635   2.213   1.672   4.947  0.1036  0.2084  0.1119
 2224TIP3    H1 6636   2.251   1.683   4.859  2.1655 -0.3374  0.8922
 2224TIP3    H2 6637   2.119   1.662   4.930  0.4279  0.1427 -2.0355
 2225TIP3   OH2 6638   4.880   5.380   0.743  0.3591  0.2606  0.1302
 2225TIP3    H1 6639   4.972   5.406   0.745  0.9284 -1.4682 -0.9827
 2225TIP3    H2 6640   4.876   5.309   0.678 -1.4173 -1.0093  1.5014
 2226TIP3   OH2 6641   1.891   6.730   3.672  0.0063  0.3601  0.3062
 2226TIP3    H1 6642   1.829   6.793   3.635 -0.8052  0.0444  1.1150
 2226TIP3    H2 6643   1.975   6.777   3.672 -0.0683  0.5536 -1.4076
 2227TIP3   OH2 6644   1.974   0.414   4.665 -0.4625  0.2312 -0.0728
 2227TIP3    H1 6645   1.982   0.364   4.584 -2.4194  2.6945 -1.9299
 2227TIP3    H2 6646   2.028   0.492   4.652 -3.3102  2.3022 -0.5411
 2228TIP3   OH2 6647   5.670   0.875   1.891 -0.3686  0.3894 -0.1832
 2228TIP3    H1 6648   5.656   0.782   1.907 -1.5483  0.7758  1.3210
 2228TIP3    H2 6649   5.692   0.911   1.977  3.6500  1.0011 -1.2865
 2229TIP3   OH2 6650   3.500   0.077   1.243  0.2299  0.6719 -0.2048
 2229TIP3    H1 6651   3.488  -0.013   1.212 -3.1063  0.2250  1.8829
 2229TIP3    H2 6652   3.432   0.127   1.197  0.0620  1.4531  0.8642
 2230TIP3   OH2 6653   0.913   6.287   4.166  0.7603 -0.5918 -0.5454
 2230TIP3    H1 6654   0.884   6.337   4.242 -0.4901 -1.2884 -0.5351
 2230TIP3    H2 6655   0.987   6.337   4.131  0.8005  0.1957  0.6072
 2231TIP3   OH2 6656   2.664   0.971   1.741  0.2997 -0.2961 -0.0263
 2231TIP3    H1 6657   2.740   0.964   1.684  0.6514 -1.0355  0.5200
 2231TIP3    H2 6658   2.701   0.991   1.827 -0.1902  0.2991  0.0487
 2232TIP3   OH2 6659   6.979   5.938   3.298 -0.3447 -0.1401  0.4212
 2232TIP3    H1 6660   7.012   5.891   3.374 -0.5203  0.6057  0.9720
 2232TIP3    H2 6661   6.923   5.875   3.253 -0.5845 -0.4544  1.1470
 2233TIP3   OH2 6662   2.332   0.800   1.387 -0.2405 -0.2369  0.1282
 2233TIP3    H1 6663   2.237   0.788   1.396 -0.2408  0.1773  0.7754
 2233TIP3    H2 6664   2.352   0.871   1.448  0.3281  0.4112 -0.7930
 2234TIP3   OH2 6665   4.524   5.034   3.242  0.1671  0.4610  0.9009
 2234TIP3    H1 6666   4.534   5.082   3.324 -1.3290  0.8862  0.8726
 2234TIP3    H2 6667   4.491   4.948   3.269  2.5011 -0.4949  0.9256
 2235TIP3   OH2 6668   6.335   5.046   3.291 -0.0664 -0.2928  0.0532
 2235TIP3    H1 6669   6.266   5.038   3.225  0.4724  1.3380 -0.7596
 2235TIP3    H2 6670   6.414   5.065   3.240  0.6836 -0.6235  1.0739
 2236TIP3   OH2 6671   0.917   4.685   2.978 -0.3302 -0.0414 -0.2743
 2236TIP3    H1 6672   0.843   4.640   2.936  0.1587  0.7944 -2.1219
 2236TIP3    H2 6673   0.989   4.677   2.914  1.1139 -0.5593  1.3386
 2237TIP3   OH2 6674   4.362   5.456   4.028  0.6077  0.6166 -0.1522
 2237TIP3    H1 6675   4.318   5.372   4.042 -1.6840  1.8234  0.3576
 2237TIP3    H2 6676   4.330   5.486   3.943 -0.8440  2.2096  0.8840
 2238TIP3   OH2 6677   1.692   3.452   4.637 -0.4198  0.1159 -0.0549
 2238TIP3    H1 6678   1.772   3.479   4.592  0.1862 -2.1245 -0.4451
 2238TIP3    H2 6679   1.701   3.487   4.726  0.9189  0.0819 -0.1581
 2239TIP3   OH2 6680   0.434   2.176   5.181 -0.3582 -0.3104 -0.3996
 2239TIP3    H1 6681   0.374   2.138   5.245 -0.1921 -1.0336 -0.6637
 2239TIP3    H2 6682   0.499   2.107   5.164  0.8149  0.6152  0.2113
 2240TIP3   OH2 6683   1.895   0.682   5.275 -0.0716  0.0862 -0.4152
 2240TIP3    H1 6684   1.877   0.730   5.194  1.3121 -1.0990 -1.4840
 2240TIP3    H2 6685   1.986   0.702   5.296  0.0500 -0.8231 -0.0186
 2241TIP3   OH2 6686   5.259   6.778   0.268  0.0033  0.2896  0.3158
 2241TIP3    H1 6687   5.240   6.749   0.357  1.7203 -2.6797 -0.1553
 2241TIP3    H2 6688   5.188   6.741   0.215  0.0210  0.4150  0.2018
 2242TIP3   OH2 6689   0.560   5.363   0.906  0.2563 -0.3059  0.4638
 2242TIP3    H1 6690   0.504   5.432   0.870 -0.7237 -1.5566 -0.5337
 2242TIP3    H2 6691   0.570   5.385   0.998  0.7961  1.6757 -0.0292
 2243TIP3   OH2 6692   0.246   5.433   0.514  0.0664 -0.4459  0.1938
 2243TIP3    H1 6693   0.257   5.370   0.585 -0.1279 -0.8396 -0.1202
 2243TIP3    H2 6694   0.159   5.471   0.528 -0.4562 -1.3498 -0.4703
 2244TIP3   OH2 6695   4.079   4.951   2.935 -0.3347  0.7326 -0.3367
 2244TIP3    H1 6696   4.173   4.940   2.952 -0.6167 -0.6156  0.5808
 2244TIP3    H2 6697   4.074   4.999   2.853  1.1601  1.1335 -0.2154
 2245TIP3   OH2 6698   4.455   0.777   2.565 -0.3250  0.0144 -0.5205
 2245TIP3    H1 6699   4.502   0.860   2.562 -0.3082 -0.0064 -0.9118
 2245TIP3    H2 6700   4.520   0.714   2.596  0.0537 -0.1104 -1.5453
 2246TIP3   OH2 6701   1.538   4.890   1.707  0.4482  0.3400  0.1726
 2246TIP3    H1 6702   1.571   4.957   1.647  1.8903 -0.9695 -0.5763
 2246TIP3    H2 6703   1.531   4.811   1.653 -0.1347 -0.3932  1.2755
 2247TIP3   OH2 6704   0.683   0.144   2.966  0.1602 -0.4184 -0.5772
 2247TIP3    H1 6705   0.768   0.103   2.980  0.4107  0.5933  1.1715
 2247TIP3    H2 6706   0.620   0.079   2.999  0.5910  0.7121  2.8760
 2248TIP3   OH2 6707   0.399   3.851   2.283  0.6439  0.1964 -0.2480
 2248TIP3    H1 6708   0.360   3.914   2.344  1.5704  1.6904 -1.1303
 2248TIP3    H2 6709   0.410   3.771   2.335  0.9937  1.2754  1.4372
 2249TIP3   OH2 6710   4.803   5.373   0.210 -0.2113  0.0494 -0.1429
 2249TIP3    H1 6711   4.826   5.463   0.230  0.0137  0.0741 -0.5009
 2249TIP3    H2 6712   4.877   5.321   0.239  0.0113  0.0625 -0.6729
 2250TIP3   OH2 6713   3.991   0.441   2.835  0.1323  0.5642  0.3690
 2250TIP3    H1 6714   4.012   0.350   2.857  2.5378  1.0297  0.2693
 2250TIP3    H2 6715   4.029   0.454   2.748 -1.2982  1.3231 -0.1696
 2251TIP3   OH2 6716   6.276   6.068   3.843  0.4092  0.4878 -0.1924
 2251TIP3    H1 6717   6.218   6.045   3.771  2.6958  2.4220 -2.8508
 2251TIP3    H2 6718   6.362   6.035   3.817  1.0178 -0.6228  2.7349
 2252TIP3   OH2 6719   6.284   0.659   5.826  0.1389 -0.4029  0.3256
 2252TIP3    H1 6720   6.195   0.637   5.855 -0.3812  1.4770  0.3008
 2252TIP3    H2 6721   6.274   0.687   5.735  0.4153  1.5429  0.8405
 2253TIP3   OH2 6722   5.916   4.056   4.424  0.3383  0.0561  0.2095
 2253TIP3    H1 6723   5.905   3.998   4.500 -1.1656  0.4124  0.2908
 2253TIP3    H2 6724   5.830   4.096   4.412  1.3075  2.2703  0.1473
 2254TIP3   OH2 6725   1.255   6.519   5.414  0.3590 -0.7921 -0.2370
 2254TIP3    H1 6726   1.218   6.590   5.466 -0.9987 -2.3358  0.9968
 2254TIP3    H2 6727   1.189   6.503   5.345  1.2647 -0.0269 -1.3189
 2255TIP3   OH2 6728   1.551   5.938   0.124  0.4120  0.5207  0.6295
 2255TIP3    H1 6729   1.589   6.000   0.062  1.0365 -0.4731 -0.0077
 2255TIP3    H2 6730   1.583   5.966   0.209  1.2908  0.6353  0.2640
 2256TIP3   OH2 6731   6.506   5.983   1.145 -0.3206  0.1577  0.0588
 2256TIP3    H1 6732   6.565   5.968   1.219  0.2354  0.8663 -0.2317
 2256TIP3    H2 6733   6.423   6.008   1.185  0.0021  0.6223  0.4453
 2257TIP3   OH2 6734   0.791   6.687   0.744 -0.1421 -0.7134  0.2025
 2257TIP3    H1 6735   0.821   6.605   0.703 -1.3894  0.5152 -3.5999
 2257TIP3    H2 6736   0.834   6.756   0.693 -1.4951  1.0092  1.2912
 2258TIP3   OH2 6737   3.451   5.417   2.639  0.8934 -0.5826 -0.1171
 2258TIP3    H1 6738   3.495   5.470   2.706  1.6755 -1.1058 -0.2110
 2258TIP3    H2 6739   3.474   5.460   2.556  0.3992 -0.2751 -0.1013
 2259TIP3   OH2 6740   7.137   4.245   3.496  0.3066  0.2049  0.2259
 2259TIP3    H1 6741   7.229   4.227   3.515 -0.1864 -2.2499  0.5246
 2259TIP3    H2 6742   7.114   4.183   3.427 -1.0221  1.0984 -0.1678
 2260TIP3   OH2 6743   2.727   1.927   3.841  0.0623  0.1414  0.1283
 2260TIP3    H1 6744   2.671   1.963   3.773 -2.2601 -0.5100  1.5760
 2260TIP3    H2 6745   2.764   2.004   3.885  0.6715  0.5714 -1.0878
 2261TIP3   OH2 6746   0.312   2.487   5.610 -0.1265 -0.7425 -0.2304
 2261TIP3    H1 6747   0.323   2.576   5.644 -3.1983  0.3087 -1.5901
 2261TIP3    H2 6748   0.316   2.497   5.515  0.1226 -2.2026 -0.4000
 2262TIP3   OH2 6749   0.604   5.560   3.315 -0.0549 -0.0124  0.3629
 2262TIP3    H1 6750   0.516   5.570   3.278  0.0755 -1.8439 -0.5462
 2262TIP3    H2 6751   0.597   5.598   3.403 -1.3293  1.2015 -0.2126
 2263TIP3   OH2 6752   4.638   6.718   1.286  0.1883 -0.1870  0.2256
 2263TIP3    H1 6753   4.568   6.696   1.347  0.5992  1.1969  1.2531
 2263TIP3    H2 6754   4.593   6.730   1.202 -0.7884  0.4428  0.8138
 2264TIP3   OH2 6755   5.779   1.478   1.696  0.6576  0.1185 -0.1148
 2264TIP3    H1 6756   5.838   1.552   1.705 -0.7573  1.1138  1.6172
 2264TIP3    H2 6757   5.819   1.409   1.750  0.2647  0.8028  1.0908
 2265TIP3   OH2 6758   3.202   0.074   5.508 -0.1547  0.2912  0.3217
 2265TIP3    H1 6759   3.123   0.104   5.463 -0.5850 -1.1610  0.0613
 2265TIP3    H2 6760   3.170   0.035   5.589  0.4032  0.6885  0.7356
 2266TIP3   OH2 6761   3.615   0.307   3.618  0.1744 -0.0441  0.2529
 2266TIP3    H1 6762   3.531   0.287   3.658 -0.4140  1.1289 -0.3424
 2266TIP3    H2 6763   3.662   0.359   3.683  0.4113 -0.6241  0.5505
 2267TIP3   OH2 6764   1.862   3.029   2.772  0.4297 -0.7138 -0.2561
 2267TIP3    H1 6765   1.921   3.040   2.698  0.8619 -3.6140 -0.4733
 2267TIP3    H2 6766   1.825   2.941   2.760 -0.5314 -0.7397  2.2346
 2268TIP3   OH2 6767   5.227   2.697   1.466 -0.2366 -0.7099  1.1464
 2268TIP3    H1 6768   5.167   2.627   1.436  0.3679 -0.9279  0.4066
 2268TIP3    H2 6769   5.188   2.777   1.432 -0.2565 -0.8254  0.8883
 2269TIP3   OH2 6770   3.446   4.378   4.523 -0.3136  0.1313 -0.3376
 2269TIP3    H1 6771   3.393   4.430   4.463 -2.3345  0.5463  1.6787
 2269TIP3    H2 6772   3.529   4.365   4.477 -1.9039 -0.0228 -3.3806
 2270TIP3   OH2 6773   6.836   1.113   3.024 -0.2084  0.4612 -0.0624
 2270TIP3    H1 6774   6.888   1.078   3.096  1.6674  0.0744 -1.5341
 2270TIP3    H2 6775   6.882   1.192   2.996  0.2150 -0.4227 -2.0319
 2271TIP3   OH2 6776   5.345   2.449   4.243  0.3599  0.1535 -0.3113
 2271TIP3    H1 6777   5.362   2.397   4.165  1.7672 -1.5100  1.0194
 2271TIP3    H2 6778   5.416   2.426   4.303 -1.6432 -0.0221  2.1589
 2272TIP3   OH2 6779   6.873   0.105   5.404 -0.0119 -0.1768 -0.1222
 2272TIP3    H1 6780   6.946   0.109   5.341  1.0495 -1.2197  0.9894
 2272TIP3    H2 6781   6.857   0.012   5.417 -0.4312  0.0225  0.9055
 2273TIP3   OH2 6782   4.326   6.102   2.030  0.3701  0.0700  0.0354
 2273TIP3    H1 6783   4.235   6.099   2.061 -0.9033  1.7063 -3.0030
 2273TIP3    H2 6784   4.365   6.174   2.079 -0.3805  0.1671  0.5164
 2274TIP3   OH2 6785   5.491   6.750   3.509  0.1600 -0.3101  0.5876
 2274TIP3    H1 6786   5.577   6.748   3.466  0.5536  1.6595  1.2000
 2274TIP3    H2 6787   5.430   6.719   3.442  1.1751 -0.4399 -0.3036
 2275TIP3   OH2 6788   1.066   2.593   0.881  0.3358  0.0571 -0.8962
 2275TIP3    H1 6789   1.010   2.640   0.819 -0.4576 -0.7578 -0.8209
 2275TIP3    H2 6790   1.005   2.554   0.944  1.1049  0.5853  0.2121
 2276TIP3   OH2 6791   5.698   5.694   3.391 -0.5797 -0.1366 -0.4593
 2276TIP3    H1 6792   5.696   5.748   3.312 -2.2279 -1.8097 -1.6448
 2276TIP3    H2 6793   5.791   5.679   3.407 -0.1550  1.4055 -1.2134
 2277TIP3   OH2 6794   2.788   2.152   3.952 -0.0788 -0.2402  0.4503
 2277TIP3    H1 6795   2.783   2.133   4.046  0.4914 -0.3182  0.4668
 2277TIP3    H2 6796   2.876   2.187   3.939  0.1208 -0.9600 -0.1869
 2278TIP3   OH2 6797   3.472   4.313   5.376 -0.0388  0.5475 -0.1811
 2278TIP3    H1 6798   3.512   4.246   5.431 -0.6570  0.5184  0.2446
 2278TIP3    H2 6799   3.483   4.394   5.426 -0.9086  0.4665  0.1516
 2279TIP3   OH2 6800   3.065   1.274   1.374  0.4013  0.2657  0.2803
 2279TIP3    H1 6801   3.062   1.310   1.285  1.0084  0.6887  0.4231
 2279TIP3    H2 6802   2.997   1.321   1.421 -0.0688 -0.1115 -0.0098
 2280TIP3   OH2 6803   5.656   2.793   4.753  0.0578  0.6615 -0.9430
 2280TIP3    H1 6804   5.579   2.845   4.775 -0.6192  0.3560 -2.4431
 2280TIP3    H2 6805   5.624   2.702   4.752  0.5550  0.4849 -1.1176
 2281TIP3   OH2 6806   1.410   0.444   5.277 -0.3289 -0.4295 -0.0693
 2281TIP3    H1 6807   1.436   0.456   5.186 -1.5121 -0.4737 -0.4289
 2281TIP3    H2 6808   1.492   0.448   5.326  0.1770  1.4141 -0.9500
 2282TIP3   OH2 6809   1.128   0.054   0.712  0.1918 -0.0913  0.7419
 2282TIP3    H1 6810   1.195  -0.001   0.753  2.1933  1.5764 -0.0573
 2282TIP3    H2 6811   1.156   0.060   0.620 -0.6310  1.2615  0.5619
 2283TIP3   OH2 6812   6.593   5.411   0.844  0.2249  0.4924  0.5919
 2283TIP3    H1 6813   6.497   5.402   0.839  0.2406  0.6558 -0.0227
 2283TIP3    H2 6814   6.608   5.449   0.930 -0.2435  0.1973  0.8150
 2284TIP3   OH2 6815   1.617   2.531   4.983 -0.2913 -0.9305  0.1170
 2284TIP3    H1 6816   1.653   2.442   4.975 -1.1125 -1.1866 -1.0983
 2284TIP3    H2 6817   1.682   2.586   4.938  0.2041 -0.9056  0.8457
 2285TIP3   OH2 6818   5.359   1.839   3.742 -0.3118  0.9568  0.1471
 2285TIP3    H1 6819   5.368   1.759   3.690 -0.8941  0.7619  0.3410
 2285TIP3    H2 6820   5.410   1.905   3.695  1.6864  0.0365  0.8986
 2286TIP3   OH2 6821   7.041   3.769   1.992 -0.7347  0.0023 -1.3041
 2286TIP3    H1 6822   6.980   3.843   1.991 -0.5087  0.2482  0.2067
 2286TIP3    H2 6823   6.989   3.694   1.964 -1.7690  0.2102 -0.0564
 2287TIP3   OH2 6824   2.305   5.128   1.793  0.8058 -0.0656  0.2650
 2287TIP3    H1 6825   2.290   5.218   1.767  1.7494  0.0727  0.1607
 2287TIP3    H2 6826   2.241   5.077   1.742  0.6453  0.4821 -0.0914
 2288TIP3   OH2 6827   4.356   2.967   4.091 -0.3220  0.3942  0.0163
 2288TIP3    H1 6828   4.347   3.047   4.039 -0.0218  1.8813  2.1311
 2288TIP3    H2 6829   4.309   2.901   4.041  0.4496  1.5553 -2.4265
 2289TIP3   OH2 6830   3.698   3.006   0.654  0.0781  0.2321 -0.1742
 2289TIP3    H1 6831   3.793   3.013   0.642  0.0310  0.5478 -0.3674
 2289TIP3    H2 6832   3.673   3.087   0.697 -0.3845  1.0535 -1.9132
 2290TIP3   OH2 6833   2.161   3.735   1.362  0.2889 -0.2075 -0.0774
 2290TIP3    H1 6834   2.148   3.733   1.457  2.1401  0.6933  0.2450
 2290TIP3    H2 6835   2.207   3.653   1.342 -0.3401 -0.5246 -0.2581
 2291TIP3   OH2 6836   0.657   1.363   4.275  0.0902 -0.2694  0.4044
 2291TIP3    H1 6837   0.624   1.438   4.323  1.8770  0.2558  0.8894
 2291TIP3    H2 6838   0.688   1.303   4.342  1.7715  0.0733 -0.0168
 2292TIP3   OH2 6839   6.700   2.995   5.167 -0.4771  0.6453  0.1046
 2292TIP3    H1 6840   6.785   2.989   5.123 -0.3943  0.0821  0.3389
 2292TIP3    H2 6841   6.655   3.067   5.122  0.7778  2.1293  1.1256
 2293TIP3   OH2 6842   6.552   2.167   2.026 -0.6811 -0.1987 -0.4007
 2293TIP3    H1 6843   6.492   2.230   1.985 -2.0985 -1.1977  0.1037
 2293TIP3    H2 6844   6.536   2.176   2.120 -1.1961 -1.5818 -0.3422
 2294TIP3   OH2 6845   2.681   5.841   3.684 -0.5129 -0.0706 -0.1375
 2294TIP3    H1 6846   2.648   5.922   3.723  1.0696  0.1458  0.8450
 2294TIP3    H2 6847   2.676   5.777   3.755 -1.3540 -0.7489 -0.7847
 2295TIP3   OH2 6848   6.056   1.058   0.454 -0.4916 -0.4026  0.6096
 2295TIP3    H1 6849   6.008   0.975   0.457  1.4416 -1.6237 -0.1464
 2295TIP3    H2 6850   6.056   1.089   0.545  0.1301 -2.1026  1.2288
 2296TIP3   OH2 6851   5.478   3.930   2.447 -0.6752 -0.4226  0.0551
 2296TIP3    H1 6852   5.454   3.899   2.534  1.4589  0.9158  1.2278
 2296TIP3    H2 6853   5.518   4.016   2.463 -0.7854  0.1421 -2.3319
 2297TIP3   OH2 6854   6.495   5.940   0.631 -0.4245 -0.1095  0.3537
 2297TIP3    H1 6855   6.511   5.873   0.698  0.2745 -0.5060 -0.1938
 2297TIP3    H2 6856   6.402   5.960   0.640 -0.7162 -1.3474  0.3621
 2298TIP3   OH2 6857   5.492   0.302   1.167  0.1165  0.1496  0.0242
 2298TIP3    H1 6858   5.528   0.375   1.117 -0.8046  0.4507 -0.2122
 2298TIP3    H2 6859   5.516   0.321   1.258 -2.1482  2.0588  0.3258
 2299TIP3   OH2 6860   6.051   1.122   5.034  0.6627 -0.1425 -0.0572
 2299TIP3    H1 6861   5.976   1.067   5.058  1.8173 -1.4598  0.7172
 2299TIP3    H2 6862   6.077   1.090   4.947  2.0587 -1.7355  0.8788
 2300TIP3   OH2 6863   3.526   0.698   5.645 -0.0341  0.2052 -0.2962
 2300TIP3    H1 6864   3.528   0.632   5.576  2.3468  1.0170 -1.0987
 2300TIP3    H2 6865   3.618   0.719   5.661 -0.5152  0.4343  2.7903
 2301TIP3   OH2 6866   6.344   6.685   0.862 -0.3999  0.5021 -0.7904
 2301TIP3    H1 6867   6.418   6.624   0.869 -0.7238  0.2517  0.8814
 2301TIP3    H2 6868   6.283   6.641   0.803 -0.6194 -0.8248  0.3804
 2302TIP3   OH2 6869   6.378   1.321   4.271  0.7193 -0.2208  0.1655
 2302TIP3    H1 6870   6.391   1.410   4.304 -0.3623 -0.1211  0.3646
 2302TIP3    H2 6871   6.315   1.331   4.199  0.4174 -0.8456  0.3386
 2303TIP3   OH2 6872   7.211   2.772   4.360 -0.3541 -0.4248 -0.3469
 2303TIP3    H1 6873   7.117   2.783   4.369 -0.1341  0.1327  1.7357
 2303TIP3    H2 6874   7.236   2.711   4.429  0.9978  0.6997  0.2272
 2304TIP3   OH2 6875   6.430   2.294   2.376 -0.4982  0.3441 -0.3606
 2304TIP3    H1 6876   6.505   2.345   2.405 -0.0186 -1.0473  0.9826
 2304TIP3    H2 6877   6.402   2.336   2.295  2.3983  0.2264 -1.5139
 2305TIP3   OH2 6878   4.077   6.158   5.035  0.0904  0.1852 -0.0466
 2305TIP3    H1 6879   4.005   6.127   5.091  0.7033 -2.6453 -0.6391
 2305TIP3    H2 6880   4.153   6.108   5.066  1.1505  0.9489 -1.3449
 2306TIP3   OH2 6881   4.826   2.281   1.057 -0.7194 -0.0601  0.1289
 2306TIP3    H1 6882   4.800   2.189   1.065  0.2626 -0.5077 -1.2899
 2306TIP3    H2 6883   4.823   2.298   0.963  0.4039  0.9491  0.2519
 2307TIP3   OH2 6884   6.666   1.613   3.703 -0.3839 -0.2372  0.0000
 2307TIP3    H1 6885   6.705   1.636   3.786 -1.1856 -1.1321  0.6561
 2307TIP3    H2 6886   6.571   1.622   3.717 -0.4839  2.0145 -1.5734
 2308TIP3   OH2 6887   2.174   3.313   4.958 -0.0853 -0.0163  0.1161
 2308TIP3    H1 6888   2.220   3.251   4.901 -0.3216 -0.5125  0.4664
 2308TIP3    H2 6889   2.182   3.276   5.046  0.7015  0.9955  0.4849
 2309TIP3   OH2 6890   1.990   2.470   2.705  0.2564 -0.0146  0.1599
 2309TIP3    H1 6891   1.937   2.527   2.648 -0.3062  0.3946  1.0708
 2309TIP3    H2 6892   2.059   2.527   2.738  0.4305 -0.1847  0.0886
 2310TIP3   OH2 6893   1.048   1.350   4.457 -0.3396  0.1868 -0.5889
 2310TIP3    H1 6894   0.980   1.292   4.489 -0.3195  1.2416  1.4918
 2310TIP3    H2 6895   1.005   1.405   4.392 -0.5359 -1.5532 -2.0231
 2311TIP3   OH2 6896   0.204   1.278   2.693  0.1464 -0.6855  0.8058
 2311TIP3    H1 6897   0.266   1.220   2.649 -1.0207 -3.3013  2.3500
 2311TIP3    H2 6898   0.176   1.228   2.770 -3.2943  0.6458  0.5741
 2312TIP3   OH2 6899   6.104   2.631   1.838 -0.3248  0.5097 -0.0719
 2312TIP3    H1 6900   6.039   2.702   1.833 -0.7959  0.2005  1.2893
 2312TIP3    H2 6901   6.143   2.640   1.925  1.3251  0.5436 -0.7890
 2313TIP3   OH2 6902   0.468   6.275   0.360  0.2415  0.4399 -0.2663
 2313TIP3    H1 6903   0.509   6.265   0.275  0.1294 -0.2838 -0.2398
 2313TIP3    H2 6904   0.458   6.369   0.371 -0.7481  0.5057 -1.5338
 2314TIP3   OH2 6905   0.945   5.845   4.496 -0.1036  0.3426  0.1651
 2314TIP3    H1 6906   0.940   5.785   4.421 -0.0106 -0.3747  0.7169
 2314TIP3    H2 6907   1.021   5.900   4.478 -0.3679  0.5040 -0.4966
 2315TIP3   OH2 6908   0.882   1.626   4.390 -0.4004 -0.4205 -0.3451
 2315TIP3    H1 6909   0.859   1.715   4.361 -1.0438  0.0653  1.4793
 2315TIP3    H2 6910   0.929   1.640   4.472  0.9829 -1.7219 -0.8778
 2316TIP3   OH2 6911   0.055   4.620   3.961 -0.4348  0.8625  0.3705
 2316TIP3    H1 6912  -0.035   4.651   3.945 -0.1342  1.9715  0.7449
 2316TIP3    H2 6913   0.098   4.625   3.875 -0.8375 -0.1141  0.0902
 2317TIP3   OH2 6914   1.823   6.154   5.611  0.4827 -0.0912 -0.2912
 2317TIP3    H1 6915   1.848   6.161   5.519  1.7803  0.1947  0.0615
 2317TIP3    H2 6916   1.777   6.236   5.630  1.0176  0.2471 -0.4495
 2318TIP3   OH2 6917   1.563   3.917   4.750 -0.0851 -0.3272 -0.5582
 2318TIP3    H1 6918   1.657   3.898   4.742  0.0274 -0.6921  1.1004
 2318TIP3    H2 6919   1.520   3.844   4.707  0.4103 -1.3228  0.5508
 2319TIP3   OH2 6920   0.486   2.649   4.806  0.1388  0.1111 -0.3222
 2319TIP3    H1 6921   0.537   2.575   4.772 -0.3170  0.0470 -0.8934
 2319TIP3    H2 6922   0.551   2.717   4.822  0.4004  0.0780 -1.1634
 2320TIP3   OH2 6923   1.764   0.022   5.032 -0.1653 -0.0896 -0.4281
 2320TIP3    H1 6924   1.790   0.052   4.945  0.1729 -0.1890 -0.3649
 2320TIP3    H2 6925   1.821  -0.054   5.049 -0.8014 -0.5866 -0.4632
 2321TIP3   OH2 6926   0.129   1.402   5.179  0.1350  0.2258  0.0927
 2321TIP3    H1 6927   0.113   1.307   5.178  2.7858 -0.3021 -0.6048
 2321TIP3    H2 6928   0.139   1.423   5.272  0.1093 -0.3127  0.2237
 2322TIP3   OH2 6929   4.193   3.687   3.821  0.2839 -0.3991  0.6212
 2322TIP3    H1 6930   4.204   3.768   3.870  3.5650 -0.7781  0.7038
 2322TIP3    H2 6931   4.099   3.670   3.824 -0.3790  2.7580  1.5756
 2323TIP3   OH2 6932   0.903   6.733   2.188 -0.2446 -0.1926  0.1584
 2323TIP3    H1 6933   0.956   6.657   2.215 -0.1879 -1.5258 -3.2490
 2323TIP3    H2 6934   0.965   6.806   2.188  1.3045 -1.3597 -1.9953
 2324TIP3   OH2 6935   0.202   2.036   5.308 -0.0117 -0.7244  0.2572
 2324TIP3    H1 6936   0.192   2.010   5.217  1.4299 -0.6257  0.0529
 2324TIP3    H2 6937   0.113   2.033   5.344 -0.7706  0.3834 -1.4443
 2325TIP3   OH2 6938   5.391   4.743   3.955 -0.6993 -0.4732 -0.1928
 2325TIP3    H1 6939   5.344   4.668   3.917 -0.6824  0.3834 -1.9927
 2325TIP3    H2 6940   5.482   4.715   3.959 -0.9682 -1.2670  1.0846
 2326TIP3   OH2 6941   2.415   6.748   2.099 -1.1128  0.5034 -1.1657
 2326TIP3    H1 6942   2.406   6.782   2.188  1.1518  0.6919 -0.9264
 2326TIP3    H2 6943   2.404   6.825   2.043 -1.1678  0.6533 -0.9529
 2327TIP3   OH2 6944   2.424   5.424   2.305 -0.0249 -0.5013 -0.5978
 2327TIP3    H1 6945   2.361   5.362   2.341  0.1216 -1.1742 -1.4662
 2327TIP3    H2 6946   2.477   5.372   2.244  1.4899  0.0088  0.2347
 2328TIP3   OH2 6947   5.733   6.805   2.662  0.4646  0.2748 -0.0486
 2328TIP3    H1 6948   5.681   6.753   2.723  1.8620  1.5679  2.3758
 2328TIP3    H2 6949   5.802   6.745   2.632 -0.5334 -0.5191 -0.8427
 2329TIP3   OH2 6950   2.355   1.939   3.824  0.2662  0.2285  0.5662
 2329TIP3    H1 6951   2.410   1.891   3.762  0.4213 -0.8861  1.5386
 2329TIP3    H2 6952   2.323   2.014   3.774 -0.8203 -1.4073 -1.3122
 2330TIP3   OH2 6953   4.592   4.850   4.483  0.1315  0.5180 -0.8306
 2330TIP3    H1 6954   4.581   4.811   4.570 -0.9299  0.2830 -1.0460
 2330TIP3    H2 6955   4.686   4.848   4.468  0.5554  2.3042  1.0852
 2331TIP3   OH2 6956   3.771   0.226   4.948  0.3012  0.5265 -0.4680
 2331TIP3    H1 6957   3.853   0.177   4.942  0.4437  0.7867 -0.6643
 2331TIP3    H2 6958   3.748   0.223   5.041  1.5198  2.0445 -0.0707
 2332TIP3   OH2 6959   2.616   6.308   4.237  0.1908 -0.0362 -0.0606
 2332TIP3    H1 6960   2.654   6.240   4.181  1.1348  2.3048 -2.4237
 2332TIP3    H2 6961   2.674   6.311   4.313  1.9704  0.1637 -1.3686
 2333TIP3   OH2 6962   0.987   2.485   0.140  0.0648  0.8661  0.3182
 2333TIP3    H1 6963   0.950   2.540   0.209 -0.7445 -0.0106  0.6067
 2333TIP3    H2 6964   0.933   2.502   0.064 -1.5118 -0.9739  0.9365
 2334TIP3   OH2 6965   1.531   3.139   4.198 -0.2648 -0.3308  0.1030
 2334TIP3    H1 6966   1.518   3.082   4.122 -1.6720  2.5681 -2.0638
 2334TIP3    H2 6967   1.442   3.155   4.231 -0.4171  2.9032 -1.3907
 2335TIP3   OH2 6968   2.657   1.316   2.752  0.1701  0.3092 -0.3802
 2335TIP3    H1 6969   2.648   1.234   2.799 -0.0546  1.3660  1.5402
 2335TIP3    H2 6970   2.575   1.362   2.768  1.1196  1.7945  0.4507
 2336TIP3   OH2 6971   0.812   2.464   4.400  0.4169 -0.3090 -0.1670
 2336TIP3    H1 6972   0.755   2.393   4.371 -0.5677  0.2615  0.3275
 2336TIP3    H2 6973   0.776   2.543   4.359  0.8764  0.0554  0.1116
 2337TIP3   OH2 6974   6.808   0.245   2.383 -0.1657  0.2034  0.2942
 2337TIP3    H1 6975   6.789   0.323   2.437 -3.0133  2.7337 -3.7706
 2337TIP3    H2 6976   6.868   0.277   2.316 -0.4536 -1.4454 -0.7835
 2338TIP3   OH2 6977   3.817   3.056   4.209 -0.1842  0.1898  0.9593
 2338TIP3    H1 6978   3.890   3.041   4.148 -1.4737 -1.6906 -0.1936
 2338TIP3    H2 6979   3.846   3.017   4.291  1.1592  1.8539  1.3414
 2339TIP3   OH2 6980   1.179   0.289   4.513 -0.4418  0.2241  0.4725
 2339TIP3    H1 6981   1.156   0.304   4.604 -1.5569  0.3003  0.1949
 2339TIP3    H2 6982   1.171   0.195   4.501 -1.4580  0.3324  0.1752
 2340TIP3   OH2 6983   4.153   5.584   1.116 -0.7010 -0.6163  0.7025
 2340TIP3    H1 6984   4.206   5.505   1.113  1.1506  0.5539  0.9092
 2340TIP3    H2 6985   4.139   5.600   1.209 -0.1350 -0.1229  0.7081
 2341TIP3   OH2 6986   6.354   3.002   0.735  0.1902 -0.0658  0.3679
 2341TIP3    H1 6987   6.282   3.059   0.762 -0.2602 -0.6878  0.5116
 2341TIP3    H2 6988   6.327   2.968   0.650  1.2437  1.2618 -0.5441
 2342TIP3   OH2 6989   2.714   1.159   1.496  0.0163  0.2846 -0.0622
 2342TIP3    H1 6990   2.747   1.241   1.460 -0.3102  0.9522  1.0900
 2342TIP3    H2 6991   2.620   1.161   1.479  0.0966 -0.1559 -0.5888
 2343TIP3   OH2 6992   6.327   4.742   2.633 -0.2284 -1.0470  0.0811
 2343TIP3    H1 6993   6.280   4.721   2.713 -1.3087  0.3324 -0.1585
 2343TIP3    H2 6994   6.418   4.719   2.651 -0.3337 -0.1706  1.9307
 2344TIP3   OH2 6995   1.126   0.732   0.024  0.1455 -0.4199 -0.6944
 2344TIP3    H1 6996   1.217   0.762   0.018  0.2463 -0.0924  1.5352
 2344TIP3    H2 6997   1.074   0.805  -0.010  0.6470  0.1738 -0.2237
 2345TIP3   OH2 6998   5.129   6.559   1.250  0.2196  0.3675 -0.1703
 2345TIP3    H1 6999   5.213   6.526   1.216  0.4775 -0.3530  1.1263
 2345TIP3    H2 7000   5.078   6.481   1.268  0.2283  0.7051  1.4260
 2346TIP3   OH2 7001   5.334   1.843   0.118  0.2211  0.2386  0.1292
 2346TIP3    H1 7002   5.291   1.766   0.156  0.1820  1.0068  1.6846
 2346TIP3    H2 7003   5.420   1.845   0.160  0.6316  0.4626 -0.6988
 2347TIP3   OH2 7004   1.300   1.762   1.697  0.0565  0.2352 -0.4388
 2347TIP3    H1 7005   1.250   1.788   1.619 -0.9490  0.9870  0.4201
 2347TIP3    H2 7006   1.333   1.844   1.733 -0.7023  0.0607  0.7084
 2348TIP3   OH2 7007   5.403   6.272   0.341 -0.2927  0.2014 -0.1523
 2348TIP3    H1 7008   5.349   6.308   0.270  0.1478 -0.4325 -0.8287
 2348TIP3    H2 7009   5.493   6.286   0.312 -0.0085  2.5306  1.6096
 2349TIP3   OH2 7010   6.121   2.720   5.448 -0.3597  0.9385  0.1808
 2349TIP3    H1 7011   6.184   2.760   5.508  1.4139 -1.4623  0.1015
 2349TIP3    H2 7012   6.172   2.700   5.370  0.0642 -4.4399  1.4140
 2350TIP3   OH2 7013   4.609   0.607   5.593 -0.1468 -0.3247  0.3389
 2350TIP3    H1 7014   4.648   0.687   5.627 -2.2018  0.2498  1.5024
 2350TIP3    H2 7015   4.648   0.596   5.506  1.6371  0.8246  0.9413
 2351TIP3   OH2 7016   5.085   4.574   1.280  0.1525 -0.5093  0.0598
 2351TIP3    H1 7017   5.180   4.581   1.269  0.2165 -1.1708  0.1394
 2351TIP3    H2 7018   5.072   4.582   1.375  0.0134  0.7432 -0.0482
 2352TIP3   OH2 7019   4.663   4.622   0.604 -0.3734  0.2270  0.4461
 2352TIP3    H1 7020   4.689   4.667   0.524  0.9877 -1.6233 -0.2352
 2352TIP3    H2 7021   4.573   4.593   0.588 -0.5698  1.0088  0.1279
 2353TIP3   OH2 7022   6.978   1.066   2.490  0.0204  0.1885  0.5937
 2353TIP3    H1 7023   7.036   0.993   2.465  0.4040  1.0830 -1.2835
 2353TIP3    H2 7024   6.891   1.027   2.490  0.0547 -0.0383 -1.7435
 2354TIP3   OH2 7025   6.913   3.575   3.104 -0.3193  0.2627 -0.2328
 2354TIP3    H1 7026   6.951   3.632   3.038 -0.4257 -0.2946 -0.7825
 2354TIP3    H2 7027   6.820   3.569   3.080 -0.0454 -1.2934 -1.0530
 2355TIP3   OH2 7028   1.760   4.376   0.026  0.0811 -0.0731 -0.2400
 2355TIP3    H1 7029   1.799   4.463   0.018 -0.8928  0.5721  1.5019
 2355TIP3    H2 7030   1.759   4.358   0.120 -1.0516 -1.3523 -0.4528
 2356TIP3   OH2 7031   1.631   2.797   1.884  0.2663  0.4250 -0.5258
 2356TIP3    H1 7032   1.706   2.743   1.909 -0.7842  0.3457  3.0016
 2356TIP3    H2 7033   1.567   2.735   1.850  0.4385 -0.0234 -0.0396
 2357TIP3   OH2 7034   1.660   6.286   2.509  0.1680  0.4291 -0.2124
 2357TIP3    H1 7035   1.713   6.363   2.531 -0.8851  1.8998 -2.4677
 2357TIP3    H2 7036   1.660   6.234   2.589  2.0422  2.0997  0.9791
 2358TIP3   OH2 7037   3.183   6.720   1.795 -0.1631 -0.5504 -0.6272
 2358TIP3    H1 7038   3.245   6.683   1.732  0.1145 -0.5293 -0.3742
 2358TIP3    H2 7039   3.110   6.752   1.743  0.4922  0.3301 -1.0261
 2359TIP3   OH2 7040   3.461   6.287   0.654  0.0178 -0.7975 -0.0210
 2359TIP3    H1 7041   3.449   6.229   0.729 -1.2848  0.5803  0.8808
 2359TIP3    H2 7042   3.458   6.228   0.578  0.4793 -2.1054  0.9463
 2360TIP3   OH2 7043   4.103   0.160   1.481 -1.1251  0.4839 -0.3768
 2360TIP3    H1 7044   4.060   0.211   1.550  1.1368  1.1785  0.6038
 2360TIP3    H2 7045   4.194   0.187   1.484 -0.4420 -1.3926 -1.9270
 2361TIP3   OH2 7046   5.079   2.888   4.719  0.4593 -0.1188  0.1725
 2361TIP3    H1 7047   5.167   2.864   4.690  0.5694  0.3160  0.1457
 2361TIP3    H2 7048   5.032   2.910   4.638 -0.3677 -2.5143 -0.0897
 2362TIP3   OH2 7049   4.980   1.125   5.141 -0.3507 -0.6191  0.2294
 2362TIP3    H1 7050   5.006   1.167   5.059 -1.2359 -1.8770 -0.7336
 2362TIP3    H2 7051   5.062   1.094   5.180  0.1788  0.8533  0.3334
 2363TIP3   OH2 7052   4.926   3.473   3.397 -0.2171 -0.6164  0.1647
 2363TIP3    H1 7053   4.926   3.489   3.303 -2.5792  0.2624  0.2642
 2363TIP3    H2 7054   4.879   3.391   3.408 -1.5405  0.1822  0.6656
 2364TIP3   OH2 7055   3.656   3.064   3.681  0.7183  0.5881 -0.0323
 2364TIP3    H1 7056   3.667   3.095   3.771  0.8330 -0.7442  0.4400
 2364TIP3    H2 7057   3.573   3.102   3.653 -0.9298 -1.3913  1.7657
 2365TIP3   OH2 7058   1.082   4.029   3.266 -0.1251  1.0055 -0.1504
 2365TIP3    H1 7059   1.020   4.017   3.337  0.2733  1.8765  0.3625
 2365TIP3    H2 7060   1.085   3.944   3.222  0.1831  0.2148  1.3351
 2366TIP3   OH2 7061   5.916   1.403   0.805 -0.3183  0.4052 -0.0091
 2366TIP3    H1 7062   5.825   1.422   0.782 -0.0362  0.8310 -0.7941
 2366TIP3    H2 7063   5.968   1.445   0.736  0.4710  0.0897  0.3806
 2367TIP3   OH2 7064   2.149   5.777   1.613 -0.5911  0.0394 -0.1006
 2367TIP3    H1 7065   2.081   5.810   1.555 -1.5360  0.9823  1.4787
 2367TIP3    H2 7066   2.179   5.854   1.662  1.8362 -0.2843 -0.9201
 2368TIP3   OH2 7067   3.436   1.348  -0.011  0.0221  0.1374  0.2666
 2368TIP3    H1 7068   3.415   1.392   0.071  1.0906  1.1350  0.0196
 2368TIP3    H2 7069   3.518   1.387  -0.040 -0.2519 -0.3095 -1.2067
 2369TIP3   OH2 7070   1.047   3.922   5.001 -0.3013  0.3105  0.0282
 2369TIP3    H1 7071   0.976   3.950   4.944 -0.3286  2.9839  1.2630
 2369TIP3    H2 7072   1.006   3.907   5.086  0.3181  0.0224  0.2825
 2370TIP3   OH2 7073   4.223   6.640   5.412  0.1920 -0.6230 -0.4027
 2370TIP3    H1 7074   4.128   6.632   5.425  0.4310 -0.7447  1.4507
 2370TIP3    H2 7075   4.244   6.569   5.351 -0.8336 -0.9339 -0.4177
 2371TIP3   OH2 7076   6.133   5.605   3.963 -0.1535  0.0164 -0.0566
 2371TIP3    H1 7077   6.181   5.630   3.885  0.5227  1.2379  0.7117
 2371TIP3    H2 7078   6.194   5.622   4.035 -0.6110 -1.4502  0.7278
 2372TIP3   OH2 7079   7.020   1.372   1.866 -0.0139  0.3088 -0.0949
 2372TIP3    H1 7080   6.925   1.360   1.857 -0.1210  0.1935  1.0268
 2372TIP3    H2 7081   7.040   1.336   1.952  1.2330 -0.6288 -0.7516
 2373TIP3   OH2 7082   0.254   5.757   1.140 -0.3370  0.2302  0.5661
 2373TIP3    H1 7083   0.303   5.676   1.151  1.1394  1.0523  0.3279
 2373TIP3    H2 7084   0.220   5.752   1.051  1.7013  0.8233 -0.3218
 2374TIP3   OH2 7085   0.717   2.819   2.109 -0.8283  0.3832 -0.2628
 2374TIP3    H1 7086   0.720   2.857   2.021  1.4514  0.1509 -0.3557
 2374TIP3    H2 7087   0.808   2.824   2.140 -0.4107 -4.3436 -0.0105
 2375TIP3   OH2 7088   3.979   1.422   4.014 -0.8420  0.0690  0.5318
 2375TIP3    H1 7089   4.070   1.417   3.987 -0.8489  1.1309  0.2764
 2375TIP3    H2 7090   3.948   1.331   4.010  0.5286 -0.5065  1.8119
 2376TIP3   OH2 7091   6.378   1.357   0.473 -0.3240 -0.0295 -0.3622
 2376TIP3    H1 7092   6.356   1.429   0.414 -0.6714  0.4474  0.3426
 2376TIP3    H2 7093   6.466   1.377   0.503 -0.1885 -0.2173 -0.6263
 2377TIP3   OH2 7094   6.414   2.959   1.729 -0.1231 -0.1714 -0.0826
 2377TIP3    H1 7095   6.448   2.941   1.641  0.0416 -1.2338  0.1772
 2377TIP3    H2 7096   6.327   2.995   1.715  0.3742  0.8219 -0.7124
 2378TIP3   OH2 7097   6.555   4.352   2.531 -0.3403 -0.2968  0.6714
 2378TIP3    H1 7098   6.478   4.296   2.539 -0.2774 -0.7424 -1.2480
 2378TIP3    H2 7099   6.614   4.324   2.601 -1.9791  0.2098  2.3137
 2379TIP3   OH2 7100   2.222   0.308   3.039 -0.0332  0.2668 -0.4525
 2379TIP3    H1 7101   2.141   0.325   2.991  0.1374 -0.8329 -1.1462
 2379TIP3    H2 7102   2.275   0.254   2.981  0.7552  0.0629  0.4200
 2380TIP3   OH2 7103   4.777   3.861   3.855 -0.2168  0.3479 -0.0647
 2380TIP3    H1 7104   4.829   3.784   3.878 -0.9852 -0.6852 -1.5764
 2380TIP3    H2 7105   4.782   3.865   3.759 -2.2438  0.6659 -0.2004
 2381TIP3   OH2 7106   6.336   0.082   5.668 -0.0241 -0.4530 -0.1623
 2381TIP3    H1 7107   6.419   0.128   5.660 -0.4512  1.0518  2.5719
 2381TIP3    H2 7108   6.270   0.150   5.653 -0.6915 -0.7969  1.0826
 2382TIP3   OH2 7109   5.662   0.237   4.394  0.4772  0.0463 -0.3963
 2382TIP3    H1 7110   5.711   0.207   4.317  0.1032  0.6759 -0.8890
 2382TIP3    H2 7111   5.644   0.330   4.376  1.2996  0.4875  0.9218
 2383TIP3   OH2 7112   1.454   1.232   5.709 -0.3954  0.0435 -0.0080
 2383TIP3    H1 7113   1.456   1.166   5.640 -2.0814 -0.4869  0.4188
 2383TIP3    H2 7114   1.380   1.289   5.686  1.6519  2.5325 -0.9855
 2384TIP3   OH2 7115   4.551   0.302   3.198 -0.1477  0.0271  0.0170
 2384TIP3    H1 7116   4.639   0.269   3.177 -0.1723  0.7844 -1.3742
 2384TIP3    H2 7117   4.492   0.232   3.169 -0.0602  0.0814 -0.3025
 2385TIP3   OH2 7118   2.912   1.070   2.532  0.0239 -0.6518  0.3049
 2385TIP3    H1 7119   2.981   1.016   2.569  0.4588 -0.8058 -0.6900
 2385TIP3    H2 7120   2.957   1.149   2.500 -0.4771 -0.0922  0.9513
 2386TIP3   OH2 7121   2.814   6.710   1.950 -0.2679  0.7318  0.0815
 2386TIP3    H1 7122   2.783   6.799   1.933  1.3516  1.0897 -1.2550
 2386TIP3    H2 7123   2.875   6.691   1.878  0.1493 -1.1005  0.8491
 2387TIP3   OH2 7124   4.304   4.060   2.662  0.0367  0.2057 -0.2453
 2387TIP3    H1 7125   4.345   4.144   2.682  0.7554 -0.1474 -0.2047
 2387TIP3    H2 7126   4.358   3.995   2.707 -0.1359 -0.3358 -0.8052
 2388TIP3   OH2 7127   1.327   2.043   4.416  0.5335 -0.2155  0.5735
 2388TIP3    H1 7128   1.239   2.070   4.440  0.4489 -0.0843  0.1263
 2388TIP3    H2 7129   1.314   1.970   4.355  0.7422 -0.5430  0.9169
 2389TIP3   OH2 7130   4.410   3.808   3.116  0.4657 -0.3197 -0.7410
 2389TIP3    H1 7131   4.315   3.815   3.106  0.5731 -0.6685 -2.3039
 2389TIP3    H2 7132   4.423   3.784   3.207 -0.7583  2.8686  0.4123
 2390TIP3   OH2 7133   2.515   1.917  -0.010 -0.4811 -0.3027  0.2065
 2390TIP3    H1 7134   2.585   1.977  -0.040 -0.8632  0.0044 -0.0857
 2390TIP3    H2 7135   2.518   1.923   0.085  0.3883 -0.8683  0.2244
 2391TIP3   OH2 7136   1.751   6.080   1.413  0.2014 -0.0450  0.6817
 2391TIP3    H1 7137   1.714   6.030   1.340 -1.5204  1.3587  0.5210
 2391TIP3    H2 7138   1.812   6.141   1.372 -1.0540  1.0121  0.3103
 2392TIP3   OH2 7139   3.115   5.674   4.306  0.3087 -0.8166 -0.0175
 2392TIP3    H1 7140   3.185   5.738   4.295 -0.3072  0.3955  2.3813
 2392TIP3    H2 7141   3.138   5.603   4.247  0.4711  2.0012 -3.7359
 2393TIP3   OH2 7142   5.421   3.218   4.190  0.1327 -0.3832  0.0608
 2393TIP3    H1 7143   5.400   3.128   4.214 -1.0429 -0.2053 -0.2441
 2393TIP3    H2 7144   5.402   3.223   4.096  1.3656 -0.1313 -0.2024
 2394TIP3   OH2 7145   3.989   0.761   4.277 -0.1346 -0.0839  0.0924
 2394TIP3    H1 7146   4.015   0.748   4.186 -0.8868  0.9505 -0.2883
 2394TIP3    H2 7147   4.021   0.684   4.323  0.5187 -0.4684 -0.9958
 2395TIP3   OH2 7148   0.625   6.355   2.083  0.1342 -0.2804 -0.0910
 2395TIP3    H1 7149   0.579   6.381   2.163  0.9798  1.6451 -0.1574
 2395TIP3    H2 7150   0.565   6.377   2.012 -0.3303 -1.3185 -0.0288
 2396TIP3   OH2 7151   4.699   2.500   0.089 -0.0816 -0.2554 -0.2219
 2396TIP3    H1 7152   4.662   2.494   0.177 -0.2838  0.9986 -0.2054
 2396TIP3    H2 7153   4.626   2.529   0.034  0.2831 -0.1027 -0.6315
 2397TIP3   OH2 7154   6.192   3.141   4.765  0.1514 -0.0927  0.3223
 2397TIP3    H1 7155   6.285   3.141   4.789 -0.1899 -1.7404  1.7736
 2397TIP3    H2 7156   6.183   3.219   4.709  2.0538  1.0453  1.4688
 2398TIP3   OH2 7157   6.228   0.654   3.994 -0.6192 -0.2273 -0.1201
 2398TIP3    H1 7158   6.299   0.591   3.983 -1.0791 -0.4935 -1.8439
 2398TIP3    H2 7159   6.259   0.712   4.063  1.3429 -0.2518 -0.8953
 2399TIP3   OH2 7160   5.506   2.696   4.387  0.0370  0.0805 -0.2141
 2399TIP3    H1 7161   5.423   2.744   4.398 -0.8010 -0.8626 -2.0475
 2399TIP3    H2 7162   5.514   2.683   4.293  0.9583 -2.1333  0.1168
 2400TIP3   OH2 7163   6.047   2.819   0.621 -0.5076  0.4602  0.0707
 2400TIP3    H1 7164   6.137   2.835   0.592 -0.5485  1.5811  0.5279
 2400TIP3    H2 7165   5.997   2.894   0.588 -1.4635 -0.5518 -0.8899
 2401TIP3   OH2 7166   5.400   1.084   2.109 -0.4348  0.1079  0.4540
 2401TIP3    H1 7167   5.384   1.164   2.159 -1.1342  0.6418 -0.5883
 2401TIP3    H2 7168   5.319   1.034   2.116 -0.3516 -0.0525  0.2926
 2402TIP3   OH2 7169   6.077   6.040   5.138  0.3720  0.2383  0.4862
 2402TIP3    H1 7170   6.023   5.962   5.150 -0.3270  0.9030  1.9214
 2402TIP3    H2 7171   6.147   6.012   5.080  0.9778 -1.8764  2.0964
 2403TIP3   OH2 7172   1.488   0.953   3.449 -0.0307  0.6918  0.2209
 2403TIP3    H1 7173   1.548   0.917   3.384  1.6529  2.0090  0.9770
 2403TIP3    H2 7174   1.457   0.877   3.497 -0.8793 -0.2575 -1.7001
 2404TIP3   OH2 7175   4.743   4.990   4.913 -0.2166 -0.0392 -0.4392
 2404TIP3    H1 7176   4.659   5.020   4.947  0.9417  2.9723  0.1709
 2404TIP3    H2 7177   4.723   4.913   4.860 -3.3628  0.7298 -0.5395
 2405TIP3   OH2 7178   1.722   0.080   2.046 -0.8446  0.1242 -0.5240
 2405TIP3    H1 7179   1.692   0.029   1.971  0.0505  0.6612 -1.2643
 2405TIP3    H2 7180   1.664   0.156   2.049 -0.3695  0.5194 -1.1796
 2406TIP3   OH2 7181   3.352   3.362   4.527 -0.7088 -0.0243  0.4098
 2406TIP3    H1 7182   3.403   3.285   4.554 -0.6470  0.0342  0.4579
 2406TIP3    H2 7183   3.403   3.401   4.456 -1.0520 -0.3876 -0.0419
 2407TIP3   OH2 7184   4.343   1.846   5.635  0.5050  0.4964  0.4387
 2407TIP3    H1 7185   4.331   1.807   5.722  1.5441 -0.9627 -0.0213
 2407TIP3    H2 7186   4.331   1.773   5.575  3.8329  0.4848 -0.4110
 2408TIP3   OH2 7187   1.293   5.598   2.557 -0.1598 -0.3352 -0.5631
 2408TIP3    H1 7188   1.268   5.690   2.566  4.3185  1.1623 -0.8181
 2408TIP3    H2 7189   1.283   5.580   2.463 -0.4011  0.1381 -0.6325
 2409TIP3   OH2 7190   4.830   0.248   0.780  0.2248 -0.3389 -0.3989
 2409TIP3    H1 7191   4.867   0.298   0.852 -0.3563  1.3673 -1.2384
 2409TIP3    H2 7192   4.895   0.179   0.764  0.2289 -0.9515  1.8910
 2410TIP3   OH2 7193   2.353   0.001   1.270  0.3707 -0.1403  0.1901
 2410TIP3    H1 7194   2.315   0.089   1.272  1.9535  0.5848 -0.2340
 2410TIP3    H2 7195   2.424   0.007   1.207 -1.0358 -2.4128 -1.7712
 2411TIP3   OH2 7196   6.203   6.154   4.865 -0.1551 -1.2312  0.5741
 2411TIP3    H1 7197   6.147   6.116   4.797 -2.5932 -0.8758  2.2587
 2411TIP3    H2 7198   6.245   6.079   4.906  0.5632 -1.5218 -0.6533
 2412TIP3   OH2 7199   0.583   4.978   2.454 -0.2373  0.1662 -0.0662
 2412TIP3    H1 7200   0.635   5.058   2.444  0.8234 -0.3343  1.2190
 2412TIP3    H2 7201   0.493   5.009   2.468  0.3432  1.1825  1.5992
 2413TIP3   OH2 7202   1.745   3.937   0.932  0.2152 -0.0777 -0.6329
 2413TIP3    H1 7203   1.685   3.956   0.859  0.4641 -0.0072 -0.8223
 2413TIP3    H2 7204   1.718   3.997   1.001  1.0875  1.0825 -1.2792
 2414TIP3   OH2 7205   0.121   4.215   4.276  0.0003  0.1226  0.4742
 2414TIP3    H1 7206   0.077   4.248   4.355 -0.5477  0.9961 -0.1788
 2414TIP3    H2 7207   0.091   4.273   4.206  1.6995  0.3315 -0.1134
 2415TIP3   OH2 7208   0.120   0.599   2.517  0.3254 -0.0317  0.1532
 2415TIP3    H1 7209   0.127   0.689   2.550  1.1526 -0.8966  2.4880
 2415TIP3    H2 7210   0.181   0.596   2.443 -0.8658  1.7111 -0.9802
 2416TIP3   OH2 7211   6.978   0.203   5.658  0.1106 -0.5916 -0.4324
 2416TIP3    H1 7212   6.962   0.155   5.577  0.3501 -1.6438  0.1357
 2416TIP3    H2 7213   7.059   0.251   5.642 -0.7780  0.6594 -1.4482
 2417TIP3   OH2 7214   5.906   0.442   2.622 -0.1645 -0.3759 -0.4512
 2417TIP3    H1 7215   5.959   0.468   2.546 -0.4642 -1.9160 -1.2271
 2417TIP3    H2 7216   5.968   0.443   2.695  0.2817  0.5017 -0.8187
 2418TIP3   OH2 7217   0.747   5.002   3.706  0.3247 -0.0955  0.3403
 2418TIP3    H1 7218   0.725   4.959   3.789  0.8199  1.5530  1.3755
 2418TIP3    H2 7219   0.668   5.051   3.682  0.3587 -0.1445  0.1278
 2419TIP3   OH2 7220   4.185   5.804   5.789 -0.0329 -0.0388 -0.0535
 2419TIP3    H1 7221   4.091   5.815   5.771 -0.4549  1.4467  2.6427
 2419TIP3    H2 7222   4.190   5.723   5.840  0.3503 -0.7429 -1.1649
 2420TIP3   OH2 7223   3.587   1.002   5.327  0.1594  0.1665 -0.1380
 2420TIP3    H1 7224   3.615   0.913   5.305  0.2005  0.1309  0.0532
 2420TIP3    H2 7225   3.562   1.041   5.243  0.7339  0.1791 -0.3116
 2421TIP3   OH2 7226   1.809   4.661   0.427  0.1084  0.7789  0.0345
 2421TIP3    H1 7227   1.782   4.650   0.518  0.4967 -1.6637 -0.0747
 2421TIP3    H2 7228   1.732   4.634   0.376  0.4079  0.6120 -0.3315
 2422TIP3   OH2 7229   2.378   2.633   4.857  0.0609 -0.2411 -0.3023
 2422TIP3    H1 7230   2.390   2.688   4.935  1.2484 -1.2322  0.2514
 2422TIP3    H2 7231   2.399   2.690   4.784  1.3203  0.0557  0.2623
 2423TIP3   OH2 7232   1.996   1.258   1.320  0.1159  0.6120  0.3488
 2423TIP3    H1 7233   1.976   1.225   1.408  0.2900  1.1973  0.6113
 2423TIP3    H2 7234   2.089   1.237   1.308  0.3584  1.4526  0.7191
 2424TIP3   OH2 7235   1.313   0.467   4.879  0.6401 -0.2548 -0.7770
 2424TIP3    H1 7236   1.363   0.465   4.797  0.9142 -0.4566 -0.6040
 2424TIP3    H2 7237   1.379   0.459   4.948  0.2258 -2.7785 -0.5775
 2425TIP3   OH2 7238   6.872   2.701   4.716  0.3267  0.1328 -0.7435
 2425TIP3    H1 7239   6.898   2.616   4.752 -0.6149  0.1976  0.1153
 2425TIP3    H2 7240   6.793   2.725   4.765 -0.8109  0.3870 -2.6093
 2426TIP3   OH2 7241   5.861   3.349   4.974  0.0708 -0.2696 -0.4336
 2426TIP3    H1 7242   5.937   3.396   5.008  0.0847  0.0442 -0.8856
 2426TIP3    H2 7243   5.895   3.265   4.945  0.4245  0.2138 -1.4729
 2427TIP3   OH2 7244   1.033   3.207   2.590 -0.2968  0.0976  0.0544
 2427TIP3    H1 7245   0.984   3.207   2.508 -0.8273  1.0472  0.3518
 2427TIP3    H2 7246   1.022   3.296   2.624  1.6312  0.3737  0.1248
 2428TIP3   OH2 7247   0.632   2.005   5.123 -0.6070 -0.1078  0.2284
 2428TIP3    H1 7248   0.722   1.997   5.091 -0.1592  2.0615  0.7550
 2428TIP3    H2 7249   0.638   1.990   5.217 -0.7782  0.0682  0.2689
 2429TIP3   OH2 7250   1.264   0.466   1.759 -0.0577  0.2618 -0.5796
 2429TIP3    H1 7251   1.255   0.427   1.846  1.1021  0.4097 -0.3780
 2429TIP3    H2 7252   1.312   0.400   1.708 -1.8054 -0.3770 -1.5134
 2430TIP3   OH2 7253   5.567   6.291   2.418 -0.2039 -0.5039 -0.2151
 2430TIP3    H1 7254   5.558   6.383   2.440 -0.3949 -0.0784 -1.9473
 2430TIP3    H2 7255   5.478   6.263   2.394 -0.0452 -1.0079 -0.2412
 2431TIP3   OH2 7256   1.218   5.046   3.402  0.4066  0.0443 -0.0395
 2431TIP3    H1 7257   1.166   5.126   3.389  0.5307  0.2347  0.5998
 2431TIP3    H2 7258   1.152   4.977   3.413  0.2979 -0.1146 -1.5502
 2432TIP3   OH2 7259   4.437   1.375   5.720 -0.3905 -0.1287 -0.1436
 2432TIP3    H1 7260   4.349   1.412   5.730  0.3964  1.6163  0.8570
 2432TIP3    H2 7261   4.464   1.354   5.810  0.5100  0.1633 -0.3331
 2433TIP3   OH2 7262   5.801   2.796   4.137  0.1180  0.0986  0.1490
 2433TIP3    H1 7263   5.777   2.788   4.229 -0.5241  0.5801  0.0331
 2433TIP3    H2 7264   5.892   2.765   4.132 -0.0452 -0.4953  0.8344
 2434TIP3   OH2 7265   5.666   1.072   2.555  0.0429 -0.0712 -0.4094
 2434TIP3    H1 7266   5.606   1.000   2.537  0.7235 -1.0501  1.0302
 2434TIP3    H2 7267   5.611   1.151   2.548 -1.2377 -0.8780  0.0926
 2435TIP3   OH2 7268   1.152   4.415   4.490 -0.6230  0.8098  0.2399
 2435TIP3    H1 7269   1.170   4.429   4.397  0.6380  0.2355  0.3810
 2435TIP3    H2 7270   1.191   4.330   4.510 -1.6675  0.5091  1.1013
 2436TIP3   OH2 7271   2.495   0.306   3.144 -0.2936  0.2450  0.1397
 2436TIP3    H1 7272   2.521   0.269   3.229 -0.5215 -0.8371 -0.2412
 2436TIP3    H2 7273   2.400   0.304   3.146 -0.3143 -1.2413 -0.7204
 2437TIP3   OH2 7274   6.096   1.609   1.589 -0.0152  0.2824  0.4118
 2437TIP3    H1 7275   6.085   1.636   1.498 -2.2924  0.3442  0.6411
 2437TIP3    H2 7276   6.081   1.689   1.639  0.9912  0.1959  0.8821
 2438TIP3   OH2 7277   4.064   6.380   1.199 -0.2859  0.4597  0.0033
 2438TIP3    H1 7278   4.110   6.324   1.261  1.6984  0.7221 -1.1657
 2438TIP3    H2 7279   4.106   6.363   1.115 -1.0982  2.1083 -0.7844
 2439TIP3   OH2 7280   5.002   6.008   2.813  0.1477 -0.5350 -0.0864
 2439TIP3    H1 7281   4.944   6.083   2.798  2.5299  1.7365  1.3719
 2439TIP3    H2 7282   4.981   5.980   2.902  0.6001 -0.3248  0.0888
 2440TIP3   OH2 7283   1.138   1.022   4.730 -0.3136 -0.6185  0.4005
 2440TIP3    H1 7284   1.190   1.085   4.779  1.2660 -1.5393 -0.0202
 2440TIP3    H2 7285   1.140   0.943   4.784 -2.2822 -0.3599  0.9303
 2441TIP3   OH2 7286   2.316   6.574   5.023  0.0150  0.1377  0.1892
 2441TIP3    H1 7287   2.236   6.524   5.007  0.7569 -0.9644 -0.1039
 2441TIP3    H2 7288   2.303   6.656   4.974  0.2382 -1.1929 -2.2469
 2442TIP3   OH2 7289   0.245   5.038   4.925  0.0953 -0.3258  0.3366
 2442TIP3    H1 7290   0.339   5.022   4.918  0.0251 -1.5237  1.7228
 2442TIP3    H2 7291   0.204   4.969   4.873 -0.0429  0.7224 -1.0214
 2443TIP3   OH2 7292   4.302   6.388   1.800  0.6812 -0.2370  0.5758
 2443TIP3    H1 7293   4.257   6.399   1.716 -1.2699 -0.2310  1.5624
 2443TIP3    H2 7294   4.378   6.335   1.780 -0.3147 -1.1324 -1.0460
 2444TIP3   OH2 7295   1.787   0.382   4.196  0.0817 -0.8403  0.1336
 2444TIP3    H1 7296   1.696   0.365   4.221  0.6801 -3.3384  0.8893
 2444TIP3    H2 7297   1.796   0.477   4.200 -2.4935 -0.5152 -0.0284
 2445TIP3   OH2 7298   6.308   5.399   0.928 -0.5760  0.0787 -0.0318
 2445TIP3    H1 7299   6.246   5.327   0.922 -0.4763 -0.2435  2.1104
 2445TIP3    H2 7300   6.263   5.473   0.886 -1.8173 -0.5231  0.2008
 2446TIP3   OH2 7301   5.298   0.487   4.658  0.0964  0.0250 -0.2200
 2446TIP3    H1 7302   5.246   0.495   4.579  0.6429  0.2231 -0.5640
 2446TIP3    H2 7303   5.368   0.426   4.635  0.3087  0.1520  0.0876
 2447TIP3   OH2 7304   4.901   4.059   4.512 -0.2877 -0.1403 -0.1666
 2447TIP3    H1 7305   4.935   3.978   4.549  1.0811  0.2295 -0.5719
 2447TIP3    H2 7306   4.930   4.127   4.572 -0.2140  0.1937 -0.5795
 2448TIP3   OH2 7307   1.678   3.174   5.340  0.7560  0.1816 -0.0116
 2448TIP3    H1 7308   1.771   3.155   5.347  1.2382  2.3661  0.2745
 2448TIP3    H2 7309   1.644   3.164   5.429  1.0565  0.9059  0.1875
 2449TIP3   OH2 7310   4.881   1.012   2.786 -0.4301 -0.6038  0.0254
 2449TIP3    H1 7311   4.854   1.071   2.715  1.1699 -0.4825 -0.5349
 2449TIP3    H2 7312   4.974   0.994   2.768 -0.3686 -1.7233  1.2981
 2450TIP3   OH2 7313   6.907   4.497   3.098 -0.0434  0.6315 -0.1635
 2450TIP3    H1 7314   6.947   4.500   3.011 -1.5496  0.1627 -0.9086
 2450TIP3    H2 7315   6.829   4.552   3.091 -1.2701 -0.9642  0.2758
 2451TIP3   OH2 7316   1.991   5.232   4.909  0.3056 -0.4916  0.1280
 2451TIP3    H1 7317   1.948   5.315   4.888  0.4319  0.1855  2.2593
 2451TIP3    H2 7318   2.083   5.246   4.889 -0.0776 -1.3041 -2.6423
 2452TIP3   OH2 7319   2.904   0.935   2.209  0.3931 -0.3731 -0.2237
 2452TIP3    H1 7320   2.931   0.871   2.276 -0.8194 -2.5131 -1.6785
 2452TIP3    H2 7321   2.810   0.945   2.223  0.5696  1.1537 -0.0173
 2453TIP3   OH2 7322   6.717   6.661   4.802  0.5403  0.3527  0.1659
 2453TIP3    H1 7323   6.801   6.656   4.848  1.0880  1.0766 -0.7192
 2453TIP3    H2 7324   6.696   6.754   4.799 -0.6685  0.1296  0.9987
 2454TIP3   OH2 7325   4.484   0.105   2.200 -0.6673  0.0050 -0.2938
 2454TIP3    H1 7326   4.483   0.192   2.161  0.0273  0.0861 -0.1360
 2454TIP3    H2 7327   4.493   0.045   2.126  0.3207  0.1408 -0.2856
 2455TIP3   OH2 7328   6.291   5.335   3.890  0.2882 -0.0357  0.3745
 2455TIP3    H1 7329   6.356   5.394   3.928 -1.9150  2.6141  0.3359
 2455TIP3    H2 7330   6.243   5.301   3.966 -0.0266  0.2302  0.3007
 2456TIP3   OH2 7331   4.649   6.613   5.697 -0.1280 -0.4532 -0.0978
 2456TIP3    H1 7332   4.592   6.668   5.751 -1.2610 -0.7592 -0.9356
 2456TIP3    H2 7333   4.703   6.566   5.759  1.0640  1.7615  0.6566
 2457TIP3   OH2 7334   6.543   1.006   3.171  0.7815  0.1937  0.0773
 2457TIP3    H1 7335   6.597   0.927   3.175 -0.4340 -0.9783 -3.2069
 2457TIP3    H2 7336   6.584   1.059   3.103  0.1590  1.2331  0.4963
 2458TIP3   OH2 7337   1.219   1.099   3.688 -0.2554  0.1279 -0.6684
 2458TIP3    H1 7338   1.284   1.168   3.698 -0.9281  0.5654  1.1014
 2458TIP3    H2 7339   1.155   1.134   3.625  1.0714 -0.2473 -2.3031
 2459TIP3   OH2 7340   3.226   3.022   2.483  0.2080  0.5392  0.0265
 2459TIP3    H1 7341   3.298   3.015   2.546 -0.8815 -2.3729  1.1503
 2459TIP3    H2 7342   3.154   3.061   2.532 -0.6715 -1.8153  0.7851
 2460TIP3   OH2 7343   6.436   3.454   5.394  0.3358  0.3410 -0.5333
 2460TIP3    H1 7344   6.492   3.520   5.353  1.3609 -0.6028 -0.7064
 2460TIP3    H2 7345   6.351   3.497   5.405  0.9449  1.6348 -0.7507
 2461TIP3   OH2 7346   6.775   4.214   4.791  0.4208 -0.0104 -0.3780
 2461TIP3    H1 7347   6.698   4.269   4.802 -0.4271 -0.9522 -1.3948
 2461TIP3    H2 7348   6.833   4.239   4.863 -0.3142  1.5547 -0.2911
 2462TIP3   OH2 7349   0.465   1.911   3.992 -0.4053 -0.6118  0.0835
 2462TIP3    H1 7350   0.525   1.863   4.048  1.3094 -0.8340 -1.8110
 2462TIP3    H2 7351   0.479   2.003   4.014 -0.7300 -0.7637  0.9307
 2463TIP3   OH2 7352   3.506   0.677   2.148 -0.2955  0.2369 -0.3265
 2463TIP3    H1 7353   3.435   0.716   2.199  0.7923  0.5502  1.0240
 2463TIP3    H2 7354   3.539   0.607   2.205 -1.4799 -2.0055 -2.2285
 2464TIP3   OH2 7355   2.249   0.601   0.495 -0.5343  0.2333  0.0187
 2464TIP3    H1 7356   2.290   0.517   0.514 -0.4817 -0.3806 -2.4551
 2464TIP3    H2 7357   2.164   0.578   0.457 -0.6930  1.2993 -0.3101
 2465TIP3   OH2 7358   4.801   0.707   4.855 -0.1342 -0.2332  0.3931
 2465TIP3    H1 7359   4.813   0.763   4.778  0.1547 -0.6685  0.1115
 2465TIP3    H2 7360   4.776   0.622   4.819 -0.6544 -0.2648  0.8205
 2466TIP3   OH2 7361   3.293   3.810   1.628 -0.1035  0.3777  0.2421
 2466TIP3    H1 7362   3.292   3.752   1.552 -2.3407 -0.2676  0.6919
 2466TIP3    H2 7363   3.209   3.856   1.624  0.4434  1.5300  1.4380
 2467TIP3   OH2 7364   4.010   0.095   4.821  0.9427  0.5484  0.0822
 2467TIP3    H1 7365   4.016   0.081   4.915  1.1262  1.6189  0.2380
 2467TIP3    H2 7366   4.040   0.013   4.783  1.0407  0.1696  0.9517
 2468TIP3   OH2 7367   0.112   3.355   3.058  0.2675 -0.2120 -0.7158
 2468TIP3    H1 7368   0.133   3.275   3.010  1.3758 -1.0255  1.0261
 2468TIP3    H2 7369   0.025   3.339   3.095  0.7064 -0.8710  0.0693
 2469TIP3   OH2 7370   3.602   5.548   2.802 -0.1108 -0.0434  0.0226
 2469TIP3    H1 7371   3.574   5.638   2.786  1.2705  0.1228 -1.7220
 2469TIP3    H2 7372   3.591   5.536   2.896 -2.1291  1.2926  0.0160
 2470TIP3   OH2 7373   6.306   5.803   1.551 -0.1542 -0.5977 -0.4747
 2470TIP3    H1 7374   6.377   5.841   1.602 -1.3224  0.9593  0.0601
 2470TIP3    H2 7375   6.325   5.829   1.460 -0.3038  0.2565 -0.2661
 2471TIP3   OH2 7376   6.758   5.402   3.765 -0.4129 -0.1562  0.2482
 2471TIP3    H1 7377   6.851   5.413   3.743 -0.6443  1.1236 -0.1961
 2471TIP3    H2 7378   6.758   5.382   3.859  0.2295  3.0901  1.0851
 2472TIP3   OH2 7379   6.332   0.084   2.862  0.4484  0.3923 -0.3206
 2472TIP3    H1 7380   6.283   0.069   2.781  1.0441 -0.4628 -0.5332
 2472TIP3    H2 7381   6.265   0.111   2.925 -0.1604  0.1449 -0.8453
 2473TIP3   OH2 7382   5.386   6.133   3.127 -0.5386 -0.9855  0.2929
 2473TIP3    H1 7383   5.377   6.043   3.098  0.9181 -1.3798  1.0216
 2473TIP3    H2 7384   5.357   6.132   3.218 -0.5526 -0.7043  0.2930
 2474TIP3   OH2 7385   1.055   3.288   5.288  0.3411 -0.2989  0.6768
 2474TIP3    H1 7386   1.016   3.333   5.212 -0.5044 -1.3069  0.4810
 2474TIP3    H2 7387   1.013   3.329   5.363  0.2445 -0.1476  0.5431
 2475TIP3   OH2 7388   1.347   6.023   4.980 -0.1661  0.3401 -0.0079
 2475TIP3    H1 7389   1.330   6.054   5.069 -1.0219 -1.6371  0.5843
 2475TIP3    H2 7390   1.371   6.101   4.931 -0.5833  1.6213  1.7433
 2476TIP3   OH2 7391   6.144   1.885   1.649  0.2406 -0.1078 -0.3399
 2476TIP3    H1 7392   6.217   1.878   1.588  0.9926  1.1200  0.3797
 2476TIP3    H2 7393   6.080   1.941   1.604 -0.7686 -2.0082 -1.3985
 2477TIP3   OH2 7394   3.745   2.933   3.410  0.2537 -0.0045  0.7674
 2477TIP3    H1 7395   3.689   2.898   3.340  1.3948 -2.1629  0.8531
 2477TIP3    H2 7396   3.694   2.922   3.490  0.6648 -1.7270  0.8158
 2478TIP3   OH2 7397   7.037   6.600   3.670  0.1839  0.0118 -0.6695
 2478TIP3    H1 7398   7.029   6.530   3.605  1.8223 -0.5008 -0.3650
 2478TIP3    H2 7399   7.091   6.562   3.739  0.3882  1.2977 -0.0994
 2479TIP3   OH2 7400   4.904   6.599   0.755 -0.2642 -0.0077 -0.2838
 2479TIP3    H1 7401   4.880   6.528   0.813 -3.5616  1.3117  0.1933
 2479TIP3    H2 7402   4.863   6.578   0.672  2.2506 -0.6030 -1.4808
 2480TIP3   OH2 7403   3.046   4.574   0.679  0.3067 -0.0797 -0.1505
 2480TIP3    H1 7404   3.126   4.522   0.683  1.2673  1.4390  1.8362
 2480TIP3    H2 7405   2.994   4.531   0.611  2.0596 -2.1238 -0.3247
 2481TIP3   OH2 7406   0.032   5.709   1.428 -0.7400  0.1134 -0.4486
 2481TIP3    H1 7407   0.074   5.762   1.496  1.3431 -0.1999 -1.4165
 2481TIP3    H2 7408  -0.029   5.769   1.384 -1.7068  0.4645  1.2772
 2482TIP3   OH2 7409   1.496   1.488   3.943 -0.1471 -0.6120  0.3166
 2482TIP3    H1 7410   1.538   1.533   3.870  1.4455 -0.4689  1.2554
 2482TIP3    H2 7411   1.426   1.547   3.972  3.0655  2.4634  2.7682
 2483TIP3   OH2 7412   3.325   5.817   1.697 -0.2881  0.1224  0.2882
 2483TIP3    H1 7413   3.323   5.739   1.753  0.5231  0.4645  0.8040
 2483TIP3    H2 7414   3.393   5.798   1.633  1.0156  1.0150  1.3524
 2484TIP3   OH2 7415   7.168   4.705   5.477 -0.2247  0.0223  0.0994
 2484TIP3    H1 7416   7.159   4.670   5.565 -1.0795 -0.4848 -0.1757
 2484TIP3    H2 7417   7.094   4.764   5.467  0.3571  0.7433  0.0209
 2485TIP3   OH2 7418   5.936   5.919   3.584  0.3486  0.1735  0.1323
 2485TIP3    H1 7419   6.025   5.890   3.600  0.4281  0.8174  0.9511
 2485TIP3    H2 7420   5.886   5.839   3.568  1.3339 -0.0966 -1.8078
 2486TIP3   OH2 7421   0.935   4.667   0.301 -0.3534  0.0052  0.4388
 2486TIP3    H1 7422   0.951   4.573   0.299  2.2643  0.3875  0.0944
 2486TIP3    H2 7423   0.973   4.696   0.384 -2.0466  0.6679  1.0273
 2487TIP3   OH2 7424   5.861   0.938   5.120  0.2966  0.1387  0.3950
 2487TIP3    H1 7425   5.912   0.861   5.142 -1.1084 -0.7386  0.6847
 2487TIP3    H2 7426   5.775   0.904   5.095 -0.2490  1.5796  0.2096
 2488TIP3   OH2 7427   5.502   6.231   4.346 -0.0779 -0.0121 -0.1739
 2488TIP3    H1 7428   5.511   6.318   4.383 -0.8428  0.3054 -0.7228
 2488TIP3    H2 7429   5.501   6.173   4.422  1.0109  0.3966  0.1639
 2489TIP3   OH2 7430   7.078   6.095   3.091  0.3290  0.0838  0.0862
 2489TIP3    H1 7431   7.102   6.178   3.132  1.9817  0.9520 -2.3980
 2489TIP3    H2 7432   7.053   6.038   3.164 -0.3430  2.5738  1.8986
 2490TIP3   OH2 7433   5.886   6.078   1.601  0.2056 -0.1105 -0.4863
 2490TIP3    H1 7434   5.968   6.056   1.556 -0.2382  0.5001 -1.6108
 2490TIP3    H2 7435   5.909   6.151   1.658  0.8055 -0.9908  0.4531
 2491TIP3   OH2 7436   2.824   1.589   2.927 -0.1402  0.1337 -0.4984
 2491TIP3    H1 7437   2.749   1.614   2.981  0.4340 -0.1477  0.4488
 2491TIP3    H2 7438   2.819   1.494   2.922  1.7065 -0.2212  2.0084
 2492TIP3   OH2 7439   1.850   4.908   5.232 -0.0644 -0.2832  0.0268
 2492TIP3    H1 7440   1.804   4.937   5.311  2.0224  1.3372  0.7425
 2492TIP3    H2 7441   1.911   4.842   5.264  1.3876  0.9864 -0.0153
 2493TIP3   OH2 7442   3.431   0.781   5.051 -0.3109 -0.2203 -0.1360
 2493TIP3    H1 7443   3.354   0.725   5.059 -1.3581  1.3654  1.8356
 2493TIP3    H2 7444   3.467   0.760   4.965 -2.3266 -1.7604 -0.6912
 2494TIP3   OH2 7445   1.579   0.639   2.466  0.1765 -0.1290 -0.0481
 2494TIP3    H1 7446   1.513   0.708   2.472  1.3928  1.0459  0.4105
 2494TIP3    H2 7447   1.644   0.673   2.405  1.2385 -0.4696  0.8626
 2495TIP3   OH2 7448   6.646   1.876   1.343  0.1482  0.0281  0.4498
 2495TIP3    H1 7449   6.637   1.883   1.438 -1.0566  1.7117  0.2448
 2495TIP3    H2 7450   6.696   1.954   1.317  2.5506 -1.5752 -0.1097
 2496TIP3   OH2 7451   0.878   3.166   0.127  0.0425  0.0332  0.4539
 2496TIP3    H1 7452   0.900   3.119   0.047  0.7184 -0.4334  0.9089
 2496TIP3    H2 7453   0.886   3.258   0.103  3.5982 -0.0417  0.8283
 2497TIP3   OH2 7454   2.469   5.172   1.170 -0.2755  0.0040  0.2640
 2497TIP3    H1 7455   2.546   5.121   1.196  0.2360  0.9104  0.5609
 2497TIP3    H2 7456   2.469   5.246   1.230  0.2700  1.5351 -1.5459
 2498TIP3   OH2 7457   1.131   3.605   3.593 -0.3313 -0.1828  0.1707
 2498TIP3    H1 7458   1.218   3.583   3.560 -0.0648  0.5613  0.3370
 2498TIP3    H2 7459   1.112   3.537   3.658  0.7845  0.4582  1.2287
 2499TIP3   OH2 7460   0.193   6.130   3.314 -0.2137 -0.7541 -0.0336
 2499TIP3    H1 7461   0.264   6.192   3.326 -0.4145 -0.4756 -0.2585
 2499TIP3    H2 7462   0.174   6.133   3.221 -1.7616  0.5872  0.2653
 2500TIP3   OH2 7463   1.825   0.651   4.235  0.3347 -0.3485 -0.4033
 2500TIP3    H1 7464   1.743   0.699   4.248  0.5295 -0.3621  1.0516
 2500TIP3    H2 7465   1.854   0.677   4.147 -0.6915  0.4678 -0.5268
 2501TIP3   OH2 7466   6.068   4.605   4.953  0.1447 -0.3199  1.0177
 2501TIP3    H1 7467   6.145   4.556   4.980 -0.0846 -0.3176  1.6886
 2501TIP3    H2 7468   5.997   4.573   5.010  0.0810  1.0674  1.7691
 2502TIP3   OH2 7469   6.357   5.273   4.391  0.0449 -0.2613  0.4588
 2502TIP3    H1 7470   6.355   5.347   4.452 -0.7230  0.1281 -0.0262
 2502TIP3    H2 7471   6.382   5.198   4.445 -3.0705 -0.4578  1.8640
 2503TIP3   OH2 7472   1.632   1.376   0.236 -0.1757 -0.1136  0.1697
 2503TIP3    H1 7473   1.579   1.314   0.286 -1.0707 -0.2742 -0.9235
 2503TIP3    H2 7474   1.623   1.346   0.145  1.5953  0.0198 -0.0804
 2504TIP3   OH2 7475   4.270   4.270   2.244 -0.1293  0.2522  1.1329
 2504TIP3    H1 7476   4.276   4.305   2.155  0.8350 -2.4863  0.0250
 2504TIP3    H2 7477   4.285   4.346   2.300  1.2282  1.7428 -1.0644
 2505TIP3   OH2 7478   0.035   6.731   3.095 -0.1273  0.6611 -0.4898
 2505TIP3    H1 7479   0.104   6.698   3.153  0.4326  1.0460 -0.9171
 2505TIP3    H2 7480  -0.008   6.653   3.061 -1.2837  0.4427  1.3866
 2506TIP3   OH2 7481   2.272   5.124   3.267  0.6083  0.2221  0.4355
 2506TIP3    H1 7482   2.247   5.111   3.176 -2.8114  2.9079  0.7879
 2506TIP3    H2 7483   2.341   5.190   3.264  0.6604  0.1439 -0.2167
 2507TIP3   OH2 7484   2.769   0.546   3.461 -0.0249 -0.1202 -0.1500
 2507TIP3    H1 7485   2.852   0.516   3.423  0.9786  0.5802  1.3781
 2507TIP3    H2 7486   2.772   0.518   3.552 -1.2787  0.3196  0.0502
 2508TIP3   OH2 7487   4.863   1.896   1.402  0.0929 -0.3488 -0.1292
 2508TIP3    H1 7488   4.841   1.986   1.379  0.0925 -0.6123 -1.2079
 2508TIP3    H2 7489   4.923   1.904   1.476  0.4523  0.5597 -0.5090
 2509TIP3   OH2 7490   6.931   3.995   1.883  0.1315  0.3512 -0.0605
 2509TIP3    H1 7491   6.882   3.964   1.807  0.3978  1.5668 -0.7582
 2509TIP3    H2 7492   6.989   4.063   1.848  1.9132 -0.6385  0.8402
 2510TIP3   OH2 7493   2.760   6.234   2.989 -0.6800 -0.4916 -0.8849
 2510TIP3    H1 7494   2.778   6.239   2.895  1.8839 -1.4835 -0.5182
 2510TIP3    H2 7495   2.706   6.156   2.999 -1.8765  0.2071 -1.6005
 2511TIP3   OH2 7496   0.090   2.261   4.369 -0.0775 -0.2874  0.1533
 2511TIP3    H1 7497   0.051   2.260   4.457 -1.1610  2.1940 -0.2182
 2511TIP3    H2 7498   0.182   2.280   4.383 -0.0931 -0.6311  0.7691
 2512TIP3   OH2 7499   1.385   6.245   0.179 -0.2495 -0.2545  0.6792
 2512TIP3    H1 7500   1.321   6.263   0.110  2.4949  0.1207 -1.9500
 2512TIP3    H2 7501   1.386   6.150   0.186  0.2038 -0.3597 -0.6177
 2513TIP3   OH2 7502   6.283   0.120   0.340  0.3546 -0.3277 -0.3188
 2513TIP3    H1 7503   6.258   0.075   0.259  2.3577  0.5104 -1.4677
 2513TIP3    H2 7504   6.352   0.066   0.377 -0.2896 -0.5010  0.6767
 2514TIP3   OH2 7505   3.872   1.555   2.917 -0.7455 -0.2276  0.5206
 2514TIP3    H1 7506   3.819   1.538   2.839  0.6451 -0.9173 -0.3185
 2514TIP3    H2 7507   3.885   1.650   2.917  0.6718 -0.3550 -1.1342
 2515TIP3   OH2 7508   0.401   5.581   4.136  0.4452  0.2304  0.0773
 2515TIP3    H1 7509   0.362   5.542   4.057  0.1381  1.3929 -0.3711
 2515TIP3    H2 7510   0.331   5.633   4.174  0.1299 -1.4666  1.9839
 2516TIP3   OH2 7511   3.804   3.269   1.579  0.8212  0.0528 -0.3452
 2516TIP3    H1 7512   3.793   3.348   1.526  1.0296  1.3787  1.4659
 2516TIP3    H2 7513   3.745   3.205   1.541 -2.5767  2.4031  0.5643
 2517TIP3   OH2 7514   3.415   5.675   5.315  0.2087  0.8681  0.2654
 2517TIP3    H1 7515   3.445   5.693   5.405 -3.8371  1.7706  1.6636
 2517TIP3    H2 7516   3.379   5.586   5.320 -1.4235  1.4784  0.0668
 2518TIP3   OH2 7517   2.969   5.287   3.925  0.1040 -0.1342  0.2001
 2518TIP3    H1 7518   2.928   5.243   3.851  0.6740 -0.4769  0.0839
 2518TIP3    H2 7519   2.899   5.296   3.990 -0.7573  1.3337 -0.8555
 2519TIP3   OH2 7520   5.354   0.751   3.445 -0.0190  0.2672 -0.5871
 2519TIP3    H1 7521   5.430   0.781   3.496  0.4410  0.8668 -1.6090
 2519TIP3    H2 7522   5.310   0.831   3.417 -2.9731  0.0437  2.6616
 2520TIP3   OH2 7523   0.138   5.386   2.744  0.2281  0.3324 -0.3093
 2520TIP3    H1 7524   0.056   5.379   2.793  1.1834 -1.6044  1.1616
 2520TIP3    H2 7525   0.112   5.400   2.653 -1.8175 -1.8336 -0.1471
 2521TIP3   OH2 7526   1.097   6.107   0.696 -0.0421  0.3597  0.1075
 2521TIP3    H1 7527   1.126   6.140   0.611 -1.3458  1.1280 -0.0621
 2521TIP3    H2 7528   1.018   6.056   0.676  1.8860 -3.0090  0.3490
 2522TIP3   OH2 7529   4.554   1.156   0.762  0.2552  0.7092  0.5408
 2522TIP3    H1 7530   4.630   1.187   0.811  1.0238  1.2398 -0.9285
 2522TIP3    H2 7531   4.491   1.129   0.829  1.1518  1.6580  1.8027
 2523TIP3   OH2 7532   4.407   2.854   2.056 -0.1233  0.6315 -0.4624
 2523TIP3    H1 7533   4.384   2.947   2.066  1.3895  1.1175 -1.2821
 2523TIP3    H2 7534   4.502   2.854   2.046  0.0142 -1.1117  0.5223
 2524TIP3   OH2 7535   3.522   2.422   2.100 -0.5483 -0.1945 -0.5637
 2524TIP3    H1 7536   3.538   2.511   2.132  0.8560 -0.8559  0.7382
 2524TIP3    H2 7537   3.427   2.414   2.098 -0.7656  0.4067  2.2248
 2525TIP3   OH2 7538   4.309   0.753   2.320  0.3114 -0.0856  0.5443
 2525TIP3    H1 7539   4.244   0.692   2.353  0.6082  0.5305  2.3848
 2525TIP3    H2 7540   4.379   0.753   2.386  1.2230  0.7771 -0.3717
 2526TIP3   OH2 7541   3.505   2.791   1.060  0.5812 -0.0946  0.1694
 2526TIP3    H1 7542   3.424   2.743   1.079  0.9245 -1.2396 -1.1066
 2526TIP3    H2 7543   3.499   2.813   0.967  1.6866 -0.1284  0.0717
 2527TIP3   OH2 7544   5.375   0.489   1.837 -0.2476 -0.0342 -0.1952
 2527TIP3    H1 7545   5.336   0.559   1.891  0.0052 -0.4308  0.5171
 2527TIP3    H2 7546   5.300   0.434   1.814 -0.2075 -0.4714  0.6820
 2528TIP3   OH2 7547   4.618   2.772   0.212 -0.1918 -0.2370  0.0795
 2528TIP3    H1 7548   4.705   2.773   0.173 -0.3334 -0.8406 -0.2534
 2528TIP3    H2 7549   4.621   2.702   0.277 -0.7813 -1.0747 -0.7700
 2529TIP3   OH2 7550   0.310   3.216   5.766 -0.0332 -0.4695  0.3210
 2529TIP3    H1 7551   0.307   3.200   5.861 -0.0021 -1.5292  0.1564
 2529TIP3    H2 7552   0.381   3.279   5.755  1.2001 -1.6814  0.8585
 2530TIP3   OH2 7553   5.883   2.830   1.919  0.2273  0.7134 -0.0701
 2530TIP3    H1 7554   5.802   2.796   1.882 -1.0527  0.7488  2.4867
 2530TIP3    H2 7555   5.862   2.920   1.943  0.5905  0.3462  1.7399
 2531TIP3   OH2 7556   1.272   1.737   4.469  0.0925 -0.5247  0.7401
 2531TIP3    H1 7557   1.319   1.746   4.552  1.9175  0.6203 -0.3348
 2531TIP3    H2 7558   1.315   1.663   4.426  3.0988  2.2006 -1.4479
 2532TIP3   OH2 7559   0.212   1.692   1.183 -0.3748 -0.4726 -0.5449
 2532TIP3    H1 7560   0.195   1.782   1.209 -1.9437 -0.7315 -0.5867
 2532TIP3    H2 7561   0.125   1.654   1.169  0.2444 -2.1059 -0.1391
 2533TIP3   OH2 7562   4.800   2.247   4.026  0.4494 -0.0552  0.3356
 2533TIP3    H1 7563   4.820   2.212   3.939  0.2101 -0.4565  0.4421
 2533TIP3    H2 7564   4.849   2.191   4.086 -1.3985 -1.4154  0.6479
 2534TIP3   OH2 7565   1.076   2.094   4.483 -0.5206  0.4286 -0.0650
 2534TIP3    H1 7566   1.016   2.032   4.441  2.0338  0.5901 -4.7195
 2534TIP3    H2 7567   1.042   2.180   4.459  0.3471  0.5455 -0.9799
 2535TIP3   OH2 7568   4.173   3.568   4.308  0.6183  0.0654  0.3769
 2535TIP3    H1 7569   4.100   3.554   4.247 -0.8155 -2.1822  2.4501
 2535TIP3    H2 7570   4.251   3.563   4.253 -0.6791  1.2176 -1.7178
 2536TIP3   OH2 7571   3.689   5.421   3.201 -0.2736 -0.4172 -0.6293
 2536TIP3    H1 7572   3.657   5.473   3.127  1.4541  0.2858 -0.9410
 2536TIP3    H2 7573   3.633   5.343   3.203 -0.7436 -0.1451 -2.2840
 2537TIP3   OH2 7574   2.726   4.877   5.199 -0.4440 -0.1468  1.0511
 2537TIP3    H1 7575   2.806   4.842   5.237 -0.5499 -2.3206 -0.5694
 2537TIP3    H2 7576   2.756   4.944   5.138 -0.0956  1.0819  2.4970
 2538TIP3   OH2 7577   6.575   4.619   5.748  0.1346 -0.5674  0.2853
 2538TIP3    H1 7578   6.501   4.578   5.703  0.2206 -1.1519  0.6514
 2538TIP3    H2 7579   6.628   4.545   5.778 -0.9236 -0.3433  3.0594
 2539TIP3   OH2 7580   1.324   2.620   2.732 -0.0676 -0.4341  1.0235
 2539TIP3    H1 7581   1.397   2.678   2.755 -0.6935  1.7878 -1.9877
 2539TIP3    H2 7582   1.365   2.535   2.716  1.6186  0.3388  1.0346
 2540TIP3   OH2 7583   1.532   5.437   2.125  0.2505  0.0936  0.2807
 2540TIP3    H1 7584   1.484   5.412   2.046  0.9945  1.2557 -0.5800
 2540TIP3    H2 7585   1.489   5.389   2.195 -0.6726 -0.6891 -0.7731
 2541TIP3   OH2 7586   3.506   5.536   3.843 -0.1400  0.2878 -0.6536
 2541TIP3    H1 7587   3.492   5.514   3.751 -1.1124  0.8625 -0.6599
 2541TIP3    H2 7588   3.442   5.482   3.890  0.0102  0.3634 -0.3629
 2542TIP3   OH2 7589   6.932   3.765   2.394  0.2689  0.4768 -0.6695
 2542TIP3    H1 7590   6.874   3.817   2.450  1.2054  0.5027  0.3169
 2542TIP3    H2 7591   6.922   3.802   2.307  1.0645  2.4675  0.0319
 2543TIP3   OH2 7592   4.077   4.928   5.727 -0.0877  0.2059  0.1982
 2543TIP3    H1 7593   4.051   4.902   5.639 -1.5093  0.0379  0.6371
 2543TIP3    H2 7594   4.049   4.855   5.783 -2.7081  1.8340  1.2398
 2544TIP3   OH2 7595   2.487   6.413   2.581  0.3780 -0.1266 -1.0251
 2544TIP3    H1 7596   2.517   6.483   2.523 -0.4184 -1.1817 -2.7966
 2544TIP3    H2 7597   2.405   6.384   2.542  0.8214 -2.2308 -0.4888
 2545TIP3   OH2 7598   5.193   5.167   4.847  0.2355 -0.0147 -0.4856
 2545TIP3    H1 7599   5.236   5.237   4.796  0.1063  3.5012  3.6414
 2545TIP3    H2 7600   5.261   5.137   4.908 -0.8883 -0.4344  0.5903
 2546TIP3   OH2 7601   0.268   5.199   1.208  0.0357  0.5023  0.1368
 2546TIP3    H1 7602   0.300   5.213   1.298  1.2257  0.6467 -0.2917
 2546TIP3    H2 7603   0.344   5.166   1.160 -1.2247 -2.1834 -0.2309
 2547TIP3   OH2 7604   4.646   5.243   4.446 -0.1877 -0.1948 -0.0803
 2547TIP3    H1 7605   4.736   5.229   4.416  0.5859 -1.3361  2.4667
 2547TIP3    H2 7606   4.593   5.190   4.387  1.0983 -1.4151 -0.2096
 2548TIP3   OH2 7607   4.481   6.734   1.067 -0.0653 -0.5167  0.2761
 2548TIP3    H1 7608   4.437   6.738   0.982 -0.1032 -0.6581  0.2887
 2548TIP3    H2 7609   4.441   6.805   1.118 -0.2861 -0.6478  0.2900
 2549TIP3   OH2 7610   0.918   1.681   2.439  0.4565 -0.5550  0.0046
 2549TIP3    H1 7611   0.983   1.726   2.492  0.1098  1.2293 -0.9753
 2549TIP3    H2 7612   0.853   1.649   2.501  0.2245  1.1905  0.7254
 2550TIP3   OH2 7613   5.124   3.206   1.228  0.7552  0.1191  0.7985
 2550TIP3    H1 7614   5.212   3.203   1.192  0.6266 -0.9707  0.5382
 2550TIP3    H2 7615   5.070   3.159   1.164  0.4582 -1.5384  2.2117
 2551TIP3   OH2 7616   2.876   4.640   1.622 -0.0455 -0.3755  0.2175
 2551TIP3    H1 7617   2.785   4.668   1.612 -0.0510 -0.5849 -0.3843
 2551TIP3    H2 7618   2.927   4.716   1.595 -0.0453 -0.3338  0.3373
 2552TIP3   OH2 7619   4.629   4.113   1.734 -0.4427  0.1392  0.0924
 2552TIP3    H1 7620   4.572   4.119   1.810 -0.6893  1.9522 -0.1848
 2552TIP3    H2 7621   4.646   4.204   1.710  0.9230 -0.3829 -1.0591
 2553TIP3   OH2 7622   1.493   6.356   4.198 -0.3002 -0.2709 -0.1267
 2553TIP3    H1 7623   1.547   6.431   4.172 -1.1589  0.2680 -0.4236
 2553TIP3    H2 7624   1.548   6.280   4.181  0.6209  0.2914  0.2480
 2554TIP3   OH2 7625   6.786   2.136   4.372 -0.6449 -0.3583  0.3907
 2554TIP3    H1 7626   6.702   2.130   4.326  0.1135  0.7395 -1.2421
 2554TIP3    H2 7627   6.835   2.202   4.323  1.1459 -0.9109  1.3594
 2555TIP3   OH2 7628   1.974   4.659   2.280 -0.5235 -0.4887  0.2765
 2555TIP3    H1 7629   1.909   4.624   2.219  0.2472 -1.0190 -0.2665
 2555TIP3    H2 7630   1.997   4.744   2.243 -0.6191 -0.4751  0.2478
 2556TIP3   OH2 7631   1.250   4.281   1.836 -0.2552 -0.0481 -0.1670
 2556TIP3    H1 7632   1.163   4.319   1.822 -0.9007 -0.6067  1.8847
 2556TIP3    H2 7633   1.244   4.193   1.800 -0.4279  0.0479 -0.3735
 2557TIP3   OH2 7634   6.548   6.530   0.619  0.0608 -0.4589  0.4356
 2557TIP3    H1 7635   6.494   6.466   0.665 -1.3314  0.1884 -0.2197
 2557TIP3    H2 7636   6.577   6.590   0.688  0.8740 -1.4130  0.9577
 2558TIP3   OH2 7637   4.677   0.687   3.745 -0.1592 -0.3431 -0.2474
 2558TIP3    H1 7638   4.654   0.733   3.826 -0.6422 -0.2108 -0.4565
 2558TIP3    H2 7639   4.603   0.703   3.687 -0.0189 -0.8167 -0.5613
 2559TIP3   OH2 7640   3.027   6.092   0.181 -0.3636 -0.1428  0.6268
 2559TIP3    H1 7641   2.966   6.137   0.240 -0.3712 -1.5480  1.7387
 2559TIP3    H2 7642   2.973   6.026   0.137 -0.0521 -0.0454  0.0852
 2560TIP3   OH2 7643   2.397   2.347   5.570  0.1890 -0.2754 -0.3294
 2560TIP3    H1 7644   2.479   2.396   5.558 -0.0109  0.3767  0.8211
 2560TIP3    H2 7645   2.406   2.306   5.657 -0.4490 -0.7032 -0.4590
 2561TIP3   OH2 7646   3.738   5.185   3.041  0.1243  0.3771  0.0934
 2561TIP3    H1 7647   3.733   5.147   3.129 -0.9014  1.6891  0.6392
 2561TIP3    H2 7648   3.820   5.234   3.042 -0.3633  1.2137  0.6978
 2562TIP3   OH2 7649   2.716   5.977   5.080 -0.2097 -0.4603 -0.6143
 2562TIP3    H1 7650   2.699   5.919   5.153 -3.1428  1.8545  0.7613
 2562TIP3    H2 7651   2.794   6.027   5.106 -0.9964  0.0747  0.8012
 2563TIP3   OH2 7652   5.688   1.777   4.709 -0.6039  0.5155 -0.0177
 2563TIP3    H1 7653   5.693   1.866   4.745  0.7416  0.1525  0.7833
 2563TIP3    H2 7654   5.595   1.761   4.696 -0.9374  1.6579  0.8283
 2564TIP3   OH2 7655   2.242   2.995   2.343  0.0005 -0.3897 -0.2683
 2564TIP3    H1 7656   2.318   2.949   2.379  0.1116 -0.8930 -1.1214
 2564TIP3    H2 7657   2.278   3.073   2.301 -0.1023  0.0613  0.4622
 2565TIP3   OH2 7658   6.855   3.723   5.249 -0.0127 -0.4654 -0.0163
 2565TIP3    H1 7659   6.872   3.709   5.156 -1.3089 -1.4765 -0.1375
 2565TIP3    H2 7660   6.923   3.673   5.294  1.4303  1.0930 -0.3696
 2566TIP3   OH2 7661   6.511   5.718   0.481 -0.1922 -0.4689 -0.0940
 2566TIP3    H1 7662   6.443   5.721   0.414  1.0017 -0.2071 -1.3512
 2566TIP3    H2 7663   6.508   5.805   0.521  0.1771 -0.0291 -0.9818
 2567TIP3   OH2 7664   5.397   3.611   4.975  0.5380 -0.0093 -0.1830
 2567TIP3    H1 7665   5.467   3.553   5.004 -0.1178 -0.3352  0.7926
 2567TIP3    H2 7666   5.408   3.690   5.028  0.9792  0.4815 -0.9862
 2568TIP3   OH2 7667   7.145   3.146   1.360  0.7740  0.0290  0.1665
 2568TIP3    H1 7668   7.186   3.192   1.433 -0.0339  0.2807  0.4673
 2568TIP3    H2 7669   7.219   3.106   1.313  1.2897 -0.3278  1.2367
 2569TIP3   OH2 7670   0.022   5.208   0.470 -0.0934  0.0709 -0.2575
 2569TIP3    H1 7671  -0.003   5.259   0.546  0.6142  0.2591 -0.1426
 2569TIP3    H2 7672   0.038   5.120   0.504  2.6333  0.7003  0.2895
 2570TIP3   OH2 7673   1.992   0.003   2.111 -0.1205  0.0951 -0.2714
 2570TIP3    H1 7674   1.938  -0.066   2.072 -0.3226 -0.2108  0.5384
 2570TIP3    H2 7675   1.943   0.084   2.094 -0.5431 -0.1124 -0.0559
 2571TIP3   OH2 7676   1.319   1.277   0.116 -0.1609  0.0392 -0.4851
 2571TIP3    H1 7677   1.398   1.284   0.063  1.4019 -1.3338  1.4993
 2571TIP3    H2 7678   1.288   1.367   0.125  1.5529  0.6936 -0.7845
 2572TIP3   OH2 7679   0.590   5.731   4.976  0.9274  0.1178  0.7290
 2572TIP3    H1 7680   0.684   5.729   4.957  0.8982 -0.7404  0.6368
 2572TIP3    H2 7681   0.552   5.781   4.904  0.8742 -2.6721 -1.3833
 2573TIP3   OH2 7682   2.551   2.373   1.791 -0.1636  0.0474  0.5911
 2573TIP3    H1 7683   2.493   2.417   1.853 -2.3227 -1.1295 -0.4540
 2573TIP3    H2 7684   2.608   2.442   1.757 -1.3729  1.4135  1.2350
 2574TIP3   OH2 7685   6.215   4.293   1.524 -0.0961  0.4324 -0.0341
 2574TIP3    H1 7686   6.159   4.350   1.472  0.6078  1.2393  0.0590
 2574TIP3    H2 7687   6.229   4.341   1.606 -1.8199 -1.1478  1.2878
 2575TIP3   OH2 7688   2.396   5.401   2.940 -0.3294 -0.1384  0.1261
 2575TIP3    H1 7689   2.397   5.484   2.893  1.1325 -0.9506 -1.3701
 2575TIP3    H2 7690   2.358   5.339   2.879  0.7432 -1.0318  0.3346
 2576TIP3   OH2 7691   0.635   2.291   1.030  0.2870 -0.4724  0.3463
 2576TIP3    H1 7692   0.571   2.315   1.097 -0.7076 -0.6072 -0.5436
 2576TIP3    H2 7693   0.590   2.227   0.976  0.8823  0.0664 -0.8112
 2577TIP3   OH2 7694   7.119   5.030   1.358 -0.7200 -0.0110 -0.0452
 2577TIP3    H1 7695   7.141   5.031   1.265 -0.7352 -2.6595 -0.1532
 2577TIP3    H2 7696   7.112   5.123   1.382 -0.1720  0.7511 -2.5236
 2578TIP3   OH2 7697   6.019   6.756   4.425  0.3675 -0.0129 -0.1289
 2578TIP3    H1 7698   6.035   6.699   4.500 -1.2496  0.3828  0.5579
 2578TIP3    H2 7699   5.934   6.729   4.392  2.4968 -2.7328 -4.2452
 2579TIP3   OH2 7700   4.760   1.170   0.987  0.4123  0.1043  0.4333
 2579TIP3    H1 7701   4.833   1.132   1.036 -0.0505  0.8389  1.7434
 2579TIP3    H2 7702   4.755   1.261   1.018  1.0365  1.0748 -2.0841
 2580TIP3   OH2 7703   4.681   5.028   0.693 -0.1049  0.1888 -0.3404
 2580TIP3    H1 7704   4.627   4.973   0.750  1.3731 -1.4525 -0.4340
 2580TIP3    H2 7705   4.759   4.975   0.676  1.2611  2.2125 -0.7171
 2581TIP3   OH2 7706   0.800   3.830   3.327 -0.2554 -0.0912  0.2210
 2581TIP3    H1 7707   0.845   3.747   3.309  0.8506  0.8496 -1.5931
 2581TIP3    H2 7708   0.840   3.862   3.408 -1.0085 -1.4794  1.2061
 2582TIP3   OH2 7709   4.555   5.658   4.541 -0.8433  0.1428 -0.7814
 2582TIP3    H1 7710   4.493   5.597   4.500  0.4440 -1.1541 -0.8921
 2582TIP3    H2 7711   4.591   5.709   4.469 -2.0483  1.1841 -0.6706
 2583TIP3   OH2 7712   2.910   5.900   2.935  0.5866  0.4327  0.2029
 2583TIP3    H1 7713   2.871   5.830   2.882  3.1816  0.1498 -1.5416
 2583TIP3    H2 7714   2.947   5.961   2.870  1.4872  1.5484  1.6905
 2584TIP3   OH2 7715   4.592   5.570   0.127  0.0775 -0.8101 -0.2263
 2584TIP3    H1 7716   4.503   5.547   0.151  0.1665 -0.9684 -0.0445
 2584TIP3    H2 7717   4.632   5.601   0.208 -0.2782  0.7651 -0.6369
 2585TIP3   OH2 7718   4.079   1.902   1.114 -0.2251 -0.3923  0.4380
 2585TIP3    H1 7719   4.001   1.909   1.059 -0.2365 -0.2131  0.4764
 2585TIP3    H2 7720   4.059   1.829   1.173 -0.2783 -0.4818  0.3115
 2586TIP3   OH2 7721   3.026   3.227   3.344  0.0891 -0.3095  0.0949
 2586TIP3    H1 7722   3.077   3.253   3.267 -0.4479 -1.0824 -0.5475
 2586TIP3    H2 7723   2.938   3.210   3.309 -0.5125  0.6018  1.1028
 2587TIP3   OH2 7724   2.656   3.761   1.393  0.0880  0.1897 -0.6448
 2587TIP3    H1 7725   2.628   3.692   1.453 -0.6051  0.8392 -0.2026
 2587TIP3    H2 7726   2.575   3.808   1.371  0.8404  2.7184  1.3902
 2588TIP3   OH2 7727   0.136   4.523   4.403 -0.0031 -0.0529  0.8756
 2588TIP3    H1 7728   0.097   4.466   4.469  1.0667 -0.4152  1.2071
 2588TIP3    H2 7729   0.106   4.486   4.320 -0.4953 -0.2228  1.1214
 2589TIP3   OH2 7730   2.813   4.193   3.806 -0.2130  0.0790  0.2065
 2589TIP3    H1 7731   2.903   4.200   3.838 -0.7568  0.1581  1.8558
 2589TIP3    H2 7732   2.761   4.176   3.885 -1.7209  0.6563 -0.6056
 2590TIP3   OH2 7733   2.547   3.909   5.202 -0.5299 -0.3358 -0.1026
 2590TIP3    H1 7734   2.592   3.916   5.118  0.5960  0.5745  0.5463
 2590TIP3    H2 7735   2.455   3.899   5.179 -0.2127 -0.3865 -1.4427
 2591TIP3   OH2 7736   4.097   1.479   1.974  0.1721  0.0940  0.0833
 2591TIP3    H1 7737   4.140   1.516   2.051 -0.7398 -1.8521  1.5875
 2591TIP3    H2 7738   4.004   1.475   1.997  0.2304 -3.3308  0.1775
 2592TIP3   OH2 7739   6.335   3.321   0.555 -0.5511  0.3972  0.5078
 2592TIP3    H1 7740   6.265   3.386   0.543  1.0154  1.6718 -3.0545
 2592TIP3    H2 7741   6.304   3.244   0.508 -0.0455  0.5906 -0.1516
 2593TIP3   OH2 7742   6.820   1.680   4.481 -0.3679  0.2613 -0.4700
 2593TIP3    H1 7743   6.891   1.616   4.491 -0.6962 -0.4391 -2.2161
 2593TIP3    H2 7744   6.864   1.765   4.482 -0.0171  0.1977  2.9238
 2594TIP3   OH2 7745   5.580   4.382   2.686 -0.5639  0.3691 -0.2107
 2594TIP3    H1 7746   5.562   4.475   2.673  0.8181  0.8022  0.7094
 2594TIP3    H2 7747   5.667   4.368   2.647 -0.2222 -0.2484  0.7288
 2595TIP3   OH2 7748   5.180   5.166   5.757 -0.7804 -0.1346 -0.0561
 2595TIP3    H1 7749   5.233   5.185   5.680 -0.8194 -0.6086 -0.2000
 2595TIP3    H2 7750   5.243   5.148   5.827 -0.7354  0.9628  0.2004
 2596TIP3   OH2 7751   0.480   5.097   5.495 -0.4446  0.4094  0.0432
 2596TIP3    H1 7752   0.473   5.091   5.590 -0.3896  0.7078  0.0654
 2596TIP3    H2 7753   0.560   5.147   5.480  0.9039 -1.6875 -0.1911
 2597TIP3   OH2 7754   7.100   1.748   4.318 -0.6278  0.2235 -0.0978
 2597TIP3    H1 7755   7.047   1.827   4.329 -1.4247 -0.3498  0.2797
 2597TIP3    H2 7756   7.186   1.781   4.289 -1.3184  1.1328 -1.1968
 2598TIP3   OH2 7757   6.799   4.110   3.573 -0.1210  0.2510  0.1818
 2598TIP3    H1 7758   6.844   4.032   3.542  1.9684  1.2242  0.5565
 2598TIP3    H2 7759   6.744   4.080   3.646  0.9719 -0.8087  0.5997
 2599TIP3   OH2 7760   0.669   3.674   3.735  0.4808  0.0323 -0.1643
 2599TIP3    H1 7761   0.732   3.746   3.747 -0.5200  1.2520 -1.7006
 2599TIP3    H2 7762   0.652   3.674   3.640 -0.4453 -1.4839 -0.0250
 2600TIP3   OH2 7763   5.220   4.772   0.344 -0.1045 -0.1954 -0.1668
 2600TIP3    H1 7764   5.276   4.777   0.266  0.0479 -1.0853 -0.1221
 2600TIP3    H2 7765   5.280   4.780   0.418 -0.2999  1.1344 -0.1205
 2601TIP3   OH2 7766   6.287   3.118   4.172 -0.2634  0.3732  0.0831
 2601TIP3    H1 7767   6.363   3.062   4.155 -0.6956  0.1052 -1.1174
 2601TIP3    H2 7768   6.297   3.190   4.109 -1.1321  0.1868 -0.2838
 2602TIP3   OH2 7769   3.601   5.789   1.013 -0.4844  0.2448  0.1779
 2602TIP3    H1 7770   3.573   5.698   1.004  1.2473 -0.2410 -0.8195
 2602TIP3    H2 7771   3.630   5.796   1.104  1.8135 -1.0003 -0.3897
 2603TIP3   OH2 7772   5.857   0.094   0.167  0.0780  0.0268 -0.4402
 2603TIP3    H1 7773   5.922   0.028   0.139 -0.0994 -0.4595  0.2559
 2603TIP3    H2 7774   5.895   0.131   0.247  0.0255  0.5451 -0.6582
 2604TIP3   OH2 7775   3.235   2.726   2.224 -0.4941  0.4196 -0.1048
 2604TIP3    H1 7776   3.165   2.667   2.251  0.3383 -0.3111  0.5259
 2604TIP3    H2 7777   3.226   2.733   2.129 -2.1395  1.2886  0.0848
 2605TIP3   OH2 7778   3.474   0.308   0.625  0.1987 -0.2549 -0.3590
 2605TIP3    H1 7779   3.481   0.372   0.554  0.4535 -0.4096 -0.4762
 2605TIP3    H2 7780   3.454   0.361   0.702 -0.2776 -0.1041 -0.5783
 2606TIP3   OH2 7781   6.615   6.061   0.867 -0.0375  0.0042 -0.3776
 2606TIP3    H1 7782   6.583   6.039   0.780 -0.6043  1.5082 -0.5822
 2606TIP3    H2 7783   6.580   5.993   0.924 -1.2630  0.0522 -1.0345
 2607TIP3   OH2 7784   0.626   6.443   2.640 -0.0436 -0.0702  0.4184
 2607TIP3    H1 7785   0.623   6.354   2.677  1.6615 -0.2177  0.2524
 2607TIP3    H2 7786   0.627   6.500   2.717  0.1513 -0.2487  0.5505
 2608TIP3   OH2 7787   1.985   1.973   2.042  0.6903 -0.1832  0.4183
 2608TIP3    H1 7788   1.895   2.004   2.046  1.2341  1.5437 -0.0262
 2608TIP3    H2 7789   1.987   1.913   1.967  0.2041  0.8848 -0.4802
 2609TIP3   OH2 7790   1.373   4.268   1.280 -0.3959 -0.3688 -0.2980
 2609TIP3    H1 7791   1.329   4.277   1.364  0.7759  1.4153  0.1842
 2609TIP3    H2 7792   1.366   4.175   1.259 -1.0966 -0.7815  1.5562
 2610TIP3   OH2 7793   6.926   2.804   3.819  0.3963 -0.3156  0.0981
 2610TIP3    H1 7794   6.883   2.804   3.905  0.2029  1.1481  0.0378
 2610TIP3    H2 7795   6.881   2.736   3.769 -0.0517 -0.6167  0.8941
 2611TIP3   OH2 7796   2.515   4.469   1.393  0.3044 -0.1165 -1.1686
 2611TIP3    H1 7797   2.430   4.473   1.438  0.7968  1.2849 -0.2844
 2611TIP3    H2 7798   2.570   4.415   1.449  1.3985  2.8920  0.9443
 2612TIP3   OH2 7799   2.832   2.982   0.020 -0.1654  0.0094  0.2158
 2612TIP3    H1 7800   2.854   2.904   0.071 -0.6219 -1.0945 -1.2060
 2612TIP3    H2 7801   2.847   3.055   0.080 -1.2967 -1.2505  2.1667
 2613TIP3   OH2 7802   6.414   1.660   3.769  0.1704  0.4858  0.2485
 2613TIP3    H1 7803   6.351   1.682   3.700  0.9267  1.2048 -0.2404
 2613TIP3    H2 7804   6.367   1.599   3.826 -0.6301  0.2412 -0.6411
 2614TIP3   OH2 7805   2.893   3.319   4.946 -0.3388  0.1653  0.4215
 2614TIP3    H1 7806   2.976   3.292   4.907 -0.2472 -0.1153  0.8005
 2614TIP3    H2 7807   2.885   3.412   4.925 -0.0087  0.1516  0.2398
 2615TIP3   OH2 7808   5.807   5.165   5.756 -0.8621  0.2225 -0.0985
 2615TIP3    H1 7809   5.724   5.143   5.799 -1.1069 -0.7935 -1.0281
 2615TIP3    H2 7810   5.863   5.090   5.773 -0.9246 -0.1471 -1.3970
 2616TIP3   OH2 7811   6.333   5.932   5.340  0.1231  0.3053  0.4541
 2616TIP3    H1 7812   6.292   5.893   5.418  1.5165 -2.5028 -0.1028
 2616TIP3    H2 7813   6.338   6.025   5.360  0.1633 -0.2684  3.6034
 2617TIP3   OH2 7814   3.718   0.359   0.935 -0.6317 -0.1661  0.1015
 2617TIP3    H1 7815   3.653   0.289   0.947  1.1744 -1.6516  2.1772
 2617TIP3    H2 7816   3.684   0.433   0.986 -1.5641 -0.2688 -0.3569
 2618TIP3   OH2 7817   3.155   2.695   0.705 -0.1640  0.0874 -0.3070
 2618TIP3    H1 7818   3.202   2.680   0.623 -0.6029 -0.7263 -0.4204
 2618TIP3    H2 7819   3.066   2.665   0.688 -0.1575 -0.4937  0.5818
 2619TIP3   OH2 7820   3.807   1.727   0.175  0.6681 -0.6395 -0.1385
 2619TIP3    H1 7821   3.861   1.708   0.251  0.7243 -0.4545 -0.1312
 2619TIP3    H2 7822   3.729   1.673   0.186 -0.0009  0.4733  0.8074
 2620TIP3   OH2 7823   5.974   3.558   4.692  0.8051 -0.7104  0.5815
 2620TIP3    H1 7824   6.042   3.491   4.690  1.5308  0.0186 -0.1780
 2620TIP3    H2 7825   5.906   3.525   4.633  0.3316 -1.5882  1.5859
 2621TIP3   OH2 7826   2.378   6.337   1.430 -0.8298 -0.1127  0.0419
 2621TIP3    H1 7827   2.360   6.244   1.415 -0.4344 -0.4245  1.3642
 2621TIP3    H2 7828   2.459   6.353   1.382  0.1194 -0.9492  1.2884
 2622TIP3   OH2 7829   1.910   3.411   0.780  0.3408  0.1917 -0.0724
 2622TIP3    H1 7830   1.843   3.447   0.837 -0.6987 -1.5288 -0.1228
 2622TIP3    H2 7831   1.981   3.384   0.839 -1.0922 -2.3934  0.6342
 2623TIP3   OH2 7832   1.070   4.415   0.764 -0.3086  0.1597  0.3095
 2623TIP3    H1 7833   1.027   4.483   0.816  1.2301  2.5344 -1.3072
 2623TIP3    H2 7834   1.091   4.346   0.827 -1.9016  1.1569  2.0503
 2624TIP3   OH2 7835   1.216   4.579   0.585  0.0013  0.0069 -0.2115
 2624TIP3    H1 7836   1.278   4.509   0.564  0.3225  0.4193 -0.6442
 2624TIP3    H2 7837   1.151   4.536   0.640  0.5642 -0.4788  0.0946
 2625TIP3   OH2 7838   2.150   6.682   4.032 -0.3055  0.5782 -0.0037
 2625TIP3    H1 7839   2.131   6.655   4.122 -0.8109  3.2777  0.7697
 2625TIP3    H2 7840   2.078   6.643   3.981 -2.1680  2.0451  1.3597
 2626TIP3   OH2 7841   5.483   0.272   4.621 -0.2663 -0.1406 -0.2150
 2626TIP3    H1 7842   5.417   0.204   4.638 -1.7039  1.0768 -0.7407
 2626TIP3    H2 7843   5.528   0.243   4.542 -0.6195 -0.6695 -0.2250
 2627TIP3   OH2 7844   2.294   4.918   1.066  0.0846 -0.0633  0.8219
 2627TIP3    H1 7845   2.334   4.980   1.127  1.5611 -2.7140  2.7704
 2627TIP3    H2 7846   2.227   4.873   1.117 -0.9296 -0.1681 -0.5224
 2628TIP3   OH2 7847   5.436   5.856   1.188 -0.4852  0.2341 -0.2652
 2628TIP3    H1 7848   5.408   5.872   1.098 -1.2901  0.2223 -0.0256
 2628TIP3    H2 7849   5.409   5.766   1.206 -0.4597  0.2865  0.0416
 2629TIP3   OH2 7850   6.543   6.753   0.197 -0.2123 -0.0068  0.1433
 2629TIP3    H1 7851   6.611   6.717   0.255 -0.9509 -0.5675  0.6712
 2629TIP3    H2 7852   6.461   6.735   0.242 -0.7099  0.8896 -0.3714
 2630TIP3   OH2 7853   4.827   3.921   4.287  0.3968 -1.1447 -0.5225
 2630TIP3    H1 7854   4.847   3.951   4.375  2.2092 -2.0550 -0.5671
 2630TIP3    H2 7855   4.810   4.001   4.237  0.5348 -0.5410  0.3729
 2631TIP3   OH2 7856   1.463   3.754   1.045 -0.1204  0.1563  0.6578
 2631TIP3    H1 7857   1.489   3.698   1.117  0.3879  0.0193  0.3753
 2631TIP3    H2 7858   1.521   3.729   0.973 -0.7194  0.1871  0.1571
 2632TIP3   OH2 7859   6.661   5.777   4.779  0.2381  0.1078  0.0096
 2632TIP3    H1 7860   6.659   5.790   4.874  0.2532 -0.1085  0.0409
 2632TIP3    H2 7861   6.753   5.756   4.760  0.1826 -0.1202 -0.0136
 2633TIP3   OH2 7862   5.603   1.353   2.818 -0.3988 -0.2369  0.1318
 2633TIP3    H1 7863   5.650   1.434   2.799 -1.3802  0.5985  1.1184
 2633TIP3    H2 7864   5.620   1.337   2.911 -0.0408 -1.2997 -0.1009
 2634TIP3   OH2 7865   3.790   5.349   2.088 -0.3073  0.0565 -0.5586
 2634TIP3    H1 7866   3.814   5.301   2.167 -1.7681  0.4029  0.1231
 2634TIP3    H2 7867   3.743   5.284   2.034  1.0841 -0.3087 -1.3773
 2635TIP3   OH2 7868   2.343   0.838   2.859  0.7609  0.0630 -0.4564
 2635TIP3    H1 7869   2.394   0.918   2.873  1.4608 -0.7441  2.2723
 2635TIP3    H2 7870   2.398   0.783   2.804  0.6969  1.0433 -1.5323
 2636TIP3   OH2 7871   4.122   0.434   0.212  0.1760 -0.4099  0.0060
 2636TIP3    H1 7872   4.171   0.499   0.264 -0.7278  1.7628 -1.7019
 2636TIP3    H2 7873   4.048   0.411   0.267 -0.0651  0.8486  0.2473
 2637TIP3   OH2 7874   0.950   6.245   5.617 -0.4049 -0.0949 -0.1106
 2637TIP3    H1 7875   0.963   6.154   5.590  1.1401  0.2995 -0.7909
 2637TIP3    H2 7876   0.876   6.241   5.678 -0.4281 -1.7865 -0.1902
 2638TIP3   OH2 7877   1.022   2.722   5.426  0.4771 -0.0355 -0.2045
 2638TIP3    H1 7878   0.973   2.805   5.425  2.3945  1.1599 -0.8874
 2638TIP3    H2 7879   1.082   2.729   5.351 -1.3502 -3.3816 -2.1950
 2639TIP3   OH2 7880   3.817   0.670   2.774  0.3078 -0.4294  0.0005
 2639TIP3    H1 7881   3.839   0.577   2.771 -1.3074 -0.9357  1.5066
 2639TIP3    H2 7882   3.736   0.678   2.723 -0.3084 -0.1554  0.9669
 2640TIP3   OH2 7883   2.075   0.867   3.853 -0.1869 -0.7435  0.3173
 2640TIP3    H1 7884   2.082   0.962   3.839 -1.3360 -0.3705  1.9281
 2640TIP3    H2 7885   2.078   0.830   3.765  2.4679  0.5760 -0.2431
 2641TIP3   OH2 7886   2.481   4.593   0.132 -0.2952  0.2458 -0.0420
 2641TIP3    H1 7887   2.406   4.628   0.180  0.6101  0.5408  1.2061
 2641TIP3    H2 7888   2.443   4.554   0.054 -1.7963  0.0681  0.7357
 2642TIP3   OH2 7889   0.831   4.304   4.799 -0.1197 -0.4471 -0.1027
 2642TIP3    H1 7890   0.806   4.289   4.891 -0.9665  0.6214 -0.1410
 2642TIP3    H2 7891   0.750   4.290   4.750  0.5700 -2.1568 -0.8596
 2643TIP3   OH2 7892   6.881   1.044   5.672 -0.3544  0.7333  0.2995
 2643TIP3    H1 7893   6.832   1.120   5.643  1.4163  1.0479 -2.2386
 2643TIP3    H2 7894   6.833   0.969   5.637 -0.7941  0.8093  0.7277
 2644TIP3   OH2 7895   3.189   2.870   0.355  0.4119  0.2648 -0.4107
 2644TIP3    H1 7896   3.260   2.820   0.317  1.2117  1.0860 -0.0443
 2644TIP3    H2 7897   3.232   2.930   0.417 -0.6229  0.5559  0.0547
 2645TIP3   OH2 7898   2.057   1.894   2.309 -0.1170 -0.0630  0.3617
 2645TIP3    H1 7899   2.057   1.923   2.218  1.0406  1.5145  0.8320
 2645TIP3    H2 7900   2.025   1.970   2.359 -0.9971 -0.9884  1.2771
 2646TIP3   OH2 7901   4.604   2.733   2.594 -0.5225 -0.1420 -0.0099
 2646TIP3    H1 7902   4.519   2.773   2.611 -1.5984 -2.0114 -0.6411
 2646TIP3    H2 7903   4.599   2.703   2.503  0.2423 -1.4839  0.3555
 2647TIP3   OH2 7904   0.450   6.622   3.654 -0.2400  0.0620  0.5815
 2647TIP3    H1 7905   0.447   6.571   3.734 -0.6377 -2.3754 -0.9041
 2647TIP3    H2 7906   0.359   6.628   3.625 -0.1869  1.4852  0.6059
 2648TIP3   OH2 7907   7.108   5.880   1.249  0.4779  0.7001 -0.5105
 2648TIP3    H1 7908   7.062   5.822   1.189  0.0566  1.1401 -0.6128
 2648TIP3    H2 7909   7.101   5.967   1.209  1.5128  0.7571 -0.6027
 2649TIP3   OH2 7910   1.843   5.382   3.453 -0.1418  0.0782 -0.0725
 2649TIP3    H1 7911   1.907   5.359   3.386 -0.6959  0.7916 -0.8717
 2649TIP3    H2 7912   1.823   5.474   3.436 -1.7397 -0.2555 -0.1673
 2650TIP3   OH2 7913   1.450   1.568   5.873 -0.2693  0.5640 -0.4724
 2650TIP3    H1 7914   1.443   1.545   5.780 -0.4369  2.5063 -0.9887
 2650TIP3    H2 7915   1.430   1.661   5.876  0.1616  0.6354  1.4772
 2651TIP3   OH2 7916   6.322   1.107   0.380  0.2852  0.7230  0.3148
 2651TIP3    H1 7917   6.338   1.197   0.408  0.2310  0.9685 -0.4095
 2651TIP3    H2 7918   6.228   1.104   0.364  0.3481  0.6589 -0.0561
 2652TIP3   OH2 7919   0.016   5.529   1.039  0.0645 -0.4757  0.5460
 2652TIP3    H1 7920   0.046   5.538   1.130  0.5433 -0.9632  0.4447
 2652TIP3    H2 7921   0.057   5.447   1.009  0.2252 -0.1148 -0.2297
 2653TIP3   OH2 7922   3.813   3.082   4.723 -0.1252 -0.3280  0.1287
 2653TIP3    H1 7923   3.818   3.055   4.815  0.3961  1.7240  0.7693
 2653TIP3    H2 7924   3.873   3.157   4.717 -1.0633  0.3430 -1.5856
 2654TIP3   OH2 7925   5.241   2.626   4.808 -0.5677  0.0371  0.0670
 2654TIP3    H1 7926   5.281   2.542   4.831 -1.4724 -0.4096  0.0422
 2654TIP3    H2 7927   5.303   2.691   4.840  0.4321 -0.6411 -0.4340
 2655TIP3   OH2 7928   5.736   4.555   3.343 -0.5880  0.2643  0.1418
 2655TIP3    H1 7929   5.734   4.586   3.252 -1.3687 -1.6402 -0.5353
 2655TIP3    H2 7930   5.709   4.631   3.395 -0.9497  1.1486 -1.2905
 2656TIP3   OH2 7931   1.109   4.813   3.220 -0.0522 -0.3632  0.0869
 2656TIP3    H1 7932   1.063   4.752   3.277  0.1766 -0.4718  0.1536
 2656TIP3    H2 7933   1.171   4.759   3.171 -1.0797 -0.4702 -1.1532
 2657TIP3   OH2 7934   0.688   6.336   4.343  0.5888 -0.7997 -0.1654
 2657TIP3    H1 7935   0.733   6.266   4.390  0.4240 -1.2036 -0.5988
 2657TIP3    H2 7936   0.726   6.417   4.378  1.4375 -1.1272 -0.3109
 2658TIP3   OH2 7937   6.366   6.024   0.252 -0.1213 -0.4339  0.1544
 2658TIP3    H1 7938   6.448   6.052   0.292 -0.8730  0.0566  1.4178
 2658TIP3    H2 7939   6.325   5.968   0.318 -0.9469 -0.4234 -0.3327
 2659TIP3   OH2 7940   6.075   1.442   5.471 -0.0755 -0.1600 -0.9073
 2659TIP3    H1 7941   5.985   1.473   5.469  0.0420  0.1869 -0.8400
 2659TIP3    H2 7942   6.069   1.355   5.512 -0.3628 -0.0905 -0.8007
 2660TIP3   OH2 7943   6.530   0.975   2.300  0.2846  0.3924 -0.2074
 2660TIP3    H1 7944   6.533   0.935   2.213  1.2016  0.2253 -0.1137
 2660TIP3    H2 7945   6.574   1.060   2.289  0.7271  0.2162  0.1627
 2661TIP3   OH2 7946   1.158   4.873   1.548 -0.0773  0.2580 -0.8538
 2661TIP3    H1 7947   1.089   4.893   1.484 -1.4839 -1.0847  0.1599
 2661TIP3    H2 7948   1.145   4.780   1.569  1.1137  0.3579  0.4824
 2662TIP3   OH2 7949   3.716   0.093   5.410  0.2011 -0.0555 -0.2536
 2662TIP3    H1 7950   3.782   0.157   5.436 -0.3672  1.5577 -2.4813
 2662TIP3    H2 7951   3.663   0.079   5.489 -0.0955  2.8126  0.1381
 2663TIP3   OH2 7952   1.949   1.594   1.601 -0.0260 -0.3186  0.3488
 2663TIP3    H1 7953   1.864   1.637   1.610  1.0344  1.7662  1.0452
 2663TIP3    H2 7954   1.933   1.504   1.627 -2.2025 -0.2069 -0.4158
 2664TIP3   OH2 7955   4.986   1.559   2.273  0.1854 -0.0688 -0.3208
 2664TIP3    H1 7956   4.904   1.557   2.323  0.1960  1.2396 -0.2281
 2664TIP3    H2 7957   5.053   1.578   2.338  0.6550 -1.5070 -0.3299
 2665TIP3   OH2 7958   3.724   0.045   3.681 -0.1726 -0.2834 -0.3184
 2665TIP3    H1 7959   3.679   0.128   3.662  0.4571 -0.1122 -1.1239
 2665TIP3    H2 7960   3.658  -0.022   3.668 -0.0795 -0.0751 -2.0050
 2666TIP3   OH2 7961   2.629   0.423   0.191 -0.5247  0.1608 -0.5235
 2666TIP3    H1 7962   2.646   0.376   0.110 -1.3015  0.2582 -0.7572
 2666TIP3    H2 7963   2.550   0.474   0.173 -0.7101  0.1804  0.2881
 2667TIP3   OH2 7964   0.139   1.383   2.312  0.1460 -0.0565 -0.6264
 2667TIP3    H1 7965   0.140   1.288   2.319  0.3768 -0.0167 -0.1319
 2667TIP3    H2 7966   0.203   1.413   2.376 -0.3541  0.4571 -0.3610
 2668TIP3   OH2 7967   4.573   3.224   1.004 -0.0893  0.4235 -0.0111
 2668TIP3    H1 7968   4.501   3.162   1.017  0.2218  0.1142  0.2539
 2668TIP3    H2 7969   4.530   3.307   0.983 -0.5199  0.2174  0.0467
 2669TIP3   OH2 7970   2.882   2.938   2.259 -0.1453  0.3939  0.4666
 2669TIP3    H1 7971   2.966   2.978   2.240 -0.4418 -0.2121 -2.5424
 2669TIP3    H2 7972   2.822   3.013   2.270  0.2370  0.8183 -0.2775
 2670TIP3   OH2 7973   1.344   2.061   5.383  0.5194 -0.5905 -0.5028
 2670TIP3    H1 7974   1.261   2.072   5.429  0.3666 -1.1108 -0.6393
 2670TIP3    H2 7975   1.382   2.149   5.379 -0.4777 -0.1724 -1.2925
 2671TIP3   OH2 7976   7.180   2.594   3.774 -0.4469 -0.0918  0.7633
 2671TIP3    H1 7977   7.092   2.568   3.802 -1.1804  1.3990  0.0038
 2671TIP3    H2 7978   7.179   2.581   3.679 -0.7839  2.3013  0.3647
 2672TIP3   OH2 7979   5.864   5.355   0.495 -0.1048 -0.6332  0.0840
 2672TIP3    H1 7980   5.951   5.360   0.535  0.0281 -0.2782 -0.2479
 2672TIP3    H2 7981   5.880   5.325   0.406 -0.2518  0.0952 -0.1968
 2673TIP3   OH2 7982   3.814   4.638   0.727 -0.2058  0.1768 -0.3597
 2673TIP3    H1 7983   3.796   4.665   0.637  1.0647 -0.3353 -0.7850
 2673TIP3    H2 7984   3.900   4.595   0.723 -0.5830 -0.7729  0.9074
 2674TIP3   OH2 7985   1.199   6.705   5.609 -0.0827  0.5564 -0.2466
 2674TIP3    H1 7986   1.257   6.665   5.674 -0.1591 -1.4559 -1.3290
 2674TIP3    H2 7987   1.112   6.699   5.648  0.1417  1.5134  0.4289
 2675TIP3   OH2 7988   6.900   4.189   4.549  0.5770 -0.0661  0.5876
 2675TIP3    H1 7989   6.835   4.231   4.493 -0.3037 -2.2125 -0.0791
 2675TIP3    H2 7990   6.854   4.175   4.632  0.7145 -0.1672  0.6460
 2676TIP3   OH2 7991   4.806   4.087   5.742  0.2473  0.0723  0.2045
 2676TIP3    H1 7992   4.759   4.135   5.675  0.7321  0.2937  0.0223
 2676TIP3    H2 7993   4.738   4.039   5.789 -0.1374  0.2409 -0.1771
 2677TIP3   OH2 7994   4.113   2.029   0.306 -0.4881  0.4240 -0.5880
 2677TIP3    H1 7995   4.100   1.951   0.253 -0.4848  0.3441 -0.4715
 2677TIP3    H2 7996   4.045   2.025   0.373 -0.6615  0.6635 -0.7452
 2678TIP3   OH2 7997   6.482   3.757   3.032 -0.5174  0.0195 -0.4847
 2678TIP3    H1 7998   6.396   3.780   3.068 -0.2458 -0.1131  0.2804
 2678TIP3    H2 7999   6.543   3.811   3.083 -0.2412  1.1744 -1.9821
 2679TIP3   OH2 8000   6.847   5.434   5.173 -0.1379 -0.1351 -0.5690
 2679TIP3    H1 8001   6.941   5.450   5.170 -0.1752  0.4512  0.7703
 2679TIP3    H2 8002   6.833   5.393   5.259 -1.0771 -0.4303 -0.8557
 2680TIP3   OH2 8003   3.867   5.868   2.916  0.1865 -0.6064 -0.4117
 2680TIP3    H1 8004   3.806   5.815   2.968 -0.6974  1.0485  0.3364
 2680TIP3    H2 8005   3.856   5.837   2.826 -0.3509 -1.6273  0.0000
 2681TIP3   OH2 8006   5.479   3.196   1.725  0.2568 -0.3104 -0.1334
 2681TIP3    H1 8007   5.493   3.108   1.760 -2.1922 -0.7998 -0.2312
 2681TIP3    H2 8008   5.535   3.253   1.779  1.9415 -1.8913 -0.1257
 2682TIP3   OH2 8009   0.726   5.704   1.275 -0.3568 -0.2859 -0.1519
 2682TIP3    H1 8010   0.685   5.628   1.233 -0.7257  0.2113 -0.7146
 2682TIP3    H2 8011   0.748   5.762   1.202 -0.5635  0.3813  0.3090
 2683TIP3   OH2 8012   1.409   4.737   1.222 -0.0076 -0.6525 -0.0850
 2683TIP3    H1 8013   1.432   4.813   1.169 -0.6521 -0.2202  0.2336
 2683TIP3    H2 8014   1.317   4.721   1.201  0.6680 -2.6668 -1.7448
 2684TIP3   OH2 8015   6.799   1.217   3.681  0.1018 -0.1434  0.4115
 2684TIP3    H1 8016   6.781   1.304   3.715  1.5385  0.6632 -0.7618
 2684TIP3    H2 8017   6.788   1.225   3.586  1.0098 -1.0293  0.2085
 2685TIP3   OH2 8018   2.212   5.148   0.061  0.4134 -0.0732  0.4734
 2685TIP3    H1 8019   2.228   5.103  -0.022 -1.5991 -1.4494  0.7689
 2685TIP3    H2 8020   2.297   5.148   0.104  1.3571  0.0881 -1.2799
 2686TIP3   OH2 8021   1.975   0.929   1.678  0.0776 -0.4784  0.0159
 2686TIP3    H1 8022   1.880   0.918   1.673 -0.0442  0.7412 -1.0245
 2686TIP3    H2 8023   1.991   0.962   1.767 -0.7017  0.9972 -0.3524
 2687TIP3   OH2 8024   3.914   4.186   3.100  0.3725 -0.5229  0.6719
 2687TIP3    H1 8025   3.924   4.187   3.195  1.7256  2.3523  0.6041
 2687TIP3    H2 8026   3.898   4.094   3.079 -0.1912 -1.2249  3.6676
 2688TIP3   OH2 8027   3.398   4.643   3.767 -0.1766 -0.1828 -0.8726
 2688TIP3    H1 8028   3.404   4.562   3.817  0.9801  0.1131 -0.5007
 2688TIP3    H2 8029   3.334   4.696   3.815  0.6888 -0.0271  0.1272
 2689TIP3   OH2 8030   3.686   4.504   4.405 -0.1094 -0.8006 -0.3273
 2689TIP3    H1 8031   3.780   4.501   4.425 -0.4923 -1.8257  1.6093
 2689TIP3    H2 8032   3.681   4.487   4.311  1.6013 -1.7466 -0.2949
 2690TIP3   OH2 8033   6.375   6.137   1.687  0.4997 -0.3724  0.1964
 2690TIP3    H1 8034   6.346   6.225   1.663 -2.1606 -0.5044  2.4164
 2690TIP3    H2 8035   6.415   6.148   1.773 -0.4888 -1.3540  0.8120
 2691TIP3   OH2 8036   6.567   0.651   3.465 -0.1661  0.1108  0.3257
 2691TIP3    H1 8037   6.566   0.568   3.512  1.9294 -1.2888 -1.8575
 2691TIP3    H2 8038   6.649   0.693   3.493  0.8012 -0.4659 -1.4801
 2692TIP3   OH2 8039   1.007   4.798   0.053  0.0163 -0.4683 -0.5338
 2692TIP3    H1 8040   1.040   4.879   0.092 -2.1020  0.3764 -0.3843
 2692TIP3    H2 8041   0.981   4.745   0.128  1.5633 -1.4117 -0.6249
 2693TIP3   OH2 8042   0.588   5.987   5.103 -0.2099  0.0180 -0.2595
 2693TIP3    H1 8043   0.559   6.032   5.024 -3.0985 -0.5009  0.3826
 2693TIP3    H2 8044   0.571   5.894   5.086 -1.2391 -0.0701  1.0793
 2694TIP3   OH2 8045   4.492   4.579   2.654  0.9298 -0.0940 -0.0956
 2694TIP3    H1 8046   4.529   4.614   2.734  1.7410  0.3562 -0.6533
 2694TIP3    H2 8047   4.418   4.524   2.683 -0.4980  2.1736  0.8033
 2695TIP3   OH2 8048   1.378   0.716   5.389 -0.3689 -0.2780  0.0096
 2695TIP3    H1 8049   1.376   0.622   5.370  0.9336 -0.3696  0.2122
 2695TIP3    H2 8050   1.339   0.757   5.312  0.1720 -0.9250 -0.6225
 2696TIP3   OH2 8051   0.774   4.704   0.621  0.3319  0.7128  0.3247
 2696TIP3    H1 8052   0.781   4.715   0.716  4.9125  1.3275  0.1429
 2696TIP3    H2 8053   0.833   4.770   0.585 -0.0692 -0.5223 -2.8784
 2697TIP3   OH2 8054   4.686   5.931   0.810 -0.0278 -0.1752  0.5009
 2697TIP3    H1 8055   4.613   5.930   0.872 -0.3847 -0.4560  0.0848
 2697TIP3    H2 8056   4.695   5.840   0.783  1.1813 -0.3324  1.3533
 2698TIP3   OH2 8057   2.101   4.645   3.665  0.2929 -0.0582  0.2965
 2698TIP3    H1 8058   2.188   4.682   3.675  1.0402 -2.1440  2.3615
 2698TIP3    H2 8059   2.045   4.700   3.721  0.5855  0.3024  0.2386
 2699TIP3   OH2 8060   6.735   6.761   4.080 -0.1361 -0.1776  0.0156
 2699TIP3    H1 8061   6.740   6.733   3.988  0.6337  0.7376 -0.2475
 2699TIP3    H2 8062   6.801   6.709   4.125 -0.1589 -0.2670 -0.0538
 2700TIP3   OH2 8063   0.684   0.353   3.183 -0.1483  0.8387 -0.3203
 2700TIP3    H1 8064   0.706   0.309   3.101 -1.1703  0.9395 -0.6513
 2700TIP3    H2 8065   0.765   0.349   3.234  0.1695 -0.2391 -0.8761
 2701TIP3   OH2 8066   6.890   5.037   5.085  0.5223 -0.5358 -0.2114
 2701TIP3    H1 8067   6.883   5.093   5.162  2.8335  1.0112 -1.0168
 2701TIP3    H2 8068   6.799   5.017   5.061 -0.3281  1.3910  1.1730
 2702TIP3   OH2 8069   6.385   6.193   5.452 -0.3404  0.1958  0.2047
 2702TIP3    H1 8070   6.473   6.197   5.490 -0.6776 -0.2935  1.0813
 2702TIP3    H2 8071   6.391   6.241   5.370  0.8070 -0.0610  0.1374
 2703TIP3   OH2 8072   5.683   0.552   2.221 -0.3448 -0.5257  0.2040
 2703TIP3    H1 8073   5.674   0.617   2.290  0.4212 -1.2609  1.0179
 2703TIP3    H2 8074   5.593   0.525   2.201 -0.5098 -1.5267  2.1208
 2704TIP3   OH2 8075   3.960   3.114   3.693  0.0861  0.1053 -0.1405
 2704TIP3    H1 8076   3.889   3.170   3.725 -2.8896 -0.2092 -5.1331
 2704TIP3    H2 8077   3.934   3.025   3.717 -1.3919 -0.0108 -1.9640
 2705TIP3   OH2 8078   0.444   4.131   2.799 -0.0845 -0.7945  0.2224
 2705TIP3    H1 8079   0.538   4.113   2.804  0.4846  1.9166  1.1296
 2705TIP3    H2 8080   0.403   4.045   2.796  2.3353 -2.1175  1.8369
 2706TIP3   OH2 8081   5.943   3.957   2.661 -0.1730  0.5693 -0.1565
 2706TIP3    H1 8082   5.944   3.908   2.579 -0.8200  1.3854 -0.6662
 2706TIP3    H2 8083   5.982   4.041   2.640  1.1410  0.2160  0.7661
 2707TIP3   OH2 8084   2.955   0.163   4.494  0.1827 -0.8153  0.2628
 2707TIP3    H1 8085   2.929   0.193   4.407  0.3919  0.9194  0.7580
 2707TIP3    H2 8086   2.884   0.104   4.521 -1.9024  1.5892  0.4350
 2708TIP3   OH2 8087   1.509   1.878   4.176  0.1552 -0.1126  0.3715
 2708TIP3    H1 8088   1.586   1.821   4.183 -0.0552 -0.5639 -0.7656
 2708TIP3    H2 8089   1.546   1.967   4.176  0.4981 -0.2287  1.9622
 2709TIP3   OH2 8090   1.029   4.653   0.920 -0.6971  0.1310 -0.0859
 2709TIP3    H1 8091   1.064   4.738   0.892 -1.0618  1.5166  3.1537
 2709TIP3    H2 8092   1.104   4.594   0.918  0.7013  1.7207  1.7996
 2710TIP3   OH2 8093   1.491   0.484   0.106  0.7410 -0.0001 -0.3227
 2710TIP3    H1 8094   1.396   0.495   0.100  0.7147 -0.0765 -0.0622
 2710TIP3    H2 8095   1.521   0.491   0.015  0.2596 -1.9835 -0.6980
 2711TIP3   OH2 8096   1.963   3.539   3.428 -0.2913 -0.3262 -0.1747
 2711TIP3    H1 8097   1.968   3.629   3.460 -0.0255 -0.0837 -0.8788
 2711TIP3    H2 8098   2.054   3.516   3.409  0.0387 -1.7262  2.6104
 2712TIP3   OH2 8099   5.025   1.291   4.465 -0.3464  0.0120  0.0667
 2712TIP3    H1 8100   5.041   1.215   4.409 -0.3645 -0.1166  0.2372
 2712TIP3    H2 8101   5.093   1.354   4.440 -0.5446  0.0768 -0.3197
 2713TIP3   OH2 8102   1.341   4.106   3.133 -0.7931  0.0939  0.5496
 2713TIP3    H1 8103   1.359   4.025   3.180  0.0871 -0.3698 -0.5305
 2713TIP3    H2 8104   1.248   4.122   3.149 -0.5169  0.0031  2.4485
 2714TIP3   OH2 8105   6.059   5.530   5.810 -0.2740 -0.3570  0.2332
 2714TIP3    H1 8106   6.128   5.492   5.864  0.1834  0.0263 -0.0750
 2714TIP3    H2 8107   6.089   5.619   5.790 -0.1890 -0.6447 -1.0439
 2715TIP3   OH2 8108   2.980   5.339   2.691 -0.3257  0.3052 -0.0450
 2715TIP3    H1 8109   3.040   5.323   2.764 -0.3569  0.3369 -0.0117
 2715TIP3    H2 8110   3.012   5.419   2.650  1.8448 -1.5899 -2.2909
 2716TIP3   OH2 8111   0.988   5.295   5.355  0.2849 -0.6501  0.0436
 2716TIP3    H1 8112   0.946   5.329   5.276  0.5016  0.6507  0.4692
 2716TIP3    H2 8113   1.072   5.261   5.325 -0.3701 -1.8138 -0.5536
 2717TIP3   OH2 8114   0.781   0.279   5.262  0.3256  0.2817 -0.0343
 2717TIP3    H1 8115   0.823   0.350   5.309 -1.1617  2.1169 -1.3279
 2717TIP3    H2 8116   0.810   0.289   5.171  0.0617 -0.7410 -0.2505
 2718TIP3   OH2 8117   4.409   0.947   3.352 -0.6481  0.4590 -0.2605
 2718TIP3    H1 8118   4.471   0.985   3.414 -0.2006  0.3894 -0.6570
 2718TIP3    H2 8119   4.386   1.020   3.294  1.2644 -0.1417 -1.8725
 2719TIP3   OH2 8120   3.146   1.870   1.946  0.1282 -0.0951  0.3364
 2719TIP3    H1 8121   3.055   1.895   1.929  0.1368  0.0228  0.4532
 2719TIP3    H2 8122   3.152   1.779   1.919  0.1827  0.1278 -0.4163
 2720TIP3   OH2 8123   3.411   1.840   3.667 -0.2484 -0.2285 -0.5524
 2720TIP3    H1 8124   3.344   1.864   3.604 -1.5920 -0.5508  0.6970
 2720TIP3    H2 8125   3.367   1.781   3.728  1.1236 -0.3100  0.4177
 2721TIP3   OH2 8126   3.388   1.433   3.964 -0.0184  0.0560  0.1960
 2721TIP3    H1 8127   3.412   1.367   4.030 -0.8114 -0.8944 -0.4343
 2721TIP3    H2 8128   3.351   1.505   4.014  2.2876  0.7432  1.0431
 2722TIP3   OH2 8129   4.285   3.695   5.603 -0.1044 -0.0078  0.2216
 2722TIP3    H1 8130   4.282   3.667   5.511  0.3551 -1.0437  0.5163
 2722TIP3    H2 8131   4.305   3.616   5.652 -2.6833  0.0155  1.4633
 2723TIP3   OH2 8132   3.031   5.137   1.798 -0.4208 -0.2205  0.3555
 2723TIP3    H1 8133   3.124   5.132   1.823 -0.5417 -2.6064  0.5411
 2723TIP3    H2 8134   2.984   5.140   1.881 -0.5435  1.3435  0.2609
 2724TIP3   OH2 8135   2.741   6.017   2.604 -0.0682 -0.4171  0.1505
 2724TIP3    H1 8136   2.689   5.999   2.683 -0.0950 -1.5802 -0.1203
 2724TIP3    H2 8137   2.680   6.063   2.546 -0.4708 -0.8014  0.2625
 2725TIP3   OH2 8138   0.885   1.870   3.181 -0.9762  0.1190  0.1335
 2725TIP3    H1 8139   0.817   1.845   3.118 -0.1806  0.3347 -0.8401
 2725TIP3    H2 8140   0.837   1.887   3.262 -2.0497 -0.0273 -0.4455
 2726TIP3   OH2 8141   3.628   6.437   2.869  0.4506  0.6219 -0.1375
 2726TIP3    H1 8142   3.698   6.387   2.827  0.0377 -0.6263  0.5965
 2726TIP3    H2 8143   3.569   6.370   2.905  0.4924  1.6041  1.9006
 2727TIP3   OH2 8144   3.194   5.582   2.255  0.2352  0.0867  0.1573
 2727TIP3    H1 8145   3.178   5.499   2.300  0.2627 -0.1398 -0.2462
 2727TIP3    H2 8146   3.130   5.582   2.183  1.0991 -0.1827 -0.6275
 2728TIP3   OH2 8147   4.986   0.527   4.315  0.3577 -0.0012 -0.1991
 2728TIP3    H1 8148   4.940   0.486   4.242  0.8125  1.3232 -1.2719
 2728TIP3    H2 8149   4.972   0.467   4.389 -2.6717  0.1016 -0.5711
 2729TIP3   OH2 8150   0.986   5.175   0.216 -0.0799  0.6743  0.5723
 2729TIP3    H1 8151   0.928   5.176   0.140  0.3407  0.0672  0.2360
 2729TIP3    H2 8152   0.927   5.175   0.292 -0.5049  0.8324  0.2460
 2730TIP3   OH2 8153   2.197   4.048   2.043 -0.0561  0.1047  0.4440
 2730TIP3    H1 8154   2.125   3.993   2.013  0.5935 -0.8800  0.6384
 2730TIP3    H2 8155   2.191   4.045   2.138 -0.1591  0.5758  0.4543
 2731TIP3   OH2 8156   1.213   3.728   4.528 -0.0682  0.1393  0.2546
 2731TIP3    H1 8157   1.233   3.637   4.505  1.2862  0.6790 -0.8119
 2731TIP3    H2 8158   1.131   3.747   4.483  0.1764 -0.2386 -0.3516
 2732TIP3   OH2 8159   2.449   6.026   5.614 -0.3850 -0.5260 -0.7619
 2732TIP3    H1 8160   2.386   6.098   5.602  0.2504  0.2857  0.5269
 2732TIP3    H2 8161   2.534   6.069   5.613 -0.0121 -1.2126  0.3228
 2733TIP3   OH2 8162   5.382   5.668   3.521  0.3791 -0.7103 -0.7264
 2733TIP3    H1 8163   5.310   5.701   3.469  0.0618 -1.3492 -0.7064
 2733TIP3    H2 8164   5.456   5.725   3.499  0.3896 -1.2645 -2.2581
 2734TIP3   OH2 8165   4.692   6.054   5.309 -0.3260  0.1605  0.1765
 2734TIP3    H1 8166   4.670   5.963   5.289  1.4608 -0.0584 -1.1365
 2734TIP3    H2 8167   4.784   6.062   5.283 -0.2840  2.2033  0.7834
 2735TIP3   OH2 8168   1.561   4.705   4.064 -0.5538 -0.0401 -0.1386
 2735TIP3    H1 8169   1.566   4.669   3.976  2.1242  2.8100 -1.3623
 2735TIP3    H2 8170   1.507   4.784   4.054 -0.2972  0.2629  0.8067
 2736TIP3   OH2 8171   2.519   0.410   1.163  0.0508 -0.2215  0.2855
 2736TIP3    H1 8172   2.464   0.361   1.102  0.2232 -1.0794  0.8043
 2736TIP3    H2 8173   2.474   0.401   1.247 -0.6760  1.6949  0.1649
 2737TIP3   OH2 8174   5.651   3.419   0.312 -0.0183  0.1019 -0.3022
 2737TIP3    H1 8175   5.706   3.355   0.267  0.5528 -0.7118  1.4639
 2737TIP3    H2 8176   5.563   3.403   0.278  0.2641 -1.0117 -0.5495
 2738TIP3   OH2 8177   4.383   3.332   2.536  0.6730 -0.0118 -0.2391
 2738TIP3    H1 8178   4.401   3.367   2.449  0.2670 -0.9502 -0.7168
 2738TIP3    H2 8179   4.458   3.277   2.557  0.8290  0.3105  0.0648
 2739TIP3   OH2 8180   2.145   0.251   5.432  0.3426  0.2502  0.6113
 2739TIP3    H1 8181   2.069   0.230   5.378  1.4076  1.1857 -1.3776
 2739TIP3    H2 8182   2.134   0.344   5.453  0.5438  0.1947  0.9599
 2740TIP3   OH2 8183   7.209   5.218   3.845  0.2802 -0.3397  0.5257
 2740TIP3    H1 8184   7.132   5.227   3.901 -0.2606 -0.4218 -0.1884
 2740TIP3    H2 8185   7.177   5.170   3.769 -0.0488  3.3447 -1.8622
 2741TIP3   OH2 8186   5.806   6.085   5.191  0.5897 -0.5676 -0.2493
 2741TIP3    H1 8187   5.899   6.106   5.201  0.4719  0.0759 -0.3929
 2741TIP3    H2 8188   5.797   6.059   5.099  0.6010 -0.4591 -0.2819
 2742TIP3   OH2 8189   3.404   2.090   5.382 -0.6005 -0.6570 -0.4873
 2742TIP3    H1 8190   3.372   2.175   5.411 -2.3143 -2.3287  3.1394
 2742TIP3    H2 8191   3.499   2.096   5.391 -0.8210  0.0948  2.6907
 2743TIP3   OH2 8192   0.226   3.492   5.899  0.1445 -0.0717  0.0114
 2743TIP3    H1 8193   0.319   3.475   5.882  0.4801  2.0795 -0.6409
 2743TIP3    H2 8194   0.189   3.509   5.813 -0.5951  0.2877  0.3956
 2744TIP3   OH2 8195   5.679   2.054   2.268  0.2324 -0.3986  0.0933
 2744TIP3    H1 8196   5.660   1.989   2.336 -1.7303  0.5300  0.5259
 2744TIP3    H2 8197   5.676   2.005   2.186  3.7606 -1.7616  0.6387
 2745TIP3   OH2 8198   2.855   5.009   3.382  0.3039 -0.1556 -0.1291
 2745TIP3    H1 8199   2.797   5.015   3.458  0.0555  1.3966 -0.4100
 2745TIP3    H2 8200   2.915   4.937   3.403 -0.1423 -0.1498  1.2655
 2746TIP3   OH2 8201   2.492   5.291   5.465  0.5904  0.1998  0.5883
 2746TIP3    H1 8202   2.448   5.374   5.448  1.2296  0.2466 -0.9905
 2746TIP3    H2 8203   2.464   5.233   5.395 -0.3367 -1.1549  2.0171
 2747TIP3   OH2 8204   6.154   6.667   2.574 -0.3107  0.0601  0.4683
 2747TIP3    H1 8205   6.070   6.640   2.537  0.7340  1.1133 -3.0814
 2747TIP3    H2 8206   6.156   6.762   2.561  0.8569  0.2563  1.8339
 2748TIP3   OH2 8207   5.598   6.043   0.189 -0.6492  0.3015  0.3555
 2748TIP3    H1 8208   5.693   6.039   0.199 -0.6386  1.2803  0.7415
 2748TIP3    H2 8209   5.565   5.972   0.246 -0.1991  0.6472  1.0613
 2749TIP3   OH2 8210   5.989   0.094   1.486 -0.2125  0.2797 -0.0049
 2749TIP3    H1 8211   5.910   0.056   1.448 -0.8792  1.9720 -0.4015
 2749TIP3    H2 8212   5.963   0.183   1.510  1.6827  1.0223 -0.5467
 2750TIP3   OH2 8213   3.741   0.202   4.147  0.2821 -0.0238 -0.0136
 2750TIP3    H1 8214   3.650   0.190   4.175  0.1556 -1.6981 -1.0191
 2750TIP3    H2 8215   3.792   0.150   4.209  0.6840  1.5475  1.0405
 2751TIP3   OH2 8216   1.291   1.181   2.530  0.0894  0.2864 -0.3868
 2751TIP3    H1 8217   1.277   1.179   2.625 -0.0515  0.8032 -0.3923
 2751TIP3    H2 8218   1.290   1.089   2.503  0.2517  0.1313  0.1300
 2752TIP3   OH2 8219   1.515   1.146   2.003 -0.2585 -0.3109 -0.4011
 2752TIP3    H1 8220   1.610   1.145   2.016  0.1939 -1.3631 -3.0660
 2752TIP3    H2 8221   1.482   1.076   2.059  0.8095 -1.2357 -0.8919
 2753TIP3   OH2 8222   5.861   4.587   2.016 -0.3724 -0.1884 -0.0413
 2753TIP3    H1 8223   5.908   4.561   2.095 -2.8324  0.8821  1.8849
 2753TIP3    H2 8224   5.921   4.645   1.970  1.7278 -2.0858  0.1618
 2754TIP3   OH2 8225   2.620   2.649   0.366  0.1869 -0.0634 -0.1986
 2754TIP3    H1 8226   2.691   2.711   0.384  1.9330 -1.7750 -0.8885
 2754TIP3    H2 8227   2.592   2.618   0.452 -0.3153  1.2061  0.1218
 2755TIP3   OH2 8228   5.921   0.515   0.280  0.0416  0.7318 -0.3155
 2755TIP3    H1 8229   5.951   0.497   0.369  0.4749  2.5820 -0.0302
 2755TIP3    H2 8230   5.970   0.593   0.254 -0.3614  0.4512 -2.0408
 2756TIP3   OH2 8231   6.837   2.481   5.112 -0.0999 -0.4661 -0.1862
 2756TIP3    H1 8232   6.765   2.426   5.141 -0.5890 -0.8857 -2.0492
 2756TIP3    H2 8233   6.809   2.515   5.027  0.9789  1.1612  0.0523
 2757TIP3   OH2 8234   4.119   2.778   1.542  0.1537  0.5999  0.0632
 2757TIP3    H1 8235   4.052   2.845   1.527 -0.2297  0.1998 -0.0197
 2757TIP3    H2 8236   4.196   2.827   1.571 -0.2833  1.0357  0.5044
 2758TIP3   OH2 8237   4.096   4.125   1.932  0.1848  0.4346  0.7765
 2758TIP3    H1 8238   4.178   4.163   1.900  0.3160 -0.4305  0.0515
 2758TIP3    H2 8239   4.029   4.188   1.906  0.6544  1.4573  1.9113
 2759TIP3   OH2 8240   3.268   5.348   1.182 -1.0272 -0.1054  0.7818
 2759TIP3    H1 8241   3.307   5.264   1.204 -0.3537  0.4462  1.7957
 2759TIP3    H2 8242   3.217   5.372   1.259  2.0666  2.2735  2.2720
 2760TIP3   OH2 8243   5.006   4.190   4.762 -0.3464 -0.1623 -0.3659
 2760TIP3    H1 8244   4.977   4.195   4.853 -0.2098 -1.2506 -0.2564
 2760TIP3    H2 8245   5.085   4.245   4.760  0.0054 -0.6188  0.3278
 2761TIP3   OH2 8246   0.173   2.280   5.404 -0.6470 -0.0000  0.4219
 2761TIP3    H1 8247   0.210   2.240   5.482 -0.6675  0.3109  0.5887
 2761TIP3    H2 8248   0.157   2.206   5.345 -2.0959 -0.4405  1.2927
 2762TIP3   OH2 8249   4.905   6.761   3.519  0.1269 -0.8413 -0.0411
 2762TIP3    H1 8250   4.894   6.781   3.612 -0.4403 -1.3606  0.0087
 2762TIP3    H2 8251   4.858   6.678   3.507  0.5841 -1.0107 -0.6947
 2763TIP3   OH2 8252   7.008   2.310   0.358  0.4096 -0.0465 -0.4122
 2763TIP3    H1 8253   7.056   2.354   0.288  0.3294  0.6936 -0.0156
 2763TIP3    H2 8254   6.922   2.292   0.322  0.2608  0.6271 -0.4033
 2764TIP3   OH2 8255   4.774   1.991   2.647 -0.0608  0.0673  0.0598
 2764TIP3    H1 8256   4.707   1.959   2.707  0.1145  0.6363  0.5631
 2764TIP3    H2 8257   4.725   2.028   2.574 -0.2845 -0.2269  0.0592
 2765TIP3   OH2 8258   6.272   6.745   1.931  0.5561  0.1946  0.4898
 2765TIP3    H1 8259   6.356   6.700   1.918 -0.6995 -1.7828 -1.5674
 2765TIP3    H2 8260   6.220   6.720   1.855 -2.0123  1.1376  1.8325
 2766TIP3   OH2 8261   6.759   0.964   1.577  0.2050 -0.3544  0.2456
 2766TIP3    H1 8262   6.703   1.003   1.510  0.4778 -1.1020 -0.4293
 2766TIP3    H2 8263   6.732   1.007   1.659  0.0136  0.7201 -0.3616
 2767TIP3   OH2 8264   0.839   5.993   0.012 -0.0487 -0.4074 -0.4281
 2767TIP3    H1 8265   0.812   5.957   0.097  1.7718 -1.0828 -0.0916
 2767TIP3    H2 8266   0.817   5.924  -0.051 -0.3685 -0.3764 -0.3533
 2768TIP3   OH2 8267   4.728   5.133   5.288 -0.6350 -0.2255  0.1763
 2768TIP3    H1 8268   4.669   5.183   5.231  1.3078  2.2399  0.1854
 2768TIP3    H2 8269   4.736   5.048   5.245 -3.1174 -0.1926 -0.5105
 2769TIP3   OH2 8270   5.824   1.041   2.776  0.2162 -0.3398 -0.0811
 2769TIP3    H1 8271   5.739   1.064   2.739  0.0440 -1.0315 -0.1350
 2769TIP3    H2 8272   5.888   1.086   2.721 -0.0919 -0.3242 -0.4265
 2770TIP3   OH2 8273   5.887   3.973   0.028 -0.3439  0.0892 -0.2679
 2770TIP3    H1 8274   5.905   4.013  -0.057  1.2639 -2.1557 -1.0890
 2770TIP3    H2 8275   5.810   4.019   0.060  0.6827  2.9906 -1.5849
 2771TIP3   OH2 8276   1.231   6.526   0.371 -0.4708 -0.3018 -0.4518
 2771TIP3    H1 8277   1.178   6.561   0.442 -0.6649 -1.7707  0.1668
 2771TIP3    H2 8278   1.201   6.573   0.293  0.6806  2.3295  0.5745
 2772TIP3   OH2 8279   4.703   6.044   1.798 -0.1941 -0.2728 -0.0970
 2772TIP3    H1 8280   4.797   6.057   1.785 -0.3529 -0.0464 -1.0905
 2772TIP3    H2 8281   4.673   6.008   1.715 -1.2508  1.0945 -0.3399
 2773TIP3   OH2 8282   3.346   1.832   5.291  0.5067 -0.4337 -0.2054
 2773TIP3    H1 8283   3.349   1.927   5.299  0.5669 -0.4344 -0.2221
 2773TIP3    H2 8284   3.434   1.803   5.316  0.0112 -0.6011  1.5039
 2774TIP3   OH2 8285   4.831   2.529   1.248 -0.0740 -0.2233  0.6298
 2774TIP3    H1 8286   4.888   2.492   1.180 -0.5758 -0.3743  0.2825
 2774TIP3    H2 8287   4.891   2.566   1.312  0.4529  2.0884 -1.0715
 2775TIP3   OH2 8288   4.722   4.892   3.848  0.1747  0.1902 -0.1516
 2775TIP3    H1 8289   4.692   4.833   3.779 -0.4023 -1.3918  1.3626
 2775TIP3    H2 8290   4.779   4.837   3.902  0.0144  1.1605  1.0313
 2776TIP3   OH2 8291   0.994   3.732   0.685  0.1137  0.0706 -0.0109
 2776TIP3    H1 8292   1.052   3.785   0.739 -0.7426 -0.2718  1.3027
 2776TIP3    H2 8293   1.052   3.686   0.624  1.1669  0.0818  0.9529
 2777TIP3   OH2 8294   1.529   5.885   0.708  0.0299 -0.0355 -0.1853
 2777TIP3    H1 8295   1.488   5.968   0.734 -0.6034 -0.2308 -0.5370
 2777TIP3    H2 8296   1.593   5.868   0.776  0.1731  0.7526 -0.1088
 2778TIP3   OH2 8297   5.238   4.866   3.241  0.1989 -0.4797 -0.4687
 2778TIP3    H1 8298   5.172   4.872   3.310  1.1726  0.0211  0.4460
 2778TIP3    H2 8299   5.271   4.776   3.248  0.7949 -0.2268  0.2305
 2779TIP3   OH2 8300   2.000   1.598   0.086 -0.1998  0.4100 -0.6681
 2779TIP3    H1 8301   1.987   1.682   0.041  0.2256  1.4519  1.0473
 2779TIP3    H2 8302   1.924   1.590   0.144  0.2549  0.1205 -0.1026
 2780TIP3   OH2 8303   5.561   2.426   1.070  0.6868 -0.2149 -0.0628
 2780TIP3    H1 8304   5.525   2.340   1.051  0.2859 -1.2219  4.1372
 2780TIP3    H2 8305   5.653   2.420   1.043  0.1386 -1.0711 -1.9032
 2781TIP3   OH2 8306   1.279   4.912   3.013 -0.0161  0.2345  0.2366
 2781TIP3    H1 8307   1.361   4.927   2.965 -0.7005  0.5486 -0.8788
 2781TIP3    H2 8308   1.233   4.845   2.962 -0.6335  0.3593  0.6187
 2782TIP3   OH2 8309   4.470   5.705   3.067 -0.4380 -0.2082  0.4661
 2782TIP3    H1 8310   4.441   5.643   3.000 -1.5729  0.4254  0.3472
 2782TIP3    H2 8311   4.489   5.651   3.144  0.9197 -0.9486 -0.3450
 2783TIP3   OH2 8312   3.553   0.522   2.714 -0.1534  0.5621  0.2687
 2783TIP3    H1 8313   3.607   0.445   2.734 -0.6190  0.0502 -0.4177
 2783TIP3    H2 8314   3.472   0.487   2.677 -1.0351  1.3158  1.3931
 2784TIP3   OH2 8315   1.446   5.042   3.257  0.4857 -0.4346 -0.9571
 2784TIP3    H1 8316   1.432   5.098   3.180 -0.1885 -0.5504 -0.9264
 2784TIP3    H2 8317   1.359   5.031   3.295  0.7558 -0.7064 -0.3996
 2785TIP3   OH2 8318   3.616   3.815   3.125  0.1721  0.2865 -0.2761
 2785TIP3    H1 8319   3.556   3.888   3.141 -2.2095 -1.7848  1.0632
 2785TIP3    H2 8320   3.600   3.790   3.034 -0.8057 -0.0111 -0.0405
 2786TIP3   OH2 8321   3.732   0.677   0.637  0.0394  0.0156 -0.0018
 2786TIP3    H1 8322   3.777   0.759   0.655 -0.0546 -0.1459  1.0639
 2786TIP3    H2 8323   3.647   0.703   0.601  0.4804  0.3462 -0.8219
 2787TIP3   OH2 8324   3.154   5.993   5.816 -0.0601  0.6077 -0.1384
 2787TIP3    H1 8325   3.096   6.009   5.891 -0.7653 -0.7869 -0.3646
 2787TIP3    H2 8326   3.227   6.054   5.830 -1.8778  2.9601 -0.2329
 2788TIP3   OH2 8327   5.893   3.072   0.543 -0.1329 -0.0183  0.2357
 2788TIP3    H1 8328   5.894   3.129   0.467 -0.5782 -0.2192  0.0752
 2788TIP3    H2 8329   5.801   3.049   0.555  0.0687 -0.9371  0.1187
 2789TIP3   OH2 8330   4.509   0.270   4.436 -0.1966 -0.1034  0.4310
 2789TIP3    H1 8331   4.576   0.210   4.407 -0.0806  0.0138  0.4556
 2789TIP3    H2 8332   4.497   0.330   4.362  1.0966  1.0602  1.1187
 2790TIP3   OH2 8333   5.576   5.100   1.174  0.5481  0.2610 -0.4082
 2790TIP3    H1 8334   5.607   5.050   1.099 -0.5230  0.4091 -0.9715
 2790TIP3    H2 8335   5.540   5.181   1.136  2.3376  1.5441  0.4798
 2791TIP3   OH2 8336   5.677   2.506   2.817  0.0901 -0.2658 -0.1729
 2791TIP3    H1 8337   5.667   2.587   2.868  1.9282  1.3413 -2.1738
 2791TIP3    H2 8338   5.761   2.470   2.846 -1.0539 -1.9725  1.2463
 2792TIP3   OH2 8339   5.974   0.224   2.126 -1.1339 -0.1427 -0.0667
 2792TIP3    H1 8340   5.951   0.271   2.045  0.7750 -0.1080 -0.6395
 2792TIP3    H2 8341   6.012   0.292   2.182 -1.5011 -0.3717  0.4657
 2793TIP3   OH2 8342   3.872   1.159   0.090  0.0445  0.2389 -0.2248
 2793TIP3    H1 8343   3.943   1.188   0.148 -0.0917  0.0334  0.0504
 2793TIP3    H2 8344   3.793   1.166   0.144 -0.0378 -0.2856 -0.2674
 2794TIP3   OH2 8345   2.747   3.721   3.861  0.3907 -0.5212 -0.4473
 2794TIP3    H1 8346   2.713   3.811   3.856 -2.1185 -1.4072 -0.9825
 2794TIP3    H2 8347   2.704   3.676   3.789  0.9077 -2.3743  0.3561
 2795TIP3   OH2 8348   0.775   4.635   3.798  0.4857 -0.1650  0.1818
 2795TIP3    H1 8349   0.816   4.554   3.828  2.5255  1.3442  1.7642
 2795TIP3    H2 8350   0.800   4.700   3.863 -0.9044  1.8140 -1.1372
 2796TIP3   OH2 8351   2.045   0.186   3.227  0.3281 -0.2016 -0.7212
 2796TIP3    H1 8352   2.116   0.204   3.165  1.5207 -1.2618  0.2520
 2796TIP3    H2 8353   2.021   0.095   3.209 -0.0334 -0.1844 -0.3305
 2797TIP3   OH2 8354   6.500   3.976   4.110  0.4628  0.1500  0.1702
 2797TIP3    H1 8355   6.405   3.975   4.096  0.4839  0.0859  0.0264
 2797TIP3    H2 8356   6.510   4.007   4.199  0.0365 -4.6929  2.2606
 2798TIP3   OH2 8357   4.416   0.265   3.687  0.2776  0.7505 -0.1692
 2798TIP3    H1 8358   4.478   0.214   3.739  1.9835  2.4530 -0.4334
 2798TIP3    H2 8359   4.465   0.291   3.609 -0.6055  2.5417 -0.1798
 2799TIP3   OH2 8360   2.253   3.104   0.678 -0.5278 -0.3360  0.1167
 2799TIP3    H1 8361   2.309   3.027   0.665  0.1549  0.4469 -1.7781
 2799TIP3    H2 8362   2.290   3.171   0.622 -2.9942  0.4121 -0.7430
 2800TIP3   OH2 8363   2.540   1.167   5.550  0.4968  0.3238 -0.5035
 2800TIP3    H1 8364   2.485   1.209   5.483  0.4360  0.5909 -0.2874
 2800TIP3    H2 8365   2.480   1.108   5.595  0.6292 -0.1479 -0.9397
 2801TIP3   OH2 8366   4.655   5.357   1.970 -0.0531  0.2429 -0.0870
 2801TIP3    H1 8367   4.602   5.309   2.033  0.6210 -1.5994 -0.8481
 2801TIP3    H2 8368   4.592   5.392   1.907 -0.6352  1.2257  0.9934
 2802TIP3   OH2 8369   5.063   0.010   1.150  0.6833  0.2695  0.6492
 2802TIP3    H1 8370   5.102   0.077   1.094 -0.4724  0.2665 -0.1913
 2802TIP3    H2 8371   4.996   0.057   1.199 -0.4237 -0.3283 -0.2528
 2803TIP3   OH2 8372   0.991   1.186   2.347 -0.0511  0.0677 -0.3872
 2803TIP3    H1 8373   1.040   1.260   2.384 -0.0399  0.1787 -0.6207
 2803TIP3    H2 8374   0.981   1.208   2.255  1.4472 -1.0218 -0.8426
 2804TIP3   OH2 8375   5.813   0.898   0.440  0.1678 -0.0351 -0.2095
 2804TIP3    H1 8376   5.771   0.968   0.391 -0.9133 -2.1563 -2.5629
 2804TIP3    H2 8377   5.765   0.894   0.523  0.2722  1.9430 -0.0100
 2805TIP3   OH2 8378   0.444   4.801   2.767  0.2106 -0.3844  0.3118
 2805TIP3    H1 8379   0.450   4.876   2.826 -0.4793  0.7747 -1.0715
 2805TIP3    H2 8380   0.394   4.736   2.817 -1.4665  1.0400  0.5502
 2806TIP3   OH2 8381   4.773   5.935   4.135 -0.0194 -0.3252 -0.2956
 2806TIP3    H1 8382   4.715   5.957   4.062 -1.5638 -0.6892  0.7775
 2806TIP3    H2 8383   4.798   6.020   4.172  0.0136 -0.1698 -0.6669
 2807TIP3   OH2 8384   0.090   3.349   2.748 -0.5507 -0.6425 -0.7960
 2807TIP3    H1 8385   0.003   3.325   2.780  0.8264 -1.1774  3.0664
 2807TIP3    H2 8386   0.113   3.428   2.796  1.4555 -1.0250 -1.0280
 2808TIP3   OH2 8387   2.294   4.097   1.490  0.5292 -0.1185  0.3064
 2808TIP3    H1 8388   2.222   4.120   1.430 -1.2974 -3.1371  1.1113
 2808TIP3    H2 8389   2.284   4.158   1.563 -0.1609  0.5748 -0.3331
 2809TIP3   OH2 8390   7.050   3.340   3.171 -0.1145 -0.2477 -0.0870
 2809TIP3    H1 8391   7.006   3.419   3.139 -0.6693  0.3985  2.0689
 2809TIP3    H2 8392   6.979   3.280   3.193  0.1150  0.0593  1.6126
 2810TIP3   OH2 8393   4.146   4.018   3.668  0.1478 -0.0383 -0.1618
 2810TIP3    H1 8394   4.187   3.948   3.616  2.9960  1.1063  0.3332
 2810TIP3    H2 8395   4.160   4.097   3.616  0.5766  0.7241  1.0663
 2811TIP3   OH2 8396   1.531   0.982   0.742 -0.5135 -0.3014  0.4542
 2811TIP3    H1 8397   1.451   0.960   0.789 -1.8985  1.7798 -0.7872
 2811TIP3    H2 8398   1.525   0.934   0.660 -1.8769  1.8906 -0.7972
 2812TIP3   OH2 8399   1.686   2.864   0.043  0.0269 -0.5062  0.4955
 2812TIP3    H1 8400   1.736   2.783   0.052 -1.3377 -1.3067  1.4442
 2812TIP3    H2 8401   1.729   2.926   0.102 -0.1051 -1.1909  1.3318
 2813TIP3   OH2 8402   5.120   5.679   5.581 -0.5489  0.1219  0.3636
 2813TIP3    H1 8403   5.127   5.611   5.647  1.1091  0.5073  0.6272
 2813TIP3    H2 8404   5.045   5.732   5.609 -0.1674 -0.0034  1.6601
 2814TIP3   OH2 8405   0.103   1.834   3.750  0.3429 -0.3571  0.2394
 2814TIP3    H1 8406   0.098   1.863   3.841  1.5099 -4.6577  1.9133
 2814TIP3    H2 8407   0.190   1.861   3.721  0.2980  0.2955  0.6920
 2815TIP3   OH2 8408   5.006   1.883   2.265 -0.1676 -0.2261 -0.3195
 2815TIP3    H1 8409   5.099   1.861   2.258 -0.8563 -2.9279 -2.1040
 2815TIP3    H2 8410   4.987   1.875   2.358  0.7734 -2.6252 -0.2707
 2816TIP3   OH2 8411   6.325   0.829   0.398  0.3712  0.0214 -0.9647
 2816TIP3    H1 8412   6.323   0.923   0.414  1.1117 -0.2813  1.3489
 2816TIP3    H2 8413   6.339   0.791   0.485  1.1440 -2.1771 -1.9877
 2817TIP3   OH2 8414   6.185   5.953   2.071  0.3339  0.3220  0.1953
 2817TIP3    H1 8415   6.183   5.913   1.984  0.2968  1.2707 -0.2547
 2817TIP3    H2 8416   6.176   6.047   2.054  2.6729  0.7639  1.0467
 2818TIP3   OH2 8417   5.283   5.753   2.512 -0.5512  0.0503 -0.0612
 2818TIP3    H1 8418   5.339   5.679   2.487 -0.7208 -0.0507 -0.1467
 2818TIP3    H2 8419   5.201   5.712   2.540 -1.5400  0.2859 -2.3678
 2819TIP3   OH2 8420   2.656   3.685   5.010  0.2772 -0.2234  0.0664
 2819TIP3    H1 8421   2.581   3.630   5.032 -1.1141  1.1521 -1.0907
 2819TIP3    H2 8422   2.729   3.644   5.057 -1.4074 -0.8008  2.3859
 2820TIP3   OH2 8423   2.452   1.637   4.723  0.5699 -0.1652 -0.4970
 2820TIP3    H1 8424   2.415   1.591   4.648  1.8812 -1.4905 -0.3896
 2820TIP3    H2 8425   2.542   1.656   4.698  1.0626 -0.7345  0.7539
 2821TIP3   OH2 8426   5.706   1.596   5.383  0.2231  0.0564  0.2260
 2821TIP3    H1 8427   5.772   1.597   5.314  0.3457  1.8685  0.3068
 2821TIP3    H2 8428   5.653   1.518   5.365  2.2545 -1.3546  0.0733
 2822TIP3   OH2 8429   6.079   1.567   0.623 -0.1338  0.1858 -0.2051
 2822TIP3    H1 8430   6.136   1.493   0.646  0.2242  0.8344  1.0887
 2822TIP3    H2 8431   6.049   1.548   0.535 -0.3642 -1.6967  0.2546
 2823TIP3   OH2 8432   0.402   1.398   4.081  0.1472  0.1677  0.0646
 2823TIP3    H1 8433   0.326   1.453   4.103  0.8652  1.8363 -1.3982
 2823TIP3    H2 8434   0.425   1.355   4.163 -2.1042 -0.0583  0.6505
 2824TIP3   OH2 8435   5.672   1.982   5.424 -0.7125  0.1138  0.5798
 2824TIP3    H1 8436   5.646   2.063   5.380  1.9565 -0.3988 -2.3347
 2824TIP3    H2 8437   5.624   1.913   5.378 -1.6746 -0.1227  1.8983
 2825TIP3   OH2 8438   2.984   1.914   3.714 -0.3002 -0.1692 -0.1430
 2825TIP3    H1 8439   2.979   1.986   3.653 -0.9932 -0.0900 -0.0008
 2825TIP3    H2 8440   2.907   1.924   3.770 -0.4747 -1.0879 -0.2046
 2826TIP3   OH2 8441   6.574   5.487   1.102 -0.5143  0.3507 -0.0752
 2826TIP3    H1 8442   6.482   5.463   1.091 -0.8761  2.1361 -1.4732
 2826TIP3    H2 8443   6.574   5.553   1.171  0.1318 -1.6163  1.9089
 2827TIP3   OH2 8444   6.116   3.109   1.990  0.7290  0.8016 -0.1250
 2827TIP3    H1 8445   6.096   3.044   2.057  0.8394  1.0794  0.1771
 2827TIP3    H2 8446   6.064   3.185   2.013  2.9336  1.9819  1.3741
 2828TIP3   OH2 8447   3.506   2.346   3.109 -0.3483  0.1044 -0.8954
 2828TIP3    H1 8448   3.428   2.319   3.061 -0.4297 -1.2034 -0.0783
 2828TIP3    H2 8449   3.498   2.301   3.194  1.0341  0.3612 -0.6146
 2829TIP3   OH2 8450   4.331   0.864   3.898 -0.1938 -0.1044  0.2882
 2829TIP3    H1 8451   4.315   0.777   3.935 -0.1187  0.6669  2.2808
 2829TIP3    H2 8452   4.403   0.899   3.951 -1.0003  1.6158  0.3232
 2830TIP3   OH2 8453   3.346   3.183   4.942  0.2129 -0.8144  0.3856
 2830TIP3    H1 8454   3.334   3.126   5.018  1.0008 -2.8111 -0.9164
 2830TIP3    H2 8455   3.419   3.240   4.967  0.2749 -1.2516  1.2316
 2831TIP3   OH2 8456   6.537   4.338   1.682 -0.0105  0.4166 -0.1272
 2831TIP3    H1 8457   6.579   4.296   1.607  0.0583  0.3359 -0.0423
 2831TIP3    H2 8458   6.594   4.413   1.702  1.5196 -1.1240  1.5995
 2832TIP3   OH2 8459   3.899   5.979   0.514 -0.9566 -0.1415 -0.0165
 2832TIP3    H1 8460   3.857   5.947   0.435  0.6478  0.8755 -1.3518
 2832TIP3    H2 8461   3.980   5.928   0.521 -0.7651  0.2240  0.5903
 2833TIP3   OH2 8462   1.095   3.477   2.649 -0.0458 -0.3185  0.1287
 2833TIP3    H1 8463   1.061   3.546   2.593 -1.4434 -0.6128  0.5774
 2833TIP3    H2 8464   1.190   3.486   2.644 -0.1876  0.7021 -0.9586
 2834TIP3   OH2 8465   0.898   6.329   1.898  0.4559 -0.6786  0.2863
 2834TIP3    H1 8466   0.806   6.326   1.924 -0.1259  0.2291 -1.4523
 2834TIP3    H2 8467   0.904   6.406   1.841  2.5153 -0.1703  1.1094
 2835TIP3   OH2 8468   0.768   2.019   4.604 -0.0334  0.1870  0.0569
 2835TIP3    H1 8469   0.696   2.083   4.612 -0.8918 -0.8002  0.4101
 2835TIP3    H2 8470   0.772   2.000   4.510 -0.9724 -0.5690  0.1612
 2836TIP3   OH2 8471   4.754   2.856   1.092  0.2106 -0.3780  0.0906
 2836TIP3    H1 8472   4.688   2.897   1.148 -0.2858 -0.0556 -0.7256
 2836TIP3    H2 8473   4.831   2.847   1.149  0.1004  1.0240  0.4879
 2837TIP3   OH2 8474   6.908   5.125   2.722 -0.0922  0.4938  0.4848
 2837TIP3    H1 8475   7.000   5.124   2.696 -0.7168 -1.6887 -2.0840
 2837TIP3    H2 8476   6.889   5.035   2.748 -1.1496  1.2695  2.6953
 2838TIP3   OH2 8477   1.500   4.852   0.913 -0.1910  0.2221 -0.1887
 2838TIP3    H1 8478   1.435   4.922   0.902  1.2377  1.8420  1.0293
 2838TIP3    H2 8479   1.476   4.787   0.847 -2.8821  0.8216  0.0662
 2839TIP3   OH2 8480   4.329   2.933   1.670  0.4345  0.1870 -0.3394
 2839TIP3    H1 8481   4.386   2.873   1.621  0.5712 -0.3030  0.4107
 2839TIP3    H2 8482   4.388   2.996   1.711  0.2903  0.8521 -1.1258
 2840TIP3   OH2 8483   4.518   6.722   3.243  0.5016 -0.1004 -0.2362
 2840TIP3    H1 8484   4.555   6.810   3.251  0.5363 -0.1733  0.4066
 2840TIP3    H2 8485   4.445   6.732   3.181  0.6124  0.3436 -0.2966
 2841TIP3   OH2 8486   5.736   6.563   3.884  0.7854  0.4138 -0.0937
 2841TIP3    H1 8487   5.691   6.538   3.964 -0.2855  1.4863 -0.3204
 2841TIP3    H2 8488   5.752   6.657   3.894  1.6501  0.3401 -0.6590
 2842TIP3   OH2 8489   6.069   6.507   1.245 -0.3482  0.2888 -0.3549
 2842TIP3    H1 8490   6.079   6.552   1.329 -1.0139 -0.6768  0.2668
 2842TIP3    H2 8491   5.995   6.550   1.204 -1.1197 -0.3529  0.3318
 2843TIP3   OH2 8492   2.357   3.332   2.948  0.1629 -0.2415  0.7499
 2843TIP3    H1 8493   2.357   3.236   2.959  1.1875 -0.4525 -0.7860
 2843TIP3    H2 8494   2.279   3.361   2.995  0.2279 -1.7444  1.8828
 2844TIP3   OH2 8495   4.480   1.545   0.892 -0.5327 -0.2748  0.7938
 2844TIP3    H1 8496   4.486   1.572   0.983  0.6458  0.9776  0.3706
 2844TIP3    H2 8497   4.386   1.542   0.874 -0.8103 -1.2906  2.2321
 2845TIP3   OH2 8498   4.172   4.745   4.935 -0.1727 -0.0047  0.4039
 2845TIP3    H1 8499   4.143   4.826   4.892 -0.7899 -1.2291 -1.6568
 2845TIP3    H2 8500   4.104   4.727   5.000 -0.3364  0.8127  0.4782
 2846TIP3   OH2 8501   0.255   5.726   4.571  0.3065  0.1312 -0.3908
 2846TIP3    H1 8502   0.339   5.746   4.611  0.3639  0.8754 -0.8696
 2846TIP3    H2 8503   0.211   5.810   4.562 -1.4349 -0.4195  1.8326
 2847TIP3   OH2 8504   0.142   4.543   3.300 -0.2978  0.2137 -0.0592
 2847TIP3    H1 8505   0.047   4.531   3.307 -0.2592  0.1268  0.3481
 2847TIP3    H2 8506   0.180   4.465   3.341 -0.0596  1.2676  1.8709
 2848TIP3   OH2 8507   0.761   1.766   1.699 -0.0448  0.3632  0.1338
 2848TIP3    H1 8508   0.848   1.727   1.710  0.7147  1.4104 -1.7294
 2848TIP3    H2 8509   0.706   1.695   1.668  0.8286  0.2694 -1.2837
 2849TIP3   OH2 8510   6.582   4.986   3.731  0.6432 -0.0241  0.0611
 2849TIP3    H1 8511   6.545   5.036   3.659 -1.1068 -0.8044  0.3815
 2849TIP3    H2 8512   6.558   5.035   3.809 -0.2907 -0.8585  0.3135
 2850TIP3   OH2 8513   0.926   6.630   0.186  0.1006 -0.1643 -0.5242
 2850TIP3    H1 8514   0.929   6.537   0.210  2.0259  0.1414  0.6437
 2850TIP3    H2 8515   1.013   6.649   0.152  0.2149  1.5317  0.5918
 2851TIP3   OH2 8516   1.444   5.337   1.665 -0.4534  0.3932 -0.6332
 2851TIP3    H1 8517   1.379   5.271   1.641 -1.5960  1.3701 -0.3117
 2851TIP3    H2 8518   1.477   5.368   1.581 -1.1380  0.5989 -0.8321
 2852TIP3   OH2 8519   6.349   1.648   1.308 -0.4142  0.0398 -0.7306
 2852TIP3    H1 8520   6.405   1.582   1.267  0.8191  0.0096  0.9010
 2852TIP3    H2 8521   6.294   1.681   1.236 -0.0415 -1.6933 -1.8712
 2853TIP3   OH2 8522   3.974   0.015   5.088  0.6219  0.2529  0.4413
 2853TIP3    H1 8523   3.907  -0.041   5.126  0.1473  0.7489  0.3472
 2853TIP3    H2 8524   4.008   0.066   5.163  0.1839  0.7231  0.3225
 2854TIP3   OH2 8525   4.932   6.063   5.669  0.1120 -0.6520 -0.2141
 2854TIP3    H1 8526   4.943   6.105   5.754  0.7042 -1.2732  0.0209
 2854TIP3    H2 8527   4.948   6.133   5.606  0.5472 -0.3913  0.1759
 2855TIP3   OH2 8528   4.070   0.612   2.373  0.5387 -0.0878  0.4677
 2855TIP3    H1 8529   4.070   0.561   2.454 -1.8010 -0.5025  0.2594
 2855TIP3    H2 8530   3.992   0.583   2.326  0.4554  1.9658 -0.7687
 2856TIP3   OH2 8531   7.076   4.048   1.196 -0.8837  0.3019  0.4019
 2856TIP3    H1 8532   7.065   4.001   1.114  0.8673 -0.1622  0.3928
 2856TIP3    H2 8533   7.102   4.136   1.171 -2.6254  0.8726  0.4530
 2857TIP3   OH2 8534   6.555   1.667   0.359  0.3052  0.2451 -0.0122
 2857TIP3    H1 8535   6.463   1.650   0.337 -0.1333  0.0096  1.8534
 2857TIP3    H2 8536   6.553   1.748   0.410  1.0126 -0.3022  0.8958
 2858TIP3   OH2 8537   2.338   2.615   5.729  0.1051 -0.6156 -0.1201
 2858TIP3    H1 8538   2.389   2.541   5.762  0.5131 -0.4399 -0.3573
 2858TIP3    H2 8539   2.256   2.575   5.699 -0.3095 -0.7734  1.1498
 2859TIP3   OH2 8540   5.654   4.616   3.074  0.5447  0.3950  0.4651
 2859TIP3    H1 8541   5.609   4.544   3.031  1.0033  0.7716 -0.6993
 2859TIP3    H2 8542   5.610   4.695   3.041  1.0345  0.7001  0.5260
 2860TIP3   OH2 8543   4.035   3.786   2.219 -0.3927 -0.6184  0.0592
 2860TIP3    H1 8544   4.113   3.837   2.238  0.1083 -1.2570 -0.2586
 2860TIP3    H2 8545   4.039   3.711   2.279 -0.5422 -0.8768 -0.2492
 2861TIP3   OH2 8546   0.691   5.682   3.840  0.0684  0.1386  0.4617
 2861TIP3    H1 8547   0.631   5.610   3.824 -1.1586  0.9503  1.2467
 2861TIP3    H2 8548   0.758   5.673   3.771 -1.4375 -0.2549 -1.0272
 2862TIP3   OH2 8549   2.026   2.833   4.585  0.3983 -0.1671 -0.2777
 2862TIP3    H1 8550   1.955   2.788   4.538 -1.1660 -1.0677  2.7109
 2862TIP3    H2 8551   2.105   2.786   4.559 -0.6623 -1.9345 -0.4748
 2863TIP3   OH2 8552   1.705   1.189   4.726  0.1484  0.0962 -0.2620
 2863TIP3    H1 8553   1.788   1.193   4.678  0.1213  1.6299 -0.2195
 2863TIP3    H2 8554   1.701   1.272   4.773  0.2189 -1.3399  2.5027
 2864TIP3   OH2 8555   2.958   3.726   4.653  0.4153 -0.0394 -0.2598
 2864TIP3    H1 8556   2.902   3.791   4.609  1.4397  1.0379 -0.0229
 2864TIP3    H2 8557   3.028   3.709   4.591  0.6247 -0.2452  0.0313
 2865TIP3   OH2 8558   6.587   2.941   3.170  0.6074  0.0156  0.2500
 2865TIP3    H1 8559   6.521   2.886   3.214  0.3284  0.4366  0.3622
 2865TIP3    H2 8560   6.540   3.022   3.150  1.3480  0.6653  1.1264
 2866TIP3   OH2 8561   5.658   1.027   2.112  0.0897 -0.5345  0.1645
 2866TIP3    H1 8562   5.697   1.104   2.155 -1.2095  0.2826 -0.0425
 2866TIP3    H2 8563   5.564   1.042   2.119 -0.1649 -1.2718 -1.4133
 2867TIP3   OH2 8564   2.329   0.525   2.830  0.4531 -0.2432  0.3304
 2867TIP3    H1 8565   2.246   0.526   2.782  0.8172 -3.1166 -0.5794
 2867TIP3    H2 8566   2.392   0.485   2.769  2.3765  1.2063  1.2525
 2868TIP3   OH2 8567   5.115   2.597   2.612  0.1141 -0.3150 -0.5184
 2868TIP3    H1 8568   5.101   2.568   2.522  0.8320 -0.1495 -0.6912
 2868TIP3    H2 8569   5.027   2.614   2.645 -0.1791 -0.6600 -1.0902
 2869TIP3   OH2 8570   7.072   6.507   1.224 -0.0334 -0.0087 -0.6216
 2869TIP3    H1 8571   7.120   6.461   1.155  0.3421  0.7079 -0.8503
 2869TIP3    H2 8572   7.111   6.594   1.226  1.2280 -0.5327  1.7162
 2870TIP3   OH2 8573   6.361   4.163   0.957  0.2478 -0.4223 -0.0123
 2870TIP3    H1 8574   6.351   4.258   0.950  1.0194 -0.3093  0.3305
 2870TIP3    H2 8575   6.369   4.146   1.051  0.9481 -0.7205 -0.1127
 2871TIP3   OH2 8576   2.788   0.996   0.899  0.3930  0.0502  0.1183
 2871TIP3    H1 8577   2.696   1.020   0.896  0.7689  1.4675 -1.9795
 2871TIP3    H2 8578   2.790   0.915   0.951 -1.7969  0.7777  1.4815
 2872TIP3   OH2 8579   5.763   4.345   1.840  0.1379 -0.7945  0.0698
 2872TIP3    H1 8580   5.856   4.360   1.825 -0.1515 -0.3494 -1.4025
 2872TIP3    H2 8581   5.728   4.431   1.864 -0.3817 -0.3276 -2.1849
 2873TIP3   OH2 8582   6.549   0.277   4.800  1.0260 -0.2939  0.2588
 2873TIP3    H1 8583   6.593   0.192   4.805 -0.8962 -1.4321 -0.8593
 2873TIP3    H2 8584   6.456   0.256   4.805  0.4970  1.7784  0.0965
 2874TIP3   OH2 8585   5.013   1.594   0.129  0.3736 -0.3732 -0.2082
 2874TIP3    H1 8586   5.028   1.502   0.150  0.0739  0.0561  2.1766
 2874TIP3    H2 8587   5.006   1.637   0.214  0.6245  1.8923 -1.2615
 2875TIP3   OH2 8588   1.808   5.934   2.039 -0.1779 -0.1456  0.0181
 2875TIP3    H1 8589   1.851   5.949   1.955  1.1930  0.6882  0.8261
 2875TIP3    H2 8590   1.773   5.845   2.032 -1.6783  0.5431 -2.0608
 2876TIP3   OH2 8591   4.700   0.679   0.279 -0.1544  0.7423  0.0560
 2876TIP3    H1 8592   4.759   0.685   0.205  2.2108 -1.0083  1.6613
 2876TIP3    H2 8593   4.742   0.730   0.348  0.0562 -1.2278  1.4964
 2877TIP3   OH2 8594   5.392   5.579   0.504  0.1164  0.4058  0.1527
 2877TIP3    H1 8595   5.357   5.668   0.509  0.9227  0.7603 -0.5131
 2877TIP3    H2 8596   5.486   5.590   0.492  0.1806 -0.5350 -0.2712
 2878TIP3   OH2 8597   2.743   1.414   1.394  0.0292  0.3607 -0.3769
 2878TIP3    H1 8598   2.703   1.477   1.334 -0.5971 -1.6645 -2.2518
 2878TIP3    H2 8599   2.828   1.452   1.416  0.2737  1.2336 -2.5634
 2879TIP3   OH2 8600   0.622   1.468   0.550 -0.1233 -0.4837 -0.1500
 2879TIP3    H1 8601   0.554   1.482   0.616 -1.0491  1.1229 -1.3713
 2879TIP3    H2 8602   0.694   1.526   0.577  0.3482 -1.3850  0.5599
 2880TIP3   OH2 8603   5.686   5.948   4.798  0.3468  0.6520 -0.4871
 2880TIP3    H1 8604   5.731   6.029   4.822  0.0589  0.1054  2.1069
 2880TIP3    H2 8605   5.595   5.961   4.825  0.3477 -0.6039  0.2297
 2881TIP3   OH2 8606   1.343   5.500   0.156 -0.0304  0.5318  0.3110
 2881TIP3    H1 8607   1.261   5.453   0.145  0.1362 -0.5202  2.8659
 2881TIP3    H2 8608   1.348   5.519   0.250  2.0603  1.6445  0.0430
 2882TIP3   OH2 8609   6.402   1.250   1.503  0.1194  0.2939  0.4875
 2882TIP3    H1 8610   6.341   1.285   1.439  0.0184 -0.3719  0.2053
 2882TIP3    H2 8611   6.380   1.296   1.585 -0.3331  0.5205  0.2428
 2883TIP3   OH2 8612   1.662   6.193   1.141 -0.9016  0.4257 -0.3594
 2883TIP3    H1 8613   1.660   6.213   1.047 -1.7284 -0.5663 -0.5675
 2883TIP3    H2 8614   1.609   6.114   1.150 -1.7964  1.1421  1.0927
 2884TIP3   OH2 8615   0.422   6.779   0.946 -0.1704 -0.1953  0.3278
 2884TIP3    H1 8616   0.335   6.797   0.911 -0.1882  0.2079  0.5807
 2884TIP3    H2 8617   0.458   6.713   0.886  0.0508  0.9449 -0.8559
 2885TIP3   OH2 8618   5.552   2.433   5.695 -0.3930  0.5528  0.1617
 2885TIP3    H1 8619   5.567   2.425   5.601 -1.7989 -0.8129  0.0091
 2885TIP3    H2 8620   5.459   2.453   5.703  0.0094  2.1055  1.2383
 2886TIP3   OH2 8621   3.482   5.789   5.087 -0.0163 -0.3803 -0.3192
 2886TIP3    H1 8622   3.454   5.752   5.171 -0.3747  1.6327  0.5008
 2886TIP3    H2 8623   3.448   5.728   5.021 -0.8255 -1.3383  0.9393
 2887TIP3   OH2 8624   1.841   3.106   0.151  0.1031 -0.3119 -0.5284
 2887TIP3    H1 8625   1.825   3.115   0.245 -0.4234 -0.5597 -0.5868
 2887TIP3    H2 8626   1.908   3.171   0.131 -1.0118  0.9420 -0.2976
 2888TIP3   OH2 8627   1.292   3.153   5.784  0.0465 -0.0091  0.2001
 2888TIP3    H1 8628   1.261   3.087   5.846  0.7433  1.4517  2.2224
 2888TIP3    H2 8629   1.216   3.174   5.730 -0.6814 -1.0900  0.7853
 2889TIP3   OH2 8630   7.059   5.541   1.867  0.3816 -0.1216  0.4029
 2889TIP3    H1 8631   7.033   5.449   1.868 -0.7525  0.1856  0.5278
 2889TIP3    H2 8632   7.056   5.566   1.775 -2.4126  0.5909  0.5904
 2890TIP3   OH2 8633   0.932   0.560   3.078 -0.2538  0.5330  0.0738
 2890TIP3    H1 8634   0.954   0.491   3.016  0.9458 -0.0452  1.1064
 2890TIP3    H2 8635   0.924   0.516   3.162 -0.5604  1.4952  0.5700
 2891TIP3   OH2 8636   5.485   0.895   4.071  0.2599  1.1733  0.2186
 2891TIP3    H1 8637   5.427   0.831   4.112 -0.2432  1.1665 -0.4773
 2891TIP3    H2 8638   5.486   0.871   3.979 -0.3068  2.4356 -0.1468
 2892TIP3   OH2 8639   1.105   1.520   2.009  0.0475  0.6141  0.2760
 2892TIP3    H1 8640   1.064   1.577   2.074  0.6679 -0.2534  1.4694
 2892TIP3    H2 8641   1.194   1.555   1.999  0.1676  0.3483  0.4003
 2893TIP3   OH2 8642   3.946   5.418   3.537  0.1111 -0.1038 -0.5647
 2893TIP3    H1 8643   3.979   5.446   3.452  0.1955  1.1226 -0.1455
 2893TIP3    H2 8644   4.024   5.383   3.582  0.3669  0.5518 -0.4792
 2894TIP3   OH2 8645   0.396   3.833   5.340  0.0314 -0.4501 -0.1017
 2894TIP3    H1 8646   0.361   3.752   5.303  0.5453 -0.7774  0.1189
 2894TIP3    H2 8647   0.371   3.901   5.277 -1.0334 -0.6625  0.0818
 2895TIP3   OH2 8648   5.207   2.499   2.251 -0.0499 -0.5507 -0.4739
 2895TIP3    H1 8649   5.258   2.553   2.191 -0.0400 -0.0107  0.0118
 2895TIP3    H2 8650   5.151   2.561   2.297 -0.3180 -1.0028 -0.1854
 2896TIP3   OH2 8651   4.329   0.476   5.698 -0.0836  0.4439 -0.5952
 2896TIP3    H1 8652   4.324   0.557   5.749 -0.4028  0.8308 -1.2364
 2896TIP3    H2 8653   4.423   0.457   5.693 -0.0967 -0.4286  1.4138
 2897TIP3   OH2 8654   2.465   5.123   0.164  0.0414 -0.1735  0.3361
 2897TIP3    H1 8655   2.519   5.131   0.242 -0.2196 -1.4402  0.6662
 2897TIP3    H2 8656   2.510   5.178   0.099  1.1260 -0.3452  0.9062
 2898TIP3   OH2 8657   6.833   3.809   0.119  0.4762 -0.5084 -0.4628
 2898TIP3    H1 8658   6.875   3.773   0.198 -0.2905  0.6553  0.5208
 2898TIP3    H2 8659   6.843   3.741   0.053  0.7995 -1.6839  0.7557
 2899TIP3   OH2 8660   3.859   2.098   3.086  0.1296  0.3987 -0.0219
 2899TIP3    H1 8661   3.837   2.182   3.046 -1.4318 -0.3253 -0.7882
 2899TIP3    H2 8662   3.856   2.036   3.013  1.9951 -0.2333  0.3893
 2900TIP3   OH2 8663   3.958   3.697   0.313  0.0753  0.2416 -0.2592
 2900TIP3    H1 8664   4.029   3.744   0.356 -0.5450  0.1348  0.9226
 2900TIP3    H2 8665   4.001   3.624   0.268  0.8116  0.7480 -0.3972
 2901TIP3   OH2 8666   5.336   1.894   4.351 -0.3062 -0.1614 -0.0595
 2901TIP3    H1 8667   5.383   1.870   4.270 -0.8724 -0.8182 -0.2018
 2901TIP3    H2 8668   5.283   1.969   4.326  0.2717  0.2665 -0.0314
 2902TIP3   OH2 8669   1.245   5.300   5.234 -0.3923  0.2435  0.0963
 2902TIP3    H1 8670   1.247   5.392   5.261 -1.9469  1.0258 -2.0881
 2902TIP3    H2 8671   1.251   5.303   5.139  1.7283 -2.1030  0.0516
 2903TIP3   OH2 8672   6.659   2.808   5.376  0.0818 -0.3645 -0.1464
 2903TIP3    H1 8673   6.687   2.896   5.401  3.5862 -1.2975 -0.2252
 2903TIP3    H2 8674   6.666   2.808   5.280 -1.3399 -0.3432 -0.2642
 2904TIP3   OH2 8675   1.408   2.175   5.687 -0.3558  0.4080  0.3268
 2904TIP3    H1 8676   1.381   2.258   5.647 -1.5319  0.1714  0.6095
 2904TIP3    H2 8677   1.489   2.197   5.734 -2.0492  2.0576  2.6724
 2905TIP3   OH2 8678   2.531   1.921   5.762  0.6002  0.1343 -0.0291
 2905TIP3    H1 8679   2.550   1.936   5.669 -0.1457  1.0500 -0.0485
 2905TIP3    H2 8680   2.490   1.835   5.765  1.8892 -0.5199 -0.3595
 2906TIP3   OH2 8681   5.303   5.629   5.339 -0.4245 -0.1968  0.0449
 2906TIP3    H1 8682   5.266   5.633   5.427  0.5062  0.4828  0.4241
 2906TIP3    H2 8683   5.260   5.700   5.291 -2.0299 -1.4919 -0.5149
 2907TIP3   OH2 8684   4.282   2.139   5.307 -0.1246 -0.6159  0.1101
 2907TIP3    H1 8685   4.350   2.072   5.299 -0.4003 -0.8792 -0.0318
 2907TIP3    H2 8686   4.245   2.125   5.394 -1.5951 -2.0063 -0.6886
 2908TIP3   OH2 8687   2.182   6.123   2.670 -0.0944  0.7228  0.0915
 2908TIP3    H1 8688   2.234   6.103   2.593 -1.6509 -1.5555 -0.5010
 2908TIP3    H2 8689   2.246   6.137   2.740  1.3218  0.7554 -1.1633
 2909TIP3   OH2 8690   5.559   3.866   2.219 -0.0769  0.0421 -0.4563
 2909TIP3    H1 8691   5.523   3.940   2.170  0.2087 -0.4584 -1.4647
 2909TIP3    H2 8692   5.530   3.880   2.309  0.4440  1.6727 -0.5069
 2910TIP3   OH2 8693   2.549   6.110   2.408 -0.1997 -0.1998  0.5545
 2910TIP3    H1 8694   2.506   6.164   2.474  0.2171 -2.0074  2.4021
 2910TIP3    H2 8695   2.478   6.079   2.352 -0.5944  1.1489  0.2742
 2911TIP3   OH2 8696   2.805   0.560   5.731 -0.6247  0.3484  0.3247
 2911TIP3    H1 8697   2.891   0.591   5.702 -0.5707 -0.4667 -0.4274
 2911TIP3    H2 8698   2.756   0.544   5.650 -0.3985 -2.1901  0.6119
 2912TIP3   OH2 8699   0.548   3.468   4.985  0.1784  0.0046 -0.4839
 2912TIP3    H1 8700   0.524   3.542   4.929  0.2173  0.1977 -0.2468
 2912TIP3    H2 8701   0.535   3.391   4.929 -1.3106  0.0687 -0.2841
 2913TIP3   OH2 8702   3.825   5.240   5.108  0.3796 -0.0521  0.4788
 2913TIP3    H1 8703   3.779   5.312   5.151 -2.0051 -0.8021 -0.6105
 2913TIP3    H2 8704   3.899   5.281   5.065 -0.1357  1.5344  1.0428
 2914TIP3   OH2 8705   2.949   0.089   0.014  0.1428 -0.1957  0.4198
 2914TIP3    H1 8706   2.901   0.008   0.031 -0.3130  0.3644  2.0233
 2914TIP3    H2 8707   2.992   0.110   0.097  0.0450  1.3160  0.1257
 2915TIP3   OH2 8708   0.982   4.784   4.537 -0.2619  0.0260  0.0007
 2915TIP3    H1 8709   0.957   4.693   4.549 -1.3916  0.3771  0.3989
 2915TIP3    H2 8710   1.075   4.786   4.560 -0.6121 -0.7094  1.6701
 2916TIP3   OH2 8711   7.067   0.984   1.529 -0.3953  0.1206  0.3826
 2916TIP3    H1 8712   7.083   0.909   1.586  0.1648  0.4445  0.6609
 2916TIP3    H2 8713   6.972   0.985   1.517 -0.4210 -0.5237  0.5206
 2917TIP3   OH2 8714   5.867   0.349   1.510  0.0193 -0.3015  0.1724
 2917TIP3    H1 8715   5.777   0.343   1.479  0.0764  0.8611 -0.2358
 2917TIP3    H2 8716   5.865   0.414   1.580  0.5231 -0.3565  0.2456
 2918TIP3   OH2 8717   1.368   0.470   2.419 -0.6770 -0.1053 -0.4650
 2918TIP3    H1 8718   1.450   0.508   2.450 -0.5937 -0.8023  0.1857
 2918TIP3    H2 8719   1.391   0.428   2.336 -0.1689 -1.0535  0.1422
 2919TIP3   OH2 8720   3.604   3.308   0.687  0.1715  0.1811 -0.5575
 2919TIP3    H1 8721   3.621   3.399   0.709  0.7556  0.0345 -0.3780
 2919TIP3    H2 8722   3.606   3.306   0.591  0.4940  0.3003 -0.5567
 2920TIP3   OH2 8723   1.870   4.480   3.294 -0.0171 -0.2858  0.4131
 2920TIP3    H1 8724   1.881   4.384   3.294  1.4690 -0.1560 -0.7119
 2920TIP3    H2 8725   1.957   4.514   3.317  0.2600  0.8014 -1.9530
 2921TIP3   OH2 8726   4.678   5.819   5.177  0.1916  0.3631 -0.6505
 2921TIP3    H1 8727   4.748   5.780   5.229  0.5060  1.9480  0.1792
 2921TIP3    H2 8728   4.644   5.747   5.124  1.9812 -0.5815 -0.5650
 2922TIP3   OH2 8729   3.640   5.904   1.754  0.6460  0.0281 -0.1144
 2922TIP3    H1 8730   3.654   5.995   1.728  0.9702  0.4911  1.5713
 2922TIP3    H2 8731   3.615   5.859   1.673  1.0097  1.4965 -1.0725
 2923TIP3   OH2 8732   6.515   3.680   0.242 -0.6335 -0.3229 -0.1490
 2923TIP3    H1 8733   6.536   3.747   0.178  0.2075 -1.3841 -1.0289
 2923TIP3    H2 8734   6.464   3.725   0.309  1.3150  1.5714  0.1536
 2924TIP3   OH2 8735   2.366   4.928   4.528 -0.0576 -0.0848  0.0124
 2924TIP3    H1 8736   2.279   4.963   4.545  1.0281  2.3251  1.1078
 2924TIP3    H2 8737   2.402   4.908   4.615  1.5696  1.9675 -0.1017
 2925TIP3   OH2 8738   6.433   0.481   3.949 -0.2950  0.5087 -0.4158
 2925TIP3    H1 8739   6.527   0.486   3.969 -0.2244  1.2493 -0.9324
 2925TIP3    H2 8740   6.412   0.388   3.959  0.9607 -0.0514 -2.3983
 2926TIP3   OH2 8741   2.032   4.190   0.006 -0.3611  0.0175 -0.2123
 2926TIP3    H1 8742   1.945   4.220   0.029 -0.4473 -1.2612  1.2925
 2926TIP3    H2 8743   2.018   4.103  -0.031  0.1700  0.3551 -1.2436
 2927TIP3   OH2 8744   5.053   1.311   1.109  0.2980  0.2398 -0.1632
 2927TIP3    H1 8745   5.085   1.304   1.198 -2.2764 -0.0074  0.8420
 2927TIP3    H2 8746   5.029   1.221   1.084 -0.3794  0.5022 -0.5092
 2928TIP3   OH2 8747   0.601   3.558   3.165 -0.4249 -0.2909  0.1716
 2928TIP3    H1 8748   0.626   3.548   3.256  1.3021 -1.0554 -0.3489
 2928TIP3    H2 8749   0.548   3.481   3.146 -1.0334  0.0143  0.5780
 2929TIP3   OH2 8750   0.703   6.178   1.177  0.2426 -0.3007  0.6518
 2929TIP3    H1 8751   0.732   6.190   1.268  0.0850 -0.6977  0.7572
 2929TIP3    H2 8752   0.608   6.193   1.181  0.1910 -0.6192  0.6086
 2930TIP3   OH2 8753   1.839   0.097   1.765 -0.0554  0.0948  0.0430
 2930TIP3    H1 8754   1.813   0.171   1.820  0.9522 -0.3575  1.1745
 2930TIP3    H2 8755   1.893   0.136   1.696  0.5054  0.4202  0.6549
 2931TIP3   OH2 8756   2.994   4.063   5.164  0.5510  0.4664 -0.1626
 2931TIP3    H1 8757   2.909   4.105   5.149  0.7203  0.3762 -1.5324
 2931TIP3    H2 8758   2.975   3.970   5.159  0.5641  0.4130  0.6151
 2932TIP3   OH2 8759   5.485   3.618   1.358  0.9584 -0.1540  0.4996
 2932TIP3    H1 8760   5.462   3.620   1.451  2.1255 -0.3001  0.8112
 2932TIP3    H2 8761   5.580   3.610   1.357  1.1945  1.9547 -0.7109
 2933TIP3   OH2 8762   4.878   0.317   4.167 -0.1788 -0.2145  0.7491
 2933TIP3    H1 8763   4.836   0.283   4.246  0.0239 -1.8341  0.1873
 2933TIP3    H2 8764   4.807   0.359   4.118 -0.7807 -1.2978  0.6762
 2934TIP3   OH2 8765   2.758   2.089   2.605  0.5798 -0.2903  0.0866
 2934TIP3    H1 8766   2.822   2.122   2.543 -1.4384  1.5590 -1.1326
 2934TIP3    H2 8767   2.701   2.032   2.553  0.2886 -0.6593  0.7913
 2935TIP3   OH2 8768   4.588   5.523   3.263  0.0938 -0.5346  0.1030
 2935TIP3    H1 8769   4.664   5.480   3.302  1.2045  0.8532 -0.4162
 2935TIP3    H2 8770   4.563   5.589   3.327  0.8934  0.6418 -0.7475
 2936TIP3   OH2 8771   0.954   4.986   2.121  0.4317 -0.2180  0.3306
 2936TIP3    H1 8772   1.046   4.973   2.145  0.0499  0.3948  2.2898
 2936TIP3    H2 8773   0.906   4.928   2.180 -0.5078  0.3923  0.1701
 2937TIP3   OH2 8774   6.250   5.274   1.621 -0.1888  0.0190 -0.6451
 2937TIP3    H1 8775   6.335   5.239   1.649 -0.5249 -0.9845 -0.8433
 2937TIP3    H2 8776   6.257   5.368   1.637  1.3067  0.1064 -1.5098
 2938TIP3   OH2 8777   2.633   0.582   0.563 -0.1719  0.2031  0.4585
 2938TIP3    H1 8778   2.713   0.538   0.535 -0.7159 -1.0614  0.8427
 2938TIP3    H2 8779   2.639   0.584   0.658 -1.4568 -1.6328  0.6174
 2939TIP3   OH2 8780   4.598   5.131   4.708 -0.0158  0.6878  0.2759
 2939TIP3    H1 8781   4.614   5.155   4.616 -0.0999  2.1745  0.6131
 2939TIP3    H2 8782   4.676   5.083   4.735  0.5775  1.3413 -0.2241
 2940TIP3   OH2 8783   3.059   3.327   2.505  0.3605  0.2781 -0.1359
 2940TIP3    H1 8784   3.069   3.284   2.420  0.7645  1.3358 -0.6371
 2940TIP3    H2 8785   2.968   3.355   2.507  0.4084  0.4560 -0.3295
 2941TIP3   OH2 8786   1.988   4.948   0.030 -0.5865  0.1832  0.0861
 2941TIP3    H1 8787   1.896   4.960   0.004 -0.4378  0.8789 -0.1424
 2941TIP3    H2 8788   2.021   5.037   0.043  0.8878  0.2018 -2.7968
 2942TIP3   OH2 8789   0.271   4.266   3.406  0.0764  0.2024  0.1377
 2942TIP3    H1 8790   0.306   4.297   3.489  0.1735 -2.0701  0.9983
 2942TIP3    H2 8791   0.330   4.196   3.379  0.2979  1.1682 -2.1079
 2943TIP3   OH2 8792   3.583   4.342   3.697 -0.0489  0.0556 -0.3593
 2943TIP3    H1 8793   3.488   4.336   3.705 -0.0011 -2.1642 -0.9690
 2943TIP3    H2 8794   3.598   4.374   3.608 -0.1909  2.0024  0.2592
 2944TIP3   OH2 8795   0.047   4.311   2.697 -0.0641 -0.3992 -0.0602
 2944TIP3    H1 8796  -0.027   4.367   2.674 -0.1143 -0.4270  0.0315
 2944TIP3    H2 8797   0.124   4.360   2.669 -0.1358 -0.5636 -0.5561
 2945TIP3   OH2 8798   5.067   0.099   0.479 -0.3577 -0.4550  0.2435
 2945TIP3    H1 8799   5.017   0.180   0.487 -0.2540 -0.5477  2.7061
 2945TIP3    H2 8800   5.005   0.036   0.444 -0.5848  0.5387 -1.2245
 2946TIP3   OH2 8801   3.410   6.307   2.250  0.0213  0.5075  0.2460
 2946TIP3    H1 8802   3.425   6.401   2.239 -2.0901  0.8981  0.3341
 2946TIP3    H2 8803   3.454   6.267   2.176  0.2712  1.6281 -0.2373
 2947TIP3   OH2 8804   1.434   4.706   1.527 -0.1468 -0.0686 -0.2103
 2947TIP3    H1 8805   1.390   4.621   1.526 -2.2709  0.8473 -3.9864
 2947TIP3    H2 8806   1.393   4.756   1.457  1.2354  4.0399  1.5360
 2948TIP3   OH2 8807   6.808   3.896   1.624 -0.0294 -0.1524 -0.0380
 2948TIP3    H1 8808   6.895   3.860   1.605 -0.6651 -0.6609 -2.4296
 2948TIP3    H2 8809   6.749   3.820   1.617 -0.8397  0.4671 -0.0888
 2949TIP3   OH2 8810   2.332   2.958   4.825  0.2608 -0.5141 -0.0446
 2949TIP3    H1 8811   2.335   3.038   4.772 -1.7780 -0.8145 -0.6925
 2949TIP3    H2 8812   2.367   2.890   4.767  1.6963 -0.1901  0.3975
 2950TIP3   OH2 8813   4.175   4.696   2.769 -0.1032  0.7061  0.1026
 2950TIP3    H1 8814   4.099   4.693   2.827  1.0903 -0.5446  1.6884
 2950TIP3    H2 8815   4.187   4.605   2.740  1.7019  0.5388  1.1948
 2951TIP3   OH2 8816   0.208   2.974   4.449 -0.1156 -0.3576  0.2387
 2951TIP3    H1 8817   0.249   2.905   4.499  0.9007 -1.0865 -1.5022
 2951TIP3    H2 8818   0.142   2.929   4.396 -0.4324  0.2224  0.1314
 2952TIP3   OH2 8819   2.109   5.183   3.025 -0.1253 -0.0167 -0.5245
 2952TIP3    H1 8820   2.048   5.253   3.004  0.7632  0.6835 -0.8615
 2952TIP3    H2 8821   2.075   5.106   2.980 -0.6476  0.4130 -0.8725
 2953TIP3   OH2 8822   0.477   1.919   1.978 -0.3600 -0.0525  0.1268
 2953TIP3    H1 8823   0.451   1.960   1.896 -0.0498  1.5732  0.7923
 2953TIP3    H2 8824   0.399   1.923   2.033 -0.3127 -0.2951  0.2097
 2954TIP3   OH2 8825   3.054   1.686   1.038 -0.4956 -0.8408 -0.0642
 2954TIP3    H1 8826   3.102   1.668   1.119  0.4930  0.1632 -0.4050
 2954TIP3    H2 8827   2.991   1.754   1.062  0.9736  0.7326 -0.4901
 2955TIP3   OH2 8828   1.702   4.981   3.407 -0.4141  0.5230  0.0114
 2955TIP3    H1 8829   1.751   5.005   3.329  1.7702  0.4294  1.2904
 2955TIP3    H2 8830   1.612   5.010   3.388  0.6117  3.1430 -1.3687
 2956TIP3   OH2 8831   6.089   3.683   5.288  0.6082 -0.1376  0.0541
 2956TIP3    H1 8832   6.035   3.649   5.359 -0.5654  1.0640 -0.2297
 2956TIP3    H2 8833   6.128   3.605   5.248 -0.9212 -1.0498  0.2726
 2957TIP3   OH2 8834   1.710   6.041   4.554 -0.3899 -0.3689 -0.0174
 2957TIP3    H1 8835   1.692   6.110   4.617 -0.1779  0.0026 -0.3629
 2957TIP3    H2 8836   1.733   6.087   4.473  1.0720 -0.8362  0.1112
 2958TIP3   OH2 8837   3.045   5.476   0.556  0.7548 -0.1639 -0.0214
 2958TIP3    H1 8838   3.048   5.571   0.543  1.8925 -0.2460 -0.4619
 2958TIP3    H2 8839   2.975   5.447   0.498  2.3925  0.0820 -2.2630
 2959TIP3   OH2 8840   2.768   4.110  -0.026 -0.0150  0.2136  0.2459
 2959TIP3    H1 8841   2.786   4.087   0.065  0.4939 -2.2930 -0.4320
 2959TIP3    H2 8842   2.678   4.142  -0.025  1.1436  4.0122  2.1738
 2960TIP3   OH2 8843   2.867   6.212   0.360  1.2919  0.0683 -0.4279
 2960TIP3    H1 8844   2.791   6.234   0.305 -0.4326 -1.7825  1.0646
 2960TIP3    H2 8845   2.862   6.275   0.432  2.2555  1.0655 -1.1954
 2961TIP3   OH2 8846   0.527   2.700   1.082 -0.3277  0.1718 -0.2769
 2961TIP3    H1 8847   0.531   2.678   0.989 -1.2889  0.4823 -0.3970
 2961TIP3    H2 8848   0.445   2.747   1.093 -0.5803 -0.4840  0.8648
 2962TIP3   OH2 8849   2.623   6.561   3.577 -0.1959  0.0977 -0.1995
 2962TIP3    H1 8850   2.646   6.476   3.615 -0.8058 -0.4425 -1.0044
 2962TIP3    H2 8851   2.610   6.543   3.484 -1.4351  0.8346 -0.1917
 2963TIP3   OH2 8852   5.076   6.253   3.517  0.2693  0.4151  0.5910
 2963TIP3    H1 8853   5.150   6.311   3.536  0.2640  0.3319  0.8784
 2963TIP3    H2 8854   5.018   6.264   3.592 -0.0980  0.6181  0.2788
 2964TIP3   OH2 8855   3.443   3.112   4.543 -0.2881  0.6562 -0.4358
 2964TIP3    H1 8856   3.522   3.087   4.591 -0.5968 -0.7996 -0.6562
 2964TIP3    H2 8857   3.461   3.087   4.453 -0.2526  2.1263 -0.8648
 2965TIP3   OH2 8858   3.272   3.843   4.493 -0.0019 -0.0761 -0.4099
 2965TIP3    H1 8859   3.197   3.896   4.521  0.2859 -0.0403  0.3183
 2965TIP3    H2 8860   3.292   3.874   4.405 -1.8240 -1.1636 -1.2749
 2966TIP3   OH2 8861   0.209   1.967   2.095 -0.2455 -0.1962  0.3069
 2966TIP3    H1 8862   0.225   1.883   2.137 -0.0498 -0.7015 -0.7463
 2966TIP3    H2 8863   0.141   1.948   2.030 -0.0468  0.4180 -0.0847
 2967TIP3   OH2 8864   5.869   2.234   2.636 -0.0484 -0.6378 -0.7469
 2967TIP3    H1 8865   5.881   2.311   2.692  0.9193 -0.6379 -0.9400
 2967TIP3    H2 8866   5.891   2.264   2.548  2.4190 -1.5850 -0.5586
 2968TIP3   OH2 8867   4.519   3.942   5.199 -0.1348  0.0886  0.0239
 2968TIP3    H1 8868   4.546   3.939   5.290  0.3875  0.3353 -0.1236
 2968TIP3    H2 8869   4.533   3.853   5.167 -2.7252 -0.7250  0.8552
 2969TIP3   OH2 8870   6.576   3.750   2.229  0.1847  0.4485 -0.1553
 2969TIP3    H1 8871   6.643   3.817   2.218  1.0692  0.0133  2.1251
 2969TIP3    H2 8872   6.625   3.669   2.246 -0.8895 -0.0571  0.6452
 2970TIP3   OH2 8873   6.832   6.353   0.713  0.4320 -0.6647 -0.5217
 2970TIP3    H1 8874   6.832   6.331   0.806  0.9960 -0.1139 -0.3844
 2970TIP3    H2 8875   6.802   6.273   0.670 -0.8493 -0.5857  0.1961
 2971TIP3   OH2 8876   5.236   3.985   5.747  0.2514  0.2462 -0.1760
 2971TIP3    H1 8877   5.219   4.053   5.682  0.7058 -1.4255 -2.1724
 2971TIP3    H2 8878   5.326   4.000   5.775  0.8574 -0.3484 -1.7062
 2972TIP3   OH2 8879   4.184   5.801   5.192  0.0303  0.2789 -0.3519
 2972TIP3    H1 8880   4.232   5.883   5.187 -1.7208  1.4429  1.0445
 2972TIP3    H2 8881   4.143   5.802   5.279  0.6183 -2.4662  0.0568
 2973TIP3   OH2 8882   4.556   1.746   2.427  0.2078 -0.7210 -0.7023
 2973TIP3    H1 8883   4.513   1.693   2.360 -1.8300 -0.2965  0.1942
 2973TIP3    H2 8884   4.612   1.684   2.473 -0.3920 -1.6002 -1.1204
 2974TIP3   OH2 8885   6.145   6.232   2.312  0.6428  0.3444 -0.1169
 2974TIP3    H1 8886   6.065   6.209   2.265  1.5132 -0.4868 -1.2640
 2974TIP3    H2 8887   6.125   6.219   2.404 -1.0320  1.7214 -0.2363
 2975TIP3   OH2 8888   4.598   3.337   5.610  0.3214  0.5572 -0.0988
 2975TIP3    H1 8889   4.645   3.285   5.676  2.6905  2.8425  0.1660
 2975TIP3    H2 8890   4.631   3.304   5.526  1.3603  1.1621  0.0518
 2976TIP3   OH2 8891   1.635   5.071   3.994  0.0494  0.6898 -0.0551
 2976TIP3    H1 8892   1.689   5.035   4.065 -0.8357 -0.7734 -0.0735
 2976TIP3    H2 8893   1.674   5.156   3.974  1.5850  0.2021  0.7573
 2977TIP3   OH2 8894   1.538   4.006   0.754  0.3271  0.2579  0.4275
 2977TIP3    H1 8895   1.522   3.935   0.691  0.6429 -1.5743  2.2942
 2977TIP3    H2 8896   1.526   4.086   0.704  1.3748 -1.1008 -2.1482
 2978TIP3   OH2 8897   4.987   2.004   5.508 -0.1632  0.2503  0.8259
 2978TIP3    H1 8898   4.916   1.958   5.553  0.8692  0.1375  2.4396
 2978TIP3    H2 8899   5.064   1.987   5.562  0.5348  2.7356  0.7420
 2979TIP3   OH2 8900   6.076   6.104   5.484  0.4314  0.0453  0.0863
 2979TIP3    H1 8901   6.063   6.130   5.392 -0.0736 -0.2344  0.0802
 2979TIP3    H2 8902   6.045   6.014   5.488  2.8530 -0.8861 -0.0688
 2980TIP3   OH2 8903   6.909   1.247   3.998  0.1888  0.1685 -0.5147
 2980TIP3    H1 8904   6.850   1.230   4.072  1.6268  1.6669  1.0775
 2980TIP3    H2 8905   6.890   1.176   3.936 -0.9949 -1.2473  1.3282
 2981TIP3   OH2 8906   4.342   5.877   1.656 -0.0237  0.0418  0.2333
 2981TIP3    H1 8907   4.341   5.921   1.741  1.1222 -1.3198  0.9957
 2981TIP3    H2 8908   4.282   5.928   1.602 -1.7454  0.2643  2.2126
 2982TIP3   OH2 8909   1.462   0.431   1.043  0.2688  0.4839  1.2842
 2982TIP3    H1 8910   1.383   0.422   0.991  1.9416  4.0942 -2.4222
 2982TIP3    H2 8911   1.476   0.525   1.050  3.3821  0.0268  3.2364
 2983TIP3   OH2 8912   3.336   0.914   4.064  0.3394  0.3461  0.4020
 2983TIP3    H1 8913   3.431   0.928   4.055  0.1810  0.9827 -0.3310
 2983TIP3    H2 8914   3.299   0.950   3.984 -0.3821 -1.4691 -0.1151
 2984TIP3   OH2 8915   3.155   5.823   2.382  0.7842  0.0003  0.1905
 2984TIP3    H1 8916   3.155   5.739   2.336  0.9665 -0.3922  0.8884
 2984TIP3    H2 8917   3.078   5.869   2.348  0.7371 -0.4029 -0.2671
 2985TIP3   OH2 8918   6.561   5.527   2.487 -0.2859 -0.4609 -0.0186
 2985TIP3    H1 8919   6.622   5.547   2.557 -1.4919 -0.9431  1.2096
 2985TIP3    H2 8920   6.616   5.509   2.411  1.1345 -1.7287  1.2577
 2986TIP3   OH2 8921   2.955   5.438   3.148  0.2845 -0.3621  0.2467
 2986TIP3    H1 8922   2.884   5.484   3.103 -0.7516 -2.0639  0.0513
 2986TIP3    H2 8923   2.911   5.375   3.204  1.5977  0.7771  2.6945
 2987TIP3   OH2 8924   3.537   2.909   1.323  0.1482  0.4837 -0.8148
 2987TIP3    H1 8925   3.510   2.896   1.232 -1.7418  0.8695 -0.3530
 2987TIP3    H2 8926   3.540   2.821   1.360  0.5267  0.3549 -1.1540
 2988TIP3   OH2 8927   0.727   6.097   0.413  0.1675  0.0771 -0.3209
 2988TIP3    H1 8928   0.638   6.130   0.404  0.1312 -0.0395 -0.3916
 2988TIP3    H2 8929   0.734   6.029   0.347  0.5066  0.4993 -0.7260
 2989TIP3   OH2 8930   6.502   4.922   0.135 -0.2487  0.3250  0.5707
 2989TIP3    H1 8931   6.408   4.941   0.140 -0.1009  1.9193 -1.5592
 2989TIP3    H2 8932   6.540   4.970   0.209 -0.9869  0.3505  0.9485
 2990TIP3   OH2 8933   6.099   5.001   4.090 -0.1164 -0.1224 -0.1866
 2990TIP3    H1 8934   6.158   4.969   4.159  0.9202  0.4351 -0.7873
 2990TIP3    H2 8935   6.079   5.091   4.116  0.5718  0.2146 -0.7777
 2991TIP3   OH2 8936   5.402   2.626   3.674 -0.1960 -0.2712  0.6876
 2991TIP3    H1 8937   5.495   2.640   3.656 -0.4673 -0.1216 -0.7036
 2991TIP3    H2 8938   5.390   2.657   3.763  1.2945 -1.2531  1.2826
 2992TIP3   OH2 8939   3.328   5.798   2.115  0.3639 -0.1412  0.6537
 2992TIP3    H1 8940   3.254   5.856   2.097  0.3794 -0.5203 -0.7185
 2992TIP3    H2 8941   3.287   5.715   2.139  0.2501 -0.9688 -2.0654
 2993TIP3   OH2 8942   3.645   4.086   2.940 -0.2577 -0.1166  0.0747
 2993TIP3    H1 8943   3.670   4.153   3.004  1.0584  0.4465 -0.9784
 2993TIP3    H2 8944   3.550   4.081   2.946 -0.1873  0.0559  1.9255
 2994TIP3   OH2 8945   4.237   6.302   4.094  0.3773  0.0491 -0.0063
 2994TIP3    H1 8946   4.325   6.275   4.120  0.5389  1.6002  1.2058
 2994TIP3    H2 8947   4.217   6.378   4.149 -2.0858 -0.7738  0.3733
 2995TIP3   OH2 8948   1.612   6.599   3.366 -0.0993 -0.3483  0.4042
 2995TIP3    H1 8949   1.611   6.672   3.427  1.3828 -0.9199  1.1456
 2995TIP3    H2 8950   1.659   6.631   3.290 -1.1521  0.0701 -0.0915
 2996TIP3   OH2 8951   0.801   5.894   5.499 -0.6247  0.4474 -0.4693
 2996TIP3    H1 8952   0.799   5.815   5.445  2.5754 -0.7045  0.8768
 2996TIP3    H2 8953   0.774   5.865   5.586  1.8823  0.4106  0.3767
 2997TIP3   OH2 8954   1.090   0.577   5.470  0.0701 -0.7554 -0.0955
 2997TIP3    H1 8955   1.131   0.581   5.557 -0.0459  1.1989 -0.0861
 2997TIP3    H2 8956   1.096   0.667   5.437  0.7143 -1.5718 -2.4025
 2998TIP3   OH2 8957   2.659   1.062   3.582 -0.0821  0.4531 -0.1681
 2998TIP3    H1 8958   2.656   0.985   3.638  0.4445  0.9549  0.5660
 2998TIP3    H2 8959   2.567   1.089   3.573 -0.3769 -0.7912 -1.2157
 2999TIP3   OH2 8960   6.988   0.506   2.465 -0.0296 -0.1866  0.4571
 2999TIP3    H1 8961   6.912   0.529   2.519  0.2541  0.1635  0.7122
 2999TIP3    H2 8962   7.046   0.457   2.523 -1.0796 -2.5254 -0.3500
 3000TIP3   OH2 8963   0.655   1.795   4.148  0.5438 -0.2087 -0.1222
 3000TIP3    H1 8964   0.588   1.769   4.212 -0.3134  1.1848 -0.4129
 3000TIP3    H2 8965   0.719   1.845   4.199 -0.2307  1.0553 -0.3313
 3001TIP3   OH2 8966   3.915   0.269   1.076  0.0960  0.1611  0.0962
 3001TIP3    H1 8967   3.861   0.265   1.155 -0.6815 -0.1719 -0.4400
 3001TIP3    H2 8968   3.854   0.298   1.007  0.3513 -1.1875 -0.7259
 3002TIP3   OH2 8969   3.467   1.505   4.556  0.5716  0.3352 -0.0767
 3002TIP3    H1 8970   3.487   1.597   4.573  0.1808  0.4515 -0.2405
 3002TIP3    H2 8971   3.539   1.457   4.598 -0.1381  0.6314  1.5683
 3003TIP3   OH2 8972   0.387   3.424   3.368 -0.4082  0.4320  0.1363
 3003TIP3    H1 8973   0.481   3.430   3.388 -0.3062  1.5322 -0.5795
 3003TIP3    H2 8974   0.384   3.378   3.284 -0.4326  1.2092 -0.3007
 3004TIP3   OH2 8975   2.247   4.296   4.638 -0.4288 -0.4282 -0.0062
 3004TIP3    H1 8976   2.295   4.368   4.679 -0.2590 -1.2902  1.3843
 3004TIP3    H2 8977   2.251   4.225   4.702  0.2392 -2.0166 -1.7169
 3005TIP3   OH2 8978   5.554   1.321   1.585 -0.9394  0.6045 -0.7077
 3005TIP3    H1 8979   5.547   1.254   1.653  1.4326  0.2588 -0.7264
 3005TIP3    H2 8980   5.591   1.397   1.630  1.1397  0.2092 -1.6288
 3006TIP3   OH2 8981   5.261   5.323   1.176  0.1706 -0.6783  0.2020
 3006TIP3    H1 8982   5.218   5.239   1.161 -1.6893  0.5195 -1.6980
 3006TIP3    H2 8983   5.317   5.334   1.098  0.4959 -0.2037  0.5012
 3007TIP3   OH2 8984   0.222   5.193   5.414 -0.4923  0.0478 -0.6006
 3007TIP3    H1 8985   0.187   5.130   5.350 -1.5185 -0.9820  0.9149
 3007TIP3    H2 8986   0.219   5.146   5.497  0.7075  1.4055  0.2350
 3008TIP3   OH2 8987   2.205   1.279   3.232 -0.0498  0.0709  0.1112
 3008TIP3    H1 8988   2.258   1.200   3.221  2.1986  1.4862  0.1234
 3008TIP3    H2 8989   2.134   1.268   3.169  0.9107 -1.4068 -0.7916
 3009TIP3   OH2 8990   5.924   2.213   2.360  0.3509  0.5929 -0.4798
 3009TIP3    H1 8991   5.832   2.191   2.346 -0.0448  2.1896 -0.6379
 3009TIP3    H2 8992   5.972   2.155   2.300 -0.6476  0.6417 -1.3632
 3010TIP3   OH2 8993   5.858   3.637   5.775  0.2088  0.0458  0.0925
 3010TIP3    H1 8994   5.791   3.573   5.796  0.9490 -0.3318  1.4683
 3010TIP3    H2 8995   5.931   3.615   5.833  0.2200  2.5761  1.1870
 3011TIP3   OH2 8996   4.550   0.183   2.651  0.7018  0.2555  0.0021
 3011TIP3    H1 8997   4.472   0.230   2.680  0.4665 -1.1192  1.7128
 3011TIP3    H2 8998   4.520   0.128   2.579  0.8671  2.1958 -1.6647
 3012TIP3   OH2 8999   0.184   1.688   0.166  0.5805 -0.1093 -0.4139
 3012TIP3    H1 9000   0.200   1.594   0.178 -0.5450 -0.1752  0.8403
 3012TIP3    H2 9001   0.089   1.696   0.165  0.6633  0.9088 -1.6685
 3013TIP3   OH2 9002   5.927   1.075   3.953  0.4335 -0.1096  0.3851
 3013TIP3    H1 9003   5.851   1.041   4.001  0.3761  2.4095  2.3059
 3013TIP3    H2 9004   5.999   1.066   4.015  1.2238 -0.3875 -0.5662
 3014TIP3   OH2 9005   3.726   6.290   5.064  0.3161  0.0726 -0.6219
 3014TIP3    H1 9006   3.672   6.233   5.119  1.1028 -0.6922 -0.6224
 3014TIP3    H2 9007   3.750   6.236   4.989  1.1844  0.3404 -0.5514
 3015TIP3   OH2 9008   4.533   2.190   4.794 -0.2931  0.2941  0.2543
 3015TIP3    H1 9009   4.607   2.235   4.835  0.8774 -0.0316 -1.3703
 3015TIP3    H2 9010   4.532   2.103   4.836  0.2915  0.2848  0.2678
 3016TIP3   OH2 9011   5.189   4.337   0.647  1.1122 -0.1763  0.2464
 3016TIP3    H1 9012   5.268   4.287   0.665 -0.3092 -2.1147  1.5559
 3016TIP3    H2 9013   5.168   4.318   0.556  0.9965 -1.4393  0.5240
 3017TIP3   OH2 9014   0.557   0.937   2.345 -0.1083 -0.0913 -0.0326
 3017TIP3    H1 9015   0.631   0.894   2.303 -0.1615  1.0453 -1.3628
 3017TIP3    H2 9016   0.497   0.866   2.368  0.7696 -0.8951 -0.1678
 3018TIP3   OH2 9017   2.758   1.115   0.213 -0.1712  0.2227  0.0265
 3018TIP3    H1 9018   2.743   1.020   0.215  1.5991 -0.1036 -0.4027
 3018TIP3    H2 9019   2.832   1.126   0.153  0.2724  1.7848  0.8087
 3019TIP3   OH2 9020   0.267   0.906   1.306  0.4112  0.0816  0.0408
 3019TIP3    H1 9021   0.201   0.946   1.250  0.1322 -0.8169 -0.2836
 3019TIP3    H2 9022   0.264   0.957   1.387 -0.1593  0.4998 -0.2374
 3020TIP3   OH2 9023   2.109   3.538   5.115 -0.1549 -0.1154 -0.4207
 3020TIP3    H1 9024   2.139   3.466   5.060 -0.1642  0.0992 -0.7117
 3020TIP3    H2 9025   2.053   3.497   5.181  1.7004 -0.7097  0.8698
 3021TIP3   OH2 9026   4.546   4.438   3.348 -0.2992 -0.1442  0.0347
 3021TIP3    H1 9027   4.572   4.346   3.343 -1.9611 -0.6283 -0.6305
 3021TIP3    H2 9028   4.557   4.471   3.259  0.6456  0.4312  0.3485
 3022TIP3   OH2 9029   5.922   3.694   2.131  0.2656 -0.6286  0.1976
 3022TIP3    H1 9030   5.916   3.754   2.057 -0.4774  1.4405  1.8289
 3022TIP3    H2 9031   6.007   3.652   2.121  0.4009 -0.0132 -1.5249
 3023TIP3   OH2 9032   2.783   5.076   4.751  0.0757 -0.3028 -0.0424
 3023TIP3    H1 9033   2.844   5.058   4.822  0.2604 -0.2781 -0.1957
 3023TIP3    H2 9034   2.831   5.132   4.690 -0.1897 -0.0552 -0.0266
 3024TIP3   OH2 9035   2.026   2.804   1.352 -0.4501  0.2101  0.6166
 3024TIP3    H1 9036   2.028   2.709   1.363  0.6225  0.3360  1.6833
 3024TIP3    H2 9037   1.936   2.829   1.376 -0.9408 -0.5836 -0.3272
 3025TIP3   OH2 9038   0.954   0.227   5.816 -0.0600  0.5006 -0.2738
 3025TIP3    H1 9039   0.877   0.241   5.760  0.8998  2.0131 -1.3177
 3025TIP3    H2 9040   0.921   0.236   5.905 -1.4209 -0.8023 -0.6030
 3026TIP3   OH2 9041   4.252   0.196   4.536 -0.5837  0.1816  1.0281
 3026TIP3    H1 9042   4.336   0.211   4.493 -1.1139 -0.4011 -0.2828
 3026TIP3    H2 9043   4.216   0.283   4.549 -0.9904  0.3517 -0.9794
 3027TIP3   OH2 9044   6.205   3.910   5.437 -0.1899 -0.0195  0.1422
 3027TIP3    H1 9045   6.186   3.857   5.515  0.5940 -0.6291 -0.0619
 3027TIP3    H2 9046   6.178   3.998   5.461 -0.2564 -0.2596  0.9956
 3028TIP3   OH2 9047   4.392   3.478   3.135 -0.4102 -0.0548 -0.0596
 3028TIP3    H1 9048   4.440   3.560   3.150 -2.0354  0.7974  0.7078
 3028TIP3    H2 9049   4.406   3.428   3.216 -0.0973 -0.1915 -0.1962
 3029TIP3   OH2 9050   1.477   3.231   1.026  0.5117  0.3423  0.2082
 3029TIP3    H1 9051   1.559   3.279   1.039  0.1384  0.8274  0.8448
 3029TIP3    H2 9052   1.414   3.298   1.000 -0.4186  0.5498  2.6823
 3030TIP3   OH2 9053   0.763   4.767   5.267 -0.2817 -0.0352  0.0115
 3030TIP3    H1 9054   0.767   4.693   5.207 -0.8753  0.6048 -0.8356
 3030TIP3    H2 9055   0.802   4.734   5.348  2.1482 -0.4208 -1.2183
 3031TIP3   OH2 9056   0.074   6.035   5.302 -0.1715  0.1486  0.5181
 3031TIP3    H1 9057   0.132   6.040   5.225  0.3369 -0.1026  0.8772
 3031TIP3    H2 9058   0.115   5.969   5.358 -0.9435 -0.2082  0.6711
 3032TIP3   OH2 9059   2.622   3.050   4.231 -0.2437  0.1884 -0.4240
 3032TIP3    H1 9060   2.542   3.056   4.178 -0.7512  1.1297  0.4189
 3032TIP3    H2 9061   2.644   3.141   4.251  1.5314 -0.0032 -1.3256
 3033TIP3   OH2 9062   4.714   3.992   4.818 -0.3337  0.1690 -0.8549
 3033TIP3    H1 9063   4.765   4.018   4.894  0.2078  1.7973 -1.7401
 3033TIP3    H2 9064   4.748   4.045   4.746 -2.2060  0.1709 -1.8034
 3034TIP3   OH2 9065   3.975   2.978   2.698 -0.4169  0.1995 -0.0934
 3034TIP3    H1 9066   3.958   2.911   2.765  1.6394  0.3558  0.6564
 3034TIP3    H2 9067   4.020   3.048   2.745 -1.3843  1.5671 -1.1308
 3035TIP3   OH2 9068   1.306   2.372   3.380 -0.6065 -0.3712  0.0641
 3035TIP3    H1 9069   1.301   2.368   3.476 -1.3683  0.2290  0.0590
 3035TIP3    H2 9070   1.234   2.316   3.351 -1.5218  0.8621 -0.1279
 3036TIP3   OH2 9071   6.684   3.863   3.225 -0.7708  0.0883  0.1793
 3036TIP3    H1 9072   6.683   3.945   3.275 -0.1723 -0.9911  2.0753
 3036TIP3    H2 9073   6.775   3.853   3.197 -1.2264  1.0156 -1.8033
 3037TIP3   OH2 9074   4.689   5.207   1.262  0.0592 -0.1979 -0.0700
 3037TIP3    H1 9075   4.663   5.116   1.242 -0.8575 -0.1514  0.8051
 3037TIP3    H2 9076   4.784   5.205   1.262  0.1572 -0.4826 -3.0358
 3038TIP3   OH2 9077   2.473   1.041   0.809  0.2745  0.4794 -0.9754
 3038TIP3    H1 9078   2.516   0.962   0.775  0.0752 -0.2314  0.3800
 3038TIP3    H2 9079   2.457   1.022   0.901  0.5086  2.2385 -0.5416
 3039TIP3   OH2 9080   0.848   5.695   3.355 -0.4794 -0.2943 -0.4134
 3039TIP3    H1 9081   0.804   5.778   3.373  0.2902 -0.1607  0.9338
 3039TIP3    H2 9082   0.779   5.638   3.321 -1.1100  0.7336 -0.9015
 3040TIP3   OH2 9083   4.682   3.486   2.431  0.1502  0.7905 -0.0529
 3040TIP3    H1 9084   4.757   3.543   2.419  0.5474 -0.0896 -2.1952
 3040TIP3    H2 9085   4.619   3.515   2.365 -0.6911  0.3875  0.5492
 3041TIP3   OH2 9086   2.662   5.870   2.251  0.2228  0.1124 -0.2725
 3041TIP3    H1 9087   2.647   5.885   2.344  0.6382  0.8885 -0.3214
 3041TIP3    H2 9088   2.574   5.868   2.212  0.0736  0.5193  0.0317
 3042TIP3   OH2 9089   0.685   1.138   4.438 -0.5613 -0.3142 -0.1219
 3042TIP3    H1 9090   0.616   1.101   4.494 -0.3867 -1.7384 -0.8004
 3042TIP3    H2 9091   0.764   1.134   4.492 -0.9325  1.0542  0.5549
 3043TIP3   OH2 9092   0.033   4.237   1.871  0.3164 -0.0172 -0.3389
 3043TIP3    H1 9093   0.125   4.251   1.892  0.8269 -0.7631 -1.9252
 3043TIP3    H2 9094   0.030   4.148   1.838 -1.0099 -0.0253 -0.2404
 3044TIP3   OH2 9095   6.569   1.627   3.140 -0.0548  0.2131  0.4081
 3044TIP3    H1 9096   6.575   1.635   3.045 -2.1702 -1.0812  0.1109
 3044TIP3    H2 9097   6.507   1.694   3.166 -0.8891 -0.6150  0.6143
 3045TIP3   OH2 9098   6.942   5.295   1.632 -0.0588 -0.3651 -0.4581
 3045TIP3    H1 9099   6.861   5.306   1.582  1.3590  0.6178 -2.6910
 3045TIP3    H2 9100   6.915   5.301   1.724 -2.2499  1.9333 -1.1498
 3046TIP3   OH2 9101   3.906   4.411   3.555  0.0851 -0.0034  0.6313
 3046TIP3    H1 9102   3.869   4.437   3.640 -2.0597  0.4237 -0.3534
 3046TIP3    H2 9103   3.937   4.492   3.516 -1.1341  0.2072  0.0475
 3047TIP3   OH2 9104   2.341   0.329   4.030 -0.7117  0.5506  0.0035
 3047TIP3    H1 9105   2.267   0.270   4.013 -1.9036  2.1452 -0.5830
 3047TIP3    H2 9106   2.303   0.401   4.080  0.9812  0.2480  1.8569
 3048TIP3   OH2 9107   4.349   4.984   4.642  0.4429  0.2057  0.1252
 3048TIP3    H1 9108   4.342   5.041   4.565  2.1893  2.1504  1.2888
 3048TIP3    H2 9109   4.432   5.009   4.683  0.2488 -1.7377  1.9009
 3049TIP3   OH2 9110   2.791   4.113   2.678 -0.3096 -0.5670  0.3789
 3049TIP3    H1 9111   2.880   4.122   2.712  0.2228 -2.4135 -0.4457
 3049TIP3    H2 9112   2.779   4.191   2.624 -0.1688  1.0071  2.4921
 3050TIP3   OH2 9113   1.760   1.619   0.245 -0.0072  0.3170 -0.1014
 3050TIP3    H1 9114   1.703   1.652   0.315 -0.6711  0.6729 -0.8017
 3050TIP3    H2 9115   1.739   1.526   0.238  0.9494 -0.0188  0.9966
 3051TIP3   OH2 9116   2.053   5.184   2.147  0.2287 -0.2283 -0.1437
 3051TIP3    H1 9117   2.147   5.165   2.145  0.4976  1.1160 -0.8160
 3051TIP3    H2 9118   2.034   5.225   2.063 -0.8466  0.0518  0.2164
 3052TIP3   OH2 9119   5.210   3.528   1.765  0.2351 -0.0819 -0.4025
 3052TIP3    H1 9120   5.230   3.512   1.857 -0.5876  0.5355 -0.1036
 3052TIP3    H2 9121   5.163   3.611   1.764 -2.6833 -1.5989 -0.9663
 3053TIP3   OH2 9122   3.720   5.264   1.135 -0.2741  0.4318  0.4768
 3053TIP3    H1 9123   3.781   5.225   1.073  1.4231  2.7206  0.5732
 3053TIP3    H2 9124   3.658   5.194   1.155  0.9313 -1.2911 -1.4234
 3054TIP3   OH2 9125   3.742   3.688   0.697 -0.0799  0.5068 -0.0188
 3054TIP3    H1 9126   3.683   3.723   0.764 -0.6787 -0.2721 -0.1263
 3054TIP3    H2 9127   3.691   3.690   0.617 -0.0783 -0.4611 -0.0536
 3055TIP3   OH2 9128   6.640   0.609   0.570 -0.1393  0.0656  0.5295
 3055TIP3    H1 9129   6.606   0.554   0.499 -0.4637 -2.3681  2.4504
 3055TIP3    H2 9130   6.733   0.587   0.576 -0.3198 -0.4655  1.4717
 3056TIP3   OH2 9131   3.403   6.588   4.243 -0.3302  0.7027 -0.3401
 3056TIP3    H1 9132   3.344   6.656   4.210  1.7376  2.0806 -1.4410
 3056TIP3    H2 9133   3.401   6.520   4.176 -1.8412 -0.0427  0.4089
 3057TIP3   OH2 9134   1.395   2.689   1.148  0.2693 -0.3311 -0.3401
 3057TIP3    H1 9135   1.480   2.651   1.127  0.2620 -1.3544  1.3631
 3057TIP3    H2 9136   1.338   2.614   1.163  0.2252  0.2492  3.0150
 3058TIP3   OH2 9137   6.383   3.610   1.663 -0.3052 -0.5869 -0.5276
 3058TIP3    H1 9138   6.299   3.609   1.617 -0.7522 -1.9593  0.2753
 3058TIP3    H2 9139   6.365   3.569   1.747  0.8902  0.3117  0.1986
 3059TIP3   OH2 9140   5.009   1.856   2.569  1.0728  0.1337 -0.2803
 3059TIP3    H1 9141   5.069   1.929   2.553  0.9524  0.3475  0.2300
 3059TIP3    H2 9142   4.922   1.896   2.571  1.0763  0.1128  0.8358
 3060TIP3   OH2 9143   3.532   1.928   4.609 -1.0150  0.3806 -0.2661
 3060TIP3    H1 9144   3.533   1.839   4.644  0.5149  0.3056 -0.4262
 3060TIP3    H2 9145   3.459   1.971   4.654 -2.2750 -1.1388 -0.7417
 3061TIP3   OH2 9146   1.770   2.354   1.892 -0.2150 -0.3133  0.2507
 3061TIP3    H1 9147   1.703   2.341   1.959  0.4630 -1.5169  0.7344
 3061TIP3    H2 9148   1.753   2.286   1.827  0.4302 -0.5132  0.2873
 3062TIP3   OH2 9149   4.794   6.187   0.327  0.2284 -0.2169  0.2765
 3062TIP3    H1 9150   4.699   6.182   0.313 -0.1029  2.8614  0.6200
 3062TIP3    H2 9151   4.832   6.171   0.241 -0.5994 -1.3074  0.0903
 3063TIP3   OH2 9152   1.789   5.532   5.304 -0.2149 -0.4005  0.3905
 3063TIP3    H1 9153   1.745   5.448   5.292  0.0407 -0.2701 -1.8186
 3063TIP3    H2 9154   1.746   5.591   5.243  1.2422  0.4163  0.1037
 3064TIP3   OH2 9155   4.873   1.453   2.782 -0.0036  0.4490 -0.0276
 3064TIP3    H1 9156   4.859   1.444   2.876 -1.4513 -0.5256 -0.2960
 3064TIP3    H2 9157   4.799   1.408   2.743 -0.1477  2.0058 -1.6505
 3065TIP3   OH2 9158   6.654   5.507   0.425 -0.4332 -0.3277 -0.2428
 3065TIP3    H1 9159   6.600   5.584   0.443 -0.3656  0.0339 -1.4605
 3065TIP3    H2 9160   6.604   5.433   0.461 -0.3665  0.2999  1.1889
 3066TIP3   OH2 9161   1.886   1.013   5.183 -0.2740 -0.0216 -0.5106
 3066TIP3    H1 9162   1.922   1.101   5.179  1.6724 -0.8180 -2.6431
 3066TIP3    H2 9163   1.943   0.966   5.243 -0.9267 -0.0256  0.1245
 3067TIP3   OH2 9164   4.822   3.605   1.302  0.1660  0.3911  0.5161
 3067TIP3    H1 9165   4.752   3.655   1.343  0.4718  1.6817 -0.4745
 3067TIP3    H2 9166   4.799   3.514   1.319 -0.9944  0.8229  1.4180
 3068TIP3   OH2 9167   6.830   4.596   1.483 -0.5883 -0.3025 -0.2942
 3068TIP3    H1 9168   6.745   4.610   1.525 -0.6644 -0.7612 -0.2868
 3068TIP3    H2 9169   6.851   4.680   1.442 -0.6509  0.0580  0.4042
 3069TIP3   OH2 9170   5.360   4.347   4.815 -0.1549 -0.6212 -0.1817
 3069TIP3    H1 9171   5.344   4.408   4.742 -0.6100  0.3071  0.6589
 3069TIP3    H2 9172   5.412   4.398   4.877  0.0554 -1.3340  0.2390
 3070TIP3   OH2 9173   0.139   3.762   3.597 -0.7007 -0.5203  0.0593
 3070TIP3    H1 9174   0.126   3.712   3.516 -0.0902 -0.7705  0.1072
 3070TIP3    H2 9175   0.197   3.706   3.650 -1.5608 -0.6235  0.9150
 3071TIP3   OH2 9176   0.719   3.634   0.606 -0.1799 -0.1874 -0.1124
 3071TIP3    H1 9177   0.765   3.559   0.570  1.2193  0.4528  0.2591
 3071TIP3    H2 9178   0.786   3.683   0.653 -1.2119  0.9016  0.2877
 3072TIP3   OH2 9179   4.151   4.151   1.481 -0.1342 -0.3128 -0.3564
 3072TIP3    H1 9180   4.069   4.111   1.508 -0.1351  0.6456  1.1766
 3072TIP3    H2 9181   4.218   4.086   1.502 -0.3177 -0.2963  0.2818
 3073TIP3   OH2 9182   0.361   5.023   0.693  0.1692  0.2705 -0.4327
 3073TIP3    H1 9183   0.370   4.995   0.784 -2.0624 -0.0282 -0.2538
 3073TIP3    H2 9184   0.416   4.963   0.643  1.7605  0.7009  0.7094
 3074TIP3   OH2 9185   1.195   6.427   2.412  0.1530 -0.5432 -0.1541
 3074TIP3    H1 9186   1.129   6.454   2.348 -0.5425 -0.9565  0.3648
 3074TIP3    H2 9187   1.185   6.332   2.418 -0.8481 -0.3640  1.6657
 3075TIP3   OH2 9188   2.268   1.233   0.406 -0.0560  0.2169  0.4684
 3075TIP3    H1 9189   2.349   1.194   0.374  1.2347  2.4387  0.7907
 3075TIP3    H2 9190   2.252   1.189   0.490 -0.1788 -1.4416 -0.3839
 3076TIP3   OH2 9191   6.481   4.121   4.985  0.0331 -0.0411 -0.4292
 3076TIP3    H1 9192   6.507   4.190   5.046  0.2949  1.2679 -1.9532
 3076TIP3    H2 9193   6.386   4.118   4.991  0.0820 -0.2631  0.3698
 3077TIP3   OH2 9194   0.161   0.673   1.549 -0.1158 -0.6468 -0.2816
 3077TIP3    H1 9195   0.248   0.649   1.580  0.4552 -0.8654 -1.9430
 3077TIP3    H2 9196   0.165   0.660   1.454 -1.3936  1.0909 -0.6238
 3078TIP3   OH2 9197   6.978   3.036   2.466 -0.3642  0.0753 -0.1521
 3078TIP3    H1 9198   6.914   2.967   2.447 -1.1949  0.2139  1.8815
 3078TIP3    H2 9199   6.936   3.088   2.535  2.6806 -1.0245  2.8005
 3079TIP3   OH2 9200   5.134   5.796   2.282  0.0251  0.2062  0.0272
 3079TIP3    H1 9201   5.166   5.776   2.370 -1.4311 -1.4986  0.2288
 3079TIP3    H2 9202   5.039   5.790   2.289 -0.1740  1.1394 -1.4334
 3080TIP3   OH2 9203   2.194   3.611   2.427  0.2968  0.5324 -0.1178
 3080TIP3    H1 9204   2.166   3.655   2.347 -0.1432 -1.6455 -1.2291
 3080TIP3    H2 9205   2.113   3.599   2.477  0.6154  2.1962  0.8876
 3081TIP3   OH2 9206   5.646   6.409   0.066  0.4931 -0.2584  0.0126
 3081TIP3    H1 9207   5.613   6.454  -0.012 -0.3798 -0.3930  0.2969
 3081TIP3    H2 9208   5.688   6.478   0.117  0.3959 -0.0247 -0.2195
 3082TIP3   OH2 9209   1.436   6.330   2.060 -0.6097 -0.1257  0.1324
 3082TIP3    H1 9210   1.484   6.258   2.019  0.6652  0.8913 -0.2393
 3082TIP3    H2 9211   1.345   6.300   2.062  0.1372 -2.6611  2.0109
 3083TIP3   OH2 9212   4.390   4.577   4.245  0.1166 -0.0613  0.1027
 3083TIP3    H1 9213   4.468   4.526   4.226 -0.1367 -0.7540  0.8794
 3083TIP3    H2 9214   4.392   4.591   4.339  0.3994  1.7442 -0.1347
 3084TIP3   OH2 9215   1.939   2.041   2.876 -0.0981  0.4517 -0.0670
 3084TIP3    H1 9216   1.984   1.988   2.811 -0.8146 -0.2241 -0.0357
 3084TIP3    H2 9217   1.880   1.980   2.921 -0.9797  1.2724 -0.0560
 3085TIP3   OH2 9218   2.119   0.765   3.598  0.1145  0.5627  0.2348
 3085TIP3    H1 9219   2.171   0.722   3.530  1.7422  1.2468  0.9970
 3085TIP3    H2 9220   2.107   0.855   3.566 -0.2321  0.5317  0.2706
 3086TIP3   OH2 9221   5.245   1.916   2.385 -0.6878 -0.1228 -0.7972
 3086TIP3    H1 9222   5.327   1.959   2.362 -0.2147 -0.2884  0.5058
 3086TIP3    H2 9223   5.195   1.983   2.432 -0.9226 -0.2927 -0.8015
 3087TIP3   OH2 9224   7.183   0.296   1.068 -0.1319  0.3527 -0.3732
 3087TIP3    H1 9225   7.201   0.224   1.007 -0.3141  0.7243 -0.8753
 3087TIP3    H2 9226   7.088   0.308   1.063 -0.0028  1.2329 -1.0030
 3088TIP3   OH2 9227   3.852   1.250   2.887 -0.0708 -0.1424 -0.2246
 3088TIP3    H1 9228   3.938   1.242   2.847 -0.9633 -0.7248 -2.1625
 3088TIP3    H2 9229   3.832   1.343   2.883  1.8400  0.6080  3.4945
 3089TIP3   OH2 9230   4.849   5.005   1.074  0.1955  0.2437  0.0959
 3089TIP3    H1 9231   4.929   5.058   1.073  0.6098 -0.3708 -0.7649
 3089TIP3    H2 9232   4.871   4.929   1.128  0.2264  0.0206 -0.2305
 3090TIP3   OH2 9233   2.006   5.910   5.326 -0.2647  0.2947 -0.2022
 3090TIP3    H1 9234   2.072   5.922   5.394 -1.5814  0.0135  1.1899
 3090TIP3    H2 9235   1.948   5.985   5.336 -0.3915  0.3400 -1.1547
 3091TIP3   OH2 9236   2.877   1.255   1.759 -0.1681 -0.3395  0.2616
 3091TIP3    H1 9237   2.965   1.231   1.729 -0.3511 -0.3066 -0.3099
 3091TIP3    H2 9238   2.858   1.192   1.829  0.2723 -0.4023  0.3283
 3092TIP3   OH2 9239   0.982   0.517   0.160 -0.4553 -0.0322 -0.2934
 3092TIP3    H1 9240   0.987   0.612   0.148 -2.2614  0.0269 -0.9053
 3092TIP3    H2 9241   1.068   0.485   0.134 -0.1606  1.3462 -1.1360
 3093TIP3   OH2 9242   1.983   4.954   4.843  0.5987 -0.3303 -0.1206
 3093TIP3    H1 9243   1.969   5.046   4.865  1.8677  0.1402 -1.1632
 3093TIP3    H2 9244   1.916   4.907   4.892 -1.0612  1.2747 -0.7596
 3094TIP3   OH2 9245   1.148   4.616   1.261 -0.1857 -0.1170 -0.5783
 3094TIP3    H1 9246   1.057   4.637   1.238  0.1959  0.6729 -1.4131
 3094TIP3    H2 9247   1.143   4.586   1.352 -1.1271  1.1148 -0.2021
 3095TIP3   OH2 9248   4.346   6.438   0.269  0.5011 -0.1654 -0.5337
 3095TIP3    H1 9249   4.260   6.403   0.245  0.7019 -0.4079 -0.9083
 3095TIP3    H2 9250   4.354   6.421   0.363 -0.4025  1.0114 -0.2096
 3096TIP3   OH2 9251   5.554   5.414   1.968  0.0985 -0.2343 -0.2252
 3096TIP3    H1 9252   5.547   5.436   1.875 -1.0487 -1.0656 -0.3455
 3096TIP3    H2 9253   5.601   5.489   2.006  1.4589 -0.3129 -1.6159
 3097TIP3   OH2 9254   2.537   0.639   3.373 -0.0212 -0.3662  0.8108
 3097TIP3    H1 9255   2.620   0.595   3.388  0.1400 -0.2579  0.2489
 3097TIP3    H2 9256   2.553   0.697   3.298 -0.7000 -0.6192  0.4634
 3098TIP3   OH2 9257   4.462   6.296   2.514 -0.4467 -0.2751 -0.2152
 3098TIP3    H1 9258   4.395   6.355   2.480 -1.4771 -1.9115 -1.1698
 3098TIP3    H2 9259   4.522   6.281   2.440 -1.0160 -1.5155 -0.4578
 3099TIP3   OH2 9260   2.284   4.657   1.932  0.1938 -0.2892 -0.2785
 3099TIP3    H1 9261   2.239   4.579   1.963 -0.4635  0.7457  1.5307
 3099TIP3    H2 9262   2.377   4.639   1.946  0.0570 -0.8073 -0.0385
 3100TIP3   OH2 9263   4.781   3.666   1.630  0.6731  0.2050 -0.1282
 3100TIP3    H1 9264   4.812   3.746   1.673  0.4165  1.0142 -1.3855
 3100TIP3    H2 9265   4.691   3.686   1.605  1.3890  0.5578 -2.7547
 3101TIP3   OH2 9266   6.636   0.353   3.308 -0.4437 -0.5940 -0.0893
 3101TIP3    H1 9267   6.687   0.418   3.355  1.7061 -1.3811 -1.2182
 3101TIP3    H2 9268   6.606   0.398   3.229 -0.4433 -0.4728 -0.0202
 3102TIP3   OH2 9269   7.079   1.414   2.192  0.1610  0.1312  0.1051
 3102TIP3    H1 9270   7.058   1.506   2.210 -0.5593 -0.1895  0.9709
 3102TIP3    H2 9271   7.170   1.404   2.223  0.1053  0.4490  0.3767
 3103TIP3   OH2 9272   6.697   2.871   4.870  0.1583  0.0101 -0.0450
 3103TIP3    H1 9273   6.654   2.833   4.947  0.5299 -0.3716 -0.0215
 3103TIP3    H2 9274   6.776   2.912   4.904  0.7994 -0.9560 -0.3369
 3104TIP3   OH2 9275   2.661   4.398   1.622  0.1326  0.1028 -0.0296
 3104TIP3    H1 9276   2.727   4.432   1.562  0.9943 -1.7998 -0.2268
 3104TIP3    H2 9277   2.706   4.328   1.670 -1.2486 -0.0743  1.0814
 3105TIP3   OH2 9278   5.627   6.052   1.522  0.1928 -0.2066 -0.0471
 3105TIP3    H1 9279   5.712   6.051   1.566 -0.2312  2.1004  1.0023
 3105TIP3    H2 9280   5.644   6.096   1.439 -0.0288  0.6374  0.3465
 3106TIP3   OH2 9281   2.457   1.260   4.371  0.7067 -0.0672  0.2641
 3106TIP3    H1 9282   2.529   1.290   4.426  1.3267 -0.7781 -0.1390
 3106TIP3    H2 9283   2.410   1.197   4.426 -0.9980  2.0532  1.3559
 3107TIP3   OH2 9284   4.367   6.480   4.333  0.3157 -0.0676  0.5189
 3107TIP3    H1 9285   4.300   6.530   4.286  0.4519  0.3033  0.7144
 3107TIP3    H2 9286   4.449   6.522   4.308  0.3889  0.1252  1.0747
 3108TIP3   OH2 9287   2.385   6.227   2.172  1.0325  0.3349  0.2494
 3108TIP3    H1 9288   2.295   6.231   2.140  1.1747  1.6797 -0.0522
 3108TIP3    H2 9289   2.422   6.312   2.148  2.5122 -0.3555 -0.0175
 3109TIP3   OH2 9290   4.162   0.186   3.601  0.1187 -1.2575 -0.8045
 3109TIP3    H1 9291   4.239   0.228   3.640 -0.7061 -1.0580  0.6742
 3109TIP3    H2 9292   4.136   0.247   3.532  0.0021 -0.1881  0.1372
 3110TIP3   OH2 9293   5.179   4.954   2.398 -0.2814  0.7136  0.0753
 3110TIP3    H1 9294   5.088   4.942   2.424 -0.8678  0.2842 -1.9699
 3110TIP3    H2 9295   5.230   4.912   2.467 -1.7177 -0.6601  0.3540
 3111TIP3   OH2 9296   0.685   4.665   1.474 -0.2970  0.2398  0.9427
 3111TIP3    H1 9297   0.593   4.639   1.484 -1.8063  4.1897 -0.5478
 3111TIP3    H2 9298   0.685   4.727   1.401  3.6220  0.4312  0.8811
 3112TIP3   OH2 9299   3.838   0.340   2.095 -0.5056 -0.3647  0.4325
 3112TIP3    H1 9300   3.748   0.332   2.065 -0.5387  0.0989  0.3983
 3112TIP3    H2 9301   3.848   0.272   2.161 -1.4273  0.7459  1.7422
 3113TIP3   OH2 9302   4.637   1.177   2.056 -0.4787 -0.1143 -0.0314
 3113TIP3    H1 9303   4.549   1.194   2.024 -0.4461 -0.6452 -0.4268
 3113TIP3    H2 9304   4.648   1.082   2.046 -0.0003 -0.1055  0.3651
 3114TIP3   OH2 9305   0.317   0.486   4.043  0.1886 -0.3059  0.2798
 3114TIP3    H1 9306   0.233   0.501   4.088  0.0389  3.0707 -0.8439
 3114TIP3    H2 9307   0.293   0.439   3.964 -1.1020  2.3322 -1.0365
 3115TIP3   OH2 9308   5.669   0.612   1.954  0.6051  0.6961 -0.1094
 3115TIP3    H1 9309   5.703   0.605   2.043 -0.5510 -1.8011  0.2007
 3115TIP3    H2 9310   5.581   0.575   1.958  1.4489 -2.0085 -2.7500
 3116TIP3   OH2 9311   5.059   2.469   1.418 -0.2225  0.7505  0.1672
 3116TIP3    H1 9312   5.153   2.455   1.428 -0.0731  0.9950 -0.8565
 3116TIP3    H2 9313   5.022   2.382   1.407 -0.1363  0.6461  0.6699
 3117TIP3   OH2 9314   5.757   5.134   1.848  0.0655  0.2918 -0.3101
 3117TIP3    H1 9315   5.750   5.138   1.943 -1.0445  1.7796 -0.4278
 3117TIP3    H2 9316   5.810   5.210   1.824  0.3953 -0.1093 -0.8826
 3118TIP3   OH2 9317   2.605   4.953   0.573 -0.0364  0.5794  0.6892
 3118TIP3    H1 9318   2.665   4.888   0.537 -0.9614 -0.3425  0.7667
 3118TIP3    H2 9319   2.535   4.902   0.613 -0.7285  1.6221  0.8594
 3119TIP3   OH2 9320   1.753   6.499   1.161  0.5449 -0.0587 -0.0688
 3119TIP3    H1 9321   1.751   6.578   1.215  1.7448 -0.4001  0.5177
 3119TIP3    H2 9322   1.806   6.437   1.211 -1.3749 -1.7093  0.0770
 3120TIP3   OH2 9323   7.103   5.161   1.106 -0.3475 -0.2383 -0.0562
 3120TIP3    H1 9324   7.170   5.198   1.048  0.9107 -1.1231  0.7697
 3120TIP3    H2 9325   7.034   5.227   1.109  0.4187  0.6388 -1.0584
 3121TIP3   OH2 9326   6.655   3.929   4.915 -0.0961 -0.0471  0.0601
 3121TIP3    H1 9327   6.617   4.010   4.948  1.3688  1.1255 -0.9813
 3121TIP3    H2 9328   6.744   3.928   4.949 -0.3954 -1.7790  0.9065
 3122TIP3   OH2 9329   5.066   1.666   3.890 -0.2949 -0.2911 -0.6526
 3122TIP3    H1 9330   5.047   1.714   3.809 -1.4974  1.2489  0.4884
 3122TIP3    H2 9331   5.079   1.734   3.956 -1.3471 -1.5038  0.8938
 3123TIP3   OH2 9332   3.491   4.075   0.916  0.1028  0.0026  0.2507
 3123TIP3    H1 9333   3.571   4.117   0.947 -0.4237 -0.3988  2.3371
 3123TIP3    H2 9334   3.470   4.120   0.834  0.7724  2.2745  1.2542
 3124TIP3   OH2 9335   6.362   6.080   2.426 -0.6838  0.5897  0.9738
 3124TIP3    H1 9336   6.312   6.031   2.491 -1.8114  1.3777  0.7207
 3124TIP3    H2 9337   6.296   6.121   2.370  0.2530  1.0243  0.1493
 3125TIP3   OH2 9338   4.414   6.327   5.044 -0.6043  0.4577 -0.1140
 3125TIP3    H1 9339   4.464   6.254   5.081 -1.9655 -0.8546 -0.7979
 3125TIP3    H2 9340   4.480   6.384   5.006  0.5955  0.2776  1.5858
 3126TIP3   OH2 9341   2.176   4.800   2.789 -0.4127 -0.1050  0.1065
 3126TIP3    H1 9342   2.163   4.784   2.696  0.4731  0.0476 -0.0518
 3126TIP3    H2 9343   2.235   4.731   2.818 -0.8011 -0.2435  0.6001
 3127TIP3   OH2 9344   2.460   0.726   2.628 -0.6858 -0.1100  0.2381
 3127TIP3    H1 9345   2.514   0.669   2.574 -1.3082  1.2453 -1.9387
 3127TIP3    H2 9346   2.519   0.795   2.658 -0.7602  0.3025 -0.5306
 3128TIP3   OH2 9347   5.036   3.093   4.866 -0.2113 -0.0436  0.2564
 3128TIP3    H1 9348   5.053   3.152   4.792  1.6389  0.7843  1.2814
 3128TIP3    H2 9349   5.056   3.006   4.832  0.2709  0.2903 -0.3418
 3129TIP3   OH2 9350   5.874   3.585   1.172  0.0425 -0.6054  0.2541
 3129TIP3    H1 9351   5.795   3.596   1.119  0.4239  0.1351 -0.1806
 3129TIP3    H2 9352   5.844   3.599   1.262 -0.4035 -0.7509  0.1303
 3130TIP3   OH2 9353   4.838   3.532   1.913 -0.3680 -0.2869 -0.2577
 3130TIP3    H1 9354   4.811   3.539   1.822 -2.3408 -0.1273  0.3018
 3130TIP3    H2 9355   4.758   3.547   1.964 -0.3501 -4.5017  1.4556
 3131TIP3   OH2 9356   6.969   1.274   3.263 -0.4469  0.3596 -0.4301
 3131TIP3    H1 9357   7.039   1.314   3.314 -0.0296 -0.4942 -0.3155
 3131TIP3    H2 9358   6.924   1.348   3.222  1.5727  0.8663 -1.8866
 3132TIP3   OH2 9359   6.573   3.478   0.839 -0.2975 -0.5133  0.3002
 3132TIP3    H1 9360   6.541   3.550   0.893 -0.2228  0.3341 -0.7443
 3132TIP3    H2 9361   6.661   3.505   0.811 -0.4132 -0.8237 -0.4058
 3133TIP3   OH2 9362   4.273   4.897   3.896 -0.0435 -0.7063  0.2194
 3133TIP3    H1 9363   4.362   4.883   3.928 -0.2522  0.3379  1.3519
 3133TIP3    H2 9364   4.260   4.829   3.831  1.8469 -0.4354 -0.5244
 3134TIP3   OH2 9365   5.937   0.818   2.572  0.2232 -0.0799 -0.1109
 3134TIP3    H1 9366   5.930   0.791   2.664  0.2807  1.0663  0.2446
 3134TIP3    H2 9367   5.992   0.752   2.531  0.2014 -0.5979  0.6879
 3135TIP3   OH2 9368   3.387   4.946   2.488 -0.0653 -0.5660  0.5007
 3135TIP3    H1 9369   3.456   4.901   2.537  0.8677  2.0403  1.7285
 3135TIP3    H2 9370   3.315   4.954   2.550  0.9245  2.2675  1.4141
 3136TIP3   OH2 9371   5.716   6.551   0.639  0.0226 -0.6357  0.0217
 3136TIP3    H1 9372   5.738   6.465   0.602  2.1042  0.0154 -0.3316
 3136TIP3    H2 9373   5.672   6.597   0.567 -0.1697 -1.0205 -0.1141
 3137TIP3   OH2 9374   4.950   2.076   0.420  0.4561 -0.1206 -0.4427
 3137TIP3    H1 9375   4.938   2.066   0.514 -1.4097 -0.6434 -0.7000
 3137TIP3    H2 9376   5.038   2.042   0.403  0.4705 -0.8602  0.9816
 3138TIP3   OH2 9377   0.448   3.754   2.527  0.4321  0.7206  0.2011
 3138TIP3    H1 9378   0.397   3.765   2.607 -1.4127  0.2865 -0.8455
 3138TIP3    H2 9379   0.531   3.797   2.545  0.4973 -0.2930  2.7154
 3139TIP3   OH2 9380   4.232   1.554   2.580  0.1294 -0.2725  0.1845
 3139TIP3    H1 9381   4.238   1.464   2.611 -0.2514  0.4912  2.7155
 3139TIP3    H2 9382   4.153   1.556   2.526 -0.4256 -1.2590  0.9296
 3140TIP3   OH2 9383   0.472   3.749   1.542 -0.0659 -0.3158  0.3371
 3140TIP3    H1 9384   0.411   3.688   1.499  1.1932 -0.4036 -1.4268
 3140TIP3    H2 9385   0.478   3.822   1.481  0.7261  0.2106  1.0348
 3141TIP3   OH2 9386   2.465   1.134   2.609 -0.1443  0.2001 -0.2964
 3141TIP3    H1 9387   2.378   1.095   2.621 -1.2677  2.8220  0.8324
 3141TIP3    H2 9388   2.508   1.122   2.693  0.0642  0.1074 -0.4165
 3142TIP3   OH2 9389   0.597   3.434   4.204 -0.2116 -0.1282 -0.6839
 3142TIP3    H1 9390   0.628   3.489   4.132 -0.8089 -1.3119 -1.8811
 3142TIP3    H2 9391   0.503   3.425   4.189 -0.4421  0.0102  0.5464
 3143TIP3   OH2 9392   1.867   2.335   4.495 -0.2025 -0.0278  0.2339
 3143TIP3    H1 9393   1.891   2.254   4.541  0.7840  0.8264  1.3093
 3143TIP3    H2 9394   1.907   2.327   4.409  0.1229 -0.5692  0.4315
 3144TIP3   OH2 9395   3.485   5.211   4.840  0.1274  0.0164  0.1221
 3144TIP3    H1 9396   3.402   5.195   4.886  0.4272 -0.3388  0.5445
 3144TIP3    H2 9397   3.462   5.205   4.747 -0.2743 -0.2973  0.2394
 3145TIP3   OH2 9398   2.401   4.061   0.275  0.0903  0.0825  0.0118
 3145TIP3    H1 9399   2.454   4.122   0.326 -2.0138  1.2593  0.9280
 3145TIP3    H2 9400   2.360   4.116   0.208 -4.1196  0.5132  2.5756
 3146TIP3   OH2 9401   3.190   4.797   0.380 -0.3952 -0.2475  0.1231
 3146TIP3    H1 9402   3.260   4.732   0.380  0.6989  0.8697  1.5310
 3146TIP3    H2 9403   3.234   4.879   0.357 -0.7638  0.8704  3.0697
 3147TIP3   OH2 9404   3.446   1.109   3.254  0.2186  0.1333  0.2467
 3147TIP3    H1 9405   3.422   1.054   3.179 -0.3295 -1.8827  1.8091
 3147TIP3    H2 9406   3.368   1.160   3.273 -0.0264 -0.2180  0.1839
 3148TIP3   OH2 9407   1.083   6.488   5.206 -0.2393 -0.2674 -0.2088
 3148TIP3    H1 9408   1.029   6.566   5.215  1.0445  0.4365  2.1671
 3148TIP3    H2 9409   1.020   6.415   5.204 -1.3539  0.6250  0.7771
 3149TIP3   OH2 9410   3.003   3.414   0.590 -0.0792  0.4920  0.7538
 3149TIP3    H1 9411   2.910   3.433   0.606  0.1668  1.5221  1.0425
 3149TIP3    H2 9412   3.002   3.341   0.528 -1.0650 -0.6897  2.0858
 3150TIP3   OH2 9413   5.256   3.253   4.427 -0.3479 -0.2488  0.2399
 3150TIP3    H1 9414   5.287   3.266   4.338 -0.2786 -0.0909  0.2875
 3150TIP3    H2 9415   5.316   3.188   4.464 -0.0457  0.0917  0.3475
 3151TIP3   OH2 9416   2.846   4.898   3.652 -0.1064 -0.0157  0.0442
 3151TIP3    H1 9417   2.908   4.905   3.724  0.1658 -0.8408 -0.0988
 3151TIP3    H2 9418   2.765   4.870   3.692 -0.0957  0.0223  0.0923
 3152TIP3   OH2 9419   4.773   0.779   1.623  0.1381 -0.0670  0.0975
 3152TIP3    H1 9420   4.721   0.783   1.543 -0.4211 -1.0854  0.3921
 3152TIP3    H2 9421   4.749   0.695   1.663  1.7285 -0.4020  0.4264
 3153TIP3   OH2 9422   4.609   3.900   5.440 -0.4617  0.2609  0.8354
 3153TIP3    H1 9423   4.657   3.820   5.460 -0.7627 -0.2200 -0.3389
 3153TIP3    H2 9424   4.544   3.907   5.510  1.2581  0.9154  2.4464
 3154TIP3   OH2 9425   5.287   2.818   1.710  0.2411 -0.2638 -0.2090
 3154TIP3    H1 9426   5.259   2.778   1.627  1.4680 -0.6857 -0.4374
 3154TIP3    H2 9427   5.333   2.748   1.756  0.9775  0.4172  0.1189
 3155TIP3   OH2 9428   0.208   3.569   3.209 -0.0769  0.2885 -0.3382
 3155TIP3    H1 9429   0.168   3.506   3.150  0.6582  0.4959 -1.0756
 3155TIP3    H2 9430   0.210   3.525   3.294  0.5711 -0.7489 -0.8710
 3156TIP3   OH2 9431   5.743   2.025   2.732 -0.0035 -0.1845  0.5718
 3156TIP3    H1 9432   5.754   2.112   2.692 -3.4166  0.7142  1.2612
 3156TIP3    H2 9433   5.737   1.965   2.657  0.3302  0.4675  0.0107
 3157TIP3   OH2 9434   0.961   1.486   1.765 -0.5456 -0.2862  0.1370
 3157TIP3    H1 9435   1.003   1.499   1.849  1.4795 -0.0676 -0.8481
 3157TIP3    H2 9436   0.888   1.426   1.783 -0.0622 -0.3575  1.9833
 3158TIP3   OH2 9437   5.642   0.082   2.612 -0.1446  0.3872  0.0523
 3158TIP3    H1 9438   5.610  -0.006   2.631  1.6663 -0.1296  1.0093
 3158TIP3    H2 9439   5.596   0.138   2.675 -1.3955  0.1756 -0.6431
 3159TIP3   OH2 9440   4.780   0.060   4.814 -0.3755  0.0653 -0.5584
 3159TIP3    H1 9441   4.692   0.093   4.795 -0.2253  0.9499  0.2326
 3159TIP3    H2 9442   4.786  -0.022   4.765 -2.1909 -0.7823  0.5528
 3160TIP3   OH2 9443   4.190   5.932   1.188  0.1441 -0.2754 -0.1208
 3160TIP3    H1 9444   4.198   5.852   1.135 -0.6583 -0.5584  0.1543
 3160TIP3    H2 9445   4.279   5.954   1.213  0.4428 -0.6822 -0.8001
 3161TIP3   OH2 9446   6.413   2.403   4.782 -0.0561 -0.3783  0.0941
 3161TIP3    H1 9447   6.454   2.354   4.710  1.1746  0.1831  0.3826
 3161TIP3    H2 9448   6.356   2.466   4.738 -0.2814 -0.8737 -0.3400
 3162TIP3   OH2 9449   4.473   5.870   2.488  0.6726 -0.1547  0.2036
 3162TIP3    H1 9450   4.407   5.837   2.427  1.6537 -0.2345 -0.8601
 3162TIP3    H2 9451   4.483   5.802   2.554 -0.7591  0.1412  0.7487
 3163TIP3   OH2 9452   6.573   4.623   2.617  0.3276 -0.0430  0.4206
 3163TIP3    H1 9453   6.664   4.625   2.587 -0.0641  0.9473 -0.8031
 3163TIP3    H2 9454   6.548   4.531   2.611  0.5664 -0.0260 -1.4729
 3164TIP3   OH2 9455   7.011   0.541   5.655 -0.2318 -0.5889 -0.1007
 3164TIP3    H1 9456   6.999   0.492   5.574  0.1836 -0.7521 -0.0629
 3164TIP3    H2 9457   6.929   0.527   5.703 -2.0850  2.4901 -2.0354
 3165TIP3   OH2 9458   4.579   5.361   5.192 -0.5017  0.2503 -0.3515
 3165TIP3    H1 9459   4.648   5.413   5.233  0.2579 -0.7555 -0.3332
 3165TIP3    H2 9460   4.506   5.365   5.255  0.2940 -0.4246  0.6590
 3166TIP3   OH2 9461   2.328   1.691   5.573  0.4741 -0.5292 -0.5144
 3166TIP3    H1 9462   2.344   1.737   5.491  2.3880 -0.9890 -0.4347
 3166TIP3    H2 9463   2.292   1.607   5.547 -0.9112  0.1174 -0.7621
 3167TIP3   OH2 9464   0.119   0.458   3.605  0.5701 -0.4470 -0.5683
 3167TIP3    H1 9465   0.119   0.548   3.573 -2.0215  0.3404  1.3360
 3167TIP3    H2 9466   0.087   0.406   3.530  2.2268  0.1162 -1.7244
 3168TIP3   OH2 9467   3.321   0.399   3.047  0.3591 -0.5217  0.6371
 3168TIP3    H1 9468   3.263   0.428   3.118  0.0182  0.2890  0.0463
 3168TIP3    H2 9469   3.279   0.432   2.967  2.4404  1.5379  0.2940
 3169TIP3   OH2 9470   0.082   1.986   0.707  0.3277 -0.0631 -0.2016
 3169TIP3    H1 9471   0.014   1.960   0.646 -0.2298 -0.1268  0.4325
 3169TIP3    H2 9472   0.105   1.906   0.754 -0.0494  0.1984  0.4453
 3170TIP3   OH2 9473   4.619   2.328   1.256  0.4576 -0.2401  0.7685
 3170TIP3    H1 9474   4.689   2.370   1.206 -0.9451 -1.0047 -2.0389
 3170TIP3    H2 9475   4.542   2.384   1.241 -0.3539 -1.3264  0.7621
 3171TIP3   OH2 9476   3.231   1.134   2.443 -0.4182 -0.0888  0.8980
 3171TIP3    H1 9477   3.288   1.162   2.514  1.0831 -1.8447  0.4491
 3171TIP3    H2 9478   3.178   1.212   2.423  0.5089  1.0369  2.5668
 3172TIP3   OH2 9479   5.640   3.789   0.726  0.2428  0.0262  0.0628
 3172TIP3    H1 9480   5.687   3.799   0.809  0.2790 -2.2958  0.3799
 3172TIP3    H2 9481   5.708   3.771   0.661  0.0781  0.3384 -0.2029
 3173TIP3   OH2 9482   1.310   5.298   2.552  0.5980  0.3964 -0.6351
 3173TIP3    H1 9483   1.268   5.311   2.467  0.3399  1.2554 -0.3831
 3173TIP3    H2 9484   1.252   5.341   2.615  0.8099 -0.1867 -0.0220
 3174TIP3   OH2 9485   6.131   1.776   5.390  0.2259 -0.0212  0.0059
 3174TIP3    H1 9486   6.076   1.833   5.443  0.7053  0.8336 -0.3925
 3174TIP3    H2 9487   6.085   1.768   5.306 -0.6037 -1.4884  0.5628
 3175TIP3   OH2 9488   1.090   2.748   2.739  0.3092 -0.1406  0.1151
 3175TIP3    H1 9489   1.167   2.692   2.748 -0.1903 -0.6234  1.8659
 3175TIP3    H2 9490   1.054   2.754   2.828 -0.4926  1.7744 -0.2821
 3176TIP3   OH2 9491   6.187   2.253   4.504  0.2780 -0.3326  0.1972
 3176TIP3    H1 9492   6.176   2.160   4.484 -1.2434  0.0733 -1.0425
 3176TIP3    H2 9493   6.159   2.262   4.595  0.2314 -1.0429  0.2585
 3177TIP3   OH2 9494   1.873   6.403   4.396  0.2334  0.6947  0.3444
 3177TIP3    H1 9495   1.813   6.457   4.345  0.8812 -0.2205 -1.4413
 3177TIP3    H2 9496   1.855   6.314   4.368  1.6710  0.3115  0.5706
 3178TIP3   OH2 9497   6.522   0.682   1.218  0.0799 -0.1567 -0.5265
 3178TIP3    H1 9498   6.493   0.756   1.271  0.3799 -0.3969 -0.0230
 3178TIP3    H2 9499   6.613   0.704   1.194  0.3993 -0.6650  0.1878
 3179TIP3   OH2 9500   4.977   5.826   2.590  0.4961 -0.4193 -0.2608
 3179TIP3    H1 9501   4.962   5.871   2.673 -2.1940 -0.6331 -0.5505
 3179TIP3    H2 9502   4.928   5.744   2.597 -0.9992  0.1854 -2.5243
 3180TIP3   OH2 9503   2.131   6.667   0.336  0.4414  0.2000 -0.2885
 3180TIP3    H1 9504   2.063   6.661   0.403  0.2079 -0.6192 -0.5860
 3180TIP3    H2 9505   2.183   6.588   0.347  0.6075  0.2229 -0.8516
 3181TIP3   OH2 9506   4.769   5.697   0.662 -0.4998  0.0655  0.7949
 3181TIP3    H1 9507   4.712   5.631   0.622  0.4705 -0.1472 -0.2886
 3181TIP3    H2 9508   4.830   5.646   0.716  0.0353  0.0949  0.2258
 3182TIP3   OH2 9509   1.386   4.928   4.073  0.2532  0.5361 -0.0059
 3182TIP3    H1 9510   1.465   4.982   4.070  0.6047  0.0181 -0.2464
 3182TIP3    H2 9511   1.346   4.950   4.157 -0.8054  2.8075 -1.0157
 3183TIP3   OH2 9512   5.713   6.731   3.376 -0.0837 -0.1643 -0.1176
 3183TIP3    H1 9513   5.768   6.803   3.343 -1.3082  0.9479  0.2069
 3183TIP3    H2 9514   5.763   6.652   3.356  1.9968  0.8260  0.7986
 3184TIP3   OH2 9515   4.134   1.340   4.540 -0.0612  0.3482 -0.3726
 3184TIP3    H1 9516   4.144   1.434   4.532  2.9482  0.1706  0.0335
 3184TIP3    H2 9517   4.140   1.307   4.450 -0.1905  0.4961 -0.4346
 3185TIP3   OH2 9518   4.928   1.322   0.173  0.0436  0.0242 -0.9060
 3185TIP3    H1 9519   4.852   1.351   0.224  0.2880  1.0462 -1.0895
 3185TIP3    H2 9520   4.944   1.232   0.202  0.9316  0.9422  1.8083
 3186TIP3   OH2 9521   1.469   2.885   5.754 -0.1806  0.0030  0.3775
 3186TIP3    H1 9522   1.500   2.906   5.666  0.4793  2.3712  1.0982
 3186TIP3    H2 9523   1.376   2.866   5.743 -0.1090  0.2697 -0.8174
 3187TIP3   OH2 9524   6.146   3.454   5.737  0.2321  0.1696 -1.0573
 3187TIP3    H1 9525   6.058   3.424   5.711  0.0250  0.9201 -1.2445
 3187TIP3    H2 9526   6.206   3.401   5.684 -0.0370 -1.6093  0.3511
 3188TIP3   OH2 9527   3.665   5.252   5.815  0.0123  0.0067 -0.3731
 3188TIP3    H1 9528   3.581   5.229   5.775 -0.2947  1.4869 -0.6429
 3188TIP3    H2 9529   3.730   5.213   5.757 -0.4449 -2.0305  0.3769
 3189TIP3   OH2 9530   5.641   0.426   0.168 -1.0911  0.0611  0.4208
 3189TIP3    H1 9531   5.604   0.512   0.149 -3.1422 -0.6933  0.7668
 3189TIP3    H2 9532   5.731   0.444   0.197 -0.0267  1.7353 -3.4038
 3190TIP3   OH2 9533   4.654   5.383   2.613  0.7802  0.1655  0.2422
 3190TIP3    H1 9534   4.631   5.307   2.559 -0.0726  0.1845  0.5666
 3190TIP3    H2 9535   4.690   5.344   2.694 -0.7833  0.0515  0.9198
 3191TIP3   OH2 9536   2.082   2.533   0.768 -0.0550 -0.7748 -0.0949
 3191TIP3    H1 9537   2.100   2.439   0.777  1.0269 -0.4266  2.3754
 3191TIP3    H2 9538   2.161   2.569   0.730 -0.1063 -0.7543 -0.1811
 3192TIP3   OH2 9539   1.876   4.490   5.051  0.4494 -0.2306 -0.0223
 3192TIP3    H1 9540   1.925   4.417   5.015  0.2705 -0.0121 -0.7200
 3192TIP3    H2 9541   1.791   4.453   5.076 -0.4505  0.1196 -2.3206
 3193TIP3   OH2 9542   5.334   4.382   3.091 -0.4211  0.3008 -0.3579
 3193TIP3    H1 9543   5.428   4.375   3.106 -0.3297  0.1583 -0.9698
 3193TIP3    H2 9544   5.298   4.299   3.125 -0.1647 -0.2028 -1.2736
 3194TIP3   OH2 9545   0.752   5.549   2.099  0.1165 -0.3876  0.1425
 3194TIP3    H1 9546   0.758   5.547   2.003  0.0185  0.1140  0.1186
 3194TIP3    H2 9547   0.814   5.483   2.129  0.6769 -0.0496 -0.2560
 3195TIP3   OH2 9548   5.331   3.267   2.108  0.1923  0.5144  0.8608
 3195TIP3    H1 9549   5.423   3.279   2.087  0.1031  1.3168  0.9079
 3195TIP3    H2 9550   5.292   3.353   2.097 -0.8309 -0.0902 -0.4902
 3196TIP3   OH2 9551   1.540   1.562   5.564 -0.4693 -0.0034 -0.1616
 3196TIP3    H1 9552   1.560   1.628   5.497  1.6159  0.1512  0.5546
 3196TIP3    H2 9553   1.620   1.511   5.572 -0.7925 -0.2531  1.9389
 3197TIP3   OH2 9554   4.135   2.404   1.299  0.2913 -0.2545  0.7290
 3197TIP3    H1 9555   4.129   2.438   1.389  0.0111 -0.1840  0.6849
 3197TIP3    H2 9556   4.050   2.361   1.284  0.3151 -0.2154  0.4778
 3198TIP3   OH2 9557   2.771   5.375   2.023  0.3732 -0.1642  0.0888
 3198TIP3    H1 9558   2.756   5.455   2.074  1.6163  0.0079  0.1967
 3198TIP3    H2 9559   2.830   5.402   1.953 -1.7552 -0.2404 -1.8729
 3199TIP3   OH2 9560   0.397   3.623   3.803 -0.3849  0.2371  0.4467
 3199TIP3    H1 9561   0.376   3.700   3.857  0.5145 -0.2220  1.4979
 3199TIP3    H2 9562   0.487   3.639   3.774 -0.2091 -0.3881  0.6361
 3200TIP3   OH2 9563   5.642   5.227   4.228 -0.3683 -0.6037  0.2797
 3200TIP3    H1 9564   5.725   5.179   4.233  0.1153  0.2230  0.3706
 3200TIP3    H2 9565   5.667   5.315   4.201 -1.1479 -0.1585  0.9548
 3201TIP3   OH2 9566   6.250   5.059   4.733 -0.0242  0.2034 -0.3852
 3201TIP3    H1 9567   6.309   5.134   4.736 -0.5258  0.5936 -0.1851
 3201TIP3    H2 9568   6.263   5.022   4.646  0.3205  0.4450 -0.4383
 3202TIP3   OH2 9569   4.000   1.795   5.139  0.1646 -0.6779  0.7733
 3202TIP3    H1 9570   3.943   1.728   5.177  0.6489 -1.1695  0.6430
 3202TIP3    H2 9571   3.963   1.810   5.052  0.4704 -1.3016  0.5269
 3203TIP3   OH2 9572   7.142   0.782   1.693 -0.1729  0.1337  0.2093
 3203TIP3    H1 9573   7.231   0.758   1.667 -0.0167  0.5306  0.3641
 3203TIP3    H2 9574   7.106   0.702   1.732  0.9404  0.5789  2.3316
 3204TIP3   OH2 9575   0.133   4.818   4.827  0.1999  0.7053 -0.0435
 3204TIP3    H1 9576   0.144   4.759   4.752 -0.4035  0.2667  0.2051
 3204TIP3    H2 9577   0.126   4.759   4.902  1.7445  1.1639  0.4961
 3205TIP3   OH2 9578   2.276   5.243   3.529  0.1810  0.1301  0.1371
 3205TIP3    H1 9579   2.221   5.321   3.526  3.2916  2.4565 -2.0887
 3205TIP3    H2 9580   2.272   5.208   3.440  2.5512  0.6793 -0.2562
 3206TIP3   OH2 9581   3.903   5.759   1.471  0.2215  0.1076  0.4690
 3206TIP3    H1 9582   3.831   5.717   1.424  0.6179 -0.7683  0.6067
 3206TIP3    H2 9583   3.923   5.837   1.420 -0.1838 -0.1588 -0.1142
 3207TIP3   OH2 9584   1.221   6.359   1.323 -0.3126 -0.3096 -0.4293
 3207TIP3    H1 9585   1.254   6.279   1.280 -1.4288 -0.6292 -0.7246
 3207TIP3    H2 9586   1.130   6.338   1.345 -0.3751  0.6087  0.2172
 3208TIP3   OH2 9587   0.036   4.703   2.383  0.3644 -0.2984  0.2184
 3208TIP3    H1 9588   0.099   4.762   2.341  0.2175  0.6386  1.2716
 3208TIP3    H2 9589   0.088   4.628   2.412  0.9800  0.3952  0.9432
 3209TIP3   OH2 9590   1.933   5.583   1.952 -0.1732  0.3629 -0.3618
 3209TIP3    H1 9591   1.929   5.538   1.867  1.6521  1.1131 -0.8816
 3209TIP3    H2 9592   2.023   5.573   1.980 -0.4771  1.1471  0.9531
 3210TIP3   OH2 9593   6.755   2.056   3.818  0.3326 -0.0059  0.5169
 3210TIP3    H1 9594   6.800   2.124   3.767 -1.4108  0.4470 -0.5038
 3210TIP3    H2 9595   6.679   2.100   3.855 -0.1684 -1.1238  0.8544
 3211TIP3   OH2 9596   4.497   0.436   4.945  0.5950  0.0887  0.1039
 3211TIP3    H1 9597   4.473   0.464   5.034  1.4630  2.3036 -0.3018
 3211TIP3    H2 9598   4.590   0.417   4.950  0.7513  0.6946 -0.4386
 3212TIP3   OH2 9599   3.716   2.459   4.741  0.3216 -0.5097  0.0726
 3212TIP3    H1 9600   3.664   2.430   4.666 -0.4862  0.8481  0.0838
 3212TIP3    H2 9601   3.668   2.427   4.817  0.1725 -0.3181  0.0576
 3213TIP3   OH2 9602   0.560   2.105   3.668  0.3998 -0.0606  0.5299
 3213TIP3    H1 9603   0.549   2.011   3.653 -0.9135  0.2170 -0.4280
 3213TIP3    H2 9604   0.550   2.144   3.581 -1.8889  1.1739  1.2578
 3214TIP3   OH2 9605   7.101   1.563   4.498  0.2701  0.7140  0.5032
 3214TIP3    H1 9606   7.104   1.627   4.427  0.0557  2.3711  1.9161
 3214TIP3    H2 9607   7.190   1.560   4.531  0.4338 -0.2752  0.0075
 3215TIP3   OH2 9608   4.070   6.761   0.551  0.1959 -0.2812 -0.7453
 3215TIP3    H1 9609   4.001   6.804   0.602  0.6520 -0.5237  0.0944
 3215TIP3    H2 9610   4.062   6.668   0.572  0.3352 -0.3952 -1.1835
 3216TIP3   OH2 9611   2.812   3.752   1.765  0.0424  0.0137 -0.5006
 3216TIP3    H1 9612   2.752   3.793   1.703 -1.1934  0.2363  0.8004
 3216TIP3    H2 9613   2.838   3.670   1.722  0.4959  0.8955 -1.9910
 3217TIP3   OH2 9614   5.710   2.587   2.552  0.2001  0.2177  0.4434
 3217TIP3    H1 9615   5.695   2.676   2.584  1.1616  0.2912  0.7342
 3217TIP3    H2 9616   5.695   2.532   2.629  0.3715  0.2032  0.4674
 3218TIP3   OH2 9617   0.861   3.661   5.334 -0.5836 -0.2827  0.0220
 3218TIP3    H1 9618   0.792   3.668   5.268 -0.6270  0.2056  0.1161
 3218TIP3    H2 9619   0.886   3.569   5.332 -0.6728 -0.3002 -0.5892
 3219TIP3   OH2 9620   2.967   5.993   3.332  0.1629 -0.3223 -0.1218
 3219TIP3    H1 9621   3.005   6.032   3.410 -1.8967  0.6123  0.4811
 3219TIP3    H2 9622   3.004   5.905   3.329  3.1670  0.8230 -0.2512
 3220TIP3   OH2 9623   3.423   6.288   2.957  0.3727 -0.0339  0.1206
 3220TIP3    H1 9624   3.414   6.197   2.927  0.7904 -1.2064  3.1836
 3220TIP3    H2 9625   3.337   6.310   2.992  0.4128  0.5842 -0.1650
 3221TIP3   OH2 9626   5.890   6.667   2.503  0.1729 -0.2564 -0.0856
 3221TIP3    H1 9627   5.884   6.576   2.473 -2.0542 -0.1032 -0.2979
 3221TIP3    H2 9628   5.874   6.719   2.424  2.4585  0.3991 -0.1809
 3222TIP3   OH2 9629   5.947   0.003   0.619 -0.0859  0.0263 -0.3205
 3222TIP3    H1 9630   5.896   0.070   0.665 -0.3803 -0.2595 -0.2243
 3222TIP3    H2 9631   5.956  -0.068   0.682  1.1571  0.4000 -0.0382
 3223TIP3   OH2 9632   6.123   2.470   1.315  0.0335 -0.0901  0.5011
 3223TIP3    H1 9633   6.110   2.559   1.281 -1.8926  0.0283  1.3717
 3223TIP3    H2 9634   6.150   2.483   1.406 -0.6428 -0.3701  0.7513
 3224TIP3   OH2 9635   0.766   4.802   3.285 -0.0472  0.0981  0.3583
 3224TIP3    H1 9636   0.695   4.791   3.348 -0.6450  0.1891 -0.2881
 3224TIP3    H2 9637   0.826   4.729   3.303  1.7104  2.0631  3.4491
 3225TIP3   OH2 9638   0.118   5.218   2.238 -1.0498  0.2625  0.5718
 3225TIP3    H1 9639   0.050   5.201   2.173 -0.4662  1.1307 -0.2856
 3225TIP3    H2 9640   0.120   5.313   2.246  0.0814  0.2406  0.5822
 3226TIP3   OH2 9641   1.261   3.090   3.028 -0.1975 -0.3257 -0.0538
 3226TIP3    H1 9642   1.336   3.139   3.060 -0.2926  0.0232 -0.3536
 3226TIP3    H2 9643   1.219   3.055   3.106  0.4616 -0.8038  0.1024
 3227TIP3   OH2 9644   4.462   6.202   5.345 -0.3236 -0.5629  0.2407
 3227TIP3    H1 9645   4.454   6.251   5.427  0.6926  1.2388 -0.6964
 3227TIP3    H2 9646   4.554   6.179   5.339  0.1729  1.5992 -1.5985
 3228TIP3   OH2 9647   4.125   4.463   5.175  0.5886  0.1877 -0.3400
 3228TIP3    H1 9648   4.131   4.558   5.167 -0.4114  0.2051 -1.1654
 3228TIP3    H2 9649   4.033   4.447   5.197  0.3729 -0.6538 -1.7609
 3229TIP3   OH2 9650   1.517   0.716   2.042  0.0219 -0.5740  0.2905
 3229TIP3    H1 9651   1.515   0.804   2.079  1.9648 -0.1867 -0.3672
 3229TIP3    H2 9652   1.504   0.728   1.948 -2.2106 -1.2838  0.4521
 3230TIP3   OH2 9653   3.896   4.500   4.723  0.2687  0.1717 -1.1831
 3230TIP3    H1 9654   3.802   4.510   4.712  0.0606  0.5921  0.5996
 3230TIP3    H2 9655   3.923   4.579   4.770  1.0715 -1.0320  0.4829
 3231TIP3   OH2 9656   3.492   0.118   5.076 -0.2691  0.4732  0.1201
 3231TIP3    H1 9657   3.480   0.189   5.013 -0.4839  0.6528  0.3613
 3231TIP3    H2 9658   3.555   0.154   5.139 -0.3605  0.4420  0.2291
 3232TIP3   OH2 9659   6.233   0.465   1.518  0.3373  0.7448 -0.1738
 3232TIP3    H1 9660   6.193   0.486   1.434  0.6865  0.1748 -0.4967
 3232TIP3    H2 9661   6.315   0.514   1.518  0.8230 -0.0372 -0.6247
 3233TIP3   OH2 9662   1.144   3.961   4.659 -0.7924 -0.4659 -0.4452
 3233TIP3    H1 9663   1.187   3.878   4.640  0.2651 -0.0133 -0.0757
 3233TIP3    H2 9664   1.209   4.013   4.705 -0.7194  1.3188 -2.3960
 3234TIP3   OH2 9665   4.874   4.591   0.018  0.3786 -0.1026  0.0828
 3234TIP3    H1 9666   4.828   4.520   0.063  0.6798  1.4427  3.0348
 3234TIP3    H2 9667   4.818   4.667   0.028  0.5770  0.3999 -2.0788
 3235TIP3   OH2 9668   0.621   4.302   5.629  0.2036 -0.5868 -0.2763
 3235TIP3    H1 9669   0.547   4.363   5.625  0.8066  0.1120 -0.9831
 3235TIP3    H2 9670   0.597   4.233   5.567 -0.2552 -0.8153  0.1510
 3236TIP3   OH2 9671   0.699   0.323   3.480 -0.7495  0.1037 -0.4373
 3236TIP3    H1 9672   0.652   0.331   3.563 -1.5983 -0.0838 -0.8957
 3236TIP3    H2 9673   0.660   0.248   3.437  0.0271 -0.1064 -0.8023
 3237TIP3   OH2 9674   2.643   3.333   0.672 -0.0180 -0.5853 -0.3469
 3237TIP3    H1 9675   2.691   3.284   0.740  2.1079  2.2650  0.3989
 3237TIP3    H2 9676   2.603   3.405   0.720 -0.9864 -0.1687 -1.7557
 3238TIP3   OH2 9677   7.112   5.955   3.691  0.1487  0.5362 -0.3104
 3238TIP3    H1 9678   7.142   6.045   3.703  2.2970  0.0443 -1.5178
 3238TIP3    H2 9679   7.173   5.903   3.743 -0.3614 -0.3068 -0.5464
 3239TIP3   OH2 9680   1.864   2.182   2.319  0.8979 -0.1601  0.0007
 3239TIP3    H1 9681   1.941   2.154   2.368  0.3851 -1.8825 -0.0991
 3239TIP3    H2 9682   1.896   2.249   2.259  2.1837 -0.4129  0.3789
 3240TIP3   OH2 9683   0.883   0.081   0.862  0.0214  0.0054 -0.1743
 3240TIP3    H1 9684   0.954   0.088   0.798 -0.7860  3.1381 -0.8878
 3240TIP3    H2 9685   0.807   0.055   0.811 -0.0301 -0.2547  0.0320
 3241TIP3   OH2 9686   4.576   4.065   0.072 -0.2224 -0.0574  0.0670
 3241TIP3    H1 9687   4.667   4.040   0.058  0.3634  1.1677  1.4753
 3241TIP3    H2 9688   4.548   4.013   0.148 -0.4710  0.1237  0.1016
 3242TIP3   OH2 9689   2.582   4.745   1.094  0.2609 -0.1878  0.0646
 3242TIP3    H1 9690   2.527   4.671   1.119 -0.4525  0.0758 -0.6690
 3242TIP3    H2 9691   2.671   4.719   1.120  0.0503 -1.3793 -0.3315
 3243TIP3   OH2 9692   6.850   3.624   3.389 -0.0338 -0.6154 -0.2568
 3243TIP3    H1 9693   6.863   3.589   3.301 -2.6994 -0.9958 -0.5745
 3243TIP3    H2 9694   6.756   3.617   3.405  0.2710  0.0190  2.4022
 3244TIP3   OH2 9695   0.590   0.254   5.475  0.7399 -0.0661 -0.0131
 3244TIP3    H1 9696   0.672   0.294   5.446  0.6787  0.3142  0.3184
 3244TIP3    H2 9697   0.616   0.191   5.542  0.7781 -0.0825 -0.0430
 3245TIP3   OH2 9698   3.594   5.775   3.960  0.3059  0.3759 -0.3341
 3245TIP3    H1 9699   3.576   5.768   4.054  1.0064  0.3415 -0.1978
 3245TIP3    H2 9700   3.587   5.686   3.928 -0.1370  0.4166 -0.3526
 3246TIP3   OH2 9701   3.805   6.471   5.636  0.4298  0.5950 -0.4146
 3246TIP3    H1 9702   3.741   6.507   5.698  0.6409 -0.0395  0.1864
 3246TIP3    H2 9703   3.842   6.548   5.593 -0.8585  0.9775 -0.9105
 3247TIP3   OH2 9704   4.779   6.517   0.517 -0.3487  0.0061 -0.3425
 3247TIP3    H1 9705   4.744   6.528   0.429 -0.3773  0.2324 -0.3032
 3247TIP3    H2 9706   4.833   6.438   0.512  0.2529  0.4414 -0.7538
 3248TIP3   OH2 9707   4.543   2.025   0.208  0.3251  1.0172 -0.3645
 3248TIP3    H1 9708   4.624   2.069   0.234  0.1852 -0.1314  2.3168
 3248TIP3    H2 9709   4.498   2.089   0.152  0.8256  3.7324  2.0969
 3249TIP3   OH2 9710   3.024   1.195   2.153  0.1027  0.1810  0.3256
 3249TIP3    H1 9711   2.937   1.204   2.192  0.2476 -0.9387  0.9508
 3249TIP3    H2 9712   3.083   1.188   2.228  0.6152 -0.0967 -0.0995
 3250TIP3   OH2 9713   2.202   5.375   1.747  0.1776 -0.1887  0.8468
 3250TIP3    H1 9714   2.174   5.418   1.666  0.7710  0.1012  0.7946
 3250TIP3    H2 9715   2.120   5.357   1.793 -0.2067 -0.8945 -0.0836
 3251TIP3   OH2 9716   0.454   6.729   3.241  0.9102 -0.1921  0.5425
 3251TIP3    H1 9717   0.485   6.791   3.176  0.5982  0.4265  0.9740
 3251TIP3    H2 9718   0.404   6.664   3.191 -0.3592  0.9424  0.2861
 3252TIP3   OH2 9719   4.876   4.918   2.424  0.7280 -0.0229 -0.0571
 3252TIP3    H1 9720   4.842   4.851   2.364  1.3593  0.5828 -1.1244
 3252TIP3    H2 9721   4.835   4.897   2.508  0.4841 -1.4174 -0.4831
 3253TIP3   OH2 9722   3.792   4.828   3.734  0.0446  0.0341 -0.6102
 3253TIP3    H1 9723   3.724   4.785   3.683 -0.4078  1.0625 -0.8893
 3253TIP3    H2 9724   3.778   4.797   3.824  0.7249 -1.6321 -1.0305
 3254TIP3   OH2 9725   4.748   5.041   1.735  0.7882 -0.0856  0.1111
 3254TIP3    H1 9726   4.750   4.978   1.663  0.6941  1.6012 -1.4399
 3254TIP3    H2 9727   4.826   5.095   1.721  0.9195  0.1073  1.4658
 3255TIP3   OH2 9728   1.144   3.482   2.158 -0.0052 -0.1052  0.0399
 3255TIP3    H1 9729   1.106   3.412   2.105 -0.3662  0.9273 -1.0910
 3255TIP3    H2 9730   1.077   3.501   2.224 -0.4144 -0.0123 -0.3942
 3256TIP3   OH2 9731   0.803   4.798   1.698 -0.3924  0.3429  0.3623
 3256TIP3    H1 9732   0.874   4.749   1.740 -1.5339 -0.5901  1.3086
 3256TIP3    H2 9733   0.774   4.740   1.627  0.6275  1.3078 -0.8780
 3257TIP3   OH2 9734   0.856   0.442   5.460  0.1933  0.0922 -0.2018
 3257TIP3    H1 9735   0.794   0.504   5.497  0.8912  1.3074 -1.0242
 3257TIP3    H2 9736   0.940   0.487   5.461  0.4612 -0.2700 -2.1201
 3258TIP3   OH2 9737   1.299   0.694   2.935  0.0402  0.4015 -0.3322
 3258TIP3    H1 9738   1.364   0.662   2.872 -1.6127 -3.0664 -0.5386
 3258TIP3    H2 9739   1.331   0.663   3.020 -1.3436 -1.5917 -0.4685
 3259TIP3   OH2 9740   4.306   6.518   2.483  0.1070  0.2913 -0.2318
 3259TIP3    H1 9741   4.352   6.591   2.444  1.9074 -1.1888 -1.0376
 3259TIP3    H2 9742   4.290   6.545   2.573  3.0665  0.7364  0.2620
 3260TIP3   OH2 9743   6.087   0.468   4.151  0.1390 -0.1535  0.0433
 3260TIP3    H1 9744   6.133   0.519   4.084  0.1977  0.4620  0.5475
 3260TIP3    H2 9745   5.994   0.486   4.134  0.1074 -0.7077 -0.4251
 3261TIP3   OH2 9746   2.556   3.933   3.875  0.0600 -0.1906  0.2556
 3261TIP3    H1 9747   2.547   3.994   3.949  1.1850  1.2153 -0.6968
 3261TIP3    H2 9748   2.473   3.886   3.872 -1.0491  1.6312  0.8014
 3262TIP3   OH2 9749   1.590   5.331   5.217  0.5267  0.3429 -0.3614
 3262TIP3    H1 9750   1.575   5.375   5.133  2.4021  1.0571 -0.3559
 3262TIP3    H2 9751   1.547   5.246   5.206 -1.1615  1.2351 -1.2083
 3263TIP3   OH2 9752   3.443   5.214   2.375  0.4159  0.7313  0.4280
 3263TIP3    H1 9753   3.428   5.140   2.434  0.2224  0.2788 -0.1785
 3263TIP3    H2 9754   3.537   5.229   2.379  0.1493  2.5301  2.9982
 3264TIP3   OH2 9755   0.743   3.236   1.750  0.8823  0.2575  0.7682
 3264TIP3    H1 9756   0.660   3.273   1.781 -0.1337 -0.8184 -0.5546
 3264TIP3    H2 9757   0.809   3.301   1.776 -0.4255  1.4052  1.3713
 3265TIP3   OH2 9758   6.259   2.131   1.261  0.1207  0.4482  0.1764
 3265TIP3    H1 9759   6.266   2.036   1.271  0.6485  0.3964 -0.5837
 3265TIP3    H2 9760   6.301   2.149   1.177 -1.5387  1.1644 -0.5455
 3266TIP3   OH2 9761   6.956   1.004   3.261  0.2968  0.2443  0.1558
 3266TIP3    H1 9762   6.951   0.998   3.357  0.0549 -1.0490  0.0732
 3266TIP3    H2 9763   6.955   1.098   3.243  0.0759  0.4968  1.4099
 3267TIP3   OH2 9764   5.459   3.403   4.781 -0.5359 -0.6287  0.4150
 3267TIP3    H1 9765   5.440   3.486   4.736  1.3233  0.1674  0.9995
 3267TIP3    H2 9766   5.499   3.429   4.863 -1.6508 -2.1236  1.4824
 3268TIP3   OH2 9767   1.278   6.517   4.480  0.0945 -0.5720 -0.1435
 3268TIP3    H1 9768   1.373   6.530   4.476  0.5597 -1.8345  3.3579
 3268TIP3    H2 9769   1.263   6.432   4.438  0.5057 -0.4258 -0.5979
 3269TIP3   OH2 9770   3.590   0.691   4.179  0.1559 -0.3332  0.0338
 3269TIP3    H1 9771   3.553   0.613   4.137 -0.9349 -0.1259  0.5567
 3269TIP3    H2 9772   3.600   0.754   4.109  0.0193 -0.5789 -0.2103
 3270TIP3   OH2 9773   0.337   4.336   2.661  0.0347  0.2267  0.1860
 3270TIP3    H1 9774   0.357   4.257   2.712  0.3947  1.5983  2.3118
 3270TIP3    H2 9775   0.395   4.403   2.698 -0.3562  1.5230 -1.4649
 3271TIP3   OH2 9776   1.679   3.734   3.335 -0.8924 -0.2584 -0.3728
 3271TIP3    H1 9777   1.619   3.663   3.314 -0.8458 -0.1419 -0.9107
 3271TIP3    H2 9778   1.761   3.710   3.292 -0.1120 -1.0955  1.4608
 3272TIP3   OH2 9779   5.904   4.094   1.222 -0.0528 -0.6636  0.0954
 3272TIP3    H1 9780   5.971   4.154   1.190 -0.1034 -0.2986  0.6587
 3272TIP3    H2 9781   5.935   4.008   1.196 -0.3164 -0.3576 -1.3397
 3273TIP3   OH2 9782   1.952   6.489   3.578  0.1916  0.0211 -0.2377
 3273TIP3    H1 9783   2.018   6.450   3.635 -1.6851 -1.0154  1.3879
 3273TIP3    H2 9784   1.952   6.582   3.601  0.2091 -0.1991  0.6952
 3274TIP3   OH2 9785   2.732   4.698   4.708 -0.0790 -0.2686 -0.5273
 3274TIP3    H1 9786   2.697   4.609   4.718 -0.0746 -0.1822  0.3630
 3274TIP3    H2 9787   2.785   4.711   4.786  1.7419 -0.2847 -1.7176
 3275TIP3   OH2 9788   5.073   0.650   2.958  0.2120 -0.1174 -0.0613
 3275TIP3    H1 9789   5.165   0.657   2.929  0.3041 -0.9375  0.0127
 3275TIP3    H2 9790   5.073   0.686   3.046  0.6563 -0.9402  0.2888
 3276TIP3   OH2 9791   2.701   0.596   1.799  0.9960 -0.3001 -0.3835
 3276TIP3    H1 9792   2.648   0.581   1.877 -0.9948  3.4729 -0.7326
 3276TIP3    H2 9793   2.789   0.612   1.832  1.1341 -2.7466  0.6173
 3277TIP3   OH2 9794   1.650   3.069   2.964  0.5818  0.5876 -0.3743
 3277TIP3    H1 9795   1.700   3.101   2.888  0.9420 -0.6488 -0.6808
 3277TIP3    H2 9796   1.711   3.012   3.011 -1.0619 -2.7707 -1.9418
 3278TIP3   OH2 9797   4.095   2.781   4.035 -0.3471 -0.4465 -0.4942
 3278TIP3    H1 9798   4.060   2.781   4.124  0.0876 -0.3305 -0.3181
 3278TIP3    H2 9799   4.025   2.816   3.981  0.3592  2.2739  0.2047
 3279TIP3   OH2 9800   4.747   0.106   2.307 -0.4143 -0.3453 -0.5322
 3279TIP3    H1 9801   4.756   0.168   2.380 -1.8377 -0.2664 -0.3866
 3279TIP3    H2 9802   4.653   0.108   2.286 -0.2925 -1.6216 -1.2692
 3280TIP3   OH2 9803   7.080   4.957   3.330  0.2607  0.3690  0.2508
 3280TIP3    H1 9804   7.091   4.894   3.401 -1.6112 -2.1020 -1.4706
 3280TIP3    H2 9805   6.988   4.984   3.335 -0.0475 -0.2137 -1.4099
 3281TIP3   OH2 9806   3.704   4.219   3.903  0.1272  0.8205  0.0087
 3281TIP3    H1 9807   3.791   4.188   3.877  0.3353  1.0760  0.3822
 3281TIP3    H2 9808   3.654   4.221   3.821 -0.0488 -0.9418  0.0361
 3282TIP3   OH2 9809   1.261   3.406   0.825  0.0943  0.4872  0.0557
 3282TIP3    H1 9810   1.253   3.391   0.731  0.3993 -1.2905  0.2870
 3282TIP3    H2 9811   1.260   3.501   0.833 -0.6305  0.6752 -1.6746
 3283TIP3   OH2 9812   1.243   5.040   5.670  1.1969 -0.0187  0.3583
 3283TIP3    H1 9813   1.223   5.128   5.703 -1.2761 -0.4073  0.0430
 3283TIP3    H2 9814   1.274   5.055   5.580 -0.2131  0.4905 -0.0645
 3284TIP3   OH2 9815   5.407   2.015   1.399 -0.0007  0.2067 -0.2508
 3284TIP3    H1 9816   5.328   1.982   1.441 -0.1082  1.4156  0.5567
 3284TIP3    H2 9817   5.464   1.938   1.389 -0.8634 -0.4866  0.0940
 3285TIP3   OH2 9818   2.479   3.329   1.196  0.5065  0.3833 -0.3419
 3285TIP3    H1 9819   2.448   3.268   1.129  1.5336  0.0584 -0.5311
 3285TIP3    H2 9820   2.399   3.373   1.226 -0.1297 -0.3697 -0.8733
 3286TIP3   OH2 9821   2.727   1.013   3.317  0.6247 -0.1571  0.2489
 3286TIP3    H1 9822   2.691   1.101   3.321  0.1435 -0.3373  0.0316
 3286TIP3    H2 9823   2.703   0.974   3.401 -1.6237 -0.9869 -0.6809
 3287TIP3   OH2 9824   3.437   3.365   2.686  0.1997  0.5438  0.8843
 3287TIP3    H1 9825   3.421   3.426   2.614 -1.3776  0.0530  0.7986
 3287TIP3    H2 9826   3.353   3.356   2.730  0.2942 -1.8006  0.7084
 3288TIP3   OH2 9827   1.518   2.006   0.512 -0.0093  0.2821  0.0608
 3288TIP3    H1 9828   1.506   2.073   0.580 -2.8918  0.0909 -0.1398
 3288TIP3    H2 9829   1.430   1.976   0.493  1.0087 -1.8904 -1.6009
 3289TIP3   OH2 9830   5.221   6.671   2.289 -0.4626  0.0081 -0.1991
 3289TIP3    H1 9831   5.219   6.716   2.374  1.1469  0.9424 -0.6162
 3289TIP3    H2 9832   5.200   6.580   2.310 -0.3953  0.2768  1.1547
 3290TIP3   OH2 9833   2.093   6.175   3.089 -0.1230  0.5976 -0.4547
 3290TIP3    H1 9834   2.085   6.258   3.137  0.4431 -0.3701  1.4252
 3290TIP3    H2 9835   2.088   6.108   3.157  1.3059 -0.8436 -1.6857
 3291TIP3   OH2 9836   2.791   1.813   2.113 -0.0256 -0.1720 -0.3618
 3291TIP3    H1 9837   2.710   1.857   2.086 -0.3721 -0.8177 -0.3878
 3291TIP3    H2 9838   2.853   1.831   2.043 -0.9040 -1.8002 -1.6059
 3292TIP3   OH2 9839   6.728   1.351   1.254  0.1145 -0.1637  0.0242
 3292TIP3    H1 9840   6.736   1.444   1.273 -0.3449 -0.4435  1.7018
 3292TIP3    H2 9841   6.772   1.340   1.169  0.4792  1.5020 -0.0328
 3293TIP3   OH2 9842   6.364   5.244  -0.003  0.0736  0.4327 -0.0168
 3293TIP3    H1 9843   6.344   5.231   0.090 -1.9701 -0.3790 -0.5170
 3293TIP3    H2 9844   6.451   5.282  -0.003  0.7898 -0.9701  2.1852
 3294TIP3   OH2 9845   5.602   1.091   3.688 -0.3924  0.0588  0.0522
 3294TIP3    H1 9846   5.576   1.049   3.606 -2.7142 -0.1761  0.8516
 3294TIP3    H2 9847   5.642   1.174   3.661 -1.9058  0.3933 -1.3045
 3295TIP3   OH2 9848   1.502   5.197   4.441 -0.4965 -0.3892 -0.2580
 3295TIP3    H1 9849   1.414   5.160   4.430 -0.1028 -0.9080 -1.8807
 3295TIP3    H2 9850   1.561   5.128   4.411  0.3170  1.0583 -2.1595
 3296TIP3   OH2 9851   4.132   4.258   3.514 -0.1478 -0.1601 -0.5899
 3296TIP3    H1 9852   4.175   4.297   3.438  0.2736 -1.2947 -0.9599
 3296TIP3    H2 9853   4.053   4.310   3.526  0.1922  0.5489 -1.2952
 3297TIP3   OH2 9854   3.629   0.626   1.623 -0.4044 -0.0967 -0.2035
 3297TIP3    H1 9855   3.608   0.617   1.716 -0.7609 -0.1253 -0.2850
 3297TIP3    H2 9856   3.724   0.639   1.621 -0.2390 -1.1831  0.0906
 3298TIP3   OH2 9857   5.830   2.974   5.655 -0.1697  0.1151 -0.2614
 3298TIP3    H1 9858   5.748   2.966   5.704 -0.7641  2.8583 -0.6368
 3298TIP3    H2 9859   5.823   2.908   5.587 -1.2395 -0.9240  0.8099
 3299TIP3   OH2 9860   4.442   1.927   4.002 -0.0479  1.1820 -0.1277
 3299TIP3    H1 9861   4.451   2.014   4.041  0.2357  1.0569  0.0823
 3299TIP3    H2 9862   4.347   1.917   3.989 -0.0609  1.6476 -0.4450
 3300TIP3   OH2 9863   5.852   2.782   5.441  0.0837 -0.1475 -0.3925
 3300TIP3    H1 9864   5.944   2.761   5.428 -0.1188 -0.6817 -0.9768
 3300TIP3    H2 9865   5.806   2.700   5.426 -0.2826 -0.6645  2.7789
 3301TIP3   OH2 9866   0.046   2.684   4.684  0.3055  0.0518  0.5719
 3301TIP3    H1 9867   0.136   2.680   4.650  0.5314 -0.1266  1.1659
 3301TIP3    H2 9868   0.014   2.770   4.657  0.4469 -0.1144 -0.1467
 3302TIP3   OH2 9869   6.296   2.459   3.594  0.0447  0.7739  0.0291
 3302TIP3    H1 9870   6.230   2.417   3.538 -1.1529 -1.0482  2.6351
 3302TIP3    H2 9871   6.246   2.493   3.668  1.9317 -0.0728  1.7628
 3303TIP3   OH2 9872   0.499   5.059   0.228 -0.4290  0.4589 -0.5296
 3303TIP3    H1 9873   0.406   5.054   0.251 -0.7378 -0.4772 -1.8707
 3303TIP3    H2 9874   0.538   4.982   0.270 -0.2215  0.9047  0.1151
 3304TIP3   OH2 9875   3.202   6.132   4.584 -0.2949  0.4322  0.4458
 3304TIP3    H1 9876   3.125   6.075   4.576  0.0261 -0.1658  1.4376
 3304TIP3    H2 9877   3.201   6.161   4.676  1.0989 -0.2342  0.6928
 3305TIP3   OH2 9878   1.400   4.245   3.842  0.0460 -0.4211 -0.0474
 3305TIP3    H1 9879   1.335   4.314   3.830 -0.2119 -0.5390  0.6240
 3305TIP3    H2 9880   1.466   4.262   3.774 -0.6207 -0.2371 -0.6608
 3306TIP3   OH2 9881   2.285   2.397   4.730  0.5637  0.4088 -0.0268
 3306TIP3    H1 9882   2.211   2.428   4.677  0.3315 -0.2367 -0.0918
 3306TIP3    H2 9883   2.318   2.476   4.773 -0.0755  0.7278 -0.1030
 3307TIP3   OH2 9884   2.426   1.750   1.169 -0.5383  0.1647 -0.2805
 3307TIP3    H1 9885   2.404   1.839   1.197 -0.0427  0.8273 -1.8855
 3307TIP3    H2 9886   2.448   1.759   1.077  1.4049 -1.3169 -0.0131
 3308TIP3   OH2 9887   3.793   6.424   3.578 -0.1225 -0.5189  0.3828
 3308TIP3    H1 9888   3.751   6.494   3.528 -0.0188  0.5754  1.7466
 3308TIP3    H2 9889   3.874   6.406   3.531  0.5418  1.2945  0.7197
 3309TIP3   OH2 9890   5.642   4.126   1.095  0.1247  0.2156  0.0162
 3309TIP3    H1 9891   5.705   4.133   1.166  0.0707  2.1085 -0.0794
 3309TIP3    H2 9892   5.557   4.116   1.139  0.2012  0.3484  0.1949
 3310TIP3   OH2 9893   1.147   3.303   4.650 -0.0570  0.1331  0.0974
 3310TIP3    H1 9894   1.213   3.302   4.719  0.0902 -0.3542 -0.0445
 3310TIP3    H2 9895   1.065   3.279   4.694  0.1962 -1.0641 -0.0414
 3311TIP3   OH2 9896   0.044   2.290   4.878  0.8019 -0.3934 -0.1767
 3311TIP3    H1 9897   0.131   2.273   4.915  0.3843 -1.1514  0.5036
 3311TIP3    H2 9898   0.044   2.383   4.859  1.3406 -0.1422  0.9580
 3312TIP3   OH2 9899   0.051   5.225   5.037  0.2975 -0.1216 -0.1809
 3312TIP3    H1 9900   0.127   5.178   5.003 -0.5671 -1.9268  0.2149
 3312TIP3    H2 9901   0.012   5.164   5.099 -2.7732 -0.2613 -2.0539
 3313TIP3   OH2 9902   4.846   5.514   5.639 -1.0858 -0.1302 -0.6508
 3313TIP3    H1 9903   4.922   5.505   5.697 -2.3655 -0.0417  1.1144
 3313TIP3    H2 9904   4.844   5.607   5.618 -0.6876 -0.1372 -0.7350
 3314TIP3   OH2 9905   6.660   2.488   4.481 -0.2990  0.4765 -0.3918
 3314TIP3    H1 9906   6.608   2.409   4.493 -0.5710  0.6629 -0.3515
 3314TIP3    H2 9907   6.746   2.465   4.516 -0.3555  0.1752 -0.4451
 3315TIP3   OH2 9908   0.771   1.064   5.666 -0.0986  0.0592 -0.0584
 3315TIP3    H1 9909   0.807   0.980   5.696  0.5090  0.5901  0.7444
 3315TIP3    H2 9910   0.801   1.127   5.731 -2.3810  0.5689  0.5927
 3316TIP3   OH2 9911   2.943   5.740   5.862 -0.1745 -0.0807 -0.0154
 3316TIP3    H1 9912   2.903   5.653   5.853  1.6149 -0.9389 -0.1353
 3316TIP3    H2 9913   2.896   5.794   5.799 -0.7328 -1.1834 -0.5837
 3317TIP3   OH2 9914   1.138   2.600   2.469  0.4781  0.4099 -0.5637
 3317TIP3    H1 9915   1.169   2.688   2.448 -0.7071  1.0294  0.1845
 3317TIP3    H2 9916   1.178   2.543   2.403  1.1566  1.5279 -1.1257
 3318TIP3   OH2 9917   6.342   3.524   4.873 -0.8125 -0.0502  0.1129
 3318TIP3    H1 9918   6.302   3.601   4.914  1.7247  1.0696  0.6735
 3318TIP3    H2 9919   6.356   3.463   4.945  2.2530  1.3098  0.8375
 3319TIP3   OH2 9920   5.047   5.290   2.663  0.1321  0.1188  0.0425
 3319TIP3    H1 9921   5.022   5.359   2.602  1.7564  1.5315  0.8929
 3319TIP3    H2 9922   4.970   5.278   2.719  0.2655  2.2805  0.7725
 3320TIP3   OH2 9923   4.464   4.561   2.382 -0.1521  0.4048  0.3638
 3320TIP3    H1 9924   4.448   4.573   2.476  0.4631  4.6608  0.1290
 3320TIP3    H2 9925   4.381   4.528   2.348 -1.8913  2.7170  1.9503
 3321TIP3   OH2 9926   5.294   4.646   2.940  0.0065  0.2958 -0.9712
 3321TIP3    H1 9927   5.267   4.599   2.862  0.8551 -0.5515 -0.7817
 3321TIP3    H2 9928   5.217   4.645   2.997  0.3811 -2.0982 -0.4156
 3322TIP3   OH2 9929   5.664   4.935   5.005 -0.2019 -0.2238 -0.3963
 3322TIP3    H1 9930   5.709   5.016   5.029 -2.3269  0.6701  0.9572
 3322TIP3    H2 9931   5.711   4.903   4.929  0.4499  2.5584 -1.3086
 3323TIP3   OH2 9932   4.734   1.553   1.786  0.0791  0.6135  0.2087
 3323TIP3    H1 9933   4.792   1.494   1.737 -1.7851 -1.0296 -0.1735
 3323TIP3    H2 9934   4.711   1.621   1.723  1.2192  1.0412  0.2356
 3324TIP3   OH2 9935   0.108   2.560   2.798 -0.4400  0.0032  0.1512
 3324TIP3    H1 9936   0.069   2.561   2.886  0.6101  2.4141  0.6762
 3324TIP3    H2 9937   0.033   2.551   2.739 -1.1114 -2.4561  1.2408
 3325TIP3   OH2 9938   7.120   0.739   2.792 -0.5462  0.0224  0.3110
 3325TIP3    H1 9939   7.195   0.782   2.751 -0.7334  0.5595  0.5084
 3325TIP3    H2 9940   7.158   0.677   2.854 -0.2583  0.6409  0.7658
 3326TIP3   OH2 9941   3.767   5.507   1.000  0.0090  0.4446 -0.3809
 3326TIP3    H1 9942   3.685   5.483   0.958 -0.7532  0.3845  1.0535
 3326TIP3    H2 9943   3.772   5.448   1.076  2.2426 -0.7407 -1.3686
 3327TIP3   OH2 9944   6.122   2.640   5.719 -0.1908  0.2863 -0.0208
 3327TIP3    H1 9945   6.215   2.620   5.704 -0.2984 -0.2798  0.0519
 3327TIP3    H2 9946   6.086   2.655   5.631  0.1220  1.2331 -0.0025
 3328TIP3   OH2 9947   3.311   1.097   5.229 -0.1713 -0.3075  0.0247
 3328TIP3    H1 9948   3.296   1.012   5.272  0.5630 -0.4881 -0.0607
 3328TIP3    H2 9949   3.328   1.074   5.138  1.9521 -0.2458  0.3711
 3329TIP3   OH2 9950   0.618   0.104   1.500  0.2969  0.2547  0.3077
 3329TIP3    H1 9951   0.529   0.088   1.533  0.8367  1.2841  2.4529
 3329TIP3    H2 9952   0.664   0.022   1.516  0.1932  0.3103  0.9219
 3330TIP3   OH2 9953   2.704   5.871   3.202  0.4571 -0.2314  0.1463
 3330TIP3    H1 9954   2.713   5.885   3.108  0.9882 -1.5349 -0.0114
 3330TIP3    H2 9955   2.792   5.850   3.232  0.0626 -1.2166  0.6785
 3331TIP3   OH2 9956   4.125   2.278   2.983  0.3069 -0.5149  0.0966
 3331TIP3    H1 9957   4.056   2.247   2.924  1.6601 -0.2938 -1.6840
 3331TIP3    H2 9958   4.192   2.210   2.978  0.5243 -0.4168  1.3108
 3332TIP3   OH2 9959   6.440   6.133   1.406 -0.0096  0.2941 -0.0652
 3332TIP3    H1 9960   6.445   6.132   1.501 -2.7305  1.2573  0.1776
 3332TIP3    H2 9961   6.479   6.216   1.380 -0.7743  0.8160  0.3969
 3333TIP3   OH2 9962   2.451   2.788   4.651  0.2616  0.0547  0.1423
 3333TIP3    H1 9963   2.411   2.806   4.566 -0.7223 -0.0701  0.5618
 3333TIP3    H2 9964   2.545   2.790   4.634  0.0819 -0.2516 -1.0046
 3334TIP3   OH2 9965   1.998   4.274   4.881 -0.3413 -0.7145  0.0901
 3334TIP3    H1 9966   2.029   4.346   4.826  1.0209 -0.3075  1.3487
 3334TIP3    H2 9967   2.037   4.196   4.842 -0.9742 -0.6794 -0.6516
 3335TIP3   OH2 9968   5.658   5.704   5.042 -0.1676  0.7246 -0.6489
 3335TIP3    H1 9969   5.670   5.673   4.952 -0.5377  0.4035 -0.5880
 3335TIP3    H2 9970   5.567   5.734   5.045 -0.1504  0.7507 -0.3848
 3336TIP3   OH2 9971   2.174   0.546   4.952 -0.1976 -0.6530  0.4822
 3336TIP3    H1 9972   2.115   0.515   5.021 -0.2567 -0.7763  0.3758
 3336TIP3    H2 9973   2.117   0.596   4.893 -0.2136 -0.8537  0.3276
 3337TIP3   OH2 9974   3.822   6.710   0.678  0.6486 -0.1438 -0.2955
 3337TIP3    H1 9975   3.792   6.619   0.687  0.4238 -0.3762 -2.7496
 3337TIP3    H2 9976   3.766   6.747   0.610  0.9299  1.7819  0.4707
 3338TIP3   OH2 9977   2.350   4.185   0.582 -0.4218  0.0498 -0.0747
 3338TIP3    H1 9978   2.302   4.261   0.552  1.4808  2.0463  1.6079
 3338TIP3    H2 9979   2.286   4.132   0.630 -1.3077  1.8011  0.7338
 3339TIP3   OH2 9980   3.928   5.870   3.351  0.1807  0.0652  0.7954
 3339TIP3    H1 9981   3.992   5.940   3.360  1.4748 -0.9931  0.0718
 3339TIP3    H2 9982   3.928   5.848   3.258  1.0022 -1.9480  1.1982
 3340TIP3   OH2 9983   6.515   6.341   5.717 -0.2284  0.4483  0.0683
 3340TIP3    H1 9984   6.556   6.335   5.631 -3.4720  2.0100 -1.7687
 3340TIP3    H2 9985   6.455   6.267   5.720  0.3515  0.0023  1.3520
 3341TIP3   OH2 9986   2.127   3.958   0.397  0.1960  0.2764 -0.3637
 3341TIP3    H1 9987   2.085   4.044   0.395  2.2383  1.3191 -0.7190
 3341TIP3    H2 9988   2.220   3.976   0.388  0.5764 -2.0908 -2.0363
 3342TIP3   OH2 9989   4.973   5.633   2.837  0.1469 -0.0234  0.4886
 3342TIP3    H1 9990   4.985   5.628   2.932 -0.1116  0.1073  0.5304
 3342TIP3    H2 9991   5.059   5.657   2.803  0.7648 -2.0527  0.5000
 3343TIP3   OH2 9992   6.238   3.971   3.532  0.2586  0.0980 -0.2785
 3343TIP3    H1 9993   6.183   4.014   3.598 -1.7572 -2.4557 -0.1116
 3343TIP3    H2 9994   6.227   4.024   3.453 -0.8929  0.7361  0.2782
 3344TIP3   OH2 9995   2.461   1.370   4.106  0.2378 -0.7923  0.1910
 3344TIP3    H1 9996   2.434   1.461   4.114 -0.4977 -0.8672 -1.2415
 3344TIP3    H2 9997   2.457   1.336   4.196  2.9485  1.1970  1.2017
 3345TIP3   OH2 9998   4.570   0.505   2.498  0.0272  0.4693 -0.1909
 3345TIP3    H1 9999   4.612   0.511   2.412  0.1196 -1.1397 -0.2990
 3345TIP3    H210000   4.485   0.465   2.480  0.4282 -0.7755  0.5404
 3346TIP3   OH210001   6.062  -0.004   2.267 -0.0460  0.0090  0.6648
 3346TIP3    H110002   6.157  -0.002   2.260 -0.0474  2.6213  0.1991
 3346TIP3    H210003   6.032   0.060   2.202 -2.1732 -1.3174  0.2543
 3347TIP3   OH210004   4.189   2.232   0.080  0.4096  0.0898  0.1638
 3347TIP3    H110005   4.170   2.170   0.151 -0.0879 -0.9511 -0.8517
 3347TIP3    H210006   4.157   2.316   0.113  1.6428 -0.0242  1.8100
 3348TIP3   OH210007   4.137   1.762   2.788 -0.3678 -0.0585 -0.1267
 3348TIP3    H110008   4.172   1.750   2.700  0.8727  1.8227  0.0530
 3348TIP3    H210009   4.203   1.722   2.846 -1.1052 -1.1566 -0.0229
 3349TIP3   OH210010   5.062   3.628   5.790 -0.2652  0.1137  0.3442
 3349TIP3    H110011   5.078   3.594   5.702 -0.5274  0.7283  0.0527
 3349TIP3    H210012   4.973   3.663   5.787 -0.2732  0.1529  0.8506
 3350TIP3   OH210013   2.720   5.154   2.250  0.2010  0.1621 -0.5056
 3350TIP3    H110014   2.658   5.080   2.249  0.2777  0.0764 -2.3954
 3350TIP3    H210015   2.697   5.204   2.172  0.5347  1.8445  0.4460
 3351TIP3   OH210016   6.525   1.863   3.884 -1.1165  0.5591  0.4029
 3351TIP3    H110017   6.618   1.854   3.903 -1.0701  0.0278 -0.0625
 3351TIP3    H210018   6.495   1.774   3.866 -1.5829  0.7940 -0.0250
 3352TIP3   OH210019   6.255   4.811   5.360  0.1371  0.2832 -0.1133
 3352TIP3    H110020   6.169   4.851   5.354 -0.3467 -0.5355  0.9724
 3352TIP3    H210021   6.243   4.737   5.420  1.3876 -0.3960 -0.6640
 3353TIP3   OH210022   4.787   2.160   1.785  0.1652  0.2985  0.3476
 3353TIP3    H110023   4.760   2.068   1.791 -1.7102  0.8684  1.3926
 3353TIP3    H210024   4.710   2.205   1.751  1.4133  1.3701 -1.1597
 3354TIP3   OH210025   5.984   3.924   3.297  0.2824  0.3807  0.1647
 3354TIP3    H110026   5.917   3.967   3.350 -0.1419 -0.1359  0.0578
 3354TIP3    H210027   6.019   3.854   3.354 -0.8874 -0.8424 -0.5551
 3355TIP3   OH210028   4.525   4.401   1.729 -0.0608  0.1052 -0.0504
 3355TIP3    H110029   4.613   4.386   1.693 -0.1206 -1.6583  0.4363
 3355TIP3    H210030   4.481   4.456   1.664  0.7393 -0.6908 -1.3040
 3356TIP3   OH210031   1.268   3.091   2.486 -0.2680 -0.0654 -0.1572
 3356TIP3    H110032   1.187   3.134   2.515 -0.6431 -0.2315 -0.9264
 3356TIP3    H210033   1.301   3.047   2.564  0.0316  1.4610  0.6151
 3357TIP3   OH210034   7.204   0.708   5.475  0.2013 -0.0574  0.2376
 3357TIP3    H110035   7.144   0.679   5.545 -0.7185  1.8927  0.3255
 3357TIP3    H210036   7.168   0.792   5.447  1.9472  0.3304 -0.9445
 3358TIP3   OH210037   1.337   6.196   3.717 -0.2656 -0.3537 -0.1405
 3358TIP3    H110038   1.281   6.139   3.771  0.1001 -0.6279 -0.0442
 3358TIP3    H210039   1.345   6.150   3.634  1.3872 -1.2786  0.4974
 3359TIP3   OH210040   2.594   3.077   1.907  0.2333  0.0477  0.0644
 3359TIP3    H110041   2.641   3.153   1.941  0.0863  0.0865  0.1812
 3359TIP3    H210042   2.643   3.001   1.941  0.3456  0.0881 -0.0045
 3360TIP3   OH210043   1.236   4.416   2.350 -0.0479  0.2128  0.2835
 3360TIP3    H110044   1.327   4.430   2.321 -0.3173  3.4710  0.6646
 3360TIP3    H210045   1.206   4.342   2.297  2.1627  0.3871 -1.3970
 3361TIP3   OH210046   2.179   3.424   3.118  0.1171 -0.8241  0.0466
 3361TIP3    H110047   2.178   3.517   3.094  0.5074 -0.6002  0.8768
 3361TIP3    H210048   2.192   3.423   3.212  0.1748 -1.7286  0.0392
 3362TIP3   OH210049   0.670   5.019   5.202  0.1485 -0.1461  0.3107
 3362TIP3    H110050   0.594   4.977   5.162  1.0647 -1.7591  0.1826
 3362TIP3    H210051   0.717   4.948   5.246  2.1662  0.5727 -0.5318
 3363TIP3   OH210052   4.058   2.425   3.841  0.0708  0.2229 -0.0322
 3363TIP3    H110053   4.030   2.368   3.913 -0.0696  1.0236  0.5552
 3363TIP3    H210054   4.013   2.389   3.764  0.4179 -0.7929  0.2201
 3364TIP3   OH210055   3.522   2.000   3.093  0.6904 -0.3181  0.2856
 3364TIP3    H110056   3.571   2.018   3.012  0.3263 -0.0813  0.1127
 3364TIP3    H210057   3.548   1.911   3.117  1.6513  0.0084  0.5209
 3365TIP3   OH210058   6.447   4.973   5.301 -0.0026 -0.1125  0.3352
 3365TIP3    H110059   6.380   4.907   5.317  0.1772  0.0406  1.8406
 3365TIP3    H210060   6.402   5.057   5.310  0.8770  0.1044  4.4612
 3366TIP3   OH210061   0.825   0.602   0.626  0.0028 -0.2142  0.1247
 3366TIP3    H110062   0.886   0.587   0.554 -0.4877 -0.4426 -0.2495
 3366TIP3    H210063   0.750   0.546   0.607  0.1322 -0.7654  1.1505
 3367TIP3   OH210064   6.938   1.313   4.389  0.0867  0.8891  0.6414
 3367TIP3    H110065   7.003   1.338   4.455  0.6914  0.1311  0.3367
 3367TIP3    H210066   6.976   1.340   4.306  0.4399 -0.3771  0.3704
 3368TIP3   OH210067   3.491   3.387   5.055 -0.0461  0.0244 -0.2468
 3368TIP3    H110068   3.455   3.376   5.144  0.9293  1.6062  0.3826
 3368TIP3    H210069   3.538   3.470   5.059  0.8967 -0.3989 -1.9744
 3369TIP3   OH210070   1.702   4.890   2.440 -0.2883  0.8267  0.1227
 3369TIP3    H110071   1.765   4.961   2.455  0.6190  0.0534  0.0487
 3369TIP3    H210072   1.713   4.867   2.348 -0.8534  0.8425  0.0500
 3370TIP3   OH210073   2.265   0.066   1.526 -0.0055  0.2858 -0.0357
 3370TIP3    H110074   2.319   0.005   1.575  1.5029  2.6025  1.3466
 3370TIP3    H210075   2.286   0.048   1.434  0.5716 -1.0685  0.3405
 3371TIP3   OH210076   3.577   5.808   2.781  0.2959  0.0564 -0.3501
 3371TIP3    H110077   3.518   5.824   2.708  1.0770 -1.4150 -1.3559
 3371TIP3    H210078   3.631   5.887   2.786 -0.0225  0.3273 -1.1152
 3372TIP3   OH210079   4.169   4.440   4.224  0.2656  0.2577  0.6077
 3372TIP3    H110080   4.206   4.421   4.138  1.4796  1.4584  0.8275
 3372TIP3    H210081   4.223   4.512   4.258 -1.0951  0.7841  1.7667
 3373TIP3   OH210082   2.529   2.675   2.960 -0.1597  0.1515 -0.3500
 3373TIP3    H110083   2.528   2.591   2.913  4.0602 -0.3680  0.1246
 3373TIP3    H210084   2.553   2.739   2.893 -0.9100  0.5997 -0.2036
 3374TIP3   OH210085   2.582   0.270   3.482 -0.7851 -0.4667 -0.2516
 3374TIP3    H110086   2.594   0.365   3.486  2.7894 -0.7537 -1.0927
 3374TIP3    H210087   2.588   0.242   3.573 -0.0199 -0.0079 -0.1472
 3375TIP3   OH210088   2.739   2.194   1.872 -0.3028 -0.4583 -0.3044
 3375TIP3    H110089   2.661   2.240   1.842 -0.2787  0.5207  1.0138
 3375TIP3    H210090   2.718   2.168   1.962  0.3959 -1.3994 -0.3915
 3376TIP3   OH210091   4.653   1.050   1.669 -0.6425 -0.3524 -0.4629
 3376TIP3    H110092   4.722   1.115   1.657 -0.9474 -0.0179 -0.4250
 3376TIP3    H210093   4.688   0.970   1.631  0.1571 -0.4382  0.4155
 3377TIP3   OH210094   6.261   6.234   4.079 -0.2722  0.6859  0.1639
 3377TIP3    H110095   6.195   6.301   4.061 -2.3962 -1.0054  1.1586
 3377TIP3    H210096   6.296   6.211   3.993 -0.4906  2.0849 -0.3216
 3378TIP3   OH210097   4.360   2.379   0.800 -0.8302  0.1293  0.0460
 3378TIP3    H110098   4.394   2.332   0.724  3.8335 -0.0031  1.9009
 3378TIP3    H210099   4.353   2.470   0.770 -0.8217 -0.2145 -1.0283
 3379TIP3   OH210100   5.954   4.914   3.316 -0.3247 -0.3760 -0.2299
 3379TIP3    H110101   5.994   4.893   3.401 -0.4084 -0.6097 -0.2495
 3379TIP3    H210102   5.860   4.908   3.332 -0.3307 -1.0383 -0.5024
 3380TIP3   OH210103   2.837   2.787   3.320 -0.0244 -0.3320  0.1731
 3380TIP3    H110104   2.838   2.691   3.313 -1.0158 -0.3095 -0.5320
 3380TIP3    H210105   2.806   2.804   3.409 -1.5233 -0.6896 -0.2495
 3381TIP3   OH210106   0.107   0.348   2.275 -0.2160 -0.1358 -0.1273
 3381TIP3    H110107   0.096   0.305   2.360 -0.6138 -0.6889 -0.4440
 3381TIP3    H210108   0.026   0.328   2.228 -0.0479  0.2598 -0.5969
 3382TIP3   OH210109   1.131   2.804   4.045 -0.1928 -0.1470 -0.2760
 3382TIP3    H110110   1.108   2.723   4.001  1.4022 -1.1667  0.6598
 3382TIP3    H210111   1.133   2.870   3.975 -0.5140 -1.1176 -1.2209
 3383TIP3   OH210112   1.632   1.960   3.257 -0.1281  0.1218 -0.4034
 3383TIP3    H110113   1.620   2.014   3.179 -0.7163  0.7568  0.1136
 3383TIP3    H210114   1.724   1.934   3.255 -0.2607 -0.3280 -1.5906
 3384TIP3   OH210115   1.725   2.049   1.998  0.0692  0.8038 -0.3773
 3384TIP3    H110116   1.705   2.052   1.904 -0.6018 -1.5679 -0.3823
 3384TIP3    H210117   1.640   2.039   2.040  0.5591 -2.4847  0.0975
 3385TIP3   OH210118   1.771   3.489   4.913 -0.4425  0.5615 -0.1546
 3385TIP3    H110119   1.773   3.551   4.987  0.8112  0.0744  0.2377
 3385TIP3    H210120   1.730   3.410   4.950 -0.8010  0.6829 -0.2859
 3386TIP3   OH210121   3.187   5.710   3.932 -0.1163 -0.2448 -0.0589
 3386TIP3    H110122   3.188   5.806   3.937 -1.6171 -0.1933 -0.2137
 3386TIP3    H210123   3.204   5.682   4.022  0.9325  0.1448 -0.1216
 3387TIP3   OH210124   4.960   2.930   2.813 -0.5050  0.0015 -0.2346
 3387TIP3    H110125   4.923   2.843   2.826  1.3358 -1.3029 -2.6953
 3387TIP3    H210126   4.888   2.982   2.777 -1.6421 -0.4271  1.3116
 3388TIP3   OH210127   6.424   4.306   5.829 -0.4095  0.2700  0.1378
 3388TIP3    H110128   6.387   4.360   5.899  1.7497 -0.0261  1.5929
 3388TIP3    H210129   6.348   4.263   5.789 -1.9047  2.1785  0.8024
 3389TIP3   OH210130   0.459   1.965   2.309  0.6738 -0.1729 -0.1526
 3389TIP3    H110131   0.552   1.948   2.324  0.6955  1.3934  1.9346
 3389TIP3    H210132   0.455   2.055   2.277 -0.1027 -0.4483 -0.8791
 3390TIP3   OH210133   0.169   3.399   4.353  0.7854 -0.1788 -0.2099
 3390TIP3    H110134   0.095   3.344   4.380  0.8308 -0.2056 -0.1389
 3390TIP3    H210135   0.137   3.489   4.360  0.9097 -0.1709  0.2805
 3391TIP3   OH210136   3.308   3.200   4.190 -0.3248 -0.0522 -0.3425
 3391TIP3    H110137   3.226   3.158   4.216 -0.0370 -0.7461 -0.5115
 3391TIP3    H210138   3.376   3.142   4.224  0.1330  1.1615  0.8908
 3392TIP3   OH210139   6.296   1.602   4.657 -0.0126  0.7480  0.2526
 3392TIP3    H110140   6.292   1.568   4.747  0.3536  0.3866  0.1333
 3392TIP3    H210141   6.386   1.633   4.647 -0.1895  1.2488  0.1735
 3393TIP3   OH210142   6.251   3.837   0.127  0.4551 -0.8939 -0.1227
 3393TIP3    H110143   6.176   3.828   0.186  1.2298  1.1762  1.2925
 3393TIP3    H210144   6.282   3.927   0.142  2.2075 -1.1533 -1.8859
 3394TIP3   OH210145   5.712   5.743   0.154  0.0804  0.7385 -0.6809
 3394TIP3    H110146   5.636   5.692   0.128 -0.3848  1.0292  0.0744
 3394TIP3    H210147   5.738   5.790   0.075 -0.0432  0.0473 -1.1398
 3395TIP3   OH210148   0.406   0.310   2.559 -0.2407  0.1111 -0.4141
 3395TIP3    H110149   0.474   0.300   2.626 -1.1797  0.6550  0.6759
 3395TIP3    H210150   0.414   0.400   2.530 -1.3104  0.6029  0.7032
 3396TIP3   OH210151   3.335   5.627   3.369 -0.4744  0.2248 -0.1719
 3396TIP3    H110152   3.422   5.635   3.406 -0.6363 -0.9474  0.4939
 3396TIP3    H210153   3.276   5.645   3.442 -0.8222  1.6567 -0.7606
 3397TIP3   OH210154   6.476   1.309   2.988 -0.1964 -0.1925 -0.0119
 3397TIP3    H110155   6.463   1.231   2.935  1.6304  0.1252 -1.0175
 3397TIP3    H210156   6.403   1.366   2.965 -1.0942 -1.2470  0.1204
 3398TIP3   OH210157   2.342   4.491   3.635  0.4326  0.2008  0.1017
 3398TIP3    H110158   2.380   4.538   3.709 -0.1843 -0.3441  0.7860
 3398TIP3    H210159   2.309   4.409   3.673 -1.3796  0.6227 -0.4385
 3399TIP3   OH210160   0.793   4.166   3.536  0.1739 -0.0907 -0.0638
 3399TIP3    H110161   0.867   4.110   3.513  1.8968  1.6155  1.0100
 3399TIP3    H210162   0.773   4.144   3.627 -0.9245 -0.8157 -0.4663
 3400TIP3   OH210163   3.677   3.712   5.589  0.2961 -0.2121  0.2446
 3400TIP3    H110164   3.696   3.655   5.663 -4.3382 -2.3124  0.1640
 3400TIP3    H210165   3.662   3.798   5.628  0.2418 -0.7352  1.4057
 3401TIP3   OH210166   2.903   1.482   1.962 -0.2776  0.5474  0.1837
 3401TIP3    H110167   2.872   1.408   1.910  2.9286 -0.2048 -0.8663
 3401TIP3    H210168   2.858   1.558   1.923 -2.8848 -0.6546  0.6630
 3402TIP3   OH210169   2.019   6.045   1.273 -0.7028  0.0544  0.1162
 3402TIP3    H110170   2.028   5.958   1.312  1.5488  0.0123 -0.3520
 3402TIP3    H210171   2.022   6.030   1.178  0.9393  0.6944  0.0308
 3403TIP3   OH210172   0.510   5.883   1.074  0.4162  0.1626 -0.3324
 3403TIP3    H110173   0.473   5.969   1.094 -1.6765 -0.8941  0.6720
 3403TIP3    H210174   0.439   5.821   1.090  1.9497 -1.8226 -0.6499
 3404TIP3   OH210175   3.932   2.840   2.231  0.0849 -0.3178  0.3135
 3404TIP3    H110176   3.913   2.840   2.137 -0.7853 -1.4114  0.4602
 3404TIP3    H210177   3.882   2.914   2.266  0.2833 -0.0077 -0.0549
 3405TIP3   OH210178   2.939   4.704   0.311  0.2030 -0.5777  0.7384
 3405TIP3    H110179   3.025   4.747   0.314  0.4629 -1.1536  2.2230
 3405TIP3    H210180   2.959   4.611   0.313 -0.4583 -0.7155  1.8814
 3406TIP3   OH210181   3.475   3.250   1.199  0.0450 -0.0582 -0.2178
 3406TIP3    H110182   3.570   3.235   1.201 -0.0475 -0.6075  0.1920
 3406TIP3    H210183   3.437   3.162   1.205 -0.4863  0.0964 -1.1391
 3407TIP3   OH210184   5.857   5.847   1.382  0.0640  0.5489 -0.4027
 3407TIP3    H110185   5.769   5.816   1.360  0.6773 -0.9926 -0.8607
 3407TIP3    H210186   5.891   5.781   1.442  0.4360  1.8333  0.8499
 3408TIP3   OH210187   6.276   5.827   4.856 -0.1180 -0.1640  0.2450
 3408TIP3    H110188   6.303   5.735   4.866  2.0276  0.0897 -2.2274
 3408TIP3    H210189   6.205   5.823   4.792 -0.3547 -0.1517  0.5094
 3409TIP3   OH210190   3.555   0.896   1.836  0.0240  0.2285 -0.2589
 3409TIP3    H110191   3.647   0.915   1.822  0.0064  1.5216  1.1887
 3409TIP3    H210192   3.554   0.814   1.885  0.5142  1.0778  1.2338
 3410TIP3   OH210193   4.300   5.045   1.040  0.0883 -0.4194  0.2575
 3410TIP3    H110194   4.222   4.999   1.009 -0.3107  0.2780  0.1926
 3410TIP3    H210195   4.365   5.031   0.971 -0.3933  0.0569 -0.3150
 3411TIP3   OH210196   6.806   2.221   1.002 -0.0262  0.2480 -0.2273
 3411TIP3    H110197   6.758   2.145   1.035 -2.3564  2.0645  0.8572
 3411TIP3    H210198   6.791   2.221   0.908 -0.5545 -0.2708 -0.1432
 3412TIP3   OH210199   1.156   2.215   0.145 -0.4803  0.3106  0.8740
 3412TIP3    H110200   1.102   2.168   0.082 -0.7334  0.0741  1.2604
 3412TIP3    H210201   1.095   2.276   0.187 -0.2472  0.6812  0.6745
 3413TIP3   OH210202   3.458   2.566   3.775  0.5494  0.2484 -0.5289
 3413TIP3    H110203   3.526   2.633   3.766 -0.6529  1.3804 -1.6046
 3413TIP3    H210204   3.376   2.615   3.772 -0.3911 -1.3167 -1.8522
 3414TIP3   OH210205   3.406   0.716   4.786  0.5403  0.1759  0.0050
 3414TIP3    H110206   3.332   0.676   4.833  0.2720  0.4810 -0.1533
 3414TIP3    H210207   3.367   0.789   4.739  0.9698  0.4149  0.0179
 3415TIP3   OH210208   1.334   3.343   2.343 -0.0553  0.2397  0.0899
 3415TIP3    H110209   1.380   3.395   2.409  1.2552  0.9961 -1.3677
 3415TIP3    H210210   1.268   3.402   2.307 -2.0795 -0.7205  1.8931
 3416TIP3   OH210211   4.646   6.256   4.596 -0.2669  0.2003 -0.1743
 3416TIP3    H110212   4.684   6.179   4.638  0.4219  1.5371  1.8553
 3416TIP3    H210213   4.559   6.264   4.635 -0.6391  0.0261 -0.9561
 3417TIP3   OH210214   1.508   3.896   5.449  0.1221 -0.1502  0.0350
 3417TIP3    H110215   1.598   3.903   5.481  0.3399 -1.1412 -0.3336
 3417TIP3    H210216   1.510   3.940   5.364 -0.5388  2.8020  1.4228
 3418TIP3   OH210217   3.353   1.766   5.749  0.3511 -0.2337  0.0025
 3418TIP3    H110218   3.423   1.822   5.716  0.8908 -1.7509 -1.5589
 3418TIP3    H210219   3.383   1.677   5.732 -1.5557 -0.9521  0.1430
 3419TIP3   OH210220   7.075   5.958   5.513 -0.5004  0.1390 -0.0630
 3419TIP3    H110221   7.061   6.044   5.553 -0.9114  0.4634 -0.8659
 3419TIP3    H210222   7.143   5.974   5.447 -0.6544 -0.1247 -0.2877
 3420TIP3   OH210223   6.286   4.562   0.085  0.2679  0.2781 -0.4668
 3420TIP3    H110224   6.216   4.570   0.150 -0.4046 -0.0955 -1.1358
 3420TIP3    H210225   6.296   4.651   0.050  2.7773  1.2511  2.2677
 3421TIP3   OH210226   3.965   5.484   2.294 -0.5855  0.2554 -0.2916
 3421TIP3    H110227   3.878   5.472   2.257  0.0513  1.9047 -2.5843
 3421TIP3    H210228   4.013   5.405   2.268 -0.5839  0.7071 -1.7332
 3422TIP3   OH210229   3.561   3.143   1.485  0.1197 -0.0403  0.5102
 3422TIP3    H110230   3.469   3.169   1.488  0.2652  0.5166  0.2684
 3422TIP3    H210231   3.562   3.064   1.431 -0.2138 -0.0433  0.5077
 3423TIP3   OH210232   3.073   2.392   3.616 -0.2739  0.3604  0.5497
 3423TIP3    H110233   3.156   2.368   3.657 -0.9078 -2.2955  0.4375
 3423TIP3    H210234   3.007   2.374   3.683 -0.9066  0.9352  0.1001
 3424TIP3   OH210235   4.460   5.002   0.478 -0.0520 -0.5320 -0.6012
 3424TIP3    H110236   4.545   5.044   0.464 -0.1581 -0.2900 -0.5156
 3424TIP3    H210237   4.456   4.987   0.572 -0.5502  0.4184 -0.4540
 3425TIP3   OH210238   1.383   3.797   2.429 -0.1479  0.5791 -0.1614
 3425TIP3    H110239   1.372   3.881   2.385 -0.1500  0.8990  0.4360
 3425TIP3    H210240   1.477   3.788   2.441 -0.0415 -0.1424 -1.4294
 3426TIP3   OH210241   4.677   4.687   3.655 -0.7906  0.2760 -0.1169
 3426TIP3    H110242   4.593   4.647   3.632 -0.8311 -0.8561  1.7579
 3426TIP3    H210243   4.742   4.620   3.633 -0.5175  0.5570 -0.1701
 3427TIP3   OH210244   0.591   0.473   0.577 -0.5095 -0.3333 -0.2707
 3427TIP3    H110245   0.521   0.438   0.632  0.2006  1.6718  2.0823
 3427TIP3    H210246   0.610   0.402   0.515 -2.4352 -2.1340  1.0539
 3428TIP3   OH210247   2.362   4.361   3.364 -0.1939 -0.3025 -0.4885
 3428TIP3    H110248   2.339   4.410   3.443 -1.2530 -0.6040 -0.5939
 3428TIP3    H210249   2.449   4.324   3.383 -0.1683  0.1317  0.2849
 3429TIP3   OH210250   6.657   0.298   0.570 -0.1659 -0.0597 -0.0519
 3429TIP3    H110251   6.568   0.323   0.543 -0.7414  0.3791  2.0416
 3429TIP3    H210252   6.649   0.206   0.595 -0.0784  0.0418  0.3481
 3430TIP3   OH210253   7.010   3.583   2.585  0.2774  0.1229  0.1786
 3430TIP3    H110254   6.977   3.650   2.525 -2.2203  0.5782  1.8992
 3430TIP3    H210255   6.934   3.528   2.605  1.7588 -1.9450  0.5109
 3431TIP3   OH210256   0.369   3.872   0.530 -0.0138 -0.2885 -0.3943
 3431TIP3    H110257   0.360   3.832   0.617 -0.0470 -0.8028 -0.6299
 3431TIP3    H210258   0.463   3.888   0.521 -0.2198  1.8658  0.6474
 3432TIP3   OH210259   5.746   2.830   4.398  0.2902  0.2329 -0.6290
 3432TIP3    H110260   5.658   2.800   4.378  0.3496 -1.1646  0.9682
 3432TIP3    H210261   5.734   2.920   4.430 -0.6384 -0.1108  0.0410
 3433TIP3   OH210262   5.584   1.331   4.592 -0.1455 -0.3020  0.2836
 3433TIP3    H110263   5.629   1.354   4.511 -2.4309 -0.4690 -1.1335
 3433TIP3    H210264   5.646   1.352   4.662  0.5349  3.4927 -1.2499
 3434TIP3   OH210265   6.329   0.764   3.394  0.2612 -0.5178 -0.3932
 3434TIP3    H110266   6.414   0.720   3.405  0.7664  0.3905 -0.5846
 3434TIP3    H210267   6.342   0.824   3.321 -0.4522 -0.1152 -0.2007
 3435TIP3   OH210268   5.160   6.101   1.196 -0.3582  0.1168  0.2229
 3435TIP3    H110269   5.119   6.049   1.127  0.7666 -0.6132  0.0813
 3435TIP3    H210270   5.250   6.114   1.166  0.5094 -1.2002  2.0462
 3436TIP3   OH210271   1.445   5.259   2.308  0.5368  0.2362 -0.1262
 3436TIP3    H110272   1.468   5.193   2.243  3.0565 -0.5451  1.4259
 3436TIP3    H210273   1.356   5.237   2.335  1.0670 -2.1659 -0.1375
 3437TIP3   OH210274   6.580   2.468   0.810  0.0511  0.3480  0.7451
 3437TIP3    H110275   6.558   2.473   0.903  1.1386  0.5438  1.0084
 3437TIP3    H210276   6.672   2.493   0.806 -0.2754  1.5108 -0.5267
 3438TIP3   OH210277   5.662   2.266   0.201  0.1324 -0.3657 -0.1116
 3438TIP3    H110278   5.591   2.234   0.145  0.8139 -0.3229 -1.0266
 3438TIP3    H210279   5.676   2.196   0.265 -0.4743 -0.5360 -0.1567
 3439TIP3   OH210280   3.128   2.663   1.407  0.4138  0.7627 -0.3322
 3439TIP3    H110281   3.200   2.612   1.371  0.9488  0.9286  0.4669
 3439TIP3    H210282   3.170   2.737   1.451 -0.2503  0.9581  0.0035
 3440TIP3   OH210283   2.353   2.460   1.514 -0.1642 -0.0426 -0.1630
 3440TIP3    H110284   2.391   2.487   1.598  0.1827 -2.3227  0.4705
 3440TIP3    H210285   2.428   2.455   1.455 -0.3053  0.8056 -0.4365
 3441TIP3   OH210286   6.282   2.361   5.023 -0.5949 -0.2886  0.2601
 3441TIP3    H110287   6.333   2.373   4.943 -0.1442 -0.3449  0.5360
 3441TIP3    H210288   6.329   2.293   5.072 -0.4862  0.2058  0.8697
 3442TIP3   OH210289   4.354   1.244   1.072 -0.0089 -0.2208 -0.2872
 3442TIP3    H110290   4.305   1.233   0.990  0.2829 -0.1340 -0.4772
 3442TIP3    H210291   4.407   1.164   1.080 -0.2953 -0.3821 -0.0044
 3443TIP3   OH210292   5.690   0.936   5.748  0.4093 -0.2285 -0.7320
 3443TIP3    H110293   5.717   0.917   5.658  0.3917 -1.6385 -0.4597
 3443TIP3    H210294   5.608   0.985   5.738 -0.1056 -1.2100 -1.4905
 3444TIP3   OH210295   1.889   2.793   0.490  0.0019  0.0210 -0.0971
 3444TIP3    H110296   1.892   2.857   0.561 -0.3755  1.4675 -1.3483
 3444TIP3    H210297   1.926   2.838   0.414 -1.4460 -0.7761 -1.3441
 3445TIP3   OH210298   4.342   2.333   2.599 -0.6728 -0.0035 -0.3596
 3445TIP3    H110299   4.270   2.366   2.545 -1.4415 -0.4641  0.3616
 3445TIP3    H210300   4.302   2.266   2.654  0.2284  0.0084  0.3316
 3446TIP3   OH210301   4.119   3.942   0.005 -0.3761 -0.7791 -0.2507
 3446TIP3    H110302   4.052   3.878   0.031 -0.0828  0.2028  3.4216
 3446TIP3    H210303   4.098   4.021   0.053  2.7148 -0.0379  0.1281
 3447TIP3   OH210304   7.141   2.229   4.620 -0.0937  0.2895 -0.1135
 3447TIP3    H110305   7.063   2.235   4.675  0.4720  4.0063  0.5546
 3447TIP3    H210306   7.213   2.210   4.681  0.2560  2.5553  0.2739
 3448TIP3   OH210307   2.202   6.768   5.331 -0.1258  0.2319  0.0580
 3448TIP3    H110308   2.295   6.769   5.353  0.4053 -2.4288 -1.6336
 3448TIP3    H210309   2.170   6.685   5.368 -1.9219  1.2333  0.8451
 3449TIP3   OH210310   5.696   0.904   4.378  0.1572  0.1781  0.2799
 3449TIP3    H110311   5.629   0.971   4.385 -0.6042 -0.7061  1.8396
 3449TIP3    H210312   5.648   0.821   4.377  1.1726 -0.4352  0.4635
 3450TIP3   OH210313   3.211   5.384   0.919 -0.3172 -0.0725 -0.1704
 3450TIP3    H110314   3.226   5.343   1.004 -1.0011 -1.9878 -0.9124
 3450TIP3    H210315   3.153   5.323   0.873  0.9690  0.2825 -2.4329
 3451TIP3   OH210316   7.018   5.707   4.230  0.6307  0.8741 -0.4553
 3451TIP3    H110317   6.933   5.711   4.274 -0.2728  0.0593 -2.0439
 3451TIP3    H210318   7.041   5.614   4.229  1.2704  1.0234 -0.5652
 3452TIP3   OH210319   0.728   0.445   4.174  0.1456 -0.1863  0.3667
 3452TIP3    H110320   0.823   0.449   4.172  0.3192 -2.3025  1.3968
 3452TIP3    H210321   0.700   0.537   4.175  2.1565  0.4770  0.1689
 3453TIP3   OH210322   4.493   5.929   1.005 -0.0253 -0.0056  0.4202
 3453TIP3    H110323   4.510   6.013   1.047  3.0961 -1.3052  2.0388
 3453TIP3    H210324   4.457   5.874   1.075  1.6157 -1.0768  0.4768
 3454TIP3   OH210325   1.893   1.405   2.298  0.3261 -0.1109 -0.1472
 3454TIP3    H110326   1.876   1.317   2.332  0.8574 -0.4898 -0.8463
 3454TIP3    H210327   1.959   1.393   2.231  1.3382  0.9809  0.6030
 3455TIP3   OH210328   7.019   2.595   2.287  0.6346  0.2063  0.0117
 3455TIP3    H110329   6.938   2.605   2.237 -0.3949  0.8978  1.6917
 3455TIP3    H210330   7.087   2.584   2.222 -0.8786 -0.8796 -1.4534
 3456TIP3   OH210331   4.603   4.392   5.208  0.2909 -0.3820  0.4332
 3456TIP3    H110332   4.688   4.435   5.200 -0.6998  1.5670 -0.3606
 3456TIP3    H210333   4.556   4.443   5.275 -0.9713 -0.0710 -0.6319
 3457TIP3   OH210334   4.395   3.591   5.357 -0.0193  0.1268 -0.7676
 3457TIP3    H110335   4.447   3.667   5.329  0.7141  0.3620  1.0919
 3457TIP3    H210336   4.428   3.518   5.304  2.4899  0.1944  0.5669
 3458TIP3   OH210337   5.593   4.986   2.209 -0.1620  1.2150 -0.4331
 3458TIP3    H110338   5.570   5.076   2.232  0.8445  1.1386  1.0302
 3458TIP3    H210339   5.509   4.940   2.209 -0.3882  1.4108  2.5044
 3459TIP3   OH210340   6.525   3.217   1.648  0.3693 -0.0608 -0.2840
 3459TIP3    H110341   6.499   3.137   1.694 -0.9016  2.7897  4.7322
 3459TIP3    H210342   6.443   3.256   1.620  0.7321  0.7655 -0.2090
 3460TIP3   OH210343   7.157   3.243   4.728 -0.0988 -0.3701  0.3779
 3460TIP3    H110344   7.172   3.265   4.636 -0.0402  3.4517  1.1537
 3460TIP3    H210345   7.065   3.219   4.733 -0.9681  2.5048 -0.2812
 3461TIP3   OH210346   1.704   4.690   1.011 -0.3154  0.3204 -0.2520
 3461TIP3    H110347   1.775   4.724   0.957 -0.3765 -0.0236 -0.5452
 3461TIP3    H210348   1.629   4.744   0.988  0.2118  1.7857  1.2329
 3462TIP3   OH210349   4.658   5.379   4.024  0.3505 -0.4278  0.7345
 3462TIP3    H110350   4.582   5.398   4.079  0.0449 -0.9201  0.4953
 3462TIP3    H210351   4.649   5.286   4.002 -0.0655 -0.0287 -0.9277
 3463TIP3   OH210352   6.161   0.332   5.594 -0.0196 -0.1705  0.0829
 3463TIP3    H110353   6.223   0.405   5.594 -0.8050  0.5346 -1.2087
 3463TIP3    H210354   6.128   0.329   5.505 -0.1402 -2.0251  0.1488
 3464TIP3   OH210355   0.322   6.449   2.691  0.5938  0.1072  0.0164
 3464TIP3    H110356   0.413   6.460   2.718  1.0315  0.3360 -1.4290
 3464TIP3    H210357   0.307   6.519   2.627 -0.6849  0.2356  0.4162
 3465TIP3   OH210358   5.095   1.481   5.129  0.0334  0.1042  0.1351
 3465TIP3    H110359   5.103   1.559   5.183 -2.2060  0.0306  0.6981
 3465TIP3    H210360   5.053   1.511   5.048  0.0234 -0.3499 -0.0336
 3466TIP3   OH210361   0.426   1.841   0.663  0.4371  0.3200  0.0154
 3466TIP3    H110362   0.478   1.921   0.650 -1.2333  1.6249  0.8430
 3466TIP3    H210363   0.378   1.830   0.580  2.1032 -0.9826 -0.8108
 3467TIP3   OH210364   6.286   2.692   5.224 -0.5881  0.7576 -0.2279
 3467TIP3    H110365   6.229   2.626   5.184  0.1038 -0.5125  0.7905
 3467TIP3    H210366   6.281   2.767   5.165 -2.5513  0.3483 -0.6773
 3468TIP3   OH210367   3.139   0.089   1.713  0.2577 -0.5986 -0.7464
 3468TIP3    H110368   3.049   0.098   1.680 -0.2938  2.0974  1.1430
 3468TIP3    H210369   3.193   0.134   1.648 -0.2748  0.9336 -0.1751
 3469TIP3   OH210370   5.718   1.534   1.166 -0.4283 -0.1425  0.1950
 3469TIP3    H110371   5.762   1.587   1.232  0.8856  0.9364 -1.4651
 3469TIP3    H210372   5.786   1.476   1.132 -0.2008  1.4098 -2.2852
 3470TIP3   OH210373   3.078   0.885   4.555 -0.1374  0.1598 -0.0022
 3470TIP3    H110374   2.990   0.868   4.521 -0.8290  0.4848  1.5539
 3470TIP3    H210375   3.136   0.866   4.481 -1.5581  0.7241 -1.3278
 3471TIP3   OH210376   1.025   0.018   2.274 -0.6289 -0.0561 -0.3498
 3471TIP3    H110377   1.046  -0.035   2.198  2.5457  0.3763  0.1043
 3471TIP3    H210378   1.005   0.105   2.239 -1.7722 -0.4845 -0.8084
 3472TIP3   OH210379   1.477   0.646   1.591  0.6415 -0.0748 -0.6355
 3472TIP3    H110380   1.533   0.568   1.590  0.0171 -0.5436 -0.2618
 3472TIP3    H210381   1.466   0.667   1.684  1.1300  0.7121 -0.7448
 3473TIP3   OH210382   3.249   3.343   1.518 -0.0451  0.1649  0.3307
 3473TIP3    H110383   3.268   3.436   1.527  0.3213  0.1742 -0.4392
 3473TIP3    H210384   3.207   3.335   1.431 -0.8093 -0.2763  0.7248
 3474TIP3   OH210385   3.077   4.162   1.864  0.1600 -0.3845 -0.3470
 3474TIP3    H110386   3.037   4.081   1.895 -0.7502  0.1814 -0.0054
 3474TIP3    H210387   3.145   4.134   1.802 -0.6881 -1.3623 -0.8501
 3475TIP3   OH210388   5.684   3.078   3.002  1.0305 -0.1957  0.1605
 3475TIP3    H110389   5.614   3.120   2.952  1.1302  0.0006  0.1853
 3475TIP3    H210390   5.653   3.081   3.093  1.3401  0.4378  0.2492
 3476TIP3   OH210391   3.069   5.824   1.022 -0.4326 -0.1670 -0.1535
 3476TIP3    H110392   3.158   5.849   1.045 -0.0336 -1.9026  0.3342
 3476TIP3    H210393   3.055   5.860   0.934 -0.0228  1.8832  0.5720
 3477TIP3   OH210394   5.237   1.478   1.362  0.0136  0.6164 -0.2272
 3477TIP3    H110395   5.256   1.557   1.414  0.3883 -0.1658  0.8715
 3477TIP3    H210396   5.220   1.410   1.428  0.4806 -0.4033 -1.1387
 3478TIP3   OH210397   3.690   4.760   0.950 -0.1811  0.2628 -0.5066
 3478TIP3    H110398   3.737   4.722   0.876 -2.9948 -1.6910 -1.4671
 3478TIP3    H210399   3.612   4.799   0.912 -0.8379  0.7806  1.2565
 3479TIP3   OH210400   5.413   5.198   1.388 -0.3279 -0.2489  0.3584
 3479TIP3    H110401   5.406   5.284   1.348  0.3529  0.2586  1.3096
 3479TIP3    H210402   5.423   5.138   1.314  0.0881  0.5797 -0.2678
 3480TIP3   OH210403   3.238   5.472   3.116  0.2552  0.2337  0.6601
 3480TIP3    H110404   3.240   5.568   3.116  0.8159  0.2647 -1.2283
 3480TIP3    H210405   3.147   5.450   3.099  0.5509  0.5107 -1.4969
 3481TIP3   OH210406   1.867   2.470   1.189 -0.3021  0.0564 -0.5817
 3481TIP3    H110407   1.804   2.464   1.260 -1.0922  0.8121 -1.1879
 3481TIP3    H210408   1.931   2.402   1.207 -0.0475  0.7291  1.2736
 3482TIP3   OH210409   6.604   5.097   2.630 -0.5039 -0.1645 -0.0816
 3482TIP3    H110410   6.567   5.015   2.596 -1.1141  0.1023 -0.0840
 3482TIP3    H210411   6.614   5.081   2.724 -0.4786 -0.2959 -0.1067
 3483TIP3   OH210412   4.442   3.710   3.366 -0.2345 -0.0971  0.0677
 3483TIP3    H110413   4.469   3.623   3.396 -0.7110 -0.8857 -1.6424
 3483TIP3    H210414   4.360   3.727   3.412  2.1673  1.7169  4.2437
 3484TIP3   OH210415   1.511   5.638   0.874 -0.0505  0.1059  0.0023
 3484TIP3    H110416   1.594   5.660   0.832 -0.0070  0.0522  0.0589
 3484TIP3    H210417   1.484   5.556   0.833 -0.1112  0.1605 -0.0664
 3485TIP3   OH210418   4.019   3.979   3.315  0.3957 -0.1245  0.4980
 3485TIP3    H110419   3.957   3.908   3.333  0.2010 -0.5178 -1.4488
 3485TIP3    H210420   3.975   4.057   3.347 -0.1638 -0.6729  1.1044
 3486TIP3   OH210421   2.580   5.825   0.792  0.3876 -0.5723  0.2820
 3486TIP3    H110422   2.647   5.893   0.800  1.2617 -1.4007  0.2089
 3486TIP3    H210423   2.622   5.746   0.827  0.7439 -1.9688 -2.9347
 3487TIP3   OH210424   5.044   4.687   4.748 -0.1808 -0.1423 -0.2040
 3487TIP3    H110425   5.124   4.637   4.760 -0.5880 -1.0490 -1.1103
 3487TIP3    H210426   5.062   4.772   4.789  1.7410  0.1961 -1.6229
 3488TIP3   OH210427   0.861   1.186   4.883 -0.1128  0.2285 -0.1877
 3488TIP3    H110428   0.873   1.122   4.952 -0.2713 -1.3376 -1.5418
 3488TIP3    H210429   0.930   1.251   4.897  0.0469 -0.2215  1.2191
 3489TIP3   OH210430   0.417   0.434   3.452 -0.1365  0.1547 -0.2015
 3489TIP3    H110431   0.423   0.343   3.480  0.4040  0.2287 -0.0718
 3489TIP3    H210432   0.401   0.483   3.533 -1.7655  0.0516 -0.4272
 3490TIP3   OH210433   4.645   1.322   2.689 -0.4828  0.4144  0.0407
 3490TIP3    H110434   4.614   1.262   2.620 -3.6718  2.0464 -0.1599
 3490TIP3    H210435   4.571   1.328   2.750  1.4395  0.7300  2.4855
 3491TIP3   OH210436   1.926   4.813   3.802 -0.3562 -0.5616 -0.7518
 3491TIP3    H110437   1.912   4.778   3.890 -0.9178 -1.9805 -1.3790
 3491TIP3    H210438   1.838   4.835   3.770 -0.1492  0.0240 -0.9335
 3492TIP3   OH210439   5.732   3.302   3.382  0.1956  0.1967 -0.0694
 3492TIP3    H110440   5.688   3.217   3.377  0.9597 -0.1459 -2.6867
 3492TIP3    H210441   5.788   3.304   3.304  1.6834  2.3130  0.9653
 3493TIP3   OH210442   4.877   2.841   5.126 -0.3171  0.0398 -0.6985
 3493TIP3    H110443   4.920   2.786   5.191 -1.0326  0.2935  0.0110
 3493TIP3    H210444   4.859   2.782   5.053 -0.4687 -0.5125 -0.2256
 3494TIP3   OH210445   4.251   6.251   3.549 -0.3670 -0.8960 -0.2410
 3494TIP3    H110446   4.245   6.329   3.604 -0.3143 -0.3783 -0.9703
 3494TIP3    H210447   4.255   6.178   3.612 -2.0262 -0.4516  0.4484
 3495TIP3   OH210448   3.384   5.968   3.559 -0.0355  0.0684 -0.0272
 3495TIP3    H110449   3.468   5.968   3.513  0.3135 -0.4098  0.5976
 3495TIP3    H210450   3.385   5.887   3.611 -1.2643 -0.4123 -0.7001
 3496TIP3   OH210451   3.897   2.265   3.660  0.0325  0.1380  0.3143
 3496TIP3    H110452   3.935   2.249   3.573  0.2778 -0.8142  0.5784
 3496TIP3    H210453   3.813   2.306   3.642 -0.6063 -1.4171 -0.4519
 3497TIP3   OH210454   5.876   0.183   4.799  0.1723  0.8667 -0.4320
 3497TIP3    H110455   5.930   0.104   4.786  1.0937  1.3441  0.3621
 3497TIP3    H210456   5.940   0.251   4.821 -0.9062  0.8213  3.5930
 3498TIP3   OH210457   0.448   4.342   4.957  0.7883  0.0134  0.7879
 3498TIP3    H110458   0.457   4.257   4.999  1.5242 -0.7476 -0.8032
 3498TIP3    H210459   0.423   4.321   4.867  3.4084  1.3085 -0.3391
 3499TIP3   OH210460   3.512   5.510   2.165  0.4389 -0.3147 -0.0922
 3499TIP3    H110461   3.606   5.502   2.185  0.1870 -1.7614  0.6502
 3499TIP3    H210462   3.470   5.521   2.251 -0.0152  1.2793 -0.4894
 3500TIP3   OH210463   6.733   6.606   3.859 -0.0388  0.0270  0.0373
 3500TIP3    H110464   6.655   6.564   3.824 -0.5605  0.8766  0.1467
 3500TIP3    H210465   6.787   6.624   3.783  0.5537 -1.5267  0.0635
 3501TIP3   OH210466   2.108   5.523   2.459 -0.3049 -0.7801  0.1965
 3501TIP3    H110467   2.168   5.459   2.420  0.6107 -0.0231  0.3435
 3501TIP3    H210468   2.037   5.531   2.394  1.0040  0.1744 -1.1762
 3502TIP3   OH210469   6.708   5.564   2.040 -0.4090  0.3028  0.7208
 3502TIP3    H110470   6.740   5.541   2.127  0.1618  2.4059  1.1254
 3502TIP3    H210471   6.770   5.628   2.008 -0.2421 -0.8910 -1.5549
 3503TIP3   OH210472   5.988   0.040   5.388  0.0297 -0.2953  0.1565
 3503TIP3    H110473   6.083   0.038   5.404 -0.2074  0.1963  1.7007
 3503TIP3    H210474   5.973  -0.032   5.327  1.5254  0.2107 -0.8916
 3504TIP3   OH210475   0.764   3.022   3.237 -0.2228  0.4362 -0.4789
 3504TIP3    H110476   0.689   2.964   3.250  0.5582 -0.7425 -0.9999
 3504TIP3    H210477   0.828   2.994   3.302  0.3043  0.4582 -0.9773
 3505TIP3   OH210478   2.500   5.436   2.566 -0.1897  0.0393 -0.3192
 3505TIP3    H110479   2.538   5.354   2.595 -2.0142 -0.9105 -0.4740
 3505TIP3    H210480   2.518   5.440   2.472 -1.3466 -0.9280 -0.5996
 3506TIP3   OH210481   6.637   5.875   0.190  0.3263  0.4209  0.2228
 3506TIP3    H110482   6.603   5.952   0.236  1.9909  0.5909  1.2566
 3506TIP3    H210483   6.701   5.909   0.128  0.9821 -0.1041  0.5982
 3507TIP3   OH210484   2.552   3.556   0.782  0.7006  0.6217 -0.0879
 3507TIP3    H110485   2.509   3.622   0.728  0.8032  0.0985 -0.8179
 3507TIP3    H210486   2.486   3.529   0.846 -0.2276 -0.4926 -1.4660
 3508TIP3   OH210487   0.438   2.336   1.698  0.1609 -0.0478  0.3230
 3508TIP3    H110488   0.447   2.244   1.724 -1.5266  0.1983  1.9514
 3508TIP3    H210489   0.481   2.386   1.767 -1.7849  0.4833  1.2234
 3509TIP3   OH210490   6.824   1.629   2.254  0.0636 -0.4241  0.2967
 3509TIP3    H110491   6.887   1.643   2.324 -0.5587  0.2395  0.7393
 3509TIP3    H210492   6.794   1.717   2.230 -0.0482 -0.6743 -0.5072
 3510TIP3   OH210493   3.020   1.001   1.301  0.0360 -0.1737  0.0594
 3510TIP3    H110494   3.058   0.979   1.386  2.3285  0.6486 -0.6674
 3510TIP3    H210495   3.011   1.097   1.303 -2.3278 -0.3431  0.2740
 3511TIP3   OH210496   3.045   3.928   1.640 -0.1215 -0.6759 -0.2849
 3511TIP3    H110497   2.994   3.931   1.559 -0.0531  1.0808 -0.2915
 3511TIP3    H210498   2.980   3.910   1.708 -0.5424  0.1916 -0.4541
 3512TIP3   OH210499   0.607   2.819   1.676 -0.0244 -0.2160 -0.1487
 3512TIP3    H110500   0.698   2.795   1.693  0.3066 -0.7190 -2.2811
 3512TIP3    H210501   0.558   2.737   1.688 -0.0373 -0.1795  0.0397
 3513TIP3   OH210502   6.667   3.950   5.216  0.1976  0.0525 -0.5155
 3513TIP3    H110503   6.741   3.899   5.251  0.7263  1.3920  0.3749
 3513TIP3    H210504   6.616   3.886   5.167  1.9740 -0.9118 -1.2119
 3514TIP3   OH210505   2.478   3.198   2.659  0.0019 -0.2670 -0.3233
 3514TIP3    H110506   2.427   3.140   2.717 -2.4983 -0.2172 -2.3235
 3514TIP3    H210507   2.416   3.226   2.592  2.7278 -0.3812 -3.1225
 3515TIP3   OH210508   0.864   4.775   2.365  0.1209  0.3770 -0.4377
 3515TIP3    H110509   0.815   4.800   2.443  0.1180 -0.0992 -0.2852
 3515TIP3    H210510   0.946   4.738   2.399 -0.4772 -1.1851 -0.5838
 3516TIP3   OH210511   3.977  -0.011   3.582  0.0415  0.0620 -0.2910
 3516TIP3    H110512   3.884   0.006   3.599 -0.1923 -2.2941  1.2831
 3516TIP3    H210513   4.019   0.075   3.586 -1.2597  0.7340  4.6342
 3517TIP3   OH210514   3.087   0.412   5.367 -0.1132 -0.3695 -0.1881
 3517TIP3    H110515   3.140   0.429   5.445 -0.2701 -0.2322 -0.1121
 3517TIP3    H210516   3.057   0.321   5.378 -0.2749 -0.2948 -0.0059
 3518TIP3   OH210517   3.973   2.081   0.733 -0.6236  0.0605 -0.1051
 3518TIP3    H110518   4.050   2.025   0.744 -0.5756  0.1934  0.2268
 3518TIP3    H210519   4.006   2.170   0.744 -0.7791  0.1327 -0.2163
 3519TIP3   OH210520   4.120   6.336   0.112  0.1419 -0.0814  0.3525
 3519TIP3    H110521   4.027   6.313   0.113  0.5364 -2.2945 -2.1178
 3519TIP3    H210522   4.165   6.253   0.129  1.6967  0.7798  0.6581
 3520TIP3   OH210523   4.056   4.493   0.631  0.3106  0.6253  0.7071
 3520TIP3    H110524   4.033   4.475   0.540  0.4637  3.5016  0.0191
 3520TIP3    H210525   4.115   4.421   0.655 -1.5437 -1.4858 -0.6393
 3521TIP3   OH210526   0.319   4.353   3.922  0.1087  0.1682 -0.3158
 3521TIP3    H110527   0.413   4.349   3.900  0.0815 -0.3733 -0.3320
 3521TIP3    H210528   0.292   4.262   3.930 -0.5278  0.3114 -0.7728
 3522TIP3   OH210529   4.070   4.989   4.762  0.2998 -0.3433  0.2112
 3522TIP3    H110530   4.126   5.058   4.799 -2.5038  2.0154  0.4059
 3522TIP3    H210531   4.123   4.949   4.694  1.8071  2.6638 -0.5593
 3523TIP3   OH210532   4.803   3.756   4.624  0.0339  0.5458 -0.2833
 3523TIP3    H110533   4.725   3.732   4.574 -0.7972  2.6207 -0.1050
 3523TIP3    H210534   4.770   3.784   4.709  1.1441 -0.0314  0.3590
 3524TIP3   OH210535   1.987   5.337   0.991  0.2061  0.0534 -0.0223
 3524TIP3    H110536   2.078   5.309   0.987  0.2599  0.3405 -1.0308
 3524TIP3    H210537   1.955   5.302   1.074  1.3091  0.1989  0.4866
 3525TIP3   OH210538   1.106   6.116   1.519 -0.2609 -0.0656  0.2095
 3525TIP3    H110539   1.086   6.118   1.612  2.1116  3.0543  0.8354
 3525TIP3    H210540   1.025   6.143   1.476 -0.7743  0.6147  1.5731
 3526TIP3   OH210541   0.144   3.535   2.536 -0.6611 -0.3976  0.7046
 3526TIP3    H110542   0.067   3.481   2.550 -0.3284 -0.6182  1.8661
 3526TIP3    H210543   0.212   3.473   2.509 -0.6089 -0.3833  0.7995
 3527TIP3   OH210544   2.302   0.761   5.075 -0.2140  0.4218 -0.5202
 3527TIP3    H110545   2.364   0.802   5.015 -1.5521  1.9334 -0.9622
 3527TIP3    H210546   2.289   0.673   5.040  0.4762  0.6293 -1.3303
 3528TIP3   OH210547   3.157   5.564   2.685 -0.0274  0.1056 -0.3894
 3528TIP3    H110548   3.159   5.610   2.770 -1.2271 -0.1709 -0.1889
 3528TIP3    H210549   3.248   5.543   2.667  0.2520  0.1472  0.8608
 3529TIP3   OH210550   4.571   3.057   2.306 -0.0637  0.2181 -0.1967
 3529TIP3    H110551   4.524   3.080   2.226  1.1501  3.0152 -0.2177
 3529TIP3    H210552   4.660   3.040   2.278  0.0445 -0.2602  0.4070
 3530TIP3   OH210553   2.133   4.292   2.810 -0.6734  0.3517 -0.0133
 3530TIP3    H110554   2.164   4.285   2.719 -0.9919  1.1655 -0.1941
 3530TIP3    H210555   2.210   4.270   2.863 -0.3076  0.4973 -0.4740
 3531TIP3   OH210556   3.864   2.707   4.739 -0.1647 -0.4676  0.0548
 3531TIP3    H110557   3.840   2.764   4.812  1.6790 -0.3198  0.6008
 3531TIP3    H210558   3.832   2.620   4.764 -2.2588  0.1286 -0.4058
 3532TIP3   OH210559   4.672   0.052   1.422 -0.3210 -0.5898  1.0321
 3532TIP3    H110560   4.650   0.069   1.514 -0.0422  1.2532  0.7758
 3532TIP3    H210561   4.655  -0.042   1.411 -1.3166 -0.6463  2.7014
 3533TIP3   OH210562   3.517   4.460   5.610  0.7769 -0.7285  0.4400
 3533TIP3    H110563   3.610   4.441   5.620  0.5805 -3.0623 -1.2548
 3533TIP3    H210564   3.473   4.396   5.667  0.1865 -1.8594 -1.2145
 3534TIP3   OH210565   1.011   3.944   0.448  0.1295  0.1562  0.2263
 3534TIP3    H110566   1.008   3.917   0.539  1.9370 -0.9917 -0.0080
 3534TIP3    H210567   0.969   3.873   0.400  1.0248 -0.2512  0.0107
 3535TIP3   OH210568   0.385   4.447   1.741  0.1270 -0.0140  0.3818
 3535TIP3    H110569   0.386   4.471   1.834  2.6767  1.4893  0.0643
 3535TIP3    H210570   0.315   4.500   1.703 -0.3618  0.0073  1.2913
 3536TIP3   OH210571   0.868   4.395   0.301 -0.0264 -0.0286 -0.2551
 3536TIP3    H110572   0.918   4.318   0.274 -0.3619 -0.9778  1.6202
 3536TIP3    H210573   0.810   4.414   0.228 -0.2600 -1.8658 -0.5942
 3537TIP3   OH210574   1.124   2.234   4.889  0.0579  0.1573  0.4105
 3537TIP3    H110575   1.129   2.277   4.804  2.5048 -0.8071 -0.0250
 3537TIP3    H210576   1.086   2.148   4.871  0.6903 -0.0939  0.2491
 3538TIP3   OH210577   3.666   3.235   2.548  0.4820  0.3334  0.0633
 3538TIP3    H110578   3.624   3.321   2.542 -0.4166  0.1322  2.3574
 3538TIP3    H210579   3.665   3.215   2.642 -0.5288 -2.7630 -0.5051
 3539TIP3   OH210580   4.318   5.218   4.184  0.5252 -0.2925  0.0011
 3539TIP3    H110581   4.303   5.215   4.278 -1.7174 -0.2775 -0.3216
 3539TIP3    H210582   4.381   5.147   4.168 -0.2788 -1.3426  1.3057
 3540TIP3   OH210583   1.134   0.390   5.272 -0.3592  0.7508 -0.0739
 3540TIP3    H110584   1.109   0.446   5.346 -0.3518 -1.8537  2.0200
 3540TIP3    H210585   1.226   0.411   5.256  0.1086  0.2600  1.7437
 3541TIP3   OH210586   7.124   2.821   4.927 -0.4178 -0.1405 -0.1559
 3541TIP3    H110587   7.117   2.852   4.836 -0.9491 -0.9530 -0.4082
 3541TIP3    H210588   7.191   2.753   4.924  0.1987  0.4421  0.2419
 3542TIP3   OH210589   4.267   5.824   4.068 -0.8890 -0.0715  0.5154
 3542TIP3    H110590   4.317   5.774   4.003  0.3190 -0.3317  1.6107
 3542TIP3    H210591   4.209   5.880   4.016  0.2030 -0.1111 -0.7914
 3543TIP3   OH210592   3.603   2.024   4.262 -0.8519  0.0204  0.3452
 3543TIP3    H110593   3.667   1.984   4.204  0.4491  0.9040  1.1166
 3543TIP3    H210594   3.575   2.104   4.216 -1.8417 -0.6321 -0.2312
 3544TIP3   OH210595   2.250   5.216   4.716  0.1089 -0.2363 -0.3307
 3544TIP3    H110596   2.285   5.283   4.657 -1.0642  1.0249  0.3601
 3544TIP3    H210597   2.211   5.151   4.658 -0.4055  0.6395 -0.9923
 3545TIP3   OH210598   6.587   0.350   1.631 -0.3569 -0.4290 -0.4601
 3545TIP3    H110599   6.557   0.384   1.547  0.4989  0.5536 -0.3905
 3545TIP3    H210600   6.508   0.350   1.686 -0.6345  0.3087 -0.8342
 3546TIP3   OH210601   4.189   3.148   3.145  0.0268  0.0817 -0.2059
 3546TIP3    H110602   4.214   3.201   3.220  0.3811  0.2433 -0.4354
 3546TIP3    H210603   4.272   3.131   3.098 -0.1793 -0.0715 -0.5229
 3547TIP3   OH210604   2.862   0.568   3.929 -0.0576 -0.8356 -0.3818
 3547TIP3    H110605   2.804   0.625   3.979  2.4960  2.1954 -0.6182
 3547TIP3    H210606   2.886   0.499   3.992  0.0562  0.7040  1.3494
 3548TIP3   OH210607   4.871   5.799   5.585  0.5772 -0.1321 -0.6235
 3548TIP3    H110608   4.857   5.891   5.606 -3.9093 -0.4688 -1.1215
 3548TIP3    H210609   4.880   5.797   5.490  1.2893 -0.2074 -0.5626
 3549TIP3   OH210610   6.342   5.986   5.066 -0.6956 -0.1850 -0.0395
 3549TIP3    H110611   6.315   5.915   5.008 -0.1124 -1.5226  1.2820
 3549TIP3    H210612   6.351   5.946   5.152  0.0185  1.4106  0.6785
 3550TIP3   OH210613   0.362   0.885   4.406 -0.3125 -0.0342  0.0934
 3550TIP3    H110614   0.306   0.832   4.464  1.1291 -0.8144  0.8428
 3550TIP3    H210615   0.396   0.822   4.342  0.3898  0.2373  0.1921
 3551TIP3   OH210616   5.411   4.571   1.590 -0.5045 -0.0325 -0.2004
 3551TIP3    H110617   5.425   4.662   1.614  0.5025 -0.3149  0.3767
 3551TIP3    H210618   5.401   4.525   1.674 -1.2901 -0.4179 -0.4938
 3552TIP3   OH210619   4.548   6.728   2.919  0.7645  0.2537 -0.3289
 3552TIP3    H110620   4.465   6.735   2.966  0.8678  3.5957 -0.3787
 3552TIP3    H210621   4.529   6.674   2.843 -0.5342 -1.5650  1.2088
 3553TIP3   OH210622   2.988   1.003   5.661  0.1948  0.3282 -0.1898
 3553TIP3    H110623   3.029   0.945   5.596 -0.6331  1.1852 -1.5310
 3553TIP3    H210624   3.058   1.063   5.687  0.2679  0.6729 -1.1401
 3554TIP3   OH210625   3.233   3.171   1.735 -0.3214  0.0183  0.2480
 3554TIP3    H110626   3.214   3.230   1.662  0.0412 -1.3669 -1.0207
 3554TIP3    H210627   3.155   3.116   1.742 -0.6916  0.6662  1.4768
 3555TIP3   OH210628   4.048   2.852   0.216  0.0912  0.3744 -0.0524
 3555TIP3    H110629   4.075   2.939   0.186  0.0479 -0.5414 -3.0736
 3555TIP3    H210630   3.963   2.838   0.174  0.4935 -1.4409 -0.3423
 3556TIP3   OH210631   1.141   4.433   5.858  0.7974  0.2512  0.0161
 3556TIP3    H110632   1.222   4.417   5.907 -0.4846  0.5614  2.3655
 3556TIP3    H210633   1.147   4.375   5.782  2.7343 -0.5049  0.6928
 3557TIP3   OH210634   1.215   5.860   2.596 -0.1181 -0.6300 -0.5978
 3557TIP3    H110635   1.191   5.929   2.535 -0.7480 -1.4495 -1.3005
 3557TIP3    H210636   1.224   5.904   2.681  3.1449  0.9857 -1.6152
 3558TIP3   OH210637   2.958   6.389   4.626  0.6058  0.4848 -0.1042
 3558TIP3    H110638   2.930   6.316   4.682 -1.9736  2.0912  0.8853
 3558TIP3    H210639   2.943   6.359   4.537  0.8366 -0.6508  0.2260
 3559TIP3   OH210640   5.152   5.065   3.064 -0.1588  0.0373  0.4643
 3559TIP3    H110641   5.087   5.056   3.134  0.5322 -1.4981  0.9446
 3559TIP3    H210642   5.224   5.009   3.090  0.2466 -0.3566 -1.3412
 3560TIP3   OH210643   1.589   1.898   1.597  0.4131  0.2805 -0.1667
 3560TIP3    H110644   1.533   1.856   1.532  2.5178 -1.5549 -0.9322
 3560TIP3    H210645   1.609   1.984   1.560 -0.3324  0.1935 -0.7876
 3561TIP3   OH210646   0.631   0.992   4.753  0.3208 -0.2215 -0.2512
 3561TIP3    H110647   0.591   1.023   4.834 -0.9642 -2.7900  0.1916
 3561TIP3    H210648   0.724   1.012   4.764  0.3259 -1.2836  2.2703
 3562TIP3   OH210649   7.099   3.533   0.094 -0.5601 -0.2538 -0.3534
 3562TIP3    H110650   7.170   3.470   0.108  0.7447  1.1197 -0.5257
 3562TIP3    H210651   7.109   3.559   0.003 -0.3721  1.0108  0.0168
 3563TIP3   OH210652   0.120   2.339   1.898  0.3925 -0.3825  0.2199
 3563TIP3    H110653   0.215   2.331   1.907  0.4893  1.3925  1.1946
 3563TIP3    H210654   0.092   2.254   1.863  2.2311 -1.2156  0.6555
 3564TIP3   OH210655   3.908   1.883   1.443 -0.0538  0.1504 -0.1282
 3564TIP3    H110656   3.817   1.867   1.469 -0.2593  0.0616 -0.8769
 3564TIP3    H210657   3.945   1.796   1.432 -0.2277  0.1799 -0.9959
 3565TIP3   OH210658   6.718   0.121   1.187  0.1944  0.2626  0.0551
 3565TIP3    H110659   6.705   0.159   1.274  0.2645 -1.4772  0.8624
 3565TIP3    H210660   6.653   0.051   1.182 -0.0355  0.5620 -1.4512
 3566TIP3   OH210661   0.896   2.527   2.893  0.0947 -0.4715 -0.5011
 3566TIP3    H110662   0.845   2.471   2.950  0.6753 -0.6443 -0.1401
 3566TIP3    H210663   0.858   2.614   2.904  0.5349 -0.3968  0.5662
 3567TIP3   OH210664   4.395   0.029   4.715  0.6342 -0.1601 -0.3933
 3567TIP3    H110665   4.399   0.069   4.801  0.7653 -0.7606 -0.1158
 3567TIP3    H210666   4.379   0.102   4.655 -3.2431 -0.1058  0.4684
 3568TIP3   OH210667   4.110   2.266   3.458  0.1079 -0.5172 -0.2384
 3568TIP3    H110668   4.177   2.306   3.403 -0.4101 -0.0368 -0.5300
 3568TIP3    H210669   4.059   2.211   3.398 -0.0463 -0.5141 -0.1107
 3569TIP3   OH210670   3.748   5.677   1.244  0.5374 -0.0207  0.4546
 3569TIP3    H110671   3.821   5.639   1.195  1.4323  1.2566  0.7546
 3569TIP3    H210672   3.676   5.616   1.230  0.8543  0.0717 -2.1281
 3570TIP3   OH210673   0.808   1.096   4.038 -0.6018 -0.4896 -0.1486
 3570TIP3    H110674   0.804   1.027   4.104 -1.0426 -0.2556  0.0744
 3570TIP3    H210675   0.901   1.109   4.021 -0.4504 -0.0779  0.9342
 3571TIP3   OH210676   2.777   1.275   3.097  0.2627  0.2193 -0.0042
 3571TIP3    H110677   2.867   1.246   3.107  0.1607 -0.0467  0.1655
 3571TIP3    H210678   2.733   1.200   3.056  0.6163  1.1741 -2.2453
 3572TIP3   OH210679   2.764   6.693   4.237  0.3199  0.1675  0.0232
 3572TIP3    H110680   2.807   6.610   4.217  0.7293  0.5689 -0.7974
 3572TIP3    H210681   2.731   6.724   4.153 -2.2329 -0.4672  0.6980
 3573TIP3   OH210682   2.549   4.407   2.817 -0.2265 -0.4094 -0.8709
 3573TIP3    H110683   2.593   4.474   2.869 -0.3879 -1.0451  0.1156
 3573TIP3    H210684   2.456   4.426   2.827 -0.2528 -0.4296 -1.0739
 3574TIP3   OH210685   0.477   5.821   0.780 -0.1503 -0.5890 -0.3400
 3574TIP3    H110686   0.475   5.873   0.861  2.0037  0.2311 -0.7612
 3574TIP3    H210687   0.452   5.733   0.807  1.0099 -0.4416  1.3238
 3575TIP3   OH210688   6.294   2.173   3.848  0.2635  0.3334  0.3439
 3575TIP3    H110689   6.211   2.216   3.826  1.1082  1.0764 -1.6341
 3575TIP3    H210690   6.277   2.080   3.834  0.0672  0.5801 -1.2973
 3576TIP3   OH210691   4.661   5.916   3.725  0.3248 -0.0006  0.2561
 3576TIP3    H110692   4.689   5.976   3.794  1.2593 -3.0492  2.7950
 3576TIP3    H210693   4.659   5.970   3.646  2.8544  2.9384  1.9321
 3577TIP3   OH210694   4.341   3.631   2.739  0.2243  0.3440  0.1153
 3577TIP3    H110695   4.331   3.632   2.644 -1.3371 -4.5606 -0.0555
 3577TIP3    H210696   4.403   3.560   2.755 -1.5602 -0.7876  2.6949
 3578TIP3   OH210697   2.771   6.054   3.503  0.0266  0.4599 -0.1158
 3578TIP3    H110698   2.811   6.010   3.429 -2.6117  0.7627 -1.8691
 3578TIP3    H210699   2.768   5.988   3.572  1.1244 -0.3259 -0.7907
 3579TIP3   OH210700   3.843   5.206   2.742  0.0796  0.0525 -0.2173
 3579TIP3    H110701   3.759   5.160   2.747  0.6356 -1.3047 -1.9624
 3579TIP3    H210702   3.864   5.227   2.833 -0.0568 -3.6028  0.8406
 3580TIP3   OH210703   0.123   0.491   1.828 -0.1704 -0.2401 -0.1428
 3580TIP3    H110704   0.164   0.405   1.817  1.7331  0.6557 -0.4738
 3580TIP3    H210705   0.144   0.539   1.748  1.1016  1.3819  1.0696
 3581TIP3   OH210706   4.483   0.997   4.127 -0.2988 -0.3674  0.1213
 3581TIP3    H110707   4.433   1.078   4.116 -0.5267 -0.5321 -0.0656
 3581TIP3    H210708   4.418   0.934   4.159 -0.2399 -0.6146 -0.2423
 3582TIP3   OH210709   5.985   3.412   3.634  0.5316 -0.0888 -0.2278
 3582TIP3    H110710   5.988   3.325   3.675  0.2727 -0.4056 -0.8629
 3582TIP3    H210711   6.047   3.406   3.561 -0.9845 -0.4495 -1.5676
 3583TIP3   OH210712   7.018   3.267   2.836 -0.2517 -0.3695 -0.0248
 3583TIP3    H110713   6.941   3.290   2.887 -0.8005 -0.4458 -0.8068
 3583TIP3    H210714   6.984   3.237   2.752  0.4929 -2.4648  0.3434
 3584TIP3   OH210715   1.251   5.791   3.968 -0.0896 -0.2912  0.5569
 3584TIP3    H110716   1.188   5.721   3.953  0.0266 -1.0389  3.0238
 3584TIP3    H210717   1.248   5.806   4.063 -0.9008  3.8324  0.1043
 3585TIP3   OH210718   3.827   2.745   0.772 -0.3092 -0.3077  0.0269
 3585TIP3    H110719   3.890   2.813   0.746 -2.2151  1.5226 -0.1148
 3585TIP3    H210720   3.745   2.793   0.786 -1.5964 -2.5311  0.5644
 3586TIP3   OH210721   4.588   4.145   4.133  0.0277  0.1390 -0.5048
 3586TIP3    H110722   4.523   4.078   4.155 -1.7896  1.5641 -1.2730
 3586TIP3    H210723   4.618   4.179   4.217 -0.0269 -0.7179 -0.1363
 3587TIP3   OH210724   4.962   2.770   5.802  0.0997 -0.2604  0.0518
 3587TIP3    H110725   4.946   2.680   5.830 -2.1641  0.5507  1.5641
 3587TIP3    H210726   4.921   2.776   5.716 -0.9786 -0.3017  0.5582
 3588TIP3   OH210727   0.945   4.959   3.490  0.5820  0.0445 -0.0630
 3588TIP3    H110728   0.887   4.972   3.564  0.4416  0.0117 -0.1672
 3588TIP3    H210729   0.896   4.991   3.414  0.7394  0.1153 -0.1372
 3589TIP3   OH210730   6.625   0.925   4.600 -0.6387  0.6415 -0.2213
 3589TIP3    H110731   6.711   0.954   4.570 -0.0463  0.6101  1.3506
 3589TIP3    H210732   6.622   0.832   4.579 -0.5903  0.7848 -0.9046
 3590TIP3   OH210733   4.281   1.673   4.094 -0.5173 -0.0986  0.2557
 3590TIP3    H110734   4.354   1.713   4.046 -0.0982  0.2578  1.1583
 3590TIP3    H210735   4.322   1.636   4.172 -1.4117  0.8458  1.1924
 3591TIP3   OH210736   2.127   5.007   4.616  0.3231 -0.0566  0.1260
 3591TIP3    H110737   2.054   5.035   4.561  0.7128  0.6648 -0.0340
 3591TIP3    H210738   2.087   4.955   4.685 -0.2751 -0.1752 -0.3070
 3592TIP3   OH210739   7.079   3.190   1.068  0.4639 -0.3041 -0.4365
 3592TIP3    H110740   7.094   3.144   1.151 -2.8024 -0.4070  0.2564
 3592TIP3    H210741   7.142   3.262   1.069  1.1486 -0.8504  1.7173
 3593TIP3   OH210742   4.553   4.751   5.149  0.7687  0.1337 -0.3778
 3593TIP3    H110743   4.513   4.706   5.074 -1.0494  1.9467 -0.5654
 3593TIP3    H210744   4.480   4.790   5.195  1.9331 -0.3409  2.0048
 3594TIP3   OH210745   2.189   3.310   3.724  0.2541 -0.0825  0.0990
 3594TIP3    H110746   2.242   3.380   3.764  2.1411 -1.9246  1.0680
 3594TIP3    H210747   2.105   3.314   3.770  1.0976  0.2030  1.6943
 3595TIP3   OH210748   3.567   6.781   3.934 -0.3504 -0.3416 -0.4058
 3595TIP3    H110749   3.633   6.847   3.955 -0.4510 -0.1250 -0.7610
 3595TIP3    H210750   3.614   6.715   3.882  0.6816 -2.4746  2.9042
 3596TIP3   OH210751   4.371   1.369   4.717 -0.3851  0.1817  0.3661
 3596TIP3    H110752   4.369   1.463   4.738  0.3540  0.1737  0.4773
 3596TIP3    H210753   4.306   1.360   4.647 -0.5452  0.7613  0.4309
 3597TIP3   OH210754   3.591   5.987   3.804  0.1725  0.0779  0.2377
 3597TIP3    H110755   3.613   6.033   3.885  0.7278  0.4897 -0.1405
 3597TIP3    H210756   3.587   5.895   3.829  1.7451  0.0438  0.4552
 3598TIP3   OH210757   5.613   0.604   4.641  0.5459  0.1056  0.5430
 3598TIP3    H110758   5.658   0.687   4.655  0.9574  0.2384 -1.3666
 3598TIP3    H210759   5.682   0.538   4.652  0.9594  0.2321 -1.0099
 3599TIP3   OH210760   5.603   2.981   1.172  0.3543  0.1367  0.3272
 3599TIP3    H110761   5.567   3.001   1.258  0.8090  1.1789  0.2767
 3599TIP3    H210762   5.600   2.885   1.167 -0.1129  0.0906  1.3036
 3600TIP3   OH210763   5.800   2.062   1.058  0.2640  0.8668  0.1644
 3600TIP3    H110764   5.727   2.122   1.071 -0.2037  0.5578 -0.9609
 3600TIP3    H210765   5.775   2.009   0.983  1.8585  1.0885 -0.5691
 3601TIP3   OH210766   7.104   3.092   4.176  0.0008  0.7864 -0.6801
 3601TIP3    H110767   7.044   3.038   4.227 -0.0582  0.5621 -0.9788
 3601TIP3    H210768   7.050   3.129   4.107 -0.0370  1.5523 -0.2445
 3602TIP3   OH210769   3.526   1.748   4.836  0.1390  0.6396 -0.4842
 3602TIP3    H110770   3.441   1.705   4.839  0.3840  0.1458  1.9635
 3602TIP3    H210771   3.588   1.679   4.862  1.1011  1.3555 -0.8186
 3603TIP3   OH210772   6.575   3.218   1.334  0.0281  0.0519 -0.4106
 3603TIP3    H110773   6.501   3.234   1.392 -0.3606 -0.0124 -0.8882
 3603TIP3    H210774   6.536   3.192   1.251  0.6091 -0.9752 -0.3798
 3604TIP3   OH210775   5.818   3.839   2.867 -0.2053 -0.1169 -0.4862
 3604TIP3    H110776   5.852   3.876   2.785  0.5649  0.0606 -0.1025
 3604TIP3    H210777   5.860   3.891   2.936 -1.4697  0.2703  0.0212
 3605TIP3   OH210778   6.777   1.593   5.609  1.0783 -0.0295 -0.6924
 3605TIP3    H110779   6.795   1.680   5.644 -0.8432  0.7809 -1.5549
 3605TIP3    H210780   6.857   1.568   5.562  1.8066  1.0768 -0.0679
 3606TIP3   OH210781   1.914   5.903   3.849  0.3885 -0.0288 -1.0777
 3606TIP3    H110782   1.958   5.818   3.842  0.3001  0.0110 -2.3976
 3606TIP3    H210783   1.860   5.908   3.771 -2.7246 -0.4659  0.8862
 3607TIP3   OH210784   0.322   2.744   4.580  0.0085  0.1872 -0.3657
 3607TIP3    H110785   0.381   2.710   4.647  0.0795  1.8805  0.4891
 3607TIP3    H210786   0.332   2.684   4.506  2.1130 -0.0918  0.0821
 3608TIP3   OH210787   5.500   1.351   1.997  0.1852 -0.2841  0.1405
 3608TIP3    H110788   5.479   1.393   1.913 -1.1791 -0.2290  0.4902
 3608TIP3    H210789   5.531   1.264   1.972 -0.0944 -0.2273 -0.4354
 3609TIP3   OH210790   5.268   3.153   3.093  0.1990  0.1235  0.5251
 3609TIP3    H110791   5.330   3.155   3.166  0.2051 -1.3439  0.5934
 3609TIP3    H210792   5.276   3.065   3.057 -1.0048  0.2904 -0.2067
 3610TIP3   OH210793   6.606   3.095   0.615 -0.3682  0.2108  0.4299
 3610TIP3    H110794   6.538   3.101   0.683 -2.4688 -0.9178 -1.4448
 3610TIP3    H210795   6.638   3.006   0.622 -1.4733 -0.3200 -0.7635
 3611TIP3   OH210796   6.633   1.952   0.421  0.1925  0.2212 -0.3822
 3611TIP3    H110797   6.635   1.983   0.511  1.3127  0.9711 -0.6473
 3611TIP3    H210798   6.540   1.952   0.398 -0.2898 -1.4383  1.2313
 3612TIP3   OH210799   2.008   6.814   2.460  0.1243 -0.0058 -0.2521
 3612TIP3    H110800   2.025   6.723   2.486 -0.5346 -0.2236 -0.5761
 3612TIP3    H210801   2.027   6.816   2.367  0.7410  0.3510 -0.1299
 3613TIP3   OH210802   1.640   2.127   4.642 -0.2998 -0.3307 -0.3105
 3613TIP3    H110803   1.680   2.079   4.570  0.6835  1.8759 -1.3267
 3613TIP3    H210804   1.699   2.201   4.658 -1.5114  0.3270  1.4414
 3614TIP3   OH210805   2.819   5.101   0.668 -0.0333 -0.0892  0.0077
 3614TIP3    H110806   2.830   5.019   0.620 -2.3197  0.0316 -0.8677
 3614TIP3    H210807   2.745   5.084   0.727 -1.1676  1.5888 -0.8576
 3615TIP3   OH210808   3.005   0.175   3.168 -0.6663 -0.0574 -0.0632
 3615TIP3    H110809   3.083   0.140   3.210 -0.4799  2.3682  1.8186
 3615TIP3    H210810   3.033   0.257   3.128 -1.5441 -0.8344 -2.4445
 3616TIP3   OH210811   5.696   3.332   5.594  0.1807  0.2213 -0.1340
 3616TIP3    H110812   5.664   3.324   5.504  0.9741  0.9062 -0.4988
 3616TIP3    H210813   5.663   3.254   5.639 -1.3437  0.5488 -0.6602
 3617TIP3   OH210814   5.146   4.805   0.670 -0.2542 -0.0563  0.3462
 3617TIP3    H110815   5.120   4.716   0.692  1.0402 -0.4153  0.5374
 3617TIP3    H210816   5.215   4.794   0.604 -0.6965  0.8402 -0.2862
 3618TIP3   OH210817   0.209   1.961   1.257  0.1783  0.1914  0.0933
 3618TIP3    H110818   0.177   1.984   1.170 -1.2907  0.9744  0.8045
 3618TIP3    H210819   0.166   2.023   1.316 -1.0726 -2.0337  1.7035
 3619TIP3   OH210820   3.217   0.904   1.832 -0.4088  0.3437  0.3159
 3619TIP3    H110821   3.259   0.948   1.907 -0.2374  1.4791 -0.4195
 3619TIP3    H210822   3.274   0.829   1.814 -0.2527  0.2593  1.0924
 3620TIP3   OH210823   6.386   4.454   4.596  0.2571 -0.7039  0.0406
 3620TIP3    H110824   6.341   4.517   4.652 -0.6403 -1.1427 -0.1659
 3620TIP3    H210825   6.421   4.389   4.657 -0.6643 -1.1475  0.1172
 3621TIP3   OH210826   7.118   1.101   4.845 -0.3761  0.2899  0.4172
 3621TIP3    H110827   7.137   1.195   4.842  1.1351  0.1579  2.9228
 3621TIP3    H210828   7.051   1.088   4.778  0.8769  2.7597 -1.5160
 3622TIP3   OH210829   5.609   3.804   4.775  0.0055 -0.0103 -0.1137
 3622TIP3    H110830   5.522   3.768   4.790  1.9096 -4.8473  1.0829
 3622TIP3    H210831   5.610   3.826   4.681 -2.9457  2.2168  0.2100
 3623TIP3   OH210832   5.341   6.681   3.279  0.3249  0.7611 -0.0694
 3623TIP3    H110833   5.352   6.715   3.190  0.7333 -0.4970 -0.5213
 3623TIP3    H210834   5.247   6.686   3.295  0.2469  0.9664 -0.5791
 3624TIP3   OH210835   5.289   1.038   0.505  0.3341  0.3115  0.5547
 3624TIP3    H110836   5.301   1.049   0.600  0.0003 -1.5619  0.8719
 3624TIP3    H210837   5.373   1.005   0.474  0.7153  1.7441  0.0229
 3625TIP3   OH210838   6.860   0.110   3.895  0.1361  0.1496  0.4553
 3625TIP3    H110839   6.939   0.163   3.906  0.2349  0.2726 -0.7357
 3625TIP3    H210840   6.891   0.020   3.894  0.1123  0.1244  1.1793
 3626TIP3   OH210841   3.301   6.548   0.162 -0.5615 -0.5102 -0.0571
 3626TIP3    H110842   3.329   6.620   0.218 -0.2583 -0.0082 -0.8470
 3626TIP3    H210843   3.368   6.542   0.094 -1.9853  0.2924 -1.6040
 3627TIP3   OH210844   1.619   1.581   3.070  0.5764  0.0300  0.1132
 3627TIP3    H110845   1.574   1.537   2.998  1.0406  1.9668 -1.4592
 3627TIP3    H210846   1.549   1.605   3.131  0.1472 -1.4050  0.2214
 3628TIP3   OH210847   0.049   6.685   2.737 -0.1673 -0.4612  0.4791
 3628TIP3    H110848   0.117   6.695   2.670 -0.9475 -1.1162 -0.4298
 3628TIP3    H210849   0.035   6.591   2.743 -1.4557 -0.3095  0.1713
 3629TIP3   OH210850   0.744   4.964   1.926  0.6035 -0.6897 -0.4411
 3629TIP3    H110851   0.770   4.944   1.836  1.1874 -2.9511  0.1700
 3629TIP3    H210852   0.824   4.952   1.977  0.4134  1.0921  0.3617
 3630TIP3   OH210853   6.894   3.027   1.720 -0.3843 -0.0797  0.3191
 3630TIP3    H110854   6.883   3.106   1.771  2.0291  0.9618 -0.6406
 3630TIP3    H210855   6.852   3.046   1.636  1.1218  0.6404 -0.2982
 3631TIP3   OH210856   3.417   4.058   3.616  0.1398  0.1645  0.3724
 3631TIP3    H110857   3.413   4.152   3.633  1.0707  0.6400 -1.7169
 3631TIP3    H210858   3.511   4.039   3.614 -0.0499 -0.9720  1.4964
 3632TIP3   OH210859   0.038   2.000   4.352  0.0831 -0.6478 -0.5169
 3632TIP3    H110860   0.127   2.019   4.323 -0.5766 -1.3082 -3.2730
 3632TIP3    H210861  -0.004   2.086   4.358  0.4682 -0.4404 -0.7815
 3633TIP3   OH210862   4.494   4.576   0.880  0.5867  0.1135  0.1532
 3633TIP3    H110863   4.566   4.611   0.934 -0.3608  0.9047  0.9332
 3633TIP3    H210864   4.509   4.482   0.879  0.0260 -0.0780  2.7827
 3634TIP3   OH210865   5.354   4.477   1.345  0.6228  0.5496 -0.1711
 3634TIP3    H110866   5.363   4.529   1.425  1.1864 -1.5712  1.2485
 3634TIP3    H210867   5.367   4.386   1.374  1.2838 -0.2738 -2.7591
 3635TIP3   OH210868   6.006   0.682   1.278 -0.0101  0.5910 -0.5266
 3635TIP3    H110869   5.985   0.591   1.255 -1.0577  1.1221 -1.7659
 3635TIP3    H210870   6.045   0.718   1.199  4.3171  0.1446  1.1255
 3636TIP3   OH210871   0.553   4.863   0.555 -0.4051 -0.0312  0.2688
 3636TIP3    H110872   0.626   4.808   0.583 -0.0563 -0.0954 -0.7521
 3636TIP3    H210873   0.503   4.808   0.495  0.0353  0.7894 -0.8836
 3637TIP3   OH210874   3.315   4.315   3.699 -0.4372 -0.1361  0.2517
 3637TIP3    H110875   3.225   4.285   3.682 -0.0764 -1.1495  0.1009
 3637TIP3    H210876   3.311   4.410   3.683 -1.6952 -0.0007  1.1477
 3638TIP3   OH210877   2.667   5.199   2.935  0.0100 -0.0531  0.2838
 3638TIP3    H110878   2.678   5.160   3.022 -0.7123  1.9059  1.3290
 3638TIP3    H210879   2.586   5.162   2.902  0.1351 -0.5945  0.5618
 3639TIP3   OH210880   4.351   3.089   0.268  0.1367 -0.0527 -0.2646
 3639TIP3    H110881   4.306   3.070   0.186  1.0416 -0.0253 -0.7762
 3639TIP3    H210882   4.282   3.122   0.326 -0.5549 -0.3056 -0.9257
 3640TIP3   OH210883   2.553   6.073   1.081  0.0681  0.0863  0.2194
 3640TIP3    H110884   2.634   6.032   1.053  0.6685  1.4645 -0.1293
 3640TIP3    H210885   2.524   6.123   1.005 -0.7205  0.1971  0.5804
 3641TIP3   OH210886   4.454   3.848   3.678 -0.3473 -0.2937 -0.4726
 3641TIP3    H110887   4.384   3.801   3.633 -0.5614  0.5603 -1.0638
 3641TIP3    H210888   4.455   3.935   3.637  0.3134  0.0805  0.2954
 3642TIP3   OH210889   1.444   2.221   0.680 -1.0221 -0.5896 -0.0559
 3642TIP3    H110890   1.357   2.246   0.648 -0.7806 -0.6425 -0.7614
 3642TIP3    H210891   1.473   2.296   0.732 -0.4644  0.4785 -1.8244
 3643TIP3   OH210892   3.424   2.128   4.824  0.5733  0.5389 -0.1291
 3643TIP3    H110893   3.354   2.131   4.889 -0.2976 -0.4180 -0.9823
 3643TIP3    H210894   3.458   2.218   4.821 -0.0032  0.8053  0.9498
 3644TIP3   OH210895   2.645   2.133   2.941 -0.1922  0.4056 -0.3735
 3644TIP3    H110896   2.683   2.083   2.868 -0.3738  0.3675 -0.4428
 3644TIP3    H210897   2.636   2.222   2.907  1.0770  0.7358  0.0810
 3645TIP3   OH210898   4.502   6.406   5.558  0.3721 -0.2964 -0.3516
 3645TIP3    H110899   4.579   6.452   5.593  0.4460  0.5940 -1.5881
 3645TIP3    H210900   4.490   6.445   5.471 -1.2422 -0.7075 -0.3310
 3646TIP3   OH210901   4.861   4.459   4.903  0.0388 -0.0278 -0.1233
 3646TIP3    H110902   4.842   4.499   4.987  0.4372 -0.0508 -0.0212
 3646TIP3    H210903   4.951   4.427   4.911  0.0988  0.0193 -0.5721
 3647TIP3   OH210904   2.034   6.493   4.984  0.1465 -0.0520 -0.1404
 3647TIP3    H110905   1.976   6.441   4.928  2.1635 -0.5100 -1.9442
 3647TIP3    H210906   1.976   6.555   5.028 -1.8755 -1.5017 -0.6404
 3648TIP3   OH210907   1.923   5.118   4.479  0.1721  0.2660 -0.1253
 3648TIP3    H110908   1.864   5.165   4.539 -2.3919 -0.0896 -2.2061
 3648TIP3    H210909   1.966   5.187   4.429  0.8130  0.5010  0.7246
 3649TIP3   OH210910   0.819   3.511   2.571  0.5288  0.0139  0.1811
 3649TIP3    H110911   0.820   3.574   2.643 -0.3163  0.4090 -0.1427
 3649TIP3    H210912   0.729   3.481   2.567  0.7546 -0.6199 -0.1884
 3650TIP3   OH210913   3.785   4.079   1.044 -0.1586  0.0120 -0.5172
 3650TIP3    H110914   3.696   4.085   1.080 -0.6139 -1.4142 -1.3119
 3650TIP3    H210915   3.840   4.123   1.109 -1.0235 -1.9401  1.7089
 3651TIP3   OH210916   2.237   4.633   4.705  0.2310  0.5992  0.2233
 3651TIP3    H110917   2.242   4.661   4.613  0.6155  1.3339  0.4624
 3651TIP3    H210918   2.143   4.638   4.725  0.1902  0.8554 -0.0091
 3652TIP3   OH210919   6.556   1.709   4.599 -0.4883 -0.7211  0.2666
 3652TIP3    H110920   6.550   1.743   4.688  0.8460 -0.7989  0.4037
 3652TIP3    H210921   6.646   1.728   4.572 -0.5038 -1.7992 -0.6100
 3653TIP3   OH210922   0.018   3.550   3.441  0.3717 -0.2542 -0.0163
 3653TIP3    H110923   0.058   3.463   3.442 -1.1685 -1.0022  1.7859
 3653TIP3    H210924  -0.049   3.546   3.508 -1.7460  1.4174 -1.8970
 3654TIP3   OH210925   4.651   5.425   3.015  0.1902  0.0123 -0.3886
 3654TIP3    H110926   4.574   5.375   2.987  0.9038 -1.1233 -0.3509
 3654TIP3    H210927   4.646   5.426   3.110  0.4015 -0.3401 -0.3750
 3655TIP3   OH210928  -0.034   6.366   0.298  0.4276 -0.1339  0.0423
 3655TIP3    H110929  -0.003   6.439   0.352  0.5683 -1.0699  1.2737
 3655TIP3    H210930   0.037   6.350   0.236  0.5495  0.5250  0.0049
 3656TIP3   OH210931   4.005   6.038   1.732 -0.4617  0.1455 -0.2286
 3656TIP3    H110932   4.009   5.953   1.776 -1.3933 -0.0345 -0.4602
 3656TIP3    H210933   4.074   6.034   1.665 -1.1899 -0.8620 -0.9553
 3657TIP3   OH210934   2.224   3.897   1.680  0.0559  0.0071 -0.0088
 3657TIP3    H110935   2.267   3.976   1.648  1.5633 -0.5889  0.4536
 3657TIP3    H210936   2.223   3.907   1.775  0.1376 -0.4726  0.0455
 3658TIP3   OH210937   1.303   3.285   1.539  0.2106 -0.0120  0.1693
 3658TIP3    H110938   1.237   3.221   1.511 -1.4932  1.8515 -0.2993
 3658TIP3    H210939   1.286   3.296   1.633 -1.4398  1.7577 -0.2634
 3659TIP3   OH210940   1.627   1.959   0.035 -0.1214  0.4370  0.4354
 3659TIP3    H110941   1.546   1.957   0.086 -0.7940  0.2528 -0.6276
 3659TIP3    H210942   1.606   1.913  -0.046  0.6128  1.6621 -0.4773
 3660TIP3   OH210943   5.501   1.644   1.044  0.0417  0.5636  0.4858
 3660TIP3    H110944   5.544   1.572   1.091 -0.4915  1.1114  1.8749
 3660TIP3    H210945   5.536   1.723   1.086 -0.3968  1.0722 -0.1019
 3661TIP3   OH210946   0.123   2.795   5.681 -0.0993 -0.4318  0.1247
 3661TIP3    H110947   0.045   2.741   5.668  0.0110 -0.8316  1.0211
 3661TIP3    H210948   0.100   2.880   5.644 -0.7052 -0.7447 -0.2405
 3662TIP3   OH210949   6.900   6.294   5.873 -0.1928  0.3455 -0.4135
 3662TIP3    H110950   6.926   6.231   5.940 -0.2915  0.9421  0.1999
 3662TIP3    H210951   6.862   6.241   5.803 -2.1016 -0.1490  0.9238
 3663TIP3   OH210952   5.734   5.415   4.535 -0.2585  0.6112  0.1367
 3663TIP3    H110953   5.703   5.471   4.464 -1.1555  0.5932  0.5023
 3663TIP3    H210954   5.666   5.348   4.543 -0.6308  1.1323  1.6065
 3664TIP3   OH210955   3.137   0.044   5.770  0.1144  0.6074 -0.2911
 3664TIP3    H110956   3.080  -0.017   5.817 -1.7595  3.7832  1.9161
 3664TIP3    H210957   3.221   0.038   5.817 -0.3811  0.4863  0.6056
 3665TIP3   OH210958   7.101   0.782   3.158 -0.5120 -0.1072  0.5312
 3665TIP3    H110959   7.029   0.843   3.141  0.3814  0.7169 -0.4513
 3665TIP3    H210960   7.062   0.695   3.148 -1.1569  0.3278 -1.1220
 3666TIP3   OH210961   3.306   3.545   3.092  0.1968  0.0511 -0.0770
 3666TIP3    H110962   3.212   3.534   3.078  0.5679 -1.2085 -1.9278
 3666TIP3    H210963   3.347   3.488   3.028  2.2514  0.2538  0.9600
 3667TIP3   OH210964   1.843   4.548   4.529 -0.8443  1.0368  0.3449
 3667TIP3    H110965   1.872   4.628   4.485 -0.0153  0.1510 -0.7819
 3667TIP3    H210966   1.907   4.482   4.502 -1.5981 -0.0402  1.1436
 3668TIP3   OH210967   0.836   4.311   5.355  0.1275 -0.2343  0.0013
 3668TIP3    H110968   0.760   4.277   5.308  0.0957 -0.9127  0.5297
 3668TIP3    H210969   0.822   4.284   5.446  1.4468 -1.1722 -0.0515
 3669TIP3   OH210970   2.117   5.756   3.132 -0.0711  0.1267  0.3401
 3669TIP3    H110971   2.209   5.781   3.139 -0.2504  0.3721  3.1964
 3669TIP3    H210972   2.069   5.839   3.129 -0.2387  0.1501 -4.9260
 3670TIP3   OH210973   7.199   0.424   3.160 -0.0859  0.0691 -0.5789
 3670TIP3    H110974   7.194   0.354   3.225  0.3301  1.0061  0.4772
 3670TIP3    H210975   7.130   0.485   3.185  0.4557  0.7291 -0.6695
 3671TIP3   OH210976   6.275   5.519   2.291  0.1013 -0.0424  0.6177
 3671TIP3    H110977   6.351   5.557   2.248 -0.3845  1.3311  0.9151
 3671TIP3    H210978   6.288   5.538   2.384 -0.2488 -0.4563  0.7578
 3672TIP3   OH210979   3.825   0.299   5.759 -0.6360  0.2672 -0.4071
 3672TIP3    H110980   3.898   0.239   5.754 -0.6588  0.3628 -2.3145
 3672TIP3    H210981   3.840   0.348   5.840 -0.0157 -1.4691  0.5848
 3673TIP3   OH210982   4.057   4.535   3.253  0.2645  0.2136  0.4829
 3673TIP3    H110983   4.066   4.608   3.193  0.9687 -0.8897 -0.8097
 3673TIP3    H210984   3.966   4.507   3.244  0.3460  0.1052 -0.0107
 3674TIP3   OH210985   0.911   6.048   5.243 -0.5084  0.0977 -0.5758
 3674TIP3    H110986   0.875   6.017   5.326 -0.7239 -0.0772 -0.7349
 3674TIP3    H210987   0.857   6.124   5.221 -0.8106 -0.1888 -0.8352
 3675TIP3   OH210988   3.370   4.109   2.892  0.0898  0.0417  0.4033
 3675TIP3    H110989   3.281   4.142   2.891  0.6166  1.5404 -0.9007
 3675TIP3    H210990   3.402   4.121   2.802  1.1570 -1.7590  0.4872
 3676TIP3   OH210991   4.766   0.360   0.330 -0.4941  0.4444 -0.0577
 3676TIP3    H110992   4.827   0.377   0.258 -1.3068 -0.8026 -1.0982
 3676TIP3    H210993   4.716   0.284   0.300 -2.0328  0.9739  1.0901
 3677TIP3   OH210994   4.774   2.276   4.482  0.2687 -0.1393  0.6342
 3677TIP3    H110995   4.756   2.352   4.538 -0.4480 -0.6247  1.0719
 3677TIP3    H210996   4.779   2.313   4.393 -1.0609  0.2866  0.7165
 3678TIP3   OH210997   3.834   4.189   3.383  0.4600 -0.3718 -0.0685
 3678TIP3    H110998   3.742   4.162   3.388  0.3793 -0.0517  0.1902
 3678TIP3    H210999   3.840   4.265   3.440  0.6266  0.3357 -1.0144
 3679TIP3   OH211000   6.783   4.915   0.517 -0.2845 -0.0775 -0.1269
 3679TIP3    H111001   6.841   4.850   0.557  3.9072  1.8662 -2.3279
 3679TIP3    H211002   6.735   4.953   0.590  0.8846 -2.1584  1.8556
 3680TIP3   OH211003   0.138   2.693   2.365  0.6352  0.1139 -0.5783
 3680TIP3    H111004   0.231   2.712   2.355  0.4037  0.1777 -3.4918
 3680TIP3    H211005   0.134   2.597   2.371  0.8828  0.1149 -0.3806
 3681TIP3   OH211006   0.170   4.245   1.260  0.3204 -0.4719 -0.1996
 3681TIP3    H111007   0.247   4.279   1.306 -0.5071  0.3617  0.6215
 3681TIP3    H211008   0.180   4.277   1.170  1.9717 -2.1341 -0.6733
 3682TIP3   OH211009   3.561   0.150   0.930 -0.0206 -0.5541 -0.1888
 3682TIP3    H111010   3.548   0.070   0.879 -0.2724 -1.6973  1.5905
 3682TIP3    H211011   3.472   0.178   0.954  0.0532  0.3697 -0.9199
 3683TIP3   OH211012   5.505   5.481   2.714  0.1338 -0.3023 -0.3950
 3683TIP3    H111013   5.551   5.552   2.758 -2.3436  1.6290 -0.6663
 3683TIP3    H211014   5.499   5.508   2.623  1.1680 -2.0442 -1.0289
 3684TIP3   OH211015   0.372   0.734   4.179 -0.2798 -0.3684  0.1632
 3684TIP3    H111016   0.374   0.641   4.157 -1.8732 -0.5002  0.4781
 3684TIP3    H211017   0.311   0.772   4.116 -0.3330  0.2945  0.6097
 3685TIP3   OH211018   5.330   3.159   3.603 -0.0778 -0.2049 -0.4977
 3685TIP3    H111019   5.336   3.123   3.692 -1.5114 -0.1773 -0.3646
 3685TIP3    H211020   5.251   3.213   3.604 -0.2569 -0.3957 -1.8495
 3686TIP3   OH211021   0.219   1.216   3.412 -0.1415 -0.2027 -0.0783
 3686TIP3    H111022   0.282   1.159   3.456  0.9311  1.2151  0.2825
 3686TIP3    H211023   0.154   1.156   3.375  0.2544 -1.5738  1.3485
 3687TIP3   OH211024   1.111   2.752   3.031  0.2531  0.2484 -0.1101
 3687TIP3    H111025   1.117   2.656   3.028 -0.3670  0.1402  1.3105
 3687TIP3    H211026   1.188   2.778   3.082 -0.1095  0.4148  0.3635
 3688TIP3   OH211027   1.403   5.888   1.033  0.6118  0.2798 -0.1353
 3688TIP3    H111028   1.484   5.860   0.990  0.7626 -0.6470  0.7103
 3688TIP3    H211029   1.412   5.983   1.040  0.0576  0.6554 -3.1124
 3689TIP3   OH211030   2.093   0.836   4.550  0.0778  0.0707 -0.0285
 3689TIP3    H111031   2.062   0.884   4.474  0.3777 -1.5888 -1.2502
 3689TIP3    H211032   2.098   0.902   4.620 -4.1416  0.9138 -0.2418
 3690TIP3   OH211033   7.072   2.703   1.915 -0.1906  0.1182  0.5860
 3690TIP3    H111034   7.065   2.629   1.976 -0.9679 -1.0477 -0.8786
 3690TIP3    H211035   6.982   2.732   1.901  0.0727  1.0858  0.7848
 3691TIP3   OH211036   0.750   3.343   5.770 -0.1579  0.7128  0.0695
 3691TIP3    H111037   0.741   3.368   5.863  0.3519  2.7533 -0.3809
 3691TIP3    H211038   0.663   3.360   5.733 -0.6383 -0.9966  0.3231
 3692TIP3   OH211039   6.806   2.786   1.863 -0.0507 -0.1412 -0.4862
 3692TIP3    H111040   6.717   2.761   1.839  0.1368 -0.1607 -1.1676
 3692TIP3    H211041   6.815   2.876   1.831 -0.4682  0.5640  1.2784
 3693TIP3   OH211042   1.157   6.562   3.866  0.0034  0.0942 -0.5470
 3693TIP3    H111043   1.145   6.544   3.773 -1.1825  0.3297 -0.4653
 3693TIP3    H211044   1.228   6.505   3.893  0.4787  0.1494 -1.6346
 3694TIP3   OH211045   3.610   3.452   2.048 -0.3645  0.2156 -0.2834
 3694TIP3    H111046   3.593   3.481   1.958 -0.8332  2.1772  0.3846
 3694TIP3    H211047   3.631   3.533   2.095  0.7432 -0.8783  1.1966
 3695TIP3   OH211048   3.128   1.265   4.882  0.0381 -0.5032 -0.2463
 3695TIP3    H111049   3.214   1.225   4.898  0.2157  0.3135  0.9982
 3695TIP3    H211050   3.068   1.219   4.940 -0.0135  0.0926  0.1879
 3696TIP3   OH211051   2.650   2.581   4.793 -0.4233 -0.0671  0.2792
 3696TIP3    H111052   2.674   2.669   4.822 -0.7620  0.0939  0.0753
 3696TIP3    H211053   2.563   2.567   4.829  0.0140 -0.6985  1.1179
 3697TIP3   OH211054   0.039   4.273   5.567  0.1186  0.2110 -0.1051
 3697TIP3    H111055  -0.018   4.265   5.644 -0.2894 -0.7537 -0.4966
 3697TIP3    H211056  -0.009   4.332   5.508 -1.6037 -2.2956 -1.3777
 3698TIP3   OH211057   6.118   2.555   0.935  0.7778  0.1680 -0.2190
 3698TIP3    H111058   6.173   2.483   0.966  1.0519 -0.0363 -1.1654
 3698TIP3    H211059   6.168   2.634   0.958 -0.7181  0.3016  3.3120
 3699TIP3   OH211060   0.228   0.221   1.749 -0.1743 -0.1917  0.4509
 3699TIP3    H111061   0.152   0.215   1.691  0.0011 -0.5359  0.2545
 3699TIP3    H211062   0.208   0.161   1.821  0.0472 -0.5167  0.2426
 3700TIP3   OH211063   1.627   5.577   1.789 -0.2434  0.6443 -0.7973
 3700TIP3    H111064   1.562   5.533   1.844  0.0151  0.6265 -0.5029
 3700TIP3    H211065   1.582   5.656   1.757  0.2817  1.8078  1.1899
 3701TIP3   OH211066   4.122   1.183   2.989  0.0737  0.2212 -0.3268
 3701TIP3    H111067   4.098   1.139   2.907 -1.3107  1.9775 -0.9226
 3701TIP3    H211068   4.126   1.276   2.966 -0.2745  0.7466  1.5734
 3702TIP3   OH211069   3.006   4.753   1.892  0.7405 -0.4158 -0.0080
 3702TIP3    H111070   3.086   4.801   1.912  1.3123 -1.1491 -0.4552
 3702TIP3    H211071   2.966   4.802   1.820  0.0420  0.7357  1.1174
 3703TIP3   OH211072   4.688   6.349   1.360  0.6363 -0.0004 -0.1979
 3703TIP3    H111073   4.641   6.431   1.348  1.5530  0.3946 -1.1688
 3703TIP3    H211074   4.627   6.294   1.410 -0.3860  0.9040 -0.4156
 3704TIP3   OH211075   0.277   5.822   4.926  0.3794  0.1025  0.0537
 3704TIP3    H111076   0.271   5.732   4.956  0.8781  0.1114  0.1877
 3704TIP3    H211077   0.348   5.822   4.862  0.5995  0.4652  0.2950
 3705TIP3   OH211078   5.600   0.299   1.457  0.2232  0.6074 -0.5519
 3705TIP3    H111079   5.538   0.228   1.473  0.2842  0.3255 -1.4858
 3705TIP3    H211080   5.601   0.350   1.538  0.3597 -0.5942  0.2170
 3706TIP3   OH211081   6.920   3.406   1.548 -0.0633 -0.0846 -0.2890
 3706TIP3    H111082   6.931   3.472   1.617 -0.4755  1.1753 -1.3916
 3706TIP3    H211083   7.009   3.383   1.523  0.1030  0.8135 -0.5749
 3707TIP3   OH211084   2.868   6.719   2.204  0.0545  0.6196 -0.0364
 3707TIP3    H111085   2.857   6.694   2.112  1.9468  2.1696 -0.7674
 3707TIP3    H211086   2.802   6.787   2.218 -0.6552 -0.0541 -0.0321
 3708TIP3   OH211087   6.541   1.590   5.784  0.2250  0.4561 -0.6945
 3708TIP3    H111088   6.472   1.523   5.788 -0.8977  1.4192 -2.5674
 3708TIP3    H211089   6.596   1.564   5.710  0.0259  1.3493 -1.1732
 3709TIP3   OH211090   4.471   4.284   2.691 -0.2509 -0.5434 -0.6566
 3709TIP3    H111091   4.500   4.250   2.606  0.5860 -0.6364 -0.3474
 3709TIP3    H211092   4.552   4.311   2.735 -0.5616 -1.4083  0.5095
 3710TIP3   OH211093   1.432   4.198   0.553 -0.2797 -0.2176 -0.3543
 3710TIP3    H111094   1.411   4.111   0.519  0.6735 -1.9243  2.9368
 3710TIP3    H211095   1.351   4.248   0.545 -1.5012 -2.1128 -0.4462
 3711TIP3   OH211096   3.477   4.607   2.606  0.6607  0.1041 -0.1488
 3711TIP3    H111097   3.497   4.685   2.658 -1.6116 -0.0924  1.1381
 3711TIP3    H211098   3.436   4.642   2.526 -1.4964  0.2818  0.9625
 3712TIP3   OH211099   0.456   1.958   1.403 -0.5598  0.4281 -0.5405
 3712TIP3    H111100   0.442   2.050   1.425 -1.8480  0.1818 -0.2576
 3712TIP3    H211101   0.401   1.943   1.326 -0.5111 -0.1529 -0.4668
 3713TIP3   OH211102   6.053   1.400   3.079  0.5794  0.1371 -0.1217
 3713TIP3    H111103   6.020   1.356   3.158  0.7177 -2.0130 -1.1781
 3713TIP3    H211104   6.075   1.489   3.108  1.0522 -0.7100  2.3756
 3714TIP3   OH211105   4.113   4.865   0.621  0.3380 -0.0737 -0.2449
 3714TIP3    H111106   4.077   4.795   0.568 -0.2110  1.0331 -1.3912
 3714TIP3    H211107   4.205   4.841   0.633  0.0330 -1.2493 -0.1337
 3715TIP3   OH211108   1.201   6.686   0.109  0.4357  0.0675  0.4090
 3715TIP3    H111109   1.198   6.677   0.014  0.0585  1.2726  0.2966
 3715TIP3    H211110   1.268   6.751   0.126  0.6862 -0.3308  0.9922
 3716TIP3   OH211111   1.119   3.070   1.841 -0.5382  0.1490  0.4323
 3716TIP3    H111112   1.101   2.982   1.875  0.1116  0.1347  0.7528
 3716TIP3    H211113   1.202   3.095   1.881  0.2841  0.1100 -1.1565
 3717TIP3   OH211114   0.150   2.040   5.045 -0.0463  0.6740 -0.3135
 3717TIP3    H111115   0.242   2.019   5.033 -0.3184 -0.3322 -0.6759
 3717TIP3    H211116   0.110   2.025   4.959 -0.0510  3.9183 -1.0044
 3718TIP3   OH211117   0.534   0.870   3.297  0.2611  0.2061  0.2355
 3718TIP3    H111118   0.531   0.775   3.294 -0.4082  0.1643  1.4897
 3718TIP3    H211119   0.624   0.890   3.324  0.4877 -0.0578 -0.3182
 3719TIP3   OH211120   5.378   2.163   4.243 -0.1250 -0.1669  0.0355
 3719TIP3    H111121   5.335   2.195   4.163  0.8415 -0.3875 -0.5893
 3719TIP3    H211122   5.470   2.185   4.230  0.0573 -0.3087  1.0535
 3720TIP3   OH211123   5.172   0.513   0.315  0.2318  0.1054  0.1000
 3720TIP3    H111124   5.098   0.463   0.280  1.2158 -0.3218 -1.5031
 3720TIP3    H211125   5.209   0.455   0.382 -0.8414  0.3178  0.9076
 3721TIP3   OH211126   4.124   1.449   2.942  0.1294  0.7181 -0.0009
 3721TIP3    H111127   4.038   1.490   2.945 -0.6388 -0.7745 -0.4419
 3721TIP3    H211128   4.186   1.521   2.929 -0.9434  1.9260  1.3251
 3722TIP3   OH211129   6.498   3.746   5.118  0.7234  0.2003  0.3744
 3722TIP3    H111130   6.410   3.730   5.083  1.1491 -2.3070  0.2865
 3722TIP3    H211131   6.557   3.701   5.058  2.1430  2.0551  0.2962
 3723TIP3   OH211132   1.291   0.068   5.023  0.4449 -0.0257 -0.2715
 3723TIP3    H111133   1.283   0.056   4.928 -0.8256  1.4508 -0.3878
 3723TIP3    H211134   1.381   0.097   5.035  0.6533 -0.3284 -1.0203
 3724TIP3   OH211135   2.499   1.096   0.377  0.0608 -0.0488  0.5980
 3724TIP3    H111136   2.560   1.090   0.450  2.8070 -3.1089 -1.6496
 3724TIP3    H211137   2.551   1.127   0.303 -1.1985 -1.9454 -1.2304
 3725TIP3   OH211138   4.580   3.263   2.857 -0.3180 -0.3312  0.2111
 3725TIP3    H111139   4.601   3.336   2.799  0.8507 -0.3863  0.5398
 3725TIP3    H211140   4.615   3.289   2.942 -1.0209 -0.7311  0.6295
 3726TIP3   OH211141   2.277   1.328   3.914 -0.1205  0.1378 -0.6838
 3726TIP3    H111142   2.304   1.309   4.004 -0.3827  2.3907 -0.0890
 3726TIP3    H211143   2.360   1.339   3.866  0.0226  0.4179 -0.3761
 3727TIP3   OH211144   4.442   6.781   4.686  0.0355  0.5009 -0.4836
 3727TIP3    H111145   4.472   6.692   4.666  0.5648  0.5598  0.0195
 3727TIP3    H211146   4.422   6.780   4.779  0.0729  0.9162 -0.4661
 3728TIP3   OH211147   6.656   5.215   0.013  0.0496  0.1651 -0.0677
 3728TIP3    H111148   6.637   5.153   0.083  4.5988 -0.8561  0.5903
 3728TIP3    H211149   6.644   5.301   0.054 -0.5725 -0.3741  0.9130
 3729TIP3   OH211150   0.296   0.083   4.587 -0.3825 -0.0830 -0.2617
 3729TIP3    H111151   0.348   0.063   4.665 -0.2258 -1.1751 -0.6294
 3729TIP3    H211152   0.241   0.156   4.613  0.5911  0.4151  0.4694
 3730TIP3   OH211153   6.528   0.541   1.866 -0.0641  0.2247 -0.4861
 3730TIP3    H111154   6.452   0.493   1.899  0.3635 -0.9493 -1.1286
 3730TIP3    H211155   6.492   0.604   1.804 -0.6385  0.7210  0.3346
 3731TIP3   OH211156   3.793   6.447   1.167 -0.2286 -0.5130  0.3237
 3731TIP3    H111157   3.882   6.426   1.139 -0.4588  0.3144 -1.1033
 3731TIP3    H211158   3.752   6.361   1.184  0.3935 -0.9636 -0.4176
 3732TIP3   OH211159   4.147   3.179   3.519 -0.6071 -0.2046  0.0496
 3732TIP3    H111160   4.071   3.159   3.573 -2.6822  1.4539 -2.0070
 3732TIP3    H211161   4.155   3.105   3.459 -1.0029 -0.1160 -0.1159
 3733TIP3   OH211162   6.636   3.556   3.055  0.2652  0.3363 -0.3670
 3733TIP3    H111163   6.591   3.641   3.058  1.1138  0.8103 -0.6855
 3733TIP3    H211164   6.592   3.503   3.121 -0.9684  0.6738 -0.8930
 3734TIP3   OH211165   4.591   5.213   2.232  0.2998 -0.4229  0.3136
 3734TIP3    H111166   4.680   5.201   2.263  0.5568  0.1618 -0.1791
 3734TIP3    H211167   4.549   5.266   2.300  0.8197  0.7338 -0.2383
 3735TIP3   OH211168   0.060   0.047   0.919  0.0415 -0.2452  0.5058
 3735TIP3    H111169   0.090   0.019   1.006 -1.7942 -1.3825  0.8249
 3735TIP3    H211170   0.085  -0.024   0.861  0.4756  0.1113  0.2502
 3736TIP3   OH211171   4.358   5.776   3.794  0.1187  0.0253  0.2298
 3736TIP3    H111172   4.435   5.772   3.737  0.3673 -0.4946  0.5921
 3736TIP3    H211173   4.316   5.691   3.783  0.6122 -0.3942  1.4234
 3737TIP3   OH211174   3.098   6.415   3.319  0.6660  0.3228 -0.0951
 3737TIP3    H111175   3.035   6.344   3.327  2.4713 -1.2285  1.5297
 3737TIP3    H211176   3.070   6.480   3.384  0.7295 -0.3933  0.6748
 3738TIP3   OH211177   3.657   1.134   0.260 -0.5284 -0.4721  0.3384
 3738TIP3    H111178   3.575   1.180   0.278 -0.1413 -0.1906  1.4572
 3738TIP3    H211179   3.682   1.095   0.344  0.6157 -0.3311  0.0873
 3739TIP3   OH211180   3.208   6.610   3.800 -0.1840 -0.3205  0.0331
 3739TIP3    H111181   3.200   6.692   3.750 -2.5657 -0.5829 -0.1237
 3739TIP3    H211182   3.258   6.552   3.743 -0.5968  0.2449 -0.9242
 3740TIP3   OH211183   1.594   3.855   4.103 -0.5055 -0.2090 -0.0257
 3740TIP3    H111184   1.604   3.896   4.018  1.1073 -0.4824  0.0104
 3740TIP3    H211185   1.612   3.925   4.166 -0.2046 -0.3751  0.0729
 3741TIP3   OH211186   0.802   6.586   4.354  0.0025 -0.1796  0.2740
 3741TIP3    H111187   0.889   6.623   4.341 -0.2174  0.5419  0.7696
 3741TIP3    H211188   0.756   6.605   4.272  0.4874 -1.1147 -0.2325
 3742TIP3   OH211189   2.484   6.698   3.068 -0.3653 -0.1426  0.0710
 3742TIP3    H111190   2.436   6.719   2.988  0.5210 -0.8470 -0.6808
 3742TIP3    H211191   2.565   6.657   3.037  0.3635  0.2969  1.3118
 3743TIP3   OH211192   3.179   0.769   1.232  0.0374 -0.4228 -0.3789
 3743TIP3    H111193   3.247   0.780   1.166 -0.5990 -0.9755 -1.1532
 3743TIP3    H211194   3.122   0.846   1.221 -0.2247 -0.6578 -0.6628
 3744TIP3   OH211195   4.543   5.073   5.486 -0.5481  0.5475  0.2832
 3744TIP3    H111196   4.596   5.060   5.408  0.2087 -0.6019  0.9668
 3744TIP3    H211197   4.591   5.138   5.537  0.1755 -0.4068  0.8478
 3745TIP3   OH211198   2.186   0.778   2.550  0.1548 -0.4411 -0.2861
 3745TIP3    H111199   2.146   0.783   2.637 -1.5987 -3.0408 -0.8277
 3745TIP3    H211200   2.280   0.782   2.567 -0.1576  1.1682  1.4822
 3746TIP3   OH211201   3.372   3.622   1.806  0.6284 -0.2833  0.3704
 3746TIP3    H111202   3.460   3.591   1.782  0.2800  0.4782 -2.1647
 3746TIP3    H211203   3.350   3.686   1.739 -1.8182 -0.3154  1.0560
 3747TIP3   OH211204   5.930   2.351   3.133 -0.0022  0.5160 -0.4124
 3747TIP3    H111205   5.915   2.445   3.129 -1.2690  0.3005 -2.9570
 3747TIP3    H211206   5.960   2.328   3.045 -0.0147 -1.5008  0.0592
 3748TIP3   OH211207   2.610   5.681   4.978 -0.0400  0.4521 -0.2515
 3748TIP3    H111208   2.618   5.772   4.949 -0.0720  0.7416  0.6178
 3748TIP3    H211209   2.696   5.642   4.961 -0.8488 -0.2641 -3.4933
 3749TIP3   OH211210   2.082   4.069   4.734  0.1201  0.1409 -0.0669
 3749TIP3    H111211   2.058   3.976   4.742  1.0950 -0.2012 -0.8828
 3749TIP3    H211212   2.092   4.083   4.640 -0.3873  1.1881  0.0185
 3750TIP3   OH211213   7.028   0.469   2.200 -0.1764 -0.4276  0.2855
 3750TIP3    H111214   7.085   0.537   2.166 -1.1007 -0.3090 -1.1040
 3750TIP3    H211215   6.999   0.503   2.285 -0.4670  0.8304 -0.2920
 3751TIP3   OH211216   0.790   2.490   3.698 -0.0184 -0.0513  0.2356
 3751TIP3    H111217   0.795   2.426   3.768  1.9958 -0.6903 -0.4232
 3751TIP3    H211218   0.881   2.509   3.676 -0.5409 -0.1502 -2.4079
 3752TIP3   OH211219   0.577   1.490   5.207 -0.2580 -0.2764 -0.1610
 3752TIP3    H111220   0.482   1.496   5.200 -0.3015 -1.2332 -0.5182
 3752TIP3    H211221   0.610   1.533   5.127 -0.2974  1.7802  0.8478
 3753TIP3   OH211222   6.762   3.597   3.847 -0.0667  0.1475  0.4228
 3753TIP3    H111223   6.727   3.552   3.923 -2.1565 -1.1648 -1.1934
 3753TIP3    H211224   6.689   3.650   3.814 -0.1675 -1.3892 -2.1264
 3754TIP3   OH211225   1.386   3.047   3.918 -0.1901  0.4407  0.4546
 3754TIP3    H111226   1.378   3.143   3.914  0.2431  0.4402 -1.0619
 3754TIP3    H211227   1.301   3.017   3.948 -0.7015  1.2523 -0.1393
 3755TIP3   OH211228   0.901   3.928   5.239  0.2629 -0.3476 -0.2770
 3755TIP3    H111229   0.909   3.845   5.286 -0.0130 -0.0366  0.3265
 3755TIP3    H211230   0.912   3.995   5.307 -1.6296  0.1108 -0.3857
 3756TIP3   OH211231   2.052   1.063   5.488 -0.5024  0.1386 -0.2184
 3756TIP3    H111232   2.075   1.080   5.580  0.2611 -0.1268 -0.3606
 3756TIP3    H211233   1.970   1.112   5.475 -1.1258 -0.5632  0.8661
 3757TIP3   OH211234   1.838   6.177   2.711  0.0142 -0.1483 -0.6267
 3757TIP3    H111235   1.797   6.091   2.700  1.6267 -0.9932 -0.3238
 3757TIP3    H211236   1.822   6.200   2.803  1.0228 -0.9227 -0.2445
 3758TIP3   OH211237   0.917   5.577   2.827  0.1910 -0.1062  0.0211
 3758TIP3    H111238   0.928   5.663   2.785  1.6084 -0.5177 -0.4773
 3758TIP3    H211239   0.823   5.558   2.817  0.1957  0.5462 -1.5120
 3759TIP3   OH211240   3.898   5.703   0.658 -0.1427 -0.0223  0.5522
 3759TIP3    H111241   3.806   5.728   0.660 -0.2685 -0.5078  1.3549
 3759TIP3    H211242   3.915   5.666   0.745  0.5048 -0.9999  0.0296
 3760TIP3   OH211243   6.020   5.016   2.796 -0.3963  0.0445 -0.0995
 3760TIP3    H111244   5.929   5.029   2.823 -0.2171  0.1473  0.4760
 3760TIP3    H211245   6.036   5.086   2.733 -0.9318 -0.4132 -0.7520
 3761TIP3   OH211246   3.307   2.790   2.735  0.7017 -0.9221  0.1346
 3761TIP3    H111247   3.305   2.729   2.661  1.0410 -0.2737 -0.4167
 3761TIP3    H211248   3.348   2.869   2.700 -2.0681  0.6076  0.1198
 3762TIP3   OH211249   5.434   1.996   1.747 -0.1183  0.4849  0.2783
 3762TIP3    H111250   5.357   2.010   1.692 -0.6054 -1.6917  0.3443
 3762TIP3    H211251   5.403   2.009   1.836  0.0983  1.5966  0.2074
 3763TIP3   OH211252   3.729   3.821   1.763  0.2819  0.5440  0.6947
 3763TIP3    H111253   3.694   3.910   1.757  1.7907  1.0813 -1.3432
 3763TIP3    H211254   3.802   3.828   1.825  0.9755  0.9682 -0.1484
 3764TIP3   OH211255   4.797   3.769   0.979  0.0507 -0.3863 -0.1681
 3764TIP3    H111256   4.824   3.682   0.950  0.2044 -0.7830  1.0934
 3764TIP3    H211257   4.877   3.821   0.976  0.2188 -0.6146  0.1772
 3765TIP3   OH211258   0.917   3.572   3.348 -0.0782  0.3116 -0.0522
 3765TIP3    H111259   0.941   3.508   3.281  2.3299  0.3523  0.6853
 3765TIP3    H211260   0.997   3.585   3.399 -0.2661  4.2273 -0.4046
 3766TIP3   OH211261   1.824   5.957   2.990 -0.4530 -0.4016 -0.5552
 3766TIP3    H111262   1.762   5.900   2.944 -2.0993  0.1266  0.8665
 3766TIP3    H211263   1.774   5.990   3.065  1.7845 -0.4971  1.0868
 3767TIP3   OH211264   5.415   3.989   0.109  0.7498 -0.0515  0.0725
 3767TIP3    H111265   5.416   3.909   0.162 -0.5685  0.3477  0.7414
 3767TIP3    H211266   5.391   3.959   0.021  0.6635 -0.4441  0.2282
 3768TIP3   OH211267   4.206   4.651   0.994 -0.2677  0.8225 -0.4297
 3768TIP3    H111268   4.298   4.633   0.974 -0.2083  1.6365 -0.9223
 3768TIP3    H211269   4.167   4.565   1.011  0.3795  0.3996 -1.0916
 3769TIP3   OH211270   0.884   1.534   0.620  0.0335 -0.1103  0.5592
 3769TIP3    H111271   0.893   1.458   0.677  0.1984  0.7718  1.7426
 3769TIP3    H211272   0.955   1.593   0.645  0.1208  0.3009 -0.5710
 3770TIP3   OH211273   6.884   3.206   5.590  0.1220 -0.0329  0.2021
 3770TIP3    H111274   6.886   3.257   5.672  0.9747  0.4354 -0.0941
 3770TIP3    H211275   6.930   3.125   5.611 -0.0773 -0.1212  0.3082
 3771TIP3   OH211276   2.552   3.406   3.660 -0.0868 -0.2216  0.0350
 3771TIP3    H111277   2.524   3.351   3.586 -0.2393 -0.7664  0.4876
 3771TIP3    H211278   2.647   3.394   3.664 -0.0746 -0.1693 -0.0900
 3772TIP3   OH211279   4.668   5.695   1.735 -0.1667 -0.0804  0.1682
 3772TIP3    H111280   4.652   5.748   1.813 -0.7873  0.0125 -0.0188
 3772TIP3    H211281   4.593   5.635   1.731 -0.8108  0.7703 -1.0649
 3773TIP3   OH211282   6.235   0.777   1.812  0.2565  0.2710 -0.2040
 3773TIP3    H111283   6.141   0.778   1.792  0.4097  2.0678 -1.0432
 3773TIP3    H211284   6.251   0.689   1.846 -1.5640 -0.3561 -0.8201
 3774TIP3   OH211285   1.205   4.130   5.045  0.5811  0.2051 -0.2572
 3774TIP3    H111286   1.182   4.040   5.021 -1.1569  1.0881 -2.3098
 3774TIP3    H211287   1.290   4.145   5.004  0.8400 -0.4582  0.0189
 3775TIP3   OH211288   1.067   0.843   5.423  0.0942 -0.0360 -0.3141
 3775TIP3    H111289   1.125   0.856   5.348  0.0975 -1.0088 -0.5014
 3775TIP3    H211290   0.982   0.821   5.384  0.4778 -2.1587 -0.0794
 3776TIP3   OH211291   5.893   3.458   2.298  0.3450  0.5282  0.0648
 3776TIP3    H111292   5.972   3.463   2.243  0.0208 -0.5962 -0.5241
 3776TIP3    H211293   5.884   3.365   2.319 -0.0559  0.8269  1.2872
 3777TIP3   OH211294   5.509   3.458   2.475  0.1835 -0.0274  0.2624
 3777TIP3    H111295   5.558   3.377   2.491  1.1076  0.8084  1.8717
 3777TIP3    H211296   5.527   3.513   2.551 -1.5780  1.1588 -0.1184
 3778TIP3   OH211297   2.701   1.680   0.423  0.1527  0.1817  0.1729
 3778TIP3    H111298   2.655   1.599   0.446 -0.8739  1.0310  1.2583
 3778TIP3    H211299   2.673   1.742   0.490  2.1817  1.0092  0.3029
 3779TIP3   OH211300   5.387   3.363   0.242  0.6895 -0.3735  0.1360
 3779TIP3    H111301   5.332   3.430   0.283 -1.4511 -1.8830 -0.0786
 3779TIP3    H211302   5.353   3.356   0.153  1.9195 -0.6823 -0.3305
 3780TIP3   OH211303   3.342   3.049   5.187 -0.0676  0.2058  0.3205
 3780TIP3    H111304   3.369   3.110   5.255  0.0912  0.3448  0.1365
 3780TIP3    H211305   3.247   3.057   5.183  0.0389  1.2989 -0.4884
 3781TIP3   OH211306   4.341   4.902   2.915 -0.3024 -0.4257 -0.7410
 3781TIP3    H111307   4.403   4.973   2.900 -0.8150  0.0279 -0.7542
 3781TIP3    H211308   4.372   4.830   2.859 -0.0828 -0.0326 -1.1285
 3782TIP3   OH211309   1.678   5.663   2.071 -0.3591  0.2783 -0.4622
 3782TIP3    H111310   1.616   5.605   2.115  1.1416  0.2032  1.7255
 3782TIP3    H211311   1.723   5.607   2.009 -0.2581 -0.4511  0.2550
 3783TIP3   OH211312   0.509   0.242   0.179 -0.0587 -0.4242  0.1841
 3783TIP3    H111313   0.498   0.157   0.221 -1.4437  0.0493  0.8083
 3783TIP3    H211314   0.574   0.287   0.233  0.0268 -0.7468  0.3549
 3784TIP3   OH211315   2.508   6.724   4.360  0.3152  0.1074  0.5838
 3784TIP3    H111316   2.476   6.636   4.383  2.3885 -1.0803 -0.7463
 3784TIP3    H211317   2.592   6.708   4.317  0.6727  2.7704  0.1473
 3785TIP3   OH211318   3.587   5.711   3.546  0.6749  0.6972  0.3356
 3785TIP3    H111319   3.510   5.724   3.601  0.4751  2.1361 -0.2357
 3785TIP3    H211320   3.609   5.618   3.556 -1.7229  0.0067 -0.2754
 3786TIP3   OH211321   2.497   0.339   1.431  0.0431 -0.6779  0.2406
 3786TIP3    H111322   2.488   0.409   1.495  1.0790  0.2580 -0.6151
 3786TIP3    H211323   2.587   0.309   1.439  0.5208  0.1674 -1.4574
 3787TIP3   OH211324   0.203   6.005   4.554  0.1256  0.0439 -0.2656
 3787TIP3    H111325   0.136   6.071   4.543  0.5408  0.6538  0.6794
 3787TIP3    H211326   0.278   6.037   4.504 -0.1866 -0.5080 -1.1077
 3788TIP3   OH211327   2.256   0.650   3.092 -0.1015 -0.2809 -0.3607
 3788TIP3    H111328   2.279   0.571   3.043 -1.1306  0.7580 -2.6881
 3788TIP3    H211329   2.264   0.721   3.028 -2.2693  1.0910  0.7560
 3789TIP3   OH211330   3.487   4.856   2.221  0.9594  0.1947  0.6704
 3789TIP3    H111331   3.473   4.780   2.276 -0.4449  1.1566  1.7073
 3789TIP3    H211332   3.416   4.916   2.243 -0.3714  0.2001 -2.9987
 3790TIP3   OH211333   3.147   6.722   3.026 -0.2748 -0.2538  0.2091
 3790TIP3    H111334   3.221   6.734   3.085  0.6378 -1.7529 -0.5775
 3790TIP3    H211335   3.185   6.686   2.946 -1.7471 -0.1966 -0.5544
 3791TIP3   OH211336   0.670   2.766   0.444 -0.0103  0.3132  0.1061
 3791TIP3    H111337   0.600   2.793   0.384  0.8598  1.2269 -0.5315
 3791TIP3    H211338   0.639   2.684   0.482 -0.9322  0.1150 -1.0160
 3792TIP3   OH211339   2.530   0.368   5.541  0.3694 -0.1672 -0.0574
 3792TIP3    H111340   2.538   0.288   5.488 -0.2203 -0.3261  0.0853
 3792TIP3    H211341   2.617   0.407   5.539  0.3662 -0.1744 -1.1423
 3793TIP3   OH211342   6.923   1.932   4.483  0.6692  0.2328  0.0370
 3793TIP3    H111343   6.864   1.999   4.449  1.8119  0.8787 -0.7514
 3793TIP3    H211344   6.974   1.977   4.551  0.5815 -0.1853  0.3860
 3794TIP3   OH211345   0.091   3.074   2.625  0.4085 -0.2922  0.2305
 3794TIP3    H111346   0.073   3.139   2.558  1.1029 -0.4343 -0.0996
 3794TIP3    H211347   0.154   3.117   2.684  1.8513 -1.0780 -0.6830
 3795TIP3   OH211348   3.880   5.469   4.050  0.1323  0.1476  0.4362
 3795TIP3    H111349   3.946   5.402   4.038 -0.6617 -0.6892  0.5801
 3795TIP3    H211350   3.806   5.441   3.995 -0.3288  0.7331  0.7370
 3796TIP3   OH211351   4.079   5.293   4.070  0.1426  0.4119 -0.4653
 3796TIP3    H111352   4.074   5.218   4.011  0.1677 -0.0879  0.1530
 3796TIP3    H211353   4.149   5.272   4.131  0.1106  0.9125 -0.2447
 3797TIP3   OH211354   4.725   0.454   4.595  0.4235 -0.4119  0.3470
 3797TIP3    H111355   4.665   0.519   4.632  1.6607  0.5802  0.6836
 3797TIP3    H211356   4.676   0.415   4.523 -0.0420  1.6054 -0.5072
 3798TIP3   OH211357   2.375   3.971   0.890  0.4023  0.1509 -0.0839
 3798TIP3    H111358   2.357   3.922   0.970  1.1277  0.5882  0.3608
 3798TIP3    H211359   2.305   3.945   0.830 -1.4973  1.4908  1.4191
 3799TIP3   OH211360   6.113   2.015   0.051 -0.3102 -0.5084  0.0079
 3799TIP3    H111361   6.072   2.066  -0.019 -1.1625 -1.3734 -0.1546
 3799TIP3    H211362   6.129   2.078   0.121 -5.1388 -0.5229  1.5314
 3800TIP3   OH211363   5.075   0.174   5.619  0.4464  0.3039  0.1334
 3800TIP3    H111364   5.053   0.106   5.555 -0.1459 -0.2874  0.9463
 3800TIP3    H211365   5.170   0.171   5.625  0.5030  0.2769 -0.6076
 3801TIP3   OH211366   3.780   2.245   0.174 -0.0994  0.3024 -0.1222
 3801TIP3    H111367   3.854   2.238   0.234  0.2143 -0.1232 -0.5417
 3801TIP3    H211368   3.732   2.162   0.184  1.8531 -1.3509 -2.8472
 3802TIP3   OH211369   1.020   2.877   4.825 -0.6355 -0.6967  0.0951
 3802TIP3    H111370   1.053   2.846   4.741 -0.2814 -2.4376  0.8382
 3802TIP3    H211371   0.964   2.952   4.802  0.4875 -0.2972 -1.5437
 3803TIP3   OH211372   1.265   1.134   2.793 -0.1188 -0.4865  0.2572
 3803TIP3    H111373   1.280   1.105   2.882  0.7297  1.6721  0.8967
 3803TIP3    H211374   1.229   1.058   2.748  0.5340 -1.9802  2.1259
 3804TIP3   OH211375   0.039   0.001   3.782  0.2665 -0.2053 -0.0442
 3804TIP3    H111376  -0.046  -0.031   3.813  0.6033 -1.2420 -0.1227
 3804TIP3    H211377   0.083   0.033   3.861  0.4229 -1.1889  0.2915
 3805TIP3   OH211378   1.452   4.517   5.487 -0.1174 -0.2605 -0.4931
 3805TIP3    H111379   1.405   4.581   5.542  1.9347  0.1762  0.8662
 3805TIP3    H211380   1.480   4.449   5.548 -0.1211 -1.1999 -1.5095
 3806TIP3   OH211381   4.620   5.739   0.331 -0.2007 -0.0927 -0.5459
 3806TIP3    H111382   4.576   5.720   0.413 -1.0400  1.7652 -0.5255
 3806TIP3    H211383   4.711   5.712   0.345 -0.9499 -2.6146 -0.0874
 3807TIP3   OH211384   4.843   4.011   2.415 -0.2339 -0.5260  0.6897
 3807TIP3    H111385   4.888   4.095   2.403  0.6016 -0.8389  1.5354
 3807TIP3    H211386   4.897   3.963   2.477  0.4265 -2.5187 -1.2888
 3808TIP3   OH211387   3.758   5.558   1.889  0.1467 -0.5130 -0.8275
 3808TIP3    H111388   3.766   5.650   1.865  2.9786 -0.4174  0.1296
 3808TIP3    H211389   3.771   5.557   1.984 -0.4966 -1.8463 -0.7379
 3809TIP3   OH211390   2.070   1.696   2.873  0.0261  0.3026 -0.6201
 3809TIP3    H111391   2.150   1.723   2.827  0.7267  0.4541  0.6472
 3809TIP3    H211392   2.101   1.663   2.958 -1.1287 -1.0495 -0.6811
 3810TIP3   OH211393   4.411   6.566   3.657  0.4299 -0.1737  0.5313
 3810TIP3    H111394   4.474   6.611   3.713  2.0068 -3.3212  1.5184
 3810TIP3    H211395   4.340   6.542   3.716  0.3239 -0.2993  0.3534
 3811TIP3   OH211396   1.987   2.118   4.618  0.0493  0.1682  0.4574
 3811TIP3    H111397   1.949   2.035   4.587  0.3575  0.0580  0.3591
 3811TIP3    H211398   2.041   2.147   4.544 -0.7099  0.8854  0.1786
 3812TIP3   OH211399   4.693   3.282   3.743 -0.2937 -0.7231  0.4333
 3812TIP3    H111400   4.757   3.353   3.736 -1.9471  0.6523 -3.7306
 3812TIP3    H211401   4.743   3.209   3.779  2.6457  1.2545  0.7541
 3813TIP3   OH211402   1.537   3.116   1.745  0.3476  0.3143  0.6810
 3813TIP3    H111403   1.467   3.063   1.706  1.9140 -1.0623 -0.4290
 3813TIP3    H211404   1.584   3.153   1.669  0.8889  1.1371  1.3952
 3814TIP3   OH211405   2.065   4.168   3.865 -0.6563 -0.2352  0.5441
 3814TIP3    H111406   2.147   4.180   3.817  0.6176 -1.7277  2.1974
 3814TIP3    H211407   2.070   4.230   3.937 -0.1018 -1.4855  1.6403
 3815TIP3   OH211408   1.341   5.083   5.415 -0.4063 -0.2994  0.0930
 3815TIP3    H111409   1.331   5.168   5.372  2.1344  0.5840  1.0684
 3815TIP3    H211410   1.346   5.021   5.342  0.0117  0.6899 -0.7606
 3816TIP3   OH211411   3.040   4.604   2.118  0.0347  0.0929  0.2796
 3816TIP3    H111412   2.969   4.651   2.161  1.3051  2.2021  0.2112
 3816TIP3    H211413   3.040   4.637   2.028  1.0033  0.0501  0.2485
 3817TIP3   OH211414   4.409   1.891   3.055 -0.4254 -0.4092 -0.0830
 3817TIP3    H111415   4.503   1.896   3.071 -0.2563 -3.2802  0.2974
 3817TIP3    H211416   4.369   1.940   3.127  0.7389 -1.7790  1.5823
 3818TIP3   OH211417   5.081   4.585   1.550 -0.2456  0.6216  0.5165
 3818TIP3    H111418   5.117   4.588   1.639 -0.5159 -0.3358  0.6725
 3818TIP3    H211419   4.997   4.630   1.556  0.0240  1.1219  0.5958
 3819TIP3   OH211420   4.108   4.900   0.883  0.1542  0.0389 -0.1049
 3819TIP3    H111421   4.086   4.885   0.791 -1.3015 -0.3153  0.2700
 3819TIP3    H211422   4.119   4.812   0.919  0.6121  0.1733  0.0914
 3820TIP3   OH211423   5.892   5.558   0.130  0.0887  0.0195  0.5617
 3820TIP3    H111424   5.843   5.634   0.160 -0.3043 -0.1022  0.2314
 3820TIP3    H211425   5.915   5.578   0.039 -0.0063 -0.2482  0.4774
 3821TIP3   OH211426   1.918   0.216   3.517  0.6055 -0.0924 -0.5086
 3821TIP3    H111427   1.981   0.144   3.515  1.3210  0.4810  0.6744
 3821TIP3    H211428   1.912   0.240   3.610  0.4534  1.4355 -0.8957
 3822TIP3   OH211429   7.077   1.981   1.249 -0.1324 -0.1730 -0.0951
 3822TIP3    H111430   7.086   2.015   1.160  0.2729 -0.0893 -0.0252
 3822TIP3    H211431   7.069   2.059   1.304  2.0966 -0.0995  0.2123
 3823TIP3   OH211432   5.524   0.734   5.345  0.2067  0.0014 -0.2790
 3823TIP3    H111433   5.443   0.692   5.316  0.0214  0.8153 -0.9808
 3823TIP3    H211434   5.569   0.759   5.264  1.3872 -0.8248  0.0889
 3824TIP3   OH211435   6.330   4.332   0.299  0.4183  0.3622 -0.0275
 3824TIP3    H111436   6.366   4.306   0.383 -0.6610 -0.8941  0.0799
 3824TIP3    H211437   6.272   4.406   0.319 -1.4978 -1.2420  0.7382
 3825TIP3   OH211438   0.382   1.793   1.605 -0.2492 -0.2548 -0.1390
 3825TIP3    H111439   0.407   1.833   1.522 -1.2674 -1.3995 -1.0228
 3825TIP3    H211440   0.459   1.743   1.632  0.1087  0.1759 -0.3555
 3826TIP3   OH211441   6.833   2.138   3.428 -0.2938  0.1568 -0.1595
 3826TIP3    H111442   6.834   2.046   3.456  2.1279  0.1133 -0.2490
 3826TIP3    H211443   6.825   2.188   3.509  0.3826 -0.0892  0.0568
 3827TIP3   OH211444   6.254   3.762   4.996 -0.2076  0.2968 -0.1948
 3827TIP3    H111445   6.247   3.821   5.071 -1.4606 -0.2396  0.1225
 3827TIP3    H211446   6.169   3.769   4.952 -0.9905 -2.3934  0.7144
 3828TIP3   OH211447   4.553   6.485   4.095  0.2545  0.1049 -0.1283
 3828TIP3    H111448   4.520   6.398   4.075 -2.0463  1.0952 -0.9365
 3828TIP3    H211449   4.617   6.471   4.165 -0.8294 -2.1073  0.5080
 3829TIP3   OH211450   2.159   2.137   0.994 -0.2096  0.2611 -0.4483
 3829TIP3    H111451   2.192   2.187   0.919  0.3177 -0.0496 -0.4280
 3829TIP3    H211452   2.084   2.089   0.960 -0.5852  0.8942 -0.5255
 3830TIP3   OH211453   5.955   3.767   0.702  0.0721  0.9427 -0.2614
 3830TIP3    H111454   5.951   3.735   0.612  0.2837 -0.2814  0.1408
 3830TIP3    H211455   5.921   3.695   0.754 -0.6391  1.8781  0.5999
 3831TIP3   OH211456   1.738   4.613   2.466  0.3287  0.4086  0.0111
 3831TIP3    H111457   1.724   4.707   2.478  1.1705  0.4259  1.0196
 3831TIP3    H211458   1.832   4.605   2.447  0.1608 -0.1902 -0.6174
 3832TIP3   OH211459   2.229   6.217   5.189  0.5240  0.7500  0.7244
 3832TIP3    H111460   2.309   6.254   5.153 -0.2719  2.0398  0.2124
 3832TIP3    H211461   2.166   6.223   5.117  0.0995 -0.7448  0.9423
 3833TIP3   OH211462   2.567   0.788   3.145 -0.1966 -0.1251  0.3725
 3833TIP3    H111463   2.610   0.725   3.087 -0.6591 -1.6836  1.6600
 3833TIP3    H211464   2.572   0.871   3.098  0.8229 -1.0245 -1.1865
 3834TIP3   OH211465   2.985   2.053   4.639 -0.4533  0.7531 -0.1687
 3834TIP3    H111466   3.006   2.105   4.717  0.1921  1.1314 -0.5918
 3834TIP3    H211467   2.890   2.056   4.634 -0.5201  0.5807  0.7059
 3835TIP3   OH211468   7.148   3.800   3.991 -0.4320  0.1109  0.7623
 3835TIP3    H111469   7.150   3.853   3.911 -1.5010 -2.0510 -0.7971
 3835TIP3    H211470   7.178   3.714   3.963 -0.4447 -0.6219  2.8197
 3836TIP3   OH211471   4.147   6.031   3.320 -0.3614  0.3106 -1.0463
 3836TIP3    H111472   4.179   5.968   3.257 -0.6920 -1.1046  0.1491
 3836TIP3    H211473   4.187   6.006   3.403 -1.8018  0.6102 -0.2096
 3837TIP3   OH211474   0.667   3.343   2.272  0.1997  0.3062  0.2249
 3837TIP3    H111475   0.610   3.270   2.250  0.7083  0.3069 -1.2355
 3837TIP3    H211476   0.616   3.421   2.250 -0.8831  0.5217  3.0830
 3838TIP3   OH211477   0.261   0.517   3.228 -0.5159 -0.4346  0.4323
 3838TIP3    H111478   0.177   0.471   3.233 -0.9959  0.2739 -0.5709
 3838TIP3    H211479   0.315   0.477   3.296 -1.6647 -0.9080  1.0954
 3839TIP3   OH211480   0.117   4.406   4.099  0.8158  0.0983 -0.3072
 3839TIP3    H111481   0.076   4.486   4.065  0.5701 -0.5784 -1.6597
 3839TIP3    H211482   0.189   4.389   4.039  0.0622 -1.4075 -0.8284
 3840TIP3   OH211483   3.411   4.928   3.027  0.0986  0.0342  0.0009
 3840TIP3    H111484   3.345   4.987   3.065 -0.4391 -0.8786  0.5182
 3840TIP3    H211485   3.470   4.986   2.979 -0.1303  1.0532  0.9069
 3841TIP3   OH211486   3.673   6.125   3.070 -0.2280  0.0418 -0.0684
 3841TIP3    H111487   3.662   6.154   3.160 -0.4955  0.3890 -0.2130
 3841TIP3    H211488   3.767   6.131   3.054 -0.1837  0.0000  0.1786
 3842TIP3   OH211489   7.038   2.287   3.117 -0.0900 -0.5118 -0.1178
 3842TIP3    H111490   6.963   2.316   3.168  1.4340  4.1246  0.0022
 3842TIP3    H211491   7.101   2.256   3.182 -0.8527 -1.9129 -0.0024
 3843TIP3   OH211492   5.435   3.078   0.233  0.2069  0.5294  0.3052
 3843TIP3    H111493   5.395   3.165   0.242  2.1968  1.5457 -0.0871
 3843TIP3    H211494   5.499   3.074   0.304  0.7907 -0.2295 -0.2500
 3844TIP3   OH211495   6.318   0.911   5.346 -0.8980  0.0551  0.0641
 3844TIP3    H111496   6.265   0.973   5.296 -0.5971  1.8020  1.7627
 3844TIP3    H211497   6.398   0.901   5.294 -1.6200 -0.1919 -1.0257
 3845TIP3   OH211498   6.760   3.925   2.796 -0.1803 -0.4893 -0.4482
 3845TIP3    H111499   6.851   3.917   2.827  0.3380  1.2657 -1.3908
 3845TIP3    H211500   6.769   3.937   2.702 -1.2029  2.1925 -0.2812
 3846TIP3   OH211501   3.352   1.888   4.281 -0.0715 -0.1189 -0.0875
 3846TIP3    H111502   3.286   1.956   4.295 -1.2001 -0.3325 -3.5657
 3846TIP3    H211503   3.432   1.937   4.260 -0.5486  0.1613 -1.2942
 3847TIP3   OH211504   4.171   5.250   3.641  0.5383 -0.4338 -0.7538
 3847TIP3    H111505   4.248   5.218   3.687 -0.9889 -2.1420  0.8342
 3847TIP3    H211506   4.134   5.173   3.599 -0.3371  0.3282 -1.4328
 3848TIP3   OH211507   6.810   5.319   3.435 -0.0252  0.4321 -0.4462
 3848TIP3    H111508   6.850   5.348   3.353 -0.0932 -0.1294 -0.6865
 3848TIP3    H211509   6.856   5.367   3.503  1.7311 -0.8583 -0.6429
 3849TIP3   OH211510   3.317   4.054   1.762  0.2492  0.2007 -0.1883
 3849TIP3    H111511   3.317   3.973   1.710 -0.1451 -0.0690  0.2200
 3849TIP3    H211512   3.329   4.024   1.852 -0.8902  0.5118  0.0870
 3850TIP3   OH211513   2.678   1.077   4.387  0.1931 -0.3534 -0.4305
 3850TIP3    H111514   2.734   1.154   4.399  1.7705 -1.3943 -0.7769
 3850TIP3    H211515   2.648   1.056   4.475  1.6544 -0.6994  0.0064
 3851TIP3   OH211516   1.872   3.721   1.762 -0.5862  0.0735 -0.1767
 3851TIP3    H111517   1.798   3.666   1.734  1.2202 -1.4549 -2.2720
 3851TIP3    H211518   1.905   3.759   1.681  0.5667  1.2186  0.8028
 3852TIP3   OH211519   3.298   2.660   3.202 -0.0123  0.6140 -0.5582
 3852TIP3    H111520   3.268   2.750   3.208 -0.0570  0.4992  2.1440
 3852TIP3    H211521   3.235   2.610   3.253  0.6210 -0.7820 -1.0835
 3853TIP3   OH211522   1.978   5.517   0.180  0.3096  0.0863  0.1899
 3853TIP3    H111523   1.910   5.543   0.118 -0.0298  2.6433  1.4949
 3853TIP3    H211524   2.059   5.554   0.144  0.0834  1.7409  1.2626
 3854TIP3   OH211525   3.809   6.464   2.026  0.3462  0.1239 -0.1661
 3854TIP3    H111526   3.812   6.389   2.085  0.4625  0.4755  0.2747
 3854TIP3    H211527   3.763   6.432   1.949 -0.5690 -0.0896  0.4598
 3855TIP3   OH211528   4.397   1.327   4.370  0.1558  0.4472 -0.0655
 3855TIP3    H111529   4.389   1.422   4.381 -0.9532  0.5394 -1.3496
 3855TIP3    H211530   4.483   1.315   4.330  0.5266  0.8610  0.5930
 3856TIP3   OH211531   0.170   1.016   5.449  0.4251 -0.0745 -0.1230
 3856TIP3    H111532   0.235   0.948   5.431  2.0149  1.6130 -1.0686
 3856TIP3    H211533   0.148   1.052   5.364  0.1204  1.0315  0.3962
 3857TIP3   OH211534   3.092   3.370   2.187 -0.4735  0.1274  0.7291
 3857TIP3    H111535   3.092   3.275   2.196 -0.0189  0.1331  0.7748
 3857TIP3    H211536   3.042   3.386   2.107  1.7502 -0.2984 -0.8178
 3858TIP3   OH211537   4.929   4.794   0.344 -0.8345 -0.7109 -0.3493
 3858TIP3    H111538   4.985   4.716   0.339  1.5436  0.5284  2.7917
 3858TIP3    H211539   4.965   4.853   0.277 -1.1995 -1.4692 -1.2336
 3859TIP3   OH211540   1.167   4.997   3.919 -0.3281  0.3220  0.2534
 3859TIP3    H111541   1.246   4.970   3.965 -1.1248 -0.8298  1.0109
 3859TIP3    H211542   1.105   5.018   3.989 -1.2771 -0.6058 -0.2801
 3860TIP3   OH211543   2.284   5.799   5.151  0.7200  0.5234 -0.1295
 3860TIP3    H111544   2.286   5.869   5.086  0.2557 -1.1007 -1.9853
 3860TIP3    H211545   2.225   5.832   5.219  1.4630  2.4003 -0.3172
 3861TIP3   OH211546   4.684   2.826   1.990  0.1602  0.5485  0.0076
 3861TIP3    H111547   4.704   2.846   1.899  0.2565 -0.4824 -0.2033
 3861TIP3    H211548   4.687   2.731   1.996 -1.1574  0.5295  0.7886
 3862TIP3   OH211549   3.978   5.299   2.964 -0.4601 -0.6196  0.4657
 3862TIP3    H111550   4.057   5.309   2.910 -0.8442  0.3092  0.0483
 3862TIP3    H211551   4.008   5.317   3.053 -0.0211 -1.1888  0.4424
 3863TIP3   OH211552   6.503   1.481   1.164 -0.1647 -0.1377  0.1763
 3863TIP3    H111553   6.556   1.409   1.198 -0.7487 -0.1820  1.0136
 3863TIP3    H211554   6.521   1.482   1.070 -2.0948 -3.1046 -0.3678
 3864TIP3   OH211555   3.611   6.106   0.031  0.4090  0.0991 -0.2652
 3864TIP3    H111556   3.570   6.116  -0.055 -0.7117 -0.8447  0.1311
 3864TIP3    H211557   3.612   6.012   0.047 -1.2749  0.3119  1.5861
 3865TIP3   OH211558   3.460   6.286   2.552  1.1632  0.5252  0.1935
 3865TIP3    H111559   3.498   6.373   2.543  0.8818  0.5128 -1.5149
 3865TIP3    H211560   3.420   6.269   2.466  0.9077 -1.1391  0.6161
 3866TIP3   OH211561   0.152   1.742   0.877  0.4736  0.6344  0.7777
 3866TIP3    H111562   0.214   1.771   0.944  0.2459 -2.0620  2.2771
 3866TIP3    H211563   0.076   1.712   0.926 -1.9318  3.3128 -0.9995
 3867TIP3   OH211564   5.441   0.037   5.078  0.3966  0.4261 -0.5933
 3867TIP3    H111565   5.493   0.035   4.997 -0.6956 -2.5302 -1.3384
 3867TIP3    H211566   5.505   0.021   5.147  0.8917 -0.3478 -1.2100
 3868TIP3   OH211567   6.083   4.065   4.208 -0.0612  0.3637 -0.2112
 3868TIP3    H111568   6.165   4.113   4.225 -0.0284  0.6716 -1.1929
 3868TIP3    H211569   6.052   4.041   4.295  0.4833  1.2396  0.2455
 3869TIP3   OH211570   5.860   1.740   1.949 -0.2571  0.0512 -0.1934
 3869TIP3    H111571   5.910   1.733   2.030  0.1043  1.0080 -0.3229
 3869TIP3    H211572   5.770   1.758   1.978 -0.1231  0.4200 -0.0050
 3870TIP3   OH211573   2.065   4.545   5.243 -0.2261 -0.0599 -0.2295
 3870TIP3    H111574   2.063   4.458   5.203 -0.0014 -0.2137  0.0840
 3870TIP3    H211575   1.991   4.592   5.205  0.2895 -0.0297 -1.2116
 3871TIP3   OH211576   4.819   4.448   0.733  0.1532  0.8103 -0.6496
 3871TIP3    H111577   4.750   4.415   0.791 -0.2242  2.9249  0.1920
 3871TIP3    H211578   4.784   4.530   0.698  2.0141  1.6876 -0.5829
 3872TIP3   OH211579   2.391   5.424   3.712  0.3213  0.3976  0.1472
 3872TIP3    H111580   2.363   5.343   3.669 -1.5877  0.7420  0.6593
 3872TIP3    H211581   2.485   5.413   3.724  0.1755 -1.5691 -0.1559
 3873TIP3   OH211582   2.546   1.609   4.978 -0.3080 -0.4489 -0.5389
 3873TIP3    H111583   2.515   1.626   5.067  0.6954  0.0074 -0.2671
 3873TIP3    H211584   2.471   1.632   4.923 -1.1113 -1.2261  0.2051
 3874TIP3   OH211585   7.159   2.087   5.605  0.1248  0.3936 -0.1459
 3874TIP3    H111586   7.148   2.124   5.518 -1.0075  0.2163 -0.0975
 3874TIP3    H211587   7.143   1.993   5.593  2.4011 -0.0432 -0.1701
 3875TIP3   OH211588   2.782   0.439   2.279 -0.2403 -0.4507 -0.0138
 3875TIP3    H111589   2.747   0.525   2.253  0.1421 -0.7476 -1.6234
 3875TIP3    H211590   2.709   0.397   2.325 -0.7486  0.3612 -0.0388
 3876TIP3   OH211591   6.666   0.043   5.865 -0.2478  0.1011 -0.3745
 3876TIP3    H111592   6.679  -0.034   5.809  0.3544  0.7229 -1.1072
 3876TIP3    H211593   6.624   0.107   5.807  1.5394  1.2059 -0.4989
 3877TIP3   OH211594   2.538   4.626   3.183 -0.7746  0.2046 -0.4331
 3877TIP3    H111595   2.455   4.579   3.170  0.2597 -1.4465 -1.5292
 3877TIP3    H211596   2.582   4.619   3.098  2.3885 -2.9501  1.2219
 3878TIP3   OH211597   0.313   4.647   0.132  0.4835 -0.1536 -0.2587
 3878TIP3    H111598   0.238   4.661   0.074  1.3443 -0.1956 -1.4130
 3878TIP3    H211599   0.328   4.553   0.129  2.0384  0.1048 -1.9434
 3879TIP3   OH211600   7.074   5.145   5.409  0.0453 -0.4490  0.3568
 3879TIP3    H111601   7.094   5.231   5.444 -0.6813 -0.9188  2.0044
 3879TIP3    H211602   6.980   5.147   5.390 -0.0613 -0.9809  0.7775
 3880TIP3   OH211603   2.716   3.518   1.938 -0.1258  0.4743 -0.2540
 3880TIP3    H111604   2.706   3.608   1.907 -0.6517  0.5789  0.2181
 3880TIP3    H211605   2.661   3.466   1.879 -0.2914  0.5360 -0.1524
 3881TIP3   OH211606   3.746   6.715   1.230  0.0532  0.3433  0.1298
 3881TIP3    H111607   3.661   6.690   1.268 -0.0544 -0.7133 -0.7709
 3881TIP3    H211608   3.784   6.633   1.200  1.5911  0.7523  0.8722
 3882TIP3   OH211609   3.105   2.315   0.849 -0.2683  0.2332  0.1524
 3882TIP3    H111610   3.177   2.297   0.908 -1.2374 -2.2654  0.7375
 3882TIP3    H211611   3.050   2.379   0.895 -0.4824 -0.9058  1.5471
 3883TIP3   OH211612   5.680   6.176   3.344  0.1746 -0.1412  0.1868
 3883TIP3    H111613   5.730   6.250   3.379  0.6796 -0.3804 -0.0132
 3883TIP3    H211614   5.593   6.186   3.382 -0.0097  1.0284 -0.5067
 3884TIP3   OH211615   4.334   2.432   3.372  0.4145 -0.2021 -0.2332
 3884TIP3    H111616   4.426   2.444   3.349  0.2105 -0.7123 -1.3562
 3884TIP3    H211617   4.285   2.456   3.293 -0.3978 -0.3871  0.1941
 3885TIP3   OH211618   0.424   6.029   2.910 -0.5332 -0.2124  0.0159
 3885TIP3    H111619   0.445   6.068   2.994 -0.9452  1.4665 -0.6208
 3885TIP3    H211620   0.377   6.097   2.862 -1.9020 -1.7132 -0.9296
 3886TIP3   OH211621   2.579   0.176   4.055 -0.4109  0.4427  0.1744
 3886TIP3    H111622   2.507   0.238   4.042  0.1011  0.7069 -1.6028
 3886TIP3    H211623   2.551   0.097   4.009  0.0921  0.2802  0.1481
 3887TIP3   OH211624   6.544   2.728   1.856 -0.2939  0.1302 -0.1514
 3887TIP3    H111625   6.508   2.817   1.849  0.9584  0.6974  0.1554
 3887TIP3    H211626   6.468   2.671   1.859 -1.1228  1.0961 -1.5335
 3888TIP3   OH211627   7.099   6.511   4.424 -0.0032 -0.2852  0.4145
 3888TIP3    H111628   7.182   6.513   4.472 -0.5688 -0.3244  1.4342
 3888TIP3    H211629   7.033   6.536   4.490 -0.7718 -0.0163 -0.4314
 3889TIP3   OH211630   0.225   3.132   3.281 -0.2657  0.3188  0.4159
 3889TIP3    H111631   0.312   3.148   3.319 -0.3814 -1.1651  1.3896
 3889TIP3    H211632   0.242   3.123   3.187  0.5350  0.6889  0.5147
 3890TIP3   OH211633   5.773   6.195   4.855 -0.5151 -0.0323  0.1339
 3890TIP3    H111634   5.746   6.259   4.789 -0.2923 -1.6791 -1.6628
 3890TIP3    H211635   5.864   6.218   4.875 -0.2764 -0.0482 -0.8697
 3891TIP3   OH211636   6.410   3.006   5.812 -0.4304 -0.3558 -0.1152
 3891TIP3    H111637   6.403   3.025   5.905  1.1168 -1.6986  0.3329
 3891TIP3    H211638   6.439   3.088   5.772  2.5170 -0.6459  1.1869
 3892TIP3   OH211639   4.046   2.579   0.854  0.5691  0.3395 -0.0879
 3892TIP3    H111640   4.039   2.602   0.946 -0.2651 -0.9665  0.2027
 3892TIP3    H211641   3.976   2.629   0.811 -0.1340 -0.3377  0.2619
 3893TIP3   OH211642   6.704   0.477   3.651  0.2139 -0.4517 -0.1325
 3893TIP3    H111643   6.750   0.510   3.727 -2.8657  3.0931  0.4751
 3893TIP3    H211644   6.668   0.392   3.679  1.6949 -0.6750  1.2009
 3894TIP3   OH211645   2.226   3.456   3.391  0.1380  0.4472  0.8852
 3894TIP3    H111646   2.299   3.401   3.420  1.0595  1.5535  0.7129
 3894TIP3    H211647   2.244   3.542   3.427 -1.0554  0.7655  0.7774
 3895TIP3   OH211648   0.489   1.081   0.603  0.2683  0.2807  0.3592
 3895TIP3    H111649   0.545   1.130   0.663  0.2792  0.6632  0.0405
 3895TIP3    H211650   0.407   1.070   0.651  0.4111  0.2327  0.5980
 3896TIP3   OH211651   1.422   3.664   5.560 -0.8854 -0.6551  0.8638
 3896TIP3    H111652   1.327   3.655   5.559 -0.8059 -1.5635 -0.1623
 3896TIP3    H211653   1.440   3.737   5.500 -0.8253 -2.1805 -1.0819
 3897TIP3   OH211654   5.064   2.366   2.801 -0.0538  0.2007  0.1131
 3897TIP3    H111655   5.155   2.382   2.774 -0.3236 -0.5795 -1.3601
 3897TIP3    H211656   5.071   2.335   2.892  1.0722  0.9395  0.2993
 3898TIP3   OH211657   2.662   2.845   4.868 -0.0531  0.3594 -0.2650
 3898TIP3    H111658   2.710   2.900   4.807  0.3560 -0.0405 -0.3110
 3898TIP3    H211659   2.607   2.906   4.917 -1.3123  0.5601 -1.8459
 3899TIP3   OH211660   2.122   6.274   2.116 -0.4570  0.3770 -0.3194
 3899TIP3    H111661   2.106   6.367   2.101 -2.0990  0.2533  0.5281
 3899TIP3    H211662   2.051   6.245   2.173  0.0037 -1.4136 -0.5752
 3900TIP3   OH211663   4.245   4.177   5.447 -0.4658 -0.2833 -0.0932
 3900TIP3    H111664   4.293   4.259   5.431  0.8562 -1.5503 -3.4289
 3900TIP3    H211665   4.302   4.128   5.507 -0.7208  0.7083  1.0058
 3901TIP3   OH211666   6.967   2.080   0.138 -0.1951 -0.4251 -0.1098
 3901TIP3    H111667   6.942   2.127   0.059  1.2008  1.3473  0.4287
 3901TIP3    H211668   7.057   2.108   0.155  0.1143 -2.0333  1.2088
 3902TIP3   OH211669   4.566   3.152   3.234  0.6457  0.4524  0.1361
 3902TIP3    H111670   4.504   3.218   3.266  1.3722  0.8298  0.7910
 3902TIP3    H211671   4.622   3.133   3.309 -0.0686 -1.5550  0.2235
 3903TIP3   OH211672   5.183   3.654   4.311 -0.6022 -0.1597  0.3364
 3903TIP3    H111673   5.213   3.607   4.389 -0.3462  1.1902  1.0809
 3903TIP3    H211674   5.136   3.730   4.345 -1.7977 -0.3397 -0.8366
 3904TIP3   OH211675   1.213   5.376   2.005 -0.4584 -0.4946 -0.6274
 3904TIP3    H111676   1.229   5.292   1.961  0.5212 -0.5782 -0.1303
 3904TIP3    H211677   1.143   5.358   2.067  1.3758 -1.6161  1.2530
 3905TIP3   OH211678   2.081   4.176   1.354  0.0399  0.1255  0.0835
 3905TIP3    H111679   1.989   4.174   1.383 -0.0045 -2.0210 -0.0937
 3905TIP3    H211680   2.077   4.212   1.265 -1.0999 -2.8771 -1.2142
 3906TIP3   OH211681   5.920   2.623   2.133 -0.2289 -0.2255 -0.7269
 3906TIP3    H111682   5.878   2.555   2.080  0.8080  0.3565 -2.3763
 3906TIP3    H211683   5.897   2.705   2.088  2.2491  0.1520 -1.4406
 3907TIP3   OH211684   2.737   2.436  -0.022 -0.3158  0.4015 -0.1271
 3907TIP3    H111685   2.644   2.415  -0.025 -0.2478 -0.0030  0.3672
 3907TIP3    H211686   2.754   2.454   0.071 -0.5321  3.4333 -0.5836
 3908TIP3   OH211687   0.123   1.644   4.946  0.5799 -0.0199  0.1632
 3908TIP3    H111688   0.089   1.575   5.004  1.1790 -0.7517 -0.3315
 3908TIP3    H211689   0.216   1.648   4.966  0.7007  0.0593 -0.4022
 3909TIP3   OH211690   5.724   3.801   3.532  0.1196 -0.8310  0.3445
 3909TIP3    H111691   5.716   3.706   3.524  0.9947 -0.8517 -0.4518
 3909TIP3    H211692   5.790   3.814   3.601  0.8512 -0.8365 -0.3358
 3910TIP3   OH211693   3.004   4.209   2.323 -0.5504  0.1797 -0.9061
 3910TIP3    H111694   2.914   4.233   2.342 -0.4840 -0.3091  0.1002
 3910TIP3    H211695   3.020   4.243   2.235 -1.2177  1.6471 -0.4908
 3911TIP3   OH211696   4.208   1.934   0.875  0.5362 -0.1676 -0.2405
 3911TIP3    H111697   4.185   1.917   0.966  0.6286 -1.2015 -0.4000
 3911TIP3    H211698   4.304   1.932   0.875  0.5213 -1.8627 -0.6523
 3912TIP3   OH211699   3.228   2.744   3.474 -0.2069 -0.2534 -0.1901
 3912TIP3    H111700   3.187   2.822   3.437 -1.6013  0.0013  1.7286
 3912TIP3    H211701   3.164   2.674   3.460  0.1337 -0.5914 -0.0777
 3913TIP3   OH211702   0.731   1.807   4.777 -0.2677  0.1696  1.1040
 3913TIP3    H111703   0.807   1.773   4.731  0.0037 -0.8821  2.2715
 3913TIP3    H211704   0.703   1.883   4.725  0.5848 -0.3953 -0.2218
 3914TIP3   OH211705   3.283   1.435   5.132 -0.6883 -0.3204  0.1910
 3914TIP3    H111706   3.327   1.404   5.052 -0.5152  1.7328 -0.5742
 3914TIP3    H211707   3.272   1.356   5.185  0.9616 -1.4443 -1.0100
 3915TIP3   OH211708   4.336   1.701   4.776  0.2824  0.1680  0.6089
 3915TIP3    H111709   4.322   1.796   4.768 -0.8574 -0.0387 -0.0061
 3915TIP3    H211710   4.315   1.682   4.867  1.5923  0.6593  1.0437
 3916TIP3   OH211711   3.420   0.208   5.597  0.0680  0.0738  0.2496
 3916TIP3    H111712   3.349   0.175   5.542 -1.9762  1.2046  2.0714
 3916TIP3    H211713   3.415   0.156   5.677  1.0831  0.4130  0.5525
 3917TIP3   OH211714   5.077   2.302   3.700 -0.2443  0.1513  0.7696
 3917TIP3    H111715   5.119   2.218   3.720 -0.2884 -0.3551 -1.0556
 3917TIP3    H211716   4.996   2.277   3.655 -0.8268  1.1715  1.2338
 3918TIP3   OH211717   1.865   0.247   0.243 -0.1837 -0.6437 -0.1181
 3918TIP3    H111718   1.944   0.246   0.188 -1.5014 -0.2393 -2.1505
 3918TIP3    H211719   1.822   0.163   0.224 -0.9145 -0.2764 -0.1195
 3919TIP3   OH211720   5.472   1.024   3.472 -0.0560  0.6080  0.2137
 3919TIP3    H111721   5.388   1.054   3.436 -0.1214  1.1473  0.8152
 3919TIP3    H211722   5.520   0.993   3.395 -1.2318 -0.7804 -0.0123
 3920TIP3   OH211723   6.199   1.308   4.497  0.1543  0.6247  0.5878
 3920TIP3    H111724   6.235   1.308   4.409 -1.6123  1.0200 -0.1861
 3920TIP3    H211725   6.131   1.376   4.495 -0.0724  0.4856  2.1852
 3921TIP3   OH211726   1.528   0.926   5.833 -0.0758  0.0126 -0.4207
 3921TIP3    H111727   1.611   0.964   5.803  0.1131 -0.5465 -0.6197
 3921TIP3    H211728   1.506   0.861   5.766  0.0326 -0.8098  0.3154
 3922TIP3   OH211729   3.522   3.528   4.363 -0.2649  0.2237 -0.2079
 3922TIP3    H111730   3.577   3.523   4.284  1.2838 -0.0287  0.8480
 3922TIP3    H211731   3.575   3.578   4.426 -1.0536 -0.4395  1.0057
 3923TIP3   OH211732   1.882   5.218   3.857  0.1018  0.5483 -0.7813
 3923TIP3    H111733   1.950   5.197   3.793  0.2202  1.1609 -0.8692
 3923TIP3    H211734   1.826   5.281   3.812  1.2685  2.5111  0.3070
 3924TIP3   OH211735   4.941   3.962   5.343 -0.0325 -0.4343  0.3405
 3924TIP3    H111736   4.854   3.997   5.324 -0.5119 -2.0947 -0.7630
 3924TIP3    H211737   4.924   3.878   5.386  1.0044 -1.2818 -0.8541
 3925TIP3   OH211738   5.523   3.986   2.877  0.3167  0.3210 -0.0862
 3925TIP3    H111739   5.590   4.039   2.835  0.2708  0.2594 -0.2368
 3925TIP3    H211740   5.558   3.969   2.965  0.4966  0.2939 -0.1626
 3926TIP3   OH211741   0.131   2.190   1.393 -0.0714 -0.1016  0.2643
 3926TIP3    H111742   0.172   2.247   1.328 -1.5624  0.5294 -0.1559
 3926TIP3    H211743   0.196   2.183   1.463  1.2159 -0.0943 -0.8957
 3927TIP3   OH211744   2.321   4.691   0.930  0.0523 -0.0974 -0.0659
 3927TIP3    H111745   2.317   4.780   0.966  2.1743 -0.1018  0.3357
 3927TIP3    H211746   2.350   4.637   1.003 -0.7592 -1.0686 -0.4363
 3928TIP3   OH211747   4.360   4.885   1.899  0.0909 -0.5564 -0.6908
 3928TIP3    H111748   4.309   4.965   1.914  1.8094  0.3390  0.6782
 3928TIP3    H211749   4.361   4.841   1.984  1.9232 -0.3318 -0.5638
 3929TIP3   OH211750   2.736   1.048   5.728 -0.5660  0.1948  0.0253
 3929TIP3    H111751   2.831   1.038   5.739 -0.4922  1.0213  0.1808
 3929TIP3    H211752   2.701   0.962   5.753  0.0832  0.1129  0.7167
 3930TIP3   OH211753   3.560   6.186   0.356 -0.3436  0.1309 -0.5754
 3930TIP3    H111754   3.650   6.210   0.376  0.7147 -2.0052 -2.3375
 3930TIP3    H211755   3.536   6.240   0.281  0.4324 -1.0401 -1.7078
 3931TIP3   OH211756   6.027   4.757   1.209 -0.8420 -0.1244 -0.0893
 3931TIP3    H111757   6.067   4.790   1.289 -1.1508 -1.0260  0.4596
 3931TIP3    H211758   6.043   4.663   1.212 -1.2808 -0.2281 -0.8497
 3932TIP3   OH211759   1.254   3.680   4.825  0.4900  0.4495 -0.4769
 3932TIP3    H111760   1.282   3.656   4.737 -1.6343  0.3127 -1.1908
 3932TIP3    H211761   1.163   3.707   4.814 -0.7443 -2.1087  2.0516
 3933TIP3   OH211762   3.494   0.951   1.367  0.2360  0.0781 -0.1847
 3933TIP3    H111763   3.467   1.032   1.411  2.0637  0.1891  0.8251
 3933TIP3    H211764   3.469   0.881   1.427 -1.8339 -0.1988 -1.2988
 3934TIP3   OH211765   2.170   1.480   5.516  0.0256 -0.5461 -0.3384
 3934TIP3    H111766   2.141   1.492   5.426 -2.6087 -0.0038  0.5057
 3934TIP3    H211767   2.191   1.387   5.523  2.6815 -0.1814 -2.0865
 3935TIP3   OH211768   0.417   4.595   3.256 -0.3386  0.0455 -0.1889
 3935TIP3    H111769   0.447   4.527   3.316  0.9318  0.9717  0.2744
 3935TIP3    H211770   0.322   4.595   3.266 -0.5021 -2.3469 -1.0011
 3936TIP3   OH211771   4.642   1.298   2.282 -0.3590  0.5590  0.0662
 3936TIP3    H111772   4.630   1.251   2.200 -0.1038  0.3118  0.1697
 3936TIP3    H211773   4.640   1.229   2.349 -1.3907  0.8302  0.3460
 3937TIP3   OH211774   2.824   0.197   2.539  0.5137  0.1301  0.2620
 3937TIP3    H111775   2.883   0.261   2.580 -1.5230  0.1279  3.5704
 3937TIP3    H211776   2.868   0.113   2.551  2.0927  0.5409 -1.9700
 3938TIP3   OH211777   1.856   4.528   3.025  0.3129  0.3564 -0.7324
 3938TIP3    H111778   1.859   4.513   3.119 -1.5480 -0.7088 -0.7925
 3938TIP3    H211779   1.875   4.442   2.986 -0.0358  0.5196 -1.2904
 3939TIP3   OH211780   7.169   1.685   5.337 -0.2198 -0.1575  0.3504
 3939TIP3    H111781   7.262   1.661   5.327 -0.0667 -0.3981  2.0486
 3939TIP3    H211782   7.145   1.721   5.252  1.3332 -0.4348 -0.2517
 3940TIP3   OH211783   3.737   0.205   1.278  0.2046 -0.2710 -0.2987
 3940TIP3    H111784   3.775   0.157   1.352  1.4189 -0.2517 -0.8799
 3940TIP3    H211785   3.676   0.143   1.237  0.3759 -0.6710  0.0452
 3941TIP3   OH211786   5.224   2.041   3.956  0.0658 -0.0987  0.7527
 3941TIP3    H111787   5.280   1.999   4.021  1.3396  1.0895  0.4614
 3941TIP3    H211788   5.229   1.983   3.880  2.9409  1.1694 -0.1500
 3942TIP3   OH211789   5.563   1.875   2.087  0.0632  0.2111  0.0743
 3942TIP3    H111790   5.540   1.784   2.110  0.3428  0.1683  0.1886
 3942TIP3    H211791   5.478   1.917   2.071 -0.0179 -0.3098 -0.9119
 3943TIP3   OH211792   0.273   3.457   3.615 -0.2167  0.1691 -0.1322
 3943TIP3    H111793   0.338   3.513   3.658 -0.4086 -0.3561  0.8759
 3943TIP3    H211794   0.302   3.451   3.524  0.9856  0.1667  0.2414
 3944TIP3   OH211795   0.295   0.074   0.723  0.1700 -0.2129 -0.1067
 3944TIP3    H111796   0.278   0.038   0.636  0.3578 -0.2021 -0.1476
 3944TIP3    H211797   0.294  -0.002   0.781 -0.3530 -0.1760 -0.0567
 3945TIP3   OH211798   4.351   0.771   5.465  0.0920  0.0759 -0.1130
 3945TIP3    H111799   4.428   0.729   5.502  0.2736  0.0445 -0.5271
 3945TIP3    H211800   4.279   0.744   5.522 -0.1155 -2.2094 -1.3406
 3946TIP3   OH211801   5.703   6.451   3.154 -0.2999 -0.6717  0.0972
 3946TIP3    H111802   5.648   6.446   3.232 -1.1882  0.8313 -0.3952
 3946TIP3    H211803   5.743   6.364   3.147  0.3067 -0.6446  2.5513
 3947TIP3   OH211804   5.058   2.789   3.295  0.6120 -0.5826 -0.3306
 3947TIP3    H111805   5.096   2.760   3.213 -1.6809 -1.2404 -1.2495
 3947TIP3    H211806   4.986   2.847   3.269 -0.2856 -0.9478  1.1799
 3948TIP3   OH211807   2.162   3.605   1.613  0.2851 -0.1738 -0.2418
 3948TIP3    H111808   2.188   3.528   1.663 -0.9354  0.0818  0.8381
 3948TIP3    H211809   2.221   3.674   1.642 -0.1287 -0.1372  0.5382
 3949TIP3   OH211810   2.560   2.907   3.908 -0.1594  0.8216  0.3656
 3949TIP3    H111811   2.631   2.900   3.972  0.0335  1.6944  0.2646
 3949TIP3    H211812   2.587   2.978   3.850  0.4335 -1.0307 -1.7229
 3950TIP3   OH211813   4.255   3.979   3.915  0.5499 -0.1931 -0.2575
 3950TIP3    H111814   4.230   4.003   3.825  1.8965  0.6511 -0.4284
 3950TIP3    H211815   4.351   3.979   3.914  0.5888 -1.8088  0.7672
 3951TIP3   OH211816   4.708   2.143   1.430  0.0118  0.3206 -0.1145
 3951TIP3    H111817   4.668   2.207   1.372  0.5891  0.3166 -0.5267
 3951TIP3    H211818   4.638   2.082   1.451  0.0343 -0.2751 -1.6419
 3952TIP3   OH211819   5.647   5.609   4.788  0.6924  0.3882 -0.2856
 3952TIP3    H111820   5.576   5.640   4.732  0.9635  0.2933 -0.6801
 3952TIP3    H211821   5.666   5.521   4.757  0.2500 -0.0044  0.5217
 3953TIP3   OH211822   2.235   3.370   1.742 -0.1887 -0.4050  0.3062
 3953TIP3    H111823   2.165   3.347   1.803 -0.9948 -0.8622 -0.7810
 3953TIP3    H211824   2.254   3.290   1.694  1.3487 -0.3929  0.8131
 3954TIP3   OH211825   1.623   6.257   0.870 -0.1477 -0.3137 -0.5733
 3954TIP3    H111826   1.625   6.351   0.854 -0.7998 -0.3357 -0.8042
 3954TIP3    H211827   1.556   6.224   0.810 -1.4507 -0.6343  0.9952
 3955TIP3   OH211828   5.278   2.080   1.162  0.3680 -0.2386  0.4030
 3955TIP3    H111829   5.186   2.077   1.189  0.5155  1.7293  1.2286
 3955TIP3    H211830   5.327   2.089   1.244  1.1508  0.7536 -0.1503
 3956TIP3   OH211831   3.585   3.237   0.405 -0.1948 -0.1652  0.2715
 3956TIP3    H111832   3.507   3.194   0.371  0.4271  0.8317 -2.7049
 3956TIP3    H211833   3.593   3.317   0.353  2.1427  0.3645  1.3119
 3957TIP3   OH211834   3.991   5.900   2.023 -0.3785 -0.1389  0.3890
 3957TIP3    H111835   3.973   5.860   1.938 -0.1136  0.1589  0.1910
 3957TIP3    H211836   4.044   5.836   2.070  0.7201  0.2951 -0.2232
 3958TIP3   OH211837   6.915   2.731   0.216  0.4004 -0.3636 -0.5020
 3958TIP3    H111838   6.846   2.680   0.175  0.0267  0.7870 -1.3610
 3958TIP3    H211839   6.874   2.770   0.293  0.4149 -0.5822 -0.3829
 3959TIP3   OH211840   6.232   2.494   0.636  0.3987 -0.2522 -0.6598
 3959TIP3    H111841   6.295   2.530   0.574 -0.2101 -0.1794 -1.2489
 3959TIP3    H211842   6.248   2.542   0.718 -0.8010  1.8184 -1.5739
 3960TIP3   OH211843   4.046   3.080   5.912  0.0598  0.1525  0.1353
 3960TIP3    H111844   4.116   3.141   5.888  1.1634 -1.5442 -1.2599
 3960TIP3    H211845   4.004   3.058   5.829 -0.1809 -1.0985  0.5596
 3961TIP3   OH211846   3.601   2.069   1.306  0.4973  0.6461 -0.5175
 3961TIP3    H111847   3.560   1.987   1.279  1.7918  0.3425 -1.6868
 3961TIP3    H211848   3.623   2.056   1.399 -0.0100 -0.0275 -0.4897
 3962TIP3   OH211849   4.063   5.245   2.204  0.0304 -0.1106  0.5951
 3962TIP3    H111850   4.011   5.167   2.185  0.3004  0.1443 -1.4452
 3962TIP3    H211851   4.150   5.224   2.171  0.8397  0.0885  2.4789
 3963TIP3   OH211852   4.967   2.179   1.484  0.4231 -0.3645 -0.1350
 3963TIP3    H111853   4.970   2.168   1.389 -0.2370  2.6941 -0.6154
 3963TIP3    H211854   4.874   2.174   1.505  0.5988 -1.4641  0.4661
 3964TIP3   OH211855   0.589   1.362   4.592  0.4866 -0.5269  0.1825
 3964TIP3    H111856   0.667   1.403   4.631 -0.2610 -0.4005  1.5921
 3964TIP3    H211857   0.579   1.280   4.639 -0.3379 -0.4633  0.1275
 3965TIP3   OH211858   2.131   0.786   5.276  0.9137  0.1071 -0.5030
 3965TIP3    H111859   2.187   0.800   5.200  1.6314  1.1412  0.1796
 3965TIP3    H211860   2.192   0.763   5.347  0.3611  0.0925 -0.0218
 3966TIP3   OH211861   4.199   3.042   2.183 -0.2052  0.5087 -0.0851
 3966TIP3    H111862   4.157   3.121   2.217  1.0182  0.2433  2.2810
 3966TIP3    H211863   4.168   2.972   2.240  2.7373  0.1925  1.2967
 3967TIP3   OH211864   0.967   5.272   2.108  0.3944 -0.1766  0.0483
 3967TIP3    H111865   0.942   5.181   2.124 -1.9105  0.1590 -1.1447
 3967TIP3    H211866   0.925   5.294   2.025  1.6672  1.7143 -0.1582
 3968TIP3   OH211867   1.448   2.903   5.186  0.1211 -0.1656  0.2609
 3968TIP3    H111868   1.373   2.892   5.244 -0.1594 -0.0462 -0.0760
 3968TIP3    H211869   1.416   2.959   5.116  0.4538 -0.3126 -0.0119
 3969TIP3   OH211870   0.811   0.882   3.344 -0.7318 -0.4353 -0.4166
 3969TIP3    H111871   0.817   0.810   3.407 -1.2860  0.2118  0.4016
 3969TIP3    H211872   0.895   0.881   3.298 -0.3112 -0.9146  0.3412
 3970TIP3   OH211873   6.892   5.397   2.796  0.0226  0.0222  0.1140
 3970TIP3    H111874   6.968   5.414   2.851  0.6046  0.5022 -0.8072
 3970TIP3    H211875   6.916   5.319   2.745  0.0840  0.4374 -0.4996
 3971TIP3   OH211876   1.832   5.487   3.748  0.0509 -0.5649  0.2338
 3971TIP3    H111877   1.834   5.538   3.667  0.0080  1.2471  1.3170
 3971TIP3    H211878   1.753   5.432   3.740 -0.3415  0.0997 -0.6543
 3972TIP3   OH211879   0.979   3.737   4.724  0.2479  0.0223  0.4502
 3972TIP3    H111880   0.985   3.732   4.629  2.0381 -1.2919  0.5644
 3972TIP3    H211881   0.988   3.830   4.744 -2.3971  0.6179 -0.7041
 3973TIP3   OH211882   4.362   2.742   1.230 -0.0515  0.5148 -0.4407
 3973TIP3    H111883   4.419   2.818   1.222 -0.3559  1.0003  1.3631
 3973TIP3    H211884   4.274   2.775   1.211 -0.3395  0.9456  1.3620
 3974TIP3   OH211885   6.359   5.858   4.079 -0.5095 -0.0276  0.7172
 3974TIP3    H111886   6.416   5.927   4.044  0.6712 -0.8518  0.9324
 3974TIP3    H211887   6.288   5.904   4.123 -0.4079  1.0321 -0.1967
 3975TIP3   OH211888   2.966   3.393   1.951  0.2392  0.3505  0.7356
 3975TIP3    H111889   3.000   3.396   1.862 -1.4319 -0.9553 -0.0218
 3975TIP3    H211890   2.902   3.463   1.955 -1.6178 -1.2045 -0.0389
 3976TIP3   OH211891   0.051   2.140   2.356 -0.2008 -0.0887 -0.0200
 3976TIP3    H111892   0.102   2.075   2.404  0.3570  0.8337  0.6438
 3976TIP3    H211893   0.016   2.091   2.281  0.4967 -1.0674  0.2703
 3977TIP3   OH211894   5.890   4.037   3.999  0.0145 -0.5402 -0.0109
 3977TIP3    H111895   5.957   4.040   4.067 -0.5249 -2.3083  0.6448
 3977TIP3    H211896   5.811   4.069   4.041 -0.8146 -3.4953  0.8930
 3978TIP3   OH211897   4.233   0.676   1.507  0.4183 -0.8420 -0.0969
 3978TIP3    H111898   4.266   0.723   1.431  0.4160 -1.2133 -0.3244
 3978TIP3    H211899   4.300   0.611   1.528  0.2986 -0.9187  0.0570
 3979TIP3   OH211900   4.399   0.737   1.300 -0.2021  0.0487  0.0948
 3979TIP3    H111901   4.461   0.755   1.230 -2.0047 -1.0085 -1.8874
 3979TIP3    H211902   4.404   0.643   1.314 -0.2274  0.1785  1.0402
 3980TIP3   OH211903   1.013   5.634   3.937 -0.1712 -0.4762 -0.4147
 3980TIP3    H111904   1.013   5.589   3.853 -0.7772 -1.6016  0.1762
 3980TIP3    H211905   0.962   5.578   3.995  2.5101 -1.1828  1.4842
 3981TIP3   OH211906   1.985   3.865   4.106 -0.7347  0.0910 -0.0143
 3981TIP3    H111907   1.944   3.952   4.107  0.6877  0.8524 -1.7771
 3981TIP3    H211908   2.041   3.864   4.184  0.5683  1.5010 -0.8700
 3982TIP3   OH211909   5.755   3.191   1.379  0.3353 -0.1099  0.4695
 3982TIP3    H111910   5.726   3.110   1.422  0.4069  1.0875  2.9794
 3982TIP3    H211911   5.679   3.249   1.384  0.7029  0.4279 -0.0645
 3983TIP3   OH211912   2.358   6.360   3.389  0.0721 -0.0862 -0.3659
 3983TIP3    H111913   2.423   6.303   3.347 -0.2930 -1.5613  0.9761
 3983TIP3    H211914   2.381   6.358   3.482 -2.8813 -2.1824  0.4673
 3984TIP3   OH211915   1.045   1.587   0.842  0.0894  0.2485 -0.3874
 3984TIP3    H111916   1.117   1.651   0.845 -0.7334  1.2604  3.2104
 3984TIP3    H211917   1.089   1.502   0.837  1.5549  0.8922  0.6599
 3985TIP3   OH211918   0.766   4.558   1.845 -0.3177 -0.0465 -0.2618
 3985TIP3    H111919   0.724   4.643   1.830  0.6860  0.4558 -0.3553
 3985TIP3    H211920   0.769   4.550   1.940 -0.0384  0.2254 -0.2456
 3986TIP3   OH211921   0.240   5.504   3.478 -0.1275  0.1380 -0.5101
 3986TIP3    H111922   0.203   5.425   3.519  1.1757 -0.2736 -0.0710
 3986TIP3    H211923   0.245   5.567   3.549 -1.6185  0.8152 -0.9660
 3987TIP3   OH211924   4.501   3.776   3.934 -0.0849 -0.1064  0.3711
 3987TIP3    H111925   4.594   3.800   3.926 -0.7082  2.1019 -0.8450
 3987TIP3    H211926   4.471   3.765   3.843 -1.0786 -0.6361  0.7470
 3988TIP3   OH211927   3.454   5.947   3.006  0.1056 -0.3325  0.0133
 3988TIP3    H111928   3.512   6.016   3.037  0.5237 -0.8408  0.3832
 3988TIP3    H211929   3.424   5.977   2.921  0.9704 -0.0957 -0.2160
 3989TIP3   OH211930   3.489   5.121   5.183  0.2589 -0.0770 -0.1731
 3989TIP3    H111931   3.556   5.134   5.115 -0.7081  1.3916 -0.9125
 3989TIP3    H211932   3.488   5.027   5.198  1.4999 -0.2796 -1.1707
 3990TIP3   OH211933   1.610   4.445   2.646 -0.2203  0.3766  0.2146
 3990TIP3    H111934   1.598   4.514   2.710  1.8632  1.4066 -0.4316
 3990TIP3    H211935   1.643   4.489   2.568 -1.2970 -1.0347 -1.1221
 3991TIP3   OH211936   3.008   5.095   0.099  0.5709  0.1586 -0.2941
 3991TIP3    H111937   3.101   5.078   0.085  0.6354  0.7846 -0.6329
 3991TIP3    H211938   2.999   5.095   0.195  0.4683 -2.2261 -0.2363
 3992TIP3   OH211939   5.455   3.500   5.298 -0.4327  0.0131 -0.6703
 3992TIP3    H111940   5.443   3.593   5.281 -2.0775 -0.1629 -0.6368
 3992TIP3    H211941   5.423   3.488   5.387  2.1638 -0.1738  0.3147
 3993TIP3   OH211942   5.758   5.376   0.798 -0.6274 -0.0848 -0.2328
 3993TIP3    H111943   5.821   5.355   0.866 -1.8732  1.4001  1.4795
 3993TIP3    H211944   5.786   5.325   0.722  1.1404 -1.3660  1.2056
 3994TIP3   OH211945   5.430   2.297   3.047 -0.0543  0.9124  0.9810
 3994TIP3    H111946   5.347   2.301   3.095 -0.2954  1.9307  0.5091
 3994TIP3    H211947   5.405   2.266   2.960 -0.1598  2.3984  0.4423
 3995TIP3   OH211948   3.387   3.422   3.378 -0.5789 -0.6402 -0.3399
 3995TIP3    H111949   3.391   3.434   3.283 -0.6134 -1.3804 -0.4391
 3995TIP3    H211950   3.351   3.505   3.411  0.7819  0.1719 -0.8295
 3996TIP3   OH211951   3.049   0.436   3.102 -0.4532 -0.0693 -0.1433
 3996TIP3    H111952   2.978   0.435   3.039 -1.4206 -0.1484  0.9145
 3996TIP3    H211953   3.058   0.528   3.127 -1.5966 -0.2832  1.2201
 3997TIP3   OH211954   3.928   2.963   5.681 -0.1501  0.6567  0.3542
 3997TIP3    H111955   3.845   2.949   5.725 -0.8158  0.9154 -0.7833
 3997TIP3    H211956   3.951   2.878   5.644  0.2574  0.5098  0.9342
 3998TIP3   OH211957   1.111   1.674   5.867  0.1103  0.1741 -0.0775
 3998TIP3    H111958   1.109   1.693   5.773  0.8078 -0.3661 -0.2094
 3998TIP3    H211959   1.110   1.760   5.909  1.4190  0.4771 -0.6217
 3999TIP3   OH211960   1.751   2.623   4.160 -0.5021 -0.3286 -0.0564
 3999TIP3    H111961   1.664   2.641   4.196 -0.4572  1.3632 -0.6955
 3999TIP3    H211962   1.735   2.601   4.069 -0.3291 -0.9644  0.0656
 4000TIP3   OH211963   1.135   3.080   4.005 -0.0274  0.1643  0.3386
 4000TIP3    H111964   1.041   3.102   4.001 -0.1270 -0.0919  1.1034
 4000TIP3    H211965   1.168   3.135   4.076  0.2991 -0.1075  0.3961
 4001TIP3   OH211966   6.059   3.047   5.500 -0.0684 -0.2515  0.7689
 4001TIP3    H111967   6.129   2.991   5.534  1.3726  0.0931 -1.4057
 4001TIP3    H211968   5.978   3.007   5.532  1.0347 -1.7779  1.7891
 4002TIP3   OH211969   7.002   5.783   3.533  0.0602 -0.4880  0.6918
 4002TIP3    H111970   7.046   5.841   3.595  0.6458  0.9842 -1.0092
 4002TIP3    H211971   6.919   5.762   3.575 -1.1951  3.4133  0.5402
 4003TIP3   OH211972   4.953   4.239   1.901 -0.4463 -0.1629  0.3833
 4003TIP3    H111973   4.922   4.272   1.986 -1.8858  0.5751 -0.3871
 4003TIP3    H211974   4.980   4.318   1.853 -2.7014 -0.1476 -0.9987
 4004TIP3   OH211975   2.911   4.159   5.746 -0.5670  0.0769  0.5889
 4004TIP3    H111976   2.881   4.144   5.657 -0.9008  1.9722  0.3320
 4004TIP3    H211977   2.940   4.251   5.747  0.5401 -0.2345  2.1237
 4005TIP3   OH211978   5.855   2.558   1.517  0.2077 -0.2794  0.3445
 4005TIP3    H111979   5.899   2.641   1.537 -0.2770  0.1298 -0.2197
 4005TIP3    H211980   5.913   2.516   1.453 -0.7231  0.7947 -1.3056
 4006TIP3   OH211981   2.408   2.274   4.385  0.0470 -0.1783  0.0207
 4006TIP3    H111982   2.470   2.324   4.331  0.0191  0.4975  0.6074
 4006TIP3    H211983   2.367   2.339   4.441 -0.0202 -0.8616  0.7783
 4007TIP3   OH211984   6.003   5.394   4.388 -0.2417  0.1974 -0.3082
 4007TIP3    H111985   6.039   5.306   4.397 -1.8029 -0.5570 -1.0373
 4007TIP3    H211986   5.908   5.382   4.398 -0.6074  1.5758 -1.8089
 4008TIP3   OH211987   2.760   6.799   3.740  0.3398 -0.1931  0.1539
 4008TIP3    H111988   2.844   6.754   3.738 -0.5662 -1.9635 -0.1916
 4008TIP3    H211989   2.709   6.758   3.670 -0.6713  1.1526  0.0612
 4009TIP3   OH211990   3.650   1.180   3.830  0.6059 -0.4746  0.5870
 4009TIP3    H111991   3.701   1.203   3.908  0.3599 -0.2315  0.6786
 4009TIP3    H211992   3.663   1.254   3.770  0.8979 -0.7202  0.3455
 4010TIP3   OH211993   5.406   3.648   5.643  0.2101 -0.9962 -0.2035
 4010TIP3    H111994   5.487   3.599   5.651 -0.2179 -1.4957  1.3377
 4010TIP3    H211995   5.345   3.607   5.704 -1.2093 -0.5998 -1.2622
 4011TIP3   OH211996   5.941   2.987   2.868  0.2824  0.0930  0.4956
 4011TIP3    H111997   5.871   3.047   2.895  0.2738  1.6625 -2.5457
 4011TIP3    H211998   6.021   3.028   2.901  0.3547  2.3792 -2.1499
 4012TIP3   OH211999   3.635   3.194   2.058 -0.3622 -0.2554 -0.5681
 4012TIP3    H112000   3.580   3.170   1.984  2.1961  1.4106 -3.2300
 4012TIP3    H212001   3.636   3.290   2.058  0.3939 -0.2167  1.1293
 4013TIP3   OH212002   0.326   5.253   0.810 -0.2511  0.5435  0.2720
 4013TIP3    H112003   0.416   5.261   0.841  1.3092  2.6997 -3.9802
 4013TIP3    H212004   0.327   5.175   0.755 -1.4132 -0.1340  1.1622
 4014TIP3   OH212005   0.628   4.781   1.214  0.3835 -0.3769  0.0297
 4014TIP3    H112006   0.718   4.762   1.189  0.6428  1.1902 -0.3197
 4014TIP3    H212007   0.574   4.734   1.150  0.9627 -0.6498 -0.2613
 4015TIP3   OH212008   5.982   4.589   1.616 -0.0168 -0.3718 -0.1113
 4015TIP3    H112009   5.981   4.511   1.561  0.4564 -0.0290 -0.6110
 4015TIP3    H212010   6.049   4.646   1.577  0.4334 -0.1825  0.8917
 4016TIP3   OH212011   4.969   3.514   0.494 -0.4561 -0.4134  0.3222
 4016TIP3    H112012   4.890   3.534   0.445 -0.5696  0.0980  0.6952
 4016TIP3    H212013   4.946   3.439   0.549 -1.1725  0.6325  1.5186
 4017TIP3   OH212014   3.690   6.699   5.135  0.3207  0.1588 -0.4555
 4017TIP3    H112015   3.748   6.628   5.108  1.1459  1.1658 -1.4070
 4017TIP3    H212016   3.623   6.655   5.188  0.6549 -1.3585 -1.2164
 4018TIP3   OH212017   6.061   5.266   3.712  0.0612 -0.5167 -0.3991
 4018TIP3    H112018   6.105   5.294   3.792 -1.3700  2.9478 -0.6275
 4018TIP3    H212019   5.972   5.244   3.739 -0.3470  0.4002 -0.9336
 4019TIP3   OH212020   2.414   4.194   5.291 -0.1582  0.1257  0.0422
 4019TIP3    H112021   2.323   4.202   5.263  0.3735  0.4444 -1.6815
 4019TIP3    H212022   2.464   4.246   5.228  1.4282 -1.5967 -0.2178
 4020TIP3   OH212023   3.079   6.515   1.956 -0.0924  0.5465  0.1178
 4020TIP3    H112024   3.149   6.575   1.930  1.1072 -1.4119 -1.4258
 4020TIP3    H212025   3.035   6.491   1.875 -0.2905 -0.9374  0.6254
 4021TIP3   OH212026   4.735   2.826   4.300 -0.2179 -0.0771 -0.7061
 4021TIP3    H112027   4.785   2.765   4.246  0.2841  0.3047 -0.6780
 4021TIP3    H212028   4.659   2.776   4.329  0.0475 -0.6023 -0.9107
 4022TIP3   OH212029   0.376   5.785   2.164 -0.2140  0.2787 -0.2225
 4022TIP3    H112030   0.423   5.867   2.177  0.7593 -0.2635 -0.2308
 4022TIP3    H212031   0.399   5.732   2.240 -3.1016  0.9980  1.2900
 4023TIP3   OH212032   3.484   1.822   3.971  0.2382  0.5484 -0.3811
 4023TIP3    H112033   3.562   1.874   3.953 -1.4173  2.8185 -1.5849
 4023TIP3    H212034   3.505   1.775   4.051  2.4944  1.7880 -0.1434
 4024TIP3   OH212035   0.969   4.973   1.336  0.2839  0.3665  0.8498
 4024TIP3    H112036   0.922   5.050   1.371 -0.4507  0.4831 -0.3420
 4024TIP3    H212037   1.007   5.004   1.254  0.3147 -0.4438  0.5574
 4025TIP3   OH212038   3.008   6.171   1.511 -0.3165  0.2191 -0.0609
 4025TIP3    H112039   2.967   6.256   1.530 -0.0082  0.4187 -0.2792
 4025TIP3    H212040   2.980   6.152   1.421 -0.7961 -0.1536  0.1620
 4026TIP3   OH212041   1.425   1.718   4.698  0.2681  0.0438  0.2775
 4026TIP3    H112042   1.390   1.674   4.775  0.4872 -0.1269  0.2829
 4026TIP3    H212043   1.497   1.772   4.732  0.5302 -0.2279  0.1603
 4027TIP3   OH212044   5.882   3.533   3.867 -0.4930 -0.2412 -0.2383
 4027TIP3    H112045   5.900   3.501   3.778 -1.4584 -3.0937  0.4799
 4027TIP3    H212046   5.790   3.557   3.866 -0.6114 -0.6632  0.0617
 4028TIP3   OH212047   1.198   4.971   2.629  0.1145 -0.3888 -0.7608
 4028TIP3    H112048   1.290   4.992   2.612 -0.0970 -0.4895 -2.1677
 4028TIP3    H212049   1.191   4.877   2.615 -0.0536 -0.5046  0.0819
 4029TIP3   OH212050   2.923   3.947   3.016 -0.1203  0.4126  0.3434
 4029TIP3    H112051   2.963   3.881   2.960 -0.0921 -0.8018  1.7446
 4029TIP3    H212052   2.978   4.025   3.005  0.8514 -0.3112 -0.0565
 4030TIP3   OH212053   4.703   1.775   2.143  0.6432 -0.2541 -0.0642
 4030TIP3    H112054   4.716   1.866   2.171 -1.3178  0.5874 -1.7071
 4030TIP3    H212055   4.630   1.744   2.197  0.5654 -0.4809 -0.3030
 4031TIP3   OH212056   0.013   2.881   2.799 -0.9904 -0.1046  0.0275
 4031TIP3    H112057   0.007   2.949   2.732 -1.0047  0.2358  0.3711
 4031TIP3    H212058   0.081   2.822   2.766 -0.9277  0.1104 -0.2392
 4032TIP3   OH212059   3.826   0.480   5.425  0.1221 -0.5735 -0.1684
 4032TIP3    H112060   3.879   0.442   5.494 -0.1554  1.3866  1.1888
 4032TIP3    H212061   3.736   0.457   5.448  0.1500 -1.6716 -1.0495
 4033TIP3   OH212062   5.584   2.678   2.243  0.2125  0.0223  0.2887
 4033TIP3    H112063   5.516   2.685   2.310  0.5098  1.5283  0.4678
 4033TIP3    H212064   5.538   2.644   2.166 -0.6530  0.5675  0.5491
 4034TIP3   OH212065   5.056   5.851   0.184  0.1123  0.1050 -0.1434
 4034TIP3    H112066   5.059   5.944   0.164  0.3366  0.0952 -0.1641
 4034TIP3    H212067   5.145   5.820   0.167  0.0089 -0.1368 -0.2514
 4035TIP3   OH212068   4.214   1.274   2.267 -0.2409  0.5137 -0.2059
 4035TIP3    H112069   4.266   1.351   2.292  0.1098 -0.1887  1.3719
 4035TIP3    H212070   4.265   1.199   2.298 -2.1133 -0.2102  1.3618
 4036TIP3   OH212071   0.150   5.905  -0.012  0.5712 -0.1469  0.5418
 4036TIP3    H112072   0.147   5.891   0.082  2.9654 -1.1978  0.5478
 4036TIP3    H212073   0.130   5.820  -0.050  1.0890 -0.1081  0.1636
 4037TIP3   OH212074   2.273   6.441   0.329  0.0501  0.5826  0.4457
 4037TIP3    H112075   2.350   6.440   0.272  1.0677 -0.0265  1.7855
 4037TIP3    H212076   2.244   6.350   0.332 -0.4609  0.7404  0.2898
 4038TIP3   OH212077   2.896   3.070   1.712 -0.0700 -0.3757 -0.2553
 4038TIP3    H112078   2.951   3.033   1.780 -1.1600  1.0790  1.5312
 4038TIP3    H212079   2.811   3.027   1.724 -0.6551  0.8621  0.2637
 4039TIP3   OH212080   6.370   4.148   4.665  0.0977 -0.1848 -0.0170
 4039TIP3    H112081   6.466   4.148   4.675  0.1371 -0.8085 -0.3731
 4039TIP3    H212082   6.355   4.101   4.583 -0.4341  1.3061 -0.8142
 4040TIP3   OH212083   5.149   4.822   5.699  0.0070 -0.7126  0.5984
 4040TIP3    H112084   5.100   4.743   5.676 -1.3687 -0.0934  1.2706
 4040TIP3    H212085   5.086   4.893   5.690  1.7404  0.6480 -1.9527
 4041TIP3   OH212086   5.916   1.339   3.582 -0.4324  0.3818  0.0552
 4041TIP3    H112087   5.950   1.270   3.638  1.0383 -0.2717 -1.5475
 4041TIP3    H212088   5.856   1.294   3.522  1.0207  0.3097 -1.4185
 4042TIP3   OH212089   4.966   1.616   4.548  0.3524  0.3517 -0.2174
 4042TIP3    H112090   4.951   1.705   4.515  0.8082  0.2880 -0.6038
 4042TIP3    H212091   4.885   1.594   4.594 -1.0260 -0.2074 -2.7059
 4043TIP3   OH212092   6.114   0.773   1.047 -0.3894  0.7466 -0.2862
 4043TIP3    H112093   6.205   0.802   1.044  0.0607 -0.4506  0.6911
 4043TIP3    H212094   6.072   0.814   0.971  1.0445  1.0129 -0.9564
 4044TIP3   OH212095   1.777   6.317   5.182  0.5022 -0.1249 -0.4378
 4044TIP3    H112096   1.700   6.289   5.131  0.0152 -0.8674  0.6759
 4044TIP3    H212097   1.798   6.404   5.147  0.0308 -0.5081 -1.7250
 4045TIP3   OH212098   1.730   1.908   5.696 -0.0728  0.3180 -0.5787
 4045TIP3    H112099   1.779   1.947   5.624  0.0912 -0.7456 -1.0584
 4045TIP3    H212100   1.794   1.856   5.744 -0.4668 -0.0875 -0.4850
 4046TIP3   OH212101   5.149   2.166   0.084 -0.0817 -0.2621 -0.3090
 4046TIP3    H112102   5.125   2.085   0.040  0.5251 -0.9820  0.6491
 4046TIP3    H212103   5.085   2.230   0.054 -0.4622 -1.0519 -1.2106
 4047TIP3   OH212104   6.572   4.718   3.375 -0.0301  0.2451  0.0740
 4047TIP3    H112105   6.502   4.782   3.389  0.4301  0.6430  0.6191
 4047TIP3    H212106   6.584   4.677   3.460 -0.0920 -0.3377 -0.1951
 4048TIP3   OH212107   2.264   2.167   3.700  0.0378 -0.0256  0.4991
 4048TIP3    H112108   2.272   2.206   3.613  0.6252  0.6538  0.8470
 4048TIP3    H212109   2.172   2.177   3.722 -0.2941 -0.9469 -0.3757
 4049TIP3   OH212110   3.422   0.797   1.595  0.1449  0.2233  0.1245
 4049TIP3    H112111   3.449   0.868   1.653  1.8571  0.0521 -0.4003
 4049TIP3    H212112   3.499   0.740   1.591 -0.2454 -0.2310 -1.5855
 4050TIP3   OH212113   1.424   1.940   3.845 -0.3722  0.4001 -0.3801
 4050TIP3    H112114   1.390   1.882   3.777  0.4302  0.9204 -1.2448
 4050TIP3    H212115   1.358   1.936   3.914  0.1981 -2.5153  0.1582
 4051TIP3   OH212116   5.389   2.063   2.704  0.2780 -0.4613 -0.3819
 4051TIP3    H112117   5.422   2.034   2.619  0.7758  0.1997 -0.4192
 4051TIP3    H212118   5.439   2.013   2.768 -0.0274 -0.8865 -0.4728
 4052TIP3   OH212119   7.151   4.909   5.048  0.0477 -0.1832  0.6740
 4052TIP3    H112120   7.180   4.908   4.956  0.6467  0.3130  0.8493
 4052TIP3    H212121   7.071   4.962   5.047 -0.4365 -0.9008  0.3082
 4053TIP3   OH212122   3.874   4.778   4.790  0.0031  0.3851  0.0486
 4053TIP3    H112123   3.930   4.847   4.753  1.5113 -0.8632 -0.0846
 4053TIP3    H212124   3.786   4.801   4.760  1.0596 -0.4521 -4.4092
 4054TIP3   OH212125   1.405   1.320   3.699  0.2970 -0.2573 -0.0195
 4054TIP3    H112126   1.368   1.373   3.769  1.4770 -0.5532  0.8546
 4054TIP3    H212127   1.401   1.376   3.622  0.0601  0.5093  0.5405
 4055TIP3   OH212128   2.935   0.509   2.592  0.2062 -0.7242  0.4540
 4055TIP3    H112129   2.932   0.544   2.681 -0.2790  0.9075 -0.1659
 4055TIP3    H212130   2.847   0.474   2.577  0.3111 -1.0678  0.6457
 4056TIP3   OH212131   3.899   5.579   3.311  0.3780 -0.2058  0.1386
 4056TIP3    H112132   3.858   5.516   3.252 -1.3253  0.9103  0.0545
 4056TIP3    H212133   3.938   5.645   3.253 -0.4664  0.3826  0.2132
 4057TIP3   OH212134   2.449   6.152   3.605  0.0330  0.3653  0.1684
 4057TIP3    H112135   2.540   6.156   3.635  0.4285  0.2487 -0.9422
 4057TIP3    H212136   2.455   6.119   3.515 -1.2263 -1.1574  0.5824
 4058TIP3   OH212137   5.688   4.665   4.854  0.2601  0.1004  0.1813
 4058TIP3    H112138   5.760   4.678   4.792  0.6675 -0.7018  0.4670
 4058TIP3    H212139   5.616   4.716   4.819  0.0247 -1.4317 -1.7107
 4059TIP3   OH212140   1.777   5.114   2.022 -0.1716  0.9230  0.8371
 4059TIP3    H112141   1.711   5.153   1.965  0.4017  0.1284 -0.4034
 4059TIP3    H212142   1.861   5.136   1.982  0.1734 -1.7522 -0.0965
 4060TIP3   OH212143   2.399   3.761   2.231  0.2891  0.2293  0.0170
 4060TIP3    H112144   2.346   3.807   2.295  0.9975  0.5933  0.3558
 4060TIP3    H212145   2.487   3.760   2.269  0.3158 -1.3502  0.0051
 4061TIP3   OH212146   2.881   4.682   4.926 -0.0196  0.6053 -0.7641
 4061TIP3    H112147   2.904   4.688   5.019  2.7028  1.3049 -1.4005
 4061TIP3    H212148   2.866   4.589   4.911  2.1168  0.1107 -0.1291
 4062TIP3   OH212149   2.370   2.294   0.335 -0.1849 -0.0498  1.0586
 4062TIP3    H112150   2.365   2.292   0.240 -0.4363 -0.3151  1.0752
 4062TIP3    H212151   2.369   2.387   0.358 -1.2974  0.0026  0.8576
 4063TIP3   OH212152   4.262   3.099   0.743 -0.5248  0.5073 -0.1321
 4063TIP3    H112153   4.296   3.181   0.780 -1.6247  1.0146 -0.1787
 4063TIP3    H212154   4.232   3.123   0.656 -0.2722 -0.1039 -0.3880
 4064TIP3   OH212155   6.375   3.609   4.594 -0.0638 -0.2007  0.2777
 4064TIP3    H112156   6.372   3.695   4.636 -0.7013 -0.2751  0.3926
 4064TIP3    H212157   6.344   3.625   4.505 -1.7255 -0.5651  0.7535
 4065TIP3   OH212158   2.368   0.558   4.729  0.3209  0.1726  0.2347
 4065TIP3    H112159   2.298   0.540   4.791 -0.9474 -0.0704 -1.2070
 4065TIP3    H212160   2.347   0.503   4.653  1.9542  0.2675 -0.3179
 4066TIP3   OH212161   3.118   1.561   0.635  0.1010 -0.1934  0.1466
 4066TIP3    H112162   3.058   1.578   0.562 -0.1996  1.0177  0.6567
 4066TIP3    H212163   3.061   1.542   0.709  0.4090 -1.5841  0.0690
 4067TIP3   OH212164   6.484   4.919   2.467 -0.3513 -0.5499 -0.1142
 4067TIP3    H112165   6.441   4.835   2.484 -0.1405 -0.3903  1.2738
 4067TIP3    H212166   6.418   4.970   2.420 -1.0021 -0.9753  0.3230
 4068TIP3   OH212167   5.699   2.559   5.295 -0.3243  0.3231  0.7107
 4068TIP3    H112168   5.762   2.491   5.318 -0.2333  0.1083 -0.1363
 4068TIP3    H212169   5.677   2.541   5.204 -2.2450 -0.0940  1.2258
 4069TIP3   OH212170   6.471   1.800   0.929 -0.1024  0.2162  0.4086
 4069TIP3    H112171   6.414   1.790   0.852 -0.7418  1.9708  0.6018
 4069TIP3    H212172   6.509   1.713   0.942 -0.3414 -0.2468 -1.5946
 4070TIP3   OH212173   6.375   0.227   1.393 -0.0973  0.3081  0.9779
 4070TIP3    H112174   6.428   0.307   1.398 -1.4966  1.3182  0.4301
 4070TIP3    H212175   6.285   0.259   1.385 -0.6871 -1.3356  0.7200
 4071TIP3   OH212176   5.224   5.784   0.575 -0.3205 -0.5301 -0.1586
 4071TIP3    H112177   5.160   5.723   0.611  0.7988 -2.1578 -0.7768
 4071TIP3    H212178   5.173   5.844   0.521 -1.6805  0.2453  1.8799
 4072TIP3   OH212179   3.526   1.638   3.495  0.3719 -0.4073 -0.2932
 4072TIP3    H112180   3.621   1.634   3.492  0.4234  0.6658 -2.2025
 4072TIP3    H212181   3.507   1.714   3.551  0.6768 -0.1273 -0.5646
 4073TIP3   OH212182   6.029   5.715   0.318 -0.4373 -0.2916 -0.2237
 4073TIP3    H112183   6.044   5.787   0.256  0.5039 -1.6649 -1.6585
 4073TIP3    H212184   6.064   5.638   0.274 -1.0419 -1.5764  1.4552
 4074TIP3   OH212185   6.605   6.571   2.139 -0.0103  0.0406  0.0212
 4074TIP3    H112186   6.543   6.507   2.173 -0.7921 -0.0987 -1.5591
 4074TIP3    H212187   6.551   6.629   2.085  0.9133  1.1944  0.2998
 4075TIP3   OH212188   1.573   3.196   0.153  0.4422 -0.3846 -0.5149
 4075TIP3    H112189   1.508   3.251   0.110  1.0800  1.1596  0.4018
 4075TIP3    H212190   1.655   3.215   0.109  0.5608 -1.1459 -0.6427
 4076TIP3   OH212191   2.857   2.061   5.419  0.7463 -0.5535 -0.8847
 4076TIP3    H112192   2.771   2.079   5.459  0.1286  0.6600 -2.6446
 4076TIP3    H212193   2.852   1.969   5.393 -0.6687 -0.1303 -2.3290
 4077TIP3   OH212194   6.643   4.801   1.842 -0.1551 -0.1743  0.2894
 4077TIP3    H112195   6.549   4.800   1.861  0.3339  0.1757  3.4223
 4077TIP3    H212196   6.671   4.710   1.852  0.3135  0.1733  3.1499
 4078TIP3   OH212197   1.017   3.201   2.955 -0.5560 -0.0923 -0.3228
 4078TIP3    H112198   1.020   3.291   2.990 -1.7933 -0.6922  1.4957
 4078TIP3    H212199   1.096   3.160   2.990 -1.8110 -0.7045  2.0280
 4079TIP3   OH212200   0.124   6.241   3.977 -0.2526  0.1160 -0.7021
 4079TIP3    H112201   0.218   6.259   3.987  0.0924 -0.6173 -2.3494
 4079TIP3    H212202   0.121   6.153   3.939 -1.5518  0.6522 -1.9204
 4080TIP3   OH212203   4.234   1.939   4.924  0.2130  0.2417  0.6586
 4080TIP3    H112204   4.154   1.939   4.978  0.7252  1.8839  1.4888
 4080TIP3    H212205   4.202   1.944   4.834 -0.6300 -0.1081  0.9295
 4081TIP3   OH212206   0.901   4.499   1.511 -0.4428 -0.2286 -0.3686
 4081TIP3    H112207   0.850   4.433   1.466 -1.3844  1.9183 -2.6581
 4081TIP3    H212208   0.842   4.574   1.520  1.0574  0.9027  0.6231
 4082TIP3   OH212209   4.210   6.279   1.447  0.1598  0.6777 -0.2621
 4082TIP3    H112210   4.293   6.274   1.399 -1.2498  1.2855 -3.0108
 4082TIP3    H212211   4.214   6.363   1.493  1.4065  0.2723  0.4250
 4083TIP3   OH212212   3.631   3.713   2.145 -0.9841 -0.7284  0.3366
 4083TIP3    H112213   3.549   3.746   2.181 -2.7516 -1.7526 -2.3964
 4083TIP3    H212214   3.665   3.786   2.092 -0.1276 -0.3363  1.3940
 4084TIP3   OH212215   2.148   2.136   4.372  0.4630  0.0685  0.6457
 4084TIP3    H112216   2.234   2.177   4.377 -0.5874  2.4027  0.8970
 4084TIP3    H212217   2.108   2.173   4.293 -0.0119 -1.6998  0.0063
 4085TIP3   OH212218   1.377   5.159   0.638  0.1599 -0.0220  0.2347
 4085TIP3    H112219   1.438   5.089   0.614 -1.4496 -1.1336 -0.7486
 4085TIP3    H212220   1.298   5.140   0.589 -0.9437  1.4995  1.3401
 4086TIP3   OH212221   6.982   1.872   3.705  0.2921  0.7778  0.3996
 4086TIP3    H112222   6.994   1.966   3.694 -2.1693  1.0352 -0.6093
 4086TIP3    H212223   6.916   1.864   3.773 -0.5812 -0.1639 -0.5314
 4087TIP3   OH212224   6.203   4.961   0.348  0.1504  0.9043 -0.5511
 4087TIP3    H112225   6.278   4.936   0.402  0.0693 -1.0886 -1.2954
 4087TIP3    H212226   6.127   4.937   0.402  0.0706 -0.9116 -1.3944
 4088TIP3   OH212227   0.664   1.553   0.861  0.3559  0.3059  0.4644
 4088TIP3    H112228   0.737   1.499   0.831  1.1583  1.6295 -0.0219
 4088TIP3    H212229   0.632   1.508   0.940 -0.2349 -1.8922 -0.9352
 4089TIP3   OH212230   4.351   0.987   5.253  0.2836 -0.4880  0.4098
 4089TIP3    H112231   4.348   0.953   5.342 -0.9320  1.1248  1.0227
 4089TIP3    H212232   4.259   0.992   5.226  0.5660  0.2724 -0.4599
 4090TIP3   OH212233   3.173   2.505   2.668 -0.4204  0.3029  0.9383
 4090TIP3    H112234   3.106   2.443   2.697  0.6399 -1.1307  0.4457
 4090TIP3    H212235   3.253   2.453   2.663  0.3003  1.4717 -0.4989
 4091TIP3   OH212236   2.315   6.274   2.432  0.1132  0.1313  0.3457
 4091TIP3    H112237   2.338   6.279   2.340 -0.7669  0.6488  0.1399
 4091TIP3    H212238   2.220   6.288   2.434 -0.0750 -1.1237  1.2161
 4092TIP3   OH212239   4.650   3.908   0.478 -0.2604  0.0674 -0.0162
 4092TIP3    H112240   4.677   3.989   0.522  1.0431 -1.7732  2.8575
 4092TIP3    H212241   4.575   3.877   0.529 -0.3777 -0.8301 -0.7202
 4093TIP3   OH212242   0.498   5.453   0.069 -1.0733 -0.3182 -0.5145
 4093TIP3    H112243   0.490   5.453   0.165  0.4065 -1.4311 -0.3658
 4093TIP3    H212244   0.495   5.546   0.046  1.2291  0.1999  0.9074
 4094TIP3   OH212245   4.857   1.638   1.343 -0.5168  0.0579  0.1905
 4094TIP3    H112246   4.769   1.613   1.370 -1.1492  1.0658 -0.8638
 4094TIP3    H212247   4.855   1.734   1.342  0.5418  0.0886 -0.0109
 4095TIP3   OH212248   3.211   1.917   4.569  0.4666  0.1204 -0.4073
 4095TIP3    H112249   3.130   1.950   4.608  1.5318  1.5720  0.6534
 4095TIP3    H212250   3.221   1.829   4.607 -0.0908  0.3269  0.2436
 4096TIP3   OH212251   6.963   4.146   5.501 -0.2475  0.5566  0.1395
 4096TIP3    H112252   6.877   4.182   5.480  0.5386  2.3344 -0.1650
 4096TIP3    H212253   7.001   4.209   5.562  0.1914 -1.1007  1.6847
 4097TIP3   OH212254   1.478   0.348   0.604 -0.5386  0.2876  0.1334
 4097TIP3    H112255   1.494   0.441   0.624  1.9288  0.0792 -0.5196
 4097TIP3    H212256   1.528   0.300   0.670 -0.6198 -0.5452 -0.3995
 4098TIP3   OH212257   6.329   0.779   4.231  0.1112  0.2394  0.4278
 4098TIP3    H112258   6.330   0.717   4.304 -1.3738  0.3156  0.5547
 4098TIP3    H212259   6.325   0.865   4.272 -0.4878  0.2921  0.2779
 4099TIP3   OH212260   5.283   3.344   2.880 -0.3431 -0.3799  0.1142
 4099TIP3    H112261   5.196   3.352   2.841 -0.7007 -3.7874 -0.0399
 4099TIP3    H212262   5.271   3.286   2.955  1.6181  0.0626  0.8310
 4100TIP3   OH212263   0.952   6.279   1.351  0.2040  0.4282  0.0460
 4100TIP3    H112264   0.912   6.360   1.381 -0.0836  0.2518  0.1489
 4100TIP3    H212265   0.884   6.212   1.366  0.6136  0.0905  0.4236
 4101TIP3   OH212266   3.286   6.523   1.086 -0.1889 -0.5099 -0.6024
 4101TIP3    H112267   3.198   6.484   1.088 -0.0745 -0.7934 -0.9063
 4101TIP3    H212268   3.286   6.578   1.007 -0.5273  0.5497  0.1137
 4102TIP3   OH212269   4.025   2.952   3.459  0.4623 -0.1669  0.6158
 4102TIP3    H112270   3.959   2.972   3.525  0.8148  0.6758  0.7238
 4102TIP3    H212271   3.980   2.960   3.376  0.1407 -0.7466  0.7275
 4103TIP3   OH212272   6.264   5.633   5.067  0.6538  0.5397 -0.3939
 4103TIP3    H112273   6.220   5.560   5.023 -0.9618  1.6213 -0.6246
 4103TIP3    H212274   6.195   5.678   5.114  1.6675  1.7989 -0.0651
 4104TIP3   OH212275   3.965   1.549   0.649 -0.3730  0.3720 -0.1680
 4104TIP3    H112276   3.911   1.474   0.627  1.9489 -2.0023  1.6823
 4104TIP3    H212277   3.955   1.559   0.744  1.9289  0.1819  0.1441
 4105TIP3   OH212278   2.824   5.219   4.154  0.9403 -0.3057 -0.3590
 4105TIP3    H112279   2.847   5.195   4.244  2.8649  0.0883 -0.7085
 4105TIP3    H212280   2.792   5.309   4.161 -0.1910 -0.7211  0.0835
 4106TIP3   OH212281   2.450   5.754   3.167 -0.2218 -0.5718  0.0205
 4106TIP3    H112282   2.418   5.789   3.083 -1.3006 -2.0841 -0.2427
 4106TIP3    H212283   2.538   5.791   3.176 -0.7069  0.9327 -0.9648
 4107TIP3   OH212284   6.984   3.533   1.780 -0.1754  0.6286 -0.0647
 4107TIP3    H112285   7.070   3.547   1.739  0.0898 -2.7271 -0.9629
 4107TIP3    H212286   7.004   3.495   1.865 -0.7718  0.0358 -0.1877
 4108TIP3   OH212287   4.929   1.104   2.354  0.7770  0.7430  0.1494
 4108TIP3    H112288   4.938   1.188   2.399 -0.3864  0.1549  1.5525
 4108TIP3    H212289   4.867   1.055   2.407 -0.0138 -0.3158 -1.6727
 4109TIP3   OH212290   1.235   3.956   1.345  0.0185  0.3938 -0.0654
 4109TIP3    H112291   1.146   3.963   1.311 -0.5364  1.1550  1.4364
 4109TIP3    H212292   1.254   3.862   1.345 -1.2518  0.1144  0.6954
 4110TIP3   OH212293   6.717   5.257   4.048  0.2386 -1.1777  0.0115
 4110TIP3    H112294   6.637   5.223   4.007  0.3675  0.0436 -1.3453
 4110TIP3    H212295   6.686   5.313   4.119 -0.1492 -0.5123 -0.6649
 4111TIP3   OH212296   0.211   1.086   3.844  0.4014 -0.6797  0.4131
 4111TIP3    H112297   0.155   1.112   3.917 -0.2829 -3.8685  1.1974
 4111TIP3    H212298   0.179   1.136   3.769 -0.9059  0.4311  1.6578
 4112TIP3   OH212299   4.860   4.326   2.146 -0.1007 -0.1336  0.4266
 4112TIP3    H112300   4.914   4.272   2.205 -0.6185  0.0833  1.1178
 4112TIP3    H212301   4.842   4.405   2.197 -2.0479 -0.6914  0.6704
 4113TIP3   OH212302   4.638   0.930   5.320 -0.0462 -0.5687  0.1178
 4113TIP3    H112303   4.653   0.999   5.384  0.6312 -0.6016  0.0044
 4113TIP3    H212304   4.548   0.944   5.290  0.9745  2.0983 -2.0829
 4114TIP3   OH212305   2.817   5.718   2.771 -0.5930 -0.3187 -0.2755
 4114TIP3    H112306   2.891   5.748   2.717 -0.5843  1.0054  0.4253
 4114TIP3    H212307   2.812   5.624   2.755  2.7355 -0.9291  1.3680
 4115TIP3   OH212308   5.199   4.168   3.152  0.2720  0.7879 -0.3921
 4115TIP3    H112309   5.163   4.151   3.239  0.4203  2.1585 -0.0358
 4115TIP3    H212310   5.190   4.085   3.105 -2.3776  0.7687  0.0211
 4116TIP3   OH212311   1.196   5.327   4.933  0.2895  0.7924 -0.3225
 4116TIP3    H112312   1.105   5.320   4.902 -0.1560 -1.1513  1.2048
 4116TIP3    H212313   1.219   5.419   4.919 -1.6927  1.1965 -1.3278
 4117TIP3   OH212314   3.169   6.176   1.930  0.0399 -0.0353 -0.0946
 4117TIP3    H112315   3.176   6.173   1.834  0.5829 -2.6926 -0.0742
 4117TIP3    H212316   3.259   6.187   1.959 -0.2297  1.7790  0.1596
 4118TIP3   OH212317   1.588   5.010   1.165 -0.1396  0.4382  0.3929
 4118TIP3    H112318   1.540   4.980   1.088  0.0440 -0.6885  0.7029
 4118TIP3    H212319   1.521   5.034   1.228 -0.3430 -1.0866  0.8082
 4119TIP3   OH212320   2.923   1.846   0.127 -0.4787 -0.5792  0.1001
 4119TIP3    H112321   2.975   1.899   0.067 -1.1277 -2.4609 -2.2867
 4119TIP3    H212322   2.847   1.901   0.149  0.6409  0.7926  0.6906
 4120TIP3   OH212323   5.726   2.861   3.658 -0.2980 -0.4385 -0.4186
 4120TIP3    H112324   5.684   2.877   3.573  0.8463  0.2802 -0.8718
 4120TIP3    H212325   5.661   2.891   3.722 -0.0498  1.8653 -1.1392
 4121TIP3   OH212326   4.978   5.597   5.137  0.4948  0.1710  0.0939
 4121TIP3    H112327   4.974   5.648   5.056  1.2364 -0.7198 -0.5283
 4121TIP3    H212328   5.013   5.512   5.110  1.9832  0.2687  1.5296
 4122TIP3   OH212329   0.069   3.267   1.599  0.2488  0.7933  0.8430
 4122TIP3    H112330   0.130   3.336   1.623  1.1436  0.3787 -0.1527
 4122TIP3    H212331   0.101   3.190   1.646  0.4326  0.5978  0.3993
 4123TIP3   OH212332   6.464   3.947   1.504  0.1361 -0.6865  0.1088
 4123TIP3    H112333   6.479   3.876   1.442  1.7831 -0.6890  0.4773
 4123TIP3    H212334   6.546   3.996   1.505 -0.2939  0.0569  1.3516
 4124TIP3   OH212335   3.843   4.299   0.626  0.3001 -0.4140  0.3174
 4124TIP3    H112336   3.912   4.351   0.667 -0.9407  0.0001  1.9771
 4124TIP3    H212337   3.773   4.295   0.691 -0.2047 -3.0648 -0.2475
 4125TIP3   OH212338   4.336   0.062   0.042  0.3086 -0.5042  0.3067
 4125TIP3    H112339   4.247   0.037   0.017  0.2947 -1.6089  1.3279
 4125TIP3    H212340   4.358   0.136  -0.015 -1.6746  0.5281  0.8038
 4126TIP3   OH212341   6.144   4.504   0.445  0.0753  0.0987 -0.3341
 4126TIP3    H112342   6.051   4.488   0.458  0.0641  0.3531 -0.1146
 4126TIP3    H212343   6.149   4.584   0.393  0.1976  0.7049  0.5937
 4127TIP3   OH212344   3.797   1.082   5.507  0.2046 -0.1671 -0.0351
 4127TIP3    H112345   3.864   1.074   5.439 -1.7201 -0.0204 -2.0535
 4127TIP3    H212346   3.716   1.053   5.465 -1.4004  1.5808  1.6418
 4128TIP3   OH212347   1.228   3.273   4.187 -0.3037 -0.0068  0.0913
 4128TIP3    H112348   1.171   3.338   4.227  1.4920  0.8947  1.3250
 4128TIP3    H212349   1.301   3.323   4.150 -0.6583 -1.0435 -2.1904
 4129TIP3   OH212350   0.710   0.639   2.477 -0.5453 -0.3411  0.7417
 4129TIP3    H112351   0.738   0.586   2.552 -0.5259 -2.6995 -0.8092
 4129TIP3    H212352   0.614   0.635   2.480 -0.6788  1.9205  2.1230
 4130TIP3   OH212353   5.624   5.667   2.904 -0.1208  0.4569 -0.1267
 4130TIP3    H112354   5.614   5.753   2.945 -0.5191  1.2294 -1.7927
 4130TIP3    H212355   5.599   5.605   2.973 -3.4516  1.7967  0.0292
 4131TIP3   OH212356   6.423   5.946   2.200  0.1656 -0.6462 -0.0443
 4131TIP3    H112357   6.404   5.987   2.284 -0.2401 -0.2059 -0.3482
 4131TIP3    H212358   6.337   5.916   2.168  0.1528  0.1736 -0.8130
 4132TIP3   OH212359   3.950   1.240   0.817  0.7015 -0.0891  0.1776
 4132TIP3    H112360   3.898   1.250   0.738  0.6496 -3.1656 -0.2896
 4132TIP3    H212361   4.037   1.270   0.792 -0.0700  2.2407  0.0651
 4133TIP3   OH212362   2.079   6.671   1.996  0.0703 -0.5667  0.1530
 4133TIP3    H112363   2.051   6.630   2.077 -1.7831 -0.7910 -0.5386
 4133TIP3    H212364   2.158   6.624   1.971  0.0263 -1.2516  1.2443
 4134TIP3   OH212365   5.639   4.309   3.321  0.0798 -0.0036 -0.2813
 4134TIP3    H112366   5.680   4.395   3.325  0.6074 -0.2101 -1.1337
 4134TIP3    H212367   5.671   4.270   3.239  0.6693 -1.4091  0.5622
 4135TIP3   OH212368   0.339   0.432   4.681 -0.2911  0.1224  0.3869
 4135TIP3    H112369   0.370   0.385   4.758 -2.6584 -1.6364  0.3848
 4135TIP3    H212370   0.372   0.380   4.607 -0.1276  0.3628  0.2920
 4136TIP3   OH212371   3.031   3.148   3.599  0.3648 -0.4239  0.3335
 4136TIP3    H112372   2.996   3.060   3.591 -0.7384  0.1538 -1.8241
 4136TIP3    H212373   3.027   3.185   3.510  0.7897  1.8075  1.1560
 4137TIP3   OH212374   3.716   3.044   2.271  0.0395  0.6180  0.5300
 4137TIP3    H112375   3.789   3.085   2.318  0.9150 -0.6323  0.3384
 4137TIP3    H212376   3.700   3.102   2.197  1.2942  0.6199  0.2257
 4138TIP3   OH212377   0.194   1.177   5.676 -0.3940  0.2267 -0.1133
 4138TIP3    H112378   0.181   1.117   5.603 -1.7387 -0.9190  1.0034
 4138TIP3    H212379   0.283   1.211   5.665  0.0680 -1.2767 -1.2865
 4139TIP3   OH212380   5.045   3.802   4.548  0.0839 -0.5318  0.1919
 4139TIP3    H112381   4.954   3.776   4.534 -0.5319  1.5557 -0.0151
 4139TIP3    H212382   5.068   3.764   4.633 -2.3090  2.0533  2.1706
 4140TIP3   OH212383   0.949   0.089   3.030 -0.6836  0.4574 -0.1868
 4140TIP3    H112384   0.965  -0.002   3.005 -0.9562 -0.1959  1.8247
 4140TIP3    H212385   0.965   0.091   3.124  0.1937  2.7109 -0.3247
 4141TIP3   OH212386   3.277   2.600   1.109  0.2057  0.2340 -0.0732
 4141TIP3    H112387   3.289   2.513   1.071 -0.3033 -0.0930  0.4827
 4141TIP3    H212388   3.291   2.586   1.203  1.3356  0.9982 -0.1071
 4142TIP3   OH212389   5.160   3.464   2.563  0.5074  0.4055  0.3635
 4142TIP3    H112390   5.248   3.465   2.527  0.6955  0.2337  0.8227
 4142TIP3    H212391   5.140   3.372   2.578 -0.6700  0.1977 -1.9753
 4143TIP3   OH212392   2.891   2.572   4.908  0.2412  0.8822 -0.1939
 4143TIP3    H112393   2.940   2.551   4.828  0.5712 -0.0333  0.2370
 4143TIP3    H212394   2.803   2.538   4.892  0.5580 -0.1476  0.1853
 4144TIP3   OH212395   3.222   3.606   0.410  0.0731  0.0400  0.3246
 4144TIP3    H112396   3.233   3.680   0.350  2.1726  2.0851  2.9736
 4144TIP3    H212397   3.136   3.619   0.450  0.0112  0.4778  0.0490
 4145TIP3   OH212398   2.565   0.483   5.038 -0.6799  0.4601  0.0106
 4145TIP3    H112399   2.554   0.505   5.131 -1.6601  1.2110 -0.2742
 4145TIP3    H212400   2.478   0.456   5.009 -0.6018  1.1937 -0.9440
 4146TIP3   OH212401   0.874   3.045   2.759  0.0929 -0.3071 -0.7001
 4146TIP3    H112402   0.935   3.084   2.696  1.8360 -0.9271  0.5511
 4146TIP3    H212403   0.911   3.066   2.845 -1.0840 -1.3057  0.0838
 4147TIP3   OH212404   1.175   4.778   5.425  0.0786  0.0074  0.1840
 4147TIP3    H112405   1.242   4.757   5.489  0.3133 -0.7100 -0.2795
 4147TIP3    H212406   1.136   4.693   5.402  0.1924  0.2061 -0.8120
 4148TIP3   OH212407   7.099   3.253   1.858 -0.1076 -0.3424  0.6135
 4148TIP3    H112408   7.094   3.272   1.764  1.8156  0.2651  0.5891
 4148TIP3    H212409   7.065   3.164   1.867 -0.5843 -0.2959 -0.6199
 4149TIP3   OH212410   1.369   3.533   2.561 -0.2252 -0.2406 -0.1867
 4149TIP3    H112411   1.394   3.619   2.527 -0.7212  0.6703  1.5999
 4149TIP3    H212412   1.411   3.529   2.647  1.2204 -2.5462 -0.9467
 4150TIP3   OH212413   5.067   4.826   3.470  0.0036 -0.2199 -0.0345
 4150TIP3    H112414   4.971   4.826   3.471 -0.0735 -2.8976  1.3483
 4150TIP3    H212415   5.092   4.903   3.521 -1.4722 -0.4618  1.1256
 4151TIP3   OH212416   1.143   4.751   2.822 -0.2608  0.0969 -0.1885
 4151TIP3    H112417   1.194   4.739   2.742  0.5224  1.1148  0.1337
 4151TIP3    H212418   1.069   4.805   2.796 -2.2729 -2.7896 -1.0445
 4152TIP3   OH212419   3.814   2.611   5.147 -0.7516 -0.1175 -0.0060
 4152TIP3    H112420   3.890   2.573   5.104 -0.7998 -1.2836  0.8617
 4152TIP3    H212421   3.846   2.638   5.233 -0.8470  1.3782 -0.4138
 4153TIP3   OH212422   0.131   1.445   5.775  0.0520 -0.0624 -0.3816
 4153TIP3    H112423   0.203   1.435   5.838  1.6328  0.4332 -2.0283
 4153TIP3    H212424   0.115   1.356   5.743 -0.8223 -0.3292  0.7584
 4154TIP3   OH212425   1.323   4.239   4.206 -0.0235 -0.0196 -0.6097
 4154TIP3    H112426   1.402   4.243   4.259 -0.5952  1.3095  0.2135
 4154TIP3    H212427   1.258   4.199   4.263  0.2021 -1.7527 -1.5195
 4155TIP3   OH212428   1.394   5.620   0.428 -0.0975 -0.4476  0.2150
 4155TIP3    H112429   1.356   5.702   0.397  0.3148 -0.4425 -0.2881
 4155TIP3    H212430   1.486   5.624   0.402  0.3695 -0.2738  1.7844
 4156TIP3   OH212431   5.666   0.297   5.645 -0.2365 -0.0614 -0.0323
 4156TIP3    H112432   5.686   0.205   5.627 -0.7341  0.0847 -1.5193
 4156TIP3    H212433   5.746   0.332   5.686  0.0327 -1.0935  0.3435
 4157TIP3   OH212434   5.653   0.484   2.890 -0.5009 -0.0013  0.5277
 4157TIP3    H112435   5.711   0.513   2.960 -0.4318  1.0208  0.0724
 4157TIP3    H212436   5.644   0.561   2.834 -0.2685 -0.8947 -0.7802
 4158TIP3   OH212437   2.260   3.729   1.952 -0.4500  0.0492  0.4862
 4158TIP3    H112438   2.280   3.772   2.035 -0.6106  0.0120  0.5445
 4158TIP3    H212439   2.342   3.734   1.902 -0.5520  0.6812  0.3766
 4159TIP3   OH212440   3.731   1.916   4.031 -0.3214 -0.1492  0.3112
 4159TIP3    H112441   3.778   1.978   3.976  0.6294 -0.8070  0.3571
 4159TIP3    H212442   3.761   1.830   4.002 -0.5714 -0.5389  1.1680
 4160TIP3   OH212443   1.730   0.099   3.238 -0.7237  0.0295  0.1009
 4160TIP3    H112444   1.727   0.008   3.208  0.3004  0.0853 -0.2219
 4160TIP3    H212445   1.811   0.104   3.290 -0.7120  0.7825  0.0166
 4161TIP3   OH212446   4.125   5.294   3.276 -0.0400 -0.0713 -0.7771
 4161TIP3    H112447   4.197   5.353   3.254 -0.0237  0.4912  0.6444
 4161TIP3    H212448   4.132   5.283   3.371 -1.6626 -0.2516 -0.6553
 4162TIP3   OH212449   5.092   0.073   2.317 -0.2621  0.0661 -0.9837
 4162TIP3    H112450   5.084   0.114   2.403 -2.3415  0.0786 -1.1281
 4162TIP3    H212451   5.040   0.128   2.259 -2.5368 -2.2599 -1.3322
 4163TIP3   OH212452   1.824   3.180   4.124  0.1366 -0.0546  0.1598
 4163TIP3    H112453   1.748   3.131   4.090  0.1186 -0.9555  1.4399
 4163TIP3    H212454   1.794   3.216   4.207  0.8766  0.2670  0.2922
 4164TIP3   OH212455   1.546   5.431   4.611  0.1818 -0.1320  0.0308
 4164TIP3    H112456   1.558   5.339   4.589 -0.4685 -0.1936 -0.0902
 4164TIP3    H212457   1.508   5.470   4.532  1.1461  0.4030 -0.1829
 4165TIP3   OH212458   2.932   4.887   1.375  0.0026 -0.0441 -0.4500
 4165TIP3    H112459   2.938   4.890   1.471  3.0463  2.6583 -0.5440
 4165TIP3    H212460   2.848   4.929   1.355 -0.3972 -0.0886  1.0148
 4166TIP3   OH212461   5.769   1.631   1.419  0.8703  1.0134  0.3662
 4166TIP3    H112462   5.813   1.668   1.496 -1.0069 -0.4213  2.2640
 4166TIP3    H212463   5.758   1.538   1.441  0.5724  0.4860 -1.8190
 4167TIP3   OH212464   0.877   3.132   2.378  0.1422  0.1435 -0.0410
 4167TIP3    H112465   0.873   3.037   2.366  0.2133 -0.0323  1.2374
 4167TIP3    H212466   0.801   3.165   2.331  0.0683 -0.5567 -0.4203
 4168TIP3   OH212467   3.995   0.675   1.233 -0.3067 -0.0130  0.2979
 4168TIP3    H112468   4.037   0.598   1.271 -0.2391 -0.0243  0.1986
 4168TIP3    H212469   4.038   0.688   1.149 -1.0399 -0.4888 -0.1632
 4169TIP3   OH212470   3.914   3.288   0.707  0.4650  0.1867  0.6882
 4169TIP3    H112471   3.822   3.275   0.681  0.8092 -0.3693 -0.3054
 4169TIP3    H212472   3.961   3.295   0.624  1.1448  1.8516  1.1828
 4170TIP3   OH212473   5.572   1.765   2.555  0.0063  0.5475  0.0678
 4170TIP3    H112474   5.485   1.775   2.593 -0.3446  0.4614 -0.6991
 4170TIP3    H212475   5.609   1.689   2.601  1.0145  2.5219  2.8035
 4171TIP3   OH212476   1.560   4.968   0.567  0.1620 -0.0958  0.5205
 4171TIP3    H112477   1.648   4.999   0.588  0.1812 -0.2195  0.6242
 4171TIP3    H212478   1.574   4.882   0.528  0.0232 -0.5893  1.5305
 4172TIP3   OH212479   4.013   1.689   3.726  0.0419  0.1551  0.4756
 4172TIP3    H112480   4.080   1.633   3.687 -0.4188 -0.2762  0.2957
 4172TIP3    H212481   4.048   1.778   3.716 -1.1836  0.4244 -3.4332
 4173TIP3   OH212482   4.839   3.486   5.436  0.3285 -0.0767 -0.5650
 4173TIP3    H112483   4.861   3.485   5.343  0.1929 -0.3984 -0.5936
 4173TIP3    H212484   4.819   3.395   5.458  0.5860 -0.0424 -0.1657
 4174TIP3   OH212485   1.428   4.479   1.107 -0.0321  0.0619 -0.4247
 4174TIP3    H112486   1.427   4.430   1.190 -0.6054 -2.6747 -1.9108
 4174TIP3    H212487   1.418   4.570   1.133  2.2051 -0.4094  2.6396
 4175TIP3   OH212488   4.233   3.978   2.131  0.1501 -0.2063  0.2284
 4175TIP3    H112489   4.173   4.031   2.078 -2.6792 -2.2192  1.1650
 4175TIP3    H212490   4.248   4.031   2.210  0.4234  0.7241 -0.4298
 4176TIP3   OH212491   4.256   3.490   2.042  0.3646  0.4245 -0.8306
 4176TIP3    H112492   4.172   3.455   2.013 -0.1023  0.3461  0.5483
 4176TIP3    H212493   4.249   3.585   2.029 -0.7277  0.6587  1.0824
 4177TIP3   OH212494   3.353   0.820   2.741 -0.4743  0.4997  0.7261
 4177TIP3    H112495   3.368   0.871   2.820 -0.3253  1.9106 -0.1838
 4177TIP3    H212496   3.423   0.846   2.682 -2.0739  1.5102 -0.8393
 4178TIP3   OH212497   5.814   1.683   0.240 -0.3297  0.6931 -0.1467
 4178TIP3    H112498   5.865   1.707   0.163 -0.8772  1.0295 -0.4093
 4178TIP3    H212499   5.763   1.607   0.212  1.6994 -1.1103  0.8011
 4179TIP3   OH212500   0.670   6.235   3.731 -0.3271  0.3514  0.4788
 4179TIP3    H112501   0.621   6.156   3.753 -1.3126  0.0389 -2.4540
 4179TIP3    H212502   0.747   6.204   3.684 -1.3200  1.0819 -1.7651
 4180TIP3   OH212503   2.984   0.765   3.393  0.2475 -0.5229  0.1034
 4180TIP3    H112504   2.973   0.860   3.396  0.3195 -0.4113 -1.6674
 4180TIP3    H212505   2.895   0.731   3.388  0.2186 -0.5535  0.8341
 4181TIP3   OH212506   6.834   2.985   1.173  0.3971 -0.0185 -0.3849
 4181TIP3    H112507   6.806   3.001   1.083 -2.6275  1.2416  0.6708
 4181TIP3    H212508   6.862   3.071   1.205 -0.1833 -0.1197  0.3956
 4182TIP3   OH212509   5.495   4.989   1.929  0.5868 -0.0654 -0.2604
 4182TIP3    H112510   5.525   5.062   1.875  1.5158 -0.5950 -0.4639
 4182TIP3    H212511   5.539   5.001   2.013  1.3296 -0.8021 -0.5370
 4183TIP3   OH212512   1.488   1.830   5.773  0.1323 -0.0559 -0.2610
 4183TIP3    H112513   1.574   1.844   5.735  0.3385  0.8103  0.5033
 4183TIP3    H212514   1.498   1.850   5.866 -0.7688 -0.4587 -0.0593
 4184TIP3   OH212515   1.850   3.303   1.335  0.0105  0.1536  0.0412
 4184TIP3    H112516   1.878   3.243   1.266 -2.9621  0.3407 -1.4575
 4184TIP3    H212517   1.871   3.390   1.302 -0.5032  0.1911 -0.1940
 4185TIP3   OH212518   0.577   6.204   3.366  0.0134  0.0798  0.3074
 4185TIP3    H112519   0.555   6.281   3.314  0.7230 -0.3347 -0.6509
 4185TIP3    H212520   0.612   6.239   3.448 -0.5518  0.7592  0.2646
 4186TIP3   OH212521   6.704   6.642   3.460 -0.8297 -0.4012 -0.4893
 4186TIP3    H112522   6.729   6.638   3.367  1.0742  0.1610 -0.0421
 4186TIP3    H212523   6.779   6.684   3.503 -0.8673 -2.2852  1.5721
 4187TIP3   OH212524   3.150   1.858   2.458 -0.8448 -0.4175 -0.0503
 4187TIP3    H112525   3.196   1.937   2.484  1.5501 -1.9557  0.7479
 4187TIP3    H212526   3.124   1.874   2.367  0.4332  0.9116 -0.2185
 4188TIP3   OH212527   1.861   5.505   1.455 -0.2340 -0.8066  0.4628
 4188TIP3    H112528   1.923   5.545   1.394  0.9360  0.0060  2.1189
 4188TIP3    H212529   1.777   5.549   1.437  0.3858  0.3443  0.3014
 4189TIP3   OH212530   1.925   6.579   3.932 -0.5982  0.0164 -0.1115
 4189TIP3    H112531   1.875   6.607   3.856 -1.2877 -1.7179 -0.3525
 4189TIP3    H212532   1.859   6.542   3.991  0.3764 -2.9349 -0.7081
 4190TIP3   OH212533   1.137   1.281   4.024  0.4731  0.2376 -0.5414
 4190TIP3    H112534   1.230   1.284   4.048  0.2072  0.4916  0.4952
 4190TIP3    H212535   1.091   1.318   4.100 -0.5068 -0.2727 -0.8682
 4191TIP3   OH212536   3.928   3.601   3.605  0.2396 -0.0035  0.6397
 4191TIP3    H112537   3.914   3.646   3.688 -0.2590  0.6831  0.1909
 4191TIP3    H212538   3.867   3.528   3.606  0.7881 -0.4596  1.2124
 4192TIP3   OH212539   2.897   5.689   5.527 -0.3791  0.3051  0.2431
 4192TIP3    H112540   2.960   5.630   5.568 -2.6341 -1.7138  1.0500
 4192TIP3    H212541   2.866   5.642   5.449 -2.8246 -0.0981  1.3462
 4193TIP3   OH212542   6.727   5.749   5.113  0.1212 -0.6103  0.0960
 4193TIP3    H112543   6.777   5.756   5.195  0.5486 -1.3401 -0.0976
 4193TIP3    H212544   6.676   5.669   5.123 -1.9933  0.7114  0.8038
 4194TIP3   OH212545   3.878   2.922   1.424 -0.1060 -0.0662 -0.1341
 4194TIP3    H112546   3.825   2.909   1.345 -0.4049  0.1942  0.0214
 4194TIP3    H212547   3.817   2.908   1.496 -0.1493  0.9728  0.0483
 4195TIP3   OH212548   7.065   2.137   2.568  0.4882 -0.3622  0.1259
 4195TIP3    H112549   7.129   2.123   2.498  1.2688  0.6761  0.6078
 4195TIP3    H212550   7.037   2.049   2.593  3.0111 -0.9710  1.0711
 4196TIP3   OH212551   3.012   6.367   0.091  0.0082 -0.6196 -0.1163
 4196TIP3    H112552   2.979   6.428   0.156  2.0484  0.9788 -0.4771
 4196TIP3    H212553   3.031   6.287   0.139 -1.3165 -0.4907  0.6494
 4197TIP3   OH212554   2.033   6.025   4.132 -0.3213  0.2540  0.0852
 4197TIP3    H112555   2.028   5.991   4.043  1.3610  1.8803 -0.6871
 4197TIP3    H212556   2.029   5.947   4.188  0.0175 -0.9108 -1.4565
 4198TIP3   OH212557   1.494   1.356   2.475 -0.1482 -0.2959 -0.2260
 4198TIP3    H112558   1.467   1.373   2.385 -1.4675  2.3676  0.5571
 4198TIP3    H212559   1.430   1.292   2.507  0.5198 -1.5053 -1.2223
 4199TIP3   OH212560   5.251   0.077   2.637 -0.4781  0.2531 -0.3780
 4199TIP3    H112561   5.306   0.099   2.562  1.3920  1.8969  1.3487
 4199TIP3    H212562   5.263  -0.018   2.648  1.4263  0.4441 -0.5277
 4200TIP3   OH212563   5.909   0.968   0.907 -0.3095 -0.5631 -0.2259
 4200TIP3    H112564   5.920   1.037   0.842 -1.1462  0.7276  0.9493
 4200TIP3    H212565   5.817   0.944   0.902 -0.3729 -0.4881  0.4281
 4201TIP3   OH212566   4.901   1.275   2.114  0.4033 -0.5096 -0.8846
 4201TIP3    H112567   4.810   1.265   2.086 -0.3511  1.6030  0.5359
 4201TIP3    H212568   4.907   1.227   2.196 -0.3399  1.6779  0.5520
 4202TIP3   OH212569   6.716   5.461   4.493 -0.0337 -0.4469 -0.0649
 4202TIP3    H112570   6.749   5.544   4.459  2.1205 -0.7484  1.1187
 4202TIP3    H212571   6.691   5.481   4.584  2.1917 -1.3900  0.8323
 4203TIP3   OH212572   0.042   6.002   2.910 -0.3632  0.6070 -0.0206
 4203TIP3    H112573  -0.028   6.034   2.967 -0.4215  0.7908 -0.1927
 4203TIP3    H212574  -0.004   5.954   2.841 -0.2102 -0.9518  0.9198
 4204TIP3   OH212575   2.380   6.468   5.448  0.2612 -0.3356 -0.3553
 4204TIP3    H112576   2.426   6.405   5.393 -0.0568 -2.2844  1.4820
 4204TIP3    H212577   2.448   6.511   5.498  0.3246 -1.0719  0.2082
 4205TIP3   OH212578   5.917   6.298   2.959 -0.0774 -0.0056  0.0556
 4205TIP3    H112579   5.976   6.357   2.912 -0.4134 -0.3129 -0.7666
 4205TIP3    H212580   5.836   6.299   2.909 -0.1780 -0.9581  0.1734
 4206TIP3   OH212581   2.148   5.013   4.176 -0.8995 -0.5307 -0.0135
 4206TIP3    H112582   2.150   5.059   4.092  2.0037 -1.8405 -0.7985
 4206TIP3    H212583   2.194   5.072   4.236 -1.0967 -0.4998  0.1060
 4207TIP3   OH212584   4.930   3.631   2.417 -0.4433  0.0190  0.1249
 4207TIP3    H112585   4.992   3.592   2.479  0.3431 -0.6860 -1.0629
 4207TIP3    H212586   4.959   3.721   2.407 -0.5568  0.1287  0.7537
 4208TIP3   OH212587   2.193   2.690   2.460 -0.0433  0.0331 -0.3854
 4208TIP3    H112588   2.233   2.771   2.427  2.5760 -1.2575 -0.6421
 4208TIP3    H212589   2.126   2.668   2.395 -0.1696  1.5059 -0.7872
 4209TIP3   OH212590   7.143   4.441   0.010 -0.0171  0.4967  0.7491
 4209TIP3    H112591   7.081   4.376   0.041  0.3847 -0.6632 -0.7684
 4209TIP3    H212592   7.211   4.390  -0.035  0.8101  1.8894  0.3571
 4210TIP3   OH212593   2.786   6.356   0.607  0.5115 -0.2254  0.1274
 4210TIP3    H112594   2.768   6.401   0.690 -0.5250  1.2923 -0.8687
 4210TIP3    H212595   2.881   6.341   0.609  0.3780 -1.1320  2.0004
 4211TIP3   OH212596   1.559   1.750   1.359  0.0707  0.2943  0.1530
 4211TIP3    H112597   1.486   1.760   1.297 -0.1268 -0.4518  0.2527
 4211TIP3    H212598   1.635   1.736   1.304 -0.3677 -2.1099  0.0476
 4212TIP3   OH212599   5.673   4.694   3.979 -0.1068 -0.4412  0.2231
 4212TIP3    H112600   5.673   4.625   3.912  1.2577 -0.2140 -0.0463
 4212TIP3    H212601   5.722   4.766   3.940  1.0300 -0.4331  1.5657
 4213TIP3   OH212602   6.910   0.315   2.970  0.2411  0.2227  0.0003
 4213TIP3    H112603   6.938   0.356   2.888  2.4510 -1.7728 -0.3798
 4213TIP3    H212604   6.871   0.232   2.943 -2.6953  1.2263  0.8270
 4214TIP3   OH212605   0.661   6.292   0.142  0.6461 -0.1360 -0.0545
 4214TIP3    H112606   0.597   6.319   0.076  0.4250 -0.1160  0.1635
 4214TIP3    H212607   0.740   6.272   0.093 -0.0875 -2.0578 -0.5618
 4215TIP3   OH212608   0.370   6.247   2.457 -0.1216  0.1491 -0.0724
 4215TIP3    H112609   0.334   6.167   2.416  0.0043  0.1525 -0.1896
 4215TIP3    H212610   0.293   6.300   2.477 -0.2718 -0.3788  0.8044
 4216TIP3   OH212611   5.806   1.665   4.394 -0.6670  0.4320 -0.7066
 4216TIP3    H112612   5.876   1.603   4.413 -0.8190  1.2364  3.2521
 4216TIP3    H212613   5.848   1.734   4.343  1.2731  0.4379  0.7632
 4217TIP3   OH212614   3.913   0.506   3.089  0.2126  0.2614  0.7122
 4217TIP3    H112615   3.898   0.598   3.109 -0.8572  0.0011  1.2046
 4217TIP3    H212616   3.948   0.505   3.000  1.7203  1.2353  1.2574
 4218TIP3   OH212617   4.412   5.412   4.669  0.8541  0.1917  0.2335
 4218TIP3    H112618   4.466   5.410   4.748  2.3741  1.2278 -0.7175
 4218TIP3    H212619   4.467   5.374   4.601 -1.1167 -2.4751 -0.0251
 4219TIP3   OH212620   4.138   0.963   4.694  0.1191 -0.2280 -0.0139
 4219TIP3    H112621   4.102   0.907   4.763  0.1254 -2.3070 -1.5889
 4219TIP3    H212622   4.201   1.019   4.739 -0.5145 -0.9008  1.7969
 4220TIP3   OH212623   0.930   5.144   3.273  0.1012 -0.2993  0.0914
 4220TIP3    H112624   0.976   5.169   3.353  0.0196  0.7757 -0.1807
 4220TIP3    H212625   0.873   5.219   3.254 -0.5164 -0.9045 -0.5028
 4221TIP3   OH212626   5.061   2.786   0.610 -0.6146 -0.9268 -0.0991
 4221TIP3    H112627   5.125   2.822   0.549 -1.1663 -0.9700 -0.7285
 4221TIP3    H212628   5.112   2.758   0.686 -0.1868  1.3450  0.5086
 4222TIP3   OH212629   4.195   2.400   0.383 -0.0565  0.5268 -0.7323
 4222TIP3    H112630   4.102   2.407   0.408 -0.0861 -1.5025 -0.0606
 4222TIP3    H212631   4.217   2.309   0.400  2.0014  0.8878 -1.2110
 4223TIP3   OH212632   5.964   6.417   1.507 -0.1145 -0.0554  0.1268
 4223TIP3    H112633   5.869   6.415   1.500 -0.1319  0.3700  0.1765
 4223TIP3    H212634   5.995   6.375   1.427 -0.3432 -0.0666  0.0435
 4224TIP3   OH212635   3.205   6.515   5.179  0.2435 -0.4161  0.1345
 4224TIP3    H112636   3.205   6.445   5.244  0.5127 -0.3608  0.1962
 4224TIP3    H212637   3.132   6.494   5.121  0.8569 -1.2218 -0.3631
 4225TIP3   OH212638   7.169   5.504   0.612 -0.0761  0.2741  0.4390
 4225TIP3    H112639   7.163   5.565   0.686 -1.2495  2.9677 -1.7433
 4225TIP3    H212640   7.115   5.542   0.544  1.7553 -1.5464 -2.2503
 4226TIP3   OH212641   2.426   0.994   3.720  0.1751 -0.3701 -0.2581
 4226TIP3    H112642   2.339   0.995   3.760 -0.0062 -2.4961 -0.4697
 4226TIP3    H212643   2.408   0.999   3.626  0.3460  0.1143 -0.2666
 4227TIP3   OH212644   0.058   0.626   2.078  0.4904  0.2348 -0.4015
 4227TIP3    H112645   0.117   0.587   2.143  1.0191  1.5128 -0.0879
 4227TIP3    H212646   0.078   0.579   1.997 -1.0512 -2.2645  0.5486
 4228TIP3   OH212647   6.469   2.883   0.058 -0.2220  0.3061 -0.1248
 4228TIP3    H112648   6.488   2.892  -0.035  3.5428  1.3765  0.5758
 4228TIP3    H212649   6.504   2.797   0.082 -0.2861  0.4412  0.4667
 4229TIP3   OH212650   1.510   1.621   0.973  0.4586  0.3227  0.2846
 4229TIP3    H112651   1.572   1.655   0.908 -0.6255  0.8941 -0.4646
 4229TIP3    H212652   1.563   1.563   1.027  1.2922 -0.5843 -1.4144
 4230TIP3   OH212653   3.013   5.915   0.767 -0.3030  0.5524  0.5774
 4230TIP3    H112654   2.926   5.907   0.727 -0.6337 -0.5690  1.4596
 4230TIP3    H212655   3.064   5.844   0.728 -0.2735  0.1965  1.2541
 4231TIP3   OH212656   3.157   2.397   4.771 -0.1528  0.2272 -0.5849
 4231TIP3    H112657   3.224   2.445   4.819 -1.2074  1.4492 -0.2649
 4231TIP3    H212658   3.123   2.334   4.835  0.9930 -0.7547 -0.9005
 4232TIP3   OH212659   1.684   3.676   1.480  0.3647  0.2391  0.4059
 4232TIP3    H112660   1.646   3.612   1.540  0.8497  0.6478  1.1583
 4232TIP3    H212661   1.653   3.648   1.393 -0.7835 -0.0481  0.8850
 4233TIP3   OH212662   3.908   6.153   2.084  0.2637 -0.2629  0.0278
 4233TIP3    H112663   3.940   6.083   2.027  0.1419  0.0163 -0.3913
 4233TIP3    H212664   3.841   6.112   2.138  0.2342 -0.4847 -0.1772
 4234TIP3   OH212665   6.498   4.856   4.640  0.0790 -0.8182  0.0530
 4234TIP3    H112666   6.455   4.895   4.564 -0.7457 -0.8843  0.4742
 4234TIP3    H212667   6.446   4.779   4.661  0.5303 -1.0236  0.4453
 4235TIP3   OH212668   6.450   1.373   1.777 -0.1665  0.2452  0.0953
 4235TIP3    H112669   6.361   1.338   1.773 -0.2220  0.2867  0.7169
 4235TIP3    H212670   6.441   1.455   1.825 -0.1876  1.6619 -2.1940
 4236TIP3   OH212671   0.931   4.531   4.224 -0.3411 -0.3935  0.5941
 4236TIP3    H112672   1.025   4.529   4.207 -0.7152 -1.5184 -1.8572
 4236TIP3    H212673   0.909   4.441   4.250 -0.8430 -0.3252  0.4237
 4237TIP3   OH212674   2.162   1.812   4.027 -0.3470 -0.0366  0.2453
 4237TIP3    H112675   2.218   1.859   3.965 -1.7495 -0.1900 -1.2132
 4237TIP3    H212676   2.173   1.720   4.004 -0.2164 -0.1650  0.8164
 4238TIP3   OH212677   0.571   4.173   4.794 -0.7323 -0.4565 -0.5915
 4238TIP3    H112678   0.503   4.107   4.809 -1.3900 -0.0263 -1.5668
 4238TIP3    H212679   0.625   4.137   4.724 -0.7286 -0.2464 -0.7004
 4239TIP3   OH212680   2.272   2.827   4.404  0.5112  0.0062 -0.3901
 4239TIP3    H112681   2.321   2.884   4.346 -0.6180 -0.6503 -2.0455
 4239TIP3    H212682   2.217   2.774   4.346 -3.5641  1.9198  1.3730
 4240TIP3   OH212683   5.875   0.235   3.795  0.0201 -0.4843 -0.0968
 4240TIP3    H112684   5.875   0.150   3.839  0.1578 -0.9537 -0.9844
 4240TIP3    H212685   5.858   0.298   3.865 -2.9710 -1.4410  0.1717
 4241TIP3   OH212686   5.997   3.650   0.050 -0.0017  0.2624  0.1528
 4241TIP3    H112687   6.040   3.732   0.027  1.2765  0.4086  2.6872
 4241TIP3    H212688   5.910   3.676   0.080  0.0823  0.6089  0.1015
 4242TIP3   OH212689   4.567   6.520   4.869  0.1798  0.2022  0.6486
 4242TIP3    H112690   4.661   6.510   4.884  0.4465 -0.1270 -1.0971
 4242TIP3    H212691   4.545   6.604   4.910  1.4589  0.8389  0.0780
 4243TIP3   OH212692   7.106   5.426   2.403 -0.1833 -0.6854  0.0926
 4243TIP3    H112693   7.169   5.448   2.335 -1.4746  0.3639 -0.8175
 4243TIP3    H212694   7.083   5.334   2.386 -0.7672 -0.3239 -1.1370
 4244TIP3   OH212695   0.588   3.929   5.702  0.0763  0.0494 -0.1721
 4244TIP3    H112696   0.590   3.910   5.608 -0.1268  0.7836 -0.3292
 4244TIP3    H212697   0.556   3.848   5.742  0.7272 -0.4659 -0.6748
 4245TIP3   OH212698   6.733   0.383   3.960 -0.5870 -0.1695  0.7302
 4245TIP3    H112699   6.809   0.436   3.934  1.1564 -0.6130  4.2256
 4245TIP3    H212700   6.745   0.301   3.914  1.7834 -0.6074  1.9193
 4246TIP3   OH212701   3.899   1.866   4.885  0.2301  0.7978  0.1104
 4246TIP3    H112702   3.879   1.807   4.813  0.7520  1.2606 -0.4183
 4246TIP3    H212703   3.848   1.945   4.867 -0.7398  0.4053  1.0005
 4247TIP3   OH212704   5.615   4.222   2.380  0.5850 -0.0214 -0.1389
 4247TIP3    H112705   5.555   4.179   2.320 -1.2752  0.4548  1.2645
 4247TIP3    H212706   5.600   4.316   2.367 -0.8499  0.0985  1.9148
 4248TIP3   OH212707   5.295   6.476   0.908  0.0971 -0.0423  0.7585
 4248TIP3    H112708   5.229   6.418   0.871  0.0402 -0.1090  0.9647
 4248TIP3    H212709   5.248   6.556   0.931  0.5708  1.0800 -1.7636
 4249TIP3   OH212710   6.955   5.555   3.293 -0.6543 -0.0930  0.3029
 4249TIP3    H112711   6.905   5.572   3.373 -0.8177  1.4529 -0.0973
 4249TIP3    H212712   7.047   5.556   3.322 -0.7477 -2.8322  1.0174
 4250TIP3   OH212713   2.217   1.597   3.866  0.2096 -0.2741 -0.3425
 4250TIP3    H112714   2.214   1.506   3.895  2.7311 -0.3028  0.1097
 4250TIP3    H212715   2.272   1.596   3.788 -0.5600  0.7546 -0.9269
 4251TIP3   OH212716   2.094   0.772   2.794  0.2750 -0.4539 -0.1500
 4251TIP3    H112717   2.180   0.805   2.816 -0.1002  2.6943 -2.6613
 4251TIP3    H212718   2.039   0.791   2.870  1.4644 -1.3390  0.9626
 4252TIP3   OH212719   1.878   1.190   1.551  0.1615 -0.1857  0.4625
 4252TIP3    H112720   1.805   1.148   1.506  0.0978  1.1933 -0.8109
 4252TIP3    H212721   1.839   1.236   1.624 -0.1356 -0.1236  0.2661
 4253TIP3   OH212722   0.715   2.945   4.579 -0.2160 -0.0138  0.0300
 4253TIP3    H112723   0.660   3.015   4.542 -3.0257 -1.2552  1.4881
 4253TIP3    H212724   0.788   2.991   4.620 -0.4238  1.8126 -1.4894
 4254TIP3   OH212725   7.006   0.031   5.885 -0.4283 -0.1612  0.5133
 4254TIP3    H112726   6.924  -0.016   5.903 -0.6195  0.3305  0.9626
 4254TIP3    H212727   6.986   0.088   5.811 -0.6065  0.2408  0.8689
 4255TIP3   OH212728   6.990   5.769   5.046 -0.2200 -0.0992  0.2606
 4255TIP3    H112729   6.971   5.859   5.073 -0.4659 -0.5182  1.5591
 4255TIP3    H212730   6.906   5.725   5.050 -0.3375 -0.1153 -1.5960
 4256TIP3   OH212731   6.757   2.274   1.719 -0.2577  0.0666 -0.2662
 4256TIP3    H112732   6.731   2.273   1.627  1.0880 -0.8833 -0.6520
 4256TIP3    H212733   6.716   2.195   1.756 -0.0849 -0.0185 -0.2562
 4257TIP3   OH212734   5.963   1.163   0.688 -0.4162  0.1310 -0.4173
 4257TIP3    H112735   5.964   1.240   0.746 -0.5085  0.9022 -1.4044
 4257TIP3    H212736   5.872   1.157   0.659 -1.1479 -2.2267  2.0123
 4258TIP3   OH212737   2.864   0.884   5.143  0.0700  0.3146 -0.3967
 4258TIP3    H112738   2.794   0.846   5.196  1.9953  0.2820  2.3188
 4258TIP3    H212739   2.928   0.813   5.135  0.8938  1.0821 -0.7232
 4259TIP3   OH212740   3.677   2.218   0.522  0.0514 -0.1808 -0.3541
 4259TIP3    H112741   3.631   2.143   0.560  0.6971 -1.1262 -1.3792
 4259TIP3    H212742   3.607   2.273   0.487 -0.3653 -1.0580 -0.9221
 4260TIP3   OH212743   3.908   1.321   5.374  0.3536 -0.4335  0.6283
 4260TIP3    H112744   3.826   1.295   5.332  0.3090 -1.4540  1.3003
 4260TIP3    H212745   3.966   1.246   5.363  1.5393  0.6344 -0.6463
 4261TIP3   OH212746   5.739   6.703   5.607 -0.0177  0.1456  0.0877
 4261TIP3    H112747   5.743   6.764   5.533  1.7265  0.2942  0.2598
 4261TIP3    H212748   5.762   6.618   5.569  2.0336  0.4196  0.6097
 4262TIP3   OH212749   4.867   3.285   3.126  0.3808  0.0535  0.1823
 4262TIP3    H112750   4.949   3.304   3.080  0.7561 -1.0964  0.3296
 4262TIP3    H212751   4.849   3.194   3.104 -0.7299  0.2239  0.3652
 4263TIP3   OH212752   4.115   2.533   4.696 -0.0033 -0.5176  0.7289
 4263TIP3    H112753   4.056   2.556   4.768 -0.4324  1.0110 -0.0530
 4263TIP3    H212754   4.075   2.456   4.657 -1.0601  0.0046  0.7281
 4264TIP3   OH212755   2.370   4.244   5.552 -0.1021  0.1393  0.2226
 4264TIP3    H112756   2.414   4.229   5.468  0.2631 -0.6137  0.5376
 4264TIP3    H212757   2.417   4.187   5.614  0.7650  1.9644  1.3233
 4265TIP3   OH212758   2.566   1.612   0.142  0.0115  0.4184  0.7610
 4265TIP3    H112759   2.473   1.631   0.146  0.2118  1.6498  0.0441
 4265TIP3    H212760   2.607   1.674   0.201  0.4484  0.4696  0.4158
 4266TIP3   OH212761   3.546   3.694   0.363  0.6351  0.2070  0.0423
 4266TIP3    H112762   3.523   3.733   0.447  2.7889  1.8968 -0.0826
 4266TIP3    H212763   3.467   3.704   0.310 -0.0447  1.1276  1.1718
 4267TIP3   OH212764   2.408   3.884   1.403  0.0302 -0.5689 -0.2804
 4267TIP3    H112765   2.371   3.961   1.446  3.0783  1.0562 -0.2791
 4267TIP3    H212766   2.333   3.825   1.389 -2.3157  2.0801  0.3214
 4268TIP3   OH212767   1.515   5.359   4.945 -0.1655 -0.6358  0.1446
 4268TIP3    H112768   1.469   5.293   4.893 -0.6242 -0.7852  0.7247
 4268TIP3    H212769   1.479   5.443   4.916  0.4311 -0.6346 -0.6071
 4269TIP3   OH212770   0.037   1.354   4.797 -0.5087 -0.3648 -0.3680
 4269TIP3    H112771   0.010   1.297   4.726 -0.0058 -1.2526  0.1380
 4269TIP3    H212772   0.129   1.334   4.811 -0.8475 -0.9930  1.2230
 4270TIP3   OH212773   1.296   0.166   1.050 -0.5527 -0.3093  0.4015
 4270TIP3    H112774   1.202   0.150   1.049 -0.8663  1.3231  1.0860
 4270TIP3    H212775   1.308   0.242   0.992  0.2978 -0.2897  0.5941
 4271TIP3   OH212776   3.850   5.839   2.654  1.1637  0.5468 -0.1961
 4271TIP3    H112777   3.766   5.877   2.626 -0.5270 -2.2274  0.6955
 4271TIP3    H212778   3.902   5.836   2.574  0.1617  1.7235 -0.9289
 4272TIP3   OH212779   3.701   4.126   4.327 -0.5825  0.1675  0.2379
 4272TIP3    H112780   3.656   4.180   4.262  0.3723  2.4732  1.3493
 4272TIP3    H212781   3.653   4.140   4.408  1.9721  2.8108  1.4881
 4273TIP3   OH212782   1.690   0.512   5.318  0.2501 -0.0842  0.2224
 4273TIP3    H112783   1.765   0.566   5.293 -0.5048  0.6198 -0.5648
 4273TIP3    H212784   1.728   0.444   5.375  1.3901  0.5819  0.2936
 4274TIP3   OH212785   3.758   1.475   2.684 -0.4125 -0.6851  0.1092
 4274TIP3    H112786   3.673   1.440   2.709 -0.2871 -1.3584 -0.3732
 4274TIP3    H212787   3.774   1.438   2.597 -0.1121  0.2993 -0.2664
 4275TIP3   OH212788   5.503   1.106   4.478  0.2891 -0.3179 -0.7227
 4275TIP3    H112789   5.441   1.119   4.406  2.2654 -0.4634 -2.5369
 4275TIP3    H212790   5.513   1.193   4.517 -1.0212 -0.2965 -0.3857
 4276TIP3   OH212791   0.933   0.825   1.512  0.0753  0.2655  0.1085
 4276TIP3    H112792   0.930   0.737   1.550  1.3613 -0.0625 -0.4760
 4276TIP3    H212793   0.842   0.849   1.498 -0.2843 -1.6007 -1.0927
 4277TIP3   OH212794   2.629   0.696   2.223  0.1212 -0.0520 -0.1883
 4277TIP3    H112795   2.654   0.733   2.308 -0.0316  0.1024 -0.2115
 4277TIP3    H212796   2.583   0.766   2.178 -0.0133 -0.2119 -0.3035
 4278TIP3   OH212797   0.485   6.759   1.903 -0.0185 -0.3259  0.0366
 4278TIP3    H112798   0.513   6.817   1.833 -0.5549 -0.4782 -0.3126
 4278TIP3    H212799   0.564   6.742   1.954 -0.3682  3.4628  2.2429
 4279TIP3   OH212800   5.180   5.060   1.220 -0.3606 -0.2757 -0.0090
 4279TIP3    H112801   5.220   5.009   1.149 -2.0868 -1.1368 -0.4117
 4279TIP3    H212802   5.157   4.995   1.286 -3.4721 -0.2852 -0.9443
 4280TIP3   OH212803   1.272   1.636   2.364 -0.3028  0.2082 -0.4313
 4280TIP3    H112804   1.362   1.624   2.394  0.4084 -0.4762 -2.6828
 4280TIP3    H212805   1.237   1.704   2.422  2.1538  1.6279 -0.4773
 4281TIP3   OH212806   1.571   2.395   0.871  0.1710  0.4951 -0.0763
 4281TIP3    H112807   1.587   2.438   0.787 -0.0127  0.5199 -0.0980
 4281TIP3    H212808   1.580   2.466   0.936  0.4070  0.4576 -0.0647
 4282TIP3   OH212809   5.627   3.614   2.021  0.1006  0.0223  0.3059
 4282TIP3    H112810   5.681   3.691   2.036 -1.2555  0.8319  1.2905
 4282TIP3    H212811   5.577   3.604   2.102 -0.2006 -1.5339 -0.0414
 4283TIP3   OH212812   6.128   1.049   4.129 -0.2419 -0.1166  0.3046
 4283TIP3    H112813   6.219   1.041   4.100  0.5271  0.8244  2.2720
 4283TIP3    H212814   6.118   0.980   4.195 -1.1364 -0.5351 -0.2467
 4284TIP3   OH212815   3.241   4.550   5.572  0.1696 -0.7166  0.3977
 4284TIP3    H112816   3.203   4.565   5.485  0.8029 -1.3064  0.0040
 4284TIP3    H212817   3.252   4.455   5.576 -0.4845 -0.7538  1.3990
 4285TIP3   OH212818   2.547   2.753   2.199 -0.4112  0.1037 -0.0868
 4285TIP3    H112819   2.573   2.676   2.248 -0.1285 -0.2802 -0.8185
 4285TIP3    H212820   2.451   2.755   2.206 -0.4959 -0.8372 -0.8110
 4286TIP3   OH212821   3.440   2.893   4.885  0.4242 -0.1626  0.4270
 4286TIP3    H112822   3.418   2.981   4.855 -2.4351 -0.1040  2.2795
 4286TIP3    H212823   3.467   2.846   4.806  0.8791  2.0068 -0.7895
 4287TIP3   OH212824   1.663   1.754   2.312  0.0556 -0.8755  0.2517
 4287TIP3    H112825   1.611   1.756   2.392  0.3233 -0.8254  0.4270
 4287TIP3    H212826   1.752   1.777   2.341  0.0777 -0.4853 -0.1145
 4288TIP3   OH212827   4.733   4.517   1.390  0.7159 -0.4711 -0.3877
 4288TIP3    H112828   4.776   4.475   1.315 -0.2189 -0.1276 -1.1352
 4288TIP3    H212829   4.713   4.605   1.360  0.1602 -0.3903  0.1991
 4289TIP3   OH212830   4.380   6.398   2.133 -0.0978 -0.1015  0.3935
 4289TIP3    H112831   4.367   6.384   2.040 -0.5183  2.1604  0.0488
 4289TIP3    H212832   4.297   6.371   2.173  0.6052 -2.5212  0.3566
 4290TIP3   OH212833   7.201   4.964   3.770 -0.2597  0.2514  0.2685
 4290TIP3    H112834   7.242   4.890   3.724 -0.6939  0.5360 -0.5911
 4290TIP3    H212835   7.129   4.924   3.820  0.5999 -0.1499  1.2340
 4291TIP3   OH212836   3.160   5.349   4.334 -0.3545  0.3361  0.3014
 4291TIP3    H112837   3.138   5.266   4.376  0.2998 -0.3237 -0.6314
 4291TIP3    H212838   3.255   5.358   4.346 -0.1700  0.1752 -0.9495
 4292TIP3   OH212839   3.317   1.534   2.127  0.1354 -0.4234 -0.2543
 4292TIP3    H112840   3.362   1.616   2.108  0.1293 -0.4958 -0.5915
 4292TIP3    H212841   3.229   1.560   2.152 -0.7985 -0.4462 -3.1781
 4293TIP3   OH212842   3.660   4.426   1.774 -0.3256  0.2970 -0.3007
 4293TIP3    H112843   3.572   4.390   1.780 -0.6576  1.1687  0.2477
 4293TIP3    H212844   3.657   4.507   1.825  1.5661 -1.1052  2.2533
 4294TIP3   OH212845   0.824   5.428   5.065  0.0336  0.1479 -0.2281
 4294TIP3    H112846   0.733   5.412   5.090  0.2353 -0.6546  0.0191
 4294TIP3    H212847   0.859   5.341   5.045  1.7102 -0.0754  2.9885
 4295TIP3   OH212848   1.730   1.611   0.740 -0.5522 -0.4869  0.1752
 4295TIP3    H112849   1.694   1.578   0.658  1.9128  1.7226 -1.9722
 4295TIP3    H212850   1.741   1.705   0.726  0.1047 -0.0350  3.0304
 4296TIP3   OH212851   3.303   6.051   2.418 -0.6290  0.0440  0.0133
 4296TIP3    H112852   3.263   6.131   2.385  0.4443  1.4740  1.9990
 4296TIP3    H212853   3.240   5.982   2.395 -1.0893  1.2263 -2.6899
 4297TIP3   OH212854   5.210   4.602   3.242 -0.2561 -0.0002 -0.0915
 4297TIP3    H112855   5.243   4.521   3.202 -0.1577  0.0133 -0.0377
 4297TIP3    H212856   5.234   4.595   3.334 -0.3784  0.0231 -0.0573
 4298TIP3   OH212857   1.141   2.732   5.186  0.0044  0.4303 -0.0354
 4298TIP3    H112858   1.162   2.814   5.141 -2.1030  0.5678 -0.8640
 4298TIP3    H212859   1.066   2.696   5.139 -2.6112  0.7180  3.4565
 4299TIP3   OH212860   2.634   6.223   0.202  0.0886 -0.6455  0.0122
 4299TIP3    H112861   2.641   6.165   0.126 -1.2107 -0.2107 -0.4697
 4299TIP3    H212862   2.590   6.169   0.268 -1.1683 -0.2290 -0.4539
 4300TIP3   OH212863   4.389   3.881   0.673 -0.0977 -0.2861  0.2127
 4300TIP3    H112864   4.340   3.860   0.753  0.5818 -0.2737  0.6404
 4300TIP3    H212865   4.335   3.945   0.627 -1.2862 -1.5044 -0.1534
 4301TIP3   OH212866   4.969   1.118   3.810  0.3375 -0.2557 -0.7428
 4301TIP3    H112867   4.951   1.205   3.775  0.6469  0.1885  0.1898
 4301TIP3    H212868   5.009   1.133   3.896 -0.4034 -1.3275 -0.1820
 4302TIP3   OH212869   3.995   1.468   2.467  0.2513  0.6361  0.0330
 4302TIP3    H112870   3.936   1.393   2.471  1.6775 -0.6744 -1.7010
 4302TIP3    H212871   3.950   1.537   2.515 -0.6248 -1.6179  2.7199
 4303TIP3   OH212872   2.781   2.797   4.033 -0.2518 -0.0600 -0.1467
 4303TIP3    H112873   2.719   2.724   4.023 -0.5784  0.3706 -1.5064
 4303TIP3    H212874   2.823   2.782   4.118 -1.5796 -0.8569  0.4046
 4304TIP3   OH212875   4.809   3.544   3.621  0.0267 -0.1615  0.2702
 4304TIP3    H112876   4.822   3.639   3.611  0.6364  0.0080  2.2843
 4304TIP3    H212877   4.854   3.506   3.545  1.3034  1.0864  0.3526
 4305TIP3   OH212878   6.807   6.110   0.553 -0.5886 -0.4470 -0.3919
 4305TIP3    H112879   6.813   6.015   0.542 -0.8845 -0.3147 -1.9882
 4305TIP3    H212880   6.898   6.139   0.560 -0.5263 -0.9034  0.7498
 4306TIP3   OH212881   4.844   5.148   2.289 -0.1658  0.8950  0.6562
 4306TIP3    H112882   4.914   5.185   2.235 -0.5764  0.4105 -0.2260
 4306TIP3    H212883   4.882   5.069   2.327 -0.2077  0.6555  0.2119
 4307TIP3   OH212884   5.559   4.522   4.241 -0.4895  0.3202 -0.2528
 4307TIP3    H112885   5.607   4.565   4.171  1.3122 -0.5643  0.3826
 4307TIP3    H212886   5.593   4.560   4.322 -0.8616 -0.3202  0.2231
 4308TIP3   OH212887   5.819   0.432   4.044  0.6080  0.0036 -0.1618
 4308TIP3    H112888   5.790   0.465   3.960 -1.8510 -3.4831 -0.9211
 4308TIP3    H212889   5.780   0.492   4.108 -0.5092  0.7120 -1.4445
 4309TIP3   OH212890   6.879   6.079   0.030  0.2867  0.0164  0.5047
 4309TIP3    H112891   6.816   6.144   0.059  0.5859  1.4072 -1.6730
 4309TIP3    H212892   6.959   6.098   0.080 -0.4677 -0.6309  2.0083
 4310TIP3   OH212893   3.213   2.590   0.464 -0.5992 -0.3648  0.3151
 4310TIP3    H112894   3.134   2.572   0.414 -0.6153  0.0839  0.1646
 4310TIP3    H212895   3.274   2.627   0.399  0.0666 -1.5604  0.2296
 4311TIP3   OH212896   2.570   6.298   1.249  0.5342  0.1668 -0.6445
 4311TIP3    H112897   2.562   6.235   1.177  1.7688  0.5562 -1.1536
 4311TIP3    H212898   2.584   6.382   1.205  0.1723  0.5986  0.0500
 4312TIP3   OH212899   3.163   0.898   4.811 -0.1486 -0.3425  0.7528
 4312TIP3    H112900   3.148   0.814   4.855 -1.6307 -0.4608  0.0682
 4312TIP3    H212901   3.103   0.897   4.737 -0.1429  1.3147  0.7047
 4313TIP3   OH212902   6.302   4.226   4.277  0.3657  0.9051  0.3226
 4313TIP3    H112903   6.268   4.261   4.359 -1.4455 -0.2044  0.1019
 4313TIP3    H212904   6.379   4.175   4.302 -0.2281  0.4863  1.3640
 4314TIP3   OH212905   5.505   2.702   0.513 -0.5125  0.2837  0.1666
 4314TIP3    H112906   5.511   2.615   0.553 -1.4647 -0.3462 -0.9798
 4314TIP3    H212907   5.594   2.736   0.516 -0.1803 -0.6181  0.8943
 4315TIP3   OH212908   4.873   4.408   3.956 -0.4902  0.7228  0.2464
 4315TIP3    H112909   4.860   4.316   3.934  1.1766  0.5725 -0.2341
 4315TIP3    H212910   4.965   4.413   3.982 -0.0990  2.5459 -1.2946
 4316TIP3   OH212911   5.849   6.637   1.134 -0.0878 -0.1578  0.1227
 4316TIP3    H112912   5.842   6.610   1.042  1.1321 -2.6849  0.6698
 4316TIP3    H212913   5.837   6.732   1.133 -1.2508 -0.2647 -2.4892
 4317TIP3   OH212914   0.624   2.517   0.544  0.1696 -0.9065 -0.4994
 4317TIP3    H112915   0.705   2.493   0.500  0.4097 -3.0937  0.9883
 4317TIP3    H212916   0.650   2.535   0.635 -0.5492  1.8504 -0.7216
 4318TIP3   OH212917   4.950   5.256   1.300 -0.2360  0.2083 -0.1661
 4318TIP3    H112918   4.981   5.171   1.267 -0.8112  0.1024 -0.4468
 4318TIP3    H212919   5.016   5.282   1.364 -1.2513 -1.6118  1.7500
 4319TIP3   OH212920   6.961   6.242   2.645  0.1209 -0.0381 -0.2402
 4319TIP3    H112921   6.899   6.188   2.693 -0.8628 -0.1140 -1.5499
 4319TIP3    H212922   6.908   6.314   2.609  0.7588 -0.1583 -1.4627
 4320TIP3   OH212923   3.785   4.985   4.094  0.2247  0.5276  0.2157
 4320TIP3    H112924   3.855   5.003   4.031  0.0552  0.7381  0.0839
 4320TIP3    H212925   3.828   4.984   4.179  0.4132  0.5013  0.1205
 4321TIP3   OH212926   1.982   0.225   1.055 -0.5186  0.4162 -0.3716
 4321TIP3    H112927   1.951   0.314   1.073 -2.0876  0.0825 -1.2906
 4321TIP3    H212928   1.903   0.174   1.038  0.4101 -0.9636 -0.7585
 4322TIP3   OH212929   0.884   5.812   4.091  0.1959 -0.3042 -0.2751
 4322TIP3    H112930   0.807   5.765   4.122 -1.2843  1.2767 -1.4161
 4322TIP3    H212931   0.932   5.748   4.038 -0.3514 -1.2812  0.3878
 4323TIP3   OH212932   6.387   5.205   1.180  0.1153 -0.3676  0.0073
 4323TIP3    H112933   6.440   5.198   1.260 -1.3009 -0.9079  0.9408
 4323TIP3    H212934   6.412   5.128   1.128  0.6604 -0.3007  0.1592
 4324TIP3   OH212935   5.613   4.676   4.483  0.1231 -0.3549  0.1759
 4324TIP3    H112936   5.702   4.666   4.515 -0.9711 -0.0246  3.7514
 4324TIP3    H212937   5.585   4.762   4.515 -2.6461 -2.0078  2.7831
 4325TIP3   OH212938   5.006   4.278   5.261  0.0037 -0.2267 -0.0707
 4325TIP3    H112939   4.951   4.228   5.322 -1.6979  1.6457  0.0406
 4325TIP3    H212940   5.085   4.226   5.252 -0.3397 -1.3515  2.5224
 4326TIP3   OH212941   3.102   5.629   3.536  0.1903 -0.1493 -0.1370
 4326TIP3    H112942   3.019   5.628   3.489 -0.2199  0.8860  0.5205
 4326TIP3    H212943   3.083   5.589   3.621 -0.3250  2.2880  1.0053
 4327TIP3   OH212944   5.716   2.887   0.202  0.5216  0.0455  0.3346
 4327TIP3    H112945   5.748   2.973   0.231 -1.3190  0.8075  0.3104
 4327TIP3    H212946   5.728   2.830   0.278  1.8718  0.2708  0.3142
 4328TIP3   OH212947   4.171   3.584   3.299 -0.0978 -0.5326 -0.0658
 4328TIP3    H112948   4.199   3.582   3.207  0.3983 -0.3946  0.0787
 4328TIP3    H212949   4.076   3.599   3.295  0.1609  1.1904 -0.5422
 4329TIP3   OH212950   0.602   0.823   3.966  0.5895 -0.5478 -0.7124
 4329TIP3    H112951   0.515   0.799   3.998  1.1883 -0.6981  0.9162
 4329TIP3    H212952   0.599   0.918   3.956  0.3498 -0.5008 -0.2371
 4330TIP3   OH212953   5.256   6.137   5.512 -0.1021  0.5105 -0.0344
 4330TIP3    H112954   5.264   6.064   5.574 -2.0899  1.1984  1.1113
 4330TIP3    H212955   5.326   6.197   5.536  0.8131 -0.4553 -0.2176
 4331TIP3   OH212956   7.036   6.441   2.062 -0.0080 -0.3173 -0.2531
 4331TIP3    H112957   7.015   6.364   2.010  0.5386  0.1616 -1.2250
 4331TIP3    H212958   6.963   6.450   2.123 -1.2375 -0.2760 -1.6691
 4332TIP3   OH212959   2.450   5.643   1.445 -0.0969  0.0252  0.4199
 4332TIP3    H112960   2.495   5.566   1.411  1.1611  1.0127 -0.2596
 4332TIP3    H212961   2.466   5.711   1.379 -4.0066  0.0761 -0.6979
 4333TIP3   OH212962   5.551   6.519   2.084 -0.4387 -0.4706  0.2145
 4333TIP3    H112963   5.633   6.493   2.044 -0.7998  0.2825 -1.0731
 4333TIP3    H212964   5.567   6.513   2.179  1.0467 -0.4377 -0.0200
 4334TIP3   OH212965   5.107   0.675   2.674  0.2945  0.2452 -0.1038
 4334TIP3    H112966   5.089   0.758   2.718 -0.8307  0.3696 -0.7623
 4334TIP3    H212967   5.069   0.609   2.732  0.6906  0.2230  0.1393
 4335TIP3   OH212968   3.919   6.254   0.414  0.3458  0.1779 -0.5822
 4335TIP3    H112969   3.928   6.231   0.322  3.0552  0.1460 -0.3992
 4335TIP3    H212970   3.934   6.172   0.461 -1.1018  0.1769 -0.0898
 4336TIP3   OH212971   5.297   1.383   3.709  0.0886 -0.3284 -0.0025
 4336TIP3    H112972   5.240   1.328   3.654  1.7492 -2.4594  0.2466
 4336TIP3    H212973   5.380   1.336   3.710  1.1177  1.4110  1.6315
 4337TIP3   OH212974   4.878   2.821   3.571 -0.0032  0.4358  0.0990
 4337TIP3    H112975   4.933   2.893   3.540 -0.8510  1.2109  0.3412
 4337TIP3    H212976   4.940   2.751   3.592  0.8311  1.0368 -0.2794
 4338TIP3   OH212977   4.419   3.329   0.700  0.4261 -0.4842  0.2457
 4338TIP3    H112978   4.387   3.392   0.765 -2.0045 -1.4682  0.0958
 4338TIP3    H212979   4.514   3.326   0.715  0.1372  0.3328  2.8419
 4339TIP3   OH212980   0.218   6.478   4.839  0.3921 -0.9349 -0.7158
 4339TIP3    H112981   0.203   6.389   4.806 -0.4854 -1.8760  1.9313
 4339TIP3    H212982   0.191   6.474   4.931  1.1094  1.8858 -0.2910
 4340TIP3   OH212983   1.672   3.364   3.937 -0.0395  0.4378 -0.1574
 4340TIP3    H112984   1.674   3.448   3.983 -0.6517  0.5684 -0.3504
 4340TIP3    H212985   1.672   3.298   4.007  1.7974  0.5456 -0.0216
 4341TIP3   OH212986   0.061   5.168   3.248 -0.0444  0.6658  0.1838
 4341TIP3    H112987   0.011   5.088   3.267 -0.1558  0.7412  0.2099
 4341TIP3    H212988   0.125   5.173   3.319 -0.2036  0.7356  0.3225
 4342TIP3   OH212989   2.155   3.889   3.293 -0.1512  0.4386 -0.6735
 4342TIP3    H112990   2.070   3.893   3.336  0.6047  0.0699  0.9427
 4342TIP3    H212991   2.167   3.976   3.255 -0.6462  0.9561  0.3133
 4343TIP3   OH212992   2.463   5.491   1.078 -0.5011  0.0709  0.2275
 4343TIP3    H112993   2.527   5.562   1.080  1.1712 -1.3121 -1.4983
 4343TIP3    H212994   2.382   5.533   1.049  0.1980  1.4336  0.1681
 4344TIP3   OH212995   6.821   0.976   4.858  0.1884  0.0599  0.0729
 4344TIP3    H112996   6.733   0.971   4.893 -0.1902  0.6756 -0.7594
 4344TIP3    H212997   6.870   1.027   4.924 -0.4614  1.0421 -0.1911
 4345TIP3   OH212998   5.955   4.321   4.174  0.1289  0.4082  0.0908
 4345TIP3    H112999   6.001   4.239   4.190  0.5970  0.3833 -1.2038
 4345TIP3    H213000   6.000   4.359   4.098 -0.3235  1.6777  0.4287
 4346TIP3   OH213001   6.578   0.697   0.842  0.1509 -0.1556  0.4077
 4346TIP3    H113002   6.573   0.658   0.754 -0.0885  1.5537 -0.3770
 4346TIP3    H213003   6.671   0.714   0.855  0.1516 -0.1091  0.3437
 4347TIP3   OH213004   5.744   6.254   2.747  0.0668  0.3693 -0.5543
 4347TIP3    H113005   5.765   6.191   2.678 -0.9120 -0.5269 -0.0498
 4347TIP3    H213006   5.665   6.221   2.788  0.0050  1.4811  0.2930
 4348TIP3   OH213007   2.387   1.055   4.844 -0.2353  0.4118  0.0952
 4348TIP3    H113008   2.467   1.096   4.876 -0.3959  0.2272  0.7592
 4348TIP3    H213009   2.408   0.962   4.836  0.1528  0.6088 -1.4902
 4349TIP3   OH213010   5.768   4.778   1.711  0.3496 -0.0938  0.0306
 4349TIP3    H113011   5.826   4.731   1.652 -0.1961 -1.0780  0.2482
 4349TIP3    H213012   5.827   4.822   1.772  0.9242  1.0786 -1.3167
 4350TIP3   OH213013   1.771   0.500   0.203 -0.4479 -0.5510  0.2730
 4350TIP3    H113014   1.798   0.410   0.221 -2.6890 -1.3257  0.0772
 4350TIP3    H213015   1.683   0.491   0.166 -1.2111  1.7767  1.3632
 4351TIP3   OH213016   0.615   0.365   1.621 -0.5195 -0.3069 -0.2729
 4351TIP3    H113017   0.571   0.399   1.543  0.6293  1.6163 -0.1571
 4351TIP3    H213018   0.627   0.272   1.603 -0.6408  0.0096 -2.2412
 4352TIP3   OH213019   2.967   0.495   4.519 -0.0687  0.2787 -0.0758
 4352TIP3    H113020   3.015   0.429   4.570  1.0029  1.0130 -0.1178
 4352TIP3    H213021   2.912   0.539   4.584 -1.4390 -1.1680 -0.1739
 4353TIP3   OH213022   5.985   5.029   0.122  0.0754  0.5012 -0.5159
 4353TIP3    H113023   5.929   5.103   0.144  0.5147  1.0100 -1.0657
 4353TIP3    H213024   6.054   5.030   0.189  0.3479  0.8879 -0.7966
 4354TIP3   OH213025   0.016   0.494   2.902  0.0174 -0.8802  0.0450
 4354TIP3    H113026   0.111   0.484   2.899  0.3552  1.5226  1.1641
 4354TIP3    H213027  -0.012   0.436   2.973  1.1525  1.0825  2.2370
 4355TIP3   OH213028   3.535   1.986   0.895  0.4501 -0.0718  0.6915
 4355TIP3    H113029   3.464   1.957   0.952 -0.1428  1.2258  0.6333
 4355TIP3    H213030   3.561   2.071   0.930  1.3475 -0.1128  0.1498
 4356TIP3   OH213031   2.135   1.928   2.726 -0.5154 -0.0808 -0.0823
 4356TIP3    H113032   2.065   1.888   2.674 -1.2135  1.4490 -0.3744
 4356TIP3    H213033   2.198   1.959   2.661 -0.6212  0.4469  0.0637
 4357TIP3   OH213034   1.162   1.985   4.003 -0.1953 -0.6167  0.3652
 4357TIP3    H113035   1.069   2.000   3.989 -0.1851 -0.9729 -0.1144
 4357TIP3    H213036   1.166   1.924   4.076 -0.4696 -2.8279 -1.3656
 4358TIP3   OH213037   3.925   6.003   5.583  0.0575 -0.0466  0.0354
 4358TIP3    H113038   3.915   5.957   5.666 -1.7883 -0.8977 -0.6030
 4358TIP3    H213039   3.946   6.093   5.607 -1.1050 -0.1176  1.4597
 4359TIP3   OH213040   2.243   5.643   4.088 -0.6716 -0.4948 -0.1799
 4359TIP3    H113041   2.175   5.700   4.122 -0.6435 -0.1516 -0.6865
 4359TIP3    H213042   2.285   5.694   4.018  0.5746 -0.4171  0.5973
 4360TIP3   OH213043   1.934   3.103   4.393  0.5434  0.0650  0.6177
 4360TIP3    H113044   1.873   3.176   4.404 -0.4662 -0.3767 -1.6072
 4360TIP3    H213045   1.892   3.030   4.439 -0.3034 -0.0470 -0.2913
 4361TIP3   OH213046   7.042   6.576   4.035 -0.1378  0.2330  0.2061
 4361TIP3    H113047   6.966   6.552   4.089 -1.3141 -0.8044 -1.7780
 4361TIP3    H213048   7.067   6.495   3.991  0.0771  1.2131 -1.5911
 4362TIP3   OH213049   6.349   0.548   5.496 -0.2304  0.6384 -0.4786
 4362TIP3    H113050   6.325   0.551   5.404 -0.9158  0.9437 -0.2987
 4362TIP3    H213051   6.334   0.638   5.527  1.5843  0.9625 -0.4588
 4363TIP3   OH213052   3.051   1.601   2.186 -0.9003  0.3566 -0.4899
 4363TIP3    H113053   3.020   1.556   2.107  0.1700 -2.4770  0.5857
 4363TIP3    H213054   2.982   1.587   2.251 -1.3901  1.9453 -0.6236
 4364TIP3   OH213055   0.624   4.777   5.884 -0.6858 -0.2686 -0.3516
 4364TIP3    H113056   0.632   4.762   5.789  0.4056 -1.4383 -0.1017
 4364TIP3    H213057   0.555   4.716   5.912  1.0052 -2.1177  0.0277
 4365TIP3   OH213058   4.048   3.374   1.915 -0.3570  0.0566  0.1282
 4365TIP3    H113059   4.005   3.453   1.882  0.3134 -0.0097 -0.9442
 4365TIP3    H213060   3.982   3.305   1.904 -1.4666  0.6456  2.3490
 4366TIP3   OH213061   2.136   2.888   1.989 -0.2464  0.5832 -0.0755
 4366TIP3    H113062   2.064   2.930   2.036 -1.2067  1.1797 -1.9668
 4366TIP3    H213063   2.191   2.960   1.960 -0.1037  0.2919 -0.5360
 4367TIP3   OH213064   7.104   1.518   0.407  0.1897  0.4115 -0.1252
 4367TIP3    H113065   7.063   1.546   0.489  0.5538 -1.9669  0.9646
 4367TIP3    H213066   7.195   1.502   0.431  0.0559 -1.3770 -0.6798
 4368TIP3   OH213067   4.770   4.883   2.691  0.2378 -0.2507  0.4631
 4368TIP3    H113068   4.830   4.927   2.751  0.1957 -0.0643  0.3711
 4368TIP3    H213069   4.708   4.837   2.748 -0.5829  0.9700  0.5887
 4369TIP3   OH213070   2.646   6.769   3.997  0.0676 -0.0794  0.1608
 4369TIP3    H113071   2.669   6.766   3.904  0.5911 -1.2152  0.3125
 4369TIP3    H213072   2.551   6.776   3.998  0.1177  0.8089 -0.4602
 4370TIP3   OH213073   4.979   0.432   2.724  0.3184  0.2425  0.2184
 4370TIP3    H113074   4.905   0.448   2.784 -1.4310 -2.4559 -1.0231
 4370TIP3    H213075   5.046   0.391   2.780 -0.9783 -1.5185  0.5790
 4371TIP3   OH213076   3.318   5.919   1.097  0.0076  0.0602  0.0786
 4371TIP3    H113077   3.329   5.961   1.012  1.6880 -0.5128 -0.0314
 4371TIP3    H213078   3.372   5.840   1.092 -2.1328 -1.5512  0.6761
 4372TIP3   OH213079   5.341   0.569   2.169 -0.2812  0.6537  0.4981
 4372TIP3    H113080   5.369   0.481   2.144  0.5079  1.2325 -0.7173
 4372TIP3    H213081   5.308   0.559   2.259 -0.5063 -0.9266  0.2637
 4373TIP3   OH213082   1.321   4.880   5.218  0.3474  0.0097 -0.1667
 4373TIP3    H113083   1.349   4.809   5.159  0.6703 -1.0246  1.1724
 4373TIP3    H213084   1.255   4.839   5.274 -0.3208  1.1099 -0.1249
 4374TIP3   OH213085   5.399   4.742   0.114  0.2428  0.0772 -0.4383
 4374TIP3    H113086   5.483   4.773   0.079  1.1975 -1.2966  0.5337
 4374TIP3    H213087   5.419   4.656   0.152 -1.3899  0.1787  0.7588
 4375TIP3   OH213088   1.061   2.072   3.022  0.1776  0.0512 -0.1341
 4375TIP3    H113089   1.048   2.145   2.961  0.9193  0.1892 -0.1304
 4375TIP3    H213090   0.974   2.057   3.060 -0.4008 -0.3109 -1.5220
 4376TIP3   OH213091   6.533   6.597   5.307 -0.7839  0.1282 -0.1621
 4376TIP3    H113092   6.502   6.549   5.384  0.9339 -1.1208 -0.1959
 4376TIP3    H213093   6.629   6.589   5.311 -0.6518 -0.4146 -2.7103
 4377TIP3   OH213094   3.223   1.755   0.200 -0.2972 -0.6437  0.5467
 4377TIP3    H113095   3.257   1.668   0.219  0.3612 -0.5526 -0.1167
 4377TIP3    H213096   3.248   1.809   0.275 -0.1977 -0.8998  0.6948
 4378TIP3   OH213097   3.081   4.083   4.499 -0.0368 -0.0336 -0.0078
 4378TIP3    H113098   3.167   4.124   4.489 -0.2490  1.0054  1.9964
 4378TIP3    H213099   3.034   4.107   4.419  1.3502 -0.2357 -0.9321
 4379TIP3   OH213100   2.613   2.511   1.531 -0.0412  0.3589 -0.2993
 4379TIP3    H113101   2.707   2.522   1.516  0.0749 -0.7482 -0.5141
 4379TIP3    H213102   2.583   2.596   1.562  1.0094  0.7644 -0.3579
 4380TIP3   OH213103   4.062   5.548   5.235  0.2817 -0.1785  0.2573
 4380TIP3    H113104   4.111   5.619   5.193 -0.4873 -0.5396 -1.3267
 4380TIP3    H213105   3.972   5.578   5.237  0.4345  0.3080  2.7895
 4381TIP3   OH213106   5.326   1.618   3.572 -0.0902 -0.0953 -0.3114
 4381TIP3    H113107   5.372   1.578   3.499  0.4183 -0.2175  0.0677
 4381TIP3    H213108   5.298   1.544   3.626  1.2355  0.0434  0.6218
 4382TIP3   OH213109   6.815   4.680   5.030  0.0001 -0.1029  0.3316
 4382TIP3    H113110   6.789   4.770   5.010 -0.3591 -0.2023  0.3523
 4382TIP3    H213111   6.733   4.633   5.041  0.1894 -0.4016  0.4719
 4383TIP3   OH213112   4.322   4.279   5.096  0.8378 -0.4466  0.5957
 4383TIP3    H113113   4.254   4.330   5.140 -0.6507 -0.9860 -0.9699
 4383TIP3    H213114   4.404   4.311   5.133 -0.1099  2.0917  0.6915
 4384TIP3   OH213115   5.380   4.196   2.697 -0.0623 -0.6642  0.0180
 4384TIP3    H113116   5.443   4.136   2.736  0.6362  1.0654  1.6966
 4384TIP3    H213117   5.431   4.274   2.675 -1.6113  1.0210  1.9577
 4385TIP3   OH213118   7.071   2.988   1.963  0.4948  0.8130  0.0443
 4385TIP3    H113119   7.167   2.987   1.961  0.5243  1.5919  0.5542
 4385TIP3    H213120   7.045   2.897   1.952  1.2776  0.6846 -0.9232
 4386TIP3   OH213121   5.637   2.460   5.036 -0.1037  0.1370  0.5547
 4386TIP3    H113122   5.625   2.403   4.960 -0.2711 -0.4470  1.0060
 4386TIP3    H213123   5.711   2.516   5.013 -0.3894  0.2177 -0.1828
 4387TIP3   OH213124   6.842   0.673   4.525 -0.3474  0.0752 -0.0356
 4387TIP3    H113125   6.750   0.659   4.547 -0.4286  0.1098 -0.3425
 4387TIP3    H213126   6.876   0.586   4.505 -0.4943  0.1394 -0.5921
 4388TIP3   OH213127   6.057   6.719   2.970  0.9248  0.2474 -0.0530
 4388TIP3    H113128   6.047   6.812   2.949 -1.4901  0.6617  2.2422
 4388TIP3    H213129   5.992   6.675   2.916  0.4445  0.2459  0.5071
 4389TIP3   OH213130   5.655   4.388   0.673  0.1979  0.5878  0.3053
 4389TIP3    H113131   5.668   4.311   0.728 -1.0148 -0.4421 -0.7811
 4389TIP3    H213132   5.743   4.414   0.646  0.7923  0.9278  2.4352
 4390TIP3   OH213133   5.834   2.418   1.991 -0.4575  0.5925 -0.0344
 4390TIP3    H113134   5.903   2.356   1.969  0.1389  0.7724  1.1941
 4390TIP3    H213135   5.752   2.372   1.972 -0.0707 -1.0012  1.7764
 4391TIP3   OH213136   1.271   3.540   3.079  0.2604  0.3260  0.0714
 4391TIP3    H113137   1.289   3.489   3.000  1.1681 -0.5723  0.8320
 4391TIP3    H213138   1.218   3.482   3.134 -2.3835  1.7731 -0.7759
 4392TIP3   OH213139   6.504   0.883   0.645  0.3032 -0.6340 -0.0572
 4392TIP3    H113140   6.547   0.822   0.585 -1.4874 -1.7380 -0.2597
 4392TIP3    H213141   6.524   0.849   0.732  0.1840 -0.9079 -0.1361
 4393TIP3   OH213142   2.807   1.652   1.763  0.2351  0.6440 -0.1716
 4393TIP3    H113143   2.807   1.725   1.702 -0.3788  1.3874  0.6915
 4393TIP3    H213144   2.731   1.599   1.737 -1.4916  2.2430  1.3908
 4394TIP3   OH213145   0.444   3.276   1.078 -0.2302  0.0828  0.5053
 4394TIP3    H113146   0.482   3.288   0.991  0.1218  1.2854  0.7950
 4394TIP3    H213147   0.354   3.310   1.070 -0.5099 -0.6692  0.3859
 4395TIP3   OH213148   2.926   3.843   5.355  0.2496  0.0179  0.2758
 4395TIP3    H113149   2.967   3.850   5.441 -2.4292 -0.4785  1.6843
 4395TIP3    H213150   2.986   3.789   5.304  1.7683  0.0826  1.9167
 4396TIP3   OH213151   1.540   1.188   3.064  0.2636  0.1647 -0.2637
 4396TIP3    H113152   1.445   1.176   3.062  0.4716 -1.7243 -2.0753
 4396TIP3    H213153   1.563   1.190   3.157 -1.3661 -0.9770  0.1956
 4397TIP3   OH213154   2.842   2.104   0.562  0.2320 -0.1377  0.0455
 4397TIP3    H113155   2.851   2.024   0.613  2.6624  0.7869  1.2081
 4397TIP3    H213156   2.749   2.108   0.539 -0.7418 -1.2471  3.3416
 4398TIP3   OH213157   5.353   1.358   1.121  0.7777  0.1600  0.1226
 4398TIP3    H113158   5.309   1.383   1.040  0.4239  0.9859  0.5605
 4398TIP3    H213159   5.307   1.406   1.190 -0.5375 -2.3582  1.1369
 4399TIP3   OH213160   2.673   3.811   5.408 -0.1807  0.5475 -0.2564
 4399TIP3    H113161   2.625   3.824   5.327  0.7296 -1.5351 -1.2042
 4399TIP3    H213162   2.765   3.823   5.384  0.1183 -0.3011  0.4019
 4400TIP3   OH213163   4.679   1.339   0.348  0.4263 -0.1988 -0.1909
 4400TIP3    H113164   4.706   1.251   0.374  2.9347  1.1702  2.4407
 4400TIP3    H213165   4.596   1.354   0.394  0.5873 -0.7974  0.3059
 4401TIP3   OH213166   7.118   5.219   3.508 -0.2380  0.1287 -0.3058
 4401TIP3    H113167   7.049   5.193   3.569 -0.0874  0.8202  0.1700
 4401TIP3    H213168   7.076   5.217   3.422 -0.6749 -0.0546 -0.0925
 4402TIP3   OH213169   0.925   0.217   1.543 -0.1899 -0.0238 -0.3791
 4402TIP3    H113170   0.936   0.142   1.484 -0.0302 -0.4665  0.2038
 4402TIP3    H213171   0.884   0.285   1.489 -0.7098 -0.6689 -0.8103
 4403TIP3   OH213172   5.265   3.552   1.225 -0.0975 -0.5361  0.0273
 4403TIP3    H113173   5.336   3.587   1.278 -0.6818  2.4711 -0.9574
 4403TIP3    H213174   5.228   3.480   1.277  1.8345 -0.3142  1.8087
 4404TIP3   OH213175   6.049   5.701   5.217  0.5842 -0.2133  0.3150
 4404TIP3    H113176   5.990   5.730   5.147  1.4439  1.3243  0.1821
 4404TIP3    H213177   6.022   5.611   5.235 -0.1168 -0.4238 -1.5074
 4405TIP3   OH213178   2.797   3.541   4.073  0.3448 -0.0265  0.3488
 4405TIP3    H113179   2.748   3.593   4.009  0.3444  0.0676  0.4257
 4405TIP3    H213180   2.776   3.581   4.157 -0.0925 -0.4920  0.4633
 4406TIP3   OH213181   2.143   4.112   3.165  0.0110 -0.2609 -0.0040
 4406TIP3    H113182   2.049   4.115   3.144  0.2115  1.0058 -0.7798
 4406TIP3    H213183   2.186   4.105   3.080  0.6198 -1.3812  0.3818
 4407TIP3   OH213184   0.229   6.157   0.265 -0.4876 -0.4611  0.1638
 4407TIP3    H113185   0.289   6.150   0.190 -1.2820 -0.1317 -0.5266
 4407TIP3    H213186   0.266   6.225   0.320 -0.2469 -0.2297 -0.2799
 4408TIP3   OH213187   0.274   4.828   3.958 -0.2386 -0.5458 -0.2338
 4408TIP3    H113188   0.351   4.798   3.910 -0.0463 -0.0896 -0.2173
 4408TIP3    H213189   0.211   4.757   3.951 -0.0541 -0.6510 -0.8040
 4409TIP3   OH213190   5.381   3.204   3.351 -0.0758  0.3479  0.3720
 4409TIP3    H113191   5.368   3.180   3.442  2.2216 -0.1583  0.6217
 4409TIP3    H213192   5.348   3.294   3.344  0.0700  0.5228  1.7775
 4410TIP3   OH213193   6.785   6.391   3.246  0.8329 -0.3008 -0.7598
 4410TIP3    H113194   6.797   6.322   3.311  0.3010 -0.2607 -0.6156
 4410TIP3    H213195   6.694   6.381   3.217  0.7506  0.3436 -0.7333
 4411TIP3   OH213196   6.440   0.353   2.894 -0.2988  0.2094 -0.3182
 4411TIP3    H113197   6.390   0.433   2.914  0.3788  0.5794 -0.0665
 4411TIP3    H213198   6.383   0.282   2.923 -1.2532  0.5532 -1.2835
 4412TIP3   OH213199   6.153   0.218   1.170 -0.1340  0.1306 -0.7364
 4412TIP3    H113200   6.167   0.133   1.212 -0.2197  0.2668 -0.4300
 4412TIP3    H213201   6.233   0.233   1.119  0.3660  0.3800  0.1034
 4413TIP3   OH213202   0.551   3.052   1.254  0.1076 -0.6275 -0.2799
 4413TIP3    H113203   0.492   3.077   1.183  0.0304 -0.7682 -0.2662
 4413TIP3    H213204   0.618   3.120   1.255  0.0716 -0.5892 -0.4445
 4414TIP3   OH213205   6.819   1.845   4.975  0.0286 -0.0547  0.0251
 4414TIP3    H113206   6.764   1.780   4.930  0.9038 -1.7325  1.2888
 4414TIP3    H213207   6.776   1.858   5.060  0.7797 -0.2687  0.4424
 4415TIP3   OH213208   3.188   3.886   3.547  0.3719  0.1855  0.1727
 4415TIP3    H113209   3.147   3.819   3.601  0.7035 -0.9071 -0.8872
 4415TIP3    H213210   3.276   3.895   3.582  0.1461  0.4813  0.6718
 4416TIP3   OH213211   6.387   1.812   4.400  0.3858 -0.5802 -0.0327
 4416TIP3    H113212   6.418   1.777   4.483  1.7829  0.5636 -0.0369
 4416TIP3    H213213   6.318   1.751   4.373  0.5528 -1.5028  1.4802
 4417TIP3   OH213214   2.096   0.242   4.081  0.0905 -0.0257 -0.3632
 4417TIP3    H113215   2.032   0.173   4.065 -0.0892  0.2150 -0.6841
 4417TIP3    H213216   2.044   0.319   4.104  0.2833  0.0496 -0.1752
 4418TIP3   OH213217   4.472   0.446   4.241  0.2959 -0.2623 -0.1046
 4418TIP3    H113218   4.389   0.436   4.194  0.6309  0.5593 -0.8825
 4418TIP3    H213219   4.460   0.526   4.293  0.5671 -0.2031 -0.1343
 4419TIP3   OH213220   2.531   2.931   0.863  0.3452 -0.2209 -0.0439
 4419TIP3    H113221   2.596   2.861   0.869  1.9735  1.3362  2.1455
 4419TIP3    H213222   2.447   2.889   0.883  1.1220 -1.7238  0.1564
 4420TIP3   OH213223   1.849   0.624   1.158  0.1847 -0.5139 -0.0424
 4420TIP3    H113224   1.804   0.540   1.148  1.7987 -1.3118 -1.0239
 4420TIP3    H213225   1.833   0.670   1.075  0.2432 -0.3260  0.0499
 4421TIP3   OH213226   2.358   2.805   5.060 -0.1606  0.3350  0.2285
 4421TIP3    H113227   2.267   2.835   5.059 -0.1137  0.4752  0.0218
 4421TIP3    H213228   2.409   2.886   5.057 -0.0281  0.2624  0.5631
 4422TIP3   OH213229   4.387   2.466   1.248  0.3289 -0.1736  0.5670
 4422TIP3    H113230   4.393   2.561   1.257 -2.4150  0.1070  0.4095
 4422TIP3    H213231   4.293   2.447   1.253  0.5124 -2.5833 -2.2160
 4423TIP3   OH213232   1.546   0.607   3.931 -0.1331  0.2510  0.7296
 4423TIP3    H113233   1.525   0.607   4.024  0.6448  0.9196  0.9133
 4423TIP3    H213234   1.461   0.607   3.887 -0.5060 -0.4800  1.4264
 4424TIP3   OH213235   5.759   3.534   3.521 -0.9483  0.1024 -0.2315
 4424TIP3    H113236   5.701   3.477   3.469 -0.8598 -1.5407  1.3669
 4424TIP3    H213237   5.827   3.475   3.553 -0.6810  1.1785  1.2574
 4425TIP3   OH213238   6.465   1.152   4.643 -0.9040  0.1318  0.1013
 4425TIP3    H113239   6.531   1.090   4.610 -0.1143  0.9575  0.0857
 4425TIP3    H213240   6.484   1.233   4.596 -2.0435  0.3498 -0.0085
 4426TIP3   OH213241   5.649   1.994   4.145 -0.3897  0.1189  0.2385
 4426TIP3    H113242   5.630   1.933   4.216  1.4073 -0.7235  0.0544
 4426TIP3    H213243   5.745   2.000   4.143 -0.4437  1.2624 -1.1753
 4427TIP3   OH213244   2.287   4.883   0.537 -0.4272  0.3192 -0.5714
 4427TIP3    H113245   2.326   4.841   0.613 -0.9309  1.7973  0.5740
 4427TIP3    H213246   2.194   4.890   0.559 -0.3074  2.3064 -0.5225
 4428TIP3   OH213247   0.697   4.832   0.209  0.6215 -0.2188  0.7601
 4428TIP3    H113248   0.778   4.796   0.247  1.5792  1.9656  0.9572
 4428TIP3    H213249   0.716   4.837   0.115  0.6482  0.0678  0.7781
 4429TIP3   OH213250   5.186   0.715   2.013  0.3294  0.0464  0.5488
 4429TIP3    H113251   5.258   0.659   2.045  1.8577  1.2476 -0.6233
 4429TIP3    H213252   5.110   0.686   2.063  1.4622 -1.7569  1.3671
 4430TIP3   OH213253   0.716   1.738   1.325  0.8276 -0.4952  0.3606
 4430TIP3    H113254   0.646   1.711   1.266  0.3148 -1.6421  1.4659
 4430TIP3    H213255   0.736   1.828   1.298  1.4057 -1.3040 -2.2938
 4431TIP3   OH213256   4.238   2.455   2.804 -0.2217 -0.4999 -0.1677
 4431TIP3    H113257   4.218   2.380   2.860  1.3893  0.6381  2.0780
 4431TIP3    H213258   4.290   2.418   2.733 -1.4227 -1.8204 -0.4081
 4432TIP3   OH213259   6.894   4.513   3.909 -0.3009 -0.1735  0.0958
 4432TIP3    H113260   6.806   4.508   3.871 -0.4093  1.7758 -0.0336
 4432TIP3    H213261   6.940   4.437   3.873 -1.0668  0.3753 -2.2195
 4433TIP3   OH213262   2.355   4.544   5.776  0.4146  0.3047 -0.4512
 4433TIP3    H113263   2.273   4.593   5.775  0.8241  1.0107 -0.4629
 4433TIP3    H213264   2.376   4.531   5.683  0.4583  0.3872 -0.4537
 4434TIP3   OH213265   1.648   4.860   5.625  0.6656  0.1795 -0.0134
 4434TIP3    H113266   1.671   4.790   5.564  2.9078  0.6484  0.1917
 4434TIP3    H213267   1.662   4.822   5.712  2.1801  0.9193  0.0966
 4435TIP3   OH213268   5.138   4.104   5.503  0.6202  0.7571 -0.4211
 4435TIP3    H113269   5.060   4.053   5.480 -0.1655  1.0196  1.5241
 4435TIP3    H213270   5.210   4.057   5.460 -0.4977  0.0553 -1.5985
 4436TIP3   OH213271   4.168   1.913   3.951 -0.3661 -0.0189  0.0646
 4436TIP3    H113272   4.188   1.906   3.857  1.2419 -0.9099  0.4303
 4436TIP3    H213273   4.090   1.859   3.963  0.4467 -1.3674 -0.4899
 4437TIP3   OH213274   4.919   0.106   1.702 -0.2114  0.1998  0.2375
 4437TIP3    H113275   4.917   0.036   1.636 -0.3926 -0.8369  1.3065
 4437TIP3    H213276   4.919   0.187   1.651 -0.4093 -0.5701 -1.0312
 4438TIP3   OH213277   6.827   1.024   5.130 -0.3717 -0.0436  0.2266
 4438TIP3    H113278   6.882   1.079   5.185  0.2664 -0.7577  0.3247
 4438TIP3    H213279   6.876   0.942   5.122 -1.7115 -0.9500  0.8586
 4439TIP3   OH213280   2.454   3.376   2.432  0.2154 -0.2467  0.2708
 4439TIP3    H113281   2.488   3.374   2.522  0.2246  0.0894  0.2764
 4439TIP3    H213282   2.500   3.448   2.391 -0.6119  0.3265  0.3306
 4440TIP3   OH213283   1.346   6.670   1.855  0.0238  0.1153 -0.1797
 4440TIP3    H113284   1.257   6.668   1.819  0.1614  1.8688 -0.7388
 4440TIP3    H213285   1.399   6.621   1.793 -0.4310 -0.3880 -0.1796
 4441TIP3   OH213286   0.220   2.575   3.339  0.3410 -0.1841 -0.7102
 4441TIP3    H113287   0.160   2.603   3.407  0.8790  0.9476 -0.6776
 4441TIP3    H213288   0.235   2.653   3.286 -0.2015 -1.0717 -2.2479
 4442TIP3   OH213289   0.981   5.619   5.190 -0.2715 -0.0954 -0.1518
 4442TIP3    H113290   0.940   5.543   5.150  2.2002 -0.8463 -1.4793
 4442TIP3    H213291   0.971   5.689   5.125 -0.2886 -0.0051 -0.0535
 4443TIP3   OH213292   1.295   5.147   1.889  0.3705  0.0064 -0.3100
 4443TIP3    H113293   1.356   5.079   1.918  1.7887  1.5881  0.6407
 4443TIP3    H213294   1.317   5.160   1.797  0.7604 -0.1660 -0.2462
 4444TIP3   OH213295   4.322   1.050   4.457 -0.4877 -0.0083  0.1203
 4444TIP3    H113296   4.344   1.143   4.469 -0.8417  0.2838 -1.2911
 4444TIP3    H213297   4.248   1.035   4.516 -0.0598  0.4424  0.7896
 4445TIP3   OH213298   0.345   5.489   1.133  0.6725  0.3014  0.2137
 4445TIP3    H113299   0.419   5.441   1.170  0.8828 -0.4836 -1.1326
 4445TIP3    H213300   0.268   5.451   1.174  0.8393 -1.1805 -0.7728
 4446TIP3   OH213301   6.721   5.753   3.680 -0.1812  0.5618  0.3722
 4446TIP3    H113302   6.648   5.705   3.717  0.0810 -1.1749 -1.1912
 4446TIP3    H213303   6.780   5.770   3.753 -1.4322  0.6501  1.3752
 4447TIP3   OH213304   1.808   1.447   3.995 -0.3209 -0.0348  0.3077
 4447TIP3    H113305   1.847   1.527   3.961 -1.8010  0.5670 -0.0546
 4447TIP3    H213306   1.785   1.396   3.917 -2.1505  0.5770  0.3941
 4448TIP3   OH213307   4.496   3.940   1.255  0.0803 -0.5463  0.2439
 4448TIP3    H113308   4.576   3.980   1.290 -1.8623 -0.5088  5.6748
 4448TIP3    H213309   4.447   4.013   1.218  0.6286  0.3528  1.2173
 4449TIP3   OH213310   1.046   2.258   5.837  0.2534 -0.3067 -0.2858
 4449TIP3    H113311   1.054   2.170   5.802  0.2788 -0.6222  0.4808
 4449TIP3    H213312   1.042   2.245   5.932  0.6924  0.5408 -0.1405
 4450TIP3   OH213313   5.792   6.111   2.509  0.0832 -0.1970 -0.6434
 4450TIP3    H113314   5.822   6.034   2.460  0.3605 -0.0238 -0.7455
 4450TIP3    H213315   5.712   6.138   2.464 -1.6807 -2.1481  1.1047
 4451TIP3   OH213316   1.860   2.943   0.748  0.0730 -0.4909  0.0666
 4451TIP3    H113317   1.823   2.912   0.830  0.5782  0.6548  0.7563
 4451TIP3    H213318   1.818   3.029   0.734  1.0336 -0.0380 -0.1190
 4452TIP3   OH213319   0.626   1.154   5.443 -0.1095  0.3270 -0.5242
 4452TIP3    H113320   0.681   1.227   5.413 -0.4871  1.0056  0.3984
 4452TIP3    H213321   0.668   1.123   5.523  0.3499 -0.8478 -1.1812
 4453TIP3   OH213322   6.326   0.485   0.137  0.1277 -0.8162 -0.2971
 4453TIP3    H113323   6.242   0.472   0.093  0.1293 -0.2963 -0.4614
 4453TIP3    H213324   6.379   0.410   0.111 -0.6528 -1.7396  0.6956
 4454TIP3   OH213325   1.847   4.990   0.984 -0.5099 -0.8241  0.1974
 4454TIP3    H113326   1.848   4.932   1.060 -0.6146 -1.4079 -0.2420
 4454TIP3    H213327   1.940   5.009   0.967 -0.2888 -2.7568 -1.0686
 4455TIP3   OH213328   7.202   6.299   1.735  0.1436 -0.2895  0.1590
 4455TIP3    H113329   7.249   6.292   1.652  0.2140  1.6212 -0.0003
 4455TIP3    H213330   7.110   6.305   1.710  0.2573  1.7116  0.0835
 4456TIP3   OH213331   4.181   2.106   2.063 -0.0178 -0.1802 -0.0064
 4456TIP3    H113332   4.267   2.077   2.091 -0.1570 -0.8650 -0.2782
 4456TIP3    H213333   4.123   2.083   2.136 -0.1369 -0.6487 -0.2448
 4457TIP3   OH213334   2.578   2.326   4.007  0.7138  0.1878 -0.4135
 4457TIP3    H113335   2.512   2.261   3.982  1.4477 -0.6162 -0.3177
 4457TIP3    H213336   2.661   2.283   3.988  1.2872  0.1500  1.9275
 4458TIP3   OH213337   2.995   5.574   1.062  0.0758 -0.0983 -0.0154
 4458TIP3    H113338   3.018   5.661   1.031 -1.4377  0.1205 -0.6108
 4458TIP3    H213339   2.964   5.528   0.984 -1.7804 -0.2321  0.7366
 4459TIP3   OH213340   2.162   2.175   1.766 -0.2786  0.1785 -0.2199
 4459TIP3    H113341   2.084   2.123   1.745 -0.6434  0.8008 -0.4246
 4459TIP3    H213342   2.150   2.256   1.717 -0.9310  1.5083  2.0149
 4460TIP3   OH213343   5.850   1.552   4.680  0.0375 -0.0626 -0.1063
 4460TIP3    H113344   5.803   1.635   4.676 -1.5864 -0.9559 -1.0155
 4460TIP3    H213345   5.842   1.515   4.592 -0.8169 -1.9362  0.6892
 4461TIP3   OH213346   2.411   0.562   0.801 -0.3722  0.3304 -0.2500
 4461TIP3    H113347   2.334   0.616   0.785  0.2547  1.9624  1.7999
 4461TIP3    H213348   2.399   0.528   0.889  1.0374  0.2605 -0.0644
 4462TIP3   OH213349   6.635   4.041   4.624 -0.8535  0.1014  0.5838
 4462TIP3    H113350   6.598   3.952   4.630  3.1209 -1.9319 -1.0983
 4462TIP3    H213351   6.668   4.059   4.712 -2.7706  0.5827  1.2626
 4463TIP3   OH213352   1.399   2.539   3.162 -0.1693 -0.6250  0.8254
 4463TIP3    H113353   1.443   2.481   3.099 -0.2083 -1.6697  1.7310
 4463TIP3    H213354   1.368   2.480   3.231 -2.6875  0.1299  0.4223
 4464TIP3   OH213355   6.725   2.243   4.651 -0.2897  0.3594  0.5449
 4464TIP3    H113356   6.685   2.190   4.719  1.9911 -0.2856  1.4749
 4464TIP3    H213357   6.737   2.183   4.577 -0.0594  0.2689  0.6562
 4465TIP3   OH213358   2.026   5.989   0.972 -0.2864 -0.0236 -0.8453
 4465TIP3    H113359   1.987   6.069   0.938 -1.2387 -0.9937 -2.1601
 4465TIP3    H213360   2.074   5.952   0.898 -1.8169 -1.8262 -1.0271
 4466TIP3   OH213361   5.945   4.075   1.729 -0.2874 -0.7057 -0.3156
 4466TIP3    H113362   5.965   4.169   1.733 -1.0411 -0.5901  1.4443
 4466TIP3    H213363   5.883   4.068   1.656 -0.2326  0.1730 -0.4652
 4467TIP3   OH213364   5.000   6.720   5.877 -0.3315  0.7595 -0.0168
 4467TIP3    H113365   5.033   6.755   5.795  1.1545  0.9301  0.6292
 4467TIP3    H213366   4.945   6.790   5.913  0.9297  1.6286  0.2568
 4468TIP3   OH213367   5.806   6.004   4.518  0.1341 -0.0606 -0.3971
 4468TIP3    H113368   5.849   5.941   4.576 -0.7546 -0.8633 -0.5985
 4468TIP3    H213369   5.724   6.026   4.563  0.3415  0.8169 -0.4217
 4469TIP3   OH213370   5.809   3.344   5.255 -0.3504  0.4148 -0.1695
 4469TIP3    H113371   5.822   3.338   5.160 -1.7256  0.3630 -0.3804
 4469TIP3    H213372   5.812   3.254   5.286  3.1742  0.5833  0.3534
 4470TIP3   OH213373   4.457   1.382   3.918  0.0360  0.5758 -0.3609
 4470TIP3    H113374   4.369   1.410   3.894 -0.5196 -1.4529 -0.9364
 4470TIP3    H213375   4.443   1.319   3.989  0.8009 -1.2006 -1.7027
 4471TIP3   OH213376   5.241   1.523   3.213 -0.2593 -0.3886  0.5752
 4471TIP3    H113377   5.211   1.586   3.279 -0.9256 -0.6326  0.5174
 4471TIP3    H213378   5.317   1.565   3.172 -1.3073  0.8450 -0.1898
 4472TIP3   OH213379   6.876   2.478   0.814 -0.2353 -0.2332 -0.4266
 4472TIP3    H113380   6.894   2.510   0.725  0.1451  0.4017 -0.1320
 4472TIP3    H213381   6.872   2.383   0.805  4.4961 -0.6620 -0.3849
 4473TIP3   OH213382   1.531   2.083   3.027 -0.0974  0.5319 -0.2538
 4473TIP3    H113383   1.461   2.147   3.025 -2.4004 -1.7915  0.1629
 4473TIP3    H213384   1.534   2.048   2.937 -0.3726 -0.2414  0.0288
 4474TIP3   OH213385   1.474   0.237   1.275  0.1101  0.3991 -0.4608
 4474TIP3    H113386   1.406   0.229   1.342  0.9315 -0.8291  0.2557
 4474TIP3    H213387   1.445   0.310   1.220 -0.4389  1.6357  1.3857
 4475TIP3   OH213388   6.031   0.224   5.830 -0.3483 -0.1253 -0.2384
 4475TIP3    H113389   6.044   0.249   5.738 -0.8382  1.9538  0.2043
 4475TIP3    H213390   5.963   0.158   5.827 -2.1950  1.7013 -1.2535
 4476TIP3   OH213391   4.660   5.151   0.330 -0.2044  0.7607  0.7501
 4476TIP3    H113392   4.696   5.240   0.331  0.6783  0.4181  2.7925
 4476TIP3    H213393   4.577   5.159   0.282  1.1160  2.1449 -1.4447
 4477TIP3   OH213394   3.869   0.919   1.789  0.0494 -0.0331 -0.0344
 4477TIP3    H113395   3.825   0.957   1.713  1.7526  0.5507 -0.7911
 4477TIP3    H213396   3.943   0.978   1.806  0.0992 -0.5400  1.6572
 4478TIP3   OH213397   0.722   4.202   5.029 -0.2141 -0.5003 -0.2134
 4478TIP3    H113398   0.653   4.172   4.970  0.9937  0.7557 -2.3817
 4478TIP3    H213399   0.677   4.256   5.094 -1.3665 -0.3469 -1.1175
 4479TIP3   OH213400   1.649   0.835   3.808 -0.2483 -0.2919  0.3420
 4479TIP3    H113401   1.575   0.895   3.809  0.2421  0.3721  3.0807
 4479TIP3    H213402   1.612   0.751   3.835 -0.2193 -0.2584  0.4855
 4480TIP3   OH213403   5.185   1.981   0.336 -0.2955  0.0085 -0.6533
 4480TIP3    H113404   5.245   2.022   0.399 -1.1735 -1.7486  1.4556
 4480TIP3    H213405   5.226   1.997   0.251  0.5878  3.1140  0.2162
 4481TIP3   OH213406   1.767   6.131   3.237 -0.1270  0.3100 -0.1169
 4481TIP3    H113407   1.849   6.090   3.266 -0.8412  0.1885  1.8618
 4481TIP3    H213408   1.765   6.215   3.281 -1.1241  0.2596 -0.0382
 4482TIP3   OH213409   0.586   3.808   4.218 -0.2620 -0.4865 -0.0967
 4482TIP3    H113410   0.629   3.766   4.292  1.6720  0.8372 -0.4043
 4482TIP3    H213411   0.602   3.748   4.145 -2.5357 -2.0083  0.5283
 4483TIP3   OH213412   1.035   4.455   3.564 -0.1437  0.0509 -0.6555
 4483TIP3    H113413   1.067   4.401   3.491 -2.1018  1.3268 -2.5801
 4483TIP3    H213414   0.970   4.399   3.607 -0.1802 -0.1119 -0.9179
 4484TIP3   OH213415   6.301   1.964   2.096  0.3792 -0.4139  0.2117
 4484TIP3    H113416   6.286   1.992   2.006  0.8861 -1.5293 -0.2484
 4484TIP3    H213417   6.389   1.925   2.094  0.4049 -0.4319  1.1971
 4485TIP3   OH213418   4.212   3.704   1.341  0.2230  0.0987 -0.0935
 4485TIP3    H113419   4.245   3.614   1.349  2.6209  0.8353 -0.9982
 4485TIP3    H213420   4.254   3.752   1.412 -0.5917  0.6571  0.0299
 4486TIP3   OH213421   0.732   3.165   5.494  0.3003 -0.4417 -0.8759
 4486TIP3    H113422   0.645   3.133   5.472 -0.2449  0.2657  0.1844
 4486TIP3    H213423   0.745   3.139   5.585 -0.6849  3.2698  0.4903
 4487TIP3   OH213424   5.620   3.115   0.430  0.8279  0.7824 -0.1228
 4487TIP3    H113425   5.647   3.206   0.415  0.8268  0.5961 -1.3945
 4487TIP3    H213426   5.535   3.122   0.474  0.8410  1.4002 -0.1867
 4488TIP3   OH213427   6.936   0.731   0.024  0.0451 -0.4907  0.0848
 4488TIP3    H113428   7.029   0.752   0.037  0.2784 -1.2483 -0.2950
 4488TIP3    H213429   6.929   0.638   0.045 -0.8567 -0.2027  1.1759
 4489TIP3   OH213430   3.279   3.414   0.234 -0.1816 -0.1585  0.2364
 4489TIP3    H113431   3.195   3.370   0.221 -1.0075  0.9467  1.5215
 4489TIP3    H213432   3.264   3.470   0.310  2.0278 -0.7090  1.1478
 4490TIP3   OH213433   6.956   3.887   3.481 -0.2877  0.4074 -0.3859
 4490TIP3    H113434   6.953   3.932   3.397  0.9702  0.2468 -0.5426
 4490TIP3    H213435   6.937   3.795   3.460 -0.8235  0.5085 -0.3606
 4491TIP3   OH213436   0.581   2.602   0.169  0.0559  0.1018  0.0706
 4491TIP3    H113437   0.577   2.510   0.140 -1.3800  0.2101 -0.1279
 4491TIP3    H213438   0.492   2.634   0.159  0.6952  1.7473 -0.5239
 4492TIP3   OH213439   6.220   6.223   3.501  0.1117 -0.0182 -0.0863
 4492TIP3    H113440   6.188   6.298   3.552  0.5648  0.6885 -0.8201
 4492TIP3    H213441   6.314   6.239   3.491  0.3943 -1.1667  0.5362
 4493TIP3   OH213442   0.058   0.956   4.452 -0.2783 -0.2258  0.2599
 4493TIP3    H113443  -0.005   0.894   4.417  1.6325 -1.5465 -1.0075
 4493TIP3    H213444   0.080   0.922   4.539  0.8559 -1.4656 -0.4778
 4494TIP3   OH213445   1.725   6.746   1.311  0.4563  0.2143  0.3196
 4494TIP3    H113446   1.701   6.826   1.359  1.8418  0.6677  0.3084
 4494TIP3    H213447   1.710   6.768   1.219  2.4086  1.1226  0.1491
 4495TIP3   OH213448   2.001   4.520   5.643  0.3463 -0.5925  0.4855
 4495TIP3    H113449   1.976   4.433   5.675  1.3065 -0.7034  0.9811
 4495TIP3    H213450   2.081   4.505   5.592  0.0473 -0.1091 -0.1399
 4496TIP3   OH213451   1.802   6.357   3.385 -0.6646 -0.3037  0.2038
 4496TIP3    H113452   1.728   6.417   3.386 -1.1730 -0.9159 -0.1662
 4496TIP3    H213453   1.852   6.378   3.464 -0.9740  0.4224  0.2126
 4497TIP3   OH213454   6.244   3.729   2.598 -0.1036  0.1554  0.0965
 4497TIP3    H113455   6.226   3.767   2.684  2.9520  0.5486  0.6589
 4497TIP3    H213456   6.276   3.641   2.617  1.0359  0.4128 -0.5909
 4498TIP3   OH213457   1.412   0.312   2.661 -0.5011  0.3159  0.4693
 4498TIP3    H113458   1.348   0.378   2.689 -0.4270  1.4121 -1.7101
 4498TIP3    H213459   1.379   0.281   2.576  0.4857 -1.0560  0.5549
 4499TIP3   OH213460   4.948   1.476   1.544  0.1386  0.0565  0.4269
 4499TIP3    H113461   5.030   1.484   1.495 -1.1537 -0.8778 -2.0593
 4499TIP3    H213462   4.883   1.522   1.490 -1.4415 -1.3929  0.9811
 4500TIP3   OH213463   5.598   3.075   3.252 -0.4141  0.1201  0.2038
 4500TIP3    H113464   5.624   2.993   3.295 -0.1583  0.2492  0.2989
 4500TIP3    H213465   5.512   3.094   3.289  0.9631  1.7540  2.9411
 4501TIP3   OH213466   3.804   0.422   0.687  0.0366 -0.0660  0.5854
 4501TIP3    H113467   3.760   0.403   0.770 -1.2399 -0.5322 -0.1777
 4501TIP3    H213468   3.772   0.509   0.662 -0.6096 -0.4896 -0.0695
 4502TIP3   OH213469   1.799   1.785   2.915 -0.5646  0.1252 -0.0695
 4502TIP3    H113470   1.884   1.759   2.949 -0.4133  1.6034  0.7574
 4502TIP3    H213471   1.736   1.728   2.960 -0.0120 -1.2162 -0.9547
 4503TIP3   OH213472   6.574   4.088   3.855  0.2109  0.6266  0.2934
 4503TIP3    H113473   6.636   4.025   3.818  0.0106  1.2598 -1.2077
 4503TIP3    H213474   6.549   4.051   3.940  0.4766 -1.0599 -0.3274
 4504TIP3   OH213475   5.405   1.854   4.083 -0.0410 -0.6080  0.3441
 4504TIP3    H113476   5.419   1.763   4.059 -1.1811 -0.8446  0.5073
 4504TIP3    H213477   5.489   1.897   4.065 -0.2488 -1.1297 -2.2309
 4505TIP3   OH213478   3.592   6.051   0.934 -0.0402 -0.7378  0.0331
 4505TIP3    H113479   3.497   6.056   0.942 -0.1024 -1.5265 -0.1723
 4505TIP3    H213480   3.612   5.958   0.940  0.6207 -0.6818 -1.0842
 4506TIP3   OH213481   5.937   2.599   3.090 -0.1386 -0.8229  0.3947
 4506TIP3    H113482   5.965   2.649   3.167  0.3742 -1.5018  0.6695
 4506TIP3    H213483   5.982   2.641   3.017 -1.4955  0.5218  0.2845
 4507TIP3   OH213484   2.907   6.227   2.214 -0.0462 -0.1388  0.3124
 4507TIP3    H113485   3.002   6.238   2.222  0.3257 -1.2252 -1.9854
 4507TIP3    H213486   2.891   6.219   2.120 -2.2966 -1.1425  0.7134
 4508TIP3   OH213487   2.292   5.219   1.421 -0.1336 -0.5290  0.4393
 4508TIP3    H113488   2.248   5.301   1.445  1.2047 -0.1216  1.7171
 4508TIP3    H213489   2.238   5.181   1.352 -1.1420  1.1090  0.2769
 4509TIP3   OH213490   7.097   1.499   4.183  0.4693 -0.2354 -0.9232
 4509TIP3    H113491   7.107   1.564   4.253  2.0263 -0.2522 -1.1125
 4509TIP3    H213492   7.018   1.527   4.137 -0.2986  0.0702  0.5061
 4510TIP3   OH213493   5.245   3.523   2.036  0.3602 -0.5623  0.2556
 4510TIP3    H113494   5.156   3.524   2.072  0.6370  0.0013  0.9577
 4510TIP3    H213495   5.294   3.581   2.094  0.7134  0.8050 -1.3480
 4511TIP3   OH213496   0.193   1.471   4.230 -0.0537  0.1020 -0.1375
 4511TIP3    H113497   0.211   1.443   4.320  1.7346 -1.8618 -1.0093
 4511TIP3    H213498   0.099   1.462   4.220 -0.2485  0.0715  1.4357
 4512TIP3   OH213499   2.829   3.774   2.249  0.4122 -0.0733  0.2648
 4512TIP3    H113500   2.823   3.867   2.227 -1.5395  0.1704  1.5932
 4512TIP3    H213501   2.884   3.737   2.180  0.8254  1.9570 -0.5766
 4513TIP3   OH213502   0.594   0.610   3.269  0.0261  0.7631  0.2850
 4513TIP3    H113503   0.518   0.575   3.314 -0.9818  3.0258  0.5023
 4513TIP3    H213504   0.631   0.535   3.222 -1.7043 -0.6250  1.0118
 4514TIP3   OH213505   4.617   1.072   0.068  0.4248 -0.1835  0.1627
 4514TIP3    H113506   4.654   1.022   0.141  1.7978  0.1802 -0.2572
 4514TIP3    H213507   4.531   1.100   0.100  0.1844 -1.6778  0.8887
 4515TIP3   OH213508   2.760   4.702   2.211 -0.2096 -0.4884 -0.6835
 4515TIP3    H113509   2.743   4.685   2.303  0.6467 -0.7942 -0.5665
 4515TIP3    H213510   2.706   4.778   2.189  0.3987  0.2788  0.3664
 4516TIP3   OH213511   4.794   1.758   0.073 -0.3099  0.2402 -0.5207
 4516TIP3    H113512   4.744   1.715   0.143  0.9829 -1.2225 -0.4562
 4516TIP3    H213513   4.880   1.717   0.076  0.7323  2.2953 -1.0188
 4517TIP3   OH213514   6.676   1.019   1.830  0.1415 -0.1813  0.5299
 4517TIP3    H113515   6.585   0.995   1.817 -0.8999  2.2426  2.5473
 4517TIP3    H213516   6.694   0.999   1.922  1.0428  0.9798  0.6419
 4518TIP3   OH213517   1.017   0.119   1.098  0.8128  0.3872  0.3109
 4518TIP3    H113518   1.008   0.213   1.108 -2.6900  0.3279 -0.9107
 4518TIP3    H213519   0.960   0.097   1.024  2.8345 -2.5284 -0.6112
 4519TIP3   OH213520   4.990   3.100   0.956 -0.0824  0.1925  0.1211
 4519TIP3    H113521   5.023   3.120   0.868 -0.7528 -0.8683 -0.3934
 4519TIP3    H213522   4.941   3.018   0.945 -1.9380  1.1007  1.0545
 4520TIP3   OH213523   5.927   0.220   0.426 -0.1905  0.0030  0.1587
 4520TIP3    H113524   5.971   0.162   0.488 -0.0839 -0.0155  0.0650
 4520TIP3    H213525   5.881   0.283   0.482 -0.9359 -0.6242  0.2827
 4521TIP3   OH213526   4.908   5.058   4.619  0.6632 -0.0018  0.5819
 4521TIP3    H113527   4.887   5.060   4.526 -0.6254  0.3686  0.8664
 4521TIP3    H213528   5.003   5.069   4.622  0.5323  2.0922 -0.6216
 4522TIP3   OH213529   4.552   0.038   3.734  0.0615 -0.5420 -0.3176
 4522TIP3    H113530   4.521   0.044   3.643  1.4409 -0.3309 -0.7992
 4522TIP3    H213531   4.615  -0.034   3.732  0.0039 -0.6200  0.5151
 4523TIP3   OH213532   0.202   6.336   4.346  0.2973 -0.3765  0.2126
 4523TIP3    H113533   0.285   6.381   4.335 -0.0706  0.2315 -0.1366
 4523TIP3    H213534   0.170   6.365   4.432  0.4464 -0.6169  0.3505
 4524TIP3   OH213535   5.625   0.972   3.214  0.3940  0.1534  0.2434
 4524TIP3    H113536   5.557   0.925   3.165  0.3630 -0.9791  1.3282
 4524TIP3    H213537   5.699   0.911   3.218  0.9839  0.8535  0.2340
 4525TIP3   OH213538   2.445   4.804   1.646 -0.1122  0.2309 -0.4292
 4525TIP3    H113539   2.371   4.847   1.604 -1.0234  0.4568  1.3092
 4525TIP3    H213540   2.422   4.802   1.739  1.2710 -1.2884 -0.0642
 4526TIP3   OH213541   2.712   3.064   2.951  0.3849 -0.6224  0.0869
 4526TIP3    H113542   2.664   3.141   2.982 -1.1593 -1.4410 -0.2153
 4526TIP3    H213543   2.754   3.029   3.030 -1.4578 -1.2364  0.8502
 4527TIP3   OH213544   4.084   3.026   5.017 -0.0245  0.3752  0.5508
 4527TIP3    H113545   4.130   3.044   5.100  1.4822 -0.7007 -0.0065
 4527TIP3    H213546   4.103   3.103   4.963 -0.8755  1.0068  1.1196
 4528TIP3   OH213547   0.897   2.299   1.993  0.3232  0.1413 -0.0309
 4528TIP3    H113548   0.846   2.224   1.963  0.6488 -0.8734  1.7990
 4528TIP3    H213549   0.982   2.263   2.017  0.2405  0.9251  1.6153
 4529TIP3   OH213550   2.044   0.282   1.540  0.2533 -0.2850 -0.8570
 4529TIP3    H113551   2.025   0.354   1.601 -0.4846 -0.2397 -1.1369
 4529TIP3    H213552   2.134   0.257   1.561  0.0899 -0.1136  0.0936
 4530TIP3   OH213553   2.417   6.683   0.655  0.2953 -0.0545  0.2332
 4530TIP3    H113554   2.495   6.719   0.699  1.0261 -1.3365  0.0327
 4530TIP3    H213555   2.344   6.731   0.693  1.2537  2.2144 -0.5874
 4531TIP3   OH213556   2.449   2.445   5.129  0.4219 -0.2041  0.4213
 4531TIP3    H113557   2.446   2.508   5.057  2.3831  0.4275  0.8519
 4531TIP3    H213558   2.382   2.476   5.190 -1.4704 -0.9067 -1.1899
 4532TIP3   OH213559   6.716   1.858   2.581 -0.0730  0.3765  0.2053
 4532TIP3    H113560   6.742   1.791   2.644 -0.6933  0.8783  1.0129
 4532TIP3    H213561   6.799   1.888   2.543  0.2010 -0.9274 -0.2745
 4533TIP3   OH213562   4.711   0.646   2.662 -0.4801 -1.1870 -0.5901
 4533TIP3    H113563   4.641   0.597   2.619 -0.4801 -0.4615 -1.4569
 4533TIP3    H213564   4.729   0.597   2.742 -2.3492 -1.0915 -0.0695
 4534TIP3   OH213565   6.899   3.238   1.279  0.5388  0.5746 -0.0060
 4534TIP3    H113566   6.877   3.325   1.246 -0.0641 -0.6984 -3.3569
 4534TIP3    H213567   6.989   3.246   1.310  0.8332  2.1949 -1.1603
 4535TIP3   OH213568   5.987   2.485   2.399  0.1910 -0.4798 -0.2760
 4535TIP3    H113569   6.056   2.518   2.457 -1.4152 -0.6468  1.8673
 4535TIP3    H213570   5.995   2.389   2.405 -1.4286 -0.5652  1.6794
 4536TIP3   OH213571   4.399   3.308   3.373  0.5526 -0.3376  0.7906
 4536TIP3    H113572   4.449   3.373   3.423 -2.9204  2.8065  0.6246
 4536TIP3    H213573   4.339   3.270   3.438  0.9293 -1.6442  0.3897
 4537TIP3   OH213574   4.259   5.415   5.684  0.0939  0.2061  0.6611
 4537TIP3    H113575   4.195   5.398   5.615  0.3418  0.3753  0.3810
 4537TIP3    H213576   4.214   5.474   5.745 -0.9913 -1.8870  1.9906
 4538TIP3   OH213577   2.074   5.897   4.866 -0.6893 -0.1175  0.1279
 4538TIP3    H113578   2.022   5.879   4.788  0.7927  0.1264 -0.9580
 4538TIP3    H213579   2.102   5.988   4.856 -0.3082 -0.1465  0.8445
 4539TIP3   OH213580   1.212   5.160   0.412  0.0384 -0.3491 -0.5786
 4539TIP3    H113581   1.181   5.187   0.325  0.4626  0.2533 -0.5434
 4539TIP3    H213582   1.132   5.150   0.464 -0.1570  0.2012 -0.7761
 4540TIP3   OH213583   7.121   5.766   0.206 -0.1385  0.1249 -0.2504
 4540TIP3    H113584   7.205   5.801   0.234 -0.1378 -0.4762  0.5160
 4540TIP3    H213585   7.123   5.674   0.231 -0.6502 -0.1340 -1.0881
 4541TIP3   OH213586   0.848   5.217   0.851  0.1137 -0.3915  0.5072
 4541TIP3    H113587   0.892   5.271   0.917 -0.9702 -0.2284  1.1099
 4541TIP3    H213588   0.764   5.259   0.838 -0.5922 -1.7020  0.6839
 4542TIP3   OH213589   3.756   2.347   0.821  0.8605  0.5569  0.3884
 4542TIP3    H113590   3.799   2.334   0.737  0.7022  1.2775  0.1913
 4542TIP3    H213591   3.675   2.395   0.800 -0.1641 -0.9383  0.7262
 4543TIP3   OH213592   6.088   5.245   2.032  0.2180 -0.0283 -0.1985
 4543TIP3    H113593   6.036   5.238   2.112 -0.8925 -1.1166 -0.9765
 4543TIP3    H213594   6.170   5.198   2.053  0.0829 -0.0051  0.4020
 4544TIP3   OH213595   1.781   6.106   0.247 -0.4784 -0.0024  0.1887
 4544TIP3    H113596   1.848   6.038   0.248 -1.2132 -0.7518 -0.4475
 4544TIP3    H213597   1.820   6.178   0.298  1.5962  0.3486 -1.7096
 4545TIP3   OH213598   5.090   4.977   4.251 -0.8002  0.0147 -0.6285
 4545TIP3    H113599   5.172   5.020   4.275 -0.5113 -1.9439  2.4791
 4545TIP3    H213600   5.093   4.970   4.156  2.6983 -0.0861 -0.6289
 4546TIP3   OH213601   3.453   0.887   3.023  0.0310  0.2168  0.4038
 4546TIP3    H113602   3.447   0.793   3.010 -1.0947  0.3941 -0.4663
 4546TIP3    H213603   3.548   0.904   3.028  0.2394 -1.0101  1.1631
 4547TIP3   OH213604   5.322   2.563   5.702  0.1307 -0.1831 -0.1364
 4547TIP3    H113605   5.236   2.578   5.662 -2.1350 -0.8518  3.9181
 4547TIP3    H213606   5.361   2.650   5.709 -1.3106  0.4691  0.1004
 4548TIP3   OH213607   0.400   2.916   0.560  0.1831 -0.4925 -0.2615
 4548TIP3    H113608   0.449   2.916   0.477 -0.3901 -1.5548 -0.6213
 4548TIP3    H213609   0.343   2.840   0.553 -0.3213 -0.2252  0.8610
 4549TIP3   OH213610   5.232   6.149   3.914  0.4492  0.1557  0.0545
 4549TIP3    H113611   5.292   6.221   3.894  0.7800 -0.0429  0.3113
 4549TIP3    H213612   5.213   6.159   4.008 -0.4949  0.6418 -0.1793
 4550TIP3   OH213613   4.835   6.208   2.723  0.6384  0.0523  0.0753
 4550TIP3    H113614   4.752   6.178   2.686 -0.2970 -0.6612  2.5249
 4550TIP3    H213615   4.820   6.300   2.745  0.1193 -0.3183  1.3699
 4551TIP3   OH213616   6.790   6.360   3.972  0.3592  0.0776 -0.2655
 4551TIP3    H113617   6.780   6.370   4.067  0.2906  0.3368 -0.3002
 4551TIP3    H213618   6.760   6.443   3.936  0.2879 -0.0599 -0.5223
 4552TIP3   OH213619   6.953   6.742   4.920  0.2247  0.3520  0.6832
 4552TIP3    H113620   7.038   6.749   4.878 -0.1280  0.4913 -0.0297
 4552TIP3    H213621   6.935   6.830   4.952  0.3191  0.3359  0.7803
 4553TIP3   OH213622   5.122   4.920   3.985 -0.1676  0.5148 -0.5892
 4553TIP3    H113623   5.208   4.879   3.982  0.6017  2.1059 -1.1446
 4553TIP3    H213624   5.061   4.849   3.967  0.8530 -1.0480  1.6053
 4554TIP3   OH213625   3.560   3.621   4.103 -0.2629 -0.1419 -0.7812
 4554TIP3    H113626   3.614   3.698   4.121 -1.0092 -0.2060  2.2815
 4554TIP3    H213627   3.480   3.656   4.063  0.1782  0.4495 -1.1477
 4555TIP3   OH213628   3.162   2.001   0.077  0.2262 -0.1274 -0.3377
 4555TIP3    H113629   3.242   2.034   0.037  0.8048  2.8132  2.8415
 4555TIP3    H213630   3.188   1.920   0.120  1.1939  0.1865 -0.3191
 4556TIP3   OH213631   3.608   4.047   2.081  0.8155 -0.2136  0.2898
 4556TIP3    H113632   3.613   4.077   2.172  0.5269  1.7843 -0.2969
 4556TIP3    H213633   3.515   4.054   2.059  0.9327 -0.3312 -0.2629
 4557TIP3   OH213634   1.127   6.639   3.584 -0.8511 -0.0546  0.3362
 4557TIP3    H113635   1.111   6.596   3.500 -0.1366 -1.5345  0.9313
 4557TIP3    H213636   1.043   6.634   3.629 -0.8625 -0.5379  0.2686
 4558TIP3   OH213637   4.782   3.924   0.239  0.0142  0.5287  0.0958
 4558TIP3    H113638   4.724   3.925   0.316 -1.1951  0.0683 -0.7908
 4558TIP3    H213639   4.743   3.862   0.179  0.7497  1.1372 -1.0647
 4559TIP3   OH213640   0.360   1.423   1.504  0.2476  0.0836 -0.5273
 4559TIP3    H113641   0.293   1.472   1.457  1.3083 -0.3408 -2.6222
 4559TIP3    H213642   0.333   1.425   1.595 -2.0136  0.8445 -1.1677
 4560TIP3   OH213643   6.002   4.903   5.310 -0.0623  0.6690 -0.1548
 4560TIP3    H113644   5.941   4.856   5.252 -0.0107  0.6504 -0.1948
 4560TIP3    H213645   5.947   4.940   5.379  0.0719 -0.8335  0.8043
 4561TIP3   OH213646   4.071   3.430   3.839 -0.1746 -0.2722  0.1097
 4561TIP3    H113647   4.047   3.433   3.747  1.0064 -0.7865 -0.2221
 4561TIP3    H213648   4.006   3.486   3.882  0.0310  1.0162 -1.1987
 4562TIP3   OH213649   0.820   1.057   1.031 -0.4175 -0.0206 -0.0959
 4562TIP3    H113650   0.852   0.979   1.078 -0.3282 -0.8709 -1.5082
 4562TIP3    H213651   0.848   1.044   0.941 -0.5180  1.6140 -0.3906
 4563TIP3   OH213652   5.381   4.598   0.876  0.1282 -0.1109 -0.9054
 4563TIP3    H113653   5.362   4.619   0.967 -0.8833 -1.6428 -0.7146
 4563TIP3    H213654   5.361   4.677   0.827 -0.6636  0.2859  0.0493
 4564TIP3   OH213655   4.208   6.174   3.834 -0.4220  0.0507  0.3411
 4564TIP3    H113656   4.136   6.112   3.845  0.4347 -0.8229  1.3447
 4564TIP3    H213657   4.207   6.226   3.915  0.3633 -0.3234  0.6127
 4565TIP3   OH213658   3.939   6.014   4.141  0.2802  0.3207 -0.0498
 4565TIP3    H113659   3.974   6.038   4.227  1.0891  0.2362 -0.3545
 4565TIP3    H213660   3.915   5.922   4.150  1.4082 -0.0055 -0.2383
 4566TIP3   OH213661   5.479   0.016   0.708 -0.1173  0.3138 -0.5731
 4566TIP3    H113662   5.530   0.008   0.628 -2.4065  1.0382 -2.2040
 4566TIP3    H213663   5.478   0.110   0.726  1.4863  0.0687  1.1613
 4567TIP3   OH213664   4.576   2.360   1.702 -0.1112  0.0590 -0.1363
 4567TIP3    H113665   4.556   2.330   1.613  1.9135 -0.9554 -0.3085
 4567TIP3    H213666   4.562   2.454   1.699 -0.7636 -0.0569 -1.3276
 4568TIP3   OH213667   1.358   5.084   1.277 -0.1324  0.1188 -0.1660
 4568TIP3    H113668   1.343   5.091   1.372 -0.4921  0.0548 -0.2160
 4568TIP3    H213669   1.290   5.139   1.238  0.0123  0.1406 -0.3865
 4569TIP3   OH213670   5.401   3.857   0.867 -0.0441  0.4321  0.2932
 4569TIP3    H113671   5.490   3.863   0.832 -0.0495  1.1899  0.3975
 4569TIP3    H213672   5.411   3.870   0.961 -0.4216  2.0702  0.1267
 4570TIP3   OH213673   4.081   0.796   5.196 -0.6021 -0.4572  0.4403
 4570TIP3    H113674   4.100   0.880   5.156 -1.4280 -0.5250 -0.1265
 4570TIP3    H213675   4.011   0.759   5.142  0.4365 -1.9589  0.0483
 4571TIP3   OH213676   6.898   0.539   1.468  0.2179  0.1126 -0.3659
 4571TIP3    H113677   6.884   0.447   1.444  0.7870 -0.1032  0.1053
 4571TIP3    H213678   6.969   0.536   1.533 -0.0263  0.8514 -0.0622
 4572TIP3   OH213679   2.047   2.416   1.619 -0.3757  0.3974  0.0791
 4572TIP3    H113680   2.032   2.345   1.556 -0.8256  1.0615 -0.5732
 4572TIP3    H213681   2.071   2.491   1.565 -0.1906  0.8271  0.7474
 4573TIP3   OH213682   1.590   6.138   1.926 -0.4661 -0.3093  0.3894
 4573TIP3    H113683   1.574   6.120   1.833  1.6464  0.0620 -0.1190
 4573TIP3    H213684   1.575   6.054   1.970 -2.3733 -0.2707 -0.1148
 4574TIP3   OH213685   1.770   5.234   0.616  0.6051  0.0979  0.0190
 4574TIP3    H113686   1.729   5.206   0.698 -0.8126 -1.4875 -1.1582
 4574TIP3    H213687   1.786   5.328   0.629 -2.0640  0.4976  1.1439
 4575TIP3   OH213688   6.823   4.231   2.002  0.1156 -0.2135  0.8111
 4575TIP3    H113689   6.916   4.252   2.000 -0.1365  1.1974  2.0146
 4575TIP3    H213690   6.818   4.141   1.969  1.5888  0.5592 -1.8239
 4576TIP3   OH213691   1.353   4.603   0.853  0.0557  0.4144 -0.2358
 4576TIP3    H113692   1.386   4.538   0.791 -0.6916  0.8835 -1.1495
 4576TIP3    H213693   1.330   4.552   0.931 -0.4867 -0.4230 -0.9175
 4577TIP3   OH213694   5.418   4.130   2.161 -0.1141  0.0344 -1.0246
 4577TIP3    H113695   5.332   4.155   2.195  0.8217  0.6562  1.0910
 4577TIP3    H213696   5.412   4.146   2.067 -1.9729  1.0664 -0.7950
 4578TIP3   OH213697   0.913   1.158   2.846 -0.0657 -0.3995  0.3782
 4578TIP3    H113698   0.999   1.158   2.804  0.5508  1.2876  1.5212
 4578TIP3    H213699   0.909   1.075   2.892  0.0888 -1.3762 -1.2946
 4579TIP3   OH213700   3.825   4.284   1.228  0.2865 -0.2147  0.2729
 4579TIP3    H113701   3.732   4.261   1.227 -0.3108  1.9975 -0.0918
 4579TIP3    H213702   3.830   4.367   1.181  2.4253 -0.1639  0.4907
 4580TIP3   OH213703   0.819   2.178   5.544  0.4630 -0.3722 -0.3506
 4580TIP3    H113704   0.827   2.247   5.611  0.4650  0.1492 -0.8751
 4580TIP3    H213705   0.751   2.210   5.485  1.1483 -0.3577 -1.1443
 4581TIP3   OH213706   6.637   3.120   2.863 -0.0618 -0.8744  0.4431
 4581TIP3    H113707   6.559   3.132   2.917 -0.2114 -0.6077  0.1694
 4581TIP3    H213708   6.705   3.172   2.905  0.3278 -2.0962  1.4055
 4582TIP3   OH213709   2.207   5.357   4.080 -0.5243 -0.1911 -0.1687
 4582TIP3    H113710   2.236   5.448   4.091 -0.0831 -0.2117 -1.1234
 4582TIP3    H213711   2.141   5.361   4.011 -0.7083 -0.5605 -0.0144
 4583TIP3   OH213712   0.016   4.121   2.881  0.0086 -0.3263  0.3071
 4583TIP3    H113713   0.052   4.175   2.810 -0.2401 -0.0577  0.3861
 4583TIP3    H213714  -0.015   4.184   2.946 -0.3647 -0.5606  0.3587
 4584TIP3   OH213715   5.014   0.703   1.038  0.1724 -0.4598 -0.1506
 4584TIP3    H113716   4.971   0.706   0.952 -0.3603  0.7318  0.1415
 4584TIP3    H213717   4.941   0.703   1.100  0.5753 -0.6314  0.3235
 4585TIP3   OH213718   6.767   2.790   4.066  0.4811 -0.0514 -0.2647
 4585TIP3    H113719   6.840   2.839   4.105  0.9688 -1.3316  0.5042
 4585TIP3    H213720   6.726   2.746   4.141  1.2109 -2.2860 -1.0790
 4586TIP3   OH213721   5.980   2.070   5.698 -0.4062  0.2941  0.0474
 4586TIP3    H113722   5.968   2.087   5.604  0.9497 -0.3177 -0.2540
 4586TIP3    H213723   6.069   2.036   5.705 -0.5449  0.1953  1.5489
 4587TIP3   OH213724   4.916   2.866   2.419 -0.5970  0.2200 -0.3070
 4587TIP3    H113725   4.885   2.918   2.345  0.6625  0.8204 -0.4489
 4587TIP3    H213726   4.867   2.899   2.494 -0.6423  0.8270 -0.5979
 4588TIP3   OH213727   5.236   3.537   0.405  0.2407  0.4715  0.0124
 4588TIP3    H113728   5.147   3.530   0.441 -0.6200  0.8613 -1.8694
 4588TIP3    H213729   5.294   3.524   0.480 -1.4060  0.6748  1.3866
 4589TIP3   OH213730   1.501   4.455   0.692  0.4334  0.7390  0.4595
 4589TIP3    H113731   1.563   4.448   0.764  2.4664  0.5181 -1.2184
 4589TIP3    H213732   1.515   4.375   0.640 -0.0059  1.5188 -0.9079
 4590TIP3   OH213733   2.111   3.639   4.021  0.6425  0.7947  0.8827
 4590TIP3    H113734   2.050   3.705   4.055 -0.1752  0.0565  0.8826
 4590TIP3    H213735   2.142   3.593   4.099 -2.1761 -1.7277  0.7241
 4591TIP3   OH213736   4.960   5.558   4.408 -0.5866  0.0648  0.0835
 4591TIP3    H113737   5.030   5.552   4.474 -2.5170 -0.9680  2.1770
 4591TIP3    H213738   4.989   5.629   4.350  1.8402  0.1597  1.2522
 4592TIP3   OH213739   3.966   3.347   4.580 -0.5676 -0.4327  0.4177
 4592TIP3    H113740   3.941   3.341   4.672 -0.2868 -0.1176  0.5170
 4592TIP3    H213741   4.041   3.288   4.573 -0.1972  0.0166  0.5353
 4593TIP3   OH213742   0.268  -0.003   5.330 -0.5513  0.0048  0.0978
 4593TIP3    H113743   0.280   0.090   5.351 -1.2438  0.7415 -2.4051
 4593TIP3    H213744   0.355  -0.033   5.302 -0.7352  0.4514 -0.9734
 4594TIP3   OH213745   4.375   1.028   4.855  0.1223 -0.2458  0.2221
 4594TIP3    H113746   4.425   0.965   4.906 -0.4737  1.6210  3.3355
 4594TIP3    H213747   4.441   1.078   4.807  0.8100 -1.0990  0.2513
 4595TIP3   OH213748   4.106   4.345   4.899 -0.6573  0.1267 -0.5985
 4595TIP3    H113749   4.129   4.356   4.992 -1.0436  0.0452 -0.4879
 4595TIP3    H213750   4.062   4.427   4.876 -1.2834 -0.1719 -0.4815
 4596TIP3   OH213751   3.014   2.978   1.185  0.3027 -0.3596  0.1068
 4596TIP3    H113752   2.993   2.900   1.134 -0.1969  0.1122 -0.4305
 4596TIP3    H213753   2.964   2.967   1.266  1.7689 -1.5244  0.9012
 4597TIP3   OH213754   5.064   2.362   4.253  0.2501  0.0096 -0.2020
 4597TIP3    H113755   5.153   2.398   4.257  0.7859 -1.3757  1.2119
 4597TIP3    H213756   5.011   2.425   4.303  0.7080  0.1290  0.1452
 4598TIP3   OH213757   3.670   6.560   3.814 -0.0851 -0.5489  0.0407
 4598TIP3    H113758   3.659   6.585   3.722  0.6125  2.4361  0.6537
 4598TIP3    H213759   3.589   6.515   3.836 -0.4454 -0.9633 -1.9137
 4599TIP3   OH213760   3.127   0.898   2.589 -0.1545  0.5863  0.2405
 4599TIP3    H113761   3.179   0.967   2.550 -1.4719  0.4074 -2.0051
 4599TIP3    H213762   3.191   0.836   2.626  1.1390  1.1765 -0.9591
 4600TIP3   OH213763   3.254   0.407   4.222  0.1281 -0.3928  0.2082
 4600TIP3    H113764   3.260   0.413   4.317  0.6504 -0.3186  0.1717
 4600TIP3    H213765   3.247   0.498   4.192  2.1187 -0.2519  0.0446
 4601TIP3   OH213766   3.334   2.337   5.444  0.2677  0.2996 -0.2759
 4601TIP3    H113767   3.303   2.410   5.391 -1.3456  0.6832  1.1018
 4601TIP3    H213768   3.386   2.377   5.512 -1.2432  0.3095  0.9331
 4602TIP3   OH213769   4.201   0.432   4.176  0.2755 -0.3831 -0.2935
 4602TIP3    H113770   4.143   0.449   4.251 -0.7120  0.2688 -1.1699
 4602TIP3    H213771   4.147   0.382   4.115  0.8655 -0.3742 -0.8337
 4603TIP3   OH213772   3.195   0.590   3.300  0.2702  0.5268 -0.0238
 4603TIP3    H113773   3.144   0.660   3.341 -1.1697 -0.6397  0.3000
 4603TIP3    H213774   3.179   0.514   3.356  0.9326 -0.3097 -0.9413
 4604TIP3   OH213775   3.919   5.878   0.023 -0.1596 -0.1576 -0.2604
 4604TIP3    H113776   3.965   5.881   0.107  1.1027  0.7076 -0.9477
 4604TIP3    H213777   3.829   5.854   0.046  0.3845 -0.8794  1.2305
 4605TIP3   OH213778   1.988   2.548   4.000 -0.1048  0.0925 -0.0429
 4605TIP3    H113779   1.894   2.542   3.985  0.2015  0.4103 -2.5498
 4605TIP3    H213780   2.027   2.495   3.930  1.5830 -0.5725  1.3375
 4606TIP3   OH213781   1.054   5.523   0.434 -0.6058  0.1469 -0.0573
 4606TIP3    H113782   1.103   5.475   0.501 -1.4185 -1.6851 -0.6849
 4606TIP3    H213783   1.120   5.554   0.373 -0.0257 -0.0207  0.4708
 4607TIP3   OH213784   0.136   3.104   0.866  0.3313  0.1274 -0.3404
 4607TIP3    H113785   0.182   3.140   0.790 -1.5475  3.4991 -0.1090
 4607TIP3    H213786   0.151   3.168   0.935  0.8916 -2.1938  1.8495
 4608TIP3   OH213787   4.868   6.416   5.721 -0.8455 -0.0263 -0.1138
 4608TIP3    H113788   4.879   6.375   5.635 -1.4461 -1.0908  0.3020
 4608TIP3    H213789   4.828   6.348   5.775  0.3073  0.3268  1.2532
 4609TIP3   OH213790   4.359   2.814   0.321  0.5580  0.1573  0.4344
 4609TIP3    H113791   4.351   2.899   0.278  0.0659  0.4228  1.0290
 4609TIP3    H213792   4.432   2.771   0.277 -0.4451  0.0715 -1.2436
 4610TIP3   OH213793   1.114   6.075   0.993  0.1303  0.1582  0.5458
 4610TIP3    H113794   1.139   6.168   0.990  0.1646  0.1206 -0.9313
 4610TIP3    H213795   1.148   6.038   0.912 -0.0848 -1.1115  1.0102
 4611TIP3   OH213796   6.450   4.467   3.341  0.1727  0.3382  0.1665
 4611TIP3    H113797   6.462   4.559   3.322  1.0359  0.2417  0.2201
 4611TIP3    H213798   6.519   4.446   3.404  1.8958 -1.0161 -2.0195
 4612TIP3   OH213799   3.258   5.771   3.158 -0.2122  0.0788  0.1313
 4612TIP3    H113800   3.293   5.724   3.234 -1.8217  0.6847  1.2897
 4612TIP3    H213801   3.317   5.846   3.148 -0.6508  0.6603  1.5684
 4613TIP3   OH213802   5.527   4.660   2.613  0.1951 -0.3866 -0.3043
 4613TIP3    H113803   5.587   4.682   2.685 -1.5322 -1.4989  1.5683
 4613TIP3    H213804   5.539   4.730   2.550  3.3118 -0.4630  0.0506
 4614TIP3   OH213805   6.072   4.529   5.751  0.5581 -0.7212  0.4174
 4614TIP3    H113806   6.157   4.530   5.795  0.0614 -2.4599  1.5340
 4614TIP3    H213807   6.013   4.487   5.814 -0.8529 -0.6451 -0.8025
 4615TIP3   OH213808   1.258   0.412   0.448 -0.1910  0.4284  0.2977
 4615TIP3    H113809   1.336   0.392   0.500 -1.1980  0.5737  1.9446
 4615TIP3    H213810   1.274   0.501   0.416  0.8940 -0.0425 -0.5309
 4616TIP3   OH213811   5.577   3.563   3.902  0.7364 -0.1626  0.1466
 4616TIP3    H113812   5.567   3.508   3.824 -0.1338 -0.4703  0.4710
 4616TIP3    H213813   5.488   3.586   3.927  0.9828 -0.3907  1.2771
 4617TIP3   OH213814   0.770   0.712   3.543  0.4084 -0.5525  0.0227
 4617TIP3    H113815   0.744   0.738   3.632  0.0796 -0.2906 -0.1474
 4617TIP3    H213816   0.734   0.624   3.533  1.7403 -1.2024  0.6927
 4618TIP3   OH213817   3.966   2.222   2.348  0.3275  0.5628  0.0732
 4618TIP3    H113818   4.009   2.150   2.394  0.0051 -0.1589 -0.7301
 4618TIP3    H213819   4.006   2.301   2.384  0.8991 -0.0276  0.7553
 4619TIP3   OH213820   2.319   3.691   5.448 -0.2172 -0.0304  0.6894
 4619TIP3    H113821   2.291   3.746   5.375  1.5701 -0.6917 -0.5653
 4619TIP3    H213822   2.367   3.750   5.506  0.6285  0.0091 -0.0281
 4620TIP3   OH213823   3.573   5.147   3.737 -0.4402 -0.0036  0.4911
 4620TIP3    H113824   3.655   5.196   3.744 -0.6423  0.3511  0.4138
 4620TIP3    H213825   3.509   5.201   3.784 -0.5964 -0.3542  0.6822
 4621TIP3   OH213826   5.269   1.902   2.966  0.0299 -0.4165 -0.4509
 4621TIP3    H113827   5.322   1.940   3.036 -0.5506  0.0917 -0.2809
 4621TIP3    H213828   5.186   1.878   3.008 -0.6348  0.6385 -1.1115
 4622TIP3   OH213829   5.615   1.741   5.878 -0.2425 -0.0962  0.0646
 4622TIP3    H113830   5.626   1.664   5.822  0.5324 -0.9756  1.3726
 4622TIP3    H213831   5.522   1.744   5.898 -0.2470 -0.8330  0.1787
 4623TIP3   OH213832   2.004   4.533   0.275 -0.1786 -0.3918  0.4610
 4623TIP3    H113833   1.937   4.564   0.336 -0.6775 -0.0329 -0.2624
 4623TIP3    H213834   1.973   4.559   0.189  0.8926 -0.2279  0.1073
 4624TIP3   OH213835   1.692   5.434   0.355  1.0456  0.4347 -0.0860
 4624TIP3    H113836   1.628   5.363   0.351  2.8937 -1.2947 -0.8541
 4624TIP3    H213837   1.661   5.498   0.291  0.4307 -0.6806 -0.9416
 4625TIP3   OH213838   6.045   0.303   5.361 -0.3630 -0.0159 -0.3494
 4625TIP3    H113839   6.008   0.215   5.355 -2.0564  0.4762  1.5686
 4625TIP3    H213840   6.043   0.336   5.271  0.5811 -1.9836 -1.1573
 4626TIP3   OH213841   4.591   1.636   2.902 -0.0800 -0.0276  0.0674
 4626TIP3    H113842   4.647   1.672   2.970  0.6430 -0.1887 -0.4348
 4626TIP3    H213843   4.635   1.557   2.872  0.4614  0.8652 -1.6815
 4627TIP3   OH213844   0.444   1.198   0.281 -0.1382 -0.6002 -0.4394
 4627TIP3    H113845   0.426   1.106   0.261 -1.9057  0.0018 -1.8600
 4627TIP3    H213846   0.397   1.214   0.363 -0.6972 -0.6895 -0.7440
 4628TIP3   OH213847   6.509   4.333   1.329 -0.1839 -0.0896 -0.0668
 4628TIP3    H113848   6.494   4.391   1.404 -2.0177 -0.4136 -0.1459
 4628TIP3    H213849   6.584   4.371   1.283  0.6875  0.3811  1.6493
 4629TIP3   OH213850   4.780   2.034   2.211  0.3277  0.4159 -0.0986
 4629TIP3    H113851   4.864   1.989   2.208 -0.0621 -0.3411 -3.4770
 4629TIP3    H213852   4.784   2.098   2.140 -2.5532 -1.0047 -1.7292
 4630TIP3   OH213853   6.574   0.646   4.620 -0.1449  0.1356 -0.4499
 4630TIP3    H113854   6.575   0.596   4.702 -0.2620 -1.1040 -1.1743
 4630TIP3    H213855   6.515   0.597   4.563 -0.7422  1.4575 -1.0033
 4631TIP3   OH213856   6.025   5.120   4.454  0.6344 -0.6890  0.7074
 4631TIP3    H113857   5.963   5.079   4.394 -0.2087  0.0427  1.0402
 4631TIP3    H213858   6.103   5.064   4.452  0.7640 -0.4883 -1.3270
 4632TIP3   OH213859   3.655   0.266   1.619 -0.3927  0.0188 -0.1048
 4632TIP3    H113860   3.689   0.181   1.592  0.1398  0.2897 -0.2809
 4632TIP3    H213861   3.578   0.279   1.563  0.4571  0.3900 -1.2175
 4633TIP3   OH213862   5.396   4.141   0.498  0.3264  0.0991  0.2293
 4633TIP3    H113863   5.401   4.173   0.408  0.7598 -2.1200 -0.6075
 4633TIP3    H213864   5.366   4.050   0.489  2.1240 -0.7564  2.1772
 4634TIP3   OH213865   1.701   4.777   3.069  0.0768  0.6290  0.3883
 4634TIP3    H113866   1.667   4.724   2.997 -0.6299  1.4045  0.1218
 4634TIP3    H213867   1.792   4.750   3.079  0.1587  0.4317 -0.7405
 4635TIP3   OH213868   6.799   0.942   0.263  0.1299 -0.1096  0.1548
 4635TIP3    H113869   6.887   0.907   0.275 -0.8450 -2.3557  1.2573
 4635TIP3    H213870   6.750   0.870   0.224 -0.9033  1.6090 -1.9205
 4636TIP3   OH213871   1.561   2.161   4.268  0.0271 -0.0290  0.3811
 4636TIP3    H113872   1.564   2.243   4.316 -1.7126  1.3830 -1.7061
 4636TIP3    H213873   1.483   2.116   4.301 -0.2917  0.2232 -0.0174
 4637TIP3   OH213874   2.335   0.124   2.869 -0.5279 -0.1487  0.5819
 4637TIP3    H113875   2.393   0.056   2.835 -0.1406 -0.5146  1.9349
 4637TIP3    H213876   2.265   0.075   2.913 -0.0183  0.3189  1.9408
 4638TIP3   OH213877   5.133   5.585   0.975 -0.5299  0.2549  0.1982
 4638TIP3    H113878   5.068   5.530   1.018  0.1248 -0.9288 -0.3021
 4638TIP3    H213879   5.129   5.668   1.024 -0.1029 -0.8927  2.2959
 4639TIP3   OH213880   4.792   4.575   2.571  0.2457  0.1763 -0.1058
 4639TIP3    H113881   4.701   4.599   2.556  0.3618 -0.4197 -2.1701
 4639TIP3    H213882   4.789   4.483   2.598  0.2451 -0.0810 -0.9417
 4640TIP3   OH213883   4.691   1.060   0.522 -0.1604 -0.3849 -0.3055
 4640TIP3    H113884   4.643   1.097   0.596  2.0551  0.0845  1.0071
 4640TIP3    H213885   4.640   0.983   0.496 -1.6312  0.1291  0.9150
 4641TIP3   OH213886   1.343   0.874   2.503  0.3889  0.3278 -0.3822
 4641TIP3    H113887   1.273   0.921   2.457 -0.3417  1.6285  1.9201
 4641TIP3    H213888   1.306   0.788   2.522  0.6694 -0.1972 -2.0564
 4642TIP3   OH213889   5.543   5.186   4.506 -0.1862  0.5832 -0.3419
 4642TIP3    H113890   5.561   5.186   4.412 -1.2157  0.4450 -0.5571
 4642TIP3    H213891   5.546   5.094   4.531 -0.4770  0.5672 -0.3614
 4643TIP3   OH213892   3.971   4.506   4.443  0.2809  0.4712 -0.6458
 4643TIP3    H113893   4.056   4.471   4.416 -0.0832 -1.3802  0.4124
 4643TIP3    H213894   3.974   4.505   4.539 -0.6140  1.2031 -0.5981
 4644TIP3   OH213895   5.510   0.646   0.491 -0.3993 -0.2057  0.2064
 4644TIP3    H113896   5.554   0.705   0.430 -0.6487  0.4862  0.6741
 4644TIP3    H213897   5.426   0.688   0.509 -0.9397 -1.1341 -0.0914
 4645TIP3   OH213898   0.646   6.334   5.739 -0.3904 -0.7849  0.5144
 4645TIP3    H113899   0.697   6.275   5.795  0.1436 -0.7926  0.0291
 4645TIP3    H213900   0.689   6.419   5.749  0.5022 -1.0392 -0.8300
 4646TIP3   OH213901   2.546   2.537   1.214  0.1248 -0.0467 -0.0764
 4646TIP3    H113902   2.630   2.506   1.180  0.0280  0.4830 -0.8309
 4646TIP3    H213903   2.568   2.582   1.295  0.6043  0.2447 -0.3601
 4647TIP3   OH213904   0.206   3.905   2.889 -0.2583  0.0792 -0.0282
 4647TIP3    H113905   0.140   3.973   2.880  1.0421  1.2674 -0.8964
 4647TIP3    H213906   0.206   3.860   2.805  0.7190  0.7403 -0.3959
 4648TIP3   OH213907   6.616   0.470   4.252  0.1740 -0.6689 -0.4005
 4648TIP3    H113908   6.617   0.415   4.174  1.3221 -0.4888 -0.5311
 4648TIP3    H213909   6.678   0.541   4.233  2.8017 -2.1761  1.7257
 4649TIP3   OH213910   5.043   5.410   4.068  0.3512 -0.1270 -0.5851
 4649TIP3    H113911   5.050   5.326   4.021  1.5458  0.1991 -1.0240
 4649TIP3    H213912   5.116   5.408   4.130  0.6644  0.7661 -0.9080
 4650TIP3   OH213913   4.046   0.660   3.731 -0.5965  1.1270  0.1291
 4650TIP3    H113914   4.130   0.621   3.704 -1.2177 -0.6887  0.6347
 4650TIP3    H213915   3.992   0.658   3.652 -0.8816  0.1904  0.3367
 4651TIP3   OH213916   6.628   6.393   4.315 -0.6232  0.0336 -0.2683
 4651TIP3    H113917   6.571   6.321   4.288  0.4555 -0.1379 -2.3349
 4651TIP3    H213918   6.583   6.434   4.388 -0.9574 -3.1580  1.5181
 4652TIP3   OH213919   0.491   5.049   2.883 -0.5092  0.2134  0.1893
 4652TIP3    H113920   0.441   5.095   2.816  0.0530 -1.0230 -1.1439
 4652TIP3    H213921   0.581   5.081   2.872 -0.3063 -0.4192 -0.0778
 4653TIP3   OH213922   2.794   5.949   0.615 -0.3927 -0.2764  0.3756
 4653TIP3    H113923   2.757   6.034   0.638 -0.9967 -0.3923 -0.1607
 4653TIP3    H213924   2.770   5.936   0.523 -0.7256 -1.2465  0.5883
 4654TIP3   OH213925   2.994   5.754   3.170 -0.3045  0.1764 -0.4570
 4654TIP3    H113926   3.089   5.766   3.174 -0.4737  1.6414 -0.2622
 4654TIP3    H213927   2.970   5.784   3.082 -0.9606  3.1574  0.6362
 4655TIP3   OH213928   3.255   1.357   3.729  0.0947  0.0268 -0.2096
 4655TIP3    H113929   3.315   1.325   3.662  0.0822  1.4807 -0.9400
 4655TIP3    H213930   3.310   1.409   3.787  0.0879 -1.1471  0.8971
 4656TIP3   OH213931   1.155   5.896   0.521  0.1412  0.3873  0.1148
 4656TIP3    H113932   1.200   5.843   0.588  0.5477  0.3833 -0.1569
 4656TIP3    H213933   1.072   5.919   0.562  1.2797  2.2914  1.5517
 4657TIP3   OH213934   1.344   2.398   3.655  0.2329 -0.3499  0.1342
 4657TIP3    H113935   1.432   2.417   3.622  0.5879 -1.4660  0.3901
 4657TIP3    H213936   1.349   2.419   3.749  0.7124 -1.8295  0.4807
 4658TIP3   OH213937   4.398   2.270   4.559 -0.0711 -0.2681  0.0174
 4658TIP3    H113938   4.429   2.261   4.649  0.6810  1.2810 -0.0572
 4658TIP3    H213939   4.397   2.180   4.525 -1.2065 -0.9966  1.8094
 4659TIP3   OH213940   1.995   5.218   1.880  0.3433  0.2064 -0.1110
 4659TIP3    H113941   1.996   5.147   1.816 -0.0749 -0.8771  1.0391
 4659TIP3    H213942   1.955   5.291   1.834 -1.3171 -0.9786 -0.6616
 4660TIP3   OH213943   1.390   6.172   0.749 -0.2268 -0.2562  0.4712
 4660TIP3    H113944   1.366   6.201   0.662  0.9190  1.4427  0.6746
 4660TIP3    H213945   1.307   6.148   0.791 -0.7243 -1.8518 -1.2941
 4661TIP3   OH213946   1.034   1.220   0.393  0.3658  0.0565 -0.1407
 4661TIP3    H113947   0.942   1.242   0.409  0.4707 -0.0588  0.6482
 4661TIP3    H213948   1.035   1.124   0.389  0.6562 -0.0098  1.2128
 4662TIP3   OH213949   4.226   3.739   3.559  0.2225  0.0217 -0.5225
 4662TIP3    H113950   4.142   3.704   3.530 -1.3667  1.3576  2.1198
 4662TIP3    H213951   4.233   3.713   3.651  1.5723  1.8909 -0.0355
 4663TIP3   OH213952   2.881   4.073   4.826  0.3948 -0.0138 -0.0889
 4663TIP3    H113953   2.937   4.148   4.844  1.2627 -0.6022 -0.2938
 4663TIP3    H213954   2.921   4.000   4.873  0.3467 -0.6477 -1.0065
 4664TIP3   OH213955   1.717   4.467   1.658  0.1369 -0.4880  0.1668
 4664TIP3    H113956   1.635   4.495   1.698 -0.0957 -0.9620  0.0275
 4664TIP3    H213957   1.691   4.414   1.583  0.5631 -1.0153  0.3811
 4665TIP3   OH213958   1.202   3.914   4.183  0.5663  0.5103  0.7694
 4665TIP3    H113959   1.242   3.984   4.132 -2.0475  1.6461  0.1217
 4665TIP3    H213960   1.240   3.923   4.270  1.5124  1.6505  0.2659
 4666TIP3   OH213961   2.601   6.527   1.087  0.0261  0.2452 -0.2469
 4666TIP3    H113962   2.647   6.609   1.106  0.6474 -0.5152  1.8524
 4666TIP3    H213963   2.512   6.553   1.066  0.2530  1.4598  0.2275
 4667TIP3   OH213964   2.527   0.573   4.345 -0.4621  0.2370  0.0183
 4667TIP3    H113965   2.564   0.491   4.379 -0.6665  0.0759 -0.1491
 4667TIP3    H213966   2.501   0.622   4.423 -0.6414  0.0015  0.1071
 4668TIP3   OH213967   5.305   1.094   5.738  0.1351 -0.4450  0.0227
 4668TIP3    H113968   5.282   1.156   5.669  0.6019 -0.7989 -0.4672
 4668TIP3    H213969   5.335   1.016   5.690  0.2374 -0.7820  0.6283
 4669TIP3   OH213970   2.580   4.669   1.966 -0.2915  0.2273  0.0394
 4669TIP3    H113971   2.594   4.631   2.052 -0.6933  1.5620  0.7268
 4669TIP3    H213972   2.651   4.733   1.957 -1.7515  2.0146  0.5603
 4670TIP3   OH213973   5.107   5.448   5.757  0.1351  0.4990  0.4712
 4670TIP3    H113974   5.176   5.494   5.805  0.4369 -0.1091  0.6344
 4670TIP3    H213975   5.146   5.363   5.735  0.5619  1.2935 -2.1927
 4671TIP3   OH213976   0.027   5.985   2.397  0.6634  0.0906  0.1662
 4671TIP3    H113977  -0.033   6.060   2.390 -1.4161 -1.3471  1.4211
 4671TIP3    H213978   0.025   5.945   2.310  3.2228  2.3628 -1.1101
 4672TIP3   OH213979   6.954   0.416   0.052 -0.1970  0.8186 -0.5426
 4672TIP3    H113980   7.002   0.362   0.115 -0.3749  0.3672 -0.7926
 4672TIP3    H213981   6.913   0.354  -0.007  0.2836  1.2530 -1.3449
 4673TIP3   OH213982   5.773   0.046   5.549  0.0805  0.1232  0.1811
 4673TIP3    H113983   5.698   0.007   5.504 -0.4338  0.2566  0.8941
 4673TIP3    H213984   5.833   0.072   5.480 -0.5381  0.0137 -0.3997
 4674TIP3   OH213985   1.989   2.088   5.314 -0.5047 -0.3143  0.4796
 4674TIP3    H113986   2.016   2.141   5.389 -2.2213  2.4130 -0.6725
 4674TIP3    H213987   2.055   2.104   5.247 -0.2763 -0.8077  0.5785
 4675TIP3   OH213988   0.332   5.362   3.005  0.2985 -0.0530  0.1868
 4675TIP3    H113989   0.418   5.329   3.031  0.4169  0.2519  0.1853
 4675TIP3    H213990   0.350   5.437   2.949  0.0523 -0.7767 -0.9184
 4676TIP3   OH213991   2.887   0.563   0.465 -0.1090  0.2124 -0.9512
 4676TIP3    H113992   2.906   0.611   0.384 -1.3470  0.8494 -0.8945
 4676TIP3    H213993   2.915   0.622   0.534 -0.0731  0.1383 -0.9028
 4677TIP3   OH213994   4.040   2.479   1.579 -0.0288 -0.4711 -0.2573
 4677TIP3    H113995   3.962   2.454   1.627 -0.8559 -0.0881 -1.3610
 4677TIP3    H213996   4.038   2.575   1.578  0.6197 -0.4521 -0.0220
 4678TIP3   OH213997   0.902   0.954   3.007  0.0319  0.1019  0.3887
 4678TIP3    H113998   0.963   0.941   3.079 -1.2419 -0.8657  1.3250
 4678TIP3    H213999   0.827   0.898   3.027 -0.9093  0.7661 -1.0491
 4679TIP3   OH214000   4.429   6.400   1.100  0.1194 -0.0322  0.2171
 4679TIP3    H114001   4.396   6.490   1.109 -0.4229 -0.3256  1.3434
 4679TIP3    H214002   4.351   6.349   1.076  0.0708 -0.4719  1.2853
 4680TIP3   OH214003   7.012   2.673   5.291  0.2143 -0.4785  0.3649
 4680TIP3    H114004   6.940   2.712   5.242  1.5474  2.0297  0.2568
 4680TIP3    H214005   7.053   2.613   5.229 -0.1523  0.1248 -0.4901
 4681TIP3   OH214006   6.588   1.172   0.709 -0.3066  0.2619  0.3235
 4681TIP3    H114007   6.582   1.116   0.632  0.4150  2.0810 -1.1043
 4681TIP3    H214008   6.646   1.124   0.769 -0.5296 -0.9627 -0.4065
 4682TIP3   OH214009   2.532   5.352   1.401  0.7226 -0.1814 -0.0582
 4682TIP3    H114010   2.585   5.383   1.475 -0.1027  1.9420 -0.3142
 4682TIP3    H214011   2.464   5.298   1.442  1.3053 -0.4928  0.5376
 4683TIP3   OH214012   0.167   1.900   5.833 -0.2964 -0.2264  0.5981
 4683TIP3    H114013   0.173   1.987   5.792  0.7981 -0.4231  0.3143
 4683TIP3    H214014   0.174   1.839   5.760  0.9334 -0.5685  0.9699
 4684TIP3   OH214015   2.789   3.456   3.429 -0.1696 -0.4705 -0.4665
 4684TIP3    H114016   2.864   3.412   3.468 -2.1184 -1.5504  2.3307
 4684TIP3    H214017   2.753   3.392   3.367  1.3538  0.1984 -2.1093
 4685TIP3   OH214018   6.331   5.160   2.193 -0.1855  0.3729  0.4386
 4685TIP3    H114019   6.354   5.194   2.280  1.4067  3.0015 -0.8971
 4685TIP3    H214020   6.414   5.153   2.147 -0.8576 -2.1881 -0.5571
 4686TIP3   OH214021   2.465   4.756   0.706 -0.1995  0.0130  0.1719
 4686TIP3    H114022   2.428   4.706   0.778 -1.4712  0.8986  0.1558
 4686TIP3    H214023   2.492   4.690   0.642 -1.9461 -0.6674  0.1027
 4687TIP3   OH214024   4.855   2.213   3.569 -0.2057  0.0423 -0.1996
 4687TIP3    H114025   4.776   2.160   3.568 -1.1593  1.4093  0.5238
 4687TIP3    H214026   4.826   2.300   3.545  0.7825  0.9217  1.5919
 4688TIP3   OH214027   5.008   4.690   3.077 -0.2064 -0.0616 -0.4705
 4688TIP3    H114028   5.078   4.677   3.141 -0.1850  1.5635 -0.1168
 4688TIP3    H214029   4.954   4.760   3.114 -0.6518  0.3644 -1.8607
 4689TIP3   OH214030   4.058   0.648   0.505 -0.0283  0.5651 -0.0572
 4689TIP3    H114031   3.979   0.605   0.472  0.7401 -0.0789 -1.1419
 4689TIP3    H214032   4.091   0.590   0.573  0.4456 -0.0836 -0.8160
 4690TIP3   OH214033   4.002   4.111   0.813 -0.1655 -0.1591  0.1089
 4690TIP3    H114034   3.980   4.036   0.757  0.0964 -1.4438  1.6549
 4690TIP3    H214035   3.939   4.106   0.885  2.2778 -1.3063  2.3269
 4691TIP3   OH214036   2.391   5.150   4.344  0.6703 -0.1284 -0.3246
 4691TIP3    H114037   2.403   5.077   4.404 -0.4737  0.5180  0.7355
 4691TIP3    H214038   2.445   5.220   4.380  1.3798 -0.2760 -1.0652
 4692TIP3   OH214039   1.074   1.227   3.509  0.4887  0.4143  0.1342
 4692TIP3    H114040   1.127   1.183   3.442  0.4148  0.9765 -0.3042
 4692TIP3    H214041   0.988   1.236   3.469  0.2102  0.0019  0.6343
 4693TIP3   OH214042   2.682   2.167   2.149 -0.2777 -0.1323 -0.3695
 4693TIP3    H114043   2.753   2.158   2.212 -1.3605 -0.5668  0.8262
 4693TIP3    H214044   2.604   2.142   2.197 -1.6966  3.1039 -0.7310
 4694TIP3   OH214045   5.184   2.020   1.600  0.4105 -0.1872 -0.2493
 4694TIP3    H114046   5.140   2.105   1.601  0.4413 -0.1499 -1.0180
 4694TIP3    H214047   5.115   1.957   1.617  0.0291 -0.1281 -1.4471
 4695TIP3   OH214048   1.677   0.085   1.383  0.7040 -0.3234 -0.6444
 4695TIP3    H114049   1.614   0.135   1.332 -0.4320 -0.5099  0.4974
 4695TIP3    H214050   1.762   0.104   1.344  0.1902  1.6858 -0.8783
 4696TIP3   OH214051   4.581   3.130   0.144 -0.2444  0.0908 -0.4003
 4696TIP3    H114052   4.508   3.119   0.205 -0.8566  0.3892 -1.0698
 4696TIP3    H214053   4.577   3.052   0.089 -0.5198  0.4677 -0.9170
 4697TIP3   OH214054   2.491   2.534   0.946 -0.0972  0.1919  0.3433
 4697TIP3    H114055   2.541   2.531   1.027 -0.8636  1.6550  0.9199
 4697TIP3    H214056   2.399   2.530   0.975 -0.4063  1.6499 -0.3596
 4698TIP3   OH214057   6.219   3.337   3.045 -0.0819  0.0173 -0.2878
 4698TIP3    H114058   6.204   3.385   3.127 -0.1708  0.5489 -0.6158
 4698TIP3    H214059   6.142   3.282   3.035 -0.0064 -0.1587  0.0586
 4699TIP3   OH214060   2.605   0.003   0.786  0.2813 -0.2547 -0.0838
 4699TIP3    H114061   2.544  -0.070   0.776 -1.7678  1.4019 -0.3800
 4699TIP3    H214062   2.550   0.081   0.775  2.3749  1.3323  0.2609
 4700TIP3   OH214063   5.915   0.501   3.093 -0.0905 -0.1605 -0.1589
 4700TIP3    H114064   5.914   0.409   3.069 -0.6207 -0.4383  0.8798
 4700TIP3    H214065   5.955   0.503   3.180  1.1549  0.7396 -0.7114
 4701TIP3   OH214066   2.743   5.241   3.241 -0.2347 -0.3982 -0.3427
 4701TIP3    H114067   2.762   5.174   3.307  1.0561  2.7439  2.7992
 4701TIP3    H214068   2.650   5.259   3.252 -0.1011 -0.1420  0.4068
 4702TIP3   OH214069   7.145   3.253   5.388  0.1321  0.6866  0.3777
 4702TIP3    H114070   7.204   3.177   5.390 -0.3399  0.3272  1.3100
 4702TIP3    H214071   7.058   3.215   5.378 -0.2062  1.0239  1.7917
 4703TIP3   OH214072   5.644   1.371   4.311 -0.1622  0.5305 -0.5726
 4703TIP3    H114073   5.610   1.288   4.277  1.2188  0.0096 -0.7372
 4703TIP3    H214074   5.585   1.438   4.275  0.2441 -0.1463 -2.5913
 4704TIP3   OH214075   5.705   3.919   0.949  0.3178 -0.3266  0.4396
 4704TIP3    H114076   5.781   3.969   0.919  1.5564 -1.7276  1.1470
 4704TIP3    H214077   5.667   3.973   1.019  1.8638 -0.5214  1.4698
 4705TIP3   OH214078   5.156   6.411   2.962 -0.2464 -0.5657 -0.1453
 4705TIP3    H114079   5.150   6.325   3.004 -0.1635 -0.1196  0.7886
 4705TIP3    H214080   5.248   6.437   2.973 -0.6866  0.4891  1.3038
 4706TIP3   OH214081   5.639   1.680   4.137  0.2077  0.3868  0.3023
 4706TIP3    H114082   5.717   1.703   4.187 -0.6502 -0.3465  2.0457
 4706TIP3    H214083   5.669   1.677   4.046  1.7547  2.0106  0.7022
 4707TIP3   OH214084   5.012   3.516   2.167 -0.4761 -0.4114 -0.2167
 4707TIP3    H114085   4.974   3.547   2.249  2.8163  2.3748  0.4854
 4707TIP3    H214086   4.942   3.527   2.103 -2.4822 -0.6564  1.8119
 4708TIP3   OH214087   3.085   4.686   2.727 -0.4206 -0.0018  0.1850
 4708TIP3    H114088   3.058   4.743   2.798  0.0029  0.4600 -0.0215
 4708TIP3    H214089   3.142   4.621   2.768 -2.1927 -1.3097  0.7256
 4709TIP3   OH214090   5.648   1.412   0.666  0.3845  0.6826  0.2050
 4709TIP3    H114091   5.685   1.500   0.668  0.6937  0.5412  0.8829
 4709TIP3    H214092   5.566   1.419   0.716  1.0270  0.3179  1.3402
 4710TIP3   OH214093   6.095   2.056   2.207 -0.6886  0.5732  0.2781
 4710TIP3    H114094   6.180   2.059   2.163 -1.7676  1.5279 -1.8514
 4710TIP3    H214095   6.065   1.966   2.195 -1.3726  1.0342 -1.8560
 4711TIP3   OH214096   4.389   4.465   3.032 -0.7619  0.0601 -0.7153
 4711TIP3    H114097   4.398   4.546   3.082  0.2798 -1.0436  1.0032
 4711TIP3    H214098   4.295   4.447   3.034 -0.8945  0.7352 -0.2822
 4712TIP3   OH214099   4.887   6.151   3.758  0.3692 -0.1572  0.4728
 4712TIP3    H114100   4.929   6.099   3.690  0.0906  1.2164 -0.8213
 4712TIP3    H214101   4.957   6.169   3.821  0.9560 -0.4252 -0.0905
 4713TIP3   OH214102   0.463   4.358   0.199  0.4431  0.5590 -0.0525
 4713TIP3    H114103   0.458   4.385   0.291 -0.6313  0.9351 -0.2024
 4713TIP3    H214104   0.540   4.402   0.165  0.7827  0.5140  0.6389
 4714TIP3   OH214105   4.474   0.534   1.566 -0.9159  0.4882 -0.3981
 4714TIP3    H114106   4.500   0.504   1.653 -0.6216 -1.1617 -1.0204
 4714TIP3    H214107   4.552   0.575   1.529  0.4499 -2.8872 -1.5844
 4715TIP3   OH214108   0.604   3.298   3.620  0.4770  0.0319 -0.0689
 4715TIP3    H114109   0.526   3.252   3.588 -0.5255  0.9167  0.9990
 4715TIP3    H214110   0.588   3.309   3.714  1.0541  1.8092 -0.1449
 4716TIP3   OH214111   0.543   5.163  -0.016  0.4906  0.0518 -0.0357
 4716TIP3    H114112   0.549   5.257  -0.001  1.5691 -0.1231  0.7256
 4716TIP3    H214113   0.504   5.128   0.065 -1.3400 -0.0102 -0.8993
 4717TIP3   OH214114   3.498   1.926   5.592  0.6983  0.0283  0.6898
 4717TIP3    H114115   3.552   1.876   5.532 -1.7900 -1.6687 -0.2725
 4717TIP3    H214116   3.444   1.982   5.536 -0.7961 -0.6789  1.3804
 4718TIP3   OH214117   6.268   3.167   3.712 -0.1937 -0.1917  0.1372
 4718TIP3    H114118   6.309   3.207   3.636  0.2344  0.3645  0.6519
 4718TIP3    H214119   6.179   3.145   3.684 -0.4097  1.0405 -0.1821
 4719TIP3   OH214120   4.826   6.530   5.025  0.1497 -0.3606  0.5839
 4719TIP3    H114121   4.921   6.538   5.013  0.0606 -1.6264 -1.4694
 4719TIP3    H214122   4.796   6.621   5.038  1.5282  0.1421  0.4357
 4720TIP3   OH214123   2.401   3.126   1.019  0.1491  0.6006  0.0351
 4720TIP3    H114124   2.430   3.059   0.958 -1.4296 -1.9555  1.8885
 4720TIP3    H214125   2.431   3.096   1.104 -0.4621  2.3638  0.9298
 4721TIP3   OH214126   3.538   6.611   3.072 -0.0847 -0.2386  0.1060
 4721TIP3    H114127   3.454   6.570   3.094  0.5161 -1.8736 -0.4838
 4721TIP3    H214128   3.581   6.547   3.015  1.8825  0.2132  1.0133
 4722TIP3   OH214129   4.854   3.582   4.329  0.0271 -0.1685 -0.0831
 4722TIP3    H114130   4.908   3.647   4.285  1.7050 -0.0938  1.8960
 4722TIP3    H214131   4.793   3.551   4.263  2.3054 -0.0187 -2.3986
 4723TIP3   OH214132   5.256   4.150   3.499 -0.3250 -0.5131 -0.5367
 4723TIP3    H114133   5.241   4.087   3.569 -0.0077 -0.3336 -0.2999
 4723TIP3    H214134   5.339   4.122   3.459 -0.5757 -0.6946 -0.9262
 4724TIP3   OH214135   2.703   6.301   3.616 -0.1563 -0.1163  0.3295
 4724TIP3    H114136   2.790   6.342   3.612 -0.5821  0.7517 -0.2512
 4724TIP3    H214137   2.715   6.215   3.575  0.9999 -1.0808  2.5131
 4725TIP3   OH214138   2.605   2.393   2.818 -0.3030  0.2524 -0.5501
 4725TIP3    H114139   2.512   2.373   2.827 -0.2224  0.4985  1.3181
 4725TIP3    H214140   2.634   2.343   2.742 -1.8843 -0.0707 -0.9720
 4726TIP3   OH214141   1.446   0.710   5.683  0.3586 -0.0509 -0.4147
 4726TIP3    H114142   1.407   0.752   5.607  0.4353  0.3341 -0.2395
 4726TIP3    H214143   1.491   0.633   5.647  0.8208  0.4068 -0.8200
 4727TIP3   OH214144   0.890   4.940   0.953  0.1052 -0.3094 -0.1449
 4727TIP3    H114145   0.977   4.919   0.919 -1.2614 -2.7174 -2.5030
 4727TIP3    H214146   0.864   5.019   0.904  0.4627 -0.3387 -0.3864
 4728TIP3   OH214147   2.941   4.957   4.941  0.0806  0.1315 -0.2394
 4728TIP3    H114148   3.026   4.960   4.896 -0.5038 -0.3590 -1.4190
 4728TIP3    H214149   2.907   4.870   4.922 -1.9589  1.2390 -2.2527
 4729TIP3   OH214150   5.817   1.924   3.185  0.0697  0.0806  0.3099
 4729TIP3    H114151   5.845   1.999   3.237 -0.2283  0.2296  0.2597
 4729TIP3    H214152   5.884   1.916   3.117  0.4338 -0.0841  0.6861
 4730TIP3   OH214153   2.569   5.675   3.499  0.0920 -0.3580 -0.3687
 4730TIP3    H114154   2.635   5.670   3.430 -0.5062  1.8651 -1.1968
 4730TIP3    H214155   2.604   5.739   3.561 -0.4191 -0.6191  0.2006
 4731TIP3   OH214156   2.074   2.471   0.112 -0.3016  0.2430  0.0712
 4731TIP3    H114157   2.018   2.397   0.138 -0.5580  0.3141 -0.2614
 4731TIP3    H214158   2.117   2.441   0.033 -1.5700  0.9881 -0.9463
 4732TIP3   OH214159   5.042   2.570   5.587  0.0263  0.3024 -0.0467
 4732TIP3    H114160   4.947   2.557   5.590 -0.1010  1.0327 -0.6564
 4732TIP3    H214161   5.078   2.482   5.585 -0.5819 -0.0185  1.4343
 4733TIP3   OH214162   2.036   0.511   1.691  0.1696  0.3687 -0.6392
 4733TIP3    H114163   2.119   0.521   1.739  0.5674  1.8628 -1.5585
 4733TIP3    H214164   1.989   0.593   1.707 -0.6024  0.0371 -1.1207
 4734TIP3   OH214165   0.667   0.720   5.876 -0.0667 -0.4427  0.2805
 4734TIP3    H114166   0.744   0.665   5.863  0.5967  0.3618  0.6454
 4734TIP3    H214167   0.604   0.690   5.811  0.3908 -1.4128  0.2721
 4735TIP3   OH214168   0.210   4.272   2.231 -0.4070  0.5242 -0.0154
 4735TIP3    H114169   0.145   4.203   2.230  0.4789 -0.3380  0.1884
 4735TIP3    H214170   0.250   4.268   2.144  0.6104 -0.1823  0.4662
 4736TIP3   OH214171   3.475   6.581   5.276 -0.3212  0.4454 -0.3187
 4736TIP3    H114172   3.400   6.549   5.227 -0.3334 -0.6358  0.3951
 4736TIP3    H214173   3.462   6.549   5.365  0.3752  1.2700  0.0979
 4737TIP3   OH214174   4.516   3.979   4.517 -0.0831  0.1771  0.0569
 4737TIP3    H114175   4.543   4.059   4.470 -0.1498  0.0386 -0.2176
 4737TIP3    H214176   4.475   3.925   4.450  0.1561 -0.1797  0.1998
 4738TIP3   OH214177   3.913   3.740   2.967 -0.4766 -0.0879  0.2659
 4738TIP3    H114178   3.883   3.765   2.880  0.6245  0.8330  0.1334
 4738TIP3    H214179   3.834   3.742   3.021 -0.7780  1.8442 -0.1739
 4739TIP3   OH214180   0.454   5.703   2.417  0.0500  0.0275  0.4398
 4739TIP3    H114181   0.440   5.756   2.496  1.2214  0.3322  0.4566
 4739TIP3    H214182   0.417   5.617   2.439 -1.0955  0.5779  0.7195
 4740TIP3   OH214183   2.412   6.451   4.350 -0.1116  0.2007 -0.6389
 4740TIP3    H114184   2.461   6.382   4.305 -0.9479 -1.6370  1.1308
 4740TIP3    H214185   2.323   6.443   4.316 -0.3604 -0.0648  0.0547
 4741TIP3   OH214186   5.415   3.118   4.833 -0.0120  0.1087 -0.3858
 4741TIP3    H114187   5.441   3.207   4.808  1.4107  0.5441  2.2653
 4741TIP3    H214188   5.328   3.127   4.871  1.1694  0.9789  2.3832
 4742TIP3   OH214189   6.211   0.131   0.872  0.3401 -0.3855 -0.2311
 4742TIP3    H114190   6.117   0.151   0.869  0.3347 -0.1154  1.2675
 4742TIP3    H214191   6.234   0.113   0.781 -0.3796  3.1433 -1.2848
 4743TIP3   OH214192   6.212   5.359   4.996 -0.2245 -0.0167  0.1140
 4743TIP3    H114193   6.270   5.323   5.063 -0.4348  1.4143  1.1230
 4743TIP3    H214194   6.125   5.324   5.018 -0.1977  0.0010  0.2488
 4744TIP3   OH214195   5.863   4.717   3.697 -0.2039 -0.3251  0.1259
 4744TIP3    H114196   5.792   4.780   3.707 -0.2517 -0.0704 -1.6336
 4744TIP3    H214197   5.896   4.731   3.609  0.5272 -2.0191  0.0938
 4745TIP3   OH214198   3.085   5.513   3.779 -0.3677  0.3474 -0.8297
 4745TIP3    H114199   3.058   5.430   3.819  3.5872 -0.5786  0.3751
 4745TIP3    H214200   3.117   5.566   3.853 -0.7945  2.1199 -1.8451
 4746TIP3   OH214201   5.495   4.508   0.271  0.2091 -0.4849  0.1634
 4746TIP3    H114202   5.467   4.421   0.240 -2.0784  0.0454  0.5953
 4746TIP3    H214203   5.484   4.504   0.366 -0.7448  0.5317  0.1107
 4747TIP3   OH214204   0.083   4.797   3.147  0.2636 -0.0809 -0.7314
 4747TIP3    H114205   0.023   4.854   3.194  0.4262  0.2399 -0.9020
 4747TIP3    H214206   0.091   4.719   3.202 -1.7976 -0.9828 -1.6102
 4748TIP3   OH214207   6.566   4.631   1.001 -0.5644 -0.7457 -0.3594
 4748TIP3    H114208   6.594   4.602   0.914 -0.4498 -1.3581 -0.1206
 4748TIP3    H214209   6.647   4.663   1.042 -0.7361  0.2030 -0.7213
 4749TIP3   OH214210   0.324   1.869   0.035  0.1628  0.4817  0.6310
 4749TIP3    H114211   0.305   1.792   0.089  3.3434 -1.6975 -1.0275
 4749TIP3    H214212   0.296   1.844  -0.053  1.7744  0.9247 -0.0473
 4750TIP3   OH214213   5.971   5.392   3.262 -0.4634 -0.9497 -0.1287
 4750TIP3    H114214   5.926   5.451   3.202  0.1976 -0.5819 -0.2718
 4750TIP3    H214215   6.052   5.368   3.216  1.0184  0.8717  1.3568
 4751TIP3   OH214216   4.282   1.124   3.739  0.2147 -0.8836 -0.4001
 4751TIP3    H114217   4.365   1.121   3.691  0.0743  0.6098 -0.7755
 4751TIP3    H214218   4.284   1.046   3.794  1.3891 -1.4372 -1.1844
 4752TIP3   OH214219   1.235   0.160   2.478  0.3176  0.1390 -0.2495
 4752TIP3    H114220   1.165   0.141   2.540 -1.1403  1.2702 -1.4645
 4752TIP3    H214221   1.192   0.209   2.408  2.0564 -0.3381 -1.7303
 4753TIP3   OH214222   6.522   3.798   5.640  0.1220  0.0315  0.0818
 4753TIP3    H114223   6.472   3.785   5.559  0.6529  0.9004 -0.4112
 4753TIP3    H214224   6.613   3.784   5.614  0.3967  1.3136  0.2669
 4754TIP3   OH214225   3.254   4.502   5.303 -0.3452  0.5642 -0.3661
 4754TIP3    H114226   3.252   4.410   5.331  0.0278  0.8967  0.8362
 4754TIP3    H214227   3.292   4.500   5.216 -0.4872 -0.4396 -0.4203
 4755TIP3   OH214228   1.634   1.877   4.801 -0.7228  0.1064  0.5225
 4755TIP3    H114229   1.651   1.894   4.894  1.6751 -0.2191  0.2147
 4755TIP3    H214230   1.637   1.963   4.759  0.1155  0.0829  0.5115
 4756TIP3   OH214231   3.926   1.398   5.055 -0.7000 -0.4250  0.1725
 4756TIP3    H114232   3.985   1.392   5.130 -1.8066 -2.4783  0.9717
 4756TIP3    H214233   3.962   1.335   4.992 -1.5345 -1.0636  0.3185
 4757TIP3   OH214234   6.658   3.649   4.908 -0.5782 -0.9122 -0.0496
 4757TIP3    H114235   6.616   3.735   4.912 -2.5277 -1.8001 -0.2548
 4757TIP3    H214236   6.716   3.654   4.831 -0.1297  0.4104  0.3466
 4758TIP3   OH214237   1.972   0.096   5.756 -0.0104 -0.0635 -0.0906
 4758TIP3    H114238   2.061   0.111   5.723  0.4433 -0.8982  0.7263
 4758TIP3    H214239   1.956   0.003   5.740 -1.3136  0.3713 -1.5597
 4759TIP3   OH214240   2.980   3.081   0.929 -0.4364 -0.0940 -0.4347
 4759TIP3    H114241   2.988   3.058   1.021 -1.4226 -0.2365 -0.3772
 4759TIP3    H214242   3.060   3.048   0.889  0.1543  0.2589  0.4215
 4760TIP3   OH214243   5.664   2.401   1.654 -0.2910 -0.6287  0.1493
 4760TIP3    H114244   5.654   2.345   1.577 -1.3558  1.3214 -1.2002
 4760TIP3    H214245   5.745   2.449   1.638  0.6673 -1.7543  1.3500
 4761TIP3   OH214246   6.854   6.433   5.031 -0.2254  0.0562  0.1765
 4761TIP3    H114247   6.853   6.493   5.106 -0.2649  0.2103  0.0533
 4761TIP3    H214248   6.894   6.484   4.960 -2.9345  1.0066 -0.8003
 4762TIP3   OH214249   4.976   0.785   2.272 -0.0960 -0.2943  0.7929
 4762TIP3    H114250   5.024   0.708   2.303  0.2624  0.0103  1.0023
 4762TIP3    H214251   4.975   0.845   2.347  0.3983  0.2690  0.3558
 4763TIP3   OH214252   4.208   4.259   0.714  0.3224 -0.5464 -0.1179
 4763TIP3    H114253   4.258   4.285   0.791 -0.0391 -0.5096  0.1049
 4763TIP3    H214254   4.133   4.211   0.748 -0.1224 -0.0725 -0.4110
 4764TIP3   OH214255   5.040   1.289   1.878  0.0508 -0.2454  0.0611
 4764TIP3    H114256   5.123   1.248   1.851  1.0188  0.9921  1.0423
 4764TIP3    H214257   4.999   1.222   1.933  1.2939 -0.2095  1.0962
 4765TIP3   OH214258   7.194   6.099   0.443 -0.1957 -0.0607 -0.4155
 4765TIP3    H114259   7.225   6.159   0.376 -0.9947  1.0222  0.1497
 4765TIP3    H214260   7.116   6.059   0.406 -1.5303  1.6609  0.3661
 4766TIP3   OH214261   3.040   6.627   3.479  0.5719 -0.3452  0.3553
 4766TIP3    H114262   3.009   6.707   3.436  0.9127 -1.2884 -1.7597
 4766TIP3    H214263   3.129   6.647   3.508 -0.8917  1.5714  4.2845
 4767TIP3   OH214264   5.087   3.852   0.090  0.3248  0.6749  0.0825
 4767TIP3    H114265   5.139   3.904   0.029  0.1042 -0.4592 -1.1329
 4767TIP3    H214266   4.997   3.857   0.056  0.3893 -0.9189 -0.4048
 4768TIP3   OH214267   0.884   2.741   1.710 -0.0810 -0.1650  0.7336
 4768TIP3    H114268   0.874   2.667   1.771 -0.2725  1.4519  2.7784
 4768TIP3    H214269   0.966   2.723   1.664  1.2915 -0.4166  3.1004
 4769TIP3   OH214270   4.235   2.185   3.717  0.2332  0.0307 -0.3603
 4769TIP3    H114271   4.279   2.254   3.767 -0.3684 -0.2716  0.6286
 4769TIP3    H214272   4.168   2.230   3.666  1.1761  0.4028 -1.3019
 4770TIP3   OH214273   1.150   6.032   3.828  0.5852  0.6741 -0.0034
 4770TIP3    H114274   1.072   5.998   3.872  0.4858  1.0861  0.1449
 4770TIP3    H214275   1.206   5.955   3.816  0.0360  0.3253 -0.3681
 4771TIP3   OH214276   6.051   1.135   2.206  0.2111  0.7778 -0.0524
 4771TIP3    H114277   6.106   1.203   2.246  1.1683  1.8498 -2.9360
 4771TIP3    H214278   5.995   1.105   2.277  0.6378  3.6841  1.6719
 4772TIP3   OH214279   6.102   0.423   2.835 -0.1230 -0.1320 -0.3699
 4772TIP3    H114280   6.160   0.492   2.867 -0.8993  0.1945  0.3882
 4772TIP3    H214281   6.085   0.368   2.911 -2.1054  0.7298 -0.1144
 4773TIP3   OH214282   7.096   4.163   0.112 -0.0181 -0.2842  0.5020
 4773TIP3    H114283   7.152   4.118   0.176  0.3433 -2.4613 -1.2254
 4773TIP3    H214284   7.026   4.100   0.094 -1.4535  1.2568  0.5014
 4774TIP3   OH214285   7.072   3.627   2.852 -0.5977 -0.2602  0.6251
 4774TIP3    H114286   7.152   3.575   2.864  1.4922  2.5001 -0.4151
 4774TIP3    H214287   7.047   3.614   2.761 -0.0433  0.5513  0.3494
 4775TIP3   OH214288   0.499   1.529   2.090 -0.4147 -0.6361 -0.2747
 4775TIP3    H114289   0.549   1.534   2.172  0.6774  0.8720 -0.9900
 4775TIP3    H214290   0.448   1.610   2.089  1.2739  0.5004 -2.0814
 4776TIP3   OH214291   2.316   3.762   0.701  0.5975  0.5029 -0.6742
 4776TIP3    H114292   2.396   3.791   0.658 -0.3523  0.7313 -2.4006
 4776TIP3    H214293   2.249   3.824   0.671 -0.1901  0.4987  0.9645
 4777TIP3   OH214294   4.982   0.365   3.465  0.3321  0.9505  0.6031
 4777TIP3    H114295   4.941   0.325   3.542 -0.3913  0.8291  0.1699
 4777TIP3    H214296   5.060   0.312   3.449 -0.7043 -0.4551 -0.0693
 4778TIP3   OH214297   5.297   4.542   4.616  0.7831 -0.2712  0.2731
 4778TIP3    H114298   5.379   4.528   4.567  0.8327 -0.2277  0.3432
 4778TIP3    H214299   5.228   4.515   4.555  0.7793  0.7991 -0.2122
 4779TIP3   OH214300   3.134   3.182   5.733  0.3576  0.0481 -0.0778
 4779TIP3    H114301   3.073   3.256   5.733  2.2762  1.7332  0.6381
 4779TIP3    H214302   3.133   3.151   5.642 -0.3364  1.1092 -0.4628
 4780TIP3   OH214303   2.709   1.750   2.660 -0.2812 -0.6017 -0.8616
 4780TIP3    H114304   2.804   1.742   2.650 -0.4564 -0.8030 -2.6534
 4780TIP3    H214305   2.680   1.794   2.580 -2.0104 -3.0265 -1.6782
 4781TIP3   OH214306   5.037   2.522   1.908  0.3658  0.0431  0.0886
 4781TIP3    H114307   5.033   2.505   1.813 -0.3285  1.4794 -0.1675
 4781TIP3    H214308   5.114   2.577   1.920  1.0527 -0.9730  0.5355
 4782TIP3   OH214309   6.037   4.482   2.302  0.5257 -0.4665  0.1312
 4782TIP3    H114310   5.948   4.501   2.329  0.0862  1.3287 -2.2815
 4782TIP3    H214311   6.092   4.514   2.374 -0.6361  2.3193 -0.0908
 4783TIP3   OH214312   1.363   1.271   4.794 -0.3078  0.5026 -0.7366
 4783TIP3    H114313   1.448   1.312   4.809 -0.8410  1.0748  1.0269
 4783TIP3    H214314   1.378   1.178   4.808  0.0147  0.6232 -0.2254
 4784TIP3   OH214315   6.820   4.592   2.501 -0.1062  0.4339 -0.1335
 4784TIP3    H114316   6.815   4.574   2.407 -2.6847 -0.4178  0.0891
 4784TIP3    H214317   6.907   4.560   2.527 -0.1654 -1.2870 -1.8616
 4785TIP3   OH214318   2.024   0.488   0.430  0.5721 -0.2219 -0.1345
 4785TIP3    H114319   1.990   0.440   0.505  0.5381  1.0715  0.7127
 4785TIP3    H214320   1.948   0.501   0.373 -0.0297  1.1600  0.9344
 4786TIP3   OH214321   5.776   3.928   5.753  0.6107 -0.1417  0.1476
 4786TIP3    H114322   5.860   3.954   5.792 -0.2876 -0.2679  2.3094
 4786TIP3    H214323   5.789   3.837   5.728  1.2412 -0.0394  0.0730
 4787TIP3   OH214324   1.169   3.880   2.747  0.4358  0.3218  0.1100
 4787TIP3    H114325   1.110   3.867   2.821  3.0332 -2.4151  1.9892
 4787TIP3    H214326   1.121   3.847   2.672 -1.0774 -0.0239  1.1732
 4788TIP3   OH214327   3.579   1.487   3.758 -0.3458 -0.2853  0.4261
 4788TIP3    H114328   3.633   1.561   3.786 -0.6858  0.4192 -0.7331
 4788TIP3    H214329   3.528   1.465   3.836  0.4815  0.0349  1.0828
 4789TIP3   OH214330   6.849   2.515   2.929 -0.1885  0.3119  1.0534
 4789TIP3    H114331   6.864   2.606   2.956 -2.1710  1.1683 -0.5099
 4789TIP3    H214332   6.932   2.488   2.889 -0.2356  2.2399 -0.5012
 4790TIP3   OH214333   1.926   2.387   5.327  0.1740  0.0894  0.0106
 4790TIP3    H114334   1.997   2.323   5.331  0.2332 -0.0141 -1.7566
 4790TIP3    H214335   1.908   2.408   5.418  1.2033 -1.2802  0.5762
 4791TIP3   OH214336   1.567   0.876   0.502 -0.1983  0.2787 -0.5758
 4791TIP3    H114337   1.505   0.921   0.445  1.1309  1.3378 -1.2479
 4791TIP3    H214338   1.590   0.796   0.454 -0.1972  0.4434 -0.8541
 4792TIP3   OH214339   6.247   1.709   2.701 -0.3953 -0.2435  0.1237
 4792TIP3    H114340   6.337   1.704   2.667 -0.8721  0.9789 -1.4245
 4792TIP3    H214341   6.206   1.779   2.650 -1.9346 -0.0718  1.5326
 4793TIP3   OH214342   3.536   5.281   0.173  0.1209  0.5334  0.3609
 4793TIP3    H114343   3.587   5.356   0.142  0.3010  0.1392 -0.3156
 4793TIP3    H214344   3.572   5.262   0.260  0.3144  1.0057  0.3842
 4794TIP3   OH214345   5.214   5.909   3.096 -0.4341  0.2824 -0.0702
 4794TIP3    H114346   5.119   5.920   3.108 -1.0726 -3.3500 -0.6829
 4794TIP3    H214347   5.239   5.843   3.160  1.0708 -0.9281 -1.8147
 4795TIP3   OH214348   5.138   1.927   5.721  0.0259  0.5173  0.1859
 4795TIP3    H114349   5.226   1.965   5.732  1.1229 -1.6480 -0.5950
 4795TIP3    H214350   5.139   1.848   5.775 -1.1320 -0.0272 -0.5557
 4796TIP3   OH214351   1.191   5.803   4.252 -0.2970  0.0202 -0.3861
 4796TIP3    H114352   1.173   5.717   4.288 -1.0837 -0.4957 -1.9142
 4796TIP3    H214353   1.115   5.856   4.278 -0.6018 -0.2026 -0.8081
 4797TIP3   OH214354   4.533   3.018   3.822  0.1216  0.0450  0.4068
 4797TIP3    H114355   4.444   3.015   3.858  0.2481  1.6691  0.9199
 4797TIP3    H214356   4.519   3.023   3.727 -0.3087 -0.3582  0.4429
 4798TIP3   OH214357   0.405   6.467   3.099  0.1417 -0.3114 -0.1476
 4798TIP3    H114358   0.338   6.485   3.033 -0.6760  0.4535  0.8514
 4798TIP3    H214359   0.483   6.442   3.049 -0.5391 -0.0256 -1.3808
 4799TIP3   OH214360   5.098   1.706   0.588 -0.0297 -0.4903 -0.1819
 4799TIP3    H114361   5.114   1.621   0.548  0.9010 -0.4291  0.0352
 4799TIP3    H214362   5.180   1.727   0.633 -0.1937  0.5936 -0.3639
 4800TIP3   OH214363   6.838   3.170   2.664 -0.4385  0.2030  0.7536
 4800TIP3    H114364   6.781   3.119   2.721 -1.2556  1.0452  0.7098
 4800TIP3    H214365   6.801   3.259   2.665  0.0499  0.4426 -0.3747
 4801TIP3   OH214366   5.169   1.775   1.992 -0.3130 -0.2979  0.0039
 4801TIP3    H114367   5.154   1.702   1.932 -0.3111 -0.7783  0.5765
 4801TIP3    H214368   5.087   1.782   2.041 -1.6187  2.2713 -2.3009
 4802TIP3   OH214369   2.642   4.487   0.987 -0.6523  0.0113 -0.1612
 4802TIP3    H114370   2.548   4.502   0.978 -0.5156  0.2250 -1.3987
 4802TIP3    H214371   2.680   4.575   0.980 -0.2894 -0.1938 -0.8630
 4803TIP3   OH214372   2.021   2.875   0.075 -0.1390 -0.3748 -0.5209
 4803TIP3    H114373   1.979   2.791   0.058 -0.6062 -0.0936 -0.7674
 4803TIP3    H214374   1.949   2.938   0.084  0.2230  0.1900 -1.3953
 4804TIP3   OH214375   7.163   2.504   1.097  0.4984  0.6418  0.4577
 4804TIP3    H114376   7.211   2.576   1.138 -0.7280  0.0006  3.2420
 4804TIP3    H214377   7.071   2.521   1.120  0.0786 -1.2574  0.3239
 4805TIP3   OH214378   5.587   0.057   0.456  0.7130 -0.0791  0.2509
 4805TIP3    H114379   5.509   0.027   0.408  2.4393 -1.6745 -1.7164
 4805TIP3    H214380   5.591   0.151   0.436  0.4983 -0.3989 -1.4964
 4806TIP3   OH214381   0.562   2.146   3.400 -0.0300 -0.3522 -0.0030
 4806TIP3    H114382   0.614   2.196   3.337 -0.7976 -2.1645 -2.1910
 4806TIP3    H214383   0.587   2.055   3.385  0.6174 -0.8250  3.2006
 4807TIP3   OH214384   1.789   4.624   0.738  0.2118  0.2240 -0.0026
 4807TIP3    H114385   1.880   4.593   0.741 -0.2196 -1.1574 -0.1068
 4807TIP3    H214386   1.748   4.586   0.816 -0.8106 -1.0830 -1.1185
 4808TIP3   OH214387   3.588   1.394   5.419  0.4981  0.1173 -0.2430
 4808TIP3    H114388   3.493   1.385   5.408  0.7088 -1.6415 -0.9344
 4808TIP3    H214389   3.619   1.424   5.333  0.5257  1.1938  0.1337
 4809TIP3   OH214390   1.394   4.897   1.928 -0.4819 -0.0109 -0.1516
 4809TIP3    H114391   1.406   4.803   1.942 -3.0406 -0.6616 -1.6451
 4809TIP3    H214392   1.434   4.913   1.842 -2.4966 -0.4006 -1.2142
 4810TIP3   OH214393   6.333   2.035   0.748  0.3230 -0.0282 -0.4007
 4810TIP3    H114394   6.272   2.106   0.765  0.9010  0.2851  0.4085
 4810TIP3    H214395   6.285   1.955   0.769 -0.4680  0.0768 -1.7100
 4811TIP3   OH214396   3.244   1.612   3.473  0.2092  0.2340 -0.1764
 4811TIP3    H114397   3.241   1.701   3.439 -2.4341  0.0943 -0.5096
 4811TIP3    H214398   3.337   1.594   3.484  0.8111  3.1836  0.3893
 4812TIP3   OH214399   3.862   1.175   4.033  0.4439 -0.4096  0.0075
 4812TIP3    H114400   3.915   1.132   3.966 -0.7621 -1.5190 -0.2837
 4812TIP3    H214401   3.862   1.113   4.106 -0.0854 -0.2206  0.1719
 4813TIP3   OH214402   5.863   4.066   3.494 -0.0415 -0.2441 -0.1097
 4813TIP3    H114403   5.827   4.021   3.570  2.5163 -0.0815  1.3147
 4813TIP3    H214404   5.886   4.153   3.525  1.6722 -0.3901 -0.8305
 4814TIP3   OH214405   0.937   6.630   2.789 -0.0879  0.2892  0.0450
 4814TIP3    H114406   0.859   6.674   2.822 -0.5149 -0.5194  0.1534
 4814TIP3    H214407   0.934   6.642   2.694  0.7121  1.9302  0.1928
 4815TIP3   OH214408   2.846   0.091   1.636  0.4314  0.2397 -0.0670
 4815TIP3    H114409   2.776   0.088   1.570  0.9123  2.1231 -0.7239
 4815TIP3    H214410   2.821   0.163   1.694  1.4799  0.5211  0.0568
 4816TIP3   OH214411   4.103   1.219   5.569 -0.2779 -0.8734  0.8859
 4816TIP3    H114412   4.120   1.143   5.625 -1.6702 -0.7023  1.5867
 4816TIP3    H214413   4.009   1.235   5.577 -0.1073  0.6209  0.3614
 4817TIP3   OH214414   5.996   5.505   4.697 -0.2489  0.3865 -0.4755
 4817TIP3    H114415   6.040   5.422   4.715 -0.6097  0.9412  4.0130
 4817TIP3    H214416   5.908   5.481   4.669 -0.0691 -0.7001 -0.1401
 4818TIP3   OH214417   2.876   5.569   4.956 -0.3762  0.3199 -0.3133
 4818TIP3    H114418   2.938   5.565   4.884  0.0770  1.1065  0.0200
 4818TIP3    H214419   2.928   5.548   5.034 -0.7553 -0.0379 -0.1503
 4819TIP3   OH214420   6.113   3.080   0.338 -0.2371  0.7547  0.3840
 4819TIP3    H114421   6.132   3.015   0.270  2.5910  2.9086 -1.0599
 4819TIP3    H214422   6.056   3.144   0.295  2.5911  2.8211 -0.6013
 4820TIP3   OH214423   5.169   0.999   5.333  0.3469 -0.5641  0.2162
 4820TIP3    H114424   5.244   1.013   5.275  0.7782  0.2949  0.9560
 4820TIP3    H214425   5.202   0.941   5.402 -0.0410 -1.2280 -0.1441
 4821TIP3   OH214426   0.753   2.965   0.614  0.1470 -0.1659  0.3238
 4821TIP3    H114427   0.715   2.934   0.532  1.5553 -0.8384 -0.1094
 4821TIP3    H214428   0.678   2.990   0.667 -0.7772  0.6925 -1.3189
 4822TIP3   OH214429   0.037   2.424   5.635  0.1990  0.2992 -0.6070
 4822TIP3    H114430   0.028   2.390   5.546  0.9365  0.2716 -0.6840
 4822TIP3    H214431   0.117   2.476   5.632  0.3220  0.1615  0.0784
 4823TIP3   OH214432   0.405   0.095   2.767 -0.2353 -0.1303 -0.6068
 4823TIP3    H114433   0.319   0.127   2.792  0.0590 -0.8069  1.4810
 4823TIP3    H214434   0.462   0.172   2.773 -0.0127 -0.3979  1.8818
 4824TIP3   OH214435   4.065   1.391   1.685 -0.2999  0.2951  0.3349
 4824TIP3    H114436   3.974   1.401   1.658 -0.6005  0.1753  1.2735
 4824TIP3    H214437   4.061   1.384   1.780  0.8166  1.9112  0.5520
 4825TIP3   OH214438   3.111   3.107   5.462 -0.5828 -0.5362  0.1257
 4825TIP3    H114439   3.116   3.133   5.370 -1.9270 -2.7536 -0.6314
 4825TIP3    H214440   3.171   3.033   5.470 -0.6681 -0.5288  0.9679
 4826TIP3   OH214441   0.491   2.189   4.118 -0.1703  0.3773  0.0340
 4826TIP3    H114442   0.436   2.258   4.083 -1.2255  0.9939  2.6480
 4826TIP3    H214443   0.571   2.234   4.146  1.1602 -0.2850 -2.4139
 4827TIP3   OH214444   4.678   0.595   1.414 -0.5727 -0.5184 -0.3902
 4827TIP3    H114445   4.709   0.590   1.323  0.0815 -0.8225 -0.1564
 4827TIP3    H214446   4.739   0.541   1.463 -1.3666 -0.9695  0.1242
 4828TIP3   OH214447   0.859   2.543   1.927  0.0291  0.1476  0.9134
 4828TIP3    H114448   0.894   2.586   2.005  1.7448 -1.2556  0.9817
 4828TIP3    H214449   0.858   2.450   1.949 -3.6281 -0.0170  0.7971
 4829TIP3   OH214450   1.686   2.195   5.468 -0.5853 -0.3033 -0.0107
 4829TIP3    H114451   1.610   2.192   5.526 -0.6308 -1.0086 -0.1063
 4829TIP3    H214452   1.705   2.289   5.459  0.4856 -0.1845  2.5615
 4830TIP3   OH214453   1.067   2.062   2.514 -0.1000  0.6305 -0.9136
 4830TIP3    H114454   1.028   2.131   2.567  0.9317 -0.3119  1.1969
 4830TIP3    H214455   1.023   2.068   2.430 -1.0651  2.8960 -0.3170
 4831TIP3   OH214456   5.425   3.761   5.280  0.3926 -0.4808  0.2531
 4831TIP3    H114457   5.398   3.828   5.218  0.6551 -1.0388 -0.4811
 4831TIP3    H214458   5.506   3.796   5.318 -1.0431  1.0113  2.1757
 4832TIP3   OH214459   5.287   1.628   0.296  0.2859 -0.4589  0.2729
 4832TIP3    H114460   5.318   1.537   0.299 -0.0717 -0.5857  0.2453
 4832TIP3    H214461   5.355   1.678   0.339  0.6088 -0.7094  0.0584
 4833TIP3   OH214462   5.735   3.100   4.473 -0.2476 -0.4159 -0.6987
 4833TIP3    H114463   5.743   3.131   4.563 -1.7988  0.2435 -0.7486
 4833TIP3    H214464   5.737   3.180   4.419  0.1855 -0.7600 -1.2014
 4834TIP3   OH214465   0.261   4.037   3.159  0.0536  0.0367 -0.2447
 4834TIP3    H114466   0.354   4.059   3.163 -0.1308  0.7426  0.3089
 4834TIP3    H214467   0.246   4.014   3.067  0.8824 -0.5910 -0.2282
 4835TIP3   OH214468   2.059   6.468   5.759  0.0068  0.1905  0.1435
 4835TIP3    H114469   1.982   6.458   5.815 -0.4035 -0.8761 -0.5781
 4835TIP3    H214470   2.060   6.561   5.735  0.6821  0.8789  2.5702
 4836TIP3   OH214471   6.073   3.398   0.553 -0.7534 -0.3434 -0.1966
 4836TIP3    H114472   6.005   3.338   0.584 -0.0597 -1.2928 -0.4459
 4836TIP3    H214473   6.064   3.398   0.458 -0.5152 -0.3545 -0.2207
 4837TIP3   OH214474   6.120   3.661   2.363 -0.4232  0.2043 -0.4215
 4837TIP3    H114475   6.146   3.697   2.448  1.3943 -1.8446 -0.0484
 4837TIP3    H214476   6.202   3.647   2.317 -1.3331  0.2280 -2.1130
 4838TIP3   OH214477   6.522   2.042   4.667  0.1015  0.1625 -0.4906
 4838TIP3    H114478   6.563   1.977   4.724  2.7221 -0.9145 -3.3438
 4838TIP3    H214479   6.437   2.004   4.646  0.3843 -0.9128  0.2012
 4839TIP3   OH214480   4.095   6.640   4.946 -0.2885 -0.2637 -0.0862
 4839TIP3    H114481   4.130   6.574   4.886  0.2814  0.5205 -0.6513
 4839TIP3    H214482   4.016   6.600   4.983  0.6669 -1.7078  0.4897
 4840TIP3   OH214483   6.027   5.247   1.330  0.3499 -0.0306 -0.2878
 4840TIP3    H114484   5.954   5.199   1.369 -0.8767  0.4159 -1.9201
 4840TIP3    H214485   6.076   5.282   1.404 -0.7897 -0.7968  0.8530
 4841TIP3   OH214486   3.311   4.809   1.084 -0.1135  0.3075  0.2048
 4841TIP3    H114487   3.251   4.854   1.143  0.0682 -0.0044  0.6340
 4841TIP3    H214488   3.333   4.727   1.130 -0.6046 -0.3202 -0.6505
 4842TIP3   OH214489   5.495   3.671   0.061 -0.3530 -0.5610 -0.0311
 4842TIP3    H114490   5.469   3.607  -0.006  0.6724 -0.0640 -0.9167
 4842TIP3    H214491   5.420   3.673   0.121 -1.2172 -1.1645 -1.0428
 4843TIP3   OH214492   4.432   0.327   2.038 -0.6018 -0.5533  0.6140
 4843TIP3    H114493   4.416   0.341   1.945  1.1007 -2.6793 -0.0693
 4843TIP3    H214494   4.344   0.330   2.077 -1.2817  1.1402 -0.8920
 4844TIP3   OH214495   3.884   2.718   4.256  0.5326 -0.0438  0.1105
 4844TIP3    H114496   3.881   2.630   4.294 -2.2967  0.2934  0.9008
 4844TIP3    H214497   3.871   2.777   4.330 -0.5506  0.8547 -0.7559
 4845TIP3   OH214498   3.412   5.995   0.601 -0.5327 -0.2614 -0.4322
 4845TIP3    H114499   3.351   6.054   0.557 -2.2995 -2.1404 -0.6921
 4845TIP3    H214500   3.437   5.931   0.533 -0.1019 -0.8617  0.2711
 4846TIP3   OH214501   1.259   5.536   2.303  0.2168 -0.6927  0.7110
 4846TIP3    H114502   1.285   5.556   2.213  1.4766 -0.3744  1.1157
 4846TIP3    H214503   1.232   5.444   2.301 -4.8642  0.5335 -1.0060
 4847TIP3   OH214504   2.124   5.634   5.798 -0.2445 -0.1199 -0.8790
 4847TIP3    H114505   2.068   5.646   5.722 -2.3391 -0.5494  0.5159
 4847TIP3    H214506   2.184   5.708   5.796  0.7759 -0.8985 -3.7197
 4848TIP3   OH214507   6.788   3.302   2.994 -0.0066 -0.0530  0.5617
 4848TIP3    H114508   6.799   3.257   3.078 -0.2527  0.3922  0.8357
 4848TIP3    H214509   6.744   3.383   3.016 -1.0819 -0.4271 -0.1349
 4849TIP3   OH214510   6.960   3.574   3.642  0.4950  0.8330 -0.0663
 4849TIP3    H114511   6.920   3.584   3.555  0.5568  1.2471 -0.0499
 4849TIP3    H214512   6.894   3.607   3.703  0.9660  1.8002 -0.0609
 4850TIP3   OH214513   5.278   0.109   4.584 -0.2602  0.0090 -0.1839
 4850TIP3    H114514   5.300   0.029   4.535  2.8062  1.9516 -2.3489
 4850TIP3    H214515   5.183   0.115   4.578 -0.4190 -2.4601 -1.6424
 4851TIP3   OH214516   5.366   1.016   0.760  0.7906  0.0774 -0.0107
 4851TIP3    H114517   5.403   1.044   0.844 -0.6857  0.2650  0.6059
 4851TIP3    H214518   5.321   0.934   0.780  0.7948 -0.1037 -0.7213
 4852TIP3   OH214519   2.862   0.264   2.066 -0.5536  0.2569 -0.0334
 4852TIP3    H114520   2.847   0.308   2.150  0.6985  5.1712 -2.0312
 4852TIP3    H214521   2.952   0.231   2.071 -0.1044  1.4904  0.2310
 4853TIP3   OH214522   2.073   2.959   3.554 -0.2260 -0.1827  0.0813
 4853TIP3    H114523   2.052   3.052   3.548  0.7151  0.0493  0.2679
 4853TIP3    H214524   2.056   2.925   3.466 -1.8613 -0.1279  0.3432
 4854TIP3   OH214525   4.534   1.146   5.112  0.0821  0.5916  0.2904
 4854TIP3    H114526   4.487   1.076   5.157  0.4979  1.7434  2.6752
 4854TIP3    H214527   4.466   1.202   5.076 -0.3496  0.8739  1.5051
 4855TIP3   OH214528   1.811   1.314   3.744  0.2179 -0.2934  0.1964
 4855TIP3    H114529   1.758   1.268   3.679  1.9289 -0.2914 -1.2820
 4855TIP3    H214530   1.831   1.248   3.810  0.7336 -1.0971 -0.7238
 4856TIP3   OH214531   1.976   6.423   0.196  0.5461 -0.0584 -0.1248
 4856TIP3    H114532   2.028   6.492   0.154  0.2559 -0.9939 -2.1706
 4856TIP3    H214533   1.891   6.464   0.212  1.1921  0.8236  1.1927
 4857TIP3   OH214534   5.809   4.627   2.350  0.2780 -0.0521 -0.1870
 4857TIP3    H114535   5.751   4.639   2.275  0.7458 -0.3083 -0.6001
 4857TIP3    H214536   5.812   4.713   2.392  0.0254  0.0993 -0.4723
 4858TIP3   OH214537   1.882   0.127   4.816  0.1491 -0.3711  0.1949
 4858TIP3    H114538   1.823   0.180   4.762  0.9220 -0.5909 -0.9058
 4858TIP3    H214539   1.927   0.190   4.872 -0.4071 -0.0974  0.3469
 4859TIP3   OH214540   3.676   5.457   4.541 -0.5319 -0.1265 -0.1651
 4859TIP3    H114541   3.687   5.433   4.449 -2.5404 -0.1688 -0.4380
 4859TIP3    H214542   3.765   5.461   4.575  0.2225 -0.9356 -1.8927
 4860TIP3   OH214543   6.236   0.938   2.370 -0.2581 -0.0319 -0.4135
 4860TIP3    H114544   6.326   0.970   2.362 -0.2932  0.1561 -0.0592
 4860TIP3    H214545   6.208   0.923   2.280 -0.3335  1.1984 -0.6069
 4861TIP3   OH214546   1.284   5.959   0.098  0.1750  0.4833  0.0713
 4861TIP3    H114547   1.276   5.972   0.003 -0.4258 -1.6462 -0.2045
 4861TIP3    H214548   1.375   5.933   0.111  0.5081  1.6359  0.2383
 4862TIP3   OH214549   0.379   3.794   0.853  0.6084  0.2110 -0.6648
 4862TIP3    H114550   0.458   3.743   0.869 -0.3474 -0.9664  0.4626
 4862TIP3    H214551   0.313   3.757   0.912 -0.9015  0.9191 -1.8357
 4863TIP3   OH214552   2.560   1.450   5.664 -0.4220 -0.1780 -0.4161
 4863TIP3    H114553   2.596   1.539   5.660  0.5670 -0.5707 -0.7020
 4863TIP3    H214554   2.546   1.427   5.572  0.3447 -0.6977 -0.4166
 4864TIP3   OH214555   1.722   0.826   0.141 -0.3134  0.1372 -0.2590
 4864TIP3    H114556   1.806   0.846   0.183 -0.2748 -0.8046  0.1244
 4864TIP3    H214557   1.737   0.841   0.048 -0.4905  2.5881  0.0245
 4865TIP3   OH214558   4.726   3.106   4.328  0.1036 -0.2354  0.0749
 4865TIP3    H114559   4.731   3.028   4.272  0.8197  0.3700 -0.7214
 4865TIP3    H214560   4.633   3.115   4.348  0.0310 -1.4204  0.3644
 4866TIP3   OH214561   2.126   1.011   4.753  0.0668  0.1030 -0.2634
 4866TIP3    H114562   2.210   1.044   4.785 -1.1834  2.4519  0.8495
 4866TIP3    H214563   2.084   0.975   4.831  0.1666 -1.4534 -0.9014
 4867TIP3   OH214564   4.970   0.395   0.972  0.2048  0.5193 -0.2792
 4867TIP3    H114565   5.050   0.399   1.024 -0.9024  0.8412  1.4503
 4867TIP3    H214566   4.984   0.459   0.902  0.2533  2.8730  1.7704
 4868TIP3   OH214567   5.191   1.522   4.434 -0.3132 -0.3742 -0.3491
 4868TIP3    H114568   5.227   1.557   4.352  0.0373  1.2281  0.4638
 4868TIP3    H214569   5.099   1.548   4.434 -0.7103 -1.6761 -0.9019
 4869TIP3   OH214570   3.007   2.093   4.349  0.0575  0.0806 -0.2905
 4869TIP3    H114571   3.018   2.177   4.395 -1.8606 -0.1587  0.6930
 4869TIP3    H214572   3.029   2.027   4.414  0.7484 -0.2322 -0.8195
 4870TIP3   OH214573   4.501   6.761   1.767  0.3386  0.1088 -0.3413
 4870TIP3    H114574   4.504   6.854   1.790  0.0789  0.1348 -0.4118
 4870TIP3    H214575   4.424   6.727   1.813 -0.3744  0.2277 -1.4111
 4871TIP3   OH214576   5.466   6.192   3.564 -0.0588  0.5021 -0.2310
 4871TIP3    H114577   5.506   6.279   3.567 -0.9561  0.9745 -1.2744
 4871TIP3    H214578   5.477   6.158   3.653 -0.8552  2.2133  0.5657
 4872TIP3   OH214579   1.959   1.418   4.408 -0.3015  0.1935 -0.0813
 4872TIP3    H114580   1.934   1.369   4.329  1.5960  0.0000 -0.5915
 4872TIP3    H214581   1.939   1.509   4.386 -1.8395 -0.0643  0.0806
 4873TIP3   OH214582   3.116   6.698   1.359 -0.0605  0.2449 -0.2301
 4873TIP3    H114583   3.157   6.732   1.280  0.6035  2.3091  0.9328
 4873TIP3    H214584   3.189   6.663   1.410 -0.4987 -1.1745 -0.5214
 4874TIP3   OH214585   4.308   6.564   0.660  0.4636 -0.4615  0.0890
 4874TIP3    H114586   4.340   6.641   0.615 -0.4345 -0.8000 -1.1875
 4874TIP3    H214587   4.273   6.597   0.743  0.0244  0.5137 -0.4735
 4875TIP3   OH214588   2.650   3.055   1.507  0.5512 -0.2232  0.5486
 4875TIP3    H114589   2.564   3.042   1.549  0.7968 -0.0494  1.1171
 4875TIP3    H214590   2.687   2.967   1.502  0.0970 -0.3803 -0.2439
 4876TIP3   OH214591   2.312   1.029   3.466  0.0794 -0.0361  0.5082
 4876TIP3    H114592   2.338   0.986   3.384 -0.3255 -0.1346  0.4281
 4876TIP3    H214593   2.217   1.038   3.459 -0.0898 -0.9925  1.4238
 4877TIP3   OH214594   0.262   4.053   4.699 -0.4452 -0.4345  0.2574
 4877TIP3    H114595   0.213   3.990   4.647 -0.5045 -1.5036  1.5643
 4877TIP3    H214596   0.351   4.050   4.663 -0.5240 -1.0238  0.1091
 4878TIP3   OH214597   7.136   1.797   0.174 -0.1937 -0.1760  0.0863
 4878TIP3    H114598   7.047   1.831   0.185 -0.1011  0.0829  0.0402
 4878TIP3    H214599   7.145   1.783   0.080 -0.2511 -0.3884  0.1102
 4879TIP3   OH214600   2.252   1.125   1.355 -0.1600 -0.0327 -0.7173
 4879TIP3    H114601   2.233   1.055   1.293  0.8967 -0.6433 -0.3669
 4879TIP3    H214602   2.347   1.136   1.351  0.4459 -2.2831  3.0353
 4880TIP3   OH214603   7.120   6.596   1.677 -0.1339  0.3088 -0.5246
 4880TIP3    H114604   7.081   6.641   1.751  1.5894  0.6047  0.2534
 4880TIP3    H214605   7.161   6.518   1.714  1.4988  0.9026 -0.9776
 4881TIP3   OH214606   5.907   1.340   1.092  0.2562  0.5975 -0.4595
 4881TIP3    H114607   5.998   1.322   1.117  0.0064 -0.3562 -0.1936
 4881TIP3    H214608   5.907   1.339   0.997  0.4701  0.2844 -0.4562
 4882TIP3   OH214609   0.257   1.448   5.422  0.3061  0.6836  0.3718
 4882TIP3    H114610   0.227   1.392   5.493  0.4439  0.7806  0.5073
 4882TIP3    H214611   0.337   1.489   5.455 -0.4981  1.9768  0.7699
 4883TIP3   OH214612   0.558   2.461   1.273  0.3143  0.2161 -0.1837
 4883TIP3    H114613   0.485   2.469   1.334 -0.2069 -0.1551 -0.7461
 4883TIP3    H214614   0.567   2.548   1.234  1.3777  0.7720  1.2113
 4884TIP3   OH214615   6.120   1.235   2.837 -0.2562 -0.4523  0.6543
 4884TIP3    H114616   6.090   1.256   2.925 -0.6793 -1.5819  0.8015
 4884TIP3    H214617   6.147   1.319   2.800  0.9068 -0.0878  2.2018
 4885TIP3   OH214618   1.770   0.149   5.479 -0.0534 -0.6453  0.4595
 4885TIP3    H114619   1.680   0.152   5.448  0.0175 -2.0158  0.0510
 4885TIP3    H214620   1.772   0.077   5.542  1.1798 -2.0559 -1.0930
 4886TIP3   OH214621   3.902   2.835   3.750  0.6992 -0.4558  0.0782
 4886TIP3    H114622   3.993   2.809   3.731  0.6461  0.1012 -1.0089
 4886TIP3    H214623   3.849   2.767   3.709  0.6085 -0.7219  0.6200
 4887TIP3   OH214624   1.804   0.389   2.993 -0.0477  0.5920  0.4973
 4887TIP3    H114625   1.724   0.339   2.976  0.3653 -0.1731  0.8021
 4887TIP3    H214626   1.874   0.338   2.955  0.6087 -0.0152  2.4047
 4888TIP3   OH214627   2.469   4.317   2.139  0.1003 -0.3195 -0.4341
 4888TIP3    H114628   2.455   4.408   2.164 -1.7795 -0.0550 -2.1160
 4888TIP3    H214629   2.557   4.315   2.100 -0.2031  1.0075 -1.2331
 4889TIP3   OH214630   4.736   1.578   4.716  0.6100 -0.1065 -0.3058
 4889TIP3    H114631   4.739   1.508   4.651 -0.2908 -0.9491  0.5185
 4889TIP3    H214632   4.705   1.535   4.796  1.4978  0.9366  0.6348
 4890TIP3   OH214633   3.619   2.458   3.984 -0.4617 -0.3527 -0.3167
 4890TIP3    H114634   3.565   2.483   3.910 -3.1999 -1.3215  1.1974
 4890TIP3    H214635   3.665   2.539   4.009 -0.2688  0.2225 -2.3587
 4891TIP3   OH214636   0.797   1.908   5.632 -0.3683 -0.1725 -0.1516
 4891TIP3    H114637   0.825   1.997   5.609  0.3251 -0.2454  0.4102
 4891TIP3    H214638   0.724   1.921   5.693  1.1013  0.0506  1.6541
 4892TIP3   OH214639   4.833   1.675   5.434  0.9515 -0.4133 -0.2844
 4892TIP3    H114640   4.821   1.770   5.433  1.1050 -0.3935 -1.7803
 4892TIP3    H214641   4.760   1.641   5.382 -0.2026 -1.2798  1.7815
 4893TIP3   OH214642   6.606   0.449   1.079  0.3354 -0.0310 -0.0701
 4893TIP3    H114643   6.534   0.404   1.035  0.1027  0.3279 -0.0589
 4893TIP3    H214644   6.583   0.542   1.075  2.1387  0.4372 -2.6592
 4894TIP3   OH214645   2.229   6.182   0.512 -0.0532 -0.7182 -0.1184
 4894TIP3    H114646   2.287   6.166   0.438  0.3739 -2.5060  0.5453
 4894TIP3    H214647   2.278   6.244   0.567 -0.7627  1.3450 -1.6995
 4895TIP3   OH214648   4.373   1.198   0.141  0.0667 -0.2208  0.5321
 4895TIP3    H114649   4.341   1.285   0.119 -0.3027 -0.9435 -2.0640
 4895TIP3    H214650   4.338   1.181   0.229 -3.5321  0.5452 -0.5939
 4896TIP3   OH214651   2.707   6.081   1.388 -0.0881 -0.0614  0.1513
 4896TIP3    H114652   2.634   6.123   1.344 -0.8192 -0.4535  0.9498
 4896TIP3    H214653   2.782   6.094   1.330 -0.8025  0.2985 -0.7032
 4897TIP3   OH214654   1.595   2.819   4.259 -0.4979  0.2107 -0.4407
 4897TIP3    H114655   1.620   2.878   4.188  0.2453  1.3460  0.7117
 4897TIP3    H214656   1.500   2.825   4.263 -0.5204  0.4061 -1.1043
 4898TIP3   OH214657   4.660   2.409   5.826 -0.4037 -0.6042 -0.7251
 4898TIP3    H114658   4.634   2.322   5.794 -2.8071  0.2387 -1.2532
 4898TIP3    H214659   4.672   2.398   5.920 -1.7773 -1.3035 -0.6120
 4899TIP3   OH214660   0.479   5.977   5.641  0.4117 -0.2681  0.1799
 4899TIP3    H114661   0.479   6.071   5.621 -2.1103  0.3027  2.3129
 4899TIP3    H214662   0.419   5.968   5.715  0.0111 -3.6822 -0.3816
 4900TIP3   OH214663   5.527   3.261   2.809  0.2979 -0.0627 -0.6891
 4900TIP3    H114664   5.562   3.348   2.790 -0.1211  0.5896  1.3439
 4900TIP3    H214665   5.436   3.276   2.834  0.3888 -0.9984  0.2722
 4901TIP3   OH214666   3.906   1.960   4.279  0.0573  0.1080  0.0407
 4901TIP3    H114667   3.913   1.884   4.221  1.0262 -0.9447  1.4900
 4901TIP3    H214668   3.864   1.927   4.358 -0.3167  1.2870  0.3555
 4902TIP3   OH214669   0.280   1.284   4.791 -0.3623 -0.2079  0.0082
 4902TIP3    H114670   0.289   1.190   4.809  0.8583 -0.3073 -1.0109
 4902TIP3    H214671   0.289   1.292   4.696  1.9151  1.1394  0.2496
 4903TIP3   OH214672   5.305   0.015   0.337 -0.1598  0.4498  0.3950
 4903TIP3    H114673   5.304   0.045   0.246 -0.2731  0.0289  0.2552
 4903TIP3    H214674   5.234   0.062   0.379 -2.0714 -1.5318 -0.4453
 4904TIP3   OH214675   1.187   1.741   5.182  0.1046  0.0450 -0.4799
 4904TIP3    H114676   1.266   1.793   5.171  0.1172 -0.0310 -0.7476
 4904TIP3    H214677   1.169   1.743   5.276  0.9715 -0.7507 -0.2833
 4905TIP3   OH214678   6.928   2.536   0.551  0.3461  0.1459 -0.2808
 4905TIP3    H114679   6.975   2.535   0.467  2.0138  1.3423  0.5923
 4905TIP3    H214680   6.836   2.545   0.526  0.6461 -1.1718 -2.0154
 4906TIP3   OH214681   1.736   1.719   1.142 -0.0932  0.5365  0.3135
 4906TIP3    H114682   1.780   1.637   1.162  0.4076  0.3822 -1.2705
 4906TIP3    H214683   1.799   1.768   1.090 -0.4209  1.9033  1.1546
 4907TIP3   OH214684   5.356   1.227   3.002  0.2812  0.1167 -0.0959
 4907TIP3    H114685   5.395   1.294   2.946  0.5158  0.1987  0.1603
 4907TIP3    H214686   5.262   1.245   3.000 -0.0634 -1.5297 -2.6313
 4908TIP3   OH214687   1.209   3.310   0.577 -0.6202 -0.2560  0.1017
 4908TIP3    H114688   1.124   3.267   0.571 -0.2423 -0.9065 -0.9378
 4908TIP3    H214689   1.218   3.358   0.495 -0.1058  0.0252  0.3147
 4909TIP3   OH214690   5.920   3.250   0.769 -0.5469 -0.0669  0.0633
 4909TIP3    H114691   5.865   3.259   0.847  0.3221 -0.4530  0.7375
 4909TIP3    H214692   5.877   3.182   0.718 -1.3167  0.4322  0.0307
 4910TIP3   OH214693   2.026   3.558   4.827  0.4969  0.4594  0.1866
 4910TIP3    H114694   1.949   3.521   4.871  2.0385  0.6417  3.3577
 4910TIP3    H214695   2.073   3.482   4.794 -0.8832  0.3385 -1.6692
 4911TIP3   OH214696   5.396   3.987   4.554 -0.4821 -0.0922 -0.5593
 4911TIP3    H114697   5.402   3.891   4.559 -1.2782 -0.2144 -1.6746
 4911TIP3    H214698   5.314   4.004   4.509 -0.4928  1.1364 -0.1032
 4912TIP3   OH214699   0.724   6.093   4.099 -0.1433 -0.1397  0.5002
 4912TIP3    H114700   0.782   6.130   4.033 -0.3197 -0.3351  0.2325
 4912TIP3    H214701   0.758   6.125   4.183 -1.7734  2.7620  0.2020
 4913TIP3   OH214702   0.560   5.682   3.571  0.2418 -0.3615 -0.7395
 4913TIP3    H114703   0.470   5.681   3.605  0.7750 -0.2790  0.7086
 4913TIP3    H214704   0.578   5.775   3.555 -0.1928 -0.4400 -1.8369
 4914TIP3   OH214705   6.204   0.809   5.058  0.1396 -0.2376 -0.6077
 4914TIP3    H114706   6.140   0.779   5.122  0.9866  2.9866  2.0327
 4914TIP3    H214707   6.289   0.792   5.098  0.7029  1.6567 -0.8685
 4915TIP3   OH214708   4.326   2.685   0.782 -0.2825 -0.2381  0.1758
 4915TIP3    H114709   4.381   2.763   0.783 -0.9688  0.2496  0.3572
 4915TIP3    H214710   4.238   2.717   0.803 -0.2931 -1.2533  1.9212
 4916TIP3   OH214711   0.880   3.446   0.486 -0.1400 -0.2062  0.1947
 4916TIP3    H114712   0.959   3.468   0.437 -1.5772  0.1762 -2.1171
 4916TIP3    H214713   0.843   3.370   0.440 -2.0014  0.6854  0.1176
 4917TIP3   OH214714   0.260   3.363   0.442  0.5229  0.0808  1.0880
 4917TIP3    H114715   0.185   3.376   0.500 -1.1307 -0.4297 -0.8232
 4917TIP3    H214716   0.292   3.452   0.425 -2.5528  0.8688 -1.5952
 4918TIP3   OH214717   6.532   0.319   2.625  0.1134 -0.3217 -0.3637
 4918TIP3    H114718   6.624   0.342   2.639  0.2928 -0.6199 -1.0290
 4918TIP3    H214719   6.488   0.347   2.706  0.7568 -0.0270 -0.1070
 4919TIP3   OH214720   2.112   4.765   5.674  0.2594 -0.2203  0.3320
 4919TIP3    H114721   2.041   4.824   5.700  0.6636  0.1787  0.5331
 4919TIP3    H214722   2.068   4.682   5.657 -0.2278 -0.0493  0.7187
 4920TIP3   OH214723   1.222   0.431   0.054 -0.1754 -0.0789 -0.2664
 4920TIP3    H114724   1.226   0.486  -0.024  2.6730 -0.1242 -0.2706
 4920TIP3    H214725   1.244   0.343   0.023  0.9067 -0.1125  0.5298
 4921TIP3   OH214726   5.297   1.277   5.174  0.0263  0.3914 -0.1497
 4921TIP3    H114727   5.224   1.337   5.158  0.4861  0.5640 -1.7230
 4921TIP3    H214728   5.278   1.201   5.120  1.2847  0.6848 -1.0562
 4922TIP3   OH214729   0.084   2.864   5.237 -0.3028  0.2004 -0.5675
 4922TIP3    H114730  -0.010   2.845   5.228  0.3528 -3.3562 -1.3671
 4922TIP3    H214731   0.122   2.781   5.265  2.7614  1.2741 -1.2422
 4923TIP3   OH214732   0.853   2.461   1.031  0.2205 -0.2570 -0.0954
 4923TIP3    H114733   0.912   2.423   1.097  0.1009  0.1935  0.2716
 4923TIP3    H214734   0.772   2.411   1.039  0.5156 -0.8206 -0.5415
 4924TIP3   OH214735   4.997   3.989   1.314  0.2124  0.5062 -0.2593
 4924TIP3    H114736   5.045   3.910   1.290 -0.7477 -0.1490 -0.0566
 4924TIP3    H214737   5.047   4.060   1.273 -0.6981 -0.4481 -3.2663
 4925TIP3   OH214738   1.982   3.406   3.914 -0.3632 -0.1618 -0.0453
 4925TIP3    H114739   1.896   3.367   3.899 -0.2594 -0.3740 -0.0853
 4925TIP3    H214740   1.964   3.499   3.928 -0.6973 -0.3673  0.9492
 4926TIP3   OH214741   2.401   6.060   4.140  0.3734 -0.2363  0.1701
 4926TIP3    H114742   2.379   6.073   4.048 -0.1715  1.1250  0.4664
 4926TIP3    H214743   2.492   6.087   4.147  1.0318 -2.1763 -0.3089
 4927TIP3   OH214744   7.165   0.854   0.612 -0.5741 -0.0281 -0.6516
 4927TIP3    H114745   7.103   0.906   0.561  0.3963  0.7965 -1.0299
 4927TIP3    H214746   7.227   0.821   0.547 -0.1015 -0.1032 -0.1674
 4928TIP3   OH214747   5.612   2.764  -0.027  0.3039  0.3622 -0.7686
 4928TIP3    H114748   5.629   2.816   0.051 -4.6110 -0.4952  1.2179
 4928TIP3    H214749   5.644   2.676  -0.005  0.0264  0.4006 -0.2098
 4929TIP3   OH214750   1.873   2.628   1.984 -0.1953  0.0997  0.7456
 4929TIP3    H114751   1.960   2.596   1.962 -1.0922 -0.6008 -2.2947
 4929TIP3    H214752   1.824   2.549   2.006 -0.2417  0.4242  1.8566
 4930TIP3   OH214753   5.116   0.750   5.040  0.3670  0.0489 -0.3812
 4930TIP3    H114754   5.050   0.769   5.107  0.9351 -0.6182  0.3804
 4930TIP3    H214755   5.193   0.724   5.089  1.3013  1.0559 -1.2439
 4931TIP3   OH214756   2.048   5.149   0.610 -0.1470  0.1353 -0.4358
 4931TIP3    H114757   2.032   5.066   0.567  0.7450  0.9081 -2.4163
 4931TIP3    H214758   1.961   5.182   0.633 -0.4673 -1.8053  1.4725
 4932TIP3   OH214759   2.484   4.588   2.230  0.1125 -0.3877  0.6954
 4932TIP3    H114760   2.428   4.664   2.244  0.4416  0.0494 -0.3224
 4932TIP3    H214761   2.561   4.605   2.285 -0.1195 -0.3256  1.0062
 4933TIP3   OH214762   2.334   3.223   1.517  0.3961  0.0753 -0.7457
 4933TIP3    H114763   2.289   3.220   1.433  2.5301 -0.8511 -1.9399
 4933TIP3    H214764   2.345   3.132   1.541  0.4313  0.3206  0.1907
 4934TIP3   OH214765   4.321   6.037   5.179 -0.1950 -0.2605 -0.0567
 4934TIP3    H114766   4.333   6.091   5.257 -1.9641  1.6251 -0.9713
 4934TIP3    H214767   4.398   6.055   5.125 -0.3013  0.6437  0.0691
 4935TIP3   OH214768   0.518   0.470   1.882  0.4479  0.5556 -0.4445
 4935TIP3    H114769   0.569   0.444   1.805  0.0317 -2.0124  0.0656
 4935TIP3    H214770   0.489   0.388   1.921 -1.6546  1.8560  0.9446
 4936TIP3   OH214771   6.828   3.508   0.173  0.0503 -0.4615 -0.6844
 4936TIP3    H114772   6.924   3.501   0.174  0.1899  0.9377 -0.9622
 4936TIP3    H214773   6.806   3.505   0.080 -0.1935 -0.8866 -0.6145
 4937TIP3   OH214774   2.815   4.205   1.735  0.1061 -1.1449  0.3208
 4937TIP3    H114775   2.903   4.242   1.727 -0.9919  1.5406 -0.3259
 4937TIP3    H214776   2.825   4.133   1.797  2.6929 -0.7484  0.4654
 4938TIP3   OH214777   3.677   1.872   3.719 -0.0614  0.6461 -0.3496
 4938TIP3    H114778   3.697   1.807   3.786  0.5815  1.3072  0.1095
 4938TIP3    H214779   3.582   1.866   3.708  0.1418 -1.5621 -1.5784
 4939TIP3   OH214780   0.257   5.431   5.307  0.2582 -0.4599  0.3910
 4939TIP3    H114781   0.243   5.344   5.345 -2.8193  0.3364  1.3508
 4939TIP3    H214782   0.287   5.485   5.379 -0.6285 -0.1155  0.5203
 4940TIP3   OH214783   6.431   0.776   3.707 -0.4802  0.6771  0.1553
 4940TIP3    H114784   6.423   0.691   3.750 -0.6301  1.1646  1.0963
 4940TIP3    H214785   6.422   0.756   3.613 -0.2876 -0.3657  0.3530
 4941TIP3   OH214786   3.032   2.156   2.535 -0.0764  0.3067  1.0033
 4941TIP3    H114787   2.998   2.157   2.625  0.7897  0.4507  1.3336
 4941TIP3    H214788   3.125   2.138   2.545  0.2442  1.4445  0.2081
 4942TIP3   OH214789   2.642   3.623   4.721  0.5406 -0.0562 -0.0166
 4942TIP3    H114790   2.605   3.711   4.713 -0.4016 -0.2873  1.6352
 4942TIP3    H214791   2.709   3.631   4.789  0.8028 -0.5280 -0.2099
 4943TIP3   OH214792   4.576   4.896   0.946  0.5672  0.0984 -0.3178
 4943TIP3    H114793   4.645   4.955   0.977 -0.6711 -0.1376  3.3857
 4943TIP3    H214794   4.602   4.810   0.978 -0.4271 -0.3597 -0.7035
 4944TIP3   OH214795   2.868   1.929   3.114  0.2457  0.3925 -0.1731
 4944TIP3    H114796   2.913   1.844   3.112  0.0980  0.3324 -1.0555
 4944TIP3    H214797   2.873   1.962   3.025 -2.5919 -0.2151 -0.6568
 4945TIP3   OH214798   1.232   2.968   4.995 -0.4417 -0.0020 -0.5834
 4945TIP3    H114799   1.225   3.050   5.043 -1.0547 -0.2337 -0.2751
 4945TIP3    H214800   1.171   2.977   4.922 -0.4347 -0.1423 -0.6079
 4946TIP3   OH214801   3.078   2.953   1.859 -0.0787 -0.1927 -0.0748
 4946TIP3    H114802   3.154   2.963   1.915  1.0346  1.6653 -1.8024
 4946TIP3    H214803   3.101   2.881   1.800 -1.1287 -1.9420  1.5275
 4947TIP3   OH214804   0.315   4.567   4.795 -0.7405 -0.2931 -0.0107
 4947TIP3    H114805   0.332   4.562   4.889 -1.1563 -1.0195  0.0374
 4947TIP3    H214806   0.221   4.548   4.787 -0.5620 -0.9467 -0.6248
 4948TIP3   OH214807   5.062   5.442   2.361 -0.1631  0.1689  0.1588
 4948TIP3    H114808   5.051   5.374   2.294  1.3543 -1.5873  1.5852
 4948TIP3    H214809   5.144   5.486   2.336 -0.1556  0.2220  0.2778
 4949TIP3   OH214810   1.599   5.649   0.222 -0.4010  0.3768  0.0990
 4949TIP3    H114811   1.532   5.635   0.155  0.1696  1.0700 -0.6409
 4949TIP3    H214812   1.603   5.744   0.232  1.4244  0.4579 -0.9049
 4950TIP3   OH214813   2.643   6.592   0.155 -0.2766 -0.0321  0.0835
 4950TIP3    H114814   2.631   6.516   0.212 -0.8417 -0.2435 -0.3117
 4950TIP3    H214815   2.585   6.659   0.191 -1.0937 -0.3661 -0.5943
 4951TIP3   OH214816   6.720   0.942   2.474  0.1927  0.2438 -0.0232
 4951TIP3    H114817   6.663   0.948   2.397  0.7953  0.7155 -0.4503
 4951TIP3    H214818   6.755   0.853   2.471  0.7917  0.4969 -0.7233
 4952TIP3   OH214819   1.529   1.755   0.379  0.1774  0.0802  0.3683
 4952TIP3    H114820   1.547   1.806   0.300  0.2427  1.5228  1.2783
 4952TIP3    H214821   1.472   1.811   0.431 -0.4652 -1.1600  1.0309
 4953TIP3   OH214822   5.301   1.394   4.921  0.4193  0.5063 -0.2442
 4953TIP3    H114823   5.209   1.368   4.930  0.6796 -0.4482 -0.2482
 4953TIP3    H214824   5.307   1.430   4.833  0.3028 -0.5486 -0.6977
 4954TIP3   OH214825   0.834   1.853   0.461  0.0967  0.0266  0.3221
 4954TIP3    H114826   0.854   1.763   0.434 -0.2718  0.0357  0.0129
 4954TIP3    H214827   0.741   1.863   0.443  0.3368  0.7879 -0.5675
 4955TIP3   OH214828   2.385   2.581   3.172  0.8321 -0.4063 -0.1531
 4955TIP3    H114829   2.294   2.581   3.144  0.3091 -1.4273  1.4126
 4955TIP3    H214830   2.434   2.615   3.096 -0.9187  1.1333 -0.6601
 4956TIP3   OH214831   6.350   4.901   4.936  0.2287 -0.1861 -0.4649
 4956TIP3    H114832   6.337   4.946   4.852 -0.0449  1.8040  0.5936
 4956TIP3    H214833   6.283   4.937   4.993 -0.8245 -2.8935  0.1589
 4957TIP3   OH214834   6.301   6.420   1.620  0.4853 -0.0961  0.5453
 4957TIP3    H114835   6.280   6.475   1.544  0.5378  0.8040  1.1718
 4957TIP3    H214836   6.224   6.429   1.676  0.6916 -0.3073  0.8568
 4958TIP3   OH214837   4.743   6.279   4.269 -0.3867 -0.1800  0.0948
 4958TIP3    H114838   4.806   6.216   4.303  0.3867  0.2762 -0.4702
 4958TIP3    H214839   4.756   6.357   4.324 -1.2932 -0.4649  0.7486
 4959TIP3   OH214840   5.343   0.269   4.319 -0.2737  0.4246  0.0720
 4959TIP3    H114841   5.290   0.268   4.240  2.3808 -0.8847 -1.8413
 4959TIP3    H214842   5.311   0.194   4.370  0.0722 -0.6993 -1.3190
 4960TIP3   OH214843   3.012   3.487   3.870  0.0741 -0.6083 -0.8325
 4960TIP3    H114844   3.088   3.454   3.916 -0.0101  0.3298  0.0136
 4960TIP3    H214845   2.953   3.520   3.938  0.2655  1.4859 -1.5735
 4961TIP3   OH214846   3.510   3.013   3.107 -0.1051 -0.1839  0.2206
 4961TIP3    H114847   3.423   3.005   3.070 -0.0386  1.1956 -0.3017
 4961TIP3    H214848   3.496   3.028   3.201 -0.4367  0.0599  0.1320
 4962TIP3   OH214849   1.311   5.571   3.082  0.2140 -0.1268  0.0241
 4962TIP3    H114850   1.222   5.536   3.089  0.2431 -0.4509 -1.0939
 4962TIP3    H214851   1.340   5.546   2.995  1.7606 -0.8419  0.7138
 4963TIP3   OH214852   4.875   6.129   5.091  0.2710 -0.2734  0.4225
 4963TIP3    H114853   4.836   6.069   5.027 -1.2261  2.5531 -1.5331
 4963TIP3    H214854   4.958   6.156   5.051 -0.8952  1.8785 -0.7029
 4964TIP3   OH214855   4.135   3.863   3.063 -0.0370  0.0229  0.3008
 4964TIP3    H114856   4.102   3.887   3.150 -1.3459  0.7012 -0.3380
 4964TIP3    H214857   4.067   3.806   3.027 -0.4102  1.1638 -0.9285
 4965TIP3   OH214858   5.225   0.920   1.840  0.1903  0.1201 -0.1480
 4965TIP3    H114859   5.162   0.915   1.769  0.1705  1.4776 -0.2449
 4965TIP3    H214860   5.202   0.846   1.897 -1.5750  0.6467 -0.1093
 4966TIP3   OH214861   5.741   4.331   0.005 -0.2644  0.1467 -0.2145
 4966TIP3    H114862   5.829   4.367   0.007 -0.2283  0.0460  0.1038
 4966TIP3    H214863   5.733   4.283   0.087 -1.5100  2.3228  1.0281
 4967TIP3   OH214864   2.828   2.751   0.514  0.0772  0.9661  0.0845
 4967TIP3    H114865   2.855   2.699   0.590  0.0235  0.8478  0.0234
 4967TIP3    H214866   2.768   2.816   0.549  1.7153  2.3201  0.5105
 4968TIP3   OH214867   5.957   3.055   3.331  0.0517  0.5074 -0.5571
 4968TIP3    H114868   5.953   3.114   3.256  0.0916  1.2486  0.0099
 4968TIP3    H214869   6.035   3.001   3.316 -1.2646 -1.0654 -2.2641
 4969TIP3   OH214870   6.576   4.337   5.124  0.0066  0.1063  0.5765
 4969TIP3    H114871   6.579   4.420   5.076  0.4567  0.7103  1.6129
 4969TIP3    H214872   6.497   4.343   5.176 -0.3926 -0.4793  0.0514
 4970TIP3   OH214873   3.693   3.447   5.367  0.4242 -0.1909 -0.1526
 4970TIP3    H114874   3.674   3.541   5.375 -1.2792 -0.4782 -0.5596
 4970TIP3    H214875   3.693   3.415   5.458  0.9336  0.1686 -0.0188
 4971TIP3   OH214876   2.939   3.577   5.025 -0.1291  0.1781 -0.1180
 4971TIP3    H114877   3.023   3.532   5.015  1.1463  1.8424  2.1399
 4971TIP3    H214878   2.961   3.670   5.022 -1.9178  0.6567  0.4463
 4972TIP3   OH214879   6.781   5.212   2.467  0.2760 -0.4195  0.1841
 4972TIP3    H114880   6.725   5.154   2.519 -0.8511 -1.9660 -2.5436
 4972TIP3    H214881   6.870   5.182   2.485 -0.2783 -3.4361 -1.4261
 4973TIP3   OH214882   3.185   4.828   0.713  0.4624 -0.2612  0.5963
 4973TIP3    H114883   3.196   4.897   0.648 -0.7228  0.9531  1.6396
 4973TIP3    H214884   3.147   4.755   0.664  3.4435 -0.9824 -0.9448
 4974TIP3   OH214885   3.369   4.316   5.777 -0.2481  0.1160  1.2264
 4974TIP3    H114886   3.297   4.282   5.723 -0.4645  0.5521  1.2356
 4974TIP3    H214887   3.339   4.402   5.805  1.5833  1.8105 -1.4795
 4975TIP3   OH214888   0.103   5.868   3.410  0.6418 -0.0546 -0.7384
 4975TIP3    H114889   0.089   5.884   3.503  0.1900 -0.0427 -0.8094
 4975TIP3    H214890   0.147   5.947   3.378 -0.2121  0.4159 -0.7678
 4976TIP3   OH214891   5.770   5.363   2.364 -0.3462 -0.2505  0.8202
 4976TIP3    H114892   5.752   5.445   2.410  1.2011 -1.2006  3.3713
 4976TIP3    H214893   5.866   5.359   2.359 -0.4141 -1.3874 -0.3275
 4977TIP3   OH214894   1.302   2.793   4.265 -0.4915  0.1844  0.5752
 4977TIP3    H114895   1.237   2.789   4.195 -0.1630 -0.1824  0.2882
 4977TIP3    H214896   1.296   2.883   4.298 -1.6186 -0.0456  1.0142
 4978TIP3   OH214897   3.314   2.581   4.916 -0.4241 -0.2745  0.6387
 4978TIP3    H114898   3.271   2.653   4.963 -1.6476 -1.1125  0.8612
 4978TIP3    H214899   3.408   2.597   4.927 -0.6201  2.2493 -0.8031
 4979TIP3   OH214900   6.999   1.791   2.958 -0.3369  0.9101  0.2108
 4979TIP3    H114901   6.974   1.882   2.943 -1.7035  0.5832  0.3169
 4979TIP3    H214902   6.955   1.742   2.888  0.1548  0.2969  0.3160
 4980TIP3   OH214903   0.497   6.222   0.664 -0.3798 -0.0154  0.1174
 4980TIP3    H114904   0.478   6.129   0.677 -2.6785  0.4955  0.8089
 4980TIP3    H214905   0.474   6.238   0.572 -0.6953  0.0386  0.2073
 4981TIP3   OH214906   6.011   1.979   2.805  0.0411 -0.9757 -0.3065
 4981TIP3    H114907   5.958   1.917   2.856 -0.3481 -0.3078  0.1279
 4981TIP3    H214908   5.963   1.989   2.723 -0.1156 -0.9392 -0.2117
 4982TIP3   OH214909   6.692   2.734   2.705 -0.0110  0.1095 -0.4335
 4982TIP3    H114910   6.716   2.766   2.792 -3.3065 -1.2152  1.1376
 4982TIP3    H214911   6.646   2.808   2.665  0.2938  0.2728 -0.4821
 4983TIP3   OH214912   6.475   5.111   1.760  0.1381  0.0357  0.0990
 4983TIP3    H114913   6.532   5.034   1.756 -0.1492 -0.2238  0.9144
 4983TIP3    H214914   6.488   5.146   1.848 -1.6555 -0.5597  0.6334
 4984TIP3   OH214915   0.354   0.006   5.640 -0.1822  0.3689 -0.1292
 4984TIP3    H114916   0.408  -0.073   5.644  0.5227  0.8725  0.6620
 4984TIP3    H214917   0.414   0.075   5.612 -0.9829  0.4801 -1.6427
 4985TIP3   OH214918   0.229   5.086   5.690  0.2063 -0.5095  0.5249
 4985TIP3    H114919   0.213   5.033   5.768  1.4141 -0.7384  0.6462
 4985TIP3    H214920   0.160   5.062   5.629 -0.5015 -0.6510  1.3586
 4986TIP3   OH214921   0.332   5.051   3.793  0.1880  0.0173 -0.3328
 4986TIP3    H114922   0.237   5.052   3.804  0.2400 -1.0611  0.4679
 4986TIP3    H214923   0.365   5.030   3.881  1.0080 -2.3811 -1.1228
 4987TIP3   OH214924   6.009   3.772   4.882 -0.2637  0.3699 -0.3542
 4987TIP3    H114925   5.926   3.755   4.926  0.3859 -1.9860  0.0880
 4987TIP3    H214926   6.000   3.730   4.797  1.2072 -2.0172  0.5540
 4988TIP3   OH214927   4.829   5.820   3.478  0.0115  0.3658 -0.2744
 4988TIP3    H114928   4.775   5.898   3.471  0.7444  1.0304  1.1881
 4988TIP3    H214929   4.898   5.843   3.540 -0.0485 -1.5930  0.6067
 4989TIP3   OH214930   6.713   6.406   3.567 -0.0403 -0.0976 -0.5395
 4989TIP3    H114931   6.634   6.430   3.615  0.0746 -1.2409  0.2600
 4989TIP3    H214932   6.730   6.481   3.509  0.0153  1.4822  1.4199
 4990TIP3   OH214933   3.738   2.289   2.489  0.3682  0.4010 -0.5340
 4990TIP3    H114934   3.806   2.255   2.430 -1.2468  0.1468 -2.3175
 4990TIP3    H214935   3.709   2.371   2.449 -0.4213  0.4843  0.1735
 4991TIP3   OH214936   2.323   4.211   1.069  0.3729 -0.1818  0.3708
 4991TIP3    H114937   2.378   4.207   1.148  1.9735 -1.8122 -0.7561
 4991TIP3    H214938   2.353   4.138   1.015 -0.6722  0.8950 -1.7863
 4992TIP3   OH214939   2.021   6.533   1.695  0.6771 -0.0578  0.7026
 4992TIP3    H114940   2.090   6.509   1.758  0.3011 -0.2590  1.0482
 4992TIP3    H214941   1.948   6.474   1.717  0.2508  0.4296  0.6109
 4993TIP3   OH214942   3.035   4.819   2.444  0.4292  0.1233 -0.1843
 4993TIP3    H114943   3.027   4.906   2.406 -0.8927 -0.1698 -0.6431
 4993TIP3    H214944   3.088   4.832   2.523 -1.5417  1.7694  0.9785
 4994TIP3   OH214945   6.886   0.639   5.327 -0.3687  0.1271  0.0034
 4994TIP3    H114946   6.944   0.711   5.302 -0.8580  0.5432  0.0666
 4994TIP3    H214947   6.845   0.668   5.408 -0.5719 -0.2254  0.0285
 4995TIP3   OH214948   4.822   0.235   3.760 -0.1511  0.3756 -0.4652
 4995TIP3    H114949   4.844   0.244   3.852 -0.3440 -0.0178 -0.3806
 4995TIP3    H214950   4.753   0.169   3.758  1.0481 -0.9125 -1.0557
 4996TIP3   OH214951   1.116   5.367   0.093  0.7444  0.0205  0.4418
 4996TIP3    H114952   1.065   5.312   0.152 -1.0792  0.4142 -0.6808
 4996TIP3    H214953   1.132   5.313   0.016 -1.1937  0.9981 -0.7342
 4997TIP3   OH214954   6.359   6.379   0.737  0.1279 -0.1464 -0.4944
 4997TIP3    H114955   6.309   6.302   0.763  0.8045 -0.5427 -0.3648
 4997TIP3    H214956   6.433   6.382   0.797 -0.4672  1.2342  0.2228
 4998TIP3   OH214957   3.575   0.874   4.383  0.1167 -0.2278  0.4151
 4998TIP3    H114958   3.582   0.824   4.302  1.4235  0.5093  0.0540
 4998TIP3    H214959   3.549   0.810   4.448 -0.2177 -0.9800 -0.4288
 4999TIP3   OH214960   6.145   2.151   1.538  0.1767  0.3778  0.3963
 4999TIP3    H114961   6.187   2.133   1.454  0.1987 -0.2221  0.5328
 4999TIP3    H214962   6.178   2.238   1.563  1.9264 -0.3739  0.8626
 5000TIP3   OH214963   0.018   0.260   1.514 -0.1597  0.8876  0.0227
 5000TIP3    H114964  -0.069   0.270   1.476 -0.3436  0.7343  0.4071
 5000TIP3    H214965   0.075   0.310   1.455 -0.5224  1.0860 -0.1638
 5001TIP3   OH214966   0.429   2.519   3.692 -0.0518  0.3247  0.3882
 5001TIP3    H114967   0.485   2.584   3.735  1.0786 -1.2456  1.3686
 5001TIP3    H214968   0.345   2.564   3.680  0.8669  2.1550  0.4788
 5002TIP3   OH214969   2.754   4.517   5.510 -0.4261 -0.6398  0.3880
 5002TIP3    H114970   2.801   4.528   5.428 -0.3501  0.2424  0.5396
 5002TIP3    H214971   2.664   4.539   5.489 -0.5425 -1.1108  0.3835
 5003TIP3   OH214972   3.851   1.477   4.409 -0.3694 -0.2923  0.0519
 5003TIP3    H114973   3.783   1.427   4.454  0.1570 -1.2119 -0.1497
 5003TIP3    H214974   3.816   1.566   4.404 -1.3881 -0.6668  0.2822
 5004TIP3   OH214975   1.672   0.950   2.975 -0.8547 -0.1451 -0.4591
 5004TIP3    H114976   1.622   1.028   2.998  0.3846  0.1158  1.5336
 5004TIP3    H214977   1.634   0.922   2.891 -2.7410  1.3428 -0.1799
 5005TIP3   OH214978   0.323   4.086   0.792  0.0223  0.2222 -0.4039
 5005TIP3    H114979   0.246   4.078   0.735  0.4872 -1.5782 -0.8240
 5005TIP3    H214980   0.348   3.996   0.812  1.9846  0.7710 -0.2093
 5006TIP3   OH214981   1.732   4.795   1.880  0.4007  0.0475 -0.3312
 5006TIP3    H114982   1.801   4.820   1.819 -0.1166  1.7646 -0.2694
 5006TIP3    H214983   1.652   4.829   1.840 -0.3915 -1.5592 -0.2105
 5007TIP3   OH214984   2.086   1.357   3.483  0.3222 -0.0797 -0.2198
 5007TIP3    H114985   2.139   1.384   3.408  1.0804 -1.3307 -0.1696
 5007TIP3    H214986   2.023   1.295   3.446 -0.4492  0.6284 -0.1053
 5008TIP3   OH214987   4.087   4.304   1.173  0.0840  0.3043  0.0854
 5008TIP3    H114988   4.004   4.271   1.209 -0.3624  0.3054 -0.8918
 5008TIP3    H214989   4.111   4.377   1.230 -0.1939 -0.1708  0.8277
 5009TIP3   OH214990   1.771   1.221   2.868 -0.4998  0.3476  0.3141
 5009TIP3    H114991   1.697   1.209   2.928 -1.9183  0.4310 -1.3413
 5009TIP3    H214992   1.737   1.277   2.798  1.2584  0.7076 -0.3117
 5010TIP3   OH214993   1.371   2.435   0.182 -0.0328 -0.2315  0.0591
 5010TIP3    H114994   1.322   2.358   0.152 -2.8895  1.6134 -0.4503
 5010TIP3    H214995   1.333   2.508   0.133  1.2876  1.7624  1.8171
 5011TIP3   OH214996   0.424   1.573   0.739  0.0407 -0.4801 -0.1662
 5011TIP3    H114997   0.418   1.662   0.706 -2.5700  0.4144  2.3844
 5011TIP3    H214998   0.484   1.578   0.813 -0.1914 -0.8525  0.0509
 5012TIP3   OH214999   2.972   1.761   2.661  0.1548 -0.7030 -0.0525
 5012TIP3    H115000   3.029   1.799   2.594 -0.2771  1.5770  0.7849
 5012TIP3    H215001   3.014   1.678   2.683 -0.3380 -2.2030 -3.9312
 5013TIP3   OH215002   6.368   0.807   0.982 -0.0895 -0.5939  0.8240
 5013TIP3    H115003   6.416   0.864   1.042 -0.4016  0.0392  0.4851
 5013TIP3    H215004   6.435   0.772   0.924 -0.2483  2.2575 -1.2764
 5014TIP3   OH215005   1.894   2.262   3.931  0.5121 -0.2460  0.1445
 5014TIP3    H115006   1.918   2.181   3.886  0.3215  0.6701 -1.6930
 5014TIP3    H215007   1.816   2.292   3.885  1.4720  1.7764 -0.2539
 5015TIP3   OH215008   5.279   2.856   0.458  0.0344  0.5204  0.4635
 5015TIP3    H115009   5.317   2.938   0.428  1.4945 -0.5731 -0.9014
 5015TIP3    H215010   5.347   2.817   0.513  0.0459 -0.5016 -0.2488
 5016TIP3   OH215011   3.808   6.601   2.507 -0.0496 -0.0156  0.7811
 5016TIP3    H115012   3.820   6.555   2.424 -1.3347  0.5580  0.2496
 5016TIP3    H215013   3.880   6.570   2.562  0.7311 -0.5439 -0.4779
 5017TIP3   OH215014   2.686   0.511   3.092 -0.5648 -0.0716 -0.2505
 5017TIP3    H115015   2.741   0.468   3.158 -0.7430  0.5474  0.3122
 5017TIP3    H215016   2.603   0.465   3.096 -0.1478 -0.9336 -1.0213
 5018TIP3   OH215017   5.856   5.683   0.531  0.1136  0.0502 -0.1484
 5018TIP3    H115018   5.918   5.695   0.459  0.4111 -1.7218 -0.2358
 5018TIP3    H215019   5.794   5.618   0.499  0.3103 -0.8617  1.2122
 5019TIP3   OH215020   5.633   4.185   3.762 -0.4768  0.2911 -0.1151
 5019TIP3    H115021   5.715   4.194   3.811  1.6789 -1.5857 -3.0267
 5019TIP3    H215022   5.627   4.266   3.711 -0.5853  0.5379  0.2848
 5020TIP3   OH215023   4.105   0.886   3.264  0.3067  0.3402  0.4198
 5020TIP3    H115024   4.146   0.968   3.291 -0.4709  1.1267 -0.6686
 5020TIP3    H215025   4.177   0.833   3.230  0.8405  0.5036  1.2861
 5021TIP3   OH215026   1.545   0.363   4.278  0.3818  0.2720 -0.3297
 5021TIP3    H115027   1.455   0.390   4.295  1.2332  2.9125  0.5903
 5021TIP3    H215028   1.545   0.268   4.288 -2.0126  0.3500  0.9959
 5022TIP3   OH215029   2.687   5.600   0.071 -0.0865 -0.3125 -0.2564
 5022TIP3    H115030   2.680   5.567  -0.019  2.3626 -0.3481 -0.4905
 5022TIP3    H215031   2.781   5.606   0.087 -0.4315  2.8165  1.1873
 5023TIP3   OH215032   0.812   4.162   0.492  0.0505  0.1485  0.0603
 5023TIP3    H115033   0.864   4.096   0.446 -0.3133  0.1475 -0.3500
 5023TIP3    H215034   0.827   4.243   0.443  0.5274  0.3910  0.5847
 5024TIP3   OH215035   3.311   0.639   2.361  0.1191 -0.1085 -0.9806
 5024TIP3    H115036   3.320   0.603   2.449  0.2067  1.2985 -0.3733
 5024TIP3    H215037   3.229   0.603   2.328 -1.3982  1.4769  0.7967
 5025TIP3   OH215038   2.994   5.882   2.641 -0.4117 -0.3817 -0.4130
 5025TIP3    H115039   2.954   5.910   2.558  1.2965  1.2170 -0.7850
 5025TIP3    H215040   3.002   5.962   2.692  2.6627 -0.4372 -0.5905
 5026TIP3   OH215041   5.979   3.308   2.884 -0.4158  0.7170  0.3823
 5026TIP3    H115042   6.007   3.258   2.808 -1.2497 -0.5827  0.8989
 5026TIP3    H215043   5.980   3.399   2.855  1.8658  0.5178 -0.3615
 5027TIP3   OH215044   3.615   1.640   2.458 -0.1194 -0.5775 -0.6876
 5027TIP3    H115045   3.528   1.677   2.475 -0.0107  0.3618 -2.0752
 5027TIP3    H215046   3.649   1.619   2.546 -0.8140  1.1905  0.0452
 5028TIP3   OH215047   4.159   3.330   5.504  0.6471  0.3702 -0.6400
 5028TIP3    H115048   4.244   3.369   5.483  0.6498  0.6051 -0.2084
 5028TIP3    H215049   4.137   3.366   5.590 -0.1789  0.7920 -1.0182
 5029TIP3   OH215050   6.272   1.617   0.331  0.2731 -0.4550 -0.3610
 5029TIP3    H115051   6.189   1.574   0.352  0.5238 -0.8200 -0.0951
 5029TIP3    H215052   6.258   1.658   0.247 -0.0339 -0.9159 -0.5376
 5030TIP3   OH215053   5.611   0.319   4.850  0.5280 -0.4745  0.3871
 5030TIP3    H115054   5.656   0.238   4.875  1.2762 -0.1290  0.1954
 5030TIP3    H215055   5.567   0.298   4.768  0.1424 -0.8877  0.6974
 5031TIP3   OH215056   5.482   5.424   5.354  0.2616 -0.3384  0.2423
 5031TIP3    H115057   5.420   5.496   5.352 -0.1508 -0.6749  0.7182
 5031TIP3    H215058   5.555   5.456   5.408  0.4646  0.0205 -0.2384
 5032TIP3   OH215059   6.266   6.747   1.111 -0.0472 -0.1691 -0.3819
 5032TIP3    H115060   6.274   6.727   1.018  2.1532  1.5823 -0.6585
 5032TIP3    H215061   6.233   6.837   1.113  2.4138  0.7953  0.3788
 5033TIP3   OH215062   6.725   5.365   1.831  0.2017  0.0878 -0.4658
 5033TIP3    H115063   6.647   5.392   1.783 -0.9396  0.8004  1.6836
 5033TIP3    H215064   6.742   5.436   1.892  1.6222 -0.7628  0.1881
 5034TIP3   OH215065   2.387   5.547   3.332 -0.2174  0.6311 -0.1695
 5034TIP3    H115066   2.442   5.557   3.410 -0.8984  0.2665  0.3677
 5034TIP3    H215067   2.412   5.620   3.275 -0.0134  1.1498  0.5724
 5035TIP3   OH215068   1.600   4.410   5.705  0.2807  0.6442 -0.0419
 5035TIP3    H115069   1.619   4.433   5.796  0.4298  0.3123  0.0125
 5035TIP3    H215070   1.595   4.315   5.705 -0.5787  0.6839 -0.2143
 5036TIP3   OH215071   1.135   4.232   5.657  0.3905 -0.1257 -0.6031
 5036TIP3    H115072   1.104   4.166   5.719  1.9824  0.8782  1.4039
 5036TIP3    H215073   1.221   4.200   5.628  1.3765  1.1561  0.7148
 5037TIP3   OH215074   0.747   1.153   2.480  0.0245  0.0444 -0.1877
 5037TIP3    H115075   0.833   1.156   2.438  0.6599  0.1035  1.0932
 5037TIP3    H215076   0.733   1.061   2.500 -0.6846 -0.1140 -1.3012
 5038TIP3   OH215077   0.071   0.851   4.690  0.1099 -0.5263 -0.4538
 5038TIP3    H115078   0.099   0.760   4.680  1.5701  0.0042 -1.6331
 5038TIP3    H215079  -0.023   0.846   4.707  0.4728 -2.3068  1.3278
 5039TIP3   OH215080   6.421   4.883   5.797  0.6041 -0.2068 -0.1839
 5039TIP3    H115081   6.479   4.807   5.787  1.4780  0.2949  0.8130
 5039TIP3    H215082   6.404   4.888   5.891  0.5302  0.7940 -0.2386
 5040TIP3   OH215083   2.921   2.685   3.829 -0.0786  0.2117 -0.3633
 5040TIP3    H115084   2.906   2.736   3.909 -2.1386 -1.4169  0.3810
 5040TIP3    H215085   2.834   2.670   3.793  0.7214 -0.1499 -2.2670
 5041TIP3   OH215086   6.802   5.474   5.609 -0.1215 -0.3034  0.3879
 5041TIP3    H115087   6.896   5.468   5.597  0.5537 -0.1163  4.2900
 5041TIP3    H215088   6.771   5.383   5.609  0.1664 -0.4012 -0.2088
 5042TIP3   OH215089   2.051   2.506   4.591 -0.2533  0.1062 -0.4238
 5042TIP3    H115090   2.002   2.547   4.662  0.4109  0.2124 -0.0225
 5042TIP3    H215091   1.988   2.446   4.550  0.0035 -1.8704  1.8277
 5043TIP3   OH215092   1.748   4.611   5.538  0.2130 -0.2192 -0.2750
 5043TIP3    H115093   1.824   4.567   5.577 -0.9185 -2.3969 -0.3869
 5043TIP3    H215094   1.673   4.574   5.583 -0.8580  3.3334  1.2754
 5044TIP3   OH215095   3.598   2.195   1.087 -0.2643 -0.1579 -0.3584
 5044TIP3    H115096   3.693   2.202   1.077  0.1582 -2.4736  1.1792
 5044TIP3    H215097   3.586   2.170   1.179 -2.3444 -0.1894 -0.6012
 5045TIP3   OH215098   3.132   3.281   4.706  0.1863  0.1542 -0.3057
 5045TIP3    H115099   3.063   3.320   4.652 -0.3482 -0.9147 -0.4182
 5045TIP3    H215100   3.213   3.303   4.660 -0.2377 -0.4887 -1.4153
 5046TIP3   OH215101   2.179   5.756   2.248  0.4583  0.2383 -0.2632
 5046TIP3    H115102   2.241   5.825   2.270  1.5878 -0.5813 -0.7543
 5046TIP3    H215103   2.095   5.787   2.282  0.9274  1.8417 -0.4886
 5047TIP3   OH215104   1.245   0.861   4.055  0.3709  0.1042 -0.4051
 5047TIP3    H115105   1.179   0.912   4.009  0.6122 -3.0151 -4.8081
 5047TIP3    H215106   1.196   0.789   4.095  0.7600 -0.7131 -1.3577
 5048TIP3   OH215107   2.258   4.695   4.445  0.0162 -0.7659 -0.3357
 5048TIP3    H115108   2.268   4.706   4.350  0.7287 -0.8137 -0.2770
 5048TIP3    H215109   2.285   4.779   4.481 -0.0985 -0.8009 -0.1718
 5049TIP3   OH215110   2.284   2.996   5.391 -0.0074 -0.2391  0.3476
 5049TIP3    H115111   2.357   2.944   5.425 -0.7068 -1.2508  0.3406
 5049TIP3    H215112   2.230   2.933   5.343 -0.5320  0.6244 -0.2176
 5050TIP3   OH215113   6.962   5.962   0.318 -0.2103  0.5123 -0.3925
 5050TIP3    H115114   6.882   5.918   0.347  0.5005 -1.4674 -1.2611
 5050TIP3    H215115   7.010   5.895   0.269  2.2565  1.4525  0.5814
 5051TIP3   OH215116   0.052   3.788   2.388  0.2665  0.1687  0.0870
 5051TIP3    H115117   0.065   3.695   2.370 -0.2829 -0.3540  2.1663
 5051TIP3    H215118  -0.043   3.798   2.394  0.3295  0.0405  3.3500
 5052TIP3   OH215119   5.261   3.401   0.732 -0.3596  0.1240 -0.6488
 5052TIP3    H115120   5.308   3.476   0.697  1.5354 -1.6189 -2.0815
 5052TIP3    H215121   5.253   3.419   0.826  1.1018  1.5480 -0.7577
 5053TIP3   OH215122   5.951   4.030   0.798  0.8704 -0.0115  0.0590
 5053TIP3    H115123   6.044   4.050   0.796  1.1519 -1.2826 -0.7895
 5053TIP3    H215124   5.944   3.944   0.755 -0.6870  0.0860  0.0662
 5054TIP3   OH215125   3.236   2.332   4.004  0.1891  0.6693  0.2496
 5054TIP3    H115126   3.238   2.267   3.934 -0.8286  2.0479 -1.1463
 5054TIP3    H215127   3.239   2.281   4.085  0.2763 -1.0428 -0.7902
 5055TIP3   OH215128   3.713   1.917   5.180  0.1357  0.1704 -0.3178
 5055TIP3    H115129   3.801   1.956   5.171  0.4188 -0.4097 -0.0759
 5055TIP3    H215130   3.672   1.932   5.094 -0.5403  2.8523  0.3750
 5056TIP3   OH215131   0.687   1.609   3.961  0.4420 -0.6266  0.2175
 5056TIP3    H115132   0.695   1.683   4.021 -0.1308 -0.1906 -0.2266
 5056TIP3    H215133   0.775   1.573   3.954  0.5327 -0.6239  1.2334
 5057TIP3   OH215134   4.270   5.025   5.466 -0.0973 -0.3027  0.1532
 5057TIP3    H115135   4.357   5.065   5.472 -0.2886  0.2507 -0.6207
 5057TIP3    H215136   4.212   5.099   5.451 -0.6332 -0.7399  0.0685
 5058TIP3   OH215137   2.506   1.205   3.195 -0.1933  0.3241 -0.3135
 5058TIP3    H115138   2.517   1.204   3.100 -2.3470  2.2424 -0.6684
 5058TIP3    H215139   2.457   1.125   3.215 -1.0420  0.6603 -1.0250
 5059TIP3   OH215140   4.135   0.750   1.752  0.2825 -0.3000 -0.1626
 5059TIP3    H115141   4.130   0.845   1.763 -1.1734 -0.2981 -0.5926
 5059TIP3    H215142   4.176   0.738   1.667  1.4395 -0.0872  0.3568
 5060TIP3   OH215143   0.265   6.209   2.783 -0.0025  0.4223  0.0510
 5060TIP3    H115144   0.169   6.207   2.775 -0.1409  0.1994  1.4204
 5060TIP3    H215145   0.292   6.289   2.740 -0.8903  0.8512  0.2716
 5061TIP3   OH215146   4.307   4.218   0.164 -0.4478 -0.6572 -0.1798
 5061TIP3    H115147   4.342   4.220   0.075 -0.6135 -0.1229 -0.2332
 5061TIP3    H215148   4.376   4.176   0.215 -0.2703 -0.7898 -0.5190
 5062TIP3   OH215149   4.962   3.865   2.613 -0.0354 -0.1921 -0.2741
 5062TIP3    H115150   5.044   3.911   2.632  0.0134 -0.3675 -0.0581
 5062TIP3    H215151   4.974   3.778   2.650 -0.5532 -0.0251  0.2886
 5063TIP3   OH215152   6.915   6.732   4.569  0.7121 -0.0478  0.6563
 5063TIP3    H115153   6.871   6.696   4.647  2.4292 -1.4742  1.0482
 5063TIP3    H215154   6.957   6.812   4.600 -0.0187  0.2896  0.7726
 5064TIP3   OH215155   4.225   5.317   2.850 -0.1094 -0.9674 -0.3003
 5064TIP3    H115156   4.308   5.294   2.891  0.5935 -0.7517 -1.5582
 5064TIP3    H215157   4.233   5.286   2.760 -0.8503  0.2828 -0.8294
 5065TIP3   OH215158   5.604   1.871   0.229  0.0650 -0.0814 -0.3426
 5065TIP3    H115159   5.668   1.805   0.255  0.3819 -0.4511 -1.9709
 5065TIP3    H215160   5.629   1.950   0.277  1.6621 -0.2625 -0.8443
 5066TIP3   OH215161   7.074   4.861   3.984 -0.9226 -0.1335 -0.5125
 5066TIP3    H115162   7.111   4.852   4.071 -0.1906  1.4598 -0.6313
 5066TIP3    H215163   6.982   4.885   3.999 -0.5500  1.1241 -0.1545
 5067TIP3   OH215164   4.982   6.020   1.734  0.3640  0.0824 -0.0233
 5067TIP3    H115165   5.038   6.058   1.802 -3.4635  3.4031  1.7427
 5067TIP3    H215166   5.014   6.058   1.652  1.8648  0.2401  0.5992
 5068TIP3   OH215167   7.037   5.514   3.951  0.5810  0.2793  0.1987
 5068TIP3    H115168   7.106   5.579   3.934  0.2588  0.3911 -0.7604
 5068TIP3    H215169   7.082   5.442   3.994  1.0935  0.8101  0.5657
 5069TIP3   OH215170   1.682   1.388   2.671 -0.2317 -0.4861  0.4898
 5069TIP3    H115171   1.611   1.411   2.732 -1.0332 -2.2655  0.3021
 5069TIP3    H215172   1.637   1.370   2.588  0.6825  0.3253 -0.2017
 5070TIP3   OH215173   3.992   4.082   2.655  0.4177 -0.0520 -0.1152
 5070TIP3    H115174   4.009   4.162   2.605 -0.0186  1.4848  2.0291
 5070TIP3    H215175   4.078   4.044   2.670  0.9629  1.5328  1.0965
 5071TIP3   OH215176   6.668   0.126   1.478  0.2550 -0.3398 -0.6639
 5071TIP3    H115177   6.653   0.199   1.539  2.9153 -0.9641  0.8974
 5071TIP3    H215178   6.580   0.094   1.457 -0.8520  0.9322  1.5928
 5072TIP3   OH215179   1.929   3.338   2.927  0.7444  0.0236  1.0251
 5072TIP3    H115180   1.914   3.336   3.021 -1.0106  1.9167  0.8488
 5072TIP3    H215181   1.849   3.301   2.889  1.4763 -0.8182  0.2464
 5073TIP3   OH215182   4.425   1.742   1.307 -0.1083 -0.3706 -0.2593
 5073TIP3    H115183   4.416   1.658   1.261 -0.9697 -0.8461  0.7186
 5073TIP3    H215184   4.378   1.729   1.389  2.6053 -0.0824  1.4823
 5074TIP3   OH215185   5.574   5.881   3.580 -0.6649  0.2570 -0.6021
 5074TIP3    H115186   5.614   5.965   3.559 -0.9418  0.3239 -0.8603
 5074TIP3    H215187   5.631   5.816   3.539 -0.4041  0.3093 -0.3332
 5075TIP3   OH215188   4.508   2.670   4.359  0.0368 -0.3061  0.2745
 5075TIP3    H115189   4.512   2.700   4.450  1.6638 -1.4153  0.6170
 5075TIP3    H215190   4.417   2.684   4.333 -0.9171 -1.5633  2.6433
 5076TIP3   OH215191   4.716   5.347   1.510  0.6821 -0.0216  0.2456
 5076TIP3    H115192   4.705   5.275   1.448  0.2112  0.5095 -0.3025
 5076TIP3    H215193   4.672   5.319   1.589  1.2585 -0.6963  0.3349
 5077TIP3   OH215194   1.779   1.033   5.754 -0.0626 -0.1521 -0.3528
 5077TIP3    H115195   1.821   0.948   5.766  0.9264  0.2527 -0.8046
 5077TIP3    H215196   1.834   1.078   5.690 -0.2423  1.0528  0.3083
 5078TIP3   OH215197   0.366   2.275   3.821 -0.2908  0.0864 -0.0836
 5078TIP3    H115198   0.430   2.251   3.754  0.8706 -0.4470  1.1559
 5078TIP3    H215199   0.353   2.369   3.809  0.2200  0.0788 -0.7891
 5079TIP3   OH215200   4.133   3.075   0.447 -0.1642  0.2242 -0.3540
 5079TIP3    H115201   4.095   3.161   0.465 -0.4974  0.1510 -0.6935
 5079TIP3    H215202   4.060   3.015   0.455  0.2214 -0.1296  0.6393
 5080TIP3   OH215203   0.016   5.118   4.595 -0.4055 -0.6752  0.6749
 5080TIP3    H115204   0.059   5.077   4.519  0.9289 -1.0370  1.5911
 5080TIP3    H215205  -0.050   5.175   4.556 -0.5935 -1.7670 -0.7259
 5081TIP3   OH215206   4.462   0.193   1.342 -0.3626  0.2584 -0.3886
 5081TIP3    H115207   4.422   0.232   1.419  0.8038  0.1515  0.2892
 5081TIP3    H215208   4.541   0.149   1.375  1.2252  1.8243 -1.8725
 5082TIP3   OH215209   3.639   5.433   3.466 -0.4691  0.3091  0.1742
 5082TIP3    H115210   3.729   5.421   3.498 -0.3794  0.0889 -0.1580
 5082TIP3    H215211   3.649   5.451   3.373 -0.7452  0.7389  0.2277
 5083TIP3   OH215212   7.096   0.041   4.353 -0.2900  0.3476 -0.2413
 5083TIP3    H115213   7.030  -0.023   4.380 -0.8255  1.2340  0.6169
 5083TIP3    H215214   7.176   0.015   4.399  0.6528 -2.0562 -2.9827
 5084TIP3   OH215215   1.142   5.160   4.563  0.6301  0.3660  0.3891
 5084TIP3    H115216   1.193   5.094   4.517 -0.1087 -0.1483  0.2959
 5084TIP3    H215217   1.139   5.129   4.654  0.5608  0.4415  0.4130
 5085TIP3   OH215218   5.392   5.690   4.925  0.6013 -0.0198  0.0968
 5085TIP3    H115219   5.419   5.739   4.847 -0.4606 -0.0690 -0.3131
 5085TIP3    H215220   5.309   5.650   4.901  2.1073 -3.3326 -0.1341
 5086TIP3   OH215221   0.554   3.482   2.546  0.1672  0.0060  0.0430
 5086TIP3    H115222   0.479   3.436   2.508  0.8734 -0.3396 -0.9671
 5086TIP3    H215223   0.555   3.567   2.502 -0.6204  0.6780  1.2805
 5087TIP3   OH215224   0.187   4.043   5.573 -0.1870  0.1598 -0.1852
 5087TIP3    H115225   0.224   4.037   5.485 -2.0764 -1.3505 -0.9412
 5087TIP3    H215226   0.122   4.113   5.567 -0.2989  0.0737  0.0075
 5088TIP3   OH215227   4.142   0.902   0.759  0.0220 -0.0181 -0.2967
 5088TIP3    H115228   4.081   0.903   0.685 -2.7790  0.9422  1.8576
 5088TIP3    H215229   4.228   0.889   0.719 -1.4015 -0.1196 -3.6369
 5089TIP3   OH215230   2.449   3.684   1.058  0.0404  0.0489 -0.7245
 5089TIP3    H115231   2.495   3.767   1.072 -0.4195  0.1182  0.4089
 5089TIP3    H215232   2.441   3.645   1.145  0.9406 -1.5708 -1.3172
 5090TIP3   OH215233   1.610   1.407   1.149 -0.5260 -0.6930  0.1087
 5090TIP3    H115234   1.593   1.450   1.233 -2.4516  0.0219 -0.5884
 5090TIP3    H215235   1.566   1.323   1.155  1.2314 -1.6303  0.5904
 5091TIP3   OH215236   6.814   1.860   3.492  0.2554 -0.2638 -0.3066
 5091TIP3    H115237   6.773   1.774   3.487 -0.6031  0.2085 -1.9616
 5091TIP3    H215238   6.876   1.852   3.565  0.7119 -2.4858 -0.8451
 5092TIP3   OH215239   4.738   1.417   0.711 -0.5048  0.0003 -0.0806
 5092TIP3    H115240   4.667   1.455   0.659 -0.1241  1.0820  0.1653
 5092TIP3    H215241   4.717   1.442   0.801  1.7863  3.1074 -0.2701
 5093TIP3   OH215242   4.063   6.179   2.637  0.2195  0.1540 -0.9434
 5093TIP3    H115243   4.154   6.158   2.617  0.3948 -1.6112  1.2463
 5093TIP3    H215244   4.017   6.095   2.626 -1.1022  0.9288 -1.6208
 5094TIP3   OH215245   6.868   3.404   5.127  0.3496 -0.1174 -0.2715
 5094TIP3    H115246   6.816   3.344   5.180 -0.1345  0.6541  0.1425
 5094TIP3    H215247   6.926   3.448   5.190 -0.2566  0.8331 -0.3430
 5095TIP3   OH215248   4.005   4.634   1.717 -0.1579  1.1677  0.3448
 5095TIP3    H115249   4.048   4.549   1.712 -0.8160  0.8577 -0.1325
 5095TIP3    H215250   3.924   4.624   1.666  1.1972  2.9512 -2.4086
 5096TIP3   OH215251   4.872   0.750   0.802  0.8399 -0.4284  0.5687
 5096TIP3    H115252   4.778   0.768   0.799  0.5915 -1.6663  0.4873
 5096TIP3    H215253   4.885   0.681   0.737  1.9616  0.3366 -0.0410
 5097TIP3   OH215254   6.461   3.877   2.474 -0.6208  0.2203 -0.2292
 5097TIP3    H115255   6.470   3.818   2.399 -0.8520  0.5263 -0.4996
 5097TIP3    H215256   6.387   3.842   2.523  0.8578 -1.2956  1.0768
 5098TIP3   OH215257   2.408   0.311   2.672  0.3496 -0.0015  0.0310
 5098TIP3    H115258   2.361   0.273   2.746 -1.1483 -0.2841 -0.9985
 5098TIP3    H215259   2.441   0.236   2.623  2.1390  0.1991  0.8463
 5099TIP3   OH215260   3.026   5.403   1.297 -0.1220  0.1369 -0.1477
 5099TIP3    H115261   2.934   5.378   1.293 -0.4989  1.4959 -0.7180
 5099TIP3    H215262   3.042   5.448   1.214  1.0347  0.0009 -0.0166
 5100TIP3   OH215263   2.303   6.580   2.384 -0.1323  0.3734 -0.8304
 5100TIP3    H115264   2.365   6.542   2.321  0.8008 -1.8685  1.2725
 5100TIP3    H215265   2.356   6.637   2.439 -0.2006 -0.2985 -0.0344
 5101TIP3   OH215266   6.886   1.232   2.174  0.0209 -0.2903  0.1646
 5101TIP3    H115267   6.803   1.247   2.219 -0.3617 -1.6109 -0.0734
 5101TIP3    H215268   6.940   1.307   2.200 -1.4629  0.9901 -0.2634
 5102TIP3   OH215269   7.135   0.749   1.127 -0.1452  0.3787 -0.5454
 5102TIP3    H115270   7.119   0.828   1.178 -1.6561  0.3816 -0.9932
 5102TIP3    H215271   7.157   0.781   1.040  1.3019  0.3391 -0.2189
 5103TIP3   OH215272   7.145   2.578   2.549  0.2842 -0.3921 -0.0243
 5103TIP3    H115273   7.102   2.562   2.466 -0.2340 -2.3934  0.5738
 5103TIP3    H215274   7.173   2.670   2.545 -3.0092  0.6906 -0.8909
 5104TIP3   OH215275   5.205   0.260   1.409  0.0276 -0.1473 -0.0320
 5104TIP3    H115276   5.200   0.354   1.424 -1.2528  0.1107 -1.7351
 5104TIP3    H215277   5.114   0.231   1.409  0.2458 -0.9501 -1.8728
 5105TIP3   OH215278   5.140   2.580   1.103 -0.2342 -0.1315  1.0693
 5105TIP3    H115279   5.127   2.492   1.067 -2.7698  0.0704  1.2817
 5105TIP3    H215280   5.233   2.583   1.127  1.6073 -0.5262 -4.5725
 5106TIP3   OH215281   1.586   0.205   2.966 -0.8546  0.2215  0.2297
 5106TIP3    H115282   1.631   0.161   3.039  2.5583  1.4442 -0.9341
 5106TIP3    H215283   1.577   0.138   2.899  0.1885  0.1581  0.1350
 5107TIP3   OH215284   1.860   5.350   4.094  0.1957 -0.2005 -1.3523
 5107TIP3    H115285   1.820   5.272   4.132 -0.3062 -0.6171 -2.6568
 5107TIP3    H215286   1.884   5.323   4.005 -0.3808  1.2485 -1.9841
 5108TIP3   OH215287   1.866   3.657   3.879  0.5626 -0.0458  0.1048
 5108TIP3    H115288   1.858   3.724   3.810  1.4460  0.0434  0.0663
 5108TIP3    H215289   1.919   3.699   3.946  1.3329 -0.7776 -0.0276
 5109TIP3   OH215290   2.714   4.364   3.613 -0.0831 -0.7006 -0.1742
 5109TIP3    H115291   2.770   4.441   3.614 -1.8645  0.6722  1.2827
 5109TIP3    H215292   2.750   4.307   3.682  0.3075 -0.4436 -0.1652
 5110TIP3   OH215293   2.709   5.071   1.543  0.3264 -0.3106  0.7949
 5110TIP3    H115294   2.667   5.030   1.468  1.5854 -1.5777  0.7476
 5110TIP3    H215295   2.672   5.160   1.545 -0.3853 -0.5337 -0.7743
 5111TIP3   OH215296   1.584   1.028   5.010  0.1866  0.6558  0.1426
 5111TIP3    H115297   1.651   1.021   4.942  1.4141  1.1465  1.2610
 5111TIP3    H215298   1.633   1.036   5.091 -1.2422  0.9370  1.0095
 5112TIP3   OH215299   1.042   3.790   1.010  0.6181 -0.0159  0.7800
 5112TIP3    H115300   1.117   3.744   0.971  0.0222  0.4733 -1.0539
 5112TIP3    H215301   0.994   3.723   1.057  1.8849 -0.4514  1.5148
 5113TIP3   OH215302   4.757   4.296   1.570  0.1220 -0.1414  0.3590
 5113TIP3    H115303   4.833   4.239   1.579  0.9486  0.9860  0.9074
 5113TIP3    H215304   4.792   4.378   1.535 -1.0771 -0.0677 -0.7500
 5114TIP3   OH215305   4.558   2.943   1.263  0.0001 -0.1899 -0.3469
 5114TIP3    H115306   4.589   2.944   1.354 -1.8863  0.1042  0.3395
 5114TIP3    H215307   4.553   3.035   1.239  2.6090 -0.2877 -1.5828
 5115TIP3   OH215308   2.432   1.447   2.877 -0.0092 -0.0071  0.3316
 5115TIP3    H115309   2.354   1.392   2.873  0.7332 -1.0108 -1.0679
 5115TIP3    H215310   2.409   1.526   2.828  0.1409 -0.7151 -0.9168
 5116TIP3   OH215311   6.606   2.354   2.949  0.2778 -0.2009 -0.2132
 5116TIP3    H115312   6.693   2.389   2.932  0.1235 -0.2927 -1.2398
 5116TIP3    H215313   6.590   2.294   2.877 -1.4463  1.3408 -1.2071
 5117TIP3   OH215314   1.921   0.772   3.300 -0.0883  0.1767 -0.2001
 5117TIP3    H115315   1.996   0.812   3.344  1.6790 -0.8690 -2.0982
 5117TIP3    H215316   1.929   0.678   3.319 -1.7491  0.1616  0.6837
 5118TIP3   OH215317   5.134   0.391   5.377  0.1218  0.3842  0.2878
 5118TIP3    H115318   5.060   0.340   5.407 -0.0203 -0.0631 -0.7788
 5118TIP3    H215319   5.189   0.328   5.330 -0.4853  1.3284 -1.8041
 5119TIP3   OH215320   3.233   4.717   5.037 -0.0057 -0.0761  0.1177
 5119TIP3    H115321   3.140   4.725   5.059 -0.0570 -0.2951 -0.0224
 5119TIP3    H215322   3.276   4.785   5.089 -0.4009  0.8806 -0.7628
 5120TIP3   OH215323   2.752   6.744   3.197 -0.5645  0.6844  0.3300
 5120TIP3    H115324   2.816   6.673   3.192 -1.1015  0.1284  1.0221
 5120TIP3    H215325   2.670   6.700   3.218 -0.9334  1.4982  0.6341
 5121TIP3   OH215326   3.905   5.838   5.809 -0.4284 -0.1502 -0.0114
 5121TIP3    H115327   3.879   5.858   5.899  1.4742 -0.7584  0.7142
 5121TIP3    H215328   3.832   5.786   5.775 -1.3668  0.4326  1.0246
 5122TIP3   OH215329   0.977   4.274   2.200 -0.8205 -0.4178 -0.6379
 5122TIP3    H115330   0.946   4.303   2.286  0.3499  0.0790 -0.3537
 5122TIP3    H215331   1.011   4.186   2.216  1.1160  0.3592 -0.1184
 5123TIP3   OH215332   4.587   4.727   2.869  0.0349 -0.1429  0.5322
 5123TIP3    H115333   4.669   4.697   2.907 -0.2769  0.4605  1.7606
 5123TIP3    H215334   4.534   4.753   2.945 -0.8342  0.5939 -0.2987
 5124TIP3   OH215335   1.080   4.152   3.981  0.2652 -0.9242 -0.1426
 5124TIP3    H115336   1.126   4.215   4.037  0.1999  0.8807 -1.9953
 5124TIP3    H215337   1.150   4.100   3.941  0.4695 -0.6208 -0.1860
 5125TIP3   OH215338   6.922   5.043   0.141 -0.0169 -0.3280 -0.5300
 5125TIP3    H115339   6.967   5.100   0.203 -2.3240  2.4175 -1.1733
 5125TIP3    H215340   6.971   5.053   0.059  0.8623 -1.0469 -0.1073
 5126TIP3   OH215341   4.909   6.070   4.391  0.2668  0.8655 -0.1239
 5126TIP3    H115342   4.873   6.068   4.480 -0.5478 -1.4330 -0.4513
 5126TIP3    H215343   4.991   6.021   4.397  0.8138  1.7250 -0.4237
 5127TIP3   OH215344   4.172   6.031   0.506  0.1201 -0.2217  0.3477
 5127TIP3    H115345   4.240   5.963   0.506  0.5149  0.1606  0.9529
 5127TIP3    H215346   4.194   6.087   0.581  0.1681  0.9378 -0.5035
 5128TIP3   OH215347   0.802   1.472   4.740 -0.5353  0.2410  0.3247
 5128TIP3    H115348   0.828   1.560   4.712 -0.6725  0.2638  0.2700
 5128TIP3    H215349   0.884   1.431   4.767 -0.7362  1.1971  2.6767
 5129TIP3   OH215350   5.901   5.813   5.024 -0.3312  0.4604  0.2217
 5129TIP3    H115351   5.919   5.829   4.932 -0.3047  0.2402  0.1896
 5129TIP3    H215352   5.807   5.797   5.028 -0.3341  0.4805  0.2345
 5130TIP3   OH215353   6.216   4.026   1.451 -0.1404 -0.2671  0.2761
 5130TIP3    H115354   6.204   4.111   1.492 -0.1065 -0.4005  0.5692
 5130TIP3    H215355   6.297   3.992   1.489 -0.3802 -0.6135  0.4843
 5131TIP3   OH215356   3.084   0.303   4.681 -0.5071  0.2057 -0.0188
 5131TIP3    H115357   3.108   0.235   4.744 -0.1192  1.0269  0.7528
 5131TIP3    H215358   3.047   0.256   4.607 -1.8646 -0.7649  1.2098
 5132TIP3   OH215359   3.196   2.749   1.712  0.2767 -0.2317 -0.4543
 5132TIP3    H115360   3.167   2.661   1.689  2.1595 -0.9509 -0.2786
 5132TIP3    H215361   3.292   2.744   1.708  0.4621  1.4571  0.8327
 5133TIP3   OH215362   3.551   5.871   5.818  0.2773 -0.2776  0.2008
 5133TIP3    H115363   3.589   5.783   5.809 -0.7851 -0.6696 -0.6043
 5133TIP3    H215364   3.495   5.865   5.895 -0.2916 -0.4888 -0.2298
 5134TIP3   OH215365   1.096   1.356   4.842 -0.3386  0.6028  0.1521
 5134TIP3    H115366   1.182   1.324   4.871 -1.0984 -2.1213 -0.4165
 5134TIP3    H215367   1.115   1.401   4.760  0.3671 -1.8012 -1.0926
 5135TIP3   OH215368   0.415   6.427   5.623  0.0734 -0.0428 -0.0776
 5135TIP3    H115369   0.499   6.385   5.643  0.5846 -1.0609 -3.6518
 5135TIP3    H215370   0.434   6.521   5.626  0.6870 -0.1774  1.3049
 5136TIP3   OH215371   1.241   4.018   0.287  0.1431 -0.2300 -0.6548
 5136TIP3    H115372   1.291   3.949   0.331 -1.7367 -1.0710  0.2735
 5136TIP3    H215373   1.154   4.013   0.326 -0.4781  1.6770 -1.6741
 5137TIP3   OH215374   0.174   2.974   1.603 -0.1487 -0.4337 -0.4330
 5137TIP3    H115375   0.090   2.928   1.608  0.5284 -1.5691  1.1976
 5137TIP3    H215376   0.205   2.957   1.514 -2.2876  1.2734 -1.6081
 5138TIP3   OH215377   6.282   6.592   2.896 -0.2180  0.1749 -0.5216
 5138TIP3    H115378   6.254   6.501   2.907  0.5815  0.0905  1.1943
 5138TIP3    H215379   6.205   6.644   2.918 -0.7923 -0.0778 -1.8909
 5139TIP3   OH215380   3.336   3.700   3.371 -0.7627 -0.0624  0.6319
 5139TIP3    H115381   3.302   3.785   3.343 -0.8394  0.1112  1.2385
 5139TIP3    H215382   3.362   3.713   3.462 -0.0175 -0.4746  0.4874
 5140TIP3   OH215383   3.346   5.084   1.287  0.4617 -0.2142  0.0508
 5140TIP3    H115384   3.336   5.049   1.375  2.2973 -2.6129 -0.5666
 5140TIP3    H215385   3.259   5.076   1.248 -0.4927  1.3247  1.7168
 5141TIP3   OH215386   4.265   0.077   3.325  0.0881  0.0431 -0.3518
 5141TIP3    H115387   4.213   0.151   3.356  0.3170 -0.5483  1.5895
 5141TIP3    H215388   4.211   0.037   3.256 -0.9721  0.7830  0.0208
 5142TIP3   OH215389   1.425   2.916   1.600 -0.6325  0.1061 -0.1954
 5142TIP3    H115390   1.483   2.840   1.607  0.6958  1.1639  1.0220
 5142TIP3    H215391   1.414   2.930   1.506  1.4450  0.0820 -0.4990
 5143TIP3   OH215392   0.963   6.017   4.246  0.1528  0.4304 -0.1241
 5143TIP3    H115393   0.909   5.956   4.197  0.5173 -0.0549  0.0612
 5143TIP3    H215394   0.964   6.097   4.194  0.9290 -0.2296 -1.1717
 5144TIP3   OH215395   2.619   2.452   5.406  0.0445  0.3929 -0.2888
 5144TIP3    H115396   2.556   2.507   5.360  2.6988  1.9911 -2.3104
 5144TIP3    H215397   2.643   2.384   5.343  0.9050  0.2875  0.1309
 5145TIP3   OH215398   4.107   0.709   5.568 -0.0403 -0.1378 -0.3926
 5145TIP3    H115399   4.060   0.695   5.487  0.1426  1.9261 -0.9271
 5145TIP3    H215400   4.053   0.669   5.635 -0.8497 -0.7389 -1.3839
 5146TIP3   OH215401   1.723   1.877   0.653  0.0491  0.0414  0.0593
 5146TIP3    H115402   1.680   1.885   0.568  0.3690  1.3377 -0.0045
 5146TIP3    H215403   1.661   1.916   0.715  0.0185 -0.4773  0.3622
 5147TIP3   OH215404   1.124   6.649   3.258  0.0968 -0.3022  0.5019
 5147TIP3    H115405   1.034   6.673   3.281 -0.0797 -0.2658 -0.1754
 5147TIP3    H215406   1.162   6.731   3.225  0.0024 -0.5673 -0.3007
 5148TIP3   OH215407   2.177   1.820   0.601  0.1983 -0.7001 -0.7360
 5148TIP3    H115408   2.132   1.751   0.552 -0.4055  0.0335 -1.2385
 5148TIP3    H215409   2.107   1.874   0.637  0.6634  0.5725 -1.6847
 5149TIP3   OH215410   0.299   0.987   4.822 -0.5708 -0.0255  0.1327
 5149TIP3    H115411   0.212   0.958   4.795 -0.3502 -1.3444  0.8066
 5149TIP3    H215412   0.355   0.910   4.812  0.5103  0.7717 -0.1807
 5150TIP3   OH215413   6.963   0.571   3.094  0.5292 -0.2178  0.1261
 5150TIP3    H115414   6.961   0.481   3.063  1.6621 -0.3151  0.2950
 5150TIP3    H215415   6.903   0.618   3.036  0.2106 -1.0057 -0.1885
 5151TIP3   OH215416   6.711   4.946   4.793  0.2640 -0.4240  0.0421
 5151TIP3    H115417   6.638   4.918   4.738  0.5091  1.3257 -1.2435
 5151TIP3    H215418   6.670   4.973   4.875 -0.4460 -0.2430 -0.3657
 5152TIP3   OH215419   0.977   3.939   3.550  0.2784  0.6598  0.2720
 5152TIP3    H115420   1.067   3.941   3.585  0.1202  1.6945  0.6576
 5152TIP3    H215421   0.927   3.892   3.616  0.5800 -0.1489 -0.0654
 5153TIP3   OH215422   1.710   6.508   0.797  0.5629  0.2539  0.1481
 5153TIP3    H115423   1.721   6.602   0.808  0.5168  0.5433 -2.0113
 5153TIP3    H215424   1.792   6.479   0.757  0.0848 -0.4252 -0.3495
 5154TIP3   OH215425   1.108   2.012   0.718 -0.7358  0.1563 -0.6178
 5154TIP3    H115426   1.132   2.088   0.772  0.1470  0.3826 -1.3067
 5154TIP3    H215427   1.049   1.961   0.774 -1.0419  1.1513 -0.0039
 5155TIP3   OH215428   1.561   0.844   1.328 -0.4174  0.0224 -0.3903
 5155TIP3    H115429   1.613   0.778   1.374  1.1393  0.4821 -1.4106
 5155TIP3    H215430   1.600   0.927   1.356 -2.8652  0.6352  1.5191
 5156TIP3   OH215431   3.831   4.952   1.893 -0.0519  0.2336  0.4716
 5156TIP3    H115432   3.841   5.001   1.812 -1.4088  1.6438  1.0997
 5156TIP3    H215433   3.742   4.917   1.888  0.2189 -0.5339  0.9000
 5157TIP3   OH215434   2.039   6.194   1.493 -0.2852 -0.3446 -0.2066
 5157TIP3    H115435   2.050   6.126   1.559  0.8221 -0.1161 -0.1363
 5157TIP3    H215436   2.050   6.149   1.410 -3.0842 -0.9223 -0.3849
 5158TIP3   OH215437   0.425   1.315   3.668  0.3852 -0.6862  0.2556
 5158TIP3    H115438   0.410   1.350   3.580  2.4274  0.1564  0.1588
 5158TIP3    H215439   0.478   1.237   3.653  0.2111 -0.8867  0.7060
 5159TIP3   OH215440   6.957   4.950   5.580 -0.1125  0.1156 -0.8176
 5159TIP3    H115441   6.988   5.030   5.624 -0.0013 -0.1396 -0.4227
 5159TIP3    H215442   6.866   4.970   5.556 -0.4794 -0.0417  0.3326
 5160TIP3   OH215443   5.286   2.932   5.167  0.3013  0.7130  0.2917
 5160TIP3    H115444   5.270   3.018   5.130  0.2964  0.6666  0.1869
 5160TIP3    H215445   5.199   2.895   5.183  0.2698  1.3172  1.7176
 5161TIP3   OH215446   4.966   1.077   4.848 -1.1341  0.1695  0.3880
 5161TIP3    H115447   4.928   1.033   4.772 -1.7499  1.0585  0.1687
 5161TIP3    H215448   4.935   1.026   4.923 -1.8511  0.2380  0.1421
 5162TIP3   OH215449   5.765   1.646   0.667 -0.5617 -0.2237 -0.1983
 5162TIP3    H115450   5.838   1.678   0.615  0.1905 -1.7579 -0.1477
 5162TIP3    H215451   5.764   1.702   0.745  1.6666 -1.1768  0.6233
 5163TIP3   OH215452   0.181   4.328   5.861  0.1582 -0.2025 -0.1328
 5163TIP3    H115453   0.179   4.383   5.783 -2.2632  0.2393  0.1551
 5163TIP3    H215454   0.273   4.304   5.871  0.8057  1.1824 -2.0807
 5164TIP3   OH215455   0.354   3.736   5.638 -0.2795  0.2610  0.3699
 5164TIP3    H115456   0.369   3.761   5.547 -0.2745  1.3177  0.6562
 5164TIP3    H215457   0.298   3.658   5.632  0.8270 -0.5121 -0.5668
 5165TIP3   OH215458   0.123   1.726   4.147  0.5822 -0.4726  0.2509
 5165TIP3    H115459   0.188   1.794   4.161  0.3217 -0.5106  1.8461
 5165TIP3    H215460   0.152   1.653   4.201 -0.8490 -0.4176  1.1576
 5166TIP3   OH215461   0.281   2.926   1.356 -0.3191 -0.2267  0.2097
 5166TIP3    H115462   0.327   2.843   1.342  0.0609 -0.2094  1.2689
 5166TIP3    H215463   0.351   2.990   1.370 -0.6404 -0.1282  1.4661
 5167TIP3   OH215464   5.291   4.438   5.181  0.7743 -0.5252 -0.3266
 5167TIP3    H115465   5.359   4.468   5.241  2.0222 -2.2506 -0.8169
 5167TIP3    H215466   5.226   4.397   5.238  0.9251 -0.2894  0.0210
 5168TIP3   OH215467   1.712   6.692   3.134 -0.2030  0.3741  0.1352
 5168TIP3    H115468   1.622   6.726   3.136 -0.7286 -0.9709  1.4787
 5168TIP3    H215469   1.749   6.728   3.054 -2.3453  0.0240 -1.1170
 5169TIP3   OH215470   4.896   2.140   5.279 -0.2051 -0.0316 -0.6110
 5169TIP3    H115471   4.905   2.085   5.357  0.4350  1.5695  0.4866
 5169TIP3    H215472   4.838   2.090   5.222 -0.1733 -1.5476  0.6068
 5170TIP3   OH215473   3.430   0.154   4.135  0.3719  0.3110  0.2772
 5170TIP3    H115474   3.393   0.240   4.158  1.4606  1.1029 -0.8090
 5170TIP3    H215475   3.397   0.095   4.203 -2.1170  1.1410 -0.1191
 5171TIP3   OH215476   1.368   4.737   3.596  0.0939  0.3068  0.3273
 5171TIP3    H115477   1.356   4.777   3.510  1.3093  0.4355  0.1992
 5171TIP3    H215478   1.451   4.773   3.628  0.0178 -0.2915  1.2394
 5172TIP3   OH215479   1.144   1.485   0.074 -0.4267 -0.1413 -0.1556
 5172TIP3    H115480   1.069   1.446   0.120  0.6279  0.4889  2.3095
 5172TIP3    H215481   1.144   1.576   0.103 -0.2091  0.5742 -2.2360
 5173TIP3   OH215482   6.932   1.851   1.944 -0.2569 -0.3014  0.5838
 5173TIP3    H115483   6.904   1.763   1.967 -2.9620  0.5680  1.0131
 5173TIP3    H215484   6.909   1.861   1.852 -1.6654  0.5189  1.0033
 5174TIP3   OH215485   5.684   4.215   5.511  0.2240 -0.2567  0.1616
 5174TIP3    H115486   5.591   4.231   5.492  0.2579 -0.8366 -0.5536
 5174TIP3    H215487   5.729   4.239   5.430  0.2880 -3.6834 -0.9813
 5175TIP3   OH215488   6.998   2.139   3.666  0.1346  0.1267 -0.2720
 5175TIP3    H115489   7.045   2.162   3.585 -0.8589 -0.7864 -1.1228
 5175TIP3    H215490   7.028   2.205   3.729  0.5342  1.1871 -1.5120
 5176TIP3   OH215491   6.550   0.091   5.032 -0.1566  0.3484 -0.1488
 5176TIP3    H115492   6.517   0.002   5.018 -3.6932  1.3374  0.9804
 5176TIP3    H215493   6.586   0.089   5.120  0.1831 -0.0545 -0.2914
 5177TIP3   OH215494   1.833   0.666   2.983 -0.2998  0.1499 -0.5680
 5177TIP3    H115495   1.809   0.698   2.896 -2.3493 -1.7509 -0.7864
 5177TIP3    H215496   1.817   0.572   2.979 -0.7056  0.0582  1.9417
 5178TIP3   OH215497   5.907   4.432   0.607 -0.0765  0.1873  0.1167
 5178TIP3    H115498   5.890   4.447   0.514 -0.9941 -0.9627  0.0776
 5178TIP3    H215499   5.978   4.368   0.608  0.0925  0.3768  0.2112
 5179TIP3   OH215500   4.981   1.033   1.066  0.3652  0.2154 -0.1112
 5179TIP3    H115501   5.037   0.978   1.011 -0.8684  0.0888 -1.3040
 5179TIP3    H215502   4.979   0.989   1.151 -0.1141 -1.2862 -0.8601
 5180TIP3   OH215503   6.406   6.354   1.104  0.0501  0.7198  0.7249
 5180TIP3    H115504   6.403   6.375   1.197 -1.2565 -1.7903  1.3607
 5180TIP3    H215505   6.314   6.347   1.078  0.3964  1.3640 -0.7695
 5181TIP3   OH215506   6.350   6.579   1.332 -0.1437 -0.0971 -0.0887
 5181TIP3    H115507   6.351   6.666   1.374  3.6745  0.2019 -0.4584
 5181TIP3    H215508   6.300   6.592   1.252  1.4396  2.2359 -0.8264
 5182TIP3   OH215509   4.383   5.595   2.209 -0.2306  0.4876  0.2326
 5182TIP3    H115510   4.420   5.519   2.254 -2.6095 -2.2355 -2.0590
 5182TIP3    H215511   4.436   5.604   2.130  0.0284  1.2932  0.4800
 5183TIP3   OH215512   4.034   4.532   5.543 -0.0470  0.1807  0.2048
 5183TIP3    H115513   4.043   4.544   5.638 -0.5275 -0.8162  0.3841
 5183TIP3    H215514   4.088   4.602   5.505  0.6489  0.2145  1.2092
 5184TIP3   OH215515   4.076   6.324   4.487 -0.5825  0.3668  0.4747
 5184TIP3    H115516   4.129   6.373   4.550 -0.2090  2.3245 -1.2765
 5184TIP3    H215517   4.001   6.381   4.469  0.1987  0.6908 -2.1378
 5185TIP3   OH215518   1.598   4.145   5.723  0.3856  0.1979  0.1866
 5185TIP3    H115519   1.555   4.136   5.808 -1.3505 -0.0353 -0.6812
 5185TIP3    H215520   1.663   4.074   5.723 -0.6587 -0.8039  0.7177
 5186TIP3   OH215521   3.477   5.681   0.767  0.1977 -0.0604 -0.1946
 5186TIP3    H115522   3.395   5.719   0.733  0.0447 -0.0464  0.1867
 5186TIP3    H215523   3.543   5.748   0.748  0.3985 -0.6627 -1.7965
 5187TIP3   OH215524   2.418   1.807   2.129  0.2739 -0.3514 -0.0102
 5187TIP3    H115525   2.486   1.750   2.164  2.4770  1.7114 -0.6576
 5187TIP3    H215526   2.436   1.810   2.035  2.1598  3.4726  0.2427
 5188TIP3   OH215527   6.571   5.588   3.824 -0.2657 -0.3147 -0.0465
 5188TIP3    H115528   6.539   5.561   3.909 -1.0167 -0.5505 -0.3956
 5188TIP3    H215529   6.611   5.509   3.787 -1.2796 -0.6313 -0.5182
 5189TIP3   OH215530   5.905   4.140   2.342 -0.7517  0.3743  1.0252
 5189TIP3    H115531   5.825   4.186   2.315 -1.5386 -1.1687  0.5927
 5189TIP3    H215532   5.938   4.100   2.261  0.0593  0.3847  1.3424
 5190TIP3   OH215533   5.392   2.581   3.957 -0.0820  0.2988 -0.1385
 5190TIP3    H115534   5.327   2.529   4.004  0.6848 -0.1771  0.4097
 5190TIP3    H215535   5.466   2.522   3.945  0.7875  1.2447  0.4516
 5191TIP3   OH215536   3.504   1.161   1.533 -0.1153  0.7915  0.0827
 5191TIP3    H115537   3.463   1.178   1.618 -1.1222 -0.1493 -0.1907
 5191TIP3    H215538   3.532   1.246   1.502 -1.4286  1.4140  0.5249
 5192TIP3   OH215539   7.190   2.891   3.857 -0.0269 -0.0644 -0.2856
 5192TIP3    H115540   7.095   2.880   3.858  0.0916 -1.7810  2.3470
 5192TIP3    H215541   7.222   2.816   3.807 -0.0170 -0.0817 -0.2534
 5193TIP3   OH215542   6.228   1.972   5.653 -0.0010 -0.7795 -0.0112
 5193TIP3    H115543   6.277   1.906   5.702  1.6487  0.1824 -0.2652
 5193TIP3    H215544   6.247   1.953   5.561 -0.4484 -0.6489 -0.1330
 5194TIP3   OH215545   0.636   4.595   3.006 -0.1534 -0.2498 -0.1251
 5194TIP3    H115546   0.561   4.558   3.053  0.7203 -1.6866  0.1857
 5194TIP3    H215547   0.673   4.659   3.067 -1.5881  1.0958 -0.6063
 5195TIP3   OH215548   3.312   5.637   1.016  0.2530 -0.3897 -0.2100
 5195TIP3    H115549   3.251   5.569   0.987  0.4488  0.0887 -1.8341
 5195TIP3    H215550   3.328   5.690   0.938 -0.9275  2.3547  1.2652
 5196TIP3   OH215551   6.863   4.618   1.081 -0.1379 -0.3869  0.7216
 5196TIP3    H115552   6.814   4.573   1.149 -0.5096  1.3396  1.6585
 5196TIP3    H215553   6.953   4.621   1.113 -0.1425 -0.3386  0.7299
 5197TIP3   OH215554   4.466   5.523   1.681 -0.5245  0.2837  0.0143
 5197TIP3    H115555   4.385   5.551   1.639  0.3665 -0.2987 -2.2021
 5197TIP3    H215556   4.473   5.430   1.660  0.8774  0.3956 -0.1182
 5198TIP3   OH215557   0.416   3.568   0.674 -0.2026 -0.4993  0.2662
 5198TIP3    H115558   0.344   3.519   0.713  0.3643 -1.0333  0.6625
 5198TIP3    H215559   0.473   3.591   0.748 -0.0572  0.0680 -0.0174
 5199TIP3   OH215560   2.504   4.471   0.671 -0.1115  0.2379 -0.0352
 5199TIP3    H115561   2.441   4.410   0.633  0.1884 -2.0236  2.7192
 5199TIP3    H215562   2.586   4.421   0.673  0.5804  1.3706  0.7678
 5200TIP3   OH215563   3.955   2.460   4.369 -0.9554  0.9384  0.0598
 5200TIP3    H115564   3.902   2.442   4.446  1.9801 -1.0037  1.8483
 5200TIP3    H215565   3.937   2.388   4.309 -0.6546  0.4903  0.4990
 5201TIP3   OH215566   6.488   5.798   0.880 -0.0322 -0.0359  0.5574
 5201TIP3    H115567   6.400   5.768   0.858  0.3348 -1.2970  0.7370
 5201TIP3    H215568   6.479   5.833   0.969 -0.3386 -0.2283  0.6046
 5202TIP3   OH215569   0.955   2.509   4.767 -0.0425  0.0906  0.4553
 5202TIP3    H115570   0.950   2.591   4.717  0.7212  0.2289  0.6029
 5202TIP3    H215571   1.022   2.457   4.723 -0.6618 -0.5505  0.2431
 5203TIP3   OH215572   1.110   1.130   5.769 -0.3103 -0.0546 -0.3207
 5203TIP3    H115573   1.170   1.057   5.754 -0.2663 -0.0408 -0.2151
 5203TIP3    H215574   1.163   1.208   5.752 -0.0373 -0.0151  0.6543
 5204TIP3   OH215575   6.547   0.930   4.872 -0.2819 -0.4802  0.1325
 5204TIP3    H115576   6.509   0.843   4.865 -3.6994  0.9682 -1.6209
 5204TIP3    H215577   6.570   0.954   4.782  3.8728 -0.7041  0.9353
 5205TIP3   OH215578   5.895   0.886   2.114 -0.3934  0.2276  0.4356
 5205TIP3    H115579   5.820   0.944   2.129  1.4910  3.9917 -2.9140
 5205TIP3    H215580   5.971   0.937   2.139  1.3984 -0.7413 -2.5096
 5206TIP3   OH215581   3.599   0.125   3.217  0.1479  0.1235 -0.2019
 5206TIP3    H115582   3.572   0.191   3.281 -4.2408 -1.5108 -0.0167
 5206TIP3    H215583   3.552   0.148   3.137  0.7176 -1.2010 -0.9534
 5207TIP3   OH215584   7.051   3.528   4.380  0.2582  0.8873 -0.6202
 5207TIP3    H115585   6.957   3.544   4.385  0.1441 -0.1093  1.2115
 5207TIP3    H215586   7.090   3.616   4.376 -0.7468  1.2974 -1.9085
 5208TIP3   OH215587   6.341   5.206   0.691  0.0424  0.4305 -0.8869
 5208TIP3    H115588   6.383   5.121   0.679 -0.1847  0.0156  0.9051
 5208TIP3    H215589   6.282   5.193   0.766  0.1447  2.1933 -0.4550
 5209TIP3   OH215590   3.358   3.680   5.027  0.0014 -0.0434 -0.2661
 5209TIP3    H115591   3.446   3.657   4.997 -0.0409 -1.4255  0.5738
 5209TIP3    H215592   3.309   3.598   5.020 -1.3188  0.7703 -1.0038
 5210TIP3   OH215593   7.028   5.303   3.129 -0.5799 -0.6205 -0.0749
 5210TIP3    H115594   7.078   5.330   3.206 -1.5918 -1.9615  1.0964
 5210TIP3    H215595   7.082   5.330   3.055  0.6071  0.3497  1.1028
 5211TIP3   OH215596   0.600   2.965   3.849  0.4300  0.1867 -0.4960
 5211TIP3    H115597   0.657   3.031   3.889 -0.5102  0.6231  0.1678
 5211TIP3    H215598   0.529   3.016   3.810 -0.3513 -0.4194  0.0967
 5212TIP3   OH215599   5.435   4.777   0.524  0.4074  0.1639  0.5423
 5212TIP3    H115600   5.475   4.691   0.528 -0.1533 -0.1106  0.3513
 5212TIP3    H215601   5.509   4.838   0.525  0.8219 -0.3264  0.2249
 5213TIP3   OH215602   3.899   3.100   2.454  0.2608 -0.3636  0.4451
 5213TIP3    H115603   3.937   3.038   2.516  0.9491  0.3372  0.7435
 5213TIP3    H215604   3.826   3.140   2.500 -1.5211 -2.4008 -0.4560
 5214TIP3   OH215605   2.407   6.475   2.832  0.3321 -0.0397 -0.0193
 5214TIP3    H115606   2.430   6.455   2.742  0.7502 -0.2260  0.1242
 5214TIP3    H215607   2.399   6.570   2.834  2.5985  0.2057  0.2419
 5215TIP3   OH215608   4.370   3.494   1.453  0.5396 -0.5002 -0.4702
 5215TIP3    H115609   4.445   3.436   1.443 -0.1570 -1.4022 -0.6479
 5215TIP3    H215610   4.320   3.455   1.525  0.6156  0.5094  0.1409
 5216TIP3   OH215611   7.106   3.537   4.956  0.6273  0.0733  0.5639
 5216TIP3    H115612   7.013   3.524   4.976  0.1346  0.0728 -1.4707
 5216TIP3    H215613   7.150   3.464   4.997 -0.2905  0.0061  1.4576
 5217TIP3   OH215614   6.947   4.241   3.159 -0.2947  0.5133  0.1062
 5217TIP3    H115615   6.855   4.218   3.174 -0.4684  1.3595  0.3898
 5217TIP3    H215616   6.944   4.331   3.127  0.3940  0.2983 -0.5793
 5218TIP3   OH215617   4.804   4.759   3.418  0.1523 -0.4994 -0.2891
 5218TIP3    H115618   4.748   4.756   3.495 -1.8494  0.7929 -1.6027
 5218TIP3    H215619   4.809   4.668   3.388  1.6269 -1.1510  1.7363
 5219TIP3   OH215620   3.554   0.734   0.887  0.1492 -0.0539  0.2067
 5219TIP3    H115621   3.587   0.693   0.807  0.5735  0.0110  0.3474
 5219TIP3    H215622   3.556   0.828   0.870 -0.4248 -0.0670  0.0395
 5220TIP3   OH215623   5.258   6.057   0.297  0.2515  0.0451  0.1786
 5220TIP3    H115624   5.301   6.138   0.326  1.0684 -1.0686  2.3169
 5220TIP3    H215625   5.330   5.996   0.281 -0.3954 -0.6409 -0.1736
 5221TIP3   OH215626   1.170   3.230   1.030 -0.3592 -0.3656 -0.3942
 5221TIP3    H115627   1.171   3.143   0.989 -0.7136 -0.3002 -0.5464
 5221TIP3    H215628   1.194   3.290   0.960  0.3306 -0.3808 -0.1784
 5222TIP3   OH215629   5.274   4.837   1.397  0.1414  0.3483  0.1171
 5222TIP3    H115630   5.208   4.868   1.460 -0.2249  0.0622 -0.1262
 5222TIP3    H215631   5.358   4.861   1.437 -0.1304  2.1980 -0.3268
 5223TIP3   OH215632   6.558   4.229   5.607  0.4352 -0.3827 -0.3703
 5223TIP3    H115633   6.514   4.254   5.688 -0.8222 -1.0053 -0.8282
 5223TIP3    H215634   6.617   4.158   5.633  1.8688  1.0279  0.4041
 5224TIP3   OH215635   3.584   1.190   4.415  0.4793 -0.1036 -0.0679
 5224TIP3    H115636   3.623   1.210   4.500 -0.2579 -0.2179  0.3032
 5224TIP3    H215637   3.615   1.102   4.394  0.8886  0.0360 -0.0537
 5225TIP3   OH215638   6.705   1.903   2.244  0.3245  0.6064  0.2187
 5225TIP3    H115639   6.630   1.923   2.300 -0.5701 -0.3515 -0.5901
 5225TIP3    H215640   6.769   1.972   2.263 -0.4288  0.9729  1.5271
 5226TIP3   OH215641   5.382   3.585   3.487  0.3291  0.1823  0.1235
 5226TIP3    H115642   5.440   3.653   3.454 -0.2090  0.5331 -0.1235
 5226TIP3    H215643   5.350   3.540   3.409  0.9546 -0.6006  0.2997
 5227TIP3   OH215644   1.308   1.697   0.746 -0.0813 -0.4316  0.4446
 5227TIP3    H115645   1.340   1.634   0.810 -0.2111  0.7155  1.6875
 5227TIP3    H215646   1.370   1.770   0.751  0.9054 -0.9900 -2.0003
 5228TIP3   OH215647   0.867   5.645   0.756 -0.4266 -0.3889 -0.4920
 5228TIP3    H115648   0.832   5.707   0.820  1.5627  1.7960 -1.3871
 5228TIP3    H215649   0.932   5.595   0.805  1.0865  1.2724 -0.6947
 5229TIP3   OH215650   3.070   2.589   2.428  0.4234  0.2053  0.0579
 5229TIP3    H115651   2.998   2.646   2.457 -0.1136 -0.4265 -0.0280
 5229TIP3    H215652   3.122   2.575   2.508  0.5112  0.7279  0.1023
 5230TIP3   OH215653   3.637   3.553   1.789 -0.0768  0.5759 -0.1170
 5230TIP3    H115654   3.672   3.497   1.720 -1.5809  1.0996 -1.3720
 5230TIP3    H215655   3.685   3.636   1.780 -0.1681  0.5933 -0.4265
 5231TIP3   OH215656   2.255   5.887   5.774  0.3135  0.7003 -0.2157
 5231TIP3    H115657   2.328   5.903   5.715  0.1072 -1.4790 -1.1632
 5231TIP3    H215658   2.182   5.937   5.737  0.4482  0.1244 -1.2973
 5232TIP3   OH215659   1.233   0.164   2.854 -0.5968 -1.1282  0.0181
 5232TIP3    H115660   1.240   0.235   2.917 -1.3974 -1.0920  0.0705
 5232TIP3    H215661   1.298   0.186   2.786  1.9855 -2.3618  1.9259
 5233TIP3   OH215662   0.654   2.472   3.471 -0.1722 -0.0078 -0.2696
 5233TIP3    H115663   0.718   2.474   3.542 -1.1135  0.7506  0.5745
 5233TIP3    H215664   0.570   2.486   3.513 -0.7051  0.9418 -1.5913
 5234TIP3   OH215665   6.689   3.463   1.405 -0.0987 -0.2256  0.0263
 5234TIP3    H115666   6.782   3.444   1.415 -0.0782  0.6733  1.9786
 5234TIP3    H215667   6.650   3.379   1.380  0.9557 -1.1445  1.3083
 5235TIP3   OH215668   4.692   5.093   3.644  0.7709 -0.2247 -0.1424
 5235TIP3    H115669   4.759   5.137   3.697  0.9846 -1.7316  0.9072
 5235TIP3    H215670   4.691   5.003   3.676  0.4895 -1.0641 -2.3506
 5236TIP3   OH215671   1.409   2.893   4.530 -0.5110 -0.3618  0.5956
 5236TIP3    H115672   1.431   2.918   4.620  0.7491  1.5506 -0.1893
 5236TIP3    H215673   1.364   2.969   4.494  0.6634 -0.3516 -0.9442
 5237TIP3   OH215674   6.300   0.511   2.626  0.1216  0.0025  0.3587
 5237TIP3    H115675   6.237   0.505   2.698  0.1606  1.3451  0.5172
 5237TIP3    H215676   6.288   0.429   2.577 -1.4007  0.0269  0.6491
 5238TIP3   OH215677   4.155   6.021   1.515 -0.4668  0.0618  0.1281
 5238TIP3    H115678   4.170   6.113   1.496 -0.6289 -0.1474 -1.0700
 5238TIP3    H215679   4.069   6.002   1.477 -0.7623 -0.4175  1.0009
 5239TIP3   OH215680   1.794   0.991   4.328  0.1406 -0.1432  0.1623
 5239TIP3    H115681   1.743   1.029   4.257  0.2859  1.1766  0.7279
 5239TIP3    H215682   1.735   0.995   4.404  0.7891  0.6669  0.6406
 5240TIP3   OH215683   4.065   6.486   3.464 -0.0476  0.5405  0.4033
 5240TIP3    H115684   4.053   6.566   3.514  1.2059 -0.3555  2.2345
 5240TIP3    H215685   4.149   6.499   3.418  0.2394  0.2245  0.8332
 5241TIP3   OH215686   7.116   3.485   1.242  0.4500  0.1053 -0.1984
 5241TIP3    H115687   7.166   3.566   1.249 -1.0820  1.1328 -0.8129
 5241TIP3    H215688   7.174   3.426   1.192  0.9595  1.3334 -1.1002
 5242TIP3   OH215689   1.647   6.471   1.976 -0.7149 -0.0321  0.1934
 5242TIP3    H115690   1.634   6.563   1.999 -1.2169 -0.0421 -0.0300
 5242TIP3    H215691   1.564   6.429   1.997 -0.4143 -0.4766  0.4925
 5243TIP3   OH215692   4.266   1.118   0.386 -0.3935 -0.0685 -0.5045
 5243TIP3    H115693   4.236   1.027   0.383 -3.4565  0.7629  0.6981
 5243TIP3    H215694   4.311   1.126   0.470  2.0339 -0.9289 -1.6128
 5244TIP3   OH215695   1.612   1.173   3.605 -0.4051  0.3225 -0.1820
 5244TIP3    H115696   1.588   1.102   3.545 -1.4949  0.6233 -0.1190
 5244TIP3    H215697   1.530   1.220   3.621 -0.0645  0.4865  1.2346
 5245TIP3   OH215698   3.650   4.423   0.806 -0.3909  0.7831  0.8287
 5245TIP3    H115699   3.611   4.470   0.880  0.0538  1.4249  0.6665
 5245TIP3    H215700   3.701   4.490   0.760 -0.4720  0.3349  0.0789
 5246TIP3   OH215701   5.478   0.382   3.618  0.1071 -0.0378 -0.0696
 5246TIP3    H115702   5.573   0.375   3.628  0.1217  0.1744 -0.0620
 5246TIP3    H215703   5.445   0.295   3.643  0.2783 -0.0409  0.1482
 5247TIP3   OH215704   5.253   4.529   4.285 -0.0349  0.2602 -0.1795
 5247TIP3    H115705   5.236   4.617   4.319 -1.8278 -0.3477  0.6234
 5247TIP3    H215706   5.346   4.530   4.263  0.0553  2.2657  0.0617
 5248TIP3   OH215707   1.583   1.910   2.799  0.0015 -0.1616 -0.0674
 5248TIP3    H115708   1.674   1.888   2.820 -0.1106 -0.6974 -0.1240
 5248TIP3    H215709   1.531   1.855   2.858 -0.3375 -2.1372 -2.1046
 5249TIP3   OH215710   4.544   3.206   0.494 -0.1547  0.6130 -0.0626
 5249TIP3    H115711   4.525   3.119   0.527 -2.0005  0.1927 -2.0301
 5249TIP3    H215712   4.475   3.262   0.530  0.1891  0.9797  0.0425
 5250TIP3   OH215713   0.044   3.978   0.265  0.8816  0.9064  0.1405
 5250TIP3    H115714   0.137   3.958   0.274  0.5733 -0.5742  0.3343
 5250TIP3    H215715   0.011   3.911   0.204 -0.5811 -0.3634  2.1898
 5251TIP3   OH215716   2.684   3.291   1.378 -0.0145  0.2041  0.1853
 5251TIP3    H115717   2.659   3.220   1.437  0.0593  1.5415  1.8911
 5251TIP3    H215718   2.609   3.302   1.320 -0.2451 -0.8972  0.2662
 5252TIP3   OH215719   3.271   0.793   5.626 -0.0091  0.1621 -0.2300
 5252TIP3    H115720   3.266   0.857   5.697 -0.7615  0.2787 -0.3746
 5252TIP3    H215721   3.355   0.749   5.639 -0.7331 -0.7920  1.5733
 5253TIP3   OH215722   3.794   4.438   5.637  0.4360  0.3547  0.7751
 5253TIP3    H115723   3.816   4.512   5.694  1.7376  1.0254 -0.5491
 5253TIP3    H215724   3.861   4.440   5.569 -0.1963 -1.3609  0.0746
 5254TIP3   OH215725   5.477   0.419   5.495 -0.4406 -0.4744 -0.2579
 5254TIP3    H115726   5.551   0.404   5.554 -0.7473  0.8788  0.4997
 5254TIP3    H215727   5.515   0.457   5.416 -0.3036 -0.0195  0.0295
 5255TIP3   OH215728   3.105   4.593   1.417  0.0397 -0.5314 -0.3630
 5255TIP3    H115729   3.140   4.666   1.468 -0.8265 -0.3975  0.0649
 5255TIP3    H215730   3.162   4.519   1.437  0.9550  0.0304 -0.8357
 5256TIP3   OH215731   0.974   0.638   4.464 -0.7690  0.6390  0.0523
 5256TIP3    H115732   0.968   0.562   4.406  0.2558  1.1256 -0.7214
 5256TIP3    H215733   0.896   0.632   4.519 -0.1729 -1.6123  0.7989
 5257TIP3   OH215734   5.983   6.679   3.239 -0.2839  0.0642 -0.8215
 5257TIP3    H115735   6.008   6.701   3.149  1.0507 -1.4902 -0.8942
 5257TIP3    H215736   6.028   6.743   3.293  0.4368 -0.1155 -1.1919
 5258TIP3   OH215737   0.742   2.719   3.933 -0.1144  0.6886  0.6891
 5258TIP3    H115738   0.725   2.803   3.891  0.3518  0.3994 -0.0873
 5258TIP3    H215739   0.675   2.712   4.001  0.7781  2.4193  1.8397
 5259TIP3   OH215740   4.299   6.607   5.668  0.5471 -0.0579  0.7306
 5259TIP3    H115741   4.369   6.543   5.659  0.3095 -0.5114  1.9055
 5259TIP3    H215742   4.272   6.626   5.578  0.9936 -1.1901  0.3380
 5260TIP3   OH215743   5.222   3.163   2.524 -0.0329  0.0927 -0.2962
 5260TIP3    H115744   5.278   3.143   2.448 -0.2807 -0.2578 -0.3912
 5260TIP3    H215745   5.212   3.078   2.568  0.7564  0.4426  0.5717
 5261TIP3   OH215746   2.275   0.273   1.292  0.3719  0.4699 -0.5302
 5261TIP3    H115747   2.319   0.312   1.368  0.3958 -1.5965  0.6094
 5261TIP3    H215748   2.208   0.337   1.268  0.0044  0.9958  1.6156
 5262TIP3   OH215749   5.624   2.484   4.097  0.0042 -0.1006 -0.6698
 5262TIP3    H115750   5.688   2.533   4.046  0.7944  1.0514  1.3272
 5262TIP3    H215751   5.677   2.432   4.158 -0.9052  0.3660  0.5660
 5263TIP3   OH215752   2.592   5.452   5.137 -0.1341  0.3010  0.1051
 5263TIP3    H115753   2.498   5.454   5.155 -0.3783 -0.3870 -0.9702
 5263TIP3    H215754   2.605   5.521   5.071  0.0320  0.1128 -0.0629
 5264TIP3   OH215755   2.496   6.747   5.245 -0.4479 -0.6624 -0.2327
 5264TIP3    H115756   2.497   6.655   5.219 -0.3482 -0.4129 -1.1500
 5264TIP3    H215757   2.435   6.789   5.184 -1.4266 -0.3171  0.9344
 5265TIP3   OH215758   6.077   3.745   4.527 -0.2130 -0.0180 -0.4193
 5265TIP3    H115759   6.049   3.676   4.587  1.1891  0.1147  0.4495
 5265TIP3    H215760   6.055   3.713   4.440  1.5629 -2.1590 -0.1475
 5266TIP3   OH215761   5.519   2.959   1.831  0.1523  0.1074 -0.2525
 5266TIP3    H115762   5.436   2.923   1.798  0.3450 -1.3328  0.7135
 5266TIP3    H215763   5.584   2.892   1.810  0.9683  0.9389 -0.4279
 5267TIP3   OH215764   3.804   3.816   1.032  0.1489  0.5489  0.3413
 5267TIP3    H115765   3.898   3.805   1.047  0.9020  0.5929 -3.3767
 5267TIP3    H215766   3.789   3.910   1.041  0.7119  0.6793 -0.0330
 5268TIP3   OH215767   2.313   2.454   2.507 -0.1492 -0.2629  0.2794
 5268TIP3    H115768   2.261   2.533   2.488 -1.7559 -1.1852  0.6318
 5268TIP3    H215769   2.351   2.429   2.423  2.1384  2.0159  0.5241
 5269TIP3   OH215770   6.380   2.628   5.636  0.8399 -0.3188 -0.2326
 5269TIP3    H115771   6.439   2.609   5.563  2.9567  0.7262  1.0922
 5269TIP3    H215772   6.438   2.656   5.706 -1.3393  2.1508  0.7516
 5270TIP3   OH215773   0.874   4.537   2.117 -0.3153  0.6384  0.2001
 5270TIP3    H115774   0.958   4.583   2.122 -0.2725  0.5125  0.6437
 5270TIP3    H215775   0.898   4.444   2.114 -0.4602  0.5705  1.0197
 5271TIP3   OH215776   7.140   2.932   4.667 -0.6981  0.0744  0.8099
 5271TIP3    H115777   7.053   2.926   4.627 -0.8857 -0.3757  1.2771
 5271TIP3    H215778   7.163   3.025   4.659 -1.0462  0.1288  0.3246
 5272TIP3   OH215779   5.624   4.864   3.705  0.1164  0.1826  0.1914
 5272TIP3    H115780   5.529   4.854   3.717 -0.0167  0.2983 -0.6638
 5272TIP3    H215781   5.634   4.954   3.671  0.4909  0.0334 -0.1006
 5273TIP3   OH215782   6.672   2.127   5.649 -0.3037  0.1761 -0.7943
 5273TIP3    H115783   6.621   2.108   5.727  1.1234 -0.9383 -0.0828
 5273TIP3    H215784   6.717   2.045   5.629  0.3805  0.8169 -2.0042
 5274TIP3   OH215785   0.295   2.812   1.082  0.2276 -0.6344 -0.1299
 5274TIP3    H115786   0.225   2.805   1.147  0.0702  0.6276 -0.1327
 5274TIP3    H215787   0.251   2.845   1.003  0.8683  0.4832 -0.0353
 5275TIP3   OH215788   4.509   2.589   0.975 -0.5460 -0.0352 -0.0826
 5275TIP3    H115789   4.415   2.606   0.963 -0.1042  1.4609 -1.8594
 5275TIP3    H215790   4.516   2.494   0.979 -2.2156 -0.1627  1.1285
 5276TIP3   OH215791   4.778   1.953   5.089 -0.4283 -0.2791  0.3744
 5276TIP3    H115792   4.766   1.859   5.080 -1.7176 -0.1802  0.8459
 5276TIP3    H215793   4.700   1.991   5.047 -0.6549  0.5200  1.4891
 5277TIP3   OH215794   6.380   2.511   1.037 -0.4180  0.3516 -0.1577
 5277TIP3    H115795   6.404   2.527   1.128 -0.2526  1.3395 -0.3573
 5277TIP3    H215796   6.373   2.599   0.999  2.4466 -0.0499 -1.8630
 5278TIP3   OH215797   6.121   4.216   5.450  0.5043  0.8425  0.0767
 5278TIP3    H115798   6.152   4.221   5.541 -0.1899 -1.0031  0.4561
 5278TIP3    H215799   6.028   4.239   5.456 -0.2284 -1.8635  0.3216
 5279TIP3   OH215800   1.196   4.298   3.373  0.4693  0.0545 -0.4560
 5279TIP3    H115801   1.156   4.328   3.291 -1.5579  0.0830  0.4930
 5279TIP3    H215802   1.266   4.240   3.344  0.2466  0.5798 -2.2242
 5280TIP3   OH215803   1.175   1.088   0.990  0.0174 -0.0221 -0.1784
 5280TIP3    H115804   1.087   1.054   0.978  0.0125 -0.0760  0.0104
 5280TIP3    H215805   1.190   1.144   0.914 -0.2642  0.1637 -0.0979
 5281TIP3   OH215806   6.164   2.581   3.810 -0.2143 -0.0197 -0.3077
 5281TIP3    H115807   6.219   2.655   3.784 -1.0625  0.4152 -0.9015
 5281TIP3    H215808   6.128   2.607   3.895 -0.3395  0.1638 -0.4154
 5282TIP3   OH215809   0.342   2.693   5.031  0.0491 -0.4739  0.0884
 5282TIP3    H115810   0.397   2.717   5.106  0.3547  0.3966 -0.3984
 5282TIP3    H215811   0.404   2.679   4.959 -0.3880  1.4064 -0.7013
 5283TIP3   OH215812   3.504   4.046   3.950 -0.3475  0.3701 -0.1852
 5283TIP3    H115813   3.593   4.079   3.938 -0.1705  0.0183  0.1085
 5283TIP3    H215814   3.492   3.983   3.879 -0.2921  0.2828 -0.1182
 5284TIP3   OH215815   4.825   5.569   2.481  0.3721 -0.0204 -0.0484
 5284TIP3    H115816   4.760   5.509   2.519  1.1500 -1.8395 -1.4249
 5284TIP3    H215817   4.905   5.517   2.474  1.7799  1.9189  0.8319
 5285TIP3   OH215818   1.402   4.017   2.288 -0.6151  0.4630 -0.1981
 5285TIP3    H115819   1.386   4.065   2.207  3.3558  1.9116 -0.3485
 5285TIP3    H215820   1.389   4.081   2.357  1.8899  1.1156 -0.2190
 5286TIP3   OH215821   0.747   3.245   0.348 -0.4303  0.1075 -0.5035
 5286TIP3    H115822   0.655   3.224   0.364 -0.0157 -2.3172 -1.0091
 5286TIP3    H215823   0.765   3.211   0.261  1.2996 -0.7093  0.1309
 5287TIP3   OH215824   4.417   1.001   1.371 -0.0353  0.1711 -0.1475
 5287TIP3    H115825   4.417   0.914   1.331 -1.7330 -0.7702  1.7125
 5287TIP3    H215826   4.509   1.017   1.394  0.1575 -1.6877  0.5550
 5288TIP3   OH215827   2.480   1.646   1.614  0.3801 -0.5076 -0.3178
 5288TIP3    H115828   2.404   1.664   1.558 -0.9481  0.3080  1.6489
 5288TIP3    H215829   2.488   1.550   1.612  0.3475 -0.5166 -1.7968
 5289TIP3   OH215830   0.469   0.557   2.406  0.1899  0.1941  0.0295
 5289TIP3    H115831   0.522   0.521   2.334 -0.5991  0.9783 -0.9802
 5289TIP3    H215832   0.427   0.634   2.368 -0.2957  0.5958  1.3359
 5290TIP3   OH215833   5.477   1.251   3.261  0.2732  0.1151  0.0699
 5290TIP3    H115834   5.461   1.274   3.169 -1.8402 -0.3145  0.2773
 5290TIP3    H215835   5.417   1.179   3.279  0.9560 -0.1011  1.6868
 5291TIP3   OH215836   5.390   0.345   5.798 -0.4708 -0.5538 -0.2138
 5291TIP3    H115837   5.467   0.400   5.784 -1.1891  0.7329  0.6613
 5291TIP3    H215838   5.417   0.258   5.770  1.3031 -0.1284  0.0518
 5292TIP3   OH215839   5.036   1.788   1.657  0.0845  0.1303 -0.0354
 5292TIP3    H115840   5.068   1.746   1.737 -0.1432  0.4890  0.2483
 5292TIP3    H215841   4.941   1.777   1.661  0.0516  0.3897 -0.1182
 5293TIP3   OH215842   0.168   6.496   5.118  0.1943 -0.2931 -0.4243
 5293TIP3    H115843   0.195   6.560   5.184 -0.2035 -1.1314  0.5796
 5293TIP3    H215844   0.204   6.413   5.149  2.7364 -0.2710 -2.9219
 5294TIP3   OH215845   2.371   2.696   2.688 -0.6145 -0.2330 -0.4779
 5294TIP3    H115846   2.458   2.666   2.662 -0.9785  0.2070 -2.3087
 5294TIP3    H215847   2.313   2.667   2.618 -1.7040  0.8167 -0.0479
 5295TIP3   OH215848   5.819   2.687   5.005 -0.4972 -0.0640  0.3865
 5295TIP3    H115849   5.882   2.689   5.077 -1.1522  0.5698  0.9592
 5295TIP3    H215850   5.805   2.779   4.983 -0.0329 -0.2608 -0.8104
 5296TIP3   OH215851   4.031   1.257   1.110  0.4930  0.5468 -0.1093
 5296TIP3    H115852   4.022   1.245   1.016 -0.2342  1.1741 -0.1259
 5296TIP3    H215853   4.076   1.177   1.140  1.7316  0.8256 -1.1234
 5297TIP3   OH215854   6.361   5.950   4.495  0.5504  0.1209 -0.6182
 5297TIP3    H115855   6.289   5.913   4.445 -0.2196  0.2908  0.3352
 5297TIP3    H215856   6.336   6.041   4.509 -0.4080 -0.4392  2.0082
 5298TIP3   OH215857   5.665   4.109   5.005  0.0020 -0.2867 -0.1087
 5298TIP3    H115858   5.711   4.129   4.924 -0.6413  0.1579 -0.3715
 5298TIP3    H215859   5.735   4.091   5.069  0.4952 -2.4479 -1.1932
 5299TIP3   OH215860   1.343   3.833   3.374 -0.3551  0.9645  0.2479
 5299TIP3    H115861   1.425   3.880   3.389  0.8460 -0.8922 -0.1326
 5299TIP3    H215862   1.320   3.797   3.460 -0.3544  0.8687  0.2088
 5300TIP3   OH215863   1.373   3.537   4.098 -0.0409  0.1106  0.3891
 5300TIP3    H115864   1.457   3.549   4.053  1.1313 -3.5543  1.2138
 5300TIP3    H215865   1.309   3.528   4.028  0.9810 -0.9064 -0.4560
 5301TIP3   OH215866   2.221   3.614   0.909  0.0439 -0.1229 -0.2959
 5301TIP3    H115867   2.248   3.657   0.828  0.1788  1.4272  0.5306
 5301TIP3    H215868   2.274   3.656   0.977 -2.7950  1.5056  1.1209
 5302TIP3   OH215869   0.842   2.705   0.208  0.0853  0.7677 -0.2205
 5302TIP3    H115870   0.829   2.770   0.277 -0.3103 -0.5970  1.0248
 5302TIP3    H215871   0.756   2.665   0.195  0.9651 -1.9594  1.5908
 5303TIP3   OH215872   4.410   5.854   0.624 -0.1160  0.2665  0.3646
 5303TIP3    H115873   4.499   5.875   0.650  0.0735  0.7781 -0.6521
 5303TIP3    H215874   4.366   5.829   0.706  1.4839 -1.9939  0.6260
 5304TIP3   OH215875   7.127   6.276   4.214  0.4330 -0.4225  0.4818
 5304TIP3    H115876   7.206   6.241   4.172 -0.1980 -1.0615 -0.2091
 5304TIP3    H215877   7.141   6.370   4.215  1.3197 -0.5414  0.6081
 5305TIP3   OH215878   4.519   2.902   0.832 -0.1317  0.0956  0.4009
 5305TIP3    H115879   4.459   2.938   0.897 -3.1786 -0.5326 -1.8311
 5305TIP3    H215880   4.488   2.939   0.749  1.7956 -1.3191 -1.0186
 5306TIP3   OH215881  -0.018   0.913   0.880  0.3855 -0.6532  0.7807
 5306TIP3    H115882  -0.002   0.890   0.788 -0.4705  0.1163  0.4168
 5306TIP3    H215883   0.044   0.983   0.899 -1.0605  0.9033  0.0058
 5307TIP3   OH215884   0.993   3.507   2.936 -0.0774 -0.4528 -0.6047
 5307TIP3    H115885   0.980   3.602   2.933  0.9024 -0.3066 -0.8754
 5307TIP3    H215886   1.029   3.486   2.850  0.8756 -0.8626 -0.1250
 5308TIP3   OH215887   0.598   5.235   2.004  0.0875 -0.1607 -0.0654
 5308TIP3    H115888   0.682   5.264   1.970 -0.9219  2.1443 -0.7662
 5308TIP3    H215889   0.549   5.206   1.927 -0.3061 -0.0658  0.1490
 5309TIP3   OH215890   1.117   0.361   2.322  0.5234  0.9494 -0.7422
 5309TIP3    H115891   1.189   0.414   2.358  0.9200  0.2189 -0.4302
 5309TIP3    H215892   1.045   0.423   2.311  0.6160  1.3557  0.6544
 5310TIP3   OH215893   6.855   2.573   1.658 -0.3861 -0.1099 -0.2252
 5310TIP3    H115894   6.823   2.636   1.722 -2.6119 -0.9069 -0.4736
 5310TIP3    H215895   6.901   2.507   1.710 -1.5948 -0.4040  0.5038
 5311TIP3   OH215896   2.385   0.814   4.447  0.3969  0.3420  0.4640
 5311TIP3    H115897   2.321   0.853   4.506 -1.9940 -2.5880  0.0544
 5311TIP3    H215898   2.431   0.749   4.501  0.3708 -0.1933 -0.1462
 5312TIP3   OH215899   6.971   2.369   1.851 -0.4092 -0.1823  0.1215
 5312TIP3    H115900   6.878   2.361   1.830  0.2163 -0.0655 -3.1207
 5312TIP3    H215901   7.011   2.289   1.819  0.8421  0.4847 -0.0600
 5313TIP3   OH215902   5.297   0.631   5.547 -0.9883  0.7931 -0.6685
 5313TIP3    H115903   5.371   0.571   5.549 -0.5490  1.3485  0.0348
 5313TIP3    H215904   5.234   0.589   5.488 -1.4267 -1.2053  1.1048
 5314TIP3   OH215905   7.147   0.603   4.905  0.1179 -0.1484  0.5664
 5314TIP3    H115906   7.221   0.616   4.845 -1.4140  0.4313 -1.3055
 5314TIP3    H215907   7.079   0.662   4.872 -1.5897 -1.5092  1.4959
 5315TIP3   OH215908   2.823   0.865   0.493 -0.1715 -0.0679 -0.4504
 5315TIP3    H115909   2.864   0.840   0.576 -0.9162 -2.9146 -0.8279
 5315TIP3    H215910   2.743   0.911   0.520  0.2664  0.2329  0.3779
 5316TIP3   OH215911   6.945   3.891   4.982  0.1220 -0.0193  0.1293
 5316TIP3    H115912   7.000   3.875   4.905  0.3719  0.0333  0.2931
 5316TIP3    H215913   6.966   3.981   5.008 -2.8279  1.4592 -2.0462
 5317TIP3   OH215914   7.131   5.286   0.773 -0.2919 -0.1994 -0.2105
 5317TIP3    H115915   7.143   5.358   0.712  0.8858 -1.5760 -1.6920
 5317TIP3    H215916   7.186   5.308   0.848  0.8086  0.0106 -1.0621
 5318TIP3   OH215917   4.242   3.218   4.774 -0.7053  0.1661  0.1175
 5318TIP3    H115918   4.203   3.220   4.687  0.5412  1.8410 -0.4631
 5318TIP3    H215919   4.242   3.309   4.802  1.8053  0.1379  0.4737
 5319TIP3   OH215920   5.251   6.694   2.570  0.2742 -0.2568  0.0721
 5319TIP3    H115921   5.207   6.614   2.600 -1.9365  0.2059 -1.7294
 5319TIP3    H215922   5.237   6.756   2.642  0.1911 -0.8590  0.5926
 5320TIP3   OH215923   1.469   0.095   2.355 -0.1749  0.1392 -0.0309
 5320TIP3    H115924   1.389   0.137   2.386  0.7806  1.4723  0.7036
 5320TIP3    H215925   1.440   0.038   2.284 -1.6175  1.5546 -0.6243
 5321TIP3   OH215926   7.140   6.734   0.930 -0.1309  0.6092 -0.5390
 5321TIP3    H115927   7.046   6.732   0.912 -0.5866  0.3336  1.5924
 5321TIP3    H215928   7.170   6.645   0.913 -0.0279  0.8958 -2.0596
 5322TIP3   OH215929   0.091   4.881   0.884  0.1387 -0.4587  0.5172
 5322TIP3    H115930   0.183   4.897   0.904  0.0203  0.6595  0.2138
 5322TIP3    H215931   0.059   4.964   0.850 -0.9687 -0.8581  0.5490
 5323TIP3   OH215932   0.221   3.619   5.183  0.3780  0.5106 -0.4734
 5323TIP3    H115933   0.192   3.529   5.171 -0.4829  0.6754  0.2375
 5323TIP3    H215934   0.143   3.672   5.169  0.8765  1.1535 -0.8977
 5324TIP3   OH215935   1.351   1.628   4.953  0.2228 -0.1675 -0.6993
 5324TIP3    H115936   1.275   1.613   5.010 -0.2607 -1.9314 -1.7629
 5324TIP3    H215937   1.426   1.605   5.008 -0.1437 -0.4746 -0.3147
 5325TIP3   OH215938   2.706   0.940   4.150  0.4329  1.0386 -0.0774
 5325TIP3    H115939   2.684   0.995   4.075 -0.1976  0.6326 -0.1924
 5325TIP3    H215940   2.679   0.992   4.226  1.2157  1.5182 -0.1109
 5326TIP3   OH215941   6.202   1.589   0.036  0.0624 -0.0828 -0.2455
 5326TIP3    H115942   6.175   1.498   0.023 -1.2893  0.0191  1.4734
 5326TIP3    H215943   6.155   1.638  -0.032 -0.2700 -0.4991 -0.3177
 5327TIP3   OH215944   5.609   0.010   4.546 -0.5178 -0.1448 -0.3156
 5327TIP3    H115945   5.529  -0.027   4.509 -1.7689  2.2204 -0.1857
 5327TIP3    H215946   5.637   0.076   4.483  1.4678 -1.0186 -0.4261
 5328TIP3   OH215947   6.899   5.843   5.322 -0.0374 -0.0383 -0.0787
 5328TIP3    H115948   6.917   5.932   5.291  0.1205 -0.2909 -0.7262
 5328TIP3    H215949   6.930   5.842   5.412  1.8016 -0.0048 -0.6667
 5329TIP3   OH215950   2.958   3.847   4.064 -0.3022  0.0108  0.2485
 5329TIP3    H115951   2.866   3.826   4.049 -0.3985  0.2512  0.4970
 5329TIP3    H215952   2.957   3.914   4.133  0.0082  0.7570 -0.4535
 5330TIP3   OH215953   2.977   0.751   2.389  0.5375 -0.0208 -0.0017
 5330TIP3    H115954   3.015   0.664   2.395  0.7134  0.0456 -0.1697
 5330TIP3    H215955   3.005   0.794   2.470 -0.0086 -0.3032  0.3390
 5331TIP3   OH215956   3.489   2.491   1.672 -0.0957  0.1325 -0.7421
 5331TIP3    H115957   3.509   2.422   1.609  0.4200 -0.7278  0.3297
 5331TIP3    H215958   3.396   2.478   1.692  0.2310 -0.9158  0.2010
 5332TIP3   OH215959   6.045   4.340   0.069  0.7914 -0.5772 -0.3663
 5332TIP3    H115960   6.059   4.269   0.131  0.6400 -1.4192 -1.2682
 5332TIP3    H215961   6.101   4.318  -0.006  0.7451  0.2558 -0.6609
 5333TIP3   OH215962   0.979   1.565   5.289 -0.8110 -0.1700 -0.4250
 5333TIP3    H115963   0.995   1.578   5.383  0.6748 -0.8889 -0.5601
 5333TIP3    H215964   1.048   1.614   5.246 -1.4361  0.0810 -1.1579
 5334TIP3   OH215965   1.225   0.397   0.902 -0.4602 -0.7676  0.2932
 5334TIP3    H115966   1.137   0.409   0.938 -0.1124 -0.4891  1.0646
 5334TIP3    H215967   1.211   0.394   0.807 -1.3203 -0.8979  0.4093
 5335TIP3   OH215968   2.630   3.271   5.013  0.5408 -0.1437  0.2150
 5335TIP3    H115969   2.722   3.293   4.999  0.0304  2.1325 -0.0398
 5335TIP3    H215970   2.603   3.227   4.932  1.3075 -0.5496  0.1700
 5336TIP3   OH215971   5.369   2.571   2.669  0.5062 -0.1036 -0.0119
 5336TIP3    H115972   5.386   2.581   2.763  3.6266  1.2182 -0.5733
 5336TIP3    H215973   5.282   2.609   2.656  0.0286 -0.2594  2.3185
 5337TIP3   OH215974   2.202   3.231   2.597  0.6986 -0.7118  0.2256
 5337TIP3    H115975   2.223   3.287   2.672  0.4543 -0.6085  0.2173
 5337TIP3    H215976   2.184   3.293   2.526 -1.4036 -0.7279  0.6759
 5338TIP3   OH215977   6.242   5.477   0.249  0.2581 -0.0823 -0.0769
 5338TIP3    H115978   6.304   5.406   0.262  1.5958  1.0370 -0.0174
 5338TIP3    H215979   6.231   5.515   0.337  1.4544  1.2502 -0.4662
 5339TIP3   OH215980   0.149   3.556   5.636 -0.5234  0.2068  0.3089
 5339TIP3    H115981   0.073   3.498   5.639 -0.4040  0.0810  0.8863
 5339TIP3    H215982   0.120   3.630   5.582 -1.0194  0.1125  0.4411
 5340TIP3   OH215983   3.331   0.477   5.208 -0.0882  0.2859 -0.1906
 5340TIP3    H115984   3.297   0.506   5.123  1.0753  1.7544 -0.1951
 5340TIP3    H215985   3.255   0.479   5.266 -0.5673  0.8291 -0.8203
 5341TIP3   OH215986   5.159   0.987   2.688 -0.4875 -0.4007 -0.2021
 5341TIP3    H115987   5.166   1.013   2.596 -2.6388  3.5909  0.5318
 5341TIP3    H215988   5.240   1.017   2.728 -0.6559  0.3532 -0.3930
 5342TIP3   OH215989   3.311   4.670   3.122 -0.8370  0.4303  0.0111
 5342TIP3    H115990   3.327   4.739   3.058  0.9708  0.4809  0.4563
 5342TIP3    H215991   3.311   4.714   3.206 -0.5844  0.0081  0.2349
 5343TIP3   OH215992   1.050   2.621   2.172 -0.2284 -0.2327  0.1185
 5343TIP3    H115993   1.097   2.585   2.097 -0.1883 -0.8002  0.4098
 5343TIP3    H215994   1.073   2.714   2.172  2.4654 -0.8088  1.3679
 5344TIP3   OH215995   0.315   5.398   1.623 -0.4413 -0.1743 -0.4553
 5344TIP3    H115996   0.370   5.476   1.633 -1.0020  0.3160 -1.0584
 5344TIP3    H215997   0.350   5.354   1.546 -0.7861  0.0476 -0.7389
 5345TIP3   OH215998   7.091   6.745   4.266 -0.1431  0.6744  0.1761
 5345TIP3    H115999   7.091   6.712   4.176 -1.2520  0.4486  0.2397
 5345TIP3    H216000   7.053   6.673   4.317 -0.4087  1.1640  0.6748
 5346TIP3   OH216001   4.789   2.305   3.120 -0.0344 -0.3740  0.1092
 5346TIP3    H116002   4.783   2.223   3.071  1.3450  0.0628 -0.8540
 5346TIP3    H216003   4.786   2.373   3.053 -1.0848  0.3878  0.8947
 5347TIP3   OH216004   4.693   6.541   0.267 -0.3890  0.3272  0.8555
 5347TIP3    H116005   4.609   6.562   0.227 -1.3711 -2.0929  1.4307
 5347TIP3    H216006   4.748   6.511   0.194 -0.2770  1.1342  0.5963
 5348TIP3   OH216007   5.587   0.576   1.127  0.3559 -0.2309  0.2188
 5348TIP3    H116008   5.500   0.613   1.143 -0.0860 -1.0948 -0.0798
 5348TIP3    H216009   5.644   0.621   1.189 -0.1329  0.9882 -0.1878
 5349TIP3   OH216010   1.995   0.988   1.946  0.6164  0.0239  0.1856
 5349TIP3    H116011   1.922   1.017   2.000 -0.6190  1.3556 -2.0250
 5349TIP3    H216012   2.071   1.033   1.981  0.5140 -1.4971  2.6362
 5350TIP3   OH216013   4.751   5.654   1.025  0.3234 -0.1696  0.2677
 5350TIP3    H116014   4.697   5.640   0.947  1.4847 -0.4792 -0.5109
 5350TIP3    H216015   4.810   5.579   1.027  1.5331  0.7507  0.3993
 5351TIP3   OH216016   3.735   5.324   0.434  0.3735 -0.0003  0.2362
 5351TIP3    H116017   3.684   5.257   0.479 -0.0345  0.2214  0.1086
 5351TIP3    H216018   3.826   5.302   0.454  0.2523 -0.6806  0.0756
 5352TIP3   OH216019   6.842   6.152   3.388  0.6495  0.1226  0.3752
 5352TIP3    H116020   6.897   6.082   3.353  0.1887  0.0922 -0.3193
 5352TIP3    H216021   6.817   6.121   3.475 -0.4036 -1.0992 -0.3145
 5353TIP3   OH216022   1.074   1.008   2.062 -0.8011 -0.7199  0.2477
 5353TIP3    H116023   1.111   1.008   1.974  2.0160  1.4304  1.2846
 5353TIP3    H216024   1.038   1.096   2.072 -1.6133 -1.1357  1.0759
 5354TIP3   OH216025   6.404   3.718   5.385  0.3843  0.0974  0.1390
 5354TIP3    H116026   6.451   3.733   5.303  0.4589 -0.8581 -0.0030
 5354TIP3    H216027   6.323   3.768   5.375  0.1510 -0.4360 -0.7403
 5355TIP3   OH216028   4.824   2.747   4.006 -0.0386 -0.1521 -0.0798
 5355TIP3    H116029   4.729   2.736   4.009  0.1815 -2.2286  0.9755
 5355TIP3    H216030   4.854   2.683   3.941  0.4037  3.4876 -3.8901
 5356TIP3   OH216031   3.288   5.111   1.900  0.2116 -0.0457 -0.4996
 5356TIP3    H116032   3.367   5.105   1.846  0.2510 -1.6432 -0.2890
 5356TIP3    H216033   3.307   5.180   1.963  0.7131  0.8703 -1.6130
 5357TIP3   OH216034   4.761   1.891   0.408  0.5515 -0.0991 -0.2989
 5357TIP3    H116035   4.794   1.975   0.438  0.0492  0.8272 -2.2058
 5357TIP3    H216036   4.836   1.850   0.365  0.7858 -0.6467  0.5955
 5358TIP3   OH216037   6.586   0.424   1.352  0.2083 -0.2453 -0.3787
 5358TIP3    H116038   6.628   0.503   1.387  1.1380 -0.6694 -0.5024
 5358TIP3    H216039   6.596   0.432   1.257 -1.4307  0.4199 -0.5309
 5359TIP3   OH216040   2.572   5.032   1.858  0.3337  0.0512  0.1928
 5359TIP3    H116041   2.603   5.028   1.768 -1.9748  0.9203 -0.7207
 5359TIP3    H216042   2.481   5.060   1.851 -0.7428 -2.3626  2.6348
 5360TIP3   OH216043   6.518   1.331   5.511  0.7352  0.0626 -0.4518
 5360TIP3    H116044   6.467   1.261   5.551  0.3999 -0.8958 -2.4398
 5360TIP3    H216045   6.458   1.372   5.449  0.7764  2.4622  0.9885
 5361TIP3   OH216046   4.689   1.562   3.983  0.5844 -0.1021 -0.0224
 5361TIP3    H116047   4.606   1.514   3.977  0.0920  0.6490  0.4189
 5361TIP3    H216048   4.749   1.502   4.026 -0.4959  0.2144  2.0720
 5362TIP3   OH216049   5.923   3.078   1.666 -0.2524 -0.1988  0.3343
 5362TIP3    H116050   5.866   3.056   1.592 -0.1528  0.6745 -0.0110
 5362TIP3    H216051   5.869   3.061   1.743  0.2983 -3.1088  0.2027
 5363TIP3   OH216052   6.553   4.117   4.352 -0.3034  0.1315  0.3544
 5363TIP3    H116053   6.585   4.111   4.442 -0.4601 -0.9743  0.3488
 5363TIP3    H216054   6.624   4.161   4.305 -0.1887  0.6513  0.9980
 5364TIP3   OH216055   0.309   0.769   0.186  0.1860 -0.2498 -0.2145
 5364TIP3    H116056   0.264   0.849   0.157 -2.0452 -1.9134 -1.6425
 5364TIP3    H216057   0.352   0.794   0.268 -1.2795  2.1165 -0.0738
 5365TIP3   OH216058   1.095   5.802   1.580 -0.0515  0.1109 -0.1994
 5365TIP3    H116059   1.144   5.836   1.505 -0.2782  0.1745 -0.3186
 5365TIP3    H216060   1.006   5.792   1.548 -0.3253  0.8896  0.2861
 5366TIP3   OH216061   1.113   0.552   1.540  0.0514  0.0196  0.1723
 5366TIP3    H116062   1.186   0.553   1.478 -0.4397 -1.3259 -0.4645
 5366TIP3    H216063   1.155   0.544   1.626  0.7852  2.9716  0.1956
 5367TIP3   OH216064   0.083   5.086   1.675  0.0200  0.1049  0.4138
 5367TIP3    H116065   0.033   5.024   1.729  1.9588 -0.1627  2.0358
 5367TIP3    H216066   0.143   5.128   1.737  0.9679  1.2825 -1.2249
 5368TIP3   OH216067   1.208   1.359   5.602  0.1928 -0.4769  0.0895
 5368TIP3    H116068   1.112   1.360   5.599  0.2228 -0.9224 -1.8168
 5368TIP3    H216069   1.235   1.429   5.543  1.0890  1.4735  2.6376
 5369TIP3   OH216070   2.248   5.600   0.153  0.2245  0.1555 -0.2397
 5369TIP3    H116071   2.304   5.665   0.110  1.7795 -0.6731  0.4658
 5369TIP3    H216072   2.254   5.621   0.246 -0.3257 -0.2135 -0.1151
 5370TIP3   OH216073   0.096   3.102   5.630 -0.0954 -0.3114 -0.5681
 5370TIP3    H116074   0.164   3.156   5.671 -1.6647  0.3677  1.3138
 5370TIP3    H216075   0.123   3.094   5.539  0.7375  2.8521 -0.7159
 5371TIP3   OH216076   3.158   6.279   2.331 -0.0179 -0.0800 -0.1141
 5371TIP3    H116077   3.127   6.366   2.305  1.7949  0.2505 -1.3494
 5371TIP3    H216078   3.249   6.276   2.301 -0.0815 -2.4743 -0.2576
 5372TIP3   OH216079   1.688   4.196   5.415 -0.2129 -0.0176  0.5463
 5372TIP3    H116080   1.661   4.212   5.506  0.1716 -0.3961  0.7296
 5372TIP3    H216081   1.609   4.163   5.372  0.0283 -1.4634  1.1658
 5373TIP3   OH216082   5.231   1.059   5.013 -0.1234  0.2241  0.1438
 5373TIP3    H116083   5.310   1.006   5.024  0.2806  0.8585  0.3872
 5373TIP3    H216084   5.180   1.014   4.946  0.7506  0.1518 -0.4840
 5374TIP3   OH216085   6.327   3.276   5.619  0.5875  0.4484  0.4419
 5374TIP3    H116086   6.412   3.303   5.583  1.0250 -1.3197  0.0450
 5374TIP3    H216087   6.266   3.287   5.546  0.9549 -0.5459 -0.0350
 5375TIP3   OH216088   5.743   0.299   3.553  0.3828  0.3687  0.1344
 5375TIP3    H116089   5.807   0.308   3.624  0.8482 -0.5935 -0.1453
 5375TIP3    H216090   5.767   0.367   3.490  0.9553  0.2156  0.1764
 5376TIP3   OH216091   5.442   2.126   2.437  0.2874  0.4607  0.9042
 5376TIP3    H116092   5.480   2.158   2.355  0.7785 -0.2742  0.8315
 5376TIP3    H216093   5.401   2.202   2.476  0.2575  0.8767  0.0865
 5377TIP3   OH216094   1.697   3.274   4.370 -0.1667 -0.0035  0.6808
 5377TIP3    H116095   1.646   3.340   4.416 -0.7923 -0.0814  0.1210
 5377TIP3    H216096   1.631   3.221   4.325  0.4356  0.1725 -0.4271
 5378TIP3   OH216097   6.041   4.338   1.779 -0.1406 -0.1735 -0.5028
 5378TIP3    H116098   6.069   4.335   1.871 -3.2133 -0.3178  0.5348
 5378TIP3    H216099   6.031   4.431   1.760 -0.8633 -0.1737 -0.1824
 5379TIP3   OH216100   2.790   2.560   5.580  0.5991  0.0444 -0.3247
 5379TIP3    H116101   2.738   2.512   5.515  0.8669  0.5239 -0.9037
 5379TIP3    H216102   2.840   2.623   5.529  1.5188 -0.1884  0.2618
 5380TIP3   OH216103   0.151   6.128   0.686  0.3620 -0.3378  0.4012
 5380TIP3    H116104   0.230   6.119   0.633  1.4004 -0.4121  1.9065
 5380TIP3    H216105   0.079   6.107   0.625  1.5312 -1.0001 -0.8132
 5381TIP3   OH216106   1.520   5.057   2.153 -0.0225  0.0247  0.4173
 5381TIP3    H116107   1.597   5.099   2.115  1.6898 -1.7321  1.7281
 5381TIP3    H216108   1.531   4.964   2.133 -0.9374 -0.4751  2.0320
 5382TIP3   OH216109   2.719   6.438   2.046  0.1625 -0.5722  0.3756
 5382TIP3    H116110   2.748   6.371   1.984  0.5680 -1.2763  1.3125
 5382TIP3    H216111   2.754   6.520   2.011 -1.4968 -0.6043 -1.5354
 5383TIP3   OH216112   4.334   3.826   0.934  0.2540 -0.6222 -0.6347
 5383TIP3    H116113   4.273   3.857   1.001 -1.4034 -0.9579 -1.9224
 5383TIP3    H216114   4.411   3.798   0.983 -0.6597 -0.2941  1.0696
 5384TIP3   OH216115   7.130   0.443   4.499 -0.2153  0.2349 -0.5976
 5384TIP3    H116116   7.055   0.431   4.557  0.4832 -1.4072  0.0285
 5384TIP3    H216117   7.099   0.416   4.413 -0.2651 -0.8736 -0.2548
 5385TIP3   OH216118   2.382   1.911   4.982 -0.6090  0.4048  0.3192
 5385TIP3    H116119   2.338   1.832   5.012  0.8010 -0.3164  0.5807
 5385TIP3    H216120   2.332   1.939   4.906 -1.3331 -0.5510  0.4283
 5386TIP3   OH216121   4.923   2.516   0.638  0.5663  0.1107  0.3713
 5386TIP3    H116122   4.915   2.427   0.673  1.3642 -0.0176  0.2447
 5386TIP3    H216123   4.987   2.508   0.567 -1.2939  0.2938 -1.3997
 5387TIP3   OH216124   3.560   2.641   5.046  0.7245 -0.0058 -0.8818
 5387TIP3    H116125   3.653   2.657   5.057  0.8956  0.0536 -2.2958
 5387TIP3    H216126   3.535   2.591   5.124  2.1793 -1.0728 -1.0763
 5388TIP3   OH216127   2.988   6.554   4.159 -0.6802 -0.3170  0.0197
 5388TIP3    H116128   3.079   6.586   4.163 -0.4998 -0.9040  0.9151
 5388TIP3    H216129   2.956   6.583   4.073  0.1999  0.3051 -0.1114
 5389TIP3   OH216130   7.094   4.904   5.827  0.4823 -0.7041 -0.6158
 5389TIP3    H116131   7.182   4.941   5.817 -0.2328  1.2108 -0.3861
 5389TIP3    H216132   7.064   4.891   5.737  0.6404 -0.4442 -0.7091
 5390TIP3   OH216133   3.328   0.460   1.226  0.2426  0.2617  0.2100
 5390TIP3    H116134   3.420   0.483   1.216  0.6342 -0.8759  1.0472
 5390TIP3    H216135   3.287   0.538   1.264  0.2431  1.8398 -2.7183
 5391TIP3   OH216136   0.495   6.582   0.778  0.4069 -0.0959  0.0688
 5391TIP3    H116137   0.447   6.503   0.753 -1.8637  1.2508 -0.1499
 5391TIP3    H216138   0.571   6.584   0.721 -1.1509 -0.5607 -2.1512
 5392TIP3   OH216139   3.034   4.349   2.777  0.3092 -0.0164  0.0468
 5392TIP3    H116140   3.112   4.403   2.786 -0.2548  0.8332 -0.0069
 5392TIP3    H216141   3.055   4.267   2.823  0.6596  0.8026  1.4056
 5393TIP3   OH216142   2.590   4.066   5.557 -0.1043 -0.3038 -0.1784
 5393TIP3    H116143   2.576   4.038   5.648 -1.2094 -0.2008 -0.3090
 5393TIP3    H216144   2.627   3.990   5.514  1.3141 -0.0710  0.5645
 5394TIP3   OH216145   4.870   6.143   3.363  0.5547  0.2474  0.5234
 5394TIP3    H116146   4.858   6.215   3.301 -1.1413  1.0899  1.7284
 5394TIP3    H216147   4.935   6.176   3.425  0.2123  0.5178  0.7422
 5395TIP3   OH216148   4.799   2.212   0.263  0.2927 -0.0216  0.7146
 5395TIP3    H116149   4.837   2.299   0.259  0.1822  0.0987  1.9480
 5395TIP3    H216150   4.863   2.160   0.312  0.3730 -0.6419 -0.0323
 5396TIP3   OH216151   6.478   6.808   4.035 -0.4811  0.1026  0.5237
 5396TIP3    H116152   6.454   6.725   3.995 -1.3877  0.6031 -0.0243
 5396TIP3    H216153   6.569   6.798   4.062 -0.7268 -1.2257  0.8962
 5397TIP3   OH216154   5.536   2.867   3.467 -0.7021 -0.1029  0.3652
 5397TIP3    H116155   5.441   2.869   3.480 -0.8618 -1.3542 -0.3862
 5397TIP3    H216156   5.557   2.773   3.465  0.2337  0.0922 -1.4901
 5398TIP3   OH216157   0.271   6.224   1.596  0.0122 -0.1768 -0.5078
 5398TIP3    H116158   0.221   6.212   1.515 -0.3751  1.5944 -0.5691
 5398TIP3    H216159   0.318   6.306   1.583  0.4677 -0.2114  0.8105
 5399TIP3   OH216160   0.139   5.848   1.660  0.3720 -0.3522  0.5865
 5399TIP3    H116161   0.223   5.836   1.616  0.6240  2.6886  0.0167
 5399TIP3    H216162   0.159   5.838   1.753  1.7448  1.6877  0.5801
 5400TIP3   OH216163   0.760   0.694   1.077 -0.1848 -0.1123  0.1722
 5400TIP3    H116164   0.745   0.650   0.994  1.7295  0.1486 -0.3563
 5400TIP3    H216165   0.740   0.628   1.144 -2.1233 -0.2020 -0.4473
 5401TIP3   OH216166   1.393   1.474   1.704  0.3713  0.3999  0.0284
 5401TIP3    H116167   1.451   1.494   1.777 -1.1195 -0.7160  1.6039
 5401TIP3    H216168   1.325   1.541   1.707 -0.0996 -0.0714  0.1392
 5402TIP3   OH216169   1.993   5.009   1.715  0.7034 -0.1968  0.1927
 5402TIP3    H116170   1.981   4.974   1.627 -0.0968 -0.2793  0.3270
 5402TIP3    H216171   2.021   4.933   1.767  1.2415 -0.1329 -0.0012
 5403TIP3   OH216172   2.852   6.406   1.686  1.1032 -0.7182 -0.7636
 5403TIP3    H116173   2.769   6.454   1.681  1.6135  0.2766 -0.0066
 5403TIP3    H216174   2.826   6.315   1.700  0.1267 -0.2347  0.8580
 5404TIP3   OH216175   2.724   3.051   2.575 -0.2767  0.3469  0.4538
 5404TIP3    H116176   2.736   3.080   2.484  0.6891  0.2770  0.5418
 5404TIP3    H216177   2.672   3.120   2.615 -0.5029  0.5015 -0.0946
 5405TIP3   OH216178   4.773   1.907   5.621 -0.2827  0.0811  0.0014
 5405TIP3    H116179   4.738   1.877   5.705  0.5265 -2.7308 -0.5586
 5405TIP3    H216180   4.701   1.898   5.559 -0.2102 -0.1248 -0.0533
 5406TIP3   OH216181   2.399   5.130   5.791 -0.0635  0.0795 -0.2834
 5406TIP3    H116182   2.363   5.088   5.713  0.9274 -1.0405 -0.1606
 5406TIP3    H216183   2.488   5.154   5.767 -0.1312  0.7820  0.1346
 5407TIP3   OH216184   0.465   6.407   3.843 -0.1197  0.7758  0.1618
 5407TIP3    H116185   0.557   6.389   3.825 -0.1169  0.6471  0.3048
 5407TIP3    H216186   0.451   6.376   3.932  0.0048  1.9050  0.5952
 5408TIP3   OH216187   1.813   4.190   1.383 -0.0920 -0.2673  0.0104
 5408TIP3    H116188   1.761   4.122   1.426 -0.8273  0.2279 -0.0952
 5408TIP3    H216189   1.759   4.268   1.386 -0.0877 -0.1677 -1.6351
 5409TIP3   OH216190   6.468   5.672   0.096 -0.2861 -0.2233 -0.0259
 5409TIP3    H116191   6.422   5.722   0.028  0.4719 -1.0313 -1.1658
 5409TIP3    H216192   6.509   5.739   0.151 -1.7817  0.4787  0.3085
 5410TIP3   OH216193   0.927   2.402   5.649  0.3609  0.4486  0.0998
 5410TIP3    H116194   1.000   2.449   5.608  1.2839 -1.4687 -0.6082
 5410TIP3    H216195   0.968   2.343   5.712 -0.7295  0.4526  0.8498
 5411TIP3   OH216196   4.008   3.875   5.001  0.1765  0.0320 -0.1118
 5411TIP3    H116197   4.038   3.924   4.924  0.7130  1.1166  0.7556
 5411TIP3    H216198   3.941   3.932   5.041  1.4773  0.5389  1.4352
 5412TIP3   OH216199   7.027   3.465   2.063  1.2948 -0.0843 -0.4115
 5412TIP3    H116200   6.995   3.442   2.151 -1.7455  0.5431 -1.2150
 5412TIP3    H216201   7.029   3.382   2.016  0.3381 -0.1128 -0.4353
 5413TIP3   OH216202   3.901   3.137   3.255  0.1306  0.1954  0.2181
 5413TIP3    H116203   3.893   3.230   3.277 -2.6737 -0.0197  0.4478
 5413TIP3    H216204   3.836   3.094   3.310 -0.2802 -1.5965 -1.5854
 5414TIP3   OH216205   2.284   4.243   0.086 -0.1644 -0.5411 -0.4292
 5414TIP3    H116206   2.203   4.218   0.042  0.5603 -1.3921 -1.3046
 5414TIP3    H216207   2.298   4.334   0.060  0.2790 -1.0434 -2.0274
 5415TIP3   OH216208   4.026   2.607   2.306 -0.3971 -0.0022 -0.2095
 5415TIP3    H116209   3.975   2.676   2.263  0.6936  0.7076 -0.3911
 5415TIP3    H216210   4.102   2.652   2.342 -0.8472 -0.7192  1.7539
 5416TIP3   OH216211   1.898   5.663   3.521 -0.2916  0.0325 -0.1099
 5416TIP3    H116212   1.985   5.702   3.520  0.9177 -2.4741 -0.5643
 5416TIP3    H216213   1.841   5.732   3.556  1.9139  1.5972  0.6105
 5417TIP3   OH216214   6.333   3.500   3.260  0.2290  0.4946 -0.3341
 5417TIP3    H116215   6.394   3.570   3.282  1.2229  0.3041 -2.2292
 5417TIP3    H216216   6.354   3.430   3.321  1.7701  0.5358 -0.7616
 5418TIP3   OH216217   0.122   3.276   2.339 -0.0264  1.0826 -0.1633
 5418TIP3    H116218   0.042   3.231   2.313  0.3168  0.5815 -0.3924
 5418TIP3    H216219   0.154   3.318   2.259  1.6421 -1.4160 -0.9450
 5419TIP3   OH216220   3.918   3.347   3.045 -0.4514  0.1394  0.2519
 5419TIP3    H116221   3.995   3.400   3.026 -0.8416  0.2016 -1.2945
 5419TIP3    H216222   3.866   3.400   3.106 -0.9204  1.6596 -1.3897
 5420TIP3   OH216223   2.825   5.357   0.162 -0.0064  0.1201 -0.7577
 5420TIP3    H116224   2.806   5.282   0.218 -1.8558  1.5612  0.6783
 5420TIP3    H216225   2.752   5.361   0.100  1.2789 -0.5963 -2.3775
 5421TIP3   OH216226   2.190   3.921   2.328 -0.0763  0.4616  0.5462
 5421TIP3    H116227   2.193   3.936   2.422  1.0279 -3.2819  1.2882
 5421TIP3    H216228   2.122   3.854   2.317 -0.0017  0.6389 -1.3108
 5422TIP3   OH216229   1.512   3.479   1.606  0.1782 -0.1991  0.3052
 5422TIP3    H116230   1.417   3.470   1.608 -0.0939  1.6726 -1.0945
 5422TIP3    H216231   1.544   3.392   1.583 -1.3542 -0.4123 -1.2719
 5423TIP3   OH216232   5.086   6.603   4.471 -0.1292  0.4371 -0.4833
 5423TIP3    H116233   5.065   6.683   4.520  0.9432 -0.7185  2.0358
 5423TIP3    H216234   5.180   6.590   4.484 -0.2707 -1.2025 -0.8432
 5424TIP3   OH216235   2.762   3.690   3.601  0.1271  0.0143  0.0273
 5424TIP3    H116236   2.712   3.759   3.557 -0.7872  0.7515  2.0597
 5424TIP3    H216237   2.761   3.616   3.540 -0.9255  1.0095 -1.2164
 5425TIP3   OH216238   3.271   3.778   0.215  0.0678 -0.0206  0.1032
 5425TIP3    H116239   3.327   3.833   0.159 -0.2391 -0.5888 -0.7870
 5425TIP3    H216240   3.182   3.799   0.188 -0.0819 -0.3244  0.3560
 5426TIP3   OH216241   4.164   2.905   4.400 -0.4507 -0.3179 -0.1048
 5426TIP3    H116242   4.171   2.816   4.364  2.1789 -1.0925  2.0239
 5426TIP3    H216243   4.172   2.894   4.494  0.7131  2.2454  0.1843
 5427TIP3   OH216244   0.285   6.013   2.341  0.2350  0.4630 -0.1000
 5427TIP3    H116245   0.339   5.934   2.341 -0.5696 -0.1266  0.7006
 5427TIP3    H216246   0.201   5.983   2.377 -0.6572  1.3178 -1.4071
 5428TIP3   OH216247   3.245   1.696   4.812 -0.2465 -0.0643  0.0376
 5428TIP3    H116248   3.210   1.610   4.788  0.6928 -0.5370  0.3077
 5428TIP3    H216249   3.208   1.713   4.899  2.3172 -1.8699  1.6291
 5429TIP3   OH216250   5.297   4.547   5.471  0.6222  0.0541 -0.2912
 5429TIP3    H116251   5.305   4.617   5.406  0.6931  1.2356  0.9380
 5429TIP3    H216252   5.206   4.554   5.502  0.6162 -0.4327 -0.2009
 5430TIP3   OH216253   5.274   4.322   2.356 -0.1762 -0.4042  0.6343
 5430TIP3    H116254   5.358   4.366   2.352 -0.3917  0.0568  1.0923
 5430TIP3    H216255   5.243   4.336   2.445 -0.8212 -0.4132  0.4220
 5431TIP3   OH216256   6.498   2.057   5.844  0.0737  0.4605 -0.0455
 5431TIP3    H116257   6.461   1.970   5.861  0.4817  0.0368 -1.2617
 5431TIP3    H216258   6.422   2.115   5.842 -0.1507  0.2747  1.4399
 5432TIP3   OH216259   2.263   0.362   2.427 -0.1290  0.2669  1.0699
 5432TIP3    H116260   2.237   0.288   2.372  1.0627  1.9517 -2.0428
 5432TIP3    H216261   2.315   0.323   2.497 -0.0447 -1.9003 -0.1079
 5433TIP3   OH216262   6.947   0.989   1.048 -0.2410  0.0329  0.0006
 5433TIP3    H116263   7.020   0.953   0.998  0.3910 -0.0785  0.9592
 5433TIP3    H216264   6.972   1.080   1.064 -1.9613  1.0847 -2.6546
 5434TIP3   OH216265   1.645   3.402   2.040  0.2777 -0.0643 -0.0379
 5434TIP3    H116266   1.676   3.429   1.954  0.6861 -0.1211  0.0896
 5434TIP3    H216267   1.573   3.462   2.060 -0.7446 -0.9061 -1.0076
 5435TIP3   OH216268   0.179   6.590   1.132 -0.2805  0.0647  0.8070
 5435TIP3    H116269   0.243   6.661   1.126 -0.4139  0.3608  2.3094
 5435TIP3    H216270   0.105   6.618   1.079  0.3846  0.2137 -0.0645
 5436TIP3   OH216271   5.528   4.082   5.742  0.0996  0.1993  0.1346
 5436TIP3    H116272   5.594   4.017   5.766  0.0457  0.2580  0.4509
 5436TIP3    H216273   5.561   4.123   5.662  0.2252 -0.0850  0.0394
 5437TIP3   OH216274   6.252   2.072   1.834  0.3165  0.1141  0.0357
 5437TIP3    H116275   6.203   2.012   1.779 -0.6016 -0.5819  1.5616
 5437TIP3    H216276   6.228   2.159   1.802  0.8447 -0.2787 -1.5049
 5438TIP3   OH216277   7.000   6.396   3.500 -0.1950 -0.0612  0.8867
 5438TIP3    H116278   7.082   6.347   3.494 -0.1691  0.2048 -2.1983
 5438TIP3    H216279   6.932   6.330   3.491 -0.2002  0.1375 -0.7808
 5439TIP3   OH216280   1.838   4.855   0.223 -0.3127 -0.2121  0.2050
 5439TIP3    H116281   1.805   4.921   0.285  1.1730  1.3431 -0.5654
 5439TIP3    H216282   1.906   4.901   0.174 -0.5540 -1.7857 -1.7084
 5440TIP3   OH216283   5.105   1.305   3.260  0.3572 -0.2594 -0.3893
 5440TIP3    H116284   5.162   1.374   3.225  0.5014 -0.0695  0.1962
 5440TIP3    H216285   5.016   1.338   3.248  0.4395  0.1992  0.2196
 5441TIP3   OH216286   4.295   5.177   4.458 -0.3057  0.2572 -0.1103
 5441TIP3    H116287   4.203   5.151   4.465 -0.2882 -0.7443 -2.6043
 5441TIP3    H216288   4.294   5.272   4.463 -1.2446  0.1903  1.5928
 5442TIP3   OH216289   1.802   2.224   0.604  0.0108 -0.0743  0.3583
 5442TIP3    H116290   1.890   2.246   0.573 -0.3391  1.4707  0.3455
 5442TIP3    H216291   1.765   2.169   0.536  0.5179  0.3414 -0.2645
 5443TIP3   OH216292   4.240   5.549   4.964 -0.0732  0.4044  0.2433
 5443TIP3    H116293   4.241   5.507   5.050 -0.6006  0.1426  0.1232
 5443TIP3    H216294   4.328   5.584   4.953  0.5020 -1.0384  0.1598
 5444TIP3   OH216295   0.610   3.152   2.792  0.0498  0.8051 -0.1658
 5444TIP3    H116296   0.668   3.096   2.740 -0.0382  1.4460 -0.9772
 5444TIP3    H216297   0.655   3.162   2.876  0.7570  0.6985 -0.5273
 5445TIP3   OH216298   6.962   0.332   1.969 -0.0195 -0.0738  0.3745
 5445TIP3    H116299   7.003   0.249   1.994 -2.0346 -1.1530  0.2838
 5445TIP3    H216300   6.985   0.392   2.040  1.8198 -0.5596  0.2398
 5446TIP3   OH216301   1.779   2.862   1.469  0.4678 -0.1033 -0.1617
 5446TIP3    H116302   1.695   2.837   1.509  0.5300  0.5383  0.4025
 5446TIP3    H216303   1.829   2.899   1.542  1.2047 -0.3887 -0.5193
 5447TIP3   OH216304   1.041   4.082   1.043 -0.5107 -0.2983  0.3001
 5447TIP3    H116305   1.018   3.990   1.031 -1.1409  0.0750 -1.6977
 5447TIP3    H216306   1.132   4.088   1.012  0.1774 -0.5493  2.1414
 5448TIP3   OH216307   1.028   0.652   2.837  0.0736 -0.1460  0.0708
 5448TIP3    H116308   1.122   0.655   2.851  0.1553 -0.3475 -0.4239
 5448TIP3    H216309   0.992   0.631   2.924  0.5853 -1.4959 -0.0130
 5449TIP3   OH216310   3.000   6.161   4.332 -0.2337  0.0160 -0.0073
 5449TIP3    H116311   2.967   6.071   4.328  0.7141 -0.4218  1.5796
 5449TIP3    H216312   3.095   6.152   4.332 -0.0867  0.8315  2.7089
 5450TIP3   OH216313   2.227   6.458   1.881 -0.5194 -0.0717 -0.1206
 5450TIP3    H116314   2.285   6.521   1.839 -0.4647  1.4399  2.1033
 5450TIP3    H216315   2.276   6.375   1.876  1.9972  1.1529  1.7711
 5451TIP3   OH216316   5.383   1.810   5.580 -0.0475 -0.3152  0.0677
 5451TIP3    H116317   5.392   1.905   5.580  0.8640 -0.3524  1.8665
 5451TIP3    H216318   5.379   1.787   5.673 -0.0813 -2.0505 -0.3348
 5452TIP3   OH216319   5.360   6.641   4.593  0.9274  0.1644 -0.4289
 5452TIP3    H116320   5.439   6.692   4.575  0.3741  1.2598  0.1866
 5452TIP3    H216321   5.316   6.688   4.664 -1.1176  0.5203 -1.8439
 5453TIP3   OH216322   4.637   3.683   5.209 -0.2009  0.3491 -0.6595
 5453TIP3    H116323   4.707   3.623   5.235  0.3283  0.8925 -0.7917
 5453TIP3    H216324   4.614   3.656   5.120  0.4891  0.7411 -0.9661
 5454TIP3   OH216325   2.829   6.272   4.938 -0.4154 -0.3628  1.0780
 5454TIP3    H116326   2.855   6.204   4.999 -0.4886 -1.2292  0.1608
 5454TIP3    H216327   2.733   6.273   4.942 -0.4555 -0.9579  0.4180
 5455TIP3   OH216328   1.188   2.219   0.886 -0.0892  0.2196 -0.1262
 5455TIP3    H116329   1.281   2.235   0.903 -0.5516  1.9326  1.0993
 5455TIP3    H216330   1.152   2.193   0.970 -0.9285  0.7288 -0.3147
 5456TIP3   OH216331   2.980   3.569   0.927  0.9614  0.1680 -0.1324
 5456TIP3    H116332   3.072   3.541   0.935 -0.1203 -3.6962  0.9958
 5456TIP3    H216333   2.966   3.578   0.832  2.2660 -0.1112 -0.3718
 5457TIP3   OH216334   3.715   3.811   2.423  0.3905 -0.3690  0.3676
 5457TIP3    H116335   3.722   3.763   2.340 -1.4271 -0.7393  0.3912
 5457TIP3    H216336   3.794   3.786   2.471  1.6088  0.0550 -1.3196
 5458TIP3   OH216337   4.428   5.301   1.336 -0.4096 -0.7178 -0.2850
 5458TIP3    H116338   4.507   5.248   1.336 -0.0440 -0.2388 -2.1372
 5458TIP3    H216339   4.458   5.389   1.358 -0.2773 -0.3959 -1.6441
 5459TIP3   OH216340   6.016   4.889   1.861 -0.1333  0.5019  0.1079
 5459TIP3    H116341   6.030   4.951   1.790 -0.2997  1.9980  1.3372
 5459TIP3    H216342   6.096   4.837   1.864 -1.4407 -2.1549 -3.4938
 5460TIP3   OH216343   0.161   1.507   3.885  0.0852 -0.3962  0.0714
 5460TIP3    H116344   0.224   1.578   3.870  0.2275 -0.6543 -0.5694
 5460TIP3    H216345   0.199   1.455   3.956 -0.4521  0.6727  1.1891
 5461TIP3   OH216346   3.221   0.116   4.386 -0.0778  0.3472  0.0606
 5461TIP3    H116347   3.144   0.133   4.442  0.2370 -1.5493  1.1532
 5461TIP3    H216348   3.185   0.103   4.299 -0.8473  0.9557  0.2767
 5462TIP3   OH216349   3.200   1.695   5.074  0.8528 -0.4098  0.4034
 5462TIP3    H116350   3.240   1.754   5.137 -0.3853 -1.8975  2.7322
 5462TIP3    H216351   3.231   1.608   5.099  2.0505 -0.9203 -2.4770
 5463TIP3   OH216352   1.046   4.579   2.440  0.4266  0.1332  0.2273
 5463TIP3    H116353   0.976   4.533   2.486  0.1713 -2.0187 -2.1225
 5463TIP3    H216354   1.104   4.510   2.409  2.7211  1.7524  0.6403
 5464TIP3   OH216355   0.726   4.040   1.201  0.2282 -0.3818  0.6905
 5464TIP3    H116356   0.796   4.044   1.136  0.5341 -3.1236  0.7274
 5464TIP3    H216357   0.729   3.950   1.234 -1.8038  0.0929  2.4045
 5465TIP3   OH216358   4.006   5.642   2.512 -0.2480 -0.2381  0.0754
 5465TIP3    H116359   3.937   5.591   2.555 -1.8815  1.2301 -0.6922
 5465TIP3    H216360   4.011   5.606   2.424 -1.2225  0.7029 -0.3858
 5466TIP3   OH216361   3.787   0.764   5.601 -0.1652  0.4859 -0.1876
 5466TIP3    H116362   3.848   0.721   5.662  2.7655 -0.5906 -3.5206
 5466TIP3    H216363   3.811   0.856   5.604  0.6804  0.2863 -0.3816
 5467TIP3   OH216364   2.373   0.958   1.082  0.2499  0.1099 -0.3203
 5467TIP3    H116365   2.313   0.887   1.103  0.2289 -0.0325 -0.8573
 5467TIP3    H216366   2.460   0.918   1.083  0.0978 -0.4155 -2.6083
 5468TIP3   OH216367   3.630   5.832   0.044 -0.0207 -0.4753  0.0655
 5468TIP3    H116368   3.617   5.809   0.136  2.6876  0.3728  0.7726
 5468TIP3    H216369   3.584   5.764  -0.005  0.4613 -2.3575  2.0579
 5469TIP3   OH216370   2.395   1.740   3.328  0.3664  0.4427 -0.0811
 5469TIP3    H116371   2.443   1.778   3.254 -1.0165  2.0953 -0.1999
 5469TIP3    H216372   2.352   1.815   3.369 -2.6875 -0.9735 -0.4319
 5470TIP3   OH216373   2.742   5.850   5.725 -0.0292 -0.1359  0.1740
 5470TIP3    H116374   2.787   5.822   5.645 -0.4989 -2.1493  0.5419
 5470TIP3    H216375   2.741   5.945   5.721  1.0364 -0.1633 -1.6136
 5471TIP3   OH216376   5.057   4.007   0.623 -0.1356 -0.1808  0.6228
 5471TIP3    H116377   5.098   3.988   0.538 -0.8390 -1.0526  0.4685
 5471TIP3    H216378   4.986   4.066   0.601 -0.8622 -1.0886  0.4724
 5472TIP3   OH216379   4.947   3.029   3.072 -0.0289 -0.0054 -0.1105
 5472TIP3    H116380   5.004   3.003   2.999 -1.7272 -0.0331 -1.4943
 5472TIP3    H216381   4.881   2.960   3.077 -1.6983  1.4793 -0.5622
 5473TIP3   OH216382   3.888   4.863   5.383 -0.4259 -0.1067 -0.3035
 5473TIP3    H116383   3.825   4.856   5.311 -2.4267 -0.8764  1.4051
 5473TIP3    H216384   3.851   4.807   5.451  2.3774 -0.9208  0.6633
 5474TIP3   OH216385   6.942   5.316   2.160  0.3777 -0.0635  0.4319
 5474TIP3    H116386   7.003   5.244   2.144  0.1883 -0.5361  1.7247
 5474TIP3    H216387   6.991   5.394   2.133  0.2619 -0.7021 -1.8340
 5475TIP3   OH216388   4.068   2.162   1.554 -0.3664  0.0793 -0.1584
 5475TIP3    H116389   3.982   2.124   1.572 -1.1449  0.8667 -1.9902
 5475TIP3    H216390   4.085   2.142   1.462  2.2853 -1.6388  0.5884
 5476TIP3   OH216391   6.140   5.028   1.169  0.1866 -0.2823 -0.3125
 5476TIP3    H116392   6.119   5.099   1.229  2.2369 -0.3220  0.5300
 5476TIP3    H216393   6.094   4.952   1.204  0.9533 -0.1898  0.9724
 5477TIP3   OH216394   4.100   5.685   2.134  0.0530 -0.5003  0.3654
 5477TIP3    H116395   4.183   5.652   2.099  0.1732  0.8900 -0.7586
 5477TIP3    H216396   4.070   5.617   2.194  1.6213 -1.3728  0.2033
 5478TIP3   OH216397   6.689   0.896   3.713  0.2076 -0.3863  0.0861
 5478TIP3    H116398   6.632   0.820   3.727  2.1665 -2.0546 -0.5306
 5478TIP3    H216399   6.640   0.952   3.653 -0.9593 -1.5637 -0.1002
 5479TIP3   OH216400   5.509   6.175   2.880 -0.1175 -0.0729 -0.4072
 5479TIP3    H116401   5.474   6.202   2.965  0.2032  1.0908 -0.6199
 5479TIP3    H216402   5.466   6.091   2.862 -0.5512 -0.1055  0.6781
 5480TIP3   OH216403   3.325   2.320   3.681 -0.1215  0.1891  0.4591
 5480TIP3    H116404   3.372   2.394   3.718  1.1543  0.5789 -1.7683
 5480TIP3    H216405   3.374   2.243   3.709  0.7854  0.4730 -0.2950
 5481TIP3   OH216406   6.200   6.320   5.627  0.2518  0.0535 -0.4188
 5481TIP3    H116407   6.208   6.257   5.556 -1.8048  0.4452 -1.0439
 5481TIP3    H216408   6.201   6.266   5.707 -0.7758 -0.7279 -0.9090
 5482TIP3   OH216409   2.612   5.176   2.525 -0.4933 -0.2177  0.0259
 5482TIP3    H116410   2.675   5.160   2.596 -1.4125 -0.5370  0.7801
 5482TIP3    H216411   2.665   5.167   2.445  0.2628 -1.2852  0.6124
 5483TIP3   OH216412   1.834   5.613   4.176  0.3932 -0.3900 -0.7726
 5483TIP3    H116413   1.865   5.529   4.142  0.9194 -0.9370  0.9460
 5483TIP3    H216414   1.913   5.659   4.201  0.0400  0.1329 -0.6112
 5484TIP3   OH216415   4.879   6.537   2.784 -0.2546  0.5428  0.6290
 5484TIP3    H116416   4.826   6.583   2.719  1.0193  0.2528 -0.6448
 5484TIP3    H216417   4.959   6.513   2.738 -0.3740 -1.9290  1.5721
 5485TIP3   OH216418   3.366   1.699   2.531  0.6710 -0.0267 -0.0327
 5485TIP3    H116419   3.299   1.751   2.487  1.0226  1.1200  0.7188
 5485TIP3    H216420   3.342   1.608   2.514 -0.0790  0.3743 -1.2262
 5486TIP3   OH216421   3.311   2.404   0.636 -0.5578  0.5002  0.1289
 5486TIP3    H116422   3.277   2.479   0.586  0.3548 -0.1329 -1.5263
 5486TIP3    H216423   3.234   2.353   0.659 -1.0450  1.0593 -0.2521
 5487TIP3   OH216424   2.245   4.436   0.523 -0.0575 -0.3357 -0.2998
 5487TIP3    H116425   2.158   4.465   0.552  1.0353  1.0703  1.7768
 5487TIP3    H216426   2.258   4.481   0.439 -0.7126  0.7016  0.1357
 5488TIP3   OH216427   0.609   0.726   0.359  1.2356  0.4524  0.5731
 5488TIP3    H116428   0.595   0.671   0.436 -0.7763 -0.4913 -0.4169
 5488TIP3    H216429   0.554   0.803   0.374  2.3585  1.2063  0.9460
 5489TIP3   OH216430   5.871   5.539   3.051 -0.1137 -0.0505 -0.6276
 5489TIP3    H116431   5.778   5.557   3.069  0.2018  0.6325  0.4216
 5489TIP3    H216432   5.917   5.613   3.090  0.9499 -1.0042 -0.0209
 5490TIP3   OH216433   5.964   2.220   0.224  0.5968  0.1569  0.4427
 5490TIP3    H116434   5.992   2.309   0.204  0.9775  0.5590  2.5295
 5490TIP3    H216435   5.880   2.211   0.180  1.2227  0.9949 -1.0264
 5491TIP3   OH216436   5.687   0.016   3.626 -0.3520  0.3916  0.0532
 5491TIP3    H116437   5.685   0.100   3.580 -0.1362  0.2443 -0.2242
 5491TIP3    H216438   5.722  -0.045   3.562  0.8550  0.3665  0.7219
 5492TIP3   OH216439   4.609   2.904   5.701 -0.0154  0.0256  0.7350
 5492TIP3    H116440   4.640   2.863   5.782  0.2693 -1.2336  0.0127
 5492TIP3    H216441   4.544   2.843   5.666  3.0717 -1.8443 -2.3090
 5493TIP3   OH216442   1.003   6.765   3.933  0.1217  0.0184 -0.3998
 5493TIP3    H116443   1.070   6.699   3.914 -1.3862 -1.2678 -1.4700
 5493TIP3    H216444   1.044   6.822   3.998  0.9001 -3.0285  2.0407
 5494TIP3   OH216445   2.533   1.586   5.238 -0.0136 -0.0490  0.0036
 5494TIP3    H116446   2.539   1.670   5.284  1.8570  1.1622 -2.2087
 5494TIP3    H216447   2.577   1.524   5.296 -0.5060  0.7058  1.2222
 5495TIP3   OH216448   6.714   0.779   3.207 -0.5248  0.3711 -0.7169
 5495TIP3    H116449   6.786   0.808   3.150  0.2758 -0.4314 -0.1370
 5495TIP3    H216450   6.747   0.793   3.296 -0.2231 -1.9368 -0.4078
 5496TIP3   OH216451   0.487   4.838   3.399 -0.6164  0.1911 -0.4002
 5496TIP3    H116452   0.513   4.759   3.446  0.9746  0.1656 -1.2528
 5496TIP3    H216453   0.457   4.807   3.314 -1.1052  0.4333 -0.3212
 5497TIP3   OH216454   4.174   0.988   1.124  0.0623 -0.3021  0.3185
 5497TIP3    H116455   4.205   0.999   1.213 -2.3108  0.8185  1.0894
 5497TIP3    H216456   4.219   0.910   1.092  3.2237  0.9261  1.3892
 5498TIP3   OH216457   1.113   6.616   1.106 -0.4134 -0.2125  0.1497
 5498TIP3    H116458   1.157   6.533   1.126 -0.0978  0.2332  1.4109
 5498TIP3    H216459   1.108   6.618   1.011  0.0079 -1.4585  0.0794
 5499TIP3   OH216460   0.154   4.538   5.655 -0.2165  0.3476  0.7219
 5499TIP3    H116461   0.062   4.558   5.673 -0.8500  0.0074 -1.7855
 5499TIP3    H216462   0.196   4.624   5.649 -0.6352  0.5523  0.6460
 5500TIP3   OH216463   6.705   1.295   4.547  0.2182  0.3722 -0.4365
 5500TIP3    H116464   6.659   1.352   4.485 -2.0203 -0.5733  0.2444
 5500TIP3    H216465   6.791   1.282   4.508  0.0127  2.3768 -1.7208
 5501TIP3   OH216466   6.062   6.357   1.783  0.3734  0.1189  0.1888
 5501TIP3    H116467   6.015   6.379   1.702 -1.3067  0.8101  1.3091
 5501TIP3    H216468   6.003   6.297   1.829  1.8617 -1.2822  0.3723
 5502TIP3   OH216469   4.902   2.458   0.331  0.3764  0.2927 -0.3051
 5502TIP3    H116470   4.996   2.458   0.349  0.3113 -0.1883  0.0481
 5502TIP3    H216471   4.879   2.551   0.327  1.1520  0.4463 -1.9720
 5503TIP3   OH216472   4.550   3.849   1.658  0.0375 -0.3207  0.3421
 5503TIP3    H116473   4.553   3.942   1.679  2.0910 -0.4372  0.8319
 5503TIP3    H216474   4.543   3.806   1.744  2.9449 -0.6487  0.5366
 5504TIP3   OH216475   2.864   3.597   1.542  0.5176  0.2158 -0.2819
 5504TIP3    H116476   2.816   3.514   1.540  0.1112  0.3403  2.0959
 5504TIP3    H216477   2.954   3.572   1.564  0.3395  0.4031  0.6911
 5505TIP3   OH216478   6.682   6.633   0.408  0.5572  0.5738 -0.3425
 5505TIP3    H116479   6.760   6.671   0.449  0.6237  0.4806 -0.3801
 5505TIP3    H216480   6.624   6.612   0.481  0.5266  0.7340 -0.3208
 5506TIP3   OH216481   0.577   3.499   1.183 -0.5407  0.5406 -0.3615
 5506TIP3    H116482   0.500   3.531   1.230 -0.9488 -0.3406 -0.3974
 5506TIP3    H216483   0.557   3.407   1.165  0.1345  0.5454 -1.1847
 5507TIP3   OH216484   2.873   4.467   3.010  0.5574 -0.2403 -0.3022
 5507TIP3    H116485   2.906   4.435   2.926 -0.5016 -2.1829 -0.0134
 5507TIP3    H216486   2.892   4.397   3.072  1.7601  1.3508  1.2474
 5508TIP3   OH216487   5.874   1.954   0.735 -0.2623 -0.2440 -0.0043
 5508TIP3    H116488   5.877   1.928   0.643  0.6141  0.4442 -0.1846
 5508TIP3    H216489   5.826   2.037   0.735  0.6249  0.2818  0.0139
 5509TIP3   OH216490   3.448   0.800   0.344 -0.1443 -0.2888 -0.3273
 5509TIP3    H116491   3.406   0.886   0.338 -0.2719 -0.1541  1.7497
 5509TIP3    H216492   3.538   0.816   0.314 -0.4104  0.3551 -0.8225
 5510TIP3   OH216493   6.080   6.669   1.631 -0.1724  0.7310 -0.1447
 5510TIP3    H116494   6.056   6.596   1.573  1.2370 -1.2309  1.5898
 5510TIP3    H216495   6.145   6.718   1.580 -0.2947  0.1109 -0.9283
 5511TIP3   OH216496   3.770   5.006   4.634 -0.6757 -0.0463 -0.1680
 5511TIP3    H116497   3.815   4.990   4.551 -1.7489  1.4532 -1.0784
 5511TIP3    H216498   3.834   5.055   4.686 -0.5088  0.2905 -0.6771
 5512TIP3   OH216499   0.532   5.047   1.138  0.0660 -0.3104 -0.7874
 5512TIP3    H116500   0.562   4.960   1.164  0.9534 -0.6123 -2.6253
 5512TIP3    H216501   0.609   5.102   1.148 -0.1378 -0.0117 -0.8621
 5513TIP3   OH216502   6.421   6.192   4.298  0.6662  0.0534 -0.1119
 5513TIP3    H116503   6.356   6.212   4.231  0.7746 -2.4895 -1.0596
 5513TIP3    H216504   6.377   6.214   4.381 -0.6749  0.1881 -0.8369
 5514TIP3   OH216505   3.531   4.935   3.948  0.5163  0.0300 -0.6270
 5514TIP3    H116506   3.598   4.916   4.014 -2.7266  0.6625  3.2155
 5514TIP3    H216507   3.577   4.983   3.879  4.1523 -0.6572  1.1106
 5515TIP3   OH216508   4.660   0.409   3.629 -0.2521  0.2886  0.1608
 5515TIP3    H116509   4.659   0.471   3.702 -0.9216  0.7200 -0.2075
 5515TIP3    H216510   4.722   0.341   3.656 -1.0560  0.0504  1.4588
 5516TIP3   OH216511   4.509   2.392   4.286  0.1544  0.7111 -0.1046
 5516TIP3    H116512   4.504   2.484   4.313  3.2646  0.9517  0.0769
 5516TIP3    H216513   4.466   2.344   4.356 -1.5858  1.9881 -0.2294
 5517TIP3   OH216514   6.004   5.658   4.380  0.4623 -0.2128 -0.2880
 5517TIP3    H116515   5.925   5.673   4.329  0.1098  0.9259  0.5668
 5517TIP3    H216516   6.009   5.563   4.387 -0.0306 -0.3600 -1.5613
 5518TIP3   OH216517   1.192   5.619   5.424  0.4284 -0.6985  0.0921
 5518TIP3    H116518   1.268   5.654   5.377  1.5176 -2.0959  0.7404
 5518TIP3    H216519   1.121   5.623   5.360  1.4421 -0.8611 -1.0854
 5519TIP3   OH216520   1.923   6.205   3.808  0.3762  0.0235 -0.3031
 5519TIP3    H116521   1.904   6.114   3.832  2.2030 -0.7366 -1.5127
 5519TIP3    H216522   1.867   6.221   3.732 -1.4544  0.6486  1.1053
 5520TIP3   OH216523   1.527   2.984   0.940  0.2740 -0.5106  0.6573
 5520TIP3    H116524   1.512   3.071   0.977 -0.9033  0.4515 -1.8871
 5520TIP3    H216525   1.622   2.971   0.949  0.6393  1.4882  0.1997
 5521TIP3   OH216526   1.889   1.547   5.232 -0.4710  0.3648  0.2226
 5521TIP3    H116527   1.892   1.530   5.138  1.9028 -0.8321  0.4402
 5521TIP3    H216528   1.918   1.638   5.241 -0.7657  0.5017 -0.2066
 5522TIP3   OH216529   4.514   0.469   3.404  0.2621  0.0696  0.2401
 5522TIP3    H116530   4.578   0.448   3.471  0.0510  0.8590  0.7017
 5522TIP3    H216531   4.527   0.403   3.336  1.3848  0.0675  0.4478
 5523TIP3   OH216532   1.176   3.683   1.881 -0.1796 -0.7308  0.1673
 5523TIP3    H116533   1.159   3.755   1.820  2.9127 -0.1729 -0.1593
 5523TIP3    H216534   1.127   3.708   1.960 -0.0237  1.2445 -0.2956
 5524TIP3   OH216535   5.947   4.291   2.771  0.3172 -0.0156 -0.0860
 5524TIP3    H116536   5.910   4.367   2.728  0.0110 -0.3339 -0.3852
 5524TIP3    H216537   6.013   4.258   2.710  1.7718  1.0815  0.8215
 5525TIP3   OH216538   4.224   4.989   1.389 -0.0736 -0.0602  0.6561
 5525TIP3    H116539   4.206   4.961   1.478  0.7322  0.4436  0.9852
 5525TIP3    H216540   4.205   5.083   1.388  0.3456  0.0248  0.4129
 5526TIP3   OH216541   1.084   1.843   2.264 -0.4709 -0.2755  0.3262
 5526TIP3    H116542   1.028   1.772   2.293  0.4510 -0.3933  1.9450
 5526TIP3    H216543   1.024   1.913   2.239 -1.3601 -0.3083  2.2260
 5527TIP3   OH216544   5.424   1.030   5.242 -0.4596  0.3975 -0.4259
 5527TIP3    H116545   5.479   1.075   5.177 -0.2041  0.6023 -0.0695
 5527TIP3    H216546   5.460   0.942   5.246  0.8067  0.9480  0.8940
 5528TIP3   OH216547   2.705   5.482   4.277 -0.6501  0.3298  0.1780
 5528TIP3    H116548   2.660   5.429   4.344 -1.6004 -1.4665 -1.7728
 5528TIP3    H216549   2.637   5.538   4.240 -0.1004  1.4112  0.7422
 5529TIP3   OH216550   3.396   3.413   5.573 -0.4521  0.0123  0.4853
 5529TIP3    H116551   3.455   3.488   5.583  0.2195 -0.4913  0.3475
 5529TIP3    H216552   3.318   3.437   5.623 -1.0842  1.6637 -1.1551
 5530TIP3   OH216553   1.130   4.380   1.043 -0.3542 -0.7583 -0.0411
 5530TIP3    H116554   1.217   4.371   1.081 -0.0904  0.6388 -0.2682
 5530TIP3    H216555   1.070   4.362   1.116  0.1197 -1.1090  0.2659
 5531TIP3   OH216556   5.534   6.030   4.550  0.6859 -0.0834  0.0195
 5531TIP3    H116557   5.509   6.083   4.625  1.2248 -1.4385  1.2184
 5531TIP3    H216558   5.490   5.946   4.565  0.7074 -0.3315 -1.2502
 5532TIP3   OH216559   2.823   3.951   4.564 -0.2993 -0.1658 -0.2284
 5532TIP3    H116560   2.777   3.991   4.637  0.1352 -0.3492  0.1525
 5532TIP3    H216561   2.898   4.009   4.549  0.6859 -1.1498  0.7343
 5533TIP3   OH216562   0.146   0.254   5.868  0.0351  0.5174 -0.1479
 5533TIP3    H116563   0.081   0.212   5.812 -0.2479  1.3699 -0.4785
 5533TIP3    H216564   0.153   0.343   5.833  0.9176  0.6218  0.2786
 5534TIP3   OH216565   0.938   0.584   5.799 -0.3004  0.4864 -0.4211
 5534TIP3    H116566   0.981   0.526   5.736 -0.6264  1.4099 -1.5278
 5534TIP3    H216567   0.993   0.581   5.876 -1.4049 -2.9850  0.4223
 5535TIP3   OH216568   3.944   4.156   3.778  0.2925 -0.4661 -0.2243
 5535TIP3    H116569   3.985   4.240   3.797 -0.5190  0.4703 -2.3356
 5535TIP3    H216570   4.017   4.096   3.766  0.8731 -0.3221  2.1380
 5536TIP3   OH216571   4.101   0.124   5.308  0.2242  0.0772 -0.3537
 5536TIP3    H116572   4.110   0.210   5.349  1.2416  0.7447 -1.8995
 5536TIP3    H216573   4.178   0.075   5.337 -0.4682 -0.4156  0.7041
 5537TIP3   OH216574   6.152   4.795   2.871 -0.4318 -0.4389  0.6966
 5537TIP3    H116575   6.116   4.855   2.805  1.1082 -2.5337 -2.3275
 5537TIP3    H216576   6.087   4.725   2.878 -0.8674  0.0679  1.9428
 5538TIP3   OH216577   5.563   2.949   5.243 -0.4215 -0.2100  0.2278
 5538TIP3    H116578   5.558   2.975   5.151 -0.7199 -0.7446  0.0952
 5538TIP3    H216579   5.475   2.920   5.265 -0.1447 -0.9058  0.4393
 5539TIP3   OH216580   1.943   1.759   4.946  0.2621  0.1612  0.4892
 5539TIP3    H116581   1.866   1.813   4.964  1.0923  1.3201  0.6940
 5539TIP3    H216582   1.950   1.758   4.851 -0.4707 -0.6529  0.4294
 5540TIP3   OH216583   3.934   2.197   1.275  0.3173  0.2154 -0.1123
 5540TIP3    H116584   3.924   2.188   1.180 -1.6725  1.5123 -0.0734
 5540TIP3    H216585   3.903   2.114   1.310  1.3046 -0.3751 -0.5593
 5541TIP3   OH216586   3.206   5.501   4.119 -0.1274  0.1692  0.2304
 5541TIP3    H116587   3.244   5.441   4.055  2.3691  0.2848  1.4931
 5541TIP3    H216588   3.200   5.448   4.199  0.5728  1.1177  0.9285
 5542TIP3   OH216589   4.896   5.668   2.225  0.0597  0.1148  0.2706
 5542TIP3    H116590   4.878   5.636   2.313 -0.3657 -0.3524  0.0172
 5542TIP3    H216591   4.813   5.708   2.197 -0.2523 -1.0307 -0.4668
 5543TIP3   OH216592   3.908   2.279   1.806  0.1772  0.3975  0.2522
 5543TIP3    H116593   3.878   2.284   1.716 -0.6729  1.6105  0.5795
 5543TIP3    H216594   3.847   2.334   1.855 -0.3170 -1.4218  1.8181
 5544TIP3   OH216595   0.994   4.376   1.757 -0.8096  0.1632  0.2649
 5544TIP3    H116596   0.931   4.311   1.788  0.7766 -1.9776 -0.7108
 5544TIP3    H216597   0.970   4.391   1.666 -1.0612  0.8479  0.4373
 5545TIP3   OH216598   4.176   1.918   3.659 -0.5688  0.0625 -0.0227
 5545TIP3    H116599   4.200   2.009   3.679 -1.1311  0.2198 -0.0340
 5545TIP3    H216600   4.199   1.908   3.566  1.5303 -0.5021  0.5085
 5546TIP3   OH216601   5.609   0.153   0.064 -0.4558 -0.2869  0.5515
 5546TIP3    H116602   5.687   0.100   0.084 -0.1176  0.1198  0.3237
 5546TIP3    H216603   5.638   0.243   0.078 -1.0227 -0.1555  0.9095
 5547TIP3   OH216604   4.837   2.655   2.716 -0.1899 -0.4593  0.2629
 5547TIP3    H116605   4.807   2.576   2.760 -0.2365 -1.5336 -1.6021
 5547TIP3    H216606   4.757   2.700   2.689 -0.1512 -0.1673  0.6194
 5548TIP3   OH216607   1.792   3.856   5.405  0.5027  0.1379 -0.0984
 5548TIP3    H116608   1.887   3.848   5.413  0.3364 -0.8658  1.3652
 5548TIP3    H216609   1.771   3.814   5.321  1.3500  0.4154 -0.4519
 5549TIP3   OH216610   4.328   0.818   4.292 -0.3261 -0.0976  0.7387
 5549TIP3    H116611   4.311   0.886   4.357  0.5956 -1.0826  2.0643
 5549TIP3    H216612   4.354   0.741   4.343 -0.9235 -1.3385 -0.7278
 5550TIP3   OH216613   0.176   1.113   2.348 -0.5363  0.2849  0.0386
 5550TIP3    H116614   0.149   1.030   2.309 -0.1473  0.8404 -1.4694
 5550TIP3    H216615   0.231   1.088   2.423 -0.6701 -0.8039 -0.2129
 5551TIP3   OH216616   4.585   3.500   3.431  0.0193  0.1004  0.0305
 5551TIP3    H116617   4.646   3.492   3.504 -0.9550  0.6314  0.9296
 5551TIP3    H216618   4.641   3.502   3.353  0.9813 -2.6699  0.5436
 5552TIP3   OH216619   5.265   6.293   2.371 -0.0248 -0.5946  0.1975
 5552TIP3    H116620   5.182   6.336   2.350  0.7630  0.6381 -0.4935
 5552TIP3    H216621   5.248   6.247   2.453 -1.3758 -0.3142  0.0914
 5553TIP3   OH216622   7.055   3.914   2.821  0.2071 -0.0563  0.1236
 5553TIP3    H116623   7.077   3.821   2.818 -1.2527 -0.4247 -0.0198
 5553TIP3    H216624   7.131   3.956   2.861  0.5981 -1.3947  0.8270
 5554TIP3   OH216625   1.425   5.788   5.442 -0.0676  0.2861 -0.1065
 5554TIP3    H116626   1.469   5.710   5.477 -0.0124 -0.8229 -2.4220
 5554TIP3    H216627   1.361   5.812   5.508  2.7347  0.9001  2.6064
 5555TIP3   OH216628   6.922   6.639   1.910  0.5956 -0.1934  0.3792
 5555TIP3    H116629   6.963   6.710   1.960  1.1915  0.8817 -1.5272
 5555TIP3    H216630   6.971   6.561   1.936  1.5720  0.5036  0.7071
 5556TIP3   OH216631   6.460   2.005   2.350  0.0380  0.0249 -0.3580
 5556TIP3    H116632   6.383   2.020   2.295 -0.4107  2.1193  0.7187
 5556TIP3    H216633   6.479   2.091   2.388  2.3354 -0.6462  0.1636
 5557TIP3   OH216634   0.498   5.223   1.733  0.1961 -0.2912  0.0196
 5557TIP3    H116635   0.578   5.240   1.683 -0.5163 -1.4558 -1.5587
 5557TIP3    H216636   0.449   5.306   1.728  1.7684  0.8608  2.0329
 5558TIP3   OH216637   0.661   1.994   1.580 -0.0041  0.3293  0.1894
 5558TIP3    H116638   0.716   1.923   1.614 -2.6172 -0.9787  2.0567
 5558TIP3    H216639   0.603   1.950   1.517 -2.0195  0.6048  1.7681
 5559TIP3   OH216640   4.358   2.513   4.831  0.6377  0.4703 -0.4378
 5559TIP3    H116641   4.337   2.430   4.873  1.8722 -1.0579 -2.6514
 5559TIP3    H216642   4.287   2.526   4.767 -1.3363  2.8662  1.9574
 5560TIP3   OH216643   4.518   5.062   2.807 -0.6896 -0.0145  0.7140
 5560TIP3    H116644   4.599   5.096   2.843 -0.6154  0.8985 -0.2583
 5560TIP3    H216645   4.545   5.009   2.732 -1.0535  2.3588 -1.2059
 5561TIP3   OH216646   0.816   0.526   2.716  0.3891 -0.0623  0.2939
 5561TIP3    H116647   0.829   0.435   2.688 -0.7789 -0.0467 -0.3766
 5561TIP3    H216648   0.902   0.554   2.747  1.2177 -0.8448 -1.1563
 5562TIP3   OH216649   5.452   0.917   1.680 -0.0763  0.1347 -0.0100
 5562TIP3    H116650   5.388   0.880   1.742  0.2388 -1.5473 -0.6406
 5562TIP3    H216651   5.529   0.934   1.734 -0.3053  0.0780  0.3423
 5563TIP3   OH216652   2.959   2.327   0.472 -0.3812  0.0391 -0.2442
 5563TIP3    H116653   2.886   2.371   0.430 -0.0733 -0.8516 -1.7861
 5563TIP3    H216654   2.926   2.239   0.491  0.7498 -0.9826 -2.5861
 5564TIP3   OH216655   6.839   2.397   3.313  0.3275  0.1354 -0.0837
 5564TIP3    H116656   6.834   2.349   3.396  0.4543  0.2875  0.0123
 5564TIP3    H216657   6.752   2.388   3.275 -0.1217  1.1320  0.6629
 5565TIP3   OH216658   3.623   6.513   1.606 -0.2024 -0.2922 -0.6529
 5565TIP3    H116659   3.668   6.591   1.637 -1.6079  0.4405 -0.3548
 5565TIP3    H216660   3.692   6.458   1.570  1.0804  0.1811  0.9708
 5566TIP3   OH216661   2.689   1.964   4.715 -0.0750 -0.1827 -0.2734
 5566TIP3    H116662   2.685   1.869   4.706  1.7365 -0.2669 -0.5306
 5566TIP3    H216663   2.630   1.997   4.647 -1.2617 -1.0955  0.2687
 5567TIP3   OH216664   4.894   4.333   4.315 -0.1122  0.2286 -0.1905
 5567TIP3    H116665   4.960   4.339   4.384  0.6839  2.2789 -1.0075
 5567TIP3    H216666   4.929   4.267   4.255  0.5312  0.3215  0.0665
 5568TIP3   OH216667   3.340   4.686   1.697  0.3366 -0.0616 -0.0975
 5568TIP3    H116668   3.345   4.680   1.793 -0.3410 -0.1630 -0.0583
 5568TIP3    H216669   3.323   4.597   1.668 -1.4933  0.2559 -0.1431
 5569TIP3   OH216670   4.552   6.105   5.064  0.3883  0.0418 -0.3773
 5569TIP3    H116671   4.613   6.093   5.137  1.6809  1.6347 -1.1579
 5569TIP3    H216672   4.607   6.104   4.986 -0.6562  0.9423 -1.1461
 5570TIP3   OH216673   4.228   2.665   4.283  0.3117  0.5980  0.5897
 5570TIP3    H116674   4.221   2.640   4.191  2.0572 -0.1806  0.6178
 5570TIP3    H216675   4.202   2.586   4.331 -2.1491  1.4897  0.8318
 5571TIP3   OH216676   6.165   2.912   4.361 -0.2952  0.2518 -0.0281
 5571TIP3    H116677   6.251   2.903   4.403 -0.0566 -2.0638 -0.8524
 5571TIP3    H216678   6.181   2.970   4.286  0.6646 -0.4869 -0.4176
 5572TIP3   OH216679   4.077   6.556   2.114  0.1209 -0.1953 -0.0200
 5572TIP3    H116680   3.985   6.575   2.092  0.2778 -1.4934 -2.0007
 5572TIP3    H216681   4.079   6.462   2.130  1.0178 -0.0714  0.6796
 5573TIP3   OH216682   3.156   4.435   1.837  0.2773 -0.1929  0.5603
 5573TIP3    H116683   3.199   4.481   1.909 -0.9361  0.6190  0.8052
 5573TIP3    H216684   3.142   4.346   1.869  1.8894 -0.5257  0.4061
 5574TIP3   OH216685   6.909   2.301   4.179 -1.0384  0.1779  0.1209
 5574TIP3    H116686   6.892   2.270   4.089 -0.9090  0.6062 -0.0517
 5574TIP3    H216687   6.841   2.367   4.194 -0.3245  0.9764 -0.1028
 5575TIP3   OH216688   3.346   1.418   0.580  0.3341  0.1163  0.8271
 5575TIP3    H116689   3.264   1.467   0.585 -0.6171 -1.3300  0.0752
 5575TIP3    H216690   3.352   1.371   0.663  0.0213 -0.3279  0.6039
 5576TIP3   OH216691   1.592   2.900   5.510 -0.1169  0.0840 -0.6335
 5576TIP3    H116692   1.592   2.822   5.455 -3.1456  0.1221 -0.8670
 5576TIP3    H216693   1.555   2.969   5.455  0.8202  1.2481  0.1444
 5577TIP3   OH216694   4.984   0.367   0.147 -0.5327  0.7734 -0.0190
 5577TIP3    H116695   4.956   0.417   0.070 -0.3658  0.0973 -0.5370
 5577TIP3    H216696   5.004   0.280   0.112  0.7969  0.8154  0.5712
 5578TIP3   OH216697   1.312   6.534   4.809  0.3255  0.2705 -0.2562
 5578TIP3    H116698   1.299   6.526   4.715 -0.7705  0.2460 -0.1137
 5578TIP3    H216699   1.257   6.608   4.835  0.7159  0.3569  0.3412
 5579TIP3   OH216700   3.604   0.619   2.447 -0.2089 -0.6603 -0.0517
 5579TIP3    H116701   3.576   0.602   2.537 -2.7077  0.4554 -0.5380
 5579TIP3    H216702   3.598   0.714   2.437  0.6640 -0.7089 -1.2157
 5580TIP3   OH216703   6.888   1.964   5.447  0.9091  0.6443 -0.0357
 5580TIP3    H116704   6.893   1.923   5.533  1.6142  0.1544 -0.2971
 5580TIP3    H216705   6.830   1.907   5.396  1.4313  0.2762 -0.2282
 5581TIP3   OH216706   4.052  -0.019   0.012 -0.4517  0.2628  0.0941
 5581TIP3    H116707   4.046   0.076   0.007  0.8408  0.3373 -0.5081
 5581TIP3    H216708   3.989  -0.044   0.079 -0.9243  1.5271  0.1415
 5582TIP3   OH216709   2.948   5.488   4.493 -0.0870  0.4450  0.1194
 5582TIP3    H116710   2.906   5.574   4.488 -1.0118 -0.0389 -3.6147
 5582TIP3    H216711   3.012   5.488   4.423 -1.3220 -2.4043 -1.1965
 5583TIP3   OH216712   0.639   2.949   0.023  0.4426  0.1181 -0.2919
 5583TIP3    H116713   0.735   2.950   0.031  0.4461  1.1571 -0.3952
 5583TIP3    H216714   0.620   3.005  -0.051 -0.2483 -0.2129 -0.3707
 5584TIP3   OH216715   0.090   2.596   1.741 -0.1520 -0.0102  0.1034
 5584TIP3    H116716   0.080   2.510   1.782  0.5881 -0.5105 -0.7110
 5584TIP3    H216717   0.011   2.644   1.765 -0.4406 -0.8219  0.8100
 5585TIP3   OH216718   6.759   1.268   5.599 -0.3872  0.2056  0.2307
 5585TIP3    H116719   6.671   1.285   5.567 -0.6081  1.1089  1.2355
 5585TIP3    H216720   6.801   1.354   5.604  0.2662 -0.1151  0.5538
 5586TIP3   OH216721   1.007   0.482   5.047 -0.1568  0.2019 -0.1717
 5586TIP3    H116722   0.981   0.393   5.022  0.0961  0.0338  0.1521
 5586TIP3    H216723   1.047   0.472   5.133 -2.7398  1.0094  1.2452
 5587TIP3   OH216724   4.186   5.919   3.580  0.2692 -0.1722 -0.2064
 5587TIP3    H116725   4.128   5.843   3.584  1.1097 -1.0310 -2.6828
 5587TIP3    H216726   4.255   5.899   3.644 -0.5922 -0.4928  0.6501
 5588TIP3   OH216727   6.014   1.696   1.084  0.1273 -0.1725  0.6686
 5588TIP3    H116728   6.017   1.601   1.072 -2.3418 -0.1070 -1.1142
 5588TIP3    H216729   5.952   1.727   1.019 -0.6043  2.4723  2.4471
 5589TIP3   OH216730   6.405   5.266   2.464  0.5054 -0.3085 -0.4404
 5589TIP3    H116731   6.452   5.220   2.534 -0.9224  0.2515  0.9404
 5589TIP3    H216732   6.447   5.351   2.459 -0.0013  0.0126  0.4552
 5590TIP3   OH216733   4.767   3.107   2.711 -0.2317 -0.2678  0.4170
 5590TIP3    H116734   4.738   3.157   2.635  0.2575  1.0698  1.0739
 5590TIP3    H216735   4.688   3.095   2.763 -0.4883 -0.8256 -0.0861
 5591TIP3   OH216736   1.428   2.928   4.800 -0.1170  0.3139  0.0954
 5591TIP3    H116737   1.481   2.982   4.859 -0.8917 -0.0388  1.1432
 5591TIP3    H216738   1.344   2.919   4.845  0.2207 -2.3726  0.3492
 5592TIP3   OH216739   3.169   3.571   1.167 -0.1109  0.0736  0.1707
 5592TIP3    H116740   3.190   3.480   1.185  1.3146  0.7486  2.3528
 5592TIP3    H216741   3.210   3.590   1.083  0.5619 -1.0099  0.2451
 5593TIP3   OH216742   2.294   2.824  -0.029  0.4706 -0.5377  0.0633
 5593TIP3    H116743   2.349   2.781   0.037 -0.7549 -1.0450  0.7876
 5593TIP3    H216744   2.207   2.828   0.011  0.3237  1.8351 -0.3416
 5594TIP3   OH216745   1.922   0.822   2.471  0.1062 -0.0692  0.5736
 5594TIP3    H116746   1.916   0.902   2.524  2.1131  0.2335  0.4317
 5594TIP3    H216747   2.015   0.799   2.474 -0.2407 -1.7180 -0.4124
 5595TIP3   OH216748   3.777   6.171   1.317  0.4077  0.6086  0.3681
 5595TIP3    H116749   3.774   6.207   1.406  0.7034 -3.7373  2.3848
 5595TIP3    H216750   3.713   6.100   1.317  0.5711  0.3056 -2.8651
 5596TIP3   OH216751   5.540   2.420   0.506  0.2246  0.3189 -0.1502
 5596TIP3    H116752   5.541   2.335   0.549  1.6141 -0.0702 -0.9162
 5596TIP3    H216753   5.507   2.402   0.418 -0.9939  0.8442  0.1747
 5597TIP3   OH216754   2.214   1.063   2.685 -0.4923 -0.7866 -0.4884
 5597TIP3    H116755   2.196   1.153   2.712 -1.4530 -0.8425 -0.9089
 5597TIP3    H216756   2.221   1.014   2.767  1.2750 -0.1365 -0.1968
 5598TIP3   OH216757   4.229   1.641   5.445 -0.0446 -0.5225  0.4707
 5598TIP3    H116758   4.233   1.559   5.395  0.8771 -1.3084  1.7431
 5598TIP3    H216759   4.149   1.633   5.497 -0.9745  0.2702 -0.8138
 5599TIP3   OH216760   3.052   3.871   5.614 -0.0328 -0.3160 -0.3626
 5599TIP3    H116761   2.975   3.849   5.665  0.5039 -1.9587 -0.2049
 5599TIP3    H216762   3.124   3.827   5.658  0.9165  0.6591 -0.8769
 5600TIP3   OH216763   5.985   4.156   0.316  0.2654 -0.6455 -0.0305
 5600TIP3    H116764   6.013   4.208   0.391 -0.4120 -0.4209  0.0739
 5600TIP3    H216765   5.891   4.146   0.328 -0.2143  1.0734 -1.8877
 5601TIP3   OH216766   2.847   2.929   3.615  0.2274 -0.0242  0.2546
 5601TIP3    H116767   2.764   2.883   3.625  0.8486 -1.8263 -1.9389
 5601TIP3    H216768   2.874   2.950   3.704 -2.9121  1.3800  1.0102
 5602TIP3   OH216769   4.467   1.970   5.267 -0.3552  0.2361  0.0388
 5602TIP3    H116770   4.541   1.986   5.208  1.2304 -1.2613  1.4839
 5602TIP3    H216771   4.405   1.920   5.214 -0.7471  2.1663 -1.4333
 5603TIP3   OH216772   0.264   2.404   1.264  0.1376  0.0057  0.4464
 5603TIP3    H116773   0.252   2.488   1.308 -0.3208  0.7285 -0.9796
 5603TIP3    H216774   0.300   2.427   1.178 -1.1189 -1.1310 -0.4230
 5604TIP3   OH216775   6.128   4.223   4.500  0.0102 -0.5056  0.0125
 5604TIP3    H116776   6.078   4.143   4.487  0.8271 -1.0158 -0.0710
 5604TIP3    H216777   6.187   4.204   4.573 -1.2760  0.7592  1.4576
 5605TIP3   OH216778   5.637   4.477   5.216  0.8109 -0.1788  0.3345
 5605TIP3    H116779   5.710   4.416   5.212  2.2610  1.5354 -1.4763
 5605TIP3    H216780   5.659   4.538   5.286  1.5845  0.8385 -0.7653
 5606TIP3   OH216781   4.153   0.419   0.976  0.1819 -0.1367 -0.5541
 5606TIP3    H116782   4.082   0.355   0.979  0.7507 -0.7768 -0.7505
 5606TIP3    H216783   4.111   0.501   1.004 -0.6603 -0.4805 -0.7579
 5607TIP3   OH216784   6.895   5.831   2.385 -0.1688 -0.3209 -0.2185
 5607TIP3    H116785   6.888   5.744   2.425 -2.1480 -0.4920 -0.8524
 5607TIP3    H216786   6.920   5.813   2.294  1.6127 -0.0685  0.1817
 5608TIP3   OH216787   2.075   3.902   3.748  1.1411 -0.1090 -0.5402
 5608TIP3    H116788   2.067   3.992   3.781 -0.7541 -0.1516 -0.8078
 5608TIP3    H216789   2.137   3.861   3.808 -0.5905  0.4249  1.7724
 5609TIP3   OH216790   6.750   3.112   0.185 -0.5898  0.4964  0.5659
 5609TIP3    H116791   6.775   3.039   0.241 -0.6785  1.0063  1.2723
 5609TIP3    H216792   6.712   3.176   0.244 -0.2963  1.2213 -0.0169
 5610TIP3   OH216793   5.054   4.706   2.725 -0.1002 -0.1284  0.0227
 5610TIP3    H116794   5.016   4.769   2.786 -1.8157 -1.0570 -0.0167
 5610TIP3    H216795   4.980   4.650   2.699  1.3343 -2.1865  0.0936
 5611TIP3   OH216796   1.262   1.254   1.668 -0.0942  0.1512 -0.0945
 5611TIP3    H116797   1.316   1.333   1.670 -0.1138  0.1653 -0.1381
 5611TIP3    H216798   1.229   1.246   1.757 -0.0383  0.1554 -0.0733
 5612TIP3   OH216799   4.339   6.553   3.372 -0.1030  0.4541 -0.3910
 5612TIP3    H116800   4.418   6.573   3.322  0.4593 -0.9868 -0.1432
 5612TIP3    H216801   4.363   6.571   3.463 -0.2664  0.6227 -0.3821
 5613TIP3   OH216802   4.527   5.227   1.704  0.2759 -0.0323  0.2953
 5613TIP3    H116803   4.579   5.158   1.745 -1.1841 -1.0866  0.4653
 5613TIP3    H216804   4.454   5.181   1.663  1.2832  1.0211 -2.9960
 5614TIP3   OH216805   1.058   0.177   3.291 -0.1525 -0.4811 -0.0409
 5614TIP3    H116806   1.094   0.191   3.379 -1.3409 -1.6515  0.6822
 5614TIP3    H216807   1.128   0.203   3.231 -0.2060  2.9436  1.1566
 5615TIP3   OH216808   5.694   6.420   1.635  0.3777  0.0651  0.1047
 5615TIP3    H116809   5.648   6.394   1.556 -1.9367  1.9603  0.7255
 5615TIP3    H216810   5.649   6.373   1.706  1.0452  0.0305  0.5173
 5616TIP3   OH216811   5.368   2.666   5.376  0.3174  0.0011  0.1156
 5616TIP3    H116812   5.284   2.712   5.388  0.8181  0.6660  1.3119
 5616TIP3    H216813   5.371   2.646   5.283 -1.3630 -0.4107  0.1164
 5617TIP3   OH216814   4.191   4.506   2.395  0.0908 -0.0522  0.5755
 5617TIP3    H116815   4.129   4.471   2.458  1.5319  0.5714  2.4330
 5617TIP3    H216816   4.146   4.582   2.357 -1.0579 -0.8412  0.3092
 5618TIP3   OH216817   3.044   1.540   4.033 -0.1740 -0.0465 -0.1495
 5618TIP3    H116818   3.001   1.624   4.014  0.1830  0.3494  0.7467
 5618TIP3    H216819   3.113   1.562   4.095  0.8056 -0.8092 -0.9535
 5619TIP3   OH216820   6.389   0.148   4.515  0.4948 -0.1679 -0.4268
 5619TIP3    H116821   6.380   0.190   4.601  0.4077  1.9460 -1.4094
 5619TIP3    H216822   6.477   0.113   4.515 -0.1451 -1.9474  1.2290
 5620TIP3   OH216823   3.521   5.195   3.284 -0.1198 -0.5686  0.4375
 5620TIP3    H116824   3.441   5.236   3.317  0.9111  0.7906  1.4197
 5620TIP3    H216825   3.537   5.122   3.343  1.3483  1.4490  2.7468
 5621TIP3   OH216826   2.475   6.714   0.372 -0.0888 -0.2753  0.3233
 5621TIP3    H116827   2.417   6.729   0.447 -0.1473  1.1867  0.0037
 5621TIP3    H216828   2.512   6.627   0.388 -2.0354 -1.0734  0.7403
 5622TIP3   OH216829   3.634   6.672   3.527 -0.3893 -0.0257 -0.1189
 5622TIP3    H116830   3.543   6.698   3.541 -0.7541 -0.9231 -0.7490
 5622TIP3    H216831   3.662   6.720   3.449 -0.9646 -1.2397 -1.0997
 5623TIP3   OH216832   5.473   6.666   0.796 -0.1331 -0.2627 -0.2687
 5623TIP3    H116833   5.543   6.609   0.762 -0.3427 -0.0383 -1.1095
 5623TIP3    H216834   5.421   6.610   0.852 -0.5872 -1.0258 -1.4207
 5624TIP3   OH216835   0.649   3.677   0.197 -0.1730 -0.0726  0.5382
 5624TIP3    H116836   0.583   3.669   0.266 -0.0449  1.0313  0.8076
 5624TIP3    H216837   0.598   3.689   0.117 -0.3135 -0.8849  0.4961
 5625TIP3   OH216838   5.149   1.565   1.813 -0.5043  0.8761  0.3170
 5625TIP3    H116839   5.243   1.549   1.803 -0.1757  1.4792  2.2187
 5625TIP3    H216840   5.108   1.495   1.760  0.9881 -0.8240  1.2897
 5626TIP3   OH216841   6.100   5.342   0.647  0.0218  0.0247 -0.2960
 5626TIP3    H116842   6.188   5.307   0.663  1.1127  2.1360 -1.2029
 5626TIP3    H216843   6.081   5.394   0.725  0.5852  1.3341 -0.9803
 5627TIP3   OH216844   0.460   0.485   1.053 -0.3836 -0.1108 -0.5111
 5627TIP3    H116845   0.416   0.418   1.000  1.1506  0.0024 -1.9961
 5627TIP3    H216846   0.554   0.469   1.040  0.0470  0.7033  1.2214
 5628TIP3   OH216847   6.566   2.830   3.857 -0.6671  0.2775  0.3242
 5628TIP3    H116848   6.632   2.808   3.923 -1.7668  2.5580  2.3530
 5628TIP3    H216849   6.617   2.857   3.780  0.6630 -3.6103 -0.3868
 5629TIP3   OH216850   5.038   4.885   2.141  0.6255  0.1754  0.2645
 5629TIP3    H116851   5.115   4.918   2.095  0.8625 -1.4534 -0.5843
 5629TIP3    H216852   5.055   4.904   2.233  1.2511  1.3403 -0.0696
 5630TIP3   OH216853   2.670   3.101   2.314  0.0429 -0.0881  0.3603
 5630TIP3    H116854   2.599   3.053   2.271  0.7612 -0.1043 -0.8652
 5630TIP3    H216855   2.677   3.182   2.264  2.2509 -0.9868 -0.9132
 5631TIP3   OH216856   2.109   1.393   1.802 -0.2939  0.3328 -0.5768
 5631TIP3    H116857   2.178   1.459   1.804  0.4440 -0.4473  1.5175
 5631TIP3    H216858   2.136   1.331   1.735  0.4146  0.6756 -0.6099
 5632TIP3   OH216859   6.869   1.293   1.034  0.2193 -0.2471 -0.0615
 5632TIP3    H116860   6.806   1.239   0.988 -0.2737  0.2039  0.0745
 5632TIP3    H216861   6.896   1.359   0.970  0.4064 -0.3228 -0.0606
 5633TIP3   OH216862   3.173   5.322   3.575  0.1440  0.0006  0.6531
 5633TIP3    H116863   3.143   5.391   3.633  0.7765  0.4827  0.4135
 5633TIP3    H216864   3.118   5.246   3.597  0.1792  0.2615  1.6577
 5634TIP3   OH216865   1.509   0.248   2.027  0.1070  0.1693 -0.1444
 5634TIP3    H116866   1.445   0.188   2.065  0.3629  0.3439  0.5705
 5634TIP3    H216867   1.475   0.335   2.048 -0.2708  0.3024 -1.1882
 5635TIP3   OH216868   4.046   2.739   5.329 -0.1748 -0.4264  0.1614
 5635TIP3    H116869   4.103   2.815   5.314  1.2238 -1.5440 -0.5157
 5635TIP3    H216870   4.092   2.688   5.396 -0.1840 -1.5118 -0.6333
 5636TIP3   OH216871   2.990   3.123   4.228 -0.2436 -0.3204 -0.3090
 5636TIP3    H116872   2.919   3.126   4.164 -0.9051 -0.3390  0.3968
 5636TIP3    H216873   3.021   3.214   4.235 -0.5435 -0.2210 -0.2579
 5637TIP3   OH216874   5.630   2.256   1.376 -0.1222  0.0024  0.1335
 5637TIP3    H116875   5.606   2.193   1.308  1.8729  0.7497 -1.3589
 5637TIP3    H216876   5.711   2.221   1.414  1.0734  1.6289 -0.7752
 5638TIP3   OH216877   2.729   4.413   2.119 -0.1448  0.2825 -0.4270
 5638TIP3    H116878   2.731   4.497   2.164  0.8745  0.0859 -0.0765
 5638TIP3    H216879   2.792   4.422   2.047  0.0505 -0.2105 -0.3251
 5639TIP3   OH216880   3.879   3.635   4.967  0.0705 -0.9022  0.0429
 5639TIP3    H116881   3.936   3.712   4.960 -2.2951  0.9734 -0.0691
 5639TIP3    H216882   3.909   3.589   5.045  0.8958  0.7478  0.7495
 5640TIP3   OH216883   4.134   2.719   2.760  0.0207 -0.1759  0.3335
 5640TIP3    H116884   4.170   2.630   2.768  1.1555 -0.0365 -2.2686
 5640TIP3    H216885   4.040   2.708   2.776  0.3729 -1.5409  1.6823
 5641TIP3   OH216886   5.955   1.820   3.812 -0.2328 -0.0061 -0.0682
 5641TIP3    H116887   5.999   1.743   3.775 -0.6066  0.0833 -0.7138
 5641TIP3    H216888   6.024   1.869   3.856 -0.0417 -0.8769  0.6377
 5642TIP3   OH216889   5.127   2.230   4.968 -0.2652  0.5832 -0.7291
 5642TIP3    H116890   5.199   2.187   5.013  0.8439  1.7221 -1.3711
 5642TIP3    H216891   5.056   2.165   4.969  0.5699 -0.3451  0.3915
 5643TIP3   OH216892   4.934   4.698   3.912  0.8789  0.0787  0.6308
 5643TIP3    H116893   5.017   4.664   3.879  0.8440  2.5101 -2.3873
 5643TIP3    H216894   4.882   4.620   3.930  2.1514 -1.5403 -2.0961
 5644TIP3   OH216895   6.967   6.570   0.623 -0.4496  0.7678 -0.3359
 5644TIP3    H116896   6.924   6.627   0.686 -1.5565 -0.2786 -0.1124
 5644TIP3    H216897   6.946   6.481   0.652  0.6669  0.2320 -1.0587
 5645TIP3   OH216898   3.898   0.323   3.511 -0.1111  0.9375  0.0198
 5645TIP3    H116899   3.890   0.410   3.470 -0.2660  1.2616  0.7159
 5645TIP3    H216900   3.814   0.281   3.495 -1.2797  2.1490  2.3833
 5646TIP3   OH216901   4.673   6.513   1.810 -0.9424 -0.0558  0.2647
 5646TIP3    H116902   4.714   6.500   1.724 -0.0843  0.9794  0.5034
 5646TIP3    H216903   4.665   6.608   1.819  0.7730 -0.0372  2.1510
 5647TIP3   OH216904   2.598   3.904   2.389 -0.6995  0.3181 -0.3149
 5647TIP3    H116905   2.634   3.991   2.370 -1.2779  0.7637  0.5535
 5647TIP3    H216906   2.674   3.848   2.402 -0.3062  1.1288  1.0232
 5648TIP3   OH216907   2.687   3.372   5.654  0.0884 -0.5121  0.7499
 5648TIP3    H116908   2.634   3.424   5.714 -1.0976 -1.2820  0.3937
 5648TIP3    H216909   2.643   3.380   5.569  0.6722 -0.9642  0.3946
 5649TIP3   OH216910   3.148   2.042   0.782 -0.0847 -0.8257  0.1524
 5649TIP3    H116911   3.148   2.137   0.793 -3.1226 -0.9218  1.9240
 5649TIP3    H216912   3.093   2.026   0.706 -0.8777 -1.1823  0.7839
 5650TIP3   OH216913   4.036   0.843   2.213 -0.3407 -0.0095 -0.3299
 5650TIP3    H116914   3.999   0.758   2.190 -0.8559 -0.4514  1.9113
 5650TIP3    H216915   4.119   0.822   2.256  0.9114  0.8134 -2.1749
 5651TIP3   OH216916   0.750   2.296   3.291 -0.5524  0.0896  0.0875
 5651TIP3    H116917   0.714   2.368   3.343  0.1401 -0.5316  1.4673
 5651TIP3    H216918   0.844   2.300   3.305 -0.4733 -0.8851 -0.0535
 5652TIP3   OH216919   5.173   6.467   5.652 -0.5610  0.3523  0.2131
 5652TIP3    H116920   5.207   6.428   5.732 -0.9366 -2.1680 -0.7482
 5652TIP3    H216921   5.082   6.489   5.672  0.2049  2.8341  1.3902
 5653TIP3   OH216922   3.049   2.562   3.399  0.5704 -0.3286  0.0007
 5653TIP3    H116923   2.962   2.537   3.369  1.1257 -1.3604 -0.8345
 5653TIP3    H216924   3.055   2.526   3.487 -0.0772  0.3236  0.3198
 5654TIP3   OH216925   4.414   3.893   2.848 -0.2146  0.2178 -0.8502
 5654TIP3    H116926   4.384   3.803   2.839  0.5932 -0.1882  0.3430
 5654TIP3    H216927   4.423   3.907   2.942  0.1906  1.3631 -1.0384
 5655TIP3   OH216928   7.066   4.286   2.099 -0.1602 -0.4672 -0.1930
 5655TIP3    H116929   7.108   4.270   2.015  1.5008 -0.3023  0.5805
 5655TIP3    H216930   7.098   4.216   2.156 -1.0055 -0.3905  0.4055
 5656TIP3   OH216931   0.959   6.110   1.752 -0.6286 -0.0941 -0.0969
 5656TIP3    H116932   0.934   6.188   1.802  2.5806  0.3919  1.0174
 5656TIP3    H216933   0.942   6.037   1.811 -0.2711  0.1342  0.2951
 5657TIP3   OH216934   3.415   0.302   3.789  0.0679  0.0560 -0.4308
 5657TIP3    H116935   3.460   0.279   3.871  0.0799  0.4344 -0.3276
 5657TIP3    H216936   3.394   0.395   3.799 -1.0492 -0.1896 -0.3280
 5658TIP3   OH216937   3.515   3.433   0.991  0.0091  0.0399  0.5573
 5658TIP3    H116938   3.492   3.353   1.039  0.6945 -0.9069 -0.6024
 5658TIP3    H216939   3.610   3.427   0.979 -0.1740  0.0225 -1.1948
 5659TIP3   OH216940   6.226   4.714   1.904 -0.3663 -0.3041  0.0741
 5659TIP3    H116941   6.222   4.716   2.000  3.4440  1.4555  0.3849
 5659TIP3    H216942   6.255   4.625   1.883 -1.6999 -0.8588  0.4263
 5660TIP3   OH216943   6.621   2.542   4.891  0.5546 -0.7952 -0.3627
 5660TIP3    H116944   6.671   2.564   4.812 -0.6262 -0.6528 -1.0888
 5660TIP3    H216945   6.553   2.483   4.859 -1.1344  0.7877  0.1994
 5661TIP3   OH216946   3.440   4.715   0.245 -0.6202 -0.0062 -0.3126
 5661TIP3    H116947   3.522   4.718   0.195 -1.1186 -2.0153 -1.3576
 5661TIP3    H216948   3.379   4.670   0.187 -2.7218  2.0728  0.1474
 5662TIP3   OH216949   0.084   4.674   2.699 -0.3804 -0.1730  0.0916
 5662TIP3    H116950   0.116   4.623   2.774 -1.5881 -0.7138  0.2774
 5662TIP3    H216951   0.031   4.743   2.739 -0.5121 -0.0770 -0.2457
 5663TIP3   OH216952   3.065   2.826   5.604  0.0124 -0.6892 -0.6086
 5663TIP3    H116953   3.071   2.797   5.695 -1.1286  0.0350 -0.2786
 5663TIP3    H216954   3.156   2.842   5.579  0.2489  0.9847  1.0541
 5664TIP3   OH216955   2.099   5.607   2.899  0.3098 -0.0120  0.6926
 5664TIP3    H116956   2.071   5.661   2.974  0.6477 -0.5605  1.2233
 5664TIP3    H216957   2.192   5.629   2.888  0.3927 -0.3187  0.7702
 5665TIP3   OH216958   6.618   2.026   1.020  0.4637 -0.3831  0.7953
 5665TIP3    H116959   6.591   1.937   0.999 -0.2610 -0.3794  1.6742
 5665TIP3    H216960   6.544   2.064   1.067  1.8425 -0.3053  3.0966
 5666TIP3   OH216961   1.429   3.500   0.539  0.1286  0.1174 -0.2856
 5666TIP3    H116962   1.477   3.551   0.605 -0.4187  0.9385 -0.5129
 5666TIP3    H216963   1.497   3.447   0.496  0.4959 -0.3868  0.8882
 5667TIP3   OH216964   6.681   6.187   2.869  0.3128  0.1007 -0.0157
 5667TIP3    H116965   6.598   6.229   2.844  1.1595  0.6897 -2.0370
 5667TIP3    H216966   6.655   6.101   2.903 -1.1201  0.2444 -0.6871
 5668TIP3   OH216967   6.306   4.310   5.251 -0.1757 -0.2492  0.0866
 5668TIP3    H116968   6.229   4.287   5.303 -0.0337 -1.7764 -0.3243
 5668TIP3    H216969   6.373   4.247   5.279  0.2823 -0.2794 -1.0388
 5669TIP3   OH216970   1.280   1.249   3.164 -0.3991 -0.4080 -0.0452
 5669TIP3    H116971   1.221   1.261   3.089  0.0325  0.3054 -0.2766
 5669TIP3    H216972   1.298   1.337   3.195  2.0773 -0.4691 -1.1525
 5670TIP3   OH216973   0.399   3.972   1.400 -0.0021 -0.0163 -0.5254
 5670TIP3    H116974   0.305   3.979   1.388  0.1058  0.1884 -1.3231
 5670TIP3    H216975   0.436   4.008   1.319  0.7554 -0.2589 -0.2950
 5671TIP3   OH216976   0.217   0.599  -0.037 -0.2805  0.0105  0.8219
 5671TIP3    H116977   0.170   0.530   0.011 -1.2785  0.0365 -0.0778
 5671TIP3    H216978   0.265   0.647   0.031  0.2206 -1.3921  1.4960
 5672TIP3   OH216979   3.588   1.645   4.167  0.1207  0.0041 -0.4363
 5672TIP3    H116980   3.634   1.565   4.142  0.9203 -0.3332  1.8989
 5672TIP3    H216981   3.502   1.615   4.196 -0.4903  0.3051 -1.8354
 5673TIP3   OH216982   0.015   4.126   5.084 -0.0981  0.0609 -0.2177
 5673TIP3    H116983  -0.063   4.118   5.139 -0.5707  0.5620 -0.7958
 5673TIP3    H216984   0.056   4.207   5.115 -0.8374  0.8204 -1.1633
 5674TIP3   OH216985   5.380   4.816   2.257 -0.3804 -0.0517 -0.0657
 5674TIP3    H116986   5.332   4.733   2.258 -1.6216  0.6392  0.0913
 5674TIP3    H216987   5.323   4.878   2.303  0.2611  1.0319 -0.6624
 5675TIP3   OH216988   0.558   4.453   1.192  0.1411 -0.3020  0.3291
 5675TIP3    H116989   0.519   4.540   1.203 -2.0366 -1.1173 -0.4987
 5675TIP3    H216990   0.521   4.401   1.263 -0.0076 -1.0133 -0.2629
 5676TIP3   OH216991   1.625   0.550   4.611 -0.4252 -0.1821 -0.3657
 5676TIP3    H116992   1.678   0.590   4.542 -0.7870  2.1810  0.6413
 5676TIP3    H216993   1.548   0.516   4.565 -1.0873  2.1306 -1.0940
 5677TIP3   OH216994   6.584   2.019   1.806  1.4957  0.3487 -0.1430
 5677TIP3    H116995   6.531   1.940   1.811  3.8652 -1.4185 -0.9462
 5677TIP3    H216996   6.565   2.066   1.887 -0.2299 -0.8448  0.2021
 5678TIP3   OH216997   1.150   1.713   0.271 -0.3082  0.0438  0.0434
 5678TIP3    H116998   1.094   1.787   0.295 -2.2207 -1.3129 -0.0306
 5678TIP3    H216999   1.156   1.660   0.350 -3.5838 -2.5149 -1.1640
 5679TIP3   OH217000   4.520   2.703   5.524 -0.1880  0.3321  0.2277
 5679TIP3    H117001   4.430   2.682   5.552 -0.1420  0.8728  0.8083
 5679TIP3    H217002   4.536   2.644   5.451 -1.5203  1.1775 -0.7935
 5680TIP3   OH217003   6.226   1.984   2.964 -0.4403 -0.1214  0.1131
 5680TIP3    H117004   6.163   1.978   2.892  0.9663 -2.3667 -1.0652
 5680TIP3    H217005   6.308   2.008   2.921  0.5054 -1.8397  0.8785
 5681TIP3   OH217006   6.368   2.533   1.678 -0.0672 -0.5123 -0.0449
 5681TIP3    H117007   6.360   2.477   1.600  3.1170 -0.6329 -0.3983
 5681TIP3    H217008   6.309   2.492   1.741  0.0940 -2.6815 -1.1815
 5682TIP3   OH217009   6.264   1.463   3.904 -0.2093  0.1617 -0.4310
 5682TIP3    H117010   6.179   1.448   3.862 -0.3621  1.4963 -0.6550
 5682TIP3    H217011   6.281   1.384   3.955 -1.5021 -0.1983 -0.5407
 5683TIP3   OH217012   6.785   1.855   0.183 -0.0755  0.1899  0.2258
 5683TIP3    H117013   6.841   1.928   0.159  0.2126 -0.0255  0.2371
 5683TIP3    H217014   6.733   1.888   0.257  1.1696 -0.1185  1.2658
 5684TIP3   OH217015   4.058   1.823   0.112  0.1470 -0.3013  0.8422
 5684TIP3    H117016   3.978   1.771   0.120 -0.1816  0.2742  1.3503
 5684TIP3    H217017   4.126   1.758   0.096 -0.4940 -0.7605 -0.1764
 5685TIP3   OH217018   6.328   6.531   4.264 -0.4082 -0.2379  0.7855
 5685TIP3    H117019   6.373   6.561   4.343 -0.0222 -0.9019  0.8205
 5685TIP3    H217020   6.271   6.460   4.293  0.4148 -1.1130  0.3400
 5686TIP3   OH217021   3.311   3.729   2.094  0.1279 -0.2038 -0.6116
 5686TIP3    H117022   3.349   3.643   2.078 -1.0783 -1.3074  1.8385
 5686TIP3    H217023   3.313   3.739   2.190 -0.7581  2.0258 -0.7487
 5687TIP3   OH217024   2.349   5.943   3.351  0.3949 -0.4622  0.7353
 5687TIP3    H117025   2.362   5.856   3.313  0.2067 -0.1905  0.0438
 5687TIP3    H217026   2.417   5.997   3.311 -0.4228  0.0620  0.0239
 5688TIP3   OH217027   5.097   5.014   1.660 -0.3512 -0.0154  0.4673
 5688TIP3    H117028   5.029   4.950   1.638  0.1485 -0.8095  1.2020
 5688TIP3    H217029   5.053   5.099   1.654 -0.7548 -0.3010 -1.6420
 5689TIP3   OH217030   3.757   3.745   4.484 -0.9524  0.2852  0.5441
 5689TIP3    H117031   3.845   3.706   4.481 -1.5180 -1.0275 -0.0477
 5689TIP3    H217032   3.745   3.771   4.575  0.2624  1.0239  0.5147
 5690TIP3   OH217033   1.647   4.294   5.117  0.4787 -0.2500 -0.2707
 5690TIP3    H117034   1.601   4.315   5.036 -0.0104 -1.0479 -0.2107
 5690TIP3    H217035   1.582   4.305   5.186  1.0941  1.1722  0.1229
 5691TIP3   OH217036   0.116   0.427   0.152  0.0176  0.1111  0.0207
 5691TIP3    H117037   0.160   0.489   0.210 -0.2111 -0.1986  0.5279
 5691TIP3    H217038   0.099   0.351   0.207  0.4330 -0.4693 -0.6382
 5692TIP3   OH217039   1.682   5.609   3.932  0.2887 -0.5551 -0.6140
 5692TIP3    H117040   1.742   5.608   4.007  1.0634 -0.5781 -1.2206
 5692TIP3    H217041   1.734   5.574   3.859 -0.3301 -0.1549 -1.2590
 5693TIP3   OH217042   5.509   0.668   1.508 -0.1245  0.0709 -0.3958
 5693TIP3    H117043   5.567   0.611   1.558 -1.0918 -0.6099 -0.0274
 5693TIP3    H217044   5.536   0.757   1.533  1.5422 -0.1852 -1.1595
 5694TIP3   OH217045   2.350   3.464   2.089 -0.1138  0.8025  0.4005
 5694TIP3    H117046   2.257   3.462   2.068 -1.0261 -0.2528  3.8275
 5694TIP3    H217047   2.361   3.542   2.143  1.0935  1.0740 -0.1921
 5695TIP3   OH217048   5.500   3.291   1.469 -0.4492 -0.5392  0.0043
 5695TIP3    H117049   5.501   3.250   1.556 -0.1623  0.2387  0.3747
 5695TIP3    H217050   5.474   3.382   1.486  0.4237 -0.1577 -0.6184
 5696TIP3   OH217051   5.337   0.161   0.973 -0.6410  0.4037 -0.0972
 5696TIP3    H117052   5.318   0.242   0.927  1.7456  0.3864 -1.2553
 5696TIP3    H217053   5.382   0.188   1.053 -2.3922  0.2981  0.9791
 5697TIP3   OH217054   6.635   3.053   5.499 -0.2838 -0.0166 -0.2809
 5697TIP3    H117055   6.552   3.049   5.547 -0.3697 -0.9011 -0.4909
 5697TIP3    H217056   6.691   3.109   5.553 -0.3116 -1.1481  0.9710
 5698TIP3   OH217057   2.701   3.101   0.346 -0.1953 -0.1222 -0.1278
 5698TIP3    H117058   2.654   3.090   0.263  0.6790  1.5897 -0.9123
 5698TIP3    H217059   2.781   3.050   0.335 -0.0865  0.0919 -0.3565
 5699TIP3   OH217060   6.058   2.827   1.557  0.4482  0.0780  0.4313
 5699TIP3    H117061   6.057   2.880   1.637  0.3454 -0.3996  0.7510
 5699TIP3    H217062   6.140   2.779   1.562  1.0928  1.0682 -0.4341
 5700TIP3   OH217063   3.623   4.533   4.732  0.1605 -0.0131  0.4634
 5700TIP3    H117064   3.557   4.573   4.789 -0.3938 -0.0119 -0.1613
 5700TIP3    H217065   3.574   4.505   4.654  0.8122 -0.4687  0.2005
 5701TIP3   OH217066   6.928   2.974   5.010  0.2863 -0.3621 -0.3954
 5701TIP3    H117067   6.961   3.063   5.015 -0.2678 -0.2026  0.7543
 5701TIP3    H217068   7.006   2.919   5.017  0.4504  0.0247  0.9657
 5702TIP3   OH217069   1.660   0.857   3.249  0.3020  0.1310  0.0959
 5702TIP3    H117070   1.667   0.832   3.157 -0.9338 -0.8362  0.2452
 5702TIP3    H217071   1.751   0.860   3.280  0.6372 -1.9943 -0.5183
 5703TIP3   OH217072   1.172   3.117   2.199  0.0726 -0.6838  0.2670
 5703TIP3    H117073   1.146   3.187   2.259  0.1985  0.6896 -1.2087
 5703TIP3    H217074   1.262   3.097   2.224  0.4427  0.5203 -0.0132
 5704TIP3   OH217075   6.177   4.415   3.411 -0.2998  0.2364  0.0493
 5704TIP3    H117076   6.174   4.414   3.507  0.0652 -0.3893  0.0588
 5704TIP3    H217077   6.269   4.399   3.389 -0.5931 -0.9430 -0.4106
 5705TIP3   OH217078   2.530   2.164   3.200  0.0333  0.0062  0.7291
 5705TIP3    H117079   2.580   2.147   3.120 -1.6645  1.0956 -0.6504
 5705TIP3    H217080   2.587   2.219   3.253  1.3466 -1.0436  0.4539
 5706TIP3   OH217081   4.120   2.434   5.593  0.1768  0.3605 -0.2921
 5706TIP3    H117082   4.207   2.420   5.630  0.5354  0.6220 -1.0149
 5706TIP3    H217083   4.135   2.443   5.499 -0.6671  0.0941 -0.4660
 5707TIP3   OH217084   0.029   0.583   5.236 -0.6333  0.3924  0.2590
 5707TIP3    H117085   0.043   0.618   5.324 -1.1982 -1.4795  1.1517
 5707TIP3    H217086  -0.037   0.641   5.198 -2.3560 -0.2616  2.0804
 5708TIP3   OH217087   0.787   5.559   0.520 -0.4819 -0.7894  0.0792
 5708TIP3    H117088   0.867   5.550   0.470  0.0062  3.0237 -0.1395
 5708TIP3    H217089   0.816   5.579   0.609 -1.1075  0.5620  0.0129
 5709TIP3   OH217090   6.703   0.174   2.870 -0.1438  0.4371  0.2200
 5709TIP3    H117091   6.693   0.241   2.802 -0.0429  1.4885  1.1995
 5709TIP3    H217092   6.620   0.127   2.871 -0.5787  1.1924  0.1642
 5710TIP3   OH217093   2.239   4.003   5.463 -0.4403 -0.1868  0.2610
 5710TIP3    H117094   2.293   4.079   5.441  1.3519 -1.3868  0.3239
 5710TIP3    H217095   2.269   3.978   5.551 -0.2121 -1.6162 -0.2132
 5711TIP3   OH217096   5.783   2.832   2.401 -0.1185 -0.4100 -0.0676
 5711TIP3    H117097   5.741   2.849   2.485 -0.6694 -1.0336 -0.2112
 5711TIP3    H217098   5.713   2.839   2.337  0.2615 -0.1371 -0.4599
 5712TIP3   OH217099   3.784   1.075   2.628  0.4568  0.3286  0.3649
 5712TIP3    H117100   3.800   1.066   2.534 -1.5271  0.3099 -0.0145
 5712TIP3    H217101   3.867   1.107   2.663  1.5416 -0.5783 -1.2311
 5713TIP3   OH217102   3.798   2.843   1.069  0.6783  0.3714 -0.1361
 5713TIP3    H117103   3.831   2.755   1.084  0.5170  0.4654  0.8523
 5713TIP3    H217104   3.702   2.832   1.068  0.6626  0.5121 -0.1556
 5714TIP3   OH217105   3.429   5.417   3.624  0.0031  0.4507  0.1601
 5714TIP3    H117106   3.361   5.350   3.610 -1.4863  1.6198  1.4197
 5714TIP3    H217107   3.496   5.397   3.559 -1.2181 -1.2008 -0.6665
 5715TIP3   OH217108   6.507   5.245   0.443 -0.0613 -0.1331  0.7720
 5715TIP3    H117109   6.572   5.252   0.513  0.6179  3.0593  0.0072
 5715TIP3    H217110   6.554   5.202   0.372  1.0000  1.2968  0.5574
 5716TIP3   OH217111   3.884   3.315   1.001  0.1013 -0.4632  0.0760
 5716TIP3    H117112   3.932   3.235   1.024  2.4581  0.6184 -0.7001
 5716TIP3    H217113   3.910   3.334   0.910  0.1781  1.5218  0.4526
 5717TIP3   OH217114   6.811   4.861   3.633 -0.5851  0.4954  0.6385
 5717TIP3    H117115   6.765   4.777   3.640 -1.6872  0.9804 -0.4185
 5717TIP3    H217116   6.756   4.922   3.681 -0.2927  0.8140  0.5682
 5718TIP3   OH217117   6.626   3.108   4.695  1.1161  0.3030  0.9664
 5718TIP3    H117118   6.624   3.061   4.779 -1.6792 -1.3940  0.0715
 5718TIP3    H217119   6.549   3.164   4.697 -0.0723 -1.1494 -1.1332
 5719TIP3   OH217120   6.724   1.446   0.106  0.2631 -0.8133  0.1723
 5719TIP3    H117121   6.813   1.473   0.130  0.3209 -0.4150 -0.4864
 5719TIP3    H217122   6.734   1.355   0.079  0.3866 -0.9130  0.5392
 5720TIP3   OH217123   7.002   1.470   4.737  0.3407 -0.2815 -0.4542
 5720TIP3    H117124   7.069   1.423   4.786  0.9986 -0.0064 -1.0775
 5720TIP3    H217125   7.029   1.462   4.645 -0.2361  0.2102 -0.6738
 5721TIP3   OH217126   5.922   3.365   1.900 -0.4750  0.5827  0.0970
 5721TIP3    H117127   6.005   3.374   1.853 -0.3059 -0.4844  0.1793
 5721TIP3    H217128   5.941   3.393   1.989 -0.3944  1.0294 -0.0548
 5722TIP3   OH217129   6.330   2.098   3.217 -0.1389 -0.0059 -0.4873
 5722TIP3    H117130   6.397   2.057   3.161  1.7925 -0.3349  1.8816
 5722TIP3    H217131   6.322   2.187   3.184  0.6873 -0.2937 -1.5118
 5723TIP3   OH217132   1.401   1.269   1.408  0.5118 -0.1912  0.7098
 5723TIP3    H117133   1.421   1.358   1.438  4.0022 -1.0068  1.2224
 5723TIP3    H217134   1.363   1.226   1.484 -0.3357  0.5949  0.7429
 5724TIP3   OH217135   6.562   5.858   1.653 -1.2964  0.4658  0.1975
 5724TIP3    H117136   6.631   5.920   1.678 -0.3704 -0.1320 -0.7709
 5724TIP3    H217137   6.544   5.808   1.733 -0.5749  0.6039  0.4519
 5725TIP3   OH217138   7.116   5.576   2.678 -0.3064 -0.2282  0.5139
 5725TIP3    H117139   7.173   5.652   2.669 -1.3841  0.6975  1.2885
 5725TIP3    H217140   7.080   5.562   2.591 -0.0912  0.1262  0.3666
 5726TIP3   OH217141   0.006   6.443   3.826 -0.0444  0.0065  0.1842
 5726TIP3    H117142  -0.020   6.364   3.777  1.3164  0.2618 -1.0106
 5726TIP3    H217143   0.067   6.411   3.892  1.2250  0.1313 -0.8877
 5727TIP3   OH217144   1.950   5.843   1.820 -0.0681 -0.1385  0.2206
 5727TIP3    H117145   1.873   5.884   1.779 -0.4327  0.6976  1.6768
 5727TIP3    H217146   1.917   5.760   1.854  0.3047 -0.9789 -1.3554
 5728TIP3   OH217147   0.863   4.987   4.413 -0.0152  0.4892  0.0239
 5728TIP3    H117148   0.901   4.910   4.455 -0.3351  0.4012  0.1542
 5728TIP3    H217149   0.790   5.012   4.469  0.5923  1.3914  0.4379
 5729TIP3   OH217150   6.250   6.321   2.718 -0.7116 -0.3114 -0.0092
 5729TIP3    H117151   6.254   6.242   2.662 -0.1372  0.8871 -1.7573
 5729TIP3    H217152   6.165   6.360   2.698 -0.0178  0.7539 -0.9945
 5730TIP3   OH217153   5.099   6.439   2.102  0.7482  0.8397  0.5204
 5730TIP3    H117154   5.020   6.482   2.069  0.4303 -0.5525 -0.6487
 5730TIP3    H217155   5.076   6.412   2.191 -1.6621 -2.9954 -1.0142
 5731TIP3   OH217156   6.540   5.990   3.247 -0.4412 -0.0235  0.5151
 5731TIP3    H117157   6.579   6.015   3.164 -1.9181 -0.7589 -0.4373
 5731TIP3    H217158   6.566   5.899   3.260 -0.3824  0.0270  0.7628
 5732TIP3   OH217159   1.399   0.942   3.841  0.5798  0.0544 -0.5535
 5732TIP3    H117160   1.329   0.991   3.797 -0.8616 -1.0303  0.4031
 5732TIP3    H217161   1.359   0.915   3.924  2.0143 -0.9878 -0.1756
 5733TIP3   OH217162   2.815   6.582   4.792  0.0193  0.0716  0.1103
 5733TIP3    H117163   2.747   6.617   4.734  0.2324  0.8928  0.3446
 5733TIP3    H217164   2.861   6.518   4.738 -0.0049  0.5780 -0.5304
 5734TIP3   OH217165   5.249   2.493   3.287  0.1370  0.5104 -0.3531
 5734TIP3    H117166   5.230   2.400   3.285 -1.5268  0.8169 -1.2350
 5734TIP3    H217167   5.200   2.527   3.362 -0.0166  0.7998 -0.5776
 5735TIP3   OH217168   4.677   3.890   3.065 -0.0456 -0.1985 -0.2749
 5735TIP3    H117169   4.681   3.821   2.999  1.6436  1.7964 -2.4270
 5735TIP3    H217170   4.587   3.888   3.097 -1.3807 -0.3635 -3.7106
 5736TIP3   OH217171   4.371   5.176   3.796  0.2903 -0.1261  0.4490
 5736TIP3    H117172   4.358   5.087   3.829  0.6016 -0.1282  0.5713
 5736TIP3    H217173   4.460   5.199   3.825  1.2861 -0.7656 -1.8670
 5737TIP3   OH217174   5.446   6.385   1.410 -0.5927  0.3719 -0.0294
 5737TIP3    H117175   5.432   6.315   1.346 -2.4110  0.4622  0.2233
 5737TIP3    H217176   5.403   6.462   1.371 -0.6750  0.7320  0.7572
 5738TIP3   OH217177   4.289   5.751   0.854 -0.1557 -0.1196 -0.3194
 5738TIP3    H117178   4.196   5.740   0.874  0.1231  0.0182  1.1453
 5738TIP3    H217179   4.331   5.670   0.885  0.3727  0.3277  0.1583
 5739TIP3   OH217180   1.118   6.558   0.816 -0.0583 -0.2133 -0.1223
 5739TIP3    H117181   1.173   6.551   0.739 -0.6248 -1.0785 -0.4691
 5739TIP3    H217182   1.028   6.556   0.782 -0.3265  1.0288  0.4371
 5740TIP3   OH217183   0.213   3.446   1.731 -0.0327  0.2188  0.4168
 5740TIP3    H117184   0.201   3.465   1.824 -0.2693  0.2644  0.3767
 5740TIP3    H217185   0.299   3.404   1.727  0.2033  0.6706  0.5926
 5741TIP3   OH217186   6.849   3.499   1.151  0.0126  0.6848  0.5032
 5741TIP3    H117187   6.807   3.581   1.177  0.6658  0.6515  1.7324
 5741TIP3    H217188   6.941   3.510   1.175  0.3518  0.0403 -0.4263
 5742TIP3   OH217189   0.843   2.160   0.842  0.1820  0.1266 -0.3796
 5742TIP3    H117190   0.786   2.103   0.893  0.4128  0.1878 -0.0525
 5742TIP3    H217191   0.846   2.242   0.890  1.1213 -0.1132  0.0050
 5743TIP3   OH217192   1.436   6.504   1.669 -0.0599 -0.0657 -0.2091
 5743TIP3    H117193   1.478   6.522   1.585 -0.9245  1.4841 -0.3492
 5743TIP3    H217194   1.411   6.412   1.665  0.5528 -0.1983 -1.3416
 5744TIP3   OH217195   3.549   5.470   4.988  0.5705 -0.0157 -1.1103
 5744TIP3    H117196   3.502   5.389   4.969 -0.4838  0.3988 -0.3626
 5744TIP3    H217197   3.559   5.513   4.903 -0.2012 -0.2250 -1.3099
 5745TIP3   OH217198   0.363   2.797   2.104 -0.6217  0.2345  0.1133
 5745TIP3    H117199   0.333   2.710   2.130 -1.5939  0.8401  1.1179
 5745TIP3    H217200   0.382   2.841   2.187  1.4030  0.4792 -0.4263
 5746TIP3   OH217201   2.108   2.916   4.060 -0.2269 -0.1436 -0.4745
 5746TIP3    H117202   2.112   3.009   4.082  3.3169  0.5459 -3.2079
 5746TIP3    H217203   2.190   2.879   4.092 -1.2381 -2.2546 -0.0877
 5747TIP3   OH217204   0.037   1.285   1.678 -0.1255  0.7024 -0.2817
 5747TIP3    H117205   0.079   1.239   1.750  0.6840  1.3055 -0.3508
 5747TIP3    H217206  -0.028   1.341   1.720  0.5504  1.2741  0.0184
 5748TIP3   OH217207   0.414   0.256   3.180 -0.9007  0.0837  0.1130
 5748TIP3    H117208   0.421   0.227   3.270 -0.6257 -1.0300 -0.2547
 5748TIP3    H217209   0.504   0.262   3.149 -0.8379  2.8401  0.6096
 5749TIP3   OH217210   0.543   4.587   5.018  0.3746  0.1905  0.4451
 5749TIP3    H117211   0.627   4.557   4.982 -1.0285 -0.1903 -2.9072
 5749TIP3    H217212   0.488   4.509   5.015 -1.2252  1.2875 -1.4384
 5750TIP3   OH217213   4.589   4.255   2.162 -0.3451 -0.2202 -0.1392
 5750TIP3    H117214   4.552   4.329   2.113 -1.2695  0.2132  1.1784
 5750TIP3    H217215   4.684   4.267   2.154 -0.4702  1.1931  0.1598
 5751TIP3   OH217216   5.894   0.653  -0.030  0.3268 -0.0642  0.2581
 5751TIP3    H117217   5.957   0.705   0.020 -0.6230  3.2705 -1.6678
 5751TIP3    H217218   5.812   0.662   0.019 -0.0292  1.1113 -0.4907
 5752TIP3   OH217219   5.191   2.814   2.396 -0.0475  0.1804  0.1233
 5752TIP3    H117220   5.205   2.805   2.302 -1.7621 -0.0140 -0.1368
 5752TIP3    H217221   5.096   2.815   2.407  0.0552 -2.2331  2.0670
 5753TIP3   OH217222   3.073   5.427   0.074  0.3683  0.2429 -0.3671
 5753TIP3    H117223   2.996   5.381   0.108 -1.9617  2.5129 -2.1869
 5753TIP3    H217224   3.148   5.378   0.109 -1.8646 -2.5772  0.8486
 5754TIP3   OH217225   1.535   0.691   1.107  0.0970  0.1166  0.2414
 5754TIP3    H117226   1.618   0.714   1.066  0.5501  0.5008  1.3361
 5754TIP3    H217227   1.521   0.760   1.172 -0.1873 -0.8916  1.2756
 5755TIP3   OH217228   0.607   5.093   4.496 -0.1728  0.1487  0.6987
 5755TIP3    H117229   0.527   5.045   4.517 -0.6495  0.6018 -0.0618
 5755TIP3    H217230   0.603   5.107   4.402  0.5507  0.6413  0.7308
 5756TIP3   OH217231   3.595   6.669   0.951  0.5522  0.5706  0.1492
 5756TIP3    H117232   3.645   6.637   1.026  0.7430  0.1700 -0.1465
 5756TIP3    H217233   3.544   6.742   0.986 -0.7471 -0.7321  1.1204
 5757TIP3   OH217234   6.818   6.449   1.027 -0.5772  0.1258 -0.4952
 5757TIP3    H117235   6.909   6.464   1.054 -0.5798  0.2517 -0.5549
 5757TIP3    H217236   6.780   6.396   1.097  0.0541 -1.5015 -1.3201
 5758TIP3   OH217237   0.214   5.469   0.159  0.2111  0.1697  0.3127
 5758TIP3    H117238   0.228   5.374   0.160 -0.7359  0.0197  0.2000
 5758TIP3    H217239   0.254   5.498   0.076 -3.2471 -0.7876 -1.9055
 5759TIP3   OH217240   1.936   1.202   4.563  0.2163  0.0554 -0.0871
 5759TIP3    H117241   1.959   1.272   4.502 -1.2664 -0.7053 -1.6116
 5759TIP3    H217242   1.940   1.122   4.511  0.0657 -0.7786  1.1273
 5760TIP3   OH217243   3.183   5.972   5.110  0.5121 -0.4278 -0.5131
 5760TIP3    H117244   3.218   6.025   5.039 -2.0230  2.5498  0.2203
 5760TIP3    H217245   3.237   5.995   5.186  1.0523 -0.9566 -0.7295
 5761TIP3   OH217246   4.779   0.075   3.383 -0.5474 -0.3724  0.5135
 5761TIP3    H117247   4.761  -0.008   3.339 -2.3294  0.3965 -0.2994
 5761TIP3    H217248   4.800   0.136   3.312 -0.5080  0.1695  0.9804
 5762TIP3   OH217249   0.939   0.375   0.908 -0.2522  0.0854  0.0259
 5762TIP3    H117250   0.974   0.406   0.825 -1.7301 -1.0148 -1.0470
 5762TIP3    H217251   0.845   0.364   0.893 -0.8358  1.2665  2.2920
 5763TIP3   OH217252   2.632   5.718   1.100 -0.0898 -0.0618 -0.1621
 5763TIP3    H117253   2.623   5.740   1.193 -0.3660  0.8724 -0.3949
 5763TIP3    H217254   2.691   5.785   1.066 -0.3637 -0.1156 -0.7532
 5764TIP3   OH217255   1.918   1.690   4.368  0.1034  0.1144  0.0322
 5764TIP3    H117256   1.854   1.739   4.316  1.2885  0.8280 -0.7926
 5764TIP3    H217257   2.000   1.735   4.354  0.9414 -1.1896  0.5356
 5765TIP3   OH217258   6.445   1.381   2.507 -0.0894 -0.3897  0.1075
 5765TIP3    H117259   6.493   1.461   2.484  0.9903 -1.5491 -2.0014
 5765TIP3    H217260   6.512   1.324   2.545 -0.8021 -0.4054  1.3783
 5766TIP3   OH217261   0.780   2.126   0.576  0.2571  0.2813 -0.0664
 5766TIP3    H117262   0.788   2.160   0.665 -0.8890 -1.8460  0.9299
 5766TIP3    H217263   0.795   2.032   0.584  0.3207  0.0605 -2.1592
 5767TIP3   OH217264   6.320   4.851   3.775  0.1586  0.1125  0.0816
 5767TIP3    H117265   6.239   4.902   3.773 -0.2672 -0.5681 -0.8140
 5767TIP3    H217266   6.381   4.900   3.720  0.1980  0.3551  0.3370
 5768TIP3   OH217267   5.293   5.168   2.580  0.0961 -0.0481  0.2890
 5768TIP3    H117268   5.212   5.204   2.615  0.5755  1.6119 -0.2052
 5768TIP3    H217269   5.273   5.149   2.488  0.2056  0.1825  0.2163
 5769TIP3   OH217270   6.109   3.133   2.287 -0.5181  0.5073 -0.5550
 5769TIP3    H117271   6.014   3.148   2.289 -0.4860  0.8393 -1.2260
 5769TIP3    H217272   6.120   3.045   2.322 -0.9368  1.0727  1.0719
 5770TIP3   OH217273   4.496   0.796   2.940  0.4286 -0.0333  0.4458
 5770TIP3    H117274   4.591   0.786   2.940  0.3877 -2.2460 -3.0966
 5770TIP3    H217275   4.476   0.844   2.860 -1.4978 -0.7247  0.4500
 5771TIP3   OH217276   3.314   2.674   1.968  0.5233  0.4391  0.3428
 5771TIP3    H117277   3.405   2.687   1.939  1.0269 -0.2438  1.5245
 5771TIP3    H217278   3.261   2.703   1.895  1.7190 -1.4669 -1.4021
 5772TIP3   OH217279   6.714   5.761   0.753  0.1594  0.2072  0.2608
 5772TIP3    H117280   6.645   5.767   0.819  0.6119 -0.7932  0.8576
 5772TIP3    H217281   6.733   5.667   0.747  1.5222  0.4675  0.1705
 5773TIP3   OH217282   3.287   0.588   0.206  0.2156  0.2440 -0.1355
 5773TIP3    H117283   3.342   0.662   0.231 -1.3447  0.6603  2.4551
 5773TIP3    H217284   3.210   0.627   0.165 -0.2704  0.0360  0.5522
 5774TIP3   OH217285   3.104   6.230   0.896 -0.0974 -0.5481 -0.4594
 5774TIP3    H117286   3.071   6.284   0.824 -2.7377 -1.9626 -0.3995
 5774TIP3    H217287   3.128   6.294   0.964 -0.5760  0.6456 -1.3685
 5775TIP3   OH217288   5.903   0.675   4.497 -0.0406 -0.0742  0.1146
 5775TIP3    H117289   5.885   0.589   4.535  0.3685  0.0999  0.7071
 5775TIP3    H217290   5.904   0.659   4.402  0.8964 -0.8836  0.2494
 5776TIP3   OH217291   6.694   4.960   5.510 -0.1302 -0.1721 -0.4371
 5776TIP3    H117292   6.636   4.904   5.459 -0.8693  0.4938 -0.3445
 5776TIP3    H217293   6.635   5.016   5.561  0.5947  0.1382  0.0733
 5777TIP3   OH217294   4.819   6.685   4.623  0.0710 -0.4000  0.5394
 5777TIP3    H117295   4.860   6.612   4.670  0.9273 -1.2660 -1.4453
 5777TIP3    H217296   4.884   6.756   4.629  0.3195 -0.6129  0.4189
 5778TIP3   OH217297   4.691   0.619   3.216  0.2889  0.4704 -0.7769
 5778TIP3    H117298   4.656   0.707   3.202 -1.4122  0.2707  1.5192
 5778TIP3    H217299   4.715   0.617   3.308  1.1952 -1.1908 -1.0079
 5779TIP3   OH217300   5.758   2.051   4.743  0.1233 -0.2338 -0.1324
 5779TIP3    H117301   5.784   2.069   4.652  1.1685  0.1848  0.2363
 5779TIP3    H217302   5.714   2.131   4.772 -0.8341 -0.6190 -0.4723
 5780TIP3   OH217303   1.386   3.875   5.781  0.4893  0.3431 -0.2203
 5780TIP3    H117304   1.330   3.797   5.776  0.3010  0.5196 -0.9286
 5780TIP3    H217305   1.376   3.917   5.696  3.1582 -0.6296 -1.1238
 5781TIP3   OH217306   4.046   5.352   4.950 -0.3668 -0.4858  0.4304
 5781TIP3    H117307   4.073   5.444   4.944  1.3112 -0.9617  0.1085
 5781TIP3    H217308   4.122   5.303   4.919 -0.7094 -2.0450  1.9092
 5782TIP3   OH217309   3.945   1.230   2.261  0.2942 -0.4099  0.6374
 5782TIP3    H117310   4.035   1.262   2.269  0.4768 -1.0332  1.1639
 5782TIP3    H217311   3.922   1.245   2.169  0.7138  0.3195  0.6437
 5783TIP3   OH217312   0.036   2.311   4.106 -0.5173  0.3242 -0.2644
 5783TIP3    H117313   0.108   2.257   4.073 -0.3171  0.5523 -0.2076
 5783TIP3    H217314   0.033   2.294   4.200  0.3662  1.3467 -0.0297
 5784TIP3   OH217315   0.270   6.682   5.284  0.1749 -0.0788  0.0310
 5784TIP3    H117316   0.272   6.726   5.199 -0.4001  2.3188  1.1710
 5784TIP3    H217317   0.362   6.674   5.310  0.2859  2.2132  0.5708
 5785TIP3   OH217318   5.086   5.378   5.399  0.0765  0.2780  0.0251
 5785TIP3    H117319   5.150   5.400   5.467  1.2198 -0.5570 -0.7508
 5785TIP3    H217320   5.138   5.362   5.321 -0.9823 -1.5040 -0.3633
 5786TIP3   OH217321   2.401   1.359   1.202 -0.0165 -0.0739  0.3056
 5786TIP3    H117322   2.452   1.282   1.178  1.2371  0.9214 -0.4353
 5786TIP3    H217323   2.446   1.431   1.157 -2.1715  0.8676 -0.4816
 5787TIP3   OH217324   3.281   5.828   2.628  0.5181 -0.0040  0.6325
 5787TIP3    H117325   3.257   5.764   2.695 -0.4488  0.7187  1.0146
 5787TIP3    H217326   3.197   5.860   2.595  0.9766  0.8469  0.2484
 5788TIP3   OH217327   3.644   2.774   5.688  0.5960 -0.4472  0.2469
 5788TIP3    H117328   3.712   2.774   5.754 -0.4837  0.5779  1.4098
 5788TIP3    H217329   3.569   2.816   5.730  0.1964  1.2594 -1.9723
 5789TIP3   OH217330   2.038   5.302   4.302  0.3995  0.4627  0.1904
 5789TIP3    H117331   1.971   5.340   4.244 -0.1203 -0.2415  0.3173
 5789TIP3    H217332   2.120   5.310   4.253  0.0900  0.5836 -0.3126
 5790TIP3   OH217333   4.285   5.507   3.198  0.1079 -0.4674  0.8815
 5790TIP3    H117334   4.265   5.563   3.274  0.6767 -1.1079  1.5203
 5790TIP3    H217335   4.249   5.555   3.123  0.7609  0.8652  1.3701
 5791TIP3   OH217336   4.152   1.323   0.598 -0.4523  0.4256 -0.2744
 5791TIP3    H117337   4.118   1.412   0.603  0.6768  0.8194  1.7410
 5791TIP3    H217338   4.116   1.287   0.517 -2.0475  2.2335 -0.4280
 5792TIP3   OH217339   5.338   3.851   0.403 -0.0404  0.4634  0.5072
 5792TIP3    H117340   5.408   3.786   0.410 -0.7509 -0.4457 -0.5220
 5792TIP3    H217341   5.266   3.815   0.453 -0.0573  1.0253  0.9015
 5793TIP3   OH217342   3.438   3.112   5.514 -0.0823 -0.4467  0.1722
 5793TIP3    H117343   3.422   3.197   5.555  1.2713 -0.5381  0.9678
 5793TIP3    H217344   3.534   3.104   5.514 -0.1388 -1.3356 -1.2246
 5794TIP3   OH217345   5.754   4.410   1.200 -0.1424  0.1850 -0.0133
 5794TIP3    H117346   5.703   4.382   1.277 -0.8066  0.3356 -0.3905
 5794TIP3    H217347   5.746   4.506   1.200  2.9018  0.5881  1.8251
 5795TIP3   OH217348   1.984   1.809   3.489  0.7615 -0.2280  0.2101
 5795TIP3    H117349   2.052   1.745   3.510 -1.3039 -2.0908  1.6239
 5795TIP3    H217350   1.950   1.836   3.574 -0.7783  0.0729 -0.4770
 5796TIP3   OH217351   1.965   3.133   3.782  0.1833  0.1493  0.0567
 5796TIP3    H117352   1.953   3.051   3.735  0.3997  0.1893 -0.0715
 5796TIP3    H217353   1.937   3.115   3.872 -1.8632  0.5282 -0.4548
 5797TIP3   OH217354   7.144   2.023   3.954 -0.0599 -0.2669 -0.3820
 5797TIP3    H117355   7.233   2.046   3.982 -0.8191  0.2415  1.7549
 5797TIP3    H217356   7.113   2.101   3.906  1.0150 -0.8975 -2.2179
 5798TIP3   OH217357   1.532   6.576   4.520 -0.1000 -0.2043 -0.0190
 5798TIP3    H117358   1.595   6.558   4.450  0.9389  4.2388 -0.5491
 5798TIP3    H217359   1.584   6.573   4.600  0.2652  0.8343 -0.1900
 5799TIP3   OH217360   1.654   2.367   5.230  0.5099  0.3241 -0.4890
 5799TIP3    H117361   1.749   2.357   5.234  0.3743 -0.6779  1.5621
 5799TIP3    H217362   1.640   2.455   5.196  2.1890  0.9512  0.3586
 5800TIP3   OH217363   2.123   5.093   1.259  0.4194  0.6328  0.5291
 5800TIP3    H117364   2.104   5.003   1.233  0.5200 -0.0514  2.6712
 5800TIP3    H217365   2.038   5.137   1.260  0.0808 -0.0112  1.4377
 5801TIP3   OH217366   1.531   6.528   0.197  1.1051  0.0233  0.0113
 5801TIP3    H117367   1.488   6.591   0.255 -0.3282 -0.8540 -0.0412
 5801TIP3    H217368   1.471   6.454   0.195  2.5838 -1.2107 -0.2019
 5802TIP3   OH217369   6.742   5.747   5.640  0.2227 -0.1271  0.2798
 5802TIP3    H117370   6.709   5.761   5.552 -0.6557 -0.5143  0.5434
 5802TIP3    H217371   6.755   5.652   5.646 -1.1401 -0.2807  1.0521
 5803TIP3   OH217372   5.689   1.176   0.544  0.1726 -0.0345  0.2777
 5803TIP3    H117373   5.677   1.258   0.591  0.9353 -0.3650  1.0756
 5803TIP3    H217374   5.667   1.197   0.453  0.1864  1.0081  0.5046
 5804TIP3   OH217375   4.597   6.345   2.269  0.1402  0.0469  0.2393
 5804TIP3    H117376   4.516   6.356   2.219  0.9172  2.1698 -0.6948
 5804TIP3    H217377   4.647   6.279   2.220 -0.0578  0.4494 -0.5197
 5805TIP3   OH217378   2.310   5.916   3.011 -0.2698 -0.5422  0.1526
 5805TIP3    H117379   2.355   5.997   2.988 -0.2749 -0.6179 -0.1271
 5805TIP3    H217380   2.226   5.922   2.965  0.1926 -1.2270 -0.8107
 5806TIP3   OH217381   3.693   0.866   0.266  0.1443  0.0099  0.5075
 5806TIP3    H117382   3.681   0.946   0.215 -0.3468 -1.5060 -1.8973
 5806TIP3    H217383   3.772   0.826   0.231 -1.0215 -1.8152 -0.1682
 5807TIP3   OH217384   2.457   4.406   1.835  0.6747  0.1950  0.4742
 5807TIP3    H117385   2.502   4.414   1.751  1.1431  1.3808  0.8147
 5807TIP3    H217386   2.472   4.490   1.878 -1.9412  0.7094  0.5804
 5808TIP3   OH217387   3.754   1.291   0.551 -0.4270  0.2183  0.2386
 5808TIP3    H117388   3.695   1.366   0.545 -1.4546 -0.5832 -0.0119
 5808TIP3    H217389   3.698   1.216   0.532  1.0137 -0.4563 -1.6511
 5809TIP3   OH217390   6.102   3.398   5.135  0.2215  0.0587 -0.6490
 5809TIP3    H117391   6.180   3.380   5.082 -0.3835 -1.2490 -1.1464
 5809TIP3    H217392   6.098   3.326   5.198  0.5370  1.2167  0.7569
 5810TIP3   OH217393   1.061   2.918   1.418  0.2149  0.2694  0.2691
 5810TIP3    H117394   1.029   2.956   1.336 -0.3962 -0.0253  0.3599
 5810TIP3    H217395   1.068   2.992   1.477 -0.4459  0.3326  0.2820
 5811TIP3   OH217396   2.416   5.699   2.452  0.5217 -0.2934  0.1798
 5811TIP3    H117397   2.497   5.695   2.503  1.2007 -1.4432 -0.9198
 5811TIP3    H217398   2.415   5.617   2.403 -0.5203  0.4116 -1.0274
 5812TIP3   OH217399   6.041   2.874   5.836  0.6110 -0.7579 -0.5567
 5812TIP3    H117400   6.085   2.811   5.779  1.9218  0.1291 -0.5682
 5812TIP3    H217401   5.997   2.934   5.776  2.2367  0.3508 -0.6821
 5813TIP3   OH217402   6.050   3.118   5.194 -0.0799 -0.2046  0.5645
 5813TIP3    H117403   5.990   3.048   5.219 -1.3720 -0.4617 -2.7817
 5813TIP3    H217404   6.053   3.115   5.099  0.1827  3.9697  0.2543
 5814TIP3   OH217405   4.937   6.060   2.420 -0.1633 -0.4179 -0.0087
 5814TIP3    H117406   4.968   5.980   2.462 -0.7480 -0.7530 -0.2205
 5814TIP3    H217407   4.844   6.046   2.407 -0.5353  0.7963  1.0861
 5815TIP3   OH217408   4.606   2.567   5.008  0.1696  0.5956 -0.0198
 5815TIP3    H117409   4.622   2.486   4.959 -1.3005  0.6352 -0.6394
 5815TIP3    H217410   4.616   2.637   4.943 -3.0043  0.5773 -0.7442
 5816TIP3   OH217411   3.332   0.234   1.072 -0.2615 -0.1491 -0.0302
 5816TIP3    H117412   3.337   0.316   1.122 -0.2480  0.1629 -0.5413
 5816TIP3    H217413   3.238   0.220   1.059 -0.2620 -0.1987  0.0253
 5817TIP3   OH217414   3.386   4.901   4.323  0.0663 -0.2704 -0.4579
 5817TIP3    H117415   3.413   4.842   4.393  0.7161 -0.1729 -0.6199
 5817TIP3    H217416   3.347   4.844   4.257 -0.2146 -0.4032 -0.1755
 5818TIP3   OH217417   1.933   2.031   4.144  0.2843  0.1585 -0.0021
 5818TIP3    H117418   1.904   2.114   4.105  2.7235  1.1659  0.1778
 5818TIP3    H217419   1.955   1.976   4.069 -1.1495 -0.3138 -0.1163
 5819TIP3   OH217420   0.362   0.317   2.144  0.5116  0.0882  0.0089
 5819TIP3    H117421   0.304   0.314   2.220  1.2133 -0.3779  0.5361
 5819TIP3    H217422   0.378   0.225   2.122  3.3122  0.0902  1.6462
 5820TIP3   OH217423   4.804   3.118   0.386  0.0404 -0.0742  0.2367
 5820TIP3    H117424   4.712   3.136   0.406  0.1807  0.1937  0.6530
 5820TIP3    H217425   4.821   3.033   0.425  0.1052  0.1049  0.6024
 5821TIP3   OH217426   6.241   5.576   4.271 -0.2983  0.1124  0.5450
 5821TIP3    H117427   6.178   5.640   4.303 -2.4179 -2.2912  1.5943
 5821TIP3    H217428   6.289   5.548   4.349  0.8836  0.6505  0.0342
 5822TIP3   OH217429   5.941   5.865   5.684  0.4847 -0.1080 -0.0914
 5822TIP3    H117430   5.862   5.825   5.721 -1.2721  1.3610 -2.0016
 5822TIP3    H217431   5.929   5.857   5.589  3.5451 -1.4383 -0.4594
 5823TIP3   OH217432   2.028   1.321   2.902 -0.3389  0.1033 -0.0270
 5823TIP3    H117433   1.935   1.299   2.894 -0.2868 -0.6321  1.0893
 5823TIP3    H217434   2.045   1.381   2.829 -1.5390 -0.2228 -0.6063
 5824TIP3   OH217435   2.339   0.962   3.201  0.0217  0.2221 -0.0593
 5824TIP3    H117436   2.287   0.983   3.124  0.4142  1.5916  0.0351
 5824TIP3    H217437   2.369   0.872   3.186 -0.0630  0.4043 -1.4161
 5825TIP3   OH217438   2.911   5.625   2.485 -0.1247  0.0185 -0.2040
 5825TIP3    H117439   2.885   5.537   2.458 -0.9125 -0.3796  1.6634
 5825TIP3    H217440   3.001   5.615   2.515  0.0470  0.0091 -0.7301
 5826TIP3   OH217441   1.902   2.651   5.210 -0.0823  0.8037 -0.4023
 5826TIP3    H117442   1.813   2.644   5.176 -0.3448  1.1268  0.1921
 5826TIP3    H217443   1.909   2.578   5.272 -0.3019  1.3813  0.3256
 5827TIP3   OH217444   0.548   2.262   5.817  0.3233 -0.2387 -0.4857
 5827TIP3    H117445   0.471   2.267   5.761  0.7566  0.7344 -1.0349
 5827TIP3    H217446   0.568   2.169   5.823  0.1025 -0.3845 -1.7385
 5828TIP3   OH217447   2.422   0.955   5.690  0.1030 -0.2854  0.3720
 5828TIP3    H117448   2.336   0.985   5.720 -0.0661 -1.3595  1.0537
 5828TIP3    H217449   2.406   0.918   5.603  0.2046  0.9809 -0.2111
 5829TIP3   OH217450   1.937   6.665   0.537 -0.4822  0.8862  0.2581
 5829TIP3    H117451   1.867   6.650   0.473 -0.7580  0.3628  0.6727
 5829TIP3    H217452   1.945   6.582   0.584  0.2903  1.0021  0.3452
 5830TIP3   OH217453   3.298   5.937   4.280  1.0056  0.9201 -0.5499
 5830TIP3    H117454   3.258   5.918   4.195 -1.3720 -0.9806  0.8676
 5830TIP3    H217455   3.265   6.025   4.301 -0.9489  0.1928 -0.3164
 5831TIP3   OH217456   4.909   2.418   5.282  0.3589  0.6771 -0.7329
 5831TIP3    H117457   4.915   2.322   5.286  0.3863  0.5832 -2.2992
 5831TIP3    H217458   4.817   2.435   5.258  0.5672  0.9862 -1.3465
 5832TIP3   OH217459   5.792   3.507   1.703 -0.2469  0.1513 -0.0772
 5832TIP3    H117460   5.803   3.463   1.787 -0.9853  0.9441  0.4503
 5832TIP3    H217461   5.818   3.442   1.638  1.9546  0.0545  0.8112
 5833TIP3   OH217462   0.879   2.264   0.335  1.0855  0.3922 -0.2824
 5833TIP3    H117463   0.846   2.242   0.422  2.7934  0.4150  0.4143
 5833TIP3    H217464   0.891   2.359   0.337 -1.0104  0.7536 -1.3774
 5834TIP3   OH217465   3.875   5.095   0.452  0.0840  0.0494  0.1068
 5834TIP3    H117466   3.959   5.051   0.462  0.9843  1.6439 -0.0781
 5834TIP3    H217467   3.850   5.081   0.361 -0.6095 -1.6644  0.5257
 5835TIP3   OH217468   5.163   6.157   5.060  0.1605 -0.2326  0.3388
 5835TIP3    H117469   5.162   6.211   5.139  0.2945 -1.3669  1.1445
 5835TIP3    H217470   5.188   6.070   5.091  1.0233 -0.5212 -1.0807
 5836TIP3   OH217471   6.491   5.750   1.896  0.0821  0.7262  0.3823
 5836TIP3    H117472   6.437   5.689   1.946 -0.2309  1.2250  0.6612
 5836TIP3    H217473   6.530   5.807   1.962  0.7086  0.5622  0.1559
 5837TIP3   OH217474   2.048   0.595   4.436  0.2021  0.4880 -0.1580
 5837TIP3    H117475   1.985   0.607   4.365  2.4166  1.1174 -2.1105
 5837TIP3    H217476   2.061   0.683   4.471 -1.0918  0.1477  1.3322
 5838TIP3   OH217477   2.029   4.278   2.145  0.6696 -0.7317 -0.3704
 5838TIP3    H117478   1.984   4.199   2.176 -0.6175 -0.1827 -0.7618
 5838TIP3    H217479   2.031   4.336   2.221 -1.0150 -0.0274 -0.8182
 5839TIP3   OH217480   5.412   0.106   2.365 -0.0692 -0.1885 -0.3699
 5839TIP3    H117481   5.365   0.189   2.355 -0.4274 -0.3764 -0.2637
 5839TIP3    H217482   5.352   0.040   2.329 -0.5249 -0.6203  1.1024
 5840TIP3   OH217483   5.958   5.771   2.166 -0.3794 -0.2702 -0.4275
 5840TIP3    H117484   6.035   5.824   2.148 -1.3885  0.8828 -1.5939
 5840TIP3    H217485   5.990   5.681   2.167  1.2134  0.2739  0.6427
 5841TIP3   OH217486   1.614   4.901   4.329  0.1570  0.6332  0.0234
 5841TIP3    H117487   1.663   4.846   4.391  0.3012  0.0367 -0.6090
 5841TIP3    H217488   1.523   4.895   4.359 -0.1626 -1.6068 -1.1844
 5842TIP3   OH217489   0.963   3.022   5.315  0.3133 -0.5238 -0.0339
 5842TIP3    H117490   1.003   3.110   5.318 -1.4024  0.2588  1.3665
 5842TIP3    H217491   0.906   3.019   5.392  2.0617 -3.7793  1.3283
 5843TIP3   OH217492   1.857   4.321   1.933  0.1748  0.2734 -0.3932
 5843TIP3    H117493   1.889   4.290   1.848  1.4421  0.6308 -0.0678
 5843TIP3    H217494   1.927   4.300   1.994  0.5628  2.6335  0.0616
 5844TIP3   OH217495   5.526   0.680   4.387  0.3068  0.2262 -0.1110
 5844TIP3    H117496   5.549   0.647   4.473  0.7289  2.2474  0.6153
 5844TIP3    H217497   5.435   0.655   4.375  1.0978 -2.8974 -0.5516
 5845TIP3   OH217498   3.802   4.232   5.832 -0.3371 -0.4445 -0.8890
 5845TIP3    H117499   3.800   4.313   5.780  0.9868 -1.0026 -1.8380
 5845TIP3    H217500   3.895   4.212   5.842 -0.5944 -0.8727  0.9115
 5846TIP3   OH217501   1.994   3.722   2.236 -0.4818 -0.0675 -0.0811
 5846TIP3    H117502   1.904   3.742   2.264 -1.0353  0.7510 -2.2204
 5846TIP3    H217503   1.982   3.664   2.161  0.7092  1.2357 -1.3132
 5847TIP3   OH217504   3.033   2.209   5.226 -0.4955 -0.3288 -0.4773
 5847TIP3    H117505   3.029   2.284   5.285  0.1029  0.1777 -1.0584
 5847TIP3    H217506   2.989   2.139   5.273  0.6183 -0.1489  0.8987
 5848TIP3   OH217507   4.559   5.338   4.918  0.2512  0.6517  0.1507
 5848TIP3    H117508   4.585   5.312   5.007  0.2664  1.1134  0.2862
 5848TIP3    H217509   4.606   5.279   4.860  1.8224  1.6243  0.3695
 5849TIP3   OH217510   5.998   1.773   2.197  0.2750 -0.0211  0.3117
 5849TIP3    H117511   5.943   1.788   2.273 -0.0999  0.7854 -0.1027
 5849TIP3    H217512   6.085   1.755   2.233 -0.2812 -1.5644  0.9755
 5850TIP3   OH217513   5.994   5.218   4.720  0.7895  0.0977 -0.1074
 5850TIP3    H117514   6.071   5.162   4.735 -0.1796 -1.0633  0.6635
 5850TIP3    H217515   5.973   5.206   4.628  1.4542  0.3383 -0.2990
 5851TIP3   OH217516   5.668   6.453   3.428 -0.2955 -0.1102 -0.3614
 5851TIP3    H117517   5.602   6.461   3.497 -0.9041  1.9907 -1.1138
 5851TIP3    H217518   5.750   6.437   3.476 -0.4665  2.5459  1.0223
 5852TIP3   OH217519   0.102   5.504   4.608 -0.1230  0.1219 -0.7473
 5852TIP3    H117520   0.144   5.447   4.672 -2.1447  0.7322  1.2365
 5852TIP3    H217521   0.153   5.585   4.611 -1.5491  1.0161  1.9510
 5853TIP3   OH217522   5.476   3.028   2.646  0.2903  0.2979 -0.4372
 5853TIP3    H117523   5.390   2.987   2.651  0.5674 -0.1610  0.7797
 5853TIP3    H217524   5.477   3.092   2.716  1.3349 -0.4850  0.2944
 5854TIP3   OH217525   1.682   3.417   0.463 -0.3138 -0.1403  0.0196
 5854TIP3    H117526   1.701   3.476   0.390 -2.7433 -0.9930 -1.4165
 5854TIP3    H217527   1.715   3.332   0.434 -2.5789 -0.7984 -0.8186
 5855TIP3   OH217528   2.916   2.717   5.408 -1.0707 -0.1804 -0.2003
 5855TIP3    H117529   2.925   2.722   5.313 -0.3202  0.5520 -0.1042
 5855TIP3    H217530   2.965   2.793   5.441 -0.9591 -0.6647  0.7914
 5856TIP3   OH217531   6.654   5.937   2.992  0.0507  0.6637  0.7487
 5856TIP3    H117532   6.600   5.858   2.984  0.7510  0.2546 -0.0404
 5856TIP3    H217533   6.744   5.906   2.980  0.2591  1.7228 -0.5772
 5857TIP3   OH217534   4.354   4.043   2.397 -0.2071  0.0738  0.4018
 5857TIP3    H117535   4.332   4.031   2.490 -0.6822  1.9480  0.5800
 5857TIP3    H217536   4.335   4.135   2.380  1.6376  0.2457 -1.0918
 5858TIP3   OH217537   5.891   2.362   5.329  0.7166  0.0029 -0.7381
 5858TIP3    H117538   5.986   2.351   5.321  0.8371 -0.5998  1.0618
 5858TIP3    H217539   5.854   2.280   5.296  0.8207  0.2021 -1.3552
 5859TIP3   OH217540   5.880   4.710   0.654 -0.1390 -0.1084  0.0174
 5859TIP3    H117541   5.918   4.624   0.673 -1.3075 -0.4453  0.9502
 5859TIP3    H217542   5.791   4.704   0.687 -0.1386  1.5859  0.3846
 5860TIP3   OH217543   5.772   5.973   4.001  0.1168  0.2822  0.4081
 5860TIP3    H117544   5.801   5.892   3.958 -1.1873  0.1663 -0.2949
 5860TIP3    H217545   5.782   5.955   4.095  1.3685 -0.0876  0.2162
 5861TIP3   OH217546   1.161   1.828   4.245 -0.4225 -0.1848  0.5409
 5861TIP3    H117547   1.189   1.782   4.324 -0.9862  0.4432  1.1151
 5861TIP3    H217548   1.079   1.871   4.270 -1.9307 -1.9364 -1.0781
 5862TIP3   OH217549   3.771   3.369   3.586 -0.3370 -0.2574  0.0751
 5862TIP3    H117550   3.790   3.277   3.571 -0.8568 -0.0336 -2.3232
 5862TIP3    H217551   3.679   3.370   3.615 -1.0652 -0.4087 -2.0517
 5863TIP3   OH217552   6.215   5.563   0.507  0.4806 -0.1165  0.1270
 5863TIP3    H117553   6.192   5.477   0.542 -2.1406  0.6299  0.4747
 5863TIP3    H217554   6.236   5.616   0.584  1.0154 -0.1494  0.0064
 5864TIP3   OH217555   1.118   3.544   1.539 -0.3060 -0.1228  0.1352
 5864TIP3    H117556   1.175   3.567   1.466 -0.0182  0.0237  0.4046
 5864TIP3    H217557   1.169   3.484   1.593 -1.0735 -1.4971 -0.5925
 5865TIP3   OH217558   6.738   5.447   3.094  0.3518  0.0610  0.5333
 5865TIP3    H117559   6.829   5.474   3.101  0.7285 -0.9307 -0.2973
 5865TIP3    H217560   6.734   5.395   3.014 -0.0836 -3.0842  2.4012
 5866TIP3   OH217561   4.690   2.966   3.411 -0.0315 -0.0427 -0.2611
 5866TIP3    H117562   4.719   2.896   3.470 -0.3919 -0.7181 -0.8843
 5866TIP3    H217563   4.679   2.924   3.326  1.7378  1.1724 -1.1616
 5867TIP3   OH217564   5.513   1.624   2.147  0.7957  0.2260  0.3104
 5867TIP3    H117565   5.529   1.546   2.094 -0.5276 -0.0615  0.2883
 5867TIP3    H217566   5.425   1.610   2.184  1.3307  0.8104  1.8791
 5868TIP3   OH217567   1.989   5.724   1.047  0.5012  0.1164 -0.0988
 5868TIP3    H117568   2.075   5.702   1.082  1.7348 -1.3374 -3.5559
 5868TIP3    H217569   1.999   5.813   1.014  0.2505  0.4098  0.5978
 5869TIP3   OH217570   6.079   0.611   0.530 -0.4616  0.4544  0.3971
 5869TIP3    H117571   6.099   0.704   0.528  1.7360  0.0505 -1.4324
 5869TIP3    H217572   6.067   0.591   0.623  2.2427  2.0035  1.2085
 5870TIP3   OH217573   1.351   1.891   0.191 -0.4083  1.0070  0.1885
 5870TIP3    H117574   1.325   1.891   0.099  1.7747 -1.6535 -0.5788
 5870TIP3    H217575   1.289   1.832   0.233 -0.5755  1.1235  0.1026
 5871TIP3   OH217576   3.160   5.055   4.410  0.8094 -0.1833 -0.5741
 5871TIP3    H117577   3.211   4.987   4.364  1.8916  1.4158 -1.8362
 5871TIP3    H217578   3.094   5.006   4.458  0.1194 -2.0476 -3.1790
 5872TIP3   OH217579   1.497   3.186   5.615  0.3036  0.4404  0.1443
 5872TIP3    H117580   1.551   3.260   5.641 -0.0336  0.8110 -0.1886
 5872TIP3    H217581   1.443   3.168   5.691  0.8293  0.1321  0.4432
 5873TIP3   OH217582   0.759   1.993   1.209  0.1864  0.0597  0.5708
 5873TIP3    H117583   0.730   2.000   1.118  0.0610  1.5666  0.7088
 5873TIP3    H217584   0.690   2.035   1.260  1.4968  1.6501  1.1153
 5874TIP3   OH217585   0.647   5.502   4.750 -0.4355  0.2047  0.6416
 5874TIP3    H117586   0.694   5.584   4.755  0.4679 -0.2390 -0.2782
 5874TIP3    H217587   0.571   5.514   4.808  0.2474  1.2863  1.3400
 5875TIP3   OH217588   6.431   4.516   2.310  0.2573  0.6097 -0.0706
 5875TIP3    H117589   6.467   4.438   2.353  0.9403  1.5818  1.1673
 5875TIP3    H217590   6.506   4.575   2.302 -0.6278  1.8794  0.7457
 5876TIP3   OH217591   4.972   4.387   2.977  0.2795  0.1361 -0.6384
 5876TIP3    H117592   5.059   4.371   2.940  0.3153  2.4620 -1.8068
 5876TIP3    H217593   4.989   4.431   3.060  0.2500  0.6011 -0.8720
 5877TIP3   OH217594   1.207   3.352   3.264  0.1668 -0.5274  0.4790
 5877TIP3    H117595   1.282   3.294   3.274 -0.4075 -1.6973 -1.4099
 5877TIP3    H217596   1.131   3.299   3.288 -0.1757  0.2425  1.1522
 5878TIP3   OH217597   2.325   6.627   4.673 -0.1158  0.1519  0.4808
 5878TIP3    H117598   2.258   6.649   4.609 -0.2507 -1.9091 -0.1537
 5878TIP3    H217599   2.305   6.537   4.700  2.8982 -0.9608 -0.5020
 5879TIP3   OH217600   6.087   6.429   4.340 -0.4325 -0.1219  0.5193
 5879TIP3    H117601   6.043   6.346   4.361 -0.4626 -0.4278 -0.6637
 5879TIP3    H217602   6.030   6.470   4.274  0.2737  0.1887  0.0922
 5880TIP3   OH217603   4.169   5.542   4.638 -0.2828  0.2905 -0.7543
 5880TIP3    H117604   4.254   5.515   4.670 -1.0219  0.6908  1.7530
 5880TIP3    H217605   4.185   5.625   4.592  0.4369  1.6475  1.7724
 5881TIP3   OH217606   4.419   3.590   0.332  0.6186 -0.1311  0.2213
 5881TIP3    H117607   4.449   3.506   0.297  2.1426  0.5268 -0.1269
 5881TIP3    H217608   4.466   3.600   0.415  0.4742  0.4034  0.2453
 5882TIP3   OH217609   5.605   5.637   2.219  0.0029 -0.7027  0.0161
 5882TIP3    H117610   5.597   5.648   2.124  1.5261 -0.6385 -0.1198
 5882TIP3    H217611   5.697   5.613   2.233 -0.4919 -1.9801  1.3609
 5883TIP3   OH217612   5.812   3.093   1.926  0.6312  0.1316 -0.1051
 5883TIP3    H117613   5.824   3.182   1.893 -0.2533  0.8716  1.4578
 5883TIP3    H217614   5.747   3.102   1.996  0.7440 -1.7028  0.2791
 5884TIP3   OH217615   3.503   3.662   4.728 -0.2942 -0.4286 -0.1071
 5884TIP3    H117616   3.543   3.576   4.723  1.0826  0.2175 -1.0296
 5884TIP3    H217617   3.574   3.719   4.759 -0.9463  0.4823 -0.2587
 5885TIP3   OH217618   3.179   1.728   3.794  0.2766 -0.8135  0.1045
 5885TIP3    H117619   3.119   1.796   3.763 -0.6518 -1.4308  0.4751
 5885TIP3    H217620   3.126   1.648   3.793  0.0070 -0.8433  3.5531
 5886TIP3   OH217621   1.038   3.493   0.249  0.2407  0.5837 -0.4120
 5886TIP3    H117622   1.094   3.418   0.230 -1.0648 -0.2889 -0.9927
 5886TIP3    H217623   1.098   3.568   0.250  1.3990 -0.2938 -1.0446
 5887TIP3   OH217624   4.689   0.817   4.259 -0.0499  0.2419  0.8584
 5887TIP3    H117625   4.601   0.781   4.258 -0.1503  0.3913 -1.5367
 5887TIP3    H217626   4.678   0.908   4.233  0.9187 -0.2832 -1.7371
 5888TIP3   OH217627   7.166   6.635   2.241  0.2465  0.1036  0.0315
 5888TIP3    H117628   7.253   6.657   2.206  0.5592 -0.3359  0.5101
 5888TIP3    H217629   7.122   6.591   2.169  0.4882  0.1665 -0.1580
 5889TIP3   OH217630   5.617   3.664   1.061 -0.0688  0.1240 -0.2726
 5889TIP3    H117631   5.565   3.727   1.110  0.7969 -0.9150  2.1585
 5889TIP3    H217632   5.677   3.717   1.008  0.6890  1.3943  1.7534
 5890TIP3   OH217633   2.127   1.069   4.083  0.0666  0.5155 -0.3652
 5890TIP3    H117634   2.125   1.161   4.059 -1.5265  0.4679 -0.5348
 5890TIP3    H217635   2.063   1.027   4.025 -0.3228 -0.4218  0.6973
 5891TIP3   OH217636   5.701   0.933   0.683 -0.2337  0.0948  0.2587
 5891TIP3    H117637   5.645   0.918   0.759 -0.6025  0.1651  0.0033
 5891TIP3    H217638   5.667   1.013   0.643 -1.0739 -0.7801 -0.8768
 5892TIP3   OH217639   6.462   3.103   2.439 -0.0775  0.1787 -0.5358
 5892TIP3    H117640   6.554   3.095   2.413  0.0062 -0.4461 -0.0722
 5892TIP3    H217641   6.419   3.143   2.363  0.3303 -0.7570 -1.2893
 5893TIP3   OH217642   4.879   4.489   4.610  0.2055  0.0470 -0.4320
 5893TIP3    H117643   4.896   4.509   4.703 -0.8905 -1.4406  0.1148
 5893TIP3    H217644   4.961   4.450   4.579 -0.4969 -2.7128  0.9029
 5894TIP3   OH217645   1.175   6.353   3.369 -0.2018  0.4200  0.1883
 5894TIP3    H117646   1.192   6.265   3.402  1.3172 -0.2894 -2.2510
 5894TIP3    H217647   1.255   6.402   3.388 -0.0763  0.5513 -0.6563
 5895TIP3   OH217648   5.455   6.012   4.927  0.2866  0.3758  0.2282
 5895TIP3    H117649   5.436   6.106   4.923 -1.1562  0.1867  1.6497
 5895TIP3    H217650   5.372   5.970   4.901  0.8803 -0.5141 -0.2672
 5896TIP3   OH217651   0.177   6.049   5.043 -0.3191  0.3841 -0.0811
 5896TIP3    H117652   0.150   6.109   4.974  1.0656  0.4875 -0.5697
 5896TIP3    H217653   0.217   5.975   4.996  1.0939  0.6846  0.6079
 5897TIP3   OH217654   3.287   4.543   1.215 -0.4477 -0.3146 -0.2283
 5897TIP3    H117655   3.247   4.561   1.300 -0.6070 -3.7440  0.5815
 5897TIP3    H217656   3.218   4.500   1.164 -0.0271  0.7049 -1.7281
 5898TIP3   OH217657   6.546   5.740   4.532 -0.4656 -0.1305  1.1223
 5898TIP3    H117658   6.482   5.809   4.550  1.9123  2.3273  0.7855
 5898TIP3    H217659   6.591   5.727   4.616 -0.6371 -1.0800  1.0872
 5899TIP3   OH217660   2.925   2.956   0.340 -0.4607  0.2339  0.1939
 5899TIP3    H117661   3.019   2.939   0.342 -0.6241 -1.2200 -1.6167
 5899TIP3    H217662   2.889   2.902   0.410 -0.1159 -0.6865 -0.3179
 5900TIP3   OH217663   0.608   1.568   4.911  0.4850  0.2029  0.2077
 5900TIP3    H117664   0.668   1.534   4.844  0.4744  0.0779  0.2606
 5900TIP3    H217665   0.652   1.646   4.945 -0.8333  2.0057 -1.9884
 5901TIP3   OH217666   0.026   3.624   1.687 -0.1745 -0.3236 -0.2021
 5901TIP3    H117667   0.085   3.554   1.714 -1.2383 -0.7483  1.1280
 5901TIP3    H217668   0.073   3.705   1.707  0.5493 -0.6419 -0.5740
 5902TIP3   OH217669   5.570   5.401   1.227 -0.2165 -0.6540 -0.5485
 5902TIP3    H117670   5.517   5.479   1.245  0.8548 -0.5048  2.5570
 5902TIP3    H217671   5.658   5.435   1.213 -0.1614 -1.1851 -1.5785
 5903TIP3   OH217672   3.771   2.761   1.671  0.2646 -0.0718 -0.1677
 5903TIP3    H117673   3.731   2.806   1.745 -1.2946 -1.3440 -0.1655
 5903TIP3    H217674   3.834   2.701   1.711  0.1590 -0.0336  0.0581
 5904TIP3   OH217675   2.463   5.305   3.204 -0.2735 -0.0578 -0.0530
 5904TIP3    H117676   2.430   5.389   3.235  0.8092 -0.4268  2.3275
 5904TIP3    H217677   2.449   5.308   3.109  0.5862  3.2010 -0.2242
 5905TIP3   OH217678   5.025   4.016   0.324  0.0717 -0.3475 -0.0720
 5905TIP3    H117679   5.090   3.992   0.258 -0.1404  0.1539 -0.4703
 5905TIP3    H217680   4.945   3.971   0.295  0.5576 -2.1163  1.1794
 5906TIP3   OH217681   2.790   1.678   3.569 -0.1208  1.1075  0.2383
 5906TIP3    H117682   2.792   1.765   3.609 -0.8842  0.7980  0.9696
 5906TIP3    H217683   2.864   1.631   3.608 -0.4221  1.0432  0.7251
 5907TIP3   OH217684   0.032   5.072   2.724 -0.1983 -0.0368  0.0962
 5907TIP3    H117685   0.085   5.121   2.787  0.5520  1.5438 -1.6581
 5907TIP3    H217686   0.016   4.988   2.765  0.8807  0.6713  2.0624
 5908TIP3   OH217687   7.202   5.887   4.322  0.0181  0.2689 -0.6959
 5908TIP3    H117688   7.143   5.828   4.276  1.0219 -1.1462 -0.2436
 5908TIP3    H217689   7.192   5.864   4.415  1.9265 -0.6677 -0.6806
 5909TIP3   OH217690   2.669   0.788   3.620  0.2007 -0.4014 -0.1095
 5909TIP3    H117691   2.620   0.769   3.700  0.5543  0.1885  0.2500
 5909TIP3    H217692   2.609   0.763   3.549 -0.7878  0.6785  0.3111
 5910TIP3   OH217693   0.133   0.863   5.847 -0.7368  0.2072  0.3958
 5910TIP3    H117694   0.061   0.830   5.900  0.9832 -0.9765  2.1036
 5910TIP3    H217695   0.101   0.947   5.814 -2.7073 -0.0629  1.4482
 5911TIP3   OH217696   2.217   0.560   4.133  0.3542  0.1339  0.3316
 5911TIP3    H117697   2.205   0.621   4.206 -0.1175 -0.1585  0.5005
 5911TIP3    H217698   2.260   0.613   4.065 -1.9094  1.2672 -0.3196
 5912TIP3   OH217699   2.612   5.754   5.263 -0.2673  0.7726 -0.1968
 5912TIP3    H117700   2.587   5.727   5.175  0.3395 -0.5023  0.0035
 5912TIP3    H217701   2.533   5.739   5.316  0.0343 -0.6236 -0.1020
 5913TIP3   OH217702   5.218   5.044   4.494  0.1325 -0.4715 -0.4217
 5913TIP3    H117703   5.293   5.099   4.471  1.1866 -1.1806  1.1383
 5913TIP3    H217704   5.252   4.983   4.559 -1.3583 -2.0425 -1.0424
 5914TIP3   OH217705   4.760   5.514   5.331 -0.3928  0.3569 -0.3463
 5914TIP3    H117706   4.824   5.544   5.267  1.7025 -2.1415  0.4470
 5914TIP3    H217707   4.810   5.504   5.413 -2.5636  1.5891  1.2557
 5915TIP3   OH217708   4.017   1.257   4.804  0.4497  0.1011  0.1666
 5915TIP3    H117709   4.070   1.291   4.732 -1.2769  3.5247  0.3161
 5915TIP3    H217710   3.931   1.243   4.765 -0.3614  1.4802  1.3996
 5916TIP3   OH217711   4.135   6.296   2.193 -0.1719 -0.6358  0.0098
 5916TIP3    H117712   4.075   6.237   2.147  0.7255  0.1254 -2.2284
 5916TIP3    H217713   4.162   6.245   2.270 -2.7884 -1.4117  0.5326
 5917TIP3   OH217714   1.950   0.912   3.009  0.3917 -0.5419 -0.3232
 5917TIP3    H117715   1.861   0.921   2.975 -0.0641  0.2550  1.0332
 5917TIP3    H217716   1.941   0.858   3.087  0.9440  0.3220  0.3609
 5918TIP3   OH217717   1.747   2.169   0.882  0.2704 -0.3327  0.1159
 5918TIP3    H117718   1.707   2.255   0.872 -0.6479 -0.5672  1.5063
 5918TIP3    H217719   1.786   2.151   0.796 -1.2378  0.6174 -0.8336
 5919TIP3   OH217720   3.733   3.528   1.519 -0.0964 -0.0700  0.2379
 5919TIP3    H117721   3.781   3.587   1.461  0.2875 -1.1580 -0.5899
 5919TIP3    H217722   3.645   3.523   1.480  0.4648 -1.6424 -0.9356
 5920TIP3   OH217723   4.619   0.889   5.667 -0.2955  0.1309  0.3636
 5920TIP3    H117724   4.703   0.917   5.702  1.8069 -1.3692 -3.0188
 5920TIP3    H217725   4.558   0.959   5.690  2.7349  3.2712 -0.4414
 5921TIP3   OH217726   0.986   0.062   0.118 -0.0716 -0.9161  0.2972
 5921TIP3    H117727   0.916   0.035   0.178  0.0031 -0.7696  0.4496
 5921TIP3    H217728   0.940   0.104   0.045 -0.2206 -1.7762 -0.1242
 5922TIP3   OH217729   0.847   2.930   5.065  0.3014  0.2475 -0.0617
 5922TIP3    H117730   0.901   2.948   5.142 -1.0380  2.3186  0.4750
 5922TIP3    H217731   0.822   2.838   5.075  1.6804 -0.0510  0.9596
 5923TIP3   OH217732   1.698   0.082   5.849  0.3322 -0.1951  0.5006
 5923TIP3    H117733   1.686  -0.013   5.848 -0.3724 -0.1493 -1.9811
 5923TIP3    H217734   1.776   0.097   5.795  0.3801  0.6483  0.7877
 5924TIP3   OH217735   3.254   1.116   1.078 -0.3803 -0.0759 -0.0216
 5924TIP3    H117736   3.303   1.162   1.146  0.2252 -0.8413  0.0785
 5924TIP3    H217737   3.166   1.106   1.115 -0.1923 -0.0503  0.4478
 5925TIP3   OH217738   4.251   3.564   0.893  0.3505 -0.3618  0.4551
 5925TIP3    H117739   4.263   3.659   0.898  0.7990 -0.4429  1.2099
 5925TIP3    H217740   4.161   3.552   0.864  0.3292  0.2926  0.2350
 5926TIP3   OH217741   4.318   4.231   1.829 -1.0323  0.2130 -0.4743
 5926TIP3    H117742   4.360   4.161   1.879 -2.2611  0.1719  0.5142
 5926TIP3    H217743   4.391   4.271   1.781 -0.1219 -0.9591 -0.1450
 5927TIP3   OH217744   4.524   1.882   2.798 -0.0512 -0.2279  0.0997
 5927TIP3    H117745   4.556   1.797   2.827  0.0226 -1.0205 -2.1146
 5927TIP3    H217746   4.477   1.917   2.873  0.0506 -2.1463  1.1152
 5928TIP3   OH217747   4.066   1.164   2.712  0.1730  0.6039  0.2179
 5928TIP3    H117748   4.134   1.100   2.693  1.4434  1.5932  1.2177
 5928TIP3    H217749   4.060   1.218   2.633 -0.3113 -0.2151 -0.3125
 5929TIP3   OH217750   4.197   0.952   2.609 -0.4278  0.3831 -0.1340
 5929TIP3    H117751   4.124   0.950   2.548 -0.0935 -1.0352 -0.5251
 5929TIP3    H217752   4.175   0.885   2.675 -0.2193  1.0516  0.6339
 5930TIP3   OH217753   5.881   4.439   0.340  0.0008  0.1065  0.3124
 5930TIP3    H117754   5.913   4.403   0.257 -0.3047 -0.2915  0.3665
 5930TIP3    H217755   5.799   4.483   0.316  0.8569  1.6446  0.0635
 5931TIP3   OH217756   7.052   0.135   2.762 -0.8960  0.6360 -0.9374
 5931TIP3    H117757   7.050   0.095   2.848  0.8387  1.0406 -0.6574
 5931TIP3    H217758   6.995   0.081   2.708 -0.5626 -0.7178  0.0221
 5932TIP3   OH217759   1.933   6.695   5.344 -0.9200 -0.4472  0.2208
 5932TIP3    H117760   1.941   6.700   5.440 -2.1216  0.6686  0.3015
 5932TIP3    H217761   2.006   6.748   5.311 -0.6210 -0.6661  0.5311
 5933TIP3   OH217762   3.163   5.228   5.558  0.2823  0.9685  0.5132
 5933TIP3    H117763   3.177   5.143   5.601 -1.1723  0.3585 -0.1428
 5933TIP3    H217764   3.233   5.235   5.494  0.1225  0.0238  0.2251
 5934TIP3   OH217765   2.547   0.923  -0.022 -0.6179  0.1706 -0.2486
 5934TIP3    H117766   2.510   0.836  -0.033  0.0582 -0.0105 -1.2637
 5934TIP3    H217767   2.589   0.922   0.064 -1.9269  0.0087  0.4073
 5935TIP3   OH217768   0.590   0.316   2.771  0.3077  0.4296 -0.4177
 5935TIP3    H117769   0.628   0.404   2.774 -0.1931  0.6687 -0.8507
 5935TIP3    H217770   0.644   0.264   2.829 -0.5950  1.5029  1.4598
 5936TIP3   OH217771   3.329   6.267   0.184 -0.1272 -0.1418 -0.2817
 5936TIP3    H117772   3.293   6.347   0.223 -0.0335  0.2893 -1.0496
 5936TIP3    H217773   3.362   6.296   0.099 -2.0841 -1.3816 -1.5482
 5937TIP3   OH217774   5.861   6.381   2.446  0.4132  0.4047 -0.6773
 5937TIP3    H117775   5.830   6.299   2.483  3.2025 -0.8223 -0.7571
 5937TIP3    H217776   5.872   6.363   2.353 -0.1206  1.2912 -0.9259
 5938TIP3   OH217777   0.770   5.810   1.019 -0.3418 -0.4946  0.5994
 5938TIP3    H117778   0.688   5.845   1.053 -1.0126 -0.6853 -0.7413
 5938TIP3    H217779   0.815   5.885   0.983 -0.0028 -0.4210  1.1635
 5939TIP3   OH217780   2.502   3.650   3.756 -0.2534 -0.4199  0.0424
 5939TIP3    H117781   2.527   3.704   3.681  2.4058 -0.5207  0.7612
 5939TIP3    H217782   2.511   3.560   3.724  0.6317 -0.4596  0.3806
 5940TIP3   OH217783   1.053   3.157   1.579  0.8414  0.1921 -0.3362
 5940TIP3    H117784   0.977   3.216   1.571  0.3689 -0.2960  0.4100
 5940TIP3    H217785   1.067   3.150   1.673  0.1355 -1.8127 -0.3419
 5941TIP3   OH217786   1.945   2.359   2.127  0.5930 -0.0541  0.0999
 5941TIP3    H117787   1.898   2.298   2.069  0.2885 -0.2244  0.5163
 5941TIP3    H217788   2.019   2.389   2.075  0.5271 -0.4804 -0.2521
 5942TIP3   OH217789   5.202   2.934   2.686 -0.6010 -0.6511  0.3197
 5942TIP3    H117790   5.179   2.868   2.621 -1.6657  0.6971 -0.7448
 5942TIP3    H217791   5.121   2.950   2.735 -0.6772  0.6268 -0.1748
 5943TIP3   OH217792   2.324   5.819   0.875  0.4037 -0.2744  0.4230
 5943TIP3    H117793   2.263   5.838   0.804 -2.4102  0.1997  2.8015
 5943TIP3    H217794   2.404   5.866   0.851 -0.5610  0.2554 -2.1291
 5944TIP3   OH217795   6.851   1.597   1.982  0.2629 -0.7011 -0.1485
 5944TIP3    H117796   6.842   1.583   2.076  0.3271  1.3581  0.2206
 5944TIP3    H217797   6.803   1.524   1.942  0.1470 -1.5580  1.4640
 5945TIP3   OH217798   5.303   5.279   1.938  0.2481  0.0368  0.5917
 5945TIP3    H117799   5.389   5.321   1.944 -0.1205  1.4169 -2.0440
 5945TIP3    H217800   5.323   5.189   1.912  0.9067  0.1177  0.7905
 5946TIP3   OH217801   0.976   0.333   2.917 -0.7500  0.2930  0.2264
 5946TIP3    H117802   0.994   0.243   2.942 -1.9953  0.2016  0.9168
 5946TIP3    H217803   0.972   0.332   2.821 -2.4764 -0.7774  0.2692
 5947TIP3   OH217804   3.611   3.719   2.865 -0.0615  0.6787 -0.1282
 5947TIP3    H117805   3.654   3.785   2.809 -0.5777  0.5675 -0.6645
 5947TIP3    H217806   3.647   3.636   2.836 -0.5619  0.5931 -0.5162
 5948TIP3   OH217807   2.566   6.507   5.129 -0.2411 -0.4789  0.0914
 5948TIP3    H117808   2.626   6.575   5.101 -0.2885 -0.5458 -0.1762
 5948TIP3    H217809   2.497   6.506   5.062 -1.1444  0.3704  0.9634
 5949TIP3   OH217810   0.659   5.943   2.523 -0.7071  0.5126 -0.0637
 5949TIP3    H117811   0.718   5.874   2.554 -2.6069 -0.9291  0.4955
 5949TIP3    H217812   0.684   5.956   2.431 -0.3013 -0.9107 -0.1798
 5950TIP3   OH217813   6.798   5.499   1.453 -0.6149  0.2383 -0.3853
 5950TIP3    H117814   6.849   5.554   1.513  0.4647  1.2779 -2.1544
 5950TIP3    H217815   6.711   5.540   1.452 -0.3693  0.7816 -0.2220
 5951TIP3   OH217816   6.652   0.444   2.095  0.0290  0.2663 -0.3788
 5951TIP3    H117817   6.607   0.491   2.026  0.4245  0.9044 -0.2065
 5951TIP3    H217818   6.730   0.408   2.052  0.2090  0.5559 -0.2964
 5952TIP3   OH217819   4.486   3.615   0.580  0.0110  0.5877 -0.2600
 5952TIP3    H117820   4.551   3.573   0.637  0.8893  0.3936 -1.3731
 5952TIP3    H217821   4.449   3.686   0.634 -1.5848 -1.5890  1.7098
 5953TIP3   OH217822   3.900   2.273   5.285  0.3083  0.0222  0.1676
 5953TIP3    H117823   3.969   2.337   5.300 -0.7367  1.2311  0.0210
 5953TIP3    H217824   3.931   2.220   5.212  0.8949  0.8325 -0.1832
 5954TIP3   OH217825   1.378   4.687   4.327 -0.3767  0.3986 -0.2983
 5954TIP3    H117826   1.443   4.703   4.259 -0.8595 -0.5439 -1.0037
 5954TIP3    H217827   1.312   4.755   4.314  0.7515  1.7604  0.8266
 5955TIP3   OH217828   1.384   2.989   3.526  0.0269 -0.6342 -0.3522
 5955TIP3    H117829   1.403   3.065   3.581 -1.4193  1.0699 -2.0810
 5955TIP3    H217830   1.464   2.937   3.529  1.5264  1.5291 -0.0256
 5956TIP3   OH217831   5.134   5.962   5.310 -0.3951  0.9769 -0.6299
 5956TIP3    H117832   5.212   5.936   5.262 -1.2188  0.6712 -1.8680
 5956TIP3    H217833   5.163   6.031   5.369  0.9774  0.2253 -0.3849
 5957TIP3   OH217834   3.265   3.525   0.915  0.0349 -0.3269 -0.3336
 5957TIP3    H117835   3.272   3.528   0.820 -0.1787  1.9629 -0.3434
 5957TIP3    H217836   3.344   3.479   0.944  0.0939 -1.0629 -1.6042
 5958TIP3   OH217837   6.142   6.000   1.605  0.4386 -0.9978  0.2213
 5958TIP3    H117838   6.220   6.052   1.623  0.0882 -0.3786 -0.0105
 5958TIP3    H217839   6.174   5.925   1.555  1.0755 -1.4952  1.3507
 5959TIP3   OH217840   3.835   6.314   1.787 -0.2662  0.1172  0.6478
 5959TIP3    H117841   3.884   6.270   1.856 -0.0797 -0.8143 -0.0604
 5959TIP3    H217842   3.896   6.380   1.753  0.0100 -0.1172  0.6865
 5960TIP3   OH217843   1.276   1.211   0.688  0.7039 -0.0124 -0.4478
 5960TIP3    H117844   1.360   1.238   0.726  0.2357 -1.4090  1.7997
 5960TIP3    H217845   1.254   1.280   0.626  2.1933  1.7987  0.9411
 5961TIP3   OH217846   3.372   6.660   0.429 -0.2284  0.0054  0.1356
 5961TIP3    H117847   3.449   6.689   0.478  0.6147 -0.3604 -0.9215
 5961TIP3    H217848   3.315   6.737   0.426  0.4654  0.5371  0.2296
 5962TIP3   OH217849   2.108   0.729   1.884  0.0406  0.2134  0.7029
 5962TIP3    H117850   2.042   0.788   1.919  1.1565  0.6155  2.2214
 5962TIP3    H217851   2.161   0.784   1.826  0.9673  0.6909  1.9737
 5963TIP3   OH217852   0.485   5.754   1.874 -0.1444 -0.7788 -0.4016
 5963TIP3    H117853   0.518   5.835   1.913  0.8269 -1.4298  0.1629
 5963TIP3    H217854   0.439   5.710   1.945  0.6349 -1.4291 -0.2946
 5964TIP3   OH217855   2.049   6.648   4.508 -0.2100 -0.7074  0.2337
 5964TIP3    H117856   2.052   6.706   4.432  0.1607  0.2914  0.9853
 5964TIP3    H217857   2.015   6.703   4.578  0.4547 -1.3125  1.0509
 5965TIP3   OH217858   5.098   1.647   5.373  0.1500 -0.0057  0.4037
 5965TIP3    H117859   5.119   1.612   5.460 -0.4569 -1.8611 -0.1460
 5965TIP3    H217860   5.004   1.666   5.378 -0.0923 -1.0038 -0.1029
 5966TIP3   OH217861   2.584   0.076   1.486  0.1637 -0.0002 -0.2568
 5966TIP3    H117862   2.640   0.026   1.426 -1.0631 -1.3757 -0.3057
 5966TIP3    H217863   2.497   0.072   1.446 -0.5461 -0.3950  1.2641
 5967TIP3   OH217864   5.575   6.249   1.815 -0.0270  0.1845 -0.4154
 5967TIP3    H117865   5.517   6.313   1.857 -0.0071 -0.3298  0.4045
 5967TIP3    H217866   5.534   6.165   1.831  0.5766 -0.1212 -0.4398
 5968TIP3   OH217867   4.430   0.175   5.236 -0.6773  0.1490 -0.0139
 5968TIP3    H117868   4.516   0.142   5.262 -0.7885  1.5069  2.2922
 5968TIP3    H217869   4.424   0.261   5.276 -3.1900  0.0176  0.0313
 5969TIP3   OH217870   0.109   3.814   1.881  0.3200  0.2276 -0.2737
 5969TIP3    H117871   0.174   3.811   1.951 -0.1823  1.6266  0.2801
 5969TIP3    H217872   0.027   3.791   1.923  0.3883 -1.4042 -0.9463
 5970TIP3   OH217873   6.105   4.493   1.183  0.0071  0.0353 -0.1109
 5970TIP3    H117874   6.199   4.504   1.164 -0.2676 -0.7399 -2.1250
 5970TIP3    H217875   6.064   4.481   1.098 -1.6412 -1.8518  0.8470
 5971TIP3   OH217876   4.316   1.126   3.160 -0.4134 -0.0490  0.5244
 5971TIP3    H117877   4.240   1.157   3.110  0.0938  0.6965  0.1910
 5971TIP3    H217878   4.387   1.124   3.095  0.0874  0.2531  1.0529
 5972TIP3   OH217879   0.087   3.864   4.584 -0.5073 -0.3338 -0.1777
 5972TIP3    H117880   0.008   3.831   4.542 -0.3654 -0.5939 -0.2415
 5972TIP3    H217881   0.093   3.815   4.667  0.1013 -1.0082 -0.6083
 5973TIP3   OH217882   5.633   6.420   1.038 -0.1601 -0.0950  0.0759
 5973TIP3    H117883   5.602   6.369   0.963  0.8597 -1.1357  0.3239
 5973TIP3    H217884   5.716   6.458   1.007 -0.6898  1.0757  0.0456
 5974TIP3   OH217885   3.271   4.839   3.919  0.5354 -0.4973  0.1176
 5974TIP3    H117886   3.364   4.861   3.924  0.4628 -0.1860  0.1055
 5974TIP3    H217887   3.242   4.836   4.010  0.2040  0.9378  0.0826
 5975TIP3   OH217888   1.749   6.664   2.378 -0.4754 -0.3216 -0.0422
 5975TIP3    H117889   1.768   6.751   2.343  0.3994 -0.9669 -1.2312
 5975TIP3    H217890   1.678   6.632   2.324  0.4971 -1.0979 -0.8913
 5976TIP3   OH217891   5.260   6.561   5.205  0.3136 -0.1333  0.4187
 5976TIP3    H117892   5.234   6.469   5.203  0.2951 -0.1259  0.3059
 5976TIP3    H217893   5.320   6.568   5.278 -1.1620  0.1506  1.6584
 5977TIP3   OH217894   4.671   4.192   3.277 -0.1115  0.3739  0.5997
 5977TIP3    H117895   4.620   4.114   3.302  1.0396 -0.4512  0.4553
 5977TIP3    H217896   4.657   4.201   3.183  0.3793 -0.1295  0.4776
 5978TIP3   OH217897   1.447   3.775   0.286  0.1794  0.2262  0.1964
 5978TIP3    H117898   1.518   3.713   0.267 -1.7422 -1.8824 -0.6118
 5978TIP3    H217899   1.488   3.842   0.339  2.3070 -2.0753  1.7044
 5979TIP3   OH217900   0.885   5.227   4.644 -0.0588  0.0843 -0.3008
 5979TIP3    H117901   0.922   5.288   4.707 -0.4888 -0.4336  0.4657
 5979TIP3    H217902   0.962   5.187   4.602  0.2382  2.2128 -1.9111
 5980TIP3   OH217903   0.331   5.335   5.803  0.2307 -0.1425 -0.6216
 5980TIP3    H117904   0.402   5.305   5.860 -1.9689 -1.4366  1.6593
 5980TIP3    H217905   0.296   5.255   5.765 -1.2022  0.2254 -0.1381
 5981TIP3   OH217906   6.905   0.320   1.069 -0.3654 -0.2261 -0.3667
 5981TIP3    H117907   6.824   0.270   1.075 -0.4587  0.0701  3.6830
 5981TIP3    H217908   6.887   0.400   1.118  1.8920  0.6071 -0.7748
 5982TIP3   OH217909   5.866   6.609   1.785  0.1470 -0.1014  0.6153
 5982TIP3    H117910   5.951   6.639   1.752  0.4318  0.6681  1.9511
 5982TIP3    H217911   5.822   6.571   1.709  2.3593 -2.1235  0.2120
 5983TIP3   OH217912   6.616   1.673   1.698  0.4982  0.9009 -0.5295
 5983TIP3    H117913   6.527   1.648   1.672  0.1440  1.8624 -0.2745
 5983TIP3    H217914   6.669   1.597   1.675 -0.1802  0.7986 -1.8789
 5984TIP3   OH217915   2.890   6.707   0.874 -0.0915 -0.4762  0.2588
 5984TIP3    H117916   2.927   6.788   0.909  1.2022 -0.1963 -1.6140
 5984TIP3    H217917   2.924   6.701   0.785 -2.7764 -1.3926 -0.8382
 5985TIP3   OH217918   5.796   3.519   4.493 -0.0739  0.8361 -0.3420
 5985TIP3    H117919   5.736   3.447   4.473 -1.0617  1.7411 -0.7197
 5985TIP3    H217920   5.837   3.539   4.409  0.3471  0.5898 -0.1971
 5986TIP3   OH217921   4.624   0.787   1.157  0.1953  0.1557  0.3545
 5986TIP3    H117922   4.671   0.831   1.228 -0.9348 -0.2384  1.3783
 5986TIP3    H217923   4.660   0.698   1.156 -2.2514 -1.0253  2.9574
 5987TIP3   OH217924   2.841   5.760   4.521 -0.6615  0.3696  0.1388
 5987TIP3    H117925   2.867   5.785   4.610 -0.3675 -0.8312  0.4194
 5987TIP3    H217926   2.757   5.716   4.533 -0.1666 -0.6696 -0.0170
 5988TIP3   OH217927   2.892   5.498   0.807 -0.0879 -0.4322 -0.0174
 5988TIP3    H117928   2.944   5.423   0.778  3.0188  1.5575 -0.1725
 5988TIP3    H217929   2.858   5.536   0.726 -1.1585 -1.3121  0.0111
 5989TIP3   OH217930   0.718   6.513   0.975 -0.1567  0.1411 -0.0617
 5989TIP3    H117931   0.750   6.562   0.899  1.8877 -1.2639 -0.1918
 5989TIP3    H217932   0.681   6.433   0.939  1.6094 -0.9369  0.3918
 5990TIP3   OH217933   3.136   6.418   0.344 -0.1545  0.2998 -0.2954
 5990TIP3    H117934   3.055   6.468   0.352 -1.6300 -2.1738  1.2276
 5990TIP3    H217935   3.200   6.483   0.315 -1.8305  3.1786  1.8301
 5991TIP3   OH217936   5.546   2.201   3.974  0.2548 -0.3311  0.4493
 5991TIP3    H117937   5.593   2.148   4.039 -0.2043 -1.8799 -0.4442
 5991TIP3    H217938   5.615   2.242   3.922  0.6157 -0.7393  0.6034
 5992TIP3   OH217939   3.023   5.947   4.618  0.3665  0.1832  0.6961
 5992TIP3    H117940   3.058   5.858   4.618  0.0490  0.0146  2.5293
 5992TIP3    H217941   2.969   5.952   4.697 -1.8693  1.1731 -0.7901
 5993TIP3   OH217942   1.617   5.030   5.448 -0.4764  0.0633 -0.1752
 5993TIP3    H117943   1.637   4.969   5.519  1.0967  2.0339  1.1521
 5993TIP3    H217944   1.534   5.070   5.474  0.7896  1.8095  1.3489
 5994TIP3   OH217945   3.597   4.752   0.479 -0.4287  0.0386 -0.3376
 5994TIP3    H117946   3.543   4.722   0.406 -0.8549 -1.0982  0.4163
 5994TIP3    H217947   3.535   4.796   0.538 -0.2893 -0.0762 -0.1062
 5995TIP3   OH217948   4.765   0.060   3.980  0.0308 -0.8324 -0.3066
 5995TIP3    H117949   4.701  -0.011   3.976  0.6387 -1.4459  0.5428
 5995TIP3    H217950   4.748   0.103   4.064  1.5637 -1.8391  0.5764
 5996TIP3   OH217951   6.143   4.634   3.752 -0.4292 -0.3484  0.3376
 5996TIP3    H117952   6.069   4.670   3.702  0.9788  0.6334 -1.1278
 5996TIP3    H217953   6.195   4.711   3.775  1.0264 -1.1621 -0.1614
 5997TIP3   OH217954   4.112   3.777   2.706  0.5421  0.4904 -0.1816
 5997TIP3    H117955   4.052   3.778   2.780  1.1057  1.3676  0.2767
 5997TIP3    H217956   4.195   3.744   2.742  1.2031  2.1654 -0.0848
 5998TIP3   OH217957   4.771   3.397   1.527 -0.0936  0.0627  0.6344
 5998TIP3    H117958   4.770   3.492   1.530 -0.2200  0.0964 -0.2748
 5998TIP3    H217959   4.864   3.374   1.528 -0.0521  0.2159  0.3567
 5999TIP3   OH217960   5.614   6.481   5.684 -0.1215 -0.0941  0.6765
 5999TIP3    H117961   5.587   6.501   5.773  0.1390 -0.7527  0.9082
 5999TIP3    H217962   5.679   6.548   5.663 -1.3381  1.0600  0.3754
 6000TIP3   OH217963   5.148   5.058   0.726 -0.1114 -0.6828  0.1024
 6000TIP3    H117964   5.158   4.971   0.686  2.9248  0.3018 -1.6203
 6000TIP3    H217965   5.151   5.119   0.652  2.8885  1.0790  1.4577
 6001TIP3   OH217966   2.146   3.819   4.825 -0.0039 -0.0988  0.1556
 6001TIP3    H117967   2.082   3.747   4.817  1.3096 -1.1794 -1.1976
 6001TIP3    H217968   2.225   3.776   4.857  0.6367  0.8640 -0.1318
 6002TIP3   OH217969   1.832   1.203   5.476  0.0350 -0.3255 -0.2288
 6002TIP3    H117970   1.738   1.187   5.473 -0.2439  0.8505 -4.8025
 6002TIP3    H217971   1.839   1.298   5.487  0.5793 -0.2633 -1.0189
 6003TIP3   OH217972   1.879   2.926   2.063  0.2397  0.0906  0.6722
 6003TIP3    H117973   1.872   2.996   1.998  0.4686 -1.2865 -0.9014
 6003TIP3    H217974   1.864   2.846   2.013  1.3076 -1.0848  2.1690
 6004TIP3   OH217975   5.916   4.893   0.443  0.1458  0.2437  0.0094
 6004TIP3    H117976   5.967   4.950   0.501  0.6550  0.4465 -0.6223
 6004TIP3    H217977   5.906   4.812   0.493 -0.1374  0.7026  0.7084
 6005TIP3   OH217978   0.676   0.071   4.993  0.3842 -0.0701  0.1687
 6005TIP3    H117979   0.608   0.072   5.060  1.5252 -0.1414  1.3509
 6005TIP3    H217980   0.719  -0.013   5.002  0.4385 -0.1658 -0.7999
 6006TIP3   OH217981   5.016   3.490   4.697  0.6821  0.3740 -0.3955
 6006TIP3    H117982   4.935   3.491   4.749  0.9700  1.1800  0.0562
 6006TIP3    H217983   4.988   3.507   4.608  0.3052  0.1863 -0.3155
 6007TIP3   OH217984   5.843   3.190   2.357 -1.0122  0.0225  0.2986
 6007TIP3    H117985   5.757   3.176   2.398 -0.7236 -2.2671  0.2493
 6007TIP3    H217986   5.904   3.195   2.431 -0.9829 -0.0475  0.2795
 6008TIP3   OH217987   4.307   4.336   1.020 -0.1047  0.0596 -0.0928
 6008TIP3    H117988   4.382   4.358   1.075 -0.3857 -1.0287  0.7566
 6008TIP3    H217989   4.231   4.344   1.078 -0.6005  0.5308 -0.7771
 6009TIP3   OH217990   1.751   0.498   0.826  0.3670 -0.2563 -0.1857
 6009TIP3    H117991   1.676   0.529   0.775  1.5257  2.5242 -0.3573
 6009TIP3    H217992   1.796   0.577   0.853  2.9323 -1.8139  0.4391
 6010TIP3   OH217993   4.694   5.609   2.815  0.1679  0.0757 -0.0116
 6010TIP3    H117994   4.678   5.551   2.890 -1.3826  0.1329 -0.2655
 6010TIP3    H217995   4.786   5.596   2.795 -0.0093 -1.9854  0.2193
 6011TIP3   OH217996   4.020   0.509   4.402 -0.4851  0.3530  0.4055
 6011TIP3    H117997   3.928   0.519   4.380 -0.6873 -1.2830  0.3759
 6011TIP3    H217998   4.019   0.464   4.487  0.2935  1.2762  0.9259
 6012TIP3   OH217999   3.632   4.834   0.089 -0.9006  0.4037 -0.0521
 6012TIP3    H118000   3.572   4.909   0.095  0.5233  1.4693  2.3291
 6012TIP3    H218001   3.714   4.872   0.059  0.0760  0.0149  1.9834
 6013TIP3   OH218002   2.130   1.201   2.032  0.0612  0.0200 -0.4027
 6013TIP3    H118003   2.150   1.251   2.110  0.6333  0.1241 -0.6160
 6013TIP3    H218004   2.075   1.259   1.979  0.4938  0.3184 -0.5254
 6014TIP3   OH218005   2.680   1.885   2.439  0.0720  0.0841 -0.5335
 6014TIP3    H118006   2.589   1.877   2.414  0.0539  0.8713 -0.7537
 6014TIP3    H218007   2.721   1.932   2.367  0.3863  0.8371  0.1195
 6015TIP3   OH218008   2.224   1.907   4.692 -0.1630 -0.0394  0.7302
 6015TIP3    H118009   2.135   1.896   4.659 -0.2337 -0.1960  0.9694
 6015TIP3    H218010   2.279   1.905   4.613 -0.3950  0.3510  0.5587
 6016TIP3   OH218011   0.182   1.664   3.179  0.0856 -0.2086  0.2477
 6016TIP3    H118012   0.099   1.704   3.205  0.4624  0.8590 -0.1157
 6016TIP3    H218013   0.158   1.599   3.113 -0.2250  2.8350 -2.9273
 6017TIP3   OH218014   6.803   0.095   0.256  0.1758 -0.2292  0.2102
 6017TIP3    H118015   6.879   0.153   0.260 -0.7016  0.8713  1.5144
 6017TIP3    H218016   6.727   0.153   0.261 -0.7284 -1.4972  2.3519
 6018TIP3   OH218017   6.606   4.773   1.292  0.3127  0.2335 -0.0967
 6018TIP3    H118018   6.567   4.833   1.228  0.6165 -1.0273 -1.5199
 6018TIP3    H218019   6.697   4.800   1.298  0.5061 -0.1856 -0.9092
 6019TIP3   OH218020   0.661   2.436   4.747 -0.4360  0.4395  0.1139
 6019TIP3    H118021   0.756   2.444   4.750 -0.3007 -0.4088 -1.0351
 6019TIP3    H218022   0.641   2.370   4.814 -0.3179  1.1550  0.8804
 6020TIP3   OH218023   5.233   1.862   5.234 -0.5003 -0.1337 -0.4053
 6020TIP3    H118024   5.318   1.822   5.255 -0.8863 -0.5310  0.4949
 6020TIP3    H218025   5.169   1.806   5.279 -1.3796 -0.7419 -2.2962
 6021TIP3   OH218026   6.842   0.423   5.854 -0.0853  0.1423 -0.3992
 6021TIP3    H118027   6.933   0.437   5.877 -0.0751 -0.6441  0.0905
 6021TIP3    H218028   6.845   0.359   5.783 -0.3073 -1.6750  1.1440
 6022TIP3   OH218029   3.065   4.322   2.090  0.6249 -0.0050  0.0920
 6022TIP3    H118030   3.058   4.276   2.006 -1.2869 -0.0027  0.1872
 6022TIP3    H218031   3.044   4.413   2.069 -2.1840 -0.3861  0.8332
 6023TIP3   OH218032   1.118   1.831   1.519 -0.2655 -0.4489  0.5544
 6023TIP3    H118033   1.047   1.892   1.503  0.0057 -0.3185 -0.1902
 6023TIP3    H218034   1.118   1.773   1.443  1.7108  0.8284 -0.5015
 6024TIP3   OH218035   2.047   0.777   5.568  0.0833 -0.0406  0.2245
 6024TIP3    H118036   2.034   0.861   5.525 -0.9782 -0.0688  0.4697
 6024TIP3    H218037   2.029   0.795   5.661  3.4204  0.2883  0.9440
 6025TIP3   OH218038   0.414   3.012   1.732 -0.1201  0.0161  0.3088
 6025TIP3    H118039   0.326   2.976   1.727 -0.4709  0.5246  2.2925
 6025TIP3    H218040   0.471   2.940   1.706 -0.9465 -1.3010  1.9603
 6026TIP3   OH218041   1.808   6.764   1.885  0.3990  0.3785 -0.1824
 6026TIP3    H118042   1.774   6.688   1.838  1.7677  0.0991 -0.7628
 6026TIP3    H218043   1.885   6.731   1.931 -1.0579  0.5509  2.5873
 6027TIP3   OH218044   6.956   2.032   4.744 -0.1677 -0.4213 -0.0469
 6027TIP3    H118045   6.958   1.946   4.785  1.9671 -0.9559 -1.1401
 6027TIP3    H218046   6.888   2.080   4.791 -0.3252 -2.1885  1.6118
 6028TIP3   OH218047   6.918   5.718   3.041 -0.6204  0.4370  0.4874
 6028TIP3    H118048   6.892   5.669   3.118  1.4401 -1.8872 -0.1593
 6028TIP3    H218049   7.013   5.704   3.034 -0.6959  0.6211 -2.3809
 6029TIP3   OH218050   1.326   6.008   1.384  0.2775  0.7381  0.0268
 6029TIP3    H118051   1.269   5.984   1.310 -1.4140 -0.8028  1.7301
 6029TIP3    H218052   1.268   6.046   1.448  1.8539  2.7868  0.3455
 6030TIP3   OH218053   5.999   5.271   1.777  0.1953 -0.3279  0.1145
 6030TIP3    H118054   6.083   5.268   1.730 -0.0730  0.8824 -0.4835
 6030TIP3    H218055   6.023   5.263   1.869  0.9117 -0.6657 -0.0952
 6031TIP3   OH218056   4.662   5.948   1.522  0.1983  0.5459 -0.5773
 6031TIP3    H118057   4.728   5.981   1.460  0.6930 -0.4903 -0.6322
 6031TIP3    H218058   4.679   5.853   1.526  0.1819  0.5891  1.1496
 6032TIP3   OH218059   5.947   4.134   5.093 -0.0438 -0.2064 -0.6235
 6032TIP3    H118060   5.948   4.052   5.142  0.1955  1.2091  1.8886
 6032TIP3    H218061   6.034   4.139   5.053 -0.4565 -1.6803 -1.7822
 6033TIP3   OH218062   5.618   3.831   3.268  0.2146  0.4908 -0.0501
 6033TIP3    H118063   5.662   3.832   3.353 -0.0755 -0.6554  0.1267
 6033TIP3    H218064   5.666   3.767   3.216  0.1789  0.9367 -0.6406
 6034TIP3   OH218065   6.368   2.168   5.225  0.1997  0.2637 -0.4144
 6034TIP3    H118066   6.381   2.074   5.208  1.0008  0.5912 -1.7687
 6034TIP3    H218067   6.411   2.184   5.309 -1.1517 -0.8292  0.5403
 6035TIP3   OH218068   6.209   1.471   1.078 -0.2338  0.6009  0.3126
 6035TIP3    H118069   6.237   1.542   1.021  0.1168  2.0926  2.2234
 6035TIP3    H218070   6.252   1.393   1.043 -0.7793  1.2592 -1.9511
 6036TIP3   OH218071   0.219   3.292   3.833 -0.2415  0.0084  0.2107
 6036TIP3    H118072   0.151   3.224   3.834  0.3853 -0.6825  2.8786
 6036TIP3    H218073   0.214   3.328   3.744 -1.7854 -2.3017 -0.7628
 6037TIP3   OH218074   2.147   5.036   3.899 -0.2709  0.4545  0.2899
 6037TIP3    H118075   2.135   5.118   3.850 -0.1583 -0.4779 -1.3559
 6037TIP3    H218076   2.070   4.984   3.878  0.6371 -0.6732 -0.3708
 6038TIP3   OH218077   1.656   1.495   2.202 -0.0859  0.2844  0.4112
 6038TIP3    H118078   1.669   1.587   2.222  0.9757  0.3338 -0.3652
 6038TIP3    H218079   1.737   1.452   2.232 -0.7815 -0.4848  1.2429
 6039TIP3   OH218080   0.869   4.449   1.188 -0.8668 -0.3289 -0.6851
 6039TIP3    H118081   0.900   4.539   1.174  0.4489 -0.5913  0.3822
 6039TIP3    H218082   0.774   4.455   1.179 -0.7830  1.1365 -0.7986
 6040TIP3   OH218083   5.904   6.452   5.233 -0.1875 -0.0476  0.5947
 6040TIP3    H118084   5.935   6.485   5.149 -0.6200 -1.6661 -0.2328
 6040TIP3    H218085   5.968   6.384   5.257 -0.3924 -0.0021  1.2983
 6041TIP3   OH218086   6.569   6.048   3.952 -0.0426  0.4019  0.2544
 6041TIP3    H118087   6.593   6.090   3.869 -1.9878  0.2722 -0.4307
 6041TIP3    H218088   6.647   6.056   4.007  1.2370  0.6568 -1.5208
 6042TIP3   OH218089   6.012   6.307   0.790  0.6371  0.0139  0.1402
 6042TIP3    H118090   5.975   6.227   0.828  0.6949  0.0439  0.2586
 6042TIP3    H218091   5.991   6.300   0.696  2.0956 -0.9433 -0.1485
 6043TIP3   OH218092   5.961   6.444   2.743 -0.4664  0.5515 -0.3233
 6043TIP3    H118093   5.895   6.512   2.757 -2.0977 -0.7073 -1.5251
 6043TIP3    H218094   5.970   6.440   2.648 -0.2940 -0.8059 -0.2601
 6044TIP3   OH218095   0.362   2.167   2.835  0.1630 -0.6255  0.0874
 6044TIP3    H118096   0.327   2.185   2.748  2.6541 -0.5243 -0.9859
 6044TIP3    H218097   0.418   2.090   2.823  3.4792  1.4651  0.6583
 6045TIP3   OH218098   2.774   6.447   0.885 -0.8822  0.1104 -0.7645
 6045TIP3    H118099   2.690   6.448   0.931 -1.2034  0.0817 -1.3438
 6045TIP3    H218100   2.814   6.531   0.906 -1.0844  0.1496 -0.5364
 6046TIP3   OH218101   1.251   5.721   1.256  0.8575  0.4489 -0.2974
 6046TIP3    H118102   1.302   5.739   1.178  1.2147  0.2491 -0.1145
 6046TIP3    H218103   1.278   5.633   1.282  0.7079  0.4957  0.0212
 6047TIP3   OH218104   5.446   6.479   2.982 -0.4862 -0.5230  0.0765
 6047TIP3    H118105   5.506   6.500   3.053 -1.2894 -0.3748  0.7309
 6047TIP3    H218106   5.502   6.466   2.905  0.4427 -1.2698  0.8612
 6048TIP3   OH218107   5.031   5.203   0.969  0.7068  0.5061  0.0812
 6048TIP3    H118108   5.114   5.156   0.968  1.4445  1.7750 -0.7651
 6048TIP3    H218109   5.011   5.217   0.876 -0.9896 -0.6571  0.2186
 6049TIP3   OH218110   0.233   2.339   2.645 -0.4510  0.1152 -0.1840
 6049TIP3    H118111   0.220   2.361   2.553  0.2496  0.9783 -0.0920
 6049TIP3    H218112   0.195   2.414   2.693 -0.1375  0.0290  0.2041
 6050TIP3   OH218113   3.990   5.648   0.919 -0.0205 -0.0644 -0.6455
 6050TIP3    H118114   4.053   5.633   0.990  1.4939  0.8439 -1.7126
 6050TIP3    H218115   3.906   5.618   0.953  0.5771  0.7504  1.6794
 6051TIP3   OH218116   3.777   5.706   5.213  0.7681 -0.2876 -0.1599
 6051TIP3    H118117   3.697   5.746   5.178  2.0349  1.6754 -0.9697
 6051TIP3    H218118   3.788   5.746   5.299  1.0149 -0.3934 -0.1423
 6052TIP3   OH218119   5.174   0.325   4.129 -0.6403  0.5655  0.0718
 6052TIP3    H118120   5.173   0.402   4.072 -2.4125  1.0887  0.7155
 6052TIP3    H218121   5.082   0.298   4.133 -0.1122 -1.3365  0.2167
 6053TIP3   OH218122   4.894   0.726   4.023 -0.0137  0.2487 -0.3317
 6053TIP3    H118123   4.802   0.719   3.999  0.2965  0.3760 -1.6358
 6053TIP3    H218124   4.896   0.792   4.092 -0.9383 -0.0228 -0.0348
 6054TIP3   OH218125   5.726   2.939   1.512 -0.4566  0.1784  0.0969
 6054TIP3    H118126   5.634   2.912   1.517 -1.1129  1.9557 -1.2325
 6054TIP3    H218127   5.762   2.891   1.438 -0.8604  0.8780 -0.5644
 6055TIP3   OH218128   5.753   0.547   3.796  0.4241  0.3623  0.2815
 6055TIP3    H118129   5.666   0.584   3.808  0.9227  1.5502  0.3505
 6055TIP3    H218130   5.813   0.619   3.815  1.4080 -0.1937 -0.5829
 6056TIP3   OH218131   3.726   1.771   2.247  0.0379  0.3892  0.3119
 6056TIP3    H118132   3.688   1.720   2.319 -3.0719  0.7342 -0.9365
 6056TIP3    H218133   3.697   1.860   2.264  0.7713  0.7760 -0.4451
 6057TIP3   OH218134   3.405   4.873   5.193 -0.0955  0.0170  0.0532
 6057TIP3    H118135   3.330   4.923   5.225  0.4024  0.1279  1.0921
 6057TIP3    H218136   3.413   4.800   5.254  0.6490  0.0103 -0.0443
 6058TIP3   OH218137   5.317   2.954   4.199 -0.2521  0.0305 -0.6876
 6058TIP3    H118138   5.252   2.896   4.238 -0.5294  0.4417 -0.5255
 6058TIP3    H218139   5.378   2.896   4.154 -0.6063 -0.3743 -0.6508
 6059TIP3   OH218140   3.061   0.115   0.484 -0.0143  0.0337 -0.2461
 6059TIP3    H118141   3.150   0.139   0.510  0.3869 -1.7591  0.1742
 6059TIP3    H218142   3.032   0.188   0.429  1.0764  1.4358  0.9577
 6060TIP3   OH218143   6.491   5.236   4.649  0.0631  0.0270 -0.0055
 6060TIP3    H118144   6.489   5.327   4.680  0.6822  0.0718 -0.0987
 6060TIP3    H218145   6.519   5.185   4.725  1.4298  0.1190 -0.4212
 6061TIP3   OH218146   2.722   3.372   0.406 -0.0731 -0.6585  0.3288
 6061TIP3    H118147   2.700   3.359   0.498 -2.6236 -0.8049 -0.2206
 6061TIP3    H218148   2.733   3.283   0.372  1.1222 -0.5953  0.5314
 6062TIP3   OH218149   2.185   4.758   0.021  0.7877 -0.1030  0.9693
 6062TIP3    H118150   2.238   4.794   0.092  0.3213  1.7507  0.4497
 6062TIP3    H218151   2.116   4.824   0.007  1.7182  0.3651 -2.1512
 6063TIP3   OH218152   1.818   0.411   5.548  0.2087  0.5986 -0.5339
 6063TIP3    H118153   1.811   0.316   5.559  1.8035  0.5107 -0.0620
 6063TIP3    H218154   1.732   0.444   5.572 -1.1728 -0.8843 -3.0067
 6064TIP3   OH218155   5.959   2.185   1.917 -0.1590 -0.5284  0.1500
 6064TIP3    H118156   5.876   2.153   1.882 -0.5779 -0.7957  1.3180
 6064TIP3    H218157   5.968   2.139   2.001 -0.2185  1.5786  1.3637
 6065TIP3   OH218158   0.069   2.927   0.583 -0.2752 -0.1701 -0.4009
 6065TIP3    H118159   0.113   2.847   0.554 -1.3242 -0.7268 -0.5331
 6065TIP3    H218160   0.109   2.997   0.530 -1.2315 -0.9883 -2.3275
 6066TIP3   OH218161   3.605   3.419   4.767  0.4913 -0.3583 -0.1932
 6066TIP3    H118162   3.675   3.356   4.750 -0.2970 -1.2254 -0.2346
 6066TIP3    H218163   3.565   3.390   4.849 -0.9085 -0.8611 -1.0251
 6067TIP3   OH218164   3.358   6.154   3.843 -0.6416  0.0064  0.6572
 6067TIP3    H118165   3.403   6.112   3.770 -1.5855  1.0665 -0.5862
 6067TIP3    H218166   3.428   6.197   3.893  0.2409 -2.2732  1.5258
 6068TIP3   OH218167   0.257   1.988   3.534  0.2817  0.0585 -0.1003
 6068TIP3    H118168   0.337   1.936   3.537  0.4778  0.4008  1.0571
 6068TIP3    H218169   0.287   2.077   3.515  0.2854  0.3619  1.2418
 6069TIP3   OH218170   5.810   6.481   5.488  0.6708  0.5694  0.5226
 6069TIP3    H118171   5.864   6.468   5.410  0.1937  0.1833  0.2516
 6069TIP3    H218172   5.799   6.393   5.524 -0.8652  0.4599 -0.1607
 6070TIP3   OH218173   4.842   2.970   2.184 -0.2588 -0.0438  0.6031
 6070TIP3    H118174   4.917   3.011   2.143  0.4052 -1.9366 -0.1931
 6070TIP3    H218175   4.786   2.943   2.111 -2.3081  2.2416  1.1845
 6071TIP3   OH218176   4.776   0.599   3.474  0.0810  0.8413  0.1037
 6071TIP3    H118177   4.816   0.641   3.551  1.1763  1.2415 -0.6571
 6071TIP3    H218178   4.776   0.506   3.496 -0.1893  1.0008  0.8384
 6072TIP3   OH218179   5.247   0.140   4.870 -0.2919  0.0650 -0.0200
 6072TIP3    H118180   5.283   0.141   4.781 -1.5939 -0.7916 -0.5901
 6072TIP3    H218181   5.316   0.101   4.923 -0.6996 -2.5392 -1.2604
 6073TIP3   OH218182   3.612   6.615   0.224 -0.2067  0.3168  0.3665
 6073TIP3    H118183   3.660   6.609   0.306 -1.2306  2.3639  1.2020
 6073TIP3    H218184   3.577   6.527   0.209  1.3843 -0.4820  1.2216
 6074TIP3   OH218185   0.944   2.827   5.746 -0.3670 -0.5478 -0.0756
 6074TIP3    H118186   0.875   2.763   5.762  0.1069 -1.2403 -0.7471
 6074TIP3    H218187   0.907   2.910   5.777 -0.5223 -1.3318  1.9385
 6075TIP3   OH218188   2.819   5.371   2.376 -0.7789  0.2767 -0.1711
 6075TIP3    H118189   2.809   5.445   2.317  0.0287 -0.5974 -1.4383
 6075TIP3    H218190   2.805   5.294   2.322 -0.2857 -0.5463  0.8261
 6076TIP3   OH218191   5.404   1.099   0.142  0.3559  0.2148 -0.6111
 6076TIP3    H118192   5.446   1.097   0.056 -1.5748 -0.5974 -1.5825
 6076TIP3    H218193   5.325   1.150   0.130  0.7336  1.2873  1.0645
 6077TIP3   OH218194   5.061   1.034   4.343 -0.4731  0.2610  0.2005
 6077TIP3    H118195   5.018   0.970   4.400  0.2676  1.5184  2.2845
 6077TIP3    H218196   5.154   1.024   4.361 -0.2204  0.7535 -0.7625
 6078TIP3   OH218197   0.036   2.932   2.293  0.6515 -0.1793  0.6299
 6078TIP3    H118198  -0.044   2.927   2.346 -0.1284  1.3077 -0.3458
 6078TIP3    H218199   0.089   2.859   2.324 -0.9891 -1.0855  1.4602
 6079TIP3   OH218200   2.500   5.976   1.785  0.0599  0.1931 -0.7843
 6079TIP3    H118201   2.498   5.885   1.757 -2.7306 -0.0791  0.0495
 6079TIP3    H218202   2.561   5.977   1.858 -0.5811 -1.2245 -0.1967
 6080TIP3   OH218203   4.897   0.544   2.473  0.3374 -0.4323 -0.3356
 6080TIP3    H118204   4.823   0.594   2.508 -1.1378 -2.0463 -1.0070
 6080TIP3    H218205   4.947   0.517   2.550 -0.1463  0.1125  0.1804
 6081TIP3   OH218206   6.579   3.540   0.544 -0.1654  0.4480 -0.3830
 6081TIP3    H118207   6.588   3.563   0.636  0.5275 -2.6688  0.4760
 6081TIP3    H218208   6.525   3.461   0.544  0.1532  0.1513 -2.6106
 6082TIP3   OH218209   2.378   4.081   3.473 -0.2373  0.1914  0.6828
 6082TIP3    H118210   2.310   4.049   3.413  0.3617 -1.4692  0.8478
 6082TIP3    H218211   2.440   4.127   3.417  0.2286 -1.1945  0.0043
 6083TIP3   OH218212   6.456   3.164   3.088  0.4285  0.2977 -0.4050
 6083TIP3    H118213   6.468   3.202   3.176  0.3964  0.7168 -0.5785
 6083TIP3    H218214   6.405   3.230   3.041  0.6433  0.1727 -0.8112
 6084TIP3   OH218215   1.578   4.547   2.201 -0.6078  0.6319  0.1790
 6084TIP3    H118216   1.592   4.474   2.261  0.6257  0.8705  0.2049
 6084TIP3    H218217   1.654   4.545   2.143 -1.9960  0.0956 -1.7399
 6085TIP3   OH218218   5.883   5.740   3.903 -0.1687 -0.2998 -0.1644
 6085TIP3    H118219   5.962   5.709   3.948  0.6846  2.1554  0.2022
 6085TIP3    H218220   5.871   5.678   3.831  1.4913 -1.3470  0.3857
 6086TIP3   OH218221   3.105   6.192   5.621 -0.3527 -0.0018  0.4220
 6086TIP3    H118222   3.090   6.115   5.566 -0.1789  0.1126  0.2137
 6086TIP3    H218223   3.092   6.160   5.711  2.0862 -0.8809  0.5327
 6087TIP3   OH218224   1.937   3.428   5.312 -0.6148 -0.4596  0.3881
 6087TIP3    H118225   1.863   3.449   5.368  0.2530 -0.3055  1.4971
 6087TIP3    H218226   1.976   3.350   5.351  0.9300  0.5449  0.9385
 6088TIP3   OH218227   1.061   6.388   0.158 -0.1428 -0.2232 -0.1454
 6088TIP3    H118228   1.110   6.352   0.084 -1.4762 -2.3071 -0.0853
 6088TIP3    H218229   1.078   6.327   0.230 -0.5393  0.6163  0.6745
 6089TIP3   OH218230   3.739   3.222   1.222 -0.3563  0.1245  0.0767
 6089TIP3    H118231   3.814   3.203   1.278 -0.8198 -3.3659 -0.2490
 6089TIP3    H218232   3.776   3.266   1.145  1.0869  0.0195  0.6955
 6090TIP3   OH218233   5.897   0.478   5.689  0.1589 -0.2399 -0.3307
 6090TIP3    H118234   5.991   0.477   5.673  0.1419  0.5520 -0.4870
 6090TIP3    H218235   5.888   0.490   5.783  0.2114 -1.1071 -0.2010
 6091TIP3   OH218236   5.061   4.556   0.711  0.2434  0.2378  0.0510
 6091TIP3    H118237   4.976   4.512   0.708  0.4105 -0.0531 -0.8811
 6091TIP3    H218238   5.125   4.485   0.699  0.7202  0.2344  2.2215
 6092TIP3   OH218239   2.530   1.340   3.777 -0.3295 -0.2907  0.2348
 6092TIP3    H118240   2.543   1.419   3.725 -1.5588 -0.5554 -0.5327
 6092TIP3    H218241   2.510   1.272   3.713 -0.2632 -0.9961  0.9474
 6093TIP3   OH218242   2.523   2.450   2.266  0.2820 -0.7120  0.3399
 6093TIP3    H118243   2.573   2.450   2.348  0.7605 -0.9352  0.0560
 6093TIP3    H218244   2.589   2.434   2.199  0.2114  1.4476 -0.2990
 6094TIP3   OH218245   3.034   3.729   0.569  0.0114  0.8929  0.3641
 6094TIP3    H118246   2.944   3.705   0.592 -0.5414 -0.5211 -2.7223
 6094TIP3    H218247   3.025   3.806   0.513  0.3657 -0.7010 -2.0382
 6095TIP3   OH218248   1.251   6.131   4.065  0.5869 -0.5717 -0.4829
 6095TIP3    H118249   1.252   6.065   3.996 -0.1539 -0.1834 -0.8775
 6095TIP3    H218250   1.324   6.107   4.123 -0.4394 -2.4901  0.0927
 6096TIP3   OH218251   4.361   3.433   5.692  0.0505 -0.4970  0.4421
 6096TIP3    H118252   4.341   3.443   5.786 -0.4132 -4.0860  0.8728
 6096TIP3    H218253   4.454   3.411   5.689 -0.1219 -1.2050  0.1557
 6097TIP3   OH218254   0.846   3.361   1.215  0.1825 -0.5676  0.6714
 6097TIP3    H118255   0.889   3.361   1.300 -0.0901  0.8794  0.8341
 6097TIP3    H218256   0.755   3.385   1.234  0.3182  0.6487 -0.0845
 6098TIP3   OH218257   2.102   6.606   0.020 -0.4604  0.4034 -0.4105
 6098TIP3    H118258   2.188   6.611   0.061 -1.0386 -0.1717  0.9376
 6098TIP3    H218259   2.063   6.693   0.033 -0.3162  0.4807 -0.4986
 6099TIP3   OH218260   6.330   0.490   3.689 -0.0537  0.8636 -0.5068
 6099TIP3    H118261   6.339   0.489   3.784  0.9008 -1.5499 -0.5435
 6099TIP3    H218262   6.242   0.456   3.673  0.0792  0.5160 -0.4982
 6100TIP3   OH218263   6.692   2.363   3.846  0.3847  0.3102  0.3206
 6100TIP3    H118264   6.674   2.287   3.902  0.4946 -0.1463 -0.2511
 6100TIP3    H218265   6.609   2.409   3.841  0.5549  0.7903  1.4823
 6101TIP3   OH218266   1.638   5.015   4.877 -0.0304  0.5168 -0.1903
 6101TIP3    H118267   1.550   5.052   4.872 -0.2120  0.1650  0.3247
 6101TIP3    H218268   1.654   5.004   4.971  0.3308  0.0418 -0.3029
 6102TIP3   OH218269   0.624   0.648   2.859 -0.2989  0.4950 -0.1487
 6102TIP3    H118270   0.695   0.631   2.797  1.3267 -2.6852  2.2572
 6102TIP3    H218271   0.667   0.692   2.933 -1.8979  2.8765 -0.5364
 6103TIP3   OH218272   1.506   0.743   4.411  0.7405  0.3474 -0.8505
 6103TIP3    H118273   1.426   0.690   4.408  1.9929 -1.6064 -1.3872
 6103TIP3    H218274   1.484   0.815   4.470 -0.4255 -1.8778  1.6822
 6104TIP3   OH218275   6.276   4.000   5.185 -0.1804 -0.4856 -0.0359
 6104TIP3    H118276   6.363   4.015   5.221  0.4627 -2.4072 -0.6805
 6104TIP3    H218277   6.220   3.985   5.261  0.0458  0.7113  0.3758
 6105TIP3   OH218278   1.670   4.552   4.267 -0.8888  0.3761  0.3753
 6105TIP3    H118279   1.647   4.597   4.185 -0.5873  1.6610  0.9749
 6105TIP3    H218280   1.765   4.538   4.260 -0.9877 -0.2358  0.1716
 6106TIP3   OH218281   3.266   1.031   2.066  0.1638 -0.4095 -0.0332
 6106TIP3    H118282   3.274   0.974   2.142 -0.9012 -0.7384 -0.1483
 6106TIP3    H218283   3.199   1.095   2.091 -3.0854 -2.7410 -1.9392
 6107TIP3   OH218284   4.446   3.081   4.355  0.0698 -0.1368 -0.2245
 6107TIP3    H118285   4.385   3.029   4.303  1.2324 -2.3185  0.4425
 6107TIP3    H218286   4.425   3.172   4.334 -2.2035 -0.8506 -1.3194
 6108TIP3   OH218287   2.498   1.207   1.735 -0.0004  0.2091  0.4037
 6108TIP3    H118288   2.519   1.293   1.700 -0.0810  0.1288  0.1529
 6108TIP3    H218289   2.577   1.155   1.720 -0.2718 -0.0155 -0.2860
 6109TIP3   OH218290   2.476   0.590   5.673  0.5299 -0.0849  0.1228
 6109TIP3    H118291   2.480   0.498   5.650  1.0022 -0.3571  1.2436
 6109TIP3    H218292   2.396   0.622   5.631 -0.1235 -1.2164  0.4787
 6110TIP3   OH218293   2.978   5.123   3.067  0.5401 -0.2364  0.3808
 6110TIP3    H118294   2.928   5.093   3.143  0.4391  1.2493  0.9309
 6110TIP3    H218295   2.930   5.199   3.034  0.6992 -0.7211 -1.0591
 6111TIP3   OH218296   1.003   5.830   1.862 -0.2846  0.0715 -0.2943
 6111TIP3    H118297   1.052   5.839   1.780 -1.3442 -0.9909 -1.0873
 6111TIP3    H218298   0.998   5.735   1.875  0.2266  0.2431  1.2341
 6112TIP3   OH218299   4.892   6.639   2.404 -0.3065 -0.6464 -0.1666
 6112TIP3    H118300   4.936   6.713   2.446  0.5378 -1.9430  1.3623
 6112TIP3    H218301   4.799   6.658   2.414 -0.1234  0.8619 -1.0677
 6113TIP3   OH218302   5.965   1.769   5.140  0.1876  0.0314  0.1830
 6113TIP3    H118303   5.891   1.822   5.112  0.0843  0.0816  0.5458
 6113TIP3    H218304   5.930   1.681   5.147  0.0272  0.1471  0.8726
 6114TIP3   OH218305   5.884   3.506   5.466  0.1828  0.3586 -0.7535
 6114TIP3    H118306   5.814   3.495   5.532  0.4970  1.6466 -0.1636
 6114TIP3    H218307   5.849   3.466   5.387 -1.0762  0.6226 -0.3558
 6115TIP3   OH218308   0.901   6.743   5.254 -0.4660 -0.0656 -0.8228
 6115TIP3    H118309   0.979   6.790   5.221 -0.6886 -0.2847 -1.6982
 6115TIP3    H218310   0.879   6.789   5.335 -0.1799  0.8271 -1.2260
 6116TIP3   OH218311   5.086   3.716   3.457 -0.8762  0.4513  0.1364
 6116TIP3    H118312   5.030   3.654   3.410 -0.3857  0.5864 -0.6417
 6116TIP3    H218313   5.140   3.756   3.389  1.0190 -0.5542  0.9756
 6117TIP3   OH218314   6.015   2.732   3.313  0.1489  0.1717  0.0588
 6117TIP3    H118315   6.080   2.802   3.310  0.6899 -0.3281  0.0218
 6117TIP3    H218316   6.022   2.696   3.401 -0.9389  0.9158  0.4668
 6118TIP3   OH218317   6.671   4.210   2.747  0.6465  0.2820 -0.6765
 6118TIP3    H118318   6.751   4.158   2.756 -0.2458 -1.1307 -0.6545
 6118TIP3    H218319   6.662   4.255   2.831  1.2149  0.1632 -0.5443
 6119TIP3   OH218320   6.044   6.530   5.630 -0.0622 -0.1641 -0.5266
 6119TIP3    H118321   5.965   6.486   5.600 -0.4128 -0.8690  1.2876
 6119TIP3    H218322   6.112   6.462   5.627 -0.0768 -0.2133  0.1182
 6120TIP3   OH218323   2.664   0.454   2.683 -0.0665  0.2190 -0.2376
 6120TIP3    H118324   2.575   0.447   2.718 -0.6118 -1.2372 -1.8011
 6120TIP3    H218325   2.719   0.463   2.761 -1.4514 -0.3054  0.8519
 6121TIP3   OH218326   2.368   1.363   2.474 -0.4313  0.3097  0.2814
 6121TIP3    H118327   2.396   1.272   2.482  2.1189  0.7984 -1.6681
 6121TIP3    H218328   2.447   1.414   2.491 -0.8310  1.9559 -2.2161
 6122TIP3   OH218329   4.330   2.558   1.683  0.1444 -0.4103 -0.5419
 6122TIP3    H118330   4.362   2.637   1.639  0.8545 -0.7316 -0.6100
 6122TIP3    H218331   4.257   2.528   1.628  0.6744 -0.5012 -1.2090
 6123TIP3   OH218332   2.667   3.486   1.082  0.1216  0.1487  0.5369
 6123TIP3    H118333   2.632   3.546   1.016  0.9181  0.7390  0.6367
 6123TIP3    H218334   2.600   3.418   1.091 -0.7467  0.9585  0.3353
 6124TIP3   OH218335   0.687   5.331   5.500  0.3988 -0.5638 -0.2017
 6124TIP3    H118336   0.636   5.398   5.454  0.8324 -0.3653 -0.4006
 6124TIP3    H218337   0.759   5.311   5.440 -0.0342 -1.6271 -0.3924
 6125TIP3   OH218338   6.589   6.381   4.967  0.2278  0.0870  0.2950
 6125TIP3    H118339   6.667   6.425   5.001 -0.0427  0.3023  0.6465
 6125TIP3    H218340   6.622   6.299   4.930  1.0258  1.4043 -2.1260
 6126TIP3   OH218341   1.208   4.034   1.673  0.0660  0.2369 -0.2808
 6126TIP3    H118342   1.157   3.980   1.733  0.8980  0.3319  0.5350
 6126TIP3    H218343   1.201   3.989   1.588 -0.5928 -0.2494  0.0233
 6127TIP3   OH218344   3.341   3.671   2.784  0.6907 -0.1903  0.5490
 6127TIP3    H118345   3.370   3.732   2.716  0.2408  0.1034  0.6176
 6127TIP3    H218346   3.419   3.657   2.838  1.4371 -1.4383 -0.7603
 6128TIP3   OH218347   2.713   4.920   4.536 -0.1951  0.4517  0.1559
 6128TIP3    H118348   2.743   4.974   4.609  1.1952 -0.6902  0.4784
 6128TIP3    H218349   2.664   4.850   4.577 -0.5103  0.5095 -0.1197
 6129TIP3   OH218350   2.160   1.083   3.000 -0.0296  0.2590  0.0544
 6129TIP3    H118351   2.142   1.169   2.963  0.8029  0.1026 -0.7478
 6129TIP3    H218352   2.079   1.034   2.988  0.2897  0.1144 -1.8852
 6130TIP3   OH218353   5.681   2.073   0.401  0.3711 -0.3325 -0.0773
 6130TIP3    H118354   5.765   2.086   0.445  0.6317 -0.0128 -0.6558
 6130TIP3    H218355   5.616   2.084   0.471  0.7122  1.5077  0.0075
 6131TIP3   OH218356   2.648   6.325   5.293  0.3499 -0.6049 -0.1907
 6131TIP3    H118357   2.627   6.399   5.237  1.3496  1.5030  2.0378
 6131TIP3    H218358   2.744   6.326   5.300  0.7559 -4.0734 -2.4602
 6132TIP3   OH218359   3.770   3.064   2.972  0.1314 -0.1057  0.2804
 6132TIP3    H118360   3.688   3.018   2.990 -0.3371  0.1231 -1.0882
 6132TIP3    H218361   3.743   3.151   2.943  0.8267 -0.0948 -0.3797
 6133TIP3   OH218362   2.180   3.193   5.195 -0.8263  0.0840  0.1538
 6133TIP3    H118363   2.222   3.262   5.247  0.8635 -0.2921 -0.6418
 6133TIP3    H218364   2.205   3.111   5.238 -0.9560 -0.1401 -0.1912
 6134TIP3   OH218365   3.383   0.337   1.946  0.1931 -0.3345 -0.5047
 6134TIP3    H118366   3.418   0.273   1.885 -0.3040  0.6285 -1.8445
 6134TIP3    H218367   3.460   0.383   1.980  0.5456 -1.5201  0.3891
 6135TIP3   OH218368   0.425   6.276   4.609  0.6025 -0.1565  0.0766
 6135TIP3    H118369   0.421   6.368   4.584 -1.0180 -0.3880 -0.6435
 6135TIP3    H218370   0.440   6.230   4.527  2.6305 -0.5015  0.5845
 6136TIP3   OH218371   3.051   0.533   2.226  0.1415 -0.3624 -0.3012
 6136TIP3    H118372   3.073   0.607   2.171  1.1639  1.5368  2.4277
 6136TIP3    H218373   2.955   0.529   2.225 -0.0689  2.2251  0.8365
 6137TIP3   OH218374   5.881   2.099   4.477  0.1164  0.5883  0.1197
 6137TIP3    H118375   5.817   2.063   4.416  2.2290 -0.9431 -1.3712
 6137TIP3    H218376   5.919   2.173   4.430 -0.1716  1.1371  0.7506
 6138TIP3   OH218377   4.465   3.054   4.710 -0.6403 -0.7471  0.0820
 6138TIP3    H118378   4.393   3.099   4.754 -0.0185  0.2986  0.0587
 6138TIP3    H218379   4.427   3.025   4.627 -0.6402  1.2547 -0.6810
 6139TIP3   OH218380   0.320   4.106   1.619 -0.4795 -0.4260 -0.2963
 6139TIP3    H118381   0.315   4.198   1.591 -3.0412 -0.5947 -0.6876
 6139TIP3    H218382   0.379   4.065   1.557  0.7508  0.9543 -0.0818
 6140TIP3   OH218383   0.426   1.189   4.278 -0.2039 -0.0321  0.1928
 6140TIP3    H118384   0.456   1.101   4.301  0.9975  0.6386  1.3243
 6140TIP3    H218385   0.503   1.244   4.289 -0.4927  0.9279 -2.1542
 6141TIP3   OH218386   1.236   2.486   1.994 -0.6322 -0.3594  0.1687
 6141TIP3    H118387   1.303   2.547   2.024 -1.1381 -0.2261  1.0825
 6141TIP3    H218388   1.245   2.484   1.899  0.1373  0.2651  0.2244
 6142TIP3   OH218389   0.102   1.254   3.157 -0.0748  1.0365 -0.2552
 6142TIP3    H118390   0.110   1.259   3.253 -0.1215  1.2883 -0.2640
 6142TIP3    H218391   0.015   1.289   3.138 -1.3655 -1.8241 -0.1535
 6143TIP3   OH218392   1.518   6.724   5.561  0.9173  0.7066  0.4585
 6143TIP3    H118393   1.428   6.703   5.535  1.2083  0.7855 -0.6970
 6143TIP3    H218394   1.572   6.660   5.515  1.5143  1.2980  0.3114
 6144TIP3   OH218395   5.768   0.055   3.170  0.0280  0.1382  0.1490
 6144TIP3    H118396   5.741   0.140   3.205 -1.1600 -1.0553  2.3423
 6144TIP3    H218397   5.847   0.074   3.119 -0.1782  2.5324  0.6118
 6145TIP3   OH218398   3.685   0.755   5.329 -0.0806  0.0645  0.2063
 6145TIP3    H118399   3.730   0.690   5.276 -0.5102  1.3134 -1.8273
 6145TIP3    H218400   3.739   0.765   5.408  0.7294 -1.6837 -0.0923
 6146TIP3   OH218401   6.558   0.831   5.196  0.6543  0.7640  0.4129
 6146TIP3    H118402   6.637   0.878   5.168  0.6983  0.8497  0.6782
 6146TIP3    H218403   6.561   0.749   5.148  0.3816  1.1916 -0.3453
 6147TIP3   OH218404   7.133   4.774   0.397 -0.1675  0.2362 -0.5645
 6147TIP3    H118405   7.172   4.817   0.321 -0.3469  0.8487 -0.3168
 6147TIP3    H218406   7.112   4.686   0.367 -2.1231  1.0668 -1.8758
 6148TIP3   OH218407   5.575   3.870   1.489  0.4837  0.5148 -0.0645
 6148TIP3    H118408   5.488   3.876   1.450  0.1706 -2.7847 -0.1266
 6148TIP3    H218409   5.562   3.824   1.572  2.0872  0.6698  0.3074
 6149TIP3   OH218410   2.599   4.211   0.425  0.1961 -0.4524  0.1384
 6149TIP3    H118411   2.671   4.152   0.448 -0.0950 -0.3872  1.2693
 6149TIP3    H218412   2.530   4.190   0.488 -0.7345 -0.4174 -0.8376
 6150TIP3   OH218413   0.495   5.591   1.657  0.2127  0.3627  0.0856
 6150TIP3    H118414   0.511   5.649   1.732  0.0163  0.7170 -0.1439
 6150TIP3    H218415   0.476   5.650   1.584 -3.8028  0.0557  0.6615
 6151TIP3   OH218416   7.065   1.033   2.824 -0.2249 -0.4093 -0.2293
 6151TIP3    H118417   7.038   0.951   2.781  0.6054 -1.1444  0.6028
 6151TIP3    H218418   7.158   1.022   2.840  0.1277  1.1486 -1.0007
 6152TIP3   OH218419   2.604   4.082   1.627  0.3895  0.7301  0.2501
 6152TIP3    H118420   2.677   4.131   1.666  0.6026  1.7924 -1.3696
 6152TIP3    H218421   2.613   4.098   1.533  0.7069 -2.7812 -0.4359
 6153TIP3   OH218422   4.904   3.645   3.921  0.0374  0.5191  0.0071
 6153TIP3    H118423   4.974   3.580   3.929  0.8367  1.2077 -1.1458
 6153TIP3    H218424   4.823   3.594   3.930  0.5705 -1.0327 -2.8626
 6154TIP3   OH218425   4.209   1.494   3.594 -0.3223 -0.6417 -0.0209
 6154TIP3    H118426   4.299   1.503   3.562 -0.5498 -0.8529 -0.7466
 6154TIP3    H218427   4.154   1.511   3.517 -0.9324  0.3671  0.6137
 6155TIP3   OH218428   3.290   2.680   4.409  0.1689  0.0355  0.2023
 6155TIP3    H118429   3.285   2.665   4.504  2.8476  1.8789  0.7609
 6155TIP3    H218430   3.217   2.740   4.391 -0.7870 -0.8671  0.9184
 6156TIP3   OH218431   3.103   6.098   3.559  0.1253  0.1541 -0.2307
 6156TIP3    H118432   3.079   6.139   3.642 -0.1319 -1.4975  0.5504
 6156TIP3    H218433   3.187   6.054   3.577 -0.0921 -0.4869 -0.7477
 6157TIP3   OH218434   5.650   4.639   1.415  0.0997  0.0359  0.5617
 6157TIP3    H118435   5.640   4.549   1.446 -0.7085 -0.5319 -1.2141
 6157TIP3    H218436   5.613   4.693   1.484  1.3089 -0.9251  2.0080
 6158TIP3   OH218437   3.788   2.361   3.393 -0.7570  0.1889 -0.1836
 6158TIP3    H118438   3.736   2.357   3.474  0.8967 -1.4354  0.8847
 6158TIP3    H218439   3.796   2.270   3.366 -0.4163  0.6269 -1.6367
 6159TIP3   OH218440   6.361   4.637   1.656 -0.2874 -0.7474 -0.3181
 6159TIP3    H118441   6.392   4.586   1.731 -0.4718  0.8867  0.9234
 6159TIP3    H218442   6.335   4.721   1.693 -1.4486 -0.2753 -2.0714
 6160TIP3   OH218443   6.894   6.765   2.917  0.4599  0.0773 -0.0350
 6160TIP3    H118444   6.864   6.695   2.858 -2.4188 -1.5557  3.0015
 6160TIP3    H218445   6.847   6.843   2.888  2.1025  0.3755 -2.1676
 6161TIP3   OH218446   5.299   3.718   2.915  0.4724 -0.2271 -0.2032
 6161TIP3    H118447   5.384   3.680   2.936 -0.2354 -1.3765  0.7538
 6161TIP3    H218448   5.276   3.770   2.992  0.1224 -0.2473 -0.2923
 6162TIP3   OH218449   5.446   1.527   0.803  0.5438  0.1830  0.1156
 6162TIP3    H118450   5.366   1.474   0.797  0.3746  0.4427  0.0610
 6162TIP3    H218451   5.447   1.557   0.894  1.7241 -1.5914  0.7503
 6163TIP3   OH218452   4.745   1.788   1.652 -0.1313 -0.4020 -0.0568
 6163TIP3    H118453   4.703   1.828   1.576 -3.3877 -2.0699  0.7169
 6163TIP3    H218454   4.719   1.843   1.726  2.4425  0.8023  0.0703
 6164TIP3   OH218455   1.067   5.102   2.848  0.7242  0.1660 -0.1874
 6164TIP3    H118456   1.029   5.186   2.824  1.7563  0.5332 -0.6148
 6164TIP3    H218457   1.101   5.066   2.766  1.4089 -0.0720  0.1871
 6165TIP3   OH218458   4.540   3.732   1.065 -0.0091 -0.0964  0.2296
 6165TIP3    H118459   4.551   3.773   1.151  0.3935 -0.0098  0.1417
 6165TIP3    H218460   4.628   3.732   1.028 -0.0608 -0.7651  0.1023
 6166TIP3   OH218461   2.603   1.613   2.190 -0.0896 -0.1913 -0.4776
 6166TIP3    H118462   2.622   1.597   2.283  0.0661 -0.2111 -0.5114
 6166TIP3    H218463   2.680   1.662   2.159 -0.0856 -0.2905 -0.6255
 6167TIP3   OH218464   6.764   6.069   4.159 -0.1645 -0.6183 -0.5587
 6167TIP3    H118465   6.707   6.030   4.226 -0.1975  0.3626  0.0030
 6167TIP3    H218466   6.849   6.075   4.201 -0.5242  1.4298 -0.0013
 6168TIP3   OH218467   6.171   3.105   1.724 -0.4965 -0.0514  0.1269
 6168TIP3    H118468   6.150   3.088   1.816 -0.2767  1.5169  0.4872
 6168TIP3    H218469   6.086   3.104   1.680 -0.7944  0.8475  0.6524
 6169TIP3   OH218470   2.089   3.216   4.100  0.0749  0.1565  0.0413
 6169TIP3    H118471   1.999   3.234   4.127 -0.0087  2.4022 -1.5484
 6169TIP3    H218472   2.112   3.286   4.039  2.1096 -1.6459 -1.4553
 6170TIP3   OH218473   1.645   4.624   1.270  0.0739 -0.2888  0.4922
 6170TIP3    H118474   1.652   4.613   1.175  0.7722 -0.1466  0.5200
 6170TIP3    H218475   1.583   4.697   1.281  1.5770  1.1186  0.0624
 6171TIP3   OH218476   4.169   0.128   0.259  0.0013 -0.1336  0.5156
 6171TIP3    H118477   4.250   0.103   0.215  1.2421  0.0216  2.5700
 6171TIP3    H218478   4.184   0.218   0.287 -1.8033  0.7049 -0.9750
 6172TIP3   OH218479   3.616   0.571   5.128  0.7658 -0.6441 -0.4650
 6172TIP3    H118480   3.545   0.508   5.143  0.8181 -0.6423 -0.2039
 6172TIP3    H218481   3.573   0.656   5.134  0.4863 -0.6574 -1.8703
 6173TIP3   OH218482   5.311   0.051   4.017  0.2164 -0.1547  0.1109
 6173TIP3    H118483   5.271   0.138   4.007  0.5146 -0.1369 -1.2220
 6173TIP3    H218484   5.240  -0.010   3.999  0.3940 -0.1458 -0.6675
 6174TIP3   OH218485   3.350   5.603   0.274 -0.0850 -0.3832  0.5489
 6174TIP3    H118486   3.326   5.535   0.337 -2.8742  1.0885  1.2290
 6174TIP3    H218487   3.268   5.624   0.229  1.3424  0.3465 -1.8954
 6175TIP3   OH218488   0.311   4.856   3.617  0.5631  0.1407  0.7276
 6175TIP3    H118489   0.335   4.934   3.668  1.2867 -0.2515  1.0022
 6175TIP3    H218490   0.372   4.858   3.543  0.0008  0.3103  0.2693
 6176TIP3   OH218491   5.159   2.576   3.033 -0.1072  0.0833 -0.3080
 6176TIP3    H118492   5.208   2.535   3.105 -0.9791  2.1695  1.5904
 6176TIP3    H218493   5.226   2.596   2.967  1.0593 -0.0961  0.7856
 6177TIP3   OH218494   4.730   0.612   5.112 -0.4325 -0.0227  0.1584
 6177TIP3    H118495   4.649   0.661   5.100  0.0341  0.2788 -2.3612
 6177TIP3    H218496   4.768   0.607   5.024  2.2971 -0.1355  1.2436
 6178TIP3   OH218497   5.836   2.914   5.205  0.2906 -0.2262 -0.0306
 6178TIP3    H118498   5.746   2.947   5.211 -0.5414 -2.1159 -1.1560
 6178TIP3    H218499   5.842   2.847   5.273 -0.1377 -2.0913 -1.7342
 6179TIP3   OH218500   5.900   4.352   4.612 -0.1737 -0.6229  0.8344
 6179TIP3    H118501   5.963   4.323   4.546  1.8760  0.3884  2.2308
 6179TIP3    H218502   5.936   4.320   4.695 -0.5087  1.5311  1.8803
 6180TIP3   OH218503   6.852   5.458   1.047  0.2172  0.8107 -0.1529
 6180TIP3    H118504   6.764   5.443   1.081 -0.8656  3.0370 -1.8035
 6180TIP3    H218505   6.910   5.434   1.120 -1.7498  0.1870  1.2840
 6181TIP3   OH218506   4.950   3.105   5.129 -0.6955  0.0447  0.0290
 6181TIP3    H118507   4.933   3.011   5.143  1.2576 -0.7458 -2.2012
 6181TIP3    H218508   4.941   3.117   5.035  1.2191  1.5976 -0.0236
 6182TIP3   OH218509   4.650   3.232   2.496 -0.7323 -0.4150  0.1079
 6182TIP3    H118510   4.661   3.317   2.453 -1.0421 -0.3051  0.2384
 6182TIP3    H218511   4.633   3.171   2.424  2.5306 -0.9649 -0.3146
 6183TIP3   OH218512   6.562   2.070   3.046  0.1450 -0.3850  0.6528
 6183TIP3    H118513   6.591   1.984   3.078  0.9892  0.3204  1.8421
 6183TIP3    H218514   6.624   2.092   2.976 -1.2841 -1.6122 -1.1029
 6184TIP3   OH218515   1.840   2.921   3.094  0.1349 -0.2509 -0.1063
 6184TIP3    H118516   1.809   2.883   3.176 -0.3362 -1.6255 -0.8778
 6184TIP3    H218517   1.904   2.987   3.120  0.5307 -1.1609  1.3520
 6185TIP3   OH218518   3.241   4.864   3.546 -0.0447  0.0166 -0.0252
 6185TIP3    H118519   3.262   4.863   3.453 -0.5858 -2.4976 -0.1862
 6185TIP3    H218520   3.317   4.825   3.589  0.1797  1.1108  0.6220
 6186TIP3   OH218521   1.260   3.045   0.175  0.0923 -0.3001 -0.4269
 6186TIP3    H118522   1.175   3.011   0.200 -0.0612 -0.8714 -1.6650
 6186TIP3    H218523   1.310   2.968   0.147  0.9362  0.0579  0.0391
 6187TIP3   OH218524   3.067   5.487   5.609 -0.1187 -0.0064 -0.2617
 6187TIP3    H118525   3.114   5.404   5.599  0.0509 -0.0161  0.5585
 6187TIP3    H218526   2.996   5.467   5.670 -0.8379  0.1622 -1.0122
 6188TIP3   OH218527   3.388   0.202   2.203 -0.4767  0.0135  0.0871
 6188TIP3    H118528   3.440   0.250   2.267 -0.0926 -0.2579 -0.0159
 6188TIP3    H218529   3.415   0.237   2.118  1.9372 -2.2942 -0.2260
 6189TIP3   OH218530   2.356   2.512   4.089 -0.1597  0.9744 -0.1351
 6189TIP3    H118531   2.278   2.478   4.132 -0.9537  2.0505 -0.6778
 6189TIP3    H218532   2.401   2.435   4.056 -1.2232  0.3679 -0.2100
 6190TIP3   OH218533   1.132   0.976   1.756  0.0297  0.4832  0.2066
 6190TIP3    H118534   1.062   1.003   1.696  0.5871  1.3593 -0.0671
 6190TIP3    H218535   1.119   0.882   1.766 -1.4028  0.6867  0.4447
 6191TIP3   OH218536   6.099   2.186   4.772  0.5663 -0.0785 -0.4447
 6191TIP3    H118537   6.113   2.273   4.810 -1.5476  0.9313 -1.7913
 6191TIP3    H218538   6.029   2.149   4.826  0.5794 -0.4264 -0.6693
 6192TIP3   OH218539   7.074   3.812   4.288  0.3802 -0.4125 -0.2559
 6192TIP3    H118540   7.088   3.792   4.195 -0.4193  0.0366 -0.4826
 6192TIP3    H218541   7.014   3.886   4.287  1.9609  0.9318  0.5931
 6193TIP3   OH218542   0.841   3.596   4.927 -0.2066  0.1065 -0.0936
 6193TIP3    H118543   0.800   3.680   4.946  0.0241  0.6266 -1.7168
 6193TIP3    H218544   0.901   3.615   4.854  0.9180 -1.1741  0.4511
 6194TIP3   OH218545   1.956   3.466   4.510 -0.0712 -0.6627 -0.3075
 6194TIP3    H118546   1.983   3.470   4.419  0.9979  0.0880  0.0350
 6194TIP3    H218547   2.027   3.419   4.554 -0.0225  0.0175  0.3452
 6195TIP3   OH218548   4.521   2.645   2.354 -0.3689  0.0853  0.5240
 6195TIP3    H118549   4.458   2.716   2.340  1.2467  1.5780  0.5055
 6195TIP3    H218550   4.535   2.607   2.267 -1.4473 -0.4742  0.5784
 6196TIP3   OH218551   6.622   4.000   1.968 -0.1973  0.6453 -0.1884
 6196TIP3    H118552   6.614   4.026   1.877 -0.7368 -2.7739 -1.2843
 6196TIP3    H218553   6.533   4.002   2.002 -0.2893 -0.0021 -0.3788
 6197TIP3   OH218554   0.656   4.467   4.113 -0.2077  0.2881  0.1178
 6197TIP3    H118555   0.683   4.547   4.157  0.2289  0.3519 -0.2687
 6197TIP3    H218556   0.717   4.400   4.145 -0.7625  0.0390  0.6787
 6198TIP3   OH218557   0.200   5.869   1.953 -0.0144 -0.2596 -0.1687
 6198TIP3    H118558   0.250   5.840   2.029 -0.2427 -1.5448 -0.4936
 6198TIP3    H218559   0.198   5.965   1.960  1.0594 -0.2984  0.7359
 6199TIP3   OH218560   3.918   3.486   5.197  0.5865 -0.0711 -0.1773
 6199TIP3    H118561   3.972   3.552   5.241 -1.3899  3.3071 -2.3508
 6199TIP3    H218562   3.850   3.464   5.261  0.5066  1.0826  0.1559
 6200TIP3   OH218563   6.727   1.608   3.444 -0.5265  0.0592 -0.1059
 6200TIP3    H118564   6.650   1.590   3.391 -0.8836 -0.2481  0.4938
 6200TIP3    H218565   6.704   1.574   3.531  0.6053 -0.8296 -0.1257
 6201TIP3   OH218566   4.027   3.067   4.007  0.2544  0.5866  0.3598
 6201TIP3    H118567   4.071   3.014   3.941  1.0122 -1.6994  2.5238
 6201TIP3    H218568   4.095   3.125   4.041  0.3581  0.4243  0.4299
 6202TIP3   OH218569   2.053   4.655   3.393  0.5308 -0.4528 -0.3247
 6202TIP3    H118570   2.050   4.751   3.393  1.9729 -0.3621 -1.3562
 6202TIP3    H218571   2.086   4.632   3.479 -0.2671 -0.0594  0.0959
 6203TIP3   OH218572   5.469   2.640   0.221 -0.2145 -0.1543 -0.0710
 6203TIP3    H118573   5.460   2.687   0.304  0.4950  0.2083 -0.1838
 6203TIP3    H218574   5.441   2.703   0.155 -0.9575 -0.5068 -0.0945
 6204TIP3   OH218575   6.333   0.508   0.463  0.6389  0.1547 -0.6741
 6204TIP3    H118576   6.256   0.561   0.481  1.2819  0.3320  1.9973
 6204TIP3    H218577   6.339   0.506   0.368 -0.8766  2.6870 -0.9163
 6205TIP3   OH218578   5.143   5.451   0.539 -0.1512 -0.3220  0.4633
 6205TIP3    H118579   5.136   5.369   0.488  0.2346  0.5669 -1.0891
 6205TIP3    H218580   5.226   5.490   0.510 -2.3282  2.8022 -2.2967
 6206TIP3   OH218581   0.647   0.697   4.547  0.2353 -0.1011 -0.4391
 6206TIP3    H118582   0.605   0.618   4.581  0.1469  0.0223 -0.2634
 6206TIP3    H218583   0.644   0.760   4.619  1.0713 -0.2157 -0.2942
 6207TIP3   OH218584   5.128   2.080   2.545 -0.2795 -0.1694  0.1234
 6207TIP3    H118585   5.096   2.170   2.537  0.0732 -0.0643 -0.1320
 6207TIP3    H218586   5.195   2.084   2.613  1.0427  0.1357 -1.1374
 6208TIP3   OH218587   6.055   2.004   0.987 -0.2118 -0.2336  0.6698
 6208TIP3    H118588   5.976   2.047   1.021 -0.2151 -0.0636  0.4563
 6208TIP3    H218589   6.023   1.948   0.916  0.0207  1.0807 -0.5430
 6209TIP3   OH218590   1.836   2.637   0.750 -0.2128  0.0875 -0.0776
 6209TIP3    H118591   1.912   2.579   0.745 -0.3458 -0.0073 -1.5216
 6209TIP3    H218592   1.872   2.725   0.741 -0.3210 -0.0094 -1.8816
 6210TIP3   OH218593   1.950   3.124   5.378  0.5283  0.2851  0.3995
 6210TIP3    H118594   1.980   3.103   5.466 -0.2343 -0.2828  0.5368
 6210TIP3    H218595   2.016   3.088   5.320  1.1539  0.8646  0.7384
 6211TIP3   OH218596   1.676   0.506   3.717 -0.3831  0.1492 -0.2218
 6211TIP3    H118597   1.630   0.538   3.794  0.0180 -0.4037  0.2587
 6211TIP3    H218598   1.702   0.416   3.740  2.6785  1.0485  0.3523
 6212TIP3   OH218599   3.937   6.646   5.484  0.2792  0.3589 -0.4633
 6212TIP3    H118600   3.924   6.706   5.411  0.6921 -0.7364 -1.4685
 6212TIP3    H218601   3.956   6.702   5.559  2.8020  1.4435 -1.8297
 6213TIP3   OH218602   1.039   1.966   0.344 -0.3344  0.0454  0.4968
 6213TIP3    H118603   1.032   2.062   0.346 -0.6036  0.0222  0.6593
 6213TIP3    H218604   0.951   1.935   0.366 -0.1449 -0.2391  0.8540
 6214TIP3   OH218605   6.431   1.754   2.508 -0.3218  0.0239  0.7662
 6214TIP3    H118606   6.438   1.814   2.434 -0.0492  0.2920  1.0034
 6214TIP3    H218607   6.510   1.701   2.504 -0.9324 -0.8620  0.1004
 6215TIP3   OH218608   3.257   3.474   0.642  0.2538 -0.1727  0.1451
 6215TIP3    H118609   3.279   3.530   0.568  1.3990 -1.3167 -0.4114
 6215TIP3    H218610   3.162   3.461   0.635  0.1533  0.7803 -0.3568
 6216TIP3   OH218611   2.784   4.011   0.529  0.1813  0.5102  0.0415
 6216TIP3    H118612   2.845   4.058   0.586 -0.6135  0.0893  1.3120
 6216TIP3    H218613   2.728   3.962   0.590 -0.0204 -0.8425 -1.1571
 6217TIP3   OH218614   6.556   5.322   3.575 -0.0093  0.3346  0.1489
 6217TIP3    H118615   6.494   5.391   3.599  0.1191  0.6888 -0.5140
 6217TIP3    H218616   6.628   5.332   3.637 -0.5399  0.0102  0.8364
 6218TIP3   OH218617   6.027   5.992   3.311  0.2815  0.0214 -0.4312
 6218TIP3    H118618   5.986   5.985   3.398  0.2496  0.3455 -0.4209
 6218TIP3    H218619   6.117   6.017   3.330  0.3452 -0.1688 -0.4807
 6219TIP3   OH218620   6.577   2.818   1.480 -0.1749  0.1564  0.1151
 6219TIP3    H118621   6.627   2.738   1.460  1.2767  0.8871  0.6719
 6219TIP3    H218622   6.634   2.889   1.452 -1.6919  1.0298 -0.9241
 6220TIP3   OH218623   7.147   1.863   0.431  0.4927 -1.0618  0.6353
 6220TIP3    H118624   7.134   1.833   0.341 -2.4480  0.7877  0.2924
 6220TIP3    H218625   7.127   1.787   0.485 -0.3477 -1.4885 -0.2515
 6221TIP3   OH218626   0.992   1.691   3.489  0.0133  0.1297 -0.3410
 6221TIP3    H118627   0.961   1.679   3.579 -3.3592  0.4909 -1.3165
 6221TIP3    H218628   1.004   1.785   3.480 -0.4200  0.1664 -0.5107
 6222TIP3   OH218629   2.495   3.657   1.612 -0.1118  0.0611  0.0530
 6222TIP3    H118630   2.509   3.582   1.669 -1.3591 -1.5423 -1.6383
 6222TIP3    H218631   2.480   3.731   1.672  0.6561 -1.1026  1.7524
 6223TIP3   OH218632   5.428   0.626   2.736  0.9938  0.2114  0.6064
 6223TIP3    H118633   5.354   0.638   2.795  0.2666 -0.6062 -0.1147
 6223TIP3    H218634   5.409   0.544   2.689  1.9139  0.4528 -0.2268
 6224TIP3   OH218635   6.004   5.732   3.183 -0.2572 -0.2623 -0.3895
 6224TIP3    H118636   6.047   5.814   3.208 -1.4625  0.7032 -1.4163
 6224TIP3    H218637   6.062   5.694   3.117 -0.7319  0.8199 -1.4537
 6225TIP3   OH218638   3.647   1.794   1.480  0.2907 -0.0710  0.1390
 6225TIP3    H118639   3.626   1.798   1.387 -0.4900 -0.8503  0.2736
 6225TIP3    H218640   3.565   1.768   1.522  0.8101 -0.3948  0.9749
 6226TIP3   OH218641   5.466   0.152   3.775 -0.6628  0.4882 -0.9623
 6226TIP3    H118642   5.411   0.082   3.810 -0.5008  1.0066  0.3614
 6226TIP3    H218643   5.539   0.106   3.732 -0.5552 -0.1552 -0.1103
 6227TIP3   OH218644   4.470   2.146   2.102  0.2589  1.1527 -0.1366
 6227TIP3    H118645   4.556   2.183   2.083  0.6999  0.8750  1.2275
 6227TIP3    H218646   4.465   2.143   2.197 -0.9748  0.4933 -0.1955
 6228TIP3   OH218647   4.381   1.104   1.737  0.0337  0.2952 -0.1861
 6228TIP3    H118648   4.401   1.103   1.643  0.7053  0.0915 -0.0453
 6228TIP3    H218649   4.437   1.036   1.774  0.5534  1.0875  0.5121
 6229TIP3   OH218650   0.979   0.840   1.159 -0.5506  0.2928  0.3832
 6229TIP3    H118651   1.041   0.767   1.157 -0.7824  0.1174 -0.8510
 6229TIP3    H218652   0.893   0.798   1.161 -0.6635  0.5396  1.0617
 6230TIP3   OH218653   6.246   5.421   2.766  0.1798 -0.3303  1.0125
 6230TIP3    H118654   6.190   5.345   2.782  0.2071 -0.9896 -1.5040
 6230TIP3    H218655   6.333   5.393   2.792  0.3846 -1.6261 -0.8568
 6231TIP3   OH218656   4.818   0.997   0.235 -0.4816  0.2381  0.6054
 6231TIP3    H118657   4.874   1.043   0.298  0.6933 -0.0532 -0.1824
 6231TIP3    H218658   4.878   0.973   0.164 -1.5101 -0.6139  0.0065
 6232TIP3   OH218659   4.112   6.685   2.920  0.5217  0.4390 -0.5561
 6232TIP3    H118660   4.050   6.614   2.903 -0.2730  0.8384  0.5480
 6232TIP3    H218661   4.060   6.765   2.911  1.8042  1.0670 -3.6455
 6233TIP3   OH218662   5.170   4.302   1.651  0.7818 -0.0051 -0.5408
 6233TIP3    H118663   5.152   4.390   1.683  1.1619 -0.3107  0.5439
 6233TIP3    H218664   5.094   4.280   1.597 -0.2960  0.1977  0.8412
 6234TIP3   OH218665   4.408   4.118   3.302 -0.2743  0.4699  0.1892
 6234TIP3    H118666   4.341   4.186   3.306 -0.8843  0.1171 -2.2495
 6234TIP3    H218667   4.428   4.110   3.209  0.3251 -2.1293  0.4645
 6235TIP3   OH218668   3.244   1.226   4.555  0.2929  0.3906 -0.1332
 6235TIP3    H118669   3.285   1.149   4.593 -0.2116  0.8205  1.3243
 6235TIP3    H218670   3.305   1.255   4.487  0.0275 -1.8512 -1.4223
 6236TIP3   OH218671   2.172   3.132   0.113 -0.0949  0.2400  0.3337
 6236TIP3    H118672   2.145   3.065   0.050 -2.4763  1.7139 -0.3392
 6236TIP3    H218673   2.149   3.094   0.198 -1.1278  0.0233 -0.0228
 6237TIP3   OH218674   4.202   2.527   3.129  0.3926 -0.1713  0.0540
 6237TIP3    H118675   4.109   2.544   3.146  0.5033  0.3959  0.1399
 6237TIP3    H218676   4.202   2.455   3.066 -0.1285  0.1989 -0.3865
 6238TIP3   OH218677   6.300   3.461   1.322 -0.5064  0.3120 -0.6998
 6238TIP3    H118678   6.259   3.451   1.236 -1.3431 -0.7283 -0.2067
 6238TIP3    H218679   6.231   3.496   1.378  0.1995  1.5420 -0.5725
 6239TIP3   OH218680   0.945   3.302   3.953 -0.0592  0.2041 -0.4377
 6239TIP3    H118681   0.951   3.393   3.982  0.6047  0.0537 -0.0879
 6239TIP3    H218682   0.879   3.264   4.011  0.0739  0.3189 -0.2096
 6240TIP3   OH218683   0.350   5.979   0.567 -0.2909  0.0403 -0.3383
 6240TIP3    H118684   0.264   5.939   0.566  0.2146 -1.0710 -0.8014
 6240TIP3    H218685   0.408   5.910   0.599  0.5687  0.4858 -0.9045
 6241TIP3   OH218686   2.727   2.873   2.044  0.8604 -0.0879  0.0396
 6241TIP3    H118687   2.646   2.849   2.089 -0.3453  0.5588 -1.6493
 6241TIP3    H218688   2.795   2.869   2.111 -0.9652  1.8016  2.1613
 6242TIP3   OH218689   0.686   2.002   2.838 -0.0144  0.6287 -0.0291
 6242TIP3    H118690   0.675   2.063   2.764 -2.1172  0.0427 -0.2651
 6242TIP3    H218691   0.684   1.915   2.798  1.4114  0.3362  0.4775
 6243TIP3   OH218692   1.719   5.846   0.934  0.2850 -0.3070 -0.2096
 6243TIP3    H118693   1.774   5.774   0.905  1.6634  0.6835 -0.1328
 6243TIP3    H218694   1.738   5.855   1.028 -0.0636  0.0050 -0.1619
 6244TIP3   OH218695   0.204   3.648   0.443  0.3231 -0.4409 -0.4067
 6244TIP3    H118696   0.200   3.610   0.531 -1.2479 -0.4279 -0.4442
 6244TIP3    H218697   0.269   3.718   0.450 -1.2872  0.9941  1.3608
 6245TIP3   OH218698   0.917   5.813   2.651  0.1659  0.2304 -0.1619
 6245TIP3    H118699   0.982   5.820   2.581  1.1265 -0.8752  0.5883
 6245TIP3    H218700   0.928   5.892   2.703  0.4316  0.3783 -0.4449
 6246TIP3   OH218701   5.887   1.400   4.412  0.0416  0.0367  0.0182
 6246TIP3    H118702   5.800   1.405   4.373  0.1501 -1.0845 -0.3941
 6246TIP3    H218703   5.893   1.310   4.445  1.9445 -0.7042 -2.1284
 6247TIP3   OH218704   1.968   3.102   5.020  0.0916  0.5621 -0.2572
 6247TIP3    H118705   2.017   3.101   4.937 -0.0200  0.9648 -0.3300
 6247TIP3    H218706   1.981   3.191   5.054 -1.3569  0.9872 -0.7431
 6248TIP3   OH218707   7.218   3.541   4.636 -0.0220  0.2117 -0.0446
 6248TIP3    H118708   7.232   3.564   4.728 -0.4310 -0.5604  0.2223
 6248TIP3    H218709   7.123   3.542   4.626 -0.0632 -1.2960 -0.0236
 6249TIP3   OH218710   5.673   5.017   0.397  0.2747  0.2226  0.5554
 6249TIP3    H118711   5.681   5.088   0.333 -1.9690 -0.3646 -0.4875
 6249TIP3    H218712   5.760   4.977   0.400  0.3814 -0.0522 -2.5768
 6250TIP3   OH218713   3.870   2.628   0.518 -0.5998  0.3961 -0.7341
 6250TIP3    H118714   3.840   2.708   0.562  0.0183  0.7625 -0.9577
 6250TIP3    H218715   3.952   2.654   0.476  1.3895 -1.1675  1.8810
 6251TIP3   OH218716   1.325   5.084   1.552 -0.6029 -0.3662  0.1663
 6251TIP3    H118717   1.280   5.000   1.561 -0.1224 -0.7354 -0.8414
 6251TIP3    H218718   1.417   5.062   1.543 -0.7117  0.0185 -3.1427
 6252TIP3   OH218719   2.374   4.508   2.544 -0.1308  0.3894  0.2845
 6252TIP3    H118720   2.350   4.585   2.596  0.8545  1.8299 -1.2692
 6252TIP3    H218721   2.440   4.541   2.482  1.1444 -1.9660  0.2767
 6253TIP3   OH218722   3.694   1.983   0.192 -0.6825  0.0861 -0.0050
 6253TIP3    H118723   3.721   1.892   0.187 -0.8118  0.0648 -0.3423
 6253TIP3    H218724   3.601   1.979   0.215 -0.6695  0.1328  0.0549
 6254TIP3   OH218725   6.799   3.894   2.152 -0.7288 -0.3750  0.1598
 6254TIP3    H118726   6.861   3.965   2.142 -0.3218 -0.6419  0.7177
 6254TIP3    H218727   6.741   3.901   2.076  1.4398 -1.5877 -1.7184
 6255TIP3   OH218728   1.073   2.381   3.104  0.5666 -0.2696 -0.2890
 6255TIP3    H118729   1.018   2.399   3.028 -1.2912 -1.4851  0.6920
 6255TIP3    H218730   1.036   2.435   3.174  2.3707  0.9845 -0.2449
 6256TIP3   OH218731   1.726   5.904   1.691  0.3955  0.1850 -0.3675
 6256TIP3    H118732   1.642   5.876   1.653  0.9319 -0.3254 -1.2129
 6256TIP3    H218733   1.714   5.997   1.710 -0.8819 -0.2207  0.9805
 6257TIP3   OH218734   5.173   6.705   0.977  0.2138  0.0241  0.4748
 6257TIP3    H118735   5.098   6.710   1.036  0.1328  0.0631  0.3714
 6257TIP3    H218736   5.247   6.738   1.028 -0.0529  1.0218  0.2366
 6258TIP3   OH218737   0.878   1.231   5.875 -0.0365  0.9002 -0.1667
 6258TIP3    H118738   0.951   1.201   5.821  0.4334  1.6273  0.0564
 6258TIP3    H218739   0.896   1.324   5.891 -1.0887  1.1276 -0.2403
 6259TIP3   OH218740   3.932   6.062   4.454 -0.3386 -0.3476  0.8268
 6259TIP3    H118741   3.966   6.145   4.422 -1.8772  0.0026  0.0193
 6259TIP3    H218742   3.943   6.066   4.549 -1.2345  1.1873  0.9005
 6260TIP3   OH218743   1.007   5.630   4.333 -0.3682 -0.0256  0.6136
 6260TIP3    H118744   1.028   5.545   4.372 -1.1551 -0.5544 -0.0883
 6260TIP3    H218745   0.977   5.609   4.245  3.0042  1.2371 -1.0048
 6261TIP3   OH218746   1.738   4.299   0.329  0.2237 -0.3962 -0.4479
 6261TIP3    H118747   1.673   4.229   0.333  0.4226 -0.5623  0.0086
 6261TIP3    H218748   1.794   4.284   0.406 -0.0340  0.5684 -0.0634
 6262TIP3   OH218749   1.288   0.759   0.695  0.2402 -0.0156  0.3562
 6262TIP3    H118750   1.231   0.830   0.665  1.3224  0.7852  0.0977
 6262TIP3    H218751   1.229   0.693   0.731 -1.0374 -0.3552 -2.1634
 6263TIP3   OH218752   3.298   6.342   4.787  0.0257  0.0471 -0.2691
 6263TIP3    H118753   3.240   6.415   4.763 -0.0698  1.4594  3.5120
 6263TIP3    H218754   3.380   6.361   4.743 -0.4509  1.6525 -0.5305
 6264TIP3   OH218755   6.690   4.662   3.108  0.0668 -0.0728  0.0175
 6264TIP3    H118756   6.676   4.702   3.195  0.4566  1.2738 -0.5106
 6264TIP3    H218757   6.616   4.694   3.056  1.1532  1.2044 -0.8143
 6265TIP3   OH218758   3.272   2.619   4.021  0.0547  0.3056 -0.1360
 6265TIP3    H118759   3.241   2.628   3.931 -2.4709  0.3101  0.6411
 6265TIP3    H218760   3.253   2.527   4.043  0.2134  0.4264  0.5212
 6266TIP3   OH218761   2.218   3.443   5.814  0.7743  0.1475 -0.3035
 6266TIP3    H118762   2.206   3.471   5.723 -0.4163  1.4288  0.2059
 6266TIP3    H218763   2.135   3.403   5.838  1.7017 -1.9196 -0.2990
 6267TIP3   OH218764   6.006   6.064   0.880  0.0533  0.2022 -0.2716
 6267TIP3    H118765   6.102   6.060   0.877  0.2614  3.2425 -0.8945
 6267TIP3    H218766   5.977   5.989   0.827  2.0711 -0.6330 -0.2680
 6268TIP3   OH218767   1.290   5.708   0.675 -0.0859 -0.2329 -0.2702
 6268TIP3    H118768   1.321   5.660   0.598  0.8166  0.8311 -0.5860
 6268TIP3    H218769   1.368   5.718   0.729 -0.6983 -0.9024  0.7696
 6269TIP3   OH218770   3.323   1.314   5.410 -0.0857 -0.2589  0.3022
 6269TIP3    H118771   3.290   1.281   5.494 -1.0722  0.4544  0.2057
 6269TIP3    H218772   3.327   1.236   5.355 -0.5330 -0.5499  0.6676
 6270TIP3   OH218773   2.362   3.555   2.692 -0.1742 -0.1636  0.3431
 6270TIP3    H118774   2.322   3.555   2.605  1.0036 -0.0414 -0.2283
 6270TIP3    H218775   2.289   3.545   2.752 -0.8737 -2.0272 -0.7240
 6271TIP3   OH218776   5.339   5.606   1.624  0.3143  0.0718  0.3317
 6271TIP3    H118777   5.379   5.677   1.573  0.6825 -0.4069 -0.0522
 6271TIP3    H218778   5.412   5.549   1.647  0.0995  0.1189  1.1377
 6272TIP3   OH218779   2.177   6.796   1.680  0.3848 -0.6724 -0.2892
 6272TIP3    H118780   2.241   6.764   1.744 -0.8883 -1.4509  0.6460
 6272TIP3    H218781   2.106   6.732   1.684 -0.0598 -0.3149 -1.9635
 6273TIP3   OH218782   1.816   3.067   2.374 -0.1024  0.0588 -0.4516
 6273TIP3    H118783   1.838   3.122   2.298 -0.9334 -0.4667 -1.0933
 6273TIP3    H218784   1.900   3.041   2.411  0.3199 -0.0052 -1.4396
 6274TIP3   OH218785   2.834   3.318   3.715  0.7388 -0.0471 -0.6297
 6274TIP3    H118786   2.907   3.263   3.687  0.1234 -2.5785  2.2002
 6274TIP3    H218787   2.875   3.393   3.759  1.6560 -0.7092 -0.3315
 6275TIP3   OH218788   6.667   2.129   2.542  0.7120 -0.3506 -0.5836
 6275TIP3    H118789   6.674   2.036   2.561  1.4746 -0.1488  0.1615
 6275TIP3    H218790   6.743   2.148   2.486 -0.0848 -0.4083 -1.7065
 6276TIP3   OH218791   4.838   1.298   3.557 -0.9564 -0.2404  0.0881
 6276TIP3    H118792   4.831   1.212   3.515  0.4420 -1.7979  2.8002
 6276TIP3    H218793   4.753   1.312   3.598 -1.9382  0.7679 -2.1271
 6277TIP3   OH218794   0.414   3.268   4.781 -0.1725 -0.4702 -0.2675
 6277TIP3    H118795   0.332   3.309   4.810 -0.3411 -0.6305 -0.5212
 6277TIP3    H218796   0.396   3.237   4.693 -0.1039 -1.2536 -0.0120
 6278TIP3   OH218797   5.274   1.683   1.538 -0.5765  0.0089  0.4733
 6278TIP3    H118798   5.191   1.728   1.531 -0.8196 -0.2349  1.5640
 6278TIP3    H218799   5.302   1.698   1.628  0.9282  0.7066 -0.0849
 6279TIP3   OH218800   2.483   2.755   1.537  0.2419 -0.3742  0.1467
 6279TIP3    H118801   2.405   2.802   1.507  1.5004  0.4932 -2.0452
 6279TIP3    H218802   2.514   2.805   1.612 -0.0095  0.6845 -0.4286
 6280TIP3   OH218803   2.128   2.472   3.071  0.5895 -0.3796  0.3884
 6280TIP3    H118804   2.157   2.509   2.987 -0.1635  1.4469  0.8996
 6280TIP3    H218805   2.033   2.474   3.067  0.4569  2.5291  2.3869
 6281TIP3   OH218806   4.673   3.903   3.331  0.5003 -0.2848  0.2036
 6281TIP3    H118807   4.693   3.885   3.240 -0.2925 -0.2662  0.0154
 6281TIP3    H218808   4.630   3.823   3.362  1.5801 -0.6363  0.8191
 6282TIP3   OH218809   3.892   5.788   1.774 -0.1750  0.0557  0.3910
 6282TIP3    H118810   3.816   5.838   1.744 -1.4422 -2.5550 -1.1788
 6282TIP3    H218811   3.918   5.736   1.698  0.7792 -1.9016  1.9540
 6283TIP3   OH218812   4.641   0.293   1.722 -0.2143 -0.1548 -0.3954
 6283TIP3    H118813   4.614   0.208   1.689  0.7025 -0.9942  0.9039
 6283TIP3    H218814   4.696   0.330   1.653  0.0473 -0.9849 -0.6342
 6284TIP3   OH218815   4.742   2.961   1.472  0.0022  0.2958  0.2527
 6284TIP3    H118816   4.752   3.024   1.544  1.1002 -0.1420  0.4929
 6284TIP3    H218817   4.804   2.891   1.492  0.0767  0.0016 -0.9457
 6285TIP3   OH218818   2.460   2.893   2.457  0.5640  0.1537 -0.2189
 6285TIP3    H118819   2.475   2.799   2.463  0.2152  0.1054 -0.0617
 6285TIP3    H218820   2.493   2.927   2.540 -2.5904 -0.2897  1.3808
 6286TIP3   OH218821   4.118   1.045   5.057  0.2633 -0.4257 -0.2236
 6286TIP3    H118822   4.061   1.042   4.980  0.6888 -1.5795 -0.5123
 6286TIP3    H218823   4.207   1.048   5.020  0.4523  2.2012  0.1904
 6287TIP3   OH218824   5.681   4.699   1.154  0.4555 -0.0893 -0.4215
 6287TIP3    H118825   5.595   4.719   1.116  0.6337 -0.5809 -1.1098
 6287TIP3    H218826   5.663   4.671   1.243 -0.0764  0.0301 -0.4897
 6288TIP3   OH218827   0.801   5.608   5.423  0.3641  0.3881  0.0461
 6288TIP3    H118828   0.717   5.573   5.394  1.2853 -1.5318 -0.4718
 6288TIP3    H218829   0.858   5.602   5.347  0.9872  1.6827  0.3810
 6289TIP3   OH218830   0.274   6.754   4.855 -0.0131  0.3392  0.2167
 6289TIP3    H118831   0.258   6.660   4.854 -0.4923  0.4133  0.6577
 6289TIP3    H218832   0.325   6.768   4.935  0.0366  0.4586  0.1641
 6290TIP3   OH218833   5.737   6.404   1.336  0.0185 -0.4031 -0.3460
 6290TIP3    H118834   5.699   6.331   1.289  0.5788 -0.0256 -1.4127
 6290TIP3    H218835   5.781   6.456   1.269  1.0618  0.0090  0.6239
 6291TIP3   OH218836   2.462   5.230   4.046 -0.2068 -0.2511  0.1162
 6291TIP3    H118837   2.462   5.186   4.131  0.4899 -0.0247  0.2401
 6291TIP3    H218838   2.392   5.295   4.053 -0.3803 -0.4645  0.3936
 6292TIP3   OH218839   0.216   4.483   2.409  0.1381 -0.4110 -0.1350
 6292TIP3    H118840   0.219   4.407   2.350  1.3920 -1.7375  1.5610
 6292TIP3    H218841   0.267   4.457   2.485  1.8301  2.6616 -0.0677
 6293TIP3   OH218842   5.010   0.247   4.796 -0.3273 -0.0343 -0.4807
 6293TIP3    H118843   4.959   0.167   4.808 -0.9036  0.5767  1.5507
 6293TIP3    H218844   5.095   0.227   4.837  0.7137 -0.6452 -2.8018
 6294TIP3   OH218845   5.447   4.872   3.011  0.3514  0.5372  0.2786
 6294TIP3    H118846   5.462   4.914   2.927 -1.7873  0.3849 -0.2321
 6294TIP3    H218847   5.400   4.791   2.990 -0.0063  0.3775  1.5895
 6295TIP3   OH218848   0.785   1.939   5.350 -0.4334  0.2301 -0.2670
 6295TIP3    H118849   0.816   1.974   5.434 -0.0019  0.5385 -0.5458
 6295TIP3    H218850   0.721   1.872   5.373 -0.5204  0.5063  0.3039
 6296TIP3   OH218851   2.168   3.440   1.123  0.0177  0.1073  0.2351
 6296TIP3    H118852   2.191   3.498   1.050  0.7723  0.1508  0.5010
 6296TIP3    H218853   2.099   3.486   1.170 -0.6711 -0.0373 -0.5974
 6297TIP3   OH218854   6.538   2.157   3.982 -0.2760  0.1467 -0.4221
 6297TIP3    H118855   6.521   2.094   4.052  0.7433  0.4234  0.0891
 6297TIP3    H218856   6.456   2.159   3.932 -0.7369 -0.6754  0.2609
 6298TIP3   OH218857   4.886   5.324   3.745  0.0192 -0.5138  0.3349
 6298TIP3    H118858   4.918   5.298   3.831  0.9853 -0.7885 -0.0907
 6298TIP3    H218859   4.926   5.410   3.729  0.0410 -0.5713  0.0666
 6299TIP3   OH218860   4.518   4.625   5.421 -0.1089  0.3661  0.1716
 6299TIP3    H118861   4.569   4.678   5.483  0.2564  0.4172 -0.1673
 6299TIP3    H218862   4.517   4.677   5.340  1.4436 -0.7360 -0.6122
 6300TIP3   OH218863   6.615   5.998   4.370  0.1020  0.1029  0.7617
 6300TIP3    H118864   6.574   5.912   4.383  1.6241 -0.6955  0.5726
 6300TIP3    H218865   6.542   6.057   4.351 -0.8386 -1.5766 -1.2848
 6301TIP3   OH218866   2.975   6.661   4.460 -0.0288 -0.4771 -0.1403
 6301TIP3    H118867   2.968   6.677   4.366 -1.5045 -1.4717 -0.2276
 6301TIP3    H218868   2.944   6.571   4.472  0.3769 -0.4633  1.2766
 6302TIP3   OH218869   5.645   6.203   4.112  0.1473 -0.6458  0.0231
 6302TIP3    H118870   5.687   6.117   4.112 -1.0660 -1.3131  2.0427
 6302TIP3    H218871   5.598   6.206   4.195 -0.7703  1.5313 -0.5169
 6303TIP3   OH218872   6.521   0.738   2.952 -0.2797 -0.3627 -0.7697
 6303TIP3    H118873   6.485   0.747   2.864 -0.1126  0.7425 -0.7364
 6303TIP3    H218874   6.600   0.792   2.951  0.0365 -0.7996 -0.1051
 6304TIP3   OH218875   1.108   2.404   4.083 -0.0150 -0.0872  0.1458
 6304TIP3    H118876   1.084   2.489   4.046  1.7131  0.4341  0.1254
 6304TIP3    H218877   1.036   2.346   4.060 -0.0097  0.7378 -2.1939
 6305TIP3   OH218878   6.368   6.526   5.048  0.4802 -0.3100  0.0009
 6305TIP3    H118879   6.400   6.564   5.130 -0.1289  2.5373 -0.9827
 6305TIP3    H218880   6.437   6.464   5.023  0.7141 -1.2358  2.5527
 6306TIP3   OH218881   2.443   4.870   5.576 -0.7763  0.3980  0.0808
 6306TIP3    H118882   2.356   4.907   5.588 -0.9203  0.0619  0.0846
 6306TIP3    H218883   2.490   4.935   5.524 -1.1024  0.4738 -0.1200
 6307TIP3   OH218884   1.335   5.703   3.319 -0.6177 -0.4770  0.0690
 6307TIP3    H118885   1.271   5.775   3.319 -1.3415 -1.0662  1.4095
 6307TIP3    H218886   1.332   5.668   3.231  0.0569  1.3730 -0.7491
 6308TIP3   OH218887   0.958   0.574   2.301  0.0322  0.0931  0.8733
 6308TIP3    H118888   0.880   0.532   2.338 -0.2428  0.1350  0.3548
 6308TIP3    H218889   0.923   0.652   2.257  0.2856 -0.2436  0.0708
 6309TIP3   OH218890   2.657   1.393   5.380  0.3343 -0.0746  0.3658
 6309TIP3    H118891   2.643   1.304   5.347 -0.4268 -0.5571  1.8932
 6309TIP3    H218892   2.741   1.419   5.344  1.1151 -1.8668  0.8074
 6310TIP3   OH218893   4.759   1.996   1.000 -0.0183 -0.2328  0.6917
 6310TIP3    H118894   4.689   2.012   0.936 -0.5756  0.0364  1.3609
 6310TIP3    H218895   4.715   1.950   1.072  0.7123 -1.0007  0.6590
 6311TIP3   OH218896   1.473   3.687   4.308 -0.7661  0.7951  0.1880
 6311TIP3    H118897   1.457   3.762   4.251 -0.5518 -0.3727 -1.4682
 6311TIP3    H218898   1.433   3.613   4.262 -0.6975 -0.1784  1.6237
 6312TIP3   OH218899   2.345   5.216   5.225  0.3897 -0.1379 -0.0453
 6312TIP3    H118900   2.250   5.227   5.231  0.5798  5.2407 -1.9981
 6312TIP3    H218901   2.361   5.185   5.136  0.5632 -2.4609  0.7216
 6313TIP3   OH218902   2.821   4.419   1.386 -0.6650  0.0929 -0.7362
 6313TIP3    H118903   2.806   4.497   1.332 -2.9630  0.4009  0.2247
 6313TIP3    H218904   2.915   4.420   1.403 -0.2034  1.1802 -2.8989
 6314TIP3   OH218905   4.518   2.661   4.658 -0.1359  0.1153  0.0060
 6314TIP3    H118906   4.460   2.609   4.714 -0.4379  0.7573  0.2990
 6314TIP3    H218907   4.556   2.726   4.717 -0.5045  0.8325 -0.5317
 6315TIP3   OH218908   2.559   6.064   2.962  0.2180  0.3803 -0.3794
 6315TIP3    H118909   2.501   6.128   2.922  1.7757  1.8850 -0.3569
 6315TIP3    H218910   2.559   5.990   2.900  0.0486  1.3050 -1.5220
 6316TIP3   OH218911   7.043   0.167   4.783  0.0213 -0.0901  0.0901
 6316TIP3    H118912   7.025   0.256   4.813  2.9481  1.3290 -1.8569
 6316TIP3    H218913   6.964   0.140   4.736 -0.0657  2.5610 -1.4615
 6317TIP3   OH218914   1.239   6.705   0.599  0.3452  0.1471 -0.6278
 6317TIP3    H118915   1.258   6.746   0.684 -1.1873  0.7695 -0.5524
 6317TIP3    H218916   1.293   6.627   0.598 -1.9477 -1.7301  2.4046
 6318TIP3   OH218917   7.179   2.701   0.348  0.2117 -0.2653 -0.0197
 6318TIP3    H118918   7.154   2.642   0.277 -0.4430 -1.5888  1.2599
 6318TIP3    H218919   7.130   2.782   0.330  0.1365 -0.5400 -1.1217
 6319TIP3   OH218920   7.114   0.977   5.501 -0.0436 -0.2737 -0.4018
 6319TIP3    H118921   7.068   1.002   5.581  0.9886 -1.5133  0.6344
 6319TIP3    H218922   7.206   1.001   5.517  0.0413  0.2981 -1.5967
 6320TIP3   OH218923   0.784   3.194   1.458  0.2711 -0.5108  0.4677
 6320TIP3    H118924   0.779   3.101   1.436  0.4913 -0.9103  2.0107
 6320TIP3    H218925   0.769   3.198   1.552  0.0012  1.0546  0.3947
 6321TIP3   OH218926   6.085   5.496   2.121 -0.6246  0.7778 -0.1303
 6321TIP3    H118927   6.089   5.414   2.072 -1.9382 -0.2305  1.3667
 6321TIP3    H218928   6.159   5.491   2.182 -0.1408  1.1492 -0.6815
 6322TIP3   OH218929   3.737   1.543   4.888  0.6546  0.0557 -0.2874
 6322TIP3    H118930   3.734   1.483   4.814  0.6861 -1.5769  0.9715
 6322TIP3    H218931   3.825   1.532   4.924 -0.5205 -2.2083  2.2758
 6323TIP3   OH218932   2.037   1.042   3.445  0.1385 -0.2767 -0.3141
 6323TIP3    H118933   1.982   1.106   3.400  0.0961 -0.6863 -0.8544
 6323TIP3    H218934   1.977   0.997   3.505 -0.0456 -0.4952 -0.6613
 6324TIP3   OH218935   3.702   4.598   2.031  0.5375 -0.1217 -0.1834
 6324TIP3    H118936   3.790   4.635   2.038 -0.3380  1.7432  2.3875
 6324TIP3    H218937   3.696   4.535   2.102 -0.3884  0.1930  0.0308
 6325TIP3   OH218938   6.586   1.791   2.003  0.4541 -0.0710  0.1659
 6325TIP3    H118939   6.652   1.733   1.966  1.4185  0.9982  0.1465
 6325TIP3    H218940   6.631   1.836   2.075 -0.4645  0.1573  0.6129
 6326TIP3   OH218941   2.808   3.601   0.701 -0.6346  0.1141 -0.5134
 6326TIP3    H118942   2.818   3.686   0.744  0.6535 -0.8621  1.2271
 6326TIP3    H218943   2.722   3.570   0.729 -0.0089 -0.2974  1.0288
 6327TIP3   OH218944   0.204   6.202   4.780  0.4577  0.1733 -0.4006
 6327TIP3    H118945   0.158   6.126   4.743 -0.4804  1.1557 -1.3134
 6327TIP3    H218946   0.276   6.218   4.719 -0.5549  1.2346 -1.3813
 6328TIP3   OH218947   1.345   2.885   1.356 -0.1119 -0.2784 -0.2045
 6328TIP3    H118948   1.358   2.811   1.296 -0.0627 -1.1634  0.8552
 6328TIP3    H218949   1.258   2.870   1.394  0.2393 -0.2536  0.6331
 6329TIP3   OH218950   2.407   2.681   0.193 -0.0488 -0.5215  0.4207
 6329TIP3    H118951   2.487   2.669   0.244 -0.4622 -3.7452  0.5366
 6329TIP3    H218952   2.336   2.662   0.254 -0.8939  1.1096  0.0051
 6330TIP3   OH218953   6.343   4.443   1.849 -0.0810  0.3292  0.5903
 6330TIP3    H118954   6.411   4.383   1.818 -2.4571 -1.3499 -1.7872
 6330TIP3    H218955   6.326   4.414   1.939  1.9432  0.5070  1.0964
 6331TIP3   OH218956   7.003   6.582   2.459 -0.9318  0.2865  0.6779
 6331TIP3    H118957   7.068   6.629   2.407 -0.1180 -2.3068 -0.7972
 6331TIP3    H218958   6.920   6.625   2.439 -0.6351 -0.5120 -2.7628
 6332TIP3   OH218959   6.997   1.277   1.522 -0.6443 -0.1660 -0.3858
 6332TIP3    H118960   6.967   1.187   1.508 -1.4483  0.1476 -0.7258
 6332TIP3    H218961   7.084   1.267   1.560  0.0279 -1.0976 -2.0205
 6333TIP3   OH218962   1.852   2.558   3.064 -0.3649  0.3808  0.0350
 6333TIP3    H118963   1.813   2.636   3.026 -0.2169  0.3711 -0.1383
 6333TIP3    H218964   1.810   2.485   3.018 -1.8468  0.2869  1.4533
 6334TIP3   OH218965   6.131   6.546   0.602  0.7882 -0.1268  0.2141
 6334TIP3    H118966   6.066   6.490   0.561  1.1390 -0.3226 -0.0832
 6334TIP3    H218967   6.197   6.486   0.635  2.2634  0.1587 -1.9798
 6335TIP3   OH218968   4.425   5.231   0.198 -0.1127  0.0350 -0.0274
 6335TIP3    H118969   4.373   5.270   0.268 -0.6171  1.6394 -1.2370
 6335TIP3    H218970   4.362   5.209   0.130  0.6077  0.7819 -0.9737
 6336TIP3   OH218971   6.876   5.369   0.095  0.3304  0.3388  0.4459
 6336TIP3    H118972   6.834   5.319   0.024 -0.5649 -1.1487  1.9439
 6336TIP3    H218973   6.899   5.303   0.160  3.7755  1.2938  0.3566
 6337TIP3   OH218974   4.001   5.197   5.696 -0.1637  0.5853 -0.5707
 6337TIP3    H118975   4.033   5.110   5.721  1.2742  1.2963  0.1739
 6337TIP3    H218976   4.032   5.209   5.606  1.4239  1.1224  0.0232
 6338TIP3   OH218977   1.090   2.230   3.491 -0.2229 -0.1186 -0.6712
 6338TIP3    H118978   1.020   2.165   3.483  0.4326 -0.9877  0.4526
 6338TIP3    H218979   1.130   2.213   3.576  0.8275  0.9022 -0.9281
 6339TIP3   OH218980   4.597   0.389   0.860 -0.2632  0.6755  0.1237
 6339TIP3    H118981   4.572   0.357   0.946  0.5952  0.4288  0.2867
 6339TIP3    H218982   4.681   0.347   0.842 -0.1831  1.1316 -0.6083
 6340TIP3   OH218983   5.668   2.838   2.663  0.5939 -0.4651 -1.0918
 6340TIP3    H118984   5.666   2.815   2.756  1.5951  0.7381 -0.7430
 6340TIP3    H218985   5.591   2.892   2.651  1.5149  1.0499 -0.4565
 6341TIP3   OH218986   5.314   3.967   4.186  0.0900  0.2382  0.1312
 6341TIP3    H118987   5.268   4.013   4.256 -1.0952  1.4815 -1.3807
 6341TIP3    H218988   5.245   3.924   4.136  0.7994  0.1470 -0.8050
 6342TIP3   OH218989   3.933   0.652   1.611  0.1668  0.5726  0.2546
 6342TIP3    H118990   3.932   0.732   1.663  1.8022  0.0578  1.1687
 6342TIP3    H218991   4.026   0.627   1.607 -0.0115  0.0178 -2.0527
 6343TIP3   OH218992   0.383   5.590   0.873 -0.5670  0.5546  0.3090
 6343TIP3    H118993   0.368   5.543   0.956 -1.9645  0.1348 -0.1577
 6343TIP3    H218994   0.298   5.629   0.852  0.2932  2.3941  0.1122
 6344TIP3   OH218995   3.738   5.369   3.786 -0.4373  0.5742  0.2875
 6344TIP3    H118996   3.646   5.395   3.775 -0.4499  0.5387  0.3086
 6344TIP3    H218997   3.786   5.452   3.784 -0.1498  0.4600 -2.7418
 6345TIP3   OH218998   3.419   6.546   3.952 -0.2118 -0.5458  0.1049
 6345TIP3    H118999   3.477   6.623   3.950  2.4828 -2.4420 -2.7543
 6345TIP3    H219000   3.341   6.574   3.905 -0.0294  0.9259  0.6200
 6346TIP3   OH219001   0.353   2.273   4.721  0.4005  0.4666  0.1376
 6346TIP3    H119002   0.379   2.185   4.748  0.6731  0.7114  0.6821
 6346TIP3    H219003   0.361   2.326   4.800 -1.9798  0.5208  0.4161
 6347TIP3   OH219004   5.324   2.848   1.065  0.2351  0.2906 -0.2644
 6347TIP3    H119005   5.388   2.915   1.091  0.9888 -0.1433 -0.9638
 6347TIP3    H219006   5.356   2.768   1.107  0.8035 -0.1663 -1.5309
 6348TIP3   OH219007   3.428   5.710   2.420 -0.4577  0.2396  0.4450
 6348TIP3    H119008   3.369   5.682   2.350 -0.8781 -0.0800  0.9167
 6348TIP3    H219009   3.373   5.762   2.479 -0.2366  0.0822  0.7976
 6349TIP3   OH219010   5.229   0.254   3.488  0.5291 -0.1438  0.0980
 6349TIP3    H119011   5.278   0.205   3.422 -0.9298 -0.5869 -0.6816
 6349TIP3    H219012   5.233   0.199   3.567  0.5271 -0.5966 -0.2183
 6350TIP3   OH219013   1.915   3.462   1.587  0.0788 -0.2485 -1.3303
 6350TIP3    H119014   1.937   3.418   1.505  1.2312 -2.1072 -0.1129
 6350TIP3    H219015   1.994   3.512   1.609  0.3328 -0.9300 -0.6538
 6351TIP3   OH219016   1.814   0.944   0.662  0.2259  0.1087 -0.5781
 6351TIP3    H119017   1.833   1.033   0.634  1.5243  0.0179 -0.0928
 6351TIP3    H219018   1.724   0.928   0.636 -0.3619  1.9093  0.2146
 6352TIP3   OH219019   0.958   6.172   2.570 -0.0591 -0.0726  0.1361
 6352TIP3    H119020   1.034   6.134   2.526 -1.0595 -0.8517 -0.9555
 6352TIP3    H219021   0.885   6.156   2.511 -1.1147  0.5449  1.2281
 6353TIP3   OH219022   1.884   4.242   5.221 -0.3391 -0.2571  0.0570
 6353TIP3    H119023   1.806   4.232   5.166  0.5293 -3.3577 -0.8290
 6353TIP3    H219024   1.850   4.241   5.310 -1.3897 -0.9381 -0.3284
 6354TIP3   OH219025   1.297   6.021   1.710  0.2416 -0.3500 -0.3874
 6354TIP3    H119026   1.207   6.019   1.680 -0.3044  2.6148  0.7229
 6354TIP3    H219027   1.291   6.032   1.805  1.6020  2.4990 -0.5104
 6355TIP3   OH219028   1.184   5.715   0.919  0.1086  0.0583 -0.1833
 6355TIP3    H119029   1.203   5.703   0.826 -0.6890  0.7460 -0.4557
 6355TIP3    H219030   1.254   5.773   0.950  1.6514 -1.9162  0.1974
 6356TIP3   OH219031   5.729   1.703   2.318 -0.3123 -0.2315  0.5144
 6356TIP3    H119032   5.660   1.702   2.384 -0.1189 -0.1868  0.7201
 6356TIP3    H219033   5.687   1.672   2.238 -0.6764  0.2172  0.5279
 6357TIP3   OH219034   1.237   5.574   5.713 -0.4151  0.0104 -0.1240
 6357TIP3    H119035   1.278   5.557   5.628  0.9170 -2.5448  0.9183
 6357TIP3    H219036   1.144   5.582   5.694  0.0559  1.8880 -2.0621
 6358TIP3   OH219037   6.590   4.882   0.727  0.0252  0.0011  0.5217
 6358TIP3    H119038   6.514   4.826   0.742  1.1047 -1.7726 -0.2698
 6358TIP3    H219039   6.655   4.852   0.790  0.7679  0.0581 -0.2014
 6359TIP3   OH219040   3.439  -0.009   1.515  0.1108  0.3890  0.2734
 6359TIP3    H119041   3.530   0.000   1.489  0.7528 -0.6454  1.9942
 6359TIP3    H219042   3.396   0.069   1.480  1.5797  0.7871 -0.7510
 6360TIP3   OH219043   2.823   0.966   4.830 -0.1006  0.2636  0.2109
 6360TIP3    H119044   2.901   1.020   4.846 -1.2764  1.9591  0.4085
 6360TIP3    H219045   2.830   0.895   4.893  2.1829 -0.6497 -0.9363
 6361TIP3   OH219046   1.097   1.886   1.024 -0.6688  0.3907 -0.0184
 6361TIP3    H119047   1.062   1.962   1.070 -0.8798  1.3133 -1.6030
 6361TIP3    H219048   1.024   1.824   1.020 -0.7621  0.4661  0.5384
 6362TIP3   OH219049   3.197   4.877   2.012 -0.0212 -0.2615  0.2469
 6362TIP3    H119050   3.132   4.899   2.077 -2.1895 -1.8562 -1.2267
 6362TIP3    H219051   3.233   4.961   1.984 -1.5398  0.6941  1.0272
 6363TIP3   OH219052   1.282   6.274   5.663  0.1899 -0.0420  0.2063
 6363TIP3    H119053   1.189   6.284   5.644 -0.0106  0.0669  1.1900
 6363TIP3    H219054   1.311   6.362   5.690  0.2550 -0.3713  1.2326
 6364TIP3   OH219055   6.872   6.165   1.484  0.5536  0.2338  0.2535
 6364TIP3    H119056   6.949   6.220   1.465 -1.0951  2.1831 -1.1770
 6364TIP3    H219057   6.814   6.222   1.533 -0.1827 -1.0746  0.9296
 6365TIP3   OH219058   2.041   4.349   1.166 -0.2375  0.0255  0.2659
 6365TIP3    H119059   2.058   4.420   1.228 -0.9537  0.3434  0.1029
 6365TIP3    H219060   2.099   4.367   1.092 -0.8574  0.7951 -0.0491
 6366TIP3   OH219061   0.630   6.240   2.916 -0.3378 -0.1464  0.4453
 6366TIP3    H119062   0.705   6.283   2.874 -1.2520  0.5323 -0.5261
 6366TIP3    H219063   0.603   6.173   2.854 -0.1580 -0.8333  1.0854
 6367TIP3   OH219064   2.292   2.556   0.430  0.3760  0.3198 -0.2869
 6367TIP3    H119065   2.333   2.578   0.514 -1.0370  2.6006 -0.1046
 6367TIP3    H219066   2.198   2.557   0.449  0.0848 -1.7221 -1.3611
 6368TIP3   OH219067   5.263   1.418   2.110  0.0797 -0.4303  0.0032
 6368TIP3    H119068   5.333   1.373   2.063  1.2429 -0.8962  2.0277
 6368TIP3    H219069   5.295   1.422   2.201 -1.8338  0.7892  0.6751
 6369TIP3   OH219070   2.521   3.583   4.461  0.4991 -0.1544 -0.3489
 6369TIP3    H119071   2.545   3.609   4.550 -1.7470  0.2214  0.2199
 6369TIP3    H219072   2.600   3.596   4.409  1.7771 -0.0906  1.5314
 6370TIP3   OH219073   0.443   1.106   4.586 -0.3255  0.0877 -0.0715
 6370TIP3    H119074   0.380   1.051   4.540 -0.2416  0.3398 -0.4982
 6370TIP3    H219075   0.485   1.048   4.649  1.2004 -0.8541 -1.8692
 6371TIP3   OH219076   5.411   3.904   5.039 -0.5258  0.5944 -0.3832
 6371TIP3    H119077   5.356   3.927   4.964  0.7656 -1.3987 -2.0696
 6371TIP3    H219078   5.486   3.963   5.033  0.2503 -0.4422 -1.5819
 6372TIP3   OH219079   0.971   5.463   2.509 -0.3919 -0.4085 -0.3304
 6372TIP3    H119080   0.908   5.521   2.554  1.2132  0.0876  1.3871
 6372TIP3    H219081   1.014   5.520   2.446 -1.2180 -0.6093 -1.0974
 6373TIP3   OH219082   4.866   4.504   5.191  0.4134  0.2753 -0.6128
 6373TIP3    H119083   4.914   4.586   5.200 -0.0319  0.4059  1.0050
 6373TIP3    H219084   4.929   4.437   5.221 -0.0569  0.3464  0.6078
 6374TIP3   OH219085   2.385   6.662   1.835 -0.0119 -0.6774 -0.0319
 6374TIP3    H119086   2.424   6.692   1.917 -0.4721  1.0514 -0.4120
 6374TIP3    H219087   2.431   6.711   1.767 -1.6383  0.1351 -0.5968
 6375TIP3   OH219088   0.482   3.117   3.393 -0.4168  0.1527 -0.0143
 6375TIP3    H119089   0.556   3.160   3.351  2.5228 -2.3168  2.2064
 6375TIP3    H219090   0.502   3.024   3.388 -2.9035 -0.5766  1.5524
 6376TIP3   OH219091   0.453   4.463   0.459  0.2155  0.1335  0.5298
 6376TIP3    H119092   0.450   4.551   0.421 -1.0676 -1.3496 -3.3405
 6376TIP3    H219093   0.543   4.453   0.489  0.1316  3.0325  2.0711
 6377TIP3   OH219094   3.261   0.584   1.808  0.3414 -0.1170 -0.2368
 6377TIP3    H119095   3.261   0.577   1.712 -3.8707 -0.1483 -0.4109
 6377TIP3    H219096   3.214   0.505   1.837 -0.4221  0.9763  1.6544
 6378TIP3   OH219097   3.241   3.562   5.769  0.1395 -0.7633  0.4816
 6378TIP3    H119098   3.225   3.655   5.785  1.3335 -0.6905  1.3277
 6378TIP3    H219099   3.158   3.520   5.792 -0.2278  0.0216  0.6477
 6379TIP3   OH219100   6.916   5.602   4.780 -0.3168 -0.4239  0.1075
 6379TIP3    H119101   6.896   5.564   4.866 -0.9275  1.9885  1.1251
 6379TIP3    H219102   7.001   5.644   4.793  0.2396 -1.1913 -0.9187
 6380TIP3   OH219103   2.359   6.641   0.983  0.3026  0.6777  0.2156
 6380TIP3    H119104   2.320   6.715   1.028  1.3874  1.7215 -0.4842
 6380TIP3    H219105   2.286   6.597   0.940 -0.9972 -1.1464  3.9130
 6381TIP3   OH219106   4.100   3.861   4.272  0.2762  0.4576 -0.1948
 6381TIP3    H119107   4.069   3.772   4.290  0.2749  0.5668  0.3474
 6381TIP3    H219108   4.036   3.896   4.209  0.9151 -0.3173 -1.3025
 6382TIP3   OH219109   0.532   2.520   4.494  0.7264 -0.3475 -0.0988
 6382TIP3    H119110   0.580   2.489   4.571  1.8194  0.8594 -0.2544
 6382TIP3    H219111   0.597   2.569   4.443 -0.5216  0.8701 -0.6091
 6383TIP3   OH219112   2.699   3.107   5.611  0.2931  0.2150  0.1099
 6383TIP3    H119113   2.717   3.196   5.639  2.2180  0.0831 -0.5594
 6383TIP3    H219114   2.612   3.088   5.646  0.0916  2.1266  0.7694
 6384TIP3   OH219115   0.682   5.876   4.568  0.4867 -0.4424  0.1482
 6384TIP3    H119116   0.643   5.816   4.505 -0.7787  1.7654 -1.3142
 6384TIP3    H219117   0.774   5.848   4.575 -0.2952 -3.2318  0.5262
 6385TIP3   OH219118   0.844   6.014   4.833 -0.8500  0.3184 -0.3712
 6385TIP3    H119119   0.785   6.067   4.888  0.1093 -1.7011  2.8987
 6385TIP3    H219120   0.928   6.061   4.837 -0.3838 -0.5536  1.3168
 6386TIP3   OH219121   2.935   6.579   3.830 -0.4862  0.1490 -0.8068
 6386TIP3    H119122   3.029   6.562   3.830 -0.3831  0.6958 -0.7988
 6386TIP3    H219123   2.899   6.516   3.768 -0.2574 -0.8302  0.0385
 6387TIP3   OH219124   5.173   5.073   5.248 -0.0416 -0.1761  0.0567
 6387TIP3    H119125   5.121   5.021   5.186  1.7550 -1.4035 -0.5048
 6387TIP3    H219126   5.159   5.163   5.221 -2.1252 -0.4294  0.1554
 6388TIP3   OH219127   0.315   2.512   2.140  0.0451 -0.4261 -0.0846
 6388TIP3    H119128   0.398   2.514   2.188  1.3471 -0.7318 -2.2016
 6388TIP3    H219129   0.327   2.445   2.073 -1.5963  0.1371 -1.0140
 6389TIP3   OH219130   2.411   1.717   4.144  0.1971  0.4435 -0.0548
 6389TIP3    H119131   2.323   1.754   4.138 -0.0590  0.0637  1.0318
 6389TIP3    H219132   2.469   1.788   4.116 -0.3827  1.1200  0.4142
 6390TIP3   OH219133   3.069   0.734   2.034 -0.4811  0.4996  0.1644
 6390TIP3    H119134   3.019   0.807   2.070  0.3531  0.8729  0.5943
 6390TIP3    H219135   3.115   0.771   1.958 -2.9654 -0.4919 -1.9951
 6391TIP3   OH219136   3.685   3.910   1.327 -0.3291 -0.1506 -0.7837
 6391TIP3    H119137   3.659   3.842   1.265 -0.4430 -1.7302  0.9203
 6391TIP3    H219138   3.779   3.896   1.340 -0.4312 -0.2904 -0.1196
 6392TIP3   OH219139   4.315   1.667   1.543 -0.0241  0.2095  0.2798
 6392TIP3    H119140   4.221   1.678   1.555  0.2021  0.5170  1.9705
 6392TIP3    H219141   4.354   1.708   1.619  1.3825 -1.8676  0.7644
 6393TIP3   OH219142   2.298   3.901   5.718 -0.4905  0.1802  0.2987
 6393TIP3    H119143   2.374   3.844   5.724  0.1698  0.8947 -0.7901
 6393TIP3    H219144   2.245   3.881   5.795 -0.5561 -2.2647 -0.3200
 6394TIP3   OH219145   0.204   0.166  -0.016 -0.2487  0.2628 -0.6430
 6394TIP3    H119146   0.227   0.242   0.038  1.8738 -0.1307 -0.9061
 6394TIP3    H219147   0.109   0.158  -0.006 -0.0272  0.2276  3.0484
 6395TIP3   OH219148   2.297   1.675   0.223 -0.2071 -0.4291 -0.3874
 6395TIP3    H119149   2.252   1.618   0.285 -0.2802 -1.6117 -1.4689
 6395TIP3    H219150   2.254   1.760   0.233 -0.7871 -0.8163  0.5577
 6396TIP3   OH219151   1.727   0.413   3.267  0.3005  0.2396  0.4526
 6396TIP3    H119152   1.682   0.330   3.259  0.6301 -0.1654  2.3633
 6396TIP3    H219153   1.780   0.420   3.187  0.8047 -1.7178  0.5755
 6397TIP3   OH219154   1.784   5.624   0.728  0.1983  0.1133 -0.1120
 6397TIP3    H119155   1.852   5.557   0.713  0.6398  0.4807  0.2276
 6397TIP3    H219156   1.796   5.686   0.656  0.8943  0.7188  0.5122
 6398TIP3   OH219157   6.986   1.508   0.143  0.5049  0.1650  0.1540
 6398TIP3    H119158   7.004   1.528   0.235  0.6532  1.2445 -0.0968
 6398TIP3    H219159   7.054   1.555   0.095  2.5834 -3.1047 -0.3966
 6399TIP3   OH219160   6.791   3.462   2.645  0.2601 -0.1390  0.2438
 6399TIP3    H119161   6.712   3.493   2.690 -0.3642  0.3705 -1.1686
 6399TIP3    H219162   6.766   3.454   2.553  1.1832 -2.2531  0.0965
 6400TIP3   OH219163   6.303   1.010   5.778  0.0240 -0.1449  0.7392
 6400TIP3    H119164   6.304   0.937   5.715 -1.7920  0.7288 -0.3908
 6400TIP3    H219165   6.382   0.997   5.830  2.0133 -0.5892 -2.1265
 6401TIP3   OH219166   0.500   4.859   5.070  0.2027  0.0048 -0.1059
 6401TIP3    H119167   0.512   4.766   5.051 -0.6959  0.1517 -1.5068
 6401TIP3    H219168   0.458   4.861   5.156 -0.9754 -0.9372 -0.6444
 6402TIP3   OH219169   5.333   3.061   5.513  0.8937  0.6161 -0.8449
 6402TIP3    H119170   5.380   3.144   5.508 -0.7444  1.6602  0.1413
 6402TIP3    H219171   5.241   3.084   5.501  0.3181 -0.9584  0.1180
 6403TIP3   OH219172   3.335   5.305   3.987 -0.7772  0.3122  0.3690
 6403TIP3    H119173   3.315   5.264   3.903 -0.0329  0.6491  0.0169
 6403TIP3    H219174   3.356   5.231   4.045  3.9873  0.1419 -1.1452
 6404TIP3   OH219175   1.587   2.908   2.360 -0.1777 -0.1748 -0.6883
 6404TIP3    H119176   1.672   2.949   2.345 -1.0794  1.5718 -1.3238
 6404TIP3    H219177   1.540   2.918   2.276 -1.4830  0.1264  0.0425
 6405TIP3   OH219178   6.693   3.424   2.358  0.0144  0.4553 -1.0485
 6405TIP3    H119179   6.698   3.334   2.324 -1.5415  0.8202 -2.4282
 6405TIP3    H219180   6.718   3.479   2.283 -1.7474  1.2386 -1.1156
 6406TIP3   OH219181   5.453   1.459   5.550 -0.0481  0.2132 -0.1014
 6406TIP3    H119182   5.483   1.453   5.459  0.5880  0.9847  0.0484
 6406TIP3    H219183   5.389   1.388   5.559  0.4675 -0.3721 -0.9254
 6407TIP3   OH219184   0.089   0.069   4.017  0.1232  0.1904 -0.1827
 6407TIP3    H119185   0.068   0.006   4.086  1.2191 -2.5164 -2.1715
 6407TIP3    H219186   0.178   0.098   4.037  0.8680 -1.4439 -1.0004
 6408TIP3   OH219187   4.033   4.716   4.178  1.0267  0.5026 -0.3027
 6408TIP3    H119188   4.008   4.626   4.157  1.5558  0.0737  0.8217
 6408TIP3    H219189   3.975   4.741   4.249  0.7710  1.1273 -0.7164
 6409TIP3   OH219190   1.431   3.819   4.995  0.1029  0.0116  0.1936
 6409TIP3    H119191   1.364   3.760   4.960 -1.2152  1.2135  0.5608
 6409TIP3    H219192   1.474   3.856   4.918  0.2045 -0.6096 -0.0534
 6410TIP3   OH219193   2.759   1.564   4.220  0.0048  0.0741 -0.0534
 6410TIP3    H119194   2.709   1.553   4.139 -0.3304 -0.7736  0.2577
 6410TIP3    H219195   2.846   1.531   4.199  0.0307  0.2188 -0.1779
 6411TIP3   OH219196   2.056   4.138   0.933 -0.0528 -1.2264  0.3847
 6411TIP3    H119197   2.098   4.093   1.007  0.1310  0.5822  1.4494
 6411TIP3    H219198   1.981   4.182   0.972  0.0991 -0.1663 -0.4755
 6412TIP3   OH219199   2.140   2.480   2.247 -0.0712 -0.6966 -0.6695
 6412TIP3    H119200   2.054   2.441   2.266 -0.9707  1.3709 -0.1766
 6412TIP3    H219201   2.171   2.434   2.169 -1.2628 -2.0296 -0.3895
 6413TIP3   OH219202   2.507   6.645   1.536 -0.3244 -0.0968  0.3212
 6413TIP3    H119203   2.546   6.563   1.568 -1.9777 -0.7489  0.7891
 6413TIP3    H219204   2.414   6.626   1.532 -0.6962  1.6734  0.0661
 6414TIP3   OH219205   0.671   3.463   4.457  0.6164  0.4617  0.7464
 6414TIP3    H119206   0.725   3.542   4.446  0.6552  0.2636 -0.7903
 6414TIP3    H219207   0.631   3.450   4.371  0.5229 -1.1319  1.0065
 6415TIP3   OH219208   1.318   1.471   5.348 -0.2260 -0.2875 -0.0020
 6415TIP3    H119209   1.400   1.499   5.389 -1.7580  2.9461  1.1931
 6415TIP3    H219210   1.334   1.481   5.254  0.9358 -0.3514  0.1738
 6416TIP3   OH219211   2.648   2.959   0.596  0.2622 -0.3917 -0.0134
 6416TIP3    H119212   2.626   2.976   0.687  1.4473  0.9086  0.0523
 6416TIP3    H219213   2.653   3.045   0.555 -0.6360 -0.9658 -1.4275
 6417TIP3   OH219214   0.088   6.737   3.933  0.0186  0.0433  0.3313
 6417TIP3    H119215  -0.001   6.705   3.918 -0.1578  0.2399  0.9177
 6417TIP3    H219216   0.127   6.672   3.991  0.1391  0.1427  0.3616
 6418TIP3   OH219217   2.754   0.316   1.805  0.2727 -0.3252  0.5438
 6418TIP3    H119218   2.726   0.405   1.783  2.9311  0.4600 -0.0433
 6418TIP3    H219219   2.794   0.324   1.892  1.6792 -0.6415 -0.0456
 6419TIP3   OH219220   2.603   6.145   0.688 -0.4532  0.4128  0.5113
 6419TIP3    H119221   2.531   6.185   0.736 -0.5056  0.3081  0.5208
 6419TIP3    H219222   2.663   6.217   0.670 -0.4392  0.4533  0.7236
 6420TIP3   OH219223   3.027   1.369   0.237  0.2406  0.5924  0.1900
 6420TIP3    H119224   2.990   1.326   0.315  0.2498  1.2751  0.5800
 6420TIP3    H219225   2.951   1.410   0.195  0.5348  2.1116  1.0643
 6421TIP3   OH219226   1.507   0.146   5.373  0.0847  0.6766  0.9229
 6421TIP3    H119227   1.461   0.068   5.403  0.3792  0.6786  1.3831
 6421TIP3    H219228   1.460   0.219   5.414 -1.2351  0.8807 -0.8009
 6422TIP3   OH219229   0.950   1.129   5.428 -0.8693  0.9138  0.4014
 6422TIP3    H119230   0.893   1.068   5.475 -0.0130 -0.5258 -0.3712
 6422TIP3    H219231   0.964   1.201   5.489  0.3602 -0.9686  2.4605
 6423TIP3   OH219232   2.890   0.148   1.144  0.0873  0.5493  0.2306
 6423TIP3    H119233   2.878   0.098   1.064  1.1554 -1.0720  1.0268
 6423TIP3    H219234   2.913   0.236   1.115 -0.8209  0.3358 -1.2190
 6424TIP3   OH219235   6.543   4.640   0.450  0.6528 -0.1999  0.1650
 6424TIP3    H119236   6.625   4.602   0.480  0.4667 -0.6073  0.1638
 6424TIP3    H219237   6.544   4.628   0.355  0.3267 -0.7494  0.2240
 6425TIP3   OH219238   0.945   5.863   5.049  0.1663  0.0937 -0.7796
 6425TIP3    H119239   0.918   5.924   5.118 -1.4440 -0.3152 -1.0131
 6425TIP3    H219240   0.918   5.904   4.967 -0.9753 -0.9060 -0.9381
 6426TIP3   OH219241   2.053   0.443   5.169  0.5235 -1.0882  0.3460
 6426TIP3    H119242   2.105   0.462   5.247  0.7166 -1.1990  0.2466
 6426TIP3    H219243   1.967   0.419   5.203  0.8233 -1.8942  0.5753
 6427TIP3   OH219244   4.216   2.090   3.173 -0.0163  0.5807  0.2755
 6427TIP3    H119245   4.303   2.126   3.190 -0.2262  1.3417 -0.2094
 6427TIP3    H219246   4.166   2.164   3.137 -0.4156 -0.2203 -0.8889
 6428TIP3   OH219247   2.543   3.609   0.372 -0.2366 -0.1466  0.1028
 6428TIP3    H119248   2.454   3.574   0.359 -0.0020 -1.1103  0.9499
 6428TIP3    H219249   2.590   3.539   0.417  1.5171 -0.4082 -1.9596
 6429TIP3   OH219250   3.085   3.805   2.857  0.0151 -0.3747 -0.0316
 6429TIP3    H119251   3.019   3.746   2.820 -0.6147 -0.4735  1.1867
 6429TIP3    H219252   3.167   3.756   2.852 -0.2046 -0.6965 -0.5402
 6430TIP3   OH219253   2.644   1.100   0.604  0.6557  0.0317 -0.3071
 6430TIP3    H119254   2.587   1.102   0.680  0.0670  0.4635 -0.7463
 6430TIP3    H219255   2.695   1.181   0.609  0.0252  0.4665 -0.8057
 6431TIP3   OH219256   5.353   2.307   2.794  0.3282  0.2729  0.1775
 6431TIP3    H119257   5.406   2.353   2.729  1.6315 -0.7031  0.4930
 6431TIP3    H219258   5.348   2.217   2.761 -2.5892  0.6572 -0.6937
 6432TIP3   OH219259   0.608   6.501   0.535  0.2118 -0.6034  0.6905
 6432TIP3    H119260   0.684   6.523   0.482  1.5193  0.4285  2.8773
 6432TIP3    H219261   0.598   6.406   0.525  2.1368 -0.8408  0.7876
 6433TIP3   OH219262   4.503   6.204   1.504 -0.2425 -0.6166 -0.0949
 6433TIP3    H119263   4.534   6.113   1.505 -1.7099 -1.1497 -0.6962
 6433TIP3    H219264   4.513   6.233   1.595  2.6091 -0.4844 -0.3436
 6434TIP3   OH219265   2.759   4.946   0.999 -0.4432  0.2649  0.0862
 6434TIP3    H119266   2.689   4.880   0.994  1.1521 -1.4847 -0.3890
 6434TIP3    H219267   2.834   4.904   0.957  0.7349  2.3255  0.0045
 6435TIP3   OH219268   6.516   6.493   3.738 -0.2523  0.0940  0.3283
 6435TIP3    H119269   6.433   6.488   3.691  0.0550 -1.0777 -0.1353
 6435TIP3    H219270   6.496   6.460   3.826 -0.4503  0.6392  0.4950
 6436TIP3   OH219271   5.443   1.029   2.814 -0.0547 -0.2761 -0.5995
 6436TIP3    H119272   5.418   1.104   2.868  1.5224 -0.3612  0.3283
 6436TIP3    H219273   5.480   0.966   2.877 -0.5597 -1.4767 -1.4746
 6437TIP3   OH219274   3.143   0.068   1.252  0.4746  0.0082  0.2872
 6437TIP3    H119275   3.178  -0.012   1.214  0.8414 -0.8594  2.2994
 6437TIP3    H219276   3.061   0.083   1.207  0.4708 -1.4282 -0.2210
 6438TIP3   OH219277   5.503   5.828   0.333  0.3158 -0.2549 -0.4553
 6438TIP3    H119278   5.582   5.776   0.316  0.4782  0.0867 -0.7557
 6438TIP3    H219279   5.490   5.821   0.427  2.0005  1.5315 -0.0226
 6439TIP3   OH219280   2.107   3.132   3.008  0.3040 -0.1444  0.1093
 6439TIP3    H119281   2.059   3.175   2.937  0.2159 -0.5417 -0.0743
 6439TIP3    H219282   2.121   3.201   3.073 -1.0524 -0.1574  0.4379
 6440TIP3   OH219283   0.177   3.174  -0.011 -0.3924  0.5093 -0.2986
 6440TIP3    H119284   0.121   3.235   0.037 -0.9902 -0.5329  0.3691
 6440TIP3    H219285   0.204   3.110   0.055  1.3044  0.7897 -0.6928
 6441TIP3   OH219286   6.719   2.596   1.418  0.1766  0.5020  0.1162
 6441TIP3    H119287   6.759   2.594   1.505 -1.5534 -0.1269  0.9463
 6441TIP3    H219288   6.781   2.548   1.362  0.4380 -0.7547  1.4279
 6442TIP3   OH219289   1.058   4.519   5.359 -0.4388  0.0333  0.0170
 6442TIP3    H119290   1.137   4.487   5.315  0.0082  0.1479  0.7207
 6442TIP3    H219291   0.988   4.461   5.328 -0.1518  0.1553 -0.8896
 6443TIP3   OH219292   7.107   2.016   5.281 -0.4097  0.6586 -1.5120
 6443TIP3    H119293   7.101   1.929   5.241 -1.1584  0.4293 -0.9311
 6443TIP3    H219294   7.023   2.027   5.327  0.6351  0.6594  0.4707
 6444TIP3   OH219295   4.550   6.634   2.643 -0.0360  0.7701 -0.3422
 6444TIP3    H119296   4.472   6.685   2.623 -1.3361 -0.9713  0.1008
 6444TIP3    H219297   4.590   6.616   2.558  0.6841  2.8158 -0.4781
 6445TIP3   OH219298   2.636   4.745   4.295 -0.4309  0.2398  0.3151
 6445TIP3    H119299   2.665   4.791   4.216  1.0212 -0.4560  0.4025
 6445TIP3    H219300   2.620   4.815   4.358  0.6218  0.7169  0.0839
 6446TIP3   OH219301   7.083   3.186   2.252  0.0031  0.3482  0.8401
 6446TIP3    H119302   7.086   3.110   2.193 -1.1971  0.4160  0.6700
 6446TIP3    H219303   7.073   3.148   2.339 -0.2763  0.3027  0.7882
 6447TIP3   OH219304   6.521   4.643   5.022 -0.0937 -0.0723  0.4937
 6447TIP3    H119305   6.471   4.712   4.979 -0.7065 -0.7055  0.1732
 6447TIP3    H219306   6.494   4.648   5.114  0.2785  0.4659  0.5794
 6448TIP3   OH219307   1.765   3.148   0.434 -0.1301  0.8442  0.1131
 6448TIP3    H119308   1.699   3.121   0.497 -1.3288  2.9740 -0.1539
 6448TIP3    H219309   1.847   3.152   0.484 -0.5819  0.1092  0.9199
 6449TIP3   OH219310   0.214   0.336   3.837  0.1071 -0.0476 -0.7292
 6449TIP3    H119311   0.163   0.406   3.796 -0.4976 -0.0478 -0.0091
 6449TIP3    H219312   0.263   0.297   3.765 -0.6620  0.1741 -1.3949
 6450TIP3   OH219313   5.994   0.576   0.788  0.0039 -0.4252  0.0088
 6450TIP3    H119314   5.919   0.556   0.845 -0.9519  1.1037 -0.6543
 6450TIP3    H219315   6.066   0.527   0.827 -1.0558 -0.9894  1.3884
 6451TIP3   OH219316   3.951   3.700  -0.008  0.0328  0.0493  0.3169
 6451TIP3    H119317   3.870   3.692   0.042 -0.8177  1.9047 -0.6697
 6451TIP3    H219318   3.987   3.612  -0.009 -1.9669 -0.8330  0.7767
 6452TIP3   OH219319   1.583   4.275   1.916 -0.2682  0.2679  0.4301
 6452TIP3    H119320   1.556   4.332   1.843 -0.5026 -0.6535 -0.2158
 6452TIP3    H219321   1.676   4.294   1.928 -0.5678  1.5246  0.8984
 6453TIP3   OH219322   2.005   2.690   3.660 -0.7798 -0.5935  0.6303
 6453TIP3    H119323   2.056   2.755   3.611 -0.6624 -1.9362 -1.1088
 6453TIP3    H219324   2.063   2.615   3.669 -1.5708 -1.1912  0.8757
 6454TIP3   OH219325   0.563   6.169   2.655  0.1951 -0.2792  0.3953
 6454TIP3    H119326   0.601   6.100   2.600  0.1262  0.4219 -0.5619
 6454TIP3    H219327   0.480   6.190   2.613  0.4945  0.8082  0.3073
 6455TIP3   OH219328   1.206   1.827   2.567  0.0844  0.0362 -0.3093
 6455TIP3    H119329   1.167   1.906   2.528  2.2826  1.7594  0.7834
 6455TIP3    H219330   1.183   1.833   2.660  0.0503 -0.7840 -0.2576
 6456TIP3   OH219331   3.689   5.444   4.258 -0.3362  0.2059 -0.1250
 6456TIP3    H119332   3.767   5.446   4.202  0.0511  2.0266  0.4270
 6456TIP3    H219333   3.661   5.535   4.263 -2.2163 -0.3507  0.1168
 6457TIP3   OH219334   2.506   6.081   5.287 -0.2205 -0.2389  0.4335
 6457TIP3    H119335   2.578   6.023   5.313  0.0028 -0.3421 -0.4100
 6457TIP3    H219336   2.541   6.169   5.299  1.0050 -0.2508 -2.4534
 6458TIP3   OH219337   1.633   2.584   1.070  0.1763  0.2306  0.0423
 6458TIP3    H119338   1.703   2.543   1.120  1.6824  0.4565 -1.7999
 6458TIP3    H219339   1.674   2.657   1.024 -1.4051  0.7694 -0.6117
 6459TIP3   OH219340   1.971   3.967   5.186 -0.2398 -0.1473 -0.4186
 6459TIP3    H119341   1.907   4.033   5.212 -0.8489 -0.3669 -1.3134
 6459TIP3    H219342   2.049   4.018   5.162 -0.3342  0.1704 -0.0679
 6460TIP3   OH219343   4.543   0.817   4.953 -0.3502 -0.1696  0.5253
 6460TIP3    H119344   4.629   0.780   4.934  1.0072  2.2055  1.6235
 6460TIP3    H219345   4.556   0.869   5.032 -2.9098 -0.0393  0.9449
 6461TIP3   OH219346   6.031   1.334   1.518  0.4831 -0.1053 -0.3071
 6461TIP3    H119347   6.083   1.323   1.438 -0.5154  0.3816 -1.0374
 6461TIP3    H219348   6.032   1.428   1.534 -0.7454 -0.0124 -0.7215
 6462TIP3   OH219349   2.770   0.497   5.433  0.3801 -0.1741 -0.0893
 6462TIP3    H119350   2.859   0.462   5.428  0.6186 -0.0119  2.0599
 6462TIP3    H219351   2.775   0.582   5.389  0.9614 -0.7085 -1.0871
 6463TIP3   OH219352   6.875   5.584   2.480  0.1305 -0.0679 -0.2321
 6463TIP3    H119353   6.924   5.510   2.443  1.7000  0.7488  0.1276
 6463TIP3    H219354   6.868   5.563   2.573 -1.8856 -1.0628 -0.5565
 6464TIP3   OH219355   0.946   3.474   0.776 -0.3295  0.0076 -0.7291
 6464TIP3    H119356   0.934   3.568   0.786  3.2441  0.6526 -1.3018
 6464TIP3    H219357   0.914   3.454   0.689 -0.4718  0.8294 -0.8689
 6465TIP3   OH219358   1.410   4.335   5.289 -0.1911 -0.6256  0.3754
 6465TIP3    H119359   1.439   4.390   5.362 -1.8380  0.6172  0.1521
 6465TIP3    H219360   1.361   4.394   5.232 -1.1493 -2.1212 -0.4218
 6466TIP3   OH219361   0.449   0.723   1.985 -0.4893  0.1580  0.0110
 6466TIP3    H119362   0.468   0.630   1.972 -0.4186 -0.0625  1.5816
 6466TIP3    H219363   0.413   0.752   1.900  0.5424 -1.0054 -0.8588
 6467TIP3   OH219364   5.622   5.898   3.029 -0.2879 -0.0732  0.0825
 6467TIP3    H119365   5.596   5.935   3.113 -2.5216 -0.5928 -0.3132
 6467TIP3    H219366   5.698   5.949   3.002  0.8616 -0.2763  2.6628
 6468TIP3   OH219367   3.694   0.376   3.057 -0.5997 -0.0557 -0.1517
 6468TIP3    H119368   3.652   0.457   3.085 -0.7748 -0.1945 -0.0115
 6468TIP3    H219369   3.788   0.393   3.067 -0.6738 -0.3599  1.2416
 6469TIP3   OH219370   6.407   3.861   4.762 -0.2061  0.2965  0.0197
 6469TIP3    H119371   6.468   3.906   4.821 -1.1049  1.6915 -0.0685
 6469TIP3    H219372   6.333   3.837   4.817  0.5108 -1.6813  0.1925
 6470TIP3   OH219373   5.207   0.355   0.545 -0.7612  0.0513 -0.0408
 6470TIP3    H119374   5.207   0.264   0.515 -1.6317 -0.2010  0.6815
 6470TIP3    H219375   5.272   0.358   0.615  1.3049  0.6505 -1.8751
 6471TIP3   OH219376   0.552   5.717   5.587  0.2459  0.1610 -0.2146
 6471TIP3    H119377   0.525   5.809   5.597  0.1143  0.0808  0.1680
 6471TIP3    H219378   0.591   5.695   5.671  2.6012  0.6338 -1.0828
 6472TIP3   OH219379   3.198   5.339   2.855 -0.1087  0.6566  0.3311
 6472TIP3    H119380   3.266   5.316   2.919  0.4475  1.3166 -0.0115
 6472TIP3    H219381   3.246   5.351   2.772 -0.4396  2.4355  0.3556
 6473TIP3   OH219382   4.119   0.712   0.975  0.2913 -0.2161 -0.2305
 6473TIP3    H119383   4.196   0.660   0.954 -0.6107 -1.1416 -1.3873
 6473TIP3    H219384   4.110   0.774   0.902  1.3187  1.6041  1.0997
 6474TIP3   OH219385   1.642   5.264   1.829  0.5299  0.6358  0.2229
 6474TIP3    H119386   1.564   5.289   1.779  1.5637  1.6512 -0.9362
 6474TIP3    H219387   1.712   5.319   1.795  2.1745 -1.4171  0.0411
 6475TIP3   OH219388   2.444   5.448   0.369  0.0911  0.5204  0.0299
 6475TIP3    H119389   2.485   5.386   0.429  1.0436  1.4980  0.4131
 6475TIP3    H219390   2.363   5.405   0.342  0.2711 -0.4794  1.0195
 6476TIP3   OH219391   5.421   5.036   4.932  0.4293 -0.5439  0.0534
 6476TIP3    H119392   5.488   5.008   4.995  1.6031  0.3308 -0.7748
 6476TIP3    H219393   5.378   4.954   4.906  1.9877 -1.2993 -0.2998
 6477TIP3   OH219394   2.842   4.642   1.202 -0.4329 -0.6297 -0.4787
 6477TIP3    H119395   2.901   4.602   1.139  0.4239  1.2941 -0.9919
 6477TIP3    H219396   2.892   4.716   1.237 -2.4033  0.8668 -0.6673
 6478TIP3   OH219397   3.812   2.171   4.796 -0.2835 -0.3482 -0.3051
 6478TIP3    H119398   3.766   2.243   4.754  0.1650  0.7833  1.0598
 6478TIP3    H219399   3.765   2.157   4.879  0.1994 -0.9954 -0.1256
 6479TIP3   OH219400   0.217   2.715   0.509  0.6227  0.0413  0.7025
 6479TIP3    H119401   0.133   2.693   0.469  0.2488 -0.3514  1.6781
 6479TIP3    H219402   0.276   2.646   0.480  0.4094 -0.1215  0.6582
 6480TIP3   OH219403   5.761   3.885   1.937 -0.2675  0.2011 -1.0622
 6480TIP3    H119404   5.747   3.970   1.978  1.3230 -0.3281  0.7188
 6480TIP3    H219405   5.797   3.907   1.850 -0.0234  1.3455 -0.6923
 6481TIP3   OH219406   2.736   2.657   5.848 -0.4556 -0.0335 -0.5101
 6481TIP3    H119407   2.760   2.749   5.839  1.0016 -0.3294  0.0726
 6481TIP3    H219408   2.758   2.618   5.764 -0.0040 -0.0688 -0.3767
 6482TIP3   OH219409   4.431   2.222   0.578 -0.2630 -0.1372  0.4643
 6482TIP3    H119410   4.406   2.142   0.531 -0.0826 -0.6293  1.1967
 6482TIP3    H219411   4.506   2.256   0.528  0.6675 -1.2856  1.0432
 6483TIP3   OH219412   4.314   5.309   0.738  0.3158  0.0942  0.0783
 6483TIP3    H119413   4.298   5.396   0.773 -1.1841  0.4160 -1.3046
 6483TIP3    H219414   4.232   5.262   0.752  1.5512 -1.6657  2.1914
 6484TIP3   OH219415   4.506   3.407   1.763 -0.9093  0.8047 -0.2626
 6484TIP3    H119416   4.559   3.373   1.691  0.2968 -1.2146  1.4685
 6484TIP3    H219417   4.416   3.390   1.735 -0.5192  0.7213 -1.5749
 6485TIP3   OH219418   0.846   6.064   0.970 -0.1890  0.0037  0.3709
 6485TIP3    H119419   0.929   6.105   0.994  0.2012  0.8434 -2.0811
 6485TIP3    H219420   0.782   6.101   1.031  0.6059  2.4192 -0.1335
 6486TIP3   OH219421   5.268   2.826   4.468  0.1470 -0.0268 -0.0873
 6486TIP3    H119422   5.321   2.896   4.508  0.0393  0.5764 -0.9737
 6486TIP3    H219423   5.190   2.870   4.435  0.4939 -0.3866 -1.4778
 6487TIP3   OH219424   5.227   4.382   2.841 -0.0448 -0.1274 -0.6500
 6487TIP3    H119425   5.279   4.393   2.920 -1.1514  2.6655 -0.1858
 6487TIP3    H219426   5.288   4.347   2.776  1.6318  0.3157  0.6190
 6488TIP3   OH219427   6.137   4.546   2.558 -0.0070 -0.0353  0.3277
 6488TIP3    H119428   6.190   4.625   2.557 -0.1020  0.0229 -0.6862
 6488TIP3    H219429   6.184   4.486   2.617  0.4735  0.4917  0.4835
 6489TIP3   OH219430   2.345   2.369   2.915 -0.0868 -0.4147  0.3253
 6489TIP3    H119431   2.289   2.322   2.854 -2.5241  1.1779  1.2180
 6489TIP3    H219432   2.334   2.324   2.998  3.0445 -2.4337 -0.1674
 6490TIP3   OH219433   1.218   0.304   5.809 -0.2114 -0.4379  0.1619
 6490TIP3    H119434   1.124   0.283   5.810  0.1192 -2.1259  1.9341
 6490TIP3    H219435   1.257   0.240   5.869  2.2920 -0.6852 -1.6122
 6491TIP3   OH219436   0.362   2.599   1.415  0.0503 -0.0646  0.2942
 6491TIP3    H119437   0.412   2.681   1.411 -1.6589  1.0312  0.4103
 6491TIP3    H219438   0.277   2.625   1.450 -1.2260 -1.5459 -1.5192
 6492TIP3   OH219439   3.099   2.717   0.072  0.7686 -0.4324 -0.6106
 6492TIP3    H119440   3.093   2.670   0.155  1.2311  0.1977 -0.2148
 6492TIP3    H219441   3.015   2.700   0.029  0.6890 -1.1046 -0.2028
 6493TIP3   OH219442   3.758   2.405   1.286  0.1026 -0.1071 -0.1258
 6493TIP3    H119443   3.830   2.343   1.289  1.0386  0.9673  0.1170
 6493TIP3    H219444   3.756   2.436   1.196  1.4396  1.5306  0.3515
 6494TIP3   OH219445   0.392   1.900   0.935 -0.1462  0.0653 -0.8275
 6494TIP3    H119446   0.392   1.890   0.839 -1.6672 -0.9685 -0.7662
 6494TIP3    H219447   0.310   1.946   0.953 -0.4312 -0.7447  0.0401
 6495TIP3   OH219448   6.246   2.605   4.666 -0.4980  0.7121 -0.4106
 6495TIP3    H119449   6.239   2.686   4.716  1.5586  1.3475 -1.0325
 6495TIP3    H219450   6.252   2.633   4.574  1.4656  0.0177 -0.5536
 6496TIP3   OH219451   2.089   0.519   1.284 -0.4568  0.4235  0.0367
 6496TIP3    H119452   2.014   0.568   1.248 -0.6172  0.0153 -0.1955
 6496TIP3    H219453   2.057   0.484   1.367 -0.1965  1.0794  0.4246
 6497TIP3   OH219454   2.151   3.496   0.512 -0.0780  0.3403  0.1645
 6497TIP3    H119455   2.244   3.477   0.519 -0.5829 -1.8002  2.2001
 6497TIP3    H219456   2.139   3.576   0.564  0.8411  1.8785 -1.8194
 6498TIP3   OH219457   4.812   0.183   4.392  0.2238 -0.5516  0.1851
 6498TIP3    H119458   4.833   0.090   4.383 -1.9385 -1.2527  1.6029
 6498TIP3    H219459   4.869   0.213   4.463  1.6448 -0.4838 -0.9327
 6499TIP3   OH219460   5.948   0.926   1.619 -0.1632 -0.4075  0.2458
 6499TIP3    H119461   5.868   0.979   1.615 -0.2223 -0.4643  0.6107
 6499TIP3    H219462   6.008   0.978   1.673 -0.0115 -0.4383  0.1052
 6500TIP3   OH219463   2.047   5.760   4.259 -0.5725 -0.0587 -0.0153
 6500TIP3    H119464   2.041   5.690   4.325 -1.0767  0.4275  0.4594
 6500TIP3    H219465   2.106   5.824   4.298  0.2259 -0.3957 -0.6291
 6501TIP3   OH219466   3.678   2.420   1.876  0.5443 -0.3670 -0.0962
 6501TIP3    H119467   3.625   2.395   1.951  1.4686 -1.5794  0.1909
 6501TIP3    H219468   3.617   2.461   1.815 -0.4293 -0.4182  0.8219
 6502TIP3   OH219469   3.209   5.703   0.695 -0.1884 -0.7645 -0.1851
 6502TIP3    H119470   3.202   5.608   0.685  0.4490 -0.7276 -1.1480
 6502TIP3    H219471   3.166   5.738   0.617 -1.3434 -0.2220  0.6701
 6503TIP3   OH219472   4.715   6.468   3.701  0.7356  0.2803 -0.3096
 6503TIP3    H119473   4.723   6.491   3.609 -0.6704 -2.1468 -1.1603
 6503TIP3    H219474   4.778   6.397   3.714 -0.8853 -1.2154 -0.1908
 6504TIP3   OH219475   5.855   1.792   5.544  0.3389  0.1599  0.3827
 6504TIP3    H119476   5.817   1.878   5.528  1.7855  0.3843 -2.5324
 6504TIP3    H219477   5.812   1.734   5.481  1.7225 -0.4899 -0.0066
 6505TIP3   OH219478   4.182   2.825   1.900  0.6785  0.4140  0.3544
 6505TIP3    H119479   4.255   2.836   1.961  0.3484  1.6713  0.5479
 6505TIP3    H219480   4.210   2.870   1.820  0.8347 -0.6502 -0.2061
 6506TIP3   OH219481   1.818   5.077   4.199 -0.9348 -0.1313  0.4915
 6506TIP3    H119482   1.773   5.049   4.279  0.7010 -0.0515  1.4896
 6506TIP3    H219483   1.905   5.039   4.206  0.3060  2.4581  0.3114
 6507TIP3   OH219484   7.054   0.508   1.700  0.1500  0.2489  0.2423
 6507TIP3    H119485   6.971   0.498   1.747 -0.2232 -3.4888 -0.9133
 6507TIP3    H219486   7.118   0.462   1.755  0.4243 -1.0064 -1.0494
 6508TIP3   OH219487   2.027   6.389   3.256 -0.6899  0.1105  0.9776
 6508TIP3    H119488   2.095   6.359   3.316 -1.3375 -1.0242  1.1939
 6508TIP3    H219489   1.945   6.378   3.305 -1.0289  1.7316  0.8328
 6509TIP3   OH219490   3.965   2.176   2.777 -0.8216 -0.0768 -0.1952
 6509TIP3    H119491   3.888   2.120   2.781 -0.3381 -0.7978 -0.7759
 6509TIP3    H219492   3.929   2.263   2.758 -1.4404 -0.6158 -1.7044
 6510TIP3   OH219493   1.555   5.781   2.382  0.3948 -0.0664  0.6093
 6510TIP3    H119494   1.631   5.761   2.327  0.3711  0.8497  0.2194
 6510TIP3    H219495   1.578   5.747   2.468 -0.2377 -3.0641 -0.2758
 6511TIP3   OH219496   0.835   0.946   4.253 -0.6445 -0.0280 -0.3704
 6511TIP3    H119497   0.830   0.854   4.280 -1.0960  0.0268 -0.2660
 6511TIP3    H219498   0.785   0.993   4.319 -0.0091  0.3576 -0.1544
 6512TIP3   OH219499   2.633   2.224   5.197  0.6392  0.4594  0.7436
 6512TIP3    H119500   2.621   2.292   5.131 -1.2807 -0.6068 -0.1105
 6512TIP3    H219501   2.653   2.145   5.147  0.4188 -0.1071  1.5260
 6513TIP3   OH219502   6.097   3.355   3.390  0.3981 -0.3682 -0.0247
 6513TIP3    H119503   6.058   3.267   3.388  0.1145 -0.2356 -0.7801
 6513TIP3    H219504   6.181   3.345   3.345  1.0725 -0.5613  1.2231
 6514TIP3   OH219505   1.074   5.849   3.287 -0.4632  0.4672 -0.7629
 6514TIP3    H119506   1.025   5.931   3.297 -1.1523 -0.1875  2.1078
 6514TIP3    H219507   1.010   5.780   3.306  0.8820 -0.5324  0.4007
 6515TIP3   OH219508   1.362   6.488   3.144 -0.0156  0.0842  0.0207
 6515TIP3    H119509   1.434   6.529   3.192 -1.2469  1.6829  0.6235
 6515TIP3    H219510   1.369   6.522   3.055  0.7692 -0.8546 -0.2825
 6516TIP3   OH219511   1.987   4.665   4.765  0.1164  0.3164  0.3550
 6516TIP3    H119512   1.933   4.727   4.813 -0.6987  1.6576 -2.1098
 6516TIP3    H219513   1.927   4.623   4.704  1.2330 -0.6786 -0.1101
 6517TIP3   OH219514   6.268   2.068   4.185  0.2843 -0.2009  0.3494
 6517TIP3    H119515   6.337   2.001   4.189 -0.7890 -1.4334 -0.8377
 6517TIP3    H219516   6.221   2.058   4.268  1.6349  0.8022  1.2695
 6518TIP3   OH219517   1.073   1.467   3.645  0.0303 -0.0763  0.0100
 6518TIP3    H119518   1.072   1.538   3.580 -2.0617  1.4298  1.5626
 6518TIP3    H219519   1.082   1.387   3.593 -0.9938  1.1048 -2.1137
 6519TIP3   OH219520   6.057   4.019   2.143  0.3183 -0.1375 -0.5065
 6519TIP3    H119521   6.062   4.006   2.049 -0.1183 -0.3901 -0.4964
 6519TIP3    H219522   6.148   4.022   2.172  0.4525 -0.0611 -0.9348
 6520TIP3   OH219523   5.958   1.259   5.733  0.3981  0.3862  0.5082
 6520TIP3    H119524   5.976   1.208   5.812 -0.0591  0.5935  0.7462
 6520TIP3    H219525   5.925   1.343   5.764  0.5179  0.5880  0.1031
 6521TIP3   OH219526   0.165   5.882   0.259  0.6221  0.2264 -0.2435
 6521TIP3    H119527   0.155   5.947   0.329 -0.7938  1.0068 -1.1296
 6521TIP3    H219528   0.237   5.826   0.289 -0.5730 -0.0971  2.3271
 6522TIP3   OH219529   2.506   2.318   4.899  0.2229 -0.0315  0.0030
 6522TIP3    H119530   2.464   2.351   4.978 -0.0097 -1.3961  0.4661
 6522TIP3    H219531   2.436   2.318   4.833 -0.2997 -1.4298  0.5287
 6523TIP3   OH219532   6.232   1.222   3.556 -0.4115  0.0019 -0.1039
 6523TIP3    H119533   6.210   1.151   3.497 -0.7335 -1.1832  1.3821
 6523TIP3    H219534   6.226   1.301   3.502 -2.1116 -0.8781 -1.2882
 6524TIP3   OH219535   2.450   0.555   5.317 -0.1051 -0.5536  0.6331
 6524TIP3    H119536   2.400   0.477   5.289  0.2723 -0.8103  0.6679
 6524TIP3    H219537   2.509   0.522   5.385  0.6516 -0.4139  0.0548
 6525TIP3   OH219538   6.320   4.246   3.903  0.1499  0.2879  0.2627
 6525TIP3    H119539   6.404   4.209   3.876 -0.4633 -2.1616  1.4681
 6525TIP3    H219540   6.344   4.316   3.965  1.2979  0.4048 -0.2802
 6526TIP3   OH219541   3.542   6.149   5.233  0.4807 -0.2136  0.1459
 6526TIP3    H119542   3.561   6.166   5.325  1.1662  1.0349 -0.2052
 6526TIP3    H219543   3.451   6.117   5.232 -0.1554  1.4464  1.1034
 6527TIP3   OH219544   1.251   5.419   0.581 -0.1717 -0.4706  0.7271
 6527TIP3    H119545   1.264   5.324   0.581  0.4360 -0.3943  0.2390
 6527TIP3    H219546   1.318   5.452   0.521 -0.7952  0.2073  0.3888
 6528TIP3   OH219547   3.724   5.836   0.328 -0.6040 -0.3061 -0.7507
 6528TIP3    H119548   3.730   5.741   0.338 -0.1861 -0.2520 -0.4829
 6528TIP3    H219549   3.634   5.857   0.354 -0.1588 -0.4080  1.0383
 6529TIP3   OH219550   6.198   4.150   3.319  0.5442  0.3150 -0.4610
 6529TIP3    H119551   6.156   4.228   3.357  1.0748 -0.1812  1.2428
 6529TIP3    H219552   6.130   4.112   3.263  0.4918  2.3292 -1.8806
 6530TIP3   OH219553   1.500   4.687   0.516 -0.3362 -0.6908  0.2453
 6530TIP3    H119554   1.520   4.609   0.569  0.4469 -0.7096 -0.0728
 6530TIP3    H219555   1.418   4.664   0.470  0.0275 -1.4362 -0.0474
 6531TIP3   OH219556   4.377   5.905   4.301  0.0090 -0.1504  0.3735
 6531TIP3    H119557   4.355   5.995   4.322  1.4910  0.0006  1.4013
 6531TIP3    H219558   4.330   5.887   4.219 -0.3601  1.5126  0.1972
 6532TIP3   OH219559   0.030   4.946   0.589 -0.2567 -0.3376  0.7593
 6532TIP3    H119560   0.084   4.879   0.630 -0.1032 -0.4533  0.3683
 6532TIP3    H219561   0.005   4.909   0.505 -0.0277  0.1595  0.4683
 6533TIP3   OH219562   3.612   1.301   5.692  0.0504  0.3747  0.4580
 6533TIP3    H119563   3.603   1.329   5.601  0.1853 -0.7364  0.0875
 6533TIP3    H219564   3.608   1.206   5.688  2.3569  0.1804  1.3505
 6534TIP3   OH219565   3.090   5.753   0.208 -0.4515 -0.2724  0.3559
 6534TIP3    H119566   3.063   5.723   0.121  1.4810 -0.0552 -0.3749
 6534TIP3    H219567   3.149   5.826   0.190  0.3363 -0.5142  1.8454
 6535TIP3   OH219568  -0.001   6.753   4.767 -0.3179 -0.0242  0.1634
 6535TIP3    H119569   0.093   6.764   4.776  0.1124  0.3977 -3.4269
 6535TIP3    H219570  -0.031   6.832   4.723 -2.0414 -0.8503 -0.2457
 6536TIP3   OH219571   3.268   6.491   0.616 -0.1190  0.8888 -0.1137
 6536TIP3    H119572   3.343   6.432   0.625  0.1098  1.0465 -0.8620
 6536TIP3    H219573   3.293   6.549   0.543 -1.4434  0.2059 -1.1473
 6537TIP3   OH219574   7.092   6.422   0.939 -0.0175 -0.3377 -0.0459
 6537TIP3    H119575   7.078   6.329   0.918  0.9869 -0.5116 -0.0126
 6537TIP3    H219576   7.137   6.457   0.862 -2.4072  0.7097 -1.0601
 6538TIP3   OH219577   6.878   5.515   0.765 -0.3064  0.2091 -0.4290
 6538TIP3    H119578   6.885   5.436   0.712 -0.0418  0.6957 -1.1368
 6538TIP3    H219579   6.862   5.483   0.854 -0.4632 -0.6257 -0.7492
 6539TIP3   OH219580   4.883   1.686   0.759  0.5602 -0.2623  0.0134
 6539TIP3    H119581   4.968   1.717   0.726  0.0289  0.6970 -0.4944
 6539TIP3    H219582   4.878   1.595   0.730  1.2142 -0.1892 -0.3590
 6540TIP3   OH219583   3.636   4.891   1.680 -0.3004 -0.2579 -0.4533
 6540TIP3    H119584   3.657   4.802   1.652  0.9773  0.0663 -0.5747
 6540TIP3    H219585   3.581   4.879   1.758 -0.2694 -1.1525 -0.5583
 6541TIP3   OH219586   4.039   4.792   4.481  0.3976 -0.2462  0.3147
 6541TIP3    H119587   4.016   4.701   4.463 -0.8087  0.3028 -1.1160
 6541TIP3    H219588   4.135   4.793   4.478  0.4152 -1.3553 -0.3111
 6542TIP3   OH219589   1.593   1.354   3.297 -0.4194  0.3802 -0.0327
 6542TIP3    H119590   1.530   1.387   3.361 -0.1699  0.7101  0.0388
 6542TIP3    H219591   1.671   1.408   3.308 -0.6085  0.8885 -1.0791
 6543TIP3   OH219592   5.785   0.112   5.107  0.0863 -0.2531  0.1833
 6543TIP3    H119593   5.804   0.050   5.037  1.8581  0.6068 -0.1611
 6543TIP3    H219594   5.848   0.183   5.094 -1.2246  1.1500  1.1476
 6544TIP3   OH219595   3.222   4.311   4.147 -0.2713 -0.6260 -0.0230
 6544TIP3    H119596   3.233   4.375   4.217  1.1224 -1.3254  0.4434
 6544TIP3    H219597   3.245   4.227   4.187  0.0054 -1.1200 -1.1596
 6545TIP3   OH219598   5.299   4.805   5.387 -0.0652  0.0229 -0.4288
 6545TIP3    H119599   5.388   4.833   5.365 -1.1253  1.9201 -2.6808
 6545TIP3    H219600   5.283   4.839   5.474  1.7470 -1.3245  0.5009
 6546TIP3   OH219601   0.102   3.776   4.830 -0.1846 -0.2799  0.2661
 6546TIP3    H119602   0.155   3.832   4.886 -2.4842  2.0120  0.3557
 6546TIP3    H219603   0.073   3.705   4.888  2.3998 -1.4202  0.2695
 6547TIP3   OH219604   2.807   3.848   0.843  0.7112 -0.2216 -0.1786
 6547TIP3    H119605   2.726   3.882   0.806  1.3051  0.3783 -0.9775
 6547TIP3    H219606   2.849   3.925   0.882  1.3740 -0.3120 -0.6980
 6548TIP3   OH219607   4.213   6.529   4.560 -0.1240  0.8981  0.1642
 6548TIP3    H119608   4.270   6.505   4.487 -0.5887  0.6228 -0.1160
 6548TIP3    H219609   4.188   6.619   4.542  0.7110  1.2286  0.6149
 6549TIP3   OH219610   2.703   6.545   2.951  0.0395 -0.2684  0.0594
 6549TIP3    H119611   2.794   6.533   2.977 -0.1078 -0.3076  0.5607
 6549TIP3    H219612   2.694   6.494   2.870  1.2090  1.9511 -1.6045
 6550TIP3   OH219613   1.955   3.227   1.102  0.0186 -0.1283 -0.0381
 6550TIP3    H119614   1.972   3.321   1.103 -2.0653  0.3180  0.6038
 6550TIP3    H219615   1.986   3.197   1.017 -0.1096  1.3373 -0.6328
 6551TIP3   OH219616   4.625   3.784   2.707  0.1304 -0.6023 -0.3372
 6551TIP3    H119617   4.561   3.829   2.762 -0.3305 -0.5755 -0.8833
 6551TIP3    H219618   4.632   3.839   2.629 -0.2088 -1.3020 -0.8763
 6552TIP3   OH219619   6.293   0.575   2.925  0.0204 -0.4661  0.1615
 6552TIP3    H119620   6.358   0.623   2.873  0.2705 -0.2141  0.7018
 6552TIP3    H219621   6.300   0.612   3.013 -0.6046 -0.6895  0.3106
 6553TIP3   OH219622   4.102   1.031   1.832 -0.1439  0.3341  0.3685
 6553TIP3    H119623   4.127   1.025   1.924 -0.2705 -2.3851  0.3022
 6553TIP3    H219624   4.176   1.075   1.790  0.8487 -0.2356  1.4611
 6554TIP3   OH219625   1.794   6.592   5.134  0.3580  0.2607  0.1826
 6554TIP3    H119626   1.844   6.612   5.213 -1.8194  0.7248  1.5111
 6554TIP3    H219627   1.759   6.677   5.106 -0.1988 -0.1438 -0.3603
 6555TIP3   OH219628   6.851   2.461   5.414  0.1034  0.4072 -0.1908
 6555TIP3    H119629   6.909   2.536   5.423  0.6145 -0.0810  0.6795
 6555TIP3    H219630   6.833   2.455   5.320  2.1962  0.0264 -0.6128
 6556TIP3   OH219631   5.187   0.521   3.681 -0.1199  0.0421  0.0439
 6556TIP3    H119632   5.181   0.442   3.628  1.8114 -0.9047  1.1453
 6556TIP3    H219633   5.137   0.502   3.760  1.3872 -0.6473  0.8856
 6557TIP3   OH219634   4.685   3.270   1.308 -0.8878  0.4571  0.0290
 6557TIP3    H119635   4.729   3.302   1.387  0.1988 -2.0896  0.5726
 6557TIP3    H219636   4.745   3.290   1.237 -1.2186  1.4796  0.0161
 6558TIP3   OH219637   5.533   6.496   4.419  0.6257 -0.3420 -0.8634
 6558TIP3    H119638   5.455   6.529   4.374  0.1643  2.0320  1.4308
 6558TIP3    H219639   5.606   6.541   4.376  0.4020  0.0840 -0.8088
 6559TIP3   OH219640   0.124   6.404   2.431 -0.1151  0.2748 -0.2053
 6559TIP3    H119641   0.112   6.370   2.342  0.2239 -1.0592  0.2343
 6559TIP3    H219642   0.038   6.399   2.471  0.0207 -0.5610  0.0071
 6560TIP3   OH219643   1.903   6.213   0.869 -0.0411  0.6443 -0.2525
 6560TIP3    H119644   1.807   6.215   0.880  0.1033 -0.6290  1.8066
 6560TIP3    H219645   1.935   6.276   0.933  0.5303  1.1472 -1.0180
 6561TIP3   OH219646   5.749   0.889   5.470 -0.0488  0.0789 -0.7191
 6561TIP3    H119647   5.695   0.814   5.448  0.0068 -0.5090  0.9944
 6561TIP3    H219648   5.705   0.963   5.428 -0.6537 -0.7504 -1.5981
 6562TIP3   OH219649   6.290   6.125   0.909 -0.0163  0.1851 -0.0876
 6562TIP3    H119650   6.374   6.119   0.953  0.2268 -0.2918 -0.6177
 6562TIP3    H219651   6.231   6.160   0.976  0.9981  2.3402 -0.2350
 6563TIP3   OH219652   1.764   5.812   3.264 -0.3559 -0.2158 -0.0298
 6563TIP3    H119653   1.790   5.723   3.285  0.0504 -0.4473 -1.4640
 6563TIP3    H219654   1.845   5.863   3.272  0.1485 -0.5619 -2.3599
 6564TIP3   OH219655   0.494   3.370   0.059 -0.2375 -0.5771  0.0602
 6564TIP3    H119656   0.438   3.447   0.056 -0.0785 -0.2589  2.6247
 6564TIP3    H219657   0.552   3.379  -0.017 -2.6155 -0.1501 -1.7932
 6565TIP3   OH219658   4.096   3.505   2.347  0.2498  0.5926  0.4965
 6565TIP3    H119659   4.039   3.500   2.270  1.0680  3.0107 -0.3665
 6565TIP3    H219660   4.154   3.429   2.340 -0.4401  0.1571 -0.6442
 6566TIP3   OH219661   4.738   0.930   2.092  0.4111  0.4653  0.4656
 6566TIP3    H119662   4.806   0.954   2.155 -0.6188  1.6720  1.1528
 6566TIP3    H219663   4.689   0.860   2.135  1.5006 -0.7969 -0.2556
 6567TIP3   OH219664   2.691   5.512   3.077 -0.3368 -0.0563  0.0681
 6567TIP3    H119665   2.712   5.526   2.985  0.1094 -2.0141 -0.1721
 6567TIP3    H219666   2.609   5.463   3.075 -0.8769  0.7865  0.7711
 6568TIP3   OH219667   2.518   3.492   5.474  0.3572 -0.6342  0.1200
 6568TIP3    H119668   2.494   3.584   5.486  1.8135 -0.1268 -0.6225
 6568TIP3    H219669   2.444   3.453   5.428 -0.0454  0.2946 -0.0303
 6569TIP3   OH219670   2.913   5.130   5.470  0.5671  0.2301  0.2009
 6569TIP3    H119671   2.863   5.156   5.393  0.2504  0.0177  0.3312
 6569TIP3    H219672   2.979   5.198   5.480 -0.2733  1.0167  0.5720
 6570TIP3   OH219673   3.895   1.139   3.163 -0.5124 -0.0683 -0.3275
 6570TIP3    H119674   3.939   1.167   3.082 -0.2251 -0.9057 -0.4744
 6570TIP3    H219675   3.964   1.142   3.229 -0.8652  1.1019  0.0138
 6571TIP3   OH219676   2.192   2.432   3.830  0.4771 -0.2190 -0.6649
 6571TIP3    H119677   2.222   2.522   3.845  0.9495 -0.3459 -0.8433
 6571TIP3    H219678   2.256   2.394   3.771 -0.4730 -0.2517 -1.7085
 6572TIP3   OH219679   6.771   0.265   4.368  0.0996  0.6467 -0.0784
 6572TIP3    H119680   6.852   0.301   4.331 -0.1630  0.4110 -0.9159
 6572TIP3    H219681   6.701   0.313   4.322 -0.2573 -0.9919 -1.3336
 6573TIP3   OH219682   6.209   3.098   2.797  0.5452 -0.6121 -1.0515
 6573TIP3    H119683   6.231   3.035   2.865  0.6827 -2.1044 -2.4112
 6573TIP3    H219684   6.286   3.155   2.791  0.8247 -0.9220 -0.4736
 6574TIP3   OH219685   3.597   3.493   2.455  0.2121  0.1464 -0.1647
 6574TIP3    H119686   3.650   3.527   2.384  0.5191  0.8508  0.3951
 6574TIP3    H219687   3.514   3.468   2.414  0.7971 -0.5205 -0.9570
 6575TIP3   OH219688   2.195   2.153   5.127 -0.6752 -0.2481  0.4862
 6575TIP3    H119689   2.218   2.140   5.035 -0.8771  1.1075  0.2222
 6575TIP3    H219690   2.277   2.178   5.170 -0.6843 -0.3434  0.5600
 6576TIP3   OH219691   2.659   5.219   3.841  0.5649 -0.2495 -0.2551
 6576TIP3    H119692   2.645   5.298   3.789  1.4841  0.9980  1.3033
 6576TIP3    H219693   2.603   5.231   3.918 -0.5028 -1.8850 -0.7321
 6577TIP3   OH219694   1.381   0.862   4.807  0.3961  0.7102 -0.1878
 6577TIP3    H119695   1.400   0.918   4.883  1.1285 -0.0515  0.2074
 6577TIP3    H219696   1.316   0.800   4.840  0.8688  0.2494 -0.1212
 6578TIP3   OH219697   6.094   4.566   0.817  0.1977 -0.0989 -0.5186
 6578TIP3    H119698   6.066   4.657   0.829  0.4385  0.0401 -0.9916
 6578TIP3    H219699   6.022   4.514   0.854 -0.9316  0.2415 -2.1430
 6579TIP3   OH219700   3.815   1.427   1.446  0.1729  0.6259 -0.6570
 6579TIP3    H119701   3.730   1.434   1.403  0.1115 -1.0330 -0.8485
 6579TIP3    H219702   3.799   1.456   1.536 -0.5654  0.4374 -0.7260
 6580TIP3   OH219703   5.701   5.148   0.162  0.0962 -0.3828 -0.1755
 6580TIP3    H119704   5.640   5.220   0.145 -1.0512 -1.2672  0.0451
 6580TIP3    H219705   5.730   5.120   0.075 -0.9196 -0.8571 -0.3767
 6581TIP3   OH219706   6.657   2.639   1.011 -0.3425  0.8995 -0.1816
 6581TIP3    H119707   6.723   2.693   0.967  0.6965 -0.4287 -0.3205
 6581TIP3    H219708   6.574   2.676   0.982  0.3215  1.6433 -1.2680
 6582TIP3   OH219709   6.742   5.978   2.590  0.5103  0.0226 -0.2752
 6582TIP3    H119710   6.798   5.914   2.546 -0.3797 -1.7546  1.0541
 6582TIP3    H219711   6.738   5.948   2.681 -1.3250  1.0006  0.0174
 6583TIP3   OH219712   0.746   3.585   1.975  0.3046  0.5663 -0.6888
 6583TIP3    H119713   0.815   3.555   1.917  0.9972  1.4135 -0.3196
 6583TIP3    H219714   0.669   3.534   1.949  1.5786 -2.0977  0.4294
 6584TIP3   OH219715   5.984   3.591   2.984  0.1566 -0.5197 -0.3912
 6584TIP3    H119716   6.068   3.635   2.975  0.0019 -0.0478  0.4096
 6584TIP3    H219717   5.929   3.629   2.915  0.7813 -1.3016 -1.3437
 6585TIP3   OH219718   1.282   1.119   5.035 -0.1786  0.1009 -0.3889
 6585TIP3    H119719   1.233   1.188   5.079  0.8229  0.9395 -0.5455
 6585TIP3    H219720   1.372   1.129   5.066  0.1496 -0.5992 -1.0530
 6586TIP3   OH219721   3.931   3.624   2.546 -0.5552 -0.4781  0.0910
 6586TIP3    H119722   3.997   3.671   2.597 -0.3430 -0.1744 -0.4534
 6586TIP3    H219723   3.980   3.559   2.496 -0.5710  0.1827 -0.8169
 6587TIP3   OH219724   5.412   0.386   2.586  0.6283  0.2476  0.4239
 6587TIP3    H119725   5.391   0.420   2.500  0.7803 -1.8016 -0.4915
 6587TIP3    H219726   5.507   0.392   2.593  0.5473  1.1945  0.8195
 6588TIP3   OH219727   2.768   6.130   1.706 -0.4201 -0.4070 -0.4988
 6588TIP3    H119728   2.781   6.107   1.614  1.2312 -3.2762  0.3216
 6588TIP3    H219729   2.694   6.076   1.734 -0.6444  0.1397  0.0005
 6589TIP3   OH219730   0.693   2.700   4.311  0.1578 -0.1740 -0.5930
 6589TIP3    H119731   0.715   2.791   4.331  1.5316 -0.2344 -1.7157
 6589TIP3    H219732   0.611   2.706   4.262  0.1857  0.4472 -0.5727
 6590TIP3   OH219733   5.184   1.385   4.156 -0.2928  0.1003 -1.0242
 6590TIP3    H119734   5.236   1.437   4.095 -1.8017  0.4898 -2.0264
 6590TIP3    H219735   5.118   1.445   4.190 -0.9217 -0.6937 -0.7992
 6591TIP3   OH219736   1.917   2.253   5.718  0.0034 -0.6081  0.0439
 6591TIP3    H119737   1.863   2.309   5.662  0.8204  0.8786  0.6818
 6591TIP3    H219738   1.855   2.201   5.768 -0.7543 -1.4422 -1.6891
 6592TIP3   OH219739   6.399   1.118   0.097  0.0898 -0.1932 -0.1938
 6592TIP3    H119740   6.403   1.214   0.101 -2.2243 -0.0287 -0.0282
 6592TIP3    H219741   6.410   1.090   0.188 -1.2220  0.1027  0.0883
 6593TIP3   OH219742   0.585   6.780   2.542 -0.6483  0.0419  0.2306
 6593TIP3    H119743   0.580   6.692   2.578  0.6524 -0.8482 -1.6011
 6593TIP3    H219744   0.597   6.767   2.448  0.5864  2.1335  0.0255
 6594TIP3   OH219745   0.128   4.350   0.249 -0.3485  0.2668 -0.3799
 6594TIP3    H119746   0.078   4.342   0.167  0.7027  0.9814 -1.1201
 6594TIP3    H219747   0.211   4.307   0.231 -0.4433 -0.3649  0.6309
 6595TIP3   OH219748   0.417   5.286   4.608 -0.0890 -0.0297  0.3706
 6595TIP3    H119749   0.353   5.216   4.610  1.1036 -1.2455 -1.0655
 6595TIP3    H219750   0.416   5.316   4.517 -0.2625  1.5512  0.8592
 6596TIP3   OH219751   2.852   3.989   1.920 -0.3507  0.3955  0.0849
 6596TIP3    H119752   2.823   4.007   2.009  1.2852  0.7383  0.5747
 6596TIP3    H219753   2.801   3.911   1.894  0.3081 -0.7124  1.9181
 6597TIP3   OH219754   0.529   4.493   2.137  0.4625  0.3294  0.3976
 6597TIP3    H119755   0.451   4.525   2.091  1.0525  1.5508  0.2127
 6597TIP3    H219756   0.540   4.403   2.105 -1.1185 -0.0362  0.7739
 6598TIP3   OH219757   6.007   1.513   3.366 -0.3021 -0.0293  0.0386
 6598TIP3    H119758   6.098   1.486   3.381 -0.6591 -0.4294  1.6522
 6598TIP3    H219759   5.959   1.476   3.439 -1.6442  0.8523 -0.3702
 6599TIP3   OH219760   0.404   2.451   4.098  0.1893  0.0138 -0.3340
 6599TIP3    H119761   0.339   2.490   4.040 -1.4501 -0.7138  0.9342
 6599TIP3    H219762   0.434   2.524   4.152 -0.0722  0.2236 -0.4725
 6600TIP3   OH219763   1.955   3.802   3.506  0.1792  0.4952 -0.7641
 6600TIP3    H119764   1.864   3.820   3.528  0.3473  1.2545 -0.6573
 6600TIP3    H219765   2.005   3.833   3.582  0.5873  0.9041 -1.1897
 6601TIP3   OH219766   6.496   2.456   2.137  0.3595  0.3441 -0.0569
 6601TIP3    H119767   6.456   2.520   2.079  0.1199 -1.8409 -2.4996
 6601TIP3    H219768   6.590   2.469   2.127  0.3396  1.6291  1.1238
 6602TIP3   OH219769   1.057   1.027   3.936 -0.4731 -0.3135 -0.3948
 6602TIP3    H119770   1.124   1.095   3.929 -0.4035 -0.4554 -1.3023
 6602TIP3    H219771   1.038   1.004   3.845 -1.3739 -0.6475 -0.1261
 6603TIP3   OH219772   5.434   3.599   2.235  0.0839  0.0500 -0.3544
 6603TIP3    H119773   5.457   3.540   2.307 -0.4320 -0.5632 -0.6902
 6603TIP3    H219774   5.430   3.686   2.276  1.2120 -0.0809  0.0630
 6604TIP3   OH219775   4.844   4.353   1.147 -0.2014 -0.2416 -0.5925
 6604TIP3    H119776   4.789   4.275   1.156 -1.1763  0.4966  0.0031
 6604TIP3    H219777   4.865   4.357   1.054 -1.8526 -0.0970 -0.9953
 6605TIP3   OH219778   7.096   2.021   3.294 -0.1062 -0.1849  0.1303
 6605TIP3    H119779   7.173   2.071   3.268 -0.3212 -0.6047 -1.3913
 6605TIP3    H219780   7.029   2.087   3.312 -0.2559  0.1324 -1.4296
 6606TIP3   OH219781   0.322   3.079   3.706  0.1094 -0.1933  0.1162
 6606TIP3    H119782   0.259   3.135   3.661 -1.1763 -2.6715 -1.4576
 6606TIP3    H219783   0.324   3.112   3.796 -1.9823  1.1797 -0.2642
 6607TIP3   OH219784   0.482   6.493   4.912  0.2097 -0.1255 -0.0932
 6607TIP3    H119785   0.428   6.510   4.835  1.3695 -2.0898 -1.4324
 6607TIP3    H219786   0.427   6.441   4.969  0.2646 -1.1154 -0.9224
 6608TIP3   OH219787   4.123   1.042   4.165  0.3815 -0.2236 -0.0074
 6608TIP3    H119788   4.133   0.959   4.210 -0.3655 -0.0643  0.4673
 6608TIP3    H219789   4.087   1.102   4.231 -4.1196 -0.8570 -1.5400
 6609TIP3   OH219790   2.664   0.644   1.261 -0.2799 -0.3188  0.2400
 6609TIP3    H119791   2.606   0.569   1.254  1.3271 -1.9418  2.6061
 6609TIP3    H219792   2.681   0.652   1.355  0.0710  2.6766  0.0078
 6610TIP3   OH219793   5.290   4.040   4.819  0.4333 -0.0521 -0.4934
 6610TIP3    H119794   5.310   4.134   4.820  2.5940 -0.4263  2.3672
 6610TIP3    H219795   5.332   4.008   4.739  0.1208  1.2791 -1.2310
 6611TIP3   OH219796   5.455   4.812   1.735 -0.7431  0.3330  0.5350
 6611TIP3    H119797   5.452   4.860   1.818 -1.3077  1.8886 -0.3649
 6611TIP3    H219798   5.532   4.847   1.690 -1.1493  0.3973 -0.1233
 6612TIP3   OH219799   1.370   3.900   0.564  0.2633  0.1938  0.5350
 6612TIP3    H119800   1.289   3.908   0.614  0.3345  0.3646  0.6230
 6612TIP3    H219801   1.367   3.811   0.529  0.3658 -0.0393  1.1050
 6613TIP3   OH219802   0.204   5.072   4.400  0.2011 -0.1464 -0.9999
 6613TIP3    H119803   0.267   5.016   4.445 -1.7950 -2.4245 -0.8456
 6613TIP3    H219804   0.205   5.041   4.309  1.3283  1.7712 -1.7064
 6614TIP3   OH219805   2.367   1.131   0.010 -1.2104 -0.3560  0.1027
 6614TIP3    H119806   2.420   1.051   0.007 -2.5133 -1.2333 -0.2293
 6614TIP3    H219807   2.421   1.193   0.059  0.5416 -0.8920 -1.0195
 6615TIP3   OH219808   0.921   3.617   4.068 -0.1136  0.7632  0.0144
 6615TIP3    H119809   1.000   3.652   4.026  1.8980 -1.6687  1.4608
 6615TIP3    H219810   0.930   3.641   4.160 -0.3682 -0.6416  0.4244
 6616TIP3   OH219811   4.705   4.420   0.154  0.0343 -0.2586 -0.3990
 6616TIP3    H119812   4.625   4.467   0.178  1.4436  1.5363  1.1455
 6616TIP3    H219813   4.717   4.357   0.225  0.7439  0.5316  0.2118
 6617TIP3   OH219814   5.283   3.184   5.793  0.2632 -0.1162 -0.1580
 6617TIP3    H119815   5.272   3.090   5.777  1.3377 -0.4927  1.1223
 6617TIP3    H219816   5.324   3.218   5.714 -0.3416 -0.6607 -0.7235
 6618TIP3   OH219817   4.648   1.877   1.214 -0.3328  0.2606  0.3018
 6618TIP3    H119818   4.566   1.828   1.221 -1.9621  2.9367  1.3999
 6618TIP3    H219819   4.667   1.904   1.304 -0.6435  3.2061 -0.4105
 6619TIP3   OH219820   6.333   5.533   4.790 -0.4308  0.1595 -0.1902
 6619TIP3    H119821   6.286   5.485   4.858 -0.7370 -1.0624 -1.2304
 6619TIP3    H219822   6.425   5.509   4.803 -0.4203  0.3512  0.1085
 6620TIP3   OH219823   5.178   5.359   1.486 -0.5083 -0.4061  0.0939
 6620TIP3    H119824   5.232   5.341   1.409 -0.6210  0.1494 -0.1236
 6620TIP3    H219825   5.200   5.290   1.548  3.0139  1.5700  1.3622
 6621TIP3   OH219826   2.737   3.673   3.014  0.0679 -0.2857  0.0055
 6621TIP3    H119827   2.782   3.688   3.097 -0.7222  1.5073  0.1446
 6621TIP3    H219828   2.648   3.647   3.039  0.3805 -1.7315 -0.2910
 6622TIP3   OH219829   2.398   0.343   0.518  0.4721 -0.5224 -0.0681
 6622TIP3    H119830   2.421   0.315   0.607  2.1042  1.3115  0.1380
 6622TIP3    H219831   2.479   0.377   0.481 -0.6994  0.9692 -1.4179
 6623TIP3   OH219832   5.434   0.814   2.293 -0.5825 -0.2642 -0.2960
 6623TIP3    H119833   5.515   0.767   2.273  0.9262  1.4582  1.3883
 6623TIP3    H219834   5.372   0.783   2.227  1.7359 -0.8474 -2.3623
 6624TIP3   OH219835   1.187   0.992   2.331  0.3585  0.5054  0.0643
 6624TIP3    H119836   1.174   0.981   2.237 -1.6390 -0.3521  0.3888
 6624TIP3    H219837   1.117   1.050   2.358  0.5210  0.2284  1.1188
 6625TIP3   OH219838   2.280   1.399   5.857  0.3160  0.1412 -0.2741
 6625TIP3    H119839   2.332   1.476   5.837 -0.1308  0.4098 -0.4360
 6625TIP3    H219840   2.213   1.431   5.918  0.2039 -0.1441 -0.2457
 6626TIP3   OH219841   4.591   6.167   3.177 -0.2470  0.1257  0.2772
 6626TIP3    H119842   4.534   6.164   3.254 -0.4898  1.6290  0.1901
 6626TIP3    H219843   4.546   6.115   3.111 -0.5012 -0.3882  0.8439
 6627TIP3   OH219844   3.752   4.911   3.258 -0.1676  0.2952 -0.1903
 6627TIP3    H119845   3.814   4.983   3.271 -0.0723  0.0283  0.8632
 6627TIP3    H219846   3.799   4.850   3.201 -0.0847  0.8438 -0.7293
 6628TIP3   OH219847   5.867   1.277   1.855  0.3669 -0.4631  0.9128
 6628TIP3    H119848   5.916   1.208   1.811  0.6825 -0.6772  1.5896
 6628TIP3    H219849   5.932   1.323   1.908  0.3046  0.7942 -0.0296
 6629TIP3   OH219850   2.570   2.060   4.489  0.1810 -0.2947 -0.5508
 6629TIP3    H119851   2.539   2.140   4.448  0.2132  0.4886  0.8879
 6629TIP3    H219852   2.495   2.000   4.484  0.2703 -0.3183 -1.9356
 6630TIP3   OH219853   0.514   6.672   5.841  0.1622 -0.9099 -0.4986
 6630TIP3    H119854   0.427   6.648   5.872  1.5429 -4.1554  1.4090
 6630TIP3    H219855   0.506   6.670   5.746 -2.2691  0.9966 -0.4301
 6631TIP3   OH219856   3.216   0.384   3.573 -0.4139 -0.0041  0.8374
 6631TIP3    H119857   3.250   0.295   3.578 -0.2711  0.1152  2.6258
 6631TIP3    H219858   3.121   0.373   3.574 -0.4110 -0.1750 -0.1744
 6632TIP3   OH219859   3.874   5.049   2.144  0.6658 -0.3686  0.4818
 6632TIP3    H119860   3.854   5.034   2.052  1.2871 -1.2492  0.4811
 6632TIP3    H219861   3.840   4.972   2.189  1.5127 -0.5586  0.8216
 6633TIP3   OH219862   0.790   4.856   4.739 -0.1366  0.1110  0.0913
 6633TIP3    H119863   0.851   4.835   4.668 -0.8154 -0.3872 -0.3687
 6633TIP3    H219864   0.754   4.941   4.715  1.7271  1.3024  1.3307
 6634TIP3   OH219865   3.788   4.519   3.775 -0.1210  0.1395 -0.5241
 6634TIP3    H119866   3.780   4.560   3.861  0.0523 -0.3715 -0.2563
 6634TIP3    H219867   3.708   4.467   3.765 -1.0492  1.6810 -1.4999
 6635TIP3   OH219868   0.050   6.536   0.748 -0.3756 -0.4462 -0.2505
 6635TIP3    H119869   0.065   6.542   0.654  1.9920  0.5971  0.1179
 6635TIP3    H219870   0.118   6.477   0.780 -1.9928 -1.8908  0.6836
 6636TIP3   OH219871   4.291   3.201   5.783 -0.2779  0.4438  0.3529
 6636TIP3    H119872   4.326   3.273   5.730  0.5174 -0.3539 -0.2583
 6636TIP3    H219873   4.353   3.193   5.856  0.8107 -0.8967 -0.6674
 6637TIP3   OH219874   2.918   3.574   2.856 -0.7735  0.3264  0.3085
 6637TIP3    H119875   2.849   3.624   2.900  1.2460  2.9736  0.7313
 6637TIP3    H219876   2.965   3.531   2.927 -0.1891  0.9849  0.3259
 6638TIP3   OH219877   5.845   4.987   4.240 -0.3693 -0.5154 -0.2150
 6638TIP3    H119878   5.915   4.924   4.260 -1.4208 -1.4332  0.7233
 6638TIP3    H219879   5.797   4.947   4.168 -1.2341 -0.9893  0.5936
 6639TIP3   OH219880   4.053   5.061   3.916 -0.4251 -0.3171  0.1206
 6639TIP3    H119881   4.018   5.052   3.827 -0.4817 -0.4782  0.1608
 6639TIP3    H219882   4.124   4.997   3.921 -0.6994 -0.5989  0.3347
 6640TIP3   OH219883   0.018   1.251   4.527 -0.2067 -0.4702  0.7063
 6640TIP3    H119884   0.007   1.157   4.514 -0.7591 -0.1449 -1.4264
 6640TIP3    H219885   0.109   1.269   4.501  0.6074 -0.6763  3.1227
 6641TIP3   OH219886   4.748   1.655   3.130 -0.2426 -0.2137  0.2114
 6641TIP3    H119887   4.840   1.628   3.119  0.6014  2.3539  0.3227
 6641TIP3    H219888   4.753   1.733   3.186 -2.6877 -1.0892  1.7953
 6642TIP3   OH219889   1.760   4.763   2.773 -0.9097  0.1770  0.0630
 6642TIP3    H119890   1.826   4.694   2.766 -1.4576 -0.4107  0.6177
 6642TIP3    H219891   1.811   4.842   2.793 -0.4074 -0.3771  1.0705
 6643TIP3   OH219892   1.039   1.124   1.543 -0.0727 -0.1623  0.4243
 6643TIP3    H119893   1.119   1.167   1.573  0.9933 -0.6975 -1.4636
 6643TIP3    H219894   0.981   1.197   1.517  0.1760  0.2108  0.9087
 6644TIP3   OH219895   0.696   3.983   0.147 -0.3395 -0.0203 -0.5189
 6644TIP3    H119896   0.684   3.899   0.101  1.5121 -0.1281 -0.8714
 6644TIP3    H219897   0.616   4.032   0.128 -2.4505 -2.4635  1.4478
 6645TIP3   OH219898   3.798   1.060   4.884  0.4149 -0.0743 -0.2483
 6645TIP3    H119899   3.769   1.142   4.844 -0.9254  0.7566  2.2036
 6645TIP3    H219900   3.745   0.993   4.840 -0.1639  0.6385 -0.6785
 6646TIP3   OH219901   1.711   1.443   1.438 -0.2719  0.2362 -0.0001
 6646TIP3    H119902   1.703   1.513   1.503 -0.3027 -0.4333  0.7143
 6646TIP3    H219903   1.803   1.447   1.410 -0.2468  0.4906  0.1161
 6647TIP3   OH219904   1.727   5.243   0.886 -0.2937  0.3247  0.3475
 6647TIP3    H119905   1.757   5.161   0.927  0.2993  0.3843  0.0536
 6647TIP3    H219906   1.808   5.288   0.863 -0.5957 -0.0192 -1.5041
 6648TIP3   OH219907   3.555   2.302   4.565  0.3393  0.2260 -0.1171
 6648TIP3    H119908   3.492   2.231   4.576  1.3803 -0.8362 -0.7793
 6648TIP3    H219909   3.507   2.369   4.516 -0.6625 -0.0052  0.5228
 6649TIP3   OH219910   6.301   5.980   3.405  0.2418 -0.7383  0.0151
 6649TIP3    H119911   6.305   6.073   3.426 -1.5968 -0.3649 -1.0141
 6649TIP3    H219912   6.373   5.967   3.343 -0.8302  0.5844 -1.6309
 6650TIP3   OH219913   1.373   4.106   5.590  0.1829  0.3910  0.2461
 6650TIP3    H119914   1.396   4.040   5.524 -0.7080  1.1545 -0.8679
 6650TIP3    H219915   1.450   4.111   5.647 -0.5820 -3.2970  1.8460
 6651TIP3   OH219916   6.134   1.983   4.445 -0.2382 -0.4646  0.1078
 6651TIP3    H119917   6.050   1.976   4.490 -0.1114 -1.9326  0.1660
 6651TIP3    H219918   6.186   1.909   4.479  1.5108  1.0538  0.9504
 6652TIP3   OH219919   6.221   5.804   5.574 -0.4322 -0.0211  0.5031
 6652TIP3    H119920   6.143   5.849   5.607  0.4998  1.4054  0.9014
 6652TIP3    H219921   6.251   5.751   5.647 -0.9485 -0.4766  0.3895
 6653TIP3   OH219922   1.965   6.652   1.411 -0.0241 -0.0436 -0.2431
 6653TIP3    H119923   1.961   6.604   1.494 -0.3846 -0.8827 -0.7331
 6653TIP3    H219924   1.875   6.680   1.395  0.6058  3.6276  1.6066
 6654TIP3   OH219925   2.590   2.821   0.037 -0.0316  0.4169  0.6532
 6654TIP3    H119926   2.546   2.771   0.105  0.6969 -0.1184  0.7431
 6654TIP3    H219927   2.578   2.913   0.062  0.4343  0.2190  1.6341
 6655TIP3   OH219928   6.350   1.794   3.141  0.0599  0.2360  0.5499
 6655TIP3    H119929   6.318   1.861   3.081  1.2372  1.2049  0.9623
 6655TIP3    H219930   6.370   1.841   3.221 -0.9507 -0.9535  1.5383
 6656TIP3   OH219931   1.804   2.568   1.691 -0.5328  0.0670  0.1495
 6656TIP3    H119932   1.897   2.552   1.708 -0.6635 -1.7056 -0.5096
 6656TIP3    H219933   1.760   2.540   1.771 -0.6364 -1.3266 -0.3701
 6657TIP3   OH219934   5.862   3.081   4.084  0.9062 -0.3689  0.4479
 6657TIP3    H119935   5.803   3.008   4.097 -0.9601  1.0220  0.2098
 6657TIP3    H219936   5.816   3.157   4.120  1.9512  1.0073 -0.9302
 6658TIP3   OH219937   4.943   5.985   3.075 -0.3234 -0.4367  0.3851
 6658TIP3    H119938   4.865   5.929   3.067 -2.2185  1.8719  1.3912
 6658TIP3    H219939   4.920   6.048   3.143  2.7153  0.0056  1.1171
 6659TIP3   OH219940   6.618   0.202   5.379  0.0543 -0.1538  0.2260
 6659TIP3    H119941   6.705   0.167   5.360  0.1848  0.1787  0.1934
 6659TIP3    H219942   6.632   0.297   5.382 -0.6569  0.0680 -1.7468
 6660TIP3   OH219943   5.093   6.524   4.988 -0.1381  0.0642  0.1244
 6660TIP3    H119944   5.156   6.462   4.950  0.0832  1.0504 -1.2025
 6660TIP3    H219945   5.145   6.580   5.045 -0.0607 -0.0162  0.1322
 6661TIP3   OH219946   3.952   0.273   1.740  0.0122  0.2811  0.6010
 6661TIP3    H119947   3.916   0.320   1.664  0.0194 -0.3467  0.2043
 6661TIP3    H219948   3.885   0.280   1.807  0.1602  1.1703  0.6767
 6662TIP3   OH219949   3.187   0.118   3.548 -0.2966 -0.0589  0.3953
 6662TIP3    H119950   3.092   0.108   3.553 -0.3173  0.1056  0.3183
 6662TIP3    H219951   3.221   0.041   3.593 -0.4390 -1.5587 -1.8938
 6663TIP3   OH219952   0.947   5.423   4.824  0.2100 -0.3580  0.1717
 6663TIP3    H119953   0.897   5.449   4.901  0.4557 -0.8552  0.5090
 6663TIP3    H219954   0.998   5.501   4.800 -0.3370 -0.0110  0.1346
 6664TIP3   OH219955   3.940   4.140   0.178  0.1221  0.3593 -0.0168
 6664TIP3    H119956   3.880   4.160   0.250  0.3352  0.7250  0.0659
 6664TIP3    H219957   3.938   4.219   0.123 -0.5201 -0.1630 -0.7551
 6665TIP3   OH219958   2.666   6.618   2.436 -0.1135 -0.2117  0.0736
 6665TIP3    H119959   2.700   6.537   2.398 -0.5466 -1.3866  2.0267
 6665TIP3    H219960   2.699   6.687   2.379  0.6226 -1.7181 -1.4231
 6666TIP3   OH219961   5.262   3.823   3.188 -0.8508 -0.0691  0.1148
 6666TIP3    H119962   5.202   3.879   3.237 -0.8966 -0.3174  0.3460
 6666TIP3    H219963   5.347   3.866   3.194 -1.3219  1.2408 -1.7231
 6667TIP3   OH219964   4.380   5.381   5.384 -0.4256  0.1931  0.3767
 6667TIP3    H119965   4.434   5.379   5.463  1.8694  1.9836 -0.9924
 6667TIP3    H219966   4.378   5.474   5.359 -1.3831 -0.2785 -1.4657
 6668TIP3   OH219967   5.005   3.181   4.050 -0.1935  0.5659  0.0784
 6668TIP3    H119968   4.914   3.195   4.077 -0.7999 -0.0316 -1.5495
 6668TIP3    H219969   5.026   3.094   4.083 -1.3428 -0.6915 -2.2800
 6669TIP3   OH219970   3.223   3.835   3.107 -0.1088  0.4064 -0.1946
 6669TIP3    H119971   3.149   3.827   3.047 -0.0913  0.5372 -0.2336
 6669TIP3    H219972   3.269   3.751   3.100 -0.6673  0.0390  0.3751
 6670TIP3   OH219973   3.838   6.736   0.108  0.2648 -0.1061  0.3566
 6670TIP3    H119974   3.757   6.688   0.121  0.9428 -1.7018 -0.8689
 6670TIP3    H219975   3.889   6.681   0.049  2.6297  0.3928  1.7895
 6671TIP3   OH219976   4.793   0.446   4.906 -0.0772 -0.3771  0.4365
 6671TIP3    H119977   4.809   0.394   4.827  1.8684  3.5575 -2.0371
 6671TIP3    H219978   4.874   0.437   4.957  0.2422  0.1516  0.0299
 6672TIP3   OH219979   2.533   4.333   5.893  0.4407  0.0345  0.6206
 6672TIP3    H119980   2.493   4.395   5.832 -0.1728 -0.9294  0.0254
 6672TIP3    H219981   2.468   4.264   5.905  1.9265 -1.6498 -0.4764
 6673TIP3   OH219982   2.209   1.194   0.980 -0.2452  0.0786 -0.3437
 6673TIP3    H119983   2.249   1.128   1.036 -1.3593 -0.2581  0.0940
 6673TIP3    H219984   2.270   1.268   0.982  0.6888 -0.6817 -0.2983
 6674TIP3   OH219985   6.489   6.190   3.442 -0.1364 -0.3960 -0.1240
 6674TIP3    H119986   6.503   6.157   3.531 -1.3312  0.3449  0.3712
 6674TIP3    H219987   6.505   6.115   3.385 -1.3825 -1.4514  0.8700
 6675TIP3   OH219988   4.256   1.671   0.355 -0.3047  0.1455  0.5253
 6675TIP3    H119989   4.305   1.637   0.431  0.7803 -0.4551 -0.4006
 6675TIP3    H219990   4.321   1.720   0.305 -0.7066 -0.4057 -0.5850
 6676TIP3   OH219991   5.331   2.401   4.895 -0.1879  1.0606 -0.2002
 6676TIP3    H119992   5.254   2.345   4.894  0.0993  0.6327  0.6422
 6676TIP3    H219993   5.400   2.349   4.854  0.0192  0.8859  0.3672
 6677TIP3   OH219994   2.572   5.764   3.983  0.3244  0.4229  0.1655
 6677TIP3    H119995   2.479   5.768   3.960  0.5798 -0.0188 -1.0421
 6677TIP3    H219996   2.573   5.739   4.075 -0.7468 -0.6719 -0.0872
 6678TIP3   OH219997   0.955   3.590   5.698 -0.7833 -0.1338 -0.6830
 6678TIP3    H119998   0.962   3.684   5.685 -0.1238 -0.2178 -0.9969
 6678TIP3    H219999   0.889   3.579   5.766 -0.9718  0.5470 -0.7583
 6679TIP3   OH220000   3.833   3.229   1.855  0.0462  0.1906  0.0453
 6679TIP3    H120001   3.752   3.209   1.902  1.2201 -1.9309  1.3166
 6679TIP3    H220002   3.804   3.252   1.767 -1.9277 -0.7398  0.3841
 6680TIP3   OH220003   6.283   5.568   5.433  0.2244 -0.1075 -0.6186
 6680TIP3    H120004   6.237   5.631   5.488  0.9407 -0.8215  0.8761
 6680TIP3    H220005   6.221   5.545   5.365 -0.4926  1.2478 -0.4554
 6681TIP3   OH220006   6.232   4.016   0.758  0.5462 -0.5843 -0.3724
 6681TIP3    H120007   6.273   4.071   0.824  0.2434 -0.4407 -0.3032
 6681TIP3    H220008   6.305   3.977   0.710  0.8100  1.3147 -1.6575
 6682TIP3   OH220009   6.994   4.283   3.728  0.6105 -0.1081 -0.2436
 6682TIP3    H120010   7.061   4.282   3.659 -0.3988  0.4643 -1.2692
 6682TIP3    H220011   6.917   4.244   3.687 -0.0649  0.4065  0.5119
 6683TIP3   OH220012   6.649   3.158   3.909  0.0751  0.1033 -0.3705
 6683TIP3    H120013   6.633   3.125   3.997  0.1614  0.9885 -0.0110
 6683TIP3    H220014   6.562   3.168   3.870  0.0065  0.2385 -0.1827
 6684TIP3   OH220015   4.895   0.578   1.928  0.8467  0.3375  0.3368
 6684TIP3    H120016   4.809   0.621   1.918  0.8806  0.3177 -0.0713
 6684TIP3    H220017   4.896   0.548   2.018 -0.1771 -0.9546 -0.0532
 6685TIP3   OH220018   2.720   0.907   2.673  0.4280  0.2046 -0.5571
 6685TIP3    H120019   2.710   0.938   2.763 -2.4272  1.0408 -1.0729
 6685TIP3    H220020   2.785   0.966   2.634  0.0122  1.2729  0.3301
 6686TIP3   OH220021   4.897   0.764   4.440 -0.1271  0.8983 -0.0353
 6686TIP3    H120022   4.954   0.694   4.408  1.1127  1.4900  0.7647
 6686TIP3    H220023   4.821   0.762   4.383  0.4165 -0.3377 -0.7554
 6687TIP3   OH220024   1.608   4.367   0.924  0.1922  0.3897 -1.0624
 6687TIP3    H120025   1.671   4.333   0.988  2.7813  2.0826 -2.4778
 6687TIP3    H220026   1.537   4.403   0.976  1.1641 -0.1865  0.7519
 6688TIP3   OH220027   3.264   3.543   2.533 -0.4308 -0.1865 -0.2846
 6688TIP3    H120028   3.244   3.561   2.625  1.9686  0.8506  0.1005
 6688TIP3    H220029   3.193   3.486   2.504 -1.9040  0.4381  1.8529
 6689TIP3   OH220030   3.133   4.363   0.415  0.5091  0.3312  0.3945
 6689TIP3    H120031   3.143   4.276   0.377  0.8906  0.9911 -1.0652
 6689TIP3    H220032   3.146   4.423   0.342 -0.7599  1.6050  1.1674
 6690TIP3   OH220033   6.654   6.243   4.666  0.3349 -0.2882 -0.4605
 6690TIP3    H120034   6.631   6.334   4.649  0.1989 -0.3948 -0.8385
 6690TIP3    H220035   6.724   6.223   4.604  0.8169 -0.2479  0.0614
 6691TIP3   OH220036   0.510   2.783   2.976  0.0177 -0.6802 -0.7677
 6691TIP3    H120037   0.552   2.732   3.045  0.3200  1.6814  0.8838
 6691TIP3    H220038   0.421   2.748   2.970 -0.4064 -0.1689  1.7096
 6692TIP3   OH220039   5.444   0.570   4.879 -0.0778 -0.3183  0.1669
 6692TIP3    H120040   5.419   0.585   4.787 -0.9650 -1.1546  0.2531
 6692TIP3    H220041   5.506   0.497   4.875  0.9438  0.5249  0.1285
 6693TIP3   OH220042   4.569   5.815   5.706 -0.5738  0.2470  0.4496
 6693TIP3    H120043   4.567   5.898   5.658  1.8759  0.3123  0.3180
 6693TIP3    H220044   4.492   5.767   5.674 -1.3272  1.9447 -0.4155
 6694TIP3   OH220045   3.144   4.571   2.372  0.2462 -0.2240  0.0508
 6694TIP3    H120046   3.107   4.573   2.283  1.5160 -1.0840 -0.5301
 6694TIP3    H220047   3.104   4.646   2.416 -0.3905  0.2398 -1.2536
 6695TIP3   OH220048   6.579   6.049   3.681 -0.0465 -0.1281  0.0669
 6695TIP3    H120049   6.598   5.962   3.717  0.8468  0.8595  2.1894
 6695TIP3    H220050   6.665   6.092   3.676 -0.7300  1.6028  1.8965
 6696TIP3   OH220051   4.764   1.831   4.018 -0.6298 -0.0673 -0.1099
 6696TIP3    H120052   4.706   1.759   3.993  0.3842  0.0849 -3.4323
 6696TIP3    H220053   4.724   1.908   3.978  1.8267 -0.0121 -2.7726
 6697TIP3   OH220054   6.857   1.844   1.107 -0.2852  0.6456  0.2909
 6697TIP3    H120055   6.909   1.884   1.177 -1.1961  1.7104  0.3734
 6697TIP3    H220056   6.778   1.897   1.102  0.0077  0.9389 -1.9579
 6698TIP3   OH220057   4.108   4.903   0.028 -0.1269  0.2375 -0.2163
 6698TIP3    H120058   4.013   4.899   0.017 -0.0348  0.8659 -1.4537
 6698TIP3    H220059   4.126   4.847   0.103 -1.3176 -1.2827 -0.9937
 6699TIP3   OH220060   3.087   2.028   0.385 -0.0298  0.5023 -0.5195
 6699TIP3    H120061   3.079   2.074   0.301 -0.6694  3.5795  1.1081
 6699TIP3    H220062   2.997   2.020   0.417  0.3538  1.3234  0.8337
 6700TIP3   OH220063   4.144   2.722   0.446  0.0028 -0.0451  0.1346
 6700TIP3    H120064   4.120   2.749   0.357 -0.1358 -2.9996 -0.8454
 6700TIP3    H220065   4.233   2.755   0.458 -0.1697  0.8479 -0.8760
 6701TIP3   OH220066   1.844   4.103   4.137 -0.7421  0.0831 -0.3140
 6701TIP3    H120067   1.764   4.143   4.101 -1.3012  0.3617  1.1813
 6701TIP3    H220068   1.844   4.128   4.229  1.2500  0.3248 -0.3547
 6702TIP3   OH220069   1.429   1.751   3.221 -0.1299 -0.2587 -0.2187
 6702TIP3    H120070   1.504   1.798   3.257 -0.9949  1.5554 -0.6852
 6702TIP3    H220071   1.357   1.813   3.226 -1.9791 -2.3759  1.4225
 6703TIP3   OH220072   2.874   4.420   0.522 -0.7618 -0.2218  0.0670
 6703TIP3    H120073   2.821   4.435   0.444 -0.7050  0.1991  0.1069
 6703TIP3    H220074   2.949   4.370   0.491  0.0685  1.2647 -0.4624
 6704TIP3   OH220075   2.325   4.010   4.184  0.5053 -0.0533 -0.3647
 6704TIP3    H120076   2.252   4.072   4.177  0.6429  0.0676 -0.7917
 6704TIP3    H220077   2.282   3.924   4.189  0.3312 -0.1051 -2.0194
 6705TIP3   OH220078   5.195   5.823   3.384  0.4258 -0.2931 -0.1115
 6705TIP3    H120079   5.127   5.805   3.449  1.0507 -3.9836 -0.2463
 6705TIP3    H220080   5.221   5.914   3.401 -3.1415  0.6867  1.1674
 6706TIP3   OH220081   0.998   5.146   0.621 -0.7991  0.1617  0.0071
 6706TIP3    H120082   0.955   5.061   0.615  0.2217 -0.3712 -0.0071
 6706TIP3    H220083   0.962   5.186   0.700  0.2281 -1.1871  1.2324
 6707TIP3   OH220084   1.300   1.710   5.614  0.4089 -0.3481  0.2437
 6707TIP3    H120085   1.374   1.660   5.579  0.5360  0.8012 -1.2551
 6707TIP3    H220086   1.341   1.774   5.673  0.2547 -1.8620  2.0813
 6708TIP3   OH220087   0.318   6.395   3.370 -0.0308 -0.1296  0.1566
 6708TIP3    H120088   0.331   6.413   3.277 -0.6441 -1.8161 -0.2977
 6708TIP3    H220089   0.250   6.457   3.398 -0.4264 -0.1543 -0.7284
 6709TIP3   OH220090   1.875   5.845   4.671  0.1430 -0.1987  0.3857
 6709TIP3    H120091   1.811   5.892   4.617 -1.3955 -0.3334  1.9865
 6709TIP3    H220092   1.889   5.762   4.624 -1.0339 -0.2482  0.0874
 6710TIP3   OH220093   0.620  -0.001   1.069 -0.0513  0.7056 -0.4637
 6710TIP3    H120094   0.681   0.019   0.999  0.5056  0.5741 -0.0202
 6710TIP3    H220095   0.638   0.065   1.136  0.4157 -0.0511  0.1636
 6711TIP3   OH220096   3.332   2.443   0.107 -0.3509 -0.4546  0.1595
 6711TIP3    H120097   3.258   2.403   0.152 -0.9154 -0.4444 -0.7286
 6711TIP3    H220098   3.344   2.389   0.029  1.2449 -1.0637  0.7992
 6712TIP3   OH220099   2.250   5.704   1.099 -0.3508 -0.3323 -0.0425
 6712TIP3    H120100   2.309   5.760   1.150  0.1723 -1.6382  0.8250
 6712TIP3    H220101   2.275   5.720   1.008  1.0308 -0.4885  0.2833
 6713TIP3   OH220102   1.552   5.875   0.443 -0.3367  0.4698  0.4800
 6713TIP3    H120103   1.502   5.865   0.524 -0.9555 -3.0428 -0.1590
 6713TIP3    H220104   1.640   5.846   0.466 -0.4090 -0.1277  0.0271
 6714TIP3   OH220105   1.653   2.731   0.347 -0.2029  0.2150 -0.2391
 6714TIP3    H120106   1.737   2.733   0.392 -0.1311  0.1480 -0.3699
 6714TIP3    H220107   1.632   2.822   0.328  0.7646  0.1162 -1.9335
 6715TIP3   OH220108   0.910   4.135   0.766  0.3243 -0.0821 -0.2748
 6715TIP3    H120109   0.865   4.198   0.822  0.2854 -0.0565 -0.3353
 6715TIP3    H220110   0.875   4.150   0.678 -0.1869 -0.6514 -0.1788
 6716TIP3   OH220111   7.072   2.198   1.455 -0.3698  0.2922  0.4370
 6716TIP3    H120112   7.055   2.289   1.479  0.2366  0.1988  1.2470
 6716TIP3    H220113   7.167   2.194   1.441 -0.4058 -0.1921  0.3177
 6717TIP3   OH220114   6.910   4.844   1.324  0.8051 -0.0408  0.4365
 6717TIP3    H120115   6.935   4.919   1.379  0.1728  0.4901  0.0081
 6717TIP3    H220116   6.961   4.856   1.244 -0.4055  0.7758 -0.2422
 6718TIP3   OH220117   6.994   5.225   4.451  0.1992  0.5079  0.1803
 6718TIP3    H120118   7.017   5.315   4.430  2.0344  0.1530  0.4832
 6718TIP3    H220119   6.923   5.232   4.515  1.9272  1.8187  2.0626
 6719TIP3   OH220120   5.246   1.306   1.543  0.1770  0.6069 -0.1256
 6719TIP3    H120121   5.251   1.299   1.638 -0.1952  1.1626 -0.0650
 6719TIP3    H220122   5.282   1.223   1.512 -1.5803 -0.4598  0.5388
 6720TIP3   OH220123   6.708   2.255   0.398 -0.4947 -0.2980 -0.1390
 6720TIP3    H120124   6.716   2.192   0.327 -3.0094 -0.1009 -0.7156
 6720TIP3    H220125   6.753   2.215   0.472  1.6843 -0.7690 -1.6419
 6721TIP3   OH220126   5.442   5.252   0.929 -0.0801  0.3488  0.6582
 6721TIP3    H120127   5.524   5.270   0.883 -1.8752  0.5752 -2.8414
 6721TIP3    H220128   5.387   5.329   0.910 -2.2109 -1.2670 -0.1153
 6722TIP3   OH220129   6.621   0.787   0.106  0.1148  0.1712 -0.3191
 6722TIP3    H120130   6.528   0.810   0.099  0.4103  1.6016  0.2037
 6722TIP3    H220131   6.659   0.819   0.024  0.2704  0.2309 -0.2230
 6723TIP3   OH220132   4.916   4.059   3.116  0.0676  0.9993 -0.1576
 6723TIP3    H120133   4.824   4.031   3.117  0.3271  0.0873 -0.2218
 6723TIP3    H220134   4.913   4.154   3.127 -0.9476  1.1316 -1.2808
 6724TIP3   OH220135   4.596   6.554   4.526 -0.4334 -0.7882  0.2456
 6724TIP3    H120136   4.671   6.591   4.572 -0.5905 -0.8574  0.5602
 6724TIP3    H220137   4.593   6.463   4.554 -1.7999 -0.3152  1.7828
 6725TIP3   OH220138   0.810   6.342   4.711 -0.0079 -0.3834 -0.3144
 6725TIP3    H120139   0.894   6.383   4.688 -0.4684  0.3420 -0.7265
 6725TIP3    H220140   0.802   6.268   4.650  0.1116 -0.1750 -0.5829
 6726TIP3   OH220141   6.403   2.762   0.901 -0.5170  0.4707  0.0690
 6726TIP3    H120142   6.402   2.817   0.823  0.3858  1.2280  0.5627
 6726TIP3    H220143   6.432   2.821   0.971 -0.9820 -0.2757  0.9046
 6727TIP3   OH220144   0.343   5.226   2.705 -0.3024 -0.4137  0.4214
 6727TIP3    H120145   0.301   5.181   2.632 -0.2122  0.5415 -0.2379
 6727TIP3    H220146   0.273   5.276   2.747 -0.0303  0.4040 -0.0793
 6728TIP3   OH220147   2.825   6.397   5.732 -0.2800  0.1229  0.3183
 6728TIP3    H120148   2.756   6.448   5.774 -0.4103  1.0696 -0.9809
 6728TIP3    H220149   2.874   6.358   5.804  0.2724  2.6890  1.4218
 6729TIP3   OH220150   5.459   6.756   3.807  0.2029  0.3663  0.3561
 6729TIP3    H120151   5.494   6.740   3.719  0.2664  0.6737  0.3223
 6729TIP3    H220152   5.438   6.670   3.841  1.7233  0.0972  0.6788
 6730TIP3   OH220153   5.676   4.342   2.975 -0.4895  0.7764  0.5805
 6730TIP3    H120154   5.769   4.327   2.991 -0.9992 -0.9026  2.5271
 6730TIP3    H220155   5.670   4.362   2.882  1.5157 -2.5643 -0.4597
 6731TIP3   OH220156   5.314   1.887   0.946 -0.3718  0.2810  0.0190
 6731TIP3    H120157   5.293   1.949   1.016 -0.7405  0.0187  0.1462
 6731TIP3    H220158   5.236   1.832   0.939 -0.5414  0.6465 -0.9762
 6732TIP3   OH220159   1.908   5.544   2.254  0.3490 -0.2131 -0.3664
 6732TIP3    H120160   1.888   5.635   2.275 -0.3162 -0.3193 -0.5195
 6732TIP3    H220161   1.877   5.532   2.164 -2.0695 -1.3085  0.5320
 6733TIP3   OH220162   0.442   5.744   5.242 -0.1967  0.1917  0.4048
 6733TIP3    H120163   0.468   5.717   5.154  0.9223 -0.1714  0.8290
 6733TIP3    H220164   0.475   5.833   5.251 -1.2196  0.6168  0.1014
 6734TIP3   OH220165   6.924   3.555   4.670  0.0249  0.2804 -0.1591
 6734TIP3    H120166   6.893   3.623   4.730 -0.2542 -0.6703  0.7976
 6734TIP3    H220167   6.897   3.586   4.583 -0.7232  1.0457  0.3272
 6735TIP3   OH220168   5.545   6.311   5.011 -0.1986  0.5705 -0.2805
 6735TIP3    H120169   5.552   6.354   5.095  0.2020  0.0821 -0.0555
 6735TIP3    H220170   5.608   6.239   5.015 -2.3591 -1.4431  0.2268
 6736TIP3   OH220171   1.412   3.579   3.519  0.6843  0.2485  0.1502
 6736TIP3    H120172   1.498   3.540   3.536  0.3849 -1.0540 -1.1184
 6736TIP3    H220173   1.406   3.585   3.424 -0.1611  1.4534  0.2600
 6737TIP3   OH220174   3.501   3.744   1.170 -0.4956 -0.2667  0.2275
 6737TIP3    H120175   3.523   3.675   1.232  0.4974  0.1028  0.3119
 6737TIP3    H220176   3.458   3.699   1.097 -1.1889 -0.7714  0.9380
 6738TIP3   OH220177   4.738   2.515   3.590 -0.1021 -0.6495  0.1714
 6738TIP3    H120178   4.662   2.567   3.617 -1.0082 -1.7002 -0.3185
 6738TIP3    H220179   4.751   2.538   3.498  0.3347 -0.2863  0.3215
 6739TIP3   OH220180   2.350   4.798   2.540 -0.3432 -0.3963  0.5085
 6739TIP3    H120181   2.363   4.871   2.480 -1.2809 -0.2906  0.4240
 6739TIP3    H220182   2.261   4.769   2.524 -0.6258 -0.3549  1.8732
 6740TIP3   OH220183   5.773   6.029   0.609 -0.5036 -0.2245  0.8801
 6740TIP3    H120184   5.805   6.011   0.521  1.3891  2.7756  0.8155
 6740TIP3    H220185   5.813   5.961   0.663 -0.3086 -1.1098 -0.3380
 6741TIP3   OH220186   1.602   2.330   2.091 -0.3233  0.3967  0.4924
 6741TIP3    H120187   1.552   2.254   2.122 -0.5787  0.4259  0.1588
 6741TIP3    H220188   1.625   2.377   2.171  0.0241 -0.1464  0.7207
 6742TIP3   OH220189   5.606   6.098   1.238  0.1961 -0.8045  0.1682
 6742TIP3    H120190   5.654   6.127   1.160  0.2423  0.9544  0.8222
 6742TIP3    H220191   5.593   6.004   1.223  0.5243 -0.5940 -1.7854
 6743TIP3   OH220192   1.019   5.621   1.129  0.4817 -0.2981  0.0183
 6743TIP3    H120193   1.110   5.640   1.154  0.4391  1.6261 -1.1189
 6743TIP3    H220194   0.985   5.705   1.098 -1.5981 -1.0655  0.1116
 6744TIP3   OH220195   4.925   5.784   5.313 -0.4178  0.3522 -0.4296
 6744TIP3    H120196   5.001   5.842   5.310 -0.9816  1.1472  0.0835
 6744TIP3    H220197   4.944   5.716   5.249  0.9863  0.2001  0.1251
 6745TIP3   OH220198   2.729   5.458   2.801 -0.6342 -0.2550  0.2624
 6745TIP3    H120199   2.677   5.386   2.834 -0.5052  0.8414  3.1807
 6745TIP3    H220200   2.791   5.418   2.741 -4.5945 -1.6206 -3.3894
 6746TIP3   OH220201   5.940   1.751   2.940  0.1689 -0.4692  0.3487
 6746TIP3    H120202   5.992   1.713   2.869 -0.4124 -0.0876 -0.2842
 6746TIP3    H220203   5.987   1.726   3.020  0.9630 -0.6888 -0.1788
 6747TIP3   OH220204   3.042   5.887   1.535 -0.1977  0.1632 -0.1498
 6747TIP3    H120205   2.997   5.858   1.456  0.5636 -0.0216 -0.5304
 6747TIP3    H220206   3.002   5.972   1.556 -1.1282 -0.2744 -0.1198
 6748TIP3   OH220207   0.161   1.596   4.638 -0.8997 -0.3763  0.1515
 6748TIP3    H120208   0.142   1.564   4.726  1.7380 -1.4256  0.4252
 6748TIP3    H220209   0.222   1.669   4.652  0.9910 -1.7082 -0.7960
 6749TIP3   OH220210   0.240   3.308   2.028  0.6009  0.0299  0.5461
 6749TIP3    H120211   0.224   3.220   2.060  0.4514 -0.3259 -0.4835
 6749TIP3    H220212   0.335   3.313   2.015  0.6135  0.0303  0.6414
 6750TIP3   OH220213   2.803   4.255   5.121 -0.4755 -1.2611 -0.0893
 6750TIP3    H120214   2.768   4.330   5.074  0.6997 -0.4586  0.2659
 6750TIP3    H220215   2.747   4.247   5.198 -1.1014 -1.2609 -0.5417
 6751TIP3   OH220216   0.619   4.235   2.126  0.1143 -0.1185 -0.0535
 6751TIP3    H120217   0.655   4.185   2.199 -0.7638 -0.2223  0.3255
 6751TIP3    H220218   0.558   4.175   2.084 -1.3339  0.7706  0.7033
 6752TIP3   OH220219   4.832   4.894   5.198 -0.1496  0.1665 -0.1884
 6752TIP3    H120220   4.762   4.832   5.176 -1.0199  1.2312 -0.4882
 6752TIP3    H220221   4.892   4.890   5.124  0.7503 -1.6015  0.5818
 6753TIP3   OH220222   6.242   1.141   5.215 -0.1212  0.3999  0.2269
 6753TIP3    H120223   6.173   1.146   5.149 -0.3825  0.7861  0.5199
 6753TIP3    H220224   6.196   1.146   5.298  0.1815 -0.4038  0.4491
 6754TIP3   OH220225   5.922   6.209   1.116 -0.4893 -0.0256  0.2229
 6754TIP3    H120226   5.843   6.199   1.063  0.4473  0.6447 -1.3905
 6754TIP3    H220227   5.992   6.173   1.061  0.5820  1.0396  0.8285
 6755TIP3   OH220228   6.431   2.913   2.108  0.5113 -0.4127  0.0738
 6755TIP3    H120229   6.505   2.887   2.161 -0.4043  0.3695  1.8027
 6755TIP3    H220230   6.448   3.004   2.085 -0.8767  0.4982  2.3478
 6756TIP3   OH220231   1.042   1.648   3.183 -0.2829 -0.2242  0.0274
 6756TIP3    H120232   1.000   1.639   3.268  0.9099 -0.1108  0.6506
 6756TIP3    H220233   0.999   1.723   3.142 -0.2821  0.2603  0.8942
 6757TIP3   OH220234   2.140   6.198   3.408  0.2299  0.4178 -0.1514
 6757TIP3    H120235   2.113   6.200   3.500 -0.6644  1.9370 -0.4071
 6757TIP3    H220236   2.211   6.262   3.402 -0.1655  0.8226 -0.6290
 6758TIP3   OH220237   4.568   2.270   5.233 -0.0575 -0.2820 -0.2813
 6758TIP3    H120238   4.487   2.229   5.266 -0.8072  0.6008 -0.9857
 6758TIP3    H220239   4.620   2.284   5.312 -1.5414  1.1712  0.5120
 6759TIP3   OH220240   2.288   4.619   0.314  0.2129  0.3126 -0.2165
 6759TIP3    H120241   2.278   4.713   0.305 -0.5752  0.0396 -4.1004
 6759TIP3    H220242   2.199   4.584   0.303  0.5583 -0.9146  0.6601
 6760TIP3   OH220243   3.325   4.897   3.294 -0.1728  0.0107 -0.5649
 6760TIP3    H120244   3.393   4.954   3.329 -0.2273 -0.2645  0.0127
 6760TIP3    H220245   3.284   4.948   3.225  1.1214 -0.1122 -1.4564
 6761TIP3   OH220246   7.088   1.935   2.206 -0.1940 -0.2888 -0.0866
 6761TIP3    H120247   7.139   1.854   2.212  0.4318  0.0914 -0.2209
 6761TIP3    H220248   7.057   1.936   2.115  0.4374 -0.0043 -0.3065
 6762TIP3   OH220249   7.136   6.351   5.018  0.1647  0.3513 -0.3295
 6762TIP3    H120250   7.207   6.415   5.026  0.7378 -0.0927 -1.6360
 6762TIP3    H220251   7.091   6.374   4.937 -0.7571  0.1897  0.1238
 6763TIP3   OH220252   6.072   3.495   0.866 -0.6936  0.3606  0.2461
 6763TIP3    H120253   6.098   3.480   0.775 -1.2246 -2.6161  0.4919
 6763TIP3    H220254   5.976   3.499   0.862 -0.7002  0.5753  0.6303
 6764TIP3   OH220255   5.407   3.623   0.627 -0.3414  0.1492 -0.1266
 6764TIP3    H120256   5.469   3.666   0.685 -0.5051 -3.4700  3.1281
 6764TIP3    H220257   5.325   3.672   0.638  0.9147  2.8271 -1.7611
 6765TIP3   OH220258   4.876   6.276   5.478  0.6436 -0.5602  0.1922
 6765TIP3    H120259   4.804   6.266   5.416  0.7233  1.8356 -0.4121
 6765TIP3    H220260   4.939   6.333   5.433  0.7083  1.2833  2.4009
 6766TIP3   OH220261   4.242   6.044   0.896 -0.2679  0.0778  0.1201
 6766TIP3    H120262   4.294   5.963   0.892  0.1608  0.3888 -0.9677
 6766TIP3    H220263   4.156   6.017   0.928 -0.5456 -1.0329 -1.4840
 6767TIP3   OH220264   0.183   1.699   1.789 -0.3491  0.1414  0.1057
 6767TIP3    H120265   0.242   1.624   1.780 -1.8505 -0.9375 -1.3946
 6767TIP3    H220266   0.210   1.759   1.720 -0.6519 -0.1194 -0.2456
 6768TIP3   OH220267   3.473   0.603   5.413 -0.3278 -0.2347 -0.0688
 6768TIP3    H120268   3.433   0.539   5.354 -0.6540  0.0284 -0.1379
 6768TIP3    H220269   3.514   0.667   5.355 -0.4709 -0.0870 -0.0076
 6769TIP3   OH220270   6.820   3.794   4.636  0.0863  0.4338  0.4644
 6769TIP3    H120271   6.879   3.869   4.627  0.0210  0.3047 -1.5959
 6769TIP3    H220272   6.751   3.809   4.571 -1.2373 -0.2703  1.6476
 6770TIP3   OH220273   0.049   3.173   3.642  0.4135  0.4097 -0.1702
 6770TIP3    H120274  -0.014   3.101   3.643 -1.6937  2.1443 -0.4209
 6770TIP3    H220275   0.049   3.204   3.551  0.3469  1.5094  0.1951
 6771TIP3   OH220276   2.482   6.728   2.586 -1.0201 -0.2429  0.0787
 6771TIP3    H120277   2.569   6.695   2.563 -1.4118 -0.3453 -1.3850
 6771TIP3    H220278   2.489   6.823   2.571 -0.9984 -0.1754  0.5165
 6772TIP3   OH220279   0.896   1.709   3.746 -0.4702 -0.4035  0.4991
 6772TIP3    H120280   0.830   1.642   3.730 -0.8789  0.0728  0.1331
 6772TIP3    H220281   0.937   1.684   3.829 -0.4098 -1.2622  0.2219
 6773TIP3   OH220282   3.025   4.385   1.620  0.1496 -0.2180  0.2251
 6773TIP3    H120283   3.099   4.393   1.680  0.2271 -2.7544  0.5387
 6773TIP3    H220284   2.970   4.461   1.640  2.5530  1.6863  0.0459
 6774TIP3   OH220285   5.820   4.909   2.337  0.2190 -0.2195  0.2954
 6774TIP3    H120286   5.884   4.918   2.266  0.0037 -0.6260  0.0410
 6774TIP3    H220287   5.735   4.915   2.294  0.0436 -2.5740  0.1590
 6775TIP3   OH220288   0.106   0.847   2.298  0.2554  0.1984  0.3424
 6775TIP3    H120289   0.045   0.876   2.230  0.3688 -1.6019 -0.5611
 6775TIP3    H220290   0.050   0.828   2.374 -0.0922  0.3191  0.1203
 6776TIP3   OH220291   4.277   0.610   3.967  0.0500 -0.1293 -0.1952
 6776TIP3    H120292   4.280   0.548   3.894  0.3640  0.0930 -0.3739
 6776TIP3    H220293   4.268   0.555   4.044 -0.2822 -0.3679 -0.4006
 6777TIP3   OH220294   3.526   4.649   2.962  0.3890  0.1196 -0.3974
 6777TIP3    H120295   3.532   4.659   3.057 -1.7001 -0.9320 -0.1154
 6777TIP3    H220296   3.483   4.729   2.932 -2.2041 -1.0254  0.0272
 6778TIP3   OH220297   2.678   1.708   5.633  0.0330 -0.4939  0.4620
 6778TIP3    H120298   2.749   1.708   5.568  0.8027  2.4875  1.1380
 6778TIP3    H220299   2.604   1.749   5.589 -0.0110 -0.0630  0.9276
 6779TIP3   OH220300   2.223   0.578   0.050  0.2326  0.0285  0.0188
 6779TIP3    H120301   2.229   0.497   0.101 -0.5107 -0.9060 -1.3128
 6779TIP3    H220302   2.153   0.628   0.093  1.1403  0.2976  1.2482
 6780TIP3   OH220303   4.774   0.248   5.711  0.2980  0.0171  0.2281
 6780TIP3    H120304   4.705   0.255   5.645 -0.2687 -0.9225  0.7037
 6780TIP3    H220305   4.852   0.223   5.660  0.9944  3.4946 -0.6799
 6781TIP3   OH220306   5.283   6.755   3.008 -0.2308  0.0152  0.1352
 6781TIP3    H120307   5.268   6.666   2.976 -2.1396  0.0789  0.7212
 6781TIP3    H220308   5.231   6.811   2.950  0.9904  0.7807 -0.2575
 6782TIP3   OH220309   6.624   0.526   2.430 -0.3377 -0.1824 -0.5938
 6782TIP3    H120310   6.590   0.475   2.356 -1.6050  0.8092 -0.7450
 6782TIP3    H220311   6.596   0.478   2.508  0.7888 -1.1002 -0.7282
 6783TIP3   OH220312   4.185   0.327   2.210  0.1131  0.0373 -0.1652
 6783TIP3    H120313   4.109   0.369   2.170 -0.4157 -0.4979  0.2560
 6783TIP3    H220314   4.148   0.255   2.262  0.5643  1.7827  2.8098
 6784TIP3   OH220315   7.041   1.608   1.255  0.0312 -0.1255  0.2991
 6784TIP3    H120316   7.083   1.675   1.309 -2.2376  0.3444  1.6160
 6784TIP3    H220317   6.949   1.633   1.254 -0.3127 -1.2189 -2.2647
 6785TIP3   OH220318   6.161   3.783   2.880  0.0772 -0.0073  0.1731
 6785TIP3    H120319   6.149   3.873   2.850 -0.4232 -0.3820 -0.8112
 6785TIP3    H220320   6.175   3.791   2.975 -1.2737  1.0144  0.3232
 6786TIP3   OH220321   5.951   1.287   4.797  0.9424 -0.9663 -0.0160
 6786TIP3    H120322   5.922   1.377   4.787 -0.5531 -1.3565  0.5177
 6786TIP3    H220323   6.046   1.292   4.797  0.9385  0.3104 -2.4361
 6787TIP3   OH220324   0.363   4.944   0.945  0.1855 -0.0942 -0.3843
 6787TIP3    H120325   0.423   4.987   1.006  0.7512 -1.4327  0.0606
 6787TIP3    H220326   0.398   4.855   0.937  0.5389  0.2113 -3.2298
 6788TIP3   OH220327   3.860   3.937   5.280 -0.0069  0.4397  0.6380
 6788TIP3    H120328   3.919   3.916   5.353 -0.6951 -0.4177  0.9544
 6788TIP3    H220329   3.896   4.019   5.244  1.3361 -0.0230  0.8578
 6789TIP3   OH220330   7.201   4.829   1.516 -0.3809  0.0551 -0.1846
 6789TIP3    H120331   7.157   4.897   1.467  0.3747  1.0956  0.5330
 6789TIP3    H220332   7.183   4.849   1.608 -0.6962 -1.1035  0.0342
 6790TIP3   OH220333   6.509   4.382   4.835  0.5441 -0.6095 -0.0916
 6790TIP3    H120334   6.490   4.468   4.871  0.9443 -0.3931 -0.3906
 6790TIP3    H220335   6.439   4.326   4.869 -0.8185  0.2233 -1.4118
 6791TIP3   OH220336   2.754   1.762   0.799  0.2030 -0.3907  0.4264
 6791TIP3    H120337   2.687   1.780   0.732  2.7506  2.9633 -1.5027
 6791TIP3    H220338   2.731   1.819   0.872  0.7102  0.5136 -0.1030
 6792TIP3   OH220339   2.766   0.687   4.908  0.5646 -0.0251  0.0326
 6792TIP3    H120340   2.761   0.634   4.988 -0.0801 -0.7145 -0.4542
 6792TIP3    H220341   2.818   0.635   4.847 -0.5751 -0.3941 -0.6523
 6793TIP3   OH220342   0.067   6.020   1.444  0.6466  0.0613  0.3614
 6793TIP3    H120343   0.076   5.978   1.529 -1.3040  1.1513  1.1759
 6793TIP3    H220344   0.004   5.966   1.397 -1.3204  1.5349  1.1482
 6794TIP3   OH220345   1.223   3.639   5.780 -0.4039 -0.1467  0.2427
 6794TIP3    H120346   1.207   3.657   5.873 -2.3446 -0.4901  0.0310
 6794TIP3    H220347   1.138   3.609   5.747  0.7311 -2.0062 -1.1945
 6795TIP3   OH220348   1.316   2.088   3.360 -0.3193  0.8589 -0.1622
 6795TIP3    H120349   1.390   2.148   3.348  2.1943 -1.9137  0.1651
 6795TIP3    H220350   1.303   2.049   3.274 -0.6327  0.5129  0.0391
 6796TIP3   OH220351   3.838   5.471   2.648  0.6192 -0.0234 -0.1164
 6796TIP3    H120352   3.848   5.384   2.686  1.8495 -0.1030 -0.5762
 6796TIP3    H220353   3.771   5.514   2.702 -0.0433 -1.2581  0.0764
 6797TIP3   OH220354   2.182   4.021   5.015 -0.5644 -0.4365 -0.3814
 6797TIP3    H120355   2.168   3.969   4.936  1.9729 -0.6357 -0.7627
 6797TIP3    H220356   2.243   4.090   4.988 -1.3591  0.8265  0.9028
 6798TIP3   OH220357   5.604   0.738   5.069 -0.1627 -0.4935  0.0894
 6798TIP3    H120358   5.644   0.657   5.037 -0.1724 -0.5304  0.1710
 6798TIP3    H220359   5.531   0.754   5.009  1.9143  1.3619 -2.1342
 6799TIP3   OH220360   4.298   0.704   0.130 -0.5078  0.2308 -0.5134
 6799TIP3    H120361   4.377   0.653   0.145 -0.9518 -0.1879  0.4896
 6799TIP3    H220362   4.270   0.681   0.041 -0.6822 -1.2718 -0.0860
 6800TIP3   OH220363   6.723   0.172   0.855 -0.7327  0.2054  0.6913
 6800TIP3    H120364   6.818   0.161   0.860 -0.7831 -0.0263  1.2111
 6800TIP3    H220365   6.711   0.263   0.829 -0.3765  0.4592  1.4006
 6801TIP3   OH220366   3.290   5.120   3.794 -0.4674  0.5331 -0.0551
 6801TIP3    H120367   3.282   5.050   3.859  0.0879  0.1613 -0.3776
 6801TIP3    H220368   3.266   5.078   3.712 -1.2297  1.0190 -0.0928
 6802TIP3   OH220369   0.100   5.828   2.657 -0.4599  0.3404  0.5406
 6802TIP3    H120370   0.158   5.821   2.733  2.2449 -0.0721 -1.4263
 6802TIP3    H220371   0.157   5.859   2.587 -2.6973  0.0536 -1.5119
 6803TIP3   OH220372   1.245   1.507   2.887  0.0538 -0.2937  0.3171
 6803TIP3    H120373   1.208   1.502   2.799 -2.0502  1.2098  1.0173
 6803TIP3    H220374   1.173   1.481   2.944  0.9556  0.0783  1.6592
 6804TIP3   OH220375   6.840   2.796   2.466  0.0946 -0.4927 -0.0847
 6804TIP3    H120376   6.817   2.763   2.553  0.8280 -3.3077 -0.8467
 6804TIP3    H220377   6.902   2.731   2.432  2.0099  1.9894 -1.6410
 6805TIP3   OH220378   4.478   5.853   3.424  0.2531  0.2428  0.1542
 6805TIP3    H120379   4.522   5.776   3.459 -0.4974  0.2859  1.2484
 6805TIP3    H220380   4.527   5.927   3.461  2.2368  0.3943 -2.4637
 6806TIP3   OH220381   4.628   2.769   3.688 -0.7318  0.2411  0.5697
 6806TIP3    H120382   4.720   2.784   3.670 -0.7334 -0.3842  0.0241
 6806TIP3    H220383   4.605   2.836   3.753 -0.2314  1.2541 -0.2698
 6807TIP3   OH220384   6.420   4.500   4.331 -0.1231  0.0622 -0.1768
 6807TIP3    H120385   6.421   4.409   4.299 -1.6591 -0.6963  1.7244
 6807TIP3    H220386   6.435   4.492   4.425  0.4220  1.8705 -0.0805
 6808TIP3   OH220387   0.760   4.134   5.795  0.0372 -0.3665 -0.0308
 6808TIP3    H120388   0.719   4.050   5.774  0.4032 -0.0393 -2.3745
 6808TIP3    H220389   0.714   4.198   5.740 -1.1387  1.2839  2.6559
 6809TIP3   OH220390   1.888   4.734   4.067 -0.1276 -0.2637  0.1995
 6809TIP3    H120391   1.936   4.695   4.140  0.1236 -0.0764  0.1374
 6809TIP3    H220392   1.796   4.723   4.090 -0.0515 -0.2937  0.4984
 6810TIP3   OH220393   3.660   5.038   4.970 -0.2078  0.3386 -0.0448
 6810TIP3    H120394   3.635   5.109   4.911  1.4962 -0.3980 -1.7390
 6810TIP3    H220395   3.733   5.073   5.021 -0.8065  0.5252  0.6941
 6811TIP3   OH220396   2.213   1.353   2.677  0.2522 -0.8493 -0.0219
 6811TIP3    H120397   2.145   1.419   2.665  0.1836 -0.7799  0.6881
 6811TIP3    H220398   2.272   1.366   2.603  0.6576  0.5422  0.5009
 6812TIP3   OH220399   0.812   3.635   1.577 -0.3976 -0.0858  0.1883
 6812TIP3    H120400   0.727   3.671   1.551  0.6921  1.8167 -1.0171
 6812TIP3    H220401   0.854   3.611   1.495  0.9223  0.7441  0.5763
 6813TIP3   OH220402   6.137   5.830   1.834 -0.4971 -0.9044 -0.3842
 6813TIP3    H120403   6.046   5.801   1.844 -0.0204 -2.4177 -0.2628
 6813TIP3    H220404   6.134   5.892   1.761 -1.4064 -2.0531 -1.3690
 6814TIP3   OH220405   6.417   1.878   5.188  0.0470  0.1673  0.5412
 6814TIP3    H120406   6.413   1.800   5.243 -0.2970 -0.2845 -0.1162
 6814TIP3    H220407   6.357   1.860   5.116  1.3531  0.2653 -0.6209
 6815TIP3   OH220408   5.112   1.276   3.536 -0.4452 -0.2476  0.5227
 6815TIP3    H120409   5.166   1.292   3.458  0.0346  1.1623  1.1117
 6815TIP3    H220410   5.022   1.275   3.503 -0.2432  0.2920 -0.0594
 6816TIP3   OH220411   2.343   4.183   2.959  0.4135 -0.2533  0.3276
 6816TIP3    H120412   2.399   4.151   2.888  0.1785 -0.6143  0.3018
 6816TIP3    H220413   2.399   4.242   3.009  1.0948 -1.2970  0.8226
 6817TIP3   OH220414   6.312   2.908   5.046 -0.0629  0.1983  0.4619
 6817TIP3    H120415   6.303   2.993   5.088  1.0001  0.3488  0.4116
 6817TIP3    H220416   6.397   2.875   5.075 -0.6170 -1.0280  0.7970
 6818TIP3   OH220417   3.844   0.998   4.242 -0.3564 -0.1206 -0.2096
 6818TIP3    H120418   3.837   1.041   4.327  0.2420  0.2278 -0.3264
 6818TIP3    H220419   3.886   0.914   4.261  1.3533  0.6499 -0.3358
 6819TIP3   OH220420   3.745   4.202   0.373  0.2617 -0.0307 -0.0067
 6819TIP3    H120421   3.761   4.192   0.467  2.0323  1.2394 -0.1073
 6819TIP3    H220422   3.666   4.151   0.356  0.2993 -0.8709  2.0353
 6820TIP3   OH220423   1.546   0.457   3.493  0.1217 -0.3295  0.5801
 6820TIP3    H120424   1.623   0.457   3.436 -0.1994  1.5416  0.0875
 6820TIP3    H220425   1.580   0.480   3.580  0.2299 -0.2826  0.5251
 6821TIP3   OH220426   1.068   2.487   3.649 -0.9353  0.6562  0.0312
 6821TIP3    H120427   1.078   2.557   3.584 -1.1674 -0.6857 -1.4859
 6821TIP3    H220428   1.157   2.455   3.663 -1.1473 -0.7478 -1.5855
 6822TIP3   OH220429   5.041   2.508   5.021 -0.0886  0.6724  0.4099
 6822TIP3    H120430   4.995   2.479   5.100  2.0276  1.4322  1.9965
 6822TIP3    H220431   5.087   2.430   4.990 -3.4010 -0.5479 -2.1140
 6823TIP3   OH220432   0.239   0.756   0.620 -0.2945  0.2030 -0.3674
 6823TIP3    H120433   0.219   0.849   0.632  0.4004  0.5093 -1.4654
 6823TIP3    H220434   0.284   0.731   0.701 -1.4580  0.5167  0.4151
 6824TIP3   OH220435   3.869   4.825   2.645  0.0631  0.5140  0.5268
 6824TIP3    H120436   3.909   4.747   2.682 -0.2488 -0.6517 -1.4452
 6824TIP3    H220437   3.943   4.884   2.627  0.9362 -1.2404 -2.2116
 6825TIP3   OH220438   6.227   1.328   0.691 -0.2645  0.3817  0.2844
 6825TIP3    H120439   6.195   1.238   0.693  0.0805  0.2625  0.7691
 6825TIP3    H220440   6.303   1.326   0.633  1.6857 -0.3405  2.6603
 6826TIP3   OH220441   0.899   1.808   2.687 -0.2389  0.2799 -0.6457
 6826TIP3    H120442   0.967   1.851   2.738 -1.3915  1.3862  0.0136
 6826TIP3    H220443   0.852   1.754   2.750 -0.3976  0.0602 -0.9503
 6827TIP3   OH220444   6.590   4.709   3.684 -0.2149  0.0677 -0.2695
 6827TIP3    H120445   6.572   4.799   3.711  0.3309  0.3042 -0.6724
 6827TIP3    H220446   6.538   4.655   3.743 -1.1535  0.6778 -0.5179
 6828TIP3   OH220447   4.488   4.073   1.977 -0.5389  0.8399  0.1019
 6828TIP3    H120448   4.517   4.141   2.037  0.4909  0.7077 -0.2374
 6828TIP3    H220449   4.430   4.018   2.030  1.1834  0.1091  1.2870
 6829TIP3   OH220450   5.180   6.181   2.645 -0.2112 -0.9286 -0.2954
 6829TIP3    H120451   5.223   6.139   2.720  0.5663 -0.5489 -0.5208
 6829TIP3    H220452   5.101   6.128   2.631 -0.3397 -1.0378  0.7482
 6830TIP3   OH220453   7.129   0.434   0.412  0.3501 -0.5519  0.2952
 6830TIP3    H120454   7.172   0.366   0.463 -0.0667 -0.3903  0.8730
 6830TIP3    H220455   7.193   0.505   0.408 -0.2295  0.1407  2.1165
 6831TIP3   OH220456   6.848   6.592   2.692 -0.1003 -0.2844  0.2880
 6831TIP3    H120457   6.925   6.576   2.638 -0.0269 -0.7158  0.5189
 6831TIP3    H220458   6.790   6.519   2.673 -0.2062 -0.2707  0.5622
 6832TIP3   OH220459   2.003   5.525   3.263  0.7790  0.4177 -0.2510
 6832TIP3    H120460   2.052   5.587   3.209  0.1002  0.7212 -0.5194
 6832TIP3    H220461   1.956   5.470   3.201  0.1527  0.6406  0.0224
 6833TIP3   OH220462   4.901   4.905   0.595  0.1254  0.4148 -0.1841
 6833TIP3    H120463   4.991   4.887   0.621 -0.5970  0.8228  2.9483
 6833TIP3    H220464   4.892   4.862   0.510  2.8819 -0.7144 -0.0126
 6834TIP3   OH220465   2.927   6.286   2.543 -0.5521  0.0104  0.2488
 6834TIP3    H120466   2.858   6.319   2.485  0.6403  2.4877  0.1202
 6834TIP3    H220467   2.997   6.260   2.483  0.2110  1.4454  0.4732
 6835TIP3   OH220468   3.247   3.174   3.759 -0.2171 -0.4869 -0.2617
 6835TIP3    H120469   3.164   3.144   3.722 -0.4130 -0.3984  0.1104
 6835TIP3    H220470   3.296   3.093   3.775 -0.6534 -0.5992  0.5260
 6836TIP3   OH220471   0.769   5.214   2.394  0.1083  0.3218 -0.4987
 6836TIP3    H120472   0.851   5.169   2.415 -1.2538 -1.8942  0.4997
 6836TIP3    H220473   0.761   5.282   2.460  0.4985 -0.3333  0.2365
 6837TIP3   OH220474   4.812   4.191   0.623 -0.3985  0.5024  0.4085
 6837TIP3    H120475   4.827   4.262   0.684  0.0654 -0.5582  1.5861
 6837TIP3    H220476   4.772   4.122   0.676 -0.5418 -0.2269 -0.6179
 6838TIP3   OH220477   6.305   0.251   2.059  0.1999 -0.1449 -0.1481
 6838TIP3    H120478   6.306   0.220   2.149 -1.6004 -1.8372 -0.6460
 6838TIP3    H220479   6.367   0.194   2.014 -1.1794 -1.3871 -0.5454
 6839TIP3   OH220480   6.495   2.974   2.678  0.0623 -0.0929  0.0972
 6839TIP3    H120481   6.530   3.040   2.738 -0.9895  1.1376 -0.6017
 6839TIP3    H220482   6.490   3.018   2.593 -0.0881 -1.2718 -0.5313
 6840TIP3   OH220483   4.749   4.645   5.626 -0.1293 -0.2504 -0.0560
 6840TIP3    H120484   4.734   4.589   5.702  0.9003  0.2935  0.5542
 6840TIP3    H220485   4.684   4.714   5.634 -0.7105 -0.7614 -0.2475
 6841TIP3   OH220486   3.977   1.270   0.373 -0.3784 -0.6413 -0.4304
 6841TIP3    H120487   4.008   1.181   0.392  1.6828  0.0999 -0.0828
 6841TIP3    H220488   3.911   1.288   0.440  2.5979 -0.2185  2.6348
 6842TIP3   OH220489   7.028   5.225   0.292  0.0105  0.0835 -0.3931
 6842TIP3    H120490   6.981   5.276   0.358  0.7459 -0.4887  0.6011
 6842TIP3    H220491   7.114   5.209   0.331 -0.3502 -2.3232 -0.4429
 6843TIP3   OH220492   1.918   1.524   3.616 -0.0926 -0.1680 -0.0901
 6843TIP3    H120493   1.996   1.499   3.566 -0.7020 -0.9639 -0.6742
 6843TIP3    H220494   1.895   1.445   3.665 -1.8842 -0.7454 -1.7338
 6844TIP3   OH220495   1.448   5.719   4.348  0.1530  0.1859  0.1643
 6844TIP3    H120496   1.489   5.733   4.263 -0.0456 -0.5778 -0.0661
 6844TIP3    H220497   1.436   5.624   4.354  0.5193  0.1890  1.2177
 6845TIP3   OH220498   4.985   1.753   0.340 -0.3467 -0.2754 -0.5630
 6845TIP3    H120499   4.991   1.715   0.427 -2.1797  0.9933  0.1755
 6845TIP3    H220500   5.061   1.812   0.334  0.4217 -1.2210 -0.2898
 6846TIP3   OH220501   3.738   3.201   5.244  0.2964  0.4358 -0.8944
 6846TIP3    H120502   3.699   3.266   5.303  2.0089  2.3666 -1.7712
 6846TIP3    H220503   3.824   3.183   5.281 -0.3090 -1.7872 -0.4116
 6847TIP3   OH220504   5.131   4.172   1.165 -0.2235 -0.3555 -0.2513
 6847TIP3    H120505   5.128   4.215   1.079 -1.2825 -0.5962 -0.3499
 6847TIP3    H220506   5.083   4.231   1.223  0.9796  0.0875  0.3256
 6848TIP3   OH220507   4.060   5.762   4.923  0.2450 -0.3297  0.2728
 6848TIP3    H120508   4.096   5.793   5.007 -0.8306  0.6492  0.4007
 6848TIP3    H220509   4.090   5.672   4.916 -1.2394 -1.1035  2.6673
 6849TIP3   OH220510   6.217   4.643   4.147 -0.6869  0.0508 -0.3563
 6849TIP3    H120511   6.260   4.592   4.214 -3.6194 -0.4005  1.3590
 6849TIP3    H220512   6.172   4.713   4.194 -3.1472 -0.4819 -1.7256
 6850TIP3   OH220513   3.372   6.069   2.760  0.2012 -0.3551  0.1603
 6850TIP3    H120514   3.387   6.129   2.687  0.8417 -0.0178  0.5551
 6850TIP3    H220515   3.292   6.022   2.737  0.4043 -0.2601 -0.7594
 6851TIP3   OH220516   4.995   3.843   2.953  0.5391 -0.4165  0.2190
 6851TIP3    H120517   5.061   3.881   2.895 -1.1840  0.5609 -1.2346
 6851TIP3    H220518   4.963   3.918   3.004 -0.6649 -0.4883 -0.3896
 6852TIP3   OH220519   1.035   2.982   0.318 -0.3088 -0.1952  0.5225
 6852TIP3    H120520   1.048   3.057   0.377 -1.1377  0.3352  0.0530
 6852TIP3    H220521   0.956   3.004   0.269  0.0025 -0.9297 -0.3286
 6853TIP3   OH220522   6.947   2.997   2.909  0.0536 -0.0118 -0.0305
 6853TIP3    H120523   6.987   3.081   2.886 -0.3261 -0.1793 -1.3627
 6853TIP3    H220524   7.013   2.932   2.885  0.2689 -0.1314  0.8232
 6854TIP3   OH220525   3.312   0.109   0.312  0.2220  0.0517 -0.2031
 6854TIP3    H120526   3.303   0.035   0.252  1.6549  0.1884 -0.6394
 6854TIP3    H220527   3.299   0.186   0.257 -0.3073  0.1480  0.0515
 6855TIP3   OH220528   7.066   4.845   1.075  0.2300  0.2964  0.4601
 6855TIP3    H120529   7.102   4.801   0.998 -0.9652  0.0909 -0.0038
 6855TIP3    H220530   7.051   4.935   1.047 -0.1973  0.2240  0.4486
 6856TIP3   OH220531   1.224   6.059   3.465 -0.0259 -0.2320  0.0046
 6856TIP3    H120532   1.287   6.038   3.397 -0.4851 -0.7264 -0.2774
 6856TIP3    H220533   1.225   5.983   3.523 -0.6252 -0.4108 -0.2083
 6857TIP3   OH220534   5.054   4.505   1.819 -0.3288 -0.1673  0.5378
 6857TIP3    H120535   4.980   4.565   1.830 -0.5137 -0.0201 -1.2267
 6857TIP3    H220536   5.112   4.524   1.893 -1.1016  1.1287  0.8387
 6858TIP3   OH220537   1.546   3.568   1.247  0.4110  0.3583 -0.2122
 6858TIP3    H120538   1.478   3.500   1.256  0.7671 -0.1575 -1.2487
 6858TIP3    H220539   1.600   3.538   1.174  0.9027  1.4971 -0.3365
 6859TIP3   OH220540   4.884   2.556   3.836  0.1102 -0.4426  0.0102
 6859TIP3    H120541   4.837   2.536   3.755  1.0196 -0.6096 -0.4994
 6859TIP3    H220542   4.868   2.480   3.893 -1.1912  0.0370  0.3088
 6860TIP3   OH220543   2.902   4.077   0.955  0.3568 -0.1726  0.4939
 6860TIP3    H120544   2.979   4.088   1.011  0.0219 -1.2127  1.1835
 6860TIP3    H220545   2.842   4.146   0.982  0.9796  0.5629  0.0422
 6861TIP3   OH220546   1.934   4.299   3.564  0.6219 -0.3523  0.0898
 6861TIP3    H120547   1.998   4.270   3.499  1.3714 -0.5484  0.9112
 6861TIP3    H220548   1.972   4.378   3.602  0.1809 -0.2321  0.2913
 6862TIP3   OH220549   6.750   6.571   1.698  0.3313  0.3344 -0.1673
 6862TIP3    H120550   6.795   6.604   1.776  1.6201  2.0206 -1.5403
 6862TIP3    H220551   6.807   6.596   1.625 -1.5720  0.1705 -1.7874
 6863TIP3   OH220552   2.073   2.688   4.231 -0.1676  0.1779  0.1136
 6863TIP3    H120553   2.046   2.770   4.190 -2.1501 -0.5667 -0.2005
 6863TIP3    H220554   2.038   2.620   4.173 -0.1710 -0.8944  1.3285
 6864TIP3   OH220555   3.853   2.033   5.696  0.0091  0.0559 -0.5148
 6864TIP3    H120556   3.882   1.979   5.769 -0.0688  0.1351 -0.4247
 6864TIP3    H220557   3.815   2.111   5.737  1.3256  0.8002 -0.6737
 6865TIP3   OH220558   2.598   6.595   5.589  0.3034 -0.0539 -0.0677
 6865TIP3    H120559   2.579   6.589   5.683 -1.0182 -3.2579 -0.3832
 6865TIP3    H220560   2.681   6.548   5.579  0.1826 -0.1710 -0.5374
 6866TIP3   OH220561   0.953   2.344   1.711 -0.0105 -0.0504 -0.0837
 6866TIP3    H120562   0.871   2.329   1.664  1.2942 -0.5366 -2.3207
 6866TIP3    H220563   0.931   2.325   1.803 -2.0118 -1.7554 -0.8255
 6867TIP3   OH220564   0.021   0.480   4.121  0.2009  0.3373 -0.1852
 6867TIP3    H120565  -0.057   0.524   4.156  0.4927  0.7428 -0.0477
 6867TIP3    H220566   0.040   0.525   4.039  2.6077  2.9305  1.6013
 6868TIP3   OH220567   6.565   3.390   4.164  0.1004  0.4942 -0.4693
 6868TIP3    H120568   6.512   3.389   4.084  0.4615 -0.1771 -0.7036
 6868TIP3    H220569   6.653   3.413   4.135  0.1296  0.7371 -0.1978
 6869TIP3   OH220570   5.264   0.660   5.269 -0.1729  0.1076 -0.1660
 6869TIP3    H120571   5.256   0.565   5.261 -0.1296 -0.0784  1.5280
 6869TIP3    H220572   5.177   0.688   5.297 -1.3292  1.1107 -4.0998
 6870TIP3   OH220573   2.308   5.677   0.398  0.2588 -0.0970  0.2684
 6870TIP3    H120574   2.373   5.612   0.424 -0.7713 -0.6827  1.4687
 6870TIP3    H220575   2.237   5.667   0.462 -1.1341  0.3415 -1.1560
 6871TIP3   OH220576   6.249   5.561   1.707 -0.5896  0.2999  0.3995
 6871TIP3    H120577   6.270   5.607   1.788 -0.5420  1.2242 -0.1254
 6871TIP3    H220578   6.254   5.628   1.639  0.6087 -0.6957 -0.5540
 6872TIP3   OH220579   2.078   5.955   2.890  0.2782  0.6118  0.5159
 6872TIP3    H120580   2.090   6.025   2.826  0.3354 -0.7988 -1.0892
 6872TIP3    H220581   1.987   5.961   2.917  0.2415  1.1957  0.2601
 6873TIP3   OH220582   6.904   4.197   5.070 -0.0431 -0.3608 -0.0633
 6873TIP3    H120583   6.865   4.205   5.157  1.0104  0.0176  0.3921
 6873TIP3    H220584   6.965   4.270   5.064 -0.2114 -0.2919 -1.1911
 6874TIP3   OH220585   1.506   4.986   3.731 -0.4368  0.2821 -0.5471
 6874TIP3    H120586   1.582   4.938   3.699 -0.0602  0.7346 -0.3467
 6874TIP3    H220587   1.518   4.991   3.826 -1.6557 -1.2457 -0.2691
 6875TIP3   OH220588   6.185   3.438   0.031  0.0552  0.3002  0.3726
 6875TIP3    H120589   6.138   3.517   0.007  2.7892  1.3932 -2.0351
 6875TIP3    H220590   6.132   3.366  -0.002 -0.9212  1.3242 -0.3273
 6876TIP3   OH220591   6.602   4.621   0.128 -0.1074  0.0219 -0.0986
 6876TIP3    H120592   6.698   4.621   0.121 -0.2071 -0.0035 -1.8584
 6876TIP3    H220593   6.578   4.712   0.141  0.1435  0.0916 -0.1219
 6877TIP3   OH220594   0.311   6.286   1.149 -0.0667  0.4933  0.1754
 6877TIP3    H120595   0.246   6.268   1.217  0.4091 -0.6309  0.3634
 6877TIP3    H220596   0.387   6.319   1.196  0.6102 -1.2062  0.3257
 6878TIP3   OH220597   2.447   2.241   2.630 -0.3367  0.3711 -0.1700
 6878TIP3    H120598   2.411   2.158   2.599 -1.6495  0.2230  1.6189
 6878TIP3    H220599   2.380   2.305   2.611 -0.4290  0.5657  0.7731
 6879TIP3   OH220600   0.109   1.493   2.989  0.0913 -0.3737  0.2221
 6879TIP3    H120601   0.136   1.481   2.898  1.0433  0.0848  0.4360
 6879TIP3    H220602   0.025   1.447   2.995  0.6680 -1.5640 -0.5279
 6880TIP3   OH220603   6.467   3.218   0.882  0.0851 -0.3233  0.9032
 6880TIP3    H120604   6.512   3.302   0.873  2.5606 -1.6483 -0.1507
 6880TIP3    H220605   6.390   3.226   0.825  1.5894  0.4288 -1.1476
 6881TIP3   OH220606   3.323   6.680   3.374  0.4862  0.0101  0.1390
 6881TIP3    H120607   3.341   6.745   3.306  2.4963 -0.3701  0.2456
 6881TIP3    H220608   3.324   6.596   3.328 -2.0891 -0.0126  0.0043
 6882TIP3   OH220609   5.114   0.101   5.340  0.1827  0.4450 -0.5100
 6882TIP3    H120610   5.037   0.074   5.290  0.0140 -0.2113  0.0912
 6882TIP3    H220611   5.174   0.136   5.274 -0.4679  0.5931 -1.0342
 6883TIP3   OH220612   6.049   2.889   2.387  0.4338 -0.3107 -0.1353
 6883TIP3    H120613   6.078   2.866   2.475  1.8649  1.9287  0.0464
 6883TIP3    H220614   5.954   2.874   2.388  0.2695  0.5822  2.1049
 6884TIP3   OH220615   2.857   5.472   5.801  0.0723  0.5927  0.0462
 6884TIP3    H120616   2.807   5.479   5.719 -0.7649 -0.4517  0.4508
 6884TIP3    H220617   2.804   5.415   5.857  0.5126  1.4801  1.4187
 6885TIP3   OH220618   0.606   0.820   1.497 -0.4672 -0.0082 -0.0114
 6885TIP3    H120619   0.603   0.845   1.405  1.2718  2.4118  0.4691
 6885TIP3    H220620   0.568   0.894   1.544 -0.0436 -0.5732  1.2932
 6886TIP3   OH220621   2.557   1.965   5.500  0.2676  0.4183  0.2178
 6886TIP3    H120622   2.511   2.046   5.475 -0.4149  0.2947  1.0351
 6886TIP3    H220623   2.570   1.918   5.418 -0.1901  0.9181 -0.1438
 6887TIP3   OH220624   3.778   0.030   4.392 -0.0604 -0.2177  0.1328
 6887TIP3    H120625   3.765   0.077   4.474  1.6337  0.2853  0.1431
 6887TIP3    H220626   3.814  -0.055   4.418 -0.5367 -0.4809 -0.0436
 6888TIP3   OH220627   6.526   2.187   5.449 -0.2259  0.3922 -0.6351
 6888TIP3    H120628   6.594   2.153   5.507 -0.5772 -0.9562 -1.0010
 6888TIP3    H220629   6.465   2.233   5.508 -0.4333 -0.7256  0.0534
 6889TIP3   OH220630   6.219   6.142   0.031 -0.2459 -0.1834  0.4885
 6889TIP3    H120631   6.282   6.088   0.079  1.1351  0.7586 -0.1826
 6889TIP3    H220632   6.222   6.227   0.076  0.6453  0.5370 -0.8543
 6890TIP3   OH220633   5.966   1.062   3.009  0.6605 -0.4140  0.1920
 6890TIP3    H120634   5.905   1.048   2.937 -1.4740 -0.9157  1.9977
 6890TIP3    H220635   6.052   1.044   2.971 -0.2206  0.6226 -2.5376
 6891TIP3   OH220636   3.089   5.099   4.088 -0.2611  0.2134 -0.6165
 6891TIP3    H120637   3.143   5.155   4.144 -0.3944 -0.9631  0.7385
 6891TIP3    H220638   3.038   5.160   4.034 -1.0340  1.4303  1.3967
 6892TIP3   OH220639   6.815   6.241   4.450  0.0256  0.2352  0.2983
 6892TIP3    H120640   6.736   6.243   4.396 -1.4583 -1.4717  2.2162
 6892TIP3    H220641   6.871   6.176   4.409 -0.2573  0.3234 -0.2316
 6893TIP3   OH220642   5.857   6.027   2.925 -0.3795  0.0227 -0.4820
 6893TIP3    H120643   5.863   5.979   2.842 -2.1013 -0.6291 -0.2833
 6893TIP3    H220644   5.890   6.115   2.905  0.4908 -0.5142 -1.4954
 6894TIP3   OH220645   7.092   3.270   0.336  0.8183 -0.6025 -0.0662
 6894TIP3    H120646   7.012   3.323   0.337 -0.1897 -2.0526 -0.7704
 6894TIP3    H220647   7.079   3.208   0.264  1.8042 -2.0441  0.9473
 6895TIP3   OH220648   0.208   4.612   5.290  0.3331  0.5235  0.7962
 6895TIP3    H120649   0.294   4.632   5.327 -0.0600  1.4414  1.2427
 6895TIP3    H220650   0.145   4.648   5.353 -0.3561  1.9417 -0.6443
 6896TIP3   OH220651   2.290   5.934   4.660  0.0149  0.1434  0.3012
 6896TIP3    H120652   2.257   6.024   4.660  0.3341  0.2625 -0.4182
 6896TIP3    H220653   2.230   5.888   4.718  0.2493  0.9597  1.2192
 6897TIP3   OH220654   5.681   6.073   5.764  0.2284 -0.0760 -0.2525
 6897TIP3    H120655   5.637   6.118   5.835 -1.9249 -0.2977 -1.3741
 6897TIP3    H220656   5.681   5.981   5.789  1.5160  0.0849  0.4451
 6898TIP3   OH220657   2.241   2.583   3.544  0.8691  0.3237 -0.3174
 6898TIP3    H120658   2.289   2.513   3.587  0.6445  0.0888 -0.4414
 6898TIP3    H220659   2.209   2.543   3.463  0.2000  0.3786 -0.0851
 6899TIP3   OH220660   2.729   0.220   4.703  0.1540  0.4757 -0.2963
 6899TIP3    H120661   2.706   0.134   4.738 -0.8489  1.0903  0.6033
 6899TIP3    H220662   2.733   0.277   4.779  1.8732  1.0330 -0.7620
 6900TIP3   OH220663   5.062   2.922   1.380 -0.1414  0.1810 -0.1805
 6900TIP3    H120664   5.128   2.983   1.347 -0.3333  0.4779 -0.0192
 6900TIP3    H220665   5.008   2.902   1.304  0.4367 -0.4700 -0.4388
 6901TIP3   OH220666   5.550   6.427   3.675 -0.0460  0.6216  0.2500
 6901TIP3    H120667   5.471   6.446   3.725 -0.6154 -0.0292 -0.3880
 6901TIP3    H220668   5.622   6.454   3.733 -0.7300  1.7897  0.5969
 6902TIP3   OH220669   4.008   1.020   2.423  0.5263 -0.0596  0.2560
 6902TIP3    H120670   3.987   0.947   2.364  2.0308 -0.8212  0.6055
 6902TIP3    H220671   3.994   1.098   2.371  0.7968 -0.6808 -0.7813
 6903TIP3   OH220672   5.280   1.013   3.262  0.1219  0.8395  0.3918
 6903TIP3    H120673   5.337   0.994   3.188 -0.8580  3.8068 -1.2790
 6903TIP3    H220674   5.192   0.989   3.232 -0.0307 -0.0415  1.4793
 6904TIP3   OH220675   0.311   4.853   1.572 -0.2222  0.3816 -0.0040
 6904TIP3    H120676   0.217   4.870   1.563  0.0713  2.3538  0.2098
 6904TIP3    H220677   0.353   4.929   1.532  1.3189 -0.8883 -0.9143
 6905TIP3   OH220678   4.680   4.585   2.242  0.7021 -0.3663 -0.3556
 6905TIP3    H120679   4.599   4.559   2.286  0.8498  0.9842  0.7868
 6905TIP3    H220680   4.671   4.679   2.227  1.7076 -0.3475 -0.9663
 6906TIP3   OH220681   2.064   0.882   5.830  0.2147 -0.1948 -0.2081
 6906TIP3    H120682   2.100   0.807   5.878  0.0463 -0.8600 -1.0831
 6906TIP3    H220683   2.139   0.941   5.818  0.3822 -0.2813  0.3649
 6907TIP3   OH220684   4.674   4.642   1.067 -0.1435 -0.2746 -0.1299
 6907TIP3    H120685   4.674   4.671   1.158 -0.2868  1.1597 -0.5557
 6907TIP3    H220686   4.767   4.627   1.047 -0.0453  0.0529  0.0695
 6908TIP3   OH220687   4.054   3.410   5.783  0.1531  0.3687  0.6259
 6908TIP3    H120688   4.015   3.496   5.794 -1.0691 -0.3078  1.9767
 6908TIP3    H220689   4.090   3.388   5.869  1.7871  0.1234 -0.0782
 6909TIP3   OH220690   3.515   3.975   0.124  0.0159  0.4768  0.9819
 6909TIP3    H120691   3.554   4.060   0.104 -1.3684  0.6114 -1.4517
 6909TIP3    H220692   3.587   3.924   0.161  1.5005  1.9171  0.1991
 6910TIP3   OH220693   0.177   1.074   4.204 -0.6993  0.1112 -0.7503
 6910TIP3    H120694   0.253   1.132   4.197 -0.5465 -0.2278 -2.2322
 6910TIP3    H220695   0.204   1.005   4.265 -0.2476  0.6222 -0.3642
 6911TIP3   OH220696   6.727   1.417   5.316 -0.6714 -0.3210  0.0270
 6911TIP3    H120697   6.769   1.362   5.250 -1.4078  0.0717 -0.7850
 6911TIP3    H220698   6.641   1.377   5.329  0.0201 -1.3352  1.9417
 6912TIP3   OH220699   1.583   5.446   2.457 -0.0324  0.2294 -0.4876
 6912TIP3    H120700   1.537   5.452   2.373 -0.8459 -3.6556 -0.4794
 6912TIP3    H220701   1.513   5.438   2.522  0.6370  0.4494  0.2775
 6913TIP3   OH220702   4.032   3.850   5.483 -0.6057 -0.0501  0.3352
 6913TIP3    H120703   4.077   3.776   5.442  0.1725 -0.0195  1.0907
 6913TIP3    H220704   4.086   3.871   5.560 -0.2964  1.8888 -0.3469
 6914TIP3   OH220705   0.367   2.727   5.749  0.1832  0.0155 -0.1550
 6914TIP3    H120706   0.413   2.811   5.751 -0.0016  0.1159  0.0661
 6914TIP3    H220707   0.274   2.751   5.750  0.0964 -0.1897  1.7395
 6915TIP3   OH220708   5.585   5.053   0.667  0.3924  0.0013  0.4821
 6915TIP3    H120709   5.498   5.025   0.639  0.6516  0.0849 -0.4456
 6915TIP3    H220710   5.638   5.051   0.587  1.2110  0.0781  1.0065
 6916TIP3   OH220711   4.008   3.575   0.798 -0.0208  0.3866 -0.2079
 6916TIP3    H120712   4.057   3.562   0.717  1.5257  1.6157  0.4729
 6916TIP3    H220713   3.919   3.595   0.770 -0.2352 -2.0330 -1.4802
 6917TIP3   OH220714   3.503   1.174   2.054 -0.1593  0.3527 -0.2791
 6917TIP3    H120715   3.419   1.129   2.057  0.3060 -0.5415 -0.3812
 6917TIP3    H220716   3.561   1.121   2.110  0.5611  0.4696 -0.8962
 6918TIP3   OH220717   6.841   3.572   0.780  0.2665  0.5453 -0.3023
 6918TIP3    H120718   6.894   3.605   0.707 -1.7603  1.8626 -1.2684
 6918TIP3    H220719   6.871   3.622   0.856  0.8031  0.8512 -0.7075
 6919TIP3   OH220720   3.653   0.875   4.762  0.1379 -0.0813 -0.1718
 6919TIP3    H120721   3.591   0.805   4.782 -1.4320  1.2254 -0.3265
 6919TIP3    H220722   3.628   0.906   4.675  1.9493 -0.4834 -0.8732
 6920TIP3   OH220723   0.968   0.399   4.334  0.3682 -0.5416  0.0228
 6920TIP3    H120724   0.953   0.332   4.267 -0.9451  0.0046 -0.2498
 6920TIP3    H220725   1.045   0.368   4.382 -0.5685 -2.5882  0.3017
 6921TIP3   OH220726   0.745   0.174   3.991 -0.6121  0.2667  0.7519
 6921TIP3    H120727   0.672   0.199   4.048 -0.7494 -0.3774  0.8607
 6921TIP3    H220728   0.706   0.116   3.926 -0.1880 -0.1462  0.8600
 6922TIP3   OH220729   4.612   1.240   5.362 -0.0301 -0.3802  0.0616
 6922TIP3    H120730   4.581   1.223   5.273  0.8586 -0.4084 -0.2576
 6922TIP3    H220731   4.533   1.246   5.415 -0.6278  0.6998 -0.9140
 6923TIP3   OH220732   1.571   4.188   4.063  0.1129  0.6928  0.2360
 6923TIP3    H120733   1.544   4.205   3.972  2.0090 -0.3539 -0.5977
 6923TIP3    H220734   1.497   4.217   4.116 -2.2048 -1.0765 -1.7833
 6924TIP3   OH220735   3.799   6.203   2.484  0.0563  0.3134 -0.2687
 6924TIP3    H120736   3.804   6.236   2.573 -0.6968  0.4711 -0.2820
 6924TIP3    H220737   3.713   6.161   2.478  0.5855 -0.7673 -0.5567
 6925TIP3   OH220738   5.699   2.306   4.333  0.2183  0.0757  0.1832
 6925TIP3    H120739   5.794   2.317   4.338  0.0712  1.6529 -0.0116
 6925TIP3    H220740   5.666   2.353   4.410 -0.4573  0.3156 -0.2496
 6926TIP3   OH220741   6.623   1.243   2.272  0.2673 -0.2562  0.4113
 6926TIP3    H120742   6.581   1.273   2.191 -0.4112 -2.1873  0.0099
 6926TIP3    H220743   6.592   1.304   2.339  0.7260  1.2904 -0.7243
 6927TIP3   OH220744   6.728   4.411   5.828 -0.4054 -0.3378  0.2152
 6927TIP3    H120745   6.679   4.331   5.846 -1.6073  0.1369 -0.7846
 6927TIP3    H220746   6.729   4.458   5.912 -1.8384 -0.2790  0.2205
 6928TIP3   OH220747   4.256   5.674   3.435 -0.8661  0.3704  0.2852
 6928TIP3    H120748   4.302   5.756   3.454  0.2870  0.0754 -1.0036
 6928TIP3    H220749   4.172   5.682   3.480 -0.8676  2.3503  0.0402
 6929TIP3   OH220750   0.939   4.140   0.239 -0.6482 -0.0766 -0.2795
 6929TIP3    H120751   1.005   4.115   0.174 -1.8291 -0.8673 -1.2149
 6929TIP3    H220752   0.868   4.077   0.227 -1.6164  0.7926  0.6518
 6930TIP3   OH220753   5.745   5.155   1.407 -0.2863 -0.4193 -0.1177
 6930TIP3    H120754   5.674   5.191   1.354 -2.5905 -2.3568  1.4652
 6930TIP3    H220755   5.759   5.067   1.373  1.6301  0.0092 -0.5773
 6931TIP3   OH220756   3.905   4.460   4.117 -0.4758  0.2558  0.1087
 6931TIP3    H120757   3.879   4.369   4.101  2.5470 -0.5329 -1.0025
 6931TIP3    H220758   3.988   4.453   4.164 -1.5868  2.5562  2.6549
 6932TIP3   OH220759   3.834   6.184   0.928  0.0230 -0.3295 -0.1405
 6932TIP3    H120760   3.747   6.158   0.959 -1.7977  0.5381 -3.9164
 6932TIP3    H220761   3.865   6.109   0.878  1.2417 -0.4006  0.6765
 6933TIP3   OH220762   2.168   4.910   5.057 -0.3819 -0.0557  0.2855
 6933TIP3    H120763   2.109   4.977   5.092 -1.8429 -1.0113 -0.2343
 6933TIP3    H220764   2.226   4.957   4.997  0.2121  1.1035  1.7282
 6934TIP3   OH220765   4.670   1.379   1.132  0.2940  0.2329  0.6549
 6934TIP3    H120766   4.584   1.411   1.160 -0.2276  0.3800 -0.9877
 6934TIP3    H220767   4.718   1.458   1.107  0.1944  0.0072 -0.2758
 6935TIP3   OH220768   2.758   4.476   4.029  0.2260 -0.3554  0.4419
 6935TIP3    H120769   2.737   4.514   3.944  0.4988  0.6699  0.8158
 6935TIP3    H220770   2.824   4.535   4.066 -1.3605  0.4100  2.2204
 6936TIP3   OH220771   3.850   2.392  -0.028  0.1222 -0.1255 -0.0181
 6936TIP3    H120772   3.877   2.481  -0.007  0.5395 -0.3278  0.3169
 6936TIP3    H220773   3.811   2.359   0.053 -2.0974  0.4961 -0.7544
 6937TIP3   OH220774   3.404   4.489   0.474 -0.0570 -0.3585  0.3273
 6937TIP3    H120775   3.466   4.464   0.405 -0.6101  0.5168 -0.5067
 6937TIP3    H220776   3.321   4.448   0.447  0.1124 -1.4592  1.3973
 6938TIP3   OH220777   3.850   6.420   1.479 -0.4195  0.0298  0.4414
 6938TIP3    H120778   3.902   6.342   1.499  0.1407  0.0715 -0.7778
 6938TIP3    H220779   3.879   6.447   1.392 -1.4644  0.9064  0.3407
 6939TIP3   OH220780   7.121   0.967   3.812  0.1914  0.2820 -0.7943
 6939TIP3    H120781   7.147   0.958   3.903 -2.2640 -0.5611 -0.0927
 6939TIP3    H220782   7.157   1.051   3.784  1.3453  0.3523  0.8049
 6940TIP3   OH220783   5.486   2.418   5.408 -0.0456 -0.2150  0.3075
 6940TIP3    H120784   5.431   2.489   5.440  3.0383  1.3389  2.6829
 6940TIP3    H220785   5.557   2.461   5.361  0.3673 -2.0008 -0.8336
 6941TIP3   OH220786   0.413   2.199   0.850  0.5511  0.4279 -0.5436
 6941TIP3    H120787   0.377   2.158   0.771 -0.4019  1.5596 -0.7222
 6941TIP3    H220788   0.379   2.288   0.848 -0.9259  0.0240  1.9896
 6942TIP3   OH220789   2.512   0.379   3.789  0.0139 -0.3893 -0.0170
 6942TIP3    H120790   2.456   0.398   3.864 -2.2288  1.5018 -2.0083
 6942TIP3    H220791   2.461   0.318   3.735  0.4281  0.2962 -1.2325
 6943TIP3   OH220792   2.837   0.409   2.884 -0.3719 -0.4980  0.7766
 6943TIP3    H120793   2.854   0.316   2.874 -0.4121 -0.7791  2.8591
 6943TIP3    H220794   2.761   0.414   2.942  0.1531  0.8160  1.4166
 6944TIP3   OH220795   1.265   5.823   4.779  0.1586 -0.2496  0.3293
 6944TIP3    H120796   1.333   5.821   4.712 -0.0666  1.4154  0.0169
 6944TIP3    H220797   1.298   5.885   4.845 -0.1745 -0.9378  1.1653
 6945TIP3   OH220798   3.158   3.313   1.256 -0.1397  0.0087 -0.2377
 6945TIP3    H120799   3.064   3.295   1.252 -0.2973  0.8321 -0.3377
 6945TIP3    H220800   3.198   3.238   1.212 -0.5908 -1.4786  1.7442
 6946TIP3   OH220801   7.047   2.281   3.894  0.7552  0.0021 -0.1692
 6946TIP3    H120802   7.082   2.277   3.984  0.7765  0.9111 -0.1307
 6946TIP3    H220803   7.014   2.370   3.885  2.2015  0.4356 -1.6001
 6947TIP3   OH220804   1.238   3.916   0.036  0.1524  0.1988 -0.2876
 6947TIP3    H120805   1.255   3.972   0.112  1.7283 -0.8618  0.1837
 6947TIP3    H220806   1.252   3.827   0.068  0.5928 -0.2821 -1.7430
 6948TIP3   OH220807   4.196   5.275   1.886 -0.1229  0.1473 -0.2133
 6948TIP3    H120808   4.264   5.273   1.954  0.0372  0.3148 -0.3654
 6948TIP3    H220809   4.147   5.355   1.904  0.5559  0.7343 -0.9005
 6949TIP3   OH220810   6.714   0.506   4.815  0.0069 -0.1643 -0.2491
 6949TIP3    H120811   6.770   0.518   4.893  0.1605  2.2171 -0.6634
 6949TIP3    H220812   6.658   0.432   4.838  1.1441 -0.5752  1.4703
 6950TIP3   OH220813   5.357   5.519   0.799  0.5674  0.3546  0.7105
 6950TIP3    H120814   5.342   5.493   0.708  1.6075  0.4445  0.5061
 6950TIP3    H220815   5.269   5.533   0.834 -0.0335 -2.1530  0.4533
 6951TIP3   OH220816   3.947   5.305   0.742 -0.2039  0.6382 -0.1432
 6951TIP3    H120817   3.978   5.313   0.832  1.4507 -2.9815 -0.2159
 6951TIP3    H220818   3.893   5.226   0.742  3.1616 -1.9885 -2.9170
 6952TIP3   OH220819   3.029   5.573   5.203  0.3359  0.5750  0.9674
 6952TIP3    H120820   3.022   5.537   5.291 -2.1486 -1.4197  0.0716
 6952TIP3    H220821   3.065   5.501   5.150 -1.0417  0.6629 -0.1545
 6953TIP3   OH220822   4.071   4.403   3.812 -0.0430  0.0276 -0.2131
 6953TIP3    H120823   4.126   4.443   3.880 -0.4505  0.0776  0.0930
 6953TIP3    H220824   3.992   4.459   3.810  0.2144  0.3676 -1.1302
 6954TIP3   OH220825   3.574   3.812   3.809  0.3024 -0.4530  0.4742
 6954TIP3    H120826   3.631   3.868   3.756 -0.7478  0.7447  0.5430
 6954TIP3    H220827   3.633   3.754   3.855  1.3971  0.1096 -0.1769
 6955TIP3   OH220828   1.421   6.266   2.350  0.1010 -0.3855  0.0233
 6955TIP3    H120829   1.425   6.272   2.254 -1.0431  2.4146  0.0487
 6955TIP3    H220830   1.510   6.290   2.378 -0.0437  0.6586 -0.3460
 6956TIP3   OH220831   4.254   3.682   2.470  0.1915 -0.5968  0.5938
 6956TIP3    H120832   4.196   3.732   2.527 -0.4852  2.1984 -2.1984
 6956TIP3    H220833   4.198   3.615   2.431 -1.0377  1.2833 -1.1193
 6957TIP3   OH220834   3.532   6.533   2.617 -0.4282 -0.6300 -0.2527
 6957TIP3    H120835   3.613   6.573   2.584 -1.4342  2.6018  0.8303
 6957TIP3    H220836   3.556   6.498   2.702 -0.3117  1.2431  0.5345
 6958TIP3   OH220837   6.952   0.266   1.372 -0.0064 -0.5489  0.1792
 6958TIP3    H120838   6.889   0.199   1.400  0.9863 -1.4403  0.3605
 6958TIP3    H220839   6.974   0.241   1.282 -0.8183  0.4810 -0.3317
 6959TIP3   OH220840   6.793   4.819   0.895  0.3143 -0.1657 -0.3303
 6959TIP3    H120841   6.806   4.743   0.953  0.2509 -0.4309 -0.6633
 6959TIP3    H220842   6.880   4.859   0.890  0.3185 -0.1326 -0.0400
 6960TIP3   OH220843   0.905   5.714   3.657 -0.2484 -0.9496  0.6313
 6960TIP3    H120844   0.897   5.701   3.562 -0.9503 -1.2983  0.7334
 6960TIP3    H220845   0.990   5.676   3.678 -0.2748 -1.2671  0.2007
 6961TIP3   OH220846   3.863   2.708   2.769  0.0258  0.1115  0.3415
 6961TIP3    H120847   3.840   2.621   2.738 -1.9339  0.8022 -0.2839
 6961TIP3    H220848   3.828   2.712   2.858 -2.5223  1.1849 -0.6288
 6962TIP3   OH220849   4.697   3.498   3.973 -0.2557  0.0763  0.4683
 6962TIP3    H120850   4.613   3.513   3.929 -0.3972  1.0186  1.0434
 6962TIP3    H220851   4.678   3.429   4.037 -0.7609  0.7476  1.0559
 6963TIP3   OH220852   1.716   2.108   0.330  0.4813 -0.6856 -0.0767
 6963TIP3    H120853   1.747   2.020   0.309  0.2682 -0.5456 -1.0182
 6963TIP3    H220854   1.628   2.095   0.364 -0.1279 -0.7364 -1.6010
 6964TIP3   OH220855   0.404   3.256   2.622 -0.0764 -0.2825 -0.1473
 6964TIP3    H120856   0.335   3.246   2.689 -0.4784  0.3003 -0.4658
 6964TIP3    H220857   0.485   3.259   2.672 -0.2592 -1.1816  0.2252
 6965TIP3   OH220858   2.977   5.862   5.265 -0.2083  0.2594 -0.2846
 6965TIP3    H120859   2.953   5.772   5.241 -0.7204  0.1276  0.6467
 6965TIP3    H220860   3.044   5.887   5.202 -1.0414 -0.2746 -1.4259
 6966TIP3   OH220861   2.844   4.075   3.312 -0.4677 -0.2949 -0.4080
 6966TIP3    H120862   2.861   4.020   3.236  0.2437 -0.1032 -0.3912
 6966TIP3    H220863   2.821   4.013   3.381 -4.4431 -0.3650 -1.5428
 6967TIP3   OH220864   2.499   4.301   3.826 -0.3504  0.0963  0.4803
 6967TIP3    H120865   2.581   4.251   3.823 -1.0860 -1.1255 -0.0080
 6967TIP3    H220866   2.500   4.354   3.747 -0.1919 -0.1944  0.2826
 6968TIP3   OH220867   0.232   5.551   5.077  0.3940 -0.3765 -0.6990
 6968TIP3    H120868   0.164   5.615   5.095  0.3517 -0.2428 -1.3038
 6968TIP3    H220869   0.237   5.497   5.156  0.6401  0.5547 -0.0724
 6969TIP3   OH220870   3.383   4.112   5.152  0.2694 -0.0058  0.4115
 6969TIP3    H120871   3.296   4.140   5.177  0.6269  1.4080  0.1533
 6969TIP3    H220872   3.442   4.175   5.193  1.2445 -1.4325  1.2896
 6970TIP3   OH220873   1.686   6.220   2.983 -0.1893 -0.0680  0.5118
 6970TIP3    H120874   1.716   6.173   3.061  0.6403 -2.2824 -1.0569
 6970TIP3    H220875   1.731   6.304   2.987  1.7779 -1.1013  1.1565
 6971TIP3   OH220876   5.057   3.322   1.461  0.2619 -0.3603  0.1762
 6971TIP3    H120877   5.111   3.281   1.529  1.3054  1.4147  0.4774
 6971TIP3    H220878   5.091   3.287   1.379  0.8790 -0.3806  0.4394
 6972TIP3   OH220879   6.616   3.380   4.983  0.2791  0.0751 -0.1550
 6972TIP3    H120880   6.603   3.465   4.942 -1.9412  0.7788  1.7840
 6972TIP3    H220881   6.701   3.387   5.027  0.3810  1.0720 -0.4954
 6973TIP3   OH220882   5.908   2.583   1.146  0.0623  0.3113 -0.3732
 6973TIP3    H120883   5.871   2.525   1.079 -0.1102 -1.2127  0.9879
 6973TIP3    H220884   5.986   2.538   1.177 -0.2252  0.6492  0.9160
 6974TIP3   OH220885   3.893   0.987   0.972 -0.4399 -0.6332 -0.6341
 6974TIP3    H120886   3.837   0.993   1.049  1.5131  2.2021  0.7265
 6974TIP3    H220887   3.977   0.955   1.005  0.8340  1.8219 -1.1891
 6975TIP3   OH220888   3.468   6.212   3.373 -0.0605  0.0085  0.2130
 6975TIP3    H120889   3.560   6.234   3.358 -0.1366  1.4071  1.5617
 6975TIP3    H220890   3.459   6.213   3.468 -1.3196 -0.8734  0.1251
 6976TIP3   OH220891   3.919   1.143   1.410 -0.3761  0.2745 -0.2159
 6976TIP3    H120892   4.009   1.142   1.443 -1.1095  1.5639  1.9817
 6976TIP3    H220893   3.907   1.232   1.376 -0.2892 -0.4424 -2.3144
 6977TIP3   OH220894   4.842   4.641   4.231  0.5357 -0.6021 -0.1066
 6977TIP3    H120895   4.821   4.559   4.277  0.9638 -0.6105  0.0799
 6977TIP3    H220896   4.807   4.629   4.143 -0.3070 -0.5846  0.2164
 6978TIP3   OH220897   4.744   5.979   4.620  0.1145 -0.2394 -0.6823
 6978TIP3    H120898   4.733   5.924   4.542 -3.9018 -0.4055 -0.2031
 6978TIP3    H220899   4.715   5.924   4.693  0.9869  0.8652  0.5421
 6979TIP3   OH220900   1.616   1.128   4.129  0.3875  0.4894 -0.5153
 6979TIP3    H120901   1.549   1.187   4.096 -0.1470  0.6510  0.8132
 6979TIP3    H220902   1.572   1.043   4.134 -0.3636  0.9421  2.1075
 6980TIP3   OH220903   3.796   2.762   0.106 -0.1282  0.3545  0.4118
 6980TIP3    H120904   3.766   2.675   0.134  1.5029 -0.1462  0.7595
 6980TIP3    H220905   3.844   2.745   0.025  1.7206  0.6069  1.3904
 6981TIP3   OH220906   0.374   0.183   1.252  0.2730  0.0562  0.5236
 6981TIP3    H120907   0.299   0.243   1.251 -1.8542 -2.4336 -1.0181
 6981TIP3    H220908   0.335   0.096   1.258  3.0174 -1.3989 -0.9688
 6982TIP3   OH220909   2.934   2.306   1.702 -0.2918 -0.1152 -0.0784
 6982TIP3    H120910   2.981   2.232   1.664  1.9035  1.0005  0.2877
 6982TIP3    H220911   2.867   2.266   1.758  0.8851 -1.8459  0.1743
 6983TIP3   OH220912   4.725   3.021   4.030 -0.3488  0.0030 -0.0309
 6983TIP3    H120913   4.756   2.934   4.008  0.9748  0.6044 -0.6860
 6983TIP3    H220914   4.649   3.035   3.974 -0.4442 -0.6493 -0.0675
 6984TIP3   OH220915   7.051   2.157   5.044  0.4576  0.0003 -0.0216
 6984TIP3    H120916   7.117   2.123   5.104 -0.3283 -2.2033 -0.3126
 6984TIP3    H220917   7.100   2.206   4.978  1.4181  1.6409  1.8096
 6985TIP3   OH220918   5.949   5.795   4.712  0.0073  0.1687 -0.0763
 6985TIP3    H120919   5.874   5.784   4.771  0.7704 -0.3742  0.8352
 6985TIP3    H220920   5.975   5.705   4.691  0.4075  0.3564 -0.3777
 6986TIP3   OH220921   2.480   0.804   4.877  0.2655  0.0086  0.6742
 6986TIP3    H120922   2.450   0.724   4.835 -0.0282  0.6259 -0.3210
 6986TIP3    H220923   2.573   0.787   4.895  0.1109 -0.7018  0.8505
 6987TIP3   OH220924   1.093   5.020   4.795 -0.1268  0.7332  0.1905
 6987TIP3    H120925   1.145   4.940   4.781 -0.4970  0.5155  0.0616
 6987TIP3    H220926   1.071   5.017   4.888  1.5089  1.6870  0.6522
 6988TIP3   OH220927   3.973   2.634   1.834  0.1689  0.4034 -0.6170
 6988TIP3    H120928   3.937   2.611   1.920 -2.1495  2.0404 -1.0277
 6988TIP3    H220929   4.036   2.703   1.852  0.5990 -0.1102 -0.1369
 6989TIP3   OH220930   1.748   3.440   1.796 -0.5710 -0.0333 -0.1880
 6989TIP3    H120931   1.661   3.456   1.761 -0.1647 -0.6091 -1.5422
 6989TIP3    H220932   1.807   3.462   1.724  0.4985  1.5720  1.1200
 6990TIP3   OH220933   0.453   0.040   4.790 -0.0433  0.3781 -0.6739
 6990TIP3    H120934   0.531   0.019   4.843 -2.6208 -1.3121  2.9066
 6990TIP3    H220935   0.399   0.094   4.848 -1.9393  0.7549 -2.6762
 6991TIP3   OH220936   0.809   4.282   4.267 -0.4219 -0.0119 -0.0821
 6991TIP3    H120937   0.813   4.187   4.257 -0.3251  0.0446 -0.6055
 6991TIP3    H220938   0.738   4.297   4.330  0.8869 -0.5297  1.5814
 6992TIP3   OH220939   0.587   6.738   3.895 -0.4862 -0.4444 -0.0547
 6992TIP3    H120940   0.606   6.831   3.880  0.2530 -0.7261 -0.9367
 6992TIP3    H220941   0.519   6.717   3.831  0.5030 -0.8933 -0.9944
 6993TIP3   OH220942   2.075   6.391   2.679 -0.1736 -0.4369  0.1023
 6993TIP3    H120943   2.091   6.297   2.684  0.6871 -0.2826  0.6246
 6993TIP3    H220944   1.983   6.400   2.656  0.1150 -1.4176 -1.5595
 6994TIP3   OH220945   6.094   0.439   4.777  0.3698 -0.0112 -0.2693
 6994TIP3    H120946   6.080   0.455   4.871 -2.6858 -1.2573 -0.3768
 6994TIP3    H220947   6.109   0.527   4.740 -0.8464  0.8244  1.0937
 6995TIP3   OH220948   3.011   3.841   4.913  0.2514  0.4382 -0.0314
 6995TIP3    H120949   2.989   3.802   4.829  0.3293  1.5650 -0.5973
 6995TIP3    H220950   3.102   3.870   4.903  0.4316  0.1316  0.6258
 6996TIP3   OH220951   1.067   2.364   4.364  0.3088 -0.0468 -0.0375
 6996TIP3    H120952   0.989   2.415   4.386  0.8487  0.8170 -0.0812
 6996TIP3    H220953   1.079   2.378   4.270  0.5160 -0.1868 -0.0331
 6997TIP3   OH220954   1.413   1.548   1.431  0.5474 -0.0216  0.1270
 6997TIP3    H120955   1.460   1.627   1.405 -1.5730  1.6101  0.8923
 6997TIP3    H220956   1.425   1.543   1.526 -0.3461  0.1404  0.2582
 6998TIP3   OH220957   0.400   4.513   0.783 -0.0934  0.1054 -0.0798
 6998TIP3    H120958   0.465   4.445   0.766  0.7711  0.4507  1.5607
 6998TIP3    H220959   0.317   4.466   0.791 -0.3728 -0.2191 -3.4438
 6999TIP3   OH220960   1.819   0.968   3.623  0.3421  0.0992  0.8247
 6999TIP3    H120961   1.763   0.914   3.679 -0.8215  0.1127 -0.2793
 6999TIP3    H220962   1.760   1.034   3.587  0.7905 -0.5276 -1.2158
 7000TIP3   OH220963   4.420   1.057   5.734  0.3038  0.2198 -0.6127
 7000TIP3    H120964   4.324   1.053   5.740  0.3189  0.0122 -0.5056
 7000TIP3    H220965   4.445   1.124   5.797  0.1916  0.6378 -1.0073
 7001TIP3   OH220966   2.944   6.396   3.612  0.7799  1.0400 -0.4735
 7001TIP3    H120967   2.975   6.468   3.557 -0.1000  2.0025  0.2420
 7001TIP3    H220968   3.022   6.363   3.655  1.3380  0.9253 -1.5426
 7002TIP3   OH220969   5.166   2.683   4.215 -0.1310 -0.5473  0.1492
 7002TIP3    H120970   5.079   2.651   4.238  0.4143 -0.1729  3.2011
 7002TIP3    H220971   5.223   2.607   4.223  0.7383  0.2803  4.8063
 7003TIP3   OH220972   6.892   2.412   4.797  0.1033  0.6293 -0.1947
 7003TIP3    H120973   6.835   2.354   4.746  0.5290 -0.2759  0.3281
 7003TIP3    H220974   6.894   2.373   4.885  3.5195 -0.9213 -0.7629
 7004TIP3   OH220975   5.558   1.367   5.826 -0.1462  0.0495  0.0723
 7004TIP3    H120976   5.651   1.385   5.838 -0.1313 -0.1123  0.2077
 7004TIP3    H220977   5.536   1.407   5.742  0.1481 -0.3001 -0.1713
 7005TIP3   OH220978   6.266   5.829   1.077  0.3541 -0.1429  0.6559
 7005TIP3    H120979   6.251   5.803   0.986 -0.5669 -0.6873  0.9509
 7005TIP3    H220980   6.258   5.925   1.076  1.4160 -0.0429 -0.0125
 7006TIP3   OH220981   4.393   1.727   1.804  0.8285 -0.2306  0.3488
 7006TIP3    H120982   4.324   1.747   1.867  0.5771 -0.1762  0.0560
 7006TIP3    H220983   4.428   1.643   1.832 -0.7903 -1.3188 -0.7357
 7007TIP3   OH220984   2.627   1.831   5.271 -0.2742  0.2924 -0.4302
 7007TIP3    H120985   2.604   1.847   5.179 -0.2792 -1.8357 -0.8640
 7007TIP3    H220986   2.716   1.798   5.268  0.2200  1.4680  0.5077
 7008TIP3   OH220987   4.122   4.046   1.058 -0.1475  0.2450 -0.2699
 7008TIP3    H120988   4.108   4.116   1.122  1.0325  0.1833  0.0816
 7008TIP3    H220989   4.131   4.091   0.974  0.7306  0.5528 -0.0270
 7009TIP3   OH220990   6.276   1.931   4.689  0.5435  0.1852 -0.1281
 7009TIP3    H120991   6.218   1.873   4.739  0.2543 -0.1108 -0.7833
 7009TIP3    H220992   6.222   2.007   4.668  1.1557  1.0797  1.3993
 7010TIP3   OH220993   1.594   0.619   0.408  0.9587  0.0049 -0.0502
 7010TIP3    H120994   1.530   0.593   0.342  1.6021  0.0502 -0.7074
 7010TIP3    H220995   1.678   0.592   0.371  1.3291  0.0805  0.7318
 7011TIP3   OH220996   2.495   3.654   4.063  0.0649 -0.4127 -0.1985
 7011TIP3    H120997   2.487   3.654   3.968  0.0958 -1.2750 -0.2073
 7011TIP3    H220998   2.430   3.590   4.093  1.2755 -1.4672  0.2385
 7012TIP3   OH220999   0.782   1.930   3.891 -0.0764  0.1938 -0.1774
 7012TIP3    H121000   0.790   1.854   3.833 -0.1186 -1.0203  1.3099
 7012TIP3    H221001   0.691   1.926   3.923  0.1395  0.4081  0.4903
 7013TIP3   OH221002   4.530   2.857   2.915  0.0315  0.2964 -0.2648
 7013TIP3    H121003   4.466   2.795   2.952  0.6586  0.0685  0.4538
 7013TIP3    H221004   4.502   2.942   2.948  0.4037  0.1323  0.5121
 7014TIP3   OH221005   3.083   1.141   4.096  0.3728  0.5269  0.1987
 7014TIP3    H121006   3.141   1.107   4.028 -2.1523 -0.0766 -1.8091
 7014TIP3    H221007   3.033   1.210   4.054 -0.5961  0.8390  1.7559
 7015TIP3   OH221008   6.213   3.633   3.607 -0.1247  0.0974 -0.0761
 7015TIP3    H121009   6.250   3.721   3.604 -1.4165  0.6777  0.2444
 7015TIP3    H221010   6.289   3.575   3.607  0.7926  1.2397  0.8164
 7016TIP3   OH221011   4.827   3.809   3.555 -0.7690  0.1346 -0.5949
 7016TIP3    H121012   4.914   3.799   3.516 -0.2749  1.5353  0.1050
 7016TIP3    H221013   4.783   3.875   3.502 -0.6996  0.8196  0.1729
 7017TIP3   OH221014   5.266   1.855   4.849  0.3266  0.1859  0.1285
 7017TIP3    H121015   5.210   1.894   4.915  0.1878 -0.5270  0.4415
 7017TIP3    H221016   5.213   1.786   4.810 -0.7932  2.5494 -2.9662
 7018TIP3   OH221017   3.447   3.833   2.563 -0.3094 -0.1201 -0.1333
 7018TIP3    H121018   3.386   3.827   2.489  0.7890 -2.5548 -0.9655
 7018TIP3    H221019   3.533   3.815   2.524  0.4174 -0.5276  1.5789
 7019TIP3   OH221020   6.222   1.730   3.576  0.5364 -0.2535 -0.1739
 7019TIP3    H121021   6.141   1.696   3.614  0.0804 -0.4655 -1.2963
 7019TIP3    H221022   6.194   1.784   3.503  1.4206 -0.7626 -0.9152
 7020TIP3   OH221023   2.083   6.380   5.488 -0.5485 -0.2222  0.0405
 7020TIP3    H121024   2.056   6.424   5.568 -0.5510 -0.0257 -0.0667
 7020TIP3    H221025   2.178   6.394   5.483 -0.8433  1.7130 -1.1395
 7021TIP3   OH221026   3.477   0.053   1.952 -0.2150  0.0527  0.1428
 7021TIP3    H121027   3.411   0.012   2.008 -2.5453  1.5176 -1.3832
 7021TIP3    H221028   3.487  -0.008   1.879 -1.8560  0.9917 -0.9057
 7022TIP3   OH221029   2.681   1.655   1.248  0.2131 -0.2837  0.2485
 7022TIP3    H121030   2.599   1.699   1.267  1.0359  1.2767  0.3437
 7022TIP3    H221031   2.728   1.715   1.190  1.2563 -1.1723  0.1374
 7023TIP3   OH221032   2.904   2.651   2.010  0.1783 -0.0559  0.4654
 7023TIP3    H121033   2.843   2.601   1.955  2.4561 -0.9017 -1.4575
 7023TIP3    H221034   2.878   2.742   1.998 -1.9347 -0.4970  1.3228
 7024TIP3   OH221035   0.916   2.923   3.448 -0.0392 -0.8320 -0.2452
 7024TIP3    H121036   0.996   2.872   3.458  0.3279 -0.2288 -0.0529
 7024TIP3    H221037   0.849   2.871   3.492  0.3800 -1.0169  0.1851
 7025TIP3   OH221038   3.285   0.312   0.141  0.0953 -0.4236  0.2061
 7025TIP3    H121039   3.290   0.319   0.045  0.8076 -1.2998  0.1592
 7025TIP3    H221040   3.253   0.397   0.170  2.2082  0.7350 -0.6436
 7026TIP3   OH221041   1.616   1.891   3.511  0.0884  0.1799  0.4161
 7026TIP3    H121042   1.608   1.922   3.420 -1.5254 -0.9604  0.1331
 7026TIP3    H221043   1.528   1.897   3.547  0.2646 -1.3796  1.2202
 7027TIP3   OH221044   1.010   3.824   2.951  0.5914 -0.6928 -0.2766
 7027TIP3    H121045   0.958   3.897   2.984  2.0139  1.1860 -1.9278
 7027TIP3    H221046   1.064   3.797   3.026 -0.1005 -0.1815  0.4114
 7028TIP3   OH221047   5.373   5.275   3.907  0.0070  0.3763  0.0735
 7028TIP3    H121048   5.452   5.314   3.870  0.5141 -1.8998 -1.4919
 7028TIP3    H221049   5.402   5.193   3.946 -1.6651 -1.1240 -1.6106
 7029TIP3   OH221050   6.718   1.256   3.416  0.6741 -0.4347  0.3160
 7029TIP3    H121051   6.639   1.262   3.362  0.0695  0.6096  1.2681
 7029TIP3    H221052   6.790   1.251   3.354  0.0216  1.0865 -0.5909
 7030TIP3   OH221053   6.628   1.129   0.441  0.3524  0.0319 -0.2476
 7030TIP3    H121054   6.687   1.058   0.417 -0.2860 -0.5389 -0.1638
 7030TIP3    H221055   6.548   1.111   0.392 -1.6318 -2.1318  3.3713
 7031TIP3   OH221056   2.807   5.131   4.406 -0.7389  0.2514  0.3962
 7031TIP3    H121057   2.785   5.045   4.442  0.3345 -0.2667 -0.1233
 7031TIP3    H221058   2.886   5.157   4.455  2.0773 -1.4264 -2.8527
 7032TIP3   OH221059   4.362   4.708   3.151  0.1783  0.0897 -0.9136
 7032TIP3    H121060   4.354   4.746   3.239  2.1108 -1.3192 -0.0726
 7032TIP3    H221061   4.350   4.783   3.092 -0.8776  1.1136  0.5165
 7033TIP3   OH221062   3.235   0.931   3.510  0.0860 -0.4666 -0.1832
 7033TIP3    H121063   3.304   0.987   3.544 -1.6238  1.0753  0.9963
 7033TIP3    H221064   3.257   0.843   3.541  0.2096  0.4021  2.3883
 7034TIP3   OH221065   2.455   0.010   0.367  0.3513  0.0777  0.5124
 7034TIP3    H121066   2.547   0.038   0.368  0.5406 -0.4292  2.6352
 7034TIP3    H221067   2.418   0.050   0.446 -1.1023 -0.2499  0.0183
 7035TIP3   OH221068   3.198   1.621   1.270  0.7034 -0.2400 -0.7145
 7035TIP3    H121069   3.180   1.641   1.362  3.3075  0.9077 -0.3436
 7035TIP3    H221070   3.207   1.526   1.267  2.1422 -0.1845  0.6092
 7036TIP3   OH221071   0.181   2.776   0.840 -0.4462  0.3096 -0.0047
 7036TIP3    H121072   0.270   2.750   0.820 -0.7310  0.0316 -1.0088
 7036TIP3    H221073   0.131   2.694   0.842 -0.7168  0.4779  0.3313
 7037TIP3   OH221074   0.757   4.649   0.891 -0.8098 -0.6967  0.3669
 7037TIP3    H121075   0.842   4.669   0.931 -1.0564 -0.8636  0.9935
 7037TIP3    H221076   0.759   4.554   0.878  0.5479 -0.3130 -3.0362
 7038TIP3   OH221077   1.457   0.957   2.195  0.2035 -0.1388 -0.0904
 7038TIP3    H121078   1.373   0.967   2.240 -0.1451  0.3044 -0.8250
 7038TIP3    H221079   1.522   0.963   2.264 -0.3043  0.9113  0.3172
 7039TIP3   OH221080   5.480   1.785   5.327 -0.3544 -0.2201  0.1354
 7039TIP3    H121081   5.527   1.702   5.321 -0.1573 -0.0369 -1.2149
 7039TIP3    H221082   5.440   1.784   5.413 -0.1161 -1.5908  0.2464
 7040TIP3   OH221083   2.626   5.629   0.340 -0.5689 -0.2147  0.0207
 7040TIP3    H121084   2.567   5.555   0.356 -2.6753  1.3314 -0.1295
 7040TIP3    H221085   2.654   5.618   0.249 -1.7505 -0.2538 -0.3480
 7041TIP3   OH221086   1.272   0.246   4.133  0.2637  0.4813 -0.6651
 7041TIP3    H121087   1.330   0.175   4.160  0.0194  0.9232  1.1580
 7041TIP3    H221088   1.184   0.210   4.142  0.1753  0.1241 -2.5119
 7042TIP3   OH221089   0.444   0.718   0.861  0.4059  0.2551  0.4853
 7042TIP3    H121090   0.431   0.660   0.937 -1.3902  0.8398  0.6619
 7042TIP3    H221091   0.445   0.806   0.898 -1.1218  0.5893 -0.2113
 7043TIP3   OH221092   5.931   5.018   2.098 -0.7218 -0.4405 -0.1764
 7043TIP3    H121093   5.860   5.081   2.089 -1.6881 -1.0124  2.4625
 7043TIP3    H221094   5.947   4.987   2.009 -0.5484  3.0422 -1.5436
 7044TIP3   OH221095   2.836   2.759   2.472 -0.2167  0.0446 -0.2185
 7044TIP3    H121096   2.892   2.800   2.539  0.9733 -1.2364 -0.3671
 7044TIP3    H221097   2.829   2.824   2.403  1.2594  0.2044 -0.2595
 7045TIP3   OH221098   7.038   0.394   2.722  0.2606 -0.2402  0.0626
 7045TIP3    H121099   7.104   0.430   2.781 -1.0366 -1.0892  2.1596
 7045TIP3    H221100   7.059   0.301   2.716  1.7980  0.1562 -2.8922
 7046TIP3   OH221101   4.986   3.834   5.017 -0.3264  0.0430 -0.0757
 7046TIP3    H121102   4.956   3.924   5.007  0.1417  0.0558 -1.7575
 7046TIP3    H221103   5.054   3.838   5.084  0.1055  1.0742 -0.5568
 7047TIP3   OH221104   3.375   3.918   4.219  0.3707 -0.2437  0.0370
 7047TIP3    H121105   3.340   3.896   4.133  1.6444  0.5256 -0.7328
 7047TIP3    H221106   3.461   3.876   4.221  0.4295 -0.1001  0.8556
 7048TIP3   OH221107   1.394   0.841   0.248 -0.0228  0.1958  0.1415
 7048TIP3    H121108   1.458   0.912   0.245  1.3422 -0.9201  1.2175
 7048TIP3    H221109   1.371   0.825   0.157  0.8291  0.9986 -0.2258
 7049TIP3   OH221110   1.349   0.802   1.842  0.3747  0.8178  0.0967
 7049TIP3    H121111   1.331   0.896   1.844  0.6534  0.8983 -0.7048
 7049TIP3    H221112   1.263   0.761   1.838  0.2319  1.0093  0.8903
 7050TIP3   OH221113   6.422   4.061   1.765 -0.2611  0.4690  0.1863
 7050TIP3    H121114   6.432   4.153   1.739  2.6446 -0.0604 -0.9109
 7050TIP3    H221115   6.446   4.011   1.687  0.2305 -1.2080  1.3502
 7051TIP3   OH221116   5.846   2.559   4.421 -0.7039  0.2828  0.4516
 7051TIP3    H121117   5.783   2.630   4.413  0.8466  1.6669 -0.0099
 7051TIP3    H221118   5.903   2.584   4.494 -1.2482 -1.4286  1.5260
 7052TIP3   OH221119   4.502   0.113   3.468  0.4748 -0.3672 -0.0791
 7052TIP3    H121120   4.565   0.133   3.399  1.6297 -2.0913  0.4164
 7052TIP3    H221121   4.421   0.092   3.421  1.3431 -1.8965 -0.9723
 7053TIP3   OH221122   3.552   0.778   3.688 -0.0642  0.2964 -0.2700
 7053TIP3    H121123   3.482   0.713   3.679 -1.0223  1.3153 -0.4428
 7053TIP3    H221124   3.611   0.741   3.752 -0.2594 -1.0267 -0.8176
 7054TIP3   OH221125   4.640   5.498   5.834 -0.1656 -0.2829  0.1998
 7054TIP3    H121126   4.613   5.572   5.780  2.7275  1.8307  1.4073
 7054TIP3    H221127   4.715   5.461   5.788  1.6228  0.8333  2.0703
 7055TIP3   OH221128   3.472   0.268   2.574 -0.4195 -0.2090  0.1005
 7055TIP3    H121129   3.470   0.173   2.568 -0.0270 -0.1413 -2.2520
 7055TIP3    H221130   3.498   0.297   2.486  1.8377  1.9763  1.3468
 7056TIP3   OH221131   5.774   5.714   0.968 -0.1852 -0.4355 -0.5703
 7056TIP3    H121132   5.706   5.683   0.908  0.7925 -1.3057 -1.2419
 7056TIP3    H221133   5.841   5.751   0.911 -0.2658  0.8365  0.1133
 7057TIP3   OH221134   1.818   5.730   4.900 -0.2290 -0.1064 -0.1645
 7057TIP3    H121135   1.886   5.779   4.945 -1.1715 -0.3872  1.6693
 7057TIP3    H221136   1.824   5.758   4.809  2.1005  0.1007  0.0009
 7058TIP3   OH221137   6.815   6.101   1.038  0.2972  0.0896  0.8848
 7058TIP3    H121138   6.762   6.097   1.118  0.4922  4.4546  1.5082
 7058TIP3    H221139   6.751   6.106   0.967 -0.0376  0.7680  1.2247
 7059TIP3   OH221140   6.423   5.708   1.252 -0.0274  0.3697 -0.0292
 7059TIP3    H121141   6.374   5.626   1.245 -1.6597  1.3052  0.0789
 7059TIP3    H221142   6.383   5.766   1.188  0.3996  1.4356  0.6366
 7060TIP3   OH221143   5.332   2.084   5.107 -0.2481  0.1970  0.1693
 7060TIP3    H121144   5.303   2.022   5.174 -0.4215 -0.1119 -0.1918
 7060TIP3    H221145   5.367   2.029   5.037  1.0231  0.5456  0.4953
 7061TIP3   OH221146   3.701   0.255   5.210 -0.6343 -0.5441 -0.1763
 7061TIP3    H121147   3.697   0.187   5.277  0.0646  0.1522  0.5942
 7061TIP3    H221148   3.697   0.337   5.259  2.0449  0.0290 -0.7510
 7062TIP3   OH221149   4.675   1.605   3.725  0.0420 -0.0504  0.4392
 7062TIP3    H121150   4.688   1.572   3.814 -2.7813 -3.5479 -0.2574
 7062TIP3    H221151   4.616   1.680   3.736  1.2907  0.8369  1.5562
 7063TIP3   OH221152   2.983   4.878   3.914 -0.3987  0.2882 -0.2485
 7063TIP3    H121153   3.003   4.936   3.988 -0.1927 -0.1497  0.0427
 7063TIP3    H221154   3.069   4.849   3.883 -0.4676  0.7339 -0.8791
 7064TIP3   OH221155   5.247   1.401   5.800  0.6815 -0.1760  0.8113
 7064TIP3    H121156   5.202   1.383   5.883  0.4040  1.9572  1.1940
 7064TIP3    H221157   5.335   1.365   5.812 -0.1219 -2.1647  1.0230
 7065TIP3   OH221158   1.520   2.747   0.783 -0.4991  0.1295 -0.3025
 7065TIP3    H121159   1.596   2.757   0.839 -1.0054  0.1983  0.3889
 7065TIP3    H221160   1.454   2.806   0.821 -1.5990 -1.4735  0.3802
 7066TIP3   OH221161   1.970   2.661   1.013 -0.3170 -0.0356  0.5703
 7066TIP3    H121162   2.002   2.611   0.938  0.8355  1.0297  0.3008
 7066TIP3    H221163   1.939   2.595   1.075  0.6327 -1.0510  0.0110
 7067TIP3   OH221164   5.563   6.661   1.575 -0.1953 -0.2351 -0.5654
 7067TIP3    H121165   5.648   6.664   1.531  0.4855  0.2562  0.7485
 7067TIP3    H221166   5.548   6.567   1.588  0.3824 -0.3062 -0.3609
 7068TIP3   OH221167   4.938   6.568   4.131 -0.0898 -0.1765  0.1111
 7068TIP3    H121168   4.956   6.480   4.100  3.7656  1.2398 -2.5797
 7068TIP3    H221169   4.948   6.563   4.226  0.7760 -2.4847 -0.0421
 7069TIP3   OH221170   0.582   4.680   2.486 -0.1440  0.2234  0.1386
 7069TIP3    H121171   0.488   4.665   2.495  0.1211 -1.5071  0.3073
 7069TIP3    H221172   0.590   4.775   2.479 -1.8051  0.4987  1.2893
 7070TIP3   OH221173   5.411   0.265   3.117 -0.0529 -0.2280 -0.0751
 7070TIP3    H121174   5.462   0.243   3.038 -0.6372 -0.2528 -0.4496
 7070TIP3    H221175   5.320   0.251   3.091 -0.3107  0.6692  0.3116
 7071TIP3   OH221176   1.459   5.421   5.468  0.4567 -0.2209 -0.4245
 7071TIP3    H121177   1.514   5.359   5.421  0.9483  0.2142 -0.4387
 7071TIP3    H221178   1.387   5.440   5.409  0.5594 -0.4152 -0.6124
 7072TIP3   OH221179   2.929   6.632   5.276  0.0269 -0.3917  0.1376
 7072TIP3    H121180   2.847   6.681   5.288  0.7833  0.8115  0.6030
 7072TIP3    H221181   2.956   6.652   5.186  0.9333  1.0401  0.6988
 7073TIP3   OH221182   2.074   3.532   4.282  0.5262  0.0138  0.3838
 7073TIP3    H121183   2.122   3.586   4.345 -0.6239 -0.1481  1.4320
 7073TIP3    H221184   1.989   3.575   4.274  0.6800  0.0975 -1.1753
 7074TIP3   OH221185   4.751   1.228   1.351 -0.2583 -0.0140  0.2445
 7074TIP3    H121186   4.685   1.270   1.407 -1.7016 -0.8935 -0.7238
 7074TIP3    H221187   4.735   1.265   1.264  0.2152 -0.5952 -0.1000
 7075TIP3   OH221188   3.530   2.487   0.780  0.3448 -0.2413 -0.0839
 7075TIP3    H121189   3.456   2.463   0.725 -1.4914 -1.6716  2.7326
 7075TIP3    H221190   3.570   2.562   0.736 -0.9157 -1.2853 -3.2682
 7076TIP3   OH221191   3.348   2.342   0.977 -0.6166  0.5275  0.1895
 7076TIP3    H121192   3.389   2.265   1.018  0.0021  0.0146 -1.3170
 7076TIP3    H221193   3.422   2.395   0.947 -1.0458  0.9249 -0.1817
 7077TIP3   OH221194   4.174   3.172   4.498 -0.6986 -0.1600  0.0013
 7077TIP3    H121195   4.155   3.093   4.447 -0.1135  0.4432 -1.1874
 7077TIP3    H221196   4.251   3.210   4.455 -1.4972  1.5379 -0.0034
 7078TIP3   OH221197   6.885   4.902   2.924 -0.7128  0.1121  0.2693
 7078TIP3    H121198   6.888   4.942   3.012 -0.0598 -0.3410  0.4583
 7078TIP3    H221199   6.793   4.878   2.912 -0.6699 -0.5326  1.1514
 7079TIP3   OH221200   5.693   4.844   3.426 -0.3568 -0.2936  0.2836
 7079TIP3    H121201   5.674   4.862   3.518 -1.0892  1.2151 -0.1275
 7079TIP3    H221202   5.612   4.867   3.380  0.3663  0.0981 -0.8439
 7080TIP3   OH221203   3.493   4.385   2.028  0.1103  0.4674  0.5924
 7080TIP3    H121204   3.577   4.340   2.039 -0.3185 -0.2352  1.1242
 7080TIP3    H221205   3.454   4.383   2.115 -0.9572 -0.2597  0.1193
 7081TIP3   OH221206   2.581   6.436   0.383  0.1886 -0.5927  0.3758
 7081TIP3    H121207   2.624   6.363   0.338 -0.3480 -1.7111  1.5990
 7081TIP3    H221208   2.508   6.395   0.430 -0.1677  0.7491  1.0270
 7082TIP3   OH221209   4.885   1.952   3.239 -0.3110 -0.0492 -0.0825
 7082TIP3    H121210   4.960   1.897   3.216 -1.8858 -1.8043 -1.3022
 7082TIP3    H221211   4.921   2.016   3.302  1.3983 -3.1674  2.4267
 7083TIP3   OH221212   4.896   3.296   4.449 -0.1367 -0.3239  0.2271
 7083TIP3    H121213   4.851   3.214   4.429 -0.4256 -0.3147  0.8149
 7083TIP3    H221214   4.883   3.350   4.371 -2.3501  0.1940  0.8747
 7084TIP3   OH221215   4.076   0.420   1.246  0.0581  0.2868 -0.2625
 7084TIP3    H121216   4.014   0.364   1.199 -0.7384  0.3333  0.7004
 7084TIP3    H221217   4.048   0.415   1.338 -0.5095  2.8704 -0.2384
 7085TIP3   OH221218   6.344   0.766   0.132  0.0662  0.0141  0.1781
 7085TIP3    H121219   6.332   0.799   0.221 -3.5856  1.1619 -0.5358
 7085TIP3    H221220   6.356   0.672   0.142  1.0332  0.2853  1.9108
 7086TIP3   OH221221   5.563   3.854   4.236 -0.2527  0.0751 -0.0305
 7086TIP3    H121222   5.612   3.931   4.208 -0.6880 -0.1601 -1.4866
 7086TIP3    H221223   5.481   3.858   4.188 -0.8630 -0.5831  0.9104
 7087TIP3   OH221224   4.329   5.204   2.627  0.1010  0.0117  0.2679
 7087TIP3    H121225   4.390   5.221   2.555 -0.2432 -1.4524 -0.4038
 7087TIP3    H221226   4.381   5.154   2.691 -0.1184 -0.3674  0.1511
 7088TIP3   OH221227   1.418   4.486   1.761  0.0032  0.0402  0.3346
 7088TIP3    H121228   1.364   4.408   1.773  0.4511 -0.5238 -1.0591
 7088TIP3    H221229   1.358   4.560   1.771 -1.2723 -0.5815 -2.0911
 7089TIP3   OH221230   2.942   1.776   5.147  0.7676 -0.5547 -0.1951
 7089TIP3    H121231   3.020   1.734   5.110  0.9250 -0.0056 -0.5061
 7089TIP3    H221232   2.882   1.785   5.074  1.2919  1.0243 -0.4802
 7090TIP3   OH221233   2.392   3.046   3.490 -0.1659 -0.2003 -0.0805
 7090TIP3    H121234   2.384   2.978   3.556 -1.7427 -0.7963 -0.8310
 7090TIP3    H221235   2.414   2.999   3.410 -0.6908  0.2296 -0.4864
 7091TIP3   OH221236   0.122   0.292   2.559  0.2685  0.2109  0.0943
 7091TIP3    H121237   0.098   0.384   2.550  0.1689 -0.0099 -2.6346
 7091TIP3    H221238   0.217   0.290   2.546 -0.0896 -0.3167 -3.2134
 7092TIP3   OH221239   2.895   3.270   2.859 -0.3856  0.0478 -0.0618
 7092TIP3    H121240   2.836   3.198   2.883 -1.2081  0.6943 -0.0821
 7092TIP3    H221241   2.851   3.348   2.891  0.4554  0.5565 -0.1186
 7093TIP3   OH221242   4.744   4.217   0.361  0.2569 -0.2691  0.1709
 7093TIP3    H121243   4.807   4.153   0.327  0.2406  0.4142 -1.2120
 7093TIP3    H221244   4.761   4.220   0.455 -1.2071 -3.9204  0.7207
 7094TIP3   OH221245   3.737   4.684   3.995 -0.1853  0.4311 -0.0085
 7094TIP3    H121246   3.771   4.610   4.046 -0.2749 -0.3524 -1.0465
 7094TIP3    H221247   3.765   4.761   4.043  4.7949  0.0033 -1.6732
 7095TIP3   OH221248   2.762   5.356   1.195  0.0433 -0.4943 -0.5038
 7095TIP3    H121249   2.746   5.399   1.111  1.4708 -1.4698 -1.3180
 7095TIP3    H221250   2.676   5.354   1.238 -0.4377  1.3130 -1.2988
 7096TIP3   OH221251   6.234   3.959   4.473  0.5415 -0.1848  0.2306
 7096TIP3    H121252   6.193   3.875   4.493 -0.3620  0.1545 -0.1466
 7096TIP3    H221253   6.318   3.936   4.433  0.8258 -0.8908  1.2089
 7097TIP3   OH221254   5.985   0.807   0.215 -0.5237 -0.5410  0.3625
 7097TIP3    H121255   6.010   0.898   0.202  1.0806 -0.8315  1.1447
 7097TIP3    H221256   5.926   0.809   0.291 -0.3733 -0.1882  0.4721
 7098TIP3   OH221257   5.688   4.116   0.169  0.1074 -0.3767 -0.3192
 7098TIP3    H121258   5.594   4.112   0.151 -0.1705 -0.9966  1.0869
 7098TIP3    H221259   5.695   4.098   0.263  1.4619  1.8637  0.0773
 7099TIP3   OH221260   3.922   2.372   0.415  0.1838  0.1916  0.5438
 7099TIP3    H121261   3.901   2.463   0.434  0.5462  0.4707 -0.3415
 7099TIP3    H221262   3.845   2.323   0.445  0.7568  0.5520  2.8205
 7100TIP3   OH221263   2.753   3.269   2.055  0.3117 -0.2533  0.1298
 7100TIP3    H121264   2.737   3.363   2.057  2.8967  0.2448  1.8916
 7100TIP3    H221265   2.848   3.260   2.061  0.1345 -2.9918  0.2189
 7101TIP3   OH221266   2.508   4.059   2.069  0.1702  0.1518  0.1742
 7101TIP3    H121267   2.505   4.155   2.073  0.6410  0.2208 -0.8655
 7101TIP3    H221268   2.417   4.032   2.084  0.3963  0.6248  2.8306
 7102TIP3   OH221269   5.974   5.267   5.110 -0.5288  0.1724  0.1689
 7102TIP3    H121270   5.924   5.223   5.041  0.2714 -0.7848  0.1732
 7102TIP3    H221271   5.909   5.316   5.160 -1.1579  0.6496 -1.0904
 7103TIP3   OH221272   4.147   1.899   4.679  0.6464  0.0178 -0.2869
 7103TIP3    H121273   4.061   1.879   4.716  1.2805 -0.9389  0.7328
 7103TIP3    H221274   4.138   1.879   4.586 -0.7041  1.5462 -0.5245
 7104TIP3   OH221275   0.756   3.191   5.044 -0.2751 -0.7900  0.1273
 7104TIP3    H121276   0.794   3.104   5.037 -0.2526 -0.8364  0.7927
 7104TIP3    H221277   0.687   3.183   5.110 -0.8840 -0.5128 -0.4645
 7105TIP3   OH221278   0.307   5.552   5.585 -0.4332 -0.3494 -0.4038
 7105TIP3    H121279   0.352   5.469   5.600  1.0956  0.2674 -1.2946
 7105TIP3    H221280   0.376   5.618   5.593 -1.7386  0.9131  0.9193
 7106TIP3   OH221281   4.620   0.330   3.989  0.2793  0.0081  0.6814
 7106TIP3    H121282   4.537   0.375   3.999  0.4797  0.9415 -1.3081
 7106TIP3    H221283   4.599   0.237   3.999 -0.7128  0.3280  1.6663
 7107TIP3   OH221284   4.895   5.580   1.629 -0.4465 -1.0760  0.2378
 7107TIP3    H121285   4.824   5.607   1.687 -1.1219 -1.0180 -0.5953
 7107TIP3    H221286   4.851   5.552   1.549  0.5604  0.8461 -1.0547
 7108TIP3   OH221287   0.371   5.449   2.443 -0.4671 -0.8801  0.2155
 7108TIP3    H121288   0.434   5.394   2.396 -0.2590  0.0735 -0.6536
 7108TIP3    H221289   0.385   5.427   2.535 -0.1331 -1.9960 -0.0778
 7109TIP3   OH221290   2.768   0.449   3.718  0.0749 -0.5039 -0.0614
 7109TIP3    H121291   2.799   0.503   3.792  1.9680 -0.5646 -0.7644
 7109TIP3    H221292   2.679   0.423   3.744  0.0462  0.8763  1.4254
 7110TIP3   OH221293   4.528   5.578   0.868 -0.0490  0.5111 -0.1547
 7110TIP3    H121294   4.544   5.497   0.915 -1.2140  0.4531  0.1935
 7110TIP3    H221295   4.496   5.550   0.782 -0.6346  0.5790  0.0319
 7111TIP3   OH221296   3.124   3.540   1.763  0.2082  0.0885  0.1094
 7111TIP3    H121297   3.204   3.584   1.792 -0.0777  0.2415  0.6799
 7111TIP3    H221298   3.154   3.477   1.698  0.4886  2.1277 -1.8847
 7112TIP3   OH221299   2.278   1.946   2.980  0.0643 -0.1680 -0.6548
 7112TIP3    H121300   2.356   1.908   2.939  0.9442  0.3949  0.4526
 7112TIP3    H221301   2.226   1.977   2.906  0.5813 -1.1196 -1.4424
 7113TIP3   OH221302   3.301   1.450   2.403  0.1217 -0.0082 -0.3549
 7113TIP3    H121303   3.219   1.411   2.373  0.9539 -1.8657 -0.3872
 7113TIP3    H221304   3.350   1.470   2.323  0.7283 -1.3250 -0.3473
 7114TIP3   OH221305   1.167   6.754   2.394 -0.2537  0.0331 -0.3921
 7114TIP3    H121306   1.074   6.733   2.404  0.2198 -1.7830  0.7599
 7114TIP3    H221307   1.212   6.689   2.449  1.6316  1.6265  0.0773
 7115TIP3   OH221308   0.546   0.859   3.665  0.2118  0.2157 -0.0850
 7115TIP3    H121309   0.546   0.923   3.737  3.1147  0.6334 -0.3352
 7115TIP3    H221310   0.589   0.905   3.593 -0.3554 -1.0644 -1.2656
 7116TIP3   OH221311   6.436   0.651   1.588  0.2389  0.4756  0.5186
 7116TIP3    H121312   6.406   0.735   1.552  0.0670  0.0207 -0.4313
 7116TIP3    H221313   6.531   0.654   1.579  0.1499  0.0845 -0.6278
 7117TIP3   OH221314   4.284   2.755   3.019  0.3716  0.1223 -0.3309
 7117TIP3    H121315   4.290   2.676   3.072 -1.3025 -0.4801 -0.9711
 7117TIP3    H221316   4.243   2.726   2.937 -0.8889  1.7405 -0.3247
 7118TIP3   OH221317   1.227   1.242   1.963  0.4852 -0.1078  0.0334
 7118TIP3    H121318   1.317   1.214   1.981  0.8982  1.2392  0.1531
 7118TIP3    H221319   1.222   1.330   1.999 -0.8398 -0.1022 -0.1377
 7119TIP3   OH221320   6.360   2.161   2.629  0.2509  0.2015 -0.2111
 7119TIP3    H121321   6.429   2.177   2.565  1.6421  0.2566  1.2279
 7119TIP3    H221322   6.308   2.241   2.628  0.0178  0.0490 -1.5215
 7120TIP3   OH221323   3.464   1.369   3.551  0.1421 -0.3736 -0.2911
 7120TIP3    H121324   3.480   1.414   3.468 -0.0714  0.7928  0.2845
 7120TIP3    H221325   3.513   1.418   3.616 -1.4324  0.0773  0.6304
 7121TIP3   OH221326   3.364   6.624   1.524 -0.3155  0.3469  0.1940
 7121TIP3    H121327   3.342   6.541   1.481 -1.4357  0.7885 -0.1088
 7121TIP3    H221328   3.441   6.603   1.577 -0.0110 -0.6563 -0.6019
 7122TIP3   OH221329   0.330   6.298   3.632 -0.1061 -0.2613  0.6249
 7122TIP3    H121330   0.354   6.363   3.566  1.7412 -1.6147 -0.1034
 7122TIP3    H221331   0.363   6.334   3.714  2.2872 -0.8934  0.0101
 7123TIP3   OH221332   4.400   0.124   3.079 -0.2056 -0.0712  0.1222
 7123TIP3    H121333   4.377   0.034   3.100  1.5858 -0.7523 -0.6559
 7123TIP3    H221334   4.319   0.163   3.045 -1.4429 -0.8493  2.0141
 7124TIP3   OH221335   3.942   3.570   1.733 -0.3806  0.1074 -0.1302
 7124TIP3    H121336   3.917   3.538   1.646  2.3430  1.4162 -1.5419
 7124TIP3    H221337   3.953   3.664   1.722  1.2154  0.1437  1.2847
 7125TIP3   OH221338   6.413   4.060   3.179 -0.0867 -0.6998  0.4744
 7125TIP3    H121339   6.476   4.044   3.250 -0.7651 -0.1142  1.2255
 7125TIP3    H221340   6.338   4.099   3.223  0.0573  1.0619 -0.7711
 7126TIP3   OH221341   1.611   4.378   1.386  0.0417 -0.1694  0.3108
 7126TIP3    H121342   1.530   4.340   1.349 -0.4323 -0.0191  1.1723
 7126TIP3    H221343   1.627   4.455   1.332  1.5265 -2.0068 -2.0700
 7127TIP3   OH221344   1.731   6.416   5.675 -0.4976  0.2572  0.1553
 7127TIP3    H121345   1.722   6.462   5.591 -2.0150 -2.1537 -1.1222
 7127TIP3    H221346   1.758   6.484   5.737  1.2880  2.0323 -2.3713
 7128TIP3   OH221347   4.355   0.376   2.734  0.4867  0.1052  0.2974
 7128TIP3    H121348   4.415   0.397   2.805 -0.1568  0.8222  0.6487
 7128TIP3    H221349   4.312   0.459   2.713 -1.4786 -0.6195  1.1176
 7129TIP3   OH221350   4.086   4.361   1.653  0.2697 -0.3420  0.7839
 7129TIP3    H121351   4.031   4.324   1.722 -1.2048 -0.6854 -0.5197
 7129TIP3    H221352   4.114   4.285   1.601  1.0563 -0.0517  0.7683
 7130TIP3   OH221353   1.508   2.794   3.810  0.3020 -0.3106  0.2312
 7130TIP3    H121354   1.572   2.806   3.740  0.4286  1.5322  0.6169
 7130TIP3    H221355   1.493   2.882   3.845 -1.1160 -0.9385  1.3309
 7131TIP3   OH221356   4.554   0.812   0.460  0.3839  0.3193  0.2195
 7131TIP3    H121357   4.552   0.759   0.381 -1.9996 -0.2084  0.5433
 7131TIP3    H221358   4.586   0.753   0.528 -0.8919 -0.3341  0.2906
 7132TIP3   OH221359   0.692   4.505   0.047 -0.1555  0.2781  0.0911
 7132TIP3    H121360   0.625   4.497  -0.020  0.7319 -0.8278 -0.7084
 7132TIP3    H221361   0.732   4.591   0.031 -0.3493  0.2794 -0.4115
 7133TIP3   OH221362   6.145   1.937   2.518 -0.4349 -0.7722 -0.0061
 7133TIP3    H121363   6.178   2.007   2.575 -0.9884  0.7854 -1.5097
 7133TIP3    H221364   6.050   1.950   2.517 -0.3485 -0.0766 -2.0920
 7134TIP3   OH221365   3.558   6.233   3.647 -0.3890 -0.1118 -0.0908
 7134TIP3    H121366   3.599   6.154   3.681  0.9375  0.9981  0.9727
 7134TIP3    H221367   3.629   6.296   3.640 -1.2680  0.7553 -1.7350
 7135TIP3   OH221368   4.329   1.590   0.631  0.2221 -0.4181 -0.0956
 7135TIP3    H121369   4.264   1.613   0.698 -0.4118  0.7765 -1.0718
 7135TIP3    H221370   4.408   1.637   0.657  0.5538 -1.4652  0.8207
 7136TIP3   OH221371   6.780   1.873   1.690  0.0963  0.0100 -0.3639
 7136TIP3    H121372   6.738   1.787   1.698  1.5669 -0.5975  1.3031
 7136TIP3    H221373   6.718   1.934   1.732 -0.3466 -0.4356 -0.3618
 7137TIP3   OH221374   7.181   2.262   0.741 -0.3516  0.2199  0.0444
 7137TIP3    H121375   7.103   2.257   0.687  0.4774  0.3617 -1.2042
 7137TIP3    H221376   7.230   2.183   0.721  1.1638  1.4425 -1.3558
 7138TIP3   OH221377   3.873   5.237   0.169  0.5364  0.0845  0.2971
 7138TIP3    H121378   3.965   5.260   0.173  0.2489  1.1194  1.7975
 7138TIP3    H221379   3.840   5.255   0.256 -0.2845 -3.9120  1.0259
 7139TIP3   OH221380   6.435   2.606   0.112 -0.0975 -0.5334 -1.0103
 7139TIP3    H121381   6.401   2.600   0.202 -0.4313 -1.1085 -1.1705
 7139TIP3    H221382   6.371   2.559   0.059  1.0553 -1.8819 -1.2768
 7140TIP3   OH221383   3.156   1.614   1.865 -0.9263  0.8606  0.7991
 7140TIP3    H121384   3.064   1.590   1.853 -0.9595  1.8738 -1.5040
 7140TIP3    H221385   3.200   1.585   1.785  0.7834  0.3913  1.8564
 7141TIP3   OH221386   2.713   0.057   2.326 -0.0200 -0.4955  0.8671
 7141TIP3    H121387   2.727   0.137   2.378  1.6072 -0.7692  0.9123
 7141TIP3    H221388   2.802   0.029   2.302 -0.6637 -1.3049 -0.6608
 7142TIP3   OH221389   5.516   4.454   3.560  0.2654 -0.4913 -0.2689
 7142TIP3    H121390   5.580   4.466   3.630 -0.1362  0.0883 -0.0002
 7142TIP3    H221391   5.563   4.402   3.494  1.3976  0.8881 -0.6004
 7143TIP3   OH221392   0.550   4.217   4.152  0.5582 -0.4080  0.4127
 7143TIP3    H121393   0.567   4.241   4.061  1.2160 -0.8923  0.3953
 7143TIP3    H221394   0.477   4.272   4.179 -0.5994 -1.2816 -0.8440
 7144TIP3   OH221395   5.839   5.209   3.435  1.3468 -0.0770  0.2867
 7144TIP3    H121396   5.892   5.272   3.386 -0.2737  0.1439 -1.2790
 7144TIP3    H221397   5.880   5.124   3.418  0.4804 -0.1058 -2.0990
 7145TIP3   OH221398   2.726   6.354   2.362 -0.7606  0.5843 -0.4490
 7145TIP3    H121399   2.767   6.314   2.285 -3.0787  0.1939 -1.5465
 7145TIP3    H221400   2.640   6.313   2.368 -0.2194 -0.3210  3.1460
 7146TIP3   OH221401   0.603   5.288   5.116  0.1134 -0.3799 -0.3078
 7146TIP3    H121402   0.523   5.302   5.065 -0.1793 -0.4675  0.1212
 7146TIP3    H221403   0.583   5.212   5.171  0.5231 -0.4540 -0.2639
 7147TIP3   OH221404   1.368   4.177   2.076 -0.5268 -0.8730  0.3903
 7147TIP3    H121405   1.425   4.182   1.999 -2.1091 -0.8134 -0.8296
 7147TIP3    H221406   1.281   4.199   2.042 -1.2100 -0.5354  2.2738
 7148TIP3   OH221407   3.652   3.178   0.041  0.2026  0.1677 -0.2831
 7148TIP3    H121408   3.577   3.238   0.044  0.3140  0.3778 -1.3540
 7148TIP3    H221409   3.669   3.165  -0.052  2.3015  1.1543 -0.1199
 7149TIP3   OH221410   7.083   6.594   5.688 -0.2736 -0.1011  0.5396
 7149TIP3    H121411   7.168   6.574   5.727 -0.0788  0.2452  0.2938
 7149TIP3    H221412   7.033   6.635   5.759 -0.6796 -1.4231  1.0503
 7150TIP3   OH221413   3.412   5.226   5.439 -0.0298  0.3941  0.0534
 7150TIP3    H121414   3.428   5.193   5.351  3.1534  0.6037  0.4356
 7150TIP3    H221415   3.435   5.153   5.496 -0.3844  0.8307  0.7763
 7151TIP3   OH221416   4.868   5.964   2.033 -0.3681  0.2852 -0.0435
 7151TIP3    H121417   4.929   5.899   1.999 -0.0577  1.2650 -1.4740
 7151TIP3    H221418   4.924   6.029   2.075 -0.2553  1.6026 -2.0569
 7152TIP3   OH221419   5.421   0.823   3.052  0.3203 -0.4550 -0.3192
 7152TIP3    H121420   5.390   0.732   3.049  0.0145 -0.3968  0.7368
 7152TIP3    H221421   5.502   0.822   3.000  0.1192 -1.2438 -0.6402
 7153TIP3   OH221422   5.791   1.306   5.017  0.5237 -0.3693  0.0135
 7153TIP3    H121423   5.850   1.282   4.945 -1.0307 -2.1030 -0.7572
 7153TIP3    H221424   5.704   1.287   4.984 -0.5579  2.2512  1.0813
 7154TIP3   OH221425   1.048   6.667   4.311  0.2530  0.1330 -0.2138
 7154TIP3    H121426   1.129   6.653   4.360  0.0468  0.4003  0.2108
 7154TIP3    H221427   1.045   6.594   4.249  1.1441  0.4723 -0.6848
 7155TIP3   OH221428   4.742   5.712   3.912  0.1995 -0.0157 -0.0710
 7155TIP3    H121429   4.727   5.755   3.829  2.4401  0.9316 -0.0497
 7155TIP3    H221430   4.660   5.723   3.960 -0.1737  1.9215 -1.0684
 7156TIP3   OH221431   2.655   6.039   2.000  0.0375 -0.8055  0.1565
 7156TIP3    H121432   2.738   6.085   1.987 -0.2887 -0.1905  0.1849
 7156TIP3    H221433   2.662   6.001   2.087 -0.0675  0.0357  0.5460
 7157TIP3   OH221434   0.587   0.532   0.140 -0.0725 -0.5522 -0.1602
 7157TIP3    H121435   0.584   0.603   0.076 -1.1093 -0.7025 -0.2883
 7157TIP3    H221436   0.605   0.576   0.223  2.4735 -0.4594 -0.6673
 7158TIP3   OH221437   0.699   2.243   2.244 -0.5288 -0.1686  0.5230
 7158TIP3    H121438   0.723   2.335   2.251 -2.0939  0.1636  2.0509
 7158TIP3    H221439   0.603   2.242   2.247 -0.6036 -1.7629 -0.7550
 7159TIP3   OH221440   2.368   6.704   3.622  0.1026  0.0787 -0.1580
 7159TIP3    H121441   2.446   6.653   3.601 -0.0826  0.3047 -1.5001
 7159TIP3    H221442   2.385   6.790   3.583 -0.6729  0.2307 -0.1758
 7160TIP3   OH221443   6.087   6.349   3.693 -0.2217  0.4747 -0.3285
 7160TIP3    H121444   6.059   6.386   3.777 -0.2087  0.6365 -0.3935
 7160TIP3    H221445   6.100   6.256   3.710 -0.2452  0.5027 -0.1573
 7161TIP3   OH221446   0.424   5.188   4.084  0.0150  0.1123  0.5055
 7161TIP3    H121447   0.465   5.115   4.130 -0.2813 -1.2102 -1.2103
 7161TIP3    H221448   0.338   5.197   4.125 -1.4199 -2.9419 -1.4768
 7162TIP3   OH221449   2.534   6.051   0.392  0.1095  0.1651  0.4435
 7162TIP3    H121450   2.559   6.003   0.471  0.8374  1.7513  1.2305
 7162TIP3    H221451   2.484   5.988   0.340 -0.9488 -0.7361  2.4404
 7163TIP3   OH221452   0.919   6.530   5.585 -0.3592  0.2772  0.3908
 7163TIP3    H121453   0.941   6.440   5.559 -2.9844 -0.0472 -1.1511
 7163TIP3    H221454   0.898   6.523   5.678 -1.2608 -0.9060  0.1306
 7164TIP3   OH221455   3.285   1.035   0.340 -0.6253  0.2651  0.1437
 7164TIP3    H121456   3.284   1.057   0.433 -0.7886 -0.0368  0.2160
 7164TIP3    H221457   3.203   0.987   0.326 -0.7339  0.5537 -0.2165
 7165TIP3   OH221458   1.617   6.083   3.871 -0.2870  0.2569  0.4511
 7165TIP3    H121459   1.578   5.998   3.852  0.9161 -0.2658  0.2871
 7165TIP3    H221460   1.584   6.140   3.801  0.9450 -0.7041 -0.9737
 7166TIP3   OH221461   2.186   1.508   0.391  1.0792 -0.5381 -0.1595
 7166TIP3    H121462   2.229   1.423   0.386  0.0619 -1.0029 -1.5928
 7166TIP3    H221463   2.105   1.491   0.440  0.8798 -0.4092 -0.4397
 7167TIP3   OH221464   6.144   1.964   3.965  0.1191  0.1011  0.3447
 7167TIP3    H121465   6.219   1.984   4.021  0.1925 -0.1246  0.3295
 7167TIP3    H221466   6.075   2.023   3.995  0.6353  1.0991 -0.3675
 7168TIP3   OH221467   6.812   2.350   5.728  0.1951 -0.3669  0.6944
 7168TIP3    H121468   6.845   2.380   5.644 -2.0613  2.2733  0.6427
 7168TIP3    H221469   6.762   2.271   5.708 -1.8825  1.2320 -0.8476
 7169TIP3   OH221470   0.932   0.182   4.199 -0.4033  0.1404 -0.1236
 7169TIP3    H121471   0.872   0.167   4.126  0.8606 -0.8164 -0.9987
 7169TIP3    H221472   0.946   0.095   4.237  0.1289  0.4115  0.3189
 7170TIP3   OH221473   7.113   1.817   5.603  0.1914 -0.4068 -0.0236
 7170TIP3    H121474   7.112   1.768   5.521 -1.0743 -0.2099 -0.1428
 7170TIP3    H221475   7.120   1.750   5.671  0.7182 -0.6029 -0.2689
 7171TIP3   OH221476   6.152   6.554   4.571  0.1478  0.4807  0.4142
 7171TIP3    H121477   6.122   6.534   4.482 -0.3489 -0.4531  0.7831
 7171TIP3    H221478   6.149   6.470   4.617  2.3670  0.5489  0.7611
 7172TIP3   OH221479   6.793   2.159   4.952 -0.2808 -0.0255 -0.2999
 7172TIP3    H121480   6.866   2.192   5.004 -1.8980  1.9384  0.8871
 7172TIP3    H221481   6.752   2.092   5.006 -1.4207  1.3846  0.6682
 7173TIP3   OH221482   5.901   0.789   5.866 -0.5867 -0.5039  0.4536
 7173TIP3    H121483   5.831   0.821   5.810 -0.3904 -0.3766  0.2794
 7173TIP3    H221484   5.929   0.866   5.916 -1.8631 -0.9589  1.9249
 7174TIP3   OH221485   5.344   1.465   4.662  0.5275  0.2338 -0.2983
 7174TIP3    H121486   5.298   1.493   4.583 -0.9095 -0.0209  0.4179
 7174TIP3    H221487   5.418   1.413   4.630  0.3920  0.7432 -1.4815
 7175TIP3   OH221488   5.058   5.249   2.103 -0.4828 -0.0760  0.1543
 7175TIP3    H121489   5.014   5.307   2.042  0.8188  2.3373  1.3743
 7175TIP3    H221490   5.145   5.236   2.065 -0.2614  0.0103  0.6181
 7176TIP3   OH221491   6.488   4.772   4.328 -0.0885  0.4041 -1.0202
 7176TIP3    H121492   6.473   4.680   4.309  0.9362  0.1504 -0.7024
 7176TIP3    H221493   6.416   4.797   4.385 -0.1923 -0.2898 -0.8365
 7177TIP3   OH221494   6.065   1.148   5.404  0.0437 -0.2282 -0.0285
 7177TIP3    H121495   6.026   1.068   5.439  0.8887 -0.1099  1.2826
 7177TIP3    H221496   5.993   1.211   5.401  0.1241  0.1003  2.6929
 7178TIP3   OH221497   4.236   0.454   0.664 -0.0718 -0.1157 -0.0202
 7178TIP3    H121498   4.242   0.363   0.692 -0.7301 -0.1134  0.1470
 7178TIP3    H221499   4.260   0.505   0.741  0.1733 -0.1418 -0.0775
 7179TIP3   OH221500   3.795   1.465   1.716  0.4502  0.3875 -0.0875
 7179TIP3    H121501   3.827   1.536   1.771  1.7197  0.3358 -0.7220
 7179TIP3    H221502   3.711   1.439   1.756  0.7355  1.1758  1.0631
 7180TIP3   OH221503   3.793   1.978   4.574  0.2257 -0.0244 -0.2352
 7180TIP3    H121504   3.698   1.972   4.572  0.1859  0.7741 -0.9175
 7180TIP3    H221505   3.812   2.071   4.569  1.0779 -0.2690 -2.4447
 7181TIP3   OH221506   2.956   0.323   3.561  0.2601  0.6373  0.0458
 7181TIP3    H121507   2.891   0.354   3.623  0.4360  0.7097  0.1946
 7181TIP3    H221508   2.926   0.236   3.536  1.5298 -0.5097  2.2090
 7182TIP3   OH221509   6.215   0.177   5.077  0.3373  0.1192  0.2532
 7182TIP3    H121510   6.181   0.091   5.103 -0.7022  0.3476 -0.3111
 7182TIP3    H221511   6.137   0.231   5.066  0.9248  0.8190 -0.5238
 7183TIP3   OH221512   0.355   4.035   4.978  0.4756 -0.5221  0.1457
 7183TIP3    H121513   0.289   4.048   4.910  0.5923 -0.8201 -0.0261
 7183TIP3    H221514   0.374   3.941   4.976 -1.9437 -1.2217  2.7917
 7184TIP3   OH221515   1.247   4.755   5.003 -0.4649  0.1175 -0.2314
 7184TIP3    H121516   1.158   4.785   5.020 -0.1951  1.2440 -0.7321
 7184TIP3    H221517   1.283   4.819   4.942  0.4708 -0.6931 -0.5619
 7185TIP3   OH221518   0.660   1.539   3.677  0.2614  0.5674  0.3928
 7185TIP3    H121519   0.634   1.621   3.634  0.4430  0.4522  0.0575
 7185TIP3    H221520   0.695   1.485   3.606 -1.4730 -0.4980  0.2906
 7186TIP3   OH221521   0.551   5.504   5.327 -0.0050 -0.2102 -0.3150
 7186TIP3    H121522   0.503   5.432   5.286 -0.1142 -1.1934  1.4463
 7186TIP3    H221523   0.511   5.583   5.293 -0.4869 -0.9824 -1.6027
 7187TIP3   OH221524   3.713   4.009   3.630  0.2549 -0.1862  0.3747
 7187TIP3    H121525   3.793   4.048   3.665  0.2198  0.7884 -0.5599
 7187TIP3    H221526   3.743   3.960   3.553 -0.2990  2.5849 -1.7826
 7188TIP3   OH221527   6.336   3.836   0.415 -0.0421  0.6289 -0.0815
 7188TIP3    H121528   6.254   3.885   0.419  0.6241  1.7219  1.1960
 7188TIP3    H221529   6.354   3.812   0.506  0.7366 -0.1633 -0.4242
 7189TIP3   OH221530   5.516   0.370   2.089 -0.2568  0.1100  0.4522
 7189TIP3    H121531   5.591   0.331   2.135 -1.0673  0.6317  2.3101
 7189TIP3    H221532   5.510   0.321   2.007  0.7365 -1.4577  1.2721
 7190TIP3   OH221533   1.122   2.059   1.723  0.2950  0.0567 -0.0839
 7190TIP3    H121534   1.043   2.057   1.777  0.8338 -1.1504  0.6736
 7190TIP3    H221535   1.119   1.978   1.672  1.4117 -0.3563  0.4886
 7191TIP3   OH221536   1.434   3.207   0.710 -0.4780 -0.3993  0.0593
 7191TIP3    H121537   1.407   3.252   0.790  1.2765  1.4079 -0.2800
 7191TIP3    H221538   1.372   3.235   0.643  0.8713  2.0456 -0.2627
 7192TIP3   OH221539   6.428   5.028   4.195  0.8093 -0.3562  0.0451
 7192TIP3    H121540   6.465   4.959   4.251  2.1248  1.0543  0.9800
 7192TIP3    H221541   6.372   5.079   4.253 -0.3974 -0.7628 -0.7121
 7193TIP3   OH221542   3.741   0.377   4.696  1.1415  0.7794 -0.5662
 7193TIP3    H121543   3.742   0.356   4.789 -2.1161  0.6182 -0.4419
 7193TIP3    H221544   3.750   0.292   4.652 -0.4600  0.4171 -0.2715
 7194TIP3   OH221545   3.112   3.448   3.568 -0.1251  0.0230 -0.4047
 7194TIP3    H121546   3.134   3.362   3.603  0.7006 -0.0751 -1.1299
 7194TIP3    H221547   3.092   3.501   3.645  1.2112 -0.3036  0.1950
 7195TIP3   OH221548   0.901   5.928   3.849 -0.3254 -0.2305 -0.6387
 7195TIP3    H121549   0.879   5.900   3.938  0.9983 -1.0603 -0.5426
 7195TIP3    H221550   0.901   5.847   3.798  3.1575 -0.5010 -0.4522
 7196TIP3   OH221551   0.905   0.790   0.202 -0.4874 -0.7620  0.7061
 7196TIP3    H121552   0.901   0.781   0.106  1.4291  1.2812  0.3706
 7196TIP3    H221553   0.813   0.788   0.229 -1.1271 -0.4430 -1.2718
 7197TIP3   OH221554   6.055   0.938   4.390 -0.3263 -0.0934  0.5042
 7197TIP3    H121555   6.011   1.011   4.433 -0.8845  0.1953 -0.5344
 7197TIP3    H221556   6.043   0.865   4.451  0.3767  0.6920  1.6316
 7198TIP3   OH221557   6.897   0.559   1.198  0.4799  0.2214 -0.5248
 7198TIP3    H121558   6.919   0.561   1.291 -1.1531 -3.2476  0.0843
 7198TIP3    H221559   6.975   0.593   1.154  2.2479 -0.3058  2.0005
 7199TIP3   OH221560   6.255   0.678   4.615  0.6542 -0.0690  0.2355
 7199TIP3    H121561   6.307   0.644   4.543  1.2506 -0.0057  0.6257
 7199TIP3    H221562   6.254   0.773   4.601  0.9067 -0.0413  0.3946
 7200TIP3   OH221563   4.659   4.001   0.796  0.0188 -0.2293 -0.2398
 7200TIP3    H121564   4.580   3.970   0.840 -0.1413  0.3720 -0.0917
 7200TIP3    H221565   4.731   3.959   0.843 -0.2237 -1.3145 -0.7997
 7201TIP3   OH221566   7.020   3.866   5.550 -0.5664 -0.3261 -0.5231
 7201TIP3    H121567   7.006   3.890   5.641  0.3061 -0.2270 -0.4010
 7201TIP3    H221568   7.008   3.948   5.502 -0.5159 -0.2686 -0.4387
 7202TIP3   OH221569   2.092   4.793   0.776 -0.8417 -0.1694  0.0787
 7202TIP3    H121570   2.118   4.884   0.791  1.0611 -0.4457 -1.2052
 7202TIP3    H221571   2.150   4.742   0.834  0.6936 -0.7265 -1.8515
 7203TIP3   OH221572   2.089   2.137   2.459 -0.4892 -0.1000  0.1646
 7203TIP3    H121573   2.115   2.222   2.494 -1.1322  0.6193 -1.0596
 7203TIP3    H221574   2.162   2.079   2.480  0.7299  1.1499 -0.5016
 7204TIP3   OH221575   0.144   5.084   4.100 -0.6769 -0.7385  0.5153
 7204TIP3    H121576   0.052   5.068   4.083 -0.4600 -1.3795 -0.0956
 7204TIP3    H221577   0.188   5.003   4.073 -0.0283 -0.7715  1.5936
 7205TIP3   OH221578   2.646   4.727   1.502 -0.1022  0.4918  0.2493
 7205TIP3    H121579   2.598   4.661   1.451  0.4478  0.3312 -0.0812
 7205TIP3    H221580   2.579   4.771   1.554 -0.5150 -0.1861  0.3157
 7206TIP3   OH221581   2.740   6.061   4.525 -0.7127 -0.4441  0.1347
 7206TIP3    H121582   2.809   6.017   4.574 -0.3173 -0.9579 -0.8446
 7206TIP3    H221583   2.730   6.009   4.445  0.7563  1.9139 -1.7483
 7207TIP3   OH221584   4.740   4.106   1.339 -0.7878  0.2355 -0.3553
 7207TIP3    H121585   4.825   4.062   1.337 -0.4584  0.7849 -3.4030
 7207TIP3    H221586   4.743   4.160   1.418  1.6711  0.1741 -0.3217
 7208TIP3   OH221587   6.770   3.544   4.402 -0.6723  0.6196  0.3169
 7208TIP3    H121588   6.708   3.544   4.329 -0.0148  2.0790 -0.2799
 7208TIP3    H221589   6.728   3.489   4.469 -1.7117  0.0195 -0.7926
 7209TIP3   OH221590   4.645   5.853   4.369 -0.6176 -0.0323 -0.2201
 7209TIP3    H121591   4.556   5.879   4.343 -0.7053 -0.0461  0.0616
 7209TIP3    H221592   4.697   5.863   4.289 -0.7990  0.3160 -0.2978
 7210TIP3   OH221593   6.607   1.121   1.372 -0.6868  0.1528 -0.1374
 7210TIP3    H121594   6.555   1.173   1.434  0.0488  1.3850 -0.5102
 7210TIP3    H221595   6.660   1.186   1.325  1.0268 -1.0269  0.0681
 7211TIP3   OH221596   3.533   6.313   4.397  0.2233  0.3852  0.1985
 7211TIP3    H121597   3.480   6.393   4.401  0.3401  0.4377  0.8125
 7211TIP3    H221598   3.616   6.342   4.360 -0.3542  0.1981 -1.2961
 7212TIP3   OH221599   1.045   5.488   3.084 -0.3640  0.4229  0.7927
 7212TIP3    H121600   0.975   5.442   3.130 -0.7440  0.6957  0.4935
 7212TIP3    H221601   1.006   5.512   3.000  0.1579  0.3849  0.5375
 7213TIP3   OH221602   1.030   4.078   5.437  0.6148 -0.0378  0.1424
 7213TIP3    H121603   1.107   4.066   5.380  0.1665 -0.9042 -0.2954
 7213TIP3    H221604   1.062   4.134   5.508  1.7101 -0.5242  0.0657
 7214TIP3   OH221605   6.919   3.202   3.969 -0.6871  0.3807 -0.0353
 7214TIP3    H121606   6.970   3.247   3.901 -0.6071  0.0383 -0.2052
 7214TIP3    H221607   6.828   3.223   3.947 -0.6021  2.3697  1.2244
 7215TIP3   OH221608   2.631   1.152   4.913 -0.2855  0.4534  0.5003
 7215TIP3    H121609   2.647   1.247   4.911  1.6076  0.1786  0.2201
 7215TIP3    H221610   2.719   1.114   4.907 -1.0339 -1.3254  0.4475
 7216TIP3   OH221611   2.279   2.801   0.878 -0.1277 -0.8722 -0.3672
 7216TIP3    H121612   2.253   2.719   0.920 -1.4409 -0.0730  0.4457
 7216TIP3    H221613   2.228   2.869   0.923  2.6114  0.6995  0.6427
 7217TIP3   OH221614   3.057   3.367   4.352 -0.0845 -0.1011 -0.0241
 7217TIP3    H121615   3.004   3.410   4.419 -0.3600  2.5477 -1.7880
 7217TIP3    H221616   3.133   3.424   4.341  0.8296 -1.4060 -0.7715
 7218TIP3   OH221617   2.912   1.800   5.408 -0.4245 -0.1660 -0.0820
 7218TIP3    H121618   2.998   1.796   5.450 -0.4869  0.2512  0.0869
 7218TIP3    H221619   2.931   1.790   5.314 -0.3022 -1.2593  0.0464
 7219TIP3   OH221620   1.815   2.484   5.572 -0.3466 -0.2741  0.4383
 7219TIP3    H121621   1.731   2.456   5.608 -1.3138  0.3306 -1.1839
 7219TIP3    H221622   1.827   2.573   5.606 -0.0214 -0.6111  1.2094
 7220TIP3   OH221623   0.903   0.848   2.201 -0.0027  0.0671 -0.1500
 7220TIP3    H121624   0.981   0.858   2.146 -0.5615  0.9105 -0.7984
 7220TIP3    H221625   0.829   0.865   2.143 -0.6917 -0.9063  0.4205
 7221TIP3   OH221626   1.204   3.461   4.982  0.0829 -0.1953  0.1957
 7221TIP3    H121627   1.217   3.536   4.925 -0.2482 -0.9098 -0.8557
 7221TIP3    H221628   1.109   3.450   4.987  0.1325 -1.2469 -0.6538
 7222TIP3   OH221629   5.179   2.202   2.140 -0.1990  0.2501  0.1909
 7222TIP3    H121630   5.145   2.285   2.172 -0.1100 -0.2214  1.5865
 7222TIP3    H221631   5.135   2.188   2.057 -0.5417  1.4721  0.1485
 7223TIP3   OH221632   3.881   4.556   5.340  0.4725  0.4734 -0.2611
 7223TIP3    H121633   3.809   4.602   5.384  1.2737  1.6444 -0.1022
 7223TIP3    H221634   3.945   4.541   5.410  0.4599 -0.3941 -0.4325
 7224TIP3   OH221635   3.060   6.514   2.242 -1.1106 -0.3097  0.1104
 7224TIP3    H121636   3.100   6.521   2.155  0.6429  1.1234  0.9858
 7224TIP3    H221637   2.984   6.572   2.238 -0.5504  0.4201 -0.2188
 7225TIP3   OH221638   0.614   6.475   3.509  0.6495 -0.7573 -0.3449
 7225TIP3    H121639   0.610   6.412   3.581 -1.0537 -0.6794 -0.3326
 7225TIP3    H221640   0.551   6.543   3.533  2.6559  1.1553 -0.2267
 7226TIP3   OH221641   2.295   5.217   0.476 -0.1613  0.4797 -0.0648
 7226TIP3    H121642   2.234   5.148   0.504  1.2101 -1.0126 -0.5672
 7226TIP3    H221643   2.260   5.247   0.393 -1.1023  0.8331  0.4429
 7227TIP3   OH221644   1.491   5.897   5.207 -0.0480 -0.2237  0.0102
 7227TIP3    H121645   1.469   5.823   5.263 -1.9493  0.3516  0.0927
 7227TIP3    H221646   1.462   5.974   5.256 -0.5043  0.3773 -1.1620
 7228TIP3   OH221647   0.356   6.313   5.049 -0.0899  0.0053  0.0294
 7228TIP3    H121648   0.293   6.241   5.054  0.1421 -0.1021  2.8362
 7228TIP3    H221649   0.407   6.306   5.130  1.4921  1.9434 -0.7220
 7229TIP3   OH221650   5.848   4.301   5.289 -0.4058  0.5582 -0.1726
 7229TIP3    H121651   5.909   4.372   5.310  3.3510 -2.8725  2.0870
 7229TIP3    H221652   5.897   4.245   5.228 -1.0425 -2.4525  1.8634
 7230TIP3   OH221653   7.037   4.892   2.439  0.0911 -0.3073  0.4491
 7230TIP3    H121654   6.960   4.837   2.430  0.5037 -1.0241  1.1388
 7230TIP3    H221655   7.111   4.831   2.439  0.7515  0.4175 -1.0688
 7231TIP3   OH221656   0.954   3.405   5.057  0.4166 -0.1385 -0.5108
 7231TIP3    H121657   0.907   3.481   5.023  0.1818 -0.0283  0.0466
 7231TIP3    H221658   0.899   3.330   5.032  1.3286 -0.2700 -2.2592
 7232TIP3   OH221659   5.942   1.428   2.222 -0.1130  0.6522  0.1418
 7232TIP3    H121660   5.995   1.378   2.284 -2.7937 -1.4854  0.9029
 7232TIP3    H221661   5.929   1.513   2.264  0.0913  0.0732  1.4101
 7233TIP3   OH221662   1.148   0.993   0.611  0.3748  0.1295 -0.0450
 7233TIP3    H121663   1.149   0.978   0.517  1.6586 -0.4247  0.0393
 7233TIP3    H221664   1.196   1.075   0.623 -0.0352  0.3526  0.1164
 7234TIP3   OH221665   6.675   5.550   2.735  0.3370  0.1022  0.3181
 7234TIP3    H121666   6.729   5.629   2.736 -1.5526  1.4573  1.1151
 7234TIP3    H221667   6.729   5.483   2.778  0.5582  2.0344  3.3184
 7235TIP3   OH221668   2.896   3.939   1.408  0.1859  0.2125  0.2871
 7235TIP3    H121669   2.819   3.895   1.444 -0.3154  0.0021 -0.9817
 7235TIP3    H221670   2.915   3.892   1.327  0.5720  1.3746 -0.3208
 7236TIP3   OH221671   2.882   2.081   2.314 -0.0217  0.1820  0.1148
 7236TIP3    H121672   2.952   2.096   2.377  0.5111 -1.1437 -0.1082
 7236TIP3    H221673   2.922   2.026   2.246 -1.4378 -1.2245  0.3401
 7237TIP3   OH221674   3.917   4.167   4.147  0.2115 -0.2046 -0.3842
 7237TIP3    H121675   3.853   4.155   4.217  1.4410 -1.0205  0.6495
 7237TIP3    H221676   3.908   4.089   4.093  0.0071 -0.0902 -0.5167
 7238TIP3   OH221677   3.522   4.493   1.055  0.0238  0.0985  0.0521
 7238TIP3    H121678   3.450   4.530   1.105  1.2816  1.2416  1.1077
 7238TIP3    H221679   3.598   4.500   1.113  0.7188 -2.5139 -0.4139
 7239TIP3   OH221680   4.184   2.423   1.884  0.6401 -0.6541 -0.2361
 7239TIP3    H121681   4.103   2.475   1.885  1.8575  1.3505 -0.8817
 7239TIP3    H221682   4.242   2.470   1.825  1.9724 -2.6023 -0.5837
 7240TIP3   OH221683   3.425   4.798   0.832 -0.2207 -0.4232  0.1289
 7240TIP3    H121684   3.401   4.798   0.924 -1.9462 -0.2070 -0.2933
 7240TIP3    H221685   3.343   4.815   0.785  0.6271 -0.4569 -1.4431
 7241TIP3   OH221686   2.064   3.072   5.643 -0.2841 -0.1600 -0.9370
 7241TIP3    H121687   2.122   3.003   5.611  0.3351 -0.4713  0.7338
 7241TIP3    H221688   2.045   3.047   5.733 -4.0371 -0.6809 -1.7390
 7242TIP3   OH221689   0.064   0.770   3.502  0.2965 -0.1640 -0.3065
 7242TIP3    H121690   0.129   0.794   3.568  0.2229 -0.8455  0.0216
 7242TIP3    H221691   0.044   0.852   3.457  1.2094  0.1020 -0.2562
 7243TIP3   OH221692   2.351   2.839   3.677 -0.0087 -0.0797  0.2290
 7243TIP3    H121693   2.325   2.794   3.757  0.1502  0.3662  0.5277
 7243TIP3    H221694   2.305   2.791   3.607 -1.1100  0.2756  0.6845
 7244TIP3   OH221695   1.630   6.204   1.639  0.0690 -0.3470  0.3997
 7244TIP3    H121696   1.545   6.247   1.639 -1.0554 -2.4297  0.7834
 7244TIP3    H221697   1.647   6.183   1.547  1.4720  2.2882 -0.0660
 7245TIP3   OH221698   4.109   3.594   5.394 -0.2208 -0.4261  0.7035
 7245TIP3    H121699   4.102   3.501   5.416  0.2610 -0.6537 -0.0642
 7245TIP3    H221700   4.195   3.602   5.352  1.2170  0.9349  3.5867
 7246TIP3   OH221701   4.452   3.030   3.552 -0.4114 -0.4045 -0.3003
 7246TIP3    H121702   4.376   2.974   3.536 -0.1215 -0.8442 -0.1818
 7246TIP3    H221703   4.520   2.995   3.494 -0.7561  0.9962 -1.6079
 7247TIP3   OH221704   4.487   1.904   0.859  0.4711  0.7251  0.2114
 7247TIP3    H121705   4.522   1.821   0.892  0.7121  0.5003 -0.5924
 7247TIP3    H221706   4.493   1.896   0.764  0.7373  1.7735  0.1342
 7248TIP3   OH221707   7.116   4.204   0.782 -0.5270 -0.0772 -0.4409
 7248TIP3    H121708   7.030   4.245   0.789 -0.9608 -0.9984 -0.2906
 7248TIP3    H221709   7.106   4.119   0.825  0.4919 -0.1456 -0.3066
 7249TIP3   OH221710   4.113   0.190   3.883 -0.0743  0.4921 -0.4083
 7249TIP3    H121711   4.126   0.201   3.789  0.5392 -2.0648 -0.7086
 7249TIP3    H221712   4.028   0.146   3.890 -0.4036  1.2280  0.2840
 7250TIP3   OH221713   1.758   1.927   5.039  0.0826  0.3540 -0.6210
 7250TIP3    H121714   1.738   1.917   5.132  1.1149  0.4312 -0.3832
 7250TIP3    H221715   1.809   2.007   5.034  2.0860 -0.8740 -0.9134
 7251TIP3   OH221716   0.174   3.982   1.062 -0.5719  0.0860  0.0365
 7251TIP3    H121717   0.198   4.073   1.081  2.6108 -0.5898 -0.3218
 7251TIP3    H221718   0.240   3.929   1.108 -2.0784 -2.0694 -0.1343
 7252TIP3   OH221719   6.830   4.299   0.331 -0.3269 -0.0766  0.1297
 7252TIP3    H121720   6.771   4.304   0.256 -0.4146  0.6027  0.2378
 7252TIP3    H221721   6.823   4.209   0.361  0.4909 -0.6667 -1.3014
 7253TIP3   OH221722   4.409   2.284   1.477  0.1420  0.5049 -0.4745
 7253TIP3    H121723   4.314   2.290   1.490  0.1458  1.4560 -0.8037
 7253TIP3    H221724   4.424   2.322   1.391  0.5817 -1.9070 -1.5437
 7254TIP3   OH221725   2.063   3.244   3.465  0.1172  0.2990 -0.0739
 7254TIP3    H121726   2.071   3.332   3.430  1.3329  0.1149 -0.2902
 7254TIP3    H221727   2.113   3.246   3.547 -0.8637  0.1264  0.5569
 7255TIP3   OH221728   6.932   2.705   4.467  0.7901  0.0179  0.6571
 7255TIP3    H121729   6.893   2.710   4.554  0.9976 -1.5304  0.8752
 7255TIP3    H221730   6.980   2.622   4.467  0.6160 -0.1261 -1.0109
 7256TIP3   OH221731   3.051   1.879   2.203 -0.4330  0.3206  0.2541
 7256TIP3    H121732   3.117   1.886   2.135 -1.1124  1.6418 -0.3040
 7256TIP3    H221733   3.015   1.791   2.193 -0.5773  0.5152 -1.1665
 7257TIP3   OH221734   1.414   6.284   4.867  0.6156  0.5926  0.2040
 7257TIP3    H121735   1.363   6.344   4.813  0.0749  0.6048  0.7026
 7257TIP3    H221736   1.458   6.341   4.930  0.6696  0.5270  0.2248
 7258TIP3   OH221737   6.278   1.047   3.760  0.4265 -0.0008 -0.1586
 7258TIP3    H121738   6.280   1.114   3.692  0.6184  2.8393  2.4214
 7258TIP3    H221739   6.349   0.987   3.736  0.7069  1.0568 -2.2430
 7259TIP3   OH221740   6.616   0.538   0.252  0.3508  0.2110  0.4907
 7259TIP3    H121741   6.699   0.561   0.295 -0.7901  1.2579  2.2910
 7259TIP3    H221742   6.604   0.606   0.186  1.2237 -0.3381 -0.2626
 7260TIP3   OH221743   6.590   3.221  -0.014  0.3293  0.4203 -0.1408
 7260TIP3    H121744   6.541   3.298   0.015 -0.7764 -0.9000  1.7105
 7260TIP3    H221745   6.615   3.177   0.067 -0.2193 -1.8622 -1.1477
 7261TIP3   OH221746   4.382   4.305   1.310  0.1778  0.9430 -0.0444
 7261TIP3    H121747   4.297   4.275   1.342  0.5490  1.2827  1.3301
 7261TIP3    H221748   4.403   4.381   1.364  1.9819  0.0339  0.6075
 7262TIP3   OH221749   6.677   3.645   1.626 -0.4318  0.1050 -0.7423
 7262TIP3    H121750   6.590   3.617   1.653 -0.2769 -0.4614 -0.8004
 7262TIP3    H221751   6.696   3.593   1.547 -0.4604  0.9819 -1.3411
 7263TIP3   OH221752   1.873   3.373   3.226 -0.3998  0.6098  0.3681
 7263TIP3    H121753   1.921   3.406   3.303 -1.4548  2.3275  0.3568
 7263TIP3    H221754   1.883   3.442   3.161 -2.1082  0.6127  0.0608
 7264TIP3   OH221755   3.977   1.155   3.599 -0.1247  0.2077  0.0825
 7264TIP3    H121756   3.912   1.087   3.613  0.4502 -0.6870 -1.4383
 7264TIP3    H221757   4.031   1.153   3.678 -0.8979 -0.2033  0.6120
 7265TIP3   OH221758   2.905   5.033   5.826  0.2429  0.1457  0.2360
 7265TIP3    H121759   2.837   5.064   5.766 -0.7474 -0.3731  1.0489
 7265TIP3    H221760   2.960   4.976   5.773 -1.8455 -2.0331  0.2428
 7266TIP3   OH221761   3.550   2.359   4.921 -0.3361 -0.2366  0.4746
 7266TIP3    H121762   3.477   2.420   4.920  0.3601  0.7109  2.5567
 7266TIP3    H221763   3.575   2.352   5.013 -0.3574 -3.6891  0.3432
 7267TIP3   OH221764   1.128   4.895   0.836  0.3788 -0.3287  0.4163
 7267TIP3    H121765   1.151   4.898   0.743  1.3821  0.5811  0.6722
 7267TIP3    H221766   1.209   4.919   0.881 -0.9491  2.9009  1.3954
 7268TIP3   OH221767   1.708   2.782   2.566  0.1445 -0.4055 -0.2675
 7268TIP3    H121768   1.655   2.803   2.489 -0.7321  0.7426  0.6118
 7268TIP3    H221769   1.774   2.721   2.533 -2.0663 -2.4427 -1.2892
 7269TIP3   OH221770   0.798   1.020   3.771  0.5017 -0.2259  0.1189
 7269TIP3    H121771   0.839   0.937   3.796  0.2163 -0.1115  1.0082
 7269TIP3    H221772   0.768   1.057   3.854  1.3743  1.1767 -0.1701
 7270TIP3   OH221773   3.540   5.202   0.614  0.0746 -0.4653  0.4473
 7270TIP3    H121774   3.525   5.267   0.683  3.2566  0.0133  0.8395
 7270TIP3    H221775   3.561   5.121   0.661 -1.3915 -1.1817 -0.0457
 7271TIP3   OH221776   4.022   5.470   1.941  0.2040  0.0853 -0.0122
 7271TIP3    H121777   3.980   5.516   1.869  0.2679 -2.2082 -1.6071
 7271TIP3    H221778   3.950   5.445   1.999 -0.0811  0.2569 -0.2886
 7272TIP3   OH221779   6.351   2.790   3.706 -0.0596  0.1116 -0.1254
 7272TIP3    H121780   6.408   2.802   3.782 -0.6929  2.2801  0.0794
 7272TIP3    H221781   6.397   2.834   3.635 -0.9798  1.0560 -0.1720
 7273TIP3   OH221782   2.671   5.438   3.649  0.4564 -0.6647 -0.3475
 7273TIP3    H121783   2.722   5.482   3.717 -1.9037  0.8196  0.5638
 7273TIP3    H221784   2.638   5.509   3.593  0.1917 -1.6601 -1.5126
 7274TIP3   OH221785   4.915   1.607   4.931  0.6227  0.2172  0.2656
 7274TIP3    H121786   4.994   1.649   4.897  0.6001  0.1071  0.0752
 7274TIP3    H221787   4.856   1.604   4.856  0.6989 -0.3369  0.2276
 7275TIP3   OH221788   6.347   6.549   3.985  0.2078  0.4849 -0.6250
 7275TIP3    H121789   6.354   6.528   4.078  1.6693  2.7427 -0.1478
 7275TIP3    H221790   6.254   6.537   3.965 -0.2866  0.6573  1.3107
 7276TIP3   OH221791   3.601   0.450   1.268  0.4454  0.0681  0.2821
 7276TIP3    H121792   3.625   0.359   1.254 -1.6221 -0.2480 -1.8237
 7276TIP3    H221793   3.653   0.498   1.203 -1.4365 -0.1672 -1.5027
 7277TIP3   OH221794   5.138   2.382   0.927  0.3238 -0.4058  0.9567
 7277TIP3    H121795   5.213   2.394   0.868 -0.7424  0.6231 -0.2555
 7277TIP3    H221796   5.113   2.290   0.917  0.9659 -0.5680  0.8120
 7278TIP3   OH221797   4.939   1.978   0.656 -0.0190 -0.0590 -0.4205
 7278TIP3    H121798   4.882   1.901   0.661 -1.2482  0.7649 -1.2896
 7278TIP3    H221799   5.024   1.947   0.686 -0.4493 -1.8016 -0.9088
 7279TIP3   OH221800   3.494   0.436   0.378 -0.8915 -0.1153  0.1428
 7279TIP3    H121801   3.414   0.434   0.324  0.0145 -2.7073 -1.2846
 7279TIP3    H221802   3.565   0.452   0.316 -0.1049  0.2144  1.1029
 7280TIP3   OH221803   2.836   1.845   1.124 -0.9391 -0.1763  0.3371
 7280TIP3    H121804   2.858   1.911   1.189 -1.2842 -0.1236  0.4055
 7280TIP3    H221805   2.777   1.890   1.063 -0.5536 -0.2006 -0.0612
 7281TIP3   OH221806   3.304   6.318   5.776  0.6847  0.1491  0.5356
 7281TIP3    H121807   3.390   6.276   5.781  1.0260  0.4730 -1.6625
 7281TIP3    H221808   3.276   6.306   5.685 -0.5715  1.9810  0.6187
 7282TIP3   OH221809   2.423   5.747   0.029 -0.5063  0.8062  0.2330
 7282TIP3    H121810   2.416   5.743  -0.067 -2.7774 -0.5735  0.3617
 7282TIP3    H221811   2.514   5.726   0.048 -0.2246  0.1999 -1.6051
 7283TIP3   OH221812   1.589   3.971   5.196  0.0604  0.1546  0.1774
 7283TIP3    H121813   1.549   3.924   5.123 -0.0350 -0.3249  0.5326
 7283TIP3    H221814   1.625   4.050   5.157  0.3405 -0.2821 -0.4540
 7284TIP3   OH221815   6.925   0.820   1.927 -0.2090 -0.1834  0.3864
 7284TIP3    H121816   6.860   0.761   1.887  1.1793 -1.5609  0.0871
 7284TIP3    H221817   6.963   0.867   1.852  0.6962 -1.0208  0.2977
 7285TIP3   OH221818   4.620   1.567   1.447 -0.2044  0.1209 -0.0428
 7285TIP3    H121819   4.535   1.611   1.454  0.5973  1.4780  1.9534
 7285TIP3    H221820   4.601   1.475   1.467 -1.2796  0.3086 -0.1295
 7286TIP3   OH221821   4.618   6.745   0.574  0.0633 -0.1582  0.4210
 7286TIP3    H121822   4.666   6.664   0.556  0.6444  0.0686  0.9570
 7286TIP3    H221823   4.535   6.733   0.527  0.2092 -0.9895  0.3520
 7287TIP3   OH221824   0.808   1.819   0.736 -0.0901  0.0232 -0.1068
 7287TIP3    H121825   0.846   1.827   0.649  1.8455 -0.5018  0.6426
 7287TIP3    H221826   0.817   1.726   0.758 -0.7373  0.1136  0.5716
 7288TIP3   OH221827   0.619   6.026   1.680 -0.4198  0.1176 -0.0517
 7288TIP3    H121828   0.597   5.953   1.622 -0.6844  1.4710 -1.7260
 7288TIP3    H221829   0.543   6.034   1.738 -0.8814 -0.2318 -0.5954
 7289TIP3   OH221830   1.016   2.887   2.200 -0.2179 -0.3735 -0.0833
 7289TIP3    H121831   1.047   2.976   2.214 -0.7951 -0.2166  0.2309
 7289TIP3    H221832   1.010   2.850   2.288  2.6156 -1.6503 -0.3009
 7290TIP3   OH221833   3.446   5.299   4.334 -0.4103  0.3361 -0.1976
 7290TIP3    H121834   3.539   5.319   4.345 -0.0488 -1.3939  0.2364
 7290TIP3    H221835   3.442   5.255   4.249 -0.4326 -1.6157  0.7664
 7291TIP3   OH221836   1.982   1.619   5.660 -0.1062  0.1764  0.3027
 7291TIP3    H121837   2.058   1.569   5.630 -0.3649 -0.2194  0.3041
 7291TIP3    H221838   1.986   1.701   5.609  1.3662  0.9879  1.6326
 7292TIP3   OH221839   6.147   6.661   5.394 -0.5304 -0.3004  0.3431
 7292TIP3    H121840   6.103   6.593   5.343 -0.4697  0.0974 -0.2524
 7292TIP3    H221841   6.085   6.735   5.394  0.2221  0.3537 -0.7132
 7293TIP3   OH221842   6.476   2.508   2.640  0.1764 -0.0477 -0.0762
 7293TIP3    H121843   6.508   2.544   2.557 -0.6417 -0.0140 -0.3865
 7293TIP3    H221844   6.555   2.482   2.687  0.8363  2.2455  0.2149
 7294TIP3   OH221845   2.512   4.211   4.603 -0.0790  0.1334 -0.0404
 7294TIP3    H121846   2.508   4.133   4.547  0.0897  0.5973 -0.7065
 7294TIP3    H221847   2.434   4.261   4.579 -1.5357 -0.9476  2.0965
 7295TIP3   OH221848   5.635   4.250   4.346  0.5005  0.1450 -0.2287
 7295TIP3    H121849   5.559   4.264   4.401  0.9712 -1.4123  0.8828
 7295TIP3    H221850   5.662   4.338   4.319 -0.6223  0.8329  0.8078
 7296TIP3   OH221851   2.849   4.527   1.910 -0.3907 -0.4258 -0.2879
 7296TIP3    H121852   2.896   4.611   1.904  1.2697 -1.3529 -1.1414
 7296TIP3    H221853   2.827   4.506   1.819 -4.8307  1.1339  0.1818
 7297TIP3   OH221854   0.951   5.416   3.778  0.6533 -0.0008 -0.1744
 7297TIP3    H121855   0.860   5.397   3.757  0.8533 -0.4893 -0.6280
 7297TIP3    H221856   0.986   5.332   3.811  0.5291  0.5567  1.4939
 7298TIP3   OH221857   3.821   2.122   2.087 -0.0031 -0.1251  0.2176
 7298TIP3    H121858   3.843   2.181   2.015 -2.7763  1.3707  0.4439
 7298TIP3    H221859   3.861   2.162   2.164  0.3532 -0.0135 -0.0244
 7299TIP3   OH221860   0.305   4.092   2.424 -0.0663 -0.2047  0.2566
 7299TIP3    H121861   0.275   4.175   2.386  1.1632  1.1281  2.0200
 7299TIP3    H221862   0.235   4.065   2.483 -0.3996 -0.3573 -0.2024
 7300TIP3   OH221863   4.813   3.231   3.422 -0.3805 -0.4757  0.2483
 7300TIP3    H121864   4.764   3.159   3.462 -0.8776 -0.8967 -1.0905
 7300TIP3    H221865   4.890   3.190   3.384 -0.0836 -0.1208  0.4534
 7301TIP3   OH221866   6.096   2.965   4.022 -0.6520  0.5114 -0.0220
 7301TIP3    H121867   6.013   3.009   4.036 -0.5569  0.7287 -0.1466
 7301TIP3    H221868   6.162   3.025   4.057 -0.5833  0.1266  0.5250
 7302TIP3   OH221869   1.407   6.195   2.999 -0.6300 -0.1753  0.0650
 7302TIP3    H121870   1.398   6.285   3.030  0.5882 -0.8396  2.5828
 7302TIP3    H221871   1.495   6.191   2.964 -0.3967 -0.5616  0.6807
 7303TIP3   OH221872   5.716   1.282   3.400  0.2093  0.2904  0.4655
 7303TIP3    H121873   5.638   1.253   3.352 -0.0826  2.7436 -0.6956
 7303TIP3    H221874   5.789   1.254   3.345  0.0136  0.2786  0.2048
 7304TIP3   OH221875   7.028   3.013   0.509 -0.3388  0.0172  0.9042
 7304TIP3    H121876   7.110   2.966   0.527  1.9020  3.5005  0.7808
 7304TIP3    H221877   6.994   3.034   0.596 -1.5882 -2.0476  0.9662
 7305TIP3   OH221878   6.212   0.097   3.936  0.4266  0.3522  0.0644
 7305TIP3    H121879   6.234   0.096   4.029  1.4553  0.2488 -0.1687
 7305TIP3    H221880   6.247   0.014   3.903 -0.4031  0.1502 -0.3135
 7306TIP3   OH221881   6.624   6.096   4.898  0.7106  0.3081 -0.5417
 7306TIP3    H121882   6.547   6.040   4.908  1.0948 -0.0641  0.4697
 7306TIP3    H221883   6.611   6.140   4.814 -1.1434  1.1012  0.1091
 7307TIP3   OH221884   3.722   0.117   4.656  0.2665 -0.1617 -0.1922
 7307TIP3    H121885   3.787   0.071   4.709 -1.1165 -1.2369  0.6631
 7307TIP3    H221886   3.638   0.092   4.695 -0.6317  3.1228  0.3757
 7308TIP3   OH221887   2.135   6.494   4.268 -0.3976  0.3736  0.3092
 7308TIP3    H121888   2.127   6.401   4.246  2.6637 -0.0830  0.5682
 7308TIP3    H221889   2.078   6.506   4.343  0.1033 -1.6620  1.0962
 7309TIP3   OH221890   2.210   6.457   3.663 -0.2071  0.5136  0.4618
 7309TIP3    H121891   2.241   6.412   3.742 -1.7484  3.5878  3.0876
 7309TIP3    H221892   2.265   6.535   3.657 -0.1254  0.3473 -1.5796
 7310TIP3   OH221893   3.573   6.548   5.793  0.1398 -0.0166 -0.2432
 7310TIP3    H121894   3.534   6.635   5.800 -0.0238 -0.1837  1.0653
 7310TIP3    H221895   3.604   6.528   5.881 -1.1949 -1.9310 -0.1493
 7311TIP3   OH221896   3.625   1.745   0.771  0.4234 -0.4378 -0.1665
 7311TIP3    H121897   3.611   1.825   0.823  2.0407 -0.7583  0.8446
 7311TIP3    H221898   3.677   1.774   0.697  0.5248 -0.4541 -0.1019
 7312TIP3   OH221899   0.930   5.251   4.319 -0.1205  0.2098  0.0159
 7312TIP3    H121900   0.860   5.290   4.370  0.4861  0.0932  0.9525
 7312TIP3    H221901   0.963   5.180   4.373 -0.3407 -0.7696 -1.1110
 7313TIP3   OH221902   3.627   3.627   5.066  0.3099 -0.1133  0.6368
 7313TIP3    H121903   3.720   3.617   5.045 -0.0194  0.2132 -1.1445
 7313TIP3    H221904   3.626   3.669   5.152  1.9229  3.3387 -0.8319
 7314TIP3   OH221905   5.437   0.864   4.890  0.1734  0.4354  0.5556
 7314TIP3    H121906   5.388   0.828   4.815  1.2531 -1.1854  0.5634
 7314TIP3    H221907   5.496   0.928   4.851 -1.1400  1.5990  0.4063
 7315TIP3   OH221908   3.690   1.150   3.368 -0.1037 -0.5058 -0.1737
 7315TIP3    H121909   3.749   1.136   3.294 -0.7766 -0.0226 -0.8109
 7315TIP3    H221910   3.602   1.136   3.333 -0.6981  2.8203 -0.3261
 7316TIP3   OH221911   3.220   4.709   4.674  0.5309 -0.3923  0.4075
 7316TIP3    H121912   3.284   4.673   4.612 -0.9154  0.1006 -1.4914
 7316TIP3    H221913   3.194   4.634   4.728  0.9223 -1.1477 -0.4271
 7317TIP3   OH221914   2.532   0.946   2.170 -0.2623  0.2437 -0.3530
 7317TIP3    H121915   2.551   1.000   2.247 -2.3038  0.7174 -0.1208
 7317TIP3    H221916   2.480   1.004   2.113  0.5287 -0.3595 -1.7385
 7318TIP3   OH221917   3.254   6.568   2.803 -0.4632  0.0331  0.3230
 7318TIP3    H121918   3.236   6.487   2.850 -0.5386 -0.0989  0.0693
 7318TIP3    H221919   3.321   6.543   2.739 -2.1817 -0.4027 -1.3777
 7319TIP3   OH221920   3.429   0.478   0.846  0.1546 -0.0587 -0.2356
 7319TIP3    H121921   3.334   0.469   0.854  0.2835 -0.1115  1.7076
 7319TIP3    H221922   3.447   0.570   0.865  0.6015 -0.3573  0.8415
 7320TIP3   OH221923   6.601   4.028   0.941  0.1933 -0.1185  0.5105
 7320TIP3    H121924   6.570   3.974   1.015 -1.3216  1.0321  0.7631
 7320TIP3    H221925   6.528   4.086   0.922  1.8556  2.0651  0.4363
 7321TIP3   OH221926   2.647   2.871   2.777 -0.3286  0.3862 -0.0886
 7321TIP3    H121927   2.667   2.898   2.688  2.0707  0.8889  0.5085
 7321TIP3    H221928   2.692   2.935   2.832  0.3230 -1.2779  1.4352
 7322TIP3   OH221929   2.409   1.358   1.493 -0.2493 -0.0939 -0.2798
 7322TIP3    H121930   2.387   1.368   1.400 -0.3770  0.5383 -0.1845
 7322TIP3    H221931   2.326   1.333   1.534 -0.1116 -0.7544 -0.3873
 7323TIP3   OH221932   4.606   0.122   0.233 -0.3843 -0.3129 -0.1666
 7323TIP3    H121933   4.554   0.139   0.155 -1.9464 -1.6153  0.5478
 7323TIP3    H221934   4.556   0.058   0.283  1.2537 -0.5860  1.2368
 7324TIP3   OH221935   3.752   2.706   4.010 -0.3307 -0.0160  0.2997
 7324TIP3    H121936   3.803   2.764   3.953  0.4138  0.0852  1.0482
 7324TIP3    H221937   3.806   2.695   4.088 -0.8841 -0.9638  0.5728
 7325TIP3   OH221938   1.865   2.344   0.349 -0.1093  0.0414  0.1762
 7325TIP3    H121939   1.802   2.411   0.324 -0.9553  0.3222  2.7895
 7325TIP3    H221940   1.818   2.261   0.337 -0.4310  0.1576  0.6225
 7326TIP3   OH221941   0.969   4.224   2.470  0.8377 -0.1240  0.1726
 7326TIP3    H121942   1.061   4.227   2.497  0.5425  0.8928  1.1264
 7326TIP3    H221943   0.933   4.147   2.514  1.0210 -0.0252  0.4983
 7327TIP3   OH221944   5.935   0.185   2.690 -0.3617  0.6576 -0.3515
 7327TIP3    H121945   5.879   0.123   2.644  0.6873  0.4586 -1.4007
 7327TIP3    H221946   5.894   0.270   2.675 -0.0039  0.6078 -1.7359
 7328TIP3   OH221947   4.326   5.182   2.131 -0.2556 -0.0430 -0.1843
 7328TIP3    H121948   4.419   5.179   2.155 -0.5231  0.5506  1.0086
 7328TIP3    H221949   4.293   5.095   2.150 -0.3149  0.2354  1.0596
 7329TIP3   OH221950   5.605   3.042   0.907  0.0841  0.2912  1.0382
 7329TIP3    H121951   5.567   2.967   0.861 -1.8657  1.2795  0.9149
 7329TIP3    H221952   5.626   3.008   0.994  0.4330 -0.7113  0.5753
 7330TIP3   OH221953   3.282   1.909   0.977 -0.5868 -0.1406 -0.5375
 7330TIP3    H121954   3.234   1.956   0.908 -1.8842 -0.4202  0.1295
 7330TIP3    H221955   3.245   1.821   0.975 -2.3735  0.4462  2.0011
 7331TIP3   OH221956   4.374   1.039   2.328  0.2188 -0.1408 -0.4333
 7331TIP3    H121957   4.347   0.947   2.326  1.6864 -0.6174 -2.6373
 7331TIP3    H221958   4.463   1.037   2.364  0.8782  0.1414 -1.9298
 7332TIP3   OH221959   4.514   1.565   5.535 -0.0896  0.1379  0.9511
 7332TIP3    H121960   4.492   1.482   5.579  1.0429 -0.4209  0.5197
 7332TIP3    H221961   4.434   1.590   5.490  0.1921 -2.0948 -1.0237
 7333TIP3   OH221962   1.503   3.729   4.580 -0.5715 -1.0278  0.1207
 7333TIP3    H121963   1.473   3.690   4.498 -0.5291 -1.4250  0.2926
 7333TIP3    H221964   1.597   3.712   4.582 -0.6294 -1.3291  0.4166
 7334TIP3   OH221965   1.833   6.349   1.767 -0.1433 -0.0081 -0.2182
 7334TIP3    H121966   1.771   6.308   1.707 -0.1921  0.8565 -0.7654
 7334TIP3    H221967   1.778   6.384   1.837 -0.0789 -1.0975  0.4145
 7335TIP3   OH221968   2.563   6.150   3.358  0.1267  0.2722  0.4360
 7335TIP3    H121969   2.577   6.131   3.265  0.4245  0.2027  0.4946
 7335TIP3    H221970   2.647   6.128   3.400 -0.6746 -1.8304  1.0604
 7336TIP3   OH221971   2.640   3.932   4.919 -0.0562 -0.3689 -0.5913
 7336TIP3    H121972   2.641   3.839   4.942  0.0899 -0.5363 -1.2613
 7336TIP3    H221973   2.723   3.946   4.873  0.8088  0.5172  1.1122
 7337TIP3   OH221974   5.777   0.141   4.154  0.1482  0.6434 -0.5394
 7337TIP3    H121975   5.861   0.113   4.118  0.4564  0.0205  0.6184
 7337TIP3    H221976   5.770   0.234   4.131  1.0093  0.6299 -0.8856
 7338TIP3   OH221977   5.983   3.998   3.033  0.8725  0.7661  0.7004
 7338TIP3    H121978   5.992   4.093   3.041  1.1356  0.7491  0.6031
 7338TIP3    H221979   5.965   3.968   3.123 -0.9805  1.0915  0.4714
 7339TIP3   OH221980   0.162   5.282   3.601 -0.7900  0.9613  0.1346
 7339TIP3    H121981   0.151   5.256   3.692 -0.8183  0.7166  0.0620
 7339TIP3    H221982   0.082   5.253   3.557  0.0796 -0.7924 -0.3864
 7340TIP3   OH221983   3.495   6.638   1.261  0.4522 -0.7606  0.3264
 7340TIP3    H121984   3.482   6.586   1.340 -0.4280  0.2171  0.8647
 7340TIP3    H221985   3.429   6.606   1.200 -1.5446  1.0532  1.3996
 7341TIP3   OH221986   0.347   5.555   2.808  0.1621 -0.2586 -0.0695
 7341TIP3    H121987   0.320   5.639   2.844  0.5503 -0.8320  1.6677
 7341TIP3    H221988   0.266   5.507   2.793 -0.0156  0.0771 -0.1768
 7342TIP3   OH221989   0.124   3.125   0.405 -1.0532  0.0473 -0.0169
 7342TIP3    H121990   0.042   3.172   0.388 -0.2778  1.2920 -0.4462
 7342TIP3    H221991   0.185   3.192   0.433 -0.0497 -0.7921 -0.1263
 7343TIP3   OH221992   1.458   2.117   3.625 -0.7589 -0.3443 -0.0074
 7343TIP3    H121993   1.444   2.086   3.714 -1.4951 -0.3360 -0.1188
 7343TIP3    H221994   1.383   2.084   3.575 -0.6606  0.1580 -0.4967
 7344TIP3   OH221995   2.583   2.697   4.279 -0.2882 -0.0302  0.3676
 7344TIP3    H121996   2.563   2.639   4.353  1.7842 -0.3492  0.7521
 7344TIP3    H221997   2.653   2.754   4.312 -0.3868  0.8531 -0.8800
 7345TIP3   OH221998   0.897   0.238   5.012  0.3329  0.3225  0.2014
 7345TIP3    H121999   0.827   0.183   4.977  1.2806 -1.2182  0.6734
 7345TIP3    H222000   0.972   0.222   4.955 -0.0004  3.0510 -1.1964
 7346TIP3   OH222001   2.839   0.926   1.548  0.3734 -0.6486  0.4546
 7346TIP3    H122002   2.817   1.013   1.514  1.6798 -0.0128  1.1598
 7346TIP3    H222003   2.928   0.935   1.581 -1.3154 -0.5135  6.0183
 7347TIP3   OH222004   1.658   1.157   1.362 -0.1690 -0.2373 -0.2820
 7347TIP3    H122005   1.681   1.249   1.351  0.2227 -0.4066 -0.9327
 7347TIP3    H222006   1.563   1.155   1.353 -0.1884  0.1148 -0.1726
 7348TIP3   OH222007   4.386   0.950   0.651  0.5711 -0.1161  0.2523
 7348TIP3    H122008   4.442   0.908   0.586 -0.4651 -1.0059 -0.1030
 7348TIP3    H222009   4.445   1.009   0.699  1.6533 -0.5166 -0.5353
 7349TIP3   OH222010   3.551   2.735   4.698  0.3517 -0.6273 -0.0662
 7349TIP3    H122011   3.629   2.696   4.738  0.2158  0.4691  1.3420
 7349TIP3    H222012   3.557   2.711   4.605  0.7326 -3.1821  0.5275
 7350TIP3   OH222013   1.633   0.423   1.589 -0.1203  0.2464 -0.2424
 7350TIP3    H122014   1.606   0.334   1.565 -0.6462  0.7284 -1.4777
 7350TIP3    H222015   1.695   0.410   1.661  3.0271 -1.4173 -2.9832
 7351TIP3   OH222016   4.273   4.712   1.312  0.0791  0.1664 -0.2131
 7351TIP3    H122017   4.327   4.709   1.233  0.4814 -0.8286  0.0900
 7351TIP3    H222018   4.267   4.806   1.333  1.3961  0.3279 -0.4541
 7352TIP3   OH222019   4.705   3.363   4.940  0.0097 -0.2044 -0.3324
 7352TIP3    H122020   4.688   3.403   4.854 -1.8711  1.1519  0.6084
 7352TIP3    H222021   4.774   3.418   4.978 -0.5624  0.4410 -0.1963
 7353TIP3   OH222022   7.006   2.389   2.705 -0.1906  0.2543  0.1373
 7353TIP3    H122023   7.034   2.298   2.707 -3.4592 -0.9353 -1.0108
 7353TIP3    H222024   7.064   2.431   2.642  1.8846 -0.7660  1.2900
 7354TIP3   OH222025   5.839   0.006   5.813  0.0361  0.2932 -0.5011
 7354TIP3    H122026   5.763   0.038   5.861 -0.0405 -1.8226  0.9557
 7354TIP3    H222027   5.808  -0.007   5.724 -1.6197 -1.2431  0.2188
 7355TIP3   OH222028   3.879   6.523   4.528 -0.5221 -0.0552 -0.0733
 7355TIP3    H122029   3.812   6.588   4.547  0.2037  0.6325  0.2157
 7355TIP3    H222030   3.917   6.502   4.613  0.3817  0.4200 -0.3441
 7356TIP3   OH222031   1.077   1.163   0.078 -0.4039  0.1094  0.5676
 7356TIP3    H122032   1.150   1.224   0.084  0.1181 -0.5610  1.0368
 7356TIP3    H222033   1.083   1.109   0.157 -0.9089 -0.5030  0.1961
 7357TIP3   OH222034   0.350   2.759   0.033  0.1600  0.1565 -0.5749
 7357TIP3    H122035   0.326   2.771  -0.059  0.5418  0.2278 -0.6670
 7357TIP3    H222036   0.278   2.799   0.082  0.6213  1.4028 -0.8663
 7358TIP3   OH222037   0.861   1.198   3.296 -0.4096 -0.0903  0.4641
 7358TIP3    H122038   0.768   1.174   3.301 -0.0191 -1.7983  0.3603
 7358TIP3    H222039   0.883   1.188   3.203 -0.7395  3.1220 -0.0848
 7359TIP3   OH222040   2.865   3.648   3.262  0.4448 -0.4752 -0.4929
 7359TIP3    H122041   2.959   3.636   3.267  0.4807  0.2084  0.6966
 7359TIP3    H222042   2.830   3.595   3.334  0.0862  0.8385  0.3213
 7360TIP3   OH222043   4.328   3.933   1.498 -0.0270 -0.3535 -0.8675
 7360TIP3    H122044   4.407   3.911   1.548  0.0235  2.2955  0.3920
 7360TIP3    H222045   4.357   3.939   1.408  0.7552 -1.3457 -0.7016
 7361TIP3   OH222046   3.042   6.317   0.623  0.1056 -0.5275 -0.3900
 7361TIP3    H122047   3.097   6.390   0.597  0.1699 -0.7376 -0.8614
 7361TIP3    H222048   3.053   6.253   0.553 -1.8419  0.0011 -1.2466
 7362TIP3   OH222049   3.719   6.808   3.148  0.3737 -0.1008 -0.2865
 7362TIP3    H122050   3.673   6.743   3.094 -0.4028 -0.8678  1.2258
 7362TIP3    H222051   3.747   6.759   3.225  0.6674  1.1582  0.4298
 7363TIP3   OH222052   2.879   6.388   4.358 -1.1241  0.2949  0.2108
 7363TIP3    H122053   2.916   6.300   4.351  0.5749  0.5000  3.8301
 7363TIP3    H222054   2.919   6.437   4.286 -0.1584 -1.3323 -0.4188
 7364TIP3   OH222055   1.485   2.918   2.089 -0.4216  0.3083  0.1289
 7364TIP3    H122056   1.528   2.887   2.009 -0.9950  0.9316 -0.4302
 7364TIP3    H222057   1.511   3.010   2.096 -0.2591  0.2239  0.7527
 7365TIP3   OH222058   4.434   5.267   3.093  0.0894  0.4158  0.2502
 7365TIP3    H122059   4.415   5.335   3.158 -0.9574 -0.3454  0.7707
 7365TIP3    H222060   4.445   5.187   3.145  1.0130  0.1199 -0.3787
 7366TIP3   OH222061   1.688   1.287   1.723 -0.2264  0.6886 -0.0231
 7366TIP3    H122062   1.611   1.231   1.714  0.6247 -0.3992 -0.8583
 7366TIP3    H222063   1.654   1.376   1.716 -1.4420  0.2351 -0.0906
 7367TIP3   OH222064   7.110   6.488   4.785  0.8297 -0.2963  0.1151
 7367TIP3    H122065   7.157   6.570   4.770  0.2194 -0.1432 -1.0458
 7367TIP3    H222066   7.030   6.496   4.733 -0.6814 -0.4092  2.2901
 7368TIP3   OH222067   3.516   2.507   2.726 -0.1976  0.6430  0.6418
 7368TIP3    H122068   3.496   2.590   2.768 -0.9580  1.9162 -2.0045
 7368TIP3    H222069   3.488   2.441   2.789 -0.2112  2.3653  2.5421
 7369TIP3   OH222070   5.063   0.551   0.714  0.0316 -0.5623 -0.1464
 7369TIP3    H122071   4.973   0.538   0.684  0.7230 -1.4872 -1.9648
 7369TIP3    H222072   5.114   0.489   0.663  1.8720  0.7294  0.0386
 7370TIP3   OH222073   1.240   5.314   1.109  0.0152  0.2600  0.0350
 7370TIP3    H122074   1.147   5.323   1.091  0.3959  2.0144 -1.4099
 7370TIP3    H222075   1.282   5.328   1.023  1.5799 -0.9807  0.5556
 7371TIP3   OH222076   6.164   1.313   0.045 -0.0412  0.0972 -0.1257
 7371TIP3    H122077   6.230   1.285   0.109 -0.8355 -2.2277 -0.2225
 7371TIP3    H222078   6.081   1.286   0.083 -0.8676  1.8350 -0.6009
 7372TIP3   OH222079   2.040   1.362   4.786 -0.5174  0.7203  0.8288
 7372TIP3    H122080   2.087   1.425   4.732 -0.1563 -0.0035  0.2842
 7372TIP3    H222081   1.993   1.307   4.724 -0.6836  0.3262  1.2933
 7373TIP3   OH222082   0.999   2.599   3.938  0.4305 -0.0406  0.4050
 7373TIP3    H122083   0.910   2.634   3.949  0.0628 -0.7959 -0.1159
 7373TIP3    H222084   1.001   2.566   3.849  1.1079 -0.3986  0.5506
 7374TIP3   OH222085   5.546  -0.019   4.175 -0.1813 -0.0736 -0.0545
 7374TIP3    H122086   5.468   0.012   4.128 -0.1656  0.4475  0.2626
 7374TIP3    H222087   5.616   0.041   4.148  0.3756 -1.1670 -1.1663
 7375TIP3   OH222088   3.902   0.781   3.124  0.9242 -0.3142  0.0021
 7375TIP3    H122089   3.835   0.841   3.092 -0.5018 -1.4365  0.7269
 7375TIP3    H222090   3.976   0.836   3.148 -0.3769  1.1549  0.7671
 7376TIP3   OH222091   6.892   6.446   4.648  0.3713  0.1459 -0.4688
 7376TIP3    H122092   6.814   6.469   4.600 -0.0883 -2.0853 -0.9040
 7376TIP3    H222093   6.910   6.355   4.623  1.6637 -0.2079  1.4964
 7377TIP3   OH222094   2.817   3.827   2.628 -0.2682  0.0946 -1.0269
 7377TIP3    H122095   2.810   3.922   2.640 -0.6055  0.1020 -1.2946
 7377TIP3    H222096   2.743   3.791   2.677  0.8114 -0.1488  0.5246
 7378TIP3   OH222097   4.608   2.558   5.293  0.2739 -0.1239 -0.1178
 7378TIP3    H122098   4.598   2.594   5.205  1.3281  0.5545  0.0158
 7378TIP3    H222099   4.588   2.465   5.283  0.5764 -0.0958 -1.1185
 7379TIP3   OH222100   3.450   3.640   3.643 -0.3419  0.2689  0.5591
 7379TIP3    H122101   3.522   3.687   3.685 -0.4821  0.8848  0.1172
 7379TIP3    H222102   3.470   3.547   3.659  0.9789  0.3888 -0.2277
 7380TIP3   OH222103   6.717   6.272   0.118 -0.2466 -0.0171 -0.0446
 7380TIP3    H122104   6.627   6.303   0.133 -1.1717 -2.3694 -0.2292
 7380TIP3    H222105   6.767   6.305   0.192 -1.8238 -0.5825  1.3572
 7381TIP3   OH222106   5.100   0.547   3.961  0.2776 -0.0309 -0.3212
 7381TIP3    H122107   5.159   0.618   3.989  1.1938 -0.9739  0.2224
 7381TIP3    H222108   5.013   0.576   3.987  0.6794  0.7638  0.1788
 7382TIP3   OH222109   1.570   2.305   4.033  0.1521  0.2200 -0.5473
 7382TIP3    H122110   1.593   2.246   4.104  1.8711 -0.5144 -1.6438
 7382TIP3    H222111   1.490   2.268   3.996 -1.5288  1.3292  1.7120
 7383TIP3   OH222112   0.380   1.900   5.079  0.1510 -0.5154 -0.7075
 7383TIP3    H122113   0.470   1.877   5.105 -0.0487 -1.4753 -0.8229
 7383TIP3    H222114   0.328   1.823   5.103 -1.0383  0.8323  1.3177
 7384TIP3   OH222115   4.162   0.661   4.628  0.4850  0.6020 -0.1506
 7384TIP3    H122116   4.070   0.641   4.610 -0.0958  1.3002  1.7603
 7384TIP3    H222117   4.170   0.755   4.614  0.7089  0.6769  0.4609
 7385TIP3   OH222118   5.758   3.677   1.416 -0.0334  0.3067 -0.1579
 7385TIP3    H122119   5.749   3.652   1.508  0.5769  0.2286 -0.1204
 7385TIP3    H222120   5.739   3.771   1.416 -0.2318  0.2704  0.0123
 7386TIP3   OH222121   0.748   3.163   3.008 -1.3432  0.1446  0.0707
 7386TIP3    H122122   0.780   3.131   3.093 -2.8771 -1.3098  0.1631
 7386TIP3    H222123   0.826   3.195   2.963 -0.1434 -1.0936  1.1796
 7387TIP3   OH222124   1.001   1.691   4.715  0.1801  0.7672 -0.1177
 7387TIP3    H122125   1.014   1.727   4.803  1.3678  0.7787 -0.2888
 7387TIP3    H222126   1.086   1.698   4.673 -0.1206 -0.2065 -0.9241
 7388TIP3   OH222127   1.086   2.112   5.457 -0.5584  0.2645  0.4428
 7388TIP3    H122128   1.062   2.100   5.365  1.8835  0.7765 -0.3456
 7388TIP3    H222129   1.023   2.175   5.491 -2.8578 -1.5485 -0.2183
 7389TIP3   OH222130   5.794   2.207   3.339 -0.1893  0.0930 -0.1031
 7389TIP3    H122131   5.848   2.252   3.274  0.1263  0.2741  0.2770
 7389TIP3    H222132   5.855   2.188   3.411 -0.1217 -1.6268 -0.5639
 7390TIP3   OH222133   2.477   0.213   1.743  0.4398  0.6663 -0.3421
 7390TIP3    H122134   2.492   0.182   1.654  0.5761  1.2214 -0.5180
 7390TIP3    H222135   2.564   0.212   1.784  0.3121 -0.0188 -0.0643
 7391TIP3   OH222136   3.253   3.926   0.977 -0.1495  0.0392  0.1680
 7391TIP3    H122137   3.219   3.896   0.893 -0.5463 -1.8571  0.9637
 7391TIP3    H222138   3.343   3.954   0.958 -0.0404 -0.9033 -0.7853
 7392TIP3   OH222139   6.377   3.549   4.304 -0.0522 -0.3441 -0.4805
 7392TIP3    H122140   6.298   3.495   4.310  0.7625 -1.6040 -0.6508
 7392TIP3    H222141   6.432   3.503   4.241  0.5318  0.9141 -0.9253
 7393TIP3   OH222142   0.382   2.672   1.833 -0.2633 -0.4396 -0.4173
 7393TIP3    H122143   0.377   2.730   1.908 -1.9221  2.4058 -2.5534
 7393TIP3    H222144   0.292   2.646   1.815 -0.0135 -0.3863 -1.9044
 7394TIP3   OH222145   5.654   5.522   0.454 -0.8973  0.1060  0.3261
 7394TIP3    H122146   5.708   5.449   0.485 -1.7580 -0.3323  0.8084
 7394TIP3    H222147   5.641   5.505   0.360 -0.5846 -0.0237  0.3054
 7395TIP3   OH222148   2.011   0.693   4.759  0.0117  0.6617 -0.5059
 7395TIP3    H122149   1.968   0.758   4.815 -1.5226 -0.5903 -0.1380
 7395TIP3    H222150   2.034   0.741   4.680 -1.4806  1.5722 -0.4302
 7396TIP3   OH222151   4.445   4.853   2.583  0.6049 -0.1747 -0.4824
 7396TIP3    H122152   4.466   4.760   2.594  1.8951 -0.1188 -2.0493
 7396TIP3    H222153   4.409   4.858   2.494 -1.4640  0.5425  0.3359
 7397TIP3   OH222154   5.161   2.855   2.113 -0.4964  0.6373  0.1915
 7397TIP3    H122155   5.216   2.798   2.059 -1.1433 -0.2170  0.4108
 7397TIP3    H222156   5.088   2.879   2.057 -0.6750  0.5344  0.3770
 7398TIP3   OH222157   3.401   5.560   4.454 -0.2997 -0.4417 -0.4862
 7398TIP3    H122158   3.465   5.590   4.520  0.4466 -1.2249 -0.8295
 7398TIP3    H222159   3.407   5.464   4.457 -2.9267 -0.6362  0.8729
 7399TIP3   OH222160   2.616   6.048   3.825  0.3442 -0.2386  0.5994
 7399TIP3    H122161   2.576   6.009   3.903 -0.9420  1.7809  1.0233
 7399TIP3    H222162   2.660   6.127   3.858  0.8888 -0.0455 -0.5463
 7400TIP3   OH222163   5.043   3.830   0.916 -0.3355  0.1382 -0.1380
 7400TIP3    H122164   5.045   3.811   1.009 -1.5290  2.4247  0.4244
 7400TIP3    H222165   5.125   3.876   0.899 -0.0726 -0.3654 -0.2555
 7401TIP3   OH222166   2.719   6.126   5.617 -0.0380 -0.0349 -0.1117
 7401TIP3    H122167   2.724   6.062   5.547 -0.2757 -1.3603  1.0457
 7401TIP3    H222168   2.798   6.179   5.608  1.2502 -1.8475  0.1738
 7402TIP3   OH222169   1.081   6.148   4.886  0.0673  0.3324 -0.2020
 7402TIP3    H122170   1.152   6.084   4.893  1.8316  2.1498 -0.7268
 7402TIP3    H222171   1.098   6.211   4.956 -0.7387  1.0745 -0.6502
 7403TIP3   OH222172   7.068   2.746   0.724  0.6662  0.5686 -0.4408
 7403TIP3    H122173   7.125   2.680   0.762  0.4595  1.3429  1.2837
 7403TIP3    H222174   7.020   2.700   0.655 -0.0550 -1.2940  1.2293
 7404TIP3   OH222175   3.528   3.197   1.771  0.2115  0.1677  0.0371
 7404TIP3    H122176   3.549   3.146   1.692  0.1128  0.1955 -0.0075
 7404TIP3    H222177   3.436   3.222   1.760 -0.7828 -2.4550  1.6217
 7405TIP3   OH222178   0.145   3.409   0.154 -0.2496  0.1554  0.2435
 7405TIP3    H122179   0.139   3.378   0.245 -0.7756  0.3019  0.2643
 7405TIP3    H222180   0.216   3.473   0.155 -1.6563  1.7846  1.0435
 7406TIP3   OH222181   0.094   5.662   4.052  0.3439  0.1699  0.3164
 7406TIP3    H122182   0.069   5.671   4.144 -1.8659 -0.1588 -0.1884
 7406TIP3    H222183   0.115   5.570   4.042  0.4270  0.1735  0.4500
 7407TIP3   OH222184   6.749   4.045   0.448 -0.5452 -0.2803  0.0540
 7407TIP3    H122185   6.734   4.032   0.542 -1.3807  1.1450  0.1459
 7407TIP3    H222186   6.668   4.084   0.416  0.5673  1.4859 -0.7672
 7408TIP3   OH222187   5.192   6.128   1.919  0.1969 -0.3370 -0.2714
 7408TIP3    H122188   5.288   6.133   1.925  0.0957  0.3976  3.5494
 7408TIP3    H222189   5.161   6.205   1.968 -2.3291 -1.2164 -0.3475
 7409TIP3   OH222190   7.129   3.894   3.743 -0.3670  0.3447 -0.1564
 7409TIP3    H122191   7.074   3.927   3.672 -1.8748 -0.8125  0.4256
 7409TIP3    H222192   7.202   3.851   3.699 -1.8560 -1.3529 -1.0893
 7410TIP3   OH222193   4.344   6.754   0.479  0.3915  0.4359  0.6218
 7410TIP3    H122194   4.363   6.800   0.396 -0.6720 -0.8922 -0.4090
 7410TIP3    H222195   4.248   6.756   0.485  0.4741  0.9475  2.1079
 7411TIP3   OH222196   2.263   0.411   4.528  0.0402  0.4365 -0.3278
 7411TIP3    H122197   2.193   0.473   4.505 -0.9121  0.1797  1.6244
 7411TIP3    H222198   2.276   0.359   4.449 -1.1236  1.2873 -1.1164
 7412TIP3   OH222199   3.398   5.094   4.151 -0.3566 -0.4421  0.3693
 7412TIP3    H122200   3.444   5.047   4.081  1.3241  0.3744  0.8873
 7412TIP3    H222201   3.387   5.029   4.221  0.9827 -0.3658  0.6613
 7413TIP3   OH222202   3.571   5.082   2.860  0.0358 -0.0148 -0.1585
 7413TIP3    H122203   3.634   5.120   2.920  0.2327 -1.8717  0.8701
 7413TIP3    H222204   3.489   5.127   2.880  0.6090  1.0862 -0.2078
 7414TIP3   OH222205   7.013   2.087   0.527 -0.2405  0.0831  0.0821
 7414TIP3    H122206   7.044   2.005   0.487 -0.2408  0.2352 -0.2330
 7414TIP3    H222207   7.000   2.146   0.453 -3.5694 -0.6797 -0.0679
 7415TIP3   OH222208   0.514   1.539   3.029 -0.7151 -0.2026 -0.1972
 7415TIP3    H122209   0.497   1.604   3.097 -1.3877 -1.9986  1.4437
 7415TIP3    H222210   0.468   1.461   3.059 -1.9652 -0.7912 -3.2755
 7416TIP3   OH222211   4.247   3.086   5.479  0.5024 -0.0727  0.3276
 7416TIP3    H122212   4.248   3.019   5.547  2.2668  0.1262  0.5610
 7416TIP3    H222213   4.217   3.165   5.524 -0.0496 -0.3444  0.4400
 7417TIP3   OH222214   5.003   5.938   1.004 -0.0431  0.4527 -0.6607
 7417TIP3    H122215   4.940   5.867   1.008  0.2165  0.1000 -2.1495
 7417TIP3    H222216   4.955   6.010   0.963 -1.0515  2.0572  2.9373
 7418TIP3   OH222217   4.668   6.105   3.936  0.0770 -0.1961  0.1616
 7418TIP3    H122218   4.726   6.140   3.868 -1.0819  0.6773 -0.4064
 7418TIP3    H222219   4.588   6.157   3.929 -1.5637 -2.6149 -0.3863
 7419TIP3   OH222220   6.116   3.200   1.210  0.0366 -0.9278  0.2849
 7419TIP3    H122221   6.117   3.286   1.167  1.6712 -0.8032  0.5238
 7419TIP3    H222222   6.049   3.151   1.162 -0.2293  0.1562 -0.5019
 7420TIP3   OH222223   4.671   3.320   2.117 -0.9743 -0.0042  0.2095
 7420TIP3    H122224   4.711   3.296   2.034 -0.1495 -0.0692  0.6045
 7420TIP3    H222225   4.698   3.410   2.132  0.8477 -0.6874  1.4703
 7421TIP3   OH222226   1.820   4.563   2.061 -0.1952 -0.6343 -0.0664
 7421TIP3    H122227   1.820   4.482   2.010 -2.9760  0.0299 -1.3217
 7421TIP3    H222228   1.808   4.632   1.996 -0.4110  0.5555  1.1927
 7422TIP3   OH222229   4.171   1.485   5.751 -0.6029  0.1469  0.1784
 7422TIP3    H122230   4.095   1.432   5.724  0.0902 -1.3603  1.0532
 7422TIP3    H222231   4.142   1.528   5.832 -0.3210 -1.0239  0.9332
 7423TIP3   OH222232   2.625   2.946   5.354  0.1672 -0.4015 -0.0115
 7423TIP3    H122233   2.658   3.003   5.424 -1.8284 -0.4501  1.0267
 7423TIP3    H222234   2.602   2.864   5.399 -2.7718  0.1549 -0.3150
 7424TIP3   OH222235   5.069   3.035   5.630  0.0335 -0.5275 -0.4930
 7424TIP3    H122236   4.999   2.972   5.612 -0.4152 -0.7286  1.7196
 7424TIP3    H222237   5.032   3.120   5.603  0.2762 -1.0303 -2.5627
 7425TIP3   OH222238   6.804   4.715   5.566 -0.2204  0.1771 -0.1247
 7425TIP3    H122239   6.723   4.753   5.599  0.2747  0.0929  1.2505
 7425TIP3    H222240   6.871   4.781   5.584  0.1083  0.0284 -0.7639
 7426TIP3   OH222241   1.941   2.147   4.969 -0.4459 -0.0327 -0.2901
 7426TIP3    H122242   2.028   2.151   5.008 -0.5060 -0.9702 -0.0479
 7426TIP3    H222243   1.949   2.195   4.887  0.2026  0.1891 -0.1035
 7427TIP3   OH222244   3.859   0.605   2.211 -0.0848  0.0800 -0.0402
 7427TIP3    H122245   3.832   0.519   2.182  0.4150 -0.7564  1.7890
 7427TIP3    H222246   3.778   0.656   2.218 -0.7542 -1.1163  1.4755
 7428TIP3   OH222247   1.885   1.458   3.152 -0.4116 -0.3928 -0.4375
 7428TIP3    H122248   1.822   1.526   3.127 -0.8506 -0.0407  1.4921
 7428TIP3    H222249   1.903   1.411   3.070 -2.3971  0.1449 -1.2428
 7429TIP3   OH222250   6.459   6.207   1.961 -0.0231  0.3318 -0.1174
 7429TIP3    H122251   6.368   6.219   1.988  0.0122  0.6217 -0.1235
 7429TIP3    H222252   6.487   6.127   2.005 -0.2953  0.2160 -0.1530
 7430TIP3   OH222253   6.799   2.953   2.126 -0.2128 -0.6955  0.4131
 7430TIP3    H122254   6.880   2.968   2.076 -0.6874  0.6032 -0.0309
 7430TIP3    H222255   6.760   2.876   2.085 -0.8726  0.6525 -1.6933
 7431TIP3   OH222256   4.882   6.156   0.086 -0.0384  0.0540  0.7531
 7431TIP3    H122257   4.824   6.080   0.080 -1.0201  0.5823  2.7347
 7431TIP3    H222258   4.962   6.128   0.042 -1.7538 -0.6656 -2.1942
 7432TIP3   OH222259   4.988   1.289   5.733  0.6112  0.4727 -0.1176
 7432TIP3    H122260   4.971   1.235   5.656 -0.4187  0.7934 -0.1296
 7432TIP3    H222261   5.077   1.321   5.721  0.6596  0.0642 -0.8927
 7433TIP3   OH222262   6.807   5.708   4.418 -0.3128  0.1165 -0.6203
 7433TIP3    H122263   6.860   5.766   4.472 -0.6829 -0.9068  0.9165
 7433TIP3    H222264   6.721   5.750   4.414  0.0437  0.7983 -1.4721
 7434TIP3   OH222265   5.990   1.227   0.248 -0.1256  0.0042  0.6459
 7434TIP3    H122266   5.898   1.204   0.237  0.5592 -2.5376 -0.4928
 7434TIP3    H222267   6.021   1.169   0.317  1.0685 -0.6521 -0.4031
 7435TIP3   OH222268   2.015   5.192   3.639 -0.0252  0.2619  0.4812
 7435TIP3    H122269   2.090   5.206   3.582  0.4857 -1.2319  0.7604
 7435TIP3    H222270   1.939   5.203   3.583  0.3674  1.8825  0.2134
 7436TIP3   OH222271   6.355   1.182   3.974 -0.1366  0.5981  0.2184
 7436TIP3    H122272   6.304   1.140   3.905 -0.6881  2.5025 -0.5973
 7436TIP3    H222273   6.443   1.190   3.937 -0.5450  2.0647 -0.5366
 7437TIP3   OH222274   4.376   6.090   4.692 -0.0978 -0.4847 -0.2870
 7437TIP3    H122275   4.388   6.170   4.744 -2.2258 -1.5900  2.1640
 7437TIP3    H222276   4.330   6.119   4.613  1.1369  0.9730 -0.5051
 7438TIP3   OH222277   7.097   5.396   5.557 -0.0310  0.3046 -0.0194
 7438TIP3    H122278   7.060   5.460   5.496 -1.2691  0.5506  0.9364
 7438TIP3    H222279   7.167   5.443   5.602  1.4349 -0.1216 -1.7543
 7439TIP3   OH222280   1.808   2.283   2.967  0.4281  0.1394 -0.1199
 7439TIP3    H122281   1.805   2.193   2.934  0.2418  0.0916  0.0259
 7439TIP3    H222282   1.865   2.278   3.044  1.2110  0.3311 -0.6751
 7440TIP3   OH222283   2.811   5.121   1.976 -0.5667 -0.0847  0.4777
 7440TIP3    H122284   2.789   5.214   1.981 -0.3382  0.1518 -1.7259
 7440TIP3    H222285   2.743   5.084   1.919 -1.9797 -1.7846  3.0739
 7441TIP3   OH222286   5.788   3.617   3.188 -0.2173  0.1090  0.2501
 7441TIP3    H122287   5.822   3.629   3.277  1.9383  0.1671 -0.5415
 7441TIP3    H222288   5.864   3.595   3.135 -0.7531  3.5769 -2.3227
 7442TIP3   OH222289   0.568   1.214   0.843 -0.3993 -0.6747  0.5199
 7442TIP3    H122290   0.526   1.289   0.884  1.0846  1.6514 -1.8353
 7442TIP3    H222291   0.639   1.190   0.902  0.4212  1.2345  0.3657
 7443TIP3   OH222292   5.679   0.698   0.183  0.1995  0.4717  0.4640
 7443TIP3    H122293   5.675   0.750   0.263 -0.8246  1.0392  0.0687
 7443TIP3    H222294   5.626   0.748   0.120  2.9712  1.3730 -1.3531
 7444TIP3   OH222295   0.859   4.744   4.035  0.0307  0.1838  0.0205
 7444TIP3    H122296   0.924   4.796   4.081 -0.3048  0.8395 -0.2322
 7444TIP3    H222297   0.868   4.656   4.072  0.0943  0.5851  0.9911
 7445TIP3   OH222298   5.081   5.587   3.077  0.1880  0.4713 -0.1770
 7445TIP3    H122299   5.102   5.505   3.121  0.1112  0.6400  0.1814
 7445TIP3    H222300   5.029   5.636   3.141 -1.5322 -0.0429 -1.1330
 7446TIP3   OH222301   2.105   2.461   3.345 -0.4371  0.0446  0.1997
 7446TIP3    H122302   2.010   2.467   3.347 -0.4335 -0.1896  1.4831
 7446TIP3    H222303   2.127   2.466   3.252 -1.7394 -0.5693 -0.1589
 7447TIP3   OH222304   3.864   3.876   2.044  0.4859  0.0105 -0.6650
 7447TIP3    H122305   3.929   3.843   2.106 -0.8867 -1.2096  0.2164
 7447TIP3    H222306   3.830   3.956   2.085  0.1438 -0.3631 -0.2019
 7448TIP3   OH222307   2.161   0.153   0.167 -0.8563  0.2303 -0.7699
 7448TIP3    H122308   2.219   0.094   0.119  1.4416  0.9569  0.9206
 7448TIP3    H222309   2.176   0.131   0.259 -0.3946  2.9519 -0.1203
 7449TIP3   OH222310   6.549   5.643   1.492 -0.1528 -0.0007  0.0396
 7449TIP3    H122311   6.565   5.726   1.538 -1.6248 -0.1548  0.8796
 7449TIP3    H222312   6.494   5.666   1.418  1.8825  0.1822 -1.4969
 7450TIP3   OH222313   2.536   0.121   5.354  0.2985  0.5954 -0.1369
 7450TIP3    H122314   2.608   0.066   5.323  0.9837  1.9071 -0.9926
 7450TIP3    H222315   2.516   0.087   5.441  1.5552 -0.1880 -0.1201
 7451TIP3   OH222316   3.663   5.519   2.435 -0.0757  0.5810 -0.2930
 7451TIP3    H122317   3.634   5.609   2.425 -0.9159  0.3367 -0.1816
 7451TIP3    H222318   3.724   5.521   2.508  0.9380  1.2679 -1.1270
 7452TIP3   OH222319   5.183   2.547   4.551 -0.8686 -0.0597 -0.3264
 7452TIP3    H122320   5.212   2.593   4.630 -0.3308  2.8122 -2.0505
 7452TIP3    H222321   5.152   2.616   4.493 -3.9507 -2.3009 -1.6366
 7453TIP3   OH222322   5.619   1.136   1.796 -0.5812  0.6251 -0.3503
 7453TIP3    H122323   5.621   1.046   1.829 -0.9535  0.4563 -0.7721
 7453TIP3    H222324   5.692   1.180   1.840 -0.7205  0.2565  0.2554
 7454TIP3   OH222325   3.873   0.997   5.753  0.0973 -0.0187  0.4445
 7454TIP3    H122326   3.837   1.053   5.684 -1.5253 -1.9259 -0.3649
 7454TIP3    H222327   3.880   1.054   5.829  0.9233  1.8920 -0.9649
 7455TIP3   OH222328   2.373   5.685   4.775  0.1065 -0.1114 -0.3767
 7455TIP3    H122329   2.444   5.663   4.835  0.4720 -0.0568 -0.7860
 7455TIP3    H222330   2.295   5.645   4.815  0.2269  0.4489  0.4550
 7456TIP3   OH222331   6.987   0.608   4.146 -0.6268  0.7543 -0.0413
 7456TIP3    H122332   6.965   0.591   4.054 -0.0616  2.4438 -0.5197
 7456TIP3    H222333   6.907   0.644   4.183 -0.1239  2.5338 -0.5843
 7457TIP3   OH222334   6.078   0.876   4.815  0.5519  0.3043 -0.0677
 7457TIP3    H122335   6.110   0.857   4.903  0.6392  1.0976  0.0763
 7457TIP3    H222336   6.014   0.807   4.797  3.0647 -2.0282 -0.7803
 7458TIP3   OH222337   4.233   4.926   4.281  0.3126  0.3991 -0.0735
 7458TIP3    H122338   4.223   4.838   4.245  1.9805 -0.3936  1.2718
 7458TIP3    H222339   4.146   4.966   4.271 -0.4619 -1.3691 -0.7573
 7459TIP3   OH222340   3.258   4.505   4.345  0.5360  0.1838 -0.5694
 7459TIP3    H122341   3.262   4.584   4.292  0.0225  1.5070  1.2494
 7459TIP3    H222342   3.175   4.511   4.392  2.0862  0.5381  2.3877
 7460TIP3   OH222343   4.819   3.928   1.776 -0.1635 -0.0166 -0.5970
 7460TIP3    H122344   4.743   3.986   1.777  0.2272  0.5507  1.7920
 7460TIP3    H222345   4.888   3.981   1.735  0.0252  1.0538  1.0083
 7461TIP3   OH222346   6.982   4.192   1.698 -0.4478  0.4549  0.2288
 7461TIP3    H122347   6.953   4.158   1.614  0.0527  3.0396 -1.0847
 7461TIP3    H222348   7.075   4.211   1.686 -0.2067  0.2623  1.5900
 7462TIP3   OH222349   6.995   1.620   3.472 -0.1753  0.3265 -0.1480
 7462TIP3    H122350   6.900   1.612   3.463 -0.3115  0.6403  0.9341
 7462TIP3    H222351   7.021   1.670   3.394 -0.9674  0.7065 -0.1877
 7463TIP3   OH222352   0.533   4.984   1.452  0.1492  0.4889  0.6230
 7463TIP3    H122353   0.552   4.894   1.480  0.2585  0.5975  0.9017
 7463TIP3    H222354   0.511   4.976   1.359  0.2023  0.1793  0.6357
 7464TIP3   OH222355   6.132   3.328   5.415 -0.8282 -0.2395  0.2377
 7464TIP3    H122356   6.119   3.239   5.446  0.6974  0.4624  3.1926
 7464TIP3    H222357   6.052   3.374   5.440 -2.1713 -0.9449 -2.4176
 7465TIP3   OH222358   2.960   5.739   1.326  0.2178  0.1238 -0.2277
 7465TIP3    H122359   2.919   5.696   1.251 -1.7674 -0.4668  1.1133
 7465TIP3    H222360   3.026   5.676   1.356  1.0541  0.3765 -1.4428
 7466TIP3   OH222361   6.302   0.071   4.204 -0.3087  0.1345  0.3419
 7466TIP3    H122362   6.256  -0.000   4.249 -1.1915  0.0848 -0.5928
 7466TIP3    H222363   6.375   0.092   4.262 -0.5325 -0.9363  1.0630
 7467TIP3   OH222364   4.897   5.663   3.252 -0.2159 -0.1745  0.4463
 7467TIP3    H122365   4.839   5.714   3.196 -0.8490 -0.7867  0.5292
 7467TIP3    H222366   4.916   5.720   3.326  0.2986  0.4899 -0.1833
 7468TIP3   OH222367   3.143   2.892   4.058  0.5921  0.5725 -0.8652
 7468TIP3    H122368   3.179   2.803   4.055  0.9957  0.7264 -0.7757
 7468TIP3    H222369   3.055   2.881   4.092  0.1395  0.0662 -2.1363
 7469TIP3   OH222370   1.972   1.966   0.699  0.4626  0.1010  0.3159
 7469TIP3    H122371   1.883   1.947   0.671 -0.0864 -0.3984  2.2336
 7469TIP3    H222372   2.002   2.035   0.640 -1.6314  1.1381  0.3828
 7470TIP3   OH222373   2.833   3.715   1.206  0.0004 -0.3016 -0.2216
 7470TIP3    H122374   2.789   3.784   1.157  1.9883  0.1666 -1.4461
 7470TIP3    H222375   2.790   3.716   1.292 -1.2141  1.2238 -0.7901
 7471TIP3   OH222376   4.159   1.978   2.357 -0.4207 -0.3136 -0.2600
 7471TIP3    H122377   4.094   1.920   2.398 -1.7653  2.3702  1.7527
 7471TIP3    H222378   4.240   1.961   2.405 -0.3959 -1.5228 -0.6974
 7472TIP3   OH222379   1.722   4.839   4.682  0.0163 -0.3155  0.0479
 7472TIP3    H122380   1.733   4.923   4.726  0.4741  0.2899 -1.1691
 7472TIP3    H222381   1.633   4.812   4.701 -0.1624  0.4981  0.3738
 7473TIP3   OH222382   6.517   2.986   4.110 -0.3636  0.1589 -0.1858
 7473TIP3    H122383   6.535   2.947   4.195  1.4197  0.2919 -0.4604
 7473TIP3    H222384   6.542   2.919   4.047  0.0345  0.7024 -0.6137
 7474TIP3   OH222385   1.199   0.236   3.534 -0.3241  0.3740  0.1821
 7474TIP3    H122386   1.198   0.273   3.623  1.3789 -0.5430  0.6282
 7474TIP3    H222387   1.290   0.210   3.520 -1.0295 -1.7389 -0.9104
 7475TIP3   OH222388   4.434   0.783   3.638  0.3464 -0.0450  0.1939
 7475TIP3    H122389   4.388   0.831   3.708 -0.0288  0.0897 -0.1437
 7475TIP3    H222390   4.440   0.846   3.566 -1.7221 -1.0324 -0.9199
 7476TIP3   OH222391   3.973   5.067   3.209  0.0438 -0.3758  0.2275
 7476TIP3    H122392   4.012   5.144   3.250 -0.1122 -0.2620  0.1669
 7476TIP3    H222393   3.994   5.076   3.116 -0.8605  0.1459  0.0577
 7477TIP3   OH222394   4.243   2.959   5.244  0.0571 -0.1332 -0.5310
 7477TIP3    H122395   4.258   2.998   5.330 -0.3186 -0.1158 -0.4695
 7477TIP3    H222396   4.311   2.892   5.236  1.1603  1.0171 -0.9561
 7478TIP3   OH222397   2.416   3.064   5.645 -0.1760  0.3149  0.0429
 7478TIP3    H122398   2.369   3.128   5.592 -0.4980  1.7190  1.9225
 7478TIP3    H222399   2.355   2.990   5.652 -0.7448  0.7442 -0.2769
 7479TIP3   OH222400   5.164   6.098   0.653 -0.3734 -0.1838  0.3531
 7479TIP3    H122401   5.095   6.120   0.716 -2.0427 -0.3104 -1.3587
 7479TIP3    H222402   5.118   6.064   0.577  1.5555  0.1360 -1.0431
 7480TIP3   OH222403   6.680   5.082   0.316  0.2976  0.2553 -0.1455
 7480TIP3    H122404   6.708   5.031   0.392 -2.3891  1.4177  1.7688
 7480TIP3    H222405   6.762   5.116   0.279  1.7110  0.5429  2.9178
 7481TIP3   OH222406   5.935   3.267   5.700  0.2164  0.6594  0.1286
 7481TIP3    H122407   5.855   3.290   5.654  0.4743  1.3285  0.0085
 7481TIP3    H222408   5.934   3.171   5.704 -1.4120  0.6782  1.6060
 7482TIP3   OH222409   3.129   4.241   3.015  0.0168 -0.0829  0.2725
 7482TIP3    H122410   3.196   4.309   3.016  2.4913 -2.3445  0.2850
 7482TIP3    H222411   3.073   4.261   3.090  2.9868 -0.1175  2.7022
 7483TIP3   OH222412   0.019   4.024   3.309  0.4566  0.1524 -1.0067
 7483TIP3    H122413  -0.015   3.935   3.309 -0.2768  0.4320 -1.1409
 7483TIP3    H222414   0.114   4.013   3.299  0.6976 -0.7357  1.4358
 7484TIP3   OH222415   3.548   1.733   1.808  0.3988 -0.3748 -0.3229
 7484TIP3    H122416   3.559   1.638   1.820  0.6479 -0.2011  1.0072
 7484TIP3    H222417   3.492   1.741   1.731 -0.3556 -1.6384  0.0642
 7485TIP3   OH222418   3.106   4.488   0.164 -0.1615 -0.2822 -0.0486
 7485TIP3    H122419   3.035   4.459   0.108  0.2129 -0.4679 -0.4316
 7485TIP3    H222420   3.159   4.546   0.109 -1.0438  1.3857  0.7706
 7486TIP3   OH222421   3.943   0.393   4.065  0.5786 -0.7400  0.6166
 7486TIP3    H122422   3.882   0.321   4.081 -1.3691  0.5891 -0.4374
 7486TIP3    H222423   3.952   0.397   3.970  2.3450 -0.8753  0.7434
 7487TIP3   OH222424   2.819   5.110   2.719 -0.3309 -0.2854  0.2534
 7487TIP3    H122425   2.796   5.122   2.812  0.1276 -2.7528  0.7688
 7487TIP3    H222426   2.898   5.162   2.707 -1.6328  1.8746  0.6062
 7488TIP3   OH222427   0.633   2.850   2.486  0.2047 -0.1154 -0.2105
 7488TIP3    H122428   0.715   2.897   2.497 -0.8621  1.3021  2.6068
 7488TIP3    H222429   0.653   2.760   2.510  1.1922 -0.0937 -0.8801
 7489TIP3   OH222430   0.290   1.562   3.416 -0.5954 -0.5276 -0.1381
 7489TIP3    H122431   0.274   1.586   3.325 -2.0534  1.2045  0.5178
 7489TIP3    H222432   0.367   1.611   3.442 -0.8273 -0.1617 -0.1365
 7490TIP3   OH222433   6.166   5.648  -0.020 -0.4982  0.0120 -0.1334
 7490TIP3    H122434   6.195   5.739  -0.015 -1.9272  0.4759  0.3570
 7490TIP3    H222435   6.193   5.610   0.064  0.3056 -0.0875 -0.4329
 7491TIP3   OH222436   4.597   2.560   0.379 -0.5442  0.9067 -0.2028
 7491TIP3    H122437   4.640   2.478   0.403 -1.9277  0.1880 -0.0787
 7491TIP3    H222438   4.509   2.553   0.416 -1.2277  1.7415 -1.5658
 7492TIP3   OH222439   6.492   3.210   4.375  0.1452  0.1641  0.0401
 7492TIP3    H122440   6.475   3.242   4.287  0.1115  1.1466  0.3991
 7492TIP3    H222441   6.504   3.288   4.428 -0.8637 -0.3726  1.1260
 7493TIP3   OH222442   5.899   0.116   1.079  0.1733  0.0440 -0.4051
 7493TIP3    H122443   5.992   0.135   1.092  0.0862  0.0998  0.1297
 7493TIP3    H222444   5.863   0.108   1.167 -0.5566  1.1098 -0.5959
 7494TIP3   OH222445   1.994   0.527   3.187  0.8422 -0.0647  0.2130
 7494TIP3    H122446   2.062   0.557   3.126 -0.5500 -0.7457 -1.7902
 7494TIP3    H222447   1.926   0.594   3.181  1.2653  0.5953  2.1808
 7495TIP3   OH222448   6.390   6.810   2.775  0.4479  0.3321  0.0316
 7495TIP3    H122449   6.355   6.735   2.824  0.4810  0.1267 -0.2573
 7495TIP3    H222450   6.353   6.800   2.687  1.4266 -0.0280 -0.3512
 7496TIP3   OH222451   6.984   0.393   4.906 -0.3435 -0.4129 -0.0819
 7496TIP3    H122452   6.920   0.441   4.957  0.1555 -0.0585  0.2142
 7496TIP3    H222453   7.059   0.452   4.898  0.5823 -1.3868  0.9219
 7497TIP3   OH222454   3.219   1.014   3.843 -0.0209  0.2359 -0.0875
 7497TIP3    H122455   3.167   0.972   3.775  1.7730 -1.8485 -0.2877
 7497TIP3    H222456   3.289   1.059   3.796 -0.3523  1.1775  0.2838
 7498TIP3   OH222457   1.846   3.830   4.959 -0.6807 -0.1905  0.5558
 7498TIP3    H122458   1.914   3.871   5.013 -0.5556 -0.5419  0.6670
 7498TIP3    H222459   1.778   3.804   5.021  0.1759 -2.0534  0.7742
 7499TIP3   OH222460   3.730   5.623   5.784  0.1847  0.5080 -0.0149
 7499TIP3    H122461   3.757   5.596   5.696  0.7130  1.3675 -0.1276
 7499TIP3    H222462   3.680   5.549   5.817  1.5451 -0.5770 -0.3268
 7500TIP3   OH222463   5.923   4.441   0.971 -0.1257 -0.7010 -0.7703
 7500TIP3    H122464   5.906   4.352   0.939 -0.8672 -0.3956 -1.2392
 7500TIP3    H222465   5.863   4.451   1.045 -2.2986  0.4666 -2.5749
 7501TIP3   OH222466   3.540   3.502   1.298 -0.0308  0.4680 -0.2533
 7501TIP3    H122467   3.619   3.500   1.244  0.0131  0.0340 -0.1777
 7501TIP3    H222468   3.501   3.416   1.287  0.6055 -0.0458  1.3178
 7502TIP3   OH222469   5.165   4.106   0.862 -0.3670 -0.2415  0.6820
 7502TIP3    H122470   5.258   4.124   0.854 -0.6137  0.6494 -0.5129
 7502TIP3    H222471   5.143   4.057   0.783 -0.8419 -0.7938  1.1484
 7503TIP3   OH222472   0.996   5.750   2.384  0.2618  0.3242  0.0018
 7503TIP3    H122473   1.055   5.775   2.313  0.4563 -0.6918 -0.2064
 7503TIP3    H222474   0.910   5.745   2.343  0.4834 -0.9777 -0.3564
 7504TIP3   OH222475   3.049   0.911   0.338 -0.1388 -0.5107  0.0316
 7504TIP3    H122476   3.056   0.901   0.243  1.8073 -0.9740  0.1842
 7504TIP3    H222477   2.955   0.901   0.356 -0.6607  0.4341 -1.9129
 7505TIP3   OH222478   5.642   0.263   3.273 -0.0192  0.0391 -0.3858
 7505TIP3    H122479   5.560   0.292   3.233  0.4062  0.4758 -0.9445
 7505TIP3    H222480   5.685   0.343   3.302 -0.3703 -0.2746  1.0712
 7506TIP3   OH222481   0.275   5.791   4.265 -0.6890 -0.1355 -0.2616
 7506TIP3    H122482   0.184   5.787   4.293 -0.7679 -0.4607 -0.5484
 7506TIP3    H222483   0.285   5.877   4.225 -1.3027 -0.6802 -1.6400
 7507TIP3   OH222484   1.328   4.043   0.925 -0.0999  0.0843 -0.1029
 7507TIP3    H122485   1.378   3.967   0.955 -0.4628 -0.2558 -0.3462
 7507TIP3    H222486   1.390   4.095   0.874 -0.2050 -0.7647 -1.1254
 7508TIP3   OH222487   3.951   2.477   5.800  0.6240 -0.5143 -0.0315
 7508TIP3    H122488   3.942   2.573   5.806  0.8754 -0.5324  0.8996
 7508TIP3    H222489   4.004   2.463   5.722 -1.1064 -0.0201 -1.3652
 7509TIP3   OH222490   3.186   3.316   2.762 -0.0548 -0.9040  0.0965
 7509TIP3    H122491   3.122   3.359   2.819  0.9980  1.0588 -0.0889
 7509TIP3    H222492   3.138   3.300   2.681 -0.4973  0.0064  0.1575
 7510TIP3   OH222493   0.901   4.756   1.174  0.5583  0.1208 -0.3177
 7510TIP3    H122494   0.939   4.789   1.092  1.8832 -0.1471  0.1546
 7510TIP3    H222495   0.906   4.831   1.233 -0.2235  0.2594 -0.4240
 7511TIP3   OH222496   3.329   4.003   2.049 -0.2287 -0.3579 -0.7575
 7511TIP3    H122497   3.301   4.046   2.131  0.2742  1.5505 -1.5388
 7511TIP3    H222498   3.307   3.911   2.063 -1.8146  0.1782  0.8326
 7512TIP3   OH222499   5.330   0.155   0.056 -0.0205  0.1067 -0.1746
 7512TIP3    H122500   5.294   0.243   0.066 -0.6800 -0.2508  0.7870
 7512TIP3    H222501   5.425   0.167   0.059 -0.1158  0.7057  0.8087
 7513TIP3   OH222502   3.996   0.140   2.243  0.0174 -0.7716  0.6659
 7513TIP3    H122503   3.912   0.148   2.288  0.0392  0.5900  0.5116
 7513TIP3    H222504   3.983   0.069   2.180 -1.7069  0.7071 -0.7801
 7514TIP3   OH222505   1.171   3.653   5.461  0.6224  0.2103  0.7053
 7514TIP3    H122506   1.185   3.706   5.383 -0.5742  2.0229  1.6756
 7514TIP3    H222507   1.077   3.639   5.464  0.5882  0.6015  2.0829
 7515TIP3   OH222508   2.883   2.694   1.580 -0.0609 -0.0817 -0.0457
 7515TIP3    H122509   2.945   2.763   1.559 -1.3395  0.5598 -2.0702
 7515TIP3    H222510   2.900   2.625   1.515 -1.6970  0.3238 -0.9910
 7516TIP3   OH222511   5.234   3.827   5.492  0.0192  0.0538  0.2282
 7516TIP3    H122512   5.325   3.798   5.493  0.2320  0.5806  2.9440
 7516TIP3    H222513   5.213   3.842   5.584 -2.6271  0.5730 -0.3999
 7517TIP3   OH222514   4.006   4.040   4.775  0.2647 -0.3725 -0.2295
 7517TIP3    H122515   3.982   4.104   4.842 -0.3565 -0.1907 -0.6170
 7517TIP3    H222516   3.984   4.083   4.692 -0.4251 -1.1863 -0.4830
 7518TIP3   OH222517   0.061   4.584   1.407 -0.3440 -0.3405  0.2901
 7518TIP3    H122518   0.035   4.673   1.431  2.1334  0.7951 -0.9102
 7518TIP3    H222519   0.075   4.540   1.491  3.8491  2.2171  1.2466
 7519TIP3   OH222520   3.139   1.477   4.667 -0.2196  0.0527 -0.0222
 7519TIP3    H122521   3.111   1.409   4.729 -2.3496 -0.3034 -1.2795
 7519TIP3    H222522   3.220   1.442   4.629  0.1030 -0.5806  1.1728
 7520TIP3   OH222523   1.962   1.806   0.934  0.3242 -0.6211 -0.1592
 7520TIP3    H122524   1.938   1.857   0.856  1.8031  0.7129  0.2111
 7520TIP3    H222525   2.057   1.798   0.929  0.6064  0.5632  2.1051
 7521TIP3   OH222526   0.271   1.767   5.361  0.1256 -0.0719  0.0868
 7521TIP3    H122527   0.274   1.746   5.454  0.1180  1.4092  0.4432
 7521TIP3    H222528   0.268   1.862   5.358 -0.6547 -0.1160 -1.4184
 7522TIP3   OH222529   5.108   4.370   5.624  0.3650 -0.2427 -0.4415
 7522TIP3    H122530   5.055   4.376   5.703  0.7163 -0.0628 -0.2184
 7522TIP3    H222531   5.092   4.281   5.591 -0.7449  0.1028 -0.8516
 7523TIP3   OH222532   5.943   5.418   4.070  0.4806 -0.5917 -0.0973
 7523TIP3    H122533   6.001   5.489   4.043  0.7316 -0.7681 -0.0237
 7523TIP3    H222534   5.864   5.462   4.101  0.3269 -0.3745 -0.7869
 7524TIP3   OH222535   2.277   1.092   4.505  0.3344  0.4308 -0.0912
 7524TIP3    H122536   2.240   1.060   4.423 -1.0739 -1.0238  1.0671
 7524TIP3    H222537   2.204   1.095   4.566  1.7097 -0.5230  1.7060
 7525TIP3   OH222538   4.665   3.433   0.709 -0.0431 -0.0539 -0.2630
 7525TIP3    H122539   4.718   3.386   0.645  0.8905 -0.4172  0.7457
 7525TIP3    H222540   4.722   3.444   0.785 -0.3402  2.4006 -0.3042
 7526TIP3   OH222541   4.727   4.296   2.837  0.2454 -0.3893 -0.1725
 7526TIP3    H122542   4.761   4.211   2.810 -0.2639 -0.8309  0.5365
 7526TIP3    H222543   4.801   4.338   2.881  1.0390  0.2837 -2.0330
 7527TIP3   OH222544   4.482   1.792   3.746  0.0560 -0.2817  0.4044
 7527TIP3    H122545   4.466   1.872   3.796  0.5599 -1.3180  2.3269
 7527TIP3    H222546   4.463   1.816   3.655 -0.5771  1.7796  1.0300
 7528TIP3   OH222547   2.513   1.327   0.172 -0.2189 -0.2804  0.1249
 7528TIP3    H122548   2.595   1.371   0.151 -0.2881 -0.2306 -0.0415
 7528TIP3    H222549   2.445   1.387   0.143 -0.3963  1.1956  3.1637
 7529TIP3   OH222550   4.042   0.821   2.839  0.2491 -0.0558 -0.6147
 7529TIP3    H122551   4.048   0.795   2.931 -1.1255 -0.0073 -0.4953
 7529TIP3    H222552   3.962   0.780   2.807  0.2795  0.5840 -1.5750
 7530TIP3   OH222553   5.749   3.280   0.972  0.6719  0.0815  0.5823
 7530TIP3    H122554   5.698   3.199   0.963 -2.2692  1.7286  1.0334
 7530TIP3    H222555   5.780   3.279   1.063 -0.7788  0.1683  1.1068
 7531TIP3   OH222556   5.929   2.110   4.094  0.1660 -0.3392 -0.4763
 7531TIP3    H122557   5.898   2.184   4.042  0.0637 -0.7032 -0.9396
 7531TIP3    H222558   5.952   2.148   4.178  2.0917  0.5875 -1.3709
 7532TIP3   OH222559   1.829   4.121   3.742  0.0612 -0.3371 -0.4326
 7532TIP3    H122560   1.887   4.127   3.817 -0.6757 -2.1897  0.3405
 7532TIP3    H222561   1.859   4.191   3.683 -0.6789  2.6680  2.4152
 7533TIP3   OH222562   0.401   4.593   1.454 -0.6167 -0.0648  0.0461
 7533TIP3    H122563   0.363   4.591   1.366 -0.9985  0.2539  0.2000
 7533TIP3    H222564   0.351   4.660   1.500 -1.1245 -0.9459  0.8259
 7534TIP3   OH222565   5.383   3.165   0.544  0.2463  0.0224 -0.3042
 7534TIP3    H122566   5.406   3.232   0.608  1.9369 -1.1399  0.3778
 7534TIP3    H222567   5.294   3.139   0.567  0.3833  0.4885  0.8005
 7535TIP3   OH222568   6.715   2.288   0.111 -0.1768  0.4232  0.5974
 7535TIP3    H122569   6.659   2.280   0.034 -0.1035 -2.1261  0.7200
 7535TIP3    H222570   6.802   2.307   0.075 -0.4406  0.8255  0.1671
 7536TIP3   OH222571   2.572   6.471   1.735  0.3136 -0.1225  0.3399
 7536TIP3    H122572   2.537   6.514   1.814 -0.8058  0.2769 -0.3557
 7536TIP3    H222573   2.524   6.389   1.729 -0.0889  0.1566 -0.2969
 7537TIP3   OH222574   1.755   0.283   3.900  0.6042  0.0757  0.6328
 7537TIP3    H122575   1.713   0.222   3.961 -0.6054  0.0249 -0.2202
 7537TIP3    H222576   1.784   0.356   3.955 -0.7831  0.2041  1.2312
 7538TIP3   OH222577   5.312   5.349   2.833 -0.2533 -0.3553  0.2991
 7538TIP3    H122578   5.239   5.331   2.774  2.0588 -2.2296 -2.2537
 7538TIP3    H222579   5.379   5.388   2.777  1.4025 -0.3869  2.1270
 7539TIP3   OH222580   6.174   4.009   3.842  0.3032 -0.1815  0.2745
 7539TIP3    H122581   6.159   3.961   3.923  1.0378 -0.9555 -0.0364
 7539TIP3    H222582   6.217   4.090   3.869  1.1402 -0.7302  0.6123
 7540TIP3   OH222583   6.789   2.904   0.397 -0.8441 -0.0646 -0.0427
 7540TIP3    H122584   6.748   2.876   0.479 -2.0263  1.9392  0.1104
 7540TIP3    H222585   6.860   2.962   0.425 -1.9007  1.4480 -0.4257
 7541TIP3   OH222586   6.115   0.647   2.420 -0.0988 -0.1123  0.5961
 7541TIP3    H122587   6.162   0.727   2.399 -1.2323  0.4450  0.1205
 7541TIP3    H222588   6.182   0.589   2.458  1.0482  0.4962 -0.4242
 7542TIP3   OH222589   1.763   2.952   1.207  0.1288 -1.0655 -0.2505
 7542TIP3    H122590   1.711   3.032   1.217  1.2919 -0.4764  1.5219
 7542TIP3    H222591   1.771   2.918   1.296  3.6410 -0.5295 -0.2238
 7543TIP3   OH222592   5.784   4.955   4.698 -0.3122  0.0706  0.3800
 7543TIP3    H122593   5.842   4.986   4.628 -1.1724  2.7920  0.7494
 7543TIP3    H222594   5.843   4.940   4.772  0.0877  2.4734  0.6524
 7544TIP3   OH222595   1.907   3.100   3.297  0.0690 -0.3134  0.2569
 7544TIP3    H122596   1.961   3.130   3.370  1.0023  0.8837 -0.8894
 7544TIP3    H222597   1.877   3.180   3.254 -1.2782 -0.9887 -0.1106
 7545TIP3   OH222598   5.005   6.430   3.705 -0.3936  0.2156  0.0934
 7545TIP3    H122599   5.003   6.496   3.774 -0.7803  0.4187 -0.1089
 7545TIP3    H222600   5.066   6.465   3.640 -0.5004  0.3126  0.0458
 7546TIP3   OH222601   1.203   0.140   0.464  0.3801  0.2752  0.7413
 7546TIP3    H122602   1.257   0.081   0.412 -0.3679  0.2781 -0.0632
 7546TIP3    H222603   1.228   0.228   0.434  0.3872  0.3003  0.8222
 7547TIP3   OH222604   5.228   1.365   0.883 -0.2928  0.2670  0.6465
 7547TIP3    H122605   5.203   1.358   0.791  0.3322  0.6235  0.4443
 7547TIP3    H222606   5.147   1.349   0.932 -0.3430 -1.3830  0.0751
 7548TIP3   OH222607   0.394   4.955   4.592  0.1215 -0.0097 -0.4675
 7548TIP3    H122608   0.414   4.978   4.683 -1.2335  0.2287 -0.2109
 7548TIP3    H222609   0.383   4.860   4.593  2.0192 -0.2650 -0.7883
 7549TIP3   OH222610   2.094   2.939   1.136 -0.5658  0.5127  0.7890
 7549TIP3    H122611   2.088   2.899   1.223  1.0221 -0.1588  0.6279
 7549TIP3    H222612   2.003   2.952   1.109 -1.1069 -0.9058  1.8119
 7550TIP3   OH222613   1.351   6.381   3.920 -0.7459  0.1053 -0.0400
 7550TIP3    H122614   1.340   6.312   3.984  0.7830 -0.3928 -0.2700
 7550TIP3    H222615   1.388   6.337   3.843 -0.9742  0.9639 -0.6620
 7551TIP3   OH222616   0.548   5.219   3.127 -0.2741  0.2208 -0.2966
 7551TIP3    H122617   0.518   5.128   3.123  1.0306 -0.2515  0.1921
 7551TIP3    H222618   0.563   5.236   3.220 -0.1533  0.8186 -0.4192
 7552TIP3   OH222619   3.292   6.026   3.296 -0.1013  0.1021  0.1278
 7552TIP3    H122620   3.357   6.096   3.297 -1.4548  1.4462 -1.3298
 7552TIP3    H222621   3.261   6.021   3.387  0.4705  0.9409  0.3790
 7553TIP3   OH222622   2.801   2.528   1.786 -0.1108  0.0182 -0.0374
 7553TIP3    H122623   2.853   2.447   1.781 -0.2821 -0.0676 -0.4489
 7553TIP3    H222624   2.826   2.577   1.708 -1.9462 -0.8074 -1.1989
 7554TIP3   OH222625   4.400   4.393   5.525 -0.1716  0.1989 -0.1322
 7554TIP3    H122626   4.385   4.412   5.617  1.0686  2.6562 -0.3443
 7554TIP3    H222627   4.447   4.469   5.492  3.0628 -2.3041 -1.8794
 7555TIP3   OH222628   5.149   4.782   0.011  0.1641 -0.4481 -0.1709
 7555TIP3    H122629   5.243   4.797   0.022  0.4537 -0.5243 -2.2512
 7555TIP3    H222630   5.108   4.855   0.057  1.2213 -0.3392  0.6484
 7556TIP3   OH222631   1.083   4.508   3.950  0.3065 -0.5122 -0.4626
 7556TIP3    H122632   1.147   4.501   3.880  0.4451  0.6873 -0.4766
 7556TIP3    H222633   1.134   4.505   4.031 -0.0320 -4.4086 -0.2178
 7557TIP3   OH222634   1.943   1.345   5.834  0.2820  0.2480  0.1142
 7557TIP3    H122635   1.876   1.398   5.792 -0.2586 -0.4288  0.0963
 7557TIP3    H222636   1.904   1.317   5.917  1.1080  1.0644  0.8086
 7558TIP3   OH222637   4.038   6.472   0.610  0.3692 -0.3169  0.7115
 7558TIP3    H122638   4.017   6.411   0.539 -1.3927  0.7060  0.2882
 7558TIP3    H222639   4.133   6.474   0.612  0.4827 -2.7269  0.4621
 7559TIP3   OH222640   6.507   0.303   2.295 -0.7055 -0.1748 -0.1432
 7559TIP3    H122641   6.572   0.248   2.339  0.9453  1.5903 -0.2309
 7559TIP3    H222642   6.544   0.318   2.207 -0.4094  2.0781  0.2957
 7560TIP3   OH222643   6.299   6.123   3.072 -0.0506 -0.0415  0.8304
 7560TIP3    H122644   6.293   6.027   3.076  0.0620 -0.1565 -0.8544
 7560TIP3    H222645   6.215   6.154   3.107 -0.5555 -0.8129  0.3357
 7561TIP3   OH222646   5.387   6.228   1.114 -0.3692  0.0072 -0.0603
 7561TIP3    H122647   5.385   6.317   1.081 -0.8282 -0.0558 -0.2084
 7561TIP3    H222648   5.480   6.207   1.122 -0.2383 -0.1096 -1.6655
 7562TIP3   OH222649   5.964   0.463   2.297  0.0821  0.1455  0.6546
 7562TIP3    H122650   5.902   0.516   2.247  1.6394 -0.9444 -2.7498
 7562TIP3    H222651   6.018   0.526   2.345 -0.2774  1.4143 -0.5651
 7563TIP3   OH222652   1.638   0.115   4.327 -0.0513 -0.6268  0.4063
 7563TIP3    H122653   1.600   0.074   4.250  1.5840 -2.7933  0.6554
 7563TIP3    H222654   1.729   0.084   4.329  0.0864 -0.2812  2.9218
 7564TIP3   OH222655   3.571   4.854   2.670 -0.4255  0.0097  0.1924
 7564TIP3    H122656   3.582   4.919   2.740  0.2844 -0.1987  0.2774
 7564TIP3    H222657   3.660   4.833   2.642 -0.6701 -0.5413 -0.1913
 7565TIP3   OH222658   5.542   2.518   1.405 -0.3109  0.0597  0.4840
 7565TIP3    H122659   5.624   2.567   1.413 -0.1587  0.3087 -1.8354
 7565TIP3    H222660   5.569   2.429   1.384 -0.6269 -0.5881  2.6745
 7566TIP3   OH222661   6.460   5.511   4.054  0.1605 -0.3541 -0.3880
 7566TIP3    H122662   6.391   5.541   4.113  0.2116 -0.2252 -0.3913
 7566TIP3    H222663   6.535   5.494   4.111 -0.0507 -1.0571 -0.3157
 7567TIP3   OH222664   0.164   1.127   2.918  0.3775 -0.5534  0.3742
 7567TIP3    H122665   0.244   1.077   2.933  0.9320  0.0952 -0.3069
 7567TIP3    H222666   0.120   1.128   3.003  1.5349 -0.1781  0.9984
 7568TIP3   OH222667   3.081   4.126   3.715 -0.4507  0.2021 -0.2627
 7568TIP3    H122668   3.152   4.109   3.777  0.5666  1.3983 -1.0605
 7568TIP3    H222669   3.056   4.040   3.683  0.3040 -0.2748  0.3991
 7569TIP3   OH222670   4.402   4.749   2.129 -0.6399 -0.1702 -0.9661
 7569TIP3    H122671   4.394   4.654   2.133 -0.1479 -0.1762  0.3423
 7569TIP3    H222672   4.483   4.765   2.081  0.2405 -0.4744  0.3596
 7570TIP3   OH222673   1.169   0.153   2.046 -0.1608 -0.6266 -0.0072
 7570TIP3    H122674   1.108   0.225   2.063 -0.3064 -0.7449 -0.0194
 7570TIP3    H222675   1.155   0.132   1.953  0.6656  0.0536 -0.2959
 7571TIP3   OH222676   0.316   0.454   0.384  0.6892  0.3912  0.4419
 7571TIP3    H122677   0.397   0.422   0.344  1.1862  0.5508  1.2974
 7571TIP3    H222678   0.327   0.437   0.478 -1.2134 -1.6989  0.3753
 7572TIP3   OH222679   0.902   3.484   1.779 -0.0549 -0.0678 -0.4446
 7572TIP3    H122680   0.994   3.508   1.789 -0.7602  2.4516  1.0961
 7572TIP3    H222681   0.871   3.538   1.707 -0.7424  0.6227  0.3423
 7573TIP3   OH222682   2.586   5.729   1.663  0.0693 -0.1071  0.0659
 7573TIP3    H122683   2.680   5.718   1.649 -0.0690 -1.7566  0.2499
 7573TIP3    H222684   2.546   5.695   1.582 -0.4227 -1.5043  0.8606
 7574TIP3   OH222685   0.172   3.788   2.647  0.1149 -0.8816  0.4219
 7574TIP3    H122686   0.159   3.693   2.651 -0.9334 -0.7461  0.3458
 7574TIP3    H222687   0.155   3.811   2.556 -0.5401 -0.5000  0.6348
 7575TIP3   OH222688   6.958   0.513   3.861 -0.3572 -0.5264 -0.0210
 7575TIP3    H122689   7.019   0.453   3.817 -1.0820 -1.2558 -0.0690
 7575TIP3    H222690   6.988   0.600   3.836  0.8931 -0.8477  0.2652
 7576TIP3   OH222691   7.133   2.439   0.158  0.3432 -0.5896 -0.0034
 7576TIP3    H122692   7.224   2.419   0.135 -0.0580 -0.5857 -1.7364
 7576TIP3    H222693   7.100   2.489   0.084 -0.9026 -0.0357  0.8872
 7577TIP3   OH222694   4.924   4.104   5.020  0.0757  0.2826  0.1546
 7577TIP3    H122695   5.005   4.140   5.055 -0.6743  1.4395  0.7612
 7577TIP3    H222696   4.857   4.132   5.082 -0.7879 -0.6703 -0.3316
 7578TIP3   OH222697   3.434   6.151   2.009 -0.0541 -0.7409 -0.3572
 7578TIP3    H122698   3.480   6.173   1.928  0.4735  0.3596  0.2179
 7578TIP3    H222699   3.470   6.066   2.034  0.1856 -0.8314 -0.9921
 7579TIP3   OH222700   1.985   4.915   0.516 -0.0342  0.0217 -0.0019
 7579TIP3    H122701   1.929   4.896   0.591  0.9298 -0.0913  0.7240
 7579TIP3    H222702   1.937   4.882   0.440 -1.0680  0.2163  0.5574
 7580TIP3   OH222703   1.711   2.530   3.896 -0.0396  0.3941  0.0221
 7580TIP3    H122704   1.707   2.534   3.801 -0.5776  1.6523  0.0624
 7580TIP3    H222705   1.645   2.465   3.920 -0.4936  0.6730 -0.4422
 7581TIP3   OH222706   5.912   1.841   4.197  0.0533  0.2067  0.1868
 7581TIP3    H122707   5.980   1.790   4.153 -0.2949  0.5376 -0.7847
 7581TIP3    H222708   5.919   1.928   4.157 -2.4691 -0.3579 -1.7213
 7582TIP3   OH222709   0.657   0.040   5.663 -0.3939  0.0049  0.4326
 7582TIP3    H122710   0.642   0.011   5.753 -1.5087 -0.7174  0.0390
 7582TIP3    H222711   0.752   0.037   5.652 -0.1104  1.4601  2.0015
 7583TIP3   OH222712   4.829   4.621   2.885  0.2095 -0.0204 -0.2542
 7583TIP3    H122713   4.857   4.530   2.894  0.0667  0.0529  1.1892
 7583TIP3    H222714   4.886   4.669   2.945 -0.4001  0.6946 -0.2352
 7584TIP3   OH222715   6.026   5.455   5.354 -0.2525 -0.0184 -0.3928
 7584TIP3    H122716   6.053   5.363   5.351 -0.8318 -0.2063 -0.1378
 7584TIP3    H222717   5.985   5.464   5.441 -1.1245  0.2052 -0.8167
 7585TIP3   OH222718   3.802   4.855   2.343  0.2376 -0.2289 -0.3925
 7585TIP3    H122719   3.710   4.840   2.322  0.3845 -0.6809 -0.7394
 7585TIP3    H222720   3.801   4.905   2.425 -0.3276  0.7599 -0.9897
 7586TIP3   OH222721   1.483   5.450   4.352  0.1769 -0.2736 -0.2503
 7586TIP3    H122722   1.506   5.360   4.377 -0.7823 -0.8134 -1.2085
 7586TIP3    H222723   1.488   5.450   4.256  1.7532  1.1655 -0.2162
 7587TIP3   OH222724   1.100   2.326   5.152  0.3495 -0.2333  0.3947
 7587TIP3    H122725   1.138   2.299   5.068  1.5381  0.3286  0.7274
 7587TIP3    H222726   1.057   2.247   5.185  1.1168 -0.8637 -0.0778
 7588TIP3   OH222727   4.495   4.211   3.057  0.0671  0.5407 -0.2874
 7588TIP3    H122728   4.516   4.226   2.965 -0.6390  1.0682 -0.3668
 7588TIP3    H222729   4.455   4.293   3.086  3.0113  1.5522  1.3133
 7589TIP3   OH222730   0.348   3.222   4.505  0.0278 -0.1078  0.1212
 7589TIP3    H122731   0.305   3.137   4.491  0.2619 -0.4027  1.0966
 7589TIP3    H222732   0.319   3.276   4.432  1.0921 -1.4963 -1.4208
 7590TIP3   OH222733   0.473   6.688   5.580  0.3634 -0.8393  0.1486
 7590TIP3    H122734   0.463   6.782   5.597 -3.9690 -0.6986 -1.8595
 7590TIP3    H222735   0.517   6.683   5.495  0.5025 -0.6241  0.2083
 7591TIP3   OH222736   0.620   1.266   3.943  0.1870 -0.0867 -0.5135
 7591TIP3    H122737   0.638   1.207   4.016 -0.9152 -1.5823 -1.3780
 7591TIP3    H222738   0.707   1.290   3.910  0.6851  0.1206  0.8769
 7592TIP3   OH222739   4.138   3.165   2.841 -0.4491 -0.0570  0.0402
 7592TIP3    H122740   4.152   3.251   2.802 -3.3740  0.8336  0.7042
 7592TIP3    H222741   4.214   3.151   2.898 -0.1274  2.2806  0.2565
 7593TIP3   OH222742   6.809   5.162   5.351 -0.7874  0.0051 -0.7988
 7593TIP3    H122743   6.807   5.079   5.399 -0.1056  0.0759 -0.6258
 7593TIP3    H222744   6.727   5.205   5.373 -1.2376 -0.7092 -1.0477
 7594TIP3   OH222745   6.957   1.245   0.333  0.1736  0.8105 -0.3629
 7594TIP3    H122746   7.026   1.309   0.315 -0.0609  1.0543 -0.3813
 7594TIP3    H222747   6.902   1.246   0.255  1.1586 -0.6949 -1.1448
 7595TIP3   OH222748   4.664   0.771   2.332  0.1070  1.0952 -0.0877
 7595TIP3    H122749   4.747   0.735   2.364 -1.9323 -3.1219  1.2850
 7595TIP3    H222750   4.642   0.840   2.395  1.6790  1.0081  0.5951
 7596TIP3   OH222751   6.967   0.200   3.245 -0.0976  0.5446  0.0809
 7596TIP3    H122752   6.937   0.268   3.305  0.4845  1.3382 -0.5120
 7596TIP3    H222753   6.924   0.220   3.162  1.0363  0.9294 -0.4302
 7597TIP3   OH222754   0.658   0.312   4.410  0.1166  0.0740 -0.1952
 7597TIP3    H122755   0.696   0.368   4.478 -3.1709  0.1272  1.7998
 7597TIP3    H222756   0.681   0.356   4.328  2.9230  0.8484  0.8861
 7598TIP3   OH222757   2.782   2.287   5.701  0.4558 -0.5168 -0.0695
 7598TIP3    H122758   2.688   2.267   5.708  0.4659 -0.3400  0.7304
 7598TIP3    H222759   2.785   2.381   5.685  0.4803 -0.6445 -0.8168
 7599TIP3   OH222760   6.786   1.818   4.189  0.3318  0.4861 -0.4498
 7599TIP3    H122761   6.864   1.800   4.242 -1.8734 -0.0286  2.9341
 7599TIP3    H222762   6.798   1.908   4.160  1.6641  0.8542  1.0694
 7600TIP3   OH222763   5.202   0.779   0.807  0.4842 -0.7021  0.6293
 7600TIP3    H122764   5.197   0.753   0.898 -1.9364 -1.8934  0.2468
 7600TIP3    H222765   5.166   0.704   0.759 -0.6549  0.8512 -1.0704
 7601TIP3   OH222766   6.524   1.958   3.622  0.5261  0.1842 -0.4194
 7601TIP3    H122767   6.512   1.931   3.713  0.8329 -0.5009 -0.5743
 7601TIP3    H222768   6.616   1.943   3.604  0.8560  1.9252 -0.3437
 7602TIP3   OH222769   2.043   0.810   1.443  0.1542  0.3880  0.3341
 7602TIP3    H122770   2.038   0.860   1.524  1.0868  1.2889 -0.1470
 7602TIP3    H222771   1.959   0.764   1.439 -1.4402  3.0774  0.0616
 7603TIP3   OH222772   6.694   0.691   1.501 -0.1580 -0.4901 -0.6482
 7603TIP3    H122773   6.720   0.783   1.503  1.5422 -0.8891  2.3059
 7603TIP3    H222774   6.774   0.644   1.477 -0.3978 -1.3040  0.0892
 7604TIP3   OH222775   1.631   2.483   0.619  0.4937  0.0586 -0.0836
 7604TIP3    H122776   1.708   2.523   0.660  2.1755 -2.4804 -0.5061
 7604TIP3    H222777   1.664   2.400   0.583 -2.3566 -0.9008 -0.7204
 7605TIP3   OH222778   1.067   0.633   0.781  0.2598  0.2394 -0.3460
 7605TIP3    H122779   0.993   0.660   0.726  1.4990  1.1575 -1.6539
 7605TIP3    H222780   1.086   0.544   0.753 -1.2096 -0.5416  1.0105
 7606TIP3   OH222781   3.568   4.141   1.224 -0.2043  0.3673  0.1297
 7606TIP3    H122782   3.495   4.161   1.282  0.2216 -0.1402  0.8525
 7606TIP3    H222783   3.606   4.061   1.260  1.5945  1.3866  0.6173
 7607TIP3   OH222784   7.148   0.924   4.099  0.2039 -0.1251 -0.4048
 7607TIP3    H122785   7.070   0.881   4.134  1.0894 -1.7016 -0.2888
 7607TIP3    H222786   7.189   0.965   4.176 -0.6332  0.9466 -0.5129
 7608TIP3   OH222787   3.073   3.405   5.291 -0.4878 -0.0623  0.2972
 7608TIP3    H122788   3.033   3.459   5.222  0.4236  1.4681  0.9021
 7608TIP3    H222789   3.029   3.433   5.371  2.5313  2.6988  1.2098
 7609TIP3   OH222790   3.392   1.478   4.272  0.1035  0.2199  0.2228
 7609TIP3    H122791   3.402   1.475   4.367  2.8707  1.3248  0.0595
 7609TIP3    H222792   3.423   1.392   4.242  1.5958  0.7050  0.2499
 7610TIP3   OH222793   7.083   0.263   3.951 -0.2053  0.2208  0.2898
 7610TIP3    H122794   7.110   0.340   4.001  0.9597  0.4794 -0.6818
 7610TIP3    H222795   7.154   0.200   3.964 -0.0531  0.1620 -0.7346
 7611TIP3   OH222796   7.122   2.798   0.060 -0.0878 -0.0334 -0.4945
 7611TIP3    H122797   7.056   2.782   0.127 -1.2554  3.6316 -0.5584
 7611TIP3    H222798   7.086   2.759  -0.020 -1.5950  0.8119 -0.2509
 7612TIP3   OH222799   3.836   4.244   4.661  0.0018  0.2577  0.1339
 7612TIP3    H122800   3.774   4.219   4.729 -0.2037  1.7952  0.5441
 7612TIP3    H222801   3.878   4.323   4.694  1.5333 -0.2275 -0.5467
 7613TIP3   OH222802   3.029   3.747   2.020 -0.0107  0.3681 -0.8749
 7613TIP3    H122803   3.000   3.747   1.929  2.0068  0.9950 -1.5726
 7613TIP3    H222804   3.114   3.704   2.019 -1.3201 -2.5891  1.2828
 7614TIP3   OH222805   0.335   3.648   0.139  0.3148 -0.4864 -0.0273
 7614TIP3    H122806   0.326   3.694   0.056 -2.8976 -1.3512 -0.2965
 7614TIP3    H222807   0.301   3.709   0.205  1.6759 -0.2750  0.5148
 7615TIP3   OH222808   6.137   5.519   1.420 -0.1806  0.1108 -0.3922
 7615TIP3    H122809   6.189   5.482   1.348  0.7628  0.9497 -0.1725
 7615TIP3    H222810   6.143   5.614   1.407 -1.7434  0.2326 -0.3885
 7616TIP3   OH222811   6.236   0.255   3.067  0.4158  0.4312  0.2245
 7616TIP3    H122812   6.180   0.185   3.100  1.0252 -0.3443 -0.3348
 7616TIP3    H222813   6.252   0.311   3.144 -1.1400  0.7165  0.3810
 7617TIP3   OH222814   4.010   3.666   5.721  0.0832 -0.0963  0.2571
 7617TIP3    H122815   4.068   3.732   5.759  0.6193 -0.4301  0.0394
 7617TIP3    H222816   3.992   3.698   5.632  3.8929 -2.2515 -1.5533
 7618TIP3   OH222817   6.245   2.856   4.774 -0.1159 -0.0590 -0.5242
 7618TIP3    H122818   6.205   2.921   4.715 -0.4509  0.8085  0.6215
 7618TIP3    H222819   6.236   2.894   4.861  1.7070 -0.6370 -0.0456
 7619TIP3   OH222820   7.016   4.139   2.646  0.1162 -0.3912 -0.7600
 7619TIP3    H122821   7.014   4.074   2.716 -2.2610  0.9713  0.5759
 7619TIP3    H222822   7.107   4.168   2.642  0.3466 -0.6143  1.7056
 7620TIP3   OH222823   1.050   2.712   0.421 -0.0576  0.4697 -0.7163
 7620TIP3    H122824   1.045   2.804   0.396  1.0797  0.6881 -0.1811
 7620TIP3    H222825   1.143   2.690   0.415 -0.4375 -0.9438 -1.8615
 7621TIP3   OH222826   1.980   1.718   1.332 -0.1999  0.3700  0.2383
 7621TIP3    H122827   1.974   1.636   1.282 -0.2406  0.2907  0.3726
 7621TIP3    H222828   1.970   1.691   1.423 -1.9267  0.7080  0.1883
 7622TIP3   OH222829   7.047   1.755   3.990  0.0315  0.0845  0.2608
 7622TIP3    H122830   7.087   1.835   3.957 -0.0335 -0.7024 -1.8590
 7622TIP3    H222831   7.105   1.726   4.061  0.9884  1.0891 -0.0907
 7623TIP3   OH222832   6.665   1.584   2.467  0.2190  0.6416  0.5394
 7623TIP3    H122833   6.731   1.608   2.532  0.9497  2.5209 -0.8201
 7623TIP3    H222834   6.715   1.563   2.388 -0.7318  0.5508 -0.0525
 7624TIP3   OH222835   1.960   5.164   3.300 -0.2027  0.3738  0.2681
 7624TIP3    H122836   1.890   5.138   3.240 -0.3534  0.7041  0.3017
 7624TIP3    H222837   2.035   5.179   3.243 -0.4717  1.1393  0.1138
 7625TIP3   OH222838   1.939   3.354   5.762  0.0633 -0.2675  0.0061
 7625TIP3    H122839   1.984   3.322   5.840  0.3207 -1.2283 -0.5210
 7625TIP3    H222840   1.903   3.275   5.721 -2.0243  0.4361  0.3542
 7626TIP3   OH222841   0.073   0.990   3.316 -0.0411  0.1689 -0.2760
 7626TIP3    H122842   0.147   0.941   3.280 -0.6554 -0.2883 -0.9534
 7626TIP3    H222843   0.010   0.994   3.244 -1.2028 -0.5442  0.6640
 7627TIP3   OH222844   4.383   2.527   0.545 -0.0255 -0.2927 -0.2516
 7627TIP3    H122845   4.324   2.495   0.477 -0.1837 -1.7872  0.5497
 7627TIP3    H222846   4.327   2.576   0.605 -0.2966 -0.9281  0.0184
 7628TIP3   OH222847   1.911   0.441   2.269 -0.4260 -0.0993  0.5191
 7628TIP3    H122848   1.970   0.502   2.314  0.8616  0.2074 -1.4266
 7628TIP3    H222849   1.830   0.490   2.258 -0.2069  0.3978  1.0463
 7629TIP3   OH222850   6.718   4.672   4.509 -0.2434  0.2276 -0.5737
 7629TIP3    H122851   6.779   4.746   4.517 -0.0937  0.0336  0.2225
 7629TIP3    H222852   6.637   4.711   4.475 -0.7187  1.0963  1.3859
 7630TIP3   OH222853   6.816   6.627   5.236 -0.2112  0.6615  0.2653
 7630TIP3    H122854   6.771   6.711   5.248  0.5166  1.4773 -2.2420
 7630TIP3    H222855   6.902   6.641   5.275 -0.3188  0.8239  0.4528
 7631TIP3   OH222856   3.299   3.652   3.908 -0.2802  0.5402  0.3462
 7631TIP3    H122857   3.275   3.566   3.876 -0.2471  0.0260  1.6399
 7631TIP3    H222858   3.354   3.689   3.839 -1.3164  0.0467 -0.7779
 7632TIP3   OH222859   1.686   0.891   1.631 -0.5180 -0.0178 -0.0118
 7632TIP3    H122860   1.608   0.940   1.658 -1.3565 -1.7653  0.9479
 7632TIP3    H222861   1.651   0.812   1.589  0.7836  0.1785 -1.5653
 7633TIP3   OH222862   2.109   4.282   3.352 -0.1701  0.3493  0.3361
 7633TIP3    H122863   2.108   4.216   3.282 -0.3356 -1.7335  2.1877
 7633TIP3    H222864   2.202   4.299   3.367 -0.1425  1.2344 -0.7269
 7634TIP3   OH222865   5.210   3.204   1.661 -0.2518 -0.0485 -0.0597
 7634TIP3    H122866   5.203   3.293   1.696 -0.0158 -0.3606  0.7939
 7634TIP3    H222867   5.283   3.165   1.709  0.4524 -0.3108 -1.2905
 7635TIP3   OH222868   1.970   5.572   4.694 -0.1288 -0.3068 -0.5570
 7635TIP3    H122869   1.885   5.532   4.713 -0.9921  1.2905 -0.8924
 7635TIP3    H222870   2.021   5.560   4.775 -0.5181 -1.5782 -0.4746
 7636TIP3   OH222871   6.421   6.413   2.230  0.4880 -0.1084 -0.6618
 7636TIP3    H122872   6.332   6.431   2.198  0.4259 -0.0742 -0.4673
 7636TIP3    H222873   6.413   6.415   2.325  0.3565 -1.7160 -0.6184
 7637TIP3   OH222874   0.182   5.332   1.862  0.5666 -0.8137  0.1783
 7637TIP3    H122875   0.227   5.348   1.780 -0.7498  1.7121 -0.1391
 7637TIP3    H222876   0.191   5.413   1.911 -2.1896 -0.7510  0.7549
 7638TIP3   OH222877   5.228   3.634   0.161 -0.3159 -0.3211  0.4186
 7638TIP3    H122878   5.216   3.615   0.254  1.5424 -0.4506  0.6635
 7638TIP3    H222879   5.205   3.727   0.153 -0.2566 -0.2497  1.0492
 7639TIP3   OH222880   6.564   6.384   1.347  0.4105 -0.3885  0.0988
 7639TIP3    H122881   6.501   6.455   1.348  1.3502  0.5253 -1.6549
 7639TIP3    H222882   6.636   6.415   1.292  1.0509 -2.5170 -0.3779
 7640TIP3   OH222883   5.326   5.548   4.012 -0.1503  0.6627  0.0644
 7640TIP3    H122884   5.411   5.591   4.024  0.2133 -0.5350  2.6173
 7640TIP3    H222885   5.348   5.456   3.997 -0.9828  0.4736 -0.0488
 7641TIP3   OH222886   1.154   4.836   0.316 -0.6187  0.8362  0.5356
 7641TIP3    H122887   1.177   4.927   0.296 -1.5708  0.9801  0.0268
 7641TIP3    H222888   1.231   4.786   0.290 -0.5898  1.3656 -0.4335
 7642TIP3   OH222889   5.234   5.396   4.288 -0.0457  0.3684 -0.1626
 7642TIP3    H122890   5.269   5.310   4.265  0.3631  0.2327  0.9168
 7642TIP3    H222891   5.311   5.449   4.306 -0.3408 -0.0665  2.7269
 7643TIP3   OH222892   6.704   2.513   0.380  0.5121  0.0642 -0.5831
 7643TIP3    H122893   6.719   2.542   0.290  2.7597 -0.0507 -0.2948
 7643TIP3    H222894   6.697   2.418   0.373 -0.1233  0.1173 -0.7212
 7644TIP3   OH222895   3.956   2.573   3.274 -0.0707 -0.3475 -0.3944
 7644TIP3    H122896   3.901   2.643   3.309  0.4324 -0.3072  0.3354
 7644TIP3    H222897   3.929   2.495   3.322  0.2679 -0.3943 -0.2811
 7645TIP3   OH222898   2.215   3.110   4.317 -0.1367 -0.0510 -0.1307
 7645TIP3    H122899   2.180   3.152   4.237  0.7468 -0.6213 -0.8356
 7645TIP3    H222900   2.138   3.077   4.362 -0.8725  2.2419  0.4155
 7646TIP3   OH222901   6.606   5.843   5.409  0.2514 -0.3321  0.1523
 7646TIP3    H122902   6.548   5.788   5.356 -0.0245  0.3982 -0.3129
 7646TIP3    H222903   6.548   5.897   5.461  0.5226 -0.2010  0.3237
 7647TIP3   OH222904   0.363   3.021   2.791  1.0197 -0.7004  0.4812
 7647TIP3    H122905   0.451   3.051   2.769  0.0459  0.4453 -2.3172
 7647TIP3    H222906   0.358   2.933   2.754  0.3098  0.1317 -1.5426
 7648TIP3   OH222907   6.891   5.145   4.708  0.4398  0.3593  0.3969
 7648TIP3    H122908   6.933   5.175   4.789  0.2560 -1.2291  1.1266
 7648TIP3    H222909   6.815   5.096   4.737  1.8384 -2.6127 -0.5053
 7649TIP3   OH222910   3.969   3.284   0.269  0.6536  0.0069  0.3006
 7649TIP3    H122911   3.956   3.223   0.196  0.8296 -1.7010  1.6082
 7649TIP3    H222912   3.983   3.369   0.228  0.9253 -0.9234 -1.6469
 7650TIP3   OH222913   2.533   0.519   2.019 -0.2215  0.0759  0.0181
 7650TIP3    H122914   2.522   0.435   2.062  2.6114  0.0878  0.9340
 7650TIP3    H222915   2.566   0.577   2.087 -1.3723  1.7766 -0.7883
 7651TIP3   OH222916   7.051   4.904   4.758  0.1398 -0.3287 -0.0357
 7651TIP3    H122917   6.974   4.946   4.719 -0.1783 -1.0905 -0.2564
 7651TIP3    H222918   7.125   4.954   4.726 -0.2847  0.6402  0.4583
 7652TIP3   OH222919   5.640   4.098   4.128  0.0470 -0.1441 -0.5312
 7652TIP3    H122920   5.546   4.083   4.123 -0.0512  0.4589 -0.5378
 7652TIP3    H222921   5.649   4.183   4.171  0.5401  0.3989 -1.6562
 7653TIP3   OH222922   1.148   5.877   3.005  0.2445  0.4304  0.0245
 7653TIP3    H122923   1.124   5.854   3.095 -0.9384  0.9758 -0.1354
 7653TIP3    H222924   1.065   5.890   2.960  0.8317  1.9986 -0.6671
 7654TIP3   OH222925   5.393   5.059   0.226 -0.2881  0.2596  0.1209
 7654TIP3    H122926   5.395   4.991   0.159 -0.1160 -0.5107  0.8879
 7654TIP3    H222927   5.478   5.051   0.270  0.3868  1.9965 -0.7521
 7655TIP3   OH222928   5.638   5.129   3.580 -0.7643  0.2820  0.1188
 7655TIP3    H122929   5.702   5.173   3.524 -1.0242 -1.5681 -1.7564
 7655TIP3    H222930   5.555   5.172   3.558 -0.7181  0.2023 -0.2243
 7656TIP3   OH222931   6.789   5.818   0.504  0.6332 -0.6045  0.1253
 7656TIP3    H122932   6.721   5.773   0.454  1.4264 -3.0156  1.0699
 7656TIP3    H222933   6.758   5.815   0.595  0.9337  0.3742  0.2760
 7657TIP3   OH222934   6.657   3.422   3.379 -0.3416 -0.0375  0.1177
 7657TIP3    H122935   6.590   3.355   3.365 -0.5826 -0.1336  1.5910
 7657TIP3    H222936   6.716   3.384   3.444 -0.8588  1.4159  1.5041
 7658TIP3   OH222937   2.610   4.294   3.088  0.2428  0.3683  0.4639
 7658TIP3    H122938   2.610   4.383   3.054 -1.6907  0.2980  0.1355
 7658TIP3    H222939   2.567   4.301   3.174 -0.5853 -0.3129  0.1279
 7659TIP3   OH222940   5.274   3.062   3.889  0.5415  0.0222 -0.3824
 7659TIP3    H122941   5.200   3.021   3.934 -0.3973 -0.4858 -2.2856
 7659TIP3    H222942   5.288   3.144   3.937 -1.7444  0.4939 -0.3954
 7660TIP3   OH222943   0.819   1.340   1.321 -0.3409  0.3106  0.4098
 7660TIP3    H122944   0.750   1.315   1.383  1.2180  0.7124  2.4027
 7660TIP3    H222945   0.895   1.360   1.376  1.0082  1.1186 -1.6280
 7661TIP3   OH222946   5.060   0.262   2.504  0.1212  0.2247 -0.0625
 7661TIP3    H122947   5.110   0.304   2.574 -1.2938  3.4253 -0.8057
 7661TIP3    H222948   4.970   0.260   2.537 -0.2275 -0.1020 -1.0169
 7662TIP3   OH222949   2.594   3.448   2.693 -0.3162 -0.2078  0.4867
 7662TIP3    H122950   2.552   3.363   2.706  0.9625 -0.8200  0.8055
 7662TIP3    H222951   2.521   3.510   2.685 -1.2630 -1.1389  1.5006
 7663TIP3   OH222952   6.334   4.105   0.161  0.0697  0.4993  0.1069
 7663TIP3    H122953   6.312   4.177   0.221  0.8244 -0.9814  2.2723
 7663TIP3    H222954   6.414   4.067   0.198  0.7423 -0.3029 -2.0524
 7664TIP3   OH222955   3.299   3.076   0.525  0.3459 -0.1706 -0.1278
 7664TIP3    H122956   3.382   3.030   0.538  0.3229  0.1465  1.3398
 7664TIP3    H222957   3.303   3.151   0.585  0.2699  1.6274 -2.2514
 7665TIP3   OH222958   5.172   2.486   0.503  0.3663  0.4044  0.1428
 7665TIP3    H122959   5.197   2.463   0.592  0.7715  0.4978  0.0586
 7665TIP3    H222960   5.244   2.452   0.449  0.3235  0.7050 -0.1077
 7666TIP3   OH222961   5.745   1.563   5.664  0.1374 -0.1207  0.0069
 7666TIP3    H122962   5.718   1.558   5.573  0.8864 -2.6453 -0.1581
 7666TIP3    H222963   5.806   1.637   5.668  0.5898 -0.3715 -1.6848
 7667TIP3   OH222964   1.264   1.189   4.414 -0.2700 -0.0824  0.0587
 7667TIP3    H122965   1.191   1.246   4.438 -0.1841 -0.4561  1.2628
 7667TIP3    H222966   1.238   1.151   4.330 -0.3052  1.7382 -0.8109
 7668TIP3   OH222967   5.560   6.568   4.097 -0.3088 -0.3918 -0.7462
 7668TIP3    H122968   5.486   6.608   4.143  0.1860  0.4242 -0.6340
 7668TIP3    H222969   5.636   6.592   4.149  0.2295  0.2858 -1.8042
 7669TIP3   OH222970   2.915   5.138   1.097 -0.2251  0.1594  0.2961
 7669TIP3    H122971   2.856   5.210   1.118  0.8940  1.1610  0.0848
 7669TIP3    H222972   2.859   5.073   1.055 -0.9586  1.6175 -1.0759
 7670TIP3   OH222973   1.590   1.648   3.721 -0.3048 -0.9211 -0.1620
 7670TIP3    H122974   1.621   1.721   3.774  0.6066  1.2007 -3.3087
 7670TIP3    H222975   1.668   1.597   3.701 -0.2832 -0.5833 -0.9872
 7671TIP3   OH222976   0.408   3.326   3.121  0.4326  0.2102  0.1611
 7671TIP3    H122977   0.460   3.246   3.130 -0.3325 -0.3064  0.0833
 7671TIP3    H222978   0.331   3.299   3.070 -1.6474  0.1069  3.0573
 7672TIP3   OH222979   0.740   1.697   2.943 -0.1063  0.3444 -0.5234
 7672TIP3    H122980   0.660   1.661   2.984  0.6919 -0.7583  0.1172
 7672TIP3    H222981   0.797   1.621   2.932  1.2383  1.2569 -0.0814
 7673TIP3   OH222982   0.717   4.453   0.547 -0.5457 -0.1053  0.3429
 7673TIP3    H122983   0.709   4.541   0.586  2.0512  0.1816  0.3931
 7673TIP3    H222984   0.807   4.449   0.515 -0.6672 -2.6943  0.1167
 7674TIP3   OH222985   4.309   0.539   3.692  0.1640  0.7182  0.0030
 7674TIP3    H122986   4.336   0.623   3.654  2.4156 -0.5365 -1.3822
 7674TIP3    H222987   4.380   0.478   3.670 -2.1481 -1.9892 -0.5499
 7675TIP3   OH222988   1.016   0.387   1.174 -0.0642 -0.5677 -0.2433
 7675TIP3    H122989   0.988   0.380   1.083  0.2526  0.0259 -0.3939
 7675TIP3    H222990   1.053   0.475   1.181 -0.8386 -0.2926  0.6717
 7676TIP3   OH222991   0.836   6.152   4.508  0.2259  0.2512  0.3986
 7676TIP3    H122992   0.785   6.071   4.511 -0.3253  0.6327  2.0576
 7676TIP3    H222993   0.925   6.126   4.531 -0.0933  0.2157  1.6166
 7677TIP3   OH222994   1.580   0.911   2.686 -0.0820 -0.0672 -0.1518
 7677TIP3    H122995   1.545   0.826   2.713  1.1958 -0.8147 -0.7810
 7677TIP3    H222996   1.520   0.940   2.618 -0.7473 -0.2651  0.3276
 7678TIP3   OH222997   0.033   1.709   2.202  0.1598  0.0851  0.0690
 7678TIP3    H122998   0.040   1.665   2.118  0.6605 -0.9001  0.6034
 7678TIP3    H222999   0.121   1.702   2.241 -0.3993 -0.7554  1.2635
 7679TIP3   OH223000   0.959   5.571   1.821 -0.0557 -0.2461  0.6065
 7679TIP3    H123001   1.024   5.510   1.787  0.9057  1.1903 -0.2351
 7679TIP3    H223002   0.934   5.624   1.745 -2.5241 -0.9724  0.7980
 7680TIP3   OH223003   4.123   2.415   5.290  0.1901 -0.2995  0.6726
 7680TIP3    H123004   4.164   2.469   5.222 -0.1902  0.2957  0.8999
 7680TIP3    H223005   4.157   2.327   5.276 -1.1585 -0.5754 -1.3808
 7681TIP3   OH223006   6.689   3.058   0.948  0.1816  0.2155  0.4451
 7681TIP3    H123007   6.599   3.085   0.932  0.4217  0.5037 -0.4747
 7681TIP3    H223008   6.734   3.139   0.973  0.0739 -0.0235  1.4481
 7682TIP3   OH223009   6.835   3.737   0.406 -0.2182  0.2029  0.4653
 7682TIP3    H123010   6.912   3.725   0.462 -1.2791 -0.5522  1.8287
 7682TIP3    H223011   6.812   3.829   0.417 -1.2879 -0.2451  2.5407
 7683TIP3   OH223012   5.563   2.030   2.955 -0.1907  0.1733 -0.2665
 7683TIP3    H123013   5.630   2.034   2.887 -0.5747  1.3197 -0.5932
 7683TIP3    H223014   5.568   2.114   3.001 -0.9039 -0.0131  0.1900
 7684TIP3   OH223015   1.515   1.631   2.523 -0.2685  0.3697  0.1521
 7684TIP3    H123016   1.526   1.536   2.513  0.4818  0.4274  0.3923
 7684TIP3    H223017   1.516   1.645   2.618 -1.8485  0.4603  0.1812
 7685TIP3   OH223018   0.480   4.718   0.340 -0.1710 -0.1738 -0.0200
 7685TIP3    H123019   0.551   4.766   0.298  0.2301  0.2751  1.1413
 7685TIP3    H223020   0.416   4.703   0.269  0.7023  0.1081 -0.8901
 7686TIP3   OH223021   3.471   3.757   0.623  0.2474  0.3349  0.0797
 7686TIP3    H123022   3.526   3.819   0.670 -0.7527  1.6042 -0.3747
 7686TIP3    H223023   3.385   3.763   0.666 -0.2257  0.2692 -0.8200
 7687TIP3   OH223024   3.934   4.133   5.108  1.0035 -0.1243 -0.2325
 7687TIP3    H123025   4.028   4.148   5.095  1.2570 -0.0474  1.4081
 7687TIP3    H223026   3.898   4.220   5.124  1.1771 -0.3844  1.8942
 7688TIP3   OH223027   0.244   0.299   0.926 -0.5886  0.1542  0.0430
 7688TIP3    H123028   0.170   0.299   0.987 -1.1949  1.6381 -0.6475
 7688TIP3    H223029   0.239   0.215   0.882 -1.8358  0.2070  0.0486
 7689TIP3   OH223030   4.607   5.109   4.007 -0.0995  0.3097 -0.3514
 7689TIP3    H123031   4.625   5.033   3.951  1.5084  0.0677  0.4199
 7689TIP3    H223032   4.561   5.073   4.083 -0.4130  0.2987 -0.5473
 7690TIP3   OH223033   4.134   0.372   5.551  0.2027  0.7251  0.0046
 7690TIP3    H123034   4.203   0.401   5.609 -0.0877 -0.0481  0.7693
 7690TIP3    H223035   4.113   0.448   5.497  0.9319  1.2583  0.4644
 7691TIP3   OH223036   2.694   2.388   4.250 -0.1883  0.0896  0.0683
 7691TIP3    H123037   2.652   2.405   4.166 -1.6447 -0.8586  0.5730
 7691TIP3    H223038   2.774   2.440   4.248 -0.2513  0.1654 -1.8544
 7692TIP3   OH223039   5.253   0.347   2.329 -0.1440 -0.5412  0.1453
 7692TIP3    H123040   5.186   0.351   2.398 -0.8162  1.1419 -0.5369
 7692TIP3    H223041   5.204   0.336   2.248  0.3950  0.6025 -0.3582
 7693TIP3   OH223042   1.822   1.074   3.974  0.5171 -0.2790 -0.2361
 7693TIP3    H123043   1.793   1.011   3.909  1.6301  1.1397 -2.2084
 7693TIP3    H223044   1.746   1.088   4.030 -0.6512 -1.1679 -1.5446
 7694TIP3   OH223045   2.653   4.900   2.713  0.1636  0.0484  0.5960
 7694TIP3    H123046   2.574   4.941   2.748 -0.3853  0.4611 -1.0640
 7694TIP3    H223047   2.714   4.972   2.701 -0.6650  0.4387 -1.9467
 7695TIP3   OH223048   0.574   2.130   4.450  0.1864 -0.8029 -0.1280
 7695TIP3    H123049   0.536   2.047   4.481 -0.1730 -0.8556 -0.7063
 7695TIP3    H223050   0.499   2.187   4.434  0.3229 -0.9608 -1.4196
 7696TIP3   OH223051   3.359   2.690   0.250  0.3881  0.2579 -0.0361
 7696TIP3    H123052   3.438   2.742   0.234 -0.3565  1.9593  1.4519
 7696TIP3    H223053   3.377   2.605   0.210  2.9387  0.6167  0.2099
 7697TIP3   OH223054   4.109   1.633   2.258  0.1835  0.1109  0.1841
 7697TIP3    H123055   4.097   1.716   2.304 -0.5034 -0.1043  0.4084
 7697TIP3    H223056   4.053   1.571   2.305  0.5557 -0.4396 -0.0869
 7698TIP3   OH223057   4.030   6.425   2.511  0.1349 -0.0927 -0.0155
 7698TIP3    H123058   4.121   6.450   2.496  0.4272 -0.2157  1.4332
 7698TIP3    H223059   4.034   6.330   2.524 -0.3274 -0.2229 -0.7425
 7699TIP3   OH223060   5.767   2.859   3.202  0.9507  0.1651 -0.4163
 7699TIP3    H123061   5.823   2.789   3.236  0.6174  0.6650  1.2715
 7699TIP3    H223062   5.810   2.939   3.230  0.7973  0.6259 -1.4633
 7700TIP3   OH223063   5.589   3.682   2.954 -0.3671 -0.4777 -0.8083
 7700TIP3    H123064   5.636   3.755   2.914 -1.5377  1.0766  0.5223
 7700TIP3    H223065   5.656   3.633   3.000  0.2988  0.3570 -0.8593
 7701TIP3   OH223066   4.668   3.627   2.097  0.2393  0.0439 -0.0835
 7701TIP3    H123067   4.702   3.705   2.141  1.7450  0.5994 -2.0958
 7701TIP3    H223068   4.595   3.659   2.044  0.0475 -0.1539  0.0592
 7702TIP3   OH223069   0.157   2.934   0.139  0.4592  0.1001 -0.3689
 7702TIP3    H123070   0.086   2.870   0.132  0.3395  0.2106 -0.1876
 7702TIP3    H223071   0.134   2.987   0.215  1.1423 -0.3516  0.1611
 7703TIP3   OH223072   3.054   1.429   5.644  0.6826 -0.0583  0.0480
 7703TIP3    H123073   3.084   1.422   5.553  0.6241 -1.4537  0.1194
 7703TIP3    H223074   2.969   1.385   5.645  0.3197  0.6357  0.6227
 7704TIP3   OH223075   5.827   1.761   1.685  0.0065  0.3725 -0.0528
 7704TIP3    H123076   5.807   1.855   1.675  0.1853  0.3955 -0.2157
 7704TIP3    H223077   5.846   1.750   1.778 -0.8964  0.3219  0.1264
 7705TIP3   OH223078   1.020   5.146   3.746 -0.4539 -0.2788  0.2946
 7705TIP3    H123079   1.074   5.083   3.795 -0.7807 -1.0380 -0.3018
 7705TIP3    H223080   0.932   5.107   3.747 -1.3039  1.5038  2.2808
 7706TIP3   OH223081   1.250   3.319   0.247 -0.0432 -0.1348 -0.0815
 7706TIP3    H123082   1.327   3.343   0.195  0.8506 -1.0856  0.7628
 7706TIP3    H223083   1.234   3.227   0.225 -2.1992  0.5653 -1.7703
 7707TIP3   OH223084   5.544   0.197   1.812 -0.1251  0.2002  0.3040
 7707TIP3    H123085   5.500   0.185   1.728  0.8183  3.3455 -0.7846
 7707TIP3    H223086   5.567   0.109   1.840 -1.3259 -1.0286 -2.2576
 7708TIP3   OH223087   3.300   4.502   0.719  0.4245  0.4414 -0.1051
 7708TIP3    H123088   3.337   4.514   0.631  0.5938  2.0451  0.1623
 7708TIP3    H223089   3.364   4.540   0.778 -0.7683  1.5813  0.5069
 7709TIP3   OH223090   3.465   5.994   4.506  0.8486 -0.1486 -0.1232
 7709TIP3    H123091   3.447   6.079   4.546  1.8855 -0.8554  1.9700
 7709TIP3    H223092   3.386   5.975   4.454 -1.3235  0.1819  2.7793
 7710TIP3   OH223093   4.199   4.029   5.214  0.2369  0.0130  0.4095
 7710TIP3    H123094   4.178   4.042   5.307  0.1585 -0.7938  0.5103
 7710TIP3    H223095   4.290   4.057   5.206  0.0343  0.7507  0.5782
 7711TIP3   OH223096   6.790   4.509   0.493  0.5262  0.5339  0.2588
 7711TIP3    H123097   6.849   4.570   0.449  0.5420  0.1120 -0.3050
 7711TIP3    H223098   6.796   4.428   0.443  1.4671 -0.3669  1.7406
 7712TIP3   OH223099   1.007   0.605   0.421  1.3215 -0.4110 -0.1204
 7712TIP3    H123100   0.978   0.591   0.331  0.9347  2.7635 -0.6350
 7712TIP3    H223101   1.091   0.651   0.412  0.8593  0.7513  1.0644
 7713TIP3   OH223102   2.216   5.548   1.517 -0.0140 -0.5698  0.3799
 7713TIP3    H123103   2.308   5.550   1.491  0.2261 -0.2195  1.2248
 7713TIP3    H223104   2.201   5.633   1.560 -1.4604  0.5857 -2.1229
 7714TIP3   OH223105   2.603   6.342   3.946 -0.3114 -0.2290 -0.2489
 7714TIP3    H123106   2.577   6.377   4.031 -1.2558  2.3395 -1.4984
 7714TIP3    H223107   2.534   6.371   3.885  2.3396  1.6305 -2.6264
 7715TIP3   OH223108   3.094   1.091   3.328  0.7432  0.2780 -0.0435
 7715TIP3    H123109   3.137   1.013   3.364  1.5010 -0.2764 -2.0068
 7715TIP3    H223110   3.063   1.139   3.405  1.8765 -1.0321  1.3010
 7716TIP3   OH223111   5.416   1.089   1.038 -0.2986 -0.0368  0.0549
 7716TIP3    H123112   5.495   1.138   1.016 -0.5080 -0.4479 -1.8347
 7716TIP3    H223113   5.352   1.156   1.060 -0.3269  0.5320 -1.6204
 7717TIP3   OH223114   3.851   6.647   3.340  0.4103 -0.3673 -0.3717
 7717TIP3    H123115   3.892   6.709   3.400  1.3694  1.5940 -2.8672
 7717TIP3    H223116   3.923   6.589   3.312  0.3052 -0.2933 -0.7922
 7718TIP3   OH223117   4.388   6.367   4.726  0.6533  0.2612  0.0106
 7718TIP3    H123118   4.309   6.417   4.706  1.2084  0.1766 -2.8066
 7718TIP3    H223119   4.445   6.430   4.770  0.0417  1.1451 -0.4250
 7719TIP3   OH223120   4.493   4.980   1.250  0.0546  0.2739 -0.3193
 7719TIP3    H123121   4.469   5.033   1.173 -1.5142 -0.9798 -0.7500
 7719TIP3    H223122   4.412   4.975   1.301  0.3226 -1.2313 -0.0106
 7720TIP3   OH223123   0.753   5.407   5.786 -0.1089 -0.2001  0.8121
 7720TIP3    H123124   0.743   5.324   5.832  2.2569 -1.0499 -0.0582
 7720TIP3    H223125   0.763   5.383   5.694 -2.3390  1.3090  0.0740
 7721TIP3   OH223126   7.047   0.665   3.400 -0.5895  0.3647  0.0059
 7721TIP3    H123127   7.111   0.697   3.463 -0.3332  1.0654 -0.5860
 7721TIP3    H223128   7.079   0.697   3.315 -1.3627  0.1593 -0.3747
 7722TIP3   OH223129   4.908   1.051   1.871 -0.3211 -0.3197  0.0044
 7722TIP3    H123130   4.829   1.060   1.925 -0.8899 -2.6467 -0.3373
 7722TIP3    H223131   4.906   0.960   1.841  2.1907 -0.2548 -0.5314
 7723TIP3   OH223132   5.448   3.409   3.700  0.4209  0.3870  0.0955
 7723TIP3    H123133   5.431   3.473   3.631  2.0072  0.3601 -0.3810
 7723TIP3    H223134   5.441   3.324   3.657 -2.6397  0.1046  0.9417
 7724TIP3   OH223135   5.665   0.495   2.555 -0.1299 -0.0244  0.1118
 7724TIP3    H123136   5.753   0.473   2.588 -0.5535 -2.8943 -0.4906
 7724TIP3    H223137   5.678   0.578   2.508  2.3294 -0.5265 -0.2408
 7725TIP3   OH223138   5.406   2.806   4.929 -0.3121  0.0365 -0.0079
 7725TIP3    H123139   5.445   2.741   4.987 -0.1502 -0.2166 -0.4042
 7725TIP3    H223140   5.359   2.865   4.989 -0.0681 -0.1671  0.3904
 7726TIP3   OH223141   2.680   2.365   2.491 -0.3238 -0.3061 -0.6405
 7726TIP3    H123142   2.603   2.317   2.522 -1.5529  2.2881  0.6843
 7726TIP3    H223143   2.752   2.303   2.502 -1.7937 -1.9013  0.8287
 7727TIP3   OH223144   7.211   6.305   2.786  0.7192 -0.2102 -0.5047
 7727TIP3    H123145   7.144   6.254   2.741  0.0136  1.1540 -1.0723
 7727TIP3    H223146   7.161   6.369   2.838  1.5410  1.5804 -1.8050
 7728TIP3   OH223147   1.324   4.507   4.712 -0.1224 -1.2956  0.1243
 7728TIP3    H123148   1.276   4.499   4.630 -0.7136 -1.7067  0.5024
 7728TIP3    H223149   1.260   4.484   4.779  0.7476 -2.3858  0.6030
 7729TIP3   OH223150   4.001   6.249   3.322  0.3424  0.1493 -0.0954
 7729TIP3    H123151   4.060   6.173   3.322  1.4537  0.9851  0.4477
 7729TIP3    H223152   4.035   6.305   3.391 -1.8640  0.1017  1.1097
 7730TIP3   OH223153   1.488   3.531   3.247  0.6842  0.0749 -0.1231
 7730TIP3    H123154   1.403   3.533   3.203  0.8969 -1.2053 -0.6391
 7730TIP3    H223155   1.551   3.516   3.178  1.3526  1.0285  0.2602
 7731TIP3   OH223156   6.027   2.297   3.828 -0.1637 -0.0692  0.5089
 7731TIP3    H123157   6.012   2.351   3.751 -1.2590 -0.4805  0.4202
 7731TIP3    H223158   6.022   2.358   3.901  1.4699  0.4293  0.2519
 7732TIP3   OH223159   5.308   5.580   1.294  0.2954 -0.0410  0.2085
 7732TIP3    H123160   5.250   5.522   1.245  0.7334  0.6778 -1.2227
 7732TIP3    H223161   5.252   5.617   1.362 -0.6798 -0.0976 -0.5364
 7733TIP3   OH223162   5.040   1.127   4.068 -0.4112  0.2027 -0.4422
 7733TIP3    H123163   5.080   1.211   4.087  1.3518 -0.6981  0.0514
 7733TIP3    H223164   5.063   1.072   4.143  0.2369 -1.2706 -1.6576
 7734TIP3   OH223165   5.193   5.326   5.146 -0.2769  0.4446  0.0714
 7734TIP3    H123166   5.277   5.361   5.116 -0.5575 -0.6488 -2.2418
 7734TIP3    H223167   5.141   5.319   5.066 -1.3295 -2.1834  0.8778
 7735TIP3   OH223168   3.069   0.693   4.342  0.4928  0.2722 -0.3542
 7735TIP3    H123169   2.990   0.747   4.330 -0.7148 -0.8932  1.8012
 7735TIP3    H223170   3.044   0.630   4.409  3.0399 -0.6599 -0.2174
 7736TIP3   OH223171   3.425   3.054   2.682  0.3847 -0.5379 -0.0134
 7736TIP3    H123172   3.504   3.043   2.628  0.8769  0.3899  0.4863
 7736TIP3    H223173   3.423   3.148   2.702 -1.1000 -0.4704 -0.3846
 7737TIP3   OH223174   1.207   5.254   3.132  0.2356 -0.5834 -0.7411
 7737TIP3    H123175   1.146   5.327   3.130 -0.5905 -1.2425 -0.1661
 7737TIP3    H223176   1.292   5.294   3.112 -0.0808  0.6516  0.2280
 7738TIP3   OH223177   4.979   6.805   1.972  0.3699  0.2892  0.4106
 7738TIP3    H123178   4.947   6.728   2.018  1.6879 -0.3340  0.3473
 7738TIP3    H223179   5.066   6.820   2.009  1.1911  0.1739 -1.3789
 7739TIP3   OH223180   0.183   0.386   5.083 -0.3179 -0.7014  0.0682
 7739TIP3    H123181   0.140   0.469   5.105 -0.4049 -0.4923 -0.8346
 7739TIP3    H223182   0.226   0.359   5.164  1.8049  1.4981 -0.2223
 7740TIP3   OH223183   0.968   6.466   2.258  0.1593  0.4930  0.3296
 7740TIP3    H123184   0.885   6.461   2.305  0.5761 -0.2560  1.0062
 7740TIP3    H223185   0.969   6.389   2.201  1.2352 -0.6327  1.7895
 7741TIP3   OH223186   2.679   1.709   4.611  0.5723  0.3101  0.0500
 7741TIP3    H123187   2.645   1.688   4.524  0.5946  1.1848 -0.1780
 7741TIP3    H223188   2.769   1.676   4.611 -0.4908 -2.9864  1.0167
 7742TIP3   OH223189   2.335   0.745   5.507 -0.0432  0.0877  0.4698
 7742TIP3    H123190   2.247   0.749   5.543 -0.1040 -3.9704  1.2174
 7742TIP3    H223191   2.331   0.676   5.440  2.5589 -0.3742  0.6761
 7743TIP3   OH223192   0.905   1.966   1.898 -0.0734  0.0977 -0.2384
 7743TIP3    H123193   0.858   1.907   1.838 -1.0113  0.5754  0.0139
 7743TIP3    H223194   0.844   1.979   1.971  1.0288 -0.4191  0.8035
 7744TIP3   OH223195   5.806   5.540   1.204 -0.0490  0.2107  0.5221
 7744TIP3    H123196   5.843   5.608   1.260 -0.1290 -0.5411  1.5015
 7744TIP3    H223197   5.803   5.580   1.117 -1.9083  2.1604  1.3925
 7745TIP3   OH223198   6.221   0.940   2.900  0.0956 -0.3633  0.0103
 7745TIP3    H123199   6.201   0.990   2.820 -3.9487 -2.4086 -0.5619
 7745TIP3    H223200   6.273   0.865   2.870  1.5907  0.6511 -0.0237
 7746TIP3   OH223201   5.916   2.848   4.797  0.2919  0.2654 -0.0597
 7746TIP3    H123202   5.822   2.846   4.779  0.3951 -0.2758 -0.5645
 7746TIP3    H223203   5.958   2.853   4.711  0.7540 -1.0206  0.0604
 7747TIP3   OH223204   1.209   0.249   1.386  0.1622  0.0347  0.6544
 7747TIP3    H123205   1.239   0.289   1.467 -0.3853  2.0008 -0.0653
 7747TIP3    H223206   1.148   0.313   1.348 -0.6155 -1.4064 -0.6564
 7748TIP3   OH223207   3.419   4.309   1.771 -0.1293 -0.1179 -0.6055
 7748TIP3    H123208   3.366   4.229   1.765 -1.9893  1.0650 -0.9340
 7748TIP3    H223209   3.406   4.340   1.861  1.1460 -0.5220 -0.2637
 7749TIP3   OH223210   7.124   3.389   5.657  0.3005  0.3503  0.3616
 7749TIP3    H123211   7.135   3.319   5.721 -0.2629  0.1393  0.2354
 7749TIP3    H223212   7.113   3.344   5.573  2.4815  0.6442 -0.1501
 7750TIP3   OH223213   3.977   5.214   4.509  0.2452 -0.3627 -0.0459
 7750TIP3    H123214   3.958   5.239   4.599 -0.4118  0.5116 -0.4188
 7750TIP3    H223215   3.960   5.292   4.458  1.2257 -0.6601 -0.8692
 7751TIP3   OH223216   5.132   3.743   3.748  0.2657  0.1180 -0.2057
 7751TIP3    H123217   5.117   3.732   3.654 -0.4981 -2.4414  0.1531
 7751TIP3    H223218   5.158   3.657   3.779 -0.7275  0.5806  2.1524
 7752TIP3   OH223219   1.032   4.987   5.336  0.7067  0.2510 -0.2764
 7752TIP3    H123220   0.967   5.000   5.405  1.6605 -0.4637  0.7853
 7752TIP3    H223221   1.100   4.933   5.376  1.6469  0.4293 -1.5561
 7753TIP3   OH223222   3.713   0.590   1.079 -0.3853  0.2424  0.5770
 7753TIP3    H123223   3.641   0.622   1.025 -1.3468  1.2799  2.3914
 7753TIP3    H223224   3.777   0.662   1.079 -0.0392 -0.0565  0.2385
 7754TIP3   OH223225   2.582   5.298   4.444 -0.1711 -0.6303  0.3919
 7754TIP3    H123226   2.640   5.228   4.414  0.3690 -0.4046  0.8945
 7754TIP3    H223227   2.592   5.299   4.539  1.5523  1.5839  0.2559
 7755TIP3   OH223228   2.652   0.659   4.118 -0.9113 -0.1853 -0.1777
 7755TIP3    H123229   2.654   0.752   4.141 -3.9557  0.0846 -0.6233
 7755TIP3    H223230   2.626   0.614   4.198 -0.2181 -0.6056 -0.1722
 7756TIP3   OH223231   7.139   5.755   4.824 -0.0719  0.1147 -0.4084
 7756TIP3    H123232   7.104   5.761   4.913 -0.4020 -1.0710 -0.4319
 7756TIP3    H223233   7.222   5.802   4.828 -1.2437  2.3103 -0.1527
 7757TIP3   OH223234   0.278   4.433   3.663  0.4770  0.3293 -0.0301
 7757TIP3    H123235   0.219   4.509   3.665 -0.3915 -0.3273  1.4233
 7757TIP3    H223236   0.294   4.413   3.756  3.2612  0.6482 -0.3475
 7758TIP3   OH223237   3.933   2.697   5.616  0.1677 -0.7723 -0.0724
 7758TIP3    H123238   4.021   2.675   5.583  0.1700 -1.3486  0.3004
 7758TIP3    H223239   3.880   2.619   5.596 -0.7697  0.2825 -2.0532
 7759TIP3   OH223240   6.460   3.424   0.076  0.0111  0.5430  0.0957
 7759TIP3    H123241   6.484   3.502   0.126 -0.3261  0.0796  1.0132
 7759TIP3    H223242   6.376   3.446   0.037  0.2889  0.9219 -0.2911
 7760TIP3   OH223243   6.976   4.565   4.526 -1.0178 -0.0198 -0.0937
 7760TIP3    H123244   6.884   4.575   4.502 -0.8605  0.8489 -0.3698
 7760TIP3    H223245   6.975   4.566   4.622 -1.3890 -0.9942 -0.0771
 7761TIP3   OH223246   4.219   4.319   3.265 -0.1041 -0.2933  0.1860
 7761TIP3    H123247   4.166   4.269   3.203 -0.0067 -0.0679 -0.0808
 7761TIP3    H223248   4.188   4.409   3.255  3.3487  0.7330 -3.2877
 7762TIP3   OH223249   3.267   2.958   1.535  0.4077 -0.0857  0.1857
 7762TIP3    H123250   3.328   2.899   1.578 -0.9920 -1.0763  0.8996
 7762TIP3    H223251   3.294   2.958   1.443  1.4422 -0.5040  0.4806
 7763TIP3   OH223252   1.222   6.014   5.241  0.0746  0.3409 -0.2649
 7763TIP3    H123253   1.200   6.099   5.278 -1.0263 -0.0313 -0.0383
 7763TIP3    H223254   1.181   5.951   5.300  1.8793 -0.4134  0.2500
 7764TIP3   OH223255   1.412   3.595   2.143  0.4635 -0.0856  0.8222
 7764TIP3    H123256   1.327   3.557   2.121  0.9274 -1.4184  1.2318
 7764TIP3    H223257   1.406   3.614   2.237  0.4198  0.3922  0.7271
 7765TIP3   OH223258   1.368   6.190   1.113 -0.0940 -0.1279 -0.2876
 7765TIP3    H123259   1.443   6.242   1.142 -0.4557 -0.3628  1.1645
 7765TIP3    H223260   1.324   6.246   1.049 -2.0471  2.7637  3.1752
 7766TIP3   OH223261   1.098   6.072   4.482 -0.1030 -0.2724  0.2660
 7766TIP3    H123262   1.066   6.087   4.393  0.3864 -2.0281 -0.2422
 7766TIP3    H223263   1.180   6.121   4.487  1.2258 -2.2168 -1.1747
 7767TIP3   OH223264   4.419   0.679   2.091 -0.4418 -0.2857  0.3387
 7767TIP3    H123265   4.348   0.621   2.061 -1.9804  1.0006  1.3262
 7767TIP3    H223266   4.387   0.716   2.173  0.2789  2.2548 -0.4304
 7768TIP3   OH223267   5.067   3.202   4.635  0.7229 -0.4834  0.5080
 7768TIP3    H123268   5.120   3.170   4.562  0.9518 -3.3886  1.8116
 7768TIP3    H223269   5.023   3.279   4.600  0.2470 -2.1235 -2.9782
 7769TIP3   OH223270   0.367   4.659   4.533 -0.4425  0.1503  0.4119
 7769TIP3    H123271   0.355   4.619   4.619 -0.6157  0.4541  0.5310
 7769TIP3    H223272   0.289   4.635   4.483 -0.6045  0.4358  0.5235
 7770TIP3   OH223273   6.515   6.351   3.213  0.1343 -0.0051 -0.3087
 7770TIP3    H123274   6.516   6.316   3.302  0.3486  0.0350 -0.2961
 7770TIP3    H223275   6.482   6.279   3.160  1.8262 -0.6961 -0.4808
 7771TIP3   OH223276   2.958   5.118   2.464  0.0682  0.2812  0.5143
 7771TIP3    H123277   2.911   5.064   2.528 -1.0853 -0.6250 -1.0153
 7771TIP3    H223278   2.921   5.206   2.475 -3.7718 -0.7515 -2.0014
 7772TIP3   OH223279   0.761   2.465   5.091  0.6491  0.0873  0.7163
 7772TIP3    H123280   0.840   2.411   5.096  0.0340 -1.0373 -0.6889
 7772TIP3    H223281   0.793   2.555   5.081  1.7747 -0.3804 -0.0915
 7773TIP3   OH223282   6.130   4.970   3.114 -0.1240 -0.3342 -0.0525
 7773TIP3    H123283   6.071   4.961   3.189 -0.6702  1.4203 -0.2261
 7773TIP3    H223284   6.099   4.904   3.051 -2.6970  1.2470 -0.6067
 7774TIP3   OH223285   0.431   3.219   5.470 -0.1102  0.6494  0.0853
 7774TIP3    H123286   0.438   3.291   5.532  0.9194  1.0638 -0.4778
 7774TIP3    H223287   0.436   3.261   5.384  1.6747 -0.1585 -0.2481
 7775TIP3   OH223288   3.847   6.027   3.695 -0.0193 -0.0634 -0.2542
 7775TIP3    H123289   3.767   5.983   3.666 -0.8561  1.2146 -0.0113
 7775TIP3    H223290   3.857   6.101   3.634  2.9033 -2.0426 -2.4260
 7776TIP3   OH223291   6.493   3.711   0.943 -0.4858 -0.8053  0.2056
 7776TIP3    H123292   6.530   3.761   1.016 -0.1961 -1.4621  0.5108
 7776TIP3    H223293   6.399   3.706   0.962 -0.4220 -0.9106  0.4927
 7777TIP3   OH223294   6.861   5.043   1.569 -0.0690  0.2733 -0.7466
 7777TIP3    H123295   6.836   5.072   1.481 -1.1963  1.4738 -0.0631
 7777TIP3    H223296   6.921   5.110   1.600  0.7677 -0.4359 -0.7791
 7778TIP3   OH223297   6.373   5.515   4.519  0.3271  0.5193 -0.0592
 7778TIP3    H123298   6.425   5.592   4.495  0.0306  1.1422  1.1799
 7778TIP3    H223299   6.344   5.534   4.608 -3.6582  1.0752 -1.2933
 7779TIP3   OH223300   0.059   0.906   5.065  0.0066 -0.3868 -0.1575
 7779TIP3    H123301   0.139   0.857   5.044  0.2736 -1.1910  2.3578
 7779TIP3    H223302   0.026   0.936   4.980  2.2209 -1.2048 -1.3920
 7780TIP3   OH223303   6.857   0.744   0.843 -0.1837 -0.0122 -0.1284
 7780TIP3    H123304   6.898   0.658   0.838  0.3172  0.2723 -1.5013
 7780TIP3    H223305   6.925   0.805   0.815  0.7103  1.3471  4.2800
 7781TIP3   OH223306   3.013   1.522   3.635 -0.2351  0.2212  0.2440
 7781TIP3    H123307   3.002   1.427   3.642  0.0670  0.2781  1.9852
 7781TIP3    H223308   3.095   1.533   3.587 -0.1529 -0.4060  0.2311
 7782TIP3   OH223309   3.186   5.033   5.240 -0.3227  0.2295 -0.7835
 7782TIP3    H123310   3.113   4.991   5.284 -0.0681 -2.0983 -2.4296
 7782TIP3    H223311   3.158   5.125   5.230 -2.0267 -0.0870  0.5709
 7783TIP3   OH223312   0.656   4.886   3.962  0.4782 -0.0839 -0.5276
 7783TIP3    H123313   0.589   4.826   3.929  0.5824 -0.9083  0.7042
 7783TIP3    H223314   0.725   4.828   3.996  0.5439  0.7240  0.7709
 7784TIP3   OH223315   4.221   2.429   4.415 -0.4143  0.5371 -0.0563
 7784TIP3    H123316   4.129   2.428   4.442 -0.9487  0.9362 -1.7386
 7784TIP3    H223317   4.267   2.384   4.485 -2.0494 -0.6758  0.2920
 7785TIP3   OH223318   1.218   5.774   5.096 -0.4998  0.0807 -0.2149
 7785TIP3    H123319   1.255   5.862   5.093  1.1903 -0.5309  1.1225
 7785TIP3    H223320   1.130   5.786   5.130 -0.7809  1.3789 -1.3470
 7786TIP3   OH223321   6.790   1.754   3.932 -0.7558 -0.4356  0.6640
 7786TIP3    H123322   6.765   1.736   4.023 -0.6763  2.4378  1.3354
 7786TIP3    H223323   6.885   1.760   3.934 -0.8418  2.9087  1.2308
 7787TIP3   OH223324   2.372   5.562   5.623  0.5089 -0.7139 -0.3391
 7787TIP3    H123325   2.402   5.641   5.578 -2.8910  1.4563  0.7965
 7787TIP3    H223326   2.311   5.521   5.561  0.2905 -0.9755  0.0424
 7788TIP3   OH223327   3.509   0.609   1.891 -0.6349  0.4064 -0.4194
 7788TIP3    H123328   3.416   0.598   1.871 -0.3209 -0.2482 -1.6366
 7788TIP3    H223329   3.511   0.633   1.984 -1.8727 -2.5318  0.4782
 7789TIP3   OH223330   3.611   5.601   4.760 -0.5331 -0.4847 -0.8621
 7789TIP3    H123331   3.636   5.555   4.680  0.7555  0.6454 -1.1599
 7789TIP3    H223332   3.687   5.656   4.780 -0.6849 -1.0025  1.3546
 7790TIP3   OH223333   4.424   3.286   3.691 -0.2674  0.1020  0.7534
 7790TIP3    H123334   4.426   3.217   3.625 -0.3351  0.1991  0.6502
 7790TIP3    H223335   4.516   3.295   3.719 -0.1863  0.2920  0.4329
 7791TIP3   OH223336   4.835   0.510   0.601 -0.0316  0.0197  0.3930
 7791TIP3    H123337   4.805   0.439   0.544  1.0800 -0.0883 -0.0802
 7791TIP3    H223338   4.821   0.589   0.550 -1.3846  0.1697  0.9680
 7792TIP3   OH223339   3.428   6.463   5.520 -0.1678 -0.7717  0.3893
 7792TIP3    H123340   3.449   6.527   5.588 -0.1373 -0.4201  0.0568
 7792TIP3    H223341   3.494   6.395   5.529  1.8010  0.7803 -1.2682
 7793TIP3   OH223342   5.613   1.351   2.541 -0.5495  0.3807 -0.1970
 7793TIP3    H123343   5.705   1.357   2.564 -0.4070  0.0767 -0.6763
 7793TIP3    H223344   5.567   1.346   2.625  0.0137 -1.4596  0.0220
 7794TIP3   OH223345   6.279   4.086   2.273 -0.2158 -0.0324 -0.4621
 7794TIP3    H123346   6.288   4.179   2.251  0.2058  0.0014 -0.1771
 7794TIP3    H223347   6.356   4.045   2.234 -0.4331 -0.2710 -0.6378
 7795TIP3   OH223348   2.629   0.660   4.609  0.1030 -0.0210  0.0088
 7795TIP3    H123349   2.616   0.568   4.633  0.1084 -0.0517 -0.1078
 7795TIP3    H223350   2.673   0.698   4.686  1.0287 -0.3517 -0.3425
 7796TIP3   OH223351   5.636   3.472   5.815 -0.3968 -0.2776 -0.3864
 7796TIP3    H123352   5.665   3.408   5.750 -0.8348 -1.9983  1.0341
 7796TIP3    H223353   5.542   3.453   5.827 -0.3489  0.0744  0.6372
 7797TIP3   OH223354   7.003   5.698   1.077  0.0265  0.0585  0.5562
 7797TIP3    H123355   6.933   5.634   1.083 -1.7012  1.9492  1.5927
 7797TIP3    H223356   7.081   5.646   1.056 -1.9052 -1.9644 -2.4946
 7798TIP3   OH223357   2.247   1.544   5.187 -0.0571 -0.1636 -0.1643
 7798TIP3    H123358   2.268   1.566   5.096 -0.7691  1.1787 -0.0270
 7798TIP3    H223359   2.316   1.585   5.238  0.8111 -1.6058 -0.1065
 7799TIP3   OH223360   7.077   3.370   3.795  0.3945  0.1210  0.1450
 7799TIP3    H123361   7.040   3.442   3.745  1.3406 -0.5305 -1.5481
 7799TIP3    H223362   7.149   3.338   3.742  1.2665 -0.7922  1.8093
 7800TIP3   OH223363   6.514   5.218   1.485 -0.2030  0.8610 -0.9947
 7800TIP3    H123364   6.468   5.301   1.490 -1.5934  0.2646 -2.7699
 7800TIP3    H223365   6.541   5.199   1.575 -1.5286  2.2972 -0.2557
 7801TIP3   OH223366   2.843   6.153   0.984  0.4417 -0.8920  0.3486
 7801TIP3    H123367   2.798   6.237   0.983 -1.0056 -1.6129  1.8632
 7801TIP3    H223368   2.921   6.168   0.929 -1.0932  0.6658 -1.5759
 7802TIP3   OH223369   5.269   1.226   5.506 -0.5547 -0.0562 -0.5057
 7802TIP3    H123370   5.245   1.274   5.427  1.0095  0.0615 -0.9452
 7802TIP3    H223371   5.186   1.192   5.540 -1.3246  0.4206 -1.8418
 7803TIP3   OH223372   5.143   4.358   4.445 -0.2880  0.1158 -0.1253
 7803TIP3    H123373   5.232   4.327   4.459 -0.2232  0.1989 -0.3598
 7803TIP3    H223374   5.149   4.418   4.371 -0.2961  1.2052  0.7348
 7804TIP3   OH223375   6.472   4.326   0.533 -0.3816 -0.2432 -0.4047
 7804TIP3    H123376   6.539   4.356   0.472 -0.1012  0.0437  0.0456
 7804TIP3    H223377   6.511   4.336   0.619 -0.4548 -1.4486 -0.2088
 7805TIP3   OH223378   4.495   1.008   2.764  0.0804  0.7072 -0.0261
 7805TIP3    H123379   4.417   1.029   2.712  0.0705  0.1622 -0.2346
 7805TIP3    H223380   4.568   1.035   2.710  0.0942 -0.4439 -0.6144
 7806TIP3   OH223381   5.548   6.052   2.013  0.3668 -0.1632 -0.3032
 7806TIP3    H123382   5.642   6.058   2.030  0.4960 -0.3303 -0.9359
 7806TIP3    H223383   5.515   5.996   2.083  0.5403  0.8486  0.6192
 7807TIP3   OH223384   1.011   2.480   3.364 -0.2656  0.6382  0.3514
 7807TIP3    H123385   1.043   2.409   3.419  0.5376  1.2179  0.6519
 7807TIP3    H223386   1.079   2.547   3.369  0.7123  0.0611 -2.7080
 7808TIP3   OH223387   4.256   0.738   5.830 -0.3340 -0.2702  0.2408
 7808TIP3    H123388   4.273   0.827   5.860  0.1761 -0.0166 -0.7640
 7808TIP3    H223389   4.231   0.748   5.738 -2.3299 -0.9834  0.6660
 7809TIP3   OH223390   5.167   4.380   0.957 -0.3396  0.5282  0.1138
 7809TIP3    H123391   5.215   4.452   0.915  0.2256  0.3068  0.3766
 7809TIP3    H223392   5.198   4.302   0.912 -0.6336  0.4035  0.1264
 7810TIP3   OH223393   4.824   6.594   2.118 -0.8258  0.0439 -0.3181
 7810TIP3    H123394   4.873   6.578   2.199 -1.2006  0.2703 -0.0380
 7810TIP3    H223395   4.747   6.538   2.125 -0.9721  0.2312 -0.4112
 7811TIP3   OH223396   6.185   3.028   1.417 -0.2295 -0.2421  0.3766
 7811TIP3    H123397   6.166   3.091   1.346  0.7450 -0.7996 -0.4027
 7811TIP3    H223398   6.101   2.987   1.435 -0.2045 -1.4092 -1.7868
 7812TIP3   OH223399   4.733   5.394   3.502 -0.0850  0.3738  0.4155
 7812TIP3    H123400   4.701   5.307   3.477  0.0731  0.1742  0.8849
 7812TIP3    H223401   4.756   5.385   3.595  1.3874  0.4851  0.0848
 7813TIP3   OH223402   4.957   5.419   3.348 -0.2462  0.2253  0.0271
 7813TIP3    H123403   4.893   5.416   3.419 -0.5599  1.0966 -0.2123
 7813TIP3    H223404   4.944   5.504   3.307  2.1843  1.1807  1.0238
 7814TIP3   OH223405   0.763   5.953   1.919  0.0422  0.1499 -0.3449
 7814TIP3    H123406   0.717   5.986   1.842 -0.3039 -0.9271 -0.6226
 7814TIP3    H223407   0.816   5.880   1.886 -0.2590 -0.4497  0.4544
 7815TIP3   OH223408   0.107   4.023   0.621  0.4101 -0.1183  0.1712
 7815TIP3    H123409   0.116   4.014   0.527  0.7445  1.8560 -0.0362
 7815TIP3    H223410   0.037   4.089   0.632 -0.4529 -1.1755  1.3336
 7816TIP3   OH223411   7.046   3.109   0.793 -0.1300 -0.1858 -0.2830
 7816TIP3    H123412   7.075   3.149   0.875  1.1565  1.1985 -1.3614
 7816TIP3    H223413   6.961   3.149   0.775 -0.2968 -0.3041  0.2335
 7817TIP3   OH223414   0.794   1.487   2.012 -0.5406  0.3702  0.2938
 7817TIP3    H123415   0.701   1.503   2.026 -0.2086  1.2442  1.7452
 7817TIP3    H223416   0.837   1.570   2.034  0.7356 -0.6010  1.7049
 7818TIP3   OH223417   6.331   1.572   2.939  0.2447 -0.1779 -0.2753
 7818TIP3    H123418   6.267   1.632   2.901 -0.6132  0.3353  1.8535
 7818TIP3    H223419   6.345   1.605   3.028  1.1280 -2.0850  0.3471
 7819TIP3   OH223420   3.398   5.593   1.857  0.0550 -0.0767  0.1327
 7819TIP3    H123421   3.460   5.540   1.806  0.1532  0.9178 -0.8498
 7819TIP3    H223422   3.446   5.615   1.937  0.0449 -1.3506  0.5127
 7820TIP3   OH223423   4.104   3.751   4.744  0.0883  0.4677  0.1272
 7820TIP3    H123424   4.059   3.733   4.662  0.7865 -1.1718  0.0483
 7820TIP3    H223425   4.071   3.836   4.772 -2.3160 -0.2088 -0.3908
 7821TIP3   OH223426   3.507   2.689   2.201  0.2173  0.8929  0.4068
 7821TIP3    H123427   3.411   2.697   2.197  0.2374  0.7416 -0.6534
 7821TIP3    H223428   3.526   2.679   2.294 -0.9008 -0.2237  0.5412
 7822TIP3   OH223429   6.832   2.799   0.874 -0.0124 -0.5620 -0.2936
 7822TIP3    H123430   6.918   2.799   0.832 -0.1880 -0.4359 -0.6606
 7822TIP3    H223431   6.817   2.890   0.899 -0.4114 -0.4201 -1.0175
 7823TIP3   OH223432   2.013   0.314   3.774  0.7605  0.2853 -0.1102
 7823TIP3    H123433   2.035   0.390   3.828 -0.2018  1.4946 -1.3275
 7823TIP3    H223434   1.937   0.276   3.817 -0.3838  1.6027 -0.8770
 7824TIP3   OH223435   5.318   3.380   5.503 -0.2621 -0.4335 -0.5270
 7824TIP3    H123436   5.253   3.347   5.440  0.5906 -0.8816 -1.1848
 7824TIP3    H223437   5.274   3.454   5.545 -0.5966  0.3412 -2.1724
 7825TIP3   OH223438   5.367   5.176   1.658 -0.5929 -0.0615  0.3698
 7825TIP3    H123439   5.388   5.176   1.564  0.9603  0.9699  0.6720
 7825TIP3    H223440   5.300   5.109   1.668  1.5691 -2.6244 -0.9590
 7826TIP3   OH223441   1.829   0.727   4.994  0.3442  0.1259 -0.2497
 7826TIP3    H123442   1.828   0.640   4.955  0.7772 -0.3405  0.7428
 7826TIP3    H223443   1.778   0.781   4.934 -0.0102 -0.8302 -0.8281
 7827TIP3   OH223444   2.360   5.074   4.942  0.1946 -0.0951  0.8838
 7827TIP3    H123445   2.323   5.145   4.888 -2.1315 -1.1892  0.8921
 7827TIP3    H223446   2.373   5.002   4.880 -2.2214 -1.2648  1.6276
 7828TIP3   OH223447   0.104   4.692   3.687  0.3541  0.4521  0.8769
 7828TIP3    H123448   0.047   4.688   3.610  0.7067 -2.8517  0.6497
 7828TIP3    H223449   0.178   4.744   3.658 -0.1588  0.4384 -0.5811
 7829TIP3   OH223450   1.950   1.487   1.207 -0.8148  0.4519 -0.0563
 7829TIP3    H123451   2.019   1.495   1.141 -1.5847 -0.0739 -0.9441
 7829TIP3    H223452   1.957   1.396   1.238 -1.3051  0.3065 -0.3704
 7830TIP3   OH223453   3.574   1.399   2.199  1.0241  0.1331 -0.1608
 7830TIP3    H123454   3.567   1.331   2.132 -0.5143 -0.5379  0.6209
 7830TIP3    H223455   3.512   1.467   2.171  1.0772  0.2801  0.0744
 7831TIP3   OH223456   6.918   2.071   5.822 -0.3834  0.4882 -0.0439
 7831TIP3    H123457   6.950   2.121   5.747  0.1909 -1.7894 -1.4094
 7831TIP3    H223458   6.978   2.094   5.893  2.4475 -1.1978 -1.6988
 7832TIP3   OH223459   4.654   2.580   1.493 -0.3748  0.3832  0.3743
 7832TIP3    H123460   4.695   2.534   1.419  0.3460  0.0572  0.9662
 7832TIP3    H223461   4.725   2.595   1.555 -1.2407 -0.7214  1.6953
 7833TIP3   OH223462   6.705   6.073   1.752 -0.7251  0.6672 -0.3579
 7833TIP3    H123463   6.676   6.162   1.732  1.1756  1.7725  1.3954
 7833TIP3    H223464   6.658   6.049   1.832 -1.0310  0.1944 -0.6766
 7834TIP3   OH223465   2.059   4.803   1.877  0.4183  0.4431 -0.3521
 7834TIP3    H123466   2.002   4.730   1.854 -0.9325  0.7066  1.8854
 7834TIP3    H223467   2.147   4.766   1.877 -0.0609 -0.7427 -0.8430
 7835TIP3   OH223468   6.221   0.425   0.838 -0.0540 -0.2323 -0.3858
 7835TIP3    H123469   6.281   0.464   0.901  0.5893  0.0344 -1.1452
 7835TIP3    H223470   6.261   0.341   0.815  0.2370  0.1054 -1.1657
 7836TIP3   OH223471   1.549   4.284   3.167 -0.3113 -0.2667  0.7819
 7836TIP3    H123472   1.597   4.219   3.218  0.4239 -0.3651 -0.0197
 7836TIP3    H223473   1.473   4.236   3.134 -1.4394  0.0771  2.6670
 7837TIP3   OH223474   2.355   0.218   0.978  0.0665 -0.0374 -0.1943
 7837TIP3    H123475   2.262   0.219   0.958 -0.3195 -0.0030  1.4366
 7837TIP3    H223476   2.381   0.126   0.969  0.1313  0.1085 -1.6509
 7838TIP3   OH223477   3.678   3.737   5.327  0.3962  0.6323  0.1485
 7838TIP3    H123478   3.684   3.731   5.422 -0.4840 -0.3799  0.1542
 7838TIP3    H223479   3.737   3.809   5.304  0.3082  1.1652  1.4907
 7839TIP3   OH223480   2.355   4.880   3.860 -0.2849 -0.1906  0.0210
 7839TIP3    H123481   2.280   4.931   3.890  0.9071  2.5992 -1.2885
 7839TIP3    H223482   2.335   4.858   3.769 -1.1915 -3.0867  0.8228
 7840TIP3   OH223483   5.656   3.182   2.139 -0.9383  0.2244  0.2309
 7840TIP3    H123484   5.698   3.181   2.226  0.3464 -0.8855 -0.3638
 7840TIP3    H223485   5.597   3.107   2.141 -0.9854  0.2608  0.1760
 7841TIP3   OH223486   1.115   0.925   2.693 -0.7281 -0.3997 -0.1239
 7841TIP3    H123487   1.120   0.843   2.741 -2.5971  0.5374  1.8592
 7841TIP3    H223488   1.037   0.916   2.638 -0.5731 -0.1847 -0.3806
 7842TIP3   OH223489   1.585   3.678   0.718 -0.0670 -0.2170  0.4619
 7842TIP3    H123490   1.673   3.694   0.683  0.1371 -0.9019  0.6408
 7842TIP3    H223491   1.599   3.615   0.789 -0.6759 -0.1541  0.6421
 7843TIP3   OH223492   0.714   4.615   4.351 -0.0019  0.3039 -0.4086
 7843TIP3    H123493   0.710   4.534   4.402  0.0692 -1.4574 -3.0077
 7843TIP3    H223494   0.807   4.631   4.339  0.0168  1.3807  0.8805
 7844TIP3   OH223495   1.479   0.017   3.768  0.1155 -0.2514  0.7298
 7844TIP3    H123496   1.527   0.019   3.850 -0.6371  1.4581  1.1684
 7844TIP3    H223497   1.542   0.048   3.702 -0.2857  1.9543  1.2962
 7845TIP3   OH223498   6.705   1.740   5.378  0.3334  0.5888 -0.5898
 7845TIP3    H123499   6.747   1.663   5.416 -0.2225  0.9985  0.9206
 7845TIP3    H223500   6.612   1.718   5.376  0.3388  0.5962 -1.7254
 7846TIP3   OH223501   6.909   3.132   5.316 -0.2627  0.3308 -0.3316
 7846TIP3    H123502   6.891   3.164   5.405 -1.1166 -0.1837 -0.3038
 7846TIP3    H223503   6.823   3.105   5.283  0.3522 -1.5343 -0.5057
 7847TIP3   OH223504   1.088   3.333   3.718 -0.2732  0.4913 -0.1207
 7847TIP3    H123505   1.053   3.267   3.658 -2.0956  1.3059 -0.0172
 7847TIP3    H223506   1.063   3.302   3.805 -0.2792  0.8349  0.0031
 7848TIP3   OH223507   2.799   5.886   0.969  0.3144 -0.4473  0.9510
 7848TIP3    H123508   2.876   5.834   0.992 -0.0322 -0.9671  0.9376
 7848TIP3    H223509   2.833   5.975   0.959  1.2533 -0.9541 -0.8006
 7849TIP3   OH223510   0.448   0.031   2.069 -0.7772  0.6330  0.1090
 7849TIP3    H123511   0.537   0.013   2.038 -1.6459 -0.3293 -1.9777
 7849TIP3    H223512   0.438  -0.027   2.145  0.3831  0.8180  0.4304
 7850TIP3   OH223513   4.438   2.212   4.065  0.1783 -0.4071  0.3465
 7850TIP3    H123514   4.430   2.285   4.126  1.7414 -0.6413  0.8720
 7850TIP3    H223515   4.532   2.195   4.059 -0.1071 -2.0259 -0.1947
 7851TIP3   OH223516   1.583   1.674   4.385  0.7374 -0.1325 -0.4991
 7851TIP3    H123517   1.658   1.680   4.326  0.1738  0.5840 -1.1495
 7851TIP3    H223518   1.516   1.731   4.346 -0.1961 -0.8571 -0.0026
 7852TIP3   OH223519   4.203   1.155   1.414 -0.1788  0.3469  0.2440
 7852TIP3    H123520   4.274   1.101   1.381  0.4381  1.1105  0.3062
 7852TIP3    H223521   4.241   1.242   1.423 -1.5814  1.1935 -1.4338
 7853TIP3   OH223522   5.370   0.650   4.064  0.1605 -0.2615 -0.1785
 7853TIP3    H123523   5.395   0.597   3.989 -0.7649 -0.5386 -0.3075
 7853TIP3    H223524   5.399   0.601   4.140  1.5726  0.2676 -0.3501
 7854TIP3   OH223525   1.289   0.766   3.512 -0.0425  0.7244  0.4046
 7854TIP3    H123526   1.306   0.716   3.592 -0.3661  1.5594  1.0167
 7854TIP3    H223527   1.216   0.721   3.471  1.2360 -0.7524 -0.3665
 7855TIP3   OH223528   6.114   1.404   5.103 -0.5319  0.5395 -0.1270
 7855TIP3    H123529   6.061   1.330   5.071 -3.1112  2.4164 -0.4951
 7855TIP3    H223530   6.201   1.388   5.067 -1.1392 -1.9864 -0.7087
 7856TIP3   OH223531   6.135   5.019   5.085 -0.1533 -0.3133 -0.2303
 7856TIP3    H123532   6.123   4.975   5.169  1.4440  1.2468  0.8749
 7856TIP3    H223533   6.093   5.104   5.095 -1.9801 -0.9537 -1.8656
 7857TIP3   OH223534   3.529   4.695   1.400  0.8163  0.0621  0.1391
 7857TIP3    H123535   3.475   4.768   1.431  0.8107  0.1916 -0.1672
 7857TIP3    H223536   3.467   4.623   1.390  0.6568  0.2725 -0.4208
 7858TIP3   OH223537   0.345   2.786   3.714 -0.3599 -0.4221  0.2397
 7858TIP3    H123538   0.345   2.879   3.689  0.3753  0.1702  2.2227
 7858TIP3    H223539   0.326   2.787   3.808  2.0738 -2.0879  0.8534
 7859TIP3   OH223540   1.583   2.402   5.654  0.0067 -0.5114  0.3982
 7859TIP3    H123541   1.565   2.420   5.746  1.4627 -0.5005  0.6933
 7859TIP3    H223542   1.553   2.481   5.608 -3.0880 -1.4634  0.4925
 7860TIP3   OH223543   3.149   6.563   4.701 -0.1510  0.2059 -0.0978
 7860TIP3    H123544   3.063   6.523   4.692  0.9643 -2.0731 -1.5146
 7860TIP3    H223545   3.131   6.654   4.725 -2.9981  0.2931 -2.0734
 7861TIP3   OH223546   5.323   1.452   2.580  0.0836  0.7658 -0.1604
 7861TIP3    H123547   5.369   1.518   2.632  1.5698 -1.0056  0.9399
 7861TIP3    H223548   5.258   1.415   2.641  0.4645  0.0513 -0.1704
 7862TIP3   OH223549   2.767   4.478   5.894 -0.2261  0.4659  0.0552
 7862TIP3    H123550   2.693   4.429   5.857 -0.0951  1.1817 -1.2113
 7862TIP3    H223551   2.842   4.451   5.841  0.5805 -0.7074  1.7055
 7863TIP3   OH223552   6.291   6.226   4.540  0.1583  0.1444 -0.2084
 7863TIP3    H123553   6.199   6.203   4.555  0.6294 -1.1462  1.0097
 7863TIP3    H223554   6.321   6.260   4.624  1.0544 -0.4798 -0.2523
 7864TIP3   OH223555   5.261   6.465   3.530 -0.0662 -0.1420 -0.3441
 7864TIP3    H123556   5.293   6.433   3.445  1.9753 -2.4083  1.1547
 7864TIP3    H223557   5.330   6.525   3.559 -1.8037  2.4231 -1.1509
 7865TIP3   OH223558   0.790   6.432   0.348  0.0465  0.3770 -0.4724
 7865TIP3    H123559   0.754   6.393   0.269 -1.1935 -1.1242  0.7799
 7865TIP3    H223560   0.856   6.370   0.378 -0.2680  0.3823  0.2561
 7866TIP3   OH223561   1.331   6.780   2.709  0.9193 -0.0585  0.0584
 7866TIP3    H123562   1.303   6.757   2.798 -1.2136  0.6841 -0.3611
 7866TIP3    H223563   1.355   6.696   2.670 -1.5315 -0.9331  0.2636
 7867TIP3   OH223564   5.366   0.569   3.108  0.5115  0.1010 -0.0581
 7867TIP3    H123565   5.409   0.485   3.092 -1.2362 -0.6933 -0.8072
 7867TIP3    H223566   5.332   0.562   3.197 -1.0179 -0.6888 -0.6523
 7868TIP3   OH223567   5.529   5.211   2.353  0.2213 -0.5201  0.2429
 7868TIP3    H123568   5.481   5.202   2.435 -1.1877  2.0067 -0.1844
 7868TIP3    H223569   5.601   5.270   2.374  1.0354 -1.4263  0.0620
 7869TIP3   OH223570   3.184   4.296   2.507  0.1687  0.3045 -0.3780
 7869TIP3    H123571   3.120   4.253   2.450  0.4547  0.3361 -0.7285
 7869TIP3    H223572   3.132   4.331   2.579 -0.1855  0.1707 -0.5647
 7870TIP3   OH223573   1.503   4.900   2.790  0.1526 -0.3904 -0.1626
 7870TIP3    H123574   1.483   4.957   2.715 -2.0077 -1.0817 -0.1838
 7870TIP3    H223575   1.592   4.868   2.773  0.3698  0.8352 -1.5284
 7871TIP3   OH223576   3.025   1.134   5.328  0.4984  1.0821  0.0402
 7871TIP3    H123577   2.972   1.057   5.308  1.3335  0.8368 -1.3849
 7871TIP3    H223578   3.096   1.100   5.383  1.0733  0.7315 -0.8908
 7872TIP3   OH223579   0.684   6.535   3.248  0.0055 -0.5559 -0.0848
 7872TIP3    H123580   0.684   6.521   3.343  1.8478  0.3408  0.0960
 7872TIP3    H223581   0.629   6.612   3.235 -0.9827 -1.1979  0.1218
 7873TIP3   OH223582   1.503   5.800   3.838  0.5463  0.1182  0.1109
 7873TIP3    H123583   1.421   5.797   3.887  1.1874  2.6870  1.5581
 7873TIP3    H223584   1.554   5.726   3.870  0.4833  1.0704  2.5964
 7874TIP3   OH223585   7.107   5.938   2.142  0.1626  0.4020  0.0389
 7874TIP3    H123586   7.136   5.945   2.050 -0.8727  0.4787 -0.2961
 7874TIP3    H223587   7.028   5.993   2.146  1.2573  1.9815  1.4535
 7875TIP3   OH223588   1.157   4.248   0.537  0.0458 -0.4227  0.6353
 7875TIP3    H123589   1.080   4.297   0.564 -1.8029 -2.3815 -0.7908
 7875TIP3    H223590   1.137   4.157   0.557  2.2120 -0.9509  0.6765
 7876TIP3   OH223591   6.087   2.530   5.090  0.5208  0.7920 -0.3195
 7876TIP3    H123592   6.158   2.474   5.059  0.7756  1.6919 -1.4126
 7876TIP3    H223593   6.050   2.483   5.165  2.7137  0.6324  0.7237
 7877TIP3   OH223594   3.234   2.160   5.031 -0.4985 -0.3516 -0.7996
 7877TIP3    H123595   3.148   2.197   5.011  0.1424  1.0325 -1.0677
 7877TIP3    H223596   3.230   2.140   5.125 -0.5749  1.2412 -0.4362
 7878TIP3   OH223597   1.657   6.164   4.806 -0.4333  0.6187  0.2245
 7878TIP3    H123598   1.569   6.189   4.834 -0.3470  0.1648  0.9335
 7878TIP3    H223599   1.672   6.080   4.848 -0.0772  0.1676 -0.7806
 7879TIP3   OH223600   1.405   2.363   2.721  0.2469  0.2350  0.3541
 7879TIP3    H123601   1.382   2.317   2.640 -1.0760  0.6032  0.4899
 7879TIP3    H223602   1.500   2.370   2.718  0.1504  2.6544 -2.5551
 7880TIP3   OH223603   0.620   5.341   4.018 -0.0724 -0.2870  0.1895
 7880TIP3    H123604   0.696   5.289   3.992 -1.0269 -1.4202 -0.4092
 7880TIP3    H223605   0.552   5.277   4.036 -1.5357  0.7307 -1.3607
 7881TIP3   OH223606   2.415   6.801   5.511  0.0751 -0.1242 -0.3029
 7881TIP3    H123607   2.467   6.809   5.431  0.1918  0.6808 -0.1561
 7881TIP3    H223608   2.457   6.731   5.560 -0.1041 -0.7501 -1.0220
 7882TIP3   OH223609   5.941   4.618   2.907 -0.1809  0.2994  0.3126
 7882TIP3    H123610   5.883   4.645   2.978  0.4285  2.2541  0.1260
 7882TIP3    H223611   5.981   4.537   2.938  0.0890  1.1071  2.2341
 7883TIP3   OH223612   6.800   1.620   0.524 -0.0096  0.1442 -0.0212
 7883TIP3    H123613   6.796   1.525   0.534  2.8982 -0.5755 -3.5988
 7883TIP3    H223614   6.743   1.638   0.449 -0.4373  1.2702  0.5505
 7884TIP3   OH223615   4.423   3.101   3.017 -0.1633 -0.3891  0.5482
 7884TIP3    H123616   4.479   3.115   3.093 -0.8777  0.8001  0.8762
 7884TIP3    H223617   4.459   3.158   2.949 -1.0101  0.4594  0.7930
 7885TIP3   OH223618   4.216   1.869   3.374  0.8859 -0.1169  0.4687
 7885TIP3    H123619   4.208   1.956   3.335  0.4618  0.3764  1.5847
 7885TIP3    H223620   4.154   1.815   3.326  1.7521 -0.0379 -0.7976
 7886TIP3   OH223621   1.388   6.581   1.331 -0.1985 -0.4978  0.6571
 7886TIP3    H123622   1.399   6.588   1.236  1.1720  0.3096  0.8421
 7886TIP3    H223623   1.319   6.516   1.343  0.2874 -1.3487 -0.8804
 7887TIP3   OH223624   2.121   5.884   0.696  0.0420 -0.3157  0.5391
 7887TIP3    H123625   2.089   5.926   0.616  1.2669  0.8264  0.5964
 7887TIP3    H223626   2.126   5.791   0.675  1.5952  0.1017 -1.2107
 7888TIP3   OH223627   2.363   6.706   0.038  0.2171 -0.0893  0.1304
 7888TIP3    H123628   2.326   6.751   0.113  1.9535 -0.1606  1.0646
 7888TIP3    H223629   2.443   6.754   0.017  1.7871 -2.2770  0.7574
 7889TIP3   OH223630   0.063   3.725   1.239  0.2981  0.1022  0.0505
 7889TIP3    H123631   0.058   3.740   1.334 -2.5591 -0.0897  0.0170
 7889TIP3    H223632   0.089   3.809   1.203  1.7243  0.1050  0.9885
 7890TIP3   OH223633   6.049   6.244   3.196 -0.0270 -0.7156  0.4351
 7890TIP3    H123634   6.008   6.175   3.247  0.6901  0.6545  3.0197
 7890TIP3    H223635   5.990   6.259   3.122 -1.3900 -2.3982  1.1355
 7891TIP3   OH223636   7.053   2.731   5.562 -0.3778  0.3155 -0.3350
 7891TIP3    H123637   7.070   2.643   5.598  1.8212  1.0225  0.5412
 7891TIP3    H223638   7.053   2.719   5.467 -0.9408 -0.7481 -0.2148
 7892TIP3   OH223639   3.262   0.427   5.561  0.4623  0.2706 -0.2828
 7892TIP3    H123640   3.326   0.366   5.598 -0.5903  0.0987  1.4007
 7892TIP3    H223641   3.314   0.497   5.523  1.6952 -1.2554 -1.5826
 7893TIP3   OH223642   3.579   2.557   5.491  0.1723  0.5204 -0.0344
 7893TIP3    H123643   3.601   2.627   5.551  0.6194 -0.6797  1.2458
 7893TIP3    H223644   3.649   2.493   5.501 -0.2152 -0.1173 -1.1773
 7894TIP3   OH223645   4.503   5.773   2.785  0.0408 -0.5889 -0.3091
 7894TIP3    H123646   4.483   5.835   2.854  2.4490 -0.3600  0.2662
 7894TIP3    H223647   4.594   5.749   2.799 -0.2231 -2.7522 -1.7032
 7895TIP3   OH223648   2.932   4.081   4.276  0.1331  0.5725 -0.1168
 7895TIP3    H123649   2.933   4.127   4.192 -0.8647 -0.6618 -0.8447
 7895TIP3    H223650   2.852   4.111   4.319  0.0151  0.2977 -0.1428
 7896TIP3   OH223651   0.814   4.711   5.572 -0.4152  0.0680 -0.2711
 7896TIP3    H123652   0.835   4.802   5.554  0.6019 -0.3990 -1.6542
 7896TIP3    H223653   0.896   4.674   5.606 -0.4210 -0.6263 -0.9900
 7897TIP3   OH223654   3.869   1.494   1.131 -0.0941 -0.5700  0.1130
 7897TIP3    H123655   3.929   1.420   1.127 -0.0954 -0.5175 -1.9003
 7897TIP3    H223656   3.782   1.454   1.122 -0.2428 -0.4723  1.0162
 7898TIP3   OH223657   3.612   2.817   1.892 -0.2513  0.7689 -0.4715
 7898TIP3    H123658   3.561   2.877   1.947 -1.2845  0.7891 -1.4125
 7898TIP3    H223659   3.692   2.800   1.942 -0.0550  2.7178 -0.0718
 7899TIP3   OH223660   2.452   3.296   3.396  0.4514  0.3090  0.4268
 7899TIP3    H123661   2.518   3.263   3.335  0.4906  0.3754  0.4335
 7899TIP3    H223662   2.404   3.218   3.423  0.9626  0.1705  0.9394
 7900TIP3   OH223663   2.853   1.736   3.974  0.3666  0.3055  0.2380
 7900TIP3    H123664   2.787   1.796   3.938  0.0690 -0.0471  0.1907
 7900TIP3    H223665   2.874   1.773   4.060  2.7484  2.4626 -1.1134
 7901TIP3   OH223666   2.169   1.362   2.254 -0.3219  0.0531 -0.2459
 7901TIP3    H123667   2.227   1.347   2.329  0.1961 -1.0196 -0.8531
 7901TIP3    H223668   2.153   1.457   2.256  2.6712  0.6966 -0.9320
 7902TIP3   OH223669   5.632   2.541   0.755 -0.3618  0.8134  0.0150
 7902TIP3    H123670   5.719   2.578   0.739 -0.1517 -0.0984 -1.1658
 7902TIP3    H223671   5.644   2.446   0.745 -1.4720  0.6616 -0.0626
 7903TIP3   OH223672   5.608   3.127   0.000 -0.0306  0.0882  0.0073
 7903TIP3    H123673   5.536   3.122   0.062 -0.0099  0.6875  0.0814
 7903TIP3    H223674   5.687   3.122   0.054  0.0310 -2.1458 -0.1772
 7904TIP3   OH223675   0.347   3.485   1.335  0.5690  0.7875  0.0357
 7904TIP3    H123676   0.289   3.443   1.272  0.0600  0.2976  0.8169
 7904TIP3    H223677   0.369   3.416   1.397  0.5949  1.3998  0.7216
 7905TIP3   OH223678   0.509   1.508   2.762 -0.5939 -0.2587  1.1672
 7905TIP3    H123679   0.493   1.417   2.789 -0.3331 -0.7651 -0.2815
 7905TIP3    H223680   0.541   1.551   2.841  1.3276 -1.9675  1.3952
 7906TIP3   OH223681   6.892   6.684   0.848 -0.0302 -0.0176  0.4627
 7906TIP3    H123682   6.886   6.624   0.922 -0.2897 -0.7891 -0.1782
 7906TIP3    H223683   6.803   6.719   0.839 -0.1818 -0.5047  0.0395
 7907TIP3   OH223684   0.631   4.357   4.476  0.6716  0.4381  0.2920
 7907TIP3    H123685   0.551   4.343   4.425  0.8682 -1.2138  0.4000
 7907TIP3    H223686   0.599   4.386   4.562  0.0015 -2.4177  1.0994
 7908TIP3   OH223687   4.284   2.254   5.764  0.1426 -0.4395  0.0993
 7908TIP3    H123688   4.252   2.190   5.701  0.1484  0.4142 -0.8051
 7908TIP3    H223689   4.213   2.262   5.828  0.8532 -2.6235  1.2544
 7909TIP3   OH223690   5.198   3.987   2.304 -0.3309 -0.0755  0.1392
 7909TIP3    H123691   5.292   4.001   2.314 -0.0672 -1.9975  0.6928
 7909TIP3    H223692   5.189   3.941   2.220 -0.6922 -0.6905  0.5144
 7910TIP3   OH223693   5.108   1.699   3.415 -0.5047  0.1544  0.6810
 7910TIP3    H123694   5.021   1.666   3.437 -1.1291  0.9644 -0.4911
 7910TIP3    H223695   5.161   1.679   3.492 -1.2271 -2.1271  0.6582
 7911TIP3   OH223696   3.726   0.516   0.244  0.1270  0.0805 -0.0160
 7911TIP3    H123697   3.816   0.522   0.213  0.5524  0.4998  1.2730
 7911TIP3    H223698   3.684   0.597   0.214  0.6303  0.6419  0.7669
 7912TIP3   OH223699   4.910   2.586   0.930 -0.7499  0.5166  0.0634
 7912TIP3    H123700   4.970   2.596   1.004 -0.4161  1.1042 -0.2801
 7912TIP3    H223701   4.939   2.505   0.886 -0.3897  0.6444  0.0638
 7913TIP3   OH223702   4.193   1.396   3.853 -0.5568  0.2492  0.1390
 7913TIP3    H123703   4.234   1.311   3.836  2.4775  1.5249  0.3312
 7913TIP3    H223704   4.205   1.445   3.771 -0.9082  0.9465  0.4937
 7914TIP3   OH223705   1.122   4.442   3.101  0.8987 -0.5931 -0.7469
 7914TIP3    H123706   1.177   4.521   3.107  2.4613 -1.6804 -0.1667
 7914TIP3    H223707   1.119   4.422   3.008  1.8600 -0.7616 -0.7492
 7915TIP3   OH223708   1.030   4.940   4.186  0.6437 -0.4061 -0.1620
 7915TIP3    H123709   1.112   4.945   4.236  0.2825 -1.3272  0.5580
 7915TIP3    H223710   0.962   4.960   4.250  0.3476  1.3442 -0.9829
 7916TIP3   OH223711   1.701   0.250   0.747  0.6533 -0.0182  0.1114
 7916TIP3    H123712   1.726   0.331   0.792  0.0009  0.4349 -0.3280
 7916TIP3    H223713   1.754   0.249   0.667  0.8641 -0.1694  0.2514
 7917TIP3   OH223714   1.728   3.179   0.770 -0.2064  0.1711 -0.4787
 7917TIP3    H123715   1.768   3.249   0.821  0.0864 -1.3183  1.4251
 7917TIP3    H223716   1.639   3.210   0.752  0.2290  1.4375 -0.5675
 7918TIP3   OH223717   4.727   0.208   1.971  0.9904 -0.0338  0.2969
 7918TIP3    H123718   4.671   0.222   1.895  1.9418 -1.4485 -0.7030
 7918TIP3    H223719   4.810   0.252   1.949  1.4096 -0.7979  0.3341
 7919TIP3   OH223720   5.596   0.164   5.301  0.1199 -0.4935  0.5173
 7919TIP3    H123721   5.662   0.132   5.240 -1.5548 -0.6766 -1.2730
 7919TIP3    H223722   5.615   0.257   5.310  2.5177 -1.0560  2.5786
 7920TIP3   OH223723   4.882   2.550   3.329 -0.8898  0.1371 -0.2002
 7920TIP3    H123724   4.910   2.524   3.241  1.3028  0.2863  0.3917
 7920TIP3    H223725   4.936   2.626   3.350 -1.7086  0.3931  1.1126
 7921TIP3   OH223726   6.617   6.497   4.606 -0.2627 -0.6516  0.9313
 7921TIP3    H123727   6.640   6.532   4.692  0.2516 -1.8498  1.2992
 7921TIP3    H223728   6.543   6.551   4.578  0.5471  0.7775  1.4179
 7922TIP3   OH223729   0.649   4.330   1.748 -0.3027 -0.3378 -0.2911
 7922TIP3    H123730   0.563   4.372   1.746  0.7612  2.0968  1.1621
 7922TIP3    H223731   0.708   4.396   1.785  2.8879 -0.6991 -4.0233
 7923TIP3   OH223732   5.240   0.921   4.534  0.1626  0.4181  0.3898
 7923TIP3    H123733   5.209   0.848   4.587 -0.2880  0.1841 -0.1846
 7923TIP3    H223734   5.273   0.984   4.598  0.1131 -0.0761  0.9190
 7924TIP3   OH223735   2.380   1.853   4.464 -0.7944 -0.6408  0.1741
 7924TIP3    H123736   2.436   1.780   4.438 -0.3287 -0.6239  1.0922
 7924TIP3    H223737   2.304   1.847   4.406 -1.3162 -2.5484  0.9803
 7925TIP3   OH223738   3.297   1.850   0.449 -0.2049 -0.0601  0.2571
 7925TIP3    H123739   3.330   1.807   0.528 -1.2292 -0.1077  0.6867
 7925TIP3    H223740   3.218   1.897   0.479  2.0918  4.2347  0.4379
 7926TIP3   OH223741   5.452   2.260   2.116 -0.1907 -0.1639 -0.1206
 7926TIP3    H123742   5.433   2.308   2.036  1.2359  3.9877  1.7655
 7926TIP3    H223743   5.369   2.259   2.164 -0.2697  0.2776 -0.2476
 7927TIP3   OH223744   3.351   6.438   3.205  0.1699  0.6862 -0.4147
 7927TIP3    H123745   3.409   6.369   3.238 -0.2329  0.2754 -0.5594
 7927TIP3    H223746   3.266   6.420   3.246 -0.4697 -0.1134 -2.0346
 7928TIP3   OH223747   1.955   6.710   5.630  0.3226 -0.0252 -0.1578
 7928TIP3    H123748   1.896   6.654   5.680  0.2508  0.8918  0.8146
 7928TIP3    H223749   1.934   6.799   5.659  0.0934  0.5691 -2.0211
 7929TIP3   OH223750   7.181   1.370   3.395  0.5384  0.3524  0.2174
 7929TIP3    H123751   7.134   1.428   3.455 -0.5839 -0.3720  0.0514
 7929TIP3    H223752   7.268   1.362   3.435 -0.6113 -1.3560  2.6548
 7930TIP3   OH223753   7.081   6.506   2.902 -0.3343 -0.2044 -0.1137
 7930TIP3    H123754   6.990   6.478   2.913 -0.1296 -1.0546 -0.5156
 7930TIP3    H223755   7.074   6.600   2.884 -1.2689 -0.5326 -1.7687
 7931TIP3   OH223756   7.078   2.459   4.390 -0.0555  0.2758 -0.5298
 7931TIP3    H123757   7.054   2.402   4.316  0.3440 -1.1207  0.3704
 7931TIP3    H223758   7.095   2.398   4.462 -1.4717  1.6535  1.0346
 7932TIP3   OH223759   2.717   1.008   5.431 -0.1598 -0.4686  0.3966
 7932TIP3    H123760   2.690   1.076   5.369 -0.7747 -1.9463 -1.0299
 7932TIP3    H223761   2.696   1.044   5.517  0.5960  1.5944 -0.2162
 7933TIP3   OH223762   7.150   4.828   2.896  0.0981  0.1693 -0.4760
 7933TIP3    H123763   7.061   4.863   2.908  1.0533  2.5699  0.1402
 7933TIP3    H223764   7.181   4.814   2.986 -0.2291 -2.4589 -0.6848
 7934TIP3   OH223765   3.645   3.956   5.689 -0.4235  0.2342 -0.1543
 7934TIP3    H123766   3.564   3.997   5.720 -1.3142 -1.7989  0.3292
 7934TIP3    H223767   3.671   4.009   5.614 -3.9692 -0.8147 -2.3713
 7935TIP3   OH223768   1.834   1.415   4.970  0.4296 -0.0009 -0.2106
 7935TIP3    H123769   1.913   1.397   4.918  0.0149  0.2876 -0.9422
 7935TIP3    H223770   1.768   1.439   4.906  0.4438  2.3639  0.5963
 7936TIP3   OH223771   2.613   0.078   1.153 -0.1761 -0.2032  0.2522
 7936TIP3    H123772   2.708   0.085   1.160 -0.1405 -1.0264  0.7957
 7936TIP3    H223773   2.582   0.168   1.146  0.6436  0.0678  0.0052
 7937TIP3   OH223774   0.850   5.629   0.125 -0.1463  0.2006  0.5395
 7937TIP3    H123775   0.851   5.616   0.220  1.1372  3.1569  1.0613
 7937TIP3    H223776   0.762   5.661   0.106  0.6794  3.5327  1.5655
 7938TIP3   OH223777   4.747   1.871   4.763  0.3256 -0.3824 -0.3293
 7938TIP3    H123778   4.720   1.916   4.683  1.6873  0.2201 -0.4841
 7938TIP3    H223779   4.733   1.778   4.745 -0.0626 -0.2042 -0.9859
 7939TIP3   OH223780   1.291   2.956   2.764  0.6288  0.1023  0.3731
 7939TIP3    H123781   1.227   2.886   2.749 -0.6260  1.0190  1.2721
 7939TIP3    H223782   1.276   2.984   2.854  2.6574  0.0224  0.7822
 7940TIP3   OH223783   4.362   5.365   0.445  0.3031  0.2808 -0.3794
 7940TIP3    H123784   4.400   5.437   0.496 -1.8967  1.2457  0.0142
 7940TIP3    H223785   4.369   5.289   0.502 -0.8400  1.0529  0.8702
 7941TIP3   OH223786   2.649   0.179   5.827  0.2182  0.5623 -0.4148
 7941TIP3    H123787   2.607   0.118   5.888 -1.2214 -0.6720 -2.5368
 7941TIP3    H223788   2.733   0.199   5.869  0.4595 -2.3071  0.7517
 7942TIP3   OH223789   1.388   5.577   5.233 -0.3005  0.9531  0.0094
 7942TIP3    H123790   1.318   5.596   5.171  0.2287 -0.0867 -0.9328
 7942TIP3    H223791   1.463   5.553   5.178 -0.3537 -1.8582  1.0356
 7943TIP3   OH223792   2.019   5.970   3.302 -0.5227  0.4452 -0.5775
 7943TIP3    H123793   2.043   6.051   3.347  2.0373  0.2529 -1.4082
 7943TIP3    H223794   2.071   5.902   3.345 -0.3051 -0.2294 -1.8419
 7944TIP3   OH223795   2.161   6.307   3.903 -0.1363 -0.5952 -0.0366
 7944TIP3    H123796   2.098   6.255   3.854 -0.5060 -0.6977  0.5373
 7944TIP3    H223797   2.109   6.374   3.946  0.2452 -0.2102 -0.1649
 7945TIP3   OH223798   1.244   4.856   2.184 -0.0734 -0.0169  0.3741
 7945TIP3    H123799   1.312   4.875   2.119  0.0270 -3.6193 -0.7993
 7945TIP3    H223800   1.292   4.816   2.257 -0.7287 -1.4761  0.0463
 7946TIP3   OH223801   5.431   4.213   0.878 -0.7803  0.3048  0.0175
 7946TIP3    H123802   5.507   4.229   0.822 -0.5123 -1.3742 -0.1706
 7946TIP3    H223803   5.452   4.256   0.961 -2.2128  5.0333 -1.7314
 7947TIP3   OH223804   0.590   5.768   4.081  0.0325 -0.2478  0.7514
 7947TIP3    H123805   0.621   5.752   3.992  0.6510  0.5570  0.8165
 7947TIP3    H223806   0.545   5.687   4.105  1.4200 -1.1676  0.3718
 7948TIP3   OH223807   3.007   5.669   2.068 -0.0872 -0.3581 -0.1894
 7948TIP3    H123808   3.013   5.616   1.988 -1.2842  0.7048 -1.0101
 7948TIP3    H223809   3.038   5.756   2.042 -0.4915  0.0024  0.4974
 7949TIP3   OH223810   6.381   4.951   1.475 -0.1924  0.3087  0.0307
 7949TIP3    H123811   6.468   4.911   1.480  0.1235  1.1373  1.5315
 7949TIP3    H223812   6.397   5.041   1.447 -0.5686  0.4528  0.2685
 7950TIP3   OH223813   4.137   1.996   1.366  0.4665 -0.0777  0.5087
 7950TIP3    H123814   4.142   1.970   1.274  1.5220  0.8088  0.2871
 7950TIP3    H223815   4.062   1.948   1.401  1.0300 -1.6614 -0.3978
 7951TIP3   OH223816   2.459   4.467   4.429  0.0807 -0.1811  0.7314
 7951TIP3    H123817   2.424   4.393   4.381  1.7207 -0.0254 -0.8215
 7951TIP3    H223818   2.388   4.531   4.430 -0.0780 -0.2673 -1.3745
 7952TIP3   OH223819   0.160   1.104   1.864 -0.0642 -0.1839 -0.7983
 7952TIP3    H123820   0.079   1.068   1.900 -1.2642  0.6767 -2.5041
 7952TIP3    H223821   0.187   1.170   1.928 -1.5556  0.5804 -0.9186
 7953TIP3   OH223822   4.594   0.489   2.201 -0.2826 -0.1047  0.3601
 7953TIP3    H123823   4.524   0.444   2.153 -0.5612  0.4946  0.1831
 7953TIP3    H223824   4.581   0.582   2.179  1.2784 -0.0863 -0.5881
 7954TIP3   OH223825   5.683   2.159   1.969 -0.1211 -0.6858 -0.4146
 7954TIP3    H123826   5.635   2.165   2.052 -1.3292  1.3195 -1.1619
 7954TIP3    H223827   5.617   2.129   1.906  0.2857 -0.4147 -0.9769
 7955TIP3   OH223828   7.071   4.528   5.688 -0.2747 -0.3566  0.4128
 7955TIP3    H123829   7.050   4.515   5.781 -1.0237 -2.8453 -0.0203
 7955TIP3    H223830   6.991   4.503   5.642 -0.7944  3.2061 -0.9273
 7956TIP3   OH223831   3.249   5.661   1.295  0.3985 -0.0077  0.0104
 7956TIP3    H123832   3.193   5.695   1.226 -1.5197 -2.6593  0.0964
 7956TIP3    H223833   3.316   5.610   1.250  1.1186  0.8793  0.0358
 7957TIP3   OH223834   2.416   4.834   4.816 -0.5136  0.0699 -0.8175
 7957TIP3    H123835   2.354   4.763   4.798 -0.5588  0.1724 -1.0785
 7957TIP3    H223836   2.484   4.794   4.870 -0.1013 -0.3774 -1.6509
 7958TIP3   OH223837   2.069   3.842   2.804 -0.7264  0.7072  0.1785
 7958TIP3    H123838   2.094   3.914   2.747  2.1679  0.8944  1.4713
 7958TIP3    H223839   2.050   3.769   2.745  0.3482  1.4038 -1.0782
 7959TIP3   OH223840   0.515   3.770   3.520  0.0022  0.0455  0.0222
 7959TIP3    H123841   0.584   3.756   3.454  0.0868  0.1184  0.0955
 7959TIP3    H223842   0.434   3.767   3.470  0.0730  0.2272 -0.1062
 7960TIP3   OH223843   5.464   1.310   2.267 -0.4192  0.2848  0.8924
 7960TIP3    H123844   5.476   1.316   2.362  0.8658  1.1942  0.6921
 7960TIP3    H223845   5.553   1.313   2.231 -0.9634  3.0965 -0.4976
 7961TIP3   OH223846   2.701   5.448   5.385  0.0900 -0.0248  0.2850
 7961TIP3    H123847   2.675   5.468   5.295 -0.0051  3.1254  0.9068
 7961TIP3    H223848   2.628   5.395   5.419  0.3690 -1.7122 -1.5733
 7962TIP3   OH223849   6.415   6.659   4.501  0.1213  0.3694 -0.4540
 7962TIP3    H123850   6.428   6.753   4.505 -1.3485  0.6432 -1.0624
 7962TIP3    H223851   6.332   6.644   4.548 -0.6953 -0.3180 -2.0155
 7963TIP3   OH223852   6.389   1.046   4.361 -0.3364 -0.2218  0.2097
 7963TIP3    H123853   6.311   1.034   4.415 -0.8121 -1.5500 -0.7135
 7963TIP3    H223854   6.392   1.139   4.343  1.3693  0.8781  4.7336
 7964TIP3   OH223855   0.301   1.988   4.241  0.7309  0.0825  0.1258
 7964TIP3    H123856   0.359   2.065   4.240  0.7294  0.1500  1.9052
 7964TIP3    H223857   0.359   1.914   4.253  0.5562  0.0300  0.6708
 7965TIP3   OH223858   0.976   3.222   3.461 -0.0388 -0.0330 -0.9282
 7965TIP3    H123859   0.972   3.128   3.480 -0.7951  0.2087  0.2553
 7965TIP3    H223860   0.908   3.236   3.395  1.2579 -0.5751 -2.4245
 7966TIP3   OH223861   2.418   3.008   1.695 -0.1369 -0.2111  0.5478
 7966TIP3    H123862   2.484   3.034   1.759  0.5373  2.0283 -0.9462
 7966TIP3    H223863   2.341   2.985   1.748  0.4522  1.3708  2.1872
 7967TIP3   OH223864   0.296   3.167   0.628 -0.3675  0.3861  0.1841
 7967TIP3    H123865   0.356   3.227   0.583  1.3196  0.6790  2.6324
 7967TIP3    H223866   0.326   3.080   0.603 -1.4082  0.4888 -1.6050
 7968TIP3   OH223867   0.517   5.744   4.388 -0.1111 -0.2219  0.4814
 7968TIP3    H123868   0.564   5.781   4.313  1.6976 -1.0762  1.1343
 7968TIP3    H223869   0.428   5.729   4.356  0.5860 -0.4466 -1.4607
 7969TIP3   OH223870   4.322   3.011   1.015 -0.2923 -0.1404 -0.0813
 7969TIP3    H123871   4.253   3.021   0.950 -0.4238  2.2060  0.3427
 7969TIP3    H223872   4.299   3.072   1.085  0.2970 -1.9563  1.8273
 7970TIP3   OH223873   3.883   5.608   5.554 -0.4565 -0.0082  0.1423
 7970TIP3    H123874   3.879   5.520   5.517 -1.9080  0.4281 -0.8262
 7970TIP3    H223875   3.965   5.645   5.521  1.6461 -1.8898  2.8231
 7971TIP3   OH223876   6.179   4.180   5.730 -0.4668  0.2683 -0.1090
 7971TIP3    H123877   6.206   4.097   5.770 -1.1916  0.2941  0.4712
 7971TIP3    H223878   6.083   4.175   5.730 -0.5607  1.6050  1.0456
 7972TIP3   OH223879   1.109   0.943   0.336 -0.3795  0.0966  0.0853
 7972TIP3    H123880   1.185   0.901   0.296 -0.7288  1.3520 -2.0736
 7972TIP3    H223881   1.034   0.891   0.308 -0.5522  0.4939 -0.2051
 7973TIP3   OH223882   6.114   1.647   4.454  0.0425 -0.0907 -0.1762
 7973TIP3    H123883   6.174   1.609   4.519  0.6299  0.0655 -0.6194
 7973TIP3    H223884   6.055   1.701   4.505  0.8985  0.5427  0.1729
 7974TIP3   OH223885   2.741   1.287   3.412 -0.0401  0.1010  0.1963
 7974TIP3    H123886   2.826   1.308   3.452 -0.1900 -0.3227  0.7609
 7974TIP3    H223887   2.707   1.216   3.466 -0.0871 -0.7486 -0.9128
 7975TIP3   OH223888   1.446   0.126   4.777  0.0509 -0.7309  0.3377
 7975TIP3    H123889   1.536   0.120   4.807  0.6135  0.0121 -1.1120
 7975TIP3    H223890   1.449   0.101   4.685 -0.6691  2.1469 -0.5803
 7976TIP3   OH223891   4.091   4.786   0.277 -0.1684 -0.0006  0.1452
 7976TIP3    H123892   4.097   4.700   0.234  1.0148  0.4207 -0.5865
 7976TIP3    H223893   4.012   4.781   0.330  0.4459 -1.9454  0.9811
 7977TIP3   OH223894   0.560   4.280   2.487 -0.1772  0.1393 -0.3190
 7977TIP3    H123895   0.530   4.215   2.423 -0.2472  0.8039 -0.9699
 7977TIP3    H223896   0.480   4.318   2.523 -0.1568  1.2452 -1.3737
 7978TIP3   OH223897   4.947   6.745   0.472  0.6500 -0.4214 -0.4914
 7978TIP3    H123898   4.882   6.701   0.527 -0.0671 -0.4039 -1.3047
 7978TIP3    H223899   4.986   6.675   0.420  1.5459 -0.4824  0.2272
 7979TIP3   OH223900   0.439   4.069   1.137 -0.1541  0.2614  0.1249
 7979TIP3    H123901   0.402   4.150   1.101 -0.6406 -0.9882 -2.4576
 7979TIP3    H223902   0.529   4.068   1.105  0.2736  0.3923  1.2856
 7980TIP3   OH223903   0.474   0.963   1.001  0.0129  0.0160 -0.7376
 7980TIP3    H123904   0.405   1.012   1.047 -0.3644 -0.3255 -0.9393
 7980TIP3    H223905   0.494   1.017   0.925 -0.5344 -0.2252 -1.0607
 7981TIP3   OH223906   3.484   2.353   1.433  0.0244 -0.3194  0.3688
 7981TIP3    H123907   3.486   2.258   1.422 -0.1194 -0.3011  0.1687
 7981TIP3    H223908   3.557   2.385   1.379 -1.2569 -0.1593 -1.3531
 7982TIP3   OH223909   0.352   0.029   1.551 -0.3142 -0.0460  0.7991
 7982TIP3    H123910   0.317   0.065   1.633 -1.2137 -1.6613  1.1723
 7982TIP3    H223911   0.276  -0.010   1.508  0.5661 -1.3429  0.3724
 7983TIP3   OH223912   2.328   3.128   4.612  0.1186 -0.4682  0.2699
 7983TIP3    H123913   2.391   3.199   4.606 -0.3751  0.0433  1.0690
 7983TIP3    H223914   2.338   3.081   4.529  0.4302  0.5363 -0.2789
 7984TIP3   OH223915   5.140   4.405   4.069  0.1118 -0.6921 -0.2870
 7984TIP3    H123916   5.201   4.433   4.001  0.0695 -0.0181 -0.0533
 7984TIP3    H223917   5.179   4.436   4.151 -1.0757  0.7412 -0.2292
 7985TIP3   OH223918   6.558   5.270   3.242 -0.0131  0.3913  0.5955
 7985TIP3    H123919   6.547   5.264   3.337  1.9253  0.6545  0.8689
 7985TIP3    H223920   6.627   5.334   3.230 -2.0654  2.4463 -1.1541
 7986TIP3   OH223921   6.873   3.199   3.602 -0.6713 -0.3014 -0.0389
 7986TIP3    H123922   6.943   3.134   3.603  0.0095  0.3845 -1.3319
 7986TIP3    H223923   6.888   3.252   3.680  0.9356  0.5324 -0.8845
 7987TIP3   OH223924   0.363   2.044   1.760  0.4058  0.3623 -0.0065
 7987TIP3    H123925   0.372   1.984   1.686  0.6279  0.1079  0.2266
 7987TIP3    H223926   0.271   2.070   1.758 -0.5429 -2.3463  1.6714
 7988TIP3   OH223927   4.542   2.175   5.808  0.5137  0.7931  0.0290
 7988TIP3    H123928   4.535   2.106   5.875  2.3535 -0.9963 -1.4950
 7988TIP3    H223929   4.453   2.210   5.801 -1.3323 -3.3819 -1.0705
 7989TIP3   OH223930   0.731   4.121   2.635  0.2674  0.4313 -0.3066
 7989TIP3    H123931   0.689   4.191   2.586  0.3221  0.2069 -0.6838
 7989TIP3    H223932   0.782   4.165   2.703  0.3536  0.7557 -0.5822
 7990TIP3   OH223933   3.034   3.866   2.464 -0.1203  0.2920  0.5708
 7990TIP3    H123934   2.962   3.822   2.509 -0.3380  0.8696  0.8034
 7990TIP3    H223935   2.998   3.889   2.378 -0.0493  0.1272  0.4975
 7991TIP3   OH223936   5.622   4.606   1.895  0.5301 -0.3281  0.1733
 7991TIP3    H123937   5.626   4.668   1.823 -0.7601  1.8228  1.8353
 7991TIP3    H223938   5.708   4.612   1.937  0.5217  0.1123  0.1329
 7992TIP3   OH223939   6.372   4.611   1.252  0.6801 -0.0931  0.1082
 7992TIP3    H123940   6.414   4.530   1.282  0.8061 -0.6838 -1.5209
 7992TIP3    H223941   6.441   4.656   1.202  0.4756  0.8110  0.6216
 7993TIP3   OH223942   5.030   5.950   0.462 -0.3227  0.3975  0.8613
 7993TIP3    H123943   4.939   5.968   0.440  0.0507  1.4989  0.0472
 7993TIP3    H223944   5.074   5.944   0.377  0.0146 -2.4039  1.1461
 7994TIP3   OH223945   1.375   5.991   4.272 -0.2514  0.2906 -0.5808
 7994TIP3    H123946   1.308   5.924   4.285 -0.2435  0.4995  0.7474
 7994TIP3    H223947   1.458   5.942   4.275 -0.0963  0.5085  2.6627
 7995TIP3   OH223948   4.914   1.644   1.977  0.3526 -0.4423 -0.5399
 7995TIP3    H123949   4.854   1.605   1.914  0.2226 -0.0107 -0.6870
 7995TIP3    H223950   4.857   1.689   2.039  0.5106 -0.3118 -0.4890
 7996TIP3   OH223951   1.103   6.088   0.267 -0.4690 -0.6463  0.0710
 7996TIP3    H123952   1.122   6.035   0.344 -0.2391  0.2340  0.6273
 7996TIP3    H223953   1.169   6.062   0.203 -0.8976 -1.6610  0.0234
 7997TIP3   OH223954   5.679   3.522   0.569 -0.2726  0.1735 -0.0024
 7997TIP3    H123955   5.670   3.470   0.489 -0.6482 -0.1501  0.2483
 7997TIP3    H223956   5.590   3.547   0.592 -0.2658 -0.5682  0.8615
 7998TIP3   OH223957   2.727   2.218   4.784  0.5194 -0.1525 -0.4252
 7998TIP3    H123958   2.636   2.238   4.803  0.6095 -0.7787  0.7661
 7998TIP3    H223959   2.728   2.123   4.768  1.0322 -0.2388  0.0889
 7999TIP3   OH223960   2.013   1.235   0.723  0.4865 -0.3641  0.5870
 7999TIP3    H123961   2.002   1.254   0.630  1.4750  0.1300  0.5579
 7999TIP3    H223962   2.104   1.210   0.732  0.9204  1.4111  1.7036
 8000TIP3   OH223963   3.685   4.094   2.339 -0.0126  0.0312  0.2563
 8000TIP3    H123964   3.715   4.008   2.368 -3.6929 -1.9089 -1.0834
 8000TIP3    H223965   3.673   4.144   2.419  1.4712 -0.8974  1.1065
 8001TIP3   OH223966   0.171   0.822   3.987  0.1915  0.4384  0.1234
 8001TIP3    H123967   0.093   0.844   4.038 -0.2591  0.5307 -0.5891
 8001TIP3    H223968   0.179   0.893   3.924  0.1741 -0.1524 -0.5659
 8002TIP3   OH223969   1.327   2.794   3.225  0.1480  0.4524 -0.4182
 8002TIP3    H123970   1.393   2.839   3.173 -0.4713  1.2047 -0.5662
 8002TIP3    H223971   1.344   2.701   3.209 -0.0229  0.6623 -1.9678
 8003TIP3   OH223972   4.539   5.196   3.448 -0.1649 -0.1382 -0.3865
 8003TIP3    H123973   4.580   5.166   3.529  0.6097  1.2631 -0.2247
 8003TIP3    H223974   4.494   5.277   3.472  0.4599  0.5422 -1.4321
 8004TIP3   OH223975   0.972   3.126   0.557  0.3280 -0.2225  0.0642
 8004TIP3    H123976   0.890   3.094   0.597  0.6663 -0.0044  0.9509
 8004TIP3    H223977   1.040   3.074   0.599  0.6924  0.0062 -0.2448
 8005TIP3   OH223978   6.451   0.103   2.477  0.1332 -0.1746  0.1152
 8005TIP3    H123979   6.470   0.175   2.536 -1.9871 -0.1994  0.9182
 8005TIP3    H223980   6.360   0.079   2.497  0.5605 -2.6356 -0.5712
 8006TIP3   OH223981   0.899   1.371   3.834 -0.2087 -0.3324  0.3512
 8006TIP3    H123982   0.963   1.316   3.880 -0.3149 -0.3544  0.4719
 8006TIP3    H223983   0.926   1.367   3.742 -0.0228 -0.3242  0.4045
 8007TIP3   OH223984   6.426   0.974   1.743 -0.2992 -0.2628  0.2641
 8007TIP3    H123985   6.374   0.899   1.770 -0.1877 -0.1524  0.7886
 8007TIP3    H223986   6.405   0.985   1.650  1.5248 -2.4460 -0.5119
 8008TIP3   OH223987   4.776   2.471   4.226  0.2179 -0.2996 -0.2294
 8008TIP3    H123988   4.812   2.426   4.149  1.3491  0.0615  0.0753
 8008TIP3    H223989   4.684   2.446   4.227  0.6121 -1.8628 -0.5897
 8009TIP3   OH223990   5.007   1.694   2.782 -0.4867  0.6830  0.7692
 8009TIP3    H123991   4.955   1.628   2.736 -0.4903  0.0643  1.6347
 8009TIP3    H223992   5.027   1.760   2.715  1.6898 -1.3890 -0.8061
 8010TIP3   OH223993   4.214   6.184   3.034 -0.2358  0.2506 -0.4005
 8010TIP3    H123994   4.241   6.172   3.125 -1.2929  0.0414 -0.0959
 8010TIP3    H223995   4.295   6.175   2.984  0.6581  2.0342  0.6240
 8011TIP3   OH223996   4.010   5.701   3.544  0.0632 -0.3220  0.5913
 8011TIP3    H123997   3.952   5.746   3.483  0.2460 -0.0378  0.6262
 8011TIP3    H223998   3.962   5.621   3.567 -0.5888  0.1918  1.0816
 8012TIP3   OH223999   5.300   6.660   0.563 -0.0448 -0.3567  0.6850
 8012TIP3    H124000   5.268   6.571   0.575  1.0591 -0.7045  1.1886
 8012TIP3    H224001   5.353   6.677   0.641  0.8890  0.2299 -0.0575
 8013TIP3   OH224002   0.475   5.111   3.385  0.4317 -0.0104  0.1788
 8013TIP3    H124003   0.407   5.116   3.317  2.2447  1.4554 -1.6780
 8013TIP3    H224004   0.475   5.019   3.413 -3.2468  0.2106  1.3828
 8014TIP3   OH224005   5.133   0.203   3.082  0.3516  0.3655  0.0219
 8014TIP3    H124006   5.075   0.240   3.149 -2.2030 -1.0014 -1.2760
 8014TIP3    H224007   5.139   0.110   3.105  0.5569  0.1513 -0.8619
 8015TIP3   OH224008   0.012   4.295   3.123 -0.3555 -0.1490  0.1933
 8015TIP3    H124009  -0.068   4.249   3.148 -0.0053  0.0964  1.9198
 8015TIP3    H224010   0.078   4.263   3.185  0.6931  0.2669 -0.6722
 8016TIP3   OH224011   0.823   3.179   1.023  0.2293  0.2180 -0.3553
 8016TIP3    H124012   0.762   3.203   0.954 -1.2571  0.9990  1.1671
 8016TIP3    H224013   0.846   3.262   1.065 -0.8688 -0.4376  1.6506
 8017TIP3   OH224014   4.599   4.852   0.273  0.3812  0.4910 -0.4255
 8017TIP3    H124015   4.533   4.896   0.327  2.0308 -0.9356  3.0521
 8017TIP3    H224016   4.673   4.913   0.272  0.9636 -0.1891  0.3906
 8018TIP3   OH224017   3.273   6.202   4.334 -0.0895 -0.2171 -0.4862
 8018TIP3    H124018   3.359   6.242   4.322 -0.2880  0.0210 -1.1681
 8018TIP3    H224019   3.262   6.197   4.428  0.3141  0.5271 -0.3890
 8019TIP3   OH224020   5.499   2.151   1.019  0.5381 -0.8345  0.6219
 8019TIP3    H124021   5.420   2.140   1.073 -0.4050  0.8646 -0.3085
 8019TIP3    H224022   5.467   2.141   0.930  1.0780  1.1076  0.1616
 8020TIP3   OH224023   1.789   3.474   2.422  0.2643 -0.2359 -0.5702
 8020TIP3    H124024   1.856   3.537   2.445  0.7705 -1.4991  1.7433
 8020TIP3    H224025   1.711   3.502   2.470 -0.0373 -0.3619 -0.9737
 8021TIP3   OH224026   0.141   5.844   3.811  0.1330  0.0523  0.3250
 8021TIP3    H124027   0.120   5.872   3.900  2.9234 -2.1485  1.8416
 8021TIP3    H224028   0.204   5.910   3.780  0.3240  0.0066  0.6060
 8022TIP3   OH224029   1.277   0.270   3.108  0.0543 -0.3438  0.3878
 8022TIP3    H124030   1.325   0.340   3.153 -1.9369  0.0523  2.0445
 8022TIP3    H224031   1.320   0.189   3.137  0.1156  0.0262  1.3610
 8023TIP3   OH224032   5.150   0.718   3.199 -0.0372  0.0635  0.2633
 8023TIP3    H124033   5.142   0.660   3.275  0.8024 -1.7674 -0.9936
 8023TIP3    H224034   5.222   0.776   3.220 -1.0519  0.8726  1.6532
 8024TIP3   OH224035   5.658   2.062   5.735 -0.3019 -0.0048  1.0777
 8024TIP3    H124036   5.619   1.990   5.785 -0.5421 -0.5997  0.0517
 8024TIP3    H224037   5.678   2.025   5.650  0.7835  0.8022  0.9503
 8025TIP3   OH224038   5.859   5.965   0.357 -0.0853 -0.1447 -0.2245
 8025TIP3    H124039   5.940   5.958   0.307 -0.2220 -0.7723 -0.3651
 8025TIP3    H224040   5.803   5.896   0.321  0.7301 -2.4094  2.4886
 8026TIP3   OH224041   4.259   5.882   3.137  0.4585  0.0446 -1.0591
 8026TIP3    H124042   4.343   5.841   3.152  0.4651 -0.3871 -2.1670
 8026TIP3    H224043   4.270   5.930   3.054 -0.3374  0.0934 -1.1482
 8027TIP3   OH224044   5.841   0.413   0.616  0.1404  0.4226  0.5168
 8027TIP3    H124045   5.894   0.491   0.630 -0.3482  0.7650  0.4944
 8027TIP3    H224046   5.853   0.361   0.695  0.8133  0.3143  0.3469
 8028TIP3   OH224047   1.806   4.242   1.095 -0.6383 -0.6321 -0.2544
 8028TIP3    H124048   1.784   4.164   1.145 -0.4923 -0.3007  0.3286
 8028TIP3    H224049   1.874   4.285   1.146 -2.0538  0.9016  0.4293
 8029TIP3   OH224050   1.271   5.801   3.611 -0.0939 -0.0452  0.0340
 8029TIP3    H124051   1.253   5.738   3.541  2.5892  0.3290 -1.1087
 8029TIP3    H224052   1.360   5.780   3.640  0.5847  2.6457  0.1730
 8030TIP3   OH224053   4.218   1.791   2.045 -0.0502  0.8013 -0.4126
 8030TIP3    H124054   4.155   1.739   2.094  0.4092 -0.9384 -1.5635
 8030TIP3    H224055   4.166   1.862   2.007 -1.4230 -0.7128 -1.5162
 8031TIP3   OH224056   0.033   3.503   3.996  0.1196 -0.4564  0.1819
 8031TIP3    H124057  -0.021   3.453   3.934 -1.2583 -0.7157  1.5249
 8031TIP3    H224058   0.103   3.443   4.020 -1.3543 -1.7319  1.5520
 8032TIP3   OH224059   7.106   6.119   1.107 -0.2512  0.2131 -0.5671
 8032TIP3    H124060   7.016   6.147   1.124 -0.2322  0.0019 -0.1268
 8032TIP3    H224061   7.113   6.120   1.011 -0.8863 -0.2984 -0.6208
 8033TIP3   OH224062   5.753   1.919   5.019 -0.2612 -0.1448  0.2223
 8033TIP3    H124063   5.720   1.962   4.940 -1.8765  1.3599  1.6398
 8033TIP3    H224064   5.675   1.885   5.063  0.5896 -0.8784  1.2508
 8034TIP3   OH224065   0.594   0.131   0.717  0.0129 -0.1350  0.6302
 8034TIP3    H124066   0.499   0.126   0.713  0.0956 -1.2442 -1.7482
 8034TIP3    H224067   0.621   0.046   0.753  0.1384 -0.7941 -0.9515
 8035TIP3   OH224068   2.609   4.135   4.072  0.3360  0.2550 -0.4396
 8035TIP3    H124069   2.660   4.185   4.136  0.5492 -1.0756  0.4605
 8035TIP3    H224070   2.528   4.114   4.117  0.0166  0.2549 -1.0062
 8036TIP3   OH224071   6.209   3.776   3.134 -0.2599  0.7297 -0.0693
 8036TIP3    H124072   6.151   3.839   3.176 -0.5746  0.9506 -0.8082
 8036TIP3    H224073   6.193   3.694   3.181 -0.7249  0.9272  0.1320
 8037TIP3   OH224074   6.894   1.484   0.833  0.2435 -0.0885  0.1573
 8037TIP3    H124075   6.861   1.430   0.762  0.6931 -3.3025  2.1694
 8037TIP3    H224076   6.961   1.539   0.793 -1.3785  0.2160 -2.3183
 8038TIP3   OH224077   3.933   1.708   2.586  0.0644 -0.8185  0.1337
 8038TIP3    H124078   3.877   1.782   2.608  0.6930 -0.0540 -0.7409
 8038TIP3    H224079   3.995   1.703   2.659  0.5730  0.1003 -0.2185
 8039TIP3   OH224080   4.267   2.411   2.214  0.4107  0.1116  0.2998
 8039TIP3    H124081   4.347   2.428   2.164  0.0053  0.4504 -0.2512
 8039TIP3    H224082   4.209   2.367   2.151  0.4832 -0.9574  0.9494
 8040TIP3   OH224083   5.276   1.035   2.441  0.2004  0.6994 -0.5669
 8040TIP3    H124084   5.340   0.966   2.454  1.9469  2.2109 -0.6460
 8040TIP3    H224085   5.244   1.022   2.352  0.6168  0.0944 -0.6344
 8041TIP3   OH224086   3.252   4.073   2.320 -0.0069 -0.0812 -0.0441
 8041TIP3    H124087   3.236   4.002   2.382  1.8051 -0.9437 -0.4981
 8041TIP3    H224088   3.165   4.095   2.286 -0.5663 -2.5428 -0.3866
 8042TIP3   OH224089   2.894   3.277   1.196 -0.5302 -0.0145 -0.3558
 8042TIP3    H124090   2.825   3.264   1.262 -0.7944 -0.1583 -0.6545
 8042TIP3    H224091   2.893   3.195   1.146 -0.3780  0.1226 -0.5798
 8043TIP3   OH224092   5.031   2.112   4.174  0.6034 -0.5132  0.0541
 8043TIP3    H124093   5.043   2.200   4.209 -1.8398 -0.3207  0.5636
 8043TIP3    H224094   5.073   2.114   4.088  0.5065  1.1808  0.0176
 8044TIP3   OH224095   6.040   1.455   1.958  0.3229 -0.1182 -0.2096
 8044TIP3    H124096   6.061   1.544   1.932  0.6584  0.0474  0.5946
 8044TIP3    H224097   6.043   1.457   2.054 -1.6870 -0.4952 -0.1013
 8045TIP3   OH224098   4.032   1.653   1.311 -0.4337  0.6106  0.1090
 8045TIP3    H124099   3.971   1.613   1.249  0.2785 -0.7775  0.2674
 8045TIP3    H224100   4.037   1.590   1.383  1.5269  0.4713 -0.1103
 8046TIP3   OH224101   3.783   0.175   2.433  0.2278  0.8682 -0.3518
 8046TIP3    H124102   3.775   0.197   2.525  0.6027  0.8716 -0.3176
 8046TIP3    H224103   3.723   0.102   2.420 -0.1031  1.1119 -0.1903
 8047TIP3   OH224104   3.035   1.244   3.111 -0.2411 -0.0624 -0.8755
 8047TIP3    H124105   3.052   1.182   3.182  0.0727  0.9050 -0.0742
 8047TIP3    H224106   3.076   1.325   3.141 -1.5642  0.8286 -1.4115
 8048TIP3   OH224107   0.787   1.007   1.317  0.0782 -0.3968  0.0677
 8048TIP3    H124108   0.789   1.093   1.275  2.0491 -0.6203 -0.4004
 8048TIP3    H224109   0.699   0.974   1.301  0.8451 -0.8287 -4.6580
 8049TIP3   OH224110   1.158   1.406   2.415  0.2316 -0.6384 -0.1284
 8049TIP3    H124111   1.209   1.477   2.377  0.1283 -0.7925 -0.5594
 8049TIP3    H224112   1.220   1.334   2.426 -0.1947 -1.3529 -2.0769
 8050TIP3   OH224113   2.137   2.464   1.949  0.0940  0.0388 -0.0112
 8050TIP3    H124114   2.123   2.454   1.855 -2.8722 -1.6166  0.4855
 8050TIP3    H224115   2.232   2.457   1.959  0.4073 -1.2304 -2.7353
 8051TIP3   OH224116   4.877   0.498   2.189  0.3896  0.6155  0.2987
 8051TIP3    H124117   4.782   0.497   2.199  0.4035 -0.1943  0.3936
 8051TIP3    H224118   4.910   0.508   2.279  0.3927  1.5704  0.2019
 8052TIP3   OH224119   0.774   2.208   3.785 -0.0487  0.1212  0.2650
 8052TIP3    H124120   0.705   2.202   3.719  1.6288  1.1687 -1.7095
 8052TIP3    H224121   0.782   2.120   3.820  0.2628 -0.9741 -2.3362
 8053TIP3   OH224122   0.672   0.696   4.262  0.1614  0.1098  0.6122
 8053TIP3    H124123   0.639   0.694   4.351 -0.9708  0.6399  0.2146
 8053TIP3    H224124   0.642   0.779   4.226 -0.0873 -0.4423 -0.5158
 8054TIP3   OH224125   3.537   2.945   0.449  0.4459  0.6766 -0.2944
 8054TIP3    H124126   3.552   2.950   0.354  1.7142  0.6041 -0.1051
 8054TIP3    H224127   3.616   2.982   0.488 -0.3768  1.3962  0.7431
 8055TIP3   OH224128   6.982   6.067   4.323  0.2704  0.0028 -0.1686
 8055TIP3    H124129   7.046   6.001   4.352  1.1907  0.3077 -1.4408
 8055TIP3    H224130   7.036   6.138   4.287 -0.7826  0.4063 -0.9824
 8056TIP3   OH224131   2.431   5.869   1.244 -0.1071 -0.2673 -0.0200
 8056TIP3    H124132   2.467   5.922   1.173 -0.1253 -0.9668 -0.5668
 8056TIP3    H224133   2.424   5.929   1.318 -2.6742  1.2577 -1.3468
 8057TIP3   OH224134   2.095   6.371   1.072 -0.0622  0.4146  0.5914
 8057TIP3    H124135   2.033   6.379   1.145 -0.1051  0.9828  0.4976
 8057TIP3    H224136   2.147   6.451   1.076 -2.1295  2.0337 -1.9080
 8058TIP3   OH224137   0.217   0.170   2.949 -0.5585 -0.0234 -0.1159
 8058TIP3    H124138   0.133   0.136   2.980  0.4572 -1.6497  1.0007
 8058TIP3    H224139   0.251   0.220   3.024  0.2701 -0.9118  0.1184
 8059TIP3   OH224140   3.049   0.049   5.120 -0.0322 -0.6364  0.3787
 8059TIP3    H124141   3.083   0.043   5.031  0.7139  1.2088  0.4914
 8059TIP3    H224142   3.124   0.032   5.176  0.1028  0.7296  0.6344
 8060TIP3   OH224143   0.898   3.817   3.784  0.0048  0.7288 -0.0656
 8060TIP3    H124144   0.870   3.885   3.844  0.0559  0.5897  0.1153
 8060TIP3    H224145   0.962   3.765   3.833 -0.7415 -0.0311  0.1280
 8061TIP3   OH224146   0.679   5.188   4.865 -0.4091  0.0211  0.4002
 8061TIP3    H124147   0.665   5.221   4.954 -1.1746  0.7201  0.0394
 8061TIP3    H224148   0.774   5.184   4.855 -0.2452  2.4896  0.3607
 8062TIP3   OH224149   2.197   6.238   4.203 -0.0304 -0.2045  0.0472
 8062TIP3    H124150   2.261   6.171   4.227  0.2606 -0.1148 -0.4897
 8062TIP3    H224151   2.117   6.188   4.183 -0.0398 -0.3343  0.3851
 8063TIP3   OH224152   4.240   0.632   2.637 -0.2046 -0.1252  0.4438
 8063TIP3    H124153   4.270   0.590   2.557 -0.9732 -2.2687  1.1994
 8063TIP3    H224154   4.294   0.710   2.645  0.3754 -0.2428 -1.7730
 8064TIP3   OH224155   2.338   4.259   2.628 -0.3077  0.1081  0.0962
 8064TIP3    H124156   2.422   4.251   2.674  0.1062 -1.4504 -0.8457
 8064TIP3    H224157   2.343   4.343   2.583  0.2276  0.5942  1.0342
 8065TIP3   OH224158   0.369   2.350   0.255 -0.0877  0.4644  0.5873
 8065TIP3    H124159   0.369   2.260   0.221  2.3595  0.9379 -0.8954
 8065TIP3    H224160   0.315   2.398   0.192 -0.2982  0.2812  0.6249
 8066TIP3   OH224161   2.616   2.758   3.619 -0.1089  0.4856  0.2667
 8066TIP3    H124162   2.536   2.788   3.661 -1.9312 -1.3980 -1.6294
 8066TIP3    H224163   2.586   2.712   3.541  2.8587 -0.1204 -0.6318
 8067TIP3   OH224164   0.037   3.784   0.756  0.4475 -0.4609  0.8053
 8067TIP3    H124165   0.105   3.720   0.772 -0.7162 -1.3926  2.3261
 8067TIP3    H224166   0.078   3.850   0.701  1.9563 -2.0161 -0.0247
 8068TIP3   OH224167   0.193   6.395   5.420 -0.5125  0.0774  0.5868
 8068TIP3    H124168   0.191   6.490   5.408  0.7979  0.2215  1.3627
 8068TIP3    H224169   0.243   6.382   5.501  0.3439 -1.3171 -0.1259
 8069TIP3   OH224170   4.532   1.011   1.025  0.0067  0.0180 -0.4543
 8069TIP3    H124171   4.580   0.957   1.087 -0.8995  0.0655  0.3206
 8069TIP3    H224172   4.567   1.099   1.037 -0.2907  0.0593  0.1335
 8070TIP3   OH224173   3.943   6.120   2.989  0.0021 -0.1706 -0.1782
 8070TIP3    H124174   3.941   6.026   2.974  2.0905 -0.2310 -0.3263
 8070TIP3    H224175   4.032   6.137   3.021 -0.6096  1.6316  0.6962
 8071TIP3   OH224176   2.702   4.453   4.989 -0.9904  0.0965  0.4949
 8071TIP3    H124177   2.686   4.430   4.898  0.1323  0.7494  0.1085
 8071TIP3    H224178   2.671   4.543   4.997  1.7701  1.1939 -0.1303
 8072TIP3   OH224179   5.535   1.369   5.305  0.0719 -0.1701 -0.0216
 8072TIP3    H124180   5.469   1.327   5.250  0.2073 -0.9313  0.3904
 8072TIP3    H224181   5.601   1.302   5.320  0.7279  0.4515 -0.0613
 8073TIP3   OH224182   4.731   5.463   4.296 -0.1563 -0.0932 -0.2089
 8073TIP3    H124183   4.676   5.422   4.363  1.0212 -0.9442  0.2780
 8073TIP3    H224184   4.812   5.484   4.341 -0.8478  3.3724 -0.2905
 8074TIP3   OH224185   5.774   0.885   4.640 -0.0310  0.0594  0.1926
 8074TIP3    H124186   5.840   0.819   4.664  0.3341  0.1911 -0.4221
 8074TIP3    H224187   5.768   0.878   4.545 -1.5389 -0.5363  0.3152
 8075TIP3   OH224188   2.228   1.654   2.519  0.4861  0.3691  0.4203
 8075TIP3    H124189   2.275   1.737   2.507  1.2692 -0.0233  0.7591
 8075TIP3    H224190   2.166   1.652   2.446  0.0687  1.5132  0.7099
 8076TIP3   OH224191   2.592   6.700   4.639  0.2011 -0.0731 -0.1247
 8076TIP3    H124192   2.506   6.666   4.661  0.8974 -1.5715  0.4404
 8076TIP3    H224193   2.584   6.730   4.548 -0.8143 -0.5242 -0.1952
 8077TIP3   OH224194   3.313   4.280   1.033  0.3746  0.1598 -0.8716
 8077TIP3    H124195   3.350   4.194   1.013  0.2008 -0.1344  0.0544
 8077TIP3    H224196   3.389   4.335   1.053  0.3731 -0.2495  0.2907
 8078TIP3   OH224197   6.478   3.971   2.802  0.1633  0.0624  0.3003
 8078TIP3    H124198   6.566   3.953   2.769 -0.0302 -2.0461  0.7709
 8078TIP3    H224199   6.469   3.913   2.878 -0.9466  1.6565  1.4665
 8079TIP3   OH224200   0.186   3.884   5.789  0.1187  0.3589  0.2235
 8079TIP3    H124201   0.249   3.816   5.769  0.2376  0.2193  1.0517
 8079TIP3    H224202   0.176   3.932   5.706 -0.4239 -1.0143 -0.5467
 8080TIP3   OH224203   1.896   0.042   4.350 -0.1515 -0.1338  0.0547
 8080TIP3    H124204   1.989   0.061   4.364 -0.2173 -0.2270  0.6484
 8080TIP3    H224205   1.889  -0.052   4.364 -0.5950  0.1008  1.5452
 8081TIP3   OH224206   3.645   3.640   3.339  0.2447  0.0240 -0.1421
 8081TIP3    H124207   3.555   3.622   3.366  0.7012  0.1522  1.5548
 8081TIP3    H224208   3.636   3.702   3.267 -1.0630 -1.2087 -1.0914
 8082TIP3   OH224209   1.623   2.501   3.587  0.2600 -0.1665  0.0067
 8082TIP3    H124210   1.680   2.498   3.510  0.2973  0.9542 -0.0282
 8082TIP3    H224211   1.567   2.577   3.572 -0.8840 -0.9309  0.2955
 8083TIP3   OH224212   6.163   5.017   1.624 -0.9710  0.9631 -0.2718
 8083TIP3    H124213   6.242   4.982   1.584 -1.5351  1.2900 -1.7276
 8083TIP3    H224214   6.181   5.110   1.636 -0.6841  0.8063  0.5555
 8084TIP3   OH224215   6.128   5.219   5.392  0.0579  0.8253 -0.1471
 8084TIP3    H124216   6.180   5.222   5.472  0.7143 -1.5339 -0.3901
 8084TIP3    H224217   6.054   5.162   5.414 -1.3470  2.4549 -0.4300
 8085TIP3   OH224218   2.849   1.844   1.586  0.2027 -0.1777 -0.5750
 8085TIP3    H124219   2.755   1.860   1.584  0.0307 -1.1430 -0.7596
 8085TIP3    H224220   2.883   1.889   1.508 -0.1961 -0.3226 -0.8360
 8086TIP3   OH224221   4.753   2.253   2.036  0.4692  0.0767 -0.2408
 8086TIP3    H124222   4.788   2.342   2.036  2.3657 -0.5878  2.0641
 8086TIP3    H224223   4.773   2.220   1.948  0.4664  1.6020 -0.8522
 8087TIP3   OH224224   3.167   2.542   5.361 -0.4975 -0.0499 -0.5831
 8087TIP3    H124225   3.147   2.545   5.455  1.4462  0.3149 -0.1258
 8087TIP3    H224226   3.086   2.569   5.318 -0.8090  1.9491  1.0868
 8088TIP3   OH224227   1.919   5.065   2.379 -0.4944  0.0781  0.1193
 8088TIP3    H124228   1.923   5.066   2.284  2.8744  1.7880  0.1307
 8088TIP3    H224229   1.873   5.146   2.402  1.2890  1.2115 -0.1257
 8089TIP3   OH224230   3.627   2.531   2.461  0.3836 -0.5919  0.2384
 8089TIP3    H124231   3.695   2.598   2.466  0.0357 -0.1914 -0.2845
 8089TIP3    H224232   3.575   2.544   2.541 -1.6810  1.9717 -1.3723
 8090TIP3   OH224233   5.411   3.805   3.935 -0.3910  0.2638  0.6911
 8090TIP3    H124234   5.384   3.876   3.993 -1.5386 -0.7366  1.4352
 8090TIP3    H224235   5.468   3.846   3.871 -1.1967  1.8898  0.9767
 8091TIP3   OH224236   4.415   2.215   3.515 -0.7496 -0.0973  0.5084
 8091TIP3    H124237   4.387   2.297   3.475  0.4694 -0.5621 -1.4247
 8091TIP3    H224238   4.335   2.181   3.557 -1.7102  1.1808 -0.2001
 8092TIP3   OH224239   4.946   6.726   1.155  0.2033  0.0060  0.6350
 8092TIP3    H124240   5.014   6.681   1.205  0.1709  0.1031  0.7696
 8092TIP3    H224241   4.875   6.739   1.218  0.1952  0.2052  0.5867
 8093TIP3   OH224242   1.665   5.310   3.648 -0.2899 -0.2428 -0.4642
 8093TIP3    H124243   1.589   5.253   3.637 -1.7405  1.4910  0.0614
 8093TIP3    H224244   1.694   5.329   3.558 -0.7278 -0.5995 -0.6861
 8094TIP3   OH224245   4.025   5.413   4.326  0.4919 -0.6758  0.3243
 8094TIP3    H124246   4.063   5.501   4.331  2.6727 -1.5118 -0.4206
 8094TIP3    H224247   4.016   5.395   4.233 -1.2745 -0.7494  0.4723
 8095TIP3   OH224248   0.725   1.374   3.114  0.3155  1.0510  0.0998
 8095TIP3    H124249   0.670   1.295   3.111  1.2975  0.3834 -0.9340
 8095TIP3    H224250   0.682   1.435   3.054  0.2756  0.8004 -0.1330
 8096TIP3   OH224251   6.279   0.245   0.577 -0.4302 -0.0015  0.1625
 8096TIP3    H124252   6.276   0.202   0.491  1.0972  0.5263 -0.1832
 8096TIP3    H224253   6.282   0.338   0.556 -0.6307  0.1532  0.8226
 8097TIP3   OH224254   0.162   2.416   2.399 -0.1938  0.2910 -0.2459
 8097TIP3    H124255   0.178   2.431   2.306 -1.1087  0.4932 -0.3809
 8097TIP3    H224256   0.087   2.356   2.401  0.6344 -0.7515  0.3532
 8098TIP3   OH224257   4.176   3.449   3.557  0.0154 -0.3672  0.2813
 8098TIP3    H124258   4.154   3.359   3.531  2.4017 -1.2124  0.9266
 8098TIP3    H224259   4.178   3.498   3.474 -0.6937 -1.0260 -0.1461
 8099TIP3   OH224260   6.296   2.350   4.124 -0.1973 -0.3717  0.4054
 8099TIP3    H124261   6.304   2.267   4.171  1.3256  0.3495  1.4956
 8099TIP3    H224262   6.344   2.336   4.042 -1.1246 -0.9926 -0.0375
 8100TIP3   OH224263   6.861   2.200   2.301 -0.5406  1.2094  0.0583
 8100TIP3    H124264   6.956   2.200   2.301 -0.4709 -1.2294 -0.8361
 8100TIP3    H224265   6.837   2.172   2.213 -2.1553  2.6946 -0.0403
 8101TIP3   OH224266   2.635   3.332   4.177  0.1702  0.0081  0.2900
 8101TIP3    H124267   2.545   3.354   4.154 -0.8245 -3.3569  0.3037
 8101TIP3    H224268   2.689   3.391   4.124 -2.0535 -0.0725 -2.3178
 8102TIP3   OH224269   0.913   3.094   4.671  0.1745 -0.2615 -0.0544
 8102TIP3    H124270   0.939   3.126   4.585 -2.1404 -0.6945 -0.9697
 8102TIP3    H224271   0.877   3.170   4.716 -0.7625 -0.5155 -0.3625
 8103TIP3   OH224272   2.528   3.066   0.125 -0.0554  0.3960  0.0264
 8103TIP3    H124273   2.450   3.101   0.169  0.2501  0.4466  0.5406
 8103TIP3    H224274   2.542   3.125   0.051  0.2329  1.1617  0.6710
 8104TIP3   OH224275   2.820   3.049   5.187 -0.7341 -0.1673 -0.2162
 8104TIP3    H124276   2.775   3.010   5.262  0.5838  0.9419  1.2113
 8104TIP3    H224277   2.751   3.067   5.124 -1.9248 -0.8725  0.8473
 8105TIP3   OH224278   3.747   2.521   1.041  0.2610  0.0057 -0.1017
 8105TIP3    H124279   3.773   2.485   0.956  0.2374 -1.1647  0.3657
 8105TIP3    H224280   3.665   2.567   1.023 -0.9174 -2.0828 -0.3461
 8106TIP3   OH224281   1.792   2.875   4.969 -0.1598 -0.7595 -0.1511
 8106TIP3    H124282   1.810   2.968   4.957 -0.4341 -0.6255  0.4612
 8106TIP3    H224283   1.772   2.866   5.062 -0.4087 -1.3863 -0.2619
 8107TIP3   OH224284   3.117   0.614   0.784 -0.4631 -0.7537 -0.5836
 8107TIP3    H124285   3.127   0.565   0.866 -0.5119  0.4966  0.1904
 8107TIP3    H224286   3.085   0.549   0.721  0.7405 -2.0084  0.0614
 8108TIP3   OH224287   4.385   0.404   5.357 -0.3496 -0.5506  0.4273
 8108TIP3    H124288   4.309   0.435   5.406  0.4726  3.1988 -0.3024
 8108TIP3    H224289   4.389   0.462   5.281  0.6860 -3.5853 -2.0396
 8109TIP3   OH224290   1.780   0.759   5.694  0.3071  0.0661  0.0698
 8109TIP3    H124291   1.784   0.676   5.741  0.0737  0.6758  1.1983
 8109TIP3    H224292   1.690   0.764   5.661 -0.0435  0.4282  1.0607
 8110TIP3   OH224293   1.108   4.419   4.861  0.9236  0.0494 -0.0639
 8110TIP3    H124294   1.089   4.407   4.954  2.0681  1.7582  0.4268
 8110TIP3    H224295   1.026   4.397   4.817 -0.6887  2.3465  1.5763
 8111TIP3   OH224296   1.682   3.886   0.354 -0.8032 -0.3618 -0.0819
 8111TIP3    H124297   1.765   3.847   0.325 -1.0108 -0.1764 -0.9446
 8111TIP3    H224298   1.707   3.946   0.424 -0.1762 -0.1407 -0.4870
 8112TIP3   OH224299   2.393   3.185   4.042  0.4468  0.6322  0.3165
 8112TIP3    H124300   2.399   3.148   3.954 -0.5337  3.3272 -1.0158
 8112TIP3    H224301   2.335   3.125   4.089 -1.3961  0.5747 -1.8183
 8113TIP3   OH224302   1.770   3.647   2.902 -0.2203 -0.1305 -0.1046
 8113TIP3    H124303   1.793   3.637   2.810 -0.5935 -0.8778 -0.1217
 8113TIP3    H224304   1.729   3.733   2.907 -0.4190 -0.1839 -0.6853
 8114TIP3   OH224305   6.128   6.783   5.704 -0.3782 -0.4208 -0.8868
 8114TIP3    H124306   6.063   6.850   5.727 -0.7305 -0.9841 -0.2291
 8114TIP3    H224307   6.076   6.711   5.669 -0.0649 -0.6696 -0.8397
 8115TIP3   OH224308   3.656   0.257   1.895  0.4043  0.2647 -0.3802
 8115TIP3    H124309   3.654   0.254   1.799  1.3141 -0.3253 -0.3913
 8115TIP3    H224310   3.632   0.168   1.921  0.6725  0.2825 -0.0714
 8116TIP3   OH224311   0.880   3.756   0.307  0.0389 -0.4260 -0.1265
 8116TIP3    H124312   0.788   3.769   0.287  0.5645  1.3936 -1.6830
 8116TIP3    H224313   0.883   3.671   0.352 -2.4386 -0.2031  0.6098
 8117TIP3   OH224314   2.888   6.535   1.309 -0.0510 -0.0512 -0.2270
 8117TIP3    H124315   2.959   6.597   1.323  0.2016 -0.4279  0.1372
 8117TIP3    H224316   2.813   6.575   1.353 -0.2598  0.6960 -1.2157
 8118TIP3   OH224317   4.490   3.475   0.981 -0.4179 -0.4564  0.4784
 8118TIP3    H124318   4.535   3.549   1.020 -0.7683 -0.6132  1.1977
 8118TIP3    H224319   4.413   3.514   0.938 -0.6766 -0.4188  0.9746
 8119TIP3   OH224320   3.330   5.999   0.846  0.1062  0.4183  0.3713
 8119TIP3    H124321   3.354   5.994   0.754 -0.3505  1.5601  0.1731
 8119TIP3    H224322   3.250   6.052   0.848 -0.6987 -0.7655  1.2987
 8120TIP3   OH224323   3.558   1.135   2.419  0.1512  0.2275 -0.0306
 8120TIP3    H124324   3.615   1.183   2.478 -1.1199  0.3080  1.1817
 8120TIP3    H224325   3.535   1.198   2.351  1.7700  0.0814 -0.7593
 8121TIP3   OH224326   6.211   6.631   0.114  0.2318 -0.3273 -0.0381
 8121TIP3    H124327   6.211   6.631   0.210 -0.9950 -0.1503 -0.0161
 8121TIP3    H224328   6.303   6.619   0.090  0.9514  2.1159  1.1495
 8122TIP3   OH224329   1.046   5.291   5.639 -0.1145  0.1063  0.4408
 8122TIP3    H124330   0.994   5.370   5.652  0.2902  0.4934 -0.2226
 8122TIP3    H224331   1.033   5.269   5.546  0.5996 -0.0132  0.3649
 8123TIP3   OH224332   3.874   1.243   1.971  0.0217  0.2528  0.2205
 8123TIP3    H124333   3.806   1.222   1.907 -0.0832 -1.5011  0.8494
 8123TIP3    H224334   3.954   1.208   1.933 -0.2165 -1.8095  1.4665
 8124TIP3   OH224335   4.446   4.703   5.888 -0.0733  0.0855 -0.1902
 8124TIP3    H124336   4.428   4.667   5.801  0.6449  4.3151 -2.3885
 8124TIP3    H224337   4.372   4.762   5.904 -0.0999 -0.4986  2.0610
 8125TIP3   OH224338   6.414   2.721   2.797  0.0837  0.0723  0.0803
 8125TIP3    H124339   6.424   2.662   2.722  2.2662  0.1569  0.2476
 8125TIP3    H224340   6.437   2.808   2.763  0.5907  0.1952  0.7100
 8126TIP3   OH224341   1.466   3.244   2.678 -0.6760 -0.3366 -0.0541
 8126TIP3    H124342   1.547   3.246   2.626 -0.4750  1.1315  0.2585
 8126TIP3    H224343   1.402   3.200   2.622 -0.0140 -0.2989 -0.8514
 8127TIP3   OH224344   6.873   5.755   3.911 -0.2425 -0.3009 -0.0127
 8127TIP3    H124345   6.916   5.806   3.980 -0.7275 -0.7215  0.6070
 8127TIP3    H224346   6.891   5.664   3.934  0.8127 -0.4394 -1.2342
 8128TIP3   OH224347   5.203   2.364   1.730  0.4636 -0.2818  0.6509
 8128TIP3    H124348   5.260   2.382   1.804 -0.3638  1.7358  0.8671
 8128TIP3    H224349   5.263   2.344   1.658  1.5889  2.7535  0.6028
 8129TIP3   OH224350   4.921   6.527   3.055  0.3164  0.1047 -0.5727
 8129TIP3    H124351   5.000   6.473   3.056  0.9030  0.9220 -1.5453
 8129TIP3    H224352   4.896   6.532   2.963 -0.4753  0.4376 -0.3489
 8130TIP3   OH224353   6.060   6.090   4.635 -0.2659  0.0439  0.7321
 8130TIP3    H124354   6.074   6.020   4.571  0.5861  1.3016 -0.5139
 8130TIP3    H224355   5.968   6.115   4.623  0.1323  0.9284 -0.7507
 8131TIP3   OH224356   6.511   4.124   5.332 -0.3023  0.3208 -0.5018
 8131TIP3    H124357   6.532   4.120   5.425  0.6032  1.9687 -0.5969
 8131TIP3    H224358   6.591   4.092   5.289 -0.8182 -0.7032 -0.7225
 8132TIP3   OH224359   5.354   5.115   5.470  0.0219  0.6537  0.1758
 8132TIP3    H124360   5.439   5.074   5.460 -0.5571 -0.5740  0.1797
 8132TIP3    H224361   5.312   5.106   5.384 -1.4757 -1.9679  1.0818
 8133TIP3   OH224362   4.089   5.655   0.466 -0.3769  0.3461 -0.1758
 8133TIP3    H124363   4.033   5.683   0.539 -0.6128 -0.1807 -0.1510
 8133TIP3    H224364   4.063   5.564   0.450  2.0339 -0.7021  1.3382
 8134TIP3   OH224365   1.369   2.116   2.147 -0.3511  0.4240 -0.3586
 8134TIP3    H124366   1.331   2.028   2.139  0.1360  0.2645 -0.9607
 8134TIP3    H224367   1.453   2.102   2.191  0.1388  0.4749 -1.2670
 8135TIP3   OH224368   0.752   6.481   3.807 -0.1109 -0.3285 -0.4077
 8135TIP3    H124369   0.824   6.498   3.868 -1.6259  1.2085  1.0560
 8135TIP3    H224370   0.769   6.392   3.775  2.3741 -0.0548 -0.0961
 8136TIP3   OH224371   3.597   6.496   4.898 -0.1097  0.6095 -0.1965
 8136TIP3    H124372   3.631   6.436   4.965  1.0855 -0.2582 -1.5312
 8136TIP3    H224373   3.583   6.440   4.821  0.3230  1.9135 -1.2474
 8137TIP3   OH224374   1.522   3.108   1.267  0.2413 -0.3819  0.3835
 8137TIP3    H124375   1.488   3.144   1.185  0.9408 -2.0335 -0.6803
 8137TIP3    H224376   1.469   3.029   1.282  1.3836 -1.1479  0.4857
 8138TIP3   OH224377   1.193   3.001   0.690  0.3566 -0.4552  0.1818
 8138TIP3    H124378   1.193   2.951   0.772 -0.0556  0.4703  0.7761
 8138TIP3    H224379   1.255   3.072   0.706  0.8634 -0.7149 -0.6094
 8139TIP3   OH224380   6.987   6.672   0.325  0.0873  0.2092  0.2801
 8139TIP3    H124381   7.074   6.712   0.323 -1.7119  4.7039 -0.2580
 8139TIP3    H224382   6.982   6.630   0.411  2.7899 -0.4133  0.2214
 8140TIP3   OH224383   4.040   1.993   1.805 -0.3718 -0.4625  0.4018
 8140TIP3    H124384   4.060   1.918   1.750 -2.9033  0.4635 -1.9705
 8140TIP3    H224385   3.972   1.962   1.864  0.4590 -0.7095  1.2579
 8141TIP3   OH224386   1.637   1.004   4.540 -0.1206  0.0686  0.0222
 8141TIP3    H124387   1.657   1.063   4.613  0.1495 -0.5891  0.4901
 8141TIP3    H224388   1.542   0.989   4.547  0.1435 -1.2786  1.2571
 8142TIP3   OH224389   2.031   5.149   5.158 -0.3623 -0.0915 -0.3449
 8142TIP3    H124390   2.018   5.190   5.073 -2.4041 -1.1603 -0.6131
 8142TIP3    H224391   1.970   5.075   5.159  1.8378 -2.0482  0.8145
 8143TIP3   OH224392   2.847   0.589   0.210 -0.8275  0.0163  0.0091
 8143TIP3    H124393   2.889   0.535   0.144  0.2515 -2.3488  2.4165
 8143TIP3    H224394   2.755   0.562   0.210 -0.9280  0.3338 -0.7407
 8144TIP3   OH224395   3.165   4.514   3.965 -0.3109  0.6733 -0.1292
 8144TIP3    H124396   3.184   4.425   3.996  2.1726  1.5859  1.2676
 8144TIP3    H224397   3.083   4.505   3.916 -1.3215 -1.9633  1.8037
 8145TIP3   OH224398   4.449   2.604   1.932  0.6094 -0.2025 -0.0448
 8145TIP3    H124399   4.415   2.619   1.844  1.3595  0.5328 -0.2130
 8145TIP3    H224400   4.397   2.662   1.988  1.5627  0.9236 -0.3024
 8146TIP3   OH224401   3.509   6.450   1.839 -0.1166  0.0717 -0.0480
 8146TIP3    H124402   3.554   6.461   1.755  0.4905  0.2562  0.2924
 8146TIP3    H224403   3.479   6.359   1.838 -1.8197  0.5982 -1.2706
 8147TIP3   OH224404   5.397   2.613   1.198  0.2227  0.4654 -0.2891
 8147TIP3    H124405   5.426   2.573   1.280 -2.4951 -1.8453 -0.3022
 8147TIP3    H224406   5.461   2.585   1.133  1.3555  0.7308  0.6770
 8148TIP3   OH224407   0.863   6.106   3.614 -0.0299 -0.0563 -0.5872
 8148TIP3    H124408   0.849   6.016   3.644  0.8669  0.7675  2.7953
 8148TIP3    H224409   0.959   6.113   3.606 -0.1206  0.4908 -1.2480
 8149TIP3   OH224410   1.072   5.925   1.247 -0.0790 -0.0822 -0.3430
 8149TIP3    H124411   1.079   5.979   1.168 -0.6158 -1.2457 -1.2153
 8149TIP3    H224412   1.140   5.859   1.237  0.1625  0.0441  0.4115
 8150TIP3   OH224413   1.392   5.137   4.820  0.2960 -0.6022 -0.3885
 8150TIP3    H124414   1.316   5.179   4.861 -0.1058 -4.1350  3.1325
 8150TIP3    H224415   1.356   5.087   4.747 -0.3806 -0.3850 -0.2067
 8151TIP3   OH224416   0.730   6.275   0.800  0.0126  0.1268 -0.3681
 8151TIP3    H124417   0.637   6.274   0.776 -0.2743  0.6336  0.6500
 8151TIP3    H224418   0.750   6.185   0.823  0.3948 -0.4712 -2.7050
 8152TIP3   OH224419   1.177   5.446   2.738  0.2775 -0.4787  0.2590
 8152TIP3    H124420   1.197   5.497   2.659  0.6967 -2.3466 -0.9092
 8152TIP3    H224421   1.098   5.487   2.774 -0.1512  0.1730 -1.3532
 8153TIP3   OH224422   4.020   5.367   0.489  0.3731 -0.3657  0.0253
 8153TIP3    H124423   3.991   5.398   0.575  2.8847  1.1398  0.4366
 8153TIP3    H224424   4.070   5.288   0.507 -0.5799 -1.0712 -0.3086
 8154TIP3   OH224425   4.460   6.719   1.493 -0.3246 -0.1403  0.0727
 8154TIP3    H124426   4.384   6.777   1.487 -1.7492 -1.8765  0.5966
 8154TIP3    H224427   4.482   6.717   1.586  1.9219  2.1718 -0.2956
 8155TIP3   OH224428   0.304   4.877   4.231  0.0087 -0.4874  0.2539
 8155TIP3    H124429   0.277   4.825   4.155 -0.3432 -2.2577  1.5426
 8155TIP3    H224430   0.376   4.827   4.271  2.0187  1.7318 -0.3474
 8156TIP3   OH224431   2.705   4.362   2.593  0.5894  0.5858 -0.3542
 8156TIP3    H124432   2.782   4.419   2.601 -1.2472  3.7329 -2.5142
 8156TIP3    H224433   2.642   4.398   2.655 -0.2038  0.1768 -0.9015
 8157TIP3   OH224434   2.262   3.425   5.332 -0.4730  0.1429 -0.1664
 8157TIP3    H124435   2.199   3.425   5.405 -1.4990  1.3430 -1.0032
 8157TIP3    H224436   2.253   3.512   5.294  0.7097 -0.1638 -1.1771
 8158TIP3   OH224437   2.500   3.506   5.135 -0.4013 -0.6791 -0.0010
 8158TIP3    H124438   2.520   3.520   5.228 -2.1315  0.0218  0.3064
 8158TIP3    H224439   2.534   3.419   5.116  1.7355 -0.0836  0.7454
 8159TIP3   OH224440   3.255   1.392   5.844  0.3120  0.0748  0.8294
 8159TIP3    H124441   3.342   1.423   5.819  0.7784 -0.4180  1.8098
 8159TIP3    H224442   3.199   1.417   5.770  1.2022  0.7453  0.3588
 8160TIP3   OH224443   1.363   2.160   0.311 -0.5875  0.0212 -0.0136
 8160TIP3    H124444   1.376   2.065   0.311  0.5404  0.1658 -0.5111
 8160TIP3    H224445   1.296   2.174   0.245  1.4954 -0.1778 -2.3009
 8161TIP3   OH224446   0.664   6.739   0.241  0.0194 -0.3187  0.3093
 8161TIP3    H124447   0.749   6.706   0.213  0.6002  0.4540  1.0859
 8161TIP3    H224448   0.674   6.753   0.335 -1.4168 -1.5160  0.6772
 8162TIP3   OH224449   0.392   0.913   5.296 -0.4436  0.2037  0.6140
 8162TIP3    H124450   0.472   0.899   5.346  0.0764 -0.6871 -0.4276
 8162TIP3    H224451   0.416   0.978   5.230 -0.4904 -0.2925  0.1051
 8163TIP3   OH224452   1.009   1.646   1.342  0.0010  0.3952  0.4042
 8163TIP3    H124453   0.925   1.666   1.382 -0.9784 -1.7268 -0.4756
 8163TIP3    H224454   0.989   1.627   1.250  1.7243  1.7245 -0.3031
 8164TIP3   OH224455   1.938   2.226   3.201  1.0802  0.3950 -0.0416
 8164TIP3    H124456   2.033   2.237   3.195  1.2803 -0.3194  1.2990
 8164TIP3    H224457   1.925   2.179   3.284 -0.3498 -0.7896 -0.8949
 8165TIP3   OH224458   5.298   2.283   4.018  0.6417 -0.0098  0.7559
 8165TIP3    H124459   5.384   2.271   3.979  0.8351  0.9635  0.8524
 8165TIP3    H224460   5.248   2.206   3.991  1.6045 -0.6942  0.8825
 8166TIP3   OH224461   3.486   1.529   5.767  0.1257 -0.1251 -0.9257
 8166TIP3    H124462   3.542   1.460   5.732  1.4253  0.7863 -0.7035
 8166TIP3    H224463   3.522   1.548   5.854 -2.2156 -1.4080  0.4337
 8167TIP3   OH224464   0.535   3.097   2.153 -0.1019  0.1705 -0.3473
 8167TIP3    H124465   0.586   3.025   2.116 -1.7093 -0.7235 -0.9312
 8167TIP3    H224466   0.471   3.055   2.210 -0.6284  1.1936 -0.1441
 8168TIP3   OH224467   5.697   6.297   0.532  0.0305  0.0120 -0.2071
 8168TIP3    H124468   5.607   6.326   0.524 -0.2248 -0.8848 -0.7479
 8168TIP3    H224469   5.691   6.211   0.575  0.5690 -0.2785 -0.6911
 8169TIP3   OH224470   3.484   2.611   2.975 -0.9589 -1.1910  0.4260
 8169TIP3    H124471   3.427   2.647   3.042 -3.1865 -2.2112 -0.8223
 8169TIP3    H224472   3.522   2.533   3.015 -1.2085 -1.0541  0.9422
 8170TIP3   OH224473   3.437   0.754   1.123 -0.0837  0.9086 -0.4968
 8170TIP3    H124474   3.479   0.821   1.177  0.8599 -1.2751  1.6422
 8170TIP3    H224475   3.492   0.748   1.045  1.0822  1.1168  0.2829
 8171TIP3   OH224476   7.166   1.793   1.429 -0.1625 -0.2081  0.0818
 8171TIP3    H124477   7.143   1.863   1.369  2.4019  0.8570  0.2139
 8171TIP3    H224478   7.129   1.820   1.513  2.2165  1.9720  0.5424
 8172TIP3   OH224479   4.673   3.067   4.877  0.0735  0.3695 -0.6179
 8172TIP3    H124480   4.695   3.158   4.895  4.6329 -0.3596 -1.1653
 8172TIP3    H224481   4.602   3.071   4.813  0.5355  3.5609 -1.0841
 8173TIP3   OH224482   0.714   1.965   2.104 -0.0320 -0.2644  0.7922
 8173TIP3    H124483   0.708   2.057   2.132  0.4015  0.4838 -1.3739
 8173TIP3    H224484   0.630   1.948   2.062  1.3400  0.6075 -2.6456
 8174TIP3   OH224485   2.464   1.241   3.527 -0.1107  0.3477 -0.1849
 8174TIP3    H124486   2.402   1.181   3.485 -0.0660  0.2443 -0.1025
 8174TIP3    H224487   2.490   1.301   3.457 -1.2403  1.1544  0.0575
 8175TIP3   OH224488   4.463   2.751   3.290 -0.2719  0.1068 -0.7432
 8175TIP3    H124489   4.541   2.695   3.293 -0.4701 -0.1888 -0.9706
 8175TIP3    H224490   4.423   2.730   3.206 -0.4525  0.4552 -0.7417
 8176TIP3   OH224491   5.354   6.022   2.241  0.1430 -0.5867 -0.0560
 8176TIP3    H124492   5.333   6.111   2.271 -0.1941 -0.3530 -0.9640
 8176TIP3    H224493   5.287   5.967   2.282  1.9632 -0.8860  2.8334
 8177TIP3   OH224494   6.493   2.261   3.546 -0.0503 -0.4697 -0.3967
 8177TIP3    H124495   6.419   2.309   3.583  0.9838  1.3195 -0.5396
 8177TIP3    H224496   6.486   2.174   3.585 -2.0695 -0.2925 -0.2157
 8178TIP3   OH224497   0.332   4.972   3.105  0.0237 -0.2180 -0.2263
 8178TIP3    H124498   0.358   4.995   3.016 -0.3965 -0.0415 -0.3051
 8178TIP3    H224499   0.265   4.904   3.094  0.9604 -1.2032 -0.0068
 8179TIP3   OH224500   1.020   4.194   1.297  0.2021 -0.1379 -0.0527
 8179TIP3    H124501   0.960   4.268   1.301  1.3446  0.7707  2.1120
 8179TIP3    H224502   1.028   4.174   1.204 -0.7486  1.9587 -0.6402
 8180TIP3   OH224503   0.891   2.002   4.995 -0.5124  0.0661  0.2501
 8180TIP3    H124504   0.922   2.052   4.920 -1.5323  0.0001 -0.2339
 8180TIP3    H224505   0.907   1.911   4.972  2.5278  0.1068  1.6558
 8181TIP3   OH224506   5.322   4.680   5.016  0.0030 -0.1437 -0.0264
 8181TIP3    H124507   5.353   4.599   5.058  0.1206  0.4683  1.0998
 8181TIP3    H224508   5.236   4.695   5.053  0.6939  1.1853  1.1361
 8182TIP3   OH224509   5.847   5.870   1.829  0.4018  0.1055  0.2453
 8182TIP3    H124510   5.806   5.786   1.811  1.0617 -0.0625 -0.5026
 8182TIP3    H224511   5.865   5.908   1.743  1.3051  0.4154  0.5562
 8183TIP3   OH224512   4.039   4.259   2.416 -0.1050  0.0392 -0.7491
 8183TIP3    H124513   3.968   4.225   2.363 -0.1540 -1.2903  0.1143
 8183TIP3    H224514   4.115   4.262   2.357 -0.5225  0.0591 -1.2849
 8184TIP3   OH224515   6.402   0.735   2.714  0.2522 -0.3370  0.1618
 8184TIP3    H124516   6.386   0.800   2.645  2.9155 -0.3349 -0.5729
 8184TIP3    H224517   6.387   0.651   2.672  0.2312 -0.2836  0.0633
 8185TIP3   OH224518   3.092   6.352   2.936 -0.4691 -0.1699 -0.2388
 8185TIP3    H124519   3.045   6.412   2.993  0.8838 -0.7130  1.5517
 8185TIP3    H224520   3.098   6.270   2.986 -0.4518 -1.1411 -1.7473
 8186TIP3   OH224521   7.169   5.281   1.477 -0.3415 -0.1891  0.3930
 8186TIP3    H124522   7.235   5.234   1.529  1.3157 -1.1300 -2.3406
 8186TIP3    H224523   7.095   5.290   1.536  1.2165 -1.5757  2.7561
 8187TIP3   OH224524   4.593   5.290   0.674 -0.3344 -0.6444  0.2874
 8187TIP3    H124525   4.510   5.260   0.711 -0.8260 -1.1366 -1.1757
 8187TIP3    H224526   4.642   5.210   0.657 -1.2767 -0.6900 -2.7586
 8188TIP3   OH224527   3.759   6.744   1.651 -0.5528  0.1041 -0.1605
 8188TIP3    H124528   3.768   6.791   1.734  1.7957  1.2880 -1.0092
 8188TIP3    H224529   3.704   6.800   1.597  0.4357  0.8266 -0.4260
 8189TIP3   OH224530   1.945   4.261   0.708  0.5660 -0.4169 -0.3548
 8189TIP3    H124531   1.996   4.339   0.727  0.5047 -0.7929  1.5031
 8189TIP3    H224532   1.946   4.211   0.789 -1.0444 -1.4125 -0.8974
 8190TIP3   OH224533   3.085   6.235   4.064 -0.3275  0.0160 -0.3638
 8190TIP3    H124534   3.000   6.205   4.032 -0.6821  1.4298 -0.8118
 8190TIP3    H224535   3.069   6.264   4.154  0.3188 -2.3677  0.6036
 8191TIP3   OH224536   2.619   0.342   4.484  0.0218 -0.6283 -0.0877
 8191TIP3    H124537   2.680   0.317   4.553 -1.3077  0.1647  1.4353
 8191TIP3    H224538   2.575   0.261   4.461  1.2318 -1.1096 -0.8426
 8192TIP3   OH224539   1.974   1.755   4.664  0.2600 -0.5372 -0.1988
 8192TIP3    H124540   1.891   1.715   4.638 -0.3083  1.3749 -1.5183
 8192TIP3    H224541   2.040   1.693   4.635 -0.6418 -1.6022 -0.0685
 8193TIP3   OH224542   5.558   5.813   5.526  0.0198 -0.4797 -0.1738
 8193TIP3    H124543   5.565   5.875   5.453 -0.8390 -1.8231 -1.4513
 8193TIP3    H224544   5.495   5.854   5.586 -0.9360 -0.3425 -1.2464
 8194TIP3   OH224545   7.081   2.572   4.127 -0.4720  1.2052 -0.7756
 8194TIP3    H124546   7.036   2.569   4.211 -1.1120 -0.5822 -1.1181
 8194TIP3    H224547   7.154   2.510   4.136 -1.0719  0.3065 -1.7642
 8195TIP3   OH224548   3.886   1.064   4.514 -0.4382 -0.8539 -0.0253
 8195TIP3    H124549   3.831   1.131   4.555 -0.7882 -1.4735  0.5371
 8195TIP3    H224550   3.971   1.073   4.557  0.0108  0.3043 -1.1042
 8196TIP3   OH224551   3.876   1.416   5.741  0.4317  0.2560 -0.0617
 8196TIP3    H124552   3.801   1.382   5.692 -0.0743  0.3805  0.6252
 8196TIP3    H224553   3.850   1.505   5.765  0.5347  0.0655  0.7508
 8197TIP3   OH224554   0.890   0.169   5.512 -0.0054 -0.2303  0.4289
 8197TIP3    H124555   0.898   0.265   5.512  0.7392 -0.2874  0.3173
 8197TIP3    H224556   0.858   0.148   5.425  1.0386 -0.1652  0.0160
 8198TIP3   OH224557   6.991   5.366   1.268  0.2114 -0.6218 -0.1239
 8198TIP3    H124558   6.946   5.408   1.342 -0.9355  2.3006 -2.2875
 8198TIP3    H224559   7.075   5.339   1.304 -1.4098 -2.1477  2.9568
 8199TIP3   OH224560   1.847   4.640   1.457  0.6054 -0.7223  0.3369
 8199TIP3    H124561   1.773   4.663   1.400 -0.3200 -0.7253  1.5119
 8199TIP3    H224562   1.807   4.608   1.537  1.8392  1.2204  1.8191
 8200TIP3   OH224563   5.775   5.343   1.609 -0.7806  0.1511  0.2467
 8200TIP3    H124564   5.851   5.336   1.666 -0.4077  0.7731 -0.1715
 8200TIP3    H224565   5.786   5.272   1.545 -0.3367  0.5078 -0.0712
 8201TIP3   OH224566   5.854   1.818   3.558  0.0332 -0.2538 -0.1803
 8201TIP3    H124567   5.769   1.776   3.570 -0.6328  1.1438  0.1673
 8201TIP3    H224568   5.879   1.846   3.646 -0.4035  1.6561 -0.6276
 8202TIP3   OH224569   2.316   4.676   5.132 -0.1465 -0.3570 -0.1744
 8202TIP3    H124570   2.268   4.757   5.115  0.3788 -0.2847 -1.4718
 8202TIP3    H224571   2.255   4.622   5.182 -0.1122  1.2306  1.6840
 8203TIP3   OH224572   3.200   2.804   5.057 -0.6089  0.1842  0.0199
 8203TIP3    H124573   3.175   2.878   5.001 -1.9598  0.5692  1.0825
 8203TIP3    H224574   3.117   2.770   5.090 -0.0123 -1.8040 -0.4034
 8204TIP3   OH224575   5.986   0.937   5.609  0.1919 -0.3201  0.1810
 8204TIP3    H124576   5.903   0.938   5.561  0.8846 -0.5446 -1.0596
 8204TIP3    H224577   5.962   0.959   5.699 -1.1913 -0.2399 -0.1892
 8205TIP3   OH224578   2.986   1.654   0.421  0.2768  0.2427 -0.8714
 8205TIP3    H124579   3.007   1.669   0.329  1.0567 -2.1699 -1.1511
 8205TIP3    H224580   2.891   1.667   0.425  0.5504  3.1427 -1.3436
 8206TIP3   OH224581   0.416   6.237   5.311 -0.1209  0.1869  0.2526
 8206TIP3    H124582   0.503   6.224   5.348  1.2292  1.8177 -2.1286
 8206TIP3    H224583   0.361   6.260   5.387  1.9349  1.0280  1.5748
 8207TIP3   OH224584   3.250   5.157   4.987 -0.1526 -0.0354 -0.4152
 8207TIP3    H124585   3.293   5.111   5.059 -0.3543  0.7964  0.2468
 8207TIP3    H224586   3.182   5.096   4.957 -0.8740  0.0881  0.8958
 8208TIP3   OH224587   1.706   1.603   3.451 -0.1795 -0.1579  0.2740
 8208TIP3    H124588   1.783   1.581   3.504  0.2072  0.1987 -0.1289
 8208TIP3    H224589   1.658   1.666   3.504 -0.3534 -0.6097  0.6592
 8209TIP3   OH224590   6.979   5.243   4.941  0.2163 -0.8510  0.4778
 8209TIP3    H124591   6.938   5.174   4.993 -1.7780  0.7867  1.2395
 8209TIP3    H224592   7.061   5.262   4.985  0.4456 -2.2094  0.6689
 8210TIP3   OH224593   2.414   5.974   1.496 -0.4892 -0.2867  0.0176
 8210TIP3    H124594   2.492   6.005   1.541 -1.9416  2.0664  1.1015
 8210TIP3    H224595   2.357   5.942   1.566 -2.3384  2.3917 -0.1296
 8211TIP3   OH224596   5.026   2.337   2.519 -0.0914  0.0414  0.1825
 8211TIP3    H124597   4.931   2.326   2.510 -0.1414  0.3750  0.3216
 8211TIP3    H224598   5.038   2.376   2.605  0.1890 -0.2010  0.2563
 8212TIP3   OH224599   0.922   1.333   0.776  0.2129  0.3726 -0.7561
 8212TIP3    H124600   0.937   1.246   0.740  2.1144 -0.1153  1.0595
 8212TIP3    H224601   0.893   1.319   0.865 -0.7558  1.5956 -0.8489
 8213TIP3   OH224602   4.167   5.037   0.371  0.1210 -0.0988 -0.0077
 8213TIP3    H124603   4.243   5.026   0.428 -0.1306  1.1991  0.6123
 8213TIP3    H224604   4.152   4.950   0.335  0.8725 -0.7408  1.1587
 8214TIP3   OH224605   6.568   3.435   4.556  0.3120  0.2707 -0.1593
 8214TIP3    H124606   6.552   3.385   4.636 -1.7720  1.0505 -0.0189
 8214TIP3    H224607   6.505   3.507   4.560  0.6352  0.7225 -2.1758
 8215TIP3   OH224608   0.836   3.748   2.765  0.1681  0.4431 -0.3613
 8215TIP3    H124609   0.747   3.767   2.795  0.6918  1.0586  0.8750
 8215TIP3    H224610   0.892   3.798   2.824  1.3515 -0.1543 -0.9476
 8216TIP3   OH224611   6.999   4.627   4.825  0.2504 -0.2338  0.7273
 8216TIP3    H124612   7.038   4.712   4.802 -0.4071 -0.4197 -1.1788
 8216TIP3    H224613   6.927   4.650   4.885 -1.1880  0.8010 -1.2767
 8217TIP3   OH224614   5.977   6.160   4.328 -0.5541  0.2639 -0.1370
 8217TIP3    H124615   5.913   6.125   4.389 -1.0867  1.0377 -0.2493
 8217TIP3    H224616   5.975   6.099   4.254 -1.4956  0.5364 -0.3435
 8218TIP3   OH224617   6.295   1.582   4.169 -0.2636  0.0808  0.5253
 8218TIP3    H124618   6.262   1.546   4.086  1.2266 -1.1989  0.4515
 8218TIP3    H224619   6.216   1.612   4.215 -1.3415 -1.1558 -0.4360
 8219TIP3   OH224620   4.252   6.127   0.229  0.7249  0.1150 -0.3334
 8219TIP3    H124621   4.262   6.041   0.189 -1.6716  0.5020 -1.9218
 8219TIP3    H224622   4.209   6.110   0.313 -2.0087 -0.1646 -1.6902
 8220TIP3   OH224623   6.275   0.098   5.370 -0.4382  0.1277  0.0874
 8220TIP3    H124624   6.237   0.136   5.291 -1.2186  0.5799  0.6698
 8220TIP3    H224625   6.368   0.121   5.365 -0.9425  2.4382  0.5837
 8221TIP3   OH224626   6.763   2.645   2.218  0.1217 -0.0676 -0.2869
 8221TIP3    H124627   6.759   2.567   2.272  1.5112 -1.3715 -1.9732
 8221TIP3    H224628   6.705   2.708   2.262 -1.9828 -2.4026  0.5131
 8222TIP3   OH224629   0.422   5.526   2.040 -0.0450 -0.2118 -0.6968
 8222TIP3    H124630   0.487   5.462   2.013  0.4543 -0.1828  0.4092
 8222TIP3    H224631   0.465   5.577   2.109 -0.7418  0.7304 -0.9367
 8223TIP3   OH224632   6.149   6.005   4.160 -0.0817 -0.0996 -0.4183
 8223TIP3    H124633   6.176   6.096   4.147  2.5330 -0.7916 -0.4652
 8223TIP3    H224634   6.131   5.972   4.072  0.1193  0.0715 -0.5235
 8224TIP3   OH224635   4.016   6.005   4.746  0.3188  0.5848 -0.5936
 8224TIP3    H124636   4.036   5.940   4.813 -0.5174 -0.1054 -0.9924
 8224TIP3    H224637   4.061   6.084   4.775  0.7108  0.0438  0.3084
 8225TIP3   OH224638   1.735   3.701   5.634 -0.1956  0.0096 -0.1739
 8225TIP3    H124639   1.641   3.690   5.623  0.0375 -1.9157 -0.6277
 8225TIP3    H224640   1.762   3.753   5.559 -0.8776  0.5127 -0.0786
 8226TIP3   OH224641   0.900   6.688   2.512  0.0589 -0.7176 -0.2378
 8226TIP3    H124642   0.834   6.751   2.541 -0.5860 -1.5815  0.1909
 8226TIP3    H224643   0.853   6.629   2.453  0.5159 -1.1522 -0.1759
 8227TIP3   OH224644   4.625   6.610   2.375 -0.7401 -0.0445  0.0934
 8227TIP3    H124645   4.594   6.646   2.292  1.8316 -1.0055 -1.4077
 8227TIP3    H224646   4.599   6.519   2.373  0.1351 -0.3001 -0.1291
 8228TIP3   OH224647   0.313   1.731   2.247 -0.0652  0.2738  0.1942
 8228TIP3    H124648   0.351   1.665   2.306  0.7242  0.6834  0.1618
 8228TIP3    H224649   0.367   1.809   2.261  2.0546 -0.3846 -3.0781
 8229TIP3   OH224650   2.645   3.574   2.349 -0.5651  0.2106  0.0240
 8229TIP3    H124651   2.700   3.557   2.426  0.5168 -0.2675 -0.8329
 8229TIP3    H224652   2.700   3.627   2.292 -0.5802 -1.1552 -1.3221
 8230TIP3   OH224653   2.355   1.992   3.417 -0.2026 -0.2931 -0.1113
 8230TIP3    H124654   2.310   2.076   3.428  0.1868  0.0614 -1.1660
 8230TIP3    H224655   2.420   2.007   3.349  1.3695 -0.8754  1.1985
 8231TIP3   OH224656   5.110   5.728   1.454 -0.5018  0.2744 -0.4945
 8231TIP3    H124657   5.144   5.811   1.487 -1.5509  0.9046 -0.9515
 8231TIP3    H224658   5.039   5.753   1.394 -0.3314 -0.9267 -1.2312
 8232TIP3   OH224659   6.282   0.968   3.194  0.2294 -0.1825  0.2494
 8232TIP3    H124660   6.370   1.007   3.192  0.4398 -0.6619 -0.8000
 8232TIP3    H224661   6.253   0.971   3.103 -0.5259 -0.7313  0.4677
 8233TIP3   OH224662   5.285   3.970   3.695  0.2049  0.2447 -0.1551
 8233TIP3    H124663   5.262   3.884   3.731  0.7637  0.5891  1.1022
 8233TIP3    H224664   5.380   3.965   3.683 -0.0454 -0.0930 -2.3019
 8234TIP3   OH224665   7.203   2.532   0.834  0.3676  0.0395 -0.1668
 8234TIP3    H124666   7.184   2.512   0.926 -0.6270  1.5408 -0.0002
 8234TIP3    H224667   7.187   2.450   0.787 -1.4328 -0.1603  0.7092
 8235TIP3   OH224668   0.951   2.467   2.605 -0.1096  0.7653 -0.4756
 8235TIP3    H124669   1.025   2.510   2.563 -0.4770  0.7469 -1.1570
 8235TIP3    H224670   0.932   2.522   2.682  0.6884  0.6885 -0.2142
 8236TIP3   OH224671   2.379   2.853   4.137 -0.0150 -0.1490  0.3301
 8236TIP3    H124672   2.379   2.863   4.041 -1.2975 -2.0081  0.0727
 8236TIP3    H224673   2.458   2.803   4.156  0.1117  0.0073  0.2169
 8237TIP3   OH224674   4.184   3.812   0.414 -0.3365 -0.5188 -0.2335
 8237TIP3    H124675   4.178   3.907   0.424  0.2949 -0.4366 -0.5940
 8237TIP3    H224676   4.255   3.799   0.351 -1.0680 -1.1900 -0.9404
 8238TIP3   OH224677   2.074   0.968   1.208 -0.2473 -0.0549 -0.4299
 8238TIP3    H124678   1.986   0.990   1.176 -0.4178 -2.1427 -1.6085
 8238TIP3    H224679   2.060   0.932   1.295 -0.6158 -0.5232 -0.6729
 8239TIP3   OH224680   3.472   1.776   1.236 -0.0471 -0.2234  0.1343
 8239TIP3    H124681   3.475   1.737   1.149 -1.6505 -0.7282  0.2682
 8239TIP3    H224682   3.413   1.718   1.286 -0.3904  0.9191  1.0961
 8240TIP3   OH224683   1.802   5.006   1.352  0.7746 -0.4307  0.0302
 8240TIP3    H124684   1.833   5.095   1.335  1.6934 -0.6855  0.3518
 8240TIP3    H224685   1.750   4.984   1.274 -0.1571  0.6742  0.3017
 8241TIP3   OH224686   2.545   0.401   2.432 -0.0393  0.0154 -0.2139
 8241TIP3    H124687   2.568   0.409   2.525 -0.5570  0.6251 -0.1339
 8241TIP3    H224688   2.461   0.447   2.424  0.5241  0.9143 -1.1955
 8242TIP3   OH224689   6.579   6.086   0.388  0.3212 -0.7323  0.1856
 8242TIP3    H124690   6.619   6.169   0.363 -0.8269  0.0084  0.7077
 8242TIP3    H224691   6.575   6.088   0.483 -1.7304 -0.3478  0.1491
 8243TIP3   OH224692   5.353   0.895   5.566  0.5744  0.3733  0.1689
 8243TIP3    H124693   5.423   0.898   5.501  1.3263 -0.8568  0.8776
 8243TIP3    H224694   5.316   0.807   5.558  0.5926  0.2444  1.3054
 8244TIP3   OH224695   3.564   6.153   5.826  0.5896  0.2115  0.4874
 8244TIP3    H124696   3.559   6.060   5.803 -0.5924  0.5568 -0.8394
 8244TIP3    H224697   3.621   6.156   5.903  1.8094 -1.4606 -0.2642
 8245TIP3   OH224698   5.290   1.053   1.513 -0.0515  0.0962 -0.9071
 8245TIP3    H124699   5.285   1.001   1.433  0.7498 -1.1154 -0.2021
 8245TIP3    H224700   5.355   1.008   1.567  0.6491  1.8154 -0.2433
 8246TIP3   OH224701   6.139   3.366   4.581  0.5215  0.5106  0.6356
 8246TIP3    H124702   6.209   3.430   4.598  2.8851 -1.4648 -0.9821
 8246TIP3    H224703   6.127   3.370   4.486  1.4749 -2.0972  0.3449
 8247TIP3   OH224704   1.827   5.810   0.485 -0.2095 -0.2356 -0.4122
 8247TIP3    H124705   1.865   5.729   0.451  1.3432  0.1009  0.3999
 8247TIP3    H224706   1.885   5.879   0.451 -0.7814  0.4175 -0.0908
 8248TIP3   OH224707   6.209   6.777   4.206 -0.3944  0.1834 -0.4286
 8248TIP3    H124708   6.254   6.700   4.171  0.0855 -0.6918  1.9094
 8248TIP3    H224709   6.130   6.741   4.248 -0.4164  1.0103  0.2674
 8249TIP3   OH224710   0.450   1.960   4.618 -0.1047  0.0389  0.3793
 8249TIP3    H124711   0.356   1.944   4.610 -0.1472  0.5066 -0.0401
 8249TIP3    H224712   0.463   1.982   4.711 -0.6121  1.2646  0.1777
 8250TIP3   OH224713   0.185   4.440   0.521 -0.0418 -0.3128 -0.1256
 8250TIP3    H124714   0.151   4.421   0.433  1.8533 -1.6797 -0.6370
 8250TIP3    H224715   0.280   4.430   0.512  0.2805  0.5626  1.8557
 8251TIP3   OH224716   2.111   6.230   0.017 -0.1091 -0.1927  0.4940
 8251TIP3    H124717   2.146   6.277  -0.059  0.5251  0.3146  1.0871
 8251TIP3    H224718   2.054   6.294   0.060  0.7856  0.0628  1.3260
 8252TIP3   OH224719   5.029   1.912   1.028 -0.0581 -0.1442  0.0174
 8252TIP3    H124720   4.940   1.927   0.997 -0.2106 -1.7756 -0.4257
 8252TIP3    H224721   5.021   1.838   1.089  1.1221 -1.1053 -0.9446
 8253TIP3   OH224722   4.223   2.965   3.817  0.7075  0.0019  0.0196
 8253TIP3    H124723   4.236   2.893   3.756  1.1857  0.2898 -0.2217
 8253TIP3    H224724   4.174   3.030   3.767  0.3042 -0.1321  0.2278
 8254TIP3   OH224725   1.280   6.267   4.354 -0.2113 -0.4321 -0.1176
 8254TIP3    H124726   1.349   6.298   4.296 -0.3756  0.4045  0.1195
 8254TIP3    H224727   1.253   6.183   4.317  0.3668 -0.3785 -0.6753
 8255TIP3   OH224728   2.838   2.913   5.755  0.3603  0.3325  0.1749
 8255TIP3    H124729   2.905   2.897   5.688 -0.0666  0.3724 -0.2711
 8255TIP3    H224730   2.778   2.975   5.714 -1.2552 -1.4846 -0.3402
 8256TIP3   OH224731   4.918   5.460   1.986  0.2514  0.1605 -0.4869
 8256TIP3    H124732   4.934   5.506   2.068  1.1857  0.7561 -0.9780
 8256TIP3    H224733   4.830   5.424   1.995  0.4646 -0.0680  0.8925
 8257TIP3   OH224734   4.226   3.768   1.939 -0.0016 -0.0436 -0.0417
 8257TIP3    H124735   4.218   3.835   2.006 -1.9843 -0.2246 -0.0308
 8257TIP3    H224736   4.161   3.792   1.873 -0.6494 -1.8356 -0.1189
 8258TIP3   OH224737   6.863   0.709   2.665 -0.3378 -0.1650  0.1388
 8258TIP3    H124738   6.930   0.675   2.724  0.5634 -0.3685 -0.9557
 8258TIP3    H224739   6.800   0.753   2.722  0.6678 -0.0690  1.2099
 8259TIP3   OH224740   4.391   2.200   2.362  0.2743  0.6085  0.0113
 8259TIP3    H124741   4.323   2.242   2.309 -0.6000 -0.9182 -0.1444
 8259TIP3    H224742   4.399   2.255   2.440 -1.5482  0.5194  0.2898
 8260TIP3   OH224743   3.280   2.014   3.932  0.1517  0.0626  0.0882
 8260TIP3    H124744   3.221   1.980   3.864  1.6742 -0.1962 -1.1515
 8260TIP3    H224745   3.319   1.936   3.971  0.2033  0.2518  0.4185
 8261TIP3   OH224746   7.100   1.503   2.698  0.2813  0.9026  0.1459
 8261TIP3    H124747   7.183   1.549   2.683  0.8709 -0.2285 -0.2112
 8261TIP3    H224748   7.103   1.430   2.637 -0.1246 -0.2474  1.4573
 8262TIP3   OH224749   3.921   0.409   0.420  0.5528  0.1873  0.4059
 8262TIP3    H124750   3.889   0.379   0.505  0.4851 -0.0790  0.2873
 8262TIP3    H224751   3.845   0.401   0.362 -0.4464  3.5482  1.0395
 8263TIP3   OH224752   3.887   3.507   2.164 -0.5324  0.2030 -0.6514
 8263TIP3    H124753   3.800   3.470   2.177 -0.4919 -0.5078 -2.2425
 8263TIP3    H224754   3.900   3.506   2.070  1.0950  0.5431 -0.4569
 8264TIP3   OH224755   5.655   4.941   0.920 -0.0568 -0.3260 -0.6180
 8264TIP3    H124756   5.670   4.855   0.880  1.4391 -0.2004 -0.3873
 8264TIP3    H224757   5.617   4.994   0.850  2.7686 -0.0236 -2.0752
 8265TIP3   OH224758   0.736   0.885   0.620  0.1771  0.5593 -0.1459
 8265TIP3    H124759   0.735   0.790   0.607  1.2880  0.5590 -0.2819
 8265TIP3    H224760   0.644   0.911   0.607 -0.5054 -0.7052  1.6793
 8266TIP3   OH224761   0.552   3.358   0.588 -0.0109 -0.1965  0.6463
 8266TIP3    H124762   0.509   3.437   0.622 -1.3765 -0.0510 -1.2398
 8266TIP3    H224763   0.615   3.391   0.524  0.1147 -0.6060  0.5563
 8267TIP3   OH224764   3.645   5.578   0.305 -0.2229  0.1640  0.0911
 8267TIP3    H124765   3.669   5.522   0.379  1.0766 -0.5368 -0.8294
 8267TIP3    H224766   3.563   5.542   0.273 -0.3495 -0.0610  0.6547
 8268TIP3   OH224767   6.871   1.240   2.734  0.7525  0.0990  0.3492
 8268TIP3    H124768   6.909   1.170   2.788 -0.6903 -1.9215 -1.0784
 8268TIP3    H224769   6.924   1.241   2.655  0.7345  0.5860  0.3433
 8269TIP3   OH224770   7.205   2.559   3.505 -0.5013 -0.3426  0.2707
 8269TIP3    H124771   7.181   2.467   3.516  0.0758 -0.3546  1.6223
 8269TIP3    H224772   7.155   2.588   3.428 -1.4555 -1.5110  0.4232
 8270TIP3   OH224773   2.637   1.345   2.040  0.0621 -0.2923  0.0247
 8270TIP3    H124774   2.596   1.322   1.957  1.2279 -1.6882 -0.2064
 8270TIP3    H224775   2.606   1.434   2.058 -0.5753 -0.1316 -1.6645
 8271TIP3   OH224776   6.349   3.223   0.264 -0.0936  0.4249 -0.2712
 8271TIP3    H124777   6.281   3.158   0.249 -1.2527  1.3064  0.8961
 8271TIP3    H224778   6.347   3.279   0.186 -2.4773  1.9077  0.7555
 8272TIP3   OH224779   6.770   0.727   4.248 -0.2905  0.3983  0.4992
 8272TIP3    H124780   6.729   0.813   4.254  2.0419  1.5763  0.7337
 8272TIP3    H224781   6.761   0.690   4.336 -0.3151  0.8993  0.7106
 8273TIP3   OH224782   2.976   4.886   4.239  0.2697  0.1075  0.0708
 8273TIP3    H124783   2.890   4.919   4.265  0.4760  0.4381  0.3452
 8273TIP3    H224784   3.020   4.962   4.201  2.0608  1.2109  3.8365
 8274TIP3   OH224785   1.213   0.570   5.708  0.2557 -0.1040 -0.6563
 8274TIP3    H124786   1.240   0.489   5.752  1.8681  0.3971 -0.6390
 8274TIP3    H224787   1.285   0.631   5.726  0.0383  0.7021 -2.3625
 8275TIP3   OH224788   0.165   5.196   0.219  0.3734 -0.3312 -0.5420
 8275TIP3    H124789   0.167   5.188   0.314  2.6960 -2.7810 -0.6631
 8275TIP3    H224790   0.102   5.129   0.190 -1.6327  1.5466 -0.7569
 8276TIP3   OH224791   6.628   3.177   5.759  0.2512  0.1365 -0.1490
 8276TIP3    H124792   6.592   3.242   5.819  1.0085 -1.0925  1.6992
 8276TIP3    H224793   6.715   3.157   5.794 -0.4689 -2.8710  0.2012
 8277TIP3   OH224794   0.463   2.085   4.860  0.4184  0.3393 -0.4188
 8277TIP3    H124795   0.533   2.141   4.893  1.5086 -1.1696 -0.0939
 8277TIP3    H224796   0.465   2.008   4.916 -2.2400  0.6866  0.3178
 8278TIP3   OH224797   5.016   0.988   0.709 -0.3159  0.5789 -0.3356
 8278TIP3    H124798   5.089   0.967   0.652 -1.5330  0.6410 -1.9766
 8278TIP3    H224799   5.006   0.912   0.766 -0.3508 -0.3667 -1.5851
 8279TIP3   OH224800   5.264   2.836   3.510 -0.1302 -0.0999  0.1110
 8279TIP3    H124801   5.246   2.761   3.567 -1.3577 -0.6566 -0.9616
 8279TIP3    H224802   5.209   2.821   3.433  1.0558  0.9211 -0.9739
 8280TIP3   OH224803   5.704   2.765   2.930 -0.3304  0.6103  0.2559
 8280TIP3    H124804   5.684   2.810   3.012  0.5019  1.8669 -0.2055
 8280TIP3    H224805   5.790   2.799   2.904  0.6791 -1.8044  0.2380
 8281TIP3   OH224806   2.052   2.288   1.246 -0.5809  0.1079 -0.0013
 8281TIP3    H124807   2.100   2.263   1.167  0.0293  2.0739 -0.3104
 8281TIP3    H224808   2.045   2.207   1.297 -0.4364 -1.0648 -1.7725
 8282TIP3   OH224809   0.744   5.175   0.392 -0.9031 -0.0912 -0.3794
 8282TIP3    H124810   0.733   5.243   0.459 -1.6253  2.6903 -3.0578
 8282TIP3    H224811   0.654   5.152   0.367 -0.6525 -1.6945  0.0989
 8283TIP3   OH224812   6.695   5.264   0.632 -0.3603  0.0935  0.0180
 8283TIP3    H124813   6.653   5.307   0.707 -3.9838 -1.9844 -0.5788
 8283TIP3    H224814   6.730   5.183   0.668 -1.9038 -0.7983 -0.3818
 8284TIP3   OH224815   2.461   2.061   2.263  0.1246  0.2401  0.0664
 8284TIP3    H124816   2.423   1.997   2.202 -1.6795  0.6886  0.6610
 8284TIP3    H224817   2.439   2.027   2.350  0.0567  1.1297  0.4036
 8285TIP3   OH224818   4.037   5.735   3.118  0.6855 -0.3821 -0.6080
 8285TIP3    H124819   4.100   5.806   3.128  0.3248  0.2407 -2.4425
 8285TIP3    H224820   4.066   5.688   3.040 -1.3635  0.2223 -1.8025
 8286TIP3   OH224821   3.372   0.061   0.569  0.0340 -0.0057 -0.7243
 8286TIP3    H124822   3.358   0.083   0.477 -0.3554  1.8201 -0.2620
 8286TIP3    H224823   3.411   0.140   0.607 -1.1671 -0.1880  0.9932
 8287TIP3   OH224824   6.242   4.706   2.222 -0.2486 -0.0115 -0.0889
 8287TIP3    H124825   6.229   4.784   2.276  0.6124 -0.0050  0.1213
 8287TIP3    H224826   6.295   4.648   2.275 -2.0437 -1.3772  0.3263
 8288TIP3   OH224827   2.468   2.962   1.234  0.4331 -0.0347 -0.8339
 8288TIP3    H124828   2.422   2.958   1.318  0.7830  2.3671 -0.4485
 8288TIP3    H224829   2.474   2.871   1.206 -1.5984 -0.7233  0.6900
 8289TIP3   OH224830   1.317   2.242   3.968  0.2011  0.3463 -0.0919
 8289TIP3    H124831   1.256   2.300   4.013 -1.8772 -0.3494 -1.8370
 8289TIP3    H224832   1.298   2.155   4.004  0.0504  0.1050 -0.7500
 8290TIP3   OH224833   3.444   4.541   5.004  0.0267 -0.2831  0.9454
 8290TIP3    H124834   3.497   4.610   4.964 -0.0549 -0.9063 -0.2664
 8290TIP3    H224835   3.354   4.567   4.987 -0.0115 -0.5161  0.7914
 8291TIP3   OH224836   1.604   2.683   5.205  0.0936  0.1784 -0.4255
 8291TIP3    H124837   1.548   2.760   5.198 -0.9082 -0.5490 -0.8173
 8291TIP3    H224838   1.587   2.635   5.123 -0.3816 -1.1410  0.4185
 8292TIP3   OH224839   4.105   5.029   1.878 -0.2389 -0.5828 -0.7553
 8292TIP3    H124840   4.009   5.034   1.880 -0.2632 -0.7533 -1.2940
 8292TIP3    H224841   4.133   5.120   1.876 -0.4001 -0.5328 -0.8170
 8293TIP3   OH224842   4.393   0.160   4.009  0.0157 -0.1025 -0.0833
 8293TIP3    H124843   4.387   0.077   3.963  0.5281  0.2962 -0.9025
 8293TIP3    H224844   4.312   0.206   3.988 -0.1594 -0.2884  0.1738
 8294TIP3   OH224845   3.205   1.674   4.217 -0.4559  0.4703 -0.3864
 8294TIP3    H124846   3.259   1.598   4.237 -1.9314 -0.3103  0.8661
 8294TIP3    H224847   3.257   1.749   4.246  0.4826 -0.1564 -0.4099
 8295TIP3   OH224848   6.889   4.794   2.208 -0.2086 -0.4868 -0.1600
 8295TIP3    H124849   6.915   4.706   2.182  0.6549  0.1249 -1.4838
 8295TIP3    H224850   6.964   4.849   2.184 -0.1538  0.4274  1.9275
 8296TIP3   OH224851   5.802   6.578   0.189  0.3325 -0.1559  0.3190
 8296TIP3    H124852   5.840   6.661   0.159  0.6273 -0.1912  0.5902
 8296TIP3    H224853   5.873   6.515   0.178  0.7573  0.0016  1.9302
 8297TIP3   OH224854   2.217   6.025   1.724  0.7348  0.0863 -0.4812
 8297TIP3    H124855   2.264   5.968   1.785 -0.0306 -1.3041 -1.1595
 8297TIP3    H224856   2.154   6.072   1.779  1.7649  0.7712  0.1714
 8298TIP3   OH224857   5.606   2.391   2.295 -0.1567  0.3125 -0.2502
 8298TIP3    H124858   5.560   2.385   2.378 -0.6876  0.5205 -0.5208
 8298TIP3    H224859   5.558   2.332   2.236  0.6525 -0.4045 -0.2222
 8299TIP3   OH224860   5.513   1.188   4.986 -0.1475 -0.3587  0.2249
 8299TIP3    H124861   5.534   1.132   4.911  1.5879  0.4616  0.0607
 8299TIP3    H224862   5.470   1.264   4.947  0.4342 -0.0964  0.0802
 8300TIP3   OH224863   3.091   0.252   2.241  0.0536 -0.1180  0.1564
 8300TIP3    H124864   3.067   0.344   2.246  1.8600  0.3413  1.6141
 8300TIP3    H224865   3.184   0.252   2.219  0.1919 -1.5724  0.6064
 8301TIP3   OH224866   5.558   6.634   0.447 -0.4819  0.6306 -0.3781
 8301TIP3    H124867   5.471   6.611   0.479  0.2259  0.5021  1.5920
 8301TIP3    H224868   5.546   6.649   0.353 -2.3336 -0.7497 -0.4122
 8302TIP3   OH224869   2.003   3.267   0.540  0.5528  0.4179 -0.0856
 8302TIP3    H124870   2.063   3.336   0.512  0.1705  0.2185 -1.4473
 8302TIP3    H224871   1.985   3.287   0.632  0.1432  2.3739 -0.5500
 8303TIP3   OH224872   0.454   4.084   3.512 -0.3667 -0.1329 -0.1167
 8303TIP3    H124873   0.454   4.069   3.606 -0.5490  0.8167  0.0457
 8303TIP3    H224874   0.489   4.003   3.474 -0.6581 -0.6728  0.7360
 8304TIP3   OH224875   5.671   3.821   4.474 -0.2289 -0.2319  0.0722
 8304TIP3    H124876   5.637   3.832   4.386 -1.0233 -0.6939  0.3080
 8304TIP3    H224877   5.699   3.730   4.478  1.2550  0.1992 -0.1823
 8305TIP3   OH224878   4.757   0.949   1.362  0.0694 -0.5877 -0.8767
 8305TIP3    H124879   4.847   0.915   1.362 -0.0252 -0.8557 -0.1619
 8305TIP3    H224880   4.767   1.044   1.358  0.3606 -0.6414 -1.7195
 8306TIP3   OH224881   0.078   1.794   2.904  0.0525  0.7553  0.2913
 8306TIP3    H124882   0.084   1.702   2.931  1.7427  0.9646  0.7320
 8306TIP3    H224883  -0.012   1.819   2.925 -0.1709 -0.5344  1.0046
 8307TIP3   OH224884   1.081   6.036   2.346 -0.3816 -1.4477  0.3510
 8307TIP3    H124885   0.988   6.031   2.321 -1.0261  1.9191  1.5623
 8307TIP3    H224886   1.127   5.991   2.274 -2.8300 -2.1081 -0.9278
 8308TIP3   OH224887   0.659   5.867   0.226 -0.1318  0.0694 -0.1272
 8308TIP3    H124888   0.639   5.855   0.318  1.2203  2.9144  0.6515
 8308TIP3    H224889   0.585   5.828   0.180 -0.8977 -1.3027  2.1183
 8309TIP3   OH224890   1.703   3.505   3.537  0.0036 -0.2428  0.4700
 8309TIP3    H124891   1.788   3.525   3.497 -0.5521 -0.9084 -1.1345
 8309TIP3    H224892   1.716   3.422   3.581  0.1329 -0.4823 -0.0077
 8310TIP3   OH224893   4.189   4.406   2.018  0.1606 -0.1342 -0.3445
 8310TIP3    H124894   4.223   4.341   1.956  0.6339  0.6894 -0.9609
 8310TIP3    H224895   4.232   4.488   1.994  0.3068  0.2275  1.0380
 8311TIP3   OH224896   1.979   3.235   1.794 -0.4008 -0.0215  0.2094
 8311TIP3    H124897   1.941   3.318   1.766 -0.9985 -0.0794  0.8083
 8311TIP3    H224898   1.907   3.189   1.839 -0.1242 -0.9275 -0.2428
 8312TIP3   OH224899   4.694   0.264   1.137  0.2310  0.1551 -0.2212
 8312TIP3    H124900   4.766   0.258   1.200  0.1036 -0.0557 -0.0951
 8312TIP3    H224901   4.618   0.228   1.183  0.6236 -2.1387 -1.2245
 8313TIP3   OH224902   5.496   5.519   0.226 -0.4611  0.4198 -0.5330
 8313TIP3    H124903   5.502   5.441   0.172 -0.4240  0.0968 -0.0624
 8313TIP3    H224904   5.404   5.522   0.254  0.5411 -2.6459  4.1155
 8314TIP3   OH224905   1.470   3.964   4.408 -0.1236  0.2421  0.3838
 8314TIP3    H124906   1.441   3.874   4.424  1.9596 -0.4505  0.6022
 8314TIP3    H224907   1.432   4.015   4.479 -0.3547 -0.6999  0.9456
 8315TIP3   OH224908   5.635   0.909   0.967 -0.2484 -0.1423  0.5408
 8315TIP3    H124909   5.634   0.975   1.037  0.2157 -1.5630  1.9302
 8315TIP3    H224910   5.604   0.829   1.008 -2.8001 -0.4061 -1.6233
 8316TIP3   OH224911   3.081   2.352   4.499 -0.0115  0.1003 -0.2113
 8316TIP3    H124912   3.135   2.371   4.576  0.4657 -0.0513 -0.5017
 8316TIP3    H224913   2.991   2.360   4.530  0.1775 -0.0482  0.3844
 8317TIP3   OH224914   0.537   5.153   3.643  0.3337  0.0851  0.1227
 8317TIP3    H124915   0.510   5.145   3.551 -0.1761  0.4970  0.2364
 8317TIP3    H224916   0.459   5.132   3.693  0.7850 -0.7916  0.4775
 8318TIP3   OH224917   1.425   2.316   5.404  0.1932 -0.6825  0.1512
 8318TIP3    H124918   1.380   2.359   5.331 -1.6137 -2.7556 -0.0441
 8318TIP3    H224919   1.518   2.334   5.388 -0.2497  0.1367 -1.8503
 8319TIP3   OH224920   6.976   4.714   0.618  0.2681  0.3117 -1.1068
 8319TIP3    H124921   7.031   4.679   0.688  0.1872 -0.5239 -1.4516
 8319TIP3    H224922   7.036   4.729   0.545  0.2408  0.5716 -1.0790
 8320TIP3   OH224923   5.736   5.649   1.989  0.3347  0.2567 -0.1881
 8320TIP3    H124924   5.772   5.737   1.998  0.3534  0.1905  0.3683
 8320TIP3    H224925   5.808   5.598   1.952  0.4240  0.4023 -0.2175
 8321TIP3   OH224926   3.151   3.741   5.235 -0.2441  0.0888  0.2892
 8321TIP3    H124927   3.229   3.760   5.287 -1.3756 -0.3356  2.2317
 8321TIP3    H224928   3.185   3.712   5.151  1.6526  1.6275  0.4617
 8322TIP3   OH224929   4.724   5.923   4.924 -0.7666  0.2196 -0.0073
 8322TIP3    H124930   4.645   5.930   4.871 -1.0929  0.7784  0.5499
 8322TIP3    H224931   4.694   5.882   5.006 -0.2729 -0.6084 -0.2267
 8323TIP3   OH224932   1.818   3.779   4.694  0.1745  0.1020  0.1184
 8323TIP3    H124933   1.871   3.703   4.671 -1.5051 -1.2144  0.4561
 8323TIP3    H224934   1.827   3.786   4.789 -0.9746 -0.7100  0.3021
 8324TIP3   OH224935   3.746   4.579   0.106  0.2952 -0.0387  0.1549
 8324TIP3    H124936   3.803   4.562   0.031 -0.3023 -1.1759 -0.0589
 8324TIP3    H224937   3.713   4.668   0.091  1.6509  0.4789  0.0690
 8325TIP3   OH224938   3.902   2.895   1.965 -1.0688  0.0855  0.3739
 8325TIP3    H124939   3.868   2.984   1.955  0.9218  1.0230  1.2047
 8325TIP3    H224940   3.996   2.904   1.946 -0.4322 -1.4105  2.4935
 8326TIP3   OH224941   5.823   6.139   3.728  0.4545 -0.3714  0.0937
 8326TIP3    H124942   5.844   6.058   3.682 -1.6991 -0.8461 -0.1955
 8326TIP3    H224943   5.729   6.132   3.748  0.1228  2.1515 -0.1495
 8327TIP3   OH224944   0.892   0.783   4.982  0.5245  0.6305  0.1114
 8327TIP3    H124945   0.801   0.758   4.967  1.0384 -1.1026 -0.4080
 8327TIP3    H224946   0.892   0.824   5.068 -0.8853  1.5249 -0.2871
 8328TIP3   OH224947   0.248   4.923   1.999 -0.3449 -0.3030 -0.1423
 8328TIP3    H124948   0.277   4.896   2.086  0.6408  0.3651 -0.2405
 8328TIP3    H224949   0.330   4.935   1.950 -0.7632  1.7183 -0.4250
 8329TIP3   OH224950   0.521   3.962   4.614  0.0486  0.1428 -0.0210
 8329TIP3    H124951   0.539   3.868   4.621  0.6889  0.2632  0.0333
 8329TIP3    H224952   0.543   3.985   4.524  1.1316  0.4864  0.3209
 8330TIP3   OH224953   1.305   0.004   1.379  0.0345  0.7963  0.2414
 8330TIP3    H124954   1.255   0.085   1.378  0.5561  1.1523 -2.1325
 8330TIP3    H224955   1.359   0.008   1.300 -0.5431 -2.2578 -0.4021
 8331TIP3   OH224956   2.025   6.541   2.232 -0.4624  1.1055  0.4002
 8331TIP3    H124957   1.961   6.499   2.290  0.2280 -1.3735 -0.5125
 8331TIP3    H224958   2.105   6.544   2.284 -0.5943  1.5743  0.5742
 8332TIP3   OH224959   3.999   3.608   4.530 -0.1051 -0.3920 -0.4777
 8332TIP3    H124960   4.046   3.595   4.448  1.3402 -0.8132  0.3863
 8332TIP3    H224961   3.971   3.520   4.557  0.6855 -0.4481  0.1909
 8333TIP3   OH224962   2.189   5.459   5.451 -0.0966 -0.1286 -0.0373
 8333TIP3    H124963   2.142   5.376   5.442 -0.8579  0.4046 -1.1938
 8333TIP3    H224964   2.120   5.524   5.461  0.4674  0.4897 -0.1416
 8334TIP3   OH224965   3.768   0.014   0.813  0.2357  0.1137  0.4767
 8334TIP3    H124966   3.851   0.058   0.797  0.4618 -0.9507 -1.7116
 8334TIP3    H224967   3.720   0.072   0.871  2.6910  0.5029  2.2726
 8335TIP3   OH224968   3.041   4.830   5.627 -0.6643  0.7127  0.5569
 8335TIP3    H124969   3.006   4.783   5.702  1.2275 -0.6619  0.6214
 8335TIP3    H224970   3.128   4.859   5.655  0.2593 -0.2218 -1.2291
 8336TIP3   OH224971   2.830   3.199   4.008 -0.6058  0.2051 -0.0725
 8336TIP3    H124972   2.878   3.281   3.998  0.7147 -0.7398 -2.4208
 8336TIP3    H224973   2.761   3.203   3.941 -0.1509 -0.8056 -0.6284
 8337TIP3   OH224974   6.657   3.272   5.292 -0.2547 -0.0766 -0.4726
 8337TIP3    H124975   6.651   3.193   5.346 -0.6844  0.6302  0.5330
 8337TIP3    H224976   6.572   3.314   5.300  0.2242  0.9078 -0.3445
 8338TIP3   OH224977   2.820   1.473   2.590  0.1575  0.0453 -0.2051
 8338TIP3    H124978   2.753   1.527   2.631 -1.2506 -0.9955 -1.0413
 8338TIP3    H224979   2.804   1.385   2.625  1.4644 -0.1225  0.0086
 8339TIP3   OH224980   1.623   6.124   4.129 -0.0530 -0.5532 -0.0368
 8339TIP3    H124981   1.630   6.107   4.035  3.8316  0.0052  0.0068
 8339TIP3    H224982   1.623   6.038   4.169  3.0534 -0.8637 -0.4764
 8340TIP3   OH224983   3.190   2.533   5.731  0.4351  0.3380 -0.2893
 8340TIP3    H124984   3.149   2.448   5.721  3.2597 -1.1307 -0.4173
 8340TIP3    H224985   3.128   2.584   5.784  0.8635 -3.6110  4.8288
 8341TIP3   OH224986   3.295   0.496   2.577 -0.1374 -0.1657 -0.5076
 8341TIP3    H124987   3.268   0.513   2.667  2.7742  0.0938  0.4496
 8341TIP3    H224988   3.287   0.402   2.566  0.9550 -0.4124  0.6258
 8342TIP3   OH224989   1.755   5.651   4.501  0.0647 -0.4799  0.2834
 8342TIP3    H124990   1.698   5.668   4.426 -2.4470 -0.3150  2.1050
 8342TIP3    H224991   1.718   5.572   4.541  1.3374 -0.5570  1.3771
 8343TIP3   OH224992   7.160   1.220   3.737 -0.1619 -0.0386 -0.2803
 8343TIP3    H124993   7.164   1.273   3.817 -1.3864 -0.3649  0.0215
 8343TIP3    H224994   7.100   1.268   3.680 -0.9038 -0.8339 -0.1907
 8344TIP3   OH224995   1.700   2.274   4.987  0.0456  0.7205  0.8658
 8344TIP3    H124996   1.780   2.240   5.027  1.8374  1.3343 -1.9211
 8344TIP3    H224997   1.639   2.200   4.989  1.9995 -1.0326 -0.2204
 8345TIP3   OH224998   5.073   6.719   3.287 -0.1442  0.6763 -0.5458
 8345TIP3    H124999   5.028   6.713   3.372  0.2492  0.6346 -0.3362
 8345TIP3    H225000   5.006   6.753   3.227 -0.4528  0.6187 -0.2402
 8346TIP3   OH225001   0.854   6.567   1.197 -0.7356 -0.7815 -0.1912
 8346TIP3    H125002   0.946   6.576   1.173 -0.5328 -1.7196  0.1897
 8346TIP3    H225003   0.812   6.529   1.119 -0.5596 -1.4669  0.0367
 8347TIP3   OH225004   6.258   2.919   0.496 -0.6685 -0.0306 -0.2535
 8347TIP3    H125005   6.324   2.894   0.431 -1.1997 -0.6286 -0.5874
 8347TIP3    H225006   6.211   2.992   0.456 -1.4220 -0.8122 -0.8656
 8348TIP3   OH225007   5.022   1.846   4.122 -0.2200 -0.0703  0.1044
 8348TIP3    H125008   5.030   1.936   4.154 -0.4733  0.7619 -2.0238
 8348TIP3    H225009   4.928   1.829   4.121 -0.2073 -0.1360 -0.0580
 8349TIP3   OH225010   0.786   4.103   1.632 -0.0194 -0.2044  0.5421
 8349TIP3    H125011   0.752   4.025   1.675  0.5180 -1.6470 -1.4935
 8349TIP3    H225012   0.753   4.176   1.684  0.8161 -1.7795  3.5273
 8350TIP3   OH225013   6.132   1.313   4.170  0.1115 -0.0931  0.2181
 8350TIP3    H125014   6.042   1.343   4.161  0.1988  0.2520  0.4633
 8350TIP3    H225015   6.128   1.219   4.155 -0.3016 -0.0926  0.3204
 8351TIP3   OH225016   7.079   0.109   2.064  0.0349 -0.2398  0.3067
 8351TIP3    H125017   7.040   0.037   2.113 -0.8618 -0.5378 -0.7979
 8351TIP3    H225018   7.155   0.072   2.020 -0.6371 -0.6386 -0.5586
 8352TIP3   OH225019   7.097   6.280   5.276  0.1168  0.3060 -0.4318
 8352TIP3    H125020   7.183   6.265   5.314  0.1546  0.9528 -0.2373
 8352TIP3    H225021   7.115   6.304   5.185  0.1228  0.1216 -0.4784
 8353TIP3   OH225022   2.247   2.714   3.911  0.2363  0.1071 -0.0622
 8353TIP3    H125023   2.293   2.654   3.970 -1.0671 -0.0689  0.8110
 8353TIP3    H225024   2.171   2.743   3.961  0.0992  1.4214 -0.9868
 8354TIP3   OH225025   2.181   0.419   3.482  0.0328  0.3788  0.1771
 8354TIP3    H125026   2.219   0.380   3.561 -3.0720  2.3925  2.9203
 8354TIP3    H225027   2.227   0.502   3.472 -0.3913  0.6670  0.6088
 8355TIP3   OH225028   6.592   5.726   3.390  0.5263 -0.1315 -0.2483
 8355TIP3    H125029   6.505   5.690   3.410  0.4835 -0.3734 -0.8343
 8355TIP3    H225030   6.645   5.705   3.466 -0.2568  1.1631  0.7017
 8356TIP3   OH225031   2.375   1.517   4.461 -0.1527 -0.1183 -0.0361
 8356TIP3    H125032   2.382   1.433   4.416  1.7902  0.0952 -0.2154
 8356TIP3    H225033   2.457   1.562   4.441  0.7764  0.0956  3.5169
 8357TIP3   OH225034   0.290   0.469   2.918 -0.3682  0.3812 -0.0861
 8357TIP3    H125035   0.321   0.384   2.889 -0.2822  0.6132 -0.6862
 8357TIP3    H225036   0.330   0.481   3.004  0.6812  0.3870 -0.5670
 8358TIP3   OH225037   2.274   5.973   5.369  0.2012 -0.3302 -0.6701
 8358TIP3    H125038   2.360   5.996   5.333  0.0900 -0.9430 -1.3568
 8358TIP3    H225039   2.219   6.049   5.350  0.8702  0.6164  0.8941
 8359TIP3   OH225040   1.876   4.161   3.148  0.5020  0.0221  0.4806
 8359TIP3    H125041   1.838   4.181   3.062  2.1746  1.9908  0.1478
 8359TIP3    H225042   1.804   4.118   3.195 -0.8741  0.0530 -1.4336
 8360TIP3   OH225043   3.283   3.848   4.832 -0.0927  0.4584  0.1220
 8360TIP3    H125044   3.304   3.796   4.754  2.2368  1.3401  0.0651
 8360TIP3    H225045   3.323   3.799   4.904 -0.4166  0.6962  0.4651
 8361TIP3   OH225046   3.758   1.036   1.588  0.1457 -0.2512  0.3576
 8361TIP3    H125047   3.671   1.039   1.550 -0.3436 -0.7452  1.3797
 8361TIP3    H225048   3.817   1.067   1.519 -0.7264 -0.8380 -0.6720
 8362TIP3   OH225049   0.863   4.442   3.211  0.5705 -0.1826 -0.1281
 8362TIP3    H125050   0.946   4.459   3.166  1.3085 -0.9020  0.8963
 8362TIP3    H225051   0.873   4.482   3.297 -0.6764  0.8628 -0.4416
 8363TIP3   OH225052   3.901   4.980   4.336 -0.4490 -0.3568 -0.0330
 8363TIP3    H125053   3.955   4.920   4.386 -0.7272 -0.8034 -0.2538
 8363TIP3    H225054   3.915   5.065   4.376 -0.8429 -0.7370  0.9557
 8364TIP3   OH225055   2.039   4.838   1.184  0.5103  0.3275 -0.0670
 8364TIP3    H125056   2.019   4.791   1.102  0.4290 -0.8499  0.6084
 8364TIP3    H225057   2.070   4.770   1.244 -1.7625  0.7283  1.6837
 8365TIP3   OH225058   4.842   1.252   1.660 -0.0257  0.2201  0.2023
 8365TIP3    H125059   4.868   1.273   1.749 -0.3094  1.7422 -0.0386
 8365TIP3    H225060   4.885   1.318   1.606 -1.3137  0.4603 -0.5926
 8366TIP3   OH225061   6.858   6.520   4.226 -0.4146 -0.3322  0.6182
 8366TIP3    H125062   6.783   6.487   4.276  1.2017 -1.6153  2.3838
 8366TIP3    H225063   6.934   6.484   4.272  1.2494 -0.8384 -2.3346
 8367TIP3   OH225064   3.528   6.537   2.201  0.1844 -0.0280 -0.0970
 8367TIP3    H125065   3.532   6.557   2.108 -1.1791 -1.0807 -0.4122
 8367TIP3    H225066   3.537   6.622   2.245  1.0147  0.4572 -1.1548
 8368TIP3   OH225067   2.364   6.415   0.672 -0.1999 -0.3872  0.0050
 8368TIP3    H125068   2.422   6.480   0.632 -0.3328 -0.4934 -0.3615
 8368TIP3    H225069   2.300   6.466   0.721 -0.0140 -0.2583  0.1175
 8369TIP3   OH225070   1.969   0.336   2.030 -0.1452  0.1305 -0.3397
 8369TIP3    H125071   1.957   0.366   2.120  1.0493 -3.1375  1.0555
 8369TIP3    H225072   2.049   0.380   2.000  0.2941  0.1069  0.7634
 8370TIP3   OH225073   1.974   4.614   0.976  0.7966 -0.3326  0.3812
 8370TIP3    H125074   1.921   4.594   1.053  0.0787  0.4485  0.1001
 8370TIP3    H225075   2.037   4.542   0.971  0.6976 -0.5129  1.5515
 8371TIP3   OH225076   0.274   2.817   3.160  0.3381 -0.7299  0.9822
 8371TIP3    H125077   0.348   2.865   3.197  0.7620 -0.6436  0.0555
 8371TIP3    H225078   0.241   2.874   3.091 -0.3069 -0.9711  1.0900
 8372TIP3   OH225079   3.051   4.838   2.955 -0.8061 -0.2574  0.5113
 8372TIP3    H125080   3.037   4.926   2.990 -1.8945 -0.3337  0.2915
 8372TIP3    H225081   3.008   4.780   3.018  2.2920 -0.9359  2.2164
 8373TIP3   OH225082   1.289   1.456   0.917  0.0709 -0.1645  0.0657
 8373TIP3    H125083   1.344   1.377   0.919  0.3434 -0.0139 -1.0605
 8373TIP3    H225084   1.290   1.487   1.008  0.1636 -1.3110  0.4721
 8374TIP3   OH225085   4.455   6.719   2.185 -0.0202  0.1655 -0.2740
 8374TIP3    H125086   4.408   6.799   2.209 -0.7522 -0.9228  2.1908
 8374TIP3    H225087   4.403   6.680   2.115  0.8041  2.1672 -2.1622
 8375TIP3   OH225088   4.731   1.370   4.931  0.6805 -0.1616  0.5339
 8375TIP3    H125089   4.699   1.326   5.009 -0.1107 -0.6680 -0.0590
 8375TIP3    H225090   4.824   1.349   4.928  1.0136  0.9567  2.0366
 8376TIP3   OH225091   2.685   6.469   3.323 -0.0170  0.4264 -0.2704
 8376TIP3    H125092   2.622   6.452   3.253 -0.6927 -1.1011  0.6522
 8376TIP3    H225093   2.764   6.421   3.296  0.9568  2.6370 -1.6051
 8377TIP3   OH225094   7.169   4.287   4.552 -0.0823 -0.2961 -0.0926
 8377TIP3    H125095   7.172   4.234   4.631  1.9877  0.3431  0.3040
 8377TIP3    H225096   7.083   4.269   4.515 -0.2817 -2.2233  1.1727
 8378TIP3   OH225097   1.562   5.657   3.469  0.4007 -0.0848 -0.1509
 8378TIP3    H125098   1.489   5.682   3.412  1.3435 -1.2992 -1.9758
 8378TIP3    H225099   1.636   5.710   3.437  0.6228  0.2701  0.9090
 8379TIP3   OH225100   1.497   0.878   4.163  0.1204 -0.4396 -0.1144
 8379TIP3    H125101   1.512   0.815   4.233  0.2839 -0.9006 -0.5615
 8379TIP3    H225102   1.405   0.868   4.140 -0.2899  0.6508  0.9327
 8380TIP3   OH225103   3.510   5.409   0.830 -0.1526 -0.7219  0.4012
 8380TIP3    H125104   3.508   5.496   0.789  2.2135 -0.4511  0.6898
 8380TIP3    H225105   3.421   5.396   0.863 -0.7270  1.3390 -0.1691
 8381TIP3   OH225106   5.013   1.398   3.881  0.0788 -0.1482 -0.3419
 8381TIP3    H125107   5.012   1.492   3.898  0.0441 -0.1388 -0.3954
 8381TIP3    H225108   5.077   1.385   3.811 -2.1384  0.2395 -2.6104
 8382TIP3   OH225109   5.419   3.443   1.026  0.3465  0.0887 -0.2615
 8382TIP3    H125110   5.495   3.502   1.026  0.3420  0.1791  1.8465
 8382TIP3    H225111   5.361   3.479   1.092  0.9437 -2.9052  2.1254
 8383TIP3   OH225112   5.181   1.258   0.036 -0.4062  0.5194  0.0099
 8383TIP3    H125113   5.161   1.261  -0.058  0.9448 -1.8600 -0.4450
 8383TIP3    H225114   5.096   1.252   0.079 -1.0606  1.8392 -1.0201
 8384TIP3   OH225115   3.489   1.393   2.619  0.3737  0.5724  0.2422
 8384TIP3    H125116   3.429   1.335   2.667  0.7135  0.0423  0.0365
 8384TIP3    H225117   3.436   1.430   2.549 -0.0133  1.0118  0.7590
 8385TIP3   OH225118   2.958   1.822   4.217 -0.4586  0.3675  0.6031
 8385TIP3    H125119   2.972   1.913   4.242  0.5422  0.8355 -1.4528
 8385TIP3    H225120   3.046   1.786   4.209 -0.7615 -0.1133 -0.7942
 8386TIP3   OH225121   4.346   4.826   5.288  0.0884  0.1036 -0.6737
 8386TIP3    H125122   4.319   4.897   5.347 -0.5647  0.2936 -1.1800
 8386TIP3    H225123   4.267   4.774   5.276  0.8679 -1.4414  0.6564
 8387TIP3   OH225124   2.547   2.724   5.528  0.1118 -0.8324 -0.0858
 8387TIP3    H125125   2.483   2.750   5.594  1.5256 -0.0154  1.0416
 8387TIP3    H225126   2.573   2.635   5.552 -1.1693 -1.5041 -1.0541
 8388TIP3   OH225127   5.139   6.661   0.061  0.5874  0.1021  0.2320
 8388TIP3    H125128   5.059   6.691   0.017  2.0705  0.2527 -2.6485
 8388TIP3    H225129   5.209   6.712   0.019  2.5577 -2.6552 -0.1014
 8389TIP3   OH225130   3.196   0.888   5.362  0.0781  0.9321 -0.2903
 8389TIP3    H125131   3.235   0.837   5.432  0.4158  0.3999 -0.8536
 8389TIP3    H225132   3.103   0.868   5.366  0.0395  1.2049  0.2433
 8390TIP3   OH225133   2.329   1.674   2.774 -0.4982 -0.7572 -0.6968
 8390TIP3    H125134   2.291   1.674   2.686 -0.7540 -1.3978 -0.5898
 8390TIP3    H225135   2.381   1.755   2.778 -1.2089 -0.2699 -1.1172
 8391TIP3   OH225136   2.963   4.668   5.185  0.5367  0.3629  0.2742
 8391TIP3    H125137   2.982   4.581   5.222 -0.6154 -0.6033 -1.2422
 8391TIP3    H225138   2.959   4.726   5.261 -0.0775 -1.1940  1.5154
 8392TIP3   OH225139   2.830   3.815   5.797 -0.2366 -0.5141 -0.6125
 8392TIP3    H125140   2.766   3.886   5.797 -1.6497 -1.7288  0.2456
 8392TIP3    H225141   2.828   3.781   5.886 -0.7134 -2.5813 -1.3529
 8393TIP3   OH225142   2.170   3.708   3.068 -0.5421  0.0408 -0.4382
 8393TIP3    H125143   2.136   3.762   2.997 -0.9337  2.5723  1.5208
 8393TIP3    H225144   2.187   3.770   3.139  1.6156 -2.0784  1.0746
 8394TIP3   OH225145   1.452   0.108   4.511 -0.0197  0.4012  0.2758
 8394TIP3    H125146   1.387   0.065   4.456  0.6529 -0.6493  0.2825
 8394TIP3    H225147   1.526   0.125   4.452 -1.0590  3.6484 -0.3353
 8395TIP3   OH225148   2.008   3.604   1.994 -0.6008 -0.1363 -0.1550
 8395TIP3    H125149   1.951   3.629   1.921  0.0234  0.0814 -0.5799
 8395TIP3    H225150   2.093   3.644   1.972  0.1038 -1.6116 -0.2401
 8396TIP3   OH225151   4.541   4.222   4.645 -0.6975 -0.1998  0.0791
 8396TIP3    H125152   4.564   4.297   4.700 -0.2036 -0.9131  0.8767
 8396TIP3    H225153   4.552   4.255   4.555 -1.4128  0.9486  0.3911
 8397TIP3   OH225154   0.490   3.339   5.224  0.6579  0.1474  0.2387
 8397TIP3    H125155   0.526   3.394   5.154 -0.1976 -0.3208 -0.6083
 8397TIP3    H225156   0.458   3.261   5.178 -2.9325  1.2069  0.5950
 8398TIP3   OH225157   3.494   1.020   5.600  0.4611  0.1891  0.5382
 8398TIP3    H125158   3.521   1.013   5.508  1.9871 -0.0287  0.9749
 8398TIP3    H225159   3.495   0.930   5.633 -1.4660  0.0851  0.4346
 8399TIP3   OH225160   6.523   6.643   1.868 -0.1285 -0.2316 -0.2687
 8399TIP3    H125161   6.600   6.590   1.849  0.0594 -0.3138  0.6597
 8399TIP3    H225162   6.543   6.729   1.830  0.4005 -0.2697 -0.0885
 8400TIP3   OH225163   4.776   0.165   5.060 -0.1640 -0.7337  0.0150
 8400TIP3    H125164   4.748   0.108   4.988 -1.5331  2.4425 -2.2190
 8400TIP3    H225165   4.834   0.229   5.018 -0.9764  1.2199  1.6859
 8401TIP3   OH225166   3.226   1.316   0.857  0.0799  0.1820  0.3260
 8401TIP3    H125167   3.216   1.262   0.936 -0.7105  0.0461  0.1488
 8401TIP3    H225168   3.165   1.277   0.794  0.4402  0.5091 -0.2336
 8402TIP3   OH225169   2.802   1.582   3.290  0.0394  1.3070  1.0727
 8402TIP3    H125170   2.879   1.627   3.256 -1.1469  2.4723 -0.2226
 8402TIP3    H225171   2.805   1.597   3.384  1.8837  0.4976  1.1806
 8403TIP3   OH225172   0.804   3.011   4.218  0.2408 -0.2953  0.1872
 8403TIP3    H125173   0.769   3.028   4.131  0.2794  0.5486  0.3296
 8403TIP3    H225174   0.741   3.050   4.278 -0.2317 -1.6272  0.5865
 8404TIP3   OH225175   2.081   5.220   5.422  0.3692 -0.5937  0.0128
 8404TIP3    H125176   1.994   5.226   5.461  0.1735  0.4307 -0.5465
 8404TIP3    H225177   2.065   5.197   5.330  0.6510  0.2786 -0.2601
 8405TIP3   OH225178   4.210   6.530   1.531  0.2681 -0.4493  0.1386
 8405TIP3    H125179   4.132   6.586   1.526  0.5644  0.3231  2.7394
 8405TIP3    H225180   4.284   6.591   1.530  0.7623 -1.0465 -0.3989
 8406TIP3   OH225181   2.606   0.105   3.692 -0.3608 -0.1787  0.3323
 8406TIP3    H125182   2.588   0.107   3.786 -0.1432 -0.0579  0.3737
 8406TIP3    H225183   2.573   0.020   3.662  0.6160 -0.7286  0.7431
 8407TIP3   OH225184   1.347   5.456   3.660 -0.3568  0.7173  0.2446
 8407TIP3    H125185   1.403   5.390   3.617 -0.9429  1.3136 -1.5150
 8407TIP3    H225186   1.315   5.411   3.738 -2.5718 -2.0557 -1.9958
 8408TIP3   OH225187   7.215   1.978   4.799  0.0629 -0.5465 -0.0342
 8408TIP3    H125188   7.185   1.897   4.757 -0.6898 -0.4656  0.3449
 8408TIP3    H225189   7.140   2.037   4.794 -1.1843 -1.4897  4.0299
 8409TIP3   OH225190   4.602   4.211   2.465 -0.0072  0.0122  0.1171
 8409TIP3    H125191   4.590   4.244   2.376  0.1689  0.6777  0.3348
 8409TIP3    H225192   4.657   4.133   2.454  0.6196  0.5003 -0.2933
 8410TIP3   OH225193   3.198   4.730   4.163 -0.3753  0.1034  0.7129
 8410TIP3    H125194   3.112   4.772   4.161  0.4151  1.8271 -0.9743
 8410TIP3    H225195   3.194   4.665   4.093 -1.0846 -1.6575  2.3097
 8411TIP3   OH225196   1.882   4.621   0.027  0.3898  0.6055 -0.0235
 8411TIP3    H125197   1.957   4.627  -0.032  0.4520  0.9571  0.0918
 8411TIP3    H225198   1.833   4.702   0.013  0.1780  0.5016  0.1032
 8412TIP3   OH225199   6.627   2.010   0.720 -0.1127 -0.2238  0.1100
 8412TIP3    H125200   6.539   2.046   0.711 -0.2237 -0.3954  0.4847
 8412TIP3    H225201   6.624   1.957   0.800  0.4725  0.1983  0.4246
 8413TIP3   OH225202   3.485   4.707   4.503  0.0750  0.5704 -0.0752
 8413TIP3    H125203   3.510   4.782   4.558 -1.0144 -0.2295  1.5818
 8413TIP3    H225204   3.565   4.655   4.495  1.3603  2.6755 -2.7205
 8414TIP3   OH225205   4.628   1.922   1.880  0.5357  0.1094 -0.7272
 8414TIP3    H125206   4.536   1.916   1.855  0.2933  0.3653  0.0683
 8414TIP3    H225207   4.641   1.854   1.945  0.2997  1.5308  0.8821
 8415TIP3   OH225208   1.802   0.305   5.174 -0.2819  0.3470 -0.2994
 8415TIP3    H125209   1.744   0.379   5.193  0.0153  1.2107 -2.4699
 8415TIP3    H225210   1.743   0.237   5.140 -0.0866  1.4679 -3.1673
 8416TIP3   OH225211   0.827   2.494   2.301 -0.2525 -0.0085  0.1445
 8416TIP3    H125212   0.897   2.482   2.237 -0.4261 -0.1740 -0.0171
 8416TIP3    H225213   0.869   2.537   2.375 -0.4849  2.3052 -0.9742
 8417TIP3   OH225214   5.112   2.722   0.245 -0.3855 -0.0321  0.4034
 8417TIP3    H125215   5.149   2.703   0.331 -2.0911 -1.0204  0.9710
 8417TIP3    H225216   5.174   2.783   0.205  1.1788 -0.6788  1.7428
 8418TIP3   OH225217   1.846   6.191   2.165  0.5118  0.7767  0.3050
 8418TIP3    H125218   1.768   6.247   2.160 -0.3835 -0.5101 -0.7234
 8418TIP3    H225219   1.821   6.110   2.121  2.3327  0.1906  0.2513
 8419TIP3   OH225220   5.241   3.506   4.540 -0.2474  0.0328 -0.4120
 8419TIP3    H125221   5.258   3.418   4.506 -1.1043 -0.3136  0.0257
 8419TIP3    H225222   5.190   3.492   4.619 -1.0434  0.9494 -0.7409
 8420TIP3   OH225223   6.577   4.352   0.808  0.9909 -0.0094 -0.4392
 8420TIP3    H125224   6.594   4.444   0.785  0.9667 -0.2836 -1.6096
 8420TIP3    H225225   6.483   4.349   0.825  1.1428  0.3646  0.5082
 8421TIP3   OH225226   4.774   6.372   3.213 -0.4698 -0.3534 -0.2319
 8421TIP3    H125227   4.805   6.429   3.143  1.0168  0.7450  1.2158
 8421TIP3    H225228   4.728   6.301   3.169  0.7154  0.1028 -2.3242
 8422TIP3   OH225229   7.172   0.782   0.199 -0.3183  0.0859  0.2748
 8422TIP3    H125230   7.233   0.734   0.255 -1.2813 -1.9315 -0.3182
 8422TIP3    H225231   7.088   0.775   0.244 -1.0029 -1.1112 -1.0949
 8423TIP3   OH225232   0.944   0.214   0.465  0.3064  0.5705 -0.4904
 8423TIP3    H125233   0.979   0.289   0.417 -0.5761  1.2764 -0.0607
 8423TIP3    H225234   1.021   0.160   0.484  0.9440  1.3174 -0.8886
 8424TIP3   OH225235   4.487   0.237   0.466  0.0473 -0.4830 -0.0918
 8424TIP3    H125236   4.544   0.217   0.392 -1.2216 -1.4020 -0.8605
 8424TIP3    H225237   4.466   0.330   0.456  0.0337 -0.5571 -0.7777
 8425TIP3   OH225238   6.425   6.291   2.913 -0.3703  0.7435 -0.3089
 8425TIP3    H125239   6.364   6.289   2.841 -0.1426  1.4238 -0.5319
 8425TIP3    H225240   6.386   6.236   2.980 -0.1396 -0.6447 -1.2909
 8426TIP3   OH225241   0.830   4.233   1.957  0.4974  0.0149  0.1609
 8426TIP3    H125242   0.737   4.213   1.972  0.6195 -1.2249 -0.6070
 8426TIP3    H225243   0.862   4.266   2.041 -1.2009  2.8360 -0.1532
 8427TIP3   OH225244   4.662   3.266   5.315 -0.1355 -0.0164  0.3402
 8427TIP3    H125245   4.588   3.303   5.266 -0.0223 -0.1527  0.0633
 8427TIP3    H225246   4.629   3.184   5.351 -0.7653  0.9146  1.9721
 8428TIP3   OH225247   2.150   5.031   2.512 -0.5088  0.1591 -0.0268
 8428TIP3    H125248   2.078   5.006   2.454  0.3737 -0.2882 -0.9413
 8428TIP3    H225249   2.109   5.036   2.599 -1.7417  0.3622 -0.5926
 8429TIP3   OH225250   1.714   3.018   3.480  0.6001 -0.0744  0.0114
 8429TIP3    H125251   1.654   3.089   3.454 -0.1302 -0.2776  1.0697
 8429TIP3    H225252   1.792   3.032   3.426 -0.8883 -0.6121 -2.4326
 8430TIP3   OH225253   1.881   3.718   1.033  0.1774 -0.1020  0.3439
 8430TIP3    H125254   1.836   3.661   0.972  0.6355  0.9112 -0.9924
 8430TIP3    H225255   1.835   3.802   1.026 -0.2344 -0.1589  1.9641
 8431TIP3   OH225256   3.697   3.294   2.863  0.5471 -1.0591 -0.1641
 8431TIP3    H125257   3.717   3.366   2.802  1.2812 -2.0569 -1.1339
 8431TIP3    H225258   3.729   3.326   2.947 -3.2650  1.6749  0.5438
 8432TIP3   OH225259   1.669  -0.005   2.507 -0.0302 -0.0948  0.4328
 8432TIP3    H125260   1.601   0.034   2.452 -0.5004 -0.2660  0.8887
 8432TIP3    H225261   1.748   0.045   2.486 -0.5361  0.8491  0.7316
 8433TIP3   OH225262   6.669   1.280   4.811  0.6941 -0.3079 -0.0732
 8433TIP3    H125263   6.675   1.288   4.715 -1.5692  0.4824 -0.1912
 8433TIP3    H225264   6.583   1.242   4.827  0.7549  0.2314  1.6942
 8434TIP3   OH225265   3.861   2.605   3.030 -0.0103 -0.6015  0.2946
 8434TIP3    H125266   3.823   2.520   3.007 -0.0830 -0.7560  0.9413
 8434TIP3    H225267   3.888   2.594   3.121  2.4676 -0.7957 -0.4058
 8435TIP3   OH225268   2.315   4.816   3.581 -0.2016 -0.0103 -0.9669
 8435TIP3    H125269   2.388   4.808   3.520  0.1561  2.2994 -0.9233
 8435TIP3    H225270   2.240   4.838   3.526 -0.4624 -0.4897 -0.8121
 8436TIP3   OH225271   5.858   2.158   1.475  0.3846  0.2471 -0.2259
 8436TIP3    H125272   5.850   2.085   1.414  1.4889  0.6801 -0.9297
 8436TIP3    H225273   5.945   2.148   1.513  0.5506  1.1751 -0.3321
 8437TIP3   OH225274   6.020   4.809   0.910 -0.3383 -0.1538 -0.1658
 8437TIP3    H125275   5.929   4.820   0.882 -0.2479  1.4805  0.1016
 8437TIP3    H225276   6.016   4.812   1.005  0.1919  2.2189 -0.1495
 8438TIP3   OH225277   0.174   1.118   1.518  0.4152  0.1236 -0.0912
 8438TIP3    H125278   0.155   1.197   1.569 -1.9049  0.2062 -0.9589
 8438TIP3    H225279   0.092   1.068   1.521  0.9533 -0.9349 -1.8439
 8439TIP3   OH225280   2.359   4.830   2.224  0.2056  0.2000  0.3067
 8439TIP3    H125281   2.381   4.893   2.293 -0.5266  0.6393  0.1475
 8439TIP3    H225282   2.264   4.834   2.217  0.2289 -0.2267 -0.3731
 8440TIP3   OH225283   6.072   1.766   1.355 -0.0051  0.3152 -0.1027
 8440TIP3    H125284   6.156   1.812   1.347  0.2938 -0.1483  0.3225
 8440TIP3    H225285   6.048   1.746   1.265  0.4266  0.3113 -0.2222
 8441TIP3   OH225286   1.807   0.652   2.680 -0.0155  0.0984  0.1087
 8441TIP3    H125287   1.779   0.602   2.603 -0.7529  1.0873 -0.2809
 8441TIP3    H225288   1.814   0.742   2.650  0.6303  0.3559  0.9758
 8442TIP3   OH225289   5.517   0.444   4.186 -0.0329  0.2865 -0.0724
 8442TIP3    H125290   5.489   0.426   4.096 -0.9894  1.2897  0.0150
 8442TIP3    H225291   5.458   0.391   4.241 -1.2067  1.6868  0.0669
 8443TIP3   OH225292   4.867   1.578   3.490  0.2769 -0.3697  1.1739
 8443TIP3    H125293   4.885   1.488   3.520  0.4696  0.1078  2.5726
 8443TIP3    H225294   4.801   1.611   3.552 -0.5856  0.1201  0.0438
 8444TIP3   OH225295   2.024   5.905   2.531  0.4834  0.4336  0.1780
 8444TIP3    H125296   2.038   5.995   2.562 -3.1161  1.0133  0.5858
 8444TIP3    H225297   1.988   5.860   2.607  0.9247 -0.9978 -0.4390
 8445TIP3   OH225298   0.910   0.421   3.339  0.2060 -0.2181  0.4908
 8445TIP3    H125299   0.827   0.410   3.385 -0.3213  0.1541 -0.3480
 8445TIP3    H225300   0.955   0.337   3.351 -0.8173 -0.8658 -0.0716
 8446TIP3   OH225301   3.694   5.948   3.479 -0.3662  0.7226  0.3132
 8446TIP3    H125302   3.671   5.860   3.509 -0.3707  1.3288  2.2749
 8446TIP3    H225303   3.753   5.934   3.406  0.0024 -0.9230  0.8815
 8447TIP3   OH225304   6.012   5.085   0.614 -0.3171  0.2417 -0.5491
 8447TIP3    H125305   6.035   5.177   0.623 -2.1187  0.7232 -0.4754
 8447TIP3    H225306   5.968   5.063   0.696 -0.4414 -0.5121 -0.8104
 8448TIP3   OH225307   1.745   3.594   0.212 -0.5415  0.3540  0.0776
 8448TIP3    H125308   1.809   3.658   0.243 -2.3345  2.2927 -0.0062
 8448TIP3    H225309   1.795   3.537   0.153  0.8192  2.6801 -1.1602
 8449TIP3   OH225310   6.652   6.081   5.277 -0.4244 -0.4251 -0.8020
 8449TIP3    H125311   6.632   5.992   5.306  2.3802 -0.9805 -0.3229
 8449TIP3    H225312   6.707   6.070   5.200 -0.2022  0.9004 -0.8540
 8450TIP3   OH225313   3.084   0.088   0.924  0.1660  0.0360 -0.6753
 8450TIP3    H125314   2.997   0.056   0.948  0.2303  0.5688  0.3455
 8450TIP3    H225315   3.126   0.015   0.880 -0.0026 -0.9870  0.7982
 8451TIP3   OH225316   5.046   1.599   1.128  0.2378 -0.7443  0.0306
 8451TIP3    H125317   5.033   1.514   1.086 -0.5016 -0.6721  0.1018
 8451TIP3    H225318   5.060   1.578   1.221 -0.3314 -0.7695  0.1145
 8452TIP3   OH225319   0.432   0.595   3.679  0.2464  0.3489  0.0849
 8452TIP3    H125320   0.475   0.677   3.655 -0.0323  1.1253  2.0336
 8452TIP3    H225321   0.356   0.622   3.731  0.5188 -1.1411  1.3352
 8453TIP3   OH225322   7.127   0.866   2.096 -0.0241 -0.4227 -0.3384
 8453TIP3    H125323   7.175   0.785   2.083 -2.5356 -2.0027 -0.5504
 8453TIP3    H225324   7.042   0.850   2.054 -0.6077  2.3292 -0.3919
 8454TIP3   OH225325   3.099   2.891   3.276 -0.1549 -0.3324 -0.1749
 8454TIP3    H125326   3.072   2.980   3.299  1.8500  0.4961 -0.7930
 8454TIP3    H225327   3.017   2.843   3.266 -1.2678  0.8080  2.4934
 8455TIP3   OH225328   3.918   5.605   4.584 -0.0063 -0.1371 -0.0583
 8455TIP3    H125329   3.992   5.576   4.637 -0.3216 -0.1518  0.3848
 8455TIP3    H225330   3.894   5.690   4.621  1.5094  1.1860 -1.9522
 8456TIP3   OH225331   6.236   2.885   2.965  0.3304 -0.1401  0.1437
 8456TIP3    H125332   6.277   2.805   2.933 -1.1308 -0.6055 -0.6598
 8456TIP3    H225333   6.267   2.894   3.055  0.7638 -1.4431  0.1436
 8457TIP3   OH225334   5.028   5.181   3.942  0.2884 -0.4239 -0.2107
 8457TIP3    H125335   5.080   5.194   3.863  3.3017  0.2556  1.7218
 8457TIP3    H225336   5.024   5.086   3.952  0.4238 -0.5009 -0.8408
 8458TIP3   OH225337   6.432   0.356   5.086 -0.3383  0.2519  0.5260
 8458TIP3    H125338   6.346   0.314   5.085 -0.2120 -0.4768 -4.1909
 8458TIP3    H225339   6.494   0.284   5.074  0.6003  1.1143  0.0386
 8459TIP3   OH225340   2.934   5.183   3.613  0.4051  0.1502 -1.1571
 8459TIP3    H125341   2.852   5.226   3.587 -0.6146 -0.6434  0.5542
 8459TIP3    H225342   2.911   5.091   3.623  1.4261 -0.0390 -0.3764
 8460TIP3   OH225343   1.685   2.941   4.010  0.1701 -0.0029 -0.1405
 8460TIP3    H125344   1.770   2.957   3.968 -0.8740  0.4993 -2.2021
 8460TIP3    H225345   1.661   2.853   3.983 -1.0401  0.7402 -1.7204
 8461TIP3   OH225346   1.162   0.021   3.938 -0.0789 -0.7598  0.1046
 8461TIP3    H125347   1.165   0.114   3.916  0.4196 -0.0385  2.7805
 8461TIP3    H225348   1.237  -0.017   3.893  1.8046  0.9080  1.6262
 8462TIP3   OH225349   6.817   4.801   0.257  0.1547  0.1098  0.9393
 8462TIP3    H125350   6.863   4.798   0.341 -0.0026 -2.5157  1.0037
 8462TIP3    H225351   6.832   4.890   0.225  2.3612  0.3894  2.5299
 8463TIP3   OH225352   1.263   0.679   0.436  0.2387 -0.5039  0.3215
 8463TIP3    H125353   1.337   0.711   0.384 -0.6443  2.1586  0.5668
 8463TIP3    H225354   1.280   0.713   0.524 -1.6776  1.0129  0.1799
 8464TIP3   OH225355   2.916   2.554   0.709 -0.1209  0.2298  0.0218
 8464TIP3    H125356   2.938   2.473   0.665  1.2857 -0.0797  1.2197
 8464TIP3    H225357   2.938   2.539   0.801 -1.0842  1.5245  0.5079
 8465TIP3   OH225358   6.232   1.433   2.683  0.8183 -0.3056 -0.1171
 8465TIP3    H125359   6.233   1.525   2.709 -2.7638  0.2483 -1.2998
 8465TIP3    H225360   6.308   1.423   2.626  2.6952  1.1985  1.9779
 8466TIP3   OH225361   6.908   4.436   2.243 -0.0770 -0.1575  0.0004
 8466TIP3    H125362   6.860   4.463   2.165 -0.7694  1.3096  0.8900
 8466TIP3    H225363   6.975   4.376   2.211 -0.3141  0.4527 -1.7230
 8467TIP3   OH225364   5.000   6.323   1.249  0.7323  0.7324  0.2529
 8467TIP3    H125365   5.049   6.242   1.239 -0.3927  0.0578  0.0317
 8467TIP3    H225366   4.918   6.297   1.290 -0.2376  1.5239 -1.0938
 8468TIP3   OH225367   6.695   1.636   1.005 -0.7703  0.1197  0.1244
 8468TIP3    H125368   6.747   1.711   1.034 -0.4249  0.0529 -0.3033
 8468TIP3    H225369   6.727   1.618   0.917 -3.1855  1.5826 -1.1563
 8469TIP3   OH225370   6.395   2.344   1.444 -0.4121 -0.8327  0.5157
 8469TIP3    H125371   6.334   2.287   1.399 -1.4627  0.1476  0.6655
 8469TIP3    H225372   6.397   2.424   1.392 -1.7014  0.3469  2.1739
 8470TIP3   OH225373   0.772   1.940   3.431  0.0233 -0.2276  0.1535
 8470TIP3    H125374   0.700   1.893   3.474  0.8523 -0.1322  1.6648
 8470TIP3    H225375   0.848   1.926   3.487  1.1267 -0.0131 -1.2292
 8471TIP3   OH225376   0.075   5.584   4.302  0.3388  0.2564  0.3634
 8471TIP3    H125377   0.041   5.612   4.387  1.6011  1.4330  0.5071
 8471TIP3    H225378   0.070   5.488   4.305 -0.6655  0.3119  1.3091
 8472TIP3   OH225379   0.777   1.372   5.331 -0.2109 -0.1218 -0.0747
 8472TIP3    H125380   0.706   1.428   5.300 -2.0170 -1.5613  1.2261
 8472TIP3    H225381   0.856   1.408   5.290 -1.4752  2.3650 -0.5157
 8473TIP3   OH225382   2.958   4.878   5.357 -0.4408  0.9067  0.5255
 8473TIP3    H125383   2.962   4.841   5.444  0.7285  1.0946  0.5656
 8473TIP3    H225384   2.941   4.971   5.371 -0.3285  0.9227  0.5605
 8474TIP3   OH225385   1.537   0.436   5.018  0.2929  0.7801  0.2123
 8474TIP3    H125386   1.609   0.457   4.958  0.1296  0.3854 -0.1318
 8474TIP3    H225387   1.527   0.341   5.010  1.0167  0.5514  1.7229
 8475TIP3   OH225388   3.029   3.712   4.350  0.0693  0.3024  0.0633
 8475TIP3    H125389   3.103   3.757   4.392  1.6772 -0.5600 -1.6724
 8475TIP3    H225390   3.064   3.684   4.265 -2.7567  1.2711 -1.5299
 8476TIP3   OH225391   2.943   4.415   5.316  0.6069 -0.0457  0.2574
 8476TIP3    H125392   2.865   4.375   5.355  0.8188 -1.9248 -1.1187
 8476TIP3    H225393   3.015   4.361   5.348  1.5355  2.1262  2.1495
 8477TIP3   OH225394   3.565   5.920   2.513  0.0746 -0.3955 -0.3053
 8477TIP3    H125395   3.522   5.875   2.441  1.2748 -0.2277 -1.1627
 8477TIP3    H225396   3.500   5.984   2.544 -0.2162  0.0348 -1.7198
 8478TIP3   OH225397   1.272   0.963   3.008  0.3488 -0.1261 -0.3679
 8478TIP3    H125398   1.310   0.877   2.989  2.3376  0.4468  0.7402
 8478TIP3    H225399   1.208   0.946   3.078 -1.5145 -1.0932 -2.2055
 8479TIP3   OH225400   6.533   5.311   5.401  0.2721 -0.3722 -0.5938
 8479TIP3    H125401   6.546   5.396   5.360  0.4847 -0.2546 -0.2852
 8479TIP3    H225402   6.479   5.329   5.478  2.4192 -0.1225  0.9260
 8480TIP3   OH225403   4.919   5.172   0.562 -0.1141  0.0400 -0.4694
 8480TIP3    H125404   4.920   5.165   0.466  1.0132  0.4429 -0.5012
 8480TIP3    H225405   4.888   5.086   0.592  0.2198 -0.3368 -1.1753
 8481TIP3   OH225406   3.921   3.893   0.657 -0.1125  0.0566  0.9011
 8481TIP3    H125407   3.896   3.826   0.721  1.0904  0.4436  1.8188
 8481TIP3    H225408   3.928   3.846   0.574  1.9976 -1.3093  1.7500
 8482TIP3   OH225409   0.493   1.871   5.743 -0.5175  0.2221  0.4147
 8482TIP3    H125410   0.419   1.809   5.743  1.9900 -3.1083 -1.2161
 8482TIP3    H225411   0.538   1.852   5.826  0.8477 -1.0665 -0.5651
 8483TIP3   OH225412   2.548   5.959   4.796 -0.2006 -0.1661 -0.1743
 8483TIP3    H125413   2.468   5.920   4.761 -0.7665  0.0517  0.8138
 8483TIP3    H225414   2.567   6.034   4.740 -0.2696 -0.6571 -0.8527
 8484TIP3   OH225415   3.600   2.378   5.197 -0.1023 -0.3233  0.2245
 8484TIP3    H125416   3.600   2.338   5.284  0.2712  0.1438  0.4417
 8484TIP3    H225417   3.689   2.410   5.185  0.1887 -1.4711 -0.8432
 8485TIP3   OH225418   2.113   5.536   4.451  0.2518 -0.0683 -0.8378
 8485TIP3    H125419   2.058   5.474   4.404 -1.0798  1.1071 -0.9037
 8485TIP3    H225420   2.074   5.540   4.539  0.7478  0.1657 -0.6240
 8486TIP3   OH225421   2.028   2.544   0.441 -0.2066  0.8688  0.4525
 8486TIP3    H125422   1.968   2.618   0.438  0.1584  1.1431 -1.3580
 8486TIP3    H225423   1.981   2.473   0.397  0.3084  0.7317  0.1046
 8487TIP3   OH225424   0.063   4.026   1.721 -0.0707 -0.6632  0.3999
 8487TIP3    H125425   0.081   3.944   1.768 -0.0826 -1.0164 -0.2108
 8487TIP3    H225426   0.133   4.034   1.657  0.9652  0.7440  1.6480
 8488TIP3   OH225427   1.587   2.702   1.570 -0.1119 -0.2468 -0.3643
 8488TIP3    H125428   1.524   2.630   1.558  0.8076 -1.3733  1.0767
 8488TIP3    H225429   1.660   2.661   1.617  0.8659  1.4430 -0.3442
 8489TIP3   OH225430   1.885   0.044   2.754 -0.0893  0.1206  0.3908
 8489TIP3    H125431   1.792   0.026   2.752 -0.0312 -0.3295  1.2752
 8489TIP3    H225432   1.925  -0.028   2.706 -0.1738  0.1817  0.2272
 8490TIP3   OH225433   5.047   3.895   4.005  0.3471 -0.4100 -0.1161
 8490TIP3    H125434   4.984   3.823   4.007 -0.0810 -0.0265  1.5768
 8490TIP3    H225435   5.086   3.890   3.918 -2.0916 -0.5947 -1.2885
 8491TIP3   OH225436   5.835   3.804   1.666 -0.4265  0.4989 -0.1550
 8491TIP3    H125437   5.922   3.831   1.635 -0.0416  1.4981  1.6649
 8491TIP3    H225438   5.841   3.708   1.672  1.7668  0.6737  3.0763
 8492TIP3   OH225439   1.633   5.634   5.097 -0.1162 -0.0559 -0.3971
 8492TIP3    H125440   1.582   5.715   5.096 -1.8329 -1.1086 -0.6528
 8492TIP3    H225441   1.684   5.637   5.016 -0.9640  0.2870 -0.9312
 8493TIP3   OH225442   0.903   4.918   0.502  0.1742 -0.0206  0.1626
 8493TIP3    H125443   0.988   4.925   0.458  0.0408  0.1059 -0.0784
 8493TIP3    H225444   0.847   4.978   0.454 -0.3635 -0.9642 -0.4125
 8494TIP3   OH225445   1.347   6.795   1.537  0.0032  0.0850  0.2104
 8494TIP3    H125446   1.330   6.713   1.492 -1.5492  0.3588  0.2559
 8494TIP3    H225447   1.428   6.779   1.586 -1.2403 -2.0768  1.7211
 8495TIP3   OH225448   4.198   0.170   2.638 -0.1102  0.8103  0.2672
 8495TIP3    H125449   4.257   0.232   2.679  0.4565  0.0381  0.6465
 8495TIP3    H225450   4.252   0.123   2.574 -0.4594  0.5163  0.1803
 8496TIP3   OH225451   5.807   6.432   2.006  0.2974 -0.1437 -0.0292
 8496TIP3    H125452   5.836   6.494   1.939  2.6379  0.0416  1.0660
 8496TIP3    H225453   5.836   6.347   1.975 -0.6258 -0.3806 -0.2902
 8497TIP3   OH225454   2.995   5.118   0.370  0.1835  0.1645  0.0656
 8497TIP3    H125455   3.069   5.109   0.430  0.6950  2.0426 -0.1900
 8497TIP3    H225456   2.938   5.182   0.412 -0.4022  0.0643 -0.5568
 8498TIP3   OH225457   3.619   3.554   5.861 -0.9725  0.6360 -0.1881
 8498TIP3    H125458   3.540   3.522   5.904  0.0401 -0.8867  0.6452
 8498TIP3    H225459   3.675   3.477   5.854  0.6083  1.7509 -0.3620
 8499TIP3   OH225460   5.458   0.867   0.305  0.1839 -0.3850 -0.3542
 8499TIP3    H125461   5.454   0.959   0.279 -0.8019 -0.1857  0.4078
 8499TIP3    H225462   5.384   0.827   0.260  0.1571 -0.6349 -0.0897
 8500TIP3   OH225463   6.864   5.069   3.146 -0.2163  0.2620  0.5462
 8500TIP3    H125464   6.835   5.070   3.237  0.6169  2.1386  0.8368
 8500TIP3    H225465   6.924   5.143   3.139  1.4835 -1.1693 -0.9847
 8501TIP3   OH225466   0.240   2.806   3.978 -0.2793 -0.4322 -0.4767
 8501TIP3    H125467   0.182   2.731   3.993 -0.7757 -0.1270 -0.8225
 8501TIP3    H225468   0.189   2.882   4.009 -0.0012 -0.1782 -0.6350
 8502TIP3   OH225469   0.907   5.290   2.722  0.0234 -0.2498  0.4226
 8502TIP3    H125470   0.817   5.319   2.713  0.5304  1.7526  1.2031
 8502TIP3    H225471   0.959   5.359   2.681  1.2316 -1.3173  0.0544
 8503TIP3   OH225472   0.895   1.601   1.075  0.3016  0.0511  0.5749
 8503TIP3    H125473   0.944   1.579   0.996  1.5396  0.4370  1.2097
 8503TIP3    H225474   0.841   1.525   1.091 -1.2366  0.5980 -1.5561
 8504TIP3   OH225475   1.634   1.473   4.806 -0.1893 -0.4146 -0.1386
 8504TIP3    H125476   1.663   1.540   4.743 -0.3774 -0.6124 -0.4363
 8504TIP3    H225477   1.557   1.511   4.847 -0.6861 -0.7117 -0.7753
 8505TIP3   OH225478   7.035   0.176   0.178  0.0026  0.8070 -0.0738
 8505TIP3    H125479   7.126   0.180   0.209 -0.3736  1.3476  1.0179
 8505TIP3    H225480   7.042   0.141   0.090  1.2188  0.1298  0.2578
 8506TIP3   OH225481   3.745   3.192   3.919 -0.4840 -0.0600  0.0182
 8506TIP3    H125482   3.676   3.245   3.959 -0.0994 -0.3106  1.0527
 8506TIP3    H225483   3.805   3.172   3.992  1.1952  0.9508 -1.0088
 8507TIP3   OH225484   0.752   0.605   1.579  0.2496  0.2045 -0.0533
 8507TIP3    H125485   0.707   0.521   1.592  1.5525 -0.7645 -1.4251
 8507TIP3    H225486   0.682   0.666   1.558 -1.0572  0.1590  3.5426
 8508TIP3   OH225487   0.099   6.462   3.178 -0.4096  0.5269 -0.6386
 8508TIP3    H125488   0.014   6.421   3.196  0.4949 -0.3957  2.1155
 8508TIP3    H225489   0.158   6.389   3.159  0.4671  0.7751  0.9086
 8509TIP3   OH225490   7.054   2.981   3.580  0.0327  0.0189 -0.0167
 8509TIP3    H125491   7.084   2.974   3.489  1.7404 -0.2816  0.5252
 8509TIP3    H225492   7.049   2.891   3.611  1.8155  0.1785  0.8606
 8510TIP3   OH225493   4.153   5.386   1.378  0.2925 -0.5567 -0.3369
 8510TIP3    H125494   4.236   5.340   1.367 -0.6362 -2.0319 -1.6563
 8510TIP3    H225495   4.167   5.445   1.453  2.1230 -1.6429  0.2260
 8511TIP3   OH225496   4.365   0.460   1.228 -0.1513  0.0122 -0.3120
 8511TIP3    H125497   4.401   0.377   1.260 -0.0785  0.8667  2.0226
 8511TIP3    H225498   4.272   0.441   1.215  0.1161 -0.7850 -1.1520
 8512TIP3   OH225499   2.772   3.995   0.221  0.1478  0.4816 -0.3303
 8512TIP3    H125500   2.762   3.900   0.212  0.3970  0.4231 -0.0220
 8512TIP3    H225501   2.799   4.008   0.312  1.0600  0.7622 -0.6231
 8513TIP3   OH225502   6.623   0.962   4.255 -0.0125  0.0357  0.1578
 8513TIP3    H125503   6.539   0.961   4.301  0.6569  0.5122  1.4401
 8513TIP3    H225504   6.630   1.051   4.221 -0.6030 -0.3754 -1.1000
 8514TIP3   OH225505   4.494   5.615   4.978  0.0634  0.2518  0.7337
 8514TIP3    H125506   4.525   5.661   4.899 -0.8284  0.0388  0.2425
 8514TIP3    H225507   4.530   5.527   4.970 -1.1799 -0.2099 -0.1959
 8515TIP3   OH225508   3.898   4.296   1.853  0.5011 -0.2644  0.7234
 8515TIP3    H125509   3.895   4.358   1.926  0.4361 -0.9332  1.3003
 8515TIP3    H225510   3.813   4.305   1.811  1.5747  2.3153 -1.1590
 8516TIP3   OH225511   4.262   4.081   0.512  0.4388 -0.2682 -0.1926
 8516TIP3    H125512   4.334   4.119   0.462  0.5665  0.1400  0.2921
 8516TIP3    H225513   4.226   4.154   0.562  1.0708 -0.8769  1.2096
 8517TIP3   OH225514   1.726   5.908   2.674 -0.0156 -0.4815  0.1562
 8517TIP3    H125515   1.733   5.833   2.733  2.1593 -1.2404 -0.9661
 8517TIP3    H225516   1.716   5.869   2.587 -0.2219  0.5564 -0.2995
 8518TIP3   OH225517   4.859   2.129   4.840 -0.1520 -0.1659 -0.3292
 8518TIP3    H125518   4.844   2.036   4.824 -0.7502  0.1962 -2.0777
 8518TIP3    H225519   4.936   2.150   4.787  1.0199  0.0203  1.3478
 8519TIP3   OH225520   4.237   6.547   3.871  0.3532 -0.1358  0.1609
 8519TIP3    H125521   4.264   6.631   3.908 -3.0913  1.6450 -0.9434
 8519TIP3    H225522   4.172   6.513   3.932 -0.4433 -0.4680 -0.8277
 8520TIP3   OH225523   0.160   3.472   0.743  0.0232  0.6630 -0.0468
 8520TIP3    H125524   0.130   3.460   0.832 -1.8746  0.8536 -0.6222
 8520TIP3    H225525   0.110   3.409   0.691  1.2575  0.3858 -0.9679
 8521TIP3   OH225526   4.402   5.382   2.423 -0.5023  0.0588  0.0428
 8521TIP3    H125527   4.311   5.351   2.421 -0.1769 -1.0753  1.3197
 8521TIP3    H225528   4.405   5.443   2.496 -0.2886  0.3091 -0.1711
 8522TIP3   OH225529   6.182   2.668   2.258 -0.0060 -0.4915 -0.1532
 8522TIP3    H125530   6.170   2.760   2.280 -0.0934  0.2050 -2.8110
 8522TIP3    H225531   6.093   2.634   2.246  0.0637 -0.3567 -1.1526
 8523TIP3   OH225532   0.646   2.411   3.065 -0.3803  0.4690  0.1441
 8523TIP3    H125533   0.710   2.391   3.133 -0.9942 -1.1924  0.2903
 8523TIP3    H225534   0.562   2.413   3.111 -0.7555 -0.2955 -0.4786
 8524TIP3   OH225535   6.758   3.040   1.458 -0.1767  0.3608 -0.1214
 8524TIP3    H125536   6.686   3.096   1.429  0.1199  0.1985 -1.2154
 8524TIP3    H225537   6.837   3.086   1.430  0.1116  0.0183  0.1178
 8525TIP3   OH225538   3.245   5.701   2.887  0.2200  0.0108 -0.6014
 8525TIP3    H125539   3.318   5.759   2.908 -0.7924  1.0955  0.0788
 8525TIP3    H225540   3.190   5.703   2.966 -0.8724 -0.2536 -1.3334
 8526TIP3   OH225541   0.099   2.673   1.492  0.7448 -0.1666  0.2077
 8526TIP3    H125542   0.099   2.634   1.580 -0.7883  0.4160  0.4915
 8526TIP3    H225543   0.037   2.746   1.498  1.3511  0.4820 -1.1102
 8527TIP3   OH225544   5.815   1.170   1.529 -0.7415  1.1372 -0.4708
 8527TIP3    H125545   5.748   1.220   1.575 -0.3516 -0.0223  1.4926
 8527TIP3    H225546   5.888   1.232   1.519 -1.4246  1.8761 -1.0064
 8528TIP3   OH225547   2.655   0.069   2.003 -0.2763  0.0363  0.0843
 8528TIP3    H125548   2.707   0.136   2.048 -0.8675  0.0701  0.7274
 8528TIP3    H225549   2.716   0.030   1.940  0.3754  0.4443  0.4542
 8529TIP3   OH225550   3.078   3.204   0.393  0.0477  0.0698  0.2787
 8529TIP3    H125551   3.150   3.156   0.435  1.4268  0.8257 -1.1112
 8529TIP3    H225552   3.043   3.144   0.328  0.6508  0.3257 -0.2943
 8530TIP3   OH225553   1.355   2.580   4.837  0.1454 -0.5876 -0.5177
 8530TIP3    H125554   1.447   2.578   4.864  0.0611 -2.6344 -0.2054
 8530TIP3    H225555   1.308   2.535   4.907 -0.7914 -1.4260 -1.6394
 8531TIP3   OH225556   2.737   6.741   1.460 -0.5149  0.2114  0.2867
 8531TIP3    H125557   2.651   6.718   1.495 -0.5850 -0.0019 -0.0164
 8531TIP3    H225558   2.726   6.734   1.365  0.2108 -1.1684  0.2790
 8532TIP3   OH225559   3.837   5.164   1.702  0.0813  0.3961  0.2281
 8532TIP3    H125560   3.814   5.120   1.620 -2.3228  0.7536  0.6376
 8532TIP3    H225561   3.776   5.237   1.708  1.2804  1.3390  1.5913
 8533TIP3   OH225562   3.402   2.594   1.343  0.1536 -0.3598 -0.7571
 8533TIP3    H125563   3.482   2.636   1.374 -0.3911  0.4016 -0.3531
 8533TIP3    H225564   3.399   2.510   1.388  0.9452 -0.5867 -1.1106
 8534TIP3   OH225565   5.512   4.194   5.222 -0.6985  0.4435  0.0783
 8534TIP3    H125566   5.541   4.286   5.224  0.7783  0.1105 -2.0897
 8534TIP3    H225567   5.550   4.159   5.142 -1.8836 -1.8882  0.4484
 8535TIP3   OH225568   3.242   0.588   2.829 -0.1621  0.0449  0.0912
 8535TIP3    H125569   3.282   0.659   2.779 -0.2283  1.0223  1.3715
 8535TIP3    H225570   3.159   0.625   2.861 -0.1966 -0.6094  0.7822
 8536TIP3   OH225571   3.270   5.985   0.192  0.2405 -0.1017  0.3833
 8536TIP3    H125572   3.349   6.031   0.164  0.6760 -0.4521  1.0250
 8536TIP3    H225573   3.204   6.054   0.200  0.3171  0.1158 -0.7098
 8537TIP3   OH225574   0.216   2.131   3.978 -0.1602  0.3117 -0.3982
 8537TIP3    H125575   0.269   2.069   4.027  0.1163  0.3877 -0.6046
 8537TIP3    H225576   0.276   2.172   3.916 -1.0916 -2.1430 -3.1670
 8538TIP3   OH225577   6.536   2.596   0.580  0.3958  0.7533  0.0615
 8538TIP3    H125578   6.544   2.531   0.649 -0.9990 -0.0448 -0.4688
 8538TIP3    H225579   6.562   2.550   0.500 -2.3017  0.1881 -0.6083
 8539TIP3   OH225580   2.108   3.237   0.884 -0.4780  0.6508  0.2151
 8539TIP3    H125581   2.182   3.255   0.943  0.3695  0.8120 -0.8675
 8539TIP3    H225582   2.145   3.180   0.817 -1.8619 -0.9737  0.7607
 8540TIP3   OH225583   0.594   4.499   4.709 -0.1757 -0.2228 -0.2904
 8540TIP3    H125584   0.516   4.516   4.763 -1.5686 -0.7548 -2.0514
 8540TIP3    H225585   0.621   4.586   4.678 -2.1657 -0.2505 -2.3893
 8541TIP3   OH225586   6.598   6.697   5.632  0.5777  0.5325 -0.3689
 8541TIP3    H125587   6.665   6.633   5.654 -0.0499  0.5294  1.7819
 8541TIP3    H225588   6.529   6.647   5.589 -0.2266 -0.4571  1.9223
 8542TIP3   OH225589   6.480   1.837   3.377  0.3969 -0.1367 -0.2498
 8542TIP3    H125590   6.548   1.889   3.421 -0.3558 -1.1106  2.2193
 8542TIP3    H225591   6.412   1.826   3.443 -0.9669 -1.4544 -1.8066
 8543TIP3   OH225592   3.495   2.115   3.767 -0.3479  0.3358 -0.3707
 8543TIP3    H125593   3.430   2.065   3.817  0.4854 -0.1578  0.2276
 8543TIP3    H225594   3.579   2.087   3.802  0.1998  0.8885 -1.2242
 8544TIP3   OH225595   6.435   1.893   0.069  0.0014  0.5008  0.5890
 8544TIP3    H125596   6.379   1.892  -0.009  1.4641  1.6249 -0.5510
 8544TIP3    H225597   6.478   1.808   0.068 -1.3354 -0.2182  1.2552
 8545TIP3   OH225598   3.876   3.492   3.305  0.4742 -0.0742 -0.1640
 8545TIP3    H125599   3.886   3.444   3.387  0.0665  1.2852  0.7027
 8545TIP3    H225600   3.808   3.557   3.323  0.5227  0.3902 -1.5194
 8546TIP3   OH225601   4.251   4.078   4.620 -0.1274  0.4622 -0.2899
 8546TIP3    H125602   4.241   4.095   4.526  1.0254 -1.5412 -0.8473
 8546TIP3    H225603   4.167   4.040   4.646  0.1381 -0.6776 -0.9837
 8547TIP3   OH225604   7.096   1.309   2.511  0.5244  0.0516 -0.3744
 8547TIP3    H125605   7.171   1.301   2.452 -0.1631  0.9745 -1.4142
 8547TIP3    H225606   7.045   1.229   2.495  1.2732 -0.5884  0.3514
 8548TIP3   OH225607   7.102   3.198   4.999 -0.4539  0.3951  0.4011
 8548TIP3    H125608   7.181   3.223   5.046  0.4898 -1.2616 -0.2428
 8548TIP3    H225609   7.111   3.240   4.914  0.1507 -0.4694  0.0315
 8549TIP3   OH225610   3.120   0.206   1.965 -0.3192 -0.2100  0.0559
 8549TIP3    H125611   3.130   0.166   1.878  0.8611  0.2157 -0.0093
 8549TIP3    H225612   3.207   0.239   1.987 -0.9012  0.8823  0.8187
 8550TIP3   OH225613   0.744   1.585   5.650  0.1085 -0.5702 -0.2207
 8550TIP3    H125614   0.756   1.677   5.624 -0.6896 -0.7183 -1.1491
 8550TIP3    H225615   0.747   1.587   5.745 -1.8495  0.7178 -0.1322
 8551TIP3   OH225616   2.146   4.409   1.718  0.3250 -0.5656 -0.7562
 8551TIP3    H125617   2.190   4.422   1.802  1.7158 -0.0773 -1.5226
 8551TIP3    H225618   2.102   4.324   1.727 -0.9340  0.1993  1.0082
 8552TIP3   OH225619   4.763   1.377   4.528  0.2620 -0.3906  0.0856
 8552TIP3    H125620   4.855   1.353   4.513  0.1926 -0.8934  0.4522
 8552TIP3    H225621   4.727   1.388   4.440  0.9058  0.7321 -0.0601
 8553TIP3   OH225622   0.244   2.170   5.689  0.1953 -0.0484  0.2014
 8553TIP3    H125623   0.155   2.150   5.658 -0.9211 -0.3739  3.2959
 8553TIP3    H225624   0.257   2.261   5.665 -1.0701  0.0699 -0.1388
 8554TIP3   OH225625   1.563   4.693   5.006 -0.0666 -0.0722  0.3694
 8554TIP3    H125626   1.640   4.744   4.983  1.0726 -2.5806 -1.9467
 8554TIP3    H225627   1.585   4.655   5.092  0.4514  0.7300  0.6023
 8555TIP3   OH225628   1.320   3.356   3.860 -0.2081  0.1307 -0.1361
 8555TIP3    H125629   1.238   3.371   3.812 -0.2475 -1.2084 -0.5292
 8555TIP3    H225630   1.387   3.356   3.792 -0.2517 -1.6850 -0.2163
 8556TIP3   OH225631   6.815   6.531   5.648  0.7769  0.6571 -0.2380
 8556TIP3    H125632   6.813   6.469   5.575  1.7393 -0.6006  0.7612
 8556TIP3    H225633   6.904   6.524   5.683  0.5810  1.8501  0.5492
 8557TIP3   OH225634   6.131   2.320   3.435 -0.5592 -0.2253  0.2316
 8557TIP3    H125635   6.174   2.346   3.353 -2.4798  1.4649 -0.3253
 8557TIP3    H225636   6.130   2.225   3.432 -0.9301 -0.2093 -1.9396
 8558TIP3   OH225637   3.279   1.827   2.753  0.7348  0.4195  0.1252
 8558TIP3    H125638   3.215   1.781   2.807  3.1354 -1.6736  1.3975
 8558TIP3    H225639   3.286   1.775   2.673 -0.1050  1.4464 -0.6571
 8559TIP3   OH225640   1.485   3.192   2.176  0.1312  0.1875 -0.0802
 8559TIP3    H125641   1.453   3.226   2.259  2.7717 -1.5551  1.8209
 8559TIP3    H225642   1.530   3.266   2.136 -1.0822  1.0185  0.0419
 8560TIP3   OH225643   4.653   1.565   0.210 -1.1249  0.2287  0.1346
 8560TIP3    H125644   4.665   1.481   0.253 -1.6980 -0.2149 -0.5573
 8560TIP3    H225645   4.669   1.547   0.117  0.7651  1.2958  0.1947
 8561TIP3   OH225646   1.230   0.899   5.640 -0.3005 -0.6985  0.2453
 8561TIP3    H125647   1.179   0.867   5.566  0.7066 -0.7261 -0.4524
 8561TIP3    H225648   1.289   0.964   5.603 -1.3444  1.0182  1.4198
 8562TIP3   OH225649   5.607   1.355   3.884 -0.6901  0.2255  0.5858
 8562TIP3    H125650   5.552   1.288   3.925 -2.4169  0.4691 -1.1813
 8562TIP3    H225651   5.554   1.435   3.887  0.9109  1.3128  1.7161
 8563TIP3   OH225652   4.886   1.857   4.397  0.0681  1.0400  0.2886
 8563TIP3    H125653   4.923   1.896   4.318  0.2964 -0.2008 -0.2400
 8563TIP3    H225654   4.820   1.920   4.426 -0.4597  1.2507 -1.2431
 8564TIP3   OH225655   0.489   1.644   1.199 -0.1596  0.0087  0.3087
 8564TIP3    H125656   0.401   1.679   1.184 -1.2286 -2.6016  0.0650
 8564TIP3    H225657   0.495   1.567   1.143  1.3454 -1.3254  2.1792
 8565TIP3   OH225658   2.718   3.698   0.190  0.1791 -0.4469 -0.5752
 8565TIP3    H125659   2.667   3.669   0.266  0.1806  2.1982  0.5469
 8565TIP3    H225660   2.664   3.673   0.114 -2.8853  2.0586  0.5322
 8566TIP3   OH225661   4.908   6.378   0.933  0.0886  0.1451 -0.0902
 8566TIP3    H125662   4.968   6.349   1.002  1.8929  1.2026 -1.1342
 8566TIP3    H225663   4.836   6.420   0.980  1.2822  0.8532  1.1698
 8567TIP3   OH225664   5.241   6.103   5.887  0.1217  0.1585 -0.2659
 8567TIP3    H125665   5.245   6.069   5.797 -0.1869  2.4923 -1.2396
 8567TIP3    H225666   5.153   6.140   5.895  0.1874  0.0863  0.9726
 8568TIP3   OH225667   2.298   0.751   3.986 -0.4151  0.2652 -0.1225
 8568TIP3    H125668   2.221   0.800   3.956 -0.5083  2.2057  2.8992
 8568TIP3    H225669   2.347   0.813   4.038  2.1148 -1.5745 -0.1228
 8569TIP3   OH225670   1.836   2.747   2.860 -0.2455  0.1782 -0.0772
 8569TIP3    H125671   1.889   2.679   2.816 -0.5154 -0.4138  0.5039
 8569TIP3    H225672   1.758   2.754   2.805 -0.0729  0.2525 -0.3181
 8570TIP3   OH225673   4.729   4.215   3.616 -0.8702 -0.5277 -0.1300
 8570TIP3    H125674   4.741   4.223   3.711 -1.7152 -1.4168  0.0672
 8570TIP3    H225675   4.658   4.152   3.606 -0.3510 -0.9437 -1.3687
 8571TIP3   OH225676   4.619   1.315   4.238  0.5801 -0.6306 -0.0086
 8571TIP3    H125677   4.640   1.222   4.250  0.4142 -0.8504 -1.3494
 8571TIP3    H225678   4.650   1.335   4.150 -1.3727  0.0210 -0.5846
 8572TIP3   OH225679   5.099   6.654   3.905 -0.0208 -0.0003  0.8110
 8572TIP3    H125680   5.031   6.620   3.963 -0.0087 -3.3639 -0.9110
 8572TIP3    H225681   5.146   6.718   3.959 -0.7051 -2.0376  4.1367
 8573TIP3   OH225682   5.591   4.928   5.272 -0.2920 -0.0645  0.2621
 8573TIP3    H125683   5.615   4.915   5.181  1.6110 -0.7266  0.7988
 8573TIP3    H225684   5.602   5.022   5.287 -2.2318  0.3396 -0.5650
 8574TIP3   OH225685   2.999   2.958   1.499  0.3788  0.2429  0.4721
 8574TIP3    H125686   3.091   2.964   1.524  0.3099  3.5575  0.2909
 8574TIP3    H225687   2.953   3.012   1.562 -0.9373  1.4738 -1.4301
 8575TIP3   OH225688   2.267   2.922   1.424  0.2922 -0.8995  0.6248
 8575TIP3    H125689   2.186   2.870   1.425  0.7386 -1.6422  2.3413
 8575TIP3    H225690   2.242   3.005   1.384 -1.1738 -1.3415  0.5716
 8576TIP3   OH225691   2.663   1.364   0.707 -0.0327 -0.5082 -0.2279
 8576TIP3    H125692   2.598   1.382   0.775 -0.7269 -0.0360 -1.0015
 8576TIP3    H225693   2.633   1.413   0.631  3.5216  3.3962  0.5412
 8577TIP3   OH225694   6.765   2.669   3.482  0.1894  0.1755 -0.7287
 8577TIP3    H125695   6.679   2.643   3.449  0.8148 -0.1495 -2.1804
 8577TIP3    H225696   6.807   2.587   3.508 -0.4849  0.4648  1.4939
 8578TIP3   OH225697   7.082   4.551   2.581 -0.5446  0.5773 -0.0517
 8578TIP3    H125698   7.121   4.557   2.495 -1.4605  2.3420 -0.4057
 8578TIP3    H225699   7.145   4.594   2.639  0.3730 -1.1787  0.3228
 8579TIP3   OH225700   0.557   3.780   2.824  0.6931 -0.1420  0.3712
 8579TIP3    H125701   0.578   3.802   2.915 -1.0619 -0.1967  0.8155
 8579TIP3    H225702   0.555   3.684   2.823 -1.3204 -0.1362  0.8008
 8580TIP3   OH225703   4.462   1.765   0.199 -0.0606 -0.2410  0.2740
 8580TIP3    H125704   4.505   1.851   0.198 -0.5297  0.0184 -1.5475
 8580TIP3    H225705   4.533   1.702   0.197  0.2650  0.1098  0.5527
 8581TIP3   OH225706   1.889   1.240   3.333  0.1702 -0.2147 -0.0601
 8581TIP3    H125707   1.893   1.315   3.273 -0.7083  0.4489  0.6742
 8581TIP3    H225708   1.795   1.226   3.347  0.1998 -2.6987 -1.6676
 8582TIP3   OH225709   0.352   1.843   2.803  0.3775 -0.2334 -0.1235
 8582TIP3    H125710   0.271   1.794   2.791  0.6728 -0.5668 -0.8138
 8582TIP3    H225711   0.349   1.872   2.894 -0.0492 -1.1020  0.1564
 8583TIP3   OH225712   3.807   4.748   5.608  0.3979 -0.5784 -0.2086
 8583TIP3    H125713   3.877   4.751   5.673  0.0320  0.2296  0.1617
 8583TIP3    H225714   3.727   4.767   5.658  0.3354  2.1717 -1.2112
 8584TIP3   OH225715   3.023   1.269   0.689 -0.0459 -0.0279 -0.2580
 8584TIP3    H125716   3.009   1.232   0.602  0.6711  0.4523 -0.5855
 8584TIP3    H225717   2.939   1.310   0.711 -0.2447 -0.1948 -0.6990
 8585TIP3   OH225718   1.449   0.196   3.475  0.3086  0.3851 -0.2723
 8585TIP3    H125719   1.469   0.289   3.476  0.1753  0.4306  1.3223
 8585TIP3    H225720   1.533   0.153   3.488  0.1371  0.3747  0.9148
 8586TIP3   OH225721   0.948   4.215   2.788  0.6737  0.1985  0.4964
 8586TIP3    H125722   0.891   4.261   2.850  2.4904  0.6512  1.9279
 8586TIP3    H225723   1.034   4.255   2.801  1.5264 -1.0511 -0.9599
 8587TIP3   OH225724   4.784   1.098   4.287 -0.0812  0.1140  0.0966
 8587TIP3    H125725   4.720   1.072   4.354  0.3014  1.1353  0.8904
 8587TIP3    H225726   4.865   1.114   4.337  0.7041 -0.7781 -0.8436
 8588TIP3   OH225727   4.205   6.049   2.318  0.0907 -0.4215  0.3131
 8588TIP3    H125728   4.250   5.968   2.343  0.9217 -0.3404 -0.8693
 8588TIP3    H225729   4.115   6.037   2.348  0.0734 -2.0008 -0.3014
 8589TIP3   OH225730   4.441   2.750   1.497 -0.7017 -0.8043 -0.9345
 8589TIP3    H125731   4.521   2.700   1.478  0.0449  0.4206 -1.1254
 8589TIP3    H225732   4.390   2.744   1.416 -0.1138 -0.3644 -1.3525
 8590TIP3   OH225733   2.529   3.858   3.544 -0.1578 -0.1675 -0.2154
 8590TIP3    H125734   2.463   3.927   3.539 -0.4600 -0.5006 -1.0760
 8590TIP3    H225735   2.547   3.836   3.452  1.4109  0.1553 -0.0130
 8591TIP3   OH225736   4.471   4.545   1.441 -0.4207 -0.3203  0.9231
 8591TIP3    H125737   4.558   4.506   1.441  0.0883  0.7807  0.5539
 8591TIP3    H225738   4.483   4.631   1.400 -1.9600 -0.7701 -0.6083
 8592TIP3   OH225739   5.696   5.808   2.681  0.4542 -0.1649 -0.0588
 8592TIP3    H125740   5.636   5.880   2.662  0.0291 -0.3855  0.4327
 8592TIP3    H225741   5.663   5.770   2.762  1.0076 -0.5595 -0.0151
 8593TIP3   OH225742   2.732   4.315   0.721  0.1961  0.0393  0.2691
 8593TIP3    H125743   2.751   4.372   0.796  2.1434 -0.7533  0.4260
 8593TIP3    H225744   2.790   4.345   0.652  0.1465 -0.7743 -0.1398
 8594TIP3   OH225745   0.720   6.420   5.431  0.5342  0.4716  0.0609
 8594TIP3    H125746   0.770   6.339   5.441 -0.6404 -0.4043 -0.8552
 8594TIP3    H225747   0.776   6.488   5.470  1.3777 -0.8234  1.2202
 8595TIP3   OH225748   1.421   3.554   5.203 -0.0214  0.1100 -0.5041
 8595TIP3    H125749   1.382   3.539   5.289  0.5438 -0.2622 -0.3042
 8595TIP3    H225750   1.356   3.523   5.140 -0.1672 -0.2196 -0.1869
 8596TIP3   OH225751   3.753   0.570   4.357  0.5610  0.1524 -0.0594
 8596TIP3    H125752   3.685   0.576   4.424  1.1771  0.4143  0.5482
 8596TIP3    H225753   3.708   0.593   4.276 -0.4592 -1.2808  0.0689
 8597TIP3   OH225754   6.413   1.933   2.766  0.8156  0.3212 -0.3049
 8597TIP3    H125755   6.400   2.027   2.779 -0.5199  0.1493 -0.2385
 8597TIP3    H225756   6.398   1.919   2.673  0.2571  0.0711 -0.1820
 8598TIP3   OH225757   0.519   5.039   5.778 -0.5551  0.1240  0.5019
 8598TIP3    H125758   0.507   5.107   5.844  1.8170  0.8032  0.3151
 8598TIP3    H225759   0.547   4.962   5.827  0.8029  0.5114  0.3805
 8599TIP3   OH225760   5.473   2.864   1.442  0.4272 -0.0717 -0.0412
 8599TIP3    H125761   5.406   2.924   1.411 -0.9539 -1.2068  0.6392
 8599TIP3    H225762   5.433   2.777   1.435  1.7792 -0.7725  0.5066
 8600TIP3   OH225763   4.873   6.351   1.909  0.2808  0.4687 -0.5273
 8600TIP3    H125764   4.949   6.363   1.853 -0.7229  0.8292 -1.8662
 8600TIP3    H225765   4.811   6.418   1.881  0.0070  1.1340  1.5280
 8601TIP3   OH225766   1.259   4.722   2.551 -0.3188 -0.1421 -0.3724
 8601TIP3    H125767   1.347   4.690   2.530 -0.5636 -1.3532  0.3461
 8601TIP3    H225768   1.201   4.675   2.491 -0.6616 -0.9703  0.5667
 8602TIP3   OH225769   1.961   1.477   2.688  0.0713  0.0747  0.3313
 8602TIP3    H125770   1.870   1.450   2.676 -0.0521  0.3979  0.5541
 8602TIP3    H225771   1.958   1.572   2.694  0.2911  0.0125  1.5630
 8603TIP3   OH225772   1.506   4.786   3.317  1.1548  0.3526  0.2758
 8603TIP3    H125773   1.450   4.863   3.328 -0.7030 -0.7546 -0.8795
 8603TIP3    H225774   1.553   4.801   3.235  1.6097  0.7011  0.5917
 8604TIP3   OH225775   3.875   5.105   2.506  0.2026 -0.5216  1.2472
 8604TIP3    H125776   3.854   5.136   2.594  0.7835 -0.2856  1.3136
 8604TIP3    H225777   3.963   5.139   2.490 -0.2150  0.1390  0.2565
 8605TIP3   OH225778   0.369   6.749   4.387  0.3127  0.3050 -0.0922
 8605TIP3    H125779   0.291   6.805   4.381  1.0825  1.4470  0.1503
 8605TIP3    H225780   0.411   6.758   4.301 -0.1241 -0.7999 -0.4406
 8606TIP3   OH225781   1.693   5.439   2.851  0.1060 -0.0538  0.4484
 8606TIP3    H125782   1.625   5.451   2.784  0.1376  0.1514  0.4530
 8606TIP3    H225783   1.644   5.421   2.931  0.0622 -0.1103  0.4093
 8607TIP3   OH225784   6.158   6.366   0.996 -0.4578 -0.1283  0.1146
 8607TIP3    H125785   6.105   6.404   1.066 -1.0132  1.1813 -0.9753
 8607TIP3    H225786   6.096   6.352   0.925  0.2190 -0.8774 -0.3507
 8608TIP3   OH225787   1.526   4.323   4.362  0.1304 -0.5744 -0.0911
 8608TIP3    H125788   1.571   4.407   4.355 -0.5290 -0.2602 -0.6810
 8608TIP3    H225789   1.516   4.309   4.456  0.5353 -0.1505  0.0188
 8609TIP3   OH225790   1.904   3.642   3.141  0.2591  0.1290  0.0887
 8609TIP3    H125791   1.999   3.647   3.141  0.1780  2.1416  0.4534
 8609TIP3    H225792   1.878   3.677   3.056 -0.2153  1.3020  0.7060
 8610TIP3   OH225793   0.075   2.715   1.237 -0.2099 -0.0357  0.2521
 8610TIP3    H125794  -0.002   2.768   1.260  0.7738  1.6619 -0.2455
 8610TIP3    H225795   0.112   2.689   1.322 -1.2345 -0.7693  0.4961
 8611TIP3   OH225796   3.757   3.510   1.118 -0.3223  0.1747 -0.3903
 8611TIP3    H125797   3.814   3.460   1.060 -1.7792  0.8596 -2.4985
 8611TIP3    H225798   3.771   3.601   1.093  0.0924  0.6563  1.3923
 8612TIP3   OH225799   1.546   2.837   3.047 -0.2855 -0.3020  0.2832
 8612TIP3    H125800   1.570   2.916   2.999 -0.0999 -1.0260 -0.8431
 8612TIP3    H225801   1.493   2.787   2.986  0.7131 -1.6710  0.4828
 8613TIP3   OH225802   4.870   2.875   5.544  0.0156  0.2183 -0.0681
 8613TIP3    H125803   4.871   2.801   5.484  0.7736  0.2191 -0.0677
 8613TIP3    H225804   4.780   2.880   5.575  0.1488 -1.2665  0.6309
 8614TIP3   OH225805   3.401   2.149   3.285  0.0391  0.4114  0.4184
 8614TIP3    H125806   3.429   2.098   3.209 -1.6575  1.2438 -0.8375
 8614TIP3    H225807   3.459   2.121   3.356  0.9285 -1.2277 -0.8934
 8615TIP3   OH225808   2.773   5.006   0.003  0.7779  0.4377  0.8015
 8615TIP3    H125809   2.763   4.922   0.049  0.6573  0.6827  1.2267
 8615TIP3    H225810   2.843   5.051   0.050  1.9508 -0.0597 -0.3817
 8616TIP3   OH225811   1.669   0.309   2.596 -0.1568  0.8238 -0.1481
 8616TIP3    H125812   1.739   0.288   2.657  1.0801 -1.2941 -2.0938
 8616TIP3    H225813   1.588   0.285   2.641  0.7177 -0.7187  0.6575
 8617TIP3   OH225814   2.007   6.614   2.857  0.1169  0.2583 -0.7357
 8617TIP3    H125815   2.072   6.632   2.925  0.2421 -1.7213 -0.2837
 8617TIP3    H225816   2.055   6.564   2.790  0.2099  2.8144 -2.7463
 8618TIP3   OH225817   2.123   1.544   4.581 -0.2071 -0.1455 -0.2947
 8618TIP3    H125818   2.208   1.563   4.542 -0.7866  1.8277 -0.7263
 8618TIP3    H225819   2.074   1.499   4.512  0.5493 -1.5971  0.0678
 8619TIP3   OH225820   4.088   5.792   0.219  0.4370 -0.1785  0.8889
 8619TIP3    H125821   4.107   5.736   0.294 -1.0123 -0.4532  1.0747
 8619TIP3    H225822   4.174   5.812   0.182  1.2121  0.3363  2.8631
 8620TIP3   OH225823   1.574   1.547   1.895  0.1655 -0.4822  0.1137
 8620TIP3    H125824   1.616   1.500   1.967  1.5584  2.6044  1.5151
 8620TIP3    H225825   1.510   1.604   1.938 -0.0111  0.3828 -1.2326
 8621TIP3   OH225826   2.392   1.092   1.968  0.0047 -0.3048 -0.1377
 8621TIP3    H125827   2.435   1.150   1.905 -1.5782  0.9311 -0.1488
 8621TIP3    H225828   2.304   1.129   1.979 -0.2263 -1.2664  1.7653
 8622TIP3   OH225829   4.328   0.750   3.174  0.0288 -0.3201  0.1605
 8622TIP3    H125830   4.392   0.819   3.191  0.3106 -0.3821 -0.6031
 8622TIP3    H225831   4.358   0.709   3.092 -1.0253 -0.3002 -0.2515
 8623TIP3   OH225832   0.824   5.727   4.803  0.1060  0.1171  0.3922
 8623TIP3    H125833   0.908   5.705   4.761 -0.7567 -1.5289 -0.5948
 8623TIP3    H225834   0.817   5.822   4.795  0.8192  0.0448 -1.6524
 8624TIP3   OH225835   0.454   1.273   5.732  0.5092  0.0667 -0.5970
 8624TIP3    H125836   0.505   1.193   5.738 -1.0970 -1.0447 -1.2266
 8624TIP3    H225837   0.418   1.286   5.820 -0.7790 -0.9933 -0.9447
 8625TIP3   OH225838   3.751   2.264   1.577  0.1381  0.3756 -0.4353
 8625TIP3    H125839   3.744   2.285   1.484  1.7388  3.0203 -0.0747
 8625TIP3    H225840   3.677   2.205   1.594 -0.0282 -0.4151 -3.3899
 8626TIP3   OH225841   4.158   1.045   2.087 -0.2186  0.0457  0.5248
 8626TIP3    H125842   4.208   1.091   2.155 -0.1883  0.8302 -0.0169
 8626TIP3    H225843   4.097   0.990   2.136 -1.5251  1.9962  1.2416
 8627TIP3   OH225844   3.891   2.039   0.456  0.2167 -1.1379 -0.3120
 8627TIP3    H125845   3.814   2.094   0.443  0.6094 -0.6685 -0.6517
 8627TIP3    H225846   3.903   2.039   0.551  0.5681 -0.1439 -0.3460
 8628TIP3   OH225847   6.906   4.373   0.866  0.1993 -0.2431 -0.4816
 8628TIP3    H125848   6.811   4.380   0.860  0.1682 -0.7582 -0.5864
 8628TIP3    H225849   6.938   4.450   0.818 -0.1391 -1.0118 -2.0324
 8629TIP3   OH225850   3.426   5.293   3.016  0.5641  0.2189  0.1304
 8629TIP3    H125851   3.402   5.380   3.047  1.0315  0.1203  0.7752
 8629TIP3    H225852   3.480   5.256   3.086  0.4155 -0.5673 -0.1651
 8630TIP3   OH225853   6.810   3.769   1.223  0.4021  0.2712  0.2022
 8630TIP3    H125854   6.746   3.811   1.280  0.9829  1.3811  0.0671
 8630TIP3    H225855   6.836   3.838   1.162  1.8145 -0.1262  0.3331
 8631TIP3   OH225856   4.629   1.701   5.771 -0.2322  0.3143  0.2829
 8631TIP3    H125857   4.597   1.686   5.682  1.8112  0.0218 -0.4519
 8631TIP3    H225858   4.723   1.684   5.766  0.5406  3.4576  1.7241
 8632TIP3   OH225859   6.289   1.192   5.586  0.1935  0.0386  0.1663
 8632TIP3    H125860   6.224   1.155   5.527 -0.4796  2.2843 -0.6256
 8632TIP3    H225861   6.305   1.124   5.652 -1.5053 -1.2816 -0.7289
 8633TIP3   OH225862   2.280   4.221   3.690 -0.0028  0.1804 -0.0508
 8633TIP3    H125863   2.348   4.236   3.755  0.8726 -0.1684 -0.8589
 8633TIP3    H225864   2.317   4.156   3.630 -0.8043  0.4376 -0.8628
 8634TIP3   OH225865   2.206   5.576   2.069  0.6920  0.2409 -0.1027
 8634TIP3    H125866   2.275   5.511   2.083 -0.7571 -1.0935  1.2873
 8634TIP3    H225867   2.219   5.640   2.138  0.9276  0.3599 -0.2552
 8635TIP3   OH225868   5.192   4.746   4.422  0.0254 -0.5994 -0.2469
 8635TIP3    H125869   5.158   4.810   4.360 -1.2915 -0.2151  0.8024
 8635TIP3    H225870   5.122   4.737   4.487  1.6555 -0.3471  1.6381
 8636TIP3   OH225871   1.061   3.814   1.642  0.2893  0.1105  0.4631
 8636TIP3    H125872   0.987   3.851   1.595  0.3837  1.4608  1.3421
 8636TIP3    H225873   1.076   3.729   1.599 -0.1589  0.9071 -1.3743
 8637TIP3   OH225874   5.195   5.959   4.354  0.7089  0.3341 -0.1324
 8637TIP3    H125875   5.253   5.927   4.285  0.0263  0.8610 -0.9626
 8637TIP3    H225876   5.226   5.915   4.433  2.1380  0.4893 -0.5794
 8638TIP3   OH225877   2.436   0.086   2.489 -0.0990  0.2595 -0.0445
 8638TIP3    H125878   2.473   0.017   2.543  0.5586 -0.0413 -0.8626
 8638TIP3    H225879   2.438   0.051   2.399  1.5550  1.8317 -0.6851
 8639TIP3   OH225880   6.479   1.390   3.257 -0.4048 -0.8626  1.0844
 8639TIP3    H125881   6.461   1.335   3.181 -0.8742 -0.4533  0.8916
 8639TIP3    H225882   6.511   1.473   3.220  2.0679 -1.5878  1.4166
 8640TIP3   OH225883   6.858   0.405   4.590 -0.2082 -0.0043  0.3732
 8640TIP3    H125884   6.812   0.435   4.668 -0.8490 -1.6402  0.6632
 8640TIP3    H225885   6.794   0.349   4.545  0.7638 -0.5195 -0.3921
 8641TIP3   OH225886   0.515   0.315   4.097 -0.4463  0.2237 -0.1881
 8641TIP3    H125887   0.596   0.362   4.119 -1.0383  0.7792  0.8910
 8641TIP3    H225888   0.454   0.384   4.070 -1.0106 -0.0182  0.4338
 8642TIP3   OH225889   2.482   5.370   1.990  0.2945  0.0204 -0.0497
 8642TIP3    H125890   2.468   5.447   1.935 -1.4606 -0.5084 -0.4176
 8642TIP3    H225891   2.577   5.362   1.997  0.5261  1.3062 -1.2910
 8643TIP3   OH225892   1.152   0.632   1.042 -0.3450  0.7787  0.1981
 8643TIP3    H125893   1.106   0.614   0.959  0.9265  1.3049 -0.6471
 8643TIP3    H225894   1.194   0.717   1.027 -0.7865  1.2900  1.7084
 8644TIP3   OH225895   5.514   6.797   2.046  0.3426  0.1220  0.1078
 8644TIP3    H125896   5.541   6.809   1.955  3.2213 -0.8148  0.7231
 8644TIP3    H225897   5.550   6.711   2.071  0.1062  0.5810  2.2546
 8645TIP3   OH225898   4.670   2.140   2.439 -0.4196  0.2913 -0.2431
 8645TIP3    H125899   4.578   2.149   2.413 -0.3025  1.0224 -0.4308
 8645TIP3    H225900   4.712   2.099   2.363 -0.7410 -0.8529  0.1720
 8646TIP3   OH225901   6.621   1.181   3.867  0.0164 -0.4155  0.0488
 8646TIP3    H125902   6.656   1.118   3.929 -1.1092 -0.1422  0.9932
 8646TIP3    H225903   6.684   1.180   3.794  2.1238  0.2719  1.7598
 8647TIP3   OH225904   5.909   4.276   3.806  0.0116  0.0857  0.5481
 8647TIP3    H125905   5.956   4.199   3.839 -0.4777 -0.4066  0.1178
 8647TIP3    H225906   5.960   4.350   3.838  0.0931 -0.3950  1.5900
 8648TIP3   OH225907   5.513   0.261   2.840 -0.2480 -0.3526 -0.5213
 8648TIP3    H125908   5.554   0.345   2.861 -0.7734 -0.4381  0.9588
 8648TIP3    H225909   5.437   0.285   2.786 -0.5387  0.1533  0.1020
 8649TIP3   OH225910   0.740   2.208   4.248 -0.4738  0.1110 -0.3503
 8649TIP3    H125911   0.686   2.194   4.325  0.2576 -2.0542 -0.1379
 8649TIP3    H225912   0.811   2.144   4.257  0.1704  0.4678 -2.3339
 8650TIP3   OH225913   1.048   5.259   3.507  0.0256  0.0332 -0.4523
 8650TIP3    H125914   1.034   5.220   3.593 -4.1566 -2.0916 -1.8364
 8650TIP3    H225915   1.043   5.354   3.522  2.8135 -0.0473  1.9415
 8651TIP3   OH225916   4.032   1.305   4.282 -0.4073 -0.6282 -0.1388
 8651TIP3    H125917   3.960   1.336   4.337 -1.4092 -0.7306 -1.3538
 8651TIP3    H225918   4.025   1.358   4.202  1.3766 -0.0641  0.0302
 8652TIP3   OH225919   2.747   4.020   2.167  0.8528  0.0489  0.7760
 8652TIP3    H125920   2.653   4.012   2.150  1.2436  0.6249 -2.0874
 8652TIP3    H225921   2.754   4.098   2.222 -0.2780  0.5681  0.2281
 8653TIP3   OH225922   2.934   4.611   4.203 -0.2265  0.5289  0.0098
 8653TIP3    H125923   2.873   4.567   4.261  0.9915 -0.8695  0.2726
 8653TIP3    H225924   2.962   4.689   4.252  0.1765 -0.2110  0.9957
 8654TIP3   OH225925   3.606   2.937   5.202 -0.2523  0.9198 -0.4573
 8654TIP3    H125926   3.640   3.022   5.173  1.3485 -0.0227 -1.5054
 8654TIP3    H225927   3.659   2.914   5.277 -1.5938  1.4179  0.6913
 8655TIP3   OH225928   5.343   0.173   5.520  0.0705 -0.4878 -0.4874
 8655TIP3    H125929   5.387   0.254   5.494  1.4224 -0.6849  1.0027
 8655TIP3    H225930   5.302   0.141   5.440 -1.2960  2.1152 -0.9432
 8656TIP3   OH225931   4.605   4.404   4.847 -0.9876 -0.1986  0.0061
 8656TIP3    H125932   4.689   4.445   4.826 -1.2335 -0.2100 -1.0416
 8656TIP3    H225933   4.600   4.408   4.943  0.1994 -0.1921  0.0862
 8657TIP3   OH225934   1.444   5.297   0.873  0.4239 -0.3833 -0.2825
 8657TIP3    H125935   1.404   5.271   0.791 -2.0762 -3.0493  1.6083
 8657TIP3    H225936   1.531   5.255   0.872 -0.0265 -1.3243 -1.0961
 8658TIP3   OH225937   1.256   3.060   4.385  0.1319 -0.3336  0.0583
 8658TIP3    H125938   1.264   3.155   4.379  3.9073 -0.3814  1.8583
 8658TIP3    H225939   1.168   3.046   4.420 -0.5592  2.4371 -0.2912
 8659TIP3   OH225940   2.783   0.345   1.433  0.2757  0.1402 -0.0722
 8659TIP3    H125941   2.822   0.402   1.499 -0.3561  1.3474 -0.7008
 8659TIP3    H225942   2.840   0.268   1.431  0.3446  0.0960  1.8024
 8660TIP3   OH225943   1.032   4.322   5.120  0.1615  0.5140  0.7750
 8660TIP3    H125944   0.991   4.265   5.186 -1.9251  0.6545 -0.3054
 8660TIP3    H225945   1.096   4.266   5.077 -0.3699 -0.3962  1.1230
 8661TIP3   OH225946   2.445   3.834   4.658 -0.1584 -0.2559 -0.0869
 8661TIP3    H125947   2.439   3.881   4.574  0.4078  0.5935  0.3276
 8661TIP3    H225948   2.362   3.854   4.702 -1.1161 -1.9434 -1.0400
 8662TIP3   OH225949   1.664   3.768   3.627  0.1915 -0.3262 -0.0657
 8662TIP3    H125950   1.671   3.672   3.633 -0.7528 -0.3775  0.5215
 8662TIP3    H225951   1.655   3.785   3.533 -0.0382 -0.8585 -0.1497
 8663TIP3   OH225952   7.200   4.083   2.206  0.0805  0.6505  0.4895
 8663TIP3    H125953   7.232   3.993   2.204  0.1700  0.6875 -0.0529
 8663TIP3    H225954   7.129   4.082   2.271 -0.4542 -0.0002 -0.0800
 8664TIP3   OH225955   6.290   4.833   0.794 -0.7005  0.2975  1.2010
 8664TIP3    H125956   6.198   4.832   0.819 -1.5775 -2.9093 -1.4581
 8664TIP3    H225957   6.304   4.750   0.748  2.6798  2.0215 -1.3785
 8665TIP3   OH225958   0.127   1.593   0.597 -0.2785 -0.0229  0.1616
 8665TIP3    H125959   0.059   1.625   0.655 -0.9123 -0.4557 -0.3316
 8665TIP3    H225960   0.190   1.666   0.591 -0.4385  0.1887  1.0089
 8666TIP3   OH225961   1.641   4.192   2.740 -0.0691 -0.3027  0.3223
 8666TIP3    H125962   1.561   4.150   2.772 -0.2194  0.1334  0.5184
 8666TIP3    H225963   1.612   4.276   2.705  0.3934  0.1574  1.0199
 8667TIP3   OH225964   4.034   0.695   3.445 -0.3381  0.1960 -0.1622
 8667TIP3    H125965   4.038   0.770   3.385 -1.4346 -0.0448 -0.5614
 8667TIP3    H225966   4.119   0.652   3.435  0.0327  0.9760 -0.4636
 8668TIP3   OH225967   4.117   5.257   5.414  0.1391  0.3184  0.1434
 8668TIP3    H125968   4.042   5.312   5.393  0.8135  2.0071  1.8952
 8668TIP3    H225969   4.191   5.298   5.368  0.2933 -0.4277 -0.3035
 8669TIP3   OH225970   3.370   4.268   0.179 -0.4978 -0.1249  0.0619
 8669TIP3    H125971   3.448   4.321   0.195 -0.5351  0.3036 -1.0648
 8669TIP3    H225972   3.351   4.280   0.086  0.3603 -3.2972 -0.6508
 8670TIP3   OH225973   2.289   3.100   1.969 -0.5696 -0.4993  0.4655
 8670TIP3    H125974   2.378   3.130   1.985  0.0621  0.4600 -3.6472
 8670TIP3    H225975   2.233   3.162   2.016  0.8812  0.5609  0.8466
 8671TIP3   OH225976   2.087   5.469   1.285 -0.0107 -0.1775  0.5839
 8671TIP3    H125977   2.138   5.478   1.205 -1.4041  3.0227 -0.1009
 8671TIP3    H225978   2.147   5.495   1.355 -0.3681  2.8030 -0.1260
 8672TIP3   OH225979   2.286   1.997   1.185 -0.3387  0.4461  0.4765
 8672TIP3    H125980   2.358   2.051   1.217 -0.1628  0.1888  0.5164
 8672TIP3    H225981   2.252   2.044   1.109  0.3574  0.1938  0.0001
 8673TIP3   OH225982   3.300   1.016   0.634 -0.1187 -0.1824 -0.1828
 8673TIP3    H125983   3.338   0.998   0.720 -0.7519 -1.9605 -0.2406
 8673TIP3    H225984   3.206   1.008   0.647 -0.2055 -0.8816 -1.1178
 8674TIP3   OH225985   7.057   3.979   5.277  0.7073  0.0302  0.3942
 8674TIP3    H125986   7.040   4.046   5.343  0.2100  0.8161 -0.5040
 8674TIP3    H225987   6.980   3.923   5.280  0.0444  0.8691 -0.4508
 8675TIP3   OH225988   4.883   3.072   3.793  0.1334  0.3587 -0.0694
 8675TIP3    H125989   4.916   3.043   3.878 -1.0090 -2.2725 -0.4308
 8675TIP3    H225990   4.947   3.040   3.730 -1.8382 -3.0893 -0.6016
 8676TIP3   OH225991   1.410   2.249   1.056 -0.0289  0.2278  0.3123
 8676TIP3    H125992   1.492   2.215   1.022 -1.2129 -2.7317  0.0699
 8676TIP3    H225993   1.423   2.253   1.151  0.0461 -1.4500  0.4027
 8677TIP3   OH225994   2.421   3.153   0.387 -0.2591  0.4082  0.5186
 8677TIP3    H125995   2.383   3.067   0.405  0.0041  0.3194  0.6548
 8677TIP3    H225996   2.516   3.137   0.382 -0.0086  1.0011  2.4928
 8678TIP3   OH225997   5.179   0.791   4.787  0.5207 -0.0511  0.2409
 8678TIP3    H125998   5.239   0.718   4.806  0.3990 -0.2520 -0.1350
 8678TIP3    H225999   5.124   0.798   4.865  0.2069 -0.6845  0.0782
 8679TIP3   OH226000   2.885   6.531   0.334 -0.7106  0.0078  0.2583
 8679TIP3    H126001   2.874   6.623   0.311 -0.9389 -0.4717 -1.6934
 8679TIP3    H226002   2.822   6.515   0.404 -0.7385  1.3026  0.5409
 8680TIP3   OH226003   1.343   6.263   1.592  0.5661  0.3295 -0.0419
 8680TIP3    H126004   1.294   6.267   1.509 -1.4014  2.0921  1.1068
 8680TIP3    H226005   1.311   6.183   1.634 -0.6182  0.9339  0.2469
 8681TIP3   OH226006   1.253   0.618   4.446  0.1227  0.2675  0.6670
 8681TIP3    H126007   1.281   0.543   4.499  0.8325  0.2195  0.2417
 8681TIP3    H226008   1.159   0.627   4.464  0.4973  0.7728  2.5471
 8682TIP3   OH226009   7.064   6.212   2.410  0.0784 -0.1079  0.4148
 8682TIP3    H126010   7.038   6.173   2.494 -0.3019 -0.6155  0.0738
 8682TIP3    H226011   7.019   6.297   2.408  1.6322  0.7774  1.5584
 8683TIP3   OH226012   5.986   0.693   2.856 -0.0464 -0.1387  0.1116
 8683TIP3    H126013   5.995   0.633   2.930  1.6409  0.5893  0.5453
 8683TIP3    H226014   6.002   0.780   2.893  1.1063  0.2101 -1.1466
 8684TIP3   OH226015   6.213   3.750   0.946 -0.0926 -0.0101 -0.2403
 8684TIP3    H126016   6.220   3.824   0.886  2.2436 -0.5287 -0.7092
 8684TIP3    H226017   6.162   3.685   0.898 -0.7581  0.6704 -0.4693
 8685TIP3   OH226018   1.813   1.079   1.149 -0.1672  0.3415  0.2579
 8685TIP3    H126019   1.757   1.103   1.222 -0.5995  0.3256 -0.0616
 8685TIP3    H226020   1.878   1.149   1.144  0.9891 -0.5736  1.7836
 8686TIP3   OH226021   3.781   3.905   2.753  0.4558  0.7004 -0.2809
 8686TIP3    H126022   3.845   3.961   2.709 -0.3377  1.2918 -0.7044
 8686TIP3    H226023   3.728   3.965   2.805  1.0553  0.0681  1.1106
 8687TIP3   OH226024   4.389   5.635   5.242 -0.9595  0.0053 -0.2101
 8687TIP3    H126025   4.459   5.655   5.180  1.0403  0.8930  2.1999
 8687TIP3    H226026   4.324   5.704   5.227 -0.7853 -0.0936 -1.6107
 8688TIP3   OH226027   5.939   5.875   5.420 -0.4211 -0.5845  0.2067
 8688TIP3    H126028   5.998   5.840   5.353  0.3793  0.5306  0.2977
 8688TIP3    H226029   5.851   5.851   5.389 -0.1648  0.8586 -1.8603
 8689TIP3   OH226030   1.536   0.442   5.629 -0.3551  0.4911 -0.0517
 8689TIP3    H126031   1.560   0.404   5.713  0.8841 -0.4585 -0.7916
 8689TIP3    H226032   1.463   0.388   5.598  0.4267 -0.3981 -0.4175
 8690TIP3   OH226033   0.545   0.886   1.252  0.0639  0.3697 -0.0001
 8690TIP3    H126034   0.543   0.874   1.157 -0.0339  0.1655  0.0270
 8690TIP3    H226035   0.454   0.904   1.275  0.0368  0.1186  0.0927
 8691TIP3   OH226036   6.802   1.515   4.940 -0.5705 -0.2017 -0.0426
 8691TIP3    H126037   6.767   1.439   4.892 -1.7748 -0.1732  0.7507
 8691TIP3    H226038   6.875   1.545   4.886  0.3426 -2.2943 -0.0653
 8692TIP3   OH226039   1.712   2.790   3.292  0.7197 -0.3803  0.8675
 8692TIP3    H126040   1.664   2.803   3.210  3.4637 -0.0235 -0.7979
 8692TIP3    H226041   1.670   2.849   3.354 -0.2573  0.7636 -0.8011
 8693TIP3   OH226042   6.371   6.360   4.769 -0.0217 -0.3283  0.0292
 8693TIP3    H126043   6.423   6.403   4.837 -2.0301  2.9287 -0.2672
 8693TIP3    H226044   6.312   6.302   4.817  0.8763 -0.7304  0.6993
 8694TIP3   OH226045   3.104   0.297   2.561 -0.3334 -0.1739  0.8633
 8694TIP3    H126046   3.051   0.376   2.551  1.6776  1.0041 -1.2833
 8694TIP3    H226047   3.095   0.251   2.477  0.6093 -0.8740  1.1340
 8695TIP3   OH226048   5.133   4.058   1.824  0.4351  0.2042  0.0646
 8695TIP3    H126049   5.175   4.116   1.760 -0.5819  1.3536  0.3946
 8695TIP3    H226050   5.060   4.110   1.859  0.4140 -0.7286  1.4962
 8696TIP3   OH226051   2.082   4.212   0.350 -0.1740  0.0657 -0.0402
 8696TIP3    H126052   2.040   4.249   0.272  0.2436  0.6316 -0.0020
 8696TIP3    H226053   2.115   4.288   0.398  2.6851 -0.3764 -1.0721
 8697TIP3   OH226054   7.133   2.462   5.157  0.2246  0.6331 -0.0604
 8697TIP3    H126055   7.175   2.467   5.071  0.3642  4.6190  0.0436
 8697TIP3    H226056   7.043   2.435   5.138  0.1543  1.7788 -1.5780
 8698TIP3   OH226057   4.413   4.621   4.949 -0.1040  0.2108 -0.0419
 8698TIP3    H126058   4.404   4.534   4.909 -0.2732  0.1069  0.2201
 8698TIP3    H226059   4.334   4.667   4.923 -1.2097 -0.5243  1.8159
 8699TIP3   OH226060   0.868   5.152   5.066  0.4417 -0.2520 -0.4441
 8699TIP3    H126061   0.787   5.134   5.114  1.4688 -1.1388  1.0354
 8699TIP3    H226062   0.922   5.075   5.082  2.0065  0.8128 -0.4610
 8700TIP3   OH226063   4.250   4.744   3.677  0.4942 -0.3195 -0.2630
 8700TIP3    H126064   4.166   4.706   3.652  0.5997  0.1683 -1.4411
 8700TIP3    H226065   4.314   4.675   3.657  0.3381 -0.9049  1.1744
 8701TIP3   OH226066   3.980   2.311   4.628  0.5378 -0.0584 -0.2769
 8701TIP3    H126067   3.915   2.284   4.564  0.6325 -1.5649  0.2254
 8701TIP3    H226068   3.968   2.251   4.701  2.1506 -0.0323  0.0393
 8702TIP3   OH226069   4.618   4.718   1.713  0.3202  1.0655 -0.0348
 8702TIP3    H126070   4.545   4.703   1.653  0.9626 -0.4832 -0.4973
 8702TIP3    H226071   4.691   4.743   1.657  0.9461 -0.4634  0.0513
 8703TIP3   OH226072   2.858   3.040   4.660  0.0573  0.3180 -0.4706
 8703TIP3    H126073   2.918   2.969   4.640  0.7647  0.8996 -0.4497
 8703TIP3    H226074   2.824   3.068   4.574  0.2170  0.3339 -0.5282
 8704TIP3   OH226075   1.846   3.309   2.201 -0.0225  0.6193 -0.1530
 8704TIP3    H126076   1.777   3.337   2.140 -0.7810  0.5736  0.6600
 8704TIP3    H226077   1.836   3.367   2.277 -0.7862 -0.9861  1.0151
 8705TIP3   OH226078   5.500   4.484   2.376  0.0356  0.1199 -0.0905
 8705TIP3    H126079   5.536   4.521   2.295 -1.0952 -0.3678 -0.8390
 8705TIP3    H226080   5.514   4.553   2.442 -0.5556  1.2489 -1.0891
 8706TIP3   OH226081   5.292   0.233   5.203 -0.0544 -0.0816 -0.3500
 8706TIP3    H126082   5.370   0.193   5.165  1.4331  1.5279  0.8766
 8706TIP3    H226083   5.274   0.309   5.147 -0.7997 -0.4748 -0.6599
 8707TIP3   OH226084   4.344   0.159   5.796  0.8964 -0.5270 -0.5111
 8707TIP3    H126085   4.389   0.191   5.718  1.4728  1.2724  0.5212
 8707TIP3    H226086   4.251   0.170   5.775  0.8576 -3.0124 -2.1184
 8708TIP3   OH226087   0.181   5.397   3.989  0.3865  0.0597 -0.7836
 8708TIP3    H126088   0.200   5.319   4.041  1.8531  0.6950 -0.3191
 8708TIP3    H226089   0.154   5.363   3.904 -3.6335 -1.0625  0.7218
 8709TIP3   OH226090   1.898   4.823   4.457 -0.6171 -0.2717  0.5265
 8709TIP3    H126091   1.849   4.807   4.538  0.1382 -0.3131  0.9806
 8709TIP3    H226092   1.923   4.915   4.461 -1.2932 -0.0523 -0.0663
 8710TIP3   OH226093   1.550   5.382   3.348 -0.1807 -0.4805 -0.2415
 8710TIP3    H126094   1.551   5.466   3.394  0.2636 -0.3392 -0.5005
 8710TIP3    H226095   1.467   5.342   3.373 -1.0917  0.6799 -1.2363
 8711TIP3   OH226096   1.490   3.222   3.642  0.2216 -0.3280  0.2109
 8711TIP3    H126097   1.580   3.216   3.673  0.0679 -1.1976  0.5215
 8711TIP3    H226098   1.498   3.247   3.550  0.7507  0.1722  0.3834
 8712TIP3   OH226099   3.622   1.977   4.936 -0.1355 -0.1912  0.0556
 8712TIP3    H126100   3.633   1.896   4.886 -0.2719  0.3294 -0.8316
 8712TIP3    H226101   3.531   2.002   4.921  0.5869  1.5111 -1.8390
 8713TIP3   OH226102   2.294   0.900   0.267  0.0753  0.3877  0.2938
 8713TIP3    H126103   2.330   0.983   0.299  1.9707  0.0065 -0.7303
 8713TIP3    H226104   2.350   0.832   0.305 -1.4077 -0.4411  1.0616
 8714TIP3   OH226105   0.023   3.749   5.415  0.1554  0.3443 -0.5949
 8714TIP3    H126106   0.050   3.808   5.346  0.5744  0.4215 -0.3656
 8714TIP3    H226107  -0.038   3.801   5.468 -0.5024  0.1495 -1.1430
 8715TIP3   OH226108   6.622   1.695   0.029  0.1703  0.5592 -0.1937
 8715TIP3    H126109   6.672   1.762   0.075 -0.7510  0.5049  0.9223
 8715TIP3    H226110   6.656   1.612   0.063  1.2618  0.4098 -1.5221
 8716TIP3   OH226111   2.667   4.465   0.302  0.5718  0.2596 -0.3337
 8716TIP3    H126112   2.614   4.492   0.227  0.3079  0.5008 -0.0662
 8716TIP3    H226113   2.629   4.382   0.330  0.8779  0.0059 -0.6672
 8717TIP3   OH226114   6.127   1.106   1.174 -0.4539 -0.1568  0.0295
 8717TIP3    H126115   6.034   1.101   1.150  0.1726 -2.2490 -2.4666
 8717TIP3    H226116   6.135   1.050   1.251 -1.7649  3.0569  2.7551
 8718TIP3   OH226117   2.952   1.858   0.626 -0.2715  0.2205 -0.6542
 8718TIP3    H126118   2.916   1.790   0.684  0.3417  0.5517  0.1304
 8718TIP3    H226119   3.031   1.819   0.589  0.3805  0.6893  0.2194
 8719TIP3   OH226120   1.375   6.482   3.508 -0.4296  0.4874 -0.0232
 8719TIP3    H126121   1.340   6.516   3.590  0.8301  0.3155  0.6264
 8719TIP3    H226122   1.448   6.540   3.487  0.8116 -0.8838  0.3202
 8720TIP3   OH226123   0.404   4.889   5.326  0.3809 -0.5930 -0.3361
 8720TIP3    H126124   0.317   4.913   5.294 -0.0578 -0.6253  0.7984
 8720TIP3    H226125   0.435   4.967   5.372  0.4394 -0.9966  0.3098
 8721TIP3   OH226126   5.939   5.846   2.423 -0.2385 -0.4448  0.2981
 8721TIP3    H126127   5.930   5.796   2.342 -0.2600  0.0340  0.0037
 8721TIP3    H226128   6.031   5.873   2.424  0.3020 -2.1376  1.4320
 8722TIP3   OH226129   4.151   1.026   5.780 -0.0532  0.2888 -0.2029
 8722TIP3    H126130   4.064   0.989   5.769 -0.1103 -0.5471  2.3956
 8722TIP3    H226131   4.139   1.099   5.841  1.2859 -1.3680  2.2242
 8723TIP3   OH226132   3.772   3.498   0.082 -0.3899  0.2176 -1.1456
 8723TIP3    H126133   3.789   3.425   0.023 -1.2929 -1.4518  0.5570
 8723TIP3    H226134   3.704   3.466   0.141 -0.3216  2.2027  0.0970
 8724TIP3   OH226135   3.737   6.118   1.618  0.8287  0.3226 -0.3689
 8724TIP3    H126136   3.823   6.078   1.635  0.4872 -0.2398  0.1112
 8724TIP3    H226137   3.735   6.195   1.675  1.0923  0.4452 -0.5248
 8725TIP3   OH226138   0.158   2.048   1.012 -0.3994  0.0741 -0.5268
 8725TIP3    H126139   0.070   2.058   0.977  0.1496  0.8786 -1.7591
 8725TIP3    H226140   0.189   2.138   1.024  1.3715 -0.0959 -3.1278
 8726TIP3   OH226141   5.141   1.636   4.762  0.3289 -0.7779 -0.0184
 8726TIP3    H126142   5.104   1.622   4.675  1.6383 -0.9392 -0.5845
 8726TIP3    H226143   5.208   1.568   4.770  2.0928  0.8780 -0.0054
 8727TIP3   OH226144   6.294   0.212   4.797  0.7985  0.1131  0.0970
 8727TIP3    H126145   6.228   0.249   4.739  0.4972  0.0882  0.4235
 8727TIP3    H226146   6.248   0.195   4.879  1.6709  2.0748  1.0549
 8728TIP3   OH226147   0.451   6.038   4.452 -0.1407 -0.4388 -0.5657
 8728TIP3    H126148   0.468   6.028   4.358  0.9070 -0.3914 -0.3914
 8728TIP3    H226149   0.524   5.993   4.494  0.4653  1.2031  0.2279
 8729TIP3   OH226150   0.262   2.162   0.624 -0.7579 -0.3448  0.4278
 8729TIP3    H126151   0.320   2.137   0.552  0.4108  1.1139  0.8000
 8729TIP3    H226152   0.198   2.091   0.629  0.3411 -1.4793 -0.7155
 8730TIP3   OH226153   4.941   4.639   2.353  0.5691 -0.0964  0.2940
 8730TIP3    H126154   4.911   4.627   2.443  0.4128 -0.2770  0.2171
 8730TIP3    H226155   4.862   4.634   2.299  0.6727 -0.0810  0.1386
 8731TIP3   OH226156   3.167   5.762   4.944  0.2252  0.2631 -0.6731
 8731TIP3    H126157   3.240   5.783   4.887  1.3286 -0.4473  0.4229
 8731TIP3    H226158   3.156   5.839   5.000  2.2233 -0.7368  1.2432
 8732TIP3   OH226159   6.126   2.841   2.669 -0.2776 -0.0175  0.2212
 8732TIP3    H126160   6.178   2.919   2.686  0.6853 -0.4633 -0.6210
 8732TIP3    H226161   6.039   2.863   2.703 -0.7526  2.3962 -2.2343
 8733TIP3   OH226162   2.142   5.620   0.600  0.0922  0.0610 -0.0552
 8733TIP3    H126163   2.192   5.552   0.646 -0.6851 -0.1677  0.4710
 8733TIP3    H226164   2.065   5.575   0.567 -0.3239  0.6376  0.1086
 8734TIP3   OH226165   3.659   5.972   5.011  0.3401 -0.6905 -0.2881
 8734TIP3    H126166   3.712   5.980   5.091 -1.3271  1.7102  0.6775
 8734TIP3    H226167   3.580   5.927   5.039 -0.6983  1.0457 -0.2784
 8735TIP3   OH226168   0.230   6.410   0.898  0.4176  0.1037  0.0539
 8735TIP3    H126169   0.264   6.321   0.886 -1.9382 -0.7965 -0.3657
 8735TIP3    H226170   0.240   6.426   0.992 -1.0222 -1.4751  0.5327
 8736TIP3   OH226171   4.234   4.585   3.963  0.4742 -0.7993  0.1139
 8736TIP3    H126172   4.320   4.597   4.003 -0.6199  2.2565  1.9272
 8736TIP3    H226173   4.181   4.656   3.999 -2.3486 -1.4881 -2.2798
 8737TIP3   OH226174   5.800   2.462   0.356  0.5901  0.4651  0.0046
 8737TIP3    H126175   5.726   2.462   0.416  0.0649  2.1047 -0.5855
 8737TIP3    H226176   5.771   2.409   0.281 -0.6644  2.4104 -0.9546
 8738TIP3   OH226177   5.892   0.532   5.416  0.1974  0.4946 -0.5909
 8738TIP3    H126178   5.911   0.438   5.409 -0.4791  0.4425 -1.9352
 8738TIP3    H226179   5.894   0.549   5.510 -0.5884 -1.0682 -0.2583
 8739TIP3   OH226180   0.488   2.967   5.726  0.3009 -0.6719 -0.2223
 8739TIP3    H126181   0.515   2.977   5.818 -1.0065  1.0057  0.0252
 8739TIP3    H226182   0.431   3.042   5.710  0.2580 -1.1159 -2.3358
 8740TIP3   OH226183   4.604   6.648   3.878  0.6581 -0.6450 -0.6579
 8740TIP3    H126184   4.579   6.609   3.962  3.4350  0.6346  0.9124
 8740TIP3    H226185   4.639   6.576   3.827 -0.3406 -1.2981 -0.4560
 8741TIP3   OH226186   4.843   3.262   1.900 -0.0962  0.4056 -0.2235
 8741TIP3    H126187   4.909   3.209   1.944  0.8541  0.5810 -1.4043
 8741TIP3    H226188   4.867   3.352   1.923 -0.6231  0.4236  0.2825
 8742TIP3   OH226189   2.981   0.524   1.887 -0.2868  0.4092 -0.2754
 8742TIP3    H126190   2.964   0.469   1.963 -0.2726 -1.1885 -1.3667
 8742TIP3    H226191   3.031   0.598   1.921  0.2685 -0.5815  1.1515
 8743TIP3   OH226192   4.483   4.590   0.235  0.2717  0.4856  0.2572
 8743TIP3    H126193   4.398   4.595   0.192  1.1049  0.1043 -1.5321
 8743TIP3    H226194   4.526   4.673   0.212  0.3981  0.6896  1.1767
 8744TIP3   OH226195   5.107   3.339   3.621 -0.1239 -0.6040  0.2648
 8744TIP3    H126196   5.072   3.356   3.709 -0.2277  1.1616 -0.0760
 8744TIP3    H226197   5.035   3.362   3.562  0.2265 -0.9640 -0.3036
 8745TIP3   OH226198   3.196   4.939   2.677 -0.2464  0.8440 -0.0617
 8745TIP3    H126199   3.133   4.982   2.735 -0.4091 -0.5138  0.8445
 8745TIP3    H226200   3.180   4.845   2.691  1.3953  0.4739 -0.4598
 8746TIP3   OH226201   4.517   6.179   4.192 -0.2806 -0.2470 -1.0420
 8746TIP3    H126202   4.555   6.141   4.113 -1.2940  0.5375 -1.9295
 8746TIP3    H226203   4.590   6.223   4.235  0.4333 -1.3029 -1.1448
 8747TIP3   OH226204   2.767   3.666   4.328  0.0706  0.4351 -0.1642
 8747TIP3    H126205   2.732   3.750   4.298  0.0863  0.7352  0.6300
 8747TIP3    H226206   2.862   3.676   4.324  0.1539 -0.5693 -2.8485
 8748TIP3   OH226207   0.416   1.652   4.740 -0.2648  0.1860 -0.4050
 8748TIP3    H126208   0.449   1.736   4.773  2.5695 -0.4873 -1.2873
 8748TIP3    H226209   0.441   1.588   4.807  0.1875 -0.3534 -1.0820
 8749TIP3   OH226210   2.251   0.948   2.307 -0.0291 -1.0367 -0.2024
 8749TIP3    H126211   2.194   1.019   2.278 -0.5582 -1.8737 -1.3089
 8749TIP3    H226212   2.223   0.929   2.396 -1.4731 -1.4029 -0.7092
 8750TIP3   OH226213   3.385   3.410   2.261 -0.1301 -0.1547 -0.4109
 8750TIP3    H126214   3.423   3.389   2.176  0.1891 -1.5538  0.0449
 8750TIP3    H226215   3.293   3.385   2.253 -0.3164  0.5870 -0.6292
 8751TIP3   OH226216   1.707   5.888   3.638 -0.5272 -0.3730  0.0400
 8751TIP3    H126217   1.649   5.950   3.593 -0.2942 -0.1758  0.0060
 8751TIP3    H226218   1.649   5.817   3.666 -0.8750  0.0673  0.4570
 8752TIP3   OH226219   6.763   6.158   2.204  0.6134  0.2766  0.3783
 8752TIP3    H126220   6.790   6.132   2.292 -0.3339  2.6483  1.4704
 8752TIP3    H226221   6.767   6.254   2.205 -1.8785  0.5004 -1.3006
 8753TIP3   OH226222   3.228   0.660   4.127 -0.1829 -0.3366  0.0067
 8753TIP3    H126223   3.264   0.747   4.108 -0.3910 -0.4501 -0.9740
 8753TIP3    H226224   3.173   0.673   4.205 -0.0563  0.3686 -0.0149
 8754TIP3   OH226225   3.281   4.884   0.061  0.1206  0.2514 -0.4885
 8754TIP3    H126226   3.331   4.962   0.037  1.4586 -1.1838 -2.6449
 8754TIP3    H226227   3.323   4.852   0.141  1.1455  0.3440 -0.9889
 8755TIP3   OH226228   6.190   5.591   3.007 -0.2775 -0.5838  0.3366
 8755TIP3    H126229   6.242   5.538   3.067  0.3214 -2.0782 -1.4127
 8755TIP3    H226230   6.204   5.551   2.921  0.3352  2.5128 -1.1443
 8756TIP3   OH226231   5.200   4.980   1.946  0.1728 -0.3238  0.5191
 8756TIP3    H126232   5.293   4.961   1.940  0.3944  0.8019  0.2636
 8756TIP3    H226233   5.167   4.962   1.857 -0.0453 -1.5840  0.8285
 8757TIP3   OH226234   5.873   5.101   0.900 -0.2551 -0.0560 -0.2259
 8757TIP3    H126235   5.875   5.173   0.964 -0.4636 -0.2529  0.0040
 8757TIP3    H226236   5.796   5.050   0.924 -0.5983  0.1217 -0.9191
 8758TIP3   OH226237   1.596   2.398   2.367  0.0292 -0.3061 -0.2409
 8758TIP3    H126238   1.612   2.305   2.386 -0.9078 -0.5589 -0.6492
 8758TIP3    H226239   1.514   2.418   2.414  0.9285  0.6824  0.9735
 8759TIP3   OH226240   2.332   3.668   4.953  0.0714  0.0684  0.1606
 8759TIP3    H126241   2.406   3.629   5.000  1.1483  0.0128 -1.4986
 8759TIP3    H226242   2.255   3.639   5.003  1.1169 -0.1579  1.7375
 8760TIP3   OH226243   3.216   6.092   1.670  0.1969  0.1845 -0.2127
 8760TIP3    H126244   3.168   6.111   1.590 -1.3016  0.2128  0.6483
 8760TIP3    H226245   3.226   5.997   1.670 -1.7012 -0.0812  0.5245
 8761TIP3   OH226246   4.908   6.121   0.776 -0.2911  0.0910  0.3671
 8761TIP3    H126247   4.862   6.193   0.818 -1.4073 -1.6232  2.2489
 8761TIP3    H226248   4.842   6.053   0.767  0.4954 -0.4418 -2.1913
 8762TIP3   OH226249   4.859   4.860   4.403 -0.1346  0.0664  0.0793
 8762TIP3    H126250   4.940   4.893   4.365  0.0308 -0.4386 -0.0132
 8762TIP3    H226251   4.833   4.788   4.345  1.5785 -2.5765  2.3541
 8763TIP3   OH226252   3.584   1.000   4.034  0.1332  0.3808 -0.0914
 8763TIP3    H126253   3.599   1.044   3.951  1.6349  0.0495 -0.0392
 8763TIP3    H226254   3.664   1.017   4.084  0.0231 -0.9401  0.5768
 8764TIP3   OH226255   3.557   4.499   3.445 -0.1784  0.0419 -0.3162
 8764TIP3    H126256   3.638   4.495   3.395  0.3735 -2.1279  0.6552
 8764TIP3    H226257   3.499   4.434   3.404  0.4807 -2.2032  2.0328
 8765TIP3   OH226258   6.360   5.600   3.396 -0.2615  1.0064  0.2582
 8765TIP3    H126259   6.365   5.569   3.305 -2.0964  1.9293 -0.2070
 8765TIP3    H226260   6.305   5.534   3.440 -0.8286  1.4676  0.2515
 8766TIP3   OH226261   6.495   3.938   3.628  1.2482  0.2391 -0.2036
 8766TIP3    H126262   6.406   3.950   3.596  1.2415  0.4774 -0.0965
 8766TIP3    H226263   6.506   4.006   3.694  1.0063 -0.6936  0.8357
 8767TIP3   OH226264   0.055   4.914   0.187  0.2143 -0.0462  0.2681
 8767TIP3    H126265   0.053   4.977   0.115 -1.4081 -0.8663 -0.4523
 8767TIP3    H226266   0.043   4.829   0.145 -2.2511 -0.4347  1.5893
 8768TIP3   OH226267   5.898   6.257   2.187 -0.4296  0.3294  0.5751
 8768TIP3    H126268   5.880   6.166   2.164  1.5055 -0.5662  2.3463
 8768TIP3    H226269   5.838   6.308   2.132 -0.9869 -1.9507 -1.0589
 8769TIP3   OH226270   1.801   4.906   0.718 -0.4932  0.3154  0.2391
 8769TIP3    H126271   1.851   4.938   0.793  0.7976  0.6174 -0.7121
 8769TIP3    H226272   1.800   4.811   0.729  1.5380  0.1767 -0.4375
 8770TIP3   OH226273   0.990   5.112   2.525 -0.1116  0.8516  0.5623
 8770TIP3    H126274   1.042   5.051   2.577 -0.7626 -0.5810 -0.3954
 8770TIP3    H226275   0.946   5.168   2.590  1.6086  1.2983  1.4172
 8771TIP3   OH226276   1.373   5.854   2.872  0.1957 -0.3936  0.5116
 8771TIP3    H126277   1.441   5.874   2.937  0.4265 -0.5312  0.3118
 8771TIP3    H226278   1.293   5.846   2.924  0.5315 -1.4099  0.8926
 8772TIP3   OH226279   1.827   4.773   4.985 -0.3534  0.1098 -0.3290
 8772TIP3    H126280   1.824   4.821   5.068  0.5465  0.3882 -0.4517
 8772TIP3    H226281   1.880   4.696   5.004 -0.0803  0.2157 -0.6677
 8773TIP3   OH226282   4.078   4.358   2.947  0.5464 -0.1230  0.4847
 8773TIP3    H126283   3.999   4.341   2.999 -0.9181  0.2689 -1.4856
 8773TIP3    H226284   4.118   4.272   2.937 -1.2525 -0.8827 -0.8728
 8774TIP3   OH226285   3.413   2.080   0.026  0.3403 -0.5990  0.3330
 8774TIP3    H126286   3.446   2.093   0.115  0.5847 -0.5595  0.2373
 8774TIP3    H226287   3.490   2.091  -0.030 -0.2030  1.7464 -0.0653
 8775TIP3   OH226288   2.962   2.731   5.136 -0.0677  0.3124 -0.3941
 8775TIP3    H126289   2.965   2.692   5.048  0.1552  0.8521 -0.6283
 8775TIP3    H226290   2.879   2.777   5.140  0.2203  0.8620 -0.5765
 8776TIP3   OH226291   4.814   6.506   1.572 -0.5289 -0.6452  0.1646
 8776TIP3    H126292   4.883   6.560   1.532 -1.2582  0.0890 -0.1226
 8776TIP3    H226293   4.819   6.423   1.525  3.3387 -2.5123  3.2620
 8777TIP3   OH226294   2.225   6.170   5.663  0.1937  0.8571 -0.0831
 8777TIP3    H126295   2.154   6.126   5.617  0.1736 -1.2060  1.7721
 8777TIP3    H226296   2.192   6.259   5.679 -1.5125  0.2944 -0.2488
 8778TIP3   OH226297   6.865   3.152   3.269  0.7059 -0.6231 -0.0661
 8778TIP3    H126298   6.931   3.082   3.266  0.0600 -1.2170 -0.7068
 8778TIP3    H226299   6.842   3.159   3.362 -0.5551 -2.5467 -0.1910
 8779TIP3   OH226300   2.162   2.302   4.111  0.1975  0.0415  0.3775
 8779TIP3    H126301   2.168   2.317   4.016  2.2550  0.2850  0.4952
 8779TIP3    H226302   2.080   2.344   4.137 -1.7569 -2.2245 -1.6457
 8780TIP3   OH226303   5.320   5.921   0.948 -0.2191 -0.0248  0.2414
 8780TIP3    H126304   5.226   5.932   0.959  0.0426  1.2904  1.4649
 8780TIP3    H226305   5.332   5.904   0.855 -1.5940  0.7403 -0.0919
 8781TIP3   OH226306   5.992   0.694   3.826  0.1366  0.0391 -0.2650
 8781TIP3    H126307   6.074   0.706   3.872  0.7235  1.8527 -1.6507
 8781TIP3    H226308   5.975   0.778   3.784 -1.5307 -0.8125 -1.4514
 8782TIP3   OH226309   1.931   5.527   0.452  0.4623 -0.1808 -0.3099
 8782TIP3    H126310   1.847   5.483   0.444  0.0422  0.5989 -0.3219
 8782TIP3    H226311   1.962   5.536   0.362 -0.0044  0.5696 -0.4070
 8783TIP3   OH226312   5.772   6.711   1.411  0.3720 -0.4173  0.3246
 8783TIP3    H126313   5.758   6.680   1.322  0.5855  1.0322 -0.2403
 8783TIP3    H226314   5.863   6.740   1.414  0.1192  0.4010  0.7159
 8784TIP3   OH226315   4.222   3.768   5.126  0.2179 -0.3306  0.3111
 8784TIP3    H126316   4.150   3.799   5.071 -1.1277 -3.4125  0.1214
 8784TIP3    H226317   4.222   3.828   5.200 -1.4986  0.7056 -0.4412
 8785TIP3   OH226318   5.348   3.082   2.309 -0.3190 -0.3168  0.0054
 8785TIP3    H126319   5.315   3.140   2.240 -1.0536 -0.2084  0.4428
 8785TIP3    H226320   5.354   2.997   2.266  0.1597 -0.0607 -0.4617
 8786TIP3   OH226321   5.829   5.538   3.694  0.0498 -0.2546  0.3005
 8786TIP3    H126322   5.841   5.450   3.656  0.1232  0.2786 -0.9674
 8786TIP3    H226323   5.875   5.596   3.634 -2.4847  0.9978 -0.5710
 8787TIP3   OH226324   6.316   1.553   0.837 -0.5421  0.3545 -0.4919
 8787TIP3    H126325   6.395   1.501   0.853  0.8396  2.0699 -1.3088
 8787TIP3    H226326   6.266   1.502   0.774  0.4306 -0.3046 -0.7596
 8788TIP3   OH226327   1.119   1.788   5.442 -0.0308  0.5376 -0.0721
 8788TIP3    H126328   1.171   1.768   5.520 -0.0584  1.1032  0.0917
 8788TIP3    H226329   1.121   1.883   5.435 -0.1057  0.4957 -0.7114
 8789TIP3   OH226330   1.610   3.942   3.828  0.4010 -0.3731  0.2738
 8789TIP3    H126331   1.624   3.873   3.763 -0.6401 -0.5409  0.2093
 8789TIP3    H226332   1.658   4.017   3.795  0.2878 -0.6093 -0.4390
 8790TIP3   OH226333   2.519   6.301   4.572 -0.1634  0.1078 -0.0836
 8790TIP3    H126334   2.561   6.229   4.526  0.2320 -0.1635  0.6725
 8790TIP3    H226335   2.480   6.354   4.504 -0.2951 -0.7226 -0.6649
 8791TIP3   OH226336   2.563   1.924   4.116 -0.8264 -0.2823  0.2855
 8791TIP3    H126337   2.623   1.978   4.166 -1.0650 -0.6728  1.0088
 8791TIP3    H226338   2.497   1.985   4.083  0.3883  0.2868 -1.2096
 8792TIP3   OH226339   0.379   0.586   1.675 -0.2964 -0.2914  0.0010
 8792TIP3    H126340   0.424   0.552   1.597  0.6069  1.7859 -0.4707
 8792TIP3    H226341   0.426   0.549   1.749 -0.1690 -1.0597 -0.4596
 8793TIP3   OH226342   6.231   5.856   2.544 -0.1290  0.3884 -0.2474
 8793TIP3    H126343   6.262   5.766   2.553 -1.6572 -0.2147 -0.6767
 8793TIP3    H226344   6.231   5.891   2.633 -1.5723 -0.7760  0.2488
 8794TIP3   OH226345   7.035   2.628   3.264  0.6583 -0.2232  0.2353
 8794TIP3    H126346   6.965   2.690   3.246  1.5034  0.9828  1.0223
 8794TIP3    H226347   6.992   2.542   3.260 -0.8727  0.4863  0.7905
 8795TIP3   OH226348   0.102   1.551   3.615  0.1248 -0.2308 -0.1945
 8795TIP3    H126349   0.141   1.536   3.702  0.9549 -1.5844 -0.7682
 8795TIP3    H226350   0.177   1.559   3.556 -0.3862 -2.1576 -1.2107
 8796TIP3   OH226351   3.005   6.467   4.981  0.1127  0.2070 -0.2012
 8796TIP3    H126352   2.962   6.383   4.965 -0.0146 -0.1657  1.8364
 8796TIP3    H226353   2.957   6.529   4.927 -1.0825 -0.7024 -0.2362
 8797TIP3   OH226354   6.909   2.530   3.853 -0.5012  0.0965  0.5122
 8797TIP3    H126355   6.922   2.566   3.941 -1.3094 -0.2237  0.7731
 8797TIP3    H226356   6.826   2.482   3.859  1.0196 -2.7780  0.4966
 8798TIP3   OH226357   0.616   5.791   0.522 -0.6484 -0.4508 -0.2675
 8798TIP3    H126358   0.564   5.791   0.602 -1.5580 -0.0058 -0.8443
 8798TIP3    H226359   0.660   5.706   0.522 -0.3351 -0.3119  0.8860
 8799TIP3   OH226360   4.237   6.707   0.903 -0.1893  0.1641 -0.2458
 8799TIP3    H126361   4.155   6.697   0.951  0.9808 -0.8489  1.6432
 8799TIP3    H226362   4.229   6.792   0.860 -1.4383  0.9932  1.5057
 8800TIP3   OH226363   2.688   4.272   5.376 -0.4846  0.6363  0.1603
 8800TIP3    H126364   2.683   4.324   5.456 -0.4220 -1.3325  1.5303
 8800TIP3    H226365   2.625   4.201   5.389  0.2495 -0.2997 -1.0873
 8801TIP3   OH226366   5.226   0.715   1.469 -0.0585  0.0221  0.2639
 8801TIP3    H126367   5.313   0.686   1.500  0.0327 -1.7402 -1.4579
 8801TIP3    H226368   5.177   0.732   1.549  1.0078 -1.7214  1.3598
 8802TIP3   OH226369   2.604   4.938   2.137  0.0211  0.0123 -0.7364
 8802TIP3    H126370   2.514   4.908   2.153 -0.3645  0.8137 -1.3154
 8802TIP3    H226371   2.608   4.948   2.042  0.8540 -0.3929 -0.7452
 8803TIP3   OH226372   3.313   3.017   0.929 -0.1449 -0.1486  0.2906
 8803TIP3    H126373   3.345   2.945   0.876 -0.7154 -0.0913 -0.1470
 8803TIP3    H226374   3.311   3.092   0.870 -3.0210 -0.6026 -0.3543
 8804TIP3   OH226375   2.278   4.583   1.553 -0.0552 -0.2189  0.7728
 8804TIP3    H126376   2.351   4.606   1.610 -0.1514  1.1717  0.3669
 8804TIP3    H226377   2.221   4.529   1.607  0.0548  0.7311  1.8664
 8805TIP3   OH226378   2.528   6.186   4.990 -0.5252 -0.0344 -0.0797
 8805TIP3    H126379   2.556   6.105   4.947  1.7666  1.4909 -1.6954
 8805TIP3    H226380   2.539   6.169   5.083  1.9980 -0.9377 -0.4595
 8806TIP3   OH226381   6.879   1.025   4.382 -0.2767  0.3293 -0.2989
 8806TIP3    H126382   6.884   1.121   4.382 -1.0585  0.4370  2.1262
 8806TIP3    H226383   6.792   1.006   4.346 -1.3939  0.7350  2.0246
 8807TIP3   OH226384   6.755   5.987   1.295 -0.0730  0.2575  0.1080
 8807TIP3    H126385   6.784   6.043   1.367 -1.0696 -1.3453  1.8198
 8807TIP3    H226386   6.796   5.902   1.312 -0.6157 -0.2606 -1.0183
 8808TIP3   OH226387   1.043   4.676   1.754 -0.4183  0.2203  0.6616
 8808TIP3    H126388   1.008   4.587   1.750 -0.1325  0.1100  0.5861
 8808TIP3    H226389   1.068   4.688   1.845  1.1118 -0.3882  0.3402
 8809TIP3   OH226390   1.417   1.883   5.184 -0.3255 -0.1246 -0.3280
 8809TIP3    H126391   1.391   1.947   5.251 -0.4207  0.5394 -0.9858
 8809TIP3    H226392   1.446   1.937   5.111  2.0887 -0.8366  0.0373
 8810TIP3   OH226393   7.014   6.698   5.432 -0.1994  0.0993  0.4577
 8810TIP3    H126394   7.039   6.646   5.509  1.9202  0.9888  0.4557
 8810TIP3    H226395   7.068   6.777   5.439 -1.3961  1.0800 -0.9369
 8811TIP3   OH226396   2.938   0.784   5.431  0.0878  0.3306 -0.7160
 8811TIP3    H126397   2.923   0.742   5.347 -0.2661  1.6592 -1.3433
 8811TIP3    H226398   2.878   0.859   5.432 -1.0315 -0.4970  1.3642
 8812TIP3   OH226399   3.962   6.688   0.956  0.5662  0.0615  0.1634
 8812TIP3    H126400   3.889   6.740   0.923  0.1930 -0.0829  0.7416
 8812TIP3    H226401   3.951   6.602   0.915  0.1282 -0.1048  0.6137
 8813TIP3   OH226402   2.905   6.214   1.957  0.1705  0.2627  0.0378
 8813TIP3    H126403   2.889   6.193   1.865 -0.6327  0.2141  0.1841
 8813TIP3    H226404   2.998   6.236   1.961 -0.3098  2.8726 -1.2978
 8814TIP3   OH226405   3.028   5.953   5.512 -0.3534 -0.1173 -0.2815
 8814TIP3    H126406   3.015   5.942   5.418  1.9962  2.1868 -0.9821
 8814TIP3    H226407   3.017   5.865   5.548  0.0120 -1.3229 -2.8952
 8815TIP3   OH226408   5.318   0.416   0.086  0.1816 -0.2195  0.0178
 8815TIP3    H126409   5.386   0.483   0.095 -0.5207  0.5687 -0.3605
 8815TIP3    H226410   5.256   0.436   0.156 -0.1526 -0.3269 -0.2474
 8816TIP3   OH226411   4.938   5.774   4.860  0.1952  0.4135  0.0349
 8816TIP3    H126412   4.891   5.706   4.812 -0.0612  1.5212 -1.3725
 8816TIP3    H226413   4.873   5.844   4.870  1.6624  2.4145 -2.8498
 8817TIP3   OH226414   5.731   2.368   4.754 -0.7172  0.0722 -0.0062
 8817TIP3    H126415   5.814   2.414   4.741  1.2772 -2.6139  2.0571
 8817TIP3    H226416   5.679   2.390   4.677  0.9170  3.7503 -0.2656
 8818TIP3   OH226417   6.979   1.488   5.442 -0.5762 -0.4711 -0.0918
 8818TIP3    H126418   6.930   1.456   5.366 -3.2178  0.2155  1.1973
 8818TIP3    H226419   7.031   1.561   5.408 -1.5924 -0.2636 -1.2950
 8819TIP3   OH226420   4.686   6.588   3.444  0.0875 -0.2478 -0.1216
 8819TIP3    H126421   4.704   6.529   3.371  1.6717  0.3096 -0.2242
 8819TIP3    H226422   4.642   6.663   3.405  0.4088 -0.2088 -0.4119
 8820TIP3   OH226423   2.121   2.235   2.765 -0.5179  0.1480 -0.1144
 8820TIP3    H126424   2.069   2.183   2.827 -0.0789 -0.4161 -0.2095
 8820TIP3    H226425   2.066   2.311   2.745 -1.1981 -0.3113 -0.0244
 8821TIP3   OH226426   2.193   2.276   0.719  0.0579 -0.3779  0.7398
 8821TIP3    H126427   2.284   2.260   0.694 -0.0485 -2.1649  1.3357
 8821TIP3    H226428   2.142   2.254   0.641  0.0367 -1.0981  0.9518
 8822TIP3   OH226429   4.303   5.342   1.100  0.1754  0.3079  0.1465
 8822TIP3    H126430   4.344   5.326   1.185  1.0174  1.0937 -0.0905
 8822TIP3    H226431   4.314   5.261   1.051  1.0414  0.3475  0.2623
 8823TIP3   OH226432   3.212   3.928   0.458 -0.3483 -0.8495 -0.0380
 8823TIP3    H126433   3.166   4.008   0.431 -1.5877 -1.3340  0.5407
 8823TIP3    H226434   3.234   3.885   0.376 -1.1207 -0.6965 -0.3388
 8824TIP3   OH226435   4.088   6.371   2.871  1.0544  0.2941 -0.4957
 8824TIP3    H126436   4.132   6.312   2.932  1.3698 -0.5710 -1.5334
 8824TIP3    H226437   4.057   6.315   2.801 -1.4455  0.9028 -0.0008
 8825TIP3   OH226438   2.977   0.610   5.216  0.8449 -0.2614 -0.2073
 8825TIP3    H126439   3.011   0.606   5.126  1.1359 -1.7069 -0.0532
 8825TIP3    H226440   3.015   0.534   5.260  0.8556  0.5178  1.2110
 8826TIP3   OH226441   0.191   0.791   3.170  0.5631 -0.4057 -0.1078
 8826TIP3    H126442   0.099   0.796   3.143  0.9953 -1.0631 -1.8561
 8826TIP3    H226443   0.203   0.699   3.194  0.6007 -0.1639  0.8476
 8827TIP3   OH226444   2.969   4.141   0.695  0.0608  0.4798  0.7044
 8827TIP3    H126445   2.998   4.232   0.701  0.6196  0.2937  0.9063
 8827TIP3    H226446   2.984   4.106   0.783 -2.2115  0.7898  1.2788
 8828TIP3   OH226447   5.759   1.230   2.241  0.1796 -0.0829 -0.4443
 8828TIP3    H126448   5.830   1.289   2.214  0.9014 -0.9454 -0.4905
 8828TIP3    H226449   5.748   1.247   2.335  0.0966  0.4228 -0.5470
 8829TIP3   OH226450   5.404   6.523   1.180  0.0366 -0.5483  0.7062
 8829TIP3    H126451   5.406   6.615   1.153  0.1000 -0.0053  2.4518
 8829TIP3    H226452   5.488   6.487   1.149  0.6662  0.3797  1.2959
 8830TIP3   OH226453   0.704   3.868   2.536 -0.2504  0.1239 -0.3074
 8830TIP3    H126454   0.753   3.821   2.603 -0.1327  0.0203 -0.4647
 8830TIP3    H226455   0.715   3.960   2.558  0.0095  0.1006 -0.3358
 8831TIP3   OH226456   2.675   1.430   1.671 -0.5664 -0.5593  0.1115
 8831TIP3    H126457   2.663   1.409   1.578  0.9137 -0.2851 -0.1758
 8831TIP3    H226458   2.747   1.373   1.699 -1.1617 -0.8170  1.1682
 8832TIP3   OH226459   3.432   5.815   5.564 -0.6861 -0.4363  0.2232
 8832TIP3    H126460   3.359   5.776   5.612 -0.0606 -0.8004  0.9064
 8832TIP3    H226461   3.483   5.861   5.631 -0.0741 -0.5222 -0.1717
 8833TIP3   OH226462   1.751   4.175   4.792  0.1017 -0.5520  0.3636
 8833TIP3    H126463   1.814   4.214   4.853 -0.7788 -0.2192  1.0969
 8833TIP3    H226464   1.804   4.133   4.725  1.1238 -1.2476  1.5660
 8834TIP3   OH226465   2.367   6.294   4.798  0.1359  0.3744  0.0589
 8834TIP3    H126466   2.429   6.264   4.865  0.7989 -0.0866 -0.7294
 8834TIP3    H226467   2.422   6.312   4.721 -0.5778  1.1105 -0.2957
 8835TIP3   OH226468   0.121   3.079   4.010 -0.2833  0.1385 -0.3369
 8835TIP3    H126469   0.073   3.016   3.955 -0.2597 -0.9320  0.8044
 8835TIP3    H226470   0.060   3.099   4.081  0.8090 -1.0568  1.0102
 8836TIP3   OH226471   3.677   2.518   0.212 -0.1984  0.3719  0.4435
 8836TIP3    H126472   3.657   2.484   0.125  1.0479 -0.2076  0.3690
 8836TIP3    H226473   3.627   2.461   0.271 -1.6524  1.2375  0.1034
 8837TIP3   OH226474   2.365   4.155   1.751  0.4777 -0.3116  0.5383
 8837TIP3    H126475   2.439   4.112   1.708  1.0583  1.2258 -0.0333
 8837TIP3    H226476   2.403   4.231   1.794 -0.7722  0.4825  0.2756
 8838TIP3   OH226477   1.742   1.707   4.137  0.6137 -0.1574  0.3867
 8838TIP3    H126478   1.708   1.622   4.110 -1.0479  0.6624 -0.2493
 8838TIP3    H226479   1.813   1.725   4.075 -0.4999 -0.1109 -0.9232
 8839TIP3   OH226480   3.399   0.997   4.544 -0.3668  0.3361  0.6282
 8839TIP3    H126481   3.459   0.974   4.473 -1.0856 -0.3031  0.2094
 8839TIP3    H226482   3.315   1.009   4.500 -0.9352 -0.5868  1.4454
 8840TIP3   OH226483   7.009   2.976   5.684 -0.0905  0.1084 -0.6299
 8840TIP3    H126484   7.019   2.905   5.620  3.1289  0.7975 -1.0947
 8840TIP3    H226485   7.092   3.024   5.679 -0.5258  1.4480  2.6213
 8841TIP3   OH226486   3.422   2.555   5.858 -0.3610 -0.4280  0.0425
 8841TIP3    H126487   3.452   2.646   5.858 -0.3038 -0.4291  1.6657
 8841TIP3    H226488   3.350   2.554   5.794  0.6628  0.3833 -1.1559
 8842TIP3   OH226489   3.864   0.605   4.770 -0.0343  0.2382 -0.2321
 8842TIP3    H126490   3.874   0.655   4.689 -0.0145 -1.3206 -1.2417
 8842TIP3    H226491   3.815   0.527   4.744 -0.3533 -0.1319  1.3457
 8843TIP3   OH226492   2.679   4.970   3.147 -0.3804  0.1012 -0.8210
 8843TIP3    H126493   2.645   4.886   3.179  0.9788 -0.4010 -0.6403
 8843TIP3    H226494   2.742   4.998   3.214  0.6413  0.2827 -1.8314
 8844TIP3   OH226495   1.472   4.741   2.349 -0.2478  0.0089  0.1674
 8844TIP3    H126496   1.531   4.808   2.383 -1.3081  0.8095  0.4744
 8844TIP3    H226497   1.531   4.672   2.317  0.8387  0.5958  0.8179
 8845TIP3   OH226498   1.709   6.625   4.755 -0.1747 -0.5028  0.3902
 8845TIP3    H126499   1.798   6.654   4.735 -0.6434 -0.1354 -1.3896
 8845TIP3    H226500   1.720   6.541   4.799  1.0539 -0.9034 -0.6037
 8846TIP3   OH226501   0.932   0.859   5.777 -0.3080 -0.6148 -0.4350
 8846TIP3    H126502   1.024   0.871   5.752  0.5463 -1.5677  1.9935
 8846TIP3    H226503   0.922   0.764   5.786 -0.7456 -0.3903  1.9217
 8847TIP3   OH226504   6.733   0.442   5.602 -0.4310 -0.1591 -0.1707
 8847TIP3    H126505   6.656   0.490   5.633 -1.4818 -1.2190 -1.0462
 8847TIP3    H226506   6.763   0.493   5.526 -1.3981 -0.7176 -0.9530
 8848TIP3   OH226507   5.274   5.943   3.715 -0.0504 -0.6638 -0.2304
 8848TIP3    H126508   5.270   6.010   3.783 -1.1832  1.0303 -1.8974
 8848TIP3    H226509   5.368   5.925   3.704  0.2866  0.8538  0.0457
 8849TIP3   OH226510   0.555   4.517   2.756 -0.0547 -0.4082  0.0866
 8849TIP3    H126511   0.606   4.476   2.826  0.9610  0.7051  0.0156
 8849TIP3    H226512   0.531   4.603   2.791  0.5007  0.1789 -0.9307
 8850TIP3   OH226513   4.000   3.870   1.794  0.0405 -0.3100 -0.0037
 8850TIP3    H126514   4.008   3.950   1.742  0.4023 -1.1636 -1.3269
 8850TIP3    H226515   3.983   3.901   1.883 -3.0409  1.2184 -0.9853
 8851TIP3   OH226516   5.883   1.511   5.185 -0.3158  0.2828 -0.4827
 8851TIP3    H126517   5.963   1.463   5.164 -0.5465 -0.4572  0.2990
 8851TIP3    H226518   5.814   1.465   5.138 -0.1215  1.8285 -2.4271
 8852TIP3   OH226519   5.522   6.293   0.828 -0.5106 -0.0273  0.6620
 8852TIP3    H126520   5.442   6.345   0.837 -0.9654 -0.8696  1.6934
 8852TIP3    H226521   5.509   6.244   0.747 -0.3617  0.9628  0.0263
 8853TIP3   OH226522   1.155   1.634   0.538 -0.0004 -0.0941  0.3599
 8853TIP3    H126523   1.168   1.542   0.514 -3.0403 -0.6199  0.3292
 8853TIP3    H226524   1.213   1.649   0.612  1.4899 -1.6224 -0.4290
 8854TIP3   OH226525   0.645   1.560   2.314  0.1639 -0.3384 -0.4245
 8854TIP3    H126526   0.640   1.558   2.410  1.3319  0.2460 -0.3288
 8854TIP3    H226527   0.719   1.502   2.293  0.6697  0.4511 -0.8820
 8855TIP3   OH226528   1.874   4.009   2.175 -0.1881  0.5842 -0.2549
 8855TIP3    H126529   1.921   3.982   2.254  0.4695 -1.2479 -1.2205
 8855TIP3    H226530   1.793   3.958   2.176 -0.2901  0.7356 -0.6412
 8856TIP3   OH226531   3.766   4.487   3.244  0.7799 -0.2397 -0.7574
 8856TIP3    H126532   3.706   4.561   3.237  0.7676 -0.3157 -1.6023
 8856TIP3    H226533   3.731   4.421   3.184  1.7406 -0.2534 -1.3317
 8857TIP3   OH226534   1.769   1.090   2.123  0.1366  0.0381  0.3013
 8857TIP3    H126535   1.754   0.997   2.141 -0.2285 -0.1669 -0.9855
 8857TIP3    H226536   1.788   1.128   2.209  0.3609 -1.2319  0.8355
 8858TIP3   OH226537   5.276   4.842   2.615  0.2499 -0.4871 -0.2573
 8858TIP3    H126538   5.195   4.817   2.658 -1.7450  3.3664 -1.3610
 8858TIP3    H226539   5.336   4.864   2.687 -0.7506 -0.4230  0.5698
 8859TIP3   OH226540   6.322   2.353   5.564  0.0684  0.0106  0.0362
 8859TIP3    H126541   6.343   2.444   5.586  0.2829 -0.0802  0.2046
 8859TIP3    H226542   6.308   2.310   5.648 -3.7323  0.7320 -0.0399
 8860TIP3   OH226543   6.900   6.357   0.305  0.5840  0.1115  0.0583
 8860TIP3    H126544   6.908   6.452   0.309  0.4453  0.1423 -0.3885
 8860TIP3    H226545   6.990   6.326   0.294  0.6116  0.1975  0.0438
 8861TIP3   OH226546   4.278   6.139   4.431 -0.1851  0.2509 -0.2199
 8861TIP3    H126547   4.344   6.186   4.380 -0.4757  0.3606 -0.5043
 8861TIP3    H226548   4.205   6.201   4.438  0.2859  0.6629  1.3147
 8862TIP3   OH226549   4.212   0.349   3.364  0.3991 -0.1517  0.0783
 8862TIP3    H126550   4.190   0.441   3.347 -0.6934 -0.6309 -1.3353
 8862TIP3    H226551   4.304   0.342   3.340  0.3928  0.5004 -0.1708
 8863TIP3   OH226552   6.396   0.520   4.423 -0.8561 -0.2035 -0.0079
 8863TIP3    H126553   6.442   0.495   4.343 -2.1626 -1.1698 -0.4969
 8863TIP3    H226554   6.311   0.475   4.417 -2.5369  2.6934  0.0934
 8864TIP3   OH226555   0.652   0.589   4.832  0.6082  0.0614 -0.1200
 8864TIP3    H126556   0.585   0.525   4.854 -0.0203  0.2931 -1.2425
 8864TIP3    H226557   0.721   0.537   4.790  1.2335 -0.1992  1.1752
 8865TIP3   OH226558   5.546   2.351   3.324 -0.2727 -0.5990  0.2841
 8865TIP3    H126559   5.495   2.366   3.244  0.3546 -3.4168 -0.7558
 8865TIP3    H226560   5.612   2.287   3.298 -1.0063 -2.8421  3.4060
 8866TIP3   OH226561   0.054   4.974   5.520 -0.2749  0.3780  0.2592
 8866TIP3    H126562   0.035   4.891   5.477  1.6708  0.1059 -0.1515
 8866TIP3    H226563  -0.017   5.032   5.492 -1.5733 -1.0591  0.4083
 8867TIP3   OH226564   1.925   4.962   5.673  0.7747  0.3066  0.2443
 8867TIP3    H126565   1.847   4.963   5.618  0.1702 -0.4375  1.0500
 8867TIP3    H226566   1.896   5.000   5.756  1.1141 -0.4932  0.7372
 8868TIP3   OH226567   2.763   5.572   3.896 -0.6622  0.2140  0.2497
 8868TIP3    H126568   2.703   5.625   3.949 -0.6719  2.2167 -1.6163
 8868TIP3    H226569   2.850   5.602   3.923 -0.4484 -1.8222  2.0804
 8869TIP3   OH226570   6.172   3.371   1.784  0.1240 -0.1570  0.3633
 8869TIP3    H126571   6.197   3.286   1.748 -0.2709 -0.9846  1.9406
 8869TIP3    H226572   6.155   3.426   1.707 -0.9476 -1.8868 -0.6914
 8870TIP3   OH226573   5.665   0.456   5.275  0.6766  0.4709 -0.5249
 8870TIP3    H126574   5.681   0.486   5.185 -0.0756  0.3366 -0.7127
 8870TIP3    H226575   5.739   0.489   5.325  0.7134  1.2054 -1.0506
 8871TIP3   OH226576   1.793   5.122   2.800 -0.1753 -0.1769 -0.0981
 8871TIP3    H126577   1.845   5.201   2.788  0.4880  0.0515  3.2572
 8871TIP3    H226578   1.704   5.147   2.775 -0.4517  2.4600  2.9440
 8872TIP3   OH226579   3.774   0.764   1.367 -0.6543  0.1925 -0.2217
 8872TIP3    H126580   3.795   0.775   1.460 -2.2612  0.6066  0.1126
 8872TIP3    H226581   3.856   0.734   1.328  0.3289  0.9921  1.1414
 8873TIP3   OH226582   1.767   0.823   0.968  0.4624 -0.3530  0.1603
 8873TIP3    H126583   1.779   0.904   1.017 -1.5482 -0.1989  0.4988
 8873TIP3    H226584   1.755   0.851   0.878 -2.4023  0.0197  0.5585
 8874TIP3   OH226585   2.457   2.314   0.642  0.1568  0.3896 -0.2403
 8874TIP3    H126586   2.472   2.360   0.559 -1.4559 -0.0506 -0.8320
 8874TIP3    H226587   2.478   2.223   0.622 -0.7398  0.1943 -0.3440
 8875TIP3   OH226588   1.888   3.871   0.709 -0.4866  0.0752  0.2905
 8875TIP3    H126589   1.883   3.866   0.805  2.0207  0.1616  0.5017
 8875TIP3    H226590   1.902   3.781   0.681 -1.9452 -0.0530 -0.0932
 8876TIP3   OH226591   0.154   5.296   4.774 -0.3930  0.1975  0.2558
 8876TIP3    H126592   0.091   5.304   4.846  0.7629 -0.6420  1.3979
 8876TIP3    H226593   0.132   5.213   4.732 -1.4105  0.9380 -0.7448
 8877TIP3   OH226594   0.696   1.054   3.531  0.3777  0.3381  0.4881
 8877TIP3    H126595   0.760   1.007   3.478  0.0776 -2.2076  2.2197
 8877TIP3    H226596   0.735   1.057   3.619 -0.4404  1.7445  0.8378
 8878TIP3   OH226597   3.853   5.357   5.450 -0.3373 -0.2315  0.4143
 8878TIP3    H126598   3.803   5.299   5.508  0.4816 -1.9546 -0.5265
 8878TIP3    H226599   3.803   5.359   5.369 -0.3639  0.4024  0.4447
 8879TIP3   OH226600   0.837   5.006   5.550  0.6987  0.0797 -0.4354
 8879TIP3    H126601   0.847   5.030   5.643 -1.4576 -1.7744  0.3715
 8879TIP3    H226602   0.758   5.052   5.522  0.4604 -0.6095 -0.9006
 8880TIP3   OH226603   4.299   0.167   0.648  0.9326 -0.0590  0.4544
 8880TIP3    H126604   4.280   0.073   0.641 -1.0842  0.3328 -0.1184
 8880TIP3    H226605   4.351   0.187   0.570  0.4199 -0.5163 -0.0203
 8881TIP3   OH226606   3.572   5.896   2.039  0.1842 -0.0434 -0.0849
 8881TIP3    H126607   3.549   5.887   1.947  1.1802  0.7138 -0.4248
 8881TIP3    H226608   3.490   5.878   2.086 -0.5119  0.2481 -1.1393
 8882TIP3   OH226609   1.636   3.221   1.505  0.6685  0.2595 -0.0756
 8882TIP3    H126610   1.712   3.275   1.483  1.0588 -0.5320 -0.7124
 8882TIP3    H226611   1.594   3.203   1.421 -0.3662  0.8697  0.2889
 8883TIP3   OH226612   3.964   3.177   5.388  0.0442 -0.5213  0.7606
 8883TIP3    H126613   4.011   3.098   5.362  0.0229 -0.0402 -0.9107
 8883TIP3    H226614   4.029   3.229   5.436 -0.2247 -1.9325  2.7648
 8884TIP3   OH226615   2.561   1.865   1.904  0.3404 -0.0817  0.9556
 8884TIP3    H126616   2.600   1.951   1.886 -0.4463  0.0570 -0.1611
 8884TIP3    H226617   2.591   1.810   1.832 -2.1791  0.2556 -0.4699
 8885TIP3   OH226618   0.999   2.843   4.324 -0.3062  0.2876 -0.5130
 8885TIP3    H126619   1.045   2.797   4.253  0.3318  0.9672 -0.5517
 8885TIP3    H226620   0.930   2.892   4.279  1.1277  2.0356 -0.8930
 8886TIP3   OH226621   2.932   1.681   5.823  0.2170  0.2810  0.0658
 8886TIP3    H126622   2.962   1.636   5.744 -0.6853 -1.7998  0.8579
 8886TIP3    H226623   2.844   1.712   5.802  0.5622  1.1085 -0.2297
 8887TIP3   OH226624   1.805   3.986   5.729  0.1881  0.0132  0.4914
 8887TIP3    H126625   1.817   3.899   5.766 -0.4163 -1.2307 -1.9935
 8887TIP3    H226626   1.887   4.006   5.685  0.6168  1.1106  1.7183
 8888TIP3   OH226627   6.167   2.360   1.834  0.5327  0.0016 -0.2029
 8888TIP3    H126628   6.088   2.312   1.860  0.6713 -0.0767  0.0773
 8888TIP3    H226629   6.137   2.449   1.818  0.6019  0.2958  1.1768
 8889TIP3   OH226630   2.246   0.143   5.674  0.0148 -0.0113 -0.2103
 8889TIP3    H126631   2.218   0.160   5.584  0.5183 -2.5354 -0.9352
 8889TIP3    H226632   2.340   0.125   5.667  0.4535  1.5283  1.1288
 8890TIP3   OH226633   1.105   0.467   2.022 -0.5336 -0.0809 -0.2273
 8890TIP3    H126634   1.039   0.431   1.964 -0.0701  0.2883 -1.0115
 8890TIP3    H226635   1.056   0.498   2.099 -1.3002  0.4069 -0.8967
 8891TIP3   OH226636   4.137   4.878   1.641  0.0204  0.7359  0.1157
 8891TIP3    H126637   4.190   4.878   1.722  0.4381  1.0591 -0.1527
 8891TIP3    H226638   4.070   4.812   1.657  0.8668 -0.1159  0.2297
 8892TIP3   OH226639   4.494   3.661   1.886 -0.4028  0.9591 -0.1513
 8892TIP3    H126640   4.496   3.570   1.855  1.4218  1.4672 -1.7041
 8892TIP3    H226641   4.401   3.680   1.898 -0.9014 -0.7373 -0.9961
 8893TIP3   OH226642   0.505   4.697   0.993 -0.0875  0.1080 -0.0108
 8893TIP3    H126643   0.472   4.615   0.955 -0.4980  0.5047 -0.5332
 8893TIP3    H226644   0.595   4.703   0.961  0.0045 -0.2363  0.1846
 8894TIP3   OH226645   4.463   2.066   3.275  0.0318 -0.3658 -0.4864
 8894TIP3    H126646   4.540   2.016   3.302  0.9580  0.3261 -1.7535
 8894TIP3    H226647   4.444   2.123   3.349  0.7518 -0.5301 -0.1695
 8895TIP3   OH226648   2.655   1.181   5.212  0.0500  0.3667 -0.1433
 8895TIP3    H126649   2.570   1.213   5.181  0.0796  1.5748  0.9706
 8895TIP3    H226650   2.704   1.162   5.131 -1.1837 -0.1290 -0.7989
 8896TIP3   OH226651   7.031   1.617   2.439 -0.1108 -0.2648 -0.1459
 8896TIP3    H126652   6.999   1.532   2.470  0.1943 -0.7052 -1.0092
 8896TIP3    H226653   7.126   1.607   2.435  0.0091  0.4262  0.6192
 8897TIP3   OH226654   4.348   5.686   5.584  0.1362  0.2597 -0.0216
 8897TIP3    H126655   4.277   5.722   5.532 -1.3608 -0.9263  1.1069
 8897TIP3    H226656   4.334   5.591   5.582  1.8701 -0.0326 -0.0129
 8898TIP3   OH226657   5.920   2.428   3.591  0.1739 -0.0633  0.1578
 8898TIP3    H126658   5.948   2.519   3.599 -0.8348  0.1701  1.2400
 8898TIP3    H226659   5.976   2.392   3.522 -0.8940  1.9704 -1.9030
 8899TIP3   OH226660   4.226   3.373   1.688  0.0179 -0.5969  0.1743
 8899TIP3    H126661   4.171   3.388   1.765  0.5739 -1.6823  0.8087
 8899TIP3    H226662   4.190   3.293   1.648  0.5635 -0.7921  0.0670
 8900TIP3   OH226663   2.114   3.295   2.104 -0.1351 -0.5675 -0.3431
 8900TIP3    H126664   2.137   3.324   2.192  0.8844 -1.5671 -0.2697
 8900TIP3    H226665   2.018   3.299   2.102 -0.1452 -0.0162  0.6213
 8901TIP3   OH226666   4.219   5.830   4.571  0.5848  0.0979  0.3678
 8901TIP3    H126667   4.176   5.902   4.616 -1.4773 -1.0570  0.3426
 8901TIP3    H226668   4.256   5.870   4.492  0.6540  1.3603  1.0178
 8902TIP3   OH226669   2.617   3.937   3.051 -0.1786 -0.7270  0.0148
 8902TIP3    H126670   2.559   3.982   2.989  0.9109  0.4172 -0.2146
 8902TIP3    H226671   2.705   3.958   3.021  0.4749  1.5270  3.0134
 8903TIP3   OH226672   0.886   2.501   0.455 -0.3236  0.0851 -0.0631
 8903TIP3    H126673   0.908   2.455   0.536 -1.2318 -1.0762 -0.4389
 8903TIP3    H226674   0.954   2.568   0.446 -1.0592  1.3533  2.4957
 8904TIP3   OH226675   0.124   5.256   0.981  0.2372 -0.0950 -0.3122
 8904TIP3    H126676   0.193   5.265   0.916  1.0704  0.0456  0.5633
 8904TIP3    H226677   0.171   5.237   1.063 -0.7496  0.1574  0.3246
 8905TIP3   OH226678   2.592   3.998   4.421  0.2957  0.3197 -0.2774
 8905TIP3    H126679   2.680   3.984   4.456 -0.3920 -0.5703  1.2072
 8905TIP3    H226680   2.578   3.925   4.360  0.6141  0.5063 -0.5734
 8906TIP3   OH226681   2.313   2.550   4.468  0.3069  0.8985 -0.2636
 8906TIP3    H126682   2.221   2.536   4.491  0.6013 -0.2054  0.2998
 8906TIP3    H226683   2.327   2.644   4.482 -0.1590  0.6959  1.8195
 8907TIP3   OH226684   4.486   1.552   3.498  0.3972  0.2794  0.7500
 8907TIP3    H126685   4.575   1.532   3.526  0.3767 -0.5609  0.2362
 8907TIP3    H226686   4.467   1.489   3.429 -0.2889  1.0036  0.2545
 8908TIP3   OH226687   6.194   0.071   2.621 -0.0922  0.0310  0.2969
 8908TIP3    H126688   6.179  -0.015   2.582  2.9383 -0.3252 -0.3031
 8908TIP3    H226689   6.106   0.109   2.629 -1.2420 -1.5457 -3.0256
 8909TIP3   OH226690   5.191   3.917   2.053  0.4998  0.3042  0.0101
 8909TIP3    H126691   5.192   3.955   1.966 -0.6688  1.5722  0.5090
 8909TIP3    H226692   5.116   3.857   2.053  1.6476 -1.2023 -0.4136
 8910TIP3   OH226693   3.415   4.080   4.859 -0.0455  0.3403  0.4502
 8910TIP3    H126694   3.363   4.008   4.824  0.3083 -0.0829  0.7781
 8910TIP3    H226695   3.415   4.066   4.954  2.9869 -1.3211  0.3210
 8911TIP3   OH226696   6.106   4.250   0.586  0.1690  0.5484 -0.0613
 8911TIP3    H126697   6.191   4.295   0.588  1.5779 -1.9556  1.6726
 8911TIP3    H226698   6.127   4.159   0.609 -2.5326 -0.9930 -2.9857
 8912TIP3   OH226699   6.082   4.475   3.136 -0.0460 -0.3506 -0.1331
 8912TIP3    H126700   6.076   4.509   3.225  0.1225 -0.7224  0.0184
 8912TIP3    H226701   6.175   4.457   3.123 -0.2925 -2.1421  0.3130
 8913TIP3   OH226702   0.433   3.198   0.289  0.3142 -0.0861 -0.3453
 8913TIP3    H126703   0.453   3.242   0.206  0.0772  0.2096 -0.2463
 8913TIP3    H226704   0.380   3.261   0.338  1.9229  0.4556  0.7729
 8914TIP3   OH226705   2.871   4.707   3.115  0.9091 -0.6015 -0.0909
 8914TIP3    H126706   2.861   4.613   3.094 -0.8926 -0.4824  0.0663
 8914TIP3    H226707   2.909   4.708   3.202  0.2232 -1.2151  0.2294
 8915TIP3   OH226708   2.570   5.269   4.768  0.3350 -0.5651  0.3447
 8915TIP3    H126709   2.489   5.232   4.804  0.4448 -0.5926  0.5644
 8915TIP3    H226710   2.635   5.200   4.780  0.4613 -0.4281  0.4397
 8916TIP3   OH226711   5.434   3.542   1.612  0.3120 -0.3412  0.3150
 8916TIP3    H126712   5.345   3.544   1.646 -0.1083  3.3016 -0.6284
 8916TIP3    H226713   5.487   3.586   1.678  1.1831 -1.1786  0.2092
 8917TIP3   OH226714   2.414   2.138   5.342 -0.0039  0.7864  0.2264
 8917TIP3    H126715   2.362   2.212   5.374  0.9973  1.0419  1.3067
 8917TIP3    H226716   2.478   2.178   5.283  0.8784  0.8870  1.2140
 8918TIP3   OH226717   1.736   2.090   1.147 -0.0673 -0.2431  0.2747
 8918TIP3    H126718   1.821   2.047   1.158 -1.4281 -3.7507 -1.2549
 8918TIP3    H226719   1.744   2.137   1.064  0.4531 -0.4160  0.2191
 8919TIP3   OH226720   3.572   2.677   0.606  0.0043 -0.2322 -0.0408
 8919TIP3    H126721   3.651   2.655   0.556 -0.7613 -0.1322 -1.3275
 8919TIP3    H226722   3.551   2.766   0.578 -1.6350 -0.9338 -1.1710
 8920TIP3   OH226723   4.257   3.499   4.765 -0.4952 -0.1904  0.3953
 8920TIP3    H126724   4.233   3.499   4.858 -0.9326  0.9275  0.2968
 8920TIP3    H226725   4.211   3.575   4.729  0.4582 -0.0367 -0.5258
 8921TIP3   OH226726   6.405   3.820   4.343 -0.0408  0.3178  0.2335
 8921TIP3    H126727   6.432   3.728   4.337  0.7956  0.5240  0.7131
 8921TIP3    H226728   6.364   3.838   4.258  0.3819 -0.3151 -0.1140
 8922TIP3   OH226729   5.742   3.601   4.130  0.0256  0.1913 -0.7827
 8922TIP3    H126730   5.731   3.696   4.131  1.2925  0.3900 -1.8838
 8922TIP3    H226731   5.677   3.571   4.066 -0.4020  0.3121 -0.4074
 8923TIP3   OH226732   5.024   5.124   3.554  0.8283 -0.0907  0.1428
 8923TIP3    H126733   5.102   5.151   3.601  0.6670  0.1929  0.2463
 8923TIP3    H226734   4.953   5.177   3.591  0.8498  0.8318 -1.0714
 8924TIP3   OH226735   0.458   5.743   0.069 -1.2587 -0.1566 -0.3306
 8924TIP3    H126736   0.468   5.811   0.001 -1.5431 -1.2282 -1.4850
 8924TIP3    H226737   0.369   5.711   0.057 -1.0769 -0.8345  0.1110
 8925TIP3   OH226738   1.650   0.784   4.782  0.1083  0.8936 -0.0281
 8925TIP3    H126739   1.671   0.736   4.702 -1.0779  1.6825 -0.8426
 8925TIP3    H226740   1.554   0.793   4.781  0.0291  0.6606  1.6422
 8926TIP3   OH226741   1.262   5.849   5.627 -0.5343  0.6775 -0.1775
 8926TIP3    H126742   1.227   5.774   5.676  2.0506 -0.4376  0.1256
 8926TIP3    H226743   1.194   5.916   5.633 -2.9798 -1.6182 -0.4750
 8927TIP3   OH226744   0.726   2.268   1.439  0.3374 -0.0962 -0.1858
 8927TIP3    H126745   0.667   2.236   1.507 -0.7659 -1.6961 -1.7821
 8927TIP3    H226746   0.679   2.340   1.397  0.2108 -0.3001 -0.4005
 8928TIP3   OH226747   5.061   3.133   2.045  0.5864 -0.4902  0.2022
 8928TIP3    H126748   5.145   3.152   2.004  2.5071 -3.2916  2.3709
 8928TIP3    H226749   5.066   3.177   2.130 -0.6363  0.1756 -0.0553
 8929TIP3   OH226750   3.369   1.419   1.694  0.3393  0.4064 -0.7287
 8929TIP3    H126751   3.305   1.382   1.755  0.2591  1.5866 -0.0768
 8929TIP3    H226752   3.320   1.486   1.646  1.5639  3.0636  1.4520
 8930TIP3   OH226753   0.853   1.710   2.162 -0.1826  0.1245  0.2229
 8930TIP3    H126754   0.810   1.681   2.242  0.6086 -2.7840 -0.2964
 8930TIP3    H226755   0.803   1.787   2.134 -3.5353 -1.6093  0.9628
 8931TIP3   OH226756   5.556   0.533   0.762 -0.2810  0.2665 -0.1070
 8931TIP3    H126757   5.625   0.562   0.822 -0.0789  0.8864 -0.6295
 8931TIP3    H226758   5.576   0.576   0.679 -1.3212  0.4928 -0.2577
 8932TIP3   OH226759   5.396   4.123   1.239 -0.2914 -0.1128  0.0524
 8932TIP3    H126760   5.399   4.136   1.334  0.4543  0.1311  0.0018
 8932TIP3    H226761   5.306   4.144   1.215 -0.7641 -1.1305  0.8380
 8933TIP3   OH226762   2.410   4.438   4.848 -0.1939 -0.1475 -0.2470
 8933TIP3    H126763   2.357   4.517   4.834 -0.4921 -0.6280 -1.9576
 8933TIP3    H226764   2.495   4.459   4.810  0.0730 -0.2763  0.2682
 8934TIP3   OH226765   4.146   4.932   2.606 -0.1364 -0.0810 -0.9549
 8934TIP3    H126766   4.193   4.868   2.658 -0.4133 -0.2153 -0.8680
 8934TIP3    H226767   4.215   4.980   2.559  0.0990 -0.0977 -0.6283
 8935TIP3   OH226768   1.586   5.892   1.244  0.1575 -0.6744 -0.5434
 8935TIP3    H126769   1.518   5.944   1.286  0.4021 -1.8560  1.4609
 8935TIP3    H226770   1.540   5.843   1.176 -0.6373 -0.0819 -0.4517
 8936TIP3   OH226771   6.624   0.012   3.993 -0.0157 -0.0886 -0.4431
 8936TIP3    H126772   6.555   0.075   4.012  0.4286  0.6728 -1.2632
 8936TIP3    H226773   6.693   0.064   3.951  0.6339 -1.0084 -0.5489
 8937TIP3   OH226774   6.020   4.787   4.308  0.0973  0.7143  0.4502
 8937TIP3    H126775   6.022   4.701   4.350  1.4585 -0.2164 -1.3870
 8937TIP3    H226776   6.090   4.836   4.351  1.5913 -0.2861 -0.7660
 8938TIP3   OH226777   6.676   1.426   2.821  0.3303 -0.4267 -0.3302
 8938TIP3    H126778   6.730   1.347   2.820  0.8168 -0.2203  2.5385
 8938TIP3    H226779   6.603   1.405   2.879  0.6923  1.3255  0.8320
 8939TIP3   OH226780   1.666   2.130   1.421 -0.3864  0.1274 -0.1016
 8939TIP3    H126781   1.679   2.223   1.402 -3.2316  0.8043  0.8224
 8939TIP3    H226782   1.635   2.093   1.339 -1.7495  0.5918  0.1836
 8940TIP3   OH226783   6.241   0.801   5.580 -0.2282 -0.5432  0.1642
 8940TIP3    H126784   6.156   0.843   5.589  0.4194  0.9984 -0.6047
 8940TIP3    H226785   6.283   0.846   5.507  1.3490 -1.0965  0.6751
 8941TIP3   OH226786   6.600   4.957   5.058  0.1269 -0.3728  0.6458
 8941TIP3    H126787   6.586   4.998   5.144  0.5413  0.8179  0.1741
 8941TIP3    H226788   6.514   4.926   5.031 -0.7264  2.2477  0.0399
 8942TIP3   OH226789   1.472   5.843   4.586  0.2740 -0.0878 -0.0603
 8942TIP3    H126790   1.516   5.925   4.563  2.0420 -0.6963  0.9168
 8942TIP3    H226791   1.456   5.799   4.502 -0.4003  1.0984 -0.5643
 8943TIP3   OH226792   1.922   3.554   1.250  0.4939  0.3542 -0.5143
 8943TIP3    H126793   1.878   3.598   1.177  1.3008 -1.6762 -2.3123
 8943TIP3    H226794   1.951   3.626   1.307 -0.8132  1.9656 -1.7879
 8944TIP3   OH226795   3.011   6.143   2.766  0.0614 -0.2753  0.1145
 8944TIP3    H126796   2.982   6.191   2.689  0.0296 -0.9437 -0.3002
 8944TIP3    H226797   3.032   6.211   2.830 -4.3474  0.3740  1.2487
 8945TIP3   OH226798   2.055   0.236   4.996 -0.2423 -0.3641  0.3266
 8945TIP3    H126799   2.106   0.269   4.922 -0.2942 -0.2054  0.3589
 8945TIP3    H226800   2.060   0.307   5.061 -2.1338  0.5327 -0.4214
 8946TIP3   OH226801   7.069   5.487   4.485  0.5907 -0.8064  0.1946
 8946TIP3    H126802   7.003   5.556   4.493 -0.1474 -1.3410 -0.9487
 8946TIP3    H226803   7.111   5.484   4.571 -2.0014 -1.5579  1.5356
 8947TIP3   OH226804   2.981   1.163   4.511  0.4118  0.0708 -0.2767
 8947TIP3    H126805   3.004   1.071   4.507  1.2757  0.3051 -0.9084
 8947TIP3    H226806   3.057   1.206   4.549 -0.6269  0.3232  1.6315
 8948TIP3   OH226807   5.472   5.912   4.280 -0.5487 -0.4481  0.2510
 8948TIP3    H126808   5.555   5.876   4.249  0.7429  0.2318  2.6031
 8948TIP3    H226809   5.497   5.967   4.355 -3.1438 -0.2897  1.0960
 8949TIP3   OH226810   6.761   2.458   2.635  0.0619 -0.5186  0.3904
 8949TIP3    H126811   6.851   2.444   2.664  0.0238 -0.0583  0.7390
 8949TIP3    H226812   6.729   2.530   2.689 -0.6427 -0.9224  0.5250
 8950TIP3   OH226813   3.091   3.142   5.196 -0.1556  0.1913  0.2729
 8950TIP3    H126814   3.087   3.237   5.191  1.0122  0.2092 -4.0418
 8950TIP3    H226815   3.000   3.113   5.186 -0.6144  0.7433  2.3491
 8951TIP3   OH226816   1.398   6.662   5.236 -0.0325  0.1363  0.8844
 8951TIP3    H126817   1.369   6.743   5.277 -0.0991  0.3071  0.5036
 8951TIP3    H226818   1.360   6.592   5.290 -1.2571  0.3478  0.3505
 8952TIP3   OH226819   6.287   3.272   1.542  0.2701 -0.5969  0.3671
 8952TIP3    H126820   6.243   3.198   1.501  1.3706 -1.3977  0.6097
 8952TIP3    H226821   6.288   3.340   1.474 -2.1720 -0.1654  0.6356
 8953TIP3   OH226822   4.118   0.090   5.662 -0.1906 -0.2578  0.4789
 8953TIP3    H126823   4.095   0.171   5.616 -0.3890 -0.8582 -0.5040
 8953TIP3    H226824   4.052   0.027   5.634  0.6062 -1.0580  0.3701
 8954TIP3   OH226825   0.004   4.850   1.839 -0.0369 -0.0422  0.3611
 8954TIP3    H126826  -0.019   4.767   1.881  2.2417 -0.2068  1.3839
 8954TIP3    H226827   0.083   4.879   1.883  0.0849  1.9320 -1.0204
 8955TIP3   OH226828   1.649   4.559   3.440 -0.5277  0.1452 -0.0384
 8955TIP3    H126829   1.725   4.542   3.383  0.1288 -1.3385  1.2240
 8955TIP3    H226830   1.595   4.620   3.389  1.9157  1.9847 -0.6277
 8956TIP3   OH226831   0.532   1.302  -0.032 -0.4640 -0.5892  0.0970
 8956TIP3    H126832   0.561   1.347   0.047 -1.2024 -0.4441  0.2916
 8956TIP3    H226833   0.454   1.253  -0.005 -0.5676 -0.7519 -0.4763
 8957TIP3   OH226834   3.121   4.128   0.281  0.5155  0.2702 -0.1411
 8957TIP3    H126835   3.073   4.102   0.202  0.5553 -0.0152 -0.0750
 8957TIP3    H226836   3.199   4.172   0.249  0.4431  0.3122 -0.2598
 8958TIP3   OH226837   3.571   5.219   1.398 -0.0829 -0.2061  0.2213
 8958TIP3    H126838   3.531   5.176   1.322  1.4485 -0.5193 -0.4474
 8958TIP3    H226839   3.643   5.161   1.423 -0.8772 -0.3706  2.2732
 8959TIP3   OH226840   2.967   0.607   1.224 -0.0300 -0.3794  0.4036
 8959TIP3    H126841   3.052   0.643   1.250  0.2275  0.0016 -0.8753
 8959TIP3    H226842   2.914   0.610   1.304  1.7453 -2.5023  1.7474
 8960TIP3   OH226843   0.630   0.202   1.243  0.2360 -0.6981 -0.4571
 8960TIP3    H126844   0.642   0.180   1.336  1.4593  1.1434 -0.1183
 8960TIP3    H226845   0.536   0.215   1.233  0.1145 -0.6911  0.5913
 8961TIP3   OH226846   7.097   4.453   5.361 -0.0345  0.0347 -0.0890
 8961TIP3    H126847   7.036   4.451   5.287  1.5927 -1.1938 -1.4675
 8961TIP3    H226848   7.122   4.545   5.369 -0.8395  0.3069 -0.5476
 8962TIP3   OH226849   2.906   0.056   3.493  0.3598 -0.2833  0.4375
 8962TIP3    H126850   2.842   0.029   3.559 -1.5341  2.7782  0.0338
 8962TIP3    H226851   2.883   0.005   3.415 -1.0858  0.1525  0.5523
 8963TIP3   OH226852   3.561   5.472   5.477 -0.0509 -0.6477  0.1288
 8963TIP3    H126853   3.510   5.391   5.466 -0.0612 -0.6903  0.4787
 8963TIP3    H226854   3.612   5.479   5.397 -0.0683 -0.9911  0.0869
 8964TIP3   OH226855   2.127   4.440   2.337 -0.8688  0.4536  0.1555
 8964TIP3    H126856   2.102   4.531   2.317 -1.3751  0.8697  2.4292
 8964TIP3    H226857   2.219   4.445   2.360 -0.2542 -0.0455 -1.9685
 8965TIP3   OH226858   3.955   4.410   2.161  0.1081  0.2547  0.5592
 8965TIP3    H126859   4.035   4.390   2.112 -0.2669 -2.3553  0.8636
 8965TIP3    H226860   3.972   4.496   2.199  2.7048 -0.0963  0.4228
 8966TIP3   OH226861   3.173   5.331   2.414 -0.0691 -0.2429  1.0661
 8966TIP3    H126862   3.256   5.311   2.458 -0.4141 -2.2789  0.8721
 8966TIP3    H226863   3.129   5.246   2.406 -1.0221  0.4046 -1.1879
 8967TIP3   OH226864   0.054   5.568   5.690  0.2598  0.0194 -0.5478
 8967TIP3    H126865   0.040   5.534   5.778 -1.0350  2.4661  0.2836
 8967TIP3    H226866   0.149   5.572   5.680  0.4290  0.6359  1.1205
 8968TIP3   OH226867   2.053   0.518   2.693 -0.1147 -0.8057 -0.0940
 8968TIP3    H126868   1.989   0.471   2.640  0.0278 -1.7752  0.5506
 8968TIP3    H226869   2.015   0.604   2.707  0.1169 -0.3222 -2.2259
 8969TIP3   OH226870   3.221   5.417   1.974 -0.7741  0.0387  0.2952
 8969TIP3    H126871   3.286   5.374   2.029 -0.7086  0.8183  0.8449
 8969TIP3    H226872   3.271   5.481   1.923 -0.8581 -0.5615 -0.5668
 8970TIP3   OH226873   0.824   5.685   1.537 -0.2985 -0.3961 -0.1873
 8970TIP3    H126874   0.787   5.709   1.452 -3.6564 -1.4357  0.8135
 8970TIP3    H226875   0.801   5.592   1.548 -0.5670 -0.1267  2.0887
 8971TIP3   OH226876   1.508   1.419   2.872 -0.4005 -0.3595  0.0554
 8971TIP3    H126877   1.513   1.338   2.923  0.5551  1.0632  2.4040
 8971TIP3    H226878   1.414   1.430   2.854 -0.8662 -0.6595  2.0528
 8972TIP3   OH226879   1.684   3.241   2.546  0.5482  0.4747  0.5159
 8972TIP3    H126880   1.713   3.163   2.500 -1.4154  1.2573 -2.2921
 8972TIP3    H226881   1.729   3.313   2.502 -1.8036  1.2960 -0.7144
 8973TIP3   OH226882   6.385   1.023   2.021  0.0039 -0.0382  0.1980
 8973TIP3    H126883   6.388   1.001   1.928 -1.0001  1.5052 -0.2305
 8973TIP3    H226884   6.350   0.944   2.063  2.5838 -1.5962 -0.3828
 8974TIP3   OH226885   1.136   2.717   3.404  0.4159 -0.5962 -1.1377
 8974TIP3    H126886   1.182   2.785   3.354 -0.2001 -0.9331 -2.2190
 8974TIP3    H226887   1.172   2.722   3.492  1.8154 -0.2123 -1.7082
 8975TIP3   OH226888   0.665   3.460   3.404  0.4177 -0.1884 -0.9212
 8975TIP3    H126889   0.752   3.501   3.400  0.0191  0.7076 -0.7747
 8975TIP3    H226890   0.669   3.401   3.479  1.3134 -1.1716 -1.7173
 8976TIP3   OH226891   0.223   1.580   2.732  0.0982  1.0138  0.3850
 8976TIP3    H126892   0.315   1.585   2.758  0.8007  0.4247 -1.7533
 8976TIP3    H226893   0.213   1.491   2.698 -1.7784  0.4555  2.2215
 8977TIP3   OH226894   2.463   3.479   1.828 -0.3006  0.7568  0.1071
 8977TIP3    H126895   2.404   3.414   1.788  0.7393 -0.3812  0.3549
 8977TIP3    H226896   2.436   3.482   1.920  1.2693 -1.3222  0.7208
 8978TIP3   OH226897   1.006   5.423   1.384  0.5794  0.0721  0.0809
 8978TIP3    H126898   0.947   5.483   1.338  0.7593 -0.6777 -1.1509
 8978TIP3    H226899   1.094   5.456   1.363  0.6486  0.2780  0.6677
 8979TIP3   OH226900   2.381   0.930   4.161 -0.1000 -0.0302  0.0357
 8979TIP3    H126901   2.302   0.982   4.174  0.2641  0.5757 -0.1295
 8979TIP3    H226902   2.402   0.896   4.247  0.6122  1.4977  0.4937
 8980TIP3   OH226903   6.286   1.058   0.707 -0.1471  0.5833  0.3679
 8980TIP3    H126904   6.370   1.027   0.673 -0.0270  1.5134 -0.2362
 8980TIP3    H226905   6.234   0.979   0.721  0.2434  0.0903 -0.8375
 8981TIP3   OH226906   6.890   2.016   4.048 -0.2391 -0.2369 -0.2642
 8981TIP3    H126907   6.861   1.996   3.959  0.7266 -2.5329 -0.1443
 8981TIP3    H226908   6.985   2.020   4.041 -0.0074 -2.2848  0.9154
 8982TIP3   OH226909   3.700   1.359   4.174 -0.4622 -0.3038 -0.4368
 8982TIP3    H126910   3.787   1.320   4.165 -0.0639  0.4230  0.1142
 8982TIP3    H226911   3.658   1.310   4.244 -0.3321 -0.3867 -0.4172
 8983TIP3   OH226912   5.799   6.004   2.097 -0.3240 -0.1201  0.2158
 8983TIP3    H126913   5.840   5.920   2.079 -0.9271 -0.2951 -0.3959
 8983TIP3    H226914   5.744   5.988   2.173 -1.9181 -0.8186 -1.0086
 8984TIP3   OH226915   6.631   4.906   1.578 -0.2966 -0.4174  0.3907
 8984TIP3    H126916   6.710   4.950   1.546  0.3275  0.1464  2.4983
 8984TIP3    H226917   6.661   4.856   1.654 -1.6168 -1.8862  0.0049
 8985TIP3   OH226918   6.559   5.935   5.774  0.6153  0.2643 -0.3066
 8985TIP3    H126919   6.600   5.850   5.758 -0.6665  0.0532 -3.0649
 8985TIP3    H226920   6.521   5.928   5.862 -0.4267 -2.4691 -0.8775
 8986TIP3   OH226921   4.888   3.524   0.902  0.4160 -0.1253  0.2182
 8986TIP3    H126922   4.853   3.464   0.968  0.3539 -1.6196 -1.1157
 8986TIP3    H226923   4.983   3.517   0.912  0.4055  0.1676  0.5694
 8987TIP3   OH226924   3.707   5.128   5.506 -0.5414 -0.6004 -0.2257
 8987TIP3    H126925   3.659   5.072   5.568 -0.1119 -1.5877 -0.7625
 8987TIP3    H226926   3.745   5.067   5.443 -0.4661  0.3439 -1.1231
 8988TIP3   OH226927   5.358   4.199   3.838 -0.3076 -0.0205 -0.1281
 8988TIP3    H126928   5.320   4.128   3.787  0.6871  0.1111 -1.0791
 8988TIP3    H226929   5.453   4.185   3.832 -0.0377  1.9740 -1.2299
 8989TIP3   OH226930   1.395   1.301   4.129  0.0972  0.0493  0.5873
 8989TIP3    H126931   1.388   1.335   4.218 -1.3402  1.2603  0.0558
 8989TIP3    H226932   1.436   1.372   4.079 -1.5722  0.4887 -0.2312
 8990TIP3   OH226933   5.970   2.536   4.742 -0.3303 -0.2680  0.0572
 8990TIP3    H126934   6.055   2.578   4.733  0.2318 -1.5213 -0.7725
 8990TIP3    H226935   5.924   2.588   4.808  1.2963  0.0858  0.9583
 8991TIP3   OH226936   3.138   5.081   1.526 -0.2371 -0.3598  0.5440
 8991TIP3    H126937   3.211   5.144   1.524 -1.1939  0.7900 -1.6508
 8991TIP3    H226938   3.099   5.092   1.613  0.3393  1.2285  0.6297
 8992TIP3   OH226939   0.992   1.741   4.985 -0.2874 -0.1042  0.1353
 8992TIP3    H126940   1.068   1.743   5.043 -0.1956  1.1238  0.0133
 8992TIP3    H226941   0.923   1.698   5.036  0.0940  0.0321  0.7757
 8993TIP3   OH226942   1.420   3.658   2.826  0.0226  0.2723 -0.1828
 8993TIP3    H126943   1.480   3.728   2.854 -0.3374  0.2323  0.7238
 8993TIP3    H226944   1.336   3.702   2.816  0.1097  0.2543 -1.1027
 8994TIP3   OH226945   3.041   1.692   3.216  0.1315 -0.3806 -0.3791
 8994TIP3    H126946   3.061   1.776   3.256  1.5503  0.9429 -3.4791
 8994TIP3    H226947   3.110   1.633   3.247  0.4749  0.2539  0.0782
 8995TIP3   OH226948   2.636   0.779   5.286 -0.2265 -0.3617 -0.6263
 8995TIP3    H126949   2.545   0.751   5.296 -0.7531  1.0556 -1.3078
 8995TIP3    H226950   2.645   0.855   5.343 -0.0434  0.7222 -2.0507
 8996TIP3   OH226951   5.010   2.909   4.429  0.3039  0.4770 -0.3137
 8996TIP3    H126952   4.928   2.955   4.413  0.1553  0.1831 -0.3961
 8996TIP3    H226953   4.992   2.818   4.406  0.6438  0.4061 -0.3065
 8997TIP3   OH226954   1.786   2.038   4.401 -0.3930  0.1251  0.0014
 8997TIP3    H126955   1.709   2.077   4.360  0.2468  2.1000  0.5223
 8997TIP3    H226956   1.851   2.032   4.331  0.2545  2.2435  0.3341
 8998TIP3   OH226957   0.691   6.645   2.047 -0.3838 -0.0967 -0.1133
 8998TIP3    H126958   0.706   6.551   2.039  1.0947  0.0149  1.0279
 8998TIP3    H226959   0.774   6.681   2.076 -0.9175  1.5849 -0.5508
 8999TIP3   OH226960   0.289   1.755   0.408  0.1053 -0.9945  0.4301
 8999TIP3    H126961   0.366   1.749   0.352 -0.3935 -0.3977 -0.3474
 8999TIP3    H226962   0.216   1.770   0.347 -0.0216  3.4970  1.3224
 9000TIP3   OH226963   5.395   4.487   1.867  1.0063 -0.1408 -0.3582
 9000TIP3    H126964   5.479   4.527   1.886  0.8515  1.6662 -2.9439
 9000TIP3    H226965   5.331   4.556   1.887  0.3386 -0.6822 -0.5996
 9001TIP3   OH226966   1.468   5.770   1.676 -0.5214  0.4467  0.2041
 9001TIP3    H126967   1.421   5.853   1.671  1.0302  1.4824  1.4752
 9001TIP3    H226968   1.402   5.703   1.660 -1.6823  1.9363 -1.5403
 9002TIP3   OH226969   1.956   4.265   5.733 -0.3991  0.3530 -0.3185
 9002TIP3    H126970   1.939   4.193   5.673  0.7417  1.1899 -1.7047
 9002TIP3    H226971   2.042   4.247   5.770 -0.6897  0.3274  0.3615
 9003TIP3   OH226972   5.491   5.284   0.064 -0.0113 -0.5446  0.0752
 9003TIP3    H126973   5.436   5.207   0.075  0.6277 -1.2431 -1.4233
 9003TIP3    H226974   5.459   5.325  -0.016  0.6454 -0.0961  0.0363
 9004TIP3   OH226975   3.775   0.771   3.848  0.3162  0.1558 -0.3551
 9004TIP3    H126976   3.841   0.789   3.914 -2.6251  1.6040  2.5055
 9004TIP3    H226977   3.805   0.817   3.770  2.5513  0.8728  0.8363
 9005TIP3   OH226978   2.316   0.384   0.231 -0.4992  0.2460 -0.2063
 9005TIP3    H126979   2.268   0.309   0.195 -0.4122 -0.4546  1.1152
 9005TIP3    H226980   2.324   0.366   0.324  1.7081  0.6992 -0.2506
 9006TIP3   OH226981   1.603   6.426   1.375  0.0211  0.0474 -0.2333
 9006TIP3    H126982   1.549   6.487   1.324  2.4680  2.3926 -0.2585
 9006TIP3    H226983   1.669   6.395   1.312  1.4444  0.8825  0.7756
 9007TIP3   OH226984   1.483   3.233   3.092  0.5704  0.2448  0.1509
 9007TIP3    H126985   1.487   3.310   3.035  1.2203  1.2914  1.5531
 9007TIP3    H226986   1.550   3.174   3.058 -0.5202 -0.1235 -1.4749
 9008TIP3   OH226987   2.868   1.633   2.376 -0.2217  0.2597 -0.6031
 9008TIP3    H126988   2.854   1.717   2.420 -0.7878  0.0064 -0.2956
 9008TIP3    H226989   2.844   1.567   2.441  0.0423 -0.1396 -0.9067
 9009TIP3   OH226990   1.915   2.840   3.860  0.2014  0.7181 -0.0437
 9009TIP3    H126991   1.979   2.832   3.931 -2.3883 -2.1942  2.2879
 9009TIP3    H226992   1.939   2.770   3.799  0.0320  0.4786  0.1602
 9010TIP3   OH226993   3.643   3.842   4.262  1.2771 -0.0136  0.1397
 9010TIP3    H126994   3.657   3.933   4.290 -0.2288  0.3896 -0.3000
 9010TIP3    H226995   3.700   3.790   4.319  1.1456  1.0968  1.3348
 9011TIP3   OH226996   3.670   4.084   1.807  0.0865 -0.0757 -0.4447
 9011TIP3    H126997   3.581   4.110   1.783  1.1762  2.5153 -2.1495
 9011TIP3    H226998   3.673   4.092   1.902 -1.1803  0.9633 -0.4722
 9012TIP3   OH226999   6.396   3.156   1.141 -0.1503  0.4531 -0.3114
 9012TIP3    H127000   6.307   3.184   1.162 -0.7421 -1.5566  0.1050
 9012TIP3    H227001   6.417   3.202   1.060 -0.3195  3.3763  1.1786
 9013TIP3   OH227002   2.812   1.159   3.884 -0.2288  0.2698  0.1465
 9013TIP3    H127003   2.823   1.081   3.828  0.4767  2.5476 -3.2004
 9013TIP3    H227004   2.898   1.201   3.883 -0.8564  1.6372  0.9791
 9014TIP3   OH227005   2.912   0.376   0.053  0.2199 -0.2194 -0.5500
 9014TIP3    H127006   2.965   0.318  -0.000  3.5132  2.1707 -0.2075
 9014TIP3    H227007   2.865   0.431  -0.010  2.0219  0.8256 -1.0554
 9015TIP3   OH227008   3.304   2.887   5.486  0.6827 -0.0175  0.7487
 9015TIP3    H127009   3.341   2.825   5.423  0.3369  1.5416 -1.0963
 9015TIP3    H227010   3.354   2.968   5.472 -1.8303  1.4764 -0.2123
 9016TIP3   OH227011   2.970   2.212   4.945  0.0603  0.0813  0.1325
 9016TIP3    H127012   2.881   2.233   4.916 -0.0976 -0.3202  0.3138
 9016TIP3    H227013   2.968   2.222   5.040  0.2375  0.1752  0.1272
 9017TIP3   OH227014   5.112   3.201   5.387  0.5140  0.1656 -0.0111
 9017TIP3    H127015   5.102   3.185   5.293  1.2790 -1.7442  0.1872
 9017TIP3    H227016   5.024   3.225   5.416  0.2181  0.5571 -1.1682
 9018TIP3   OH227017   0.384   6.733   2.914  0.3728 -0.1232  0.3046
 9018TIP3    H127018   0.310   6.716   2.856  0.4859 -1.2020  0.4527
 9018TIP3    H227019   0.362   6.814   2.959 -0.6887 -0.3987  0.2984
 9019TIP3   OH227020   6.122   3.559   1.544  0.1242 -0.0960  0.2933
 9019TIP3    H127021   6.052   3.494   1.531 -0.4820  0.1999  1.8476
 9019TIP3    H227022   6.076   3.643   1.549  0.6541  0.1673  0.8122
 9020TIP3   OH227023   4.726   3.519   3.186 -0.1227 -0.2941 -0.1391
 9020TIP3    H127024   4.766   3.432   3.180  1.2434  0.4071 -2.3544
 9020TIP3    H227025   4.727   3.553   3.096 -0.9372  1.8883  0.5988
 9021TIP3   OH227026   0.879   1.491   2.828 -1.0106  0.0027 -0.0117
 9021TIP3    H127027   0.950   1.521   2.771 -0.8100  0.5362  0.5073
 9021TIP3    H227028   0.895   1.397   2.840 -0.7690 -0.0101 -0.4242
 9022TIP3   OH227029   0.275   4.256   1.000 -0.9998  0.0355 -0.3924
 9022TIP3    H127030   0.297   4.185   0.939  1.7948  0.3556  0.0937
 9022TIP3    H227031   0.216   4.312   0.950  1.7651  0.6999 -3.2813
 9023TIP3   OH227032   6.853   5.786   2.776  0.1017  0.3706  0.2761
 9023TIP3    H127033   6.914   5.837   2.723  0.2834 -0.4234 -0.3052
 9023TIP3    H227034   6.905   5.756   2.851  1.1682 -2.2790 -1.3826
 9024TIP3   OH227035   4.656   4.765   1.317 -0.2585  0.2365  0.1466
 9024TIP3    H127036   4.732   4.797   1.366  0.1032 -0.0666 -0.2109
 9024TIP3    H227037   4.609   4.844   1.291 -0.5257  0.4055  1.0717
 9025TIP3   OH227038   4.908   2.578   2.354  0.2439 -0.0015 -0.4657
 9025TIP3    H127039   4.898   2.673   2.365  0.2027 -0.0356 -0.2046
 9025TIP3    H227040   4.830   2.541   2.395 -0.1405 -0.1166 -1.2744
 9026TIP3   OH227041   1.020   2.016   4.758 -0.2295 -0.3396  0.4947
 9026TIP3    H127042   1.079   2.021   4.683  0.9802 -0.3363  1.4116
 9026TIP3    H227043   0.932   2.009   4.720  0.0615  2.4937 -0.9348
 9027TIP3   OH227044   0.765   2.615   5.507  0.3493  0.4077 -0.2227
 9027TIP3    H127045   0.789   2.546   5.569  0.0868  0.5119 -0.0052
 9027TIP3    H227046   0.849   2.658   5.487  0.4633  0.2490 -0.0923
 9028TIP3   OH227047   2.873   0.928   3.744 -0.0628  0.0942  0.0008
 9028TIP3    H127048   2.947   0.873   3.772 -0.7884 -1.2992 -0.7160
 9028TIP3    H227049   2.810   0.866   3.707 -0.8939  1.4378 -0.9041
 9029TIP3   OH227050   6.180   5.831   3.619 -0.1162  0.8330  0.1428
 9029TIP3    H127051   6.251   5.801   3.676 -0.7184  0.5429  0.7500
 9029TIP3    H227052   6.225   5.869   3.543  0.6846  0.3463  0.3587
 9030TIP3   OH227053   5.115   3.438   1.004  0.8160 -0.1625 -0.0535
 9030TIP3    H127054   5.075   3.385   1.073  0.3699 -0.4507 -0.5194
 9030TIP3    H227055   5.169   3.502   1.050 -1.5346  1.4061  0.6977
 9031TIP3   OH227056   5.751   5.611   2.506 -0.3085 -0.7438  0.4422
 9031TIP3    H127057   5.691   5.659   2.564 -1.3852 -1.0377 -0.3962
 9031TIP3    H227058   5.824   5.671   2.493 -0.3309 -0.4258  1.6013
 9032TIP3   OH227059   6.462   2.635   4.152 -0.3274 -0.4282 -0.4157
 9032TIP3    H127060   6.373   2.641   4.186 -0.2984  0.2133 -0.4482
 9032TIP3    H227061   6.516   2.676   4.219 -0.1739  0.0753 -0.8407
 9033TIP3   OH227062   5.612   5.362   5.631  0.2758  0.5175 -0.1551
 9033TIP3    H127063   5.602   5.297   5.701  1.3977  1.0149  0.4941
 9033TIP3    H227064   5.706   5.363   5.613 -0.1008 -0.7204 -2.7850
 9034TIP3   OH227065   3.111   1.517   2.733 -0.0951 -0.5228  0.2114
 9034TIP3    H127066   3.162   1.540   2.811  0.2533  1.2570 -0.4930
 9034TIP3    H227067   3.039   1.464   2.766 -0.3925  0.8284  1.8733
 9035TIP3   OH227068   1.338   4.011   3.948 -0.5267  0.2076  0.1896
 9035TIP3    H127069   1.353   4.098   3.912  0.1693 -0.1262 -0.3646
 9035TIP3    H227070   1.403   3.956   3.904 -1.3124 -0.6950  0.1358
 9036TIP3   OH227071   1.850   2.566   2.489  0.0131 -0.1012 -0.2260
 9036TIP3    H127072   1.792   2.493   2.467  0.8423 -0.5814 -0.8466
 9036TIP3    H227073   1.866   2.609   2.405  0.2509  0.2661  0.0066
 9037TIP3   OH227074   5.194   5.771   4.080  0.1354  0.2354 -0.2297
 9037TIP3    H127075   5.219   5.680   4.062 -0.7917 -0.0925  0.0808
 9037TIP3    H227076   5.272   5.810   4.119  0.0143 -0.8983  1.2261
 9038TIP3   OH227077   5.546   3.947   3.701 -0.0876  0.6606 -0.6387
 9038TIP3    H127078   5.592   4.030   3.717  0.4109 -0.0066  1.7576
 9038TIP3    H227079   5.602   3.900   3.640  0.7213  1.2337 -0.3581
 9039TIP3   OH227080   7.207   1.248   4.028  0.2732 -0.6602  0.5436
 9039TIP3    H127081   7.122   1.282   4.056 -0.4143 -2.5490  0.9200
 9039TIP3    H227082   7.247   1.214   4.108  1.1471 -0.2694  0.2756
 9040TIP3   OH227083   5.220   2.913   5.821  0.1942  0.5862 -0.3228
 9040TIP3    H127084   5.178   2.944   5.740 -0.0955  1.1405  0.0258
 9040TIP3    H227085   5.182   2.827   5.837  0.5155  0.3213 -0.9632
 9041TIP3   OH227086   6.015   4.965   5.782  0.1967 -0.3345 -0.1008
 9041TIP3    H127087   6.054   4.992   5.865  1.3935 -1.6295 -0.1989
 9041TIP3    H227088   6.084   4.983   5.717 -0.6574  0.4988 -0.8026
 9042TIP3   OH227089   3.126   6.278   3.795  0.6191  0.4278 -0.2530
 9042TIP3    H127090   3.114   6.285   3.890  0.3886  2.1781 -0.3783
 9042TIP3    H227091   3.198   6.216   3.785  1.5016  1.1736  1.1342
 9043TIP3   OH227092   6.034   4.880   3.841 -0.1424 -0.4821 -0.3934
 9043TIP3    H127093   5.975   4.806   3.854 -0.7063 -0.0173 -0.2911
 9043TIP3    H227094   6.067   4.900   3.928  0.8635 -1.3062 -0.5711
 9044TIP3   OH227095   1.841   1.894   0.288  0.1870  0.0512  0.1515
 9044TIP3    H127096   1.845   1.800   0.272  0.3701  0.0761  0.0502
 9044TIP3    H227097   1.924   1.928   0.254 -0.4354  0.4279 -1.0436
 9045TIP3   OH227098   4.308   0.445   2.454  0.2071 -0.3845 -0.0027
 9045TIP3    H127099   4.273   0.436   2.366  0.2314 -1.7814  0.0934
 9045TIP3    H227100   4.255   0.385   2.507  0.9624 -0.4674  0.6838
 9046TIP3   OH227101   1.678   5.721   2.893  0.1482 -0.7021  0.4020
 9046TIP3    H127102   1.743   5.653   2.874  0.2481 -1.1180  2.0515
 9046TIP3    H227103   1.596   5.686   2.860  0.2809 -1.4399  0.8341
 9047TIP3   OH227104   6.935   4.649   4.134  0.0797  0.8822 -0.2715
 9047TIP3    H127105   6.900   4.616   4.052  0.4123 -0.9203  0.2821
 9047TIP3    H227106   6.864   4.701   4.171 -1.9360 -2.2499  0.5855
 9048TIP3   OH227107   6.103   1.022   3.385 -0.0446 -0.2935 -0.2472
 9048TIP3    H127108   6.120   0.947   3.442  0.1194 -0.2708 -0.2672
 9048TIP3    H227109   6.158   1.008   3.309 -0.4540 -0.4516 -0.5157
 9049TIP3   OH227110   6.604   0.180   5.636  0.2835 -0.0400  0.1288
 9049TIP3    H127111   6.618   0.273   5.654  1.7850 -0.3108  0.5115
 9049TIP3    H227112   6.585   0.177   5.543 -2.4306  0.8807  0.5661
 9050TIP3   OH227113   1.422   1.055   5.497 -0.7327  0.5925 -0.3699
 9050TIP3    H127114   1.354   1.108   5.455  0.3221  2.0257 -0.3391
 9050TIP3    H227115   1.485   1.037   5.427  0.2726  1.7053  0.2151
 9051TIP3   OH227116   2.969   0.886   4.125  0.2785 -0.1104 -0.4358
 9051TIP3    H127117   3.000   0.977   4.119  0.3295 -0.1093 -0.1413
 9051TIP3    H227118   2.875   0.894   4.141  0.7182 -0.0500  2.7408
 9052TIP3   OH227119   2.768   4.707   3.850  0.1408  0.3817 -0.1598
 9052TIP3    H127120   2.695   4.769   3.856 -0.4297 -0.2339 -0.5660
 9052TIP3    H227121   2.844   4.756   3.881 -0.3982  1.1175  0.0219
 9053TIP3   OH227122   4.901   5.766   1.251 -0.1076 -0.2414  0.5084
 9053TIP3    H127123   4.839   5.738   1.184  1.0002 -0.3827 -0.4820
 9053TIP3    H227124   4.865   5.731   1.333 -2.6273  1.7321  0.3619
 9054TIP3   OH227125   5.741   5.923   3.283  0.1515 -0.1184 -0.1568
 9054TIP3    H127126   5.719   6.014   3.303 -0.8443 -0.2001 -0.8277
 9054TIP3    H227127   5.835   5.924   3.267  0.5923  0.3841  2.0660
 9055TIP3   OH227128   6.935   4.486   2.836  0.4632  0.2828  0.4016
 9055TIP3    H127129   6.957   4.556   2.775  0.5405  0.8866  1.1135
 9055TIP3    H227130   6.843   4.466   2.816  0.4314  0.6031  0.2213
 9056TIP3   OH227131   5.619   6.510   2.735 -0.2762  0.3471  0.5138
 9056TIP3    H127132   5.671   6.432   2.714  1.6828  1.7107 -0.0400
 9056TIP3    H227133   5.564   6.524   2.657 -2.5192 -1.8189  1.5975
 9057TIP3   OH227134   2.132   4.915   3.392 -0.0392 -0.4003  0.5463
 9057TIP3    H127135   2.203   4.969   3.357  0.3956 -0.5836  1.1184
 9057TIP3    H227136   2.054   4.970   3.387 -0.6749 -1.3780 -3.4127
 9058TIP3   OH227137   5.008   5.338   4.939 -0.3804 -0.2032 -0.0334
 9058TIP3    H127138   5.058   5.266   4.902 -0.8670  0.4608 -2.1598
 9058TIP3    H227139   4.928   5.341   4.886 -1.1606  0.8179  1.1356
 9059TIP3   OH227140   1.102   5.829   2.116 -0.1591 -0.2294 -0.0513
 9059TIP3    H127141   1.038   5.844   2.046  0.3566  0.3285 -0.4233
 9059TIP3    H227142   1.169   5.774   2.075 -0.5292 -1.0468  0.4194
 9060TIP3   OH227143   6.750   3.854   4.072 -0.6980 -0.4400  0.4492
 9060TIP3    H127144   6.661   3.887   4.081 -0.2345  0.7721  0.9365
 9060TIP3    H227145   6.797   3.894   4.146  0.3523 -0.6596 -0.0833
 9061TIP3   OH227146   5.536   1.653   0.460  0.2378 -0.0027  0.2106
 9061TIP3    H127147   5.606   1.655   0.525 -0.3942 -0.2404  0.9113
 9061TIP3    H227148   5.556   1.726   0.401  0.7320  0.3180  0.7620
 9062TIP3   OH227149   5.249   5.658   2.864  0.5318  0.2634 -0.1626
 9062TIP3    H127150   5.340   5.631   2.853  0.4208  0.2540 -1.0977
 9062TIP3    H227151   5.224   5.624   2.950  1.5619  0.7087  0.3252
 9063TIP3   OH227152   3.124   5.396   5.032  0.0840  0.0155  0.4661
 9063TIP3    H127153   3.133   5.436   4.946  1.1322  0.5648  0.8251
 9063TIP3    H227154   3.193   5.329   5.035 -0.2542 -0.3315  0.7085
 9064TIP3   OH227155   1.119   6.479   2.925  0.0566  0.5533 -0.3967
 9064TIP3    H127156   1.144   6.408   2.866  0.7817 -0.0569  0.6069
 9064TIP3    H227157   1.050   6.526   2.879  0.6937  0.1730 -1.7693
 9065TIP3   OH227158   3.095   3.303   0.033 -0.4656  0.5923 -0.9117
 9065TIP3    H127159   3.009   3.318   0.073  0.0021 -1.9652  1.3271
 9065TIP3    H227160   3.105   3.208   0.030  2.9946  0.7407  0.6990
 9066TIP3   OH227161   5.747   3.651   0.164 -0.1928  0.1144 -0.4583
 9066TIP3    H127162   5.663   3.656   0.119 -0.2571 -3.2259 -0.9658
 9066TIP3    H227163   5.729   3.603   0.245  1.2252 -1.1850 -0.8429
 9067TIP3   OH227164   0.448   0.494   1.412  0.5641 -0.3874  0.0365
 9067TIP3    H127165   0.365   0.476   1.366  0.3496  0.8542 -0.1127
 9067TIP3    H227166   0.506   0.526   1.343  1.5340 -2.2106 -0.0462
 9068TIP3   OH227167   4.499   3.583   3.731 -0.7148 -0.1610  0.0734
 9068TIP3    H127168   4.512   3.675   3.709 -0.8139 -0.3282 -0.7297
 9068TIP3    H227169   4.577   3.540   3.696 -0.4112 -0.3145  0.9222
 9069TIP3   OH227170   6.544   4.559   1.477 -0.1093  0.0360 -0.0980
 9069TIP3    H127171   6.479   4.575   1.545  1.3425  2.4121  0.8709
 9069TIP3    H227172   6.546   4.640   1.426  0.2690 -0.9565 -1.7305
 9070TIP3   OH227173   1.242   4.832   4.673 -0.6439 -0.0851  0.2388
 9070TIP3    H127174   1.317   4.783   4.707 -0.1482  1.3085  1.2325
 9070TIP3    H227175   1.266   4.852   4.583 -1.3112 -2.4987 -0.5587
 9071TIP3   OH227176   2.741   5.922   5.429  0.1519 -0.4932 -0.1321
 9071TIP3    H127177   2.712   5.837   5.394  1.6571 -0.7808 -0.7455
 9071TIP3    H227178   2.829   5.934   5.394  1.0760  0.0290  2.1595
 9072TIP3   OH227179   4.775   3.650   2.939  0.3592 -0.6028  0.7897
 9072TIP3    H127180   4.848   3.712   2.931 -0.7258  0.4914 -2.0691
 9072TIP3    H227181   4.760   3.619   2.849 -2.9064 -0.4765  1.1625
 9073TIP3   OH227182   5.927   3.317   1.528 -0.3194  0.4944 -0.3047
 9073TIP3    H127183   5.907   3.301   1.436  0.2180  0.3429 -0.4026
 9073TIP3    H227184   5.938   3.230   1.566  0.1113  0.5629 -0.2570
 9074TIP3   OH227185   6.333   6.102   5.744 -1.0481 -0.1942 -0.0894
 9074TIP3    H127186   6.408   6.042   5.743 -0.8434  0.0562  0.1477
 9074TIP3    H227187   6.275   6.069   5.676 -1.0247 -0.7839  0.1704
 9075TIP3   OH227188   6.693   4.130   1.523 -0.1727 -0.4077  0.1206
 9075TIP3    H127189   6.766   4.173   1.477 -0.6261  3.1763  2.3500
 9075TIP3    H227190   6.734   4.063   1.577  1.4583  1.0637  0.7965
 9076TIP3   OH227191   7.180   4.699   0.034  0.3113 -0.5041  0.1139
 9076TIP3    H127192   7.217   4.729  -0.049  2.2789  1.3440  1.5325
 9076TIP3    H227193   7.170   4.605   0.023  1.1025 -0.4011 -1.9877
 9077TIP3   OH227194   3.547   1.627   1.003  0.1991 -0.5001  0.1035
 9077TIP3    H127195   3.596   1.662   0.929  0.4035 -0.5448  0.2163
 9077TIP3    H227196   3.459   1.611   0.968 -0.1704  0.9898  0.2830
 9078TIP3   OH227197   5.450   5.558   2.442 -0.4031 -0.0161  0.2707
 9078TIP3    H127198   5.399   5.512   2.375  1.0665 -1.2030 -0.0832
 9078TIP3    H227199   5.536   5.571   2.402  0.1967  0.1495  1.5660
 9079TIP3   OH227200   0.586   6.768   2.264 -0.0509  0.0026 -0.1734
 9079TIP3    H127201   0.620   6.854   2.241  0.6325  0.1360  1.2234
 9079TIP3    H227202   0.616   6.711   2.194 -0.0296  0.7926 -0.8188
 9080TIP3   OH227203   6.779   6.691   2.359  0.2120  0.0736  0.0225
 9080TIP3    H127204   6.746   6.778   2.382 -0.1288 -0.0041 -0.1777
 9080TIP3    H227205   6.765   6.683   2.265 -1.8764 -1.0857  0.3699
 9081TIP3   OH227206   6.992   6.204   3.885  0.8624  0.0977  0.0732
 9081TIP3    H127207   6.984   6.128   3.943 -0.0506 -0.0801 -0.2617
 9081TIP3    H227208   6.929   6.267   3.921  0.3394  0.0094 -0.6750
 9082TIP3   OH227209   3.548   5.024   3.485 -0.2675  0.3760 -0.1662
 9082TIP3    H127210   3.549   5.074   3.567 -0.7878  0.7818 -0.3994
 9082TIP3    H227211   3.565   4.934   3.511 -2.7250  0.1054  0.6720
 9083TIP3   OH227212   2.502   0.044   5.617  0.3159 -0.1047  0.7915
 9083TIP3    H127213   2.510  -0.046   5.649 -0.1703 -0.1963  0.6645
 9083TIP3    H227214   2.578   0.090   5.654 -0.2840 -0.1719  2.1722
 9084TIP3   OH227215   4.456   0.947   1.949 -0.1055 -0.3796 -0.6305
 9084TIP3    H127216   4.468   0.857   1.978  0.7969 -0.4183 -1.0881
 9084TIP3    H227217   4.379   0.978   1.997  0.4246 -0.9333  0.6188
 9085TIP3   OH227218   0.167   2.324   1.003 -0.4054  0.2347  0.5193
 9085TIP3    H127219   0.194   2.357   0.918 -0.7071  1.8604  1.0202
 9085TIP3    H227220   0.107   2.390   1.037 -2.7952 -1.8472  0.6738
 9086TIP3   OH227221   0.562   3.491   2.845  0.3958  0.0306  0.0145
 9086TIP3    H127222   0.536   3.411   2.892  2.8739 -0.3153  0.9451
 9086TIP3    H227223   0.552   3.468   2.752  2.3658 -1.9619  0.1876
 9087TIP3   OH227224   1.509   4.003   3.507 -0.2432  0.1042 -0.2588
 9087TIP3    H127225   1.460   4.009   3.589  0.2157 -0.4353  0.0637
 9087TIP3    H227226   1.557   4.086   3.501  0.5523 -0.2736  0.5706
 9088TIP3   OH227227   1.290   0.674   3.779 -0.3709 -0.4700  0.5922
 9088TIP3    H127228   1.233   0.644   3.849 -0.2350 -0.4029  0.7313
 9088TIP3    H227229   1.292   0.769   3.789 -1.4380 -0.3280 -0.3302
 9089TIP3   OH227230   1.232   2.831   0.907 -0.1793  0.3673  0.6440
 9089TIP3    H127231   1.187   2.748   0.919 -0.9910  0.8455  0.9616
 9089TIP3    H227232   1.299   2.832   0.976  1.2571 -0.9283 -0.6394
 9090TIP3   OH227233   5.402   3.191   1.108 -0.3888  0.1492  0.4298
 9090TIP3    H127234   5.410   3.274   1.062  0.7153 -0.1348  0.0978
 9090TIP3    H227235   5.482   3.143   1.088 -1.4717 -1.4650 -0.2952
 9091TIP3   OH227236   5.977   1.577   4.121  0.6131  0.1402 -0.1754
 9091TIP3    H127237   5.984   1.531   4.204 -1.4664  0.7022  0.3652
 9091TIP3    H227238   5.923   1.520   4.066 -1.9564  1.8022  0.4915
 9092TIP3   OH227239   4.121   1.461   0.205  0.1873 -0.1582 -0.3034
 9092TIP3    H127240   4.127   1.542   0.255 -1.8530  1.1537 -1.9672
 9092TIP3    H227241   4.089   1.396   0.267 -1.1039  1.1104  0.4299
 9093TIP3   OH227242   6.224   1.786   0.754  0.2910  0.2637 -0.5307
 9093TIP3    H127243   6.154   1.743   0.704 -1.0115  1.8144 -0.1424
 9093TIP3    H227244   6.262   1.716   0.807 -3.7079 -0.1178  2.3401
 9094TIP3   OH227245   5.595   4.050   0.655  0.0332  0.2980  0.2707
 9094TIP3    H127246   5.518   4.096   0.621  0.7044 -0.6423 -2.8648
 9094TIP3    H227247   5.562   3.965   0.683 -0.0657 -0.3691 -1.7089
 9095TIP3   OH227248   5.371   0.486   3.367  0.0054 -0.1311  0.0388
 9095TIP3    H127249   5.360   0.451   3.455 -1.0496 -0.0591 -0.0577
 9095TIP3    H227250   5.337   0.575   3.372 -0.8769 -0.4154 -0.6469
 9096TIP3   OH227251   3.897   5.586   0.131  0.4236  0.4035  0.6467
 9096TIP3    H127252   3.946   5.664   0.159  1.4799 -1.1461  3.5117
 9096TIP3    H227253   3.835   5.570   0.201  0.1743 -1.2998  0.0821
 9097TIP3   OH227254   6.703   2.419   1.166  0.1784  0.4717  0.8620
 9097TIP3    H127255   6.755   2.353   1.119  1.4662  1.2045  1.2138
 9097TIP3    H227256   6.675   2.480   1.098 -0.7704 -0.2566  0.5791
 9098TIP3   OH227257   3.742   5.887   5.416  0.5096 -0.8338 -0.6182
 9098TIP3    H127258   3.653   5.884   5.450  0.4246  1.0204 -0.5657
 9098TIP3    H227259   3.792   5.934   5.483  0.7127  1.3654 -2.1765
 9099TIP3   OH227260   1.654   3.731   2.498  0.2053  0.3559 -0.6314
 9099TIP3    H127261   1.678   3.755   2.408  3.6466 -2.4042 -0.6671
 9099TIP3    H227262   1.737   3.733   2.546 -0.8129 -2.1525  1.4509
 9100TIP3   OH227263   5.414   1.966   3.194  0.3040  0.0250  0.2719
 9100TIP3    H127264   5.488   1.983   3.135  0.5809 -0.8196  0.3697
 9100TIP3    H227265   5.431   1.879   3.230 -0.5102  0.0110  0.6419
 9101TIP3   OH227266   5.232   3.421   3.319 -0.2647  1.0758  0.6541
 9101TIP3    H127267   5.150   3.423   3.368 -0.2290 -0.0298  0.7637
 9101TIP3    H227268   5.207   3.442   3.229 -0.5619  1.4093  0.8117
 9102TIP3   OH227269   1.266   6.733   2.982 -0.6652 -0.2247  0.1713
 9102TIP3    H127270   1.229   6.818   2.955  1.0665  0.1077 -1.3183
 9102TIP3    H227271   1.189   6.678   2.996 -1.8162  1.3302  0.3781
 9103TIP3   OH227272   1.625   5.104   1.556  0.1894 -0.0224 -0.0500
 9103TIP3    H127273   1.635   5.176   1.618  1.5728 -1.2251  1.1960
 9103TIP3    H227274   1.704   5.106   1.503  0.3538 -0.7669  0.1595
 9104TIP3   OH227275   6.673   2.431   4.185 -0.2254 -0.5527  0.0150
 9104TIP3    H127276   6.611   2.484   4.136  1.1675  0.0628 -1.1629
 9104TIP3    H227277   6.651   2.446   4.277 -0.5538  1.2321 -0.3261
 9105TIP3   OH227278   5.734   5.219   2.102  0.6767  0.4014 -0.4871
 9105TIP3    H127279   5.736   5.252   2.192 -0.4244  2.1237 -1.0572
 9105TIP3    H227280   5.678   5.280   2.055  1.6131 -0.1997 -2.4769
 9106TIP3   OH227281   3.486   6.311   1.078 -0.2288  0.2623  0.3646
 9106TIP3    H127282   3.419   6.379   1.068 -0.2229  0.1718 -0.2910
 9106TIP3    H227283   3.568   6.356   1.060 -0.3080 -0.1469 -1.1559
 9107TIP3   OH227284   0.262   6.138   2.055 -0.4191  0.1557  0.2819
 9107TIP3    H127285   0.200   6.205   2.083 -0.5497  0.9176 -1.6629
 9107TIP3    H227286   0.333   6.143   2.119 -0.9890  1.3347  0.8526
 9108TIP3   OH227287   2.544   4.748   3.449  0.0955  0.0124 -0.1764
 9108TIP3    H127288   2.530   4.680   3.384  0.4873  0.9778 -1.3180
 9108TIP3    H227289   2.637   4.741   3.471 -0.0816 -0.4390  0.4236
 9109TIP3   OH227290   0.586   6.464   4.130 -0.0559 -0.3560  0.1359
 9109TIP3    H127291   0.653   6.517   4.087 -0.7392 -0.4247 -1.0662
 9109TIP3    H227292   0.634   6.413   4.195  0.7995  0.7723  0.4156
 9110TIP3   OH227293   6.389   1.975   0.331  0.4106  0.1049 -0.4522
 9110TIP3    H127294   6.334   2.054   0.334 -0.4644 -0.4701 -0.7652
 9110TIP3    H227295   6.402   1.959   0.238 -1.2220 -1.3028 -0.4833
 9111TIP3   OH227296   0.310   5.078   2.397  0.3424 -0.1897 -0.2356
 9111TIP3    H127297   0.388   5.123   2.364  0.8353  0.4272  1.6324
 9111TIP3    H227298   0.237   5.120   2.351  1.0196 -0.0134 -1.1984
 9112TIP3   OH227299   0.904   3.415   5.485  0.0497  0.2021 -0.2923
 9112TIP3    H127300   0.822   3.365   5.482  0.4311 -0.4052 -0.6825
 9112TIP3    H227301   0.923   3.424   5.579  0.7902 -1.7358 -0.2316
 9113TIP3   OH227302   5.592   0.274   0.678  0.3092  0.2393  0.0186
 9113TIP3    H127303   5.623   0.305   0.593 -2.2799  0.3950 -0.9575
 9113TIP3    H227304   5.584   0.354   0.731 -0.0740  0.4316 -0.3188
 9114TIP3   OH227305   4.001   1.068   5.332 -0.7136 -0.0743 -0.0478
 9114TIP3    H127306   4.038   0.980   5.331 -1.2466 -0.3443  1.5747
 9114TIP3    H227307   3.984   1.088   5.240  1.7542 -0.6442 -0.6921
 9115TIP3   OH227308   4.085   2.420   2.521  0.2133  0.1491  0.0075
 9115TIP3    H127309   4.064   2.496   2.467 -0.7668 -0.3219 -0.2969
 9115TIP3    H227310   4.021   2.423   2.593  1.5369  0.8031  1.2111
 9116TIP3   OH227311   5.396   3.845   2.691  0.6462  0.3819  0.0018
 9116TIP3    H127312   5.325   3.796   2.732  0.4767  0.4480 -0.2105
 9116TIP3    H227313   5.434   3.896   2.762 -1.5835  2.8594 -0.4097
 9117TIP3   OH227314   3.361   1.742   0.686 -0.0057  0.1032  0.3737
 9117TIP3    H127315   3.285   1.698   0.725 -0.0394  0.3237  0.5649
 9117TIP3    H227316   3.433   1.681   0.696 -0.0818  0.0357  0.5132
 9118TIP3   OH227317   2.584   2.634   3.981  0.2133  0.8100  0.3898
 9118TIP3    H127318   2.534   2.607   4.058 -0.0709 -0.0950 -0.0977
 9118TIP3    H227319   2.528   2.699   3.938 -0.0926  0.5621  0.4054
 9119TIP3   OH227320   6.655   6.230   5.498  0.4137 -0.3391 -0.4971
 9119TIP3    H127321   6.676   6.160   5.436  1.4928 -0.7601  0.3115
 9119TIP3    H227322   6.731   6.288   5.496 -0.6340  1.0659 -1.4572
 9120TIP3   OH227323   4.017   1.810   3.214  0.2574  0.4630 -0.2991
 9120TIP3    H127324   3.951   1.870   3.249 -0.7676 -0.1636 -1.1209
 9120TIP3    H227325   4.010   1.819   3.119  2.0478  1.1005 -0.4150
 9121TIP3   OH227326   1.953   3.752   0.248  0.3747 -0.1244  0.5633
 9121TIP3    H127327   1.979   3.781   0.160  2.3272 -1.1248  0.7673
 9121TIP3    H227328   2.027   3.777   0.304 -0.8145  0.4480  1.9451
 9122TIP3   OH227329   5.260   6.090   3.407  0.6011  0.2645  0.0947
 9122TIP3    H127330   5.336   6.123   3.456  0.4973 -1.1133  1.2638
 9122TIP3    H227331   5.191   6.153   3.427  0.0936 -1.0961  3.2149
 9123TIP3   OH227332   0.178   3.043   5.051  0.3979  0.2748 -0.3654
 9123TIP3    H127333   0.133   3.057   4.967 -0.5900  1.3662  0.3095
 9123TIP3    H227334   0.140   2.963   5.086  2.9614 -1.9534 -2.2705
 9124TIP3   OH227335   2.171   2.632   2.843  0.1630  0.4200 -0.8750
 9124TIP3    H127336   2.153   2.712   2.893 -0.5000 -0.1296 -0.2028
 9124TIP3    H227337   2.264   2.637   2.822  0.8503 -0.0040  1.6903
 9125TIP3   OH227338   2.206   0.140   2.254  0.0291  0.7480 -0.3976
 9125TIP3    H127339   2.151   0.065   2.234 -1.0958  1.7659 -1.3201
 9125TIP3    H227340   2.262   0.150   2.177 -0.0170  1.0213 -0.3963
 9126TIP3   OH227341   4.337   5.860   0.175 -0.2180 -0.1946  0.3785
 9126TIP3    H127342   4.393   5.813   0.238  0.3448  1.3414  1.0876
 9126TIP3    H227343   4.390   5.865   0.096  0.7991  1.3959  1.0988
 9127TIP3   OH227344   1.622   3.854   2.172  0.0266  0.5201  0.3656
 9127TIP3    H127345   1.570   3.923   2.212 -0.6546 -0.6892  1.6388
 9127TIP3    H227346   1.558   3.792   2.139  0.5907  1.0455 -1.9017
 9128TIP3   OH227347   0.895   1.378   5.568 -0.4221  0.2655 -0.5293
 9128TIP3    H127348   0.847   1.445   5.616  0.5378  0.5717  0.0347
 9128TIP3    H227349   0.840   1.358   5.492 -1.3741  0.6768  0.0340
 9129TIP3   OH227350   1.281   2.819   2.414  0.7547  0.1312 -0.2461
 9129TIP3    H127351   1.244   2.907   2.425  2.2322  0.5772  1.6794
 9129TIP3    H227352   1.346   2.812   2.483  0.8932 -2.3919 -0.5523
 9130TIP3   OH227353   1.714   1.693   4.627  0.2437  0.0700 -0.1533
 9130TIP3    H127354   1.644   1.696   4.561 -1.2702 -1.8121  1.2389
 9130TIP3    H227355   1.691   1.762   4.689  0.5609  0.5309 -0.5403
 9131TIP3   OH227356   0.529   6.672   1.416 -0.3794 -0.4833  0.1156
 9131TIP3    H127357   0.534   6.642   1.326 -1.4087  0.5821 -0.3154
 9131TIP3    H227358   0.615   6.712   1.433  0.4198 -2.1358  0.1778
 9132TIP3   OH227359   6.811   4.576   1.911  0.1826 -0.1733 -0.1242
 9132TIP3    H127360   6.889   4.620   1.878  0.8760 -1.0193  0.3592
 9132TIP3    H227361   6.819   4.486   1.881  0.3493 -0.7377  1.4988
 9133TIP3   OH227362   2.242   2.133   3.156 -0.0622 -0.5422  0.2550
 9133TIP3    H127363   2.331   2.159   3.179  0.3472 -0.2622 -1.5088
 9133TIP3    H227364   2.253   2.056   3.100 -0.9859 -1.0432  0.7359
 9134TIP3   OH227365   1.590   1.038   0.225 -0.0896  0.0305  0.1982
 9134TIP3    H127366   1.645   0.964   0.201 -1.6260 -1.1807  0.2134
 9134TIP3    H227367   1.603   1.102   0.156 -0.1304 -1.0394 -0.8266
 9135TIP3   OH227368   7.048   4.240   5.747  0.3316 -0.1118  0.1747
 9135TIP3    H127369   7.004   4.317   5.785  2.1219  0.7517  0.6450
 9135TIP3    H227370   7.078   4.190   5.823  0.6047 -0.4068 -0.1239
 9136TIP3   OH227371   6.931   2.614   1.085  0.3480 -0.5404 -0.3707
 9136TIP3    H127372   6.842   2.584   1.102 -0.3181  1.5083  0.0429
 9136TIP3    H227373   6.924   2.667   1.006  1.1046 -0.0070 -0.0902
 9137TIP3   OH227374   2.745   2.101   4.212 -0.0137  0.2038 -0.4426
 9137TIP3    H127375   2.804   2.095   4.287  0.4455  0.8382 -0.7459
 9137TIP3    H227376   2.702   2.186   4.223  1.3384  1.1061 -1.8172
 9138TIP3   OH227377   4.873   6.040   1.335  0.2736 -0.5889  0.2316
 9138TIP3    H127378   4.960   6.064   1.368  0.0528 -0.8771  1.0648
 9138TIP3    H227379   4.890   5.966   1.277  0.6294 -0.4007  0.0934
 9139TIP3   OH227380   0.652   3.814   3.086  0.0886  0.3309  0.0273
 9139TIP3    H127381   0.631   3.724   3.114 -1.6845  0.8535  0.4886
 9139TIP3    H227382   0.735   3.833   3.129 -0.0049 -0.7411  0.7327
 9140TIP3   OH227383   5.282   5.532   3.734 -0.0395  0.7815 -0.2564
 9140TIP3    H127384   5.279   5.562   3.825  0.9179 -1.5255  0.6026
 9140TIP3    H227385   5.312   5.608   3.685 -0.8704  2.1779  1.2983
 9141TIP3   OH227386   1.251   2.004   5.809 -0.0916 -0.8587 -0.5403
 9141TIP3    H127387   1.315   2.071   5.784  0.8298 -1.4098  0.2431
 9141TIP3    H227388   1.304   1.924   5.819 -0.7355 -1.1149  1.0718
 9142TIP3   OH227389   3.044   1.326   3.884 -0.3859 -0.2398 -0.1330
 9142TIP3    H127390   3.134   1.319   3.852 -1.2108 -0.6918 -2.6491
 9142TIP3    H227391   3.039   1.413   3.923  0.7081  0.5282 -1.5989
 9143TIP3   OH227392   0.179   4.062   3.631  0.5101 -0.1912 -0.0059
 9143TIP3    H127393   0.167   3.967   3.624 -0.3729  0.0086 -1.7734
 9143TIP3    H227394   0.258   4.080   3.579  0.4293  0.0828 -0.0347
 9144TIP3   OH227395   2.600   0.090   0.126  0.2554 -0.1774  0.4863
 9144TIP3    H127396   2.617   0.106   0.219  0.6380 -0.3842  0.4544
 9144TIP3    H227397   2.634   0.168   0.081  0.3416 -0.2111  0.4937
 9145TIP3   OH227398   6.386   4.938   1.057 -0.1041  0.9830  0.0511
 9145TIP3    H127399   6.309   4.960   1.109 -0.4852 -2.1772  1.0288
 9145TIP3    H227400   6.351   4.900   0.976  0.3626 -0.4507  0.4856
 9146TIP3   OH227401   6.426   4.902   0.498 -0.1403 -0.4953 -0.4048
 9146TIP3    H127402   6.482   4.951   0.557  0.1205 -0.6964 -0.4803
 9146TIP3    H227403   6.470   4.817   0.489 -0.9744 -1.0187  0.3287
 9147TIP3   OH227404   0.727   6.503   2.379  0.0060  0.1839 -0.2696
 9147TIP3    H127405   0.679   6.478   2.457 -0.1135  0.7820 -0.1447
 9147TIP3    H227406   0.659   6.531   2.317  0.2027  4.7461  1.1821
 9148TIP3   OH227407   0.076   0.466   5.707 -0.2728  0.2602 -0.4081
 9148TIP3    H127408   0.007   0.521   5.744 -1.6689 -1.5603 -0.1938
 9148TIP3    H227409   0.071   0.482   5.613  0.1363  1.3365 -0.2712
 9149TIP3   OH227410   4.929   5.448   1.079  0.3703 -0.1779 -0.6038
 9149TIP3    H127411   4.932   5.390   1.155 -0.1415  0.8461  0.2201
 9149TIP3    H227412   4.896   5.393   1.008 -0.0887 -0.8940  0.1496
 9150TIP3   OH227413   5.236   3.832   1.488 -0.6703 -0.0130  0.5581
 9150TIP3    H127414   5.198   3.746   1.469 -1.3204  0.2862  0.4899
 9150TIP3    H227415   5.209   3.851   1.578  0.8455 -0.5975  1.1730
 9151TIP3   OH227416   4.918   4.747   1.877 -0.4629  0.2323 -0.3544
 9151TIP3    H127417   4.890   4.791   1.796 -1.9320 -0.5360 -0.2924
 9151TIP3    H227418   4.931   4.819   1.939 -2.3334  0.6690 -0.4029
 9152TIP3   OH227419   5.518   5.417   3.608 -0.3338 -0.3408 -0.2664
 9152TIP3    H127420   5.425   5.400   3.616 -0.6426  1.1761 -0.3163
 9152TIP3    H227421   5.525   5.489   3.546  0.7769  0.3688  0.6309
 9153TIP3   OH227422   3.735   3.841   0.244 -0.3851  0.3273 -0.1704
 9153TIP3    H127423   3.667   3.810   0.304  1.4553  0.4198  2.1266
 9153TIP3    H227424   3.816   3.803   0.279  0.9351  1.4251 -1.8892
 9154TIP3   OH227425   5.157   2.544   3.553  0.6054  0.1868 -0.5588
 9154TIP3    H127426   5.107   2.470   3.588  0.8586  0.6720  0.8958
 9154TIP3    H227427   5.242   2.538   3.597  1.1434  0.5156 -1.5279
 9155TIP3   OH227428   1.068   0.888   3.218 -0.0993  0.0065 -0.4016
 9155TIP3    H127429   1.078   0.795   3.238 -0.9344  0.2602  1.3020
 9155TIP3    H227430   1.127   0.933   3.278  0.7258  0.5981 -1.5901
 9156TIP3   OH227431   2.963   5.264   4.637 -0.2443  0.5359  0.4143
 9156TIP3    H127432   3.014   5.300   4.709  0.8895  0.3375 -0.2568
 9156TIP3    H227433   2.943   5.339   4.581 -1.8363  0.8283  1.3171
 9157TIP3   OH227434   5.791   0.475   0.966  0.3016 -0.1712 -0.3786
 9157TIP3    H127435   5.851   0.446   1.035 -0.1770  0.1561  0.1883
 9157TIP3    H227436   5.723   0.524   1.013 -0.0325  0.0553 -1.0866
 9158TIP3   OH227437   3.846   3.794   3.422  0.1695  0.0645  0.1546
 9158TIP3    H127438   3.879   3.735   3.490 -0.4187 -0.4549 -0.0016
 9158TIP3    H227439   3.770   3.749   3.386 -0.4104  1.0133  0.1663
 9159TIP3   OH227440   6.259   4.366   4.985 -0.5491 -0.0477  0.3706
 9159TIP3    H127441   6.257   4.342   5.077  2.4969 -1.2465  0.2275
 9159TIP3    H227442   6.243   4.283   4.938  0.2139  0.0957 -0.1593
 9160TIP3   OH227443   0.163   3.641   2.944  0.0145  0.0772 -0.4148
 9160TIP3    H127444   0.236   3.612   2.999  0.2506 -0.2630 -0.8992
 9160TIP3    H227445   0.170   3.737   2.944  0.1243  0.0686 -0.0017
 9161TIP3   OH227446   2.568   1.833   3.089  0.4341  0.3913 -0.0272
 9161TIP3    H127447   2.628   1.895   3.130  1.7386 -1.0128  0.2780
 9161TIP3    H227448   2.552   1.868   3.002  1.2977  1.0383  0.0633
 9162TIP3   OH227449   1.630   4.573   3.828  0.2521 -0.0391  0.3497
 9162TIP3    H127450   1.714   4.537   3.798 -0.4770 -1.4647 -0.0357
 9162TIP3    H227451   1.590   4.608   3.749 -1.5093 -3.4780 -0.4910
 9163TIP3   OH227452   7.042   1.393   2.957  0.0923 -1.5031 -0.2970
 9163TIP3    H127453   7.026   1.414   2.865 -1.3691 -3.2473 -0.4876
 9163TIP3    H227454   6.985   1.452   3.006  0.0118 -1.3664 -0.5577
 9164TIP3   OH227455   3.902   0.026   0.271 -0.0657  0.1831  0.4467
 9164TIP3    H127456   3.838   0.080   0.319  0.0335  2.0117 -1.3471
 9164TIP3    H227457   3.985   0.072   0.282  0.3297 -0.4336  0.1076
 9165TIP3   OH227458   2.403   5.936   2.168  0.1190  0.3032  0.2631
 9165TIP3    H127459   2.429   6.015   2.121  2.5387 -0.3877  0.2959
 9165TIP3    H227460   2.336   5.896   2.113 -0.2864  1.7563 -0.3398
 9166TIP3   OH227461   5.729   5.708   5.753 -0.0050 -0.1224 -0.2600
 9166TIP3    H127462   5.668   5.715   5.680 -2.1702  2.6394  1.6095
 9166TIP3    H227463   5.724   5.616   5.780 -1.8104 -0.4191 -1.4246
 9167TIP3   OH227464   0.779   2.918   1.453 -0.4742 -0.1313  0.4788
 9167TIP3    H127465   0.847   2.867   1.497 -0.0796 -0.2280 -0.2208
 9167TIP3    H227466   0.751   2.862   1.381 -0.5999  0.3137  0.1787
 9168TIP3   OH227467   6.774   0.022   2.541 -0.0172 -0.4905 -0.3372
 9168TIP3    H127468   6.790   0.101   2.489  1.7276 -0.0388  0.8234
 9168TIP3    H227469   6.680   0.006   2.531 -0.6539  2.3693  0.3110
 9169TIP3   OH227470   3.579   4.303   5.006  0.2323 -0.4873 -0.9049
 9169TIP3    H127471   3.554   4.257   4.926  0.1465 -0.7509 -0.7308
 9169TIP3    H227472   3.519   4.378   5.010 -1.6001 -1.9146  0.2728
 9170TIP3   OH227473   6.377   1.609   1.588 -0.5736  0.3053 -0.0087
 9170TIP3    H127474   6.357   1.618   1.495  0.2202  0.0175 -0.2128
 9170TIP3    H227475   6.296   1.634   1.633 -0.3874  2.3834 -0.7126
 9171TIP3   OH227476   0.771   5.382   3.180 -0.1066  0.0296 -0.2765
 9171TIP3    H127477   0.710   5.333   3.125 -0.6269 -1.7887  1.7927
 9171TIP3    H227478   0.715   5.440   3.232  0.2353  0.5903 -0.5227
 9172TIP3   OH227479   5.907   1.076   2.460 -0.2983  0.3326  0.3293
 9172TIP3    H127480   5.812   1.073   2.473 -0.5096  0.2494 -1.0823
 9172TIP3    H227481   5.939   0.994   2.499 -0.5171  1.2501  2.6164
 9173TIP3   OH227482   0.947   2.248   2.822 -0.7130 -0.0386 -0.0415
 9173TIP3    H127483   0.854   2.228   2.808 -0.5313  0.4366 -2.4887
 9173TIP3    H227484   0.962   2.328   2.771  1.0564 -0.1667  0.2088
 9174TIP3   OH227485   3.496   1.823   2.068 -0.1598  0.0346 -0.3189
 9174TIP3    H127486   3.589   1.831   2.089 -0.3195  1.2182 -0.0083
 9174TIP3    H227487   3.495   1.789   1.979  0.5424 -1.7032  0.2932
 9175TIP3   OH227488   6.483   5.661   5.246  0.3912  0.5339  0.0327
 9175TIP3    H127489   6.426   5.671   5.169  3.0401  1.7799 -1.9294
 9175TIP3    H227490   6.426   5.624   5.313 -2.3573  0.4140 -2.1719
 9176TIP3   OH227491   5.944   3.154   2.612  0.6188  0.4736  0.7078
 9176TIP3    H127492   5.868   3.108   2.647  0.0834  0.1294 -0.8222
 9176TIP3    H227493   6.019   3.116   2.657  0.3300 -2.8376 -1.2791
 9177TIP3   OH227494   5.524   6.232   5.517  0.4242  0.1736  0.0478
 9177TIP3    H127495   5.572   6.163   5.563 -0.0171 -0.1781 -0.0148
 9177TIP3    H227496   5.564   6.314   5.549 -0.3065 -0.0236  1.5784
 9178TIP3   OH227497   5.255   5.326   3.097  0.1069  0.8580  0.1798
 9178TIP3    H127498   5.200   5.248   3.088  1.9604 -0.7351  1.7395
 9178TIP3    H227499   5.268   5.356   3.007 -0.8000 -0.5149 -0.4586
 9179TIP3   OH227500   4.897   0.687   0.097 -0.8426 -0.2510  0.1728
 9179TIP3    H127501   4.914   0.768   0.050  0.9446 -0.1118  0.9926
 9179TIP3    H227502   4.931   0.618   0.041  0.6659 -0.1382  0.9033
 9180TIP3   OH227503   5.006   1.585   4.226 -0.0701 -0.8283  0.5970
 9180TIP3    H127504   4.936   1.614   4.284 -0.9813  0.8038 -1.2060
 9180TIP3    H227505   5.032   1.664   4.178  1.1822 -1.9509 -0.6626
 9181TIP3   OH227506   4.806   2.160   5.727  0.1437  0.2712  0.1588
 9181TIP3    H127507   4.825   2.071   5.695  0.0036  1.0842 -2.3671
 9181TIP3    H227508   4.715   2.155   5.755 -0.5940  0.0905 -2.0561
 9182TIP3   OH227509   2.201   4.404   1.985 -0.1808 -0.5158 -0.6088
 9182TIP3    H127510   2.279   4.348   1.985 -0.0451 -0.3698  0.6354
 9182TIP3    H227511   2.152   4.376   2.062  0.0185  1.2147  0.2127
 9183TIP3   OH227512   1.770   0.501   4.852  0.0477  0.0145 -0.0209
 9183TIP3    H127513   1.706   0.527   4.786  1.0287  0.5096 -0.7950
 9183TIP3    H227514   1.850   0.484   4.803  0.6289 -0.2021  0.9768
 9184TIP3   OH227515   2.239   2.547   1.076 -0.4410 -0.0350 -0.1819
 9184TIP3    H127516   2.256   2.526   1.168 -2.0097 -1.3087 -0.1377
 9184TIP3    H227517   2.154   2.590   1.076  0.1403  1.1772 -0.9373
 9185TIP3   OH227518   6.398   6.511   2.501 -0.2220 -0.3490  0.2490
 9185TIP3    H127519   6.430   6.601   2.493  0.9122 -0.7740 -0.2937
 9185TIP3    H227520   6.314   6.519   2.546  0.5936  0.8437  1.6523
 9186TIP3   OH227521   5.846   3.977   3.746 -0.1731 -0.2836 -0.4640
 9186TIP3    H127522   5.840   3.978   3.842 -0.4366 -0.0118 -0.4802
 9186TIP3    H227523   5.909   3.908   3.727  1.1730  0.7727 -0.0191
 9187TIP3   OH227524   2.889   5.676   4.142  0.0149 -0.5145  0.2731
 9187TIP3    H127525   2.964   5.688   4.200 -0.5569  1.2717  0.7156
 9187TIP3    H227526   2.850   5.593   4.170  0.9923 -0.7477  0.9873
 9188TIP3   OH227527   0.153   1.355   1.234 -0.8045  0.5635  0.0241
 9188TIP3    H127528   0.140   1.417   1.306  0.3574 -0.3563  1.0853
 9188TIP3    H227529   0.083   1.291   1.244 -1.0316  0.7975 -0.0634
 9189TIP3   OH227530   0.683   0.861   2.025 -0.4126 -0.0072  0.4139
 9189TIP3    H127531   0.655   0.946   1.993  0.5276  0.1858  0.0601
 9189TIP3    H227532   0.608   0.803   2.011 -0.8978  0.6629  0.2456
 9190TIP3   OH227533   6.685   6.327   1.607 -0.2218 -0.3573  0.2528
 9190TIP3    H127534   6.726   6.408   1.638 -0.2297 -0.1854 -0.1807
 9190TIP3    H227535   6.641   6.352   1.526 -2.0103 -0.3078  1.1841
 9191TIP3   OH227536   1.715   0.353   1.864  0.0640  0.0630  0.2424
 9191TIP3    H127537   1.787   0.381   1.922  1.2394 -1.3584 -0.4767
 9191TIP3    H227538   1.647   0.322   1.924  0.7767 -0.2534  0.9066
 9192TIP3   OH227539   5.809   4.052   1.471  0.1827 -0.1670 -0.7909
 9192TIP3    H127540   5.822   4.060   1.376 -0.1257  1.0432 -0.7551
 9192TIP3    H227541   5.737   3.990   1.480 -0.0254 -0.0209 -1.3690
 9193TIP3   OH227542   4.998   4.306   1.379 -0.5157  0.3005 -0.1887
 9193TIP3    H127543   5.053   4.383   1.387 -1.7545  1.1980 -0.0135
 9193TIP3    H227544   4.939   4.325   1.305 -0.1426 -0.9279 -0.8287
 9194TIP3   OH227545   4.843   4.464   3.483 -0.4125  0.1061 -0.0908
 9194TIP3    H127546   4.797   4.380   3.481 -1.4333  0.6554 -0.1430
 9194TIP3    H227547   4.931   4.441   3.513 -0.1086 -1.2303 -1.8054
 9195TIP3   OH227548   3.336   3.346   5.284  0.2749  0.1231 -1.0687
 9195TIP3    H127549   3.384   3.377   5.361  1.1179 -2.0670 -0.6577
 9195TIP3    H227550   3.246   3.373   5.300  0.1727 -1.3042  1.3244
 9196TIP3   OH227551   2.001   5.988   5.688  0.1135 -0.4757  0.2461
 9196TIP3    H127552   1.958   5.905   5.667 -1.3095  0.4244 -0.4790
 9196TIP3    H227553   1.941   6.055   5.657  2.0352  0.8429 -0.8156
 9197TIP3   OH227554   0.301   4.769   2.504  0.4058  0.2182 -0.3100
 9197TIP3    H127555   0.377   4.818   2.534  0.2702  1.4477 -1.8496
 9197TIP3    H227556   0.238   4.773   2.576  0.2896  2.5879 -0.4831
 9198TIP3   OH227557   1.306   4.373   2.637 -0.1227 -0.4165  0.3194
 9198TIP3    H127558   1.290   4.394   2.545 -1.0484 -0.7341  0.4013
 9198TIP3    H227559   1.401   4.376   2.645  0.0217 -1.1176 -0.8254
 9199TIP3   OH227560   2.171   1.984   5.643 -0.0308 -0.0191  0.4186
 9199TIP3    H127561   2.266   1.982   5.626  0.2326  2.0743  1.3053
 9199TIP3    H227562   2.163   1.954   5.733 -0.1949 -0.1291  0.3657
 9200TIP3   OH227563   1.138   6.731   4.846  0.0198  0.3229 -0.5329
 9200TIP3    H127564   1.053   6.751   4.808 -0.9007 -1.8843  0.2526
 9200TIP3    H227565   1.140   6.780   4.928 -1.1678 -0.7967  0.1924
 9201TIP3   OH227566   4.974   4.625   1.026 -0.3092 -0.0987 -0.3069
 9201TIP3    H127567   5.002   4.553   0.971  1.9774  0.9391 -0.6094
 9201TIP3    H227568   5.006   4.602   1.114 -0.1379  0.2472 -0.2770
 9202TIP3   OH227569   1.220   4.496   4.201 -0.4021  0.3401 -0.2105
 9202TIP3    H127570   1.274   4.562   4.244  0.0138  1.0177 -1.7194
 9202TIP3    H227571   1.278   4.421   4.189 -1.3405 -1.1178  3.1326
 9203TIP3   OH227572   2.455   3.636   3.010  0.5179  0.0469  0.7495
 9203TIP3    H127573   2.389   3.575   2.977  0.6933  0.7497 -1.0414
 9203TIP3    H227574   2.405   3.699   3.063  0.2611 -1.2709  2.1226
 9204TIP3   OH227575   3.385   4.645   2.359  0.3889 -0.6352 -0.4249
 9204TIP3    H127576   3.417   4.561   2.326  0.0966 -1.7604  1.9722
 9204TIP3    H227577   3.291   4.632   2.369 -0.0657  0.8199 -2.2279
 9205TIP3   OH227578   0.739   5.730   2.311  0.4572  0.0888 -0.6509
 9205TIP3    H127579   0.740   5.676   2.232  0.8966 -1.2853  0.2509
 9205TIP3    H227580   0.678   5.685   2.369  1.9638 -0.3100  0.6954
 9206TIP3   OH227581   6.341   4.415   3.094  0.4244 -0.3474  0.3806
 9206TIP3    H127582   6.401   4.356   3.048  0.1650 -1.5582  1.5136
 9206TIP3    H227583   6.391   4.447   3.169  0.7080  1.2630 -0.4656
 9207TIP3   OH227584   1.194   1.162   5.322 -0.2173 -0.3696  0.4297
 9207TIP3    H127585   1.106   1.129   5.343 -0.0832 -2.0574 -1.3307
 9207TIP3    H227586   1.181   1.254   5.301 -1.5412 -0.5296  0.4610
 9208TIP3   OH227587   5.716   1.008   1.324  0.4000 -0.1817  0.1747
 9208TIP3    H127588   5.664   1.077   1.284  0.8399 -0.7939 -1.5439
 9208TIP3    H227589   5.749   1.046   1.405 -1.9406  0.5205  0.8559
 9209TIP3   OH227590   5.999   5.320   0.232  0.1021  0.1285  0.4021
 9209TIP3    H127591   6.085   5.360   0.223  0.7294 -0.4322  3.0961
 9209TIP3    H227592   5.940   5.378   0.183  1.8449  0.9864 -0.7754
 9210TIP3   OH227593   1.909   5.726   5.664 -0.1447 -0.2895  0.4151
 9210TIP3    H127594   1.846   5.771   5.607 -0.6111 -0.8815  0.4502
 9210TIP3    H227595   1.878   5.636   5.667  0.0409 -0.3288  1.3789
 9211TIP3   OH227596   0.488   6.729   4.162  0.0104 -0.3858  0.3056
 9211TIP3    H127597   0.523   6.794   4.101 -1.3495 -2.1784 -2.5696
 9211TIP3    H227598   0.545   6.653   4.151 -1.0683 -1.1994  0.2534
 9212TIP3   OH227599   3.593   4.707   3.223 -0.3073 -0.0121 -0.5415
 9212TIP3    H127600   3.523   4.701   3.288 -0.8843 -0.1227 -1.1624
 9212TIP3    H227601   3.626   4.796   3.231 -0.9591  0.2527 -0.6778
 9213TIP3   OH227602   6.981   4.111   2.376  0.2587  0.0542  0.1373
 9213TIP3    H127603   6.969   4.114   2.471 -0.5239 -0.6791  0.0718
 9213TIP3    H227604   6.901   4.148   2.340  0.9364  1.1913 -0.2407
 9214TIP3   OH227605   2.826   2.505   2.246 -0.2879  0.0546  0.4874
 9214TIP3    H127606   2.872   2.549   2.175 -2.7764  0.6939 -0.8465
 9214TIP3    H227607   2.886   2.511   2.321  2.5653 -0.8841 -1.5336
 9215TIP3   OH227608   1.621   3.620   3.986  0.2477 -0.4785  0.2712
 9215TIP3    H127609   1.711   3.619   3.955  0.2591 -1.6846  0.2800
 9215TIP3    H227610   1.611   3.704   4.030  1.6011 -0.6253  0.9107
 9216TIP3   OH227611   1.691   5.550   5.842  0.3466 -0.0830 -0.1224
 9216TIP3    H127612   1.675   5.477   5.902 -0.1582 -0.1592 -0.3450
 9216TIP3    H227613   1.728   5.509   5.763  0.7728 -0.0106  0.0353
 9217TIP3   OH227614   5.102   2.226   3.052 -0.4063  0.3624  0.4974
 9217TIP3    H127615   5.022   2.199   3.097 -0.4219 -2.1262 -0.8114
 9217TIP3    H227616   5.173   2.191   3.106 -0.3802 -1.0521 -0.3901
 9218TIP3   OH227617   6.423   4.662   3.941 -0.3431 -0.0013 -0.3108
 9218TIP3    H127618   6.394   4.731   3.882 -1.9430 -1.0793 -0.8538
 9218TIP3    H227619   6.348   4.644   3.997  0.5763 -0.2188  0.9079
 9219TIP3   OH227620   1.068   5.666   4.697 -0.3069  0.0698  0.4987
 9219TIP3    H127621   1.143   5.716   4.730  0.4789 -1.5874  1.3633
 9219TIP3    H227622   1.061   5.691   4.605  0.3567  1.3709  0.7712
 9220TIP3   OH227623   3.574   2.946   2.491  0.3291  0.4707 -0.3221
 9220TIP3    H127624   3.621   3.007   2.432  0.3485  0.4013 -0.3784
 9220TIP3    H227625   3.634   2.872   2.501  0.8394  0.9992  0.7313
 9221TIP3   OH227626   1.133   6.190   3.115 -0.0893 -0.4508  0.5070
 9221TIP3    H127627   1.225   6.165   3.126 -0.4274 -0.8223  3.6629
 9221TIP3    H227628   1.106   6.148   3.033  2.1940 -1.4701  0.1889
 9222TIP3   OH227629   5.180   5.568   4.543 -0.6589  0.4244 -0.1726
 9222TIP3    H127630   5.250   5.564   4.478  0.6905 -0.4639  1.2418
 9222TIP3    H227631   5.206   5.639   4.602 -0.5503 -0.3504  0.7460
 9223TIP3   OH227632   3.310   1.465   0.229 -0.2577  0.1326  0.2547
 9223TIP3    H127633   3.216   1.449   0.229 -0.2422  0.0078  1.0981
 9223TIP3    H227634   3.346   1.397   0.286  0.7436 -1.9511 -2.6191
 9224TIP3   OH227635   4.025   0.361   2.542  0.4482 -1.1097  0.3280
 9224TIP3    H127636   4.031   0.300   2.615  0.2396  1.4442  2.6415
 9224TIP3    H227637   3.960   0.322   2.484  0.1223 -2.9315  1.8265
 9225TIP3   OH227638   5.991   3.837   1.114 -0.5006 -0.0096 -0.4472
 9225TIP3    H127639   6.080   3.810   1.090  0.2212  1.4831  0.3815
 9225TIP3    H227640   5.946   3.755   1.135  1.4093 -0.6643  1.4440
 9226TIP3   OH227641   6.115   6.467   3.343 -0.0758  0.0289 -0.2661
 9226TIP3    H127642   6.036   6.511   3.311 -0.9568 -1.0298  0.3915
 9226TIP3    H227643   6.123   6.388   3.289  0.3950 -0.0047 -0.1533
 9227TIP3   OH227644   0.629   4.749   2.114 -0.1649 -0.1419  0.2331
 9227TIP3    H127645   0.654   4.830   2.070  0.4512  0.2298  1.2438
 9227TIP3    H227646   0.537   4.762   2.137  0.2182  0.7492  1.3660
 9228TIP3   OH227647   5.967   2.446   4.061  0.1314 -0.2583 -0.4712
 9228TIP3    H127648   6.026   2.433   4.135 -0.3641  1.0923  0.1917
 9228TIP3    H227649   5.975   2.539   4.039 -0.8124 -0.3215 -1.1787
 9229TIP3   OH227650   5.370   3.741   4.631  0.0304 -0.1735 -0.1642
 9229TIP3    H127651   5.352   3.688   4.553 -0.4030 -0.0413 -0.1560
 9229TIP3    H227652   5.285   3.749   4.674  0.8090 -3.4120  2.3750
 9230TIP3   OH227653   1.247   2.473   1.245 -0.2386 -0.5317  0.9885
 9230TIP3    H127654   1.223   2.460   1.337 -0.7858 -2.3869  0.6241
 9230TIP3    H227655   1.173   2.436   1.195  1.0559 -1.6912 -0.1698
 9231TIP3   OH227656   6.199   2.584   4.276  0.1695  0.0554 -0.1104
 9231TIP3    H127657   6.247   2.589   4.359  1.0277  0.4773 -0.6197
 9231TIP3    H227658   6.226   2.501   4.238 -0.8857 -0.5475  0.4116
 9232TIP3   OH227659   0.471   2.905   0.294  0.2218 -0.8529  0.4018
 9232TIP3    H127660   0.502   2.872   0.211  0.1036 -3.0777  1.1754
 9232TIP3    H227661   0.451   2.997   0.278  0.5219 -1.1468 -1.9129
 9233TIP3   OH227662   2.315   4.768   1.329 -0.2317  0.5549  0.4323
 9233TIP3    H127663   2.300   4.837   1.394 -3.2589  1.3562 -0.9360
 9233TIP3    H227664   2.332   4.690   1.381 -0.2899  1.6147  2.1220
 9234TIP3   OH227665   2.364   2.121   4.029  0.4610 -0.2046 -0.2437
 9234TIP3    H127666   2.273   2.135   4.057  0.7042 -1.2635  1.2299
 9234TIP3    H227667   2.357   2.062   3.954 -0.0731 -0.7905  0.2467
 9235TIP3   OH227668   6.465   0.228   3.872  0.4081 -0.3479  0.0694
 9235TIP3    H127669   6.536   0.197   3.816  1.3884  2.4491 -0.4234
 9235TIP3    H227670   6.387   0.182   3.840  1.6301 -2.0121 -0.7040
 9236TIP3   OH227671   0.479   1.802   4.347 -0.1530 -0.3962  0.2664
 9236TIP3    H127672   0.492   1.840   4.434 -0.4975  0.0058  0.1446
 9236TIP3    H227673   0.484   1.708   4.361  1.0015 -0.3094  0.5264
 9237TIP3   OH227674   6.493   2.800   4.670 -0.0708  0.4310 -0.6263
 9237TIP3    H127675   6.417   2.826   4.722  0.2066 -0.4141  0.2341
 9237TIP3    H227676   6.568   2.817   4.727  0.2591 -0.2594 -0.8365
 9238TIP3   OH227677   4.535   0.629   4.701 -0.1927  0.1461  0.0607
 9238TIP3    H127678   4.531   0.724   4.708 -0.1772  0.2521 -1.1704
 9238TIP3    H227679   4.482   0.597   4.774 -1.4877  1.1322 -0.4166
 9239TIP3   OH227680   2.946   3.450   4.585  0.4247 -0.0814 -0.0592
 9239TIP3    H127681   3.022   3.505   4.605 -0.3565  0.6911  0.9031
 9239TIP3    H227682   2.871   3.509   4.591 -0.2100 -0.6300 -1.8276
 9240TIP3   OH227683   1.479   6.557   1.061 -0.0368  0.5192 -0.3313
 9240TIP3    H127684   1.508   6.638   1.019  0.8082  0.3267 -0.1391
 9240TIP3    H227685   1.560   6.512   1.086 -0.4242 -1.0776 -1.7137
 9241TIP3   OH227686   4.258   2.574   4.017  0.4289  0.1987 -0.5925
 9241TIP3    H127687   4.229   2.506   3.956 -0.8440 -2.0631  2.3292
 9241TIP3    H227688   4.201   2.648   3.999 -1.8095 -1.3728 -0.3895
 9242TIP3   OH227689   2.509   1.086   3.959 -0.0338  0.2220  0.2024
 9242TIP3    H127690   2.474   1.003   3.991 -1.2997  0.0690 -1.4251
 9242TIP3    H227691   2.521   1.072   3.865 -0.4109  1.9292 -0.1297
 9243TIP3   OH227692   0.280   2.425   0.734  0.2249 -0.2396  0.1236
 9243TIP3    H127693   0.220   2.353   0.713  0.1294 -0.1102 -0.0517
 9243TIP3    H227694   0.307   2.458   0.649  0.0614  0.1044  0.2038
 9244TIP3   OH227695   0.895   6.103   3.270  0.0451 -0.0348 -0.9906
 9244TIP3    H127696   0.855   6.161   3.336 -0.7550 -0.3141 -1.2187
 9244TIP3    H227697   0.964   6.156   3.230 -0.2668  0.5514 -0.7677
 9245TIP3   OH227698   1.608   4.545   0.271 -0.0272 -0.6559 -0.0061
 9245TIP3    H127699   1.619   4.450   0.277 -2.6627 -0.9408  1.7283
 9245TIP3    H227700   1.513   4.558   0.267  0.2815  1.9186 -0.6096
 9246TIP3   OH227701   3.812   0.478   3.771 -0.1008 -0.2466 -0.1628
 9246TIP3    H127702   3.862   0.442   3.698 -0.8789 -0.5250 -0.5717
 9246TIP3    H227703   3.817   0.573   3.760  0.3853 -0.2697 -0.1583
 9247TIP3   OH227704   0.124   5.776   5.877  0.0759  0.8216 -0.5176
 9247TIP3    H127705   0.079   5.713   5.822 -0.6205  1.6985 -0.9656
 9247TIP3    H227706   0.055   5.819   5.927  0.4991  1.4768 -0.4757
 9248TIP3   OH227707   5.055   1.311   2.477 -0.7342 -0.7575  0.4480
 9248TIP3    H127708   5.086   1.321   2.567  1.7404  1.5064 -0.5062
 9248TIP3    H227709   5.127   1.345   2.424 -2.7380 -0.5463 -2.3046
 9249TIP3   OH227710   6.313   5.189   0.269 -0.3889 -0.2824 -0.3355
 9249TIP3    H127711   6.375   5.179   0.342  1.5535  2.3261 -1.4605
 9249TIP3    H227712   6.250   5.119   0.282  1.4153 -1.6108  2.3014
 9250TIP3   OH227713   3.175   3.206   3.053 -0.0463 -0.6741  0.0394
 9250TIP3    H127714   3.180   3.116   3.021  0.0847 -0.4933 -0.4464
 9250TIP3    H227715   3.260   3.245   3.030  0.2370 -0.6717  1.0089
 9251TIP3   OH227716   5.423   2.273   3.619  0.0986  0.0010 -0.2816
 9251TIP3    H127717   5.444   2.329   3.694 -1.3076  1.5554 -0.9626
 9251TIP3    H227718   5.491   2.294   3.554  1.0617 -1.0229  0.3683
 9252TIP3   OH227719   7.131   2.896   1.029 -0.1912  0.0243 -0.4317
 9252TIP3    H127720   7.089   2.847   1.100  0.8086  0.0057  0.1713
 9252TIP3    H227721   7.199   2.947   1.073  1.4244 -1.0819 -1.5446
 9253TIP3   OH227722   4.576   1.787   4.232  0.0226 -0.3336 -0.2806
 9253TIP3    H127723   4.670   1.799   4.222  0.0174 -1.8378 -3.0255
 9253TIP3    H227724   4.539   1.819   4.150 -1.5249 -2.5824 -0.5529
 9254TIP3   OH227725   6.286   3.268   2.127 -0.1698 -0.1057  0.0104
 9254TIP3    H127726   6.236   3.231   2.199 -2.2893 -0.5452 -1.5866
 9254TIP3    H227727   6.279   3.204   2.057 -0.4670  1.4661 -1.4633
 9255TIP3   OH227728   5.924   2.158   0.520 -0.1089 -0.6569 -0.0802
 9255TIP3    H127729   6.008   2.129   0.554  0.7646  0.1769 -1.3945
 9255TIP3    H227730   5.940   2.172   0.426 -1.2153  1.2015 -0.0428
 9256TIP3   OH227731   0.585   2.854   5.481 -0.0839 -0.6706 -0.1597
 9256TIP3    H127732   0.545   2.895   5.558  0.1634  0.4537 -0.6071
 9256TIP3    H227733   0.646   2.790   5.516 -0.4620 -0.6390  0.5659
 9257TIP3   OH227734   4.198   4.191   4.079 -0.1660  0.4820 -0.1428
 9257TIP3    H127735   4.222   4.111   4.033  0.6741  1.5202 -1.6010
 9257TIP3    H227736   4.103   4.197   4.070 -0.0545  0.5337 -1.6055
 9258TIP3   OH227737   5.076   1.136   0.354 -0.3426  0.4313  0.2601
 9258TIP3    H127738   5.037   1.187   0.425 -2.4808 -1.6876  0.7286
 9258TIP3    H227739   5.152   1.094   0.393 -1.2742 -0.4001  1.2398
 9259TIP3   OH227740   5.350   6.390   1.944  0.3799 -0.6554 -0.6643
 9259TIP3    H127741   5.281   6.403   2.010  0.5340 -1.5412 -0.3198
 9259TIP3    H227742   5.429   6.424   1.986 -0.0583  1.7819 -1.6196
 9260TIP3   OH227743   4.449   4.556   3.592  0.4931 -0.3859 -0.4612
 9260TIP3    H127744   4.423   4.484   3.649  1.5586  0.6731  1.4760
 9260TIP3    H227745   4.484   4.513   3.513 -0.4576 -1.9158 -0.0868
 9261TIP3   OH227746   1.005   3.070   1.183  0.2061  0.3414  0.2292
 9261TIP3    H127747   1.064   3.128   1.135 -0.1959 -0.8914 -1.8819
 9261TIP3    H227748   0.917   3.101   1.160 -0.0088  0.3988  1.0781
 9262TIP3   OH227749   1.355   2.564   3.880  0.9441  0.1760  0.3936
 9262TIP3    H127750   1.353   2.526   3.968 -0.4764  2.5624  1.4913
 9262TIP3    H227751   1.430   2.624   3.882  1.4716 -0.4361 -0.3704
 9263TIP3   OH227752   3.404   4.123   2.590  0.1764 -0.1640  0.3425
 9263TIP3    H127753   3.406   4.028   2.581  0.7921 -0.1440  0.2478
 9263TIP3    H227754   3.350   4.153   2.517  0.2622 -0.4136  0.1755
 9264TIP3   OH227755   6.285   0.947   4.647  0.1755  0.1702 -0.8791
 9264TIP3    H127756   6.336   1.022   4.677  0.7672 -0.0388 -1.3344
 9264TIP3    H227757   6.211   0.943   4.707  0.5930  0.6014 -0.3212
 9265TIP3   OH227758   5.396   4.212   1.535  0.4367 -0.4435  0.4598
 9265TIP3    H127759   5.426   4.135   1.584  1.5212 -0.4633 -0.1972
 9265TIP3    H227760   5.315   4.238   1.578  1.2749 -0.5448  2.1712
 9266TIP3   OH227761   5.597   1.684   3.604  0.7152 -0.1282  0.3607
 9266TIP3    H127762   5.575   1.761   3.553  3.7035 -0.8641 -2.3331
 9266TIP3    H227763   5.533   1.618   3.577  0.1700  0.4600  0.1986
 9267TIP3   OH227764   1.360   4.750   5.656  0.3393 -0.1894 -0.2202
 9267TIP3    H127765   1.349   4.721   5.746 -2.0016 -0.0685 -0.4003
 9267TIP3    H227766   1.380   4.844   5.663  0.1980 -0.1876  0.1552
 9268TIP3   OH227767   1.352   3.652   3.796  0.5820 -0.0997 -0.3005
 9268TIP3    H127768   1.435   3.631   3.838 -0.9423 -2.7160  1.7021
 9268TIP3    H227769   1.361   3.619   3.707  1.4310 -1.1079  0.1391
 9269TIP3   OH227770   1.471   5.291   5.683 -0.2613  0.6862  0.3445
 9269TIP3    H127771   1.487   5.336   5.599 -0.6397  0.1032 -0.0506
 9269TIP3    H227772   1.399   5.340   5.722 -0.7049  0.4083 -0.1085
 9270TIP3   OH227773   2.002   1.991   1.216 -0.4312  0.3756 -0.2755
 9270TIP3    H127774   2.093   1.967   1.203 -0.4524  0.9057 -1.4997
 9270TIP3    H227775   1.968   1.923   1.275  0.6732  0.0356 -0.0028
 9271TIP3   OH227776   5.364   2.380   2.452 -0.3346  0.1566 -0.2484
 9271TIP3    H127777   5.362   2.461   2.503  0.4716  0.5065 -0.7645
 9271TIP3    H227778   5.307   2.398   2.377 -1.0989 -0.1763  0.2368
 9272TIP3   OH227779   5.624   3.578   2.700  0.1858 -0.6463  0.0417
 9272TIP3    H127780   5.717   3.555   2.708  0.0378 -0.7854  1.5274
 9272TIP3    H227781   5.604   3.625   2.781 -0.6779  0.7216 -0.9169
 9273TIP3   OH227782   1.106   1.177   1.238 -0.0220  0.5348 -0.0819
 9273TIP3    H127783   1.151   1.159   1.156  1.3769 -1.8293  1.0747
 9273TIP3    H227784   1.138   1.263   1.265  0.3820  0.8240 -1.4101
 9274TIP3   OH227785   0.808   6.573   1.484 -0.1066 -0.1833  0.6979
 9274TIP3    H127786   0.867   6.647   1.495  0.2187 -0.4364  0.6574
 9274TIP3    H227787   0.804   6.559   1.389  1.1191 -1.2485  0.7815
 9275TIP3   OH227788   1.711   4.138   2.426 -0.1764 -0.3098 -0.0408
 9275TIP3    H127789   1.752   4.058   2.459  0.5047 -0.2669 -0.7393
 9275TIP3    H227790   1.690   4.189   2.504  1.6890 -0.0585  0.3381
 9276TIP3   OH227791   3.896   3.658   1.333  0.7347  0.1426 -0.3937
 9276TIP3    H127792   3.901   3.578   1.282  0.8303  0.4978 -0.9451
 9276TIP3    H227793   3.981   3.700   1.323 -0.0423  1.4561 -2.0187
 9277TIP3   OH227794   6.062   4.981   3.591  0.1085  0.2003 -0.2534
 9277TIP3    H127795   6.073   5.075   3.609 -0.0164  0.3693 -1.0311
 9277TIP3    H227796   6.049   4.942   3.678 -0.9936  1.0584  0.0006
 9278TIP3   OH227797   3.823   3.094   0.401  0.3188 -0.1919 -0.2775
 9278TIP3    H127798   3.882   3.160   0.365 -0.0719  0.5230  0.3594
 9278TIP3    H227799   3.736   3.135   0.399  0.3173  0.0198  1.7476
 9279TIP3   OH227800   1.641   1.200   0.612 -0.4912 -0.7023  0.3241
 9279TIP3    H127801   1.609   1.144   0.683  0.6368 -2.2045 -0.2916
 9279TIP3    H227802   1.681   1.275   0.657 -0.6358 -1.1536  1.2369
 9280TIP3   OH227803   5.165   4.003   4.408 -0.1038  0.1633 -0.7338
 9280TIP3    H127804   5.118   3.927   4.442 -1.0918  1.0679 -0.0473
 9280TIP3    H227805   5.097   4.066   4.385  0.7340  1.3547 -0.0803
 9281TIP3   OH227806   0.327   1.424   0.456 -0.0045  0.3638 -0.5100
 9281TIP3    H127807   0.357   1.481   0.385 -0.8246 -0.4427 -1.5471
 9281TIP3    H227808   0.275   1.481   0.512  2.0733  1.4044  0.4263
 9282TIP3   OH227809   1.594   4.611   5.255 -0.0860  0.1177 -0.4516
 9282TIP3    H127810   1.665   4.580   5.310 -0.9509 -2.1871 -0.5097
 9282TIP3    H227811   1.515   4.598   5.308 -0.5450  1.9612 -0.6423
 9283TIP3   OH227812   3.149   6.710   5.449  0.0685 -0.6479  0.2858
 9283TIP3    H127813   3.073   6.670   5.407  0.9259 -1.3702 -0.6452
 9283TIP3    H227814   3.150   6.800   5.417 -0.0337 -0.8197 -0.2091
 9284TIP3   OH227815   2.456   5.560   1.821 -0.1538  0.0955  0.5478
 9284TIP3    H127816   2.367   5.547   1.787 -0.0135  0.2466  0.1153
 9284TIP3    H227817   2.478   5.650   1.797 -0.2471  0.3827  1.5054
 9285TIP3   OH227818   5.452   0.016   5.712  0.4191 -0.5082  0.2448
 9285TIP3    H127819   5.513  -0.030   5.654 -0.9045 -3.3198  0.8952
 9285TIP3    H227820   5.386   0.054   5.653  0.1030 -1.7510 -0.2324
 9286TIP3   OH227821   0.501   5.488   0.391  0.2645 -0.1910  0.4902
 9286TIP3    H127822   0.425   5.457   0.441 -1.4978  1.3441 -1.0733
 9286TIP3    H227823   0.562   5.520   0.457 -0.5054 -1.3409  1.8004
 9287TIP3   OH227824   4.906   1.689   5.744  0.6117  0.8095 -0.2775
 9287TIP3    H127825   4.883   1.700   5.652 -0.9689 -1.1047 -0.1877
 9287TIP3    H227826   5.000   1.670   5.744  0.7044  1.2250 -1.4381
 9288TIP3   OH227827   7.003   2.806   1.255 -0.1619 -0.2980 -0.0339
 9288TIP3    H127828   6.945   2.880   1.240  1.6853  0.8945 -1.8646
 9288TIP3    H227829   6.963   2.734   1.207 -1.1476 -0.0632  0.4204
 9289TIP3   OH227830   0.805   1.334   1.060 -0.0448  0.1900 -0.3498
 9289TIP3    H127831   0.809   1.238   1.060  0.3605  0.2008 -0.0116
 9289TIP3    H227832   0.815   1.358   1.152  2.0248  0.6138 -0.6230
 9290TIP3   OH227833   4.370   4.510   0.477  0.7583 -0.2431  0.1900
 9290TIP3    H127834   4.426   4.528   0.402 -0.3986 -1.4668 -1.0081
 9290TIP3    H227835   4.326   4.428   0.456 -4.1410  2.2087 -0.6516
 9291TIP3   OH227836   1.293   5.566   4.941 -0.1784  0.1098 -0.6305
 9291TIP3    H127837   1.259   5.644   4.985 -0.7142 -0.4153 -0.1015
 9291TIP3    H227838   1.369   5.598   4.891 -0.0922  0.8763 -0.0297
 9292TIP3   OH227839   0.918   3.488   2.318  0.2244  0.6245 -0.0268
 9292TIP3    H127840   0.839   3.443   2.289 -0.0225  1.8391 -1.3527
 9292TIP3    H227841   0.916   3.483   2.414 -0.0067 -1.7472 -0.0940
 9293TIP3   OH227842   5.033   0.259   2.128  0.2654  0.3926  0.4520
 9293TIP3    H127843   5.032   0.238   2.034 -1.9693 -3.0707  1.0643
 9293TIP3    H227844   4.955   0.313   2.141  1.2228  1.8874  0.2079
 9294TIP3   OH227845   5.700   1.200   3.070  0.0535  0.2408  0.3742
 9294TIP3    H127846   5.661   1.128   3.119 -0.6146 -0.3802 -1.0032
 9294TIP3    H227847   5.749   1.157   3.000 -0.4543  1.1242 -0.5436
 9295TIP3   OH227848   3.592   5.013   1.147 -0.5916 -0.1971 -0.0996
 9295TIP3    H127849   3.498   4.998   1.160 -0.8152  2.1784  1.7303
 9295TIP3    H227850   3.634   4.933   1.180 -1.8779  0.0980  2.5514
 9296TIP3   OH227851   6.015   3.880   0.266  0.4205 -0.0714 -0.3396
 9296TIP3    H127852   5.953   3.901   0.197 -0.0965  1.9510  0.6845
 9296TIP3    H227853   6.043   3.964   0.301  2.8204 -0.9497  0.0784
 9297TIP3   OH227854   6.209   1.254   4.760 -0.4575 -0.0317  0.3175
 9297TIP3    H127855   6.289   1.216   4.796 -1.1564 -0.8078  1.0835
 9297TIP3    H227856   6.222   1.252   4.665  1.0198  1.1828  0.4454
 9298TIP3   OH227857   2.551   5.408   0.765  0.2543 -0.3569 -0.3942
 9298TIP3    H127858   2.617   5.476   0.776  1.4747 -1.4964 -0.3587
 9298TIP3    H227859   2.588   5.331   0.810 -2.1310 -0.4239  1.6553
 9299TIP3   OH227860   1.765   6.635   0.336  0.1272 -0.5736 -0.3509
 9299TIP3    H127861   1.771   6.723   0.298 -0.7255  0.4394  1.7159
 9299TIP3    H227862   1.687   6.598   0.295 -1.7418  1.1172  1.4336
 9300TIP3   OH227863   0.500   5.910   4.794  0.0529  0.1753 -0.0885
 9300TIP3    H127864   0.555   5.907   4.716 -0.4217 -1.2236 -0.3930
 9300TIP3    H227865   0.488   6.004   4.810 -1.6190  0.5987 -2.9796
 9301TIP3   OH227866   4.461   4.086   4.955  0.2192 -0.0843  0.2532
 9301TIP3    H127867   4.425   4.151   5.015 -0.4695  0.5704 -0.8478
 9301TIP3    H227868   4.516   4.030   5.011 -0.4606  0.4551  1.4952
 9302TIP3   OH227869   3.657   6.152   4.037 -0.4071  0.2252 -0.4084
 9302TIP3    H127870   3.724   6.087   4.059 -1.3878 -0.2850  1.2922
 9302TIP3    H227871   3.667   6.221   4.103 -2.0505 -0.2595  0.4025
 9303TIP3   OH227872   5.299   3.571   4.059  0.0082 -0.8056  0.8262
 9303TIP3    H127873   5.261   3.562   4.146  1.2902  0.2505  1.5295
 9303TIP3    H227874   5.291   3.665   4.040 -1.1056 -1.1534 -0.6182
 9304TIP3   OH227875   3.816   1.147   5.147 -0.2035  0.4252 -0.1229
 9304TIP3    H127876   3.819   1.094   5.067  0.7144 -1.8586  1.3181
 9304TIP3    H227877   3.773   1.228   5.120 -1.3399 -0.8603 -2.5717
 9305TIP3   OH227878   2.044   3.031   2.538  0.2338  0.0346  0.6982
 9305TIP3    H127879   2.099   2.980   2.478  0.0630  1.5516 -0.8135
 9305TIP3    H227880   2.089   3.115   2.546 -2.3275  1.7625 -1.4941
 9306TIP3   OH227881   1.865   1.331   1.942  0.1277 -0.5950  0.0186
 9306TIP3    H127882   1.939   1.338   1.881 -0.2714  0.0500 -0.4098
 9306TIP3    H227883   1.790   1.311   1.885  0.0395 -1.6884  0.4945
 9307TIP3   OH227884   1.091   0.712   1.858  0.2809 -0.7390  0.0581
 9307TIP3    H127885   1.101   0.617   1.851 -0.7380 -0.9286  0.9884
 9307TIP3    H227886   1.010   0.725   1.906 -0.3962  0.6395 -1.3375
 9308TIP3   OH227887   3.337   4.368   4.784  0.3484  0.0015  0.8914
 9308TIP3    H127888   3.354   4.368   4.690 -0.9227 -0.5392  0.6421
 9308TIP3    H227889   3.339   4.276   4.809 -0.9472 -0.0076  1.0516
 9309TIP3   OH227890   0.701   2.817   4.841  0.0134  0.2042 -0.5385
 9309TIP3    H127891   0.709   2.855   4.753 -0.0623  1.4669 -0.0214
 9309TIP3    H227892   0.703   2.893   4.900 -1.2382 -0.5160  0.4704
 9310TIP3   OH227893   0.412   5.871   2.650  0.1874 -0.2447 -0.2164
 9310TIP3    H127894   0.397   5.905   2.739  1.5523 -0.2394  0.0316
 9310TIP3    H227895   0.499   5.902   2.627 -0.6269  0.7866 -2.0725
 9311TIP3   OH227896   2.823   0.309   4.032  0.4846  0.7344  0.8641
 9311TIP3    H127897   2.823   0.339   4.123  0.2329 -0.8533  1.4236
 9311TIP3    H227898   2.737   0.267   4.021  0.6079  0.6988 -0.0375
 9312TIP3   OH227899   2.008   0.281   2.837 -0.6044  0.8754 -0.2316
 9312TIP3    H127900   1.970   0.217   2.777 -0.6879  0.9725 -0.2828
 9312TIP3    H227901   2.022   0.359   2.782 -1.6329  1.3147  0.1080
 9313TIP3   OH227902   5.362   5.155   4.194  0.5388 -0.3053  0.2207
 9313TIP3    H127903   5.351   5.115   4.107  0.5030  0.5659 -0.1863
 9313TIP3    H227904   5.454   5.181   4.196 -0.0567  2.1376 -0.6702
 9314TIP3   OH227905   6.163   0.246   3.700 -0.8777 -0.0728  0.4057
 9314TIP3    H127906   6.172   0.211   3.789  0.5890  1.8179  1.0795
 9314TIP3    H227907   6.071   0.270   3.692 -0.7027  1.3575  2.1248
 9315TIP3   OH227908   1.969   0.653   0.134  0.1998  0.3623 -0.7315
 9315TIP3    H127909   1.895   0.602   0.167  0.4602 -0.2279 -1.0385
 9315TIP3    H227910   1.979   0.724   0.197  0.4351 -0.5038  0.2441
 9316TIP3   OH227911   0.643   3.865   5.451  0.3795 -0.0297  0.0984
 9316TIP3    H127912   0.560   3.827   5.423 -0.1630  1.2412 -0.0618
 9316TIP3    H227913   0.708   3.828   5.392 -0.3941  0.6713 -1.2211
 9317TIP3   OH227914   6.156   2.761   1.244 -0.4893  0.0161 -0.1196
 9317TIP3    H127915   6.140   2.806   1.161  0.6833 -0.4553 -0.6243
 9317TIP3    H227916   6.214   2.820   1.293  0.5404 -0.6417 -0.5231
 9318TIP3   OH227917   5.091   1.790   3.160 -0.0894 -0.9464 -0.2060
 9318TIP3    H127918   5.072   1.706   3.120 -0.2995 -0.6372 -0.7706
 9318TIP3    H227919   5.105   1.771   3.253  2.2396 -1.9608 -0.6973
 9319TIP3   OH227920   2.118   3.028   0.364 -0.1836 -0.4107  0.2909
 9319TIP3    H127921   2.104   3.117   0.397 -0.2444  0.2624 -1.4544
 9319TIP3    H227922   2.159   2.982   0.437 -0.8721  0.8227  1.5031
 9320TIP3   OH227923   4.696   5.489   0.500  0.6589  0.0981  0.2083
 9320TIP3    H127924   4.642   5.432   0.555  0.1432  1.5232  1.2349
 9320TIP3    H227925   4.785   5.454   0.510  0.2504 -0.9668  0.2202
 9321TIP3   OH227926   4.137   4.314   0.347  0.1385 -0.0999 -0.0103
 9321TIP3    H127927   4.187   4.284   0.271  0.2015  1.0776 -0.4477
 9321TIP3    H227928   4.089   4.236   0.376 -0.0882 -0.5054 -1.4120
 9322TIP3   OH227929   2.756   4.032   3.573 -0.5632 -0.6538 -0.3030
 9322TIP3    H127930   2.779   4.090   3.645 -2.2104  0.2336 -0.4382
 9322TIP3    H227931   2.687   3.976   3.608 -1.4367 -0.1650 -1.1620
 9323TIP3   OH227932   0.112   3.033   1.174 -0.3643 -0.1675  0.2376
 9323TIP3    H127933   0.175   2.995   1.234 -0.0668 -0.3134 -0.1597
 9323TIP3    H227934   0.158   3.107   1.135 -0.3613 -0.3958 -0.2029
 9324TIP3   OH227935   4.936   5.241   1.678 -0.5199  0.0772  0.5162
 9324TIP3    H127936   4.988   5.287   1.743  0.1222  1.4292 -0.8774
 9324TIP3    H227937   4.871   5.305   1.649 -2.0290 -1.0930  1.1116
 9325TIP3   OH227938   1.363   1.631   2.101  0.8840 -0.6340  0.4536
 9325TIP3    H127939   1.334   1.636   2.192 -1.1101 -1.4779 -0.0708
 9325TIP3    H227940   1.361   1.721   2.069  1.1856 -0.3893  1.1052
 9326TIP3   OH227941   3.245   4.022   5.461  0.2057 -0.3806  0.0247
 9326TIP3    H127942   3.191   3.964   5.516 -0.1681 -0.3728 -0.3350
 9326TIP3    H227943   3.291   3.962   5.402 -1.5439 -0.2292 -1.5812
 9327TIP3   OH227944   5.669   6.115   0.980 -0.2476  0.0010 -0.2796
 9327TIP3    H127945   5.681   6.030   0.938 -0.3231 -0.1198 -0.0587
 9327TIP3    H227946   5.608   6.161   0.923 -1.3537 -0.6329  0.3378
 9328TIP3   OH227947   3.503   2.787   4.145 -0.7770 -0.5209 -0.1696
 9328TIP3    H127948   3.580   2.777   4.088 -1.1558  1.1618 -1.0357
 9328TIP3    H227949   3.457   2.703   4.138  1.5837 -2.0647  1.3728
 9329TIP3   OH227950   0.492   0.455   5.835 -0.9668  0.0144 -0.1229
 9329TIP3    H127951   0.445   0.518   5.780 -2.2946  0.7967  1.7738
 9329TIP3    H227952   0.444   0.373   5.822  1.6464 -1.1692 -3.7350
 9330TIP3   OH227953   2.295   2.545   5.325  0.3670  0.2428 -0.1890
 9330TIP3    H127954   2.249   2.622   5.290 -1.9498 -0.9089  0.1374
 9330TIP3    H227955   2.292   2.557   5.420  0.3618 -0.0570 -0.1526
 9331TIP3   OH227956   5.020   5.933   3.646 -0.0854  0.1044  0.0394
 9331TIP3    H127957   5.034   5.867   3.714 -1.9351 -1.3884 -0.9273
 9331TIP3    H227958   5.107   5.968   3.628  0.3983  1.1488  3.6650
 9332TIP3   OH227959   7.133   4.962   2.132  0.1833 -1.0659 -0.3373
 9332TIP3    H127960   7.179   5.012   2.200 -0.0624 -1.3516  0.0468
 9332TIP3    H227961   7.176   4.986   2.050  1.5728 -1.9536  0.0971
 9333TIP3   OH227962   4.879   1.914   2.918  0.4116  0.3221 -0.2251
 9333TIP3    H127963   4.933   1.835   2.917  3.4348  2.0795  2.3450
 9333TIP3    H227964   4.878   1.943   2.827  1.6235 -1.2046 -0.7829
 9334TIP3   OH227965   5.062   4.915   4.911 -0.2953  0.7310  0.5066
 9334TIP3    H127966   4.976   4.950   4.935 -0.0488  1.0651  0.9145
 9334TIP3    H227967   5.122   4.988   4.926 -0.1923  1.1811 -1.7294
 9335TIP3   OH227968   7.167   0.981   1.268  0.2698 -0.1704 -0.0963
 9335TIP3    H127969   7.131   1.069   1.250  1.9277  0.5046 -0.2558
 9335TIP3    H227970   7.149   0.967   1.361 -0.6497  0.0208 -0.2340
 9336TIP3   OH227971   5.483   6.548   2.468 -0.4253  0.4109  0.3746
 9336TIP3    H127972   5.514   6.632   2.435 -0.3410 -0.3460 -1.6326
 9336TIP3    H227973   5.388   6.559   2.480 -0.3486  0.8969  0.5505
 9337TIP3   OH227974   3.327   6.116   4.910  0.3347  0.1847 -0.1236
 9337TIP3    H127975   3.418   6.088   4.923  0.6825  0.6001 -1.5568
 9337TIP3    H227976   3.334   6.206   4.877 -0.5263 -0.2125 -1.4540
 9338TIP3   OH227977   0.019   2.523   2.091  0.5095 -0.6279  0.0992
 9338TIP3    H127978   0.078   2.575   2.036  0.8300 -2.5620 -1.5278
 9338TIP3    H227979   0.032   2.433   2.060 -1.6649 -1.3942  1.2386
 9339TIP3   OH227980   5.342   6.499   3.840  0.1604  0.6493  0.1750
 9339TIP3    H127981   5.364   6.434   3.906  0.8600  0.6377 -0.0640
 9339TIP3    H227982   5.246   6.502   3.841  0.0751 -0.9666 -0.3684
 9340TIP3   OH227983   0.871   5.479   4.124 -0.0320 -0.6474  0.3115
 9340TIP3    H127984   0.906   5.392   4.143  0.1354 -0.9337 -1.2145
 9340TIP3    H227985   0.779   5.465   4.103  0.0233 -0.4792 -0.0566
 9341TIP3   OH227986   4.116   2.282   4.938 -0.4070 -0.1308  1.1356
 9341TIP3    H127987   4.060   2.214   4.976 -0.4999 -0.8293 -0.1985
 9341TIP3    H227988   4.205   2.247   4.948 -0.4024 -0.1270  1.1058
 9342TIP3   OH227989   1.383   1.739   2.948  0.3400 -0.2087  0.2134
 9342TIP3    H127990   1.406   1.731   3.041  2.1838 -1.6769 -0.3134
 9342TIP3    H227991   1.333   1.660   2.929  0.4910 -0.2028 -0.2034
 9343TIP3   OH227992   4.282   6.618   1.944 -0.1274 -0.0570 -0.4522
 9343TIP3    H127993   4.233   6.590   2.021 -1.2393  0.8586 -0.7863
 9343TIP3    H227994   4.304   6.537   1.898  2.9902 -0.9089  2.1484
 9344TIP3   OH227995   2.049   3.753   5.457 -0.8222 -0.0122 -0.3832
 9344TIP3    H127996   2.102   3.688   5.411  2.0708  0.1346  2.3794
 9344TIP3    H227997   2.109   3.825   5.475 -3.0048  1.8869 -0.2400
 9345TIP3   OH227998   0.095   0.234   4.673 -0.2224 -0.2145  0.1797
 9345TIP3    H127999   0.049   0.286   4.607 -2.1741 -0.5967  1.1519
 9345TIP3    H228000   0.025   0.188   4.721  1.1480 -0.4890  2.0622
 9346TIP3   OH228001   2.415   3.541   1.347 -0.3644  0.0752  0.0988
 9346TIP3    H128002   2.465   3.461   1.365  0.9946  1.2150  1.7163
 9346TIP3    H228003   2.450   3.605   1.409  1.9341  3.2956 -3.9900
 9347TIP3   OH228004   6.421   2.545   3.045 -0.1663  0.5428 -0.6927
 9347TIP3    H128005   6.479   2.483   3.001 -0.4542  0.8691 -1.5530
 9347TIP3    H228006   6.409   2.616   2.982 -0.8885  0.8428 -0.2295
 9348TIP3   OH228007   7.114   6.156   0.118 -0.0445 -0.2506  0.3406
 9348TIP3    H128008   7.113   6.239   0.165  0.4223  1.7075 -2.7953
 9348TIP3    H228009   7.206   6.130   0.119 -0.0850 -0.3901  0.7405
 9349TIP3   OH228010   1.559   0.132   0.400  0.5640 -0.6882  0.1699
 9349TIP3    H128011   1.518   0.197   0.343  0.4691 -1.4558 -0.6635
 9349TIP3    H228012   1.588   0.181   0.476 -1.5749 -0.0429  0.6305
 9350TIP3   OH228013   2.062   5.977   0.440 -0.2500  0.4421  0.0976
 9350TIP3    H128014   2.119   6.050   0.465 -0.7206  0.4586  1.1723
 9350TIP3    H228015   2.093   5.951   0.353  0.5213  1.3178  0.0943
 9351TIP3   OH228016   0.520   4.042   3.093 -0.4746  0.0087  0.9658
 9351TIP3    H128017   0.601   4.068   3.137 -0.1100 -1.1569  1.0222
 9351TIP3    H228018   0.525   3.946   3.087 -2.3932 -0.2216  2.0760
 9352TIP3   OH228019   6.720   4.838   4.210 -0.2642  0.4912  0.1960
 9352TIP3    H128020   6.639   4.818   4.257  0.2518  0.4691  1.1022
 9352TIP3    H228021   6.768   4.896   4.270  1.0334 -0.6688  0.3163
 9353TIP3   OH228022   3.169   4.239   5.280 -0.7460 -0.2191  1.1919
 9353TIP3    H128023   3.225   4.205   5.350  0.7718 -0.8180 -0.2519
 9353TIP3    H228024   3.120   4.162   5.250  0.2087 -0.4484  0.1735
 9354TIP3   OH228025   7.183   0.202   0.529 -0.0018 -0.3483 -0.0594
 9354TIP3    H128026   7.214   0.111   0.529  1.0343 -0.0112  0.0200
 9354TIP3    H228027   7.110   0.203   0.591  0.9762 -0.8188  1.1357
 9355TIP3   OH228028   4.289   6.754   3.121 -0.3671  0.4152  0.4171
 9355TIP3    H128029   4.234   6.757   3.042 -1.1995 -0.3378  0.9422
 9355TIP3    H228030   4.246   6.690   3.177  2.1903 -1.8514  0.0129
 9356TIP3   OH228031   0.628   3.645   5.175  0.0192  0.4256 -0.5413
 9356TIP3    H128032   0.663   3.710   5.113 -0.3139  0.2312 -0.9348
 9356TIP3    H228033   0.586   3.579   5.120 -1.1038  0.7316 -0.0772
 9357TIP3   OH228034   3.868   3.877   4.090  0.0611  0.2802 -0.5273
 9357TIP3    H128035   3.861   3.804   4.029 -0.3680 -0.7311  0.6923
 9357TIP3    H228036   3.782   3.883   4.131 -0.9170  3.4021 -2.6506
 9358TIP3   OH228037   5.578   0.045   1.140 -0.2795 -0.0422  0.3592
 9358TIP3    H128038   5.560   0.139   1.143 -0.9754 -0.1722  0.6710
 9358TIP3    H228039   5.563   0.020   1.049  0.4403  0.2442  0.1603
 9359TIP3   OH228040   2.744   3.203   0.876  0.3428  0.1636 -0.0860
 9359TIP3    H128041   2.687   3.178   0.948  1.7374 -0.8073  0.7318
 9359TIP3    H228042   2.826   3.158   0.893  0.9943  0.5760 -1.8489
 9360TIP3   OH228043   3.670   4.193   0.062  0.3540 -0.5631 -0.2465
 9360TIP3    H128044   3.678   4.216  -0.031 -0.4547 -0.6313 -0.3365
 9360TIP3    H228045   3.758   4.207   0.097  0.6684 -0.5261 -1.0198
 9361TIP3   OH228046   6.738   5.349   4.939  0.0090  0.0145 -0.5036
 9361TIP3    H128047   6.767   5.393   5.019 -1.2476 -0.8124  0.4587
 9361TIP3    H228048   6.815   5.300   4.910  0.0649 -1.0237  1.1899
 9362TIP3   OH228049   1.527   2.794   2.770  0.1167  0.0922 -0.0034
 9362TIP3    H128050   1.589   2.806   2.698 -0.0877  1.8412  0.0655
 9362TIP3    H228051   1.458   2.857   2.752 -0.4787 -0.2053  1.1682
 9363TIP3   OH228052   4.297   4.629   4.505 -0.2336 -0.1091 -0.5499
 9363TIP3    H128053   4.360   4.695   4.536 -1.5960  0.7312  0.4995
 9363TIP3    H228054   4.299   4.560   4.571 -0.1239 -0.2830 -0.7327
 9364TIP3   OH228055   5.990   4.258   3.040  0.0059  0.2885  0.7215
 9364TIP3    H128056   6.017   4.341   3.078 -1.4885  0.6768  0.9804
 9364TIP3    H228057   5.995   4.273   2.945 -1.0213  0.9387  0.7637
 9365TIP3   OH228058   0.360   0.082   4.129  0.2174  0.0574  0.5327
 9365TIP3    H128059   0.386   0.074   4.220  0.7314  0.7423  0.4579
 9365TIP3    H228060   0.432   0.129   4.087  0.8967 -1.9099 -0.6508
 9366TIP3   OH228061   4.676   4.184   4.392  0.1865 -0.2890  0.2244
 9366TIP3    H128062   4.727   4.138   4.458  1.4143 -1.2237 -1.2819
 9366TIP3    H228063   4.710   4.274   4.395  1.6292 -0.7742 -0.3879
 9367TIP3   OH228064   0.823   0.782   5.320 -0.4014  0.1872 -0.4170
 9367TIP3    H128065   0.766   0.723   5.369 -0.0006  2.0720  2.5679
 9367TIP3    H228066   0.770   0.810   5.245 -1.8903 -1.1439  0.0725
 9368TIP3   OH228067   4.536   6.324   0.088  0.4041 -0.1907  0.1967
 9368TIP3    H128068   4.464   6.376   0.123  1.0862  0.5566  0.5286
 9368TIP3    H228069   4.580   6.288   0.165  2.7193  2.5392  0.3407
 9369TIP3   OH228070   5.098   0.419   1.768  0.0002 -0.5106  0.2750
 9369TIP3    H128071   5.069   0.419   1.677  0.6400  0.0341  0.0704
 9369TIP3    H228072   5.037   0.478   1.812 -0.7993 -1.3721  0.3743
 9370TIP3   OH228073   7.217   6.178   4.523 -0.0308  0.7953  0.1145
 9370TIP3    H128074   7.161   6.173   4.601 -1.5604  0.1182 -0.9599
 9370TIP3    H228075   7.158   6.209   4.454  1.0180  0.3754 -1.0077
 9371TIP3   OH228076   3.274   0.131   2.717  0.3524 -0.1710  0.4423
 9371TIP3    H128077   3.345   0.196   2.723 -0.0672  0.5285 -1.3864
 9371TIP3    H228078   3.206   0.175   2.665 -2.2381 -0.1458  3.5144
 9372TIP3   OH228079   3.446   4.263   3.327  0.7454 -0.1392  0.3806
 9372TIP3    H128080   3.374   4.248   3.389 -0.2342 -0.9058 -0.8940
 9372TIP3    H228081   3.429   4.202   3.256  1.6168  0.9969 -0.8446
 9373TIP3   OH228082   1.252   1.892   2.067 -0.0062 -0.0701  0.4797
 9373TIP3    H128083   1.189   1.912   1.998 -0.2976 -1.4346  0.3132
 9373TIP3    H228084   1.201   1.890   2.147  0.0507  0.0127  0.5181
 9374TIP3   OH228085   2.110   4.184   4.176  0.5749  0.0517  0.2200
 9374TIP3    H128086   2.143   4.258   4.125  0.1974  0.6433  0.8231
 9374TIP3    H228087   2.027   4.161   4.135  0.4323  0.3120  0.3615
 9375TIP3   OH228088   5.974   1.773   5.788 -0.0775 -0.2365 -1.0522
 9375TIP3    H128089   5.920   1.776   5.709 -1.3361 -0.7959 -0.2331
 9375TIP3    H228090   6.047   1.716   5.764 -0.7699 -0.8984 -1.6357
 9376TIP3   OH228091   1.349   0.286   5.542 -0.1789  0.0294  0.1535
 9376TIP3    H128092   1.265   0.312   5.505  0.0051 -0.6436 -0.7863
 9376TIP3    H228093   1.329   0.262   5.633 -1.0856 -0.5101 -0.1695
 9377TIP3   OH228094   1.805   5.049   3.100  0.1131  0.1120 -0.2377
 9377TIP3    H128095   1.863   5.028   3.026 -1.2493  0.0130 -1.3261
 9377TIP3    H228096   1.718   5.024   3.069 -0.9784  3.1411  0.0893
 9378TIP3   OH228097   6.065   6.440   3.943 -0.2463  0.1672  0.8473
 9378TIP3    H128098   5.998   6.375   3.965 -0.8690  0.4299 -0.2161
 9378TIP3    H228099   6.049   6.512   4.003 -0.0563 -0.3112  1.4943
 9379TIP3   OH228100   3.595   1.756   5.378 -0.7070  0.3023  0.3467
 9379TIP3    H128101   3.652   1.781   5.305 -2.5645  0.6989 -1.0189
 9379TIP3    H228102   3.628   1.670   5.404  0.7208  0.6524 -0.1672
 9380TIP3   OH228103   6.644   2.762   4.322  0.1225 -0.1325  0.0783
 9380TIP3    H128104   6.689   2.728   4.399  1.0163  0.4694 -0.1511
 9380TIP3    H228105   6.591   2.834   4.355  0.5625  0.1731  0.1353
 9381TIP3   OH228106   5.473   4.979   2.771 -0.1222 -0.2030 -0.3280
 9381TIP3    H128107   5.538   4.982   2.701 -0.8201  2.1554 -0.9931
 9381TIP3    H228108   5.415   5.053   2.753 -3.0229 -2.1519  0.2527
 9382TIP3   OH228109   6.050   2.532   0.407  0.0003 -0.0468 -0.5141
 9382TIP3    H128110   5.966   2.487   0.405 -0.8081  1.4154 -0.7219
 9382TIP3    H228111   6.084   2.515   0.495 -0.8549 -0.0545 -0.1805
 9383TIP3   OH228112   5.661   0.820   2.930  0.0891 -0.3010 -0.2860
 9383TIP3    H128113   5.716   0.838   2.855  0.5961  0.4423  0.2495
 9383TIP3    H228114   5.723   0.807   3.003 -0.4189  0.0676  0.2234
 9384TIP3   OH228115   0.054   3.291   3.404 -0.1120  0.3431  0.0137
 9384TIP3    H128116   0.129   3.255   3.356 -0.6817 -0.9801  0.0639
 9384TIP3    H228117  -0.010   3.309   3.335 -0.4419 -0.3279  0.1339
 9385TIP3   OH228118   1.760   5.571   1.065  0.0807  0.2362 -0.0720
 9385TIP3    H128119   1.775   5.538   0.976  1.2694  1.6285 -0.4249
 9385TIP3    H228120   1.840   5.617   1.088 -0.4174  0.3864  1.5247
 9386TIP3   OH228121   2.705   2.848   1.722 -0.4713  1.0158  0.3826
 9386TIP3    H128122   2.679   2.832   1.813 -0.8494  1.1469  0.2993
 9386TIP3    H228123   2.788   2.801   1.713 -1.5559 -1.0064  0.1243
 9387TIP3   OH228124   3.261   4.978   5.734  0.0009 -0.0932  0.4867
 9387TIP3    H128125   3.283   5.037   5.806 -0.2952  0.2220  0.3197
 9387TIP3    H228126   3.285   4.891   5.766  0.8107  0.1545  0.5886
 9388TIP3   OH228127   4.536   1.842   0.574  0.2689  0.8384  0.4221
 9388TIP3    H128128   4.468   1.872   0.514 -0.0070  0.9835  0.8038
 9388TIP3    H228129   4.615   1.837   0.520  0.0170  0.9307  0.0401
 9389TIP3   OH228130   3.600   0.162   0.192  0.4446 -0.0913  0.4281
 9389TIP3    H128131   3.512   0.153   0.227  0.0724 -0.8185 -0.6300
 9389TIP3    H228132   3.656   0.169   0.269 -0.6806  2.2248  1.1212
 9390TIP3   OH228133   2.662   4.619   2.447  0.3433  0.0140  0.4601
 9390TIP3    H128134   2.627   4.667   2.522  1.0314  2.0278 -0.4463
 9390TIP3    H228135   2.751   4.597   2.472  0.4776  0.4266  0.3451
 9391TIP3   OH228136   4.156   3.504   2.987 -0.0480 -0.4556  0.4174
 9391TIP3    H128137   4.242   3.489   3.026 -0.6236  0.7437  2.2850
 9391TIP3    H228138   4.174   3.517   2.894  1.9632  1.0789  0.9439
 9392TIP3   OH228139   5.841   6.208   1.868  0.3647  0.5472  0.2809
 9392TIP3    H128140   5.856   6.116   1.889  1.7036  0.8655  0.8836
 9392TIP3    H228141   5.749   6.213   1.844  0.2937 -0.9609  0.1443
 9393TIP3   OH228142   1.520   6.048   3.502  0.1334  0.3436 -0.0164
 9393TIP3    H128143   1.539   6.134   3.539 -2.0913  0.7218  0.4195
 9393TIP3    H228144   1.506   6.064   3.409 -2.0325  0.8463  0.3372
 9394TIP3   OH228145   5.809   0.162   0.780 -0.5813 -0.7156 -0.3918
 9394TIP3    H128146   5.714   0.168   0.770 -0.4729  0.2412 -1.0340
 9394TIP3    H228147   5.826   0.189   0.870 -0.8225  0.4771 -0.6872
 9395TIP3   OH228148   5.892   1.813   0.479 -0.2823  0.3165 -0.4452
 9395TIP3    H128149   5.987   1.807   0.474 -0.3769 -0.6323 -2.0596
 9395TIP3    H228150   5.861   1.760   0.405 -2.0490  1.0373 -0.2722
 9396TIP3   OH228151   0.156   3.940   4.189  0.6810 -0.0462  0.5552
 9396TIP3    H128152   0.144   4.008   4.256  2.5036  1.0512 -0.1463
 9396TIP3    H228153   0.068   3.908   4.171 -0.1030  1.2979  1.7882
 9397TIP3   OH228154   0.523   2.060   0.498 -0.5753  0.0834  0.2891
 9397TIP3    H128155   0.521   2.074   0.403 -1.1413  0.4491  0.3470
 9397TIP3    H228156   0.615   2.070   0.521  0.3094 -3.9282 -0.7431
 9398TIP3   OH228157   6.621   2.345   5.241  0.4099 -0.4590 -0.2776
 9398TIP3    H128158   6.590   2.294   5.316  0.5342 -1.4701 -0.9058
 9398TIP3    H228159   6.542   2.383   5.203  0.4061  0.5938  0.7347
 9399TIP3   OH228160   2.087   0.941   0.848 -0.1460  0.5726 -0.8687
 9399TIP3    H128161   1.996   0.940   0.818 -0.2973 -0.2498 -0.4155
 9399TIP3    H228162   2.105   1.033   0.867 -1.7181  0.4700  1.5113
 9400TIP3   OH228163   4.457   3.855   0.244 -0.1465  0.6519  0.6563
 9400TIP3    H128164   4.424   3.854   0.154  0.5461  0.9595  0.3911
 9400TIP3    H228165   4.453   3.764   0.273 -0.2802  0.5374  0.2807
 9401TIP3   OH228166   5.868   1.863   2.513  0.2897 -0.1885 -0.5305
 9401TIP3    H128167   5.915   1.787   2.545  0.0982  0.3241  1.0521
 9401TIP3    H228168   5.780   1.831   2.493 -1.3692  0.3171  4.5905
 9402TIP3   OH228169   6.295   4.665   4.781  0.7515 -0.3579  0.2751
 9402TIP3    H128170   6.203   4.641   4.793  0.9402 -2.2741 -1.5684
 9402TIP3    H228171   6.303   4.751   4.822 -1.7507 -0.3343  0.8593
 9403TIP3   OH228172   3.017   5.749   0.481  0.2736  0.2809 -0.1467
 9403TIP3    H128173   3.048   5.740   0.391 -0.6566 -0.6120 -0.4043
 9403TIP3    H228174   2.942   5.808   0.475  0.3981  0.4605  0.0833
 9404TIP3   OH228175   0.649   0.255   0.416  0.0739 -0.3481  0.3673
 9404TIP3    H128176   0.744   0.241   0.422 -0.0556 -1.8623 -0.4592
 9404TIP3    H228177   0.611   0.177   0.457 -0.8034 -0.4038 -0.5209
 9405TIP3   OH228178   3.016   2.003   5.652  0.0580  0.0143  0.3776
 9405TIP3    H128179   3.053   1.915   5.645  2.7712  1.0302  0.6106
 9405TIP3    H228180   3.001   2.031   5.562 -0.3929 -0.5215  0.2853
 9406TIP3   OH228181   6.820   3.231   0.680 -0.4685  0.0514 -0.5968
 9406TIP3    H128182   6.738   3.191   0.650 -1.0543  0.7753  0.0026
 9406TIP3    H228183   6.794   3.290   0.750  0.6094  0.0779 -0.1928
 9407TIP3   OH228184   5.987   5.649   3.476  0.1646 -0.0451 -0.2158
 9407TIP3    H128185   6.076   5.675   3.498  0.6038 -2.0771  0.6875
 9407TIP3    H228186   5.996   5.590   3.402 -0.4898  0.0961 -0.4201
 9408TIP3   OH228187   3.813   1.632   3.535 -0.8233  0.6198  0.4655
 9408TIP3    H128188   3.885   1.654   3.594  1.5933 -1.2647 -1.5681
 9408TIP3    H228189   3.818   1.537   3.525 -2.4888  0.6350 -1.1305
 9409TIP3   OH228190   0.231   0.149   4.932 -0.4214 -0.1177  0.5058
 9409TIP3    H128191   0.202   0.190   5.014 -0.6747  0.0254  0.3454
 9409TIP3    H228192   0.213   0.215   4.865 -1.8279 -0.8913  0.0980
 9410TIP3   OH228193   6.777   0.420   2.684 -0.4503  0.0775  0.5994
 9410TIP3    H128194   6.871   0.404   2.679 -0.6824 -1.0258 -1.2090
 9410TIP3    H228195   6.765   0.472   2.764  1.5939 -0.3385  1.2243
 9411TIP3   OH228196   6.509   1.366   0.891 -0.2336  0.1468 -0.0265
 9411TIP3    H128197   6.444   1.316   0.940  0.1133  0.2681  0.5622
 9411TIP3    H228198   6.523   1.316   0.811 -0.8327 -0.0336 -0.0168
 9412TIP3   OH228199   5.840   6.226   5.599 -0.2984  0.0831  0.3372
 9412TIP3    H128200   5.778   6.201   5.668  2.3338 -2.7850  1.9616
 9412TIP3    H228201   5.890   6.146   5.581  3.3153  2.2245 -0.3736
 9413TIP3   OH228202   2.377   3.049   2.947 -0.4418 -0.2973 -0.4093
 9413TIP3    H128203   2.378   2.995   2.868 -0.3582  0.2962 -0.8186
 9413TIP3    H228204   2.290   3.035   2.984 -0.3042 -0.9747 -0.3239
 9414TIP3   OH228205   2.992   0.700   2.923  0.0795 -0.1060  0.1374
 9414TIP3    H128206   2.979   0.779   2.975  1.8788 -0.1230  0.7158
 9414TIP3    H228207   2.909   0.654   2.927 -0.8370  1.4940  0.2295
 9415TIP3   OH228208   2.997   0.351   5.652  0.6728 -0.4381  0.1848
 9415TIP3    H128209   2.965   0.414   5.717  1.6247  0.9785 -0.6635
 9415TIP3    H228210   3.088   0.375   5.638  0.2432 -0.0350 -2.4086
 9416TIP3   OH228211   1.824   1.138   2.394  0.5389  0.1097  0.5137
 9416TIP3    H128212   1.918   1.151   2.408  0.6819 -0.8686  0.5101
 9416TIP3    H228213   1.790   1.111   2.479  0.5021 -0.8136  0.2202
 9417TIP3   OH228214   6.327   2.560   0.357  0.0982  0.2775 -0.4005
 9417TIP3    H128215   6.238   2.525   0.353  0.5218 -0.7504 -1.4901
 9417TIP3    H228216   6.315   2.654   0.364 -1.0864  0.2721 -1.7824
 9418TIP3   OH228217   2.109   5.385   3.816  0.6372 -0.5907  0.1397
 9418TIP3    H128218   2.201   5.393   3.791  0.5138  0.6689  0.0222
 9418TIP3    H228219   2.063   5.365   3.734  0.4625  1.7314 -0.4005
 9419TIP3   OH228220   6.675   2.809   0.630 -0.4547  0.2227 -0.0136
 9419TIP3    H128221   6.714   2.770   0.709  0.9158 -1.1775 -1.3131
 9419TIP3    H228222   6.606   2.747   0.605 -0.2355  0.1528 -0.4478
 9420TIP3   OH228223   1.435   5.179   3.564  0.1221 -0.4304 -0.3380
 9420TIP3    H128224   1.354   5.140   3.531 -0.3292 -1.2245  1.5620
 9420TIP3    H228225   1.466   5.118   3.631  1.2459  0.8184  0.3447
 9421TIP3   OH228226   0.736   2.810   2.827  0.1554 -0.8180  0.8566
 9421TIP3    H128227   0.677   2.835   2.898 -1.5600 -1.0947 -0.4062
 9421TIP3    H228228   0.773   2.893   2.797 -0.5855 -0.4772  0.8452
 9422TIP3   OH228229   2.841   0.811   4.447 -0.5911  0.1306  0.5018
 9422TIP3    H128230   2.768   0.764   4.487 -0.7319  0.4192  0.5894
 9422TIP3    H228231   2.803   0.894   4.417 -0.8800 -0.7462 -1.7711
 9423TIP3   OH228232   2.520   6.395   3.099 -0.0493  0.5027 -0.1392
 9423TIP3    H128233   2.441   6.419   3.052  0.4377 -0.3635 -1.4453
 9423TIP3    H228234   2.589   6.399   3.033  0.6625 -0.7177  0.4985
 9424TIP3   OH228235   0.484   3.046   3.090  0.8462  0.2842  0.4007
 9424TIP3    H128236   0.566   3.087   3.060  0.3127  1.6530  0.7412
 9424TIP3    H228237   0.472   2.972   3.031  1.5379  0.9705 -0.6494
 9425TIP3   OH228238   5.194   5.726   2.032 -0.1927 -0.2743  0.5498
 9425TIP3    H128239   5.174   5.779   2.109  0.1236 -0.4107  0.7295
 9425TIP3    H228240   5.288   5.737   2.018 -0.0786 -0.9521  0.7156
 9426TIP3   OH228241   0.646   5.358   4.379 -0.1327 -0.2282 -0.1749
 9426TIP3    H128242   0.652   5.317   4.293  1.0542  0.9106 -0.6694
 9426TIP3    H228243   0.558   5.394   4.383 -0.4615 -0.9713 -0.5891
 9427TIP3   OH228244   2.187   3.778   5.194 -0.7555  0.2735  0.0008
 9427TIP3    H128245   2.153   3.690   5.178  1.5752 -0.6746 -0.0676
 9427TIP3    H228246   2.128   3.836   5.144 -1.3890 -1.3914 -1.2744
 9428TIP3   OH228247   1.441   5.587   2.802  0.0168 -0.0706 -0.6147
 9428TIP3    H128248   1.386   5.550   2.733 -0.6319 -0.8578  0.2978
 9428TIP3    H228249   1.401   5.672   2.821 -1.3065 -0.8710  0.4409
 9429TIP3   OH228250   2.322   6.616   3.268 -0.2479  0.4409  0.2662
 9429TIP3    H128251   2.341   6.524   3.285 -0.9970  0.3425  0.5917
 9429TIP3    H228252   2.383   6.640   3.199 -0.0236 -0.2936  0.1991
 9430TIP3   OH228253   1.301   2.506   0.759  0.6896 -0.3844 -0.1509
 9430TIP3    H128254   1.212   2.520   0.793  0.9711  1.2881 -0.0414
 9430TIP3    H228255   1.355   2.495   0.838  1.1441  2.3084  0.0133
 9431TIP3   OH228256   7.096   2.129   0.971 -0.0501 -0.3792  0.5024
 9431TIP3    H128257   7.151   2.168   0.904  1.5262 -1.8886  0.8525
 9431TIP3    H228258   7.040   2.201   1.001  0.9285  0.9246 -0.6633
 9432TIP3   OH228259   6.238   6.078   1.203  0.4105 -0.3786 -0.0265
 9432TIP3    H128260   6.150   6.051   1.227  0.9396 -1.3551  0.9276
 9432TIP3    H228261   6.280   6.101   1.286  0.6061  1.5580 -0.6064
 9433TIP3   OH228262   6.328   4.413   2.727  0.1730  0.3096  0.0401
 9433TIP3    H128263   6.340   4.329   2.684 -0.6991 -0.5602  1.4121
 9433TIP3    H228264   6.333   4.393   2.821 -1.7271  1.4811  0.4485
 9434TIP3   OH228265   5.995   3.092   4.929 -0.2365 -0.3607 -0.4806
 9434TIP3    H128266   6.062   3.104   4.861 -0.8879  0.0407 -1.0678
 9434TIP3    H228267   5.952   3.010   4.905 -1.1279  0.2882 -1.1411
 9435TIP3   OH228268   3.192   0.021   2.954  0.4339  0.0869 -1.0472
 9435TIP3    H128269   3.225   0.075   2.882 -1.3353  0.9206 -1.2714
 9435TIP3    H228270   3.236   0.057   3.032  0.8346  0.4840 -1.4487
 9436TIP3   OH228271   5.208   1.353   0.609  0.7514 -0.3919 -0.3327
 9436TIP3    H128272   5.272   1.315   0.549  0.9635 -1.9263  0.7918
 9436TIP3    H228273   5.126   1.309   0.589  0.6744 -0.4210  0.0263
 9437TIP3   OH228274   7.033   4.685   5.163  0.2584 -0.4188  0.3707
 9437TIP3    H128275   7.087   4.748   5.116  0.5970 -1.4377 -0.6127
 9437TIP3    H228276   6.949   4.687   5.118  1.0469 -2.5184 -1.3157
 9438TIP3   OH228277   6.313   1.208   0.974  0.0777 -0.0991 -0.0390
 9438TIP3    H128278   6.282   1.172   0.891  0.3446  0.3983 -0.3634
 9438TIP3    H228279   6.293   1.140   1.039  0.2883 -0.6933 -0.5812
 9439TIP3   OH228280   0.700   6.595   4.618  0.1972 -0.2953  0.1286
 9439TIP3    H128281   0.748   6.618   4.538 -0.0398  0.2560  0.1420
 9439TIP3    H228282   0.752   6.525   4.658  0.3998 -0.4676 -0.4291
 9440TIP3   OH228283   5.232   2.012   0.625 -0.2445  0.2040 -0.2680
 9440TIP3    H128284   5.272   1.934   0.664  0.3315 -0.0042 -1.2342
 9440TIP3    H228285   5.304   2.075   0.619 -0.6186  0.6801  0.1540
 9441TIP3   OH228286   2.420   4.165   4.934 -0.2713 -0.0156 -0.0220
 9441TIP3    H128287   2.424   4.256   4.906 -3.0185  0.0846 -0.3249
 9441TIP3    H228288   2.503   4.127   4.905  1.5351  2.6361  1.2601
 9442TIP3   OH228289   3.172   2.698   4.678  0.3327  0.1730 -0.1479
 9442TIP3    H128290   3.159   2.666   4.767  1.0738  0.5449  0.1072
 9442TIP3    H228291   3.193   2.791   4.689 -3.3790  1.2514 -0.9631
 9443TIP3   OH228292   2.858   5.934   0.046 -0.7335 -0.1181  0.0671
 9443TIP3    H128293   2.808   5.990  -0.014 -1.2520  0.0533  0.6546
 9443TIP3    H228294   2.905   5.874  -0.012 -0.3341  0.7802 -0.5667
 9444TIP3   OH228295   6.710   1.018   0.885 -0.5838  0.1640 -0.0087
 9444TIP3    H128296   6.751   0.931   0.883 -1.2430 -0.1740  0.7327
 9444TIP3    H228297   6.652   1.015   0.961  0.3855  1.7257  0.8318
 9445TIP3   OH228298   5.963   5.335   2.881  0.0185 -0.1715  0.5439
 9445TIP3    H128299   5.939   5.415   2.927 -0.0116  1.0654 -1.4795
 9445TIP3    H228300   5.882   5.308   2.835  0.7123  0.2546 -1.0015
 9446TIP3   OH228301   1.698   1.891   3.781  0.2842 -0.0832  0.1999
 9446TIP3    H128302   1.676   1.921   3.693  1.2518  1.5770  0.4750
 9446TIP3    H228303   1.622   1.915   3.835 -0.2523 -0.9840 -0.1278
 9447TIP3   OH228304   0.607   1.267   4.939 -0.7508  0.5461 -0.0769
 9447TIP3    H128305   0.616   1.359   4.912  0.2745  1.1799  2.2339
 9447TIP3    H228306   0.696   1.235   4.946 -1.0931 -0.5061 -0.3843
 9448TIP3   OH228307   0.183   6.613   5.765 -0.1840 -0.3161  0.1224
 9448TIP3    H128308   0.206   6.520   5.763  1.3001  0.0185  0.6661
 9448TIP3    H228309   0.173   6.633   5.858 -1.3303 -0.1114 -0.0329
 9449TIP3   OH228310   0.754   6.455   4.953  0.0018 -0.3125  0.0733
 9449TIP3    H128311   0.661   6.474   4.944 -0.0331 -0.6267 -0.2937
 9449TIP3    H228312   0.774   6.397   4.878  0.3429 -0.7791  0.5134
 9450TIP3   OH228313   1.186   2.197   0.529 -0.0037 -0.6672 -0.7141
 9450TIP3    H128314   1.136   2.129   0.574 -0.0543  0.2041  0.6078
 9450TIP3    H228315   1.239   2.149   0.465 -0.5387 -1.8740 -0.2908
 9451TIP3   OH228316   6.641   4.106   3.362  0.3344  0.7073  0.0786
 9451TIP3    H128317   6.695   4.106   3.440  0.4887  2.5766  0.0231
 9451TIP3    H228318   6.617   4.198   3.349 -0.6386  0.2885 -1.4158
 9452TIP3   OH228319   0.128   4.338   5.236 -0.1845 -0.0140  0.7250
 9452TIP3    H128320   0.192   4.404   5.262 -0.5182  0.4345  0.4035
 9452TIP3    H228321   0.045   4.371   5.270 -0.4233 -0.0468  0.1755
 9453TIP3   OH228322   5.842   2.379   0.992 -0.2647 -0.0108 -0.0886
 9453TIP3    H128323   5.850   2.360   0.898 -0.1577 -2.1263  0.3013
 9453TIP3    H228324   5.910   2.325   1.032 -0.1990  1.0037  1.2127
 9454TIP3   OH228325   3.424   0.375   4.920  0.2460  0.2546 -0.0390
 9454TIP3    H128326   3.355   0.439   4.936  1.3646  1.2221  1.0106
 9454TIP3    H228327   3.505   0.420   4.942  1.1751 -1.1035 -0.5479
 9455TIP3   OH228328   5.294   1.520   3.946  0.1390 -0.2551 -0.6313
 9455TIP3    H128329   5.228   1.588   3.933  1.3957  1.0608 -0.2967
 9455TIP3    H228330   5.301   1.477   3.861 -0.0611  0.5972 -1.0885
 9456TIP3   OH228331   5.020   4.195   2.336  0.0803  0.3133  0.2611
 9456TIP3    H128332   5.081   4.262   2.366  0.6357 -0.3829  0.7322
 9456TIP3    H228333   5.076   4.122   2.308 -0.1062  1.8872 -5.5580
 9457TIP3   OH228334   1.802   1.484   5.512 -0.1013  0.0739  0.6293
 9457TIP3    H128335   1.863   1.536   5.564 -1.1289  0.8370  1.0921
 9457TIP3    H228336   1.832   1.494   5.422  0.9877 -0.2989  0.9332
 9458TIP3   OH228337   4.096   6.746   1.189 -0.1082 -0.4952 -0.2016
 9458TIP3    H128338   4.045   6.711   1.263 -1.1289 -0.8066 -1.0351
 9458TIP3    H228339   4.049   6.717   1.111  2.0577 -1.9144 -1.0682
 9459TIP3   OH228340   6.564   0.739   5.769  0.1434  0.9141 -0.1270
 9459TIP3    H128341   6.494   0.693   5.815  1.2344  0.3084  0.9887
 9459TIP3    H228342   6.565   0.826   5.808  0.1326  0.8667 -0.0217
 9460TIP3   OH228343   3.451   4.230   0.703  0.1513  0.7318  0.1981
 9460TIP3    H128344   3.382   4.295   0.713 -0.2040  0.1880  1.4973
 9460TIP3    H228345   3.527   4.280   0.672  0.0951  1.9034  1.8382
 9461TIP3   OH228346   1.816   6.369   4.857 -0.7701  0.0113  0.1557
 9461TIP3    H128347   1.750   6.301   4.843  0.4538 -1.2169  0.1240
 9461TIP3    H228348   1.867   6.371   4.776  0.2592 -0.2480  0.7713
 9462TIP3   OH228349   5.614   1.279   1.035  0.5510  0.0243 -0.1106
 9462TIP3    H128350   5.673   1.296   1.109 -0.7432  0.5046  0.8448
 9462TIP3    H228351   5.532   1.322   1.060 -0.8556 -2.3020 -0.4865
 9463TIP3   OH228352   2.008   4.760   5.405  0.8372  0.1240 -0.0500
 9463TIP3    H128353   2.058   4.678   5.410  0.2028 -0.2848 -0.2916
 9463TIP3    H228354   2.053   4.820   5.465  0.8677 -0.6383  0.7000
 9464TIP3   OH228355   3.969   0.182   2.902  0.2248  0.0012 -0.0623
 9464TIP3    H128356   3.937   0.142   2.982  0.3502 -0.1209 -0.0732
 9464TIP3    H228357   4.033   0.120   2.867  1.0390  0.5882  0.3589
 9465TIP3   OH228358   1.844   2.559   3.352  0.0854  0.5201  0.0287
 9465TIP3    H128359   1.795   2.640   3.369 -0.8693  0.1888 -0.9742
 9465TIP3    H228360   1.851   2.556   3.257 -2.4898 -1.9942 -0.2145
 9466TIP3   OH228361   0.788   2.771   1.190 -0.5264 -0.0221 -0.0585
 9466TIP3    H128362   0.700   2.771   1.152  0.4606 -0.8452 -2.5198
 9466TIP3    H228363   0.839   2.829   1.134  0.3209  1.3933  2.0169
 9467TIP3   OH228364   0.938   1.736   4.038  0.6700  0.1370 -0.6786
 9467TIP3    H128365   0.876   1.808   4.028 -0.4153 -0.7942 -0.9373
 9467TIP3    H228366   0.942   1.719   4.132 -0.7045 -0.7983 -0.7551
 9468TIP3   OH228367   5.437   2.731   2.461 -0.2070  0.5230 -0.3200
 9468TIP3    H128368   5.358   2.785   2.452 -0.6272  0.0253  0.3205
 9468TIP3    H228369   5.414   2.666   2.528  0.3811 -0.2927 -0.8939
 9469TIP3   OH228370   5.607   5.615   0.764 -0.0870 -0.0459  0.4299
 9469TIP3    H128371   5.663   5.537   0.753  0.3516  0.2970  0.1713
 9469TIP3    H228372   5.520   5.580   0.779  0.0157 -0.5932 -0.1905
 9470TIP3   OH228373   3.963   4.748   3.103  0.1554 -0.2292  0.2482
 9470TIP3    H128374   3.996   4.811   3.038  0.4096 -0.4523  0.1551
 9470TIP3    H228375   3.933   4.673   3.051  1.7936 -1.0698  0.4396
 9471TIP3   OH228376   4.874   6.425   4.750  0.0649  0.2566 -0.2612
 9471TIP3    H128377   4.911   6.454   4.833  1.5659  1.9816 -1.4482
 9471TIP3    H228378   4.893   6.331   4.746  0.6216  0.2966  1.0016
 9472TIP3   OH228379   2.414   6.230   1.727  0.8436 -0.2319  0.0327
 9472TIP3    H128380   2.330   6.236   1.682  0.4154  1.5402  0.9427
 9472TIP3    H228381   2.431   6.136   1.736 -1.5574 -0.6723  0.7134
 9473TIP3   OH228382   1.719   2.667   4.763  0.1690  0.0737  0.4351
 9473TIP3    H128383   1.809   2.639   4.779 -0.1416 -1.7834 -0.8377
 9473TIP3    H228384   1.718   2.759   4.791  2.4021  0.0967  0.6297
 9474TIP3   OH228385   7.110   5.786   0.522  0.3108 -0.1972 -0.2053
 9474TIP3    H128386   7.048   5.825   0.461  2.1685  3.6286  0.0779
 9474TIP3    H228387   7.058   5.770   0.602 -0.3972  3.3346  0.1984
 9475TIP3   OH228388   1.760   2.182   0.068 -0.3288 -0.0058  0.3265
 9475TIP3    H128389   1.750   2.094   0.033 -1.2615  0.3825 -0.4459
 9475TIP3    H228390   1.707   2.183   0.148 -1.3021  0.1823 -0.3043
 9476TIP3   OH228391   4.810   0.821   2.962  0.6133  0.6154 -0.1746
 9476TIP3    H128392   4.821   0.736   2.920  0.8764 -0.1042  1.2810
 9476TIP3    H228393   4.854   0.883   2.903  0.3276 -0.2244 -1.2994
 9477TIP3   OH228394   0.161   5.778   0.590  0.2554  0.6030 -0.4763
 9477TIP3    H128395   0.071   5.773   0.557 -0.3407  0.7073  1.0264
 9477TIP3    H228396   0.213   5.732   0.525 -1.2775 -1.8178 -0.1293
 9478TIP3   OH228397   0.525   6.183   4.880 -0.2082 -0.2107  0.0250
 9478TIP3    H128398   0.479   6.244   4.938 -1.4567  0.3613 -1.4969
 9478TIP3    H228399   0.525   6.227   4.795 -0.9011 -2.2066 -1.0593
 9479TIP3   OH228400   3.481   3.117   3.362 -0.1332 -0.3546 -0.2887
 9479TIP3    H128401   3.503   3.171   3.439  0.0707  2.1333 -1.9697
 9479TIP3    H228402   3.401   3.156   3.328  0.2977 -0.7844 -1.8680
 9480TIP3   OH228403   6.990   5.194   4.002  0.5699 -0.6139 -0.1467
 9480TIP3    H128404   7.017   5.149   4.081  0.1101  0.9971  0.9757
 9480TIP3    H228405   6.911   5.242   4.027  0.0297 -0.5703 -1.7608
 9481TIP3   OH228406   3.638   2.332   3.609  0.5982 -0.3619 -0.3053
 9481TIP3    H128407   3.600   2.247   3.630  0.5980 -0.4757 -0.7456
 9481TIP3    H228408   3.573   2.396   3.638  0.1258 -0.5506 -0.9353
 9482TIP3   OH228409   0.564   4.325   5.229 -0.0684  0.0960 -0.3391
 9482TIP3    H128410   0.568   4.419   5.246  2.4293 -0.1068  0.5843
 9482TIP3    H228411   0.525   4.287   5.308  2.5547  0.0678  1.0462
 9483TIP3   OH228412   5.305   5.747   0.163 -0.5578  0.4783 -0.3742
 9483TIP3    H128413   5.376   5.758   0.226 -0.1244 -0.1432 -0.7403
 9483TIP3    H228414   5.346   5.703   0.088 -1.3846 -0.1424 -0.4813
 9484TIP3   OH228415   1.250   4.417   0.009 -0.0050  0.0101  0.0517
 9484TIP3    H128416   1.327   4.437  -0.045  0.2684 -2.1430 -0.4557
 9484TIP3    H228417   1.282   4.353   0.073 -1.1438 -0.1750  0.4557
 9485TIP3   OH228418   5.087   3.774   1.780  0.3835  0.3991 -0.0498
 9485TIP3    H128419   5.045   3.742   1.860 -1.2110 -1.3962 -1.5004
 9485TIP3    H228420   5.078   3.869   1.785 -0.0687  0.3034  1.6885
 9486TIP3   OH228421   2.029   1.257   5.210  0.2475 -0.1502  0.6068
 9486TIP3    H128422   2.067   1.241   5.124 -0.2158 -0.7514  0.5093
 9486TIP3    H228423   2.014   1.352   5.212  0.6948 -0.0696  0.2113
 9487TIP3   OH228424   3.637   6.267   5.505  0.1669 -0.1260 -0.2541
 9487TIP3    H128425   3.707   6.331   5.514 -0.5751  0.4914  1.8269
 9487TIP3    H228426   3.643   6.213   5.584 -0.5206 -1.3068 -0.9662
 9488TIP3   OH228427   3.929   1.850   2.945 -0.2521 -0.3227 -0.3933
 9488TIP3    H128428   3.862   1.869   2.880 -1.4389 -1.0985  0.5668
 9488TIP3    H228429   4.009   1.837   2.893 -0.1538  3.2855 -1.3631
 9489TIP3   OH228430   6.050   0.561   3.355 -0.3220  0.3212  0.0840
 9489TIP3    H128431   6.140   0.536   3.331 -0.9295 -1.4198 -0.5172
 9489TIP3    H228432   6.046   0.552   3.450  0.2396  0.8059  0.1597
 9490TIP3   OH228433   0.007   2.265   3.506 -0.2117  0.8205  0.0300
 9490TIP3    H128434   0.083   2.268   3.564 -0.6523 -0.0529  0.6655
 9490TIP3    H228435   0.044   2.242   3.420  0.2030 -0.0949  0.4376
 9491TIP3   OH228436   6.597   3.964   0.160 -0.3355  0.6998 -0.2609
 9491TIP3    H128437   6.678   3.914   0.168  0.6837  2.3878  0.7213
 9491TIP3    H228438   6.609   4.018   0.082 -1.3393 -0.3789 -1.2020
 9492TIP3   OH228439   4.537   2.739   4.011 -0.2553  0.0362  0.5744
 9492TIP3    H128440   4.528   2.771   4.101 -0.4794 -0.8157  0.8690
 9492TIP3    H228441   4.468   2.672   4.002 -1.3228  1.2381 -0.7641
 9493TIP3   OH228442   3.711   4.311   2.160 -0.2131 -0.1392  0.6887
 9493TIP3    H128443   3.695   4.239   2.222 -1.4084 -2.6069 -2.2424
 9493TIP3    H228444   3.806   4.314   2.151 -0.1144 -3.6502 -1.3558
 9494TIP3   OH228445   4.515   5.862   4.740  0.0608 -0.2263  0.9444
 9494TIP3    H128446   4.462   5.936   4.710  1.7611  0.9269  0.6257
 9494TIP3    H228447   4.513   5.800   4.668  1.5974  1.1743 -0.4009
 9495TIP3   OH228448   4.398   3.422   3.984 -0.3104 -0.2043 -0.0518
 9495TIP3    H128449   4.419   3.332   4.010  1.2155  0.0023 -0.5026
 9495TIP3    H228450   4.399   3.471   4.066  0.2538 -0.3455  0.0300
 9496TIP3   OH228451   5.982   1.614   2.564  0.7419 -0.2003  0.0949
 9496TIP3    H128452   6.053   1.623   2.501  4.0360 -1.0121  3.3175
 9496TIP3    H228453   5.953   1.524   2.555 -0.2140  0.2218 -1.4595
 9497TIP3   OH228454   1.885   5.816   2.302  0.3383  0.1744 -0.3016
 9497TIP3    H128455   1.833   5.878   2.249  1.0576  0.7504 -0.3483
 9497TIP3    H228456   1.924   5.870   2.370 -0.2952 -0.5122  0.6287
 9498TIP3   OH228457   3.428   3.273   2.974 -0.2860  0.6930 -0.0140
 9498TIP3    H128458   3.478   3.195   2.999 -2.2815 -0.6086  0.0878
 9498TIP3    H228459   3.485   3.320   2.913  1.0897 -0.6681  0.1757
 9499TIP3   OH228460   5.744   4.178   2.050  0.1776  0.1972  0.0749
 9499TIP3    H128461   5.669   4.197   2.108  0.3369  0.6333  0.1405
 9499TIP3    H228462   5.737   4.242   1.980 -0.2792 -0.6274 -0.6479
 9500TIP3   OH228463   3.932   4.595   2.865 -0.0813 -0.3231  0.0515
 9500TIP3    H128464   3.991   4.519   2.864 -0.0026 -0.2595 -0.0933
 9500TIP3    H228465   3.847   4.559   2.840  0.3191 -0.0592 -1.7996
 9501TIP3   OH228466   2.610   2.183   0.332 -0.1202  0.1279  0.1887
 9501TIP3    H128467   2.592   2.162   0.424  1.3204  0.9083  0.6852
 9501TIP3    H228468   2.527   2.215   0.297 -0.4932  0.5667  1.4393
 9502TIP3   OH228469   3.596   5.156   1.932 -0.5218  0.6393 -0.3829
 9502TIP3    H128470   3.623   5.065   1.948  1.2740  1.5108  2.0742
 9502TIP3    H228471   3.537   5.176   2.004  2.1974  2.5164  1.5508
 9503TIP3   OH228472   5.475   5.829   1.463  0.1903 -0.3681 -0.6722
 9503TIP3    H128473   5.527   5.905   1.489  0.4276 -0.3641 -1.1412
 9503TIP3    H228474   5.448   5.850   1.373 -3.2880  1.1359  0.5259
 9504TIP3   OH228475   2.355   0.070   2.034  0.1863  0.2739 -0.5394
 9504TIP3    H128476   2.333   0.146   1.980 -1.3345  1.5775  1.7514
 9504TIP3    H228477   2.451   0.065   2.030  0.3777  2.6693 -0.3821
 9505TIP3   OH228478   2.068   2.788   3.323  0.0967  0.2726  0.1130
 9505TIP3    H128479   2.056   2.694   3.331  0.6487  0.3197  1.8307
 9505TIP3    H228480   2.037   2.809   3.235 -0.8083 -1.3838  0.0072
 9506TIP3   OH228481   1.667   6.540   3.704  0.0211 -0.3022  0.2640
 9506TIP3    H128482   1.644   6.632   3.689 -1.9421 -0.6485  0.8162
 9506TIP3    H228483   1.759   6.534   3.680 -0.1844  1.4854 -1.2076
 9507TIP3   OH228484   4.275   2.844   3.482 -0.0068  0.5408 -0.1707
 9507TIP3    H128485   4.318   2.825   3.398  0.6762  0.3650  0.2063
 9507TIP3    H228486   4.185   2.867   3.459 -0.0725 -0.3658 -0.8801
 9508TIP3   OH228487   1.850   5.438   1.734 -0.2189 -0.4526  0.5627
 9508TIP3    H128488   1.874   5.451   1.642 -0.6153 -2.3759  0.1591
 9508TIP3    H228489   1.771   5.491   1.745 -0.4749 -0.6352 -0.3461
 9509TIP3   OH228490   4.531   6.308   3.535 -0.3124 -0.5180 -0.2763
 9509TIP3    H128491   4.542   6.388   3.587 -0.1415 -1.1031  0.6017
 9509TIP3    H228492   4.438   6.307   3.512 -0.5588 -0.6411  0.6762
 9510TIP3   OH228493   3.601   1.547   0.212  0.2236 -0.2923  0.3066
 9510TIP3    H128494   3.637   1.489   0.279 -0.0683  0.2285  0.9262
 9510TIP3    H228495   3.506   1.542   0.223  0.1665 -0.3033 -0.1585
 9511TIP3   OH228496   1.750   5.221   4.658  0.2661  0.2042  0.0446
 9511TIP3    H128497   1.747   5.299   4.714 -2.0879 -0.7464  1.3653
 9511TIP3    H228498   1.701   5.154   4.706 -2.0595 -0.6610 -3.1621
 9512TIP3   OH228499   5.288   2.908   2.995  0.4380  0.2250 -0.9191
 9512TIP3    H128500   5.216   2.856   2.960  1.6686 -1.2903 -1.3286
 9512TIP3    H228501   5.342   2.845   3.042  1.4546  1.3411 -0.5274
 9513TIP3   OH228502   5.622   4.398   4.625  0.0908 -0.2836 -1.0249
 9513TIP3    H128503   5.657   4.486   4.636 -0.3311 -0.1576 -0.6466
 9513TIP3    H228504   5.699   4.342   4.619  0.3615  0.1152 -1.2969
 9514TIP3   OH228505   5.015   4.121   4.146 -0.4708 -0.0886 -0.0860
 9514TIP3    H128506   5.082   4.177   4.106  1.5611 -1.8261  0.7233
 9514TIP3    H228507   5.014   4.042   4.092 -1.2496 -0.4497  0.4372
 9515TIP3   OH228508   2.117   2.420   5.875  0.2270  0.4186 -0.0080
 9515TIP3    H128509   2.152   2.340   5.915  0.5279  0.9013  0.7165
 9515TIP3    H228510   2.060   2.388   5.805  1.7786 -0.4085 -0.9682
 9516TIP3   OH228511   5.134   6.463   2.680 -0.2265  0.2424  0.2782
 9516TIP3    H128512   5.141   6.456   2.775  0.0580  0.8620  0.3066
 9516TIP3    H228513   5.158   6.375   2.648 -0.1757  0.0756  0.7676
 9517TIP3   OH228514   0.771   4.409   2.384  0.8023  0.4287  0.5806
 9517TIP3    H128515   0.830   4.347   2.427  1.2009  0.6537  0.3636
 9517TIP3    H228516   0.684   4.384   2.414  0.9723 -0.1481  0.6068
 9518TIP3   OH228517   1.762   0.658   1.411  0.0834  0.1746  0.3860
 9518TIP3    H128518   1.758   0.568   1.442  0.5749 -0.1674 -0.5065
 9518TIP3    H228519   1.791   0.651   1.320 -0.2704  1.2110  0.1804
 9519TIP3   OH228520   3.803   5.788   4.851  1.1668 -0.4497 -0.0974
 9519TIP3    H128521   3.742   5.829   4.913  1.3801 -1.4564  0.7983
 9519TIP3    H228522   3.889   5.800   4.890  1.1935 -2.1337  0.4169
 9520TIP3   OH228523   1.190   5.438   4.397  0.2250 -0.4775 -0.5257
 9520TIP3    H128524   1.190   5.369   4.463  0.8587  0.8819  0.9578
 9520TIP3    H228525   1.280   5.441   4.367 -0.2565 -1.7779 -2.2829
 9521TIP3   OH228526   5.026   0.975   3.165 -0.1572  0.6338 -0.3535
 9521TIP3    H128527   4.956   1.025   3.208 -0.4426  0.1863 -0.2891
 9521TIP3    H228528   4.994   0.885   3.165  0.1897  0.5085 -0.8041
 9522TIP3   OH228529   4.007   3.049   1.049  0.1860 -0.3664 -0.3332
 9522TIP3    H128530   4.061   3.049   1.128 -0.8185  1.0940  0.4027
 9522TIP3    H228531   3.935   2.989   1.068  0.3407 -0.5884 -0.4409
 9523TIP3   OH228532   6.739   2.133   2.834  0.4489 -0.6575  0.5599
 9523TIP3    H128533   6.834   2.144   2.831  0.2594  1.0103 -0.7082
 9523TIP3    H228534   6.710   2.146   2.744 -1.0140 -1.0357  0.9384
 9524TIP3   OH228535   0.247   3.666   1.053  0.1378  0.2926  0.4759
 9524TIP3    H128536   0.185   3.674   1.126 -0.3661  0.2924  0.0525
 9524TIP3    H228537   0.241   3.574   1.027  1.2090 -0.0113  1.1992
 9525TIP3   OH228538   0.100   5.590   1.991  0.4098  0.4642 -0.7789
 9525TIP3    H128539   0.126   5.679   1.965 -0.0962  0.8663  0.0847
 9525TIP3    H228540   0.012   5.579   1.956  0.1989  0.5628 -0.2854
 9526TIP3   OH228541   0.113   4.597   5.037  0.7450  0.2369 -0.0419
 9526TIP3    H128542   0.128   4.603   5.131 -2.4610  1.1442  0.5570
 9526TIP3    H228543   0.081   4.508   5.024  3.0551 -0.5626 -0.6997
 9527TIP3   OH228544   3.408   5.272   2.108 -0.0917  0.1399  0.2807
 9527TIP3    H128545   3.389   5.252   2.199 -0.2480 -0.8553  0.0424
 9527TIP3    H228546   3.448   5.359   2.110  0.4197 -0.1130  1.3464
 9528TIP3   OH228547   3.479   2.756   1.660 -0.6682 -0.1672 -0.3133
 9528TIP3    H128548   3.495   2.664   1.637  1.7158  0.5488 -1.9323
 9528TIP3    H228549   3.547   2.776   1.724 -0.2192  0.8111 -1.0650
 9529TIP3   OH228550   1.583   5.314   3.072 -0.0926 -0.4226 -0.3349
 9529TIP3    H128551   1.586   5.354   3.159  0.9807  1.3775 -1.1491
 9529TIP3    H228552   1.655   5.251   3.072  1.3438  1.1372 -0.5868
 9530TIP3   OH228553   0.553   2.604   2.235  0.0647 -0.7434  0.3687
 9530TIP3    H128554   0.639   2.569   2.255  0.0983 -0.3554  0.9382
 9530TIP3    H228555   0.569   2.697   2.217 -0.0942 -0.8922 -0.5672
 9531TIP3   OH228556   1.411   0.235   1.641  0.3156  0.2015  0.5892
 9531TIP3    H128557   1.470   0.171   1.602  0.7511  0.9984 -0.0805
 9531TIP3    H228558   1.363   0.186   1.708  0.5003 -0.8636 -0.0482
 9532TIP3   OH228559   0.067   6.264   1.299  0.2227 -0.5221 -0.2603
 9532TIP3    H128560   0.060   6.186   1.353  0.5107 -0.5494 -0.2617
 9532TIP3    H228561   0.025   6.240   1.216  0.3012 -0.6746 -0.2564
 9533TIP3   OH228562   2.339   5.412   4.527  0.7131 -0.5829 -0.6889
 9533TIP3    H128563   2.413   5.443   4.475  1.5606 -2.3768 -0.6123
 9533TIP3    H228564   2.263   5.457   4.490  1.5333 -0.4754 -2.3072
 9534TIP3   OH228565   4.486   6.133   2.917  0.6184  0.0215 -0.6743
 9534TIP3    H128566   4.522   6.218   2.894 -0.9500  0.9045 -0.0170
 9534TIP3    H228567   4.435   6.107   2.840  1.3654 -0.4975 -1.0041
 9535TIP3   OH228568   4.856   2.719   0.116  0.5506 -0.6065  0.5036
 9535TIP3    H128569   4.928   2.718   0.180 -0.2285 -1.7609  1.4181
 9535TIP3    H228570   4.830   2.627   0.109  0.0874 -0.3878 -0.8952
 9536TIP3   OH228571   1.398   6.488   0.621 -0.2275 -0.0815 -0.2724
 9536TIP3    H128572   1.489   6.460   0.630 -0.3823 -0.1637  1.4680
 9536TIP3    H228573   1.376   6.471   0.530  1.8528  1.0630 -1.0348
 9537TIP3   OH228574   6.323   6.613   5.856 -0.1398 -0.2645  0.6476
 9537TIP3    H128575   6.230   6.591   5.859 -0.2500  0.2009  0.7071
 9537TIP3    H228576   6.342   6.627   5.763 -0.1936 -0.0866  0.6639
 9538TIP3   OH228577   3.443   0.226   4.684 -0.2039  0.0798  0.3164
 9538TIP3    H128578   3.516   0.284   4.663 -1.1510  1.2280  0.0751
 9538TIP3    H228579   3.398   0.269   4.756 -1.2807 -0.0163 -0.2689
 9539TIP3   OH228580   6.410   2.642   4.459 -0.0738  0.3167  0.3427
 9539TIP3    H128581   6.429   2.710   4.524 -0.2924  0.6346  0.0750
 9539TIP3    H228582   6.473   2.572   4.479 -1.4961 -0.5195  2.2381
 9540TIP3   OH228583   4.297   1.321   4.983 -0.4458  0.3872 -0.1725
 9540TIP3    H128584   4.213   1.286   4.954  0.2853 -0.5859 -1.2249
 9540TIP3    H228585   4.346   1.336   4.902  0.0283  1.9263  0.3670
 9541TIP3   OH228586   6.060   2.274   1.100 -0.1004  0.2710 -0.1853
 9541TIP3    H128587   6.088   2.309   1.185  0.1356  0.6824 -0.4243
 9541TIP3    H228588   6.109   2.193   1.090  0.4838  0.6314 -0.2865
 9542TIP3   OH228589   0.657   1.403   0.258  0.5943 -0.1546 -0.0610
 9542TIP3    H128590   0.615   1.322   0.231 -0.4985  0.4249 -0.1579
 9542TIP3    H228591   0.635   1.413   0.350 -0.8561  0.9291 -0.4797
 9543TIP3   OH228592   2.467   3.301   5.854  0.7515  0.2619  0.2174
 9543TIP3    H128593   2.385   3.343   5.829  0.1168 -0.9586  0.1671
 9543TIP3    H228594   2.444   3.209   5.869  1.8072  0.1849  1.6944
 9544TIP3   OH228595   5.379   2.381   0.273 -0.0376  0.0623  0.0716
 9544TIP3    H128596   5.413   2.460   0.231 -0.1444 -0.2955 -0.7164
 9544TIP3    H228597   5.392   2.312   0.208  1.1127 -0.8133  1.1796
 9545TIP3   OH228598   2.014   5.675   5.150  0.4648  0.2044 -0.0845
 9545TIP3    H128599   2.000   5.765   5.182  1.2077 -0.1003  1.1686
 9545TIP3    H228600   1.968   5.621   5.214 -0.2196 -0.3076 -0.9936
 9546TIP3   OH228601   3.765   0.284   2.730 -0.1041 -0.3501 -0.4560
 9546TIP3    H128602   3.712   0.204   2.725  0.2649 -0.7447  1.2012
 9546TIP3    H228603   3.827   0.266   2.801  1.7386  0.4040 -1.8129
 9547TIP3   OH228604   0.697   2.207   1.793 -0.3612  0.3350  0.4946
 9547TIP3    H128605   0.715   2.126   1.745  0.7923  1.4767 -1.0596
 9547TIP3    H228606   0.612   2.237   1.760  0.0614  0.7043 -0.2589
 9548TIP3   OH228607   1.619   4.007   1.163 -0.0413  0.1162  0.0587
 9548TIP3    H128608   1.644   3.992   1.254  0.7013  0.0073 -0.1568
 9548TIP3    H228609   1.557   3.937   1.143 -0.7403  0.5431  0.6800
 9549TIP3   OH228610   1.407   2.828   0.118  0.1747  0.1303  0.0170
 9549TIP3    H128611   1.487   2.820   0.066  0.5096  0.3898  0.4810
 9549TIP3    H228612   1.434   2.879   0.195 -0.0256 -1.1799  1.0099
 9550TIP3   OH228613   6.707   0.526   2.933 -0.4695 -0.1909 -0.2448
 9550TIP3    H128614   6.636   0.588   2.948 -0.3954 -0.0043 -0.6793
 9550TIP3    H228615   6.666   0.440   2.944 -1.2824 -0.1661 -2.5659
 9551TIP3   OH228616   4.906   0.174   1.342 -0.4076 -0.0430 -0.0567
 9551TIP3    H128617   4.829   0.126   1.372 -1.6515  1.5052 -0.6145
 9551TIP3    H228618   4.903   0.257   1.390 -0.3532  0.9531 -1.6864
 9552TIP3   OH228619   3.791   4.841   1.183  0.6400  0.3394 -0.1779
 9552TIP3    H128620   3.874   4.887   1.167  1.7186 -1.4083  0.2166
 9552TIP3    H228621   3.762   4.813   1.096  0.6563  0.5957 -0.2681
 9553TIP3   OH228622   5.751   1.656   3.896  0.5213 -0.5491  0.2865
 9553TIP3    H128623   5.699   1.645   3.817 -0.2777 -0.8302  0.8384
 9553TIP3    H228624   5.817   1.721   3.872  1.5974 -2.1030 -1.2204
 9554TIP3   OH228625   1.847   2.627   0.046  0.7449  0.6790 -0.3094
 9554TIP3    H128626   1.816   2.563  -0.018 -0.1223 -0.4533  1.1931
 9554TIP3    H228627   1.902   2.576   0.106  0.8227  1.5394  0.3639
 9555TIP3   OH228628   4.230   5.497   3.768 -0.4473 -0.6641  0.3406
 9555TIP3    H128629   4.201   5.406   3.774 -0.6791 -0.5147  2.3963
 9555TIP3    H228630   4.153   5.548   3.795 -0.6073  0.2387 -1.6309
 9556TIP3   OH228631   5.583   0.023   4.822  0.4078 -0.8588  0.1684
 9556TIP3    H128632   5.612   0.042   4.733  1.4335  1.5487  0.9019
 9556TIP3    H228633   5.663  -0.001   4.869  0.5327  1.0979  1.1086
 9557TIP3   OH228634   4.662   5.121   2.524 -0.1893 -0.0783 -0.0990
 9557TIP3    H128635   4.723   5.102   2.453  0.2633  0.0947  0.2388
 9557TIP3    H228636   4.665   5.043   2.580 -0.6430 -0.2681 -0.3377
 9558TIP3   OH228637   3.637   1.270   3.067 -0.0551  0.3979  0.4367
 9558TIP3    H128638   3.599   1.207   3.005 -1.3188 -0.1368  1.6962
 9558TIP3    H228639   3.725   1.237   3.084 -0.1829 -0.2051 -0.0236
 9559TIP3   OH228640   6.978   6.031   5.121 -0.3506  0.0731 -0.2651
 9559TIP3    H128641   7.043   6.083   5.169  0.7866 -1.2525 -0.2950
 9559TIP3    H228642   6.937   6.093   5.061  1.7668  0.7470 -1.1157
 9560TIP3   OH228643   4.493   3.217   1.478  0.1154  0.8635  0.7165
 9560TIP3    H128644   4.553   3.232   1.405 -0.9980  2.5392  0.0843
 9560TIP3    H228645   4.501   3.123   1.497 -0.1286  0.2006 -2.0909
 9561TIP3   OH228646   5.116   4.390   4.952 -0.0665 -0.6433 -0.4773
 9561TIP3    H128647   5.122   4.367   5.045 -0.9098 -1.0030 -0.5036
 9561TIP3    H228648   5.206   4.412   4.927  0.2445 -0.9712  0.3135
 9562TIP3   OH228649   3.566   4.739   3.588 -0.2052 -0.1983 -0.6196
 9562TIP3    H128650   3.502   4.713   3.655 -1.0572  0.7265 -1.0568
 9562TIP3    H228651   3.598   4.657   3.552 -3.0158 -0.7405 -2.1527
 9563TIP3   OH228652   3.289   1.577   0.939  0.4780 -0.2194  0.1402
 9563TIP3    H128653   3.282   1.496   0.889 -0.1284  0.8784 -1.6879
 9563TIP3    H228654   3.200   1.597   0.967  0.5456  0.0377  0.1812
 9564TIP3   OH228655   0.671   2.247   4.984  0.0136  0.0325 -0.3296
 9564TIP3    H128656   0.649   2.311   5.053 -3.8246  0.6764 -1.9112
 9564TIP3    H228657   0.662   2.162   5.027 -0.8395  0.4620  0.3864
 9565TIP3   OH228658   3.401   2.791   0.799 -0.4251  0.4863  0.0645
 9565TIP3    H128659   3.309   2.766   0.801 -1.0349  2.4791  2.2352
 9565TIP3    H228660   3.435   2.752   0.719 -2.8265 -1.3496 -0.1723
 9566TIP3   OH228661   5.592   3.467   5.061  0.1421  0.5038  0.3163
 9566TIP3    H128662   5.680   3.433   5.049 -0.3717 -0.4785 -0.9140
 9566TIP3    H228663   5.564   3.431   5.145  1.0280  1.1218  0.8919
 9567TIP3   OH228664   3.895   2.242   1.018  0.0118 -0.0282 -0.4107
 9567TIP3    H128665   3.852   2.282   0.943 -1.0726  0.5133  0.4701
 9567TIP3    H228666   3.985   2.228   0.990 -0.3513  0.2404 -1.7694
 9568TIP3   OH228667   0.360   0.761   2.270 -0.4715  0.0274 -0.6534
 9568TIP3    H128668   0.380   0.758   2.176  1.7412  1.6566 -0.3210
 9568TIP3    H228669   0.276   0.807   2.274 -1.6687 -1.9061 -1.8839
 9569TIP3   OH228670   5.503   2.779   4.098  0.0280 -0.1514  0.0987
 9569TIP3    H128671   5.472   2.716   4.033 -1.3460 -0.6407  1.1606
 9569TIP3    H228672   5.598   2.767   4.100  0.0677 -0.3412 -1.5503
 9570TIP3   OH228673   5.800   0.409   4.594 -0.0254  0.0743  0.1396
 9570TIP3    H128674   5.783   0.336   4.534  1.2359 -0.7191  0.7060
 9570TIP3    H228675   5.809   0.368   4.680  1.8248  0.7375  0.3009
 9571TIP3   OH228676   2.994   4.502   1.004 -0.2184 -0.0583  0.1729
 9571TIP3    H128677   3.004   4.412   1.036  1.0411 -0.4036 -1.1044
 9571TIP3    H228678   3.044   4.504   0.922  0.9881  2.1989  0.8935
 9572TIP3   OH228679   6.587   4.363   0.219  0.2344 -0.1058  0.5994
 9572TIP3    H128680   6.600   4.452   0.187  0.4663 -0.2706  0.2324
 9572TIP3    H228681   6.492   4.351   0.220  0.2314 -0.5468 -1.2900
 9573TIP3   OH228682   4.767   0.239   5.331  0.6181 -0.1291 -0.2176
 9573TIP3    H128683   4.732   0.173   5.390 -1.5676  1.3432  0.2636
 9573TIP3    H228684   4.749   0.205   5.243 -2.0736  0.4587  0.0002
 9574TIP3   OH228685   4.986   6.325   4.035 -0.1144 -0.1328  0.4186
 9574TIP3    H128686   5.035   6.273   4.098 -1.6048 -3.2803 -0.7615
 9574TIP3    H228687   4.896   6.293   4.042 -0.8538  1.3349 -1.3837
 9575TIP3   OH228688   2.034   6.176   1.873  0.2648 -0.4371 -0.4758
 9575TIP3    H128689   1.970   6.239   1.841  1.7461  0.9190 -0.9021
 9575TIP3    H228690   2.057   6.209   1.961  1.3623 -0.0919 -0.8733
 9576TIP3   OH228691   6.943   5.136   3.722  0.3914 -0.2130  0.6840
 9576TIP3    H128692   6.937   5.041   3.714  1.4681 -0.2634  0.1905
 9576TIP3    H228693   6.929   5.154   3.815 -1.8807 -0.6449  0.4634
 9577TIP3   OH228694   0.419   0.140   3.423  0.0815  0.4861  0.2140
 9577TIP3    H128695   0.352   0.096   3.370 -0.1020  0.8776  0.1213
 9577TIP3    H228696   0.429   0.084   3.500 -0.4467  0.5014  0.2944
 9578TIP3   OH228697   0.048   3.803   0.064 -0.3451 -0.3661  0.0309
 9578TIP3    H128698   0.117   3.848   0.016 -0.4879 -0.7030 -0.5050
 9578TIP3    H228699   0.011   3.742   0.000 -3.6962  2.3987 -0.9534
 9579TIP3   OH228700   1.717   2.132   5.841  0.1736 -0.0002  0.1210
 9579TIP3    H128701   1.711   2.046   5.800 -1.3006 -0.2309  0.7620
 9579TIP3    H228702   1.658   2.127   5.916  1.1372  1.1260  0.9997
 9580TIP3   OH228703   2.956   6.563   3.113 -0.6676  0.2587  0.9958
 9580TIP3    H128704   3.007   6.503   3.168 -0.2430  1.7530  2.3220
 9580TIP3    H228705   3.019   6.629   3.086 -1.0318 -0.0809 -0.7985
 9581TIP3   OH228706   3.761   6.213   2.787 -0.1111 -0.1038  0.0850
 9581TIP3    H128707   3.695   6.165   2.837 -1.3021 -2.6419 -3.5328
 9581TIP3    H228708   3.844   6.192   2.830 -1.2548  0.2731  2.6250
 9582TIP3   OH228709   7.021   3.990   4.667 -0.0037 -0.3349  0.0912
 9582TIP3    H128710   7.020   4.048   4.591  1.7713 -0.6122 -0.1904
 9582TIP3    H228711   7.076   4.036   4.731 -0.3544 -0.7320  0.6855
 9583TIP3   OH228712   2.116   2.819   4.865  0.0924 -0.4820  1.1035
 9583TIP3    H128713   2.045   2.860   4.816  1.3340 -1.4835 -1.6970
 9583TIP3    H228714   2.195   2.866   4.838  0.8419 -1.0817  2.1754
 9584TIP3   OH228715   3.249   1.253   2.687 -0.0061 -0.1516  0.1035
 9584TIP3    H128716   3.179   1.316   2.702  0.8249  0.8384 -0.0229
 9584TIP3    H228717   3.256   1.205   2.769  0.4299  1.0518  0.7976
 9585TIP3   OH228718   2.711   0.654   1.526  0.7692 -0.4269 -0.6016
 9585TIP3    H128719   2.702   0.616   1.613 -2.6304 -0.1286 -0.6574
 9585TIP3    H228720   2.739   0.744   1.541  0.3120 -0.4097  0.1976
 9586TIP3   OH228721   6.758   0.619   1.767  0.0633 -0.0164  0.2210
 9586TIP3    H128722   6.721   0.639   1.681 -1.4028  2.2639  1.2783
 9586TIP3    H228723   6.692   0.564   1.809 -0.2832  0.7321  0.6724
 9587TIP3   OH228724   3.694   4.096   4.866  0.0117  0.9113  0.2133
 9587TIP3    H128725   3.721   4.137   4.949  0.4022  1.4010 -0.1470
 9587TIP3    H228726   3.600   4.080   4.876 -0.3456  2.6951  0.0564
 9588TIP3   OH228727   6.405   2.743   3.217  0.4834  0.0799  0.3732
 9588TIP3    H128728   6.435   2.718   3.304 -1.8322 -1.3137  0.8785
 9588TIP3    H228729   6.434   2.671   3.160 -0.5195 -0.5067  0.5809
 9589TIP3   OH228730   6.880   3.857   0.848 -0.1546 -0.2336  0.1913
 9589TIP3    H128731   6.975   3.863   0.853 -0.0956 -0.0034 -0.8974
 9589TIP3    H228732   6.848   3.892   0.931  0.7833 -2.9170  1.8054
 9590TIP3   OH228733   3.196   3.008   4.592  0.0980  0.2913 -0.5074
 9590TIP3    H128734   3.156   3.091   4.618 -0.2545  0.7398 -2.3606
 9590TIP3    H228735   3.283   3.033   4.562  0.5880 -0.2500  0.4270
 9591TIP3   OH228736   1.328   4.645   3.142  0.2690  0.4174  0.2104
 9591TIP3    H128737   1.370   4.664   3.226 -1.0568  1.5660  0.6554
 9591TIP3    H228738   1.396   4.604   3.090  0.6604 -2.1458  2.4854
 9592TIP3   OH228739   5.697   5.719   5.306  0.3385  0.2825 -0.0989
 9592TIP3    H128740   5.620   5.761   5.344 -0.5979 -1.1433 -0.3506
 9592TIP3    H228741   5.680   5.720   5.212  0.6970  0.1179 -0.1662
 9593TIP3   OH228742   2.521   1.884   2.826 -0.4094  0.3782  0.3150
 9593TIP3    H128743   2.465   1.931   2.765  1.0135  1.2463 -0.3904
 9593TIP3    H228744   2.586   1.841   2.770 -0.9061 -1.3878  1.0394
 9594TIP3   OH228745   3.025   2.258   5.801 -0.1842 -0.6662 -0.5983
 9594TIP3    H128746   3.049   2.175   5.760 -0.9090 -1.0503 -0.2570
 9594TIP3    H228747   2.932   2.269   5.780 -0.4706 -0.6874  0.6214
 9595TIP3   OH228748   3.787   5.066   0.699 -0.0679  0.2072 -0.4868
 9595TIP3    H128749   3.785   4.975   0.728  1.7672  0.3282  0.1302
 9595TIP3    H228750   3.806   5.060   0.605 -1.4837 -0.0613 -0.7765
 9596TIP3   OH228751   4.529   4.718   4.728 -0.5367  0.5458 -0.3778
 9596TIP3    H128752   4.624   4.719   4.734 -0.5389 -0.9716  0.1745
 9596TIP3    H228753   4.498   4.710   4.818 -1.1773  0.6963 -0.5758
 9597TIP3   OH228754   2.009   0.494   3.979  0.1779 -0.4440 -0.2178
 9597TIP3    H128755   1.950   0.569   3.974  0.5111 -0.2742 -2.2463
 9597TIP3    H228756   2.084   0.526   4.029  0.6438  0.8475 -1.6740
 9598TIP3   OH228757   3.745   1.345   2.429 -0.5039  0.5236 -0.0736
 9598TIP3    H128758   3.675   1.395   2.386  1.8667  2.1591 -2.3721
 9598TIP3    H228759   3.798   1.313   2.356  1.1934 -0.5799  1.5790
 9599TIP3   OH228760   6.872   6.665   1.480 -0.5704  0.2512 -0.5966
 9599TIP3    H128761   6.956   6.696   1.512 -0.8420  0.8568 -0.4740
 9599TIP3    H228762   6.823   6.744   1.459 -1.3674 -0.0782 -0.0248
 9600TIP3   OH228763   2.983   6.546   2.694  0.0664 -0.1108  0.0533
 9600TIP3    H128764   3.064   6.536   2.744  0.7637  0.7880 -0.8349
 9600TIP3    H228765   2.952   6.457   2.679 -0.1781 -0.3961  2.0767
 9601TIP3   OH228766   1.132   3.741   3.962 -0.1968 -0.0613 -0.3800
 9601TIP3    H128767   1.179   3.806   4.014  0.6517  0.1761 -1.4051
 9601TIP3    H228768   1.197   3.710   3.898 -0.7732 -1.4286 -0.3421
 9602TIP3   OH228769   5.437   1.846   4.611 -0.1065  0.9457  0.0783
 9602TIP3    H128770   5.375   1.836   4.683 -1.1700  1.6770 -0.7058
 9602TIP3    H228771   5.383   1.862   4.534  0.9410 -0.9212 -1.1347
 9603TIP3   OH228772   3.364   2.737   2.475 -0.5303 -0.1568  0.3794
 9603TIP3    H128773   3.413   2.819   2.475  0.9082 -0.9588  1.9728
 9603TIP3    H228774   3.315   2.738   2.393 -0.7546  2.3893  0.4631
 9604TIP3   OH228775   2.949   0.308   0.326 -1.1209  0.5715 -0.2964
 9604TIP3    H128776   2.955   0.316   0.230  1.6351  0.0063 -0.2528
 9604TIP3    H228777   2.923   0.395   0.355  1.1608  1.7012 -1.4125
 9605TIP3   OH228778   6.581   1.609   4.124  0.0494 -0.1691 -0.1485
 9605TIP3    H128779   6.602   1.701   4.105  1.3332 -1.0233 -3.7598
 9605TIP3    H228780   6.488   1.601   4.102  0.0322  0.1876 -0.2116
 9606TIP3   OH228781  -0.008   4.166   4.811  0.5515  0.3631 -0.4296
 9606TIP3    H128782   0.008   4.186   4.904  0.5773  0.2014 -0.3990
 9606TIP3    H228783   0.077   4.135   4.778  0.6324  0.7564 -0.5970
 9607TIP3   OH228784   4.719   3.149   5.781 -0.1166 -0.0472 -0.9225
 9607TIP3    H128785   4.693   3.063   5.748  0.9339 -0.8871  0.3703
 9607TIP3    H228786   4.765   3.131   5.862  0.3055  1.7390 -0.7261
 9608TIP3   OH228787   2.633   4.681   2.912 -0.3920 -0.4976 -0.5998
 9608TIP3    H128788   2.623   4.751   2.847 -0.4124  0.2346  0.1677
 9608TIP3    H228789   2.693   4.718   2.977 -0.9968 -0.9136  0.2107
 9609TIP3   OH228790   1.682   4.205   3.449  0.1679 -0.4595  0.1426
 9609TIP3    H128791   1.618   4.249   3.506  0.4603 -1.1810  1.0505
 9609TIP3    H228792   1.766   4.242   3.474  0.2321 -0.2985 -0.2976
 9610TIP3   OH228793   6.259   1.471   3.424  0.1446  0.0737  0.0680
 9610TIP3    H128794   6.297   1.522   3.495 -0.3076 -0.5703  0.7870
 9610TIP3    H228795   6.328   1.467   3.358  0.0439  1.9970 -0.2298
 9611TIP3   OH228796   3.807   1.507   2.018 -0.4110 -0.1267 -0.4332
 9611TIP3    H128797   3.772   1.422   1.990 -1.8848  0.2767  0.1096
 9611TIP3    H228798   3.742   1.541   2.079  1.9905 -0.3610  2.4871
 9612TIP3   OH228799   4.710  -0.008   2.845 -0.4582 -0.2019  0.3786
 9612TIP3    H128800   4.759   0.005   2.764 -1.3409 -0.8685 -0.2807
 9612TIP3    H228801   4.626   0.036   2.830 -0.4930 -0.0079  1.0796
 9613TIP3   OH228802   5.304   4.473   3.867 -0.2991  0.1519 -0.0501
 9613TIP3    H128803   5.286   4.380   3.855 -0.4280  0.0286  0.9756
 9613TIP3    H228804   5.313   4.508   3.779 -0.5621 -0.7723 -0.4504
 9614TIP3   OH228805   3.868   0.027   3.896  0.3307 -0.0441  0.2020
 9614TIP3    H128806   3.795   0.034   3.958 -0.9209 -1.8026 -0.9918
 9614TIP3    H228807   3.826   0.024   3.810  2.0164  2.3042 -0.8141
 9615TIP3   OH228808   1.753   1.966   5.315  0.2991 -0.7134  0.1018
 9615TIP3    H128809   1.838   2.006   5.295  0.4993 -1.0310  0.3052
 9615TIP3    H228810   1.708   2.031   5.369  1.5701 -1.7079  2.5111
 9616TIP3   OH228811   3.185   4.138   3.405  0.0756  0.4417  0.2130
 9616TIP3    H128812   3.174   4.086   3.485  1.7369 -1.0912 -0.4854
 9616TIP3    H228813   3.159   4.080   3.334  0.6757  1.0201 -0.4971
 9617TIP3   OH228814   3.713   5.270   2.353 -0.3257  0.1432  0.3221
 9617TIP3    H128815   3.776   5.214   2.398  1.0870  0.7891 -0.7563
 9617TIP3    H228816   3.710   5.351   2.404 -0.7103 -0.0954  0.6800
 9618TIP3   OH228817   1.259   2.992   5.396 -0.1006  0.3376  0.4079
 9618TIP3    H128818   1.187   3.026   5.343 -0.5288  0.4613  1.0580
 9618TIP3    H228819   1.319   3.066   5.404 -0.3474  0.5169  0.6313
 9619TIP3   OH228820   3.352   4.381   3.045  0.7113 -0.0244  0.2516
 9619TIP3    H128821   3.425   4.342   3.093  1.2613  0.6000 -0.0456
 9619TIP3    H228822   3.352   4.473   3.071 -0.7572 -0.2591  1.1741
 9620TIP3   OH228823   4.179   4.095   2.950  0.0981 -0.2148 -0.1886
 9620TIP3    H128824   4.171   4.018   3.007 -0.3965  0.2655  0.4045
 9620TIP3    H228825   4.210   4.060   2.866 -1.2603 -1.2274 -0.3011
 9621TIP3   OH228826   0.174   1.925   4.602  0.0622  0.4382  0.3452
 9621TIP3    H128827   0.122   1.962   4.673 -2.3818 -0.0328 -1.0799
 9621TIP3    H228828   0.122   1.940   4.523  1.8843 -0.5456 -1.1409
 9622TIP3   OH228829   4.163   6.372   4.897 -0.4234 -0.2556 -0.7473
 9622TIP3    H128830   4.113   6.324   4.963 -0.4410 -1.9076 -1.8879
 9622TIP3    H228831   4.253   6.344   4.911 -0.1286  0.8848 -0.2246
 9623TIP3   OH228832   5.490   6.163  -0.016  0.2812  0.2275  0.0551
 9623TIP3    H128833   5.530   6.135   0.066  1.3072  1.9214  0.1615
 9623TIP3    H228834   5.457   6.251   0.001 -2.4710 -0.5920 -0.4004
 9624TIP3   OH228835   5.836   6.717   5.865  0.1818  0.3836 -0.2506
 9624TIP3    H128836   5.754   6.741   5.909 -0.4748 -0.4017 -1.0116
 9624TIP3    H228837   5.816   6.721   5.772  0.9525 -0.0089 -0.4414
 9625TIP3   OH228838   0.587   4.656   3.594  0.1080  0.5494  0.5226
 9625TIP3    H128839   0.586   4.561   3.605  0.6086  0.5812  0.8429
 9625TIP3    H228840   0.670   4.684   3.631 -0.1809  1.1516  0.7335
 9626TIP3   OH228841   6.191   1.319   1.738 -0.4398  0.2520  0.2588
 9626TIP3    H128842   6.131   1.366   1.797 -1.7730 -0.0450 -0.8123
 9626TIP3    H228843   6.163   1.344   1.650 -0.2950 -1.4484 -0.3116
 9627TIP3   OH228844   5.867   1.366   3.994 -0.0529 -0.4832  0.1372
 9627TIP3    H128845   5.889   1.273   3.988  0.7045 -0.4643  2.0306
 9627TIP3    H228846   5.778   1.371   3.958 -0.5699 -2.1390  1.0440
 9628TIP3   OH228847   1.160   2.366   4.651  0.1278  0.3523  0.5026
 9628TIP3    H128848   1.151   2.360   4.556  1.0643  2.2907  0.2387
 9628TIP3    H228849   1.254   2.350   4.667  0.4683  2.3595  0.8065
 9629TIP3   OH228850   1.554   3.462   5.680 -0.0589  0.4299 -0.5262
 9629TIP3    H128851   1.508   3.533   5.635 -1.9805 -0.5763 -0.2358
 9629TIP3    H228852   1.566   3.495   5.769  0.7449  1.0953 -0.8621
 9630TIP3   OH228853   4.886   3.278   0.597 -0.1870  0.2060  0.2325
 9630TIP3    H128854   4.815   3.235   0.646 -0.2115  0.8781  0.8075
 9630TIP3    H228855   4.887   3.233   0.513  0.4630 -1.6014  1.1565
 9631TIP3   OH228856   2.975   1.499   1.511 -0.1817  0.1340  0.6152
 9631TIP3    H128857   3.070   1.511   1.507 -0.1252 -0.1886  1.0056
 9631TIP3    H228858   2.946   1.559   1.581 -0.3179  0.5308  0.2257
 9632TIP3   OH228859   2.499   2.415   5.845  0.2683 -0.3226  0.2176
 9632TIP3    H128860   2.472   2.325   5.866 -0.1645 -0.7284 -1.8541
 9632TIP3    H228861   2.561   2.438   5.914  0.0991 -2.0721  1.0127
 9633TIP3   OH228862   4.478   0.465   2.966  0.0135 -0.0841 -0.1154
 9633TIP3    H128863   4.519   0.450   3.050  1.3330 -0.7560 -0.8479
 9633TIP3    H228864   4.462   0.560   2.963  0.3372  0.0022  0.7012
 9634TIP3   OH228865   4.964   0.370   4.533 -0.1519 -0.2022 -0.7960
 9634TIP3    H128866   4.885   0.419   4.555 -1.4446 -2.1447 -0.8679
 9634TIP3    H228867   4.998   0.339   4.616  0.4011  0.3995 -0.7896
 9635TIP3   OH228868   1.820   1.026   2.647  0.6886 -0.8209  0.7105
 9635TIP3    H128869   1.738   0.987   2.677  0.2300  0.7241  1.5577
 9635TIP3    H228870   1.856   1.070   2.724  1.3869  0.0713 -0.0975
 9636TIP3   OH228871   6.616   0.976   5.467 -0.4826  0.6126 -0.3313
 9636TIP3    H128872   6.550   0.976   5.397  0.3037  1.1133 -1.0963
 9636TIP3    H228873   6.682   1.039   5.438  1.1220 -0.9913 -0.3402
 9637TIP3   OH228874   4.954   6.159   4.736  0.3141 -0.0030  0.6306
 9637TIP3    H128875   4.900   6.090   4.697  0.0817  0.7334 -0.3975
 9637TIP3    H228876   5.012   6.113   4.796 -0.5301 -0.9710  0.7363
 9638TIP3   OH228877   5.954   4.025   4.784  0.1252  0.1546  0.4235
 9638TIP3    H128878   5.971   3.932   4.796 -1.3660 -0.0753  1.0348
 9638TIP3    H228879   5.876   4.028   4.728  1.6761  1.1134 -1.8315
 9639TIP3   OH228880   2.132   0.445   0.696 -0.1921  0.0916  0.1830
 9639TIP3    H128881   2.121   0.526   0.746  0.4558  0.0034  0.4870
 9639TIP3    H228882   2.161   0.474   0.609  2.8027  0.1528  1.0731
 9640TIP3   OH228883   0.889   0.240   2.006  0.1559  0.1564 -0.4148
 9640TIP3    H128884   0.907   0.250   1.913  0.6572 -0.2325 -0.3651
 9640TIP3    H228885   0.820   0.174   2.010  0.6436 -0.3755 -0.4876
 9641TIP3   OH228886   3.471   1.408   3.258 -0.0113  0.7733  0.0114
 9641TIP3    H128887   3.486   1.474   3.190  0.1266  0.0091 -0.7032
 9641TIP3    H228888   3.506   1.327   3.222 -1.2537  0.0373  0.3852
 9642TIP3   OH228889   2.530   1.573   2.536  0.1334 -0.0749 -0.2667
 9642TIP3    H128890   2.576   1.634   2.594  0.8104  0.0216 -0.8886
 9642TIP3    H228891   2.454   1.622   2.505  0.1087  0.0882  0.0492
 9643TIP3   OH228892   6.413   0.577   4.862 -0.0451  0.1922  0.3411
 9643TIP3    H128893   6.351   0.506   4.876  0.4104 -0.0465  1.1703
 9643TIP3    H228894   6.389   0.612   4.776  0.4388 -1.6751 -0.6014
 9644TIP3   OH228895   2.795   1.415   0.125  0.1546  0.1359  0.6051
 9644TIP3    H128896   2.790   1.398   0.031  0.0753  0.1033  0.6145
 9644TIP3    H228897   2.723   1.477   0.142 -1.4487 -1.7299  1.0457
 9645TIP3   OH228898   5.222   3.197   5.066  0.3436 -0.2912 -0.0409
 9645TIP3    H128899   5.217   3.286   5.102 -1.2588 -0.1794 -0.4943
 9645TIP3    H228900   5.138   3.184   5.022 -0.4146 -2.8756  1.9478
 9646TIP3   OH228901   0.600   4.030   4.350  0.0219 -0.1695  0.0115
 9646TIP3    H128902   0.602   3.956   4.289 -0.5833 -0.9724  0.9241
 9646TIP3    H228903   0.589   4.107   4.294  0.0406 -0.8211 -0.9212
 9647TIP3   OH228904   4.511   1.972   4.963 -0.0077 -0.6156  0.1845
 9647TIP3    H128905   4.551   1.885   4.960  0.1077 -0.5459 -0.6788
 9647TIP3    H228906   4.417   1.955   4.958  0.0317 -0.6848 -0.4903
 9648TIP3   OH228907   5.394   3.302   3.939 -0.2725 -0.2487 -0.2322
 9648TIP3    H128908   5.383   3.380   3.993  0.1895 -1.0224  1.0131
 9648TIP3    H228909   5.408   3.336   3.850 -2.3224  1.0053 -0.1244
 9649TIP3   OH228910   3.978   4.187   5.432 -0.4356  0.9298  0.2121
 9649TIP3    H128911   3.958   4.212   5.342 -0.6107 -0.7452 -0.2432
 9649TIP3    H228912   4.074   4.191   5.438 -0.2544 -0.9958 -0.7222
 9650TIP3   OH228913   3.778   1.654   3.871  0.6231 -0.0004 -0.0234
 9650TIP3    H128914   3.812   1.589   3.933  1.2720  0.9100  0.6121
 9650TIP3    H228915   3.847   1.664   3.806 -0.0569 -0.9501 -0.9121
 9651TIP3   OH228916   2.129   6.131   4.751  0.3027 -0.1667 -0.2115
 9651TIP3    H128917   2.059   6.171   4.699  0.7720  1.6256  0.4632
 9651TIP3    H228918   2.185   6.204   4.778  0.3524 -1.0420  2.4244
 9652TIP3   OH228919   1.696   0.398   1.178  0.2165 -0.2189 -0.3916
 9652TIP3    H128920   1.638   0.356   1.242 -1.0424 -0.3695 -1.5760
 9652TIP3    H228921   1.649   0.391   1.095  1.2633  1.0327 -1.1288
 9653TIP3   OH228922   5.056   2.893   4.020  0.3784 -0.7286 -0.0654
 9653TIP3    H128923   5.105   2.837   4.080 -0.8500 -2.9409 -1.0020
 9653TIP3    H228924   4.971   2.851   4.011 -1.1023  1.9858  0.0725
 9654TIP3   OH228925   2.021   6.381   4.624  0.0289 -0.3985  0.3960
 9654TIP3    H128926   1.979   6.370   4.539  0.2856 -0.1984  0.2404
 9654TIP3    H228927   2.057   6.470   4.622  0.2592 -0.4841  0.6122
 9655TIP3   OH228928   0.143   0.635   1.264  0.4528  0.2869  0.2981
 9655TIP3    H128929   0.088   0.663   1.192  0.5416 -0.8510 -0.2325
 9655TIP3    H228930   0.200   0.710   1.282  0.5978  0.5040 -0.9903
 9656TIP3   OH228931   2.724   3.255   3.243 -0.0169 -0.1286 -0.0303
 9656TIP3    H128932   2.658   3.186   3.230  0.4573 -0.5542 -0.2125
 9656TIP3    H228933   2.730   3.298   3.157  0.0650 -0.2021 -0.0617
 9657TIP3   OH228934   4.928   2.661   4.793 -0.3852  0.8173  0.1170
 9657TIP3    H128935   4.988   2.724   4.752  0.5087 -0.6918 -1.0096
 9657TIP3    H228936   4.982   2.616   4.858 -0.3161 -0.4428 -0.7900
 9658TIP3   OH228937   5.459   5.302   0.510 -0.0952  0.9097 -0.0171
 9658TIP3    H128938   5.441   5.395   0.500  1.3321  1.2795  0.5448
 9658TIP3    H228939   5.542   5.299   0.558 -0.1956 -0.6515  0.1055
 9659TIP3   OH228940   5.076   2.233   5.773 -0.3075 -0.3279 -0.2364
 9659TIP3    H128941   5.105   2.230   5.682  0.9124 -1.1924  0.1480
 9659TIP3    H228942   4.987   2.198   5.772 -0.5571  0.2867 -1.1646
 9660TIP3   OH228943   4.336   0.302   1.556 -1.0401  0.0257  0.2691
 9660TIP3    H128944   4.385   0.384   1.556 -0.0777 -0.4407 -2.6336
 9660TIP3    H228945   4.321   0.283   1.649 -0.0186  2.7058  1.0624
 9661TIP3   OH228946   1.971   5.421   0.721 -0.6755 -0.0924 -0.1044
 9661TIP3    H128947   2.038   5.372   0.673 -0.5602  0.0299 -0.0678
 9661TIP3    H228948   2.007   5.428   0.810 -0.7231  0.0025 -0.0935
 9662TIP3   OH228949   5.050   3.254   2.766  0.1276  0.2540  0.2892
 9662TIP3    H128950   4.958   3.275   2.752  0.3722  1.3723  0.2547
 9662TIP3    H228951   5.051   3.159   2.781 -1.2845  0.5447  2.5951
 9663TIP3   OH228952   4.990   5.137   5.523 -0.0938  0.4056  0.0242
 9663TIP3    H128953   5.072   5.089   5.521 -1.4372 -2.3723  2.5879
 9663TIP3    H228954   4.995   5.199   5.450  2.6237 -2.3102 -2.3142
 9664TIP3   OH228955   5.143   3.785   4.809  0.0342  0.5108 -0.6555
 9664TIP3    H128956   5.087   3.758   4.882 -1.3142  0.0412 -1.8255
 9664TIP3    H228957   5.171   3.874   4.833  0.1173  0.1427  0.7025
 9665TIP3   OH228958   3.721   4.632   1.587 -0.5813 -0.0521  0.4581
 9665TIP3    H128959   3.649   4.659   1.530 -1.9147 -3.5883  0.2142
 9665TIP3    H228960   3.722   4.536   1.582  4.4679 -0.2726  0.1374
 9666TIP3   OH228961   6.368   0.249   3.515 -0.6200  0.1025 -0.5369
 9666TIP3    H128962   6.397   0.327   3.563 -0.1060  0.1123 -0.8585
 9666TIP3    H228963   6.314   0.201   3.578  0.7742 -0.3347  0.3531
 9667TIP3   OH228964   2.233   0.441   2.097 -0.0710 -0.0482  0.0607
 9667TIP3    H128965   2.207   0.488   2.176 -0.9436  0.1951 -0.3678
 9667TIP3    H228966   2.302   0.381   2.126 -0.4819 -0.0588  1.0277
 9668TIP3   OH228967   5.736   0.747   1.258 -0.4510  0.5123  0.6404
 9668TIP3    H128968   5.718   0.839   1.278  1.3922  1.0693 -0.0811
 9668TIP3    H228969   5.831   0.742   1.252 -0.4596 -1.6721  1.6461
 9669TIP3   OH228970   3.868   6.209   0.122 -0.0472 -0.1104  0.4953
 9669TIP3    H128971   3.829   6.122   0.117 -0.2910 -0.0010  0.5287
 9669TIP3    H228972   3.855   6.246   0.035 -0.8498  0.2872  0.7785
 9670TIP3   OH228973   1.240   3.427   1.761 -0.1478 -0.0339 -0.0720
 9670TIP3    H128974   1.269   3.377   1.838  2.7692  0.8806 -0.4755
 9670TIP3    H228975   1.231   3.517   1.793 -0.1007  0.1423 -0.5456
 9671TIP3   OH228976   0.361   0.941   1.742  0.1514  0.0634  0.3631
 9671TIP3    H128977   0.281   0.975   1.783  0.6941  2.3168 -0.3502
 9671TIP3    H228978   0.329   0.888   1.668 -0.7296 -1.7825  1.9625
 9672TIP3   OH228979   6.191   5.250   3.045 -0.0588  0.4296 -0.0592
 9672TIP3    H128980   6.176   5.157   3.065  0.6874  0.2768 -0.1448
 9672TIP3    H228981   6.118   5.275   2.990  0.3773 -0.4606 -1.0783
 9673TIP3   OH228982   2.108   1.665   3.170  0.5767 -0.5350 -0.7961
 9673TIP3    H128983   2.071   1.595   3.224 -0.1156  0.0222 -0.5257
 9673TIP3    H228984   2.044   1.736   3.177  1.0583 -0.0340 -1.4126
 9674TIP3   OH228985   5.436   3.045   4.555  0.2726 -0.3568 -0.9932
 9674TIP3    H128986   5.428   3.077   4.645 -0.2028 -0.9494 -0.8196
 9674TIP3    H228987   5.527   3.066   4.530 -0.2755  2.0156 -1.2447
 9675TIP3   OH228988   4.085   3.352   0.489 -0.2222  0.0412  0.4358
 9675TIP3    H128989   4.040   3.367   0.406  0.7285 -0.5779 -0.2044
 9675TIP3    H228990   4.160   3.412   0.487 -0.9560  1.0453  1.4838
 9676TIP3   OH228991   6.805   4.962   3.970 -0.3465 -0.2609 -0.5674
 9676TIP3    H128992   6.750   5.037   3.948  1.8719  2.2396  1.7678
 9676TIP3    H228993   6.762   4.922   4.045 -0.1069  0.4446 -0.0389
 9677TIP3   OH228994   3.034   4.399   3.746 -0.0397 -0.1916  0.2261
 9677TIP3    H128995   3.060   4.449   3.669  0.2246  0.5260  0.7802
 9677TIP3    H228996   3.029   4.308   3.715 -1.8030  0.3053 -1.1193
 9678TIP3   OH228997   3.006   1.163   0.028 -0.5278  0.5747 -0.8201
 9678TIP3    H128998   3.062   1.187  -0.046  2.5054 -0.2378  1.0671
 9678TIP3    H228999   3.002   1.243   0.081 -2.8622  1.2184 -1.8052
 9679TIP3   OH229000   4.387   3.943   5.591 -0.0409  0.1794 -0.1055
 9679TIP3    H129001   4.378   3.971   5.682  0.2413  1.1207 -0.3565
 9679TIP3    H229002   4.336   3.862   5.586 -2.4592  1.5674  0.2408
 9680TIP3   OH229003   5.704   3.258   4.188 -0.3569 -0.1923  0.2222
 9680TIP3    H129004   5.608   3.252   4.190 -0.5474  2.0643 -0.1541
 9680TIP3    H229005   5.722   3.350   4.171  1.8781 -1.0366 -2.8486
 9681TIP3   OH229006   0.785   6.638   4.062 -0.3082  0.1797 -0.4929
 9681TIP3    H129007   0.865   6.684   4.040 -0.1879 -1.2849 -3.6641
 9681TIP3    H229008   0.718   6.677   4.006 -0.8857 -1.3478 -0.9130
 9682TIP3   OH229009   0.602   3.976   0.458 -0.9870  0.2287 -0.0407
 9682TIP3    H129010   0.623   4.069   0.453  0.9161 -0.1670 -0.1513
 9682TIP3    H229011   0.614   3.944   0.368  0.6670 -0.5335  0.4097
 9683TIP3   OH229012   4.246   1.672   0.014 -0.4208  0.1870 -0.3463
 9683TIP3    H129013   4.325   1.690   0.064 -0.2960  0.1715 -0.5392
 9683TIP3    H229014   4.244   1.576   0.006 -1.7193 -0.0166  1.7342
 9684TIP3   OH229015   4.574   6.171   1.113  0.2578 -0.2854  0.0161
 9684TIP3    H129016   4.637   6.209   1.175 -0.1367 -1.4720  1.2032
 9684TIP3    H229017   4.507   6.239   1.103  2.1359  1.4170 -2.0495
 9685TIP3   OH229018   6.023   4.483   3.959  0.5253  0.4004 -0.0437
 9685TIP3    H129019   6.031   4.542   4.034  1.9529 -1.5609  1.4568
 9685TIP3    H229020   6.081   4.521   3.892 -0.9412  2.2968 -0.3345
 9686TIP3   OH229021   5.983   3.337   4.066 -0.1746  0.4155  0.3233
 9686TIP3    H129022   5.945   3.401   4.006  1.2724  0.6765 -0.3469
 9686TIP3    H229023   5.947   3.253   4.036  1.6687  0.3426 -1.9371
 9687TIP3   OH229024   3.199   2.670   3.772  0.0143  0.1646 -0.4567
 9687TIP3    H129025   3.211   2.696   3.681  0.5118  0.0131 -0.4394
 9687TIP3    H229026   3.105   2.666   3.784 -0.0519 -0.2449 -1.0847
 9688TIP3   OH229027   2.253   6.143   1.031  0.0383 -0.4160  0.4810
 9688TIP3    H129028   2.207   6.062   1.012 -0.4748 -0.3390  1.3440
 9688TIP3    H229029   2.184   6.206   1.051  0.4998 -0.6322  3.1029
 9689TIP3   OH229030   0.931   1.027   0.778  0.6111  0.0961 -0.0791
 9689TIP3    H129031   1.012   1.006   0.731  0.4389 -0.2031 -0.2403
 9689TIP3    H229032   0.862   0.982   0.729  0.4267 -0.1764  0.4288
 9690TIP3   OH229033   6.294   5.589   2.568  0.0923 -0.0868  0.3628
 9690TIP3    H129034   6.389   5.584   2.565  0.0688 -0.1301 -1.3471
 9690TIP3    H229035   6.269   5.523   2.633  1.2393  0.4554  1.3874
 9691TIP3   OH229036   0.165   6.501   1.410 -0.0987 -0.1180  0.2449
 9691TIP3    H129037   0.104   6.430   1.392 -0.7640  0.1995  1.1822
 9691TIP3    H229038   0.205   6.520   1.325  1.7389 -3.0779  0.3073
 9692TIP3   OH229039   0.822   0.262   2.271 -0.1901 -0.8003  0.2100
 9692TIP3    H129040   0.857   0.239   2.185  0.8346  0.5524  0.2322
 9692TIP3    H229041   0.744   0.207   2.280  0.2155 -1.6603 -1.1656
 9693TIP3   OH229042   6.579   5.431   0.150 -0.1358 -0.0879  0.1846
 9693TIP3    H129043   6.631   5.454   0.228 -0.6353 -1.4996  0.9602
 9693TIP3    H229044   6.534   5.513   0.127  1.0028  0.6859  0.5901
 9694TIP3   OH229045   6.541   3.639   5.857  0.5157  0.1907  0.2075
 9694TIP3    H129046   6.522   3.691   5.779  2.1820  0.8688  0.2139
 9694TIP3    H229047   6.549   3.704   5.928 -0.8226 -0.4018  0.9330
 9695TIP3   OH229048   1.144   1.865   2.839 -0.4384  0.3058  0.0933
 9695TIP3    H129049   1.107   1.935   2.894 -0.7800 -0.8945  1.4571
 9695TIP3    H229050   1.235   1.859   2.867 -0.9573 -1.2539  1.6219
 9696TIP3   OH229051   3.525   4.917   4.686 -0.1044  0.6450  0.4099
 9696TIP3    H129052   3.616   4.945   4.681  0.6049 -1.0876  2.3588
 9696TIP3    H229053   3.477   4.982   4.635  2.3845  0.7491 -2.0278
 9697TIP3   OH229054   2.503   1.844   3.594 -0.4751  0.7222  1.1556
 9697TIP3    H129055   2.584   1.893   3.578 -1.1925  1.1084 -2.0622
 9697TIP3    H229056   2.437   1.889   3.541 -1.8707 -1.9591  0.4400
 9698TIP3   OH229057   6.944   0.483   0.837  0.5236  0.6680 -0.3124
 9698TIP3    H129058   6.955   0.399   0.883 -0.0457  0.7057 -0.1016
 9698TIP3    H229059   6.912   0.459   0.751  1.0380  0.6320 -0.4987
 9699TIP3   OH229060   2.014   3.076   4.692 -0.2838  0.0132 -0.0930
 9699TIP3    H129061   2.001   2.992   4.648 -0.0970  0.2048 -0.5178
 9699TIP3    H229062   2.044   3.135   4.623 -0.2561  0.3879  0.2362
 9700TIP3   OH229063   6.033   1.474   0.359  0.3051 -0.3715 -0.3643
 9700TIP3    H129064   5.967   1.507   0.298 -0.3306 -0.3747  0.3112
 9700TIP3    H229065   6.033   1.380   0.346 -0.2252 -0.4270  0.0314
 9701TIP3   OH229066   5.776   4.966   3.959 -0.1765  0.6554  0.7106
 9701TIP3    H129067   5.854   4.985   4.011 -0.9931  1.6994  1.6248
 9701TIP3    H229068   5.785   5.022   3.881 -0.9395  2.3651  1.7816
 9702TIP3   OH229069   0.138   3.680   4.336  0.1544 -0.3387 -0.1424
 9702TIP3    H129070   0.200   3.689   4.409  0.8360 -1.4154 -0.5593
 9702TIP3    H229071   0.131   3.768   4.300 -1.9011  0.7440  2.5362
 9703TIP3   OH229072   3.891   3.374   4.849  0.1368 -0.5711 -0.0444
 9703TIP3    H129073   3.879   3.456   4.896  1.2008 -0.6134  0.3178
 9703TIP3    H229074   3.825   3.315   4.886 -0.1456 -0.1049  0.2041
 9704TIP3   OH229075   4.150   6.209   5.448  0.2361  0.0495 -0.4872
 9704TIP3    H129076   4.091   6.219   5.523 -0.6756 -2.7559 -0.7051
 9704TIP3    H229077   4.235   6.190   5.487  0.1118  0.1562 -0.1601
 9705TIP3   OH229078   6.375   3.351   2.834  0.4570 -0.1906  0.7625
 9705TIP3    H129079   6.419   3.433   2.810 -2.1225  1.2167  0.4419
 9705TIP3    H229080   6.340   3.368   2.921 -0.2385 -0.8834  0.6279
 9706TIP3   OH229081   6.474   2.943   4.429  0.4793  0.3696 -1.0708
 9706TIP3    H129082   6.508   2.930   4.517  0.1869 -0.4138 -1.0605
 9706TIP3    H229083   6.480   3.037   4.414 -0.0646  0.5900  0.0246
 9707TIP3   OH229084   5.322   5.350   5.596  0.4576  0.0215 -0.1507
 9707TIP3    H129085   5.410   5.381   5.616  0.4738 -1.1486  1.9205
 9707TIP3    H229086   5.335   5.282   5.530  1.0721  0.1979 -0.2139
 9708TIP3   OH229087   1.575   2.624   4.550 -0.2688 -0.0252 -0.1464
 9708TIP3    H129088   1.621   2.672   4.481 -1.5203  0.1794 -0.8776
 9708TIP3    H229089   1.631   2.633   4.627  1.6586 -1.0743 -1.3487
 9709TIP3   OH229090   3.986   1.677   0.398  0.1975 -0.4918 -0.4032
 9709TIP3    H129091   4.078   1.693   0.380 -0.0062 -1.4609 -2.7642
 9709TIP3    H229092   3.986   1.612   0.468  1.3158 -0.4229 -0.3195
 9710TIP3   OH229093   3.130   0.471   1.004 -0.2053  0.4095  0.4337
 9710TIP3    H129094   3.187   0.461   1.081 -2.9170 -0.0066  2.5328
 9710TIP3    H229095   3.042   0.451   1.036 -1.3124 -1.4824 -3.1808
 9711TIP3   OH229096   1.777   6.485   2.934 -0.0042 -0.2048 -0.4270
 9711TIP3    H129097   1.763   6.519   3.022  0.3764 -3.8945  1.1998
 9711TIP3    H229098   1.871   6.495   2.918  0.2203 -1.0348  0.3163
 9712TIP3   OH229099   4.362   1.893   2.554  0.6584  0.2322  0.3031
 9712TIP3    H129100   4.414   1.904   2.634  1.0887  0.4707 -0.0043
 9712TIP3    H229101   4.414   1.836   2.498  0.7607  0.7527 -0.1476
 9713TIP3   OH229102   0.250   1.398   0.851  0.3178  0.0612  0.1429
 9713TIP3    H129103   0.312   1.441   0.792  0.9303  1.3268  1.6075
 9713TIP3    H229104   0.172   1.454   0.848  0.0131 -0.3796 -0.1523
 9714TIP3   OH229105   6.758   3.591   4.138 -0.3652 -0.0680 -0.2153
 9714TIP3    H129106   6.853   3.585   4.126 -0.6215 -0.1230 -2.8524
 9714TIP3    H229107   6.741   3.684   4.153  0.1115 -0.0442  0.1590
 9715TIP3   OH229108   0.690   1.900   2.466 -0.4557  0.3599  0.1336
 9715TIP3    H129109   0.749   1.854   2.527 -0.9053  0.7093  0.8466
 9715TIP3    H229110   0.735   1.982   2.446 -0.3343  0.2710  0.0411
 9716TIP3   OH229111   5.528   2.167   5.310 -0.0692  0.4884 -0.3202
 9716TIP3    H129112   5.462   2.147   5.244  2.0745  2.6300 -3.3389
 9716TIP3    H229113   5.511   2.258   5.334  1.4700  0.9378 -0.8405
 9717TIP3   OH229114   2.992   5.260   5.216  0.2760 -0.0170 -0.5069
 9717TIP3    H129115   3.020   5.289   5.129 -0.4075 -0.6365 -0.9433
 9717TIP3    H229116   2.897   5.277   5.217  0.4041  0.7438  0.4265
 9718TIP3   OH229117   0.151   1.565   1.422  0.3513 -0.2761 -0.5491
 9718TIP3    H129118   0.216   1.602   1.362  0.1504  0.1548 -0.5049
 9718TIP3    H229119   0.091   1.638   1.439 -1.0359 -1.0770 -1.8009
 9719TIP3   OH229120   4.796   6.789   3.093  0.2024  0.1366 -0.9641
 9719TIP3    H129121   4.703   6.769   3.084  0.1382  0.1954 -0.4701
 9719TIP3    H229122   4.839   6.704   3.086  0.0795  0.0594 -0.7988
 9720TIP3   OH229123   4.886   4.108   0.943 -0.2286 -0.2767  0.8031
 9720TIP3    H129124   4.922   4.197   0.945 -1.0006  0.0502  2.2184
 9720TIP3    H229125   4.961   4.051   0.929  0.3815  0.5680  0.5833
 9721TIP3   OH229126   3.639   0.478   3.979  0.0092 -0.2249  0.2522
 9721TIP3    H129127   3.676   0.403   4.026 -1.0954 -0.2274  1.1505
 9721TIP3    H229128   3.695   0.488   3.902  0.5857 -1.5490  0.4744
 9722TIP3   OH229129   5.377   2.085   5.588  0.9300 -0.4298  0.3656
 9722TIP3    H129130   5.459   2.119   5.623  1.1079 -1.3144  0.8533
 9722TIP3    H229131   5.332   2.161   5.552  1.9467  0.0704  0.1177
 9723TIP3   OH229132   0.912   1.109   4.599 -0.2737 -0.1240  0.4054
 9723TIP3    H129133   0.923   1.123   4.694  0.7854 -0.3070  0.3239
 9723TIP3    H229134   0.993   1.065   4.572 -0.4499  0.1720 -0.6368
 9724TIP3   OH229135   2.459   6.291   0.925 -0.6573  0.1365 -0.5153
 9724TIP3    H129136   2.414   6.355   0.869 -0.8074  0.0726 -0.4665
 9724TIP3    H229137   2.392   6.261   0.986 -0.7981 -0.6588 -1.0444
 9725TIP3   OH229138   7.013   4.145   4.179 -0.9523 -0.2820 -0.0677
 9725TIP3    H129139   7.025   4.237   4.201  2.5697 -0.4350 -0.7902
 9725TIP3    H229140   7.039   4.139   4.087 -1.0035 -2.0023 -0.0017
 9726TIP3   OH229141   6.851   1.503   4.053  0.6285  0.0157  0.0636
 9726TIP3    H129142   6.850   1.422   4.002 -0.6220  1.1435 -1.8243
 9726TIP3    H229143   6.760   1.516   4.080  0.8048  0.8188  0.3005
 9727TIP3   OH229144   1.552   4.791   0.190  1.1746  0.2064  0.1950
 9727TIP3    H129145   1.633   4.841   0.194  0.8304  0.7434  0.5935
 9727TIP3    H229146   1.579   4.700   0.206  1.5789  0.5093  1.3260
 9728TIP3   OH229147   5.892   3.056   1.142  0.0327  0.0473 -0.2741
 9728TIP3    H129148   5.857   2.974   1.108  3.3342 -2.0346  0.9127
 9728TIP3    H229149   5.843   3.072   1.223 -0.9962 -0.4353 -0.7850
 9729TIP3   OH229150   5.543   1.738   1.724 -0.1480 -0.8776  0.3370
 9729TIP3    H129151   5.529   1.832   1.719 -0.5247 -0.9127  0.6916
 9729TIP3    H229152   5.638   1.727   1.721  0.1502 -0.2616  3.6163
 9730TIP3   OH229153   5.410   4.250   0.229  0.0067 -0.2112  0.4085
 9730TIP3    H129154   5.324   4.288   0.210  0.5767  0.8754 -0.0804
 9730TIP3    H229155   5.407   4.163   0.190 -1.0251 -0.3665  0.7890
 9731TIP3   OH229156   4.759   2.554   5.601 -0.1243 -0.5256  0.0475
 9731TIP3    H129157   4.692   2.622   5.605  0.3234 -0.1542  1.7619
 9731TIP3    H229158   4.748   2.505   5.683  0.1392 -1.9868 -0.7466
 9732TIP3   OH229159   3.844   1.605   5.250  0.0886 -0.1103 -0.2152
 9732TIP3    H129160   3.866   1.523   5.206 -1.8094 -1.7036  1.5696
 9732TIP3    H229161   3.880   1.595   5.338  0.3228  1.2423 -0.1376
 9733TIP3   OH229162   7.058   6.411   1.487 -0.0292  0.3842 -0.1096
 9733TIP3    H129163   7.055   6.443   1.397 -0.0165 -1.0056 -0.6415
 9733TIP3    H229164   7.061   6.490   1.541 -0.6658  1.2502 -1.2964
 9734TIP3   OH229165   0.306   1.594   5.144 -0.0270  0.2461  0.2159
 9734TIP3    H129166   0.244   1.521   5.144 -1.7106  1.5878 -0.4179
 9734TIP3    H229167   0.292   1.637   5.228  0.9371 -0.1324  0.5773
 9735TIP3   OH229168   4.652   5.290   0.022  0.0839  0.2195 -0.0768
 9735TIP3    H129169   4.574   5.273   0.073 -0.2280 -1.1725 -0.9733
 9735TIP3    H229170   4.720   5.309   0.087 -0.5957 -0.1921  0.7710
 9736TIP3   OH229171   0.483   6.401   1.836  0.0750 -0.1629  0.3553
 9736TIP3    H129172   0.436   6.328   1.795 -1.9269  0.0039  2.1765
 9736TIP3    H229173   0.455   6.478   1.786  1.3439 -0.4455 -0.8726
 9737TIP3   OH229174   4.726   3.645   0.409  0.4025  0.1663 -0.1002
 9737TIP3    H129175   4.706   3.738   0.419  0.6782  0.0961  1.1872
 9737TIP3    H229176   4.671   3.600   0.473 -0.1254 -0.6182 -1.0768
 9738TIP3   OH229177   0.115   5.490   1.307  0.1523 -0.3691 -0.2242
 9738TIP3    H129178   0.093   5.422   1.370  1.4537 -1.0798 -0.5119
 9738TIP3    H229179   0.091   5.572   1.351 -0.6649 -0.9509  0.4455
 9739TIP3   OH229180   3.137   2.229   3.315  0.1919 -0.0373  0.3266
 9739TIP3    H129181   3.224   2.189   3.309 -0.5283 -1.5696 -0.6972
 9739TIP3    H229182   3.144   2.292   3.387  2.3561  0.4843 -0.2661
 9740TIP3   OH229183   6.544   6.374   0.385 -0.3724  0.3644  0.0483
 9740TIP3    H129184   6.522   6.383   0.478 -0.5084  1.1982 -0.0639
 9740TIP3    H229185   6.611   6.440   0.369  0.3533 -0.4192 -0.2293
 9741TIP3   OH229186   2.834   1.079   1.960 -0.2830 -0.1210  0.0592
 9741TIP3    H129187   2.851   1.000   2.011  2.5127  0.4279  0.1039
 9741TIP3    H229188   2.872   1.150   2.011 -0.3750  0.8894 -1.2193
 9742TIP3   OH229189   2.709   0.933   1.204  0.1131 -0.6829  0.2692
 9742TIP3    H129190   2.799   0.941   1.236 -0.3902  0.2371  1.5209
 9742TIP3    H229191   2.682   0.845   1.230  0.5681 -0.8824  0.0821
 9743TIP3   OH229192   1.274   1.448   1.219  0.5111  0.0810  0.5563
 9743TIP3    H129193   1.327   1.472   1.295  0.9145  1.9688 -0.2856
 9743TIP3    H229194   1.205   1.514   1.215 -0.2484 -0.7174 -0.0182
 9744TIP3   OH229195   2.630   0.990   4.636 -0.5779  0.5012 -0.2259
 9744TIP3    H129196   2.554   1.040   4.663  0.2646  0.2137  3.1414
 9744TIP3    H229197   2.678   0.974   4.717  1.8115 -1.4096 -1.8712
 9745TIP3   OH229198   1.228   3.665   0.219 -0.7931 -0.3311  0.0585
 9745TIP3    H129199   1.313   3.701   0.245 -0.9818  0.0228  0.1863
 9745TIP3    H229200   1.243   3.629   0.132 -1.0332  1.6783 -0.8725
 9746TIP3   OH229201   6.965   4.136   1.422 -0.4107 -0.7963  0.7472
 9746TIP3    H129202   7.052   4.163   1.450 -0.5068  0.3602  0.0194
 9746TIP3    H229203   6.981   4.076   1.349 -0.1714  1.4830 -1.2083
 9747TIP3   OH229204   2.713   6.709   5.014  0.6369 -0.0329 -0.0036
 9747TIP3    H129205   2.742   6.651   4.945 -1.0006 -0.0006 -0.7743
 9747TIP3    H229206   2.717   6.797   4.976  0.4988  0.0713  0.2143
 9748TIP3   OH229207   7.050   1.712   0.650  0.0979  0.0944 -0.4700
 9748TIP3    H129208   6.962   1.704   0.614  0.4204 -0.3842 -1.1731
 9748TIP3    H229209   7.040   1.769   0.726 -1.1956 -1.8187  0.8585
 9749TIP3   OH229210   7.016   4.432   4.271 -0.1872 -0.7166  0.3975
 9749TIP3    H129211   6.969   4.492   4.213 -0.1905 -2.3399 -1.3924
 9749TIP3    H229212   7.049   4.488   4.342 -1.6185  1.0746 -0.2618
   7.19757   6.78594   5.87678   0.00000   0.00000  -2.39920   0.00000  -2.39920  -3.39296
