Title
  159
    1GLY      N    1   5.624   5.722   3.062 -0.0030  0.2705 -0.1337
    1GLY    HT1    2   5.594   5.816   3.030  1.5896  0.6335 -0.6001
    1GLY    HT2    3   5.617   5.722   3.166  0.6610  0.0478 -0.0874
    1GLY    HT3    4   5.552   5.654   3.030  0.9010 -0.3705 -0.8349
    1GLY     CA    5   5.762   5.673   3.029  0.0645 -0.0100 -0.4017
    1GLY    HA1    6   5.824   5.704   3.112 -1.3517  1.3842  0.1971
    1GLY    HA2    7   5.793   5.721   2.937  2.0544 -1.8718 -0.7753
    1GLY      C    8   5.763   5.533   3.000  0.3908  0.1091 -0.2397
    1GLY      O    9   5.659   5.474   3.001 -0.0250  0.8180 -0.1589
    2PRO      N   10   5.879   5.470   2.971 -0.2998 -0.1764  0.3622
    2PRO     CD   11   6.003   5.534   2.934  0.1622  0.3156  0.1753
    2PRO    HD1   12   6.063   5.551   3.026  0.2205 -0.2138  0.2371
    2PRO    HD2   13   5.994   5.631   2.881  2.7862 -1.0768 -3.1480
    2PRO     CA   14   5.884   5.324   2.945 -0.8550  0.1171  0.5417
    2PRO     HA   15   5.818   5.305   2.862  3.6091  1.1736 -3.6953
    2PRO     CB   16   6.023   5.292   2.907 -0.3782  0.2385 -0.0631
    2PRO    HB1   17   6.034   5.208   2.835 -1.8832  0.8321 -1.0377
    2PRO    HB2   18   6.090   5.283   2.995 -0.9637  0.2075  0.3856
    2PRO     CG   19   6.064   5.424   2.840 -0.2161 -0.1129 -0.4100
    2PRO    HG1   20   6.174   5.431   2.845 -0.0253 -2.9448  2.2273
    2PRO    HG2   21   6.012   5.432   2.742 -2.4605  1.0856  0.7799
    2PRO      C   22   5.844   5.242   3.062 -0.2972  0.7649  0.3631
    2PRO      O   23   5.857   5.290   3.174 -0.7816  0.1352  0.2908
    3GLY      N   24   5.800   5.117   3.042 -0.0109  0.4324 -0.2694
    3GLY     HN   25   5.785   5.085   2.948 -0.2334 -0.1270 -0.0474
    3GLY     CA   26   5.772   5.028   3.157  0.3146  0.6039 -0.9740
    3GLY    HA1   27   5.688   4.972   3.120 -1.1418  1.0559  1.4097
    3GLY    HA2   28   5.762   5.087   3.247  2.4523  0.1512 -0.3753
    3GLY      C   29   5.889   4.932   3.170  1.4968 -0.0629 -0.3014
    3GLY      O   30   5.996   4.957   3.118 -0.5333 -0.1515 -0.2755
    4ALA      N   31   5.872   4.817   3.236 -0.0967  0.2564  0.5988
    4ALA     HN   32   5.788   4.791   3.281  0.8505 -0.1484  2.2084
    4ALA     CA   33   5.964   4.706   3.239 -0.5022 -0.4000  0.4917
    4ALA     HA   34   6.053   4.745   3.287 -0.5667  0.4019 -0.0313
    4ALA     CB   35   5.910   4.597   3.329  0.0552  0.5675  0.7684
    4ALA    HB1   36   5.973   4.506   3.331 -0.2548  0.3601  1.2657
    4ALA    HB2   37   5.810   4.562   3.296  0.0933  0.1738  1.0617
    4ALA    HB3   38   5.898   4.625   3.436 -1.7354  0.1623  0.7091
    4ALA      C   39   5.993   4.638   3.102 -0.5742 -0.1560 -0.5999
    4ALA      O   40   5.909   4.638   3.009 -0.0131  0.1008  0.0292
    5PRO      N   41   6.111   4.589   3.080 -0.5350 -0.1351  0.5573
    5PRO     CD   42   6.216   4.581   3.185 -0.1107 -0.3843 -0.1429
    5PRO    HD1   43   6.188   4.519   3.273  1.6330  0.7607  1.3108
    5PRO    HD2   44   6.245   4.681   3.222  0.5794 -0.3153 -0.8514
    5PRO     CA   45   6.158   4.551   2.949 -0.5173  0.1427  0.3731
    5PRO     HA   46   6.116   4.625   2.882 -1.7849  1.2156  2.2567
    5PRO     CB   47   6.316   4.563   2.967 -1.0721  0.0343 -0.3063
    5PRO    HB1   48   6.354   4.667   2.959 -2.2240  0.5157  0.3443
    5PRO    HB2   49   6.377   4.497   2.901 -1.2095 -2.7922  2.2107
    5PRO     CG   50   6.337   4.519   3.112  0.0912 -0.0759 -0.0000
    5PRO    HG1   51   6.348   4.409   3.103 -2.9873 -0.3912 -1.4060
    5PRO    HG2   52   6.429   4.560   3.157 -0.5484  2.5046 -0.8613
    5PRO      C   53   6.101   4.418   2.893 -1.3984 -0.9028 -0.3855
    5PRO      O   54   6.079   4.410   2.773 -0.0649  0.2155  1.1247
    6GLY      N   55   6.089   4.319   2.978 -0.2455  0.6929  0.2184
    6GLY     HN   56   6.120   4.318   3.072  2.1551 -0.5995 -0.5144
    6GLY     CA   57   6.016   4.199   2.935 -0.3485 -0.2353 -1.1250
    6GLY    HA1   58   6.011   4.141   3.026  1.2364  0.6768 -0.4198
    6GLY    HA2   59   6.081   4.160   2.858  1.4321  0.6500 -0.1228
    6GLY      C   60   5.880   4.212   2.877  0.7832  0.7236 -0.8027
    6GLY      O   61   5.808   4.303   2.916 -0.1518 -0.3073 -0.2019
    7PRO      N   62   5.829   4.121   2.781 -0.3164  0.0550 -0.8320
    7PRO     CD   63   5.904   4.006   2.733 -0.0088  0.3631  0.6269
    7PRO    HD1   64   5.971   3.959   2.808 -0.0974  2.1653  1.9145
    7PRO    HD2   65   5.957   4.036   2.640 -0.3166 -1.3642 -0.1337
    7PRO     CA   66   5.690   4.118   2.739  0.7733  0.3413 -0.8552
    7PRO     HA   67   5.669   4.213   2.692  1.0437  1.7811  1.7178
    7PRO     CB   68   5.679   3.994   2.644  0.5195  0.2088 -0.2292
    7PRO    HB1   69   5.691   4.031   2.539  0.6902  0.7638 -0.0176
    7PRO    HB2   70   5.580   3.948   2.667 -0.4768  2.4315  0.2532
    7PRO     CG   71   5.798   3.911   2.684  0.3010 -0.5051  0.7572
    7PRO    HG1   72   5.768   3.847   2.770  1.9327 -1.7847  0.4043
    7PRO    HG2   73   5.830   3.849   2.598 -0.8869  2.0240 -1.7100
    7PRO      C   74   5.584   4.123   2.852  0.1741 -0.1625 -0.0275
    7PRO      O   75   5.610   4.083   2.959 -0.2505  0.2253  0.1014
    8GLY      N   76   5.465   4.172   2.821  0.3632  0.7552 -0.2388
    8GLY     HN   77   5.453   4.224   2.737  0.3649 -1.2377 -1.5380
    8GLY     CA   78   5.356   4.178   2.920  0.2739  0.2601 -0.5277
    8GLY    HA1   79   5.283   4.250   2.887 -1.2330 -0.3905  1.1864
    8GLY    HA2   80   5.404   4.202   3.014 -1.0848  3.2908 -0.4892
    8GLY      C   81   5.283   4.047   2.926  0.5419 -0.5700 -0.1200
    8GLY      O   82   5.291   3.966   2.835  0.8726 -0.1285 -0.6545
    9ALA      N   83   5.217   4.029   3.040  0.2491  0.1659  0.5194
    9ALA     HN   84   5.230   4.098   3.111  4.2071 -0.7846  0.9686
    9ALA     CA   85   5.150   3.907   3.080  0.0627  0.3575  0.0210
    9ALA     HA   86   5.213   3.820   3.077 -0.9228 -0.6382  3.6533
    9ALA     CB   87   5.097   3.921   3.225  0.1120 -0.0432  0.1466
    9ALA    HB1   88   5.182   3.943   3.293 -0.6653  0.2668  1.0510
    9ALA    HB2   89   5.052   3.826   3.262  0.2617 -0.4686 -0.7431
    9ALA    HB3   90   5.027   4.007   3.226 -1.7513 -1.4373  2.8631
    9ALA      C   91   5.033   3.883   2.985  0.3669 -0.0929  0.0410
    9ALA      O   92   4.977   3.975   2.924  0.2259 -0.0048  0.5162
   10PRO      N   93   4.979   3.759   2.971  0.0559  0.1734  0.2253
   10PRO     CD   94   5.050   3.632   2.996  0.4152  0.4851 -0.3104
   10PRO    HD1   95   5.039   3.617   3.106 -0.6572  1.6634 -0.2296
   10PRO    HD2   96   5.153   3.629   2.957 -0.3329 -0.4616 -2.3566
   10PRO     CA   97   4.856   3.744   2.895  0.3764  0.5960  0.2078
   10PRO     HA   98   4.872   3.769   2.791 -0.2939 -0.5592 -0.1988
   10PRO     CB   99   4.831   3.588   2.920  0.7921  0.2642 -0.1776
   10PRO    HB1  100   4.763   3.563   2.836  0.1440  0.9879  0.1201
   10PRO    HB2  101   4.777   3.560   3.012  2.0003 -1.6487  0.0036
   10PRO     CG  102   4.971   3.525   2.922  0.1061 -0.0972 -0.5002
   10PRO    HG1  103   4.962   3.424   2.968 -1.4483  0.4466  0.4515
   10PRO    HG2  104   5.004   3.520   2.816 -2.2734  0.0070 -1.3190
   10PRO      C  105   4.742   3.822   2.960 -0.6487  0.4312 -0.3140
   10PRO      O  106   4.731   3.817   3.084  0.0361  0.0311 -0.1648
   11GLY      N  107   4.658   3.895   2.880 -0.6884 -0.0826  0.6389
   11GLY     HN  108   4.682   3.894   2.783 -0.5613  0.0845  0.6674
   11GLY     CA  109   4.551   3.988   2.923 -0.4526  0.4821  0.3265
   11GLY    HA1  110   4.514   4.049   2.841 -1.8672 -1.6559 -0.7290
   11GLY    HA2  111   4.599   4.045   3.001 -0.7596  1.5946 -0.2899
   11GLY      C  112   4.428   3.928   2.987 -0.2435  0.6372 -0.1434
   11GLY      O  113   4.405   3.808   2.972 -0.4757  0.0552 -0.1132
   12PRO      N  114   4.340   4.002   3.044  0.4447  0.3133  0.5986
   12PRO     CD  115   4.368   4.142   3.069 -0.2693 -0.2404  0.1541
   12PRO    HD1  116   4.400   4.209   2.986  0.1228  0.0340  0.5213
   12PRO    HD2  117   4.453   4.144   3.140  0.2322 -1.1889 -0.4084
   12PRO     CA  118   4.216   3.965   3.111 -0.1908  0.3267  0.0913
   12PRO     HA  119   4.235   3.933   3.212 -2.0726  0.4709  0.5102
   12PRO     CB  120   4.141   4.095   3.107 -0.0214  0.1369 -0.4743
   12PRO    HB1  121   4.061   4.099   3.184  0.9688  2.4979  0.5454
   12PRO    HB2  122   4.101   4.104   3.003  1.4720 -1.3525 -1.2234
   12PRO     CG  123   4.247   4.201   3.134  0.1318 -0.1201  0.6197
   12PRO    HG1  124   4.211   4.295   3.088  0.6056 -0.1812  0.1236
   12PRO    HG2  125   4.264   4.215   3.243 -2.2892  2.8528  0.7670
   12PRO      C  126   4.132   3.852   3.041 -0.2061 -0.2288 -0.2315
   12PRO      O  127   4.149   3.827   2.921  1.0534  0.4825 -0.3682
   13GLY      N  128   4.049   3.787   3.119  0.2233 -0.2043 -0.0301
   13GLY     HN  129   4.032   3.805   3.215  1.3086 -0.2436  0.1810
   13GLY     CA  130   3.969   3.670   3.079 -0.7291 -0.7153 -0.0773
   13GLY    HA1  131   3.971   3.665   2.972  0.6651  0.5445 -0.1403
   13GLY    HA2  132   3.866   3.687   3.106 -0.7349  1.5206 -1.2071
   13GLY      C  133   4.009   3.538   3.144 -0.8000  0.1687  0.0109
   13GLY      O  134   4.108   3.528   3.225  0.1747 -0.0934  0.1093
   14ALA      N  135   3.933   3.433   3.113  0.5285 -0.3299 -0.4589
   14ALA     HN  136   3.850   3.429   3.058  0.3233 -1.5810 -0.0833
   14ALA     CA  137   3.968   3.302   3.164 -0.4874 -0.1960 -1.1944
   14ALA     HA  138   3.984   3.309   3.271 -1.9724  0.0178 -0.9645
   14ALA     CB  139   3.849   3.206   3.155  0.0970  0.2045 -0.3709
   14ALA    HB1  140   3.803   3.216   3.054  1.5398  1.6061 -0.9271
   14ALA    HB2  141   3.776   3.250   3.226  1.4745  0.6374  0.8232
   14ALA    HB3  142   3.859   3.102   3.191  1.3342  0.7978  1.0782
   14ALA      C  143   4.078   3.232   3.098  0.1380 -0.6810 -0.1095
   14ALA      O  144   4.081   3.231   2.974 -0.4533 -0.1677 -0.9085
   15PRO      N  145   4.185   3.189   3.164 -0.0390  0.3195 -0.1396
   15PRO     CD  146   4.213   3.204   3.312 -0.1266  0.2032 -0.0648
   15PRO    HD1  147   4.130   3.170   3.378  0.5168  1.8755  1.7056
   15PRO    HD2  148   4.235   3.312   3.323  0.4629  0.0958 -0.1453
   15PRO     CA  149   4.300   3.137   3.093 -0.0860  0.2175 -0.0774
   15PRO     HA  150   4.319   3.210   3.015 -1.7571 -0.7106 -1.4161
   15PRO     CB  151   4.416   3.150   3.196  0.4432  0.4446 -0.2105
   15PRO    HB1  152   4.456   3.254   3.199  1.5777  0.0072  1.3485
   15PRO    HB2  153   4.498   3.078   3.175 -0.5790 -1.2242  1.2838
   15PRO     CG  154   4.344   3.125   3.331 -0.1319 -0.1178 -0.1174
   15PRO    HG1  155   4.321   3.016   3.330 -0.9113  0.0398 -0.9221
   15PRO    HG2  156   4.405   3.150   3.421  1.7360 -0.4504 -1.2271
   15PRO      C  157   4.299   2.997   3.041 -0.9289  0.2395  0.0808
   15PRO    OT1  158   4.346   2.965   2.927  0.4561 -0.1954  0.4939
   15PRO    OT2  159   4.238   2.906   3.106 -0.0437 -0.1980  0.3906
   8.40148   7.92100   6.85978   0.00000   0.00000  -2.80050   0.00000  -2.80050  -3.96050
