Title t=  96.00000 step= 48000
29212
    1ASP      N    1   2.261   1.376   1.742
    1ASP    HT1    2   2.328   1.342   1.671
    1ASP    HT2    3   2.306   1.369   1.836
    1ASP    HT3    4   2.244   1.478   1.726
    1ASP     CA    5   2.130   1.294   1.731
    1ASP     HA    6   2.057   1.330   1.660
    1ASP     CB    7   2.175   1.152   1.699
    1ASP    HB1    8   2.083   1.092   1.682
    1ASP    HB2    9   2.240   1.109   1.778
    1ASP     CG   10   2.252   1.130   1.570
    1ASP    OD1   11   2.236   1.212   1.477
    1ASP    OD2   12   2.320   1.033   1.550
    1ASP      C   13   2.052   1.303   1.863
    1ASP      O   14   2.097   1.368   1.958
    2GLY      N   15   1.943   1.234   1.881
    2GLY     HN   16   1.908   1.182   1.803
    2GLY     CA   17   1.863   1.245   1.994
    2GLY    HA1   18   1.917   1.200   2.076
    2GLY    HA2   19   1.782   1.180   1.967
    2GLY      C   20   1.799   1.373   2.035
    2GLY      O   21   1.832   1.483   1.980
    3ASP      N   22   1.704   1.372   2.128
    3ASP     HN   23   1.686   1.290   2.182
    3ASP     CA   24   1.623   1.487   2.170
    3ASP     HA   25   1.663   1.578   2.128
    3ASP     CB   26   1.476   1.475   2.126
    3ASP    HB1   27   1.428   1.563   2.175
    3ASP    HB2   28   1.441   1.383   2.177
    3ASP     CG   29   1.457   1.470   1.978
    3ASP    OD1   30   1.366   1.401   1.938
    3ASP    OD2   31   1.515   1.552   1.896
    3ASP      C   32   1.645   1.496   2.319
    3ASP      O   33   1.675   1.402   2.394
    4GLY      N   34   1.649   1.614   2.374
    4GLY     HN   35   1.647   1.696   2.317
    4GLY     CA   36   1.663   1.634   2.518
    4GLY    HA1   37   1.685   1.738   2.533
    4GLY    HA2   38   1.739   1.572   2.565
    4GLY      C   39   1.530   1.609   2.587
    4GLY      O   40   1.434   1.564   2.526
    5PRO      N   41   1.522   1.625   2.723
    5PRO     CD   42   1.639   1.660   2.811
    5PRO    HD1   43   1.710   1.731   2.764
    5PRO    HD2   44   1.696   1.569   2.841
    5PRO     CA   45   1.405   1.597   2.800
    5PRO     HA   46   1.390   1.491   2.788
    5PRO     CB   47   1.443   1.629   2.941
    5PRO    HB1   48   1.478   1.532   2.982
    5PRO    HB2   49   1.361   1.675   3.001
    5PRO     CG   50   1.570   1.717   2.933
    5PRO    HG1   51   1.544   1.823   2.908
    5PRO    HG2   52   1.634   1.722   3.023
    5PRO      C   53   1.279   1.669   2.758
    5PRO      O   54   1.271   1.773   2.701
    6GLY      N   55   1.168   1.597   2.794
    6GLY     HN   56   1.183   1.507   2.835
    6GLY     CA   57   1.023   1.617   2.763
    6GLY    HA1   58   0.960   1.536   2.796
    6GLY    HA2   59   1.004   1.627   2.657
    6GLY      C   60   0.970   1.735   2.839
    6GLY      O   61   1.040   1.827   2.879
    7ASP      N   62   0.843   1.727   2.863
    7ASP     HN   63   0.783   1.664   2.815
    7ASP     CA   64   0.767   1.807   2.960
    7ASP     HA   65   0.788   1.904   2.918
    7ASP     CB   66   0.613   1.759   2.972
    7ASP    HB1   67   0.560   1.790   3.064
    7ASP    HB2   68   0.612   1.648   2.961
    7ASP     CG   69   0.528   1.813   2.855
    7ASP    OD1   70   0.406   1.783   2.845
    7ASP    OD2   71   0.581   1.912   2.795
    7ASP      C   72   0.833   1.811   3.104
    7ASP      O   73   0.872   1.705   3.156
    8PRO      N   74   0.847   1.927   3.171
    8PRO     CD   75   0.845   2.055   3.104
    8PRO    HD1   76   0.736   2.072   3.089
    8PRO    HD2   77   0.885   2.056   3.000
    8PRO     CA   78   0.905   1.937   3.303
    8PRO     HA   79   1.011   1.918   3.300
    8PRO     CB   80   0.890   2.090   3.339
    8PRO    HB1   81   0.964   2.118   3.416
    8PRO    HB2   82   0.788   2.121   3.370
    8PRO     CG   83   0.914   2.152   3.197
    8PRO    HG1   84   0.872   2.254   3.201
    8PRO    HG2   85   1.021   2.159   3.169
    8PRO      C   86   0.849   1.849   3.414
    8PRO      O   87   0.729   1.838   3.431
    9GLY      N   88   0.931   1.776   3.494
    9GLY     HN   89   1.029   1.783   3.483
    9GLY     CA   90   0.886   1.693   3.609
    9GLY    HA1   91   0.959   1.615   3.623
    9GLY    HA2   92   0.787   1.661   3.579
    9GLY      C   93   0.857   1.755   3.739
    9GLY      O   94   0.907   1.867   3.767
   10ASP      N   95   0.778   1.683   3.822
   10ASP     HN   96   0.749   1.591   3.795
   10ASP     CA   97   0.747   1.713   3.961
   10ASP     HA   98   0.712   1.815   3.974
   10ASP     CB   99   0.639   1.619   4.012
   10ASP    HB1  100   0.638   1.640   4.121
   10ASP    HB2  101   0.684   1.518   4.004
   10ASP     CG  102   0.505   1.632   3.952
   10ASP    OD1  103   0.480   1.729   3.880
   10ASP    OD2  104   0.419   1.545   3.984
   10ASP      C  105   0.877   1.708   4.043
   10ASP      O  106   0.957   1.613   4.022
   11GLY      N  107   0.906   1.805   4.139
   11GLY     HN  108   0.846   1.884   4.152
   11GLY     CA  109   1.025   1.814   4.218
   11GLY    HA1  110   1.046   1.717   4.261
   11GLY    HA2  111   1.010   1.890   4.293
   11GLY      C  112   1.148   1.843   4.129
   11GLY    OT1  113   1.253   1.778   4.138
   11GLY    OT2  114   1.146   1.939   4.046
   12LIT    LIT  115   4.386   6.096   0.761
   13LIT    LIT  116   4.442   6.173   0.337
   14LIT    LIT  117   0.011   6.545   0.753
   15LIT    LIT  118   3.758   0.215   2.446
   16LIT    LIT  119   1.337   1.962   4.079
   17LIT    LIT  120   4.071   6.481   2.948
   18LIT    LIT  121   2.661   3.014   3.357
   19LIT    LIT  122   2.076   4.787   0.964
   20LIT    LIT  123   0.215   1.848   4.471
   21LIT    LIT  124   6.982   6.702   2.508
   22LIT    LIT  125   4.021   1.899   5.230
   23LIT    LIT  126   7.172   0.173   1.006
   24LIT    LIT  127   6.670   4.777   4.511
   25LIT    LIT  128   0.379   1.950   2.755
   26LIT    LIT  129   0.404   1.695   3.717
   27LIT    LIT  130   3.221   0.712   3.243
   28LIT    LIT  131   0.527   4.888   4.842
   29LIT    LIT  132   6.243   3.782   3.929
   30LIT    LIT  133   6.627   2.421   2.202
   31LIT    LIT  134   5.246   1.598   2.039
   32LIT    LIT  135   1.685   6.553   5.560
   33LIT    LIT  136   2.907   4.055   1.872
   34LIT    LIT  137   5.248   1.260   4.002
   35LIT    LIT  138   1.107   1.442   2.249
   36LIT    LIT  139   1.508   0.110   2.262
   37LIT    LIT  140   0.767   4.052   1.060
   38LIT    LIT  141   3.917   5.899   0.173
   39LIT    LIT  142   2.315   1.067   1.366
   40LIT    LIT  143   2.655   6.152   2.169
   41LIT    LIT  144   1.373   1.397   4.071
   42LIT    LIT  145   1.288   1.256   1.845
   43CLA    CLA  146   2.476   6.013   2.113
   44CLA    CLA  147   4.032   0.635   3.908
   45CLA    CLA  148   2.546   4.359   4.063
   46CLA    CLA  149   5.824   3.569   0.156
   47CLA    CLA  150   0.610   1.643   2.366
   48CLA    CLA  151   4.293   6.107   1.528
   49CLA    CLA  152   3.104   5.983   3.830
   50CLA    CLA  153   2.349   3.681   1.777
   51CLA    CLA  154   6.009   2.068   1.907
   52CLA    CLA  155   3.224   3.666   3.165
   53CLA    CLA  156   1.971   1.976   3.290
   54CLA    CLA  157   4.007   2.123   1.134
   55CLA    CLA  158   6.434   3.238   5.784
   56CLA    CLA  159   6.763   0.424   4.368
   57CLA    CLA  160   6.004   3.419   4.864
   58CLA    CLA  161   3.063   3.909   1.951
   59CLA    CLA  162   5.268   1.265   2.891
   60CLA    CLA  163   7.000   6.215   3.464
   61CLA    CLA  164   1.122   0.481   1.345
   62CLA    CLA  165   6.853   0.922   2.040
   63CLA    CLA  166   2.333   4.287   5.237
   64CLA    CLA  167   4.535   4.862   0.452
   65CLA    CLA  168   0.360   3.962   4.557
   66CLA    CLA  169   1.021   6.560   2.195
   67CLA    CLA  170   6.137   1.828   2.659
   68CLA    CLA  171   0.726   1.721   0.969
   69CLA    CLA  172   3.173   4.183   3.199
   70TIP3   OH2  173   5.346   3.852   0.113
   70TIP3    H1  174   5.412   3.827   0.049
   70TIP3    H2  175   5.317   3.939   0.085
   71TIP3   OH2  176   0.204   4.204   5.596
   71TIP3    H1  177   0.263   4.230   5.525
   71TIP3    H2  178   0.116   4.214   5.560
   72TIP3   OH2  179   0.336   3.920   5.142
   72TIP3    H1  180   0.243   3.897   5.137
   72TIP3    H2  181   0.340   4.009   5.106
   73TIP3   OH2  182   6.323   6.137   4.737
   73TIP3    H1  183   6.374   6.201   4.787
   73TIP3    H2  184   6.233   6.152   4.765
   74TIP3   OH2  185   3.804   5.980   5.151
   74TIP3    H1  186   3.858   5.941   5.082
   74TIP3    H2  187   3.786   5.908   5.211
   75TIP3   OH2  188   4.418   3.486   1.600
   75TIP3    H1  189   4.481   3.467   1.530
   75TIP3    H2  190   4.439   3.576   1.627
   76TIP3   OH2  191   4.985   0.577   5.614
   76TIP3    H1  192   5.059   0.615   5.567
   76TIP3    H2  193   4.909   0.596   5.559
   77TIP3   OH2  194   4.147   1.605   0.106
   77TIP3    H1  195   4.205   1.605   0.030
   77TIP3    H2  196   4.174   1.682   0.157
   78TIP3   OH2  197   3.254   6.296   3.858
   78TIP3    H1  198   3.212   6.213   3.833
   78TIP3    H2  199   3.190   6.340   3.914
   79TIP3   OH2  200   6.995   3.710   4.161
   79TIP3    H1  201   6.906   3.680   4.143
   79TIP3    H2  202   7.036   3.638   4.210
   80TIP3   OH2  203   3.939   1.175   0.717
   80TIP3    H1  204   3.868   1.119   0.749
   80TIP3    H2  205   3.924   1.181   0.623
   81TIP3   OH2  206   0.478   4.373   3.283
   81TIP3    H1  207   0.573   4.367   3.295
   81TIP3    H2  208   0.466   4.372   3.188
   82TIP3   OH2  209   2.678   3.786   4.396
   82TIP3    H1  210   2.725   3.862   4.430
   82TIP3    H2  211   2.717   3.712   4.442
   83TIP3   OH2  212   3.268   5.309   5.366
   83TIP3    H1  213   3.183   5.349   5.347
   83TIP3    H2  214   3.289   5.261   5.286
   84TIP3   OH2  215   6.177   1.439   2.650
   84TIP3    H1  216   6.230   1.473   2.723
   84TIP3    H2  217   6.240   1.423   2.580
   85TIP3   OH2  218   5.857   0.864   4.073
   85TIP3    H1  219   5.902   0.843   3.991
   85TIP3    H2  220   5.771   0.895   4.046
   86TIP3   OH2  221   0.348   1.057   2.112
   86TIP3    H1  222   0.343   0.963   2.095
   86TIP3    H2  223   0.371   1.063   2.205
   87TIP3   OH2  224   6.117   5.872   2.219
   87TIP3    H1  225   6.123   5.808   2.290
   87TIP3    H2  226   6.137   5.956   2.261
   88TIP3   OH2  227   1.040   6.053   5.130
   88TIP3    H1  228   1.128   6.024   5.154
   88TIP3    H2  229   1.053   6.102   5.048
   89TIP3   OH2  230   5.598   4.428   2.885
   89TIP3    H1  231   5.545   4.498   2.846
   89TIP3    H2  232   5.590   4.355   2.825
   90TIP3   OH2  233   0.752   4.701   4.403
   90TIP3    H1  234   0.669   4.663   4.377
   90TIP3    H2  235   0.767   4.771   4.340
   91TIP3   OH2  236   3.506   2.070   5.152
   91TIP3    H1  237   3.556   2.127   5.211
   91TIP3    H2  238   3.443   2.129   5.110
   92TIP3   OH2  239   0.795   5.443   0.216
   92TIP3    H1  240   0.733   5.396   0.159
   92TIP3    H2  241   0.756   5.436   0.303
   93TIP3   OH2  242   0.159   6.224   3.027
   93TIP3    H1  243   0.157   6.129   3.021
   93TIP3    H2  244   0.077   6.247   3.072
   94TIP3   OH2  245   4.224   3.682   0.498
   94TIP3    H1  246   4.201   3.589   0.507
   94TIP3    H2  247   4.319   3.682   0.484
   95TIP3   OH2  248   2.621   2.704   3.968
   95TIP3    H1  249   2.691   2.769   3.976
   95TIP3    H2  250   2.546   2.754   3.937
   96TIP3   OH2  251   6.428   6.586   1.742
   96TIP3    H1  252   6.405   6.647   1.671
   96TIP3    H2  253   6.479   6.517   1.699
   97TIP3   OH2  254   2.497   5.433   3.862
   97TIP3    H1  255   2.527   5.523   3.852
   97TIP3    H2  256   2.560   5.380   3.814
   98TIP3   OH2  257   0.511   3.424   1.878
   98TIP3    H1  258   0.538   3.344   1.924
   98TIP3    H2  259   0.416   3.420   1.877
   99TIP3   OH2  260   1.555   3.979   3.002
   99TIP3    H1  261   1.527   4.062   2.963
   99TIP3    H2  262   1.494   3.964   3.074
  100TIP3   OH2  263   5.478   5.263   5.365
  100TIP3    H1  264   5.493   5.357   5.377
  100TIP3    H2  265   5.563   5.223   5.383
  101TIP3   OH2  266   4.594   3.282   3.903
  101TIP3    H1  267   4.629   3.291   3.815
  101TIP3    H2  268   4.649   3.339   3.957
  102TIP3   OH2  269   3.275   1.437   0.343
  102TIP3    H1  270   3.307   1.392   0.265
  102TIP3    H2  271   3.353   1.477   0.382
  103TIP3   OH2  272   6.907   1.854   0.671
  103TIP3    H1  273   6.831   1.797   0.660
  103TIP3    H2  274   6.953   1.818   0.748
  104TIP3   OH2  275   6.501   3.530   5.289
  104TIP3    H1  276   6.501   3.454   5.230
  104TIP3    H2  277   6.469   3.495   5.372
  105TIP3   OH2  278   7.052   3.053   2.865
  105TIP3    H1  279   7.037   3.123   2.929
  105TIP3    H2  280   6.982   2.990   2.882
  106TIP3   OH2  281   5.196   1.028   5.209
  106TIP3    H1  282   5.214   1.037   5.116
  106TIP3    H2  283   5.218   1.113   5.247
  107TIP3   OH2  284   0.763   5.477   5.057
  107TIP3    H1  285   0.672   5.505   5.073
  107TIP3    H2  286   0.755   5.405   4.994
  108TIP3   OH2  287   3.321   4.363   2.517
  108TIP3    H1  288   3.293   4.453   2.502
  108TIP3    H2  289   3.310   4.350   2.611
  109TIP3   OH2  290   1.811   4.412   3.777
  109TIP3    H1  291   1.756   4.483   3.809
  109TIP3    H2  292   1.804   4.416   3.682
  110TIP3   OH2  293   6.454   6.389   2.828
  110TIP3    H1  294   6.545   6.400   2.856
  110TIP3    H2  295   6.460   6.364   2.735
  111TIP3   OH2  296   0.582   2.590   0.530
  111TIP3    H1  297   0.529   2.598   0.450
  111TIP3    H2  298   0.667   2.558   0.500
  112TIP3   OH2  299   1.462   5.023   0.120
  112TIP3    H1  300   1.373   5.016   0.085
  112TIP3    H2  301   1.507   4.946   0.087
  113TIP3   OH2  302   0.598   5.339   2.563
  113TIP3    H1  303   0.583   5.403   2.632
  113TIP3    H2  304   0.643   5.266   2.606
  114TIP3   OH2  305   2.910   0.405   5.487
  114TIP3    H1  306   2.916   0.322   5.535
  114TIP3    H2  307   2.829   0.397   5.437
  115TIP3   OH2  308   4.001   0.870   1.711
  115TIP3    H1  309   4.092   0.883   1.686
  115TIP3    H2  310   3.978   0.950   1.758
  116TIP3   OH2  311   1.702   0.511   5.077
  116TIP3    H1  312   1.775   0.572   5.076
  116TIP3    H2  313   1.633   0.556   5.125
  117TIP3   OH2  314   4.182   6.285   2.186
  117TIP3    H1  315   4.138   6.296   2.101
  117TIP3    H2  316   4.140   6.349   2.243
  118TIP3   OH2  317   7.071   5.272   5.691
  118TIP3    H1  318   7.120   5.354   5.688
  118TIP3    H2  319   7.130   5.210   5.733
  119TIP3   OH2  320   3.805   0.058   0.931
  119TIP3    H1  321   3.731   0.102   0.973
  119TIP3    H2  322   3.876   0.122   0.935
  120TIP3   OH2  323   1.620   1.886   4.813
  120TIP3    H1  324   1.707   1.847   4.810
  120TIP3    H2  325   1.606   1.921   4.725
  121TIP3   OH2  326   1.167   5.614   1.242
  121TIP3    H1  327   1.256   5.618   1.276
  121TIP3    H2  328   1.173   5.653   1.155
  122TIP3   OH2  329   6.729   3.810   2.714
  122TIP3    H1  330   6.765   3.827   2.801
  122TIP3    H2  331   6.764   3.882   2.660
  123TIP3   OH2  332   2.137   4.923   1.854
  123TIP3    H1  333   2.162   4.980   1.927
  123TIP3    H2  334   2.060   4.875   1.887
  124TIP3   OH2  335   6.570   0.901   1.152
  124TIP3    H1  336   6.653   0.877   1.193
  124TIP3    H2  337   6.595   0.960   1.081
  125TIP3   OH2  338   4.292   3.310   2.421
  125TIP3    H1  339   4.319   3.239   2.362
  125TIP3    H2  340   4.374   3.344   2.457
  126TIP3   OH2  341   0.945   4.669   3.415
  126TIP3    H1  342   0.989   4.688   3.332
  126TIP3    H2  343   0.911   4.754   3.444
  127TIP3   OH2  344   0.225   3.112   5.125
  127TIP3    H1  345   0.225   3.203   5.155
  127TIP3    H2  346   0.203   3.117   5.032
  128TIP3   OH2  347   3.196   1.070   3.898
  128TIP3    H1  348   3.274   1.121   3.921
  128TIP3    H2  349   3.193   1.072   3.803
  129TIP3   OH2  350   3.046   3.344   5.216
  129TIP3    H1  351   3.123   3.401   5.223
  129TIP3    H2  352   2.971   3.404   5.223
  130TIP3   OH2  353   6.228   0.806   0.689
  130TIP3    H1  354   6.164   0.874   0.665
  130TIP3    H2  355   6.194   0.770   0.771
  131TIP3   OH2  356   5.325   0.213   5.346
  131TIP3    H1  357   5.378   0.178   5.418
  131TIP3    H2  358   5.382   0.276   5.303
  132TIP3   OH2  359   6.613   3.474   3.685
  132TIP3    H1  360   6.623   3.568   3.695
  132TIP3    H2  361   6.534   3.452   3.734
  133TIP3   OH2  362   0.731   2.047   4.152
  133TIP3    H1  363   0.788   2.081   4.083
  133TIP3    H2  364   0.660   2.111   4.159
  134TIP3   OH2  365   2.221   2.591   0.876
  134TIP3    H1  366   2.215   2.495   0.875
  134TIP3    H2  367   2.314   2.609   0.873
  135TIP3   OH2  368   2.383   5.545   4.276
  135TIP3    H1  369   2.463   5.503   4.245
  135TIP3    H2  370   2.408   5.587   4.359
  136TIP3   OH2  371   2.427   3.817   4.364
  136TIP3    H1  372   2.396   3.775   4.444
  136TIP3    H2  373   2.522   3.818   4.374
  137TIP3   OH2  374   6.859   2.395   0.363
  137TIP3    H1  375   6.821   2.310   0.385
  137TIP3    H2  376   6.953   2.378   0.356
  138TIP3   OH2  377   6.227   0.433   3.731
  138TIP3    H1  378   6.278   0.416   3.652
  138TIP3    H2  379   6.241   0.357   3.786
  139TIP3   OH2  380   5.953   1.730   4.069
  139TIP3    H1  381   5.886   1.786   4.107
  139TIP3    H2  382   6.034   1.755   4.112
  140TIP3   OH2  383   3.754   5.742   5.252
  140TIP3    H1  384   3.673   5.725   5.300
  140TIP3    H2  385   3.772   5.661   5.205
  141TIP3   OH2  386   6.862   5.445   3.729
  141TIP3    H1  387   6.943   5.477   3.771
  141TIP3    H2  388   6.804   5.522   3.728
  142TIP3   OH2  389   0.631   4.861   3.443
  142TIP3    H1  390   0.557   4.912   3.476
  142TIP3    H2  391   0.590   4.786   3.399
  143TIP3   OH2  392   7.097   6.545   2.456
  143TIP3    H1  393   7.190   6.567   2.454
  143TIP3    H2  394   7.091   6.459   2.414
  144TIP3   OH2  395   1.649   2.873   1.966
  144TIP3    H1  396   1.592   2.866   1.890
  144TIP3    H2  397   1.592   2.906   2.036
  145TIP3   OH2  398   4.826   5.125   4.119
  145TIP3    H1  399   4.904   5.142   4.171
  145TIP3    H2  400   4.846   5.046   4.069
  146TIP3   OH2  401   4.591   5.256   4.233
  146TIP3    H1  402   4.644   5.177   4.240
  146TIP3    H2  403   4.651   5.327   4.256
  147TIP3   OH2  404   2.496   5.113   1.060
  147TIP3    H1  405   2.441   5.059   1.116
  147TIP3    H2  406   2.518   5.189   1.113
  148TIP3   OH2  407   4.167   1.613   0.766
  148TIP3    H1  408   4.178   1.524   0.732
  148TIP3    H2  409   4.098   1.651   0.712
  149TIP3   OH2  410   5.891   2.603   4.977
  149TIP3    H1  411   5.970   2.598   4.924
  149TIP3    H2  412   5.887   2.518   5.022
  150TIP3   OH2  413   0.219   5.471   3.139
  150TIP3    H1  414   0.184   5.456   3.051
  150TIP3    H2  415   0.234   5.566   3.143
  151TIP3   OH2  416   7.109   2.137   2.957
  151TIP3    H1  417   7.034   2.188   2.925
  151TIP3    H2  418   7.078   2.096   3.038
  152TIP3   OH2  419   0.507   6.627   3.359
  152TIP3    H1  420   0.589   6.581   3.378
  152TIP3    H2  421   0.533   6.706   3.312
  153TIP3   OH2  422   1.473   3.375   3.261
  153TIP3    H1  423   1.382   3.352   3.240
  153TIP3    H2  424   1.465   3.438   3.332
  154TIP3   OH2  425   1.723   5.206   4.043
  154TIP3    H1  426   1.809   5.169   4.062
  154TIP3    H2  427   1.693   5.157   3.966
  155TIP3   OH2  428   4.391   5.301   4.536
  155TIP3    H1  429   4.299   5.309   4.512
  155TIP3    H2  430   4.438   5.309   4.453
  156TIP3   OH2  431   2.691   2.188   2.526
  156TIP3    H1  432   2.736   2.113   2.566
  156TIP3    H2  433   2.700   2.258   2.590
  157TIP3   OH2  434   6.394   3.441   5.548
  157TIP3    H1  435   6.345   3.385   5.488
  157TIP3    H2  436   6.427   3.381   5.614
  158TIP3   OH2  437   1.655   6.626   2.550
  158TIP3    H1  438   1.575   6.578   2.531
  158TIP3    H2  439   1.645   6.656   2.640
  159TIP3   OH2  440   5.235   0.633   1.340
  159TIP3    H1  441   5.289   0.665   1.412
  159TIP3    H2  442   5.176   0.706   1.321
  160TIP3   OH2  443   0.471   3.234   0.306
  160TIP3    H1  444   0.425   3.279   0.377
  160TIP3    H2  445   0.453   3.286   0.228
  161TIP3   OH2  446   6.753   2.560   0.161
  161TIP3    H1  447   6.776   2.482   0.212
  161TIP3    H2  448   6.683   2.531   0.103
  162TIP3   OH2  449   3.474   0.183   4.611
  162TIP3    H1  450   3.557   0.219   4.643
  162TIP3    H2  451   3.416   0.183   4.687
  163TIP3   OH2  452   2.672   0.456   4.650
  163TIP3    H1  453   2.757   0.439   4.691
  163TIP3    H2  454   2.687   0.444   4.556
  164TIP3   OH2  455   4.448   5.706   2.110
  164TIP3    H1  456   4.385   5.641   2.140
  164TIP3    H2  457   4.405   5.790   2.124
  165TIP3   OH2  458   1.191   2.686   5.843
  165TIP3    H1  459   1.178   2.746   5.916
  165TIP3    H2  460   1.278   2.706   5.810
  166TIP3   OH2  461   4.021   6.250   4.217
  166TIP3    H1  462   4.037   6.294   4.301
  166TIP3    H2  463   4.103   6.261   4.169
  167TIP3   OH2  464   5.032   2.707   1.092
  167TIP3    H1  465   5.003   2.716   1.183
  167TIP3    H2  466   4.952   2.690   1.043
  168TIP3   OH2  467   4.599   5.273   2.062
  168TIP3    H1  468   4.619   5.366   2.047
  168TIP3    H2  469   4.605   5.263   2.157
  169TIP3   OH2  470   5.448   5.345   3.828
  169TIP3    H1  471   5.480   5.428   3.793
  169TIP3    H2  472   5.376   5.370   3.886
  170TIP3   OH2  473   1.268   3.890   5.804
  170TIP3    H1  474   1.225   3.853   5.727
  170TIP3    H2  475   1.196   3.919   5.860
  171TIP3   OH2  476   2.915   3.064   5.577
  171TIP3    H1  477   2.865   3.146   5.570
  171TIP3    H2  478   2.978   3.081   5.646
  172TIP3   OH2  479   4.399   2.935   4.502
  172TIP3    H1  480   4.424   3.002   4.439
  172TIP3    H2  481   4.448   2.857   4.476
  173TIP3   OH2  482   4.512   6.704   4.538
  173TIP3    H1  483   4.430   6.663   4.566
  173TIP3    H2  484   4.522   6.780   4.594
  174TIP3   OH2  485   6.888   6.146   1.986
  174TIP3    H1  486   6.969   6.099   2.007
  174TIP3    H2  487   6.890   6.224   2.042
  175TIP3   OH2  488   4.969   5.278   1.548
  175TIP3    H1  489   4.894   5.331   1.575
  175TIP3    H2  490   4.988   5.223   1.624
  176TIP3   OH2  491   1.269   2.289   5.277
  176TIP3    H1  492   1.288   2.372   5.233
  176TIP3    H2  493   1.201   2.312   5.341
  177TIP3   OH2  494   2.744   5.911   2.954
  177TIP3    H1  495   2.817   5.930   3.013
  177TIP3    H2  496   2.710   5.997   2.930
  178TIP3   OH2  497   2.592   4.068   2.867
  178TIP3    H1  498   2.590   4.018   2.949
  178TIP3    H2  499   2.537   4.145   2.885
  179TIP3   OH2  500   5.745   1.799   0.113
  179TIP3    H1  501   5.762   1.762   0.200
  179TIP3    H2  502   5.816   1.764   0.059
  180TIP3   OH2  503   0.521   2.940   2.156
  180TIP3    H1  504   0.525   2.846   2.143
  180TIP3    H2  505   0.570   2.956   2.237
  181TIP3   OH2  506   5.420   6.741   2.770
  181TIP3    H1  507   5.397   6.815   2.825
  181TIP3    H2  508   5.347   6.731   2.709
  182TIP3   OH2  509   1.685   1.869   2.169
  182TIP3    H1  510   1.719   1.825   2.091
  182TIP3    H2  511   1.615   1.925   2.136
  183TIP3   OH2  512   4.454   1.366   2.671
  183TIP3    H1  513   4.476   1.458   2.662
  183TIP3    H2  514   4.417   1.342   2.585
  184TIP3   OH2  515   2.501   1.022   2.004
  184TIP3    H1  516   2.501   1.056   1.914
  184TIP3    H2  517   2.412   0.991   2.018
  185TIP3   OH2  518   5.279   4.728   4.365
  185TIP3    H1  519   5.219   4.703   4.436
  185TIP3    H2  520   5.343   4.658   4.361
  186TIP3   OH2  521   2.415   1.904   0.865
  186TIP3    H1  522   2.474   1.925   0.793
  186TIP3    H2  523   2.470   1.866   0.933
  187TIP3   OH2  524   6.784   4.382   4.067
  187TIP3    H1  525   6.724   4.449   4.033
  187TIP3    H2  526   6.815   4.417   4.150
  188TIP3   OH2  527   6.048   6.161   1.048
  188TIP3    H1  528   6.073   6.078   1.006
  188TIP3    H2  529   6.083   6.229   0.990
  189TIP3   OH2  530   6.774   1.965   4.015
  189TIP3    H1  531   6.747   1.874   4.024
  189TIP3    H2  532   6.711   2.004   3.954
  190TIP3   OH2  533   6.068   5.684   5.620
  190TIP3    H1  534   6.154   5.647   5.640
  190TIP3    H2  535   6.085   5.777   5.603
  191TIP3   OH2  536   1.638   3.852   1.604
  191TIP3    H1  537   1.663   3.923   1.663
  191TIP3    H2  538   1.720   3.811   1.579
  192TIP3   OH2  539   0.685   6.118   2.744
  192TIP3    H1  540   0.701   6.211   2.730
  192TIP3    H2  541   0.620   6.094   2.679
  193TIP3   OH2  542   4.880   2.079   4.160
  193TIP3    H1  543   4.787   2.057   4.168
  193TIP3    H2  544   4.919   2.004   4.117
  194TIP3   OH2  545   6.075   3.295   5.839
  194TIP3    H1  546   6.019   3.370   5.857
  194TIP3    H2  547   6.162   3.333   5.826
  195TIP3   OH2  548   1.606   1.800   1.460
  195TIP3    H1  549   1.694   1.782   1.494
  195TIP3    H2  550   1.547   1.754   1.521
  196TIP3   OH2  551   4.044   5.516   5.678
  196TIP3    H1  552   4.022   5.608   5.664
  196TIP3    H2  553   3.968   5.468   5.645
  197TIP3   OH2  554   6.185   3.689   2.821
  197TIP3    H1  555   6.137   3.735   2.889
  197TIP3    H2  556   6.277   3.699   2.846
  198TIP3   OH2  557   0.981   4.854   4.206
  198TIP3    H1  558   1.026   4.911   4.143
  198TIP3    H2  559   0.924   4.799   4.152
  199TIP3   OH2  560   6.036   0.681   3.170
  199TIP3    H1  561   5.993   0.624   3.234
  199TIP3    H2  562   6.098   0.623   3.126
  200TIP3   OH2  563   4.216   0.656   4.400
  200TIP3    H1  564   4.146   0.600   4.365
  200TIP3    H2  565   4.208   0.648   4.495
  201TIP3   OH2  566   3.942   4.898   3.984
  201TIP3    H1  567   3.853   4.917   3.955
  201TIP3    H2  568   3.968   4.822   3.932
  202TIP3   OH2  569   1.378   1.594   0.188
  202TIP3    H1  570   1.326   1.593   0.108
  202TIP3    H2  571   1.444   1.662   0.174
  203TIP3   OH2  572   5.807   2.771   2.548
  203TIP3    H1  573   5.751   2.845   2.522
  203TIP3    H2  574   5.746   2.706   2.582
  204TIP3   OH2  575   2.184   2.226   2.175
  204TIP3    H1  576   2.237   2.293   2.216
  204TIP3    H2  577   2.094   2.256   2.186
  205TIP3   OH2  578   4.010   1.741   3.759
  205TIP3    H1  579   4.056   1.815   3.800
  205TIP3    H2  580   3.957   1.781   3.690
  206TIP3   OH2  581   0.189   3.645   4.246
  206TIP3    H1  582   0.282   3.656   4.229
  206TIP3    H2  583   0.166   3.563   4.202
  207TIP3   OH2  584   2.356   1.009   4.905
  207TIP3    H1  585   2.263   1.032   4.913
  207TIP3    H2  586   2.381   1.046   4.820
  208TIP3   OH2  587   3.624   2.989   0.757
  208TIP3    H1  588   3.623   3.023   0.668
  208TIP3    H2  589   3.633   2.895   0.746
  209TIP3   OH2  590   6.604   3.890   0.259
  209TIP3    H1  591   6.660   3.862   0.332
  209TIP3    H2  592   6.516   3.867   0.286
  210TIP3   OH2  593   0.703   5.162   3.010
  210TIP3    H1  594   0.664   5.151   3.097
  210TIP3    H2  595   0.751   5.245   3.016
  211TIP3   OH2  596   6.025   1.784   0.128
  211TIP3    H1  597   6.085   1.709   0.133
  211TIP3    H2  598   6.004   1.791   0.035
  212TIP3   OH2  599   0.989   5.824   4.471
  212TIP3    H1  600   1.019   5.752   4.526
  212TIP3    H2  601   0.917   5.864   4.519
  213TIP3   OH2  602   2.544   2.006   4.222
  213TIP3    H1  603   2.587   2.022   4.305
  213TIP3    H2  604   2.614   2.016   4.157
  214TIP3   OH2  605   0.223   1.202   1.061
  214TIP3    H1  606   0.269   1.283   1.084
  214TIP3    H2  607   0.292   1.145   1.027
  215TIP3   OH2  608   6.960   1.134   3.943
  215TIP3    H1  609   6.912   1.054   3.967
  215TIP3    H2  610   7.042   1.102   3.906
  216TIP3   OH2  611   6.363   0.093   2.880
  216TIP3    H1  612   6.404   0.119   2.798
  216TIP3    H2  613   6.398   0.155   2.944
  217TIP3   OH2  614   1.356   0.560   0.271
  217TIP3    H1  615   1.346   0.483   0.215
  217TIP3    H2  616   1.326   0.531   0.357
  218TIP3   OH2  617   2.437   0.990   5.346
  218TIP3    H1  618   2.412   1.044   5.421
  218TIP3    H2  619   2.525   0.960   5.367
  219TIP3   OH2  620   4.693   2.707   0.621
  219TIP3    H1  621   4.624   2.719   0.687
  219TIP3    H2  622   4.768   2.673   0.671
  220TIP3   OH2  623   1.648   1.136   0.141
  220TIP3    H1  624   1.560   1.108   0.114
  220TIP3    H2  625   1.634   1.222   0.181
  221TIP3   OH2  626   4.226   1.276   0.401
  221TIP3    H1  627   4.308   1.257   0.446
  221TIP3    H2  628   4.251   1.289   0.309
  222TIP3   OH2  629   0.605   4.437   0.151
  222TIP3    H1  630   0.544   4.501   0.114
  222TIP3    H2  631   0.655   4.406   0.075
  223TIP3   OH2  632   3.449   1.247   3.853
  223TIP3    H1  633   3.487   1.302   3.784
  223TIP3    H2  634   3.497   1.164   3.847
  224TIP3   OH2  635   3.530   5.807   1.512
  224TIP3    H1  636   3.553   5.715   1.518
  224TIP3    H2  637   3.435   5.809   1.527
  225TIP3   OH2  638   4.401   1.341   5.501
  225TIP3    H1  639   4.346   1.396   5.556
  225TIP3    H2  640   4.411   1.391   5.420
  226TIP3   OH2  641   4.303   1.912   4.958
  226TIP3    H1  642   4.396   1.901   4.976
  226TIP3    H2  643   4.281   1.840   4.898
  227TIP3   OH2  644   2.041   6.604   1.771
  227TIP3    H1  645   1.965   6.563   1.811
  227TIP3    H2  646   2.014   6.695   1.756
  228TIP3   OH2  647   5.062   3.745   2.138
  228TIP3    H1  648   5.011   3.757   2.057
  228TIP3    H2  649   5.089   3.834   2.161
  229TIP3   OH2  650   1.796   5.389   1.420
  229TIP3    H1  651   1.719   5.384   1.477
  229TIP3    H2  652   1.867   5.354   1.474
  230TIP3   OH2  653   4.550   0.739   2.291
  230TIP3    H1  654   4.576   0.655   2.328
  230TIP3    H2  655   4.496   0.716   2.216
  231TIP3   OH2  656   5.353   3.143   1.923
  231TIP3    H1  657   5.333   3.228   1.884
  231TIP3    H2  658   5.307   3.143   2.007
  232TIP3   OH2  659   0.767   3.100   3.895
  232TIP3    H1  660   0.823   3.100   3.973
  232TIP3    H2  661   0.741   3.192   3.884
  233TIP3   OH2  662   5.559   4.282   1.573
  233TIP3    H1  663   5.568   4.363   1.524
  233TIP3    H2  664   5.509   4.307   1.651
  234TIP3   OH2  665   3.163   2.920   1.387
  234TIP3    H1  666   3.167   2.976   1.310
  234TIP3    H2  667   3.148   2.981   1.460
  235TIP3   OH2  668   6.690   0.014   1.672
  235TIP3    H1  669   6.616  -0.002   1.731
  235TIP3    H2  670   6.730   0.095   1.705
  236TIP3   OH2  671   2.155   1.621   4.025
  236TIP3    H1  672   2.160   1.562   4.100
  236TIP3    H2  673   2.118   1.702   4.060
  237TIP3   OH2  674   4.244   4.720   4.017
  237TIP3    H1  675   4.178   4.748   3.954
  237TIP3    H2  676   4.250   4.626   4.005
  238TIP3   OH2  677   6.662   0.842   4.549
  238TIP3    H1  678   6.678   0.936   4.540
  238TIP3    H2  679   6.569   0.836   4.571
  239TIP3   OH2  680   0.986   0.961   0.306
  239TIP3    H1  681   0.929   0.942   0.232
  239TIP3    H2  682   0.956   1.046   0.339
  240TIP3   OH2  683   5.502   3.123   1.417
  240TIP3    H1  684   5.479   3.115   1.324
  240TIP3    H2  685   5.423   3.159   1.458
  241TIP3   OH2  686   2.269   5.959   2.601
  241TIP3    H1  687   2.285   5.866   2.613
  241TIP3    H2  688   2.243   5.968   2.509
  242TIP3   OH2  689   3.188   2.884   4.441
  242TIP3    H1  690   3.194   2.978   4.457
  242TIP3    H2  691   3.244   2.868   4.365
  243TIP3   OH2  692   1.086   3.407   1.423
  243TIP3    H1  693   1.064   3.337   1.361
  243TIP3    H2  694   1.002   3.445   1.447
  244TIP3   OH2  695   5.593   5.948   2.143
  244TIP3    H1  696   5.616   5.973   2.054
  244TIP3    H2  697   5.520   6.007   2.166
  245TIP3   OH2  698   1.883   3.835   4.336
  245TIP3    H1  699   1.903   3.866   4.248
  245TIP3    H2  700   1.967   3.838   4.382
  246TIP3   OH2  701   2.029   0.546   0.466
  246TIP3    H1  702   2.038   0.463   0.419
  246TIP3    H2  703   2.050   0.613   0.402
  247TIP3   OH2  704   4.991   1.847   4.026
  247TIP3    H1  705   5.016   1.833   3.935
  247TIP3    H2  706   5.070   1.828   4.076
  248TIP3   OH2  707   4.453   4.861   5.693
  248TIP3    H1  708   4.544   4.837   5.678
  248TIP3    H2  709   4.453   4.904   5.778
  249TIP3   OH2  710   3.509   6.494   1.538
  249TIP3    H1  711   3.589   6.541   1.563
  249TIP3    H2  712   3.439   6.551   1.568
  250TIP3   OH2  713   4.621   1.028   2.050
  250TIP3    H1  714   4.691   1.089   2.073
  250TIP3    H2  715   4.663   0.942   2.050
  251TIP3   OH2  716   5.588   5.019   2.409
  251TIP3    H1  717   5.611   5.102   2.451
  251TIP3    H2  718   5.497   5.003   2.436
  252TIP3   OH2  719   1.788   0.121   4.022
  252TIP3    H1  720   1.781   0.059   3.949
  252TIP3    H2  721   1.878   0.111   4.054
  253TIP3   OH2  722   5.047   2.429   1.480
  253TIP3    H1  723   5.007   2.454   1.563
  253TIP3    H2  724   5.134   2.396   1.504
  254TIP3   OH2  725   3.557   5.809   5.484
  254TIP3    H1  726   3.616   5.760   5.541
  254TIP3    H2  727   3.526   5.882   5.538
  255TIP3   OH2  728   5.323   5.171   1.567
  255TIP3    H1  729   5.241   5.150   1.523
  255TIP3    H2  730   5.300   5.236   1.633
  256TIP3   OH2  731   2.539   1.335   1.629
  256TIP3    H1  732   2.625   1.345   1.668
  256TIP3    H2  733   2.556   1.310   1.539
  257TIP3   OH2  734   3.139   6.705   0.500
  257TIP3    H1  735   3.149   6.666   0.413
  257TIP3    H2  736   3.069   6.770   0.490
  258TIP3   OH2  737   3.828   4.679   5.395
  258TIP3    H1  738   3.872   4.650   5.474
  258TIP3    H2  739   3.846   4.773   5.390
  259TIP3   OH2  740   3.281   4.298   2.776
  259TIP3    H1  741   3.199   4.262   2.811
  259TIP3    H2  742   3.319   4.347   2.849
  260TIP3   OH2  743   6.204   3.217   5.058
  260TIP3    H1  744   6.208   3.126   5.028
  260TIP3    H2  745   6.130   3.255   5.010
  261TIP3   OH2  746   4.626   6.542   0.792
  261TIP3    H1  747   4.656   6.458   0.825
  261TIP3    H2  748   4.696   6.571   0.733
  262TIP3   OH2  749   1.045   0.305   1.658
  262TIP3    H1  750   0.987   0.366   1.612
  262TIP3    H2  751   1.114   0.287   1.595
  263TIP3   OH2  752   6.631   2.155   1.776
  263TIP3    H1  753   6.655   2.167   1.684
  263TIP3    H2  754   6.557   2.215   1.789
  264TIP3   OH2  755   2.449   5.899   3.413
  264TIP3    H1  756   2.495   5.935   3.489
  264TIP3    H2  757   2.497   5.934   3.337
  265TIP3   OH2  758   4.950   1.927   2.049
  265TIP3    H1  759   4.859   1.952   2.064
  265TIP3    H2  760   4.993   2.008   2.021
  266TIP3   OH2  761   0.878   1.562   2.190
  266TIP3    H1  762   0.908   1.642   2.147
  266TIP3    H2  763   0.814   1.592   2.255
  267TIP3   OH2  764   3.513   1.453   4.731
  267TIP3    H1  765   3.453   1.527   4.723
  267TIP3    H2  766   3.552   1.444   4.644
  268TIP3   OH2  767   4.728   3.913   1.596
  268TIP3    H1  768   4.712   3.986   1.657
  268TIP3    H2  769   4.802   3.942   1.543
  269TIP3   OH2  770   0.589   6.081   0.709
  269TIP3    H1  771   0.640   6.032   0.645
  269TIP3    H2  772   0.537   6.014   0.755
  270TIP3   OH2  773   4.499   2.484   2.321
  270TIP3    H1  774   4.499   2.407   2.378
  270TIP3    H2  775   4.592   2.505   2.309
  271TIP3   OH2  776   2.092   6.581   0.140
  271TIP3    H1  777   2.068   6.492   0.168
  271TIP3    H2  778   2.175   6.570   0.093
  272TIP3   OH2  779   3.805   6.136   2.822
  272TIP3    H1  780   3.857   6.065   2.784
  272TIP3    H2  781   3.719   6.127   2.780
  273TIP3   OH2  782   0.636   5.043   1.878
  273TIP3    H1  783   0.604   5.126   1.913
  273TIP3    H2  784   0.620   4.979   1.947
  274TIP3   OH2  785   1.557   1.444   4.062
  274TIP3    H1  786   1.569   1.511   3.994
  274TIP3    H2  787   1.645   1.430   4.097
  275TIP3   OH2  788   4.035   4.794   0.617
  275TIP3    H1  789   4.060   4.800   0.525
  275TIP3    H2  790   3.940   4.778   0.615
  276TIP3   OH2  791   2.899   1.596   5.548
  276TIP3    H1  792   2.809   1.602   5.517
  276TIP3    H2  793   2.951   1.584   5.468
  277TIP3   OH2  794   1.831   2.547   0.378
  277TIP3    H1  795   1.889   2.557   0.454
  277TIP3    H2  796   1.772   2.476   0.402
  278TIP3   OH2  797   3.206   4.098   2.408
  278TIP3    H1  798   3.248   4.178   2.440
  278TIP3    H2  799   3.146   4.072   2.477
  279TIP3   OH2  800   5.672   1.092   3.879
  279TIP3    H1  801   5.643   1.019   3.935
  279TIP3    H2  802   5.686   1.165   3.940
  280TIP3   OH2  803   4.273   0.124   4.052
  280TIP3    H1  804   4.222   0.184   4.106
  280TIP3    H2  805   4.208   0.081   3.996
  281TIP3   OH2  806   0.909   5.612   2.825
  281TIP3    H1  807   0.940   5.699   2.799
  281TIP3    H2  808   0.955   5.552   2.765
  282TIP3   OH2  809   4.570   2.012   4.379
  282TIP3    H1  810   4.608   2.097   4.355
  282TIP3    H2  811   4.542   2.023   4.470
  283TIP3   OH2  812   3.426   2.500   2.323
  283TIP3    H1  813   3.410   2.461   2.409
  283TIP3    H2  814   3.466   2.585   2.342
  284TIP3   OH2  815   2.939   2.085   3.860
  284TIP3    H1  816   2.932   2.025   3.785
  284TIP3    H2  817   2.924   2.171   3.822
  285TIP3   OH2  818   4.332   6.734   3.950
  285TIP3    H1  819   4.264   6.796   3.925
  285TIP3    H2  820   4.317   6.717   4.042
  286TIP3   OH2  821   5.955   0.380   2.905
  286TIP3    H1  822   5.929   0.320   2.835
  286TIP3    H2  823   5.928   0.466   2.873
  287TIP3   OH2  824   5.300   3.025   2.504
  287TIP3    H1  825   5.315   2.957   2.569
  287TIP3    H2  826   5.305   3.107   2.552
  288TIP3   OH2  827   5.706   3.127   1.933
  288TIP3    H1  828   5.676   3.168   1.852
  288TIP3    H2  829   5.658   3.044   1.937
  289TIP3   OH2  830   3.176   6.250   2.092
  289TIP3    H1  831   3.207   6.221   2.177
  289TIP3    H2  832   3.084   6.224   2.090
  290TIP3   OH2  833   4.593   1.063   0.770
  290TIP3    H1  834   4.610   0.974   0.799
  290TIP3    H2  835   4.506   1.059   0.730
  291TIP3   OH2  836   6.944   3.395   0.888
  291TIP3    H1  837   6.922   3.369   0.977
  291TIP3    H2  838   7.040   3.387   0.883
  292TIP3   OH2  839   6.115   0.468   4.113
  292TIP3    H1  840   6.158   0.533   4.058
  292TIP3    H2  841   6.100   0.394   4.055
  293TIP3   OH2  842   3.848   1.560   0.448
  293TIP3    H1  843   3.893   1.627   0.499
  293TIP3    H2  844   3.835   1.601   0.362
  294TIP3   OH2  845   5.710   2.649   4.790
  294TIP3    H1  846   5.768   2.645   4.866
  294TIP3    H2  847   5.693   2.558   4.768
  295TIP3   OH2  848   6.794   5.173   2.317
  295TIP3    H1  849   6.809   5.163   2.411
  295TIP3    H2  850   6.830   5.094   2.277
  296TIP3   OH2  851   5.124   3.930   1.112
  296TIP3    H1  852   5.207   3.918   1.066
  296TIP3    H2  853   5.121   3.859   1.176
  297TIP3   OH2  854   5.080   3.903   0.211
  297TIP3    H1  855   5.155   3.916   0.152
  297TIP3    H2  856   5.116   3.919   0.299
  298TIP3   OH2  857   4.872   4.203   2.082
  298TIP3    H1  858   4.916   4.146   2.019
  298TIP3    H2  859   4.782   4.207   2.051
  299TIP3   OH2  860   1.021   0.592   1.082
  299TIP3    H1  861   0.996   0.672   1.130
  299TIP3    H2  862   1.052   0.532   1.150
  300TIP3   OH2  863   6.611   1.573   0.038
  300TIP3    H1  864   6.552   1.502   0.010
  300TIP3    H2  865   6.671   1.532   0.099
  301TIP3   OH2  866   6.814   5.296   5.770
  301TIP3    H1  867   6.795   5.203   5.764
  301TIP3    H2  868   6.906   5.304   5.747
  302TIP3   OH2  869   2.855   4.066   2.829
  302TIP3    H1  870   2.849   4.005   2.902
  302TIP3    H2  871   2.767   4.103   2.822
  303TIP3   OH2  872   3.910   0.603   5.847
  303TIP3    H1  873   4.003   0.611   5.868
  303TIP3    H2  874   3.900   0.645   5.762
  304TIP3   OH2  875   6.919   0.793   4.433
  304TIP3    H1  876   6.981   0.856   4.395
  304TIP3    H2  877   6.834   0.837   4.427
  305TIP3   OH2  878   4.868   4.617   0.979
  305TIP3    H1  879   4.895   4.705   1.004
  305TIP3    H2  880   4.784   4.604   1.021
  306TIP3   OH2  881   3.171   6.098   4.425
  306TIP3    H1  882   3.181   6.193   4.436
  306TIP3    H2  883   3.096   6.088   4.368
  307TIP3   OH2  884   6.054   4.127   3.972
  307TIP3    H1  885   5.970   4.093   4.001
  307TIP3    H2  886   6.047   4.131   3.876
  308TIP3   OH2  887   2.036   2.659   1.077
  308TIP3    H1  888   2.048   2.605   0.998
  308TIP3    H2  889   2.116   2.711   1.083
  309TIP3   OH2  890   3.482   5.788   1.827
  309TIP3    H1  891   3.423   5.834   1.768
  309TIP3    H2  892   3.425   5.739   1.886
  310TIP3   OH2  893   1.312   0.099   3.354
  310TIP3    H1  894   1.348   0.024   3.401
  310TIP3    H2  895   1.362   0.102   3.272
  311TIP3   OH2  896   5.549   0.425   3.681
  311TIP3    H1  897   5.530   0.359   3.748
  311TIP3    H2  898   5.464   0.447   3.643
  312TIP3   OH2  899   4.443   6.471   2.581
  312TIP3    H1  900   4.422   6.465   2.487
  312TIP3    H2  901   4.414   6.387   2.617
  313TIP3   OH2  902   1.444   4.611   3.820
  313TIP3    H1  903   1.427   4.642   3.909
  313TIP3    H2  904   1.539   4.622   3.810
  314TIP3   OH2  905   1.957   0.205   3.710
  314TIP3    H1  906   2.001   0.233   3.630
  314TIP3    H2  907   2.010   0.242   3.781
  315TIP3   OH2  908   2.511   5.801   3.097
  315TIP3    H1  909   2.576   5.800   3.027
  315TIP3    H2  910   2.541   5.869   3.156
  316TIP3   OH2  911   5.272   0.019   5.160
  316TIP3    H1  912   5.300   0.088   5.220
  316TIP3    H2  913   5.349   0.001   5.107
  317TIP3   OH2  914   5.213   1.547   5.076
  317TIP3    H1  915   5.171   1.572   5.158
  317TIP3    H2  916   5.299   1.589   5.080
  318TIP3   OH2  917   5.014   2.729   0.693
  318TIP3    H1  918   4.982   2.639   0.705
  318TIP3    H2  919   5.109   2.721   0.697
  319TIP3   OH2  920   1.428   0.481   1.226
  319TIP3    H1  921   1.436   0.545   1.155
  319TIP3    H2  922   1.335   0.478   1.246
  320TIP3   OH2  923   0.802   2.247   0.802
  320TIP3    H1  924   0.754   2.188   0.860
  320TIP3    H2  925   0.744   2.322   0.790
  321TIP3   OH2  926   3.699   2.162   1.150
  321TIP3    H1  927   3.791   2.147   1.125
  321TIP3    H2  928   3.679   2.249   1.117
  322TIP3   OH2  929   2.249   2.868   5.449
  322TIP3    H1  930   2.299   2.810   5.507
  322TIP3    H2  931   2.244   2.820   5.366
  323TIP3   OH2  932   1.728   5.866  -0.006
  323TIP3    H1  933   1.663   5.800   0.014
  323TIP3    H2  934   1.680   5.949  -0.001
  324TIP3   OH2  935   2.958   1.014   5.095
  324TIP3    H1  936   3.051   0.990   5.091
  324TIP3    H2  937   2.958   1.102   5.133
  325TIP3   OH2  938   2.455   4.898   2.695
  325TIP3    H1  939   2.482   4.861   2.778
  325TIP3    H2  940   2.428   4.988   2.716
  326TIP3   OH2  941   3.704   1.601   3.157
  326TIP3    H1  942   3.686   1.665   3.088
  326TIP3    H2  943   3.760   1.647   3.219
  327TIP3   OH2  944   1.817   0.427   1.929
  327TIP3    H1  945   1.847   0.480   2.003
  327TIP3    H2  946   1.834   0.337   1.955
  328TIP3   OH2  947   4.618   2.770   4.335
  328TIP3    H1  948   4.663   2.723   4.265
  328TIP3    H2  949   4.654   2.859   4.331
  329TIP3   OH2  950   4.619   4.811   0.154
  329TIP3    H1  951   4.652   4.724   0.131
  329TIP3    H2  952   4.602   4.807   0.248
  330TIP3   OH2  953   4.742   2.336   1.903
  330TIP3    H1  954   4.824   2.307   1.944
  330TIP3    H2  955   4.727   2.423   1.939
  331TIP3   OH2  956   1.990   0.844   4.011
  331TIP3    H1  957   1.951   0.888   3.935
  331TIP3    H2  958   1.915   0.825   4.068
  332TIP3   OH2  959   5.350   1.568   5.302
  332TIP3    H1  960   5.361   1.565   5.397
  332TIP3    H2  961   5.424   1.620   5.270
  333TIP3   OH2  962   5.377   6.711   3.812
  333TIP3    H1  963   5.282   6.709   3.827
  333TIP3    H2  964   5.404   6.620   3.819
  334TIP3   OH2  965   7.131   5.664   2.533
  334TIP3    H1  966   7.142   5.607   2.609
  334TIP3    H2  967   7.220   5.693   2.512
  335TIP3   OH2  968   0.101  -0.015   4.335
  335TIP3    H1  969   0.009  -0.022   4.308
  335TIP3    H2  970   0.125   0.075   4.312
  336TIP3   OH2  971   5.496   6.228   0.949
  336TIP3    H1  972   5.520   6.264   1.034
  336TIP3    H2  973   5.457   6.143   0.969
  337TIP3   OH2  974   0.487   0.946   2.644
  337TIP3    H1  975   0.501   0.882   2.714
  337TIP3    H2  976   0.495   1.031   2.687
  338TIP3   OH2  977   0.375   3.811   2.281
  338TIP3    H1  978   0.441   3.871   2.317
  338TIP3    H2  979   0.385   3.819   2.186
  339TIP3   OH2  980   3.610   0.092   1.219
  339TIP3    H1  981   3.603   0.161   1.153
  339TIP3    H2  982   3.685   0.117   1.273
  340TIP3   OH2  983   3.345   1.795   4.850
  340TIP3    H1  984   3.321   1.729   4.914
  340TIP3    H2  985   3.440   1.788   4.841
  341TIP3   OH2  986   2.263   1.881   1.256
  341TIP3    H1  987   2.195   1.892   1.323
  341TIP3    H2  988   2.248   1.792   1.222
  342TIP3   OH2  989   4.825   3.838   4.524
  342TIP3    H1  990   4.740   3.875   4.501
  342TIP3    H2  991   4.889   3.901   4.491
  343TIP3   OH2  992   5.739   1.273   0.990
  343TIP3    H1  993   5.715   1.319   1.071
  343TIP3    H2  994   5.674   1.301   0.926
  344TIP3   OH2  995   6.664   1.212   2.377
  344TIP3    H1  996   6.630   1.133   2.420
  344TIP3    H2  997   6.666   1.278   2.447
  345TIP3   OH2  998   4.718   4.763   5.707
  345TIP3    H1  999   4.766   4.803   5.779
  345TIP3    H2 1000   4.785   4.744   5.641
  346TIP3   OH2 1001   0.068   0.626   2.525
  346TIP3    H1 1002   0.125   0.550   2.528
  346TIP3    H2 1003   0.025   0.620   2.439
  347TIP3   OH2 1004   2.628   5.740   3.964
  347TIP3    H1 1005   2.722   5.756   3.974
  347TIP3    H2 1006   2.620   5.700   3.877
  348TIP3   OH2 1007   3.631   3.372   4.958
  348TIP3    H1 1008   3.555   3.376   4.901
  348TIP3    H2 1009   3.706   3.369   4.898
  349TIP3   OH2 1010   7.115   4.757   2.234
  349TIP3    H1 1011   7.146   4.709   2.158
  349TIP3    H2 1012   7.149   4.846   2.222
  350TIP3   OH2 1013   2.327   2.719   4.082
  350TIP3    H1 1014   2.332   2.703   4.176
  350TIP3    H2 1015   2.234   2.733   4.064
  351TIP3   OH2 1016   5.242   1.701   4.443
  351TIP3    H1 1017   5.298   1.624   4.455
  351TIP3    H2 1018   5.228   1.734   4.532
  352TIP3   OH2 1019   2.848   6.142   3.331
  352TIP3    H1 1020   2.840   6.143   3.426
  352TIP3    H2 1021   2.942   6.156   3.314
  353TIP3   OH2 1022   0.494   5.664   5.055
  353TIP3    H1 1023   0.534   5.702   5.134
  353TIP3    H2 1024   0.418   5.719   5.038
  354TIP3   OH2 1025   6.122   2.430   0.186
  354TIP3    H1 1026   6.119   2.449   0.093
  354TIP3    H2 1027   6.203   2.380   0.198
  355TIP3   OH2 1028   0.381   2.405   3.729
  355TIP3    H1 1029   0.306   2.463   3.716
  355TIP3    H2 1030   0.352   2.342   3.795
  356TIP3   OH2 1031   2.328   0.897   2.737
  356TIP3    H1 1032   2.307   0.909   2.645
  356TIP3    H2 1033   2.419   0.867   2.737
  357TIP3   OH2 1034   0.199   2.145   4.732
  357TIP3    H1 1035   0.103   2.143   4.722
  357TIP3    H2 1036   0.213   2.192   4.814
  358TIP3   OH2 1037   5.344   1.097   4.092
  358TIP3    H1 1038   5.397   1.045   4.031
  358TIP3    H2 1039   5.342   1.045   4.172
  359TIP3   OH2 1040   1.509   5.106   0.376
  359TIP3    H1 1041   1.490   5.082   0.286
  359TIP3    H2 1042   1.494   5.025   0.426
  360TIP3   OH2 1043   2.006   0.889   1.552
  360TIP3    H1 1044   1.945   0.954   1.587
  360TIP3    H2 1045   2.053   0.935   1.482
  361TIP3   OH2 1046   2.183   2.757   0.456
  361TIP3    H1 1047   2.171   2.803   0.539
  361TIP3    H2 1048   2.152   2.668   0.474
  362TIP3   OH2 1049   6.373   5.939   3.304
  362TIP3    H1 1050   6.319   5.893   3.368
  362TIP3    H2 1051   6.406   6.015   3.350
  363TIP3   OH2 1052   2.850   4.777   4.133
  363TIP3    H1 1053   2.810   4.827   4.204
  363TIP3    H2 1054   2.839   4.685   4.159
  364TIP3   OH2 1055   2.441   3.669   5.572
  364TIP3    H1 1056   2.537   3.666   5.578
  364TIP3    H2 1057   2.418   3.756   5.605
  365TIP3   OH2 1058   1.118   4.038   0.373
  365TIP3    H1 1059   1.079   4.080   0.449
  365TIP3    H2 1060   1.210   4.064   0.375
  366TIP3   OH2 1061   4.988   2.999   3.243
  366TIP3    H1 1062   5.065   3.022   3.295
  366TIP3    H2 1063   5.011   3.025   3.154
  367TIP3   OH2 1064   3.822   5.049   3.490
  367TIP3    H1 1065   3.773   4.979   3.532
  367TIP3    H2 1066   3.777   5.065   3.407
  368TIP3   OH2 1067   6.161   6.176   5.270
  368TIP3    H1 1068   6.068   6.157   5.257
  368TIP3    H2 1069   6.206   6.105   5.223
  369TIP3   OH2 1070   2.272   6.379   1.500
  369TIP3    H1 1071   2.347   6.412   1.550
  369TIP3    H2 1072   2.308   6.357   1.414
  370TIP3   OH2 1073   6.691   0.069   3.242
  370TIP3    H1 1074   6.749   0.069   3.166
  370TIP3    H2 1075   6.676  -0.023   3.262
  371TIP3   OH2 1076   0.512   4.831   0.032
  371TIP3    H1 1077   0.436   4.802   0.082
  371TIP3    H2 1078   0.530   4.758  -0.028
  372TIP3   OH2 1079   0.482   4.932   1.684
  372TIP3    H1 1080   0.434   4.886   1.753
  372TIP3    H2 1081   0.549   4.981   1.730
  373TIP3   OH2 1082   3.332   1.229   5.345
  373TIP3    H1 1083   3.262   1.236   5.411
  373TIP3    H2 1084   3.373   1.145   5.362
  374TIP3   OH2 1085   5.953   0.646   0.424
  374TIP3    H1 1086   5.871   0.692   0.443
  374TIP3    H2 1087   6.016   0.715   0.407
  375TIP3   OH2 1088   3.071   5.629   1.688
  375TIP3    H1 1089   3.007   5.665   1.627
  375TIP3    H2 1090   3.063   5.534   1.678
  376TIP3   OH2 1091   0.650   5.113   3.276
  376TIP3    H1 1092   0.720   5.116   3.342
  376TIP3    H2 1093   0.569   5.106   3.327
  377TIP3   OH2 1094   1.723   2.249   3.919
  377TIP3    H1 1095   1.667   2.282   3.989
  377TIP3    H2 1096   1.671   2.258   3.840
  378TIP3   OH2 1097   0.329   2.963   4.109
  378TIP3    H1 1098   0.293   2.876   4.093
  378TIP3    H2 1099   0.348   2.964   4.203
  379TIP3   OH2 1100   6.589   5.466   5.702
  379TIP3    H1 1101   6.503   5.473   5.744
  379TIP3    H2 1102   6.636   5.402   5.755
  380TIP3   OH2 1103   4.645   4.293   2.404
  380TIP3    H1 1104   4.679   4.356   2.341
  380TIP3    H2 1105   4.713   4.226   2.410
  381TIP3   OH2 1106   4.638   2.976   1.855
  381TIP3    H1 1107   4.706   2.959   1.791
  381TIP3    H2 1108   4.678   2.953   1.939
  382TIP3   OH2 1109   3.983   0.607   3.305
  382TIP3    H1 1110   4.038   0.614   3.227
  382TIP3    H2 1111   3.929   0.686   3.304
  383TIP3   OH2 1112   2.770   6.108   4.123
  383TIP3    H1 1113   2.825   6.035   4.096
  383TIP3    H2 1114   2.681   6.081   4.101
  384TIP3   OH2 1115   5.696   0.627   0.832
  384TIP3    H1 1116   5.663   0.559   0.889
  384TIP3    H2 1117   5.781   0.651   0.869
  385TIP3   OH2 1118   7.147   6.561   0.929
  385TIP3    H1 1119   7.182   6.526   1.011
  385TIP3    H2 1120   7.059   6.591   0.953
  386TIP3   OH2 1121   3.379   3.437   0.089
  386TIP3    H1 1122   3.450   3.474   0.141
  386TIP3    H2 1123   3.342   3.512   0.042
  387TIP3   OH2 1124   1.084   4.691   3.164
  387TIP3    H1 1125   1.171   4.651   3.154
  387TIP3    H2 1126   1.073   4.743   3.084
  388TIP3   OH2 1127   4.036   4.195   1.331
  388TIP3    H1 1128   4.084   4.140   1.269
  388TIP3    H2 1129   4.049   4.152   1.416
  389TIP3   OH2 1130   1.886   2.014   1.483
  389TIP3    H1 1131   1.875   2.089   1.541
  389TIP3    H2 1132   1.804   2.009   1.434
  390TIP3   OH2 1133   6.210   0.419   3.047
  390TIP3    H1 1134   6.126   0.425   3.002
  390TIP3    H2 1135   6.194   0.356   3.118
  391TIP3   OH2 1136   2.026   1.152   1.096
  391TIP3    H1 1137   2.007   1.059   1.108
  391TIP3    H2 1138   1.967   1.197   1.157
  392TIP3   OH2 1139   2.165   4.315   5.479
  392TIP3    H1 1140   2.131   4.404   5.489
  392TIP3    H2 1141   2.208   4.315   5.394
  393TIP3   OH2 1142   2.934   3.541   4.360
  393TIP3    H1 1143   2.942   3.556   4.266
  393TIP3    H2 1144   2.982   3.613   4.400
  394TIP3   OH2 1145   4.150   2.254   5.440
  394TIP3    H1 1146   4.170   2.180   5.498
  394TIP3    H2 1147   4.191   2.329   5.482
  395TIP3   OH2 1148   6.268   4.246   4.156
  395TIP3    H1 1149   6.229   4.334   4.149
  395TIP3    H2 1150   6.204   4.189   4.114
  396TIP3   OH2 1151   0.344   4.957   4.427
  396TIP3    H1 1152   0.294   4.893   4.479
  396TIP3    H2 1153   0.284   4.982   4.356
  397TIP3   OH2 1154   0.321   2.003   1.748
  397TIP3    H1 1155   0.318   2.014   1.844
  397TIP3    H2 1156   0.231   1.977   1.725
  398TIP3   OH2 1157   6.987   1.879   5.515
  398TIP3    H1 1158   6.922   1.811   5.497
  398TIP3    H2 1159   6.935   1.955   5.540
  399TIP3   OH2 1160   1.581   6.474   1.645
  399TIP3    H1 1161   1.527   6.450   1.570
  399TIP3    H2 1162   1.522   6.475   1.719
  400TIP3   OH2 1163   5.625   6.656   1.810
  400TIP3    H1 1164   5.676   6.659   1.890
  400TIP3    H2 1165   5.621   6.746   1.779
  401TIP3   OH2 1166   6.156   0.447   5.557
  401TIP3    H1 1167   6.091   0.473   5.623
  401TIP3    H2 1168   6.107   0.394   5.494
  402TIP3   OH2 1169   3.429   3.161   1.466
  402TIP3    H1 1170   3.406   3.107   1.542
  402TIP3    H2 1171   3.344   3.181   1.425
  403TIP3   OH2 1172   1.877   2.940   1.557
  403TIP3    H1 1173   1.852   2.881   1.629
  403TIP3    H2 1174   1.833   2.904   1.480
  404TIP3   OH2 1175   1.682   3.940   4.014
  404TIP3    H1 1176   1.631   4.003   4.066
  404TIP3    H2 1177   1.770   3.945   4.051
  405TIP3   OH2 1178   1.781   3.010   2.757
  405TIP3    H1 1179   1.770   3.010   2.662
  405TIP3    H2 1180   1.695   2.983   2.791
  406TIP3   OH2 1181   3.933   6.618   0.339
  406TIP3    H1 1182   3.877   6.544   0.316
  406TIP3    H2 1183   3.885   6.665   0.407
  407TIP3   OH2 1184   5.704   2.562   1.157
  407TIP3    H1 1185   5.656   2.612   1.092
  407TIP3    H2 1186   5.754   2.498   1.107
  408TIP3   OH2 1187   0.499   3.489   1.570
  408TIP3    H1 1188   0.504   3.472   1.664
  408TIP3    H2 1189   0.578   3.448   1.534
  409TIP3   OH2 1190   5.462   2.048   5.683
  409TIP3    H1 1191   5.537   2.108   5.692
  409TIP3    H2 1192   5.494   1.979   5.625
  410TIP3   OH2 1193   0.102   3.293   1.653
  410TIP3    H1 1194   0.090   3.218   1.712
  410TIP3    H2 1195   0.167   3.263   1.590
  411TIP3   OH2 1196   3.223   4.129   0.880
  411TIP3    H1 1197   3.203   4.037   0.858
  411TIP3    H2 1198   3.280   4.158   0.809
  412TIP3   OH2 1199   0.734   6.694   2.136
  412TIP3    H1 1200   0.798   6.644   2.186
  412TIP3    H2 1201   0.748   6.667   2.045
  413TIP3   OH2 1202   5.806   4.292   2.329
  413TIP3    H1 1203   5.778   4.244   2.251
  413TIP3    H2 1204   5.889   4.252   2.353
  414TIP3   OH2 1205   1.784   0.083   1.290
  414TIP3    H1 1206   1.866   0.129   1.308
  414TIP3    H2 1207   1.719   0.153   1.278
  415TIP3   OH2 1208   4.305   2.162   5.191
  415TIP3    H1 1209   4.217   2.199   5.190
  415TIP3    H2 1210   4.350   2.210   5.261
  416TIP3   OH2 1211   2.984   1.016   5.491
  416TIP3    H1 1212   3.053   0.972   5.442
  416TIP3    H2 1213   2.968   1.097   5.443
  417TIP3   OH2 1214   1.123   4.954   0.693
  417TIP3    H1 1215   1.119   4.907   0.610
  417TIP3    H2 1216   1.212   4.986   0.698
  418TIP3   OH2 1217   6.600   3.915   4.170
  418TIP3    H1 1218   6.570   3.825   4.163
  418TIP3    H2 1219   6.556   3.949   4.248
  419TIP3   OH2 1220   0.360   6.514   1.135
  419TIP3    H1 1221   0.279   6.497   1.181
  419TIP3    H2 1222   0.371   6.439   1.076
  420TIP3   OH2 1223   5.418   3.065   3.570
  420TIP3    H1 1224   5.448   3.031   3.655
  420TIP3    H2 1225   5.492   3.114   3.536
  421TIP3   OH2 1226   0.965   2.755   4.298
  421TIP3    H1 1227   0.923   2.722   4.218
  421TIP3    H2 1228   0.893   2.779   4.355
  422TIP3   OH2 1229   1.157   5.971   0.382
  422TIP3    H1 1230   1.095   5.900   0.367
  422TIP3    H2 1231   1.151   6.025   0.303
  423TIP3   OH2 1232   6.260   0.778   2.892
  423TIP3    H1 1233   6.193   0.724   2.849
  423TIP3    H2 1234   6.276   0.849   2.831
  424TIP3   OH2 1235   5.939   4.178   2.029
  424TIP3    H1 1236   5.993   4.195   1.952
  424TIP3    H2 1237   6.002   4.153   2.097
  425TIP3   OH2 1238   1.389   4.847   2.711
  425TIP3    H1 1239   1.316   4.905   2.690
  425TIP3    H2 1240   1.439   4.895   2.777
  426TIP3   OH2 1241   4.255   0.861   5.126
  426TIP3    H1 1242   4.208   0.802   5.067
  426TIP3    H2 1243   4.347   0.840   5.113
  427TIP3   OH2 1244   2.734   3.545   5.702
  427TIP3    H1 1245   2.730   3.521   5.794
  427TIP3    H2 1246   2.801   3.613   5.697
  428TIP3   OH2 1247   0.819   6.573   1.893
  428TIP3    H1 1248   0.885   6.504   1.904
  428TIP3    H2 1249   0.763   6.542   1.822
  429TIP3   OH2 1250   6.933   1.824   2.460
  429TIP3    H1 1251   6.894   1.879   2.527
  429TIP3    H2 1252   7.001   1.878   2.421
  430TIP3   OH2 1253   0.962   6.599   3.614
  430TIP3    H1 1254   0.895   6.531   3.607
  430TIP3    H2 1255   0.996   6.608   3.525
  431TIP3   OH2 1256   1.132   3.467   0.570
  431TIP3    H1 1257   1.050   3.514   0.585
  431TIP3    H2 1258   1.187   3.490   0.644
  432TIP3   OH2 1259   0.251   1.475   1.179
  432TIP3    H1 1260   0.262   1.559   1.224
  432TIP3    H2 1261   0.192   1.495   1.106
  433TIP3   OH2 1262   3.774   0.245   1.416
  433TIP3    H1 1263   3.777   0.310   1.486
  433TIP3    H2 1264   3.809   0.165   1.455
  434TIP3   OH2 1265   4.308   1.319   4.027
  434TIP3    H1 1266   4.374   1.383   4.051
  434TIP3    H2 1267   4.243   1.369   3.977
  435TIP3   OH2 1268   3.565   2.788   5.527
  435TIP3    H1 1269   3.491   2.731   5.510
  435TIP3    H2 1270   3.536   2.845   5.598
  436TIP3   OH2 1271   5.745   3.947   0.977
  436TIP3    H1 1272   5.681   4.017   0.966
  436TIP3    H2 1273   5.829   3.987   0.956
  437TIP3   OH2 1274   5.123   3.355   0.186
  437TIP3    H1 1275   5.068   3.396   0.253
  437TIP3    H2 1276   5.082   3.270   0.170
  438TIP3   OH2 1277   3.382   0.213   0.240
  438TIP3    H1 1278   3.396   0.305   0.262
  438TIP3    H2 1279   3.313   0.213   0.174
  439TIP3   OH2 1280   6.957   5.919   5.591
  439TIP3    H1 1281   6.945   5.831   5.627
  439TIP3    H2 1282   6.868   5.953   5.579
  440TIP3   OH2 1283   6.472   4.202   3.739
  440TIP3    H1 1284   6.534   4.205   3.666
  440TIP3    H2 1285   6.526   4.181   3.816
  441TIP3   OH2 1286   4.616   1.926   4.862
  441TIP3    H1 1287   4.708   1.932   4.886
  441TIP3    H2 1288   4.600   1.832   4.849
  442TIP3   OH2 1289   6.402   2.938   0.363
  442TIP3    H1 1290   6.348   2.900   0.433
  442TIP3    H2 1291   6.340   2.990   0.311
  443TIP3   OH2 1292   4.537   5.089   3.838
  443TIP3    H1 1293   4.550   4.994   3.840
  443TIP3    H2 1294   4.543   5.112   3.745
  444TIP3   OH2 1295   6.700   0.335   2.999
  444TIP3    H1 1296   6.740   0.339   3.086
  444TIP3    H2 1297   6.614   0.296   3.014
  445TIP3   OH2 1298   4.247   3.723   2.933
  445TIP3    H1 1299   4.211   3.685   3.013
  445TIP3    H2 1300   4.314   3.661   2.904
  446TIP3   OH2 1301   6.308   0.704   3.541
  446TIP3    H1 1302   6.217   0.718   3.515
  446TIP3    H2 1303   6.358   0.768   3.490
  447TIP3   OH2 1304   4.371   4.220   4.980
  447TIP3    H1 1305   4.373   4.161   4.905
  447TIP3    H2 1306   4.463   4.233   5.003
  448TIP3   OH2 1307   5.861   4.481   2.575
  448TIP3    H1 1308   5.929   4.544   2.600
  448TIP3    H2 1309   5.836   4.508   2.486
  449TIP3   OH2 1310   2.296   1.128   5.533
  449TIP3    H1 1311   2.215   1.079   5.525
  449TIP3    H2 1312   2.275   1.215   5.500
  450TIP3   OH2 1313   0.578   4.022   2.275
  450TIP3    H1 1314   0.506   4.080   2.299
  450TIP3    H2 1315   0.649   4.081   2.248
  451TIP3   OH2 1316   6.310   5.755   0.974
  451TIP3    H1 1317   6.335   5.715   0.891
  451TIP3    H2 1318   6.248   5.693   1.013
  452TIP3   OH2 1319   3.958   1.629   4.082
  452TIP3    H1 1320   4.021   1.595   4.019
  452TIP3    H2 1321   4.012   1.661   4.155
  453TIP3   OH2 1322   2.263   6.161   3.194
  453TIP3    H1 1323   2.180   6.119   3.218
  453TIP3    H2 1324   2.285   6.123   3.109
  454TIP3   OH2 1325   2.454   4.937   2.226
  454TIP3    H1 1326   2.434   4.908   2.315
  454TIP3    H2 1327   2.395   4.887   2.171
  455TIP3   OH2 1328   3.891   5.272   4.962
  455TIP3    H1 1329   3.828   5.216   5.006
  455TIP3    H2 1330   3.970   5.218   4.955
  456TIP3   OH2 1331   4.965   0.293   4.028
  456TIP3    H1 1332   4.973   0.343   4.110
  456TIP3    H2 1333   5.054   0.260   4.012
  457TIP3   OH2 1334   3.305   0.874   1.420
  457TIP3    H1 1335   3.283   0.960   1.458
  457TIP3    H2 1336   3.242   0.862   1.350
  458TIP3   OH2 1337   3.656   2.655   1.962
  458TIP3    H1 1338   3.566   2.679   1.939
  458TIP3    H2 1339   3.708   2.730   1.932
  459TIP3   OH2 1340   7.183   1.095   2.588
  459TIP3    H1 1341   7.235   1.159   2.637
  459TIP3    H2 1342   7.149   1.145   2.514
  460TIP3   OH2 1343   1.362   3.945   5.387
  460TIP3    H1 1344   1.394   3.867   5.432
  460TIP3    H2 1345   1.387   3.931   5.295
  461TIP3   OH2 1346   3.245   1.968   0.045
  461TIP3    H1 1347   3.321   1.960   0.103
  461TIP3    H2 1348   3.255   2.053   0.004
  462TIP3   OH2 1349   0.814   6.728   0.167
  462TIP3    H1 1350   0.863   6.676   0.229
  462TIP3    H2 1351   0.722   6.717   0.192
  463TIP3   OH2 1352   4.268   1.817   3.370
  463TIP3    H1 1353   4.313   1.838   3.452
  463TIP3    H2 1354   4.205   1.887   3.358
  464TIP3   OH2 1355   4.018   4.132   3.248
  464TIP3    H1 1356   3.932   4.150   3.285
  464TIP3    H2 1357   4.006   4.135   3.153
  465TIP3   OH2 1358   5.706   5.092   4.619
  465TIP3    H1 1359   5.642   5.050   4.562
  465TIP3    H2 1360   5.719   5.030   4.691
  466TIP3   OH2 1361   2.351   5.669   4.028
  466TIP3    H1 1362   2.437   5.711   4.028
  466TIP3    H2 1363   2.350   5.617   4.109
  467TIP3   OH2 1364   7.079   2.455   1.100
  467TIP3    H1 1365   7.076   2.368   1.141
  467TIP3    H2 1366   7.173   2.475   1.093
  468TIP3   OH2 1367   2.772   0.882   3.708
  468TIP3    H1 1368   2.850   0.837   3.678
  468TIP3    H2 1369   2.765   0.958   3.651
  469TIP3   OH2 1370   5.289   6.177   5.728
  469TIP3    H1 1371   5.285   6.272   5.717
  469TIP3    H2 1372   5.213   6.143   5.681
  470TIP3   OH2 1373   1.593   5.501   3.355
  470TIP3    H1 1374   1.570   5.583   3.311
  470TIP3    H2 1375   1.601   5.437   3.285
  471TIP3   OH2 1376   7.213   0.636   3.784
  471TIP3    H1 1377   7.215   0.598   3.697
  471TIP3    H2 1378   7.158   0.576   3.835
  472TIP3   OH2 1379   5.028   6.243   5.570
  472TIP3    H1 1380   4.977   6.168   5.601
  472TIP3    H2 1381   5.062   6.215   5.485
  473TIP3   OH2 1382   3.038   4.446   0.281
  473TIP3    H1 1383   3.089   4.473   0.358
  473TIP3    H2 1384   3.072   4.501   0.210
  474TIP3   OH2 1385   6.838   4.725   4.597
  474TIP3    H1 1386   6.846   4.758   4.686
  474TIP3    H2 1387   6.863   4.632   4.604
  475TIP3   OH2 1388   5.270   4.090   0.675
  475TIP3    H1 1389   5.223   4.155   0.726
  475TIP3    H2 1390   5.235   4.006   0.705
  476TIP3   OH2 1391   0.871   0.857   2.612
  476TIP3    H1 1392   0.835   0.829   2.697
  476TIP3    H2 1393   0.875   0.952   2.618
  477TIP3   OH2 1394   5.449   4.547   3.408
  477TIP3    H1 1395   5.490   4.633   3.404
  477TIP3    H2 1396   5.490   4.498   3.336
  478TIP3   OH2 1397   1.835   0.168   2.080
  478TIP3    H1 1398   1.877   0.107   2.141
  478TIP3    H2 1399   1.785   0.112   2.021
  479TIP3   OH2 1400   2.651   4.846   4.317
  479TIP3    H1 1401   2.580   4.885   4.369
  479TIP3    H2 1402   2.619   4.758   4.296
  480TIP3   OH2 1403   6.448   6.622   2.513
  480TIP3    H1 1404   6.435   6.633   2.419
  480TIP3    H2 1405   6.537   6.587   2.520
  481TIP3   OH2 1406   2.373   1.300   0.573
  481TIP3    H1 1407   2.430   1.236   0.615
  481TIP3    H2 1408   2.354   1.263   0.487
  482TIP3   OH2 1409   6.700   1.934   1.918
  482TIP3    H1 1410   6.669   2.009   1.868
  482TIP3    H2 1411   6.657   1.859   1.878
  483TIP3   OH2 1412   4.446   5.689   4.076
  483TIP3    H1 1413   4.502   5.656   4.006
  483TIP3    H2 1414   4.424   5.611   4.128
  484TIP3   OH2 1415   0.762   5.551   1.397
  484TIP3    H1 1416   0.667   5.545   1.397
  484TIP3    H2 1417   0.782   5.614   1.328
  485TIP3   OH2 1418   1.823   4.651   5.495
  485TIP3    H1 1419   1.813   4.744   5.476
  485TIP3    H2 1420   1.870   4.648   5.578
  486TIP3   OH2 1421   6.352   4.411   1.131
  486TIP3    H1 1422   6.257   4.409   1.121
  486TIP3    H2 1423   6.369   4.364   1.212
  487TIP3   OH2 1424   0.577   6.141   1.997
  487TIP3    H1 1425   0.513   6.190   1.945
  487TIP3    H2 1426   0.585   6.057   1.953
  488TIP3   OH2 1427   3.195   1.173   2.424
  488TIP3    H1 1428   3.165   1.177   2.515
  488TIP3    H2 1429   3.167   1.087   2.394
  489TIP3   OH2 1430   6.808   2.022   5.699
  489TIP3    H1 1431   6.713   2.017   5.685
  489TIP3    H2 1432   6.830   2.113   5.681
  490TIP3   OH2 1433   6.429   1.767   1.681
  490TIP3    H1 1434   6.427   1.723   1.766
  490TIP3    H2 1435   6.361   1.835   1.687
  491TIP3   OH2 1436   5.463   6.281   3.449
  491TIP3    H1 1437   5.507   6.364   3.430
  491TIP3    H2 1438   5.485   6.262   3.540
  492TIP3   OH2 1439   2.825   4.860   1.292
  492TIP3    H1 1440   2.827   4.956   1.282
  492TIP3    H2 1441   2.771   4.830   1.219
  493TIP3   OH2 1442   1.698   1.139   0.936
  493TIP3    H1 1443   1.630   1.083   0.975
  493TIP3    H2 1444   1.729   1.089   0.861
  494TIP3   OH2 1445   2.898   1.007   2.090
  494TIP3    H1 1446   2.912   1.063   2.014
  494TIP3    H2 1447   2.879   1.068   2.161
  495TIP3   OH2 1448   1.142   0.329   2.836
  495TIP3    H1 1449   1.053   0.342   2.869
  495TIP3    H2 1450   1.191   0.295   2.911
  496TIP3   OH2 1451  -0.012   5.766   3.993
  496TIP3    H1 1452  -0.028   5.855   4.023
  496TIP3    H2 1453   0.083   5.759   3.987
  497TIP3   OH2 1454   6.644   6.361   4.227
  497TIP3    H1 1455   6.669   6.453   4.217
  497TIP3    H2 1456   6.622   6.352   4.320
  498TIP3   OH2 1457   4.792   5.103   1.071
  498TIP3    H1 1458   4.828   5.159   1.139
  498TIP3    H2 1459   4.777   5.019   1.114
  499TIP3   OH2 1460   2.214   5.702   4.889
  499TIP3    H1 1461   2.174   5.728   4.971
  499TIP3    H2 1462   2.185   5.612   4.876
  500TIP3   OH2 1463   0.431   6.568   5.223
  500TIP3    H1 1464   0.357   6.519   5.260
  500TIP3    H2 1465   0.397   6.606   5.142
  501TIP3   OH2 1466   1.873   0.874   4.871
  501TIP3    H1 1467   1.849   0.863   4.779
  501TIP3    H2 1468   1.968   0.878   4.871
  502TIP3   OH2 1469   0.531   3.673   0.109
  502TIP3    H1 1470   0.507   3.710   0.024
  502TIP3    H2 1471   0.591   3.737   0.147
  503TIP3   OH2 1472   3.271   2.778   2.320
  503TIP3    H1 1473   3.285   2.786   2.226
  503TIP3    H2 1474   3.180   2.807   2.334
  504TIP3   OH2 1475   5.824   0.151   4.973
  504TIP3    H1 1476   5.858   0.227   4.926
  504TIP3    H2 1477   5.761   0.187   5.035
  505TIP3   OH2 1478   0.199   0.671   0.605
  505TIP3    H1 1479   0.221   0.694   0.695
  505TIP3    H2 1480   0.159   0.584   0.611
  506TIP3   OH2 1481   2.562   4.614   4.232
  506TIP3    H1 1482   2.467   4.600   4.221
  506TIP3    H2 1483   2.602   4.544   4.181
  507TIP3   OH2 1484   3.287   0.316   5.333
  507TIP3    H1 1485   3.259   0.250   5.396
  507TIP3    H2 1486   3.308   0.393   5.387
  508TIP3   OH2 1487   6.606   2.241   3.202
  508TIP3    H1 1488   6.601   2.336   3.190
  508TIP3    H2 1489   6.592   2.228   3.296
  509TIP3   OH2 1490   6.008   0.130   2.108
  509TIP3    H1 1491   5.951   0.119   2.033
  509TIP3    H2 1492   6.052   0.045   2.117
  510TIP3   OH2 1493   2.574   4.941   5.229
  510TIP3    H1 1494   2.574   4.915   5.321
  510TIP3    H2 1495   2.581   4.859   5.180
  511TIP3   OH2 1496   4.886   3.548   1.583
  511TIP3    H1 1497   4.957   3.609   1.604
  511TIP3    H2 1498   4.909   3.513   1.497
  512TIP3   OH2 1499   2.972   3.558   0.130
  512TIP3    H1 1500   2.896   3.569   0.074
  512TIP3    H2 1501   2.947   3.487   0.190
  513TIP3   OH2 1502   4.800   6.685   3.443
  513TIP3    H1 1503   4.747   6.664   3.520
  513TIP3    H2 1504   4.780   6.777   3.424
  514TIP3   OH2 1505   1.226   3.557   5.512
  514TIP3    H1 1506   1.179   3.531   5.433
  514TIP3    H2 1507   1.195   3.497   5.579
  515TIP3   OH2 1508   1.902   1.857   2.365
  515TIP3    H1 1509   1.816   1.860   2.324
  515TIP3    H2 1510   1.957   1.914   2.311
  516TIP3   OH2 1511   2.901   0.318   3.034
  516TIP3    H1 1512   2.852   0.311   2.952
  516TIP3    H2 1513   2.988   0.284   3.014
  517TIP3   OH2 1514   1.815   3.697   0.038
  517TIP3    H1 1515   1.815   3.666  -0.052
  517TIP3    H2 1516   1.881   3.644   0.083
  518TIP3   OH2 1517   6.231   5.352   2.746
  518TIP3    H1 1518   6.217   5.398   2.829
  518TIP3    H2 1519   6.307   5.296   2.762
  519TIP3   OH2 1520   5.270   2.622   4.356
  519TIP3    H1 1521   5.184   2.621   4.398
  519TIP3    H2 1522   5.332   2.606   4.427
  520TIP3   OH2 1523   5.258   5.701   3.609
  520TIP3    H1 1524   5.342   5.708   3.565
  520TIP3    H2 1525   5.194   5.690   3.539
  521TIP3   OH2 1526   0.901   3.591   2.747
  521TIP3    H1 1527   0.859   3.561   2.828
  521TIP3    H2 1528   0.943   3.513   2.712
  522TIP3   OH2 1529   0.500   1.270   2.300
  522TIP3    H1 1530   0.453   1.207   2.354
  522TIP3    H2 1531   0.453   1.352   2.314
  523TIP3   OH2 1532   4.639   3.185   5.812
  523TIP3    H1 1533   4.605   3.275   5.813
  523TIP3    H2 1534   4.614   3.151   5.725
  524TIP3   OH2 1535   2.918   5.142   0.340
  524TIP3    H1 1536   2.933   5.202   0.267
  524TIP3    H2 1537   2.960   5.184   0.415
  525TIP3   OH2 1538   1.521   3.006   5.678
  525TIP3    H1 1539   1.559   3.072   5.621
  525TIP3    H2 1540   1.531   2.923   5.631
  526TIP3   OH2 1541   2.485   0.990   4.646
  526TIP3    H1 1542   2.519   0.955   4.564
  526TIP3    H2 1543   2.558   1.039   4.683
  527TIP3   OH2 1544   7.017   3.410   2.686
  527TIP3    H1 1545   6.934   3.426   2.641
  527TIP3    H2 1546   7.084   3.442   2.625
  528TIP3   OH2 1547   3.030   2.470   3.120
  528TIP3    H1 1548   3.073   2.411   3.182
  528TIP3    H2 1549   3.062   2.442   3.034
  529TIP3   OH2 1550   6.356   4.528   4.548
  529TIP3    H1 1551   6.287   4.461   4.550
  529TIP3    H2 1552   6.308   4.611   4.553
  530TIP3   OH2 1553   3.727   5.889   4.749
  530TIP3    H1 1554   3.794   5.935   4.799
  530TIP3    H2 1555   3.776   5.843   4.681
  531TIP3   OH2 1556   5.260   5.133   5.250
  531TIP3    H1 1557   5.286   5.139   5.158
  531TIP3    H2 1558   5.339   5.156   5.299
  532TIP3   OH2 1559   3.439   4.477   4.808
  532TIP3    H1 1560   3.494   4.552   4.784
  532TIP3    H2 1561   3.363   4.516   4.852
  533TIP3   OH2 1562   1.156   0.545   1.763
  533TIP3    H1 1563   1.087   0.495   1.719
  533TIP3    H2 1564   1.212   0.576   1.692
  534TIP3   OH2 1565   3.076   6.750   4.975
  534TIP3    H1 1566   3.158   6.754   5.024
  534TIP3    H2 1567   3.098   6.783   4.888
  535TIP3   OH2 1568   5.601   5.367   2.149
  535TIP3    H1 1569   5.588   5.431   2.219
  535TIP3    H2 1570   5.513   5.341   2.123
  536TIP3   OH2 1571   0.153   0.397   1.590
  536TIP3    H1 1572   0.197   0.481   1.597
  536TIP3    H2 1573   0.069   0.410   1.632
  537TIP3   OH2 1574   0.207   4.773   5.125
  537TIP3    H1 1575   0.176   4.716   5.054
  537TIP3    H2 1576   0.294   4.739   5.146
  538TIP3   OH2 1577   3.015   6.590   1.762
  538TIP3    H1 1578   3.018   6.581   1.667
  538TIP3    H2 1579   3.079   6.527   1.795
  539TIP3   OH2 1580   5.361   0.774   1.570
  539TIP3    H1 1581   5.359   0.706   1.637
  539TIP3    H2 1582   5.310   0.846   1.608
  540TIP3   OH2 1583   2.615   0.838   3.164
  540TIP3    H1 1584   2.520   0.834   3.176
  540TIP3    H2 1585   2.649   0.867   3.248
  541TIP3   OH2 1586   3.099   5.081   5.418
  541TIP3    H1 1587   3.136   5.148   5.477
  541TIP3    H2 1588   3.116   5.115   5.331
  542TIP3   OH2 1589   4.397   4.223   1.804
  542TIP3    H1 1590   4.325   4.273   1.842
  542TIP3    H2 1591   4.474   4.251   1.853
  543TIP3   OH2 1592   0.218   2.244   0.450
  543TIP3    H1 1593   0.207   2.152   0.427
  543TIP3    H2 1594   0.308   2.265   0.427
  544TIP3   OH2 1595   4.230   6.354   1.028
  544TIP3    H1 1596   4.140   6.339   1.057
  544TIP3    H2 1597   4.284   6.312   1.095
  545TIP3   OH2 1598   0.064   3.874   5.129
  545TIP3    H1 1599  -0.004   3.818   5.091
  545TIP3    H2 1600   0.014   3.947   5.168
  546TIP3   OH2 1601   4.356   3.911   3.301
  546TIP3    H1 1602   4.287   3.976   3.311
  546TIP3    H2 1603   4.381   3.917   3.209
  547TIP3   OH2 1604   2.740   6.445   2.872
  547TIP3    H1 1605   2.788   6.514   2.826
  547TIP3    H2 1606   2.766   6.455   2.964
  548TIP3   OH2 1607   2.060   1.972  -0.010
  548TIP3    H1 1608   2.079   1.960   0.083
  548TIP3    H2 1609   2.124   1.917  -0.055
  549TIP3   OH2 1610   0.300   4.340   4.280
  549TIP3    H1 1611   0.252   4.419   4.305
  549TIP3    H2 1612   0.236   4.270   4.288
  550TIP3   OH2 1613   2.846   0.799   4.663
  550TIP3    H1 1614   2.936   0.771   4.676
  550TIP3    H2 1615   2.793   0.727   4.694
  551TIP3   OH2 1616   6.327   1.972   0.323
  551TIP3    H1 1617   6.337   1.884   0.360
  551TIP3    H2 1618   6.250   2.008   0.367
  552TIP3   OH2 1619   6.951   6.548   2.938
  552TIP3    H1 1620   6.940   6.513   3.026
  552TIP3    H2 1621   7.035   6.595   2.941
  553TIP3   OH2 1622   1.050   3.757   5.679
  553TIP3    H1 1623   0.971   3.744   5.627
  553TIP3    H2 1624   1.118   3.707   5.633
  554TIP3   OH2 1625   3.738   2.318   4.385
  554TIP3    H1 1626   3.694   2.235   4.406
  554TIP3    H2 1627   3.682   2.385   4.423
  555TIP3   OH2 1628   4.785   5.444   4.253
  555TIP3    H1 1629   4.868   5.432   4.208
  555TIP3    H2 1630   4.810   5.463   4.344
  556TIP3   OH2 1631   1.447   4.464   2.243
  556TIP3    H1 1632   1.532   4.454   2.287
  556TIP3    H2 1633   1.403   4.379   2.257
  557TIP3   OH2 1634   6.074   3.391  -0.022
  557TIP3    H1 1635   5.984   3.413   0.006
  557TIP3    H2 1636   6.112   3.347   0.054
  558TIP3   OH2 1637   2.558   6.201   3.887
  558TIP3    H1 1638   2.642   6.184   3.845
  558TIP3    H2 1639   2.539   6.121   3.937
  559TIP3   OH2 1640   5.473   0.338   0.347
  559TIP3    H1 1641   5.468   0.257   0.295
  559TIP3    H2 1642   5.528   0.396   0.296
  560TIP3   OH2 1643   3.659   3.340   1.322
  560TIP3    H1 1644   3.592   3.278   1.352
  560TIP3    H2 1645   3.644   3.418   1.375
  561TIP3   OH2 1646   2.387   3.286   3.701
  561TIP3    H1 1647   2.399   3.281   3.606
  561TIP3    H2 1648   2.362   3.378   3.716
  562TIP3   OH2 1649   5.400   3.470   3.354
  562TIP3    H1 1650   5.493   3.449   3.353
  562TIP3    H2 1651   5.381   3.489   3.446
  563TIP3   OH2 1652   0.667   4.539   2.427
  563TIP3    H1 1653   0.696   4.574   2.511
  563TIP3    H2 1654   0.748   4.514   2.382
  564TIP3   OH2 1655   4.879   0.259   0.175
  564TIP3    H1 1656   4.830   0.339   0.192
  564TIP3    H2 1657   4.812   0.190   0.176
  565TIP3   OH2 1658   0.671   1.278   5.507
  565TIP3    H1 1659   0.743   1.271   5.570
  565TIP3    H2 1660   0.617   1.349   5.541
  566TIP3   OH2 1661   4.873   1.322   1.132
  566TIP3    H1 1662   4.788   1.280   1.117
  566TIP3    H2 1663   4.937   1.262   1.094
  567TIP3   OH2 1664   4.243   1.311   0.118
  567TIP3    H1 1665   4.217   1.307   0.026
  567TIP3    H2 1666   4.300   1.235   0.129
  568TIP3   OH2 1667   4.796   2.362   0.333
  568TIP3    H1 1668   4.845   2.329   0.408
  568TIP3    H2 1669   4.722   2.408   0.372
  569TIP3   OH2 1670   0.549   5.783   3.718
  569TIP3    H1 1671   0.597   5.782   3.800
  569TIP3    H2 1672   0.610   5.746   3.654
  570TIP3   OH2 1673   4.513   5.042   2.528
  570TIP3    H1 1674   4.566   5.050   2.607
  570TIP3    H2 1675   4.438   4.989   2.554
  571TIP3   OH2 1676   3.983   4.875   5.726
  571TIP3    H1 1677   3.901   4.922   5.716
  571TIP3    H2 1678   4.021   4.873   5.638
  572TIP3   OH2 1679   2.135   5.911   4.251
  572TIP3    H1 1680   2.043   5.919   4.225
  572TIP3    H2 1681   2.163   6.001   4.267
  573TIP3   OH2 1682   0.960   3.463   5.613
  573TIP3    H1 1683   1.006   3.397   5.665
  573TIP3    H2 1684   0.868   3.438   5.621
  574TIP3   OH2 1685   5.829   5.918   0.076
  574TIP3    H1 1686   5.897   5.862   0.037
  574TIP3    H2 1687   5.789   5.962   0.001
  575TIP3   OH2 1688   6.890   1.792   5.801
  575TIP3    H1 1689   6.819   1.751   5.851
  575TIP3    H2 1690   6.852   1.872   5.765
  576TIP3   OH2 1691   1.669   1.719   0.898
  576TIP3    H1 1692   1.686   1.665   0.821
  576TIP3    H2 1693   1.752   1.763   0.915
  577TIP3   OH2 1694   5.642   3.310   2.400
  577TIP3    H1 1695   5.603   3.247   2.339
  577TIP3    H2 1696   5.625   3.396   2.359
  578TIP3   OH2 1697   0.166   5.292   4.379
  578TIP3    H1 1698   0.214   5.341   4.313
  578TIP3    H2 1699   0.109   5.357   4.420
  579TIP3   OH2 1700   3.135   2.625   1.264
  579TIP3    H1 1701   3.175   2.579   1.337
  579TIP3    H2 1702   3.144   2.718   1.285
  580TIP3   OH2 1703   3.275   2.042   0.552
  580TIP3    H1 1704   3.231   2.126   0.541
  580TIP3    H2 1705   3.226   1.982   0.497
  581TIP3   OH2 1706   4.245   5.517   2.126
  581TIP3    H1 1707   4.171   5.576   2.138
  581TIP3    H2 1708   4.214   5.451   2.064
  582TIP3   OH2 1709   2.477   2.646   0.785
  582TIP3    H1 1710   2.467   2.738   0.759
  582TIP3    H2 1711   2.567   2.640   0.816
  583TIP3   OH2 1712   6.776   3.811   0.472
  583TIP3    H1 1713   6.804   3.833   0.561
  583TIP3    H2 1714   6.846   3.754   0.439
  584TIP3   OH2 1715   3.016   0.695   2.542
  584TIP3    H1 1716   2.974   0.760   2.486
  584TIP3    H2 1717   2.945   0.656   2.592
  585TIP3   OH2 1718   7.045   0.882   5.881
  585TIP3    H1 1719   7.095   0.889   5.801
  585TIP3    H2 1720   7.102   0.834   5.942
  586TIP3   OH2 1721   3.859   4.618   5.672
  586TIP3    H1 1722   3.913   4.564   5.730
  586TIP3    H2 1723   3.877   4.708   5.699
  587TIP3   OH2 1724   1.869   5.061   3.476
  587TIP3    H1 1725   1.775   5.048   3.480
  587TIP3    H2 1726   1.886   5.093   3.387
  588TIP3   OH2 1727   6.526   6.324   0.476
  588TIP3    H1 1728   6.582   6.387   0.521
  588TIP3    H2 1729   6.585   6.276   0.418
  589TIP3   OH2 1730   2.811   2.786   1.614
  589TIP3    H1 1731   2.865   2.863   1.636
  589TIP3    H2 1732   2.728   2.802   1.658
  590TIP3   OH2 1733   6.561   5.922   0.902
  590TIP3    H1 1734   6.626   5.890   0.964
  590TIP3    H2 1735   6.477   5.902   0.942
  591TIP3   OH2 1736   3.927   3.328   1.776
  591TIP3    H1 1737   4.017   3.296   1.779
  591TIP3    H2 1738   3.935   3.423   1.783
  592TIP3   OH2 1739   0.792   5.946   5.147
  592TIP3    H1 1740   0.879   5.987   5.154
  592TIP3    H2 1741   0.748   5.968   5.229
  593TIP3   OH2 1742   3.961   2.777   3.959
  593TIP3    H1 1743   3.907   2.826   4.022
  593TIP3    H2 1744   4.013   2.718   4.013
  594TIP3   OH2 1745   6.762   3.067   3.245
  594TIP3    H1 1746   6.777   3.025   3.160
  594TIP3    H2 1747   6.802   3.153   3.236
  595TIP3   OH2 1748   1.723   0.659   0.435
  595TIP3    H1 1749   1.679   0.634   0.516
  595TIP3    H2 1750   1.784   0.728   0.461
  596TIP3   OH2 1751   0.730   6.610   4.128
  596TIP3    H1 1752   0.684   6.580   4.051
  596TIP3    H2 1753   0.668   6.667   4.174
  597TIP3   OH2 1754   2.482   0.173   0.460
  597TIP3    H1 1755   2.446   0.259   0.442
  597TIP3    H2 1756   2.407   0.122   0.491
  598TIP3   OH2 1757   1.092   3.794   2.815
  598TIP3    H1 1758   1.172   3.748   2.793
  598TIP3    H2 1759   1.022   3.730   2.801
  599TIP3   OH2 1760   2.059   3.656   4.199
  599TIP3    H1 1761   2.048   3.746   4.230
  599TIP3    H2 1762   2.151   3.650   4.176
  600TIP3   OH2 1763   4.012   4.501   4.671
  600TIP3    H1 1764   3.962   4.580   4.650
  600TIP3    H2 1765   3.947   4.441   4.707
  601TIP3   OH2 1766   1.044   1.971   1.425
  601TIP3    H1 1767   1.047   2.044   1.363
  601TIP3    H2 1768   1.060   2.011   1.511
  602TIP3   OH2 1769   0.848   4.984   2.600
  602TIP3    H1 1770   0.798   5.064   2.617
  602TIP3    H2 1771   0.782   4.915   2.591
  603TIP3   OH2 1772   4.450   3.264   5.394
  603TIP3    H1 1773   4.459   3.341   5.450
  603TIP3    H2 1774   4.360   3.234   5.409
  604TIP3   OH2 1775   6.423   3.382   4.823
  604TIP3    H1 1776   6.470   3.302   4.844
  604TIP3    H2 1777   6.446   3.401   4.732
  605TIP3   OH2 1778   4.577   0.211   1.063
  605TIP3    H1 1779   4.621   0.270   1.001
  605TIP3    H2 1780   4.552   0.267   1.136
  606TIP3   OH2 1781   6.551   2.081   5.767
  606TIP3    H1 1782   6.502   2.025   5.828
  606TIP3    H2 1783   6.483   2.125   5.716
  607TIP3   OH2 1784   5.926   6.558   5.372
  607TIP3    H1 1785   6.020   6.541   5.366
  607TIP3    H2 1786   5.892   6.536   5.285
  608TIP3   OH2 1787   0.370   3.734   3.624
  608TIP3    H1 1788   0.462   3.753   3.645
  608TIP3    H2 1789   0.323   3.813   3.651
  609TIP3   OH2 1790   3.157   3.059   4.699
  609TIP3    H1 1791   3.066   3.041   4.723
  609TIP3    H2 1792   3.157   3.151   4.673
  610TIP3   OH2 1793   3.829   3.171   1.554
  610TIP3    H1 1794   3.814   3.209   1.640
  610TIP3    H2 1795   3.914   3.206   1.526
  611TIP3   OH2 1796   6.434   4.331   2.936
  611TIP3    H1 1797   6.438   4.427   2.930
  611TIP3    H2 1798   6.523   4.305   2.956
  612TIP3   OH2 1799   1.905   5.405   0.595
  612TIP3    H1 1800   1.900   5.500   0.583
  612TIP3    H2 1801   1.976   5.377   0.538
  613TIP3   OH2 1802   3.507   1.446   3.662
  613TIP3    H1 1803   3.495   1.499   3.741
  613TIP3    H2 1804   3.506   1.509   3.590
  614TIP3   OH2 1805   0.456   5.551   1.388
  614TIP3    H1 1806   0.415   5.630   1.352
  614TIP3    H2 1807   0.432   5.482   1.326
  615TIP3   OH2 1808   5.793   5.993   0.793
  615TIP3    H1 1809   5.855   5.963   0.726
  615TIP3    H2 1810   5.783   5.918   0.851
  616TIP3   OH2 1811   2.343   6.135   5.649
  616TIP3    H1 1812   2.405   6.205   5.672
  616TIP3    H2 1813   2.258   6.178   5.647
  617TIP3   OH2 1814   5.294   0.700   0.922
  617TIP3    H1 1815   5.220   0.651   0.886
  617TIP3    H2 1816   5.336   0.739   0.845
  618TIP3   OH2 1817   4.753   6.206   3.785
  618TIP3    H1 1818   4.776   6.124   3.742
  618TIP3    H2 1819   4.831   6.261   3.777
  619TIP3   OH2 1820   2.684   2.260   1.805
  619TIP3    H1 1821   2.777   2.280   1.818
  619TIP3    H2 1822   2.648   2.339   1.765
  620TIP3   OH2 1823   2.946   2.188   4.190
  620TIP3    H1 1824   2.990   2.268   4.160
  620TIP3    H2 1825   2.991   2.117   4.146
  621TIP3   OH2 1826   0.966   1.025   5.506
  621TIP3    H1 1827   1.019   1.103   5.490
  621TIP3    H2 1828   0.923   1.041   5.590
  622TIP3   OH2 1829   4.838   3.763   0.772
  622TIP3    H1 1830   4.774   3.793   0.708
  622TIP3    H2 1831   4.789   3.756   0.854
  623TIP3   OH2 1832   4.862   1.889   4.966
  623TIP3    H1 1833   4.837   1.968   5.013
  623TIP3    H2 1834   4.927   1.847   5.023
  624TIP3   OH2 1835   3.353   4.910   1.099
  624TIP3    H1 1836   3.400   4.901   1.182
  624TIP3    H2 1837   3.374   4.830   1.050
  625TIP3   OH2 1838   4.729   4.146   0.690
  625TIP3    H1 1839   4.669   4.219   0.702
  625TIP3    H2 1840   4.767   4.160   0.603
  626TIP3   OH2 1841   3.410   6.695   5.608
  626TIP3    H1 1842   3.397   6.691   5.703
  626TIP3    H2 1843   3.481   6.633   5.591
  627TIP3   OH2 1844   5.785   6.621   0.161
  627TIP3    H1 1845   5.877   6.641   0.144
  627TIP3    H2 1846   5.787   6.541   0.213
  628TIP3   OH2 1847   2.764   0.676   5.385
  628TIP3    H1 1848   2.717   0.593   5.385
  628TIP3    H2 1849   2.857   0.652   5.390
  629TIP3   OH2 1850   3.153   0.447   4.281
  629TIP3    H1 1851   3.151   0.362   4.325
  629TIP3    H2 1852   3.245   0.469   4.275
  630TIP3   OH2 1853   0.879   3.185   2.351
  630TIP3    H1 1854   0.915   3.248   2.414
  630TIP3    H2 1855   0.822   3.129   2.404
  631TIP3   OH2 1856   4.275   3.866   0.801
  631TIP3    H1 1857   4.320   3.873   0.717
  631TIP3    H2 1858   4.297   3.947   0.847
  632TIP3   OH2 1859   6.878   0.507   5.137
  632TIP3    H1 1860   6.876   0.481   5.045
  632TIP3    H2 1861   6.961   0.472   5.170
  633TIP3   OH2 1862   5.699   3.294   0.803
  633TIP3    H1 1863   5.649   3.219   0.769
  633TIP3    H2 1864   5.637   3.366   0.804
  634TIP3   OH2 1865   3.652   3.144   4.152
  634TIP3    H1 1866   3.606   3.084   4.094
  634TIP3    H2 1867   3.741   3.110   4.157
  635TIP3   OH2 1868   4.103   3.124   4.664
  635TIP3    H1 1869   4.029   3.081   4.621
  635TIP3    H2 1870   4.152   3.053   4.705
  636TIP3   OH2 1871   3.730   2.995   2.966
  636TIP3    H1 1872   3.771   3.081   2.974
  636TIP3    H2 1873   3.650   3.011   2.916
  637TIP3   OH2 1874   5.341   6.755   5.775
  637TIP3    H1 1875   5.381   6.678   5.816
  637TIP3    H2 1876   5.378   6.829   5.822
  638TIP3   OH2 1877   0.629   2.130   3.704
  638TIP3    H1 1878   0.544   2.096   3.731
  638TIP3    H2 1879   0.672   2.055   3.663
  639TIP3   OH2 1880   5.371   3.332   5.747
  639TIP3    H1 1881   5.371   3.421   5.781
  639TIP3    H2 1882   5.357   3.341   5.653
  640TIP3   OH2 1883   6.939   1.354   3.503
  640TIP3    H1 1884   6.926   1.300   3.425
  640TIP3    H2 1885   6.851   1.368   3.538
  641TIP3   OH2 1886   6.692   1.659   1.761
  641TIP3    H1 1887   6.599   1.675   1.743
  641TIP3    H2 1888   6.694   1.572   1.800
  642TIP3   OH2 1889   6.934   2.370   2.441
  642TIP3    H1 1890   6.930   2.463   2.465
  642TIP3    H2 1891   7.027   2.348   2.446
  643TIP3   OH2 1892   0.410   0.977   0.189
  643TIP3    H1 1893   0.473   0.963   0.118
  643TIP3    H2 1894   0.385   0.889   0.217
  644TIP3   OH2 1895   0.625   5.105   4.051
  644TIP3    H1 1896   0.677   5.051   3.991
  644TIP3    H2 1897   0.626   5.056   4.134
  645TIP3   OH2 1898   0.452   0.376   1.729
  645TIP3    H1 1899   0.416   0.288   1.717
  645TIP3    H2 1900   0.427   0.399   1.819
  646TIP3   OH2 1901   6.698   5.345   0.143
  646TIP3    H1 1902   6.711   5.320   0.234
  646TIP3    H2 1903   6.684   5.262   0.097
  647TIP3   OH2 1904   1.886   1.715   5.765
  647TIP3    H1 1905   1.905   1.678   5.851
  647TIP3    H2 1906   1.808   1.667   5.736
  648TIP3   OH2 1907   4.865   2.506   0.758
  648TIP3    H1 1908   4.824   2.449   0.823
  648TIP3    H2 1909   4.904   2.446   0.694
  649TIP3   OH2 1910   0.853   5.877   5.595
  649TIP3    H1 1911   0.896   5.814   5.652
  649TIP3    H2 1912   0.909   5.881   5.517
  650TIP3   OH2 1913   0.854   0.938   5.263
  650TIP3    H1 1914   0.922   0.935   5.329
  650TIP3    H2 1915   0.788   0.875   5.292
  651TIP3   OH2 1916   1.842   1.532   3.871
  651TIP3    H1 1917   1.795   1.564   3.795
  651TIP3    H2 1918   1.833   1.602   3.936
  652TIP3   OH2 1919   4.716   2.551   0.024
  652TIP3    H1 1920   4.762   2.622   0.069
  652TIP3    H2 1921   4.623   2.568   0.040
  653TIP3   OH2 1922   6.422   5.299   4.527
  653TIP3    H1 1923   6.351   5.315   4.465
  653TIP3    H2 1924   6.396   5.221   4.574
  654TIP3   OH2 1925   1.223   3.314   4.160
  654TIP3    H1 1926   1.250   3.405   4.170
  654TIP3    H2 1927   1.190   3.308   4.071
  655TIP3   OH2 1928   5.884   5.781   4.938
  655TIP3    H1 1929   5.838   5.856   4.977
  655TIP3    H2 1930   5.814   5.720   4.916
  656TIP3   OH2 1931   4.989   6.186   2.493
  656TIP3    H1 1932   4.977   6.274   2.458
  656TIP3    H2 1933   4.995   6.130   2.415
  657TIP3   OH2 1934   5.979   3.733   4.789
  657TIP3    H1 1935   6.026   3.650   4.801
  657TIP3    H2 1936   5.889   3.707   4.770
  658TIP3   OH2 1937   2.784   5.436   4.970
  658TIP3    H1 1938   2.743   5.494   5.035
  658TIP3    H2 1939   2.711   5.385   4.934
  659TIP3   OH2 1940   6.370   6.568   3.426
  659TIP3    H1 1941   6.276   6.585   3.431
  659TIP3    H2 1942   6.384   6.539   3.336
  660TIP3   OH2 1943   1.751   3.414   4.468
  660TIP3    H1 1944   1.835   3.438   4.429
  660TIP3    H2 1945   1.725   3.334   4.423
  661TIP3   OH2 1946   4.744   2.080   5.108
  661TIP3    H1 1947   4.761   2.093   5.201
  661TIP3    H2 1948   4.671   2.140   5.089
  662TIP3   OH2 1949   6.856   2.796   1.415
  662TIP3    H1 1950   6.865   2.757   1.327
  662TIP3    H2 1951   6.787   2.744   1.457
  663TIP3   OH2 1952   0.903   6.595   1.457
  663TIP3    H1 1953   0.856   6.671   1.492
  663TIP3    H2 1954   0.961   6.632   1.390
  664TIP3   OH2 1955   1.644   4.619   0.320
  664TIP3    H1 1956   1.696   4.643   0.244
  664TIP3    H2 1957   1.594   4.543   0.292
  665TIP3   OH2 1958   3.126   0.649   3.090
  665TIP3    H1 1959   3.049   0.697   3.059
  665TIP3    H2 1960   3.146   0.587   3.020
  666TIP3   OH2 1961   3.646   0.992   4.460
  666TIP3    H1 1962   3.594   1.066   4.429
  666TIP3    H2 1963   3.681   1.021   4.544
  667TIP3   OH2 1964   3.421   6.262   2.550
  667TIP3    H1 1965   3.458   6.343   2.587
  667TIP3    H2 1966   3.459   6.192   2.603
  668TIP3   OH2 1967   5.482   0.065   1.504
  668TIP3    H1 1968   5.567   0.048   1.463
  668TIP3    H2 1969   5.503   0.121   1.579
  669TIP3   OH2 1970   3.766   4.060   3.002
  669TIP3    H1 1971   3.690   4.026   2.953
  669TIP3    H2 1972   3.817   3.981   3.023
  670TIP3   OH2 1973   5.784   4.601   2.336
  670TIP3    H1 1974   5.835   4.682   2.339
  670TIP3    H2 1975   5.810   4.559   2.254
  671TIP3   OH2 1976   3.065   3.713   3.539
  671TIP3    H1 1977   3.101   3.788   3.493
  671TIP3    H2 1978   3.043   3.747   3.626
  672TIP3   OH2 1979   4.024   2.495   1.215
  672TIP3    H1 1980   3.961   2.562   1.243
  672TIP3    H2 1981   4.023   2.431   1.285
  673TIP3   OH2 1982   0.499   2.330   1.686
  673TIP3    H1 1983   0.446   2.275   1.630
  673TIP3    H2 1984   0.454   2.330   1.770
  674TIP3   OH2 1985   5.818   4.051   4.047
  674TIP3    H1 1986   5.793   4.021   4.134
  674TIP3    H2 1987   5.759   4.003   3.988
  675TIP3   OH2 1988   5.522   6.125   1.402
  675TIP3    H1 1989   5.503   6.216   1.422
  675TIP3    H2 1990   5.460   6.075   1.456
  676TIP3   OH2 1991   2.898   4.743   2.458
  676TIP3    H1 1992   2.918   4.658   2.497
  676TIP3    H2 1993   2.803   4.751   2.466
  677TIP3   OH2 1994   6.855   6.396   2.125
  677TIP3    H1 1995   6.826   6.346   2.202
  677TIP3    H2 1996   6.775   6.437   2.092
  678TIP3   OH2 1997   3.042   3.308   3.744
  678TIP3    H1 1998   3.018   3.252   3.818
  678TIP3    H2 1999   3.072   3.390   3.784
  679TIP3   OH2 2000   2.151   4.951   5.595
  679TIP3    H1 2001   2.067   4.961   5.551
  679TIP3    H2 2002   2.195   4.880   5.549
  680TIP3   OH2 2003   0.181   4.415   2.000
  680TIP3    H1 2004   0.262   4.436   1.953
  680TIP3    H2 2005   0.159   4.326   1.972
  681TIP3   OH2 2006   4.879   3.576   1.086
  681TIP3    H1 2007   4.857   3.485   1.105
  681TIP3    H2 2008   4.817   3.602   1.018
  682TIP3   OH2 2009   2.265   2.811   2.179
  682TIP3    H1 2010   2.265   2.721   2.147
  682TIP3    H2 2011   2.182   2.820   2.226
  683TIP3   OH2 2012   0.743   4.502   1.648
  683TIP3    H1 2013   0.779   4.531   1.564
  683TIP3    H2 2014   0.755   4.578   1.706
  684TIP3   OH2 2015   0.640   2.546   0.015
  684TIP3    H1 2016   0.690   2.465   0.017
  684TIP3    H2 2017   0.695   2.610   0.061
  685TIP3   OH2 2018   3.686   2.966   0.460
  685TIP3    H1 2019   3.604   2.922   0.441
  685TIP3    H2 2020   3.711   3.008   0.377
  686TIP3   OH2 2021   0.194   2.388   2.665
  686TIP3    H1 2022   0.239   2.472   2.673
  686TIP3    H2 2023   0.153   2.375   2.750
  687TIP3   OH2 2024   4.388   1.380   3.110
  687TIP3    H1 2025   4.406   1.474   3.114
  687TIP3    H2 2026   4.435   1.350   3.032
  688TIP3   OH2 2027   2.808   6.572   2.398
  688TIP3    H1 2028   2.817   6.497   2.457
  688TIP3    H2 2029   2.721   6.561   2.358
  689TIP3   OH2 2030   3.344   0.684   1.172
  689TIP3    H1 2031   3.381   0.689   1.260
  689TIP3    H2 2032   3.258   0.643   1.184
  690TIP3   OH2 2033   5.294   2.156   1.630
  690TIP3    H1 2034   5.374   2.183   1.585
  690TIP3    H2 2035   5.273   2.070   1.593
  691TIP3   OH2 2036   3.724   4.165   1.871
  691TIP3    H1 2037   3.677   4.225   1.929
  691TIP3    H2 2038   3.801   4.138   1.921
  692TIP3   OH2 2039   5.589   6.287   4.991
  692TIP3    H1 2040   5.662   6.344   4.967
  692TIP3    H2 2041   5.558   6.250   4.908
  693TIP3   OH2 2042   5.671   5.220   3.881
  693TIP3    H1 2043   5.688   5.141   3.831
  693TIP3    H2 2044   5.582   5.247   3.856
  694TIP3   OH2 2045   0.794   2.370   4.224
  694TIP3    H1 2046   0.734   2.407   4.290
  694TIP3    H2 2047   0.833   2.294   4.267
  695TIP3   OH2 2048   6.181   0.652   5.357
  695TIP3    H1 2049   6.261   0.600   5.346
  695TIP3    H2 2050   6.110   0.588   5.357
  696TIP3   OH2 2051   4.716   4.722   0.642
  696TIP3    H1 2052   4.697   4.749   0.732
  696TIP3    H2 2053   4.648   4.765   0.590
  697TIP3   OH2 2054   6.286   4.906   5.109
  697TIP3    H1 2055   6.278   4.970   5.179
  697TIP3    H2 2056   6.375   4.918   5.074
  698TIP3   OH2 2057   0.505   0.703   0.224
  698TIP3    H1 2058   0.577   0.646   0.196
  698TIP3    H2 2059   0.431   0.643   0.236
  699TIP3   OH2 2060   6.912   6.098   4.414
  699TIP3    H1 2061   6.920   6.169   4.350
  699TIP3    H2 2062   6.945   6.136   4.495
  700TIP3   OH2 2063   6.810   3.567   2.590
  700TIP3    H1 2064   6.775   3.631   2.653
  700TIP3    H2 2065   6.764   3.585   2.509
  701TIP3   OH2 2066   3.794   5.322   2.063
  701TIP3    H1 2067   3.743   5.242   2.051
  701TIP3    H2 2068   3.728   5.392   2.068
  702TIP3   OH2 2069   2.337   3.681   4.577
  702TIP3    H1 2070   2.336   3.724   4.662
  702TIP3    H2 2071   2.345   3.588   4.597
  703TIP3   OH2 2072   3.936   2.786   2.937
  703TIP3    H1 2073   3.999   2.829   2.995
  703TIP3    H2 2074   3.864   2.849   2.930
  704TIP3   OH2 2075   3.697   6.803   4.543
  704TIP3    H1 2076   3.617   6.756   4.565
  704TIP3    H2 2077   3.736   6.825   4.628
  705TIP3   OH2 2078   2.487   6.783   2.482
  705TIP3    H1 2079   2.506   6.799   2.574
  705TIP3    H2 2080   2.528   6.699   2.462
  706TIP3   OH2 2081   2.426   5.672   1.815
  706TIP3    H1 2082   2.344   5.690   1.860
  706TIP3    H2 2083   2.416   5.712   1.729
  707TIP3   OH2 2084   6.876   0.527   5.753
  707TIP3    H1 2085   6.803   0.485   5.709
  707TIP3    H2 2086   6.842   0.613   5.780
  708TIP3   OH2 2087   6.370   3.191   1.312
  708TIP3    H1 2088   6.353   3.278   1.349
  708TIP3    H2 2089   6.343   3.199   1.220
  709TIP3   OH2 2090   4.849   4.662   5.065
  709TIP3    H1 2091   4.839   4.752   5.034
  709TIP3    H2 2092   4.764   4.621   5.046
  710TIP3   OH2 2093   4.682   0.515   4.604
  710TIP3    H1 2094   4.674   0.468   4.687
  710TIP3    H2 2095   4.617   0.585   4.609
  711TIP3   OH2 2096   4.445   6.462   2.044
  711TIP3    H1 2097   4.370   6.460   1.985
  711TIP3    H2 2098   4.521   6.467   1.986
  712TIP3   OH2 2099   0.545   0.785   1.541
  712TIP3    H1 2100   0.509   0.872   1.558
  712TIP3    H2 2101   0.476   0.739   1.493
  713TIP3   OH2 2102   1.351   4.824   5.198
  713TIP3    H1 2103   1.415   4.804   5.130
  713TIP3    H2 2104   1.291   4.886   5.156
  714TIP3   OH2 2105   2.965   0.076   1.494
  714TIP3    H1 2106   2.924   0.071   1.408
  714TIP3    H2 2107   2.897   0.113   1.550
  715TIP3   OH2 2108   6.274   3.728   1.783
  715TIP3    H1 2109   6.225   3.808   1.768
  715TIP3    H2 2110   6.322   3.744   1.864
  716TIP3   OH2 2111   0.078   2.964   2.748
  716TIP3    H1 2112   0.091   3.038   2.689
  716TIP3    H2 2113  -0.001   2.987   2.797
  717TIP3   OH2 2114   0.592   5.083   0.311
  717TIP3    H1 2115   0.501   5.059   0.324
  717TIP3    H2 2116   0.589   5.161   0.255
  718TIP3   OH2 2117   4.110   0.827   2.469
  718TIP3    H1 2118   4.103   0.733   2.452
  718TIP3    H2 2119   4.204   0.842   2.480
  719TIP3   OH2 2120   2.495   0.718   5.173
  719TIP3    H1 2121   2.468   0.782   5.239
  719TIP3    H2 2122   2.523   0.771   5.098
  720TIP3   OH2 2123   6.859   0.492   0.841
  720TIP3    H1 2124   6.785   0.550   0.855
  720TIP3    H2 2125   6.829   0.429   0.776
  721TIP3   OH2 2126   3.511   0.183   5.602
  721TIP3    H1 2127   3.469   0.223   5.678
  721TIP3    H2 2128   3.602   0.213   5.606
  722TIP3   OH2 2129   6.030   4.017   1.582
  722TIP3    H1 2130   6.117   4.006   1.543
  722TIP3    H2 2131   6.002   4.104   1.552
  723TIP3   OH2 2132   3.340   1.095   0.529
  723TIP3    H1 2133   3.383   1.043   0.597
  723TIP3    H2 2134   3.411   1.135   0.480
  724TIP3   OH2 2135   5.483   5.773   1.531
  724TIP3    H1 2136   5.447   5.708   1.471
  724TIP3    H2 2137   5.471   5.735   1.618
  725TIP3   OH2 2138   1.869   2.914   0.378
  725TIP3    H1 2139   1.860   2.877   0.466
  725TIP3    H2 2140   1.953   2.960   0.380
  726TIP3   OH2 2141   1.404   2.863   3.970
  726TIP3    H1 2142   1.459   2.870   4.049
  726TIP3    H2 2143   1.386   2.769   3.962
  727TIP3   OH2 2144   4.848   0.815   4.147
  727TIP3    H1 2145   4.775   0.838   4.088
  727TIP3    H2 2146   4.813   0.744   4.201
  728TIP3   OH2 2147   3.671   1.186   4.973
  728TIP3    H1 2148   3.683   1.212   4.881
  728TIP3    H2 2149   3.606   1.248   5.007
  729TIP3   OH2 2150   0.716   3.239   0.123
  729TIP3    H1 2151   0.699   3.326   0.159
  729TIP3    H2 2152   0.639   3.187   0.148
  730TIP3   OH2 2153   6.809   5.752   3.292
  730TIP3    H1 2154   6.737   5.722   3.347
  730TIP3    H2 2155   6.800   5.848   3.292
  731TIP3   OH2 2156   4.873   0.072   4.567
  731TIP3    H1 2157   4.922   0.014   4.509
  731TIP3    H2 2158   4.783   0.042   4.560
  732TIP3   OH2 2159   2.719   2.385   1.034
  732TIP3    H1 2160   2.643   2.436   1.061
  732TIP3    H2 2161   2.757   2.352   1.115
  733TIP3   OH2 2162   4.591   5.244   2.356
  733TIP3    H1 2163   4.564   5.166   2.404
  733TIP3    H2 2164   4.605   5.310   2.424
  734TIP3   OH2 2165   6.959   0.265   2.902
  734TIP3    H1 2166   6.876   0.274   2.948
  734TIP3    H2 2167   7.023   0.252   2.971
  735TIP3   OH2 2168   3.088   1.081   1.457
  735TIP3    H1 2169   3.077   1.046   1.369
  735TIP3    H2 2170   3.034   1.024   1.512
  736TIP3   OH2 2171   6.520   4.778   1.959
  736TIP3    H1 2172   6.597   4.751   1.910
  736TIP3    H2 2173   6.539   4.756   2.050
  737TIP3   OH2 2174   5.058   5.460   5.035
  737TIP3    H1 2175   5.148   5.478   5.007
  737TIP3    H2 2176   5.040   5.372   5.000
  738TIP3   OH2 2177   2.723   1.678   1.532
  738TIP3    H1 2178   2.630   1.702   1.524
  738TIP3    H2 2179   2.741   1.685   1.626
  739TIP3   OH2 2180   2.140   1.957   3.031
  739TIP3    H1 2181   2.067   1.976   2.972
  739TIP3    H2 2182   2.100   1.952   3.118
  740TIP3   OH2 2183   1.436   3.632   1.573
  740TIP3    H1 2184   1.525   3.621   1.607
  740TIP3    H2 2185   1.408   3.543   1.549
  741TIP3   OH2 2186   7.029   3.778   3.685
  741TIP3    H1 2187   7.011   3.870   3.702
  741TIP3    H2 2188   7.062   3.744   3.767
  742TIP3   OH2 2189   7.133   4.135   3.281
  742TIP3    H1 2190   7.175   4.055   3.312
  742TIP3    H2 2191   7.203   4.186   3.243
  743TIP3   OH2 2192   3.408   3.612   5.622
  743TIP3    H1 2193   3.490   3.588   5.665
  743TIP3    H2 2194   3.352   3.645   5.692
  744TIP3   OH2 2195   1.321   0.278   0.206
  744TIP3    H1 2196   1.392   0.216   0.217
  744TIP3    H2 2197   1.252   0.246   0.264
  745TIP3   OH2 2198   6.939   3.893   1.070
  745TIP3    H1 2199   7.018   3.946   1.069
  745TIP3    H2 2200   6.961   3.816   1.017
  746TIP3   OH2 2201   6.461   5.211   4.936
  746TIP3    H1 2202   6.531   5.253   4.985
  746TIP3    H2 2203   6.403   5.283   4.910
  747TIP3   OH2 2204   4.096   0.617   3.028
  747TIP3    H1 2205   4.094   0.575   2.942
  747TIP3    H2 2206   4.175   0.670   3.027
  748TIP3   OH2 2207   3.530   6.074   0.880
  748TIP3    H1 2208   3.481   6.136   0.826
  748TIP3    H2 2209   3.463   6.014   0.913
  749TIP3   OH2 2210   4.820   5.379   1.784
  749TIP3    H1 2211   4.727   5.369   1.804
  749TIP3    H2 2212   4.842   5.468   1.812
  750TIP3   OH2 2213   5.278   6.549   2.143
  750TIP3    H1 2214   5.366   6.519   2.119
  750TIP3    H2 2215   5.287   6.643   2.156
  751TIP3   OH2 2216   4.531   6.296   0.211
  751TIP3    H1 2217   4.517   6.389   0.193
  751TIP3    H2 2218   4.598   6.269   0.148
  752TIP3   OH2 2219   5.325   0.912   4.295
  752TIP3    H1 2220   5.385   0.859   4.348
  752TIP3    H2 2221   5.238   0.884   4.323
  753TIP3   OH2 2222   1.153   0.563   2.680
  753TIP3    H1 2223   1.143   0.472   2.708
  753TIP3    H2 2224   1.177   0.557   2.588
  754TIP3   OH2 2225   2.140   3.823   5.157
  754TIP3    H1 2226   2.172   3.776   5.234
  754TIP3    H2 2227   2.069   3.769   5.124
  755TIP3   OH2 2228   2.041   3.234   5.219
  755TIP3    H1 2229   2.009   3.310   5.267
  755TIP3    H2 2230   2.122   3.264   5.178
  756TIP3   OH2 2231   5.665   3.683   5.511
  756TIP3    H1 2232   5.709   3.637   5.582
  756TIP3    H2 2233   5.715   3.764   5.501
  757TIP3   OH2 2234   4.224   1.896   1.241
  757TIP3    H1 2235   4.244   1.939   1.324
  757TIP3    H2 2236   4.186   1.965   1.186
  758TIP3   OH2 2237   0.307   1.761   5.432
  758TIP3    H1 2238   0.333   1.851   5.415
  758TIP3    H2 2239   0.247   1.738   5.361
  759TIP3   OH2 2240   2.292   4.742   0.646
  759TIP3    H1 2241   2.343   4.710   0.571
  759TIP3    H2 2242   2.239   4.813   0.610
  760TIP3   OH2 2243   3.620   6.250   3.874
  760TIP3    H1 2244   3.712   6.221   3.873
  760TIP3    H2 2245   3.571   6.173   3.904
  761TIP3   OH2 2246   2.877   3.072   2.744
  761TIP3    H1 2247   2.831   3.006   2.693
  761TIP3    H2 2248   2.956   3.090   2.693
  762TIP3   OH2 2249   2.586   0.818   5.583
  762TIP3    H1 2250   2.617   0.766   5.509
  762TIP3    H2 2251   2.550   0.754   5.644
  763TIP3   OH2 2252   2.075   5.758   4.637
  763TIP3    H1 2253   2.160   5.716   4.630
  763TIP3    H2 2254   2.086   5.842   4.592
  764TIP3   OH2 2255   5.932   2.246   2.789
  764TIP3    H1 2256   5.953   2.281   2.702
  764TIP3    H2 2257   5.854   2.294   2.816
  765TIP3   OH2 2258   5.261   1.576   2.574
  765TIP3    H1 2259   5.219   1.528   2.503
  765TIP3    H2 2260   5.199   1.569   2.647
  766TIP3   OH2 2261   1.826   3.975   2.185
  766TIP3    H1 2262   1.871   3.922   2.251
  766TIP3    H2 2263   1.844   3.930   2.102
  767TIP3   OH2 2264   1.369   1.194   3.035
  767TIP3    H1 2265   1.304   1.124   3.028
  767TIP3    H2 2266   1.427   1.167   3.106
  768TIP3   OH2 2267   2.439   0.860   0.569
  768TIP3    H1 2268   2.401   0.792   0.626
  768TIP3    H2 2269   2.366   0.919   0.550
  769TIP3   OH2 2270   1.867   3.996   0.185
  769TIP3    H1 2271   1.778   3.996   0.149
  769TIP3    H2 2272   1.917   3.940   0.126
  770TIP3   OH2 2273   0.903   2.273   0.327
  770TIP3    H1 2274   0.881   2.206   0.392
  770TIP3    H2 2275   0.896   2.356   0.375
  771TIP3   OH2 2276   6.879   3.314   0.142
  771TIP3    H1 2277   6.902   3.298   0.233
  771TIP3    H2 2278   6.950   3.273   0.092
  772TIP3   OH2 2279   6.689   5.342   4.566
  772TIP3    H1 2280   6.599   5.315   4.547
  772TIP3    H2 2281   6.684   5.438   4.572
  773TIP3   OH2 2282   3.485   3.347   2.767
  773TIP3    H1 2283   3.422   3.418   2.780
  773TIP3    H2 2284   3.565   3.379   2.810
  774TIP3   OH2 2285   5.995   1.137   1.970
  774TIP3    H1 2286   6.019   1.194   2.043
  774TIP3    H2 2287   6.072   1.081   1.957
  775TIP3   OH2 2288   3.856   1.456   4.645
  775TIP3    H1 2289   3.930   1.517   4.641
  775TIP3    H2 2290   3.780   1.508   4.619
  776TIP3   OH2 2291   2.868   5.790   0.725
  776TIP3    H1 2292   2.940   5.834   0.771
  776TIP3    H2 2293   2.830   5.858   0.670
  777TIP3   OH2 2294   7.019   0.588   0.104
  777TIP3    H1 2295   6.954   0.536   0.152
  777TIP3    H2 2296   6.967   0.653   0.057
  778TIP3   OH2 2297   1.400   0.371   4.823
  778TIP3    H1 2298   1.307   0.350   4.824
  778TIP3    H2 2299   1.425   0.377   4.915
  779TIP3   OH2 2300   7.200   2.805   3.832
  779TIP3    H1 2301   7.225   2.840   3.746
  779TIP3    H2 2302   7.165   2.880   3.879
  780TIP3   OH2 2303  -0.010   3.365   0.958
  780TIP3    H1 2304   0.020   3.394   1.044
  780TIP3    H2 2305   0.062   3.312   0.924
  781TIP3   OH2 2306   1.411   1.769   0.900
  781TIP3    H1 2307   1.368   1.687   0.877
  781TIP3    H2 2308   1.504   1.746   0.909
  782TIP3   OH2 2309   1.246   6.737   1.691
  782TIP3    H1 2310   1.230   6.715   1.783
  782TIP3    H2 2311   1.203   6.822   1.679
  783TIP3   OH2 2312   0.604   0.018   1.095
  783TIP3    H1 2313   0.639   0.099   1.132
  783TIP3    H2 2314   0.681  -0.037   1.081
  784TIP3   OH2 2315   1.262   3.579   2.860
  784TIP3    H1 2316   1.337   3.618   2.904
  784TIP3    H2 2317   1.299   3.536   2.783
  785TIP3   OH2 2318   0.129   1.961   1.033
  785TIP3    H1 2319   0.220   1.941   1.054
  785TIP3    H2 2320   0.080   1.887   1.068
  786TIP3   OH2 2321   2.919   3.364   1.530
  786TIP3    H1 2322   2.839   3.391   1.485
  786TIP3    H2 2323   2.944   3.441   1.581
  787TIP3   OH2 2324   4.093   4.067   4.857
  787TIP3    H1 2325   4.096   3.972   4.846
  787TIP3    H2 2326   4.090   4.101   4.767
  788TIP3   OH2 2327   4.172   0.033   4.870
  788TIP3    H1 2328   4.105   0.065   4.931
  788TIP3    H2 2329   4.230  -0.020   4.924
  789TIP3   OH2 2330   2.185   4.930   0.886
  789TIP3    H1 2331   2.275   4.909   0.859
  789TIP3    H2 2332   2.177   5.024   0.873
  790TIP3   OH2 2333   6.159   1.167   5.216
  790TIP3    H1 2334   6.085   1.197   5.269
  790TIP3    H2 2335   6.199   1.098   5.268
  791TIP3   OH2 2336   1.330   3.286   4.968
  791TIP3    H1 2337   1.331   3.200   5.010
  791TIP3    H2 2338   1.362   3.346   5.035
  792TIP3   OH2 2339   5.408   3.314   0.548
  792TIP3    H1 2340   5.400   3.303   0.453
  792TIP3    H2 2341   5.473   3.382   0.559
  793TIP3   OH2 2342   5.394   1.210   0.490
  793TIP3    H1 2343   5.469   1.162   0.524
  793TIP3    H2 2344   5.426   1.299   0.479
  794TIP3   OH2 2345   4.145   6.735   0.209
  794TIP3    H1 2346   4.081   6.719   0.278
  794TIP3    H2 2347   4.134   6.662   0.149
  795TIP3   OH2 2348   5.585   5.194   5.712
  795TIP3    H1 2349   5.545   5.276   5.738
  795TIP3    H2 2350   5.658   5.182   5.773
  796TIP3   OH2 2351   0.576   5.970   2.545
  796TIP3    H1 2352   0.519   5.904   2.584
  796TIP3    H2 2353   0.601   5.932   2.460
  797TIP3   OH2 2354   5.303   0.616   2.497
  797TIP3    H1 2355   5.304   0.708   2.472
  797TIP3    H2 2356   5.349   0.571   2.426
  798TIP3   OH2 2357   7.034   2.577   5.786
  798TIP3    H1 2358   7.028   2.613   5.875
  798TIP3    H2 2359   7.122   2.600   5.756
  799TIP3   OH2 2360   0.402   4.375   5.330
  799TIP3    H1 2361   0.383   4.282   5.313
  799TIP3    H2 2362   0.498   4.381   5.329
  800TIP3   OH2 2363   1.829   4.079   5.199
  800TIP3    H1 2364   1.923   4.082   5.183
  800TIP3    H2 2365   1.820   4.058   5.292
  801TIP3   OH2 2366   6.842   5.652   4.868
  801TIP3    H1 2367   6.833   5.671   4.962
  801TIP3    H2 2368   6.843   5.738   4.826
  802TIP3   OH2 2369   3.370   3.974   4.901
  802TIP3    H1 2370   3.391   3.959   4.809
  802TIP3    H2 2371   3.344   3.887   4.933
  803TIP3   OH2 2372   1.530   5.759   4.842
  803TIP3    H1 2373   1.598   5.749   4.775
  803TIP3    H2 2374   1.448   5.749   4.794
  804TIP3   OH2 2375   6.114   3.117   1.376
  804TIP3    H1 2376   6.169   3.111   1.454
  804TIP3    H2 2377   6.159   3.178   1.319
  805TIP3   OH2 2378   4.339   2.638   0.863
  805TIP3    H1 2379   4.418   2.687   0.884
  805TIP3    H2 2380   4.313   2.600   0.947
  806TIP3   OH2 2381   3.830   4.439   2.027
  806TIP3    H1 2382   3.865   4.527   2.017
  806TIP3    H2 2383   3.878   4.402   2.101
  807TIP3   OH2 2384   4.807   3.437   2.816
  807TIP3    H1 2385   4.825   3.491   2.893
  807TIP3    H2 2386   4.831   3.493   2.742
  808TIP3   OH2 2387   3.805   4.324   1.454
  808TIP3    H1 2388   3.725   4.273   1.461
  808TIP3    H2 2389   3.876   4.261   1.466
  809TIP3   OH2 2390   7.114   2.057   2.490
  809TIP3    H1 2391   7.163   2.128   2.450
  809TIP3    H2 2392   7.124   2.070   2.584
  810TIP3   OH2 2393   1.246   3.779   0.624
  810TIP3    H1 2394   1.256   3.708   0.687
  810TIP3    H2 2395   1.154   3.804   0.631
  811TIP3   OH2 2396   0.913   5.338   5.252
  811TIP3    H1 2397   0.875   5.411   5.204
  811TIP3    H2 2398   0.857   5.263   5.231
  812TIP3   OH2 2399   1.137   3.768   5.233
  812TIP3    H1 2400   1.101   3.857   5.241
  812TIP3    H2 2401   1.073   3.712   5.276
  813TIP3   OH2 2402   3.752   4.837   3.652
  813TIP3    H1 2403   3.692   4.780   3.603
  813TIP3    H2 2404   3.797   4.778   3.713
  814TIP3   OH2 2405   3.579   5.417   3.842
  814TIP3    H1 2406   3.620   5.331   3.831
  814TIP3    H2 2407   3.595   5.440   3.933
  815TIP3   OH2 2408   4.875   0.311   1.259
  815TIP3    H1 2409   4.827   0.363   1.195
  815TIP3    H2 2410   4.953   0.363   1.278
  816TIP3   OH2 2411   7.147   2.553   3.678
  816TIP3    H1 2412   7.239   2.570   3.695
  816TIP3    H2 2413   7.105   2.639   3.686
  817TIP3   OH2 2414   4.676   0.452   3.544
  817TIP3    H1 2415   4.673   0.378   3.605
  817TIP3    H2 2416   4.587   0.489   3.547
  818TIP3   OH2 2417   6.455   0.405   0.660
  818TIP3    H1 2418   6.435   0.452   0.741
  818TIP3    H2 2419   6.376   0.413   0.608
  819TIP3   OH2 2420   6.834   3.054   4.973
  819TIP3    H1 2421   6.910   3.042   5.030
  819TIP3    H2 2422   6.788   3.129   5.009
  820TIP3   OH2 2423   3.727   5.906   0.868
  820TIP3    H1 2424   3.646   5.946   0.839
  820TIP3    H2 2425   3.700   5.841   0.933
  821TIP3   OH2 2426   6.561   2.767   5.382
  821TIP3    H1 2427   6.507   2.840   5.353
  821TIP3    H2 2428   6.560   2.773   5.478
  822TIP3   OH2 2429   2.872   3.829   2.197
  822TIP3    H1 2430   2.927   3.832   2.118
  822TIP3    H2 2431   2.811   3.757   2.181
  823TIP3   OH2 2432   3.286   5.499   5.064
  823TIP3    H1 2433   3.271   5.440   4.991
  823TIP3    H2 2434   3.198   5.522   5.095
  824TIP3   OH2 2435   5.551   4.755   2.554
  824TIP3    H1 2436   5.531   4.723   2.466
  824TIP3    H2 2437   5.497   4.834   2.564
  825TIP3   OH2 2438   0.911   6.304   1.374
  825TIP3    H1 2439   0.923   6.399   1.384
  825TIP3    H2 2440   0.855   6.295   1.297
  826TIP3   OH2 2441   4.230   3.953   4.583
  826TIP3    H1 2442   4.269   3.867   4.565
  826TIP3    H2 2443   4.136   3.938   4.578
  827TIP3   OH2 2444   2.481   0.052   3.367
  827TIP3    H1 2445   2.563   0.102   3.367
  827TIP3    H2 2446   2.477   0.012   3.454
  828TIP3   OH2 2447   6.105   0.381   1.366
  828TIP3    H1 2448   6.166   0.454   1.378
  828TIP3    H2 2449   6.156   0.313   1.321
  829TIP3   OH2 2450   5.832   3.044   1.050
  829TIP3    H1 2451   5.777   2.998   1.114
  829TIP3    H2 2452   5.834   3.134   1.081
  830TIP3   OH2 2453   1.818   2.570   5.457
  830TIP3    H1 2454   1.797   2.596   5.368
  830TIP3    H2 2455   1.735   2.540   5.494
  831TIP3   OH2 2456   3.943   4.685   4.929
  831TIP3    H1 2457   3.940   4.651   5.018
  831TIP3    H2 2458   3.945   4.607   4.874
  832TIP3   OH2 2459   4.182   0.817   5.780
  832TIP3    H1 2460   4.270   0.844   5.809
  832TIP3    H2 2461   4.199   0.758   5.707
  833TIP3   OH2 2462   6.060   6.000   3.711
  833TIP3    H1 2463   6.057   6.095   3.701
  833TIP3    H2 2464   6.147   5.982   3.747
  834TIP3   OH2 2465   0.060   3.799   2.218
  834TIP3    H1 2466  -0.017   3.853   2.233
  834TIP3    H2 2467   0.120   3.823   2.289
  835TIP3   OH2 2468   0.734   5.693   3.529
  835TIP3    H1 2469   0.697   5.606   3.519
  835TIP3    H2 2470   0.819   5.679   3.571
  836TIP3   OH2 2471   2.426   0.705   1.965
  836TIP3    H1 2472   2.373   0.730   2.041
  836TIP3    H2 2473   2.474   0.628   1.994
  837TIP3   OH2 2474   2.430   2.934   0.053
  837TIP3    H1 2475   2.383   2.883   0.119
  837TIP3    H2 2476   2.522   2.929   0.080
  838TIP3   OH2 2477   5.185   1.197   0.670
  838TIP3    H1 2478   5.251   1.205   0.602
  838TIP3    H2 2479   5.124   1.131   0.637
  839TIP3   OH2 2480   3.605   2.110   2.328
  839TIP3    H1 2481   3.623   2.200   2.300
  839TIP3    H2 2482   3.671   2.093   2.396
  840TIP3   OH2 2483   4.611   5.349   2.896
  840TIP3    H1 2484   4.640   5.434   2.862
  840TIP3    H2 2485   4.688   5.314   2.940
  841TIP3   OH2 2486   6.314   2.273   4.672
  841TIP3    H1 2487   6.377   2.264   4.744
  841TIP3    H2 2488   6.281   2.363   4.681
  842TIP3   OH2 2489   0.594   5.627   3.004
  842TIP3    H1 2490   0.628   5.640   3.092
  842TIP3    H2 2491   0.664   5.657   2.946
  843TIP3   OH2 2492   4.314   0.487   3.367
  843TIP3    H1 2493   4.368   0.528   3.435
  843TIP3    H2 2494   4.229   0.475   3.408
  844TIP3   OH2 2495   6.488   6.756   0.335
  844TIP3    H1 2496   6.498   6.681   0.276
  844TIP3    H2 2497   6.457   6.719   0.417
  845TIP3   OH2 2498   5.904   6.320   3.979
  845TIP3    H1 2499   5.846   6.384   3.938
  845TIP3    H2 2500   5.888   6.239   3.932
  846TIP3   OH2 2501   2.379  -0.020   1.347
  846TIP3    H1 2502   2.417   0.051   1.398
  846TIP3    H2 2503   2.372   0.014   1.258
  847TIP3   OH2 2504   4.248   5.203   3.520
  847TIP3    H1 2505   4.334   5.164   3.504
  847TIP3    H2 2506   4.265   5.297   3.527
  848TIP3   OH2 2507   1.129   0.546   2.397
  848TIP3    H1 2508   1.102   0.466   2.351
  848TIP3    H2 2509   1.054   0.605   2.387
  849TIP3   OH2 2510   2.285   2.024   5.405
  849TIP3    H1 2511   2.191   2.018   5.389
  849TIP3    H2 2512   2.308   2.113   5.378
  850TIP3   OH2 2513   6.532   1.882   1.455
  850TIP3    H1 2514   6.530   1.792   1.421
  850TIP3    H2 2515   6.480   1.879   1.535
  851TIP3   OH2 2516   0.763   3.862   1.109
  851TIP3    H1 2517   0.834   3.802   1.133
  851TIP3    H2 2518   0.692   3.840   1.169
  852TIP3   OH2 2519   6.232   2.098   2.361
  852TIP3    H1 2520   6.229   2.165   2.292
  852TIP3    H2 2521   6.151   2.049   2.351
  853TIP3   OH2 2522   5.757   4.794   0.474
  853TIP3    H1 2523   5.787   4.881   0.446
  853TIP3    H2 2524   5.749   4.801   0.569
  854TIP3   OH2 2525   0.218   3.882   3.038
  854TIP3    H1 2526   0.166   3.806   3.063
  854TIP3    H2 2527   0.190   3.951   3.098
  855TIP3   OH2 2528   2.701   0.371   2.032
  855TIP3    H1 2529   2.671   0.394   1.944
  855TIP3    H2 2530   2.780   0.320   2.017
  856TIP3   OH2 2531   3.640   5.412   1.505
  856TIP3    H1 2532   3.723   5.454   1.482
  856TIP3    H2 2533   3.655   5.319   1.492
  857TIP3   OH2 2534   0.389   0.565   1.260
  857TIP3    H1 2535   0.363   0.503   1.191
  857TIP3    H2 2536   0.462   0.614   1.221
  858TIP3   OH2 2537   4.494   6.521   3.902
  858TIP3    H1 2538   4.440   6.596   3.930
  858TIP3    H2 2539   4.519   6.542   3.812
  859TIP3   OH2 2540   2.115   4.545   0.608
  859TIP3    H1 2541   2.180   4.613   0.593
  859TIP3    H2 2542   2.164   4.473   0.647
  860TIP3   OH2 2543   2.785   1.881   5.162
  860TIP3    H1 2544   2.822   1.894   5.075
  860TIP3    H2 2545   2.783   1.786   5.174
  861TIP3   OH2 2546   1.544   4.365   1.514
  861TIP3    H1 2547   1.536   4.456   1.542
  861TIP3    H2 2548   1.541   4.314   1.595
  862TIP3   OH2 2549   4.791   2.706   0.985
  862TIP3    H1 2550   4.706   2.727   1.024
  862TIP3    H2 2551   4.772   2.635   0.924
  863TIP3   OH2 2552   4.780   4.033   2.517
  863TIP3    H1 2553   4.847   3.968   2.498
  863TIP3    H2 2554   4.805   4.070   2.601
  864TIP3   OH2 2555   1.241   0.897   0.891
  864TIP3    H1 2556   1.182   0.968   0.865
  864TIP3    H2 2557   1.209   0.869   0.977
  865TIP3   OH2 2558   1.490   0.889   4.190
  865TIP3    H1 2559   1.530   0.848   4.113
  865TIP3    H2 2560   1.436   0.820   4.229
  866TIP3   OH2 2561   0.651   2.367   3.477
  866TIP3    H1 2562   0.568   2.322   3.494
  866TIP3    H2 2563   0.663   2.424   3.552
  867TIP3   OH2 2564   4.387   5.186   4.065
  867TIP3    H1 2565   4.412   5.118   4.002
  867TIP3    H2 2566   4.461   5.192   4.125
  868TIP3   OH2 2567   4.292   5.324   2.521
  868TIP3    H1 2568   4.263   5.392   2.581
  868TIP3    H2 2569   4.337   5.260   2.577
  869TIP3   OH2 2570   1.317   2.941   0.853
  869TIP3    H1 2571   1.261   3.012   0.819
  869TIP3    H2 2572   1.400   2.983   0.874
  870TIP3   OH2 2573   6.271   3.001   1.737
  870TIP3    H1 2574   6.277   3.092   1.707
  870TIP3    H2 2575   6.178   2.981   1.733
  871TIP3   OH2 2576   5.744   0.595   3.031
  871TIP3    H1 2577   5.807   0.534   3.070
  871TIP3    H2 2578   5.683   0.614   3.102
  872TIP3   OH2 2579   2.019   2.632   5.657
  872TIP3    H1 2580   1.967   2.559   5.691
  872TIP3    H2 2581   1.988   2.644   5.567
  873TIP3   OH2 2582   2.013   0.527   1.216
  873TIP3    H1 2583   1.924   0.561   1.211
  873TIP3    H2 2584   2.059   0.589   1.273
  874TIP3   OH2 2585   4.486   1.970   1.626
  874TIP3    H1 2586   4.531   2.053   1.608
  874TIP3    H2 2587   4.520   1.909   1.561
  875TIP3   OH2 2588   4.151   2.351   4.434
  875TIP3    H1 2589   4.216   2.299   4.386
  875TIP3    H2 2590   4.167   2.330   4.526
  876TIP3   OH2 2591   4.422   6.514   2.317
  876TIP3    H1 2592   4.452   6.466   2.240
  876TIP3    H2 2593   4.410   6.604   2.286
  877TIP3   OH2 2594   2.755   2.695   2.475
  877TIP3    H1 2595   2.767   2.697   2.570
  877TIP3    H2 2596   2.796   2.775   2.443
  878TIP3   OH2 2597   6.438   1.884   4.188
  878TIP3    H1 2598   6.488   1.855   4.264
  878TIP3    H2 2599   6.468   1.826   4.117
  879TIP3   OH2 2600   5.099   4.875   1.103
  879TIP3    H1 2601   5.104   4.961   1.062
  879TIP3    H2 2602   5.097   4.813   1.029
  880TIP3   OH2 2603   4.234   0.294   4.265
  880TIP3    H1 2604   4.144   0.296   4.299
  880TIP3    H2 2605   4.288   0.274   4.342
  881TIP3   OH2 2606   4.504   2.664   2.920
  881TIP3    H1 2607   4.579   2.615   2.887
  881TIP3    H2 2608   4.520   2.754   2.892
  882TIP3   OH2 2609   6.194   3.983   2.586
  882TIP3    H1 2610   6.289   3.979   2.572
  882TIP3    H2 2611   6.166   3.891   2.589
  883TIP3   OH2 2612   3.491   5.975   4.444
  883TIP3    H1 2613   3.574   5.928   4.440
  883TIP3    H2 2614   3.453   5.951   4.528
  884TIP3   OH2 2615   2.854   5.945   5.678
  884TIP3    H1 2616   2.897   5.943   5.592
  884TIP3    H2 2617   2.925   5.936   5.741
  885TIP3   OH2 2618   2.053   3.741   1.754
  885TIP3    H1 2619   2.145   3.721   1.738
  885TIP3    H2 2620   2.043   3.735   1.849
  886TIP3   OH2 2621   2.914   1.663   2.884
  886TIP3    H1 2622   2.959   1.580   2.870
  886TIP3    H2 2623   2.942   1.718   2.811
  887TIP3   OH2 2624   4.565   1.266   2.906
  887TIP3    H1 2625   4.481   1.223   2.894
  887TIP3    H2 2626   4.582   1.310   2.823
  888TIP3   OH2 2627   0.927   5.039   0.853
  888TIP3    H1 2628   0.985   5.006   0.785
  888TIP3    H2 2629   0.942   5.134   0.855
  889TIP3   OH2 2630   2.412   3.681   0.200
  889TIP3    H1 2631   2.377   3.687   0.111
  889TIP3    H2 2632   2.392   3.592   0.228
  890TIP3   OH2 2633   4.716   1.340   5.775
  890TIP3    H1 2634   4.631   1.367   5.811
  890TIP3    H2 2635   4.734   1.403   5.705
  891TIP3   OH2 2636   3.979   6.608   1.751
  891TIP3    H1 2637   3.909   6.570   1.805
  891TIP3    H2 2638   3.996   6.694   1.790
  892TIP3   OH2 2639   6.046   4.612   0.393
  892TIP3    H1 2640   5.977   4.678   0.392
  892TIP3    H2 2641   6.125   4.660   0.367
  893TIP3   OH2 2642   0.912   3.497   4.474
  893TIP3    H1 2643   0.975   3.426   4.463
  893TIP3    H2 2644   0.961   3.567   4.518
  894TIP3   OH2 2645   1.156   2.853   4.471
  894TIP3    H1 2646   1.115   2.939   4.486
  894TIP3    H2 2647   1.115   2.821   4.391
  895TIP3   OH2 2648   1.383   2.158   2.944
  895TIP3    H1 2649   1.478   2.146   2.952
  895TIP3    H2 2650   1.348   2.069   2.938
  896TIP3   OH2 2651   0.094   4.513   2.684
  896TIP3    H1 2652   0.169   4.455   2.673
  896TIP3    H2 2653   0.122   4.596   2.646
  897TIP3   OH2 2654   5.957   1.359   3.838
  897TIP3    H1 2655   5.965   1.276   3.886
  897TIP3    H2 2656   5.935   1.424   3.905
  898TIP3   OH2 2657   6.160   6.520   0.630
  898TIP3    H1 2658   6.163   6.579   0.705
  898TIP3    H2 2659   6.077   6.472   0.640
  899TIP3   OH2 2660   4.136   3.406   1.020
  899TIP3    H1 2661   4.163   3.466   0.951
  899TIP3    H2 2662   4.078   3.458   1.076
  900TIP3   OH2 2663   6.764   5.997   1.121
  900TIP3    H1 2664   6.778   6.092   1.129
  900TIP3    H2 2665   6.725   5.971   1.204
  901TIP3   OH2 2666   4.346   0.665   2.851
  901TIP3    H1 2667   4.267   0.628   2.811
  901TIP3    H2 2668   4.415   0.604   2.827
  902TIP3   OH2 2669   2.357   0.431   4.540
  902TIP3    H1 2670   2.338   0.524   4.556
  902TIP3    H2 2671   2.297   0.383   4.596
  903TIP3   OH2 2672   0.492   2.204   0.377
  903TIP3    H1 2673   0.512   2.153   0.298
  903TIP3    H2 2674   0.572   2.198   0.430
  904TIP3   OH2 2675   2.048   1.106   0.319
  904TIP3    H1 2676   2.010   1.075   0.237
  904TIP3    H2 2677   2.109   1.175   0.292
  905TIP3   OH2 2678   1.851   3.259   5.605
  905TIP3    H1 2679   1.868   3.320   5.676
  905TIP3    H2 2680   1.924   3.271   5.545
  906TIP3   OH2 2681   2.507   6.113   0.622
  906TIP3    H1 2682   2.589   6.132   0.578
  906TIP3    H2 2683   2.531   6.060   0.698
  907TIP3   OH2 2684   3.710   2.315   0.572
  907TIP3    H1 2685   3.781   2.354   0.623
  907TIP3    H2 2686   3.636   2.311   0.633
  908TIP3   OH2 2687   5.377   5.146   3.528
  908TIP3    H1 2688   5.327   5.223   3.500
  908TIP3    H2 2689   5.315   5.095   3.581
  909TIP3   OH2 2690   6.793   4.335   3.451
  909TIP3    H1 2691   6.853   4.313   3.521
  909TIP3    H2 2692   6.732   4.262   3.447
  910TIP3   OH2 2693   5.640   2.315   3.793
  910TIP3    H1 2694   5.654   2.355   3.707
  910TIP3    H2 2695   5.664   2.384   3.855
  911TIP3   OH2 2696   0.077   4.537   4.596
  911TIP3    H1 2697   0.091   4.534   4.501
  911TIP3    H2 2698   0.154   4.493   4.633
  912TIP3   OH2 2699   5.402   6.416   3.842
  912TIP3    H1 2700   5.465   6.413   3.914
  912TIP3    H2 2701   5.317   6.432   3.885
  913TIP3   OH2 2702   6.486   1.305   2.721
  913TIP3    H1 2703   6.441   1.226   2.690
  913TIP3    H2 2704   6.564   1.312   2.666
  914TIP3   OH2 2705   5.727   2.092   0.871
  914TIP3    H1 2706   5.725   2.152   0.796
  914TIP3    H2 2707   5.644   2.044   0.866
  915TIP3   OH2 2708   0.311   1.335   3.333
  915TIP3    H1 2709   0.225   1.293   3.322
  915TIP3    H2 2710   0.374   1.263   3.326
  916TIP3   OH2 2711   2.504   1.070   1.728
  916TIP3    H1 2712   2.540   1.153   1.698
  916TIP3    H2 2713   2.444   1.044   1.659
  917TIP3   OH2 2714   4.064   0.368   3.551
  917TIP3    H1 2715   4.025   0.281   3.560
  917TIP3    H2 2716   4.106   0.385   3.636
  918TIP3   OH2 2717   4.851   5.442   5.783
  918TIP3    H1 2718   4.935   5.484   5.801
  918TIP3    H2 2719   4.843   5.442   5.688
  919TIP3   OH2 2720   3.501   5.814   3.426
  919TIP3    H1 2721   3.560   5.839   3.354
  919TIP3    H2 2722   3.540   5.854   3.504
  920TIP3   OH2 2723   0.109   2.865   5.233
  920TIP3    H1 2724   0.027   2.878   5.280
  920TIP3    H2 2725   0.110   2.933   5.166
  921TIP3   OH2 2726   2.207   0.079   4.383
  921TIP3    H1 2727   2.157   0.132   4.320
  921TIP3    H2 2728   2.145   0.061   4.454
  922TIP3   OH2 2729   1.579   4.178   1.290
  922TIP3    H1 2730   1.488   4.169   1.262
  922TIP3    H2 2731   1.574   4.200   1.383
  923TIP3   OH2 2732   2.762   2.258   2.961
  923TIP3    H1 2733   2.793   2.247   3.051
  923TIP3    H2 2734   2.667   2.262   2.969
  924TIP3   OH2 2735   5.654   2.379   0.787
  924TIP3    H1 2736   5.738   2.423   0.801
  924TIP3    H2 2737   5.611   2.384   0.873
  925TIP3   OH2 2738   6.264   0.407   1.041
  925TIP3    H1 2739   6.204   0.475   1.011
  925TIP3    H2 2740   6.338   0.412   0.981
  926TIP3   OH2 2741   1.816   1.805   5.261
  926TIP3    H1 2742   1.766   1.724   5.263
  926TIP3    H2 2743   1.756   1.869   5.221
  927TIP3   OH2 2744   0.291   0.524   0.210
  927TIP3    H1 2745   0.226   0.536   0.141
  927TIP3    H2 2746   0.254   0.455   0.265
  928TIP3   OH2 2747   1.958   1.701   2.582
  928TIP3    H1 2748   1.953   1.758   2.506
  928TIP3    H2 2749   1.960   1.612   2.546
  929TIP3   OH2 2750   6.831   3.094   5.491
  929TIP3    H1 2751   6.925   3.092   5.504
  929TIP3    H2 2752   6.796   3.138   5.569
  930TIP3   OH2 2753   6.660   3.619   0.903
  930TIP3    H1 2754   6.645   3.682   0.974
  930TIP3    H2 2755   6.717   3.553   0.941
  931TIP3   OH2 2756   7.063   2.793   4.800
  931TIP3    H1 2757   7.028   2.818   4.886
  931TIP3    H2 2758   7.003   2.833   4.738
  932TIP3   OH2 2759   4.420   3.903   1.868
  932TIP3    H1 2760   4.403   3.994   1.891
  932TIP3    H2 2761   4.367   3.852   1.929
  933TIP3   OH2 2762   2.233   3.277   5.008
  933TIP3    H1 2763   2.192   3.350   4.962
  933TIP3    H2 2764   2.297   3.242   4.946
  934TIP3   OH2 2765   0.652   0.856   2.148
  934TIP3    H1 2766   0.671   0.944   2.181
  934TIP3    H2 2767   0.739   0.815   2.141
  935TIP3   OH2 2768   1.909   0.988   0.117
  935TIP3    H1 2769   1.912   0.958   0.027
  935TIP3    H2 2770   1.819   1.020   0.129
  936TIP3   OH2 2771   4.704   4.168   4.407
  936TIP3    H1 2772   4.637   4.099   4.403
  936TIP3    H2 2773   4.668   4.232   4.468
  937TIP3   OH2 2774   6.800   5.487   1.135
  937TIP3    H1 2775   6.714   5.445   1.143
  937TIP3    H2 2776   6.825   5.509   1.224
  938TIP3   OH2 2777   1.105   1.107   4.125
  938TIP3    H1 2778   1.048   1.178   4.152
  938TIP3    H2 2779   1.057   1.027   4.149
  939TIP3   OH2 2780   2.082   4.019   1.426
  939TIP3    H1 2781   2.110   4.043   1.337
  939TIP3    H2 2782   1.987   4.007   1.419
  940TIP3   OH2 2783   0.827   0.125   1.471
  940TIP3    H1 2784   0.892   0.135   1.401
  940TIP3    H2 2785   0.858   0.050   1.522
  941TIP3   OH2 2786   3.599   1.769   4.914
  941TIP3    H1 2787   3.570   1.815   4.992
  941TIP3    H2 2788   3.687   1.804   4.896
  942TIP3   OH2 2789   3.933   0.937   5.426
  942TIP3    H1 2790   4.020   0.965   5.455
  942TIP3    H2 2791   3.918   0.987   5.346
  943TIP3   OH2 2792   7.005   0.939   5.512
  943TIP3    H1 2793   7.001   0.869   5.447
  943TIP3    H2 2794   7.099   0.951   5.528
  944TIP3   OH2 2795   4.845   6.524   2.362
  944TIP3    H1 2796   4.775   6.567   2.312
  944TIP3    H2 2797   4.814   6.529   2.453
  945TIP3   OH2 2798   2.741   1.816   3.443
  945TIP3    H1 2799   2.709   1.806   3.533
  945TIP3    H2 2800   2.673   1.777   3.389
  946TIP3   OH2 2801   7.159   1.390   2.588
  946TIP3    H1 2802   7.142   1.350   2.503
  946TIP3    H2 2803   7.087   1.361   2.644
  947TIP3   OH2 2804   4.594   0.469   5.350
  947TIP3    H1 2805   4.638   0.544   5.391
  947TIP3    H2 2806   4.663   0.424   5.302
  948TIP3   OH2 2807   1.275   6.339   5.135
  948TIP3    H1 2808   1.263   6.372   5.046
  948TIP3    H2 2809   1.338   6.268   5.126
  949TIP3   OH2 2810   0.205   0.118   2.887
  949TIP3    H1 2811   0.173   0.134   2.799
  949TIP3    H2 2812   0.130   0.137   2.944
  950TIP3   OH2 2813   0.407   5.022   4.905
  950TIP3    H1 2814   0.313   5.039   4.893
  950TIP3    H2 2815   0.429   5.065   4.987
  951TIP3   OH2 2816   4.212   2.677   2.670
  951TIP3    H1 2817   4.288   2.728   2.641
  951TIP3    H2 2818   4.139   2.740   2.668
  952TIP3   OH2 2819   3.254   6.242   5.411
  952TIP3    H1 2820   3.300   6.181   5.354
  952TIP3    H2 2821   3.213   6.304   5.351
  953TIP3   OH2 2822   7.018   4.527   4.680
  953TIP3    H1 2823   7.104   4.523   4.639
  953TIP3    H2 2824   7.036   4.555   4.770
  954TIP3   OH2 2825   1.993   3.060   4.835
  954TIP3    H1 2826   1.901   3.040   4.854
  954TIP3    H2 2827   2.024   3.105   4.914
  955TIP3   OH2 2828   3.458   0.684   2.226
  955TIP3    H1 2829   3.384   0.715   2.173
  955TIP3    H2 2830   3.521   0.756   2.223
  956TIP3   OH2 2831   4.713   1.755   0.149
  956TIP3    H1 2832   4.748   1.723   0.066
  956TIP3    H2 2833   4.635   1.702   0.164
  957TIP3   OH2 2834   3.616   6.502   0.052
  957TIP3    H1 2835   3.555   6.477  -0.017
  957TIP3    H2 2836   3.582   6.584   0.086
  958TIP3   OH2 2837   4.317   5.512   3.815
  958TIP3    H1 2838   4.238   5.558   3.788
  958TIP3    H2 2839   4.307   5.424   3.779
  959TIP3   OH2 2840   0.023   1.198   0.120
  959TIP3    H1 2841   0.088   1.227   0.056
  959TIP3    H2 2842   0.046   1.107   0.139
  960TIP3   OH2 2843   4.331   4.687   5.469
  960TIP3    H1 2844   4.392   4.687   5.395
  960TIP3    H2 2845   4.383   4.717   5.543
  961TIP3   OH2 2846   5.115   0.837   4.467
  961TIP3    H1 2847   5.035   0.874   4.429
  961TIP3    H2 2848   5.121   0.750   4.429
  962TIP3   OH2 2849   2.703   3.864   5.594
  962TIP3    H1 2850   2.750   3.934   5.640
  962TIP3    H2 2851   2.646   3.910   5.532
  963TIP3   OH2 2852   6.232   1.328   1.172
  963TIP3    H1 2853   6.303   1.280   1.214
  963TIP3    H2 2854   6.175   1.355   1.244
  964TIP3   OH2 2855   4.691   4.788   4.616
  964TIP3    H1 2856   4.761   4.750   4.669
  964TIP3    H2 2857   4.615   4.789   4.673
  965TIP3   OH2 2858   5.688   3.507   4.242
  965TIP3    H1 2859   5.616   3.450   4.266
  965TIP3    H2 2860   5.741   3.514   4.321
  966TIP3   OH2 2861   1.330   0.627   3.683
  966TIP3    H1 2862   1.282   0.619   3.765
  966TIP3    H2 2863   1.418   0.652   3.709
  967TIP3   OH2 2864   2.671   3.994   2.592
  967TIP3    H1 2865   2.666   3.899   2.582
  967TIP3    H2 2866   2.624   4.012   2.673
  968TIP3   OH2 2867   4.514   3.918   3.984
  968TIP3    H1 2868   4.600   3.924   3.941
  968TIP3    H2 2869   4.522   3.975   4.060
  969TIP3   OH2 2870   6.430   2.129   5.503
  969TIP3    H1 2871   6.383   2.095   5.427
  969TIP3    H2 2872   6.403   2.220   5.510
  970TIP3   OH2 2873   6.946   4.888   3.603
  970TIP3    H1 2874   6.996   4.847   3.674
  970TIP3    H2 2875   6.855   4.873   3.627
  971TIP3   OH2 2876   4.140   5.362   4.430
  971TIP3    H1 2877   4.104   5.274   4.419
  971TIP3    H2 2878   4.126   5.404   4.346
  972TIP3   OH2 2879   0.066   6.609   3.759
  972TIP3    H1 2880  -0.014   6.584   3.805
  972TIP3    H2 2881   0.041   6.684   3.705
  973TIP3   OH2 2882   0.308   5.202   5.879
  973TIP3    H1 2883   0.329   5.116   5.843
  973TIP3    H2 2884   0.280   5.253   5.803
  974TIP3   OH2 2885   4.847   3.638   2.657
  974TIP3    H1 2886   4.806   3.717   2.623
  974TIP3    H2 2887   4.940   3.658   2.659
  975TIP3   OH2 2888   6.769   3.376   2.358
  975TIP3    H1 2889   6.681   3.398   2.328
  975TIP3    H2 2890   6.763   3.377   2.454
  976TIP3   OH2 2891   3.846   3.257   2.975
  976TIP3    H1 2892   3.852   3.272   3.069
  976TIP3    H2 2893   3.823   3.342   2.939
  977TIP3   OH2 2894   1.024   4.682   4.659
  977TIP3    H1 2895   1.103   4.647   4.700
  977TIP3    H2 2896   1.056   4.738   4.588
  978TIP3   OH2 2897   6.069   6.226   2.548
  978TIP3    H1 2898   6.036   6.310   2.579
  978TIP3    H2 2899   6.025   6.212   2.464
  979TIP3   OH2 2900   2.497   6.653   5.658
  979TIP3    H1 2901   2.573   6.632   5.711
  979TIP3    H2 2902   2.532   6.701   5.583
  980TIP3   OH2 2903   2.543   6.077   4.676
  980TIP3    H1 2904   2.527   6.171   4.687
  980TIP3    H2 2905   2.470   6.035   4.722
  981TIP3   OH2 2906   2.989   2.624   5.445
  981TIP3    H1 2907   2.912   2.571   5.425
  981TIP3    H2 2908   3.007   2.606   5.537
  982TIP3   OH2 2909   4.059   6.701   5.378
  982TIP3    H1 2910   4.115   6.717   5.454
  982TIP3    H2 2911   3.976   6.741   5.401
  983TIP3   OH2 2912   6.791   5.215   0.720
  983TIP3    H1 2913   6.714   5.213   0.776
  983TIP3    H2 2914   6.860   5.253   0.775
  984TIP3   OH2 2915   5.884   0.876   3.781
  984TIP3    H1 2916   5.864   0.840   3.694
  984TIP3    H2 2917   5.856   0.968   3.775
  985TIP3   OH2 2918   0.145   0.293   5.420
  985TIP3    H1 2919   0.238   0.312   5.425
  985TIP3    H2 2920   0.140   0.197   5.421
  986TIP3   OH2 2921   4.378   0.010   5.653
  986TIP3    H1 2922   4.363   0.034   5.744
  986TIP3    H2 2923   4.325   0.071   5.603
  987TIP3   OH2 2924   5.845   5.639   4.636
  987TIP3    H1 2925   5.915   5.621   4.697
  987TIP3    H2 2926   5.768   5.653   4.691
  988TIP3   OH2 2927   3.894   5.194   5.288
  988TIP3    H1 2928   3.959   5.124   5.296
  988TIP3    H2 2929   3.827   5.171   5.353
  989TIP3   OH2 2930   6.042   2.805   3.127
  989TIP3    H1 2931   6.087   2.737   3.177
  989TIP3    H2 2932   6.011   2.866   3.193
  990TIP3   OH2 2933   1.647   5.466   1.831
  990TIP3    H1 2934   1.740   5.447   1.840
  990TIP3    H2 2935   1.615   5.473   1.921
  991TIP3   OH2 2936   3.511   5.916   0.157
  991TIP3    H1 2937   3.438   5.858   0.138
  991TIP3    H2 2938   3.545   5.943   0.072
  992TIP3   OH2 2939   2.660   0.332   4.033
  992TIP3    H1 2940   2.685   0.240   4.041
  992TIP3    H2 2941   2.622   0.353   4.118
  993TIP3   OH2 2942   2.762   1.398   3.322
  993TIP3    H1 2943   2.842   1.431   3.364
  993TIP3    H2 2944   2.730   1.472   3.271
  994TIP3   OH2 2945   5.723   0.534   4.534
  994TIP3    H1 2946   5.731   0.615   4.584
  994TIP3    H2 2947   5.786   0.544   4.462
  995TIP3   OH2 2948   3.800   1.080   3.446
  995TIP3    H1 2949   3.782   1.127   3.364
  995TIP3    H2 2950   3.787   1.146   3.515
  996TIP3   OH2 2951   6.630   5.160   0.961
  996TIP3    H1 2952   6.721   5.145   0.987
  996TIP3    H2 2953   6.580   5.095   1.011
  997TIP3   OH2 2954   3.725   5.242   0.032
  997TIP3    H1 2955   3.642   5.254  -0.013
  997TIP3    H2 2956   3.727   5.313   0.097
  998TIP3   OH2 2957   4.264   5.928   3.282
  998TIP3    H1 2958   4.345   5.958   3.240
  998TIP3    H2 2959   4.290   5.908   3.372
  999TIP3   OH2 2960   5.014   6.692   0.794
  999TIP3    H1 2961   5.006   6.598   0.804
  999TIP3    H2 2962   5.108   6.710   0.801
 1000TIP3   OH2 2963   3.292   2.265   1.042
 1000TIP3    H1 2964   3.331   2.349   1.019
 1000TIP3    H2 2965   3.230   2.287   1.112
 1001TIP3   OH2 2966   5.910   3.251   1.506
 1001TIP3    H1 2967   5.964   3.181   1.468
 1001TIP3    H2 2968   5.878   3.300   1.431
 1002TIP3   OH2 2969   0.087   1.217   3.901
 1002TIP3    H1 2970   0.178   1.228   3.873
 1002TIP3    H2 2971   0.036   1.246   3.825
 1003TIP3   OH2 2972   1.407   0.305   5.107
 1003TIP3    H1 2973   1.314   0.306   5.130
 1003TIP3    H2 2974   1.438   0.393   5.128
 1004TIP3   OH2 2975   4.529   4.364   0.840
 1004TIP3    H1 2976   4.477   4.432   0.885
 1004TIP3    H2 2977   4.510   4.377   0.748
 1005TIP3   OH2 2978   2.857   2.892   5.348
 1005TIP3    H1 2979   2.850   2.956   5.418
 1005TIP3    H2 2980   2.858   2.807   5.393
 1006TIP3   OH2 2981   2.918   3.968   5.735
 1006TIP3    H1 2982   2.925   3.877   5.763
 1006TIP3    H2 2983   3.006   4.003   5.745
 1007TIP3   OH2 2984   0.138   0.381   1.310
 1007TIP3    H1 2985   0.208   0.323   1.281
 1007TIP3    H2 2986   0.144   0.379   1.406
 1008TIP3   OH2 2987   3.579   0.468   1.896
 1008TIP3    H1 2988   3.598   0.484   1.803
 1008TIP3    H2 2989   3.612   0.547   1.940
 1009TIP3   OH2 2990   3.620   3.929   4.590
 1009TIP3    H1 2991   3.609   3.840   4.557
 1009TIP3    H2 2992   3.531   3.962   4.602
 1010TIP3   OH2 2993   6.950   5.581   4.631
 1010TIP3    H1 2994   6.899   5.642   4.578
 1010TIP3    H2 2995   6.917   5.594   4.720
 1011TIP3   OH2 2996   7.098   6.793   5.314
 1011TIP3    H1 2997   7.076   6.747   5.232
 1011TIP3    H2 2998   7.038   6.756   5.379
 1012TIP3   OH2 2999   0.120   4.047   2.586
 1012TIP3    H1 3000   0.104   3.960   2.624
 1012TIP3    H2 3001   0.211   4.044   2.556
 1013TIP3   OH2 3002   6.608   1.634   4.911
 1013TIP3    H1 3003   6.606   1.592   4.825
 1013TIP3    H2 3004   6.541   1.701   4.907
 1014TIP3   OH2 3005   6.874   4.514   1.089
 1014TIP3    H1 3006   6.885   4.515   1.184
 1014TIP3    H2 3007   6.802   4.453   1.073
 1015TIP3   OH2 3008   5.316   6.435   2.498
 1015TIP3    H1 3009   5.299   6.359   2.443
 1015TIP3    H2 3010   5.382   6.405   2.560
 1016TIP3   OH2 3011   3.161   1.112   2.694
 1016TIP3    H1 3012   3.119   1.058   2.761
 1016TIP3    H2 3013   3.234   1.153   2.740
 1017TIP3   OH2 3014   5.673   4.190   2.053
 1017TIP3    H1 3015   5.643   4.276   2.083
 1017TIP3    H2 3016   5.765   4.203   2.030
 1018TIP3   OH2 3017   1.916   6.052   1.660
 1018TIP3    H1 3018   1.978   6.058   1.587
 1018TIP3    H2 3019   1.861   6.129   1.651
 1019TIP3   OH2 3020   3.780   0.201   5.696
 1019TIP3    H1 3021   3.856   0.163   5.654
 1019TIP3    H2 3022   3.747   0.133   5.755
 1020TIP3   OH2 3023   7.125   2.906   0.571
 1020TIP3    H1 3024   7.151   2.851   0.645
 1020TIP3    H2 3025   7.043   2.868   0.541
 1021TIP3   OH2 3026   4.479   5.146   1.218
 1021TIP3    H1 3027   4.562   5.185   1.191
 1021TIP3    H2 3028   4.483   5.056   1.186
 1022TIP3   OH2 3029   5.019   1.601   2.722
 1022TIP3    H1 3030   4.955   1.541   2.758
 1022TIP3    H2 3031   5.037   1.663   2.793
 1023TIP3   OH2 3032   3.449   6.716   3.593
 1023TIP3    H1 3033   3.355   6.712   3.613
 1023TIP3    H2 3034   3.484   6.635   3.629
 1024TIP3   OH2 3035   4.342   4.572   0.891
 1024TIP3    H1 3036   4.322   4.607   0.805
 1024TIP3    H2 3037   4.258   4.536   0.922
 1025TIP3   OH2 3038   6.580   2.538   5.609
 1025TIP3    H1 3039   6.661   2.585   5.587
 1025TIP3    H2 3040   6.590   2.513   5.700
 1026TIP3   OH2 3041   5.752   6.699   4.157
 1026TIP3    H1 3042   5.745   6.724   4.249
 1026TIP3    H2 3043   5.829   6.746   4.126
 1027TIP3   OH2 3044   0.120   3.575   1.708
 1027TIP3    H1 3045   0.112   3.479   1.703
 1027TIP3    H2 3046   0.107   3.595   1.801
 1028TIP3   OH2 3047   2.256   1.468   5.017
 1028TIP3    H1 3048   2.242   1.540   4.955
 1028TIP3    H2 3049   2.254   1.389   4.963
 1029TIP3   OH2 3050   3.245   0.050   0.572
 1029TIP3    H1 3051   3.181  -0.007   0.529
 1029TIP3    H2 3052   3.276  -0.001   0.647
 1030TIP3   OH2 3053   6.974   2.216   2.695
 1030TIP3    H1 3054   6.941   2.274   2.626
 1030TIP3    H2 3055   6.934   2.250   2.775
 1031TIP3   OH2 3056   3.324   0.073   3.899
 1031TIP3    H1 3057   3.401   0.058   3.845
 1031TIP3    H2 3058   3.263   0.004   3.873
 1032TIP3   OH2 3059   3.131   5.035   1.377
 1032TIP3    H1 3060   3.194   4.991   1.433
 1032TIP3    H2 3061   3.099   5.108   1.429
 1033TIP3   OH2 3062   1.141   5.004   2.610
 1033TIP3    H1 3063   1.046   5.018   2.610
 1033TIP3    H2 3064   1.172   5.051   2.687
 1034TIP3   OH2 3065   3.557   3.838   0.770
 1034TIP3    H1 3066   3.606   3.894   0.711
 1034TIP3    H2 3067   3.518   3.771   0.713
 1035TIP3   OH2 3068   4.734   1.426   1.481
 1035TIP3    H1 3069   4.660   1.393   1.532
 1035TIP3    H2 3070   4.727   1.521   1.489
 1036TIP3   OH2 3071   1.990   2.511   4.205
 1036TIP3    H1 3072   2.065   2.509   4.145
 1036TIP3    H2 3073   2.004   2.588   4.260
 1037TIP3   OH2 3074   4.013   4.061   5.848
 1037TIP3    H1 3075   4.077   4.133   5.844
 1037TIP3    H2 3076   3.982   4.063   5.939
 1038TIP3   OH2 3077   2.819   4.490   4.122
 1038TIP3    H1 3078   2.763   4.412   4.121
 1038TIP3    H2 3079   2.908   4.456   4.129
 1039TIP3   OH2 3080   3.937   4.507   2.524
 1039TIP3    H1 3081   3.970   4.435   2.576
 1039TIP3    H2 3082   3.847   4.520   2.555
 1040TIP3   OH2 3083   5.758   5.425   5.451
 1040TIP3    H1 3084   5.669   5.457   5.434
 1040TIP3    H2 3085   5.768   5.431   5.546
 1041TIP3   OH2 3086   1.980   4.776   1.413
 1041TIP3    H1 3087   1.923   4.723   1.469
 1041TIP3    H2 3088   1.994   4.857   1.463
 1042TIP3   OH2 3089   0.183   4.886   0.903
 1042TIP3    H1 3090   0.111   4.832   0.871
 1042TIP3    H2 3091   0.259   4.829   0.901
 1043TIP3   OH2 3092   1.785   0.806   3.239
 1043TIP3    H1 3093   1.804   0.845   3.154
 1043TIP3    H2 3094   1.765   0.880   3.296
 1044TIP3   OH2 3095   4.021   5.604   4.790
 1044TIP3    H1 3096   4.098   5.661   4.793
 1044TIP3    H2 3097   3.979   5.616   4.875
 1045TIP3   OH2 3098   6.227   2.652   1.148
 1045TIP3    H1 3099   6.321   2.637   1.161
 1045TIP3    H2 3100   6.209   2.732   1.197
 1046TIP3   OH2 3101   0.048   0.112   1.603
 1046TIP3    H1 3102   0.046   0.024   1.564
 1046TIP3    H2 3103  -0.018   0.161   1.556
 1047TIP3   OH2 3104   0.116   4.131   4.285
 1047TIP3    H1 3105   0.081   4.044   4.264
 1047TIP3    H2 3106   0.039   4.183   4.307
 1048TIP3   OH2 3107   5.816   2.467   3.959
 1048TIP3    H1 3108   5.795   2.523   3.884
 1048TIP3    H2 3109   5.846   2.528   4.027
 1049TIP3   OH2 3110   3.542   4.710   2.231
 1049TIP3    H1 3111   3.516   4.618   2.242
 1049TIP3    H2 3112   3.558   4.720   2.138
 1050TIP3   OH2 3113   1.437   2.001   1.763
 1050TIP3    H1 3114   1.485   1.929   1.721
 1050TIP3    H2 3115   1.449   2.075   1.704
 1051TIP3   OH2 3116   3.206   3.988   1.137
 1051TIP3    H1 3117   3.210   3.991   1.041
 1051TIP3    H2 3118   3.113   3.985   1.157
 1052TIP3   OH2 3119   5.188   6.281   4.851
 1052TIP3    H1 3120   5.104   6.322   4.830
 1052TIP3    H2 3121   5.211   6.233   4.771
 1053TIP3   OH2 3122   7.050   0.559   4.409
 1053TIP3    H1 3123   6.976   0.498   4.412
 1053TIP3    H2 3124   7.010   0.645   4.425
 1054TIP3   OH2 3125   3.167   4.347   1.971
 1054TIP3    H1 3126   3.130   4.295   2.043
 1054TIP3    H2 3127   3.242   4.295   1.941
 1055TIP3   OH2 3128   1.291   1.388   3.896
 1055TIP3    H1 3129   1.319   1.331   3.825
 1055TIP3    H2 3130   1.223   1.443   3.857
 1056TIP3   OH2 3131   2.638   0.875   2.764
 1056TIP3    H1 3132   2.631   0.900   2.672
 1056TIP3    H2 3133   2.693   0.944   2.803
 1057TIP3   OH2 3134   5.336   3.287   3.834
 1057TIP3    H1 3135   5.269   3.354   3.846
 1057TIP3    H2 3136   5.299   3.208   3.874
 1058TIP3   OH2 3137   0.801   1.935   5.736
 1058TIP3    H1 3138   0.782   2.024   5.708
 1058TIP3    H2 3139   0.785   1.936   5.830
 1059TIP3   OH2 3140   7.052   0.044   1.961
 1059TIP3    H1 3141   6.984   0.026   1.896
 1059TIP3    H2 3142   7.048   0.139   1.974
 1060TIP3   OH2 3143   2.751   5.721   1.775
 1060TIP3    H1 3144   2.702   5.789   1.823
 1060TIP3    H2 3145   2.712   5.720   1.688
 1061TIP3   OH2 3146   4.419   1.058   2.273
 1061TIP3    H1 3147   4.339   1.016   2.241
 1061TIP3    H2 3148   4.478   1.058   2.199
 1062TIP3   OH2 3149   4.099   5.694   1.924
 1062TIP3    H1 3150   4.045   5.703   1.846
 1062TIP3    H2 3151   4.185   5.727   1.898
 1063TIP3   OH2 3152   1.666   3.436   1.637
 1063TIP3    H1 3153   1.737   3.374   1.621
 1063TIP3    H2 3154   1.681   3.468   1.726
 1064TIP3   OH2 3155   0.589   1.461   1.499
 1064TIP3    H1 3156   0.586   1.432   1.407
 1064TIP3    H2 3157   0.660   1.524   1.502
 1065TIP3   OH2 3158   6.839   5.176   3.795
 1065TIP3    H1 3159   6.796   5.116   3.734
 1065TIP3    H2 3160   6.832   5.262   3.754
 1066TIP3   OH2 3161   1.009   4.843   2.925
 1066TIP3    H1 3162   0.997   4.937   2.913
 1066TIP3    H2 3163   0.922   4.809   2.943
 1067TIP3   OH2 3164   6.729   2.807   5.712
 1067TIP3    H1 3165   6.786   2.757   5.653
 1067TIP3    H2 3166   6.789   2.859   5.764
 1068TIP3   OH2 3167   3.336   5.421   2.864
 1068TIP3    H1 3168   3.321   5.423   2.959
 1068TIP3    H2 3169   3.323   5.511   2.835
 1069TIP3   OH2 3170   0.172   4.273   3.830
 1069TIP3    H1 3171   0.233   4.274   3.756
 1069TIP3    H2 3172   0.228   4.287   3.906
 1070TIP3   OH2 3173   4.119   2.232   4.030
 1070TIP3    H1 3174   4.058   2.291   4.074
 1070TIP3    H2 3175   4.115   2.151   4.080
 1071TIP3   OH2 3176   2.407   3.710   1.280
 1071TIP3    H1 3177   2.500   3.728   1.276
 1071TIP3    H2 3178   2.378   3.752   1.361
 1072TIP3   OH2 3179   4.553   4.424   1.262
 1072TIP3    H1 3180   4.524   4.481   1.333
 1072TIP3    H2 3181   4.532   4.335   1.291
 1073TIP3   OH2 3182   2.113   1.840   5.628
 1073TIP3    H1 3183   2.055   1.910   5.600
 1073TIP3    H2 3184   2.071   1.760   5.597
 1074TIP3   OH2 3185   3.439   2.956   5.705
 1074TIP3    H1 3186   3.461   3.048   5.692
 1074TIP3    H2 3187   3.353   2.945   5.664
 1075TIP3   OH2 3188   0.825   3.829   4.789
 1075TIP3    H1 3189   0.874   3.782   4.722
 1075TIP3    H2 3190   0.800   3.912   4.748
 1076TIP3   OH2 3191   4.743   1.314   5.392
 1076TIP3    H1 3192   4.693   1.394   5.377
 1076TIP3    H2 3193   4.829   1.332   5.353
 1077TIP3   OH2 3194   6.862   3.061   3.639
 1077TIP3    H1 3195   6.897   3.003   3.572
 1077TIP3    H2 3196   6.833   3.002   3.709
 1078TIP3   OH2 3197   5.103   3.050   5.258
 1078TIP3    H1 3198   5.156   3.067   5.336
 1078TIP3    H2 3199   5.013   3.057   5.289
 1079TIP3   OH2 3200   1.553   2.427   5.014
 1079TIP3    H1 3201   1.521   2.359   4.954
 1079TIP3    H2 3202   1.644   2.404   5.030
 1080TIP3   OH2 3203   3.169   2.017   0.919
 1080TIP3    H1 3204   3.246   2.070   0.939
 1080TIP3    H2 3205   3.117   2.070   0.859
 1081TIP3   OH2 3206   0.890   6.422   2.857
 1081TIP3    H1 3207   0.873   6.516   2.865
 1081TIP3    H2 3208   0.867   6.401   2.766
 1082TIP3   OH2 3209   0.000   5.058   5.759
 1082TIP3    H1 3210   0.085   5.082   5.723
 1082TIP3    H2 3211  -0.016   4.969   5.727
 1083TIP3   OH2 3212   2.589   0.784   1.505
 1083TIP3    H1 3213   2.551   0.698   1.483
 1083TIP3    H2 3214   2.599   0.782   1.600
 1084TIP3   OH2 3215   3.275   4.899   2.023
 1084TIP3    H1 3216   3.208   4.833   2.006
 1084TIP3    H2 3217   3.229   4.968   2.069
 1085TIP3   OH2 3218   3.368   0.234   4.900
 1085TIP3    H1 3219   3.282   0.219   4.939
 1085TIP3    H2 3220   3.415   0.285   4.967
 1086TIP3   OH2 3221   6.023   5.123   2.141
 1086TIP3    H1 3222   5.939   5.138   2.186
 1086TIP3    H2 3223   6.043   5.207   2.101
 1087TIP3   OH2 3224   0.346   0.982   4.534
 1087TIP3    H1 3225   0.399   1.055   4.503
 1087TIP3    H2 3226   0.382   0.960   4.619
 1088TIP3   OH2 3227   2.109   5.145   1.205
 1088TIP3    H1 3228   2.117   5.240   1.211
 1088TIP3    H2 3229   2.106   5.126   1.111
 1089TIP3   OH2 3230   0.424   4.542   1.875
 1089TIP3    H1 3231   0.405   4.636   1.869
 1089TIP3    H2 3232   0.510   4.537   1.916
 1090TIP3   OH2 3233   2.885   2.943   1.133
 1090TIP3    H1 3234   2.913   2.853   1.116
 1090TIP3    H2 3235   2.859   2.977   1.047
 1091TIP3   OH2 3236   5.467   2.846   1.280
 1091TIP3    H1 3237   5.545   2.901   1.287
 1091TIP3    H2 3238   5.469   2.813   1.190
 1092TIP3   OH2 3239   0.844   2.283   4.646
 1092TIP3    H1 3240   0.755   2.308   4.669
 1092TIP3    H2 3241   0.848   2.294   4.551
 1093TIP3   OH2 3242   5.771   1.885   4.167
 1093TIP3    H1 3243   5.729   1.865   4.251
 1093TIP3    H2 3244   5.703   1.930   4.117
 1094TIP3   OH2 3245   2.971   5.247   3.519
 1094TIP3    H1 3246   2.923   5.169   3.489
 1094TIP3    H2 3247   3.011   5.221   3.602
 1095TIP3   OH2 3248   2.235   6.740   0.825
 1095TIP3    H1 3249   2.195   6.725   0.911
 1095TIP3    H2 3250   2.234   6.654   0.783
 1096TIP3   OH2 3251   3.807   0.314   4.913
 1096TIP3    H1 3252   3.741   0.331   4.846
 1096TIP3    H2 3253   3.760   0.269   4.982
 1097TIP3   OH2 3254   1.922   0.429   5.638
 1097TIP3    H1 3255   1.971   0.495   5.590
 1097TIP3    H2 3256   1.931   0.455   5.730
 1098TIP3   OH2 3257   0.613   0.271   2.187
 1098TIP3    H1 3258   0.692   0.218   2.193
 1098TIP3    H2 3259   0.638   0.356   2.224
 1099TIP3   OH2 3260   3.242   6.728   2.129
 1099TIP3    H1 3261   3.287   6.658   2.177
 1099TIP3    H2 3262   3.309   6.764   2.071
 1100TIP3   OH2 3263   2.994   0.428   1.291
 1100TIP3    H1 3264   2.981   0.519   1.266
 1100TIP3    H2 3265   3.088   0.413   1.280
 1101TIP3   OH2 3266   5.547   2.448   5.283
 1101TIP3    H1 3267   5.641   2.462   5.272
 1101TIP3    H2 3268   5.508   2.534   5.266
 1102TIP3   OH2 3269   0.752   0.081   4.021
 1102TIP3    H1 3270   0.793   0.005   4.063
 1102TIP3    H2 3271   0.676   0.045   3.976
 1103TIP3   OH2 3272   3.410   4.244   1.054
 1103TIP3    H1 3273   3.406   4.334   1.019
 1103TIP3    H2 3274   3.336   4.200   1.012
 1104TIP3   OH2 3275   3.790   6.677   0.847
 1104TIP3    H1 3276   3.718   6.615   0.855
 1104TIP3    H2 3277   3.862   6.636   0.895
 1105TIP3   OH2 3278   3.467   6.245   4.540
 1105TIP3    H1 3279   3.482   6.166   4.488
 1105TIP3    H2 3280   3.528   6.236   4.614
 1106TIP3   OH2 3281   2.509   1.497   2.554
 1106TIP3    H1 3282   2.566   1.572   2.574
 1106TIP3    H2 3283   2.431   1.512   2.607
 1107TIP3   OH2 3284   7.195   5.021   2.215
 1107TIP3    H1 3285   7.250   5.082   2.263
 1107TIP3    H2 3286   7.110   5.064   2.211
 1108TIP3   OH2 3287   0.178   3.575   4.512
 1108TIP3    H1 3288   0.199   3.606   4.424
 1108TIP3    H2 3289   0.138   3.651   4.555
 1109TIP3   OH2 3290   2.639   2.026   0.989
 1109TIP3    H1 3291   2.729   2.054   1.007
 1109TIP3    H2 3292   2.602   2.096   0.936
 1110TIP3   OH2 3293   3.445   2.538   0.081
 1110TIP3    H1 3294   3.487   2.563  -0.001
 1110TIP3    H2 3295   3.368   2.594   0.086
 1111TIP3   OH2 3296   4.828   0.405   1.597
 1111TIP3    H1 3297   4.761   0.428   1.533
 1111TIP3    H2 3298   4.909   0.401   1.546
 1112TIP3   OH2 3299   6.184   4.674   3.934
 1112TIP3    H1 3300   6.234   4.657   4.013
 1112TIP3    H2 3301   6.196   4.768   3.917
 1113TIP3   OH2 3302   1.915   0.805   5.534
 1113TIP3    H1 3303   1.886   0.789   5.444
 1113TIP3    H2 3304   2.006   0.777   5.535
 1114TIP3   OH2 3305   2.521   5.247   1.998
 1114TIP3    H1 3306   2.571   5.308   1.943
 1114TIP3    H2 3307   2.587   5.206   2.055
 1115TIP3   OH2 3308   2.768   3.713   1.624
 1115TIP3    H1 3309   2.860   3.712   1.651
 1115TIP3    H2 3310   2.719   3.706   1.706
 1116TIP3   OH2 3311   4.124   1.438   5.281
 1116TIP3    H1 3312   4.032   1.423   5.257
 1116TIP3    H2 3313   4.120   1.478   5.367
 1117TIP3   OH2 3314   4.482   1.216   0.492
 1117TIP3    H1 3315   4.540   1.157   0.444
 1117TIP3    H2 3316   4.441   1.159   0.557
 1118TIP3   OH2 3317   2.904   6.603   5.514
 1118TIP3    H1 3318   2.959   6.604   5.436
 1118TIP3    H2 3319   2.957   6.644   5.582
 1119TIP3   OH2 3320   5.850   3.921   1.863
 1119TIP3    H1 3321   5.831   3.915   1.956
 1119TIP3    H2 3322   5.823   4.009   1.838
 1120TIP3   OH2 3323   6.229   1.232   3.525
 1120TIP3    H1 3324   6.145   1.186   3.538
 1120TIP3    H2 3325   6.208   1.302   3.463
 1121TIP3   OH2 3326   4.692   1.381   0.224
 1121TIP3    H1 3327   4.702   1.307   0.164
 1121TIP3    H2 3328   4.610   1.423   0.197
 1122TIP3   OH2 3329   0.134   2.890   4.810
 1122TIP3    H1 3330   0.044   2.859   4.797
 1122TIP3    H2 3331   0.184   2.810   4.831
 1123TIP3   OH2 3332   4.376   6.202   2.656
 1123TIP3    H1 3333   4.281   6.194   2.666
 1123TIP3    H2 3334   4.411   6.122   2.694
 1124TIP3   OH2 3335   0.569   3.821   5.352
 1124TIP3    H1 3336   0.616   3.878   5.291
 1124TIP3    H2 3337   0.549   3.743   5.301
 1125TIP3   OH2 3338   3.052   0.967   0.066
 1125TIP3    H1 3339   3.129   1.014   0.033
 1125TIP3    H2 3340   3.084   0.920   0.143
 1126TIP3   OH2 3341   4.724   0.576   4.277
 1126TIP3    H1 3342   4.631   0.574   4.299
 1126TIP3    H2 3343   4.767   0.531   4.350
 1127TIP3   OH2 3344   3.515   5.595   0.039
 1127TIP3    H1 3345   3.477   5.683   0.045
 1127TIP3    H2 3346   3.557   5.581   0.123
 1128TIP3   OH2 3347   5.123   1.907   1.537
 1128TIP3    H1 3348   5.072   1.941   1.464
 1128TIP3    H2 3349   5.163   1.827   1.502
 1129TIP3   OH2 3350   5.434   5.470   0.640
 1129TIP3    H1 3351   5.396   5.384   0.656
 1129TIP3    H2 3352   5.404   5.494   0.552
 1130TIP3   OH2 3353   5.634   0.893   0.777
 1130TIP3    H1 3354   5.652   0.799   0.779
 1130TIP3    H2 3355   5.713   0.933   0.812
 1131TIP3   OH2 3356   2.198   1.983   4.383
 1131TIP3    H1 3357   2.275   1.949   4.337
 1131TIP3    H2 3358   2.146   2.024   4.315
 1132TIP3   OH2 3359   0.123   2.137   3.309
 1132TIP3    H1 3360   0.140   2.147   3.403
 1132TIP3    H2 3361   0.067   2.060   3.303
 1133TIP3   OH2 3362   1.759   2.228   5.245
 1133TIP3    H1 3363   1.762   2.281   5.165
 1133TIP3    H2 3364   1.735   2.141   5.214
 1134TIP3   OH2 3365   4.551   3.514   0.672
 1134TIP3    H1 3366   4.507   3.560   0.744
 1134TIP3    H2 3367   4.641   3.502   0.703
 1135TIP3   OH2 3368   5.456   6.546   3.206
 1135TIP3    H1 3369   5.547   6.516   3.210
 1135TIP3    H2 3370   5.408   6.471   3.169
 1136TIP3   OH2 3371   5.890   3.901   1.249
 1136TIP3    H1 3372   5.856   3.932   1.166
 1136TIP3    H2 3373   5.813   3.874   1.299
 1137TIP3   OH2 3374   4.968   3.078   5.662
 1137TIP3    H1 3375   5.044   3.115   5.618
 1137TIP3    H2 3376   4.903   3.066   5.593
 1138TIP3   OH2 3377   1.794   4.595   0.104
 1138TIP3    H1 3378   1.817   4.503   0.114
 1138TIP3    H2 3379   1.847   4.626   0.031
 1139TIP3   OH2 3380   0.926   3.569   3.714
 1139TIP3    H1 3381   0.892   3.498   3.660
 1139TIP3    H2 3382   0.850   3.624   3.732
 1140TIP3   OH2 3383   0.817   0.725   3.872
 1140TIP3    H1 3384   0.831   0.661   3.941
 1140TIP3    H2 3385   0.845   0.681   3.792
 1141TIP3   OH2 3386   1.434   0.584   5.173
 1141TIP3    H1 3387   1.478   0.655   5.220
 1141TIP3    H2 3388   1.346   0.619   5.156
 1142TIP3   OH2 3389   3.917   5.742   4.564
 1142TIP3    H1 3390   3.929   5.671   4.627
 1142TIP3    H2 3391   4.002   5.787   4.561
 1143TIP3   OH2 3392   0.052   1.790   4.539
 1143TIP3    H1 3393   0.003   1.816   4.617
 1143TIP3    H2 3394   0.006   1.713   4.507
 1144TIP3   OH2 3395   3.531   3.881   2.235
 1144TIP3    H1 3396   3.465   3.861   2.301
 1144TIP3    H2 3397   3.576   3.959   2.269
 1145TIP3   OH2 3398   2.074   5.859   5.099
 1145TIP3    H1 3399   2.005   5.809   5.141
 1145TIP3    H2 3400   2.127   5.894   5.171
 1146TIP3   OH2 3401   0.014   4.534   1.291
 1146TIP3    H1 3402   0.072   4.549   1.217
 1146TIP3    H2 3403   0.047   4.593   1.359
 1147TIP3   OH2 3404   6.889   1.717   1.103
 1147TIP3    H1 3405   6.910   1.800   1.146
 1147TIP3    H2 3406   6.903   1.735   1.010
 1148TIP3   OH2 3407   5.607   0.691   3.882
 1148TIP3    H1 3408   5.514   0.682   3.861
 1148TIP3    H2 3409   5.642   0.749   3.814
 1149TIP3   OH2 3410   4.007   6.575   0.970
 1149TIP3    H1 3411   4.046   6.623   1.043
 1149TIP3    H2 3412   3.985   6.489   1.007
 1150TIP3   OH2 3413   3.944   0.941   2.700
 1150TIP3    H1 3414   3.963   0.920   2.609
 1150TIP3    H2 3415   4.029   0.951   2.742
 1151TIP3   OH2 3416   3.280   0.465   0.339
 1151TIP3    H1 3417   3.194   0.444   0.303
 1151TIP3    H2 3418   3.262   0.516   0.418
 1152TIP3   OH2 3419   3.126   5.145   4.471
 1152TIP3    H1 3420   3.140   5.235   4.441
 1152TIP3    H2 3421   3.067   5.153   4.546
 1153TIP3   OH2 3422   6.563   5.635   5.145
 1153TIP3    H1 3423   6.600   5.714   5.183
 1153TIP3    H2 3424   6.506   5.600   5.213
 1154TIP3   OH2 3425   1.977   2.244   4.396
 1154TIP3    H1 3426   2.029   2.208   4.324
 1154TIP3    H2 3427   2.037   2.305   4.439
 1155TIP3   OH2 3428   1.662   0.546   0.682
 1155TIP3    H1 3429   1.678   0.544   0.777
 1155TIP3    H2 3430   1.673   0.456   0.654
 1156TIP3   OH2 3431   2.888   0.506   3.408
 1156TIP3    H1 3432   2.963   0.448   3.414
 1156TIP3    H2 3433   2.873   0.516   3.314
 1157TIP3   OH2 3434   2.027   0.428   2.159
 1157TIP3    H1 3435   1.992   0.517   2.165
 1157TIP3    H2 3436   2.088   0.432   2.085
 1158TIP3   OH2 3437   2.428   4.862   5.691
 1158TIP3    H1 3438   2.414   4.927   5.760
 1158TIP3    H2 3439   2.469   4.788   5.736
 1159TIP3   OH2 3440   1.149   4.856   3.618
 1159TIP3    H1 3441   1.056   4.879   3.627
 1159TIP3    H2 3442   1.148   4.773   3.569
 1160TIP3   OH2 3443   6.451   0.918   5.182
 1160TIP3    H1 3444   6.392   0.874   5.120
 1160TIP3    H2 3445   6.523   0.951   5.128
 1161TIP3   OH2 3446   1.242   4.819   4.860
 1161TIP3    H1 3447   1.177   4.752   4.883
 1161TIP3    H2 3448   1.302   4.775   4.801
 1162TIP3   OH2 3449   3.507   0.728   4.221
 1162TIP3    H1 3450   3.531   0.786   4.149
 1162TIP3    H2 3451   3.464   0.654   4.180
 1163TIP3   OH2 3452   0.622   2.899   0.392
 1163TIP3    H1 3453   0.537   2.894   0.349
 1163TIP3    H2 3454   0.667   2.818   0.365
 1164TIP3   OH2 3455   4.276   6.097   0.263
 1164TIP3    H1 3456   4.261   6.120   0.172
 1164TIP3    H2 3457   4.236   6.011   0.274
 1165TIP3   OH2 3458   2.574   4.689   5.034
 1165TIP3    H1 3459   2.575   4.593   5.038
 1165TIP3    H2 3460   2.664   4.712   5.009
 1166TIP3   OH2 3461   5.298   6.750   0.790
 1166TIP3    H1 3462   5.306   6.827   0.845
 1166TIP3    H2 3463   5.388   6.729   0.765
 1167TIP3   OH2 3464   5.994   4.775   2.335
 1167TIP3    H1 3465   5.967   4.843   2.397
 1167TIP3    H2 3466   6.089   4.783   2.331
 1168TIP3   OH2 3467   0.488   4.236   4.445
 1168TIP3    H1 3468   0.440   4.167   4.492
 1168TIP3    H2 3469   0.426   4.266   4.379
 1169TIP3   OH2 3470   6.274   2.057   5.278
 1169TIP3    H1 3471   6.179   2.056   5.269
 1169TIP3    H2 3472   6.307   2.028   5.193
 1170TIP3   OH2 3473   1.846   5.891   2.110
 1170TIP3    H1 3474   1.857   5.984   2.094
 1170TIP3    H2 3475   1.818   5.855   2.026
 1171TIP3   OH2 3476   1.776   2.756   1.756
 1171TIP3    H1 3477   1.831   2.677   1.761
 1171TIP3    H2 3478   1.747   2.771   1.845
 1172TIP3   OH2 3479   4.438   0.233   3.666
 1172TIP3    H1 3480   4.533   0.227   3.652
 1172TIP3    H2 3481   4.416   0.155   3.716
 1173TIP3   OH2 3482   5.331   5.186   4.971
 1173TIP3    H1 3483   5.417   5.228   4.982
 1173TIP3    H2 3484   5.341   5.133   4.891
 1174TIP3   OH2 3485   6.915   5.414   2.440
 1174TIP3    H1 3486   6.845   5.382   2.383
 1174TIP3    H2 3487   6.919   5.508   2.423
 1175TIP3   OH2 3488   4.974   6.255   4.522
 1175TIP3    H1 3489   4.905   6.292   4.467
 1175TIP3    H2 3490   5.001   6.327   4.579
 1176TIP3   OH2 3491   0.675   6.292   3.831
 1176TIP3    H1 3492   0.606   6.228   3.851
 1176TIP3    H2 3493   0.641   6.375   3.864
 1177TIP3   OH2 3494   1.266   2.754   1.066
 1177TIP3    H1 3495   1.270   2.817   0.994
 1177TIP3    H2 3496   1.173   2.734   1.074
 1178TIP3   OH2 3497   2.695   2.872   0.151
 1178TIP3    H1 3498   2.722   2.804   0.212
 1178TIP3    H2 3499   2.776   2.899   0.107
 1179TIP3   OH2 3500   1.407   2.301   3.329
 1179TIP3    H1 3501   1.343   2.268   3.392
 1179TIP3    H2 3502   1.440   2.223   3.286
 1180TIP3   OH2 3503   6.801   6.704   2.074
 1180TIP3    H1 3504   6.783   6.670   1.987
 1180TIP3    H2 3505   6.869   6.769   2.062
 1181TIP3   OH2 3506   4.256   4.400   4.544
 1181TIP3    H1 3507   4.185   4.446   4.588
 1181TIP3    H2 3508   4.323   4.466   4.529
 1182TIP3   OH2 3509   5.493   0.234   0.585
 1182TIP3    H1 3510   5.492   0.309   0.525
 1182TIP3    H2 3511   5.448   0.164   0.536
 1183TIP3   OH2 3512   1.499   4.289   3.430
 1183TIP3    H1 3513   1.548   4.371   3.420
 1183TIP3    H2 3514   1.564   4.225   3.459
 1184TIP3   OH2 3515   2.987   3.555   4.999
 1184TIP3    H1 3516   2.927   3.558   5.073
 1184TIP3    H2 3517   2.977   3.466   4.963
 1185TIP3   OH2 3518   1.143   0.350   1.961
 1185TIP3    H1 3519   1.222   0.298   1.947
 1185TIP3    H2 3520   1.128   0.396   1.879
 1186TIP3   OH2 3521   0.301   0.887   1.332
 1186TIP3    H1 3522   0.296   0.908   1.426
 1186TIP3    H2 3523   0.225   0.931   1.294
 1187TIP3   OH2 3524   0.617   4.842   5.290
 1187TIP3    H1 3525   0.571   4.916   5.332
 1187TIP3    H2 3526   0.702   4.839   5.334
 1188TIP3   OH2 3527   6.404   6.647   0.567
 1188TIP3    H1 3528   6.425   6.580   0.631
 1188TIP3    H2 3529   6.323   6.615   0.526
 1189TIP3   OH2 3530   1.753   0.378   3.147
 1189TIP3    H1 3531   1.757   0.421   3.062
 1189TIP3    H2 3532   1.807   0.300   3.138
 1190TIP3   OH2 3533   6.521   5.557   4.375
 1190TIP3    H1 3534   6.461   5.553   4.301
 1190TIP3    H2 3535   6.474   5.514   4.446
 1191TIP3   OH2 3536   1.324   2.415   2.932
 1191TIP3    H1 3537   1.230   2.405   2.918
 1191TIP3    H2 3538   1.355   2.326   2.950
 1192TIP3   OH2 3539   4.945   1.106   5.030
 1192TIP3    H1 3540   4.965   1.190   4.989
 1192TIP3    H2 3541   4.960   1.041   4.962
 1193TIP3   OH2 3542   6.987   0.115   1.453
 1193TIP3    H1 3543   6.987   0.043   1.516
 1193TIP3    H2 3544   6.948   0.078   1.374
 1194TIP3   OH2 3545   2.605   6.125   1.170
 1194TIP3    H1 3546   2.603   6.070   1.249
 1194TIP3    H2 3547   2.612   6.214   1.203
 1195TIP3   OH2 3548   5.849   2.382   1.035
 1195TIP3    H1 3549   5.875   2.329   0.959
 1195TIP3    H2 3550   5.875   2.330   1.111
 1196TIP3   OH2 3551   5.659   1.560   0.369
 1196TIP3    H1 3552   5.614   1.499   0.311
 1196TIP3    H2 3553   5.634   1.532   0.457
 1197TIP3   OH2 3554   2.055   1.616   2.044
 1197TIP3    H1 3555   2.109   1.540   2.023
 1197TIP3    H2 3556   1.967   1.592   2.012
 1198TIP3   OH2 3557   0.877   0.861   1.155
 1198TIP3    H1 3558   0.805   0.850   1.216
 1198TIP3    H2 3559   0.848   0.931   1.096
 1199TIP3   OH2 3560   4.361   2.164   1.278
 1199TIP3    H1 3561   4.433   2.200   1.330
 1199TIP3    H2 3562   4.302   2.126   1.343
 1200TIP3   OH2 3563   0.155   2.661   0.307
 1200TIP3    H1 3564   0.240   2.620   0.323
 1200TIP3    H2 3565   0.165   2.703   0.221
 1201TIP3   OH2 3566   2.264   5.401   0.965
 1201TIP3    H1 3567   2.304   5.488   0.962
 1201TIP3    H2 3568   2.227   5.395   1.053
 1202TIP3   OH2 3569   6.060   2.471   1.276
 1202TIP3    H1 3570   6.109   2.538   1.228
 1202TIP3    H2 3571   6.122   2.436   1.339
 1203TIP3   OH2 3572   5.148   1.607   1.651
 1203TIP3    H1 3573   5.064   1.641   1.680
 1203TIP3    H2 3574   5.127   1.545   1.582
 1204TIP3   OH2 3575   1.183   1.459   0.937
 1204TIP3    H1 3576   1.175   1.366   0.956
 1204TIP3    H2 3577   1.241   1.463   0.861
 1205TIP3   OH2 3578   3.700   0.833   0.006
 1205TIP3    H1 3579   3.617   0.786   0.008
 1205TIP3    H2 3580   3.676   0.924  -0.011
 1206TIP3   OH2 3581   1.273   5.940   3.782
 1206TIP3    H1 3582   1.210   5.974   3.846
 1206TIP3    H2 3583   1.237   5.966   3.697
 1207TIP3   OH2 3584   1.190   1.706   3.860
 1207TIP3    H1 3585   1.193   1.757   3.941
 1207TIP3    H2 3586   1.108   1.659   3.864
 1208TIP3   OH2 3587   6.275   1.997   1.637
 1208TIP3    H1 3588   6.251   2.060   1.569
 1208TIP3    H2 3589   6.220   2.020   1.712
 1209TIP3   OH2 3590   3.269   6.023   3.279
 1209TIP3    H1 3591   3.217   6.032   3.359
 1209TIP3    H2 3592   3.359   6.015   3.310
 1210TIP3   OH2 3593   2.962   5.192   2.789
 1210TIP3    H1 3594   2.933   5.146   2.711
 1210TIP3    H2 3595   3.058   5.192   2.783
 1211TIP3   OH2 3596   6.244   4.711   2.122
 1211TIP3    H1 3597   6.238   4.637   2.182
 1211TIP3    H2 3598   6.301   4.774   2.167
 1212TIP3   OH2 3599   6.547   0.486   4.149
 1212TIP3    H1 3600   6.492   0.408   4.156
 1212TIP3    H2 3601   6.596   0.488   4.231
 1213TIP3   OH2 3602   4.948   6.412   3.411
 1213TIP3    H1 3603   4.894   6.490   3.404
 1213TIP3    H2 3604   5.038   6.445   3.403
 1214TIP3   OH2 3605   6.210   0.928   5.323
 1214TIP3    H1 3606   6.290   0.909   5.273
 1214TIP3    H2 3607   6.168   0.842   5.333
 1215TIP3   OH2 3608   4.991   6.334   1.517
 1215TIP3    H1 3609   4.911   6.344   1.569
 1215TIP3    H2 3610   4.965   6.362   1.429
 1216TIP3   OH2 3611   2.124   4.612   0.899
 1216TIP3    H1 3612   2.104   4.613   0.805
 1216TIP3    H2 3613   2.155   4.523   0.916
 1217TIP3   OH2 3614   0.245   6.295   2.410
 1217TIP3    H1 3615   0.163   6.247   2.410
 1217TIP3    H2 3616   0.246   6.342   2.326
 1218TIP3   OH2 3617   1.950   2.083   1.962
 1218TIP3    H1 3618   1.857   2.093   1.946
 1218TIP3    H2 3619   1.955   2.049   2.052
 1219TIP3   OH2 3620   1.685   6.656   0.197
 1219TIP3    H1 3621   1.766   6.706   0.192
 1219TIP3    H2 3622   1.646   6.664   0.110
 1220TIP3   OH2 3623   1.057   1.678   0.682
 1220TIP3    H1 3624   1.137   1.725   0.658
 1220TIP3    H2 3625   1.020   1.729   0.753
 1221TIP3   OH2 3626   5.682   1.820   3.894
 1221TIP3    H1 3627   5.739   1.774   3.833
 1221TIP3    H2 3628   5.649   1.752   3.952
 1222TIP3   OH2 3629   4.139   2.616   1.938
 1222TIP3    H1 3630   4.093   2.630   2.021
 1222TIP3    H2 3631   4.075   2.573   1.881
 1223TIP3   OH2 3632   3.818   1.936   4.871
 1223TIP3    H1 3633   3.744   1.995   4.858
 1223TIP3    H2 3634   3.895   1.989   4.847
 1224TIP3   OH2 3635   2.881   5.840   4.697
 1224TIP3    H1 3636   2.949   5.772   4.701
 1224TIP3    H2 3637   2.884   5.870   4.607
 1225TIP3   OH2 3638   4.996   3.435   1.363
 1225TIP3    H1 3639   5.026   3.354   1.324
 1225TIP3    H2 3640   5.046   3.504   1.319
 1226TIP3   OH2 3641   5.291   1.852   3.634
 1226TIP3    H1 3642   5.385   1.856   3.654
 1226TIP3    H2 3643   5.286   1.804   3.551
 1227TIP3   OH2 3644   0.998   2.357   5.656
 1227TIP3    H1 3645   1.006   2.453   5.654
 1227TIP3    H2 3646   1.088   2.326   5.664
 1228TIP3   OH2 3647   4.989   6.649   4.883
 1228TIP3    H1 3648   5.040   6.671   4.962
 1228TIP3    H2 3649   4.945   6.730   4.860
 1229TIP3   OH2 3650   2.113   6.415   1.111
 1229TIP3    H1 3651   2.111   6.408   1.015
 1229TIP3    H2 3652   2.050   6.485   1.130
 1230TIP3   OH2 3653   5.942   4.444   0.199
 1230TIP3    H1 3654   5.922   4.527   0.243
 1230TIP3    H2 3655   5.857   4.403   0.185
 1231TIP3   OH2 3656   5.483   1.098   3.432
 1231TIP3    H1 3657   5.453   1.136   3.349
 1231TIP3    H2 3658   5.414   1.120   3.495
 1232TIP3   OH2 3659   3.787   0.675   1.741
 1232TIP3    H1 3660   3.879   0.702   1.731
 1232TIP3    H2 3661   3.736   0.751   1.712
 1233TIP3   OH2 3662   3.565   5.675   4.813
 1233TIP3    H1 3663   3.584   5.768   4.798
 1233TIP3    H2 3664   3.633   5.628   4.766
 1234TIP3   OH2 3665   0.089   1.015   5.407
 1234TIP3    H1 3666   0.011   1.070   5.400
 1234TIP3    H2 3667   0.107   0.986   5.318
 1235TIP3   OH2 3668   1.832   1.110   1.617
 1235TIP3    H1 3669   1.736   1.112   1.611
 1235TIP3    H2 3670   1.861   1.173   1.551
 1236TIP3   OH2 3671   6.051   0.243   4.369
 1236TIP3    H1 3672   6.112   0.194   4.425
 1236TIP3    H2 3673   6.091   0.329   4.360
 1237TIP3   OH2 3674   6.210   6.461   5.344
 1237TIP3    H1 3675   6.304   6.445   5.350
 1237TIP3    H2 3676   6.175   6.385   5.298
 1238TIP3   OH2 3677   1.005   1.882   5.173
 1238TIP3    H1 3678   0.934   1.944   5.157
 1238TIP3    H2 3679   1.075   1.910   5.115
 1239TIP3   OH2 3680   2.644   3.464   1.422
 1239TIP3    H1 3681   2.568   3.407   1.426
 1239TIP3    H2 3682   2.607   3.552   1.415
 1240TIP3   OH2 3683   3.706   5.979   1.326
 1240TIP3    H1 3684   3.653   5.906   1.358
 1240TIP3    H2 3685   3.699   6.046   1.395
 1241TIP3   OH2 3686   1.630   2.116   0.444
 1241TIP3    H1 3687   1.667   2.028   0.451
 1241TIP3    H2 3688   1.543   2.102   0.405
 1242TIP3   OH2 3689   7.210   4.286   3.540
 1242TIP3    H1 3690   7.176   4.297   3.451
 1242TIP3    H2 3691   7.233   4.375   3.568
 1243TIP3   OH2 3692   4.848   3.510   2.354
 1243TIP3    H1 3693   4.844   3.554   2.439
 1243TIP3    H2 3694   4.817   3.575   2.291
 1244TIP3   OH2 3695   6.724   1.658   2.366
 1244TIP3    H1 3696   6.761   1.605   2.294
 1244TIP3    H2 3697   6.798   1.707   2.401
 1245TIP3   OH2 3698   4.997   3.118   0.147
 1245TIP3    H1 3699   4.952   3.063   0.084
 1245TIP3    H2 3700   5.051   3.056   0.198
 1246TIP3   OH2 3701   3.698   4.092   0.706
 1246TIP3    H1 3702   3.667   4.175   0.743
 1246TIP3    H2 3703   3.781   4.076   0.751
 1247TIP3   OH2 3704   3.983   5.973   1.502
 1247TIP3    H1 3705   3.912   6.025   1.462
 1247TIP3    H2 3706   4.063   6.016   1.473
 1248TIP3   OH2 3707   2.439   1.998   3.921
 1248TIP3    H1 3708   2.522   2.034   3.951
 1248TIP3    H2 3709   2.390   2.074   3.890
 1249TIP3   OH2 3710   6.144   2.260   1.705
 1249TIP3    H1 3711   6.179   2.329   1.761
 1249TIP3    H2 3712   6.099   2.201   1.765
 1250TIP3   OH2 3713   2.429   1.384   2.317
 1250TIP3    H1 3714   2.510   1.413   2.274
 1250TIP3    H2 3715   2.434   1.422   2.405
 1251TIP3   OH2 3716   3.456   1.135   4.304
 1251TIP3    H1 3717   3.447   1.220   4.262
 1251TIP3    H2 3718   3.491   1.078   4.236
 1252TIP3   OH2 3719   1.754   1.727   4.046
 1252TIP3    H1 3720   1.687   1.701   4.109
 1252TIP3    H2 3721   1.727   1.814   4.017
 1253TIP3   OH2 3722   2.976   1.583   4.970
 1253TIP3    H1 3723   2.890   1.584   5.012
 1253TIP3    H2 3724   2.972   1.509   4.910
 1254TIP3   OH2 3725   1.552   4.203   2.573
 1254TIP3    H1 3726   1.589   4.258   2.504
 1254TIP3    H2 3727   1.565   4.113   2.543
 1255TIP3   OH2 3728   5.359   4.191   1.197
 1255TIP3    H1 3729   5.364   4.205   1.102
 1255TIP3    H2 3730   5.430   4.244   1.233
 1256TIP3   OH2 3731   1.823   3.708   1.189
 1256TIP3    H1 3732   1.819   3.784   1.246
 1256TIP3    H2 3733   1.917   3.687   1.184
 1257TIP3   OH2 3734   5.436   0.068   0.229
 1257TIP3    H1 3735   5.496  -0.002   0.202
 1257TIP3    H2 3736   5.408   0.109   0.147
 1258TIP3   OH2 3737   5.549   5.692   4.047
 1258TIP3    H1 3738   5.619   5.749   4.079
 1258TIP3    H2 3739   5.558   5.612   4.097
 1259TIP3   OH2 3740   6.524   5.096   4.009
 1259TIP3    H1 3741   6.572   5.050   3.940
 1259TIP3    H2 3742   6.588   5.155   4.047
 1260TIP3   OH2 3743   0.979   5.743   2.132
 1260TIP3    H1 3744   1.003   5.826   2.173
 1260TIP3    H2 3745   0.898   5.762   2.084
 1261TIP3   OH2 3746   6.405   1.681   1.947
 1261TIP3    H1 3747   6.446   1.701   2.031
 1261TIP3    H2 3748   6.330   1.626   1.968
 1262TIP3   OH2 3749   3.249   2.142   2.664
 1262TIP3    H1 3750   3.337   2.171   2.638
 1262TIP3    H2 3751   3.262   2.054   2.698
 1263TIP3   OH2 3752   4.570   6.034   0.779
 1263TIP3    H1 3753   4.606   6.008   0.864
 1263TIP3    H2 3754   4.646   6.037   0.720
 1264TIP3   OH2 3755   1.054   4.540   0.225
 1264TIP3    H1 3756   0.970   4.579   0.249
 1264TIP3    H2 3757   1.072   4.478   0.295
 1265TIP3   OH2 3758   6.616   3.166   3.550
 1265TIP3    H1 3759   6.599   3.118   3.631
 1265TIP3    H2 3760   6.710   3.154   3.534
 1266TIP3   OH2 3761   4.035   1.050   1.381
 1266TIP3    H1 3762   3.942   1.072   1.384
 1266TIP3    H2 3763   4.073   1.095   1.457
 1267TIP3   OH2 3764   3.900   0.507   0.786
 1267TIP3    H1 3765   3.823   0.523   0.731
 1267TIP3    H2 3766   3.895   0.575   0.853
 1268TIP3   OH2 3767   6.279   2.935   5.033
 1268TIP3    H1 3768   6.234   2.910   4.952
 1268TIP3    H2 3769   6.369   2.954   5.006
 1269TIP3   OH2 3770   4.229   1.534   3.505
 1269TIP3    H1 3771   4.233   1.513   3.412
 1269TIP3    H2 3772   4.139   1.514   3.530
 1270TIP3   OH2 3773   2.886   5.468   2.752
 1270TIP3    H1 3774   2.930   5.387   2.778
 1270TIP3    H2 3775   2.795   5.456   2.779
 1271TIP3   OH2 3776   3.646   5.157   0.682
 1271TIP3    H1 3777   3.602   5.242   0.681
 1271TIP3    H2 3778   3.605   5.108   0.611
 1272TIP3   OH2 3779   7.033   6.657   4.123
 1272TIP3    H1 3780   7.023   6.566   4.094
 1272TIP3    H2 3781   6.944   6.693   4.122
 1273TIP3   OH2 3782   6.280   2.386   0.521
 1273TIP3    H1 3783   6.330   2.372   0.440
 1273TIP3    H2 3784   6.256   2.297   0.549
 1274TIP3   OH2 3785   0.247   3.317   2.998
 1274TIP3    H1 3786   0.184   3.269   2.944
 1274TIP3    H2 3787   0.194   3.379   3.048
 1275TIP3   OH2 3788   1.262   1.072   5.334
 1275TIP3    H1 3789   1.233   1.056   5.244
 1275TIP3    H2 3790   1.214   1.150   5.361
 1276TIP3   OH2 3791   5.636   0.434   1.268
 1276TIP3    H1 3792   5.648   0.510   1.325
 1276TIP3    H2 3793   5.707   0.374   1.294
 1277TIP3   OH2 3794   5.759   5.892   2.797
 1277TIP3    H1 3795   5.852   5.879   2.816
 1277TIP3    H2 3796   5.754   5.981   2.761
 1278TIP3   OH2 3797   3.607   0.077   5.025
 1278TIP3    H1 3798   3.547   0.136   5.069
 1278TIP3    H2 3799   3.596  -0.007   5.069
 1279TIP3   OH2 3800   1.727   3.055   4.712
 1279TIP3    H1 3801   1.656   3.023   4.768
 1279TIP3    H2 3802   1.748   3.142   4.747
 1280TIP3   OH2 3803   5.530   6.203   3.727
 1280TIP3    H1 3804   5.508   6.139   3.795
 1280TIP3    H2 3805   5.472   6.277   3.745
 1281TIP3   OH2 3806   2.262   4.866   4.593
 1281TIP3    H1 3807   2.215   4.851   4.675
 1281TIP3    H2 3808   2.235   4.953   4.566
 1282TIP3   OH2 3809   5.694   3.107   5.670
 1282TIP3    H1 3810   5.648   3.123   5.587
 1282TIP3    H2 3811   5.655   3.027   5.703
 1283TIP3   OH2 3812   0.510   6.661   5.500
 1283TIP3    H1 3813   0.589   6.618   5.467
 1283TIP3    H2 3814   0.458   6.680   5.422
 1284TIP3   OH2 3815   1.286   3.397   2.148
 1284TIP3    H1 3816   1.205   3.437   2.117
 1284TIP3    H2 3817   1.289   3.312   2.106
 1285TIP3   OH2 3818   5.761   3.448   2.053
 1285TIP3    H1 3819   5.762   3.492   1.968
 1285TIP3    H2 3820   5.767   3.355   2.032
 1286TIP3   OH2 3821   3.647   5.088   2.714
 1286TIP3    H1 3822   3.705   5.151   2.671
 1286TIP3    H2 3823   3.567   5.137   2.732
 1287TIP3   OH2 3824   1.015   6.036   3.894
 1287TIP3    H1 3825   0.990   6.122   3.927
 1287TIP3    H2 3826   1.023   6.048   3.800
 1288TIP3   OH2 3827   2.641   4.373   1.683
 1288TIP3    H1 3828   2.672   4.329   1.603
 1288TIP3    H2 3829   2.717   4.373   1.741
 1289TIP3   OH2 3830   5.108   6.672   1.550
 1289TIP3    H1 3831   5.184   6.649   1.498
 1289TIP3    H2 3832   5.035   6.669   1.488
 1290TIP3   OH2 3833   1.396   1.540   4.400
 1290TIP3    H1 3834   1.318   1.486   4.391
 1290TIP3    H2 3835   1.396   1.568   4.491
 1291TIP3   OH2 3836   4.928   1.484   0.106
 1291TIP3    H1 3837   4.843   1.499   0.146
 1291TIP3    H2 3838   4.979   1.562   0.128
 1292TIP3   OH2 3839   3.403   1.551   0.959
 1292TIP3    H1 3840   3.358   1.619   0.910
 1292TIP3    H2 3841   3.451   1.500   0.893
 1293TIP3   OH2 3842   0.474   6.552   2.182
 1293TIP3    H1 3843   0.501   6.473   2.229
 1293TIP3    H2 3844   0.539   6.618   2.205
 1294TIP3   OH2 3845   5.921   4.928   5.101
 1294TIP3    H1 3846   5.945   5.012   5.062
 1294TIP3    H2 3847   5.937   4.939   5.195
 1295TIP3   OH2 3848   6.941   4.552   5.700
 1295TIP3    H1 3849   6.862   4.509   5.732
 1295TIP3    H2 3850   6.950   4.521   5.610
 1296TIP3   OH2 3851   5.858   6.406   2.666
 1296TIP3    H1 3852   5.831   6.410   2.758
 1296TIP3    H2 3853   5.822   6.486   2.627
 1297TIP3   OH2 3854   4.061   4.789   1.183
 1297TIP3    H1 3855   4.023   4.720   1.237
 1297TIP3    H2 3856   4.131   4.826   1.237
 1298TIP3   OH2 3857   6.643   3.990   5.104
 1298TIP3    H1 3858   6.594   3.908   5.114
 1298TIP3    H2 3859   6.578   4.053   5.073
 1299TIP3   OH2 3860   5.299   4.132   5.449
 1299TIP3    H1 3861   5.321   4.215   5.490
 1299TIP3    H2 3862   5.383   4.092   5.427
 1300TIP3   OH2 3863   4.317   1.834   0.137
 1300TIP3    H1 3864   4.362   1.896   0.081
 1300TIP3    H2 3865   4.252   1.887   0.184
 1301TIP3   OH2 3866   2.329   4.023   3.868
 1301TIP3    H1 3867   2.260   4.076   3.828
 1301TIP3    H2 3868   2.283   3.946   3.903
 1302TIP3   OH2 3869   1.779   1.521   1.719
 1302TIP3    H1 3870   1.782   1.491   1.809
 1302TIP3    H2 3871   1.760   1.615   1.725
 1303TIP3   OH2 3872   5.818   1.288   2.672
 1303TIP3    H1 3873   5.855   1.277   2.760
 1303TIP3    H2 3874   5.759   1.363   2.680
 1304TIP3   OH2 3875   4.713   2.560   4.486
 1304TIP3    H1 3876   4.705   2.596   4.397
 1304TIP3    H2 3877   4.623   2.557   4.518
 1305TIP3   OH2 3878   6.898   3.906   2.923
 1305TIP3    H1 3879   6.913   3.829   2.978
 1305TIP3    H2 3880   6.893   3.979   2.985
 1306TIP3   OH2 3881   1.321   2.506   5.136
 1306TIP3    H1 3882   1.397   2.470   5.090
 1306TIP3    H2 3883   1.286   2.572   5.076
 1307TIP3   OH2 3884   3.722   5.836   2.381
 1307TIP3    H1 3885   3.751   5.885   2.304
 1307TIP3    H2 3886   3.704   5.748   2.348
 1308TIP3   OH2 3887   5.941   2.618   1.560
 1308TIP3    H1 3888   5.875   2.591   1.624
 1308TIP3    H2 3889   6.015   2.559   1.575
 1309TIP3   OH2 3890   2.924   5.368   0.184
 1309TIP3    H1 3891   2.907   5.412   0.101
 1309TIP3    H2 3892   2.958   5.436   0.242
 1310TIP3   OH2 3893   1.454   5.155   3.087
 1310TIP3    H1 3894   1.464   5.086   3.021
 1310TIP3    H2 3895   1.525   5.216   3.068
 1311TIP3   OH2 3896   6.207   5.617   0.529
 1311TIP3    H1 3897   6.274   5.626   0.597
 1311TIP3    H2 3898   6.127   5.596   0.577
 1312TIP3   OH2 3899   0.170   5.953   5.558
 1312TIP3    H1 3900   0.105   6.018   5.587
 1312TIP3    H2 3901   0.250   5.976   5.604
 1313TIP3   OH2 3902   2.774   3.778   5.332
 1313TIP3    H1 3903   2.684   3.800   5.305
 1313TIP3    H2 3904   2.770   3.774   5.427
 1314TIP3   OH2 3905   5.146   3.988   3.203
 1314TIP3    H1 3906   5.087   3.919   3.233
 1314TIP3    H2 3907   5.090   4.062   3.184
 1315TIP3   OH2 3908   7.040   0.461   0.527
 1315TIP3    H1 3909   6.956   0.504   0.541
 1315TIP3    H2 3910   7.085   0.516   0.463
 1316TIP3   OH2 3911   2.331   6.191   4.464
 1316TIP3    H1 3912   2.349   6.212   4.555
 1316TIP3    H2 3913   2.293   6.103   4.465
 1317TIP3   OH2 3914   2.138   5.021   0.591
 1317TIP3    H1 3915   2.131   5.115   0.608
 1317TIP3    H2 3916   2.052   4.987   0.614
 1318TIP3   OH2 3917   0.156   1.508   4.673
 1318TIP3    H1 3918   0.217   1.574   4.639
 1318TIP3    H2 3919   0.189   1.425   4.639
 1319TIP3   OH2 3920   6.731   3.053   1.750
 1319TIP3    H1 3921   6.807   3.112   1.744
 1319TIP3    H2 3922   6.675   3.078   1.678
 1320TIP3   OH2 3923   2.537   1.221   0.308
 1320TIP3    H1 3924   2.616   1.247   0.354
 1320TIP3    H2 3925   2.565   1.152   0.249
 1321TIP3   OH2 3926   3.819   0.208   3.093
 1321TIP3    H1 3927   3.842   0.268   3.164
 1321TIP3    H2 3928   3.853   0.249   3.014
 1322TIP3   OH2 3929   3.979   3.532   2.674
 1322TIP3    H1 3930   4.022   3.447   2.671
 1322TIP3    H2 3931   4.022   3.583   2.606
 1323TIP3   OH2 3932   5.073   4.656   2.234
 1323TIP3    H1 3933   5.012   4.593   2.195
 1323TIP3    H2 3934   5.038   4.742   2.210
 1324TIP3   OH2 3935   2.478   5.412   2.459
 1324TIP3    H1 3936   2.530   5.473   2.510
 1324TIP3    H2 3937   2.422   5.467   2.404
 1325TIP3   OH2 3938   3.115   3.524   5.795
 1325TIP3    H1 3939   3.200   3.503   5.834
 1325TIP3    H2 3940   3.067   3.441   5.796
 1326TIP3   OH2 3941   2.104   5.185   0.950
 1326TIP3    H1 3942   2.022   5.233   0.941
 1326TIP3    H2 3943   2.172   5.253   0.954
 1327TIP3   OH2 3944   0.158   0.606   5.518
 1327TIP3    H1 3945   0.159   0.633   5.426
 1327TIP3    H2 3946   0.066   0.588   5.537
 1328TIP3   OH2 3947   5.585   2.668   3.074
 1328TIP3    H1 3948   5.598   2.574   3.088
 1328TIP3    H2 3949   5.672   2.700   3.050
 1329TIP3   OH2 3950   6.083   1.338   4.132
 1329TIP3    H1 3951   6.164   1.344   4.183
 1329TIP3    H2 3952   6.075   1.246   4.110
 1330TIP3   OH2 3953   6.171   0.520   2.614
 1330TIP3    H1 3954   6.110   0.588   2.644
 1330TIP3    H2 3955   6.195   0.473   2.694
 1331TIP3   OH2 3956   2.971   5.228   5.648
 1331TIP3    H1 3957   2.971   5.150   5.592
 1331TIP3    H2 3958   3.046   5.215   5.706
 1332TIP3   OH2 3959   2.471   5.066   0.732
 1332TIP3    H1 3960   2.483   5.125   0.658
 1332TIP3    H2 3961   2.500   5.116   0.808
 1333TIP3   OH2 3962   0.329   6.776   0.549
 1333TIP3    H1 3963   0.349   6.826   0.470
 1333TIP3    H2 3964   0.410   6.778   0.599
 1334TIP3   OH2 3965   2.719   2.332   3.573
 1334TIP3    H1 3966   2.650   2.278   3.534
 1334TIP3    H2 3967   2.790   2.330   3.509
 1335TIP3   OH2 3968   1.339   1.932   0.350
 1335TIP3    H1 3969   1.337   1.983   0.269
 1335TIP3    H2 3970   1.307   1.992   0.417
 1336TIP3   OH2 3971   2.343   6.313   3.405
 1336TIP3    H1 3972   2.325   6.276   3.319
 1336TIP3    H2 3973   2.295   6.396   3.406
 1337TIP3   OH2 3974   1.121   5.312   2.170
 1337TIP3    H1 3975   1.131   5.395   2.217
 1337TIP3    H2 3976   1.178   5.322   2.093
 1338TIP3   OH2 3977   3.826   4.365   4.790
 1338TIP3    H1 3978   3.822   4.295   4.855
 1338TIP3    H2 3979   3.782   4.329   4.713
 1339TIP3   OH2 3980   2.059   4.316   2.778
 1339TIP3    H1 3981   2.076   4.277   2.863
 1339TIP3    H2 3982   2.074   4.410   2.791
 1340TIP3   OH2 3983   0.755   0.914   3.191
 1340TIP3    H1 3984   0.797   0.833   3.218
 1340TIP3    H2 3985   0.722   0.953   3.272
 1341TIP3   OH2 3986   1.270   3.819   4.348
 1341TIP3    H1 3987   1.348   3.866   4.320
 1341TIP3    H2 3988   1.201   3.885   4.347
 1342TIP3   OH2 3989   3.425   0.291   2.470
 1342TIP3    H1 3990   3.358   0.358   2.471
 1342TIP3    H2 3991   3.454   0.287   2.379
 1343TIP3   OH2 3992   4.898   0.414   0.558
 1343TIP3    H1 3993   4.869   0.328   0.529
 1343TIP3    H2 3994   4.969   0.396   0.619
 1344TIP3   OH2 3995   3.089   0.454   5.750
 1344TIP3    H1 3996   3.070   0.544   5.722
 1344TIP3    H2 3997   3.015   0.403   5.717
 1345TIP3   OH2 3998   0.805   4.390   4.687
 1345TIP3    H1 3999   0.750   4.367   4.762
 1345TIP3    H2 4000   0.893   4.365   4.714
 1346TIP3   OH2 4001   0.681   3.320   5.198
 1346TIP3    H1 4002   0.746   3.325   5.129
 1346TIP3    H2 4003   0.717   3.257   5.261
 1347TIP3   OH2 4004   3.896   5.997   1.128
 1347TIP3    H1 4005   3.970   6.036   1.174
 1347TIP3    H2 4006   3.825   5.999   1.192
 1348TIP3   OH2 4007   2.660   4.672   3.918
 1348TIP3    H1 4008   2.744   4.694   3.959
 1348TIP3    H2 4009   2.615   4.620   3.985
 1349TIP3   OH2 4010   2.124   4.870   2.838
 1349TIP3    H1 4011   2.159   4.939   2.781
 1349TIP3    H2 4012   2.152   4.895   2.926
 1350TIP3   OH2 4013   2.264   2.489   2.009
 1350TIP3    H1 4014   2.182   2.443   1.988
 1350TIP3    H2 4015   2.328   2.419   2.021
 1351TIP3   OH2 4016   2.197   2.168   4.640
 1351TIP3    H1 4017   2.150   2.173   4.557
 1351TIP3    H2 4018   2.262   2.239   4.635
 1352TIP3   OH2 4019   5.704   4.736   5.342
 1352TIP3    H1 4020   5.628   4.762   5.395
 1352TIP3    H2 4021   5.768   4.805   5.356
 1353TIP3   OH2 4022   0.513   6.777   2.788
 1353TIP3    H1 4023   0.472   6.863   2.796
 1353TIP3    H2 4024   0.478   6.727   2.862
 1354TIP3   OH2 4025   6.162   0.648   0.927
 1354TIP3    H1 4026   6.183   0.724   0.981
 1354TIP3    H2 4027   6.070   0.661   0.902
 1355TIP3   OH2 4028   3.581   1.129   2.438
 1355TIP3    H1 4029   3.573   1.066   2.509
 1355TIP3    H2 4030   3.580   1.214   2.481
 1356TIP3   OH2 4031   2.206   5.855   2.022
 1356TIP3    H1 4032   2.165   5.859   2.108
 1356TIP3    H2 4033   2.287   5.905   2.031
 1357TIP3   OH2 4034   0.448   2.294   4.878
 1357TIP3    H1 4035   0.460   2.339   4.962
 1357TIP3    H2 4036   0.477   2.205   4.894
 1358TIP3   OH2 4037   0.772   4.689   3.121
 1358TIP3    H1 4038   0.835   4.742   3.171
 1358TIP3    H2 4039   0.795   4.599   3.143
 1359TIP3   OH2 4040   3.030   1.627   2.173
 1359TIP3    H1 4041   3.050   1.558   2.235
 1359TIP3    H2 4042   3.076   1.704   2.206
 1360TIP3   OH2 4043   2.917   0.288   2.346
 1360TIP3    H1 4044   2.924   0.195   2.323
 1360TIP3    H2 4045   2.951   0.334   2.269
 1361TIP3   OH2 4046   3.830   2.083   3.000
 1361TIP3    H1 4047   3.759   2.124   2.950
 1361TIP3    H2 4048   3.785   2.022   3.059
 1362TIP3   OH2 4049   3.729   3.945   4.203
 1362TIP3    H1 4050   3.675   3.919   4.128
 1362TIP3    H2 4051   3.671   3.936   4.278
 1363TIP3   OH2 4052   6.107   6.728   3.968
 1363TIP3    H1 4053   6.086   6.787   4.041
 1363TIP3    H2 4054   6.116   6.785   3.892
 1364TIP3   OH2 4055   5.320   0.022   1.133
 1364TIP3    H1 4056   5.363   0.100   1.171
 1364TIP3    H2 4057   5.287   0.052   1.049
 1365TIP3   OH2 4058   0.095   1.013   1.243
 1365TIP3    H1 4059   0.122   1.094   1.199
 1365TIP3    H2 4060   0.033   1.042   1.311
 1366TIP3   OH2 4061   4.402   5.640   4.375
 1366TIP3    H1 4062   4.455   5.692   4.315
 1366TIP3    H2 4063   4.386   5.558   4.327
 1367TIP3   OH2 4064   6.847   0.583   2.823
 1367TIP3    H1 4065   6.857   0.488   2.813
 1367TIP3    H2 4066   6.765   0.594   2.869
 1368TIP3   OH2 4067   4.695   1.143   0.051
 1368TIP3    H1 4068   4.614   1.138   0.000
 1368TIP3    H2 4069   4.679   1.084   0.126
 1369TIP3   OH2 4070   2.352   3.985   1.840
 1369TIP3    H1 4071   2.358   3.971   1.934
 1369TIP3    H2 4072   2.360   3.898   1.801
 1370TIP3   OH2 4073   6.475   2.741   2.617
 1370TIP3    H1 4074   6.498   2.762   2.527
 1370TIP3    H2 4075   6.392   2.693   2.610
 1371TIP3   OH2 4076   5.251   3.606   2.294
 1371TIP3    H1 4077   5.214   3.546   2.359
 1371TIP3    H2 4078   5.178   3.628   2.237
 1372TIP3   OH2 4079   3.970   1.502   1.691
 1372TIP3    H1 4080   3.961   1.580   1.637
 1372TIP3    H2 4081   3.890   1.452   1.675
 1373TIP3   OH2 4082   1.994   0.579   5.011
 1373TIP3    H1 4083   2.036   0.619   4.935
 1373TIP3    H2 4084   2.059   0.588   5.082
 1374TIP3   OH2 4085   0.878   6.099   0.048
 1374TIP3    H1 4086   0.938   6.122   0.118
 1374TIP3    H2 4087   0.934   6.063  -0.021
 1375TIP3   OH2 4088   2.702   4.964   2.438
 1375TIP3    H1 4089   2.677   4.954   2.346
 1375TIP3    H2 4090   2.619   4.965   2.485
 1376TIP3   OH2 4091   3.302   1.113   3.271
 1376TIP3    H1 4092   3.387   1.108   3.315
 1376TIP3    H2 4093   3.323   1.101   3.178
 1377TIP3   OH2 4094   2.475   4.516   2.437
 1377TIP3    H1 4095   2.465   4.498   2.344
 1377TIP3    H2 4096   2.496   4.431   2.476
 1378TIP3   OH2 4097   6.967   1.946   1.238
 1378TIP3    H1 4098   6.947   1.978   1.325
 1378TIP3    H2 4099   7.017   2.017   1.197
 1379TIP3   OH2 4100   5.607   6.096   0.272
 1379TIP3    H1 4101   5.676   6.044   0.312
 1379TIP3    H2 4102   5.649   6.180   0.250
 1380TIP3   OH2 4103   7.059   5.194   4.729
 1380TIP3    H1 4104   6.978   5.226   4.769
 1380TIP3    H2 4105   7.122   5.192   4.801
 1381TIP3   OH2 4106   5.698   2.910   3.730
 1381TIP3    H1 4107   5.667   3.000   3.736
 1381TIP3    H2 4108   5.698   2.891   3.636
 1382TIP3   OH2 4109   5.627   2.626   3.520
 1382TIP3    H1 4110   5.694   2.652   3.457
 1382TIP3    H2 4111   5.551   2.603   3.468
 1383TIP3   OH2 4112   3.070   5.768   2.532
 1383TIP3    H1 4113   3.010   5.759   2.457
 1383TIP3    H2 4114   3.012   5.787   2.606
 1384TIP3   OH2 4115   0.122   0.140   0.907
 1384TIP3    H1 4116   0.095   0.058   0.865
 1384TIP3    H2 4117   0.216   0.131   0.920
 1385TIP3   OH2 4118   4.050   6.379   5.770
 1385TIP3    H1 4119   3.971   6.425   5.799
 1385TIP3    H2 4120   4.030   6.287   5.781
 1386TIP3   OH2 4121   2.825   2.370   0.038
 1386TIP3    H1 4122   2.864   2.351  -0.047
 1386TIP3    H2 4123   2.847   2.461   0.056
 1387TIP3   OH2 4124   6.591   1.786   2.888
 1387TIP3    H1 4125   6.530   1.712   2.882
 1387TIP3    H2 4126   6.571   1.839   2.812
 1388TIP3   OH2 4127   3.042   0.044   3.237
 1388TIP3    H1 4128   3.076   0.096   3.164
 1388TIP3    H2 4129   3.025   0.108   3.306
 1389TIP3   OH2 4130   2.780   3.960   0.374
 1389TIP3    H1 4131   2.706   3.996   0.325
 1389TIP3    H2 4132   2.853   3.961   0.312
 1390TIP3   OH2 4133   3.976   5.477   3.544
 1390TIP3    H1 4134   4.059   5.463   3.498
 1390TIP3    H2 4135   3.951   5.390   3.574
 1391TIP3   OH2 4136   3.804   4.787   1.521
 1391TIP3    H1 4137   3.722   4.804   1.567
 1391TIP3    H2 4138   3.786   4.709   1.468
 1392TIP3   OH2 4139   0.540   3.614   0.799
 1392TIP3    H1 4140   0.491   3.624   0.718
 1392TIP3    H2 4141   0.479   3.573   0.860
 1393TIP3   OH2 4142   5.162   0.115   5.745
 1393TIP3    H1 4143   5.160   0.211   5.755
 1393TIP3    H2 4144   5.070   0.089   5.753
 1394TIP3   OH2 4145   5.879   1.387   3.378
 1394TIP3    H1 4146   5.928   1.305   3.385
 1394TIP3    H2 4147   5.796   1.363   3.339
 1395TIP3   OH2 4148   5.849   3.940   3.205
 1395TIP3    H1 4149   5.820   4.030   3.215
 1395TIP3    H2 4150   5.769   3.890   3.189
 1396TIP3   OH2 4151   5.275   6.433   5.674
 1396TIP3    H1 4152   5.296   6.453   5.583
 1396TIP3    H2 4153   5.339   6.482   5.725
 1397TIP3   OH2 4154   5.840   0.470   0.257
 1397TIP3    H1 4155   5.845   0.520   0.176
 1397TIP3    H2 4156   5.863   0.533   0.325
 1398TIP3   OH2 4157   6.657   3.079   2.403
 1398TIP3    H1 4158   6.722   3.009   2.399
 1398TIP3    H2 4159   6.664   3.123   2.318
 1399TIP3   OH2 4160   4.877   3.766   1.322
 1399TIP3    H1 4161   4.847   3.724   1.241
 1399TIP3    H2 4162   4.805   3.751   1.384
 1400TIP3   OH2 4163   4.440   5.718   2.922
 1400TIP3    H1 4164   4.385   5.640   2.915
 1400TIP3    H2 4165   4.471   5.717   3.013
 1401TIP3   OH2 4166   6.510   5.371   3.483
 1401TIP3    H1 4167   6.504   5.386   3.577
 1401TIP3    H2 4168   6.600   5.393   3.461
 1402TIP3   OH2 4169   1.465   5.988   2.293
 1402TIP3    H1 4170   1.492   6.064   2.241
 1402TIP3    H2 4171   1.437   5.924   2.227
 1403TIP3   OH2 4172   3.955   2.455   5.325
 1403TIP3    H1 4173   4.003   2.381   5.363
 1403TIP3    H2 4174   3.976   2.529   5.382
 1404TIP3   OH2 4175   3.281   6.766   4.155
 1404TIP3    H1 4176   3.337   6.824   4.207
 1404TIP3    H2 4177   3.340   6.730   4.088
 1405TIP3   OH2 4178   0.863   5.922   1.517
 1405TIP3    H1 4179   0.841   5.870   1.440
 1405TIP3    H2 4180   0.784   5.921   1.571
 1406TIP3   OH2 4181   4.913   3.464   2.063
 1406TIP3    H1 4182   4.892   3.380   2.021
 1406TIP3    H2 4183   4.906   3.446   2.157
 1407TIP3   OH2 4184   2.404   5.516   5.840
 1407TIP3    H1 4185   2.362   5.602   5.851
 1407TIP3    H2 4186   2.361   5.459   5.903
 1408TIP3   OH2 4187   1.466   5.687   0.689
 1408TIP3    H1 4188   1.412   5.766   0.691
 1408TIP3    H2 4189   1.501   5.680   0.778
 1409TIP3   OH2 4190   1.489   5.352   3.569
 1409TIP3    H1 4191   1.507   5.420   3.503
 1409TIP3    H2 4192   1.509   5.270   3.524
 1410TIP3   OH2 4193   3.985   5.027   3.176
 1410TIP3    H1 4194   4.066   5.032   3.126
 1410TIP3    H2 4195   3.969   5.116   3.205
 1411TIP3   OH2 4196   2.657   1.338   5.012
 1411TIP3    H1 4197   2.604   1.259   5.016
 1411TIP3    H2 4198   2.748   1.306   5.010
 1412TIP3   OH2 4199   0.462   5.738   1.932
 1412TIP3    H1 4200   0.389   5.713   1.989
 1412TIP3    H2 4201   0.533   5.680   1.959
 1413TIP3   OH2 4202   2.427   6.491   4.439
 1413TIP3    H1 4203   2.505   6.475   4.386
 1413TIP3    H2 4204   2.355   6.458   4.386
 1414TIP3   OH2 4205   3.579   1.644   3.493
 1414TIP3    H1 4206   3.618   1.716   3.542
 1414TIP3    H2 4207   3.517   1.687   3.433
 1415TIP3   OH2 4208   6.632   1.461   1.023
 1415TIP3    H1 4209   6.703   1.486   0.963
 1415TIP3    H2 4210   6.672   1.396   1.081
 1416TIP3   OH2 4211   5.437   4.746   2.285
 1416TIP3    H1 4212   5.410   4.660   2.254
 1416TIP3    H2 4213   5.361   4.802   2.270
 1417TIP3   OH2 4214   0.461   2.057   4.457
 1417TIP3    H1 4215   0.426   2.074   4.370
 1417TIP3    H2 4216   0.546   2.016   4.442
 1418TIP3   OH2 4217   2.970   6.492   4.938
 1418TIP3    H1 4218   2.975   6.457   4.849
 1418TIP3    H2 4219   3.025   6.571   4.935
 1419TIP3   OH2 4220   2.374   3.160   2.400
 1419TIP3    H1 4221   2.445   3.101   2.425
 1419TIP3    H2 4222   2.407   3.247   2.422
 1420TIP3   OH2 4223   0.312   0.185   4.002
 1420TIP3    H1 4224   0.250   0.213   3.934
 1420TIP3    H2 4225   0.396   0.222   3.974
 1421TIP3   OH2 4226   5.829   0.315   1.399
 1421TIP3    H1 4227   5.848   0.237   1.452
 1421TIP3    H2 4228   5.911   0.365   1.400
 1422TIP3   OH2 4229   0.159   4.915   3.779
 1422TIP3    H1 4230   0.214   4.845   3.745
 1422TIP3    H2 4231   0.120   4.955   3.701
 1423TIP3   OH2 4232   2.850   1.612   5.805
 1423TIP3    H1 4233   2.757   1.632   5.812
 1423TIP3    H2 4234   2.864   1.597   5.711
 1424TIP3   OH2 4235   3.891   6.246   3.767
 1424TIP3    H1 4236   3.927   6.160   3.748
 1424TIP3    H2 4237   3.828   6.263   3.697
 1425TIP3   OH2 4238   6.806   2.941   3.001
 1425TIP3    H1 4239   6.841   2.854   3.020
 1425TIP3    H2 4240   6.717   2.924   2.969
 1426TIP3   OH2 4241   1.179   6.161   0.889
 1426TIP3    H1 4242   1.265   6.203   0.897
 1426TIP3    H2 4243   1.157   6.170   0.797
 1427TIP3   OH2 4244   5.046   0.091   4.213
 1427TIP3    H1 4245   5.117   0.094   4.149
 1427TIP3    H2 4246   4.971   0.057   4.164
 1428TIP3   OH2 4247   5.290   3.615   3.886
 1428TIP3    H1 4248   5.268   3.533   3.930
 1428TIP3    H2 4249   5.206   3.660   3.875
 1429TIP3   OH2 4250   6.897   6.286   0.532
 1429TIP3    H1 4251   6.912   6.274   0.439
 1429TIP3    H2 4252   6.859   6.203   0.562
 1430TIP3   OH2 4253   0.128   1.349   0.361
 1430TIP3    H1 4254   0.191   1.280   0.384
 1430TIP3    H2 4255   0.090   1.319   0.279
 1431TIP3   OH2 4256   5.594   1.630   1.632
 1431TIP3    H1 4257   5.518   1.685   1.613
 1431TIP3    H2 4258   5.639   1.674   1.704
 1432TIP3   OH2 4259   5.660   3.688   3.368
 1432TIP3    H1 4260   5.688   3.704   3.458
 1432TIP3    H2 4261   5.571   3.722   3.364
 1433TIP3   OH2 4262   7.063   5.160   1.445
 1433TIP3    H1 4263   6.967   5.167   1.443
 1433TIP3    H2 4264   7.080   5.067   1.430
 1434TIP3   OH2 4265   5.159   4.257   2.256
 1434TIP3    H1 4266   5.146   4.341   2.213
 1434TIP3    H2 4267   5.239   4.269   2.307
 1435TIP3   OH2 4268   4.146   0.597   5.242
 1435TIP3    H1 4269   4.224   0.580   5.190
 1435TIP3    H2 4270   4.144   0.692   5.252
 1436TIP3   OH2 4271   0.277   2.056   0.120
 1436TIP3    H1 4272   0.251   2.027   0.208
 1436TIP3    H2 4273   0.282   1.975   0.069
 1437TIP3   OH2 4274   5.209   2.748   3.092
 1437TIP3    H1 4275   5.243   2.837   3.089
 1437TIP3    H2 4276   5.167   2.740   3.178
 1438TIP3   OH2 4277   4.126   6.339   0.514
 1438TIP3    H1 4278   4.051   6.397   0.527
 1438TIP3    H2 4279   4.165   6.367   0.431
 1439TIP3   OH2 4280   5.346   5.641   0.124
 1439TIP3    H1 4281   5.397   5.676   0.198
 1439TIP3    H2 4282   5.412   5.606   0.064
 1440TIP3   OH2 4283   6.590   5.914   4.143
 1440TIP3    H1 4284   6.550   5.911   4.230
 1440TIP3    H2 4285   6.526   5.962   4.089
 1441TIP3   OH2 4286   1.166   6.112   5.713
 1441TIP3    H1 4287   1.198   6.170   5.782
 1441TIP3    H2 4288   1.093   6.160   5.674
 1442TIP3   OH2 4289   0.826   5.005   0.474
 1442TIP3    H1 4290   0.765   4.946   0.430
 1442TIP3    H2 4291   0.792   5.093   0.454
 1443TIP3   OH2 4292   1.178   6.012   2.030
 1443TIP3    H1 4293   1.112   6.018   1.961
 1443TIP3    H2 4294   1.233   6.089   2.018
 1444TIP3   OH2 4295   0.368   0.432   3.837
 1444TIP3    H1 4296   0.356   0.357   3.779
 1444TIP3    H2 4297   0.455   0.421   3.874
 1445TIP3   OH2 4298   0.512   3.007   5.112
 1445TIP3    H1 4299   0.549   3.058   5.040
 1445TIP3    H2 4300   0.417   3.019   5.103
 1446TIP3   OH2 4301   1.089   0.029   1.742
 1446TIP3    H1 4302   1.082   0.122   1.719
 1446TIP3    H2 4303   1.120  -0.014   1.662
 1447TIP3   OH2 4304   2.090   6.513   4.728
 1447TIP3    H1 4305   2.033   6.482   4.658
 1447TIP3    H2 4306   2.178   6.512   4.688
 1448TIP3   OH2 4307   3.720   3.947   5.133
 1448TIP3    H1 4308   3.628   3.972   5.128
 1448TIP3    H2 4309   3.766   4.016   5.085
 1449TIP3   OH2 4310   2.713   2.738   2.741
 1449TIP3    H1 4311   2.738   2.784   2.822
 1449TIP3    H2 4312   2.617   2.732   2.746
 1450TIP3   OH2 4313   1.549   3.897   4.682
 1450TIP3    H1 4314   1.467   3.847   4.683
 1450TIP3    H2 4315   1.615   3.835   4.711
 1451TIP3   OH2 4316   7.114   6.312   3.743
 1451TIP3    H1 4317   7.192   6.341   3.696
 1451TIP3    H2 4318   7.048   6.300   3.675
 1452TIP3   OH2 4319   5.742   6.087   3.221
 1452TIP3    H1 4320   5.717   6.087   3.129
 1452TIP3    H2 4321   5.665   6.056   3.268
 1453TIP3   OH2 4322   5.611   6.395   1.748
 1453TIP3    H1 4323   5.528   6.422   1.709
 1453TIP3    H2 4324   5.651   6.477   1.778
 1454TIP3   OH2 4325   6.510   6.072   3.800
 1454TIP3    H1 4326   6.482   6.156   3.836
 1454TIP3    H2 4327   6.605   6.080   3.792
 1455TIP3   OH2 4328   5.692   3.367   3.038
 1455TIP3    H1 4329   5.668   3.454   3.072
 1455TIP3    H2 4330   5.760   3.385   2.973
 1456TIP3   OH2 4331   0.207   1.525   4.125
 1456TIP3    H1 4332   0.278   1.519   4.060
 1456TIP3    H2 4333   0.141   1.580   4.083
 1457TIP3   OH2 4334   1.660   3.372   2.344
 1457TIP3    H1 4335   1.601   3.323   2.401
 1457TIP3    H2 4336   1.741   3.321   2.343
 1458TIP3   OH2 4337   0.160   3.079   5.756
 1458TIP3    H1 4338   0.192   3.080   5.666
 1458TIP3    H2 4339   0.239   3.086   5.810
 1459TIP3   OH2 4340   5.727   6.638   3.309
 1459TIP3    H1 4341   5.712   6.728   3.339
 1459TIP3    H2 4342   5.752   6.648   3.217
 1460TIP3   OH2 4343   5.716   3.569   1.490
 1460TIP3    H1 4344   5.702   3.501   1.423
 1460TIP3    H2 4345   5.810   3.585   1.487
 1461TIP3   OH2 4346   4.823   3.977   2.218
 1461TIP3    H1 4347   4.862   4.056   2.179
 1461TIP3    H2 4348   4.844   3.984   2.311
 1462TIP3   OH2 4349   4.998   4.183   3.040
 1462TIP3    H1 4350   4.920   4.141   3.076
 1462TIP3    H2 4351   4.972   4.274   3.025
 1463TIP3   OH2 4352   0.051   1.083   3.047
 1463TIP3    H1 4353   0.017   0.995   3.036
 1463TIP3    H2 4354   0.137   1.070   3.088
 1464TIP3   OH2 4355   6.015   3.324   1.767
 1464TIP3    H1 4356   6.013   3.410   1.809
 1464TIP3    H2 4357   5.955   3.332   1.692
 1465TIP3   OH2 4358   2.465   6.577   3.203
 1465TIP3    H1 4359   2.490   6.624   3.124
 1465TIP3    H2 4360   2.390   6.626   3.237
 1466TIP3   OH2 4361   3.380   3.529   2.417
 1466TIP3    H1 4362   3.389   3.560   2.328
 1466TIP3    H2 4363   3.296   3.565   2.447
 1467TIP3   OH2 4364   5.769   6.666   1.544
 1467TIP3    H1 4365   5.775   6.615   1.625
 1467TIP3    H2 4366   5.817   6.614   1.479
 1468TIP3   OH2 4367   5.599   3.894   3.086
 1468TIP3    H1 4368   5.569   3.984   3.096
 1468TIP3    H2 4369   5.568   3.867   3.000
 1469TIP3   OH2 4370   4.757   4.866   3.331
 1469TIP3    H1 4371   4.763   4.791   3.389
 1469TIP3    H2 4372   4.663   4.886   3.327
 1470TIP3   OH2 4373   4.344   0.696   0.845
 1470TIP3    H1 4374   4.266   0.657   0.887
 1470TIP3    H2 4375   4.319   0.706   0.753
 1471TIP3   OH2 4376   1.845   3.312   0.481
 1471TIP3    H1 4377   1.894   3.370   0.540
 1471TIP3    H2 4378   1.814   3.242   0.537
 1472TIP3   OH2 4379   6.726   5.762   5.326
 1472TIP3    H1 4380   6.743   5.694   5.391
 1472TIP3    H2 4381   6.794   5.749   5.259
 1473TIP3   OH2 4382   5.504   4.485   0.464
 1473TIP3    H1 4383   5.487   4.401   0.421
 1473TIP3    H2 4384   5.597   4.482   0.488
 1474TIP3   OH2 4385   1.561   0.760   0.217
 1474TIP3    H1 4386   1.622   0.743   0.289
 1474TIP3    H2 4387   1.483   0.709   0.240
 1475TIP3   OH2 4388   1.672   1.529   5.716
 1475TIP3    H1 4389   1.579   1.550   5.722
 1475TIP3    H2 4390   1.692   1.488   5.800
 1476TIP3   OH2 4391   0.704   1.093   0.694
 1476TIP3    H1 4392   0.717   0.998   0.693
 1476TIP3    H2 4393   0.783   1.129   0.653
 1477TIP3   OH2 4394   3.003   2.013   3.090
 1477TIP3    H1 4395   3.050   2.073   3.033
 1477TIP3    H2 4396   2.923   1.992   3.042
 1478TIP3   OH2 4397   6.453   1.564   2.798
 1478TIP3    H1 4398   6.465   1.470   2.787
 1478TIP3    H2 4399   6.480   1.602   2.714
 1479TIP3   OH2 4400   6.125   0.028   3.024
 1479TIP3    H1 4401   6.212   0.054   2.991
 1479TIP3    H2 4402   6.105   0.093   3.091
 1480TIP3   OH2 4403   1.607   2.789   5.536
 1480TIP3    H1 4404   1.699   2.817   5.540
 1480TIP3    H2 4405   1.600   2.742   5.453
 1481TIP3   OH2 4406   5.575   2.407   0.521
 1481TIP3    H1 4407   5.546   2.328   0.475
 1481TIP3    H2 4408   5.606   2.376   0.606
 1482TIP3   OH2 4409   1.373   5.991   3.041
 1482TIP3    H1 4410   1.383   6.085   3.028
 1482TIP3    H2 4411   1.388   5.979   3.135
 1483TIP3   OH2 4412   5.432   0.854   5.227
 1483TIP3    H1 4413   5.353   0.903   5.205
 1483TIP3    H2 4414   5.400   0.768   5.254
 1484TIP3   OH2 4415   3.799   6.597   3.683
 1484TIP3    H1 4416   3.737   6.670   3.670
 1484TIP3    H2 4417   3.762   6.548   3.756
 1485TIP3   OH2 4418   5.412   4.540   5.025
 1485TIP3    H1 4419   5.411   4.471   5.091
 1485TIP3    H2 4420   5.499   4.580   5.034
 1486TIP3   OH2 4421   6.522   4.092   3.261
 1486TIP3    H1 4422   6.428   4.105   3.250
 1486TIP3    H2 4423   6.558   4.180   3.262
 1487TIP3   OH2 4424   4.575   3.968   5.001
 1487TIP3    H1 4425   4.605   3.878   4.987
 1487TIP3    H2 4426   4.509   3.961   5.070
 1488TIP3   OH2 4427   3.648   6.343   3.234
 1488TIP3    H1 4428   3.587   6.361   3.305
 1488TIP3    H2 4429   3.628   6.408   3.167
 1489TIP3   OH2 4430   4.516   3.218   1.190
 1489TIP3    H1 4431   4.508   3.142   1.247
 1489TIP3    H2 4432   4.542   3.183   1.105
 1490TIP3   OH2 4433   0.289   3.077   2.507
 1490TIP3    H1 4434   0.292   2.987   2.538
 1490TIP3    H2 4435   0.354   3.123   2.561
 1491TIP3   OH2 4436   4.457   3.206   1.882
 1491TIP3    H1 4437   4.499   3.292   1.875
 1491TIP3    H2 4438   4.529   3.143   1.871
 1492TIP3   OH2 4439   2.454   3.437   4.492
 1492TIP3    H1 4440   2.541   3.478   4.493
 1492TIP3    H2 4441   2.425   3.447   4.401
 1493TIP3   OH2 4442   6.744   4.461   0.191
 1493TIP3    H1 4443   6.653   4.432   0.187
 1493TIP3    H2 4444   6.780   4.441   0.105
 1494TIP3   OH2 4445   6.579   5.833   1.590
 1494TIP3    H1 4446   6.487   5.828   1.617
 1494TIP3    H2 4447   6.628   5.801   1.666
 1495TIP3   OH2 4448   5.600   4.962   2.121
 1495TIP3    H1 4449   5.586   4.868   2.115
 1495TIP3    H2 4450   5.577   4.984   2.212
 1496TIP3   OH2 4451   0.781   0.409   4.760
 1496TIP3    H1 4452   0.790   0.402   4.665
 1496TIP3    H2 4453   0.750   0.499   4.774
 1497TIP3   OH2 4454   3.515   6.405   5.563
 1497TIP3    H1 4455   3.428   6.428   5.531
 1497TIP3    H2 4456   3.556   6.359   5.489
 1498TIP3   OH2 4457   7.096   2.605   3.992
 1498TIP3    H1 4458   7.009   2.643   4.004
 1498TIP3    H2 4459   7.122   2.631   3.904
 1499TIP3   OH2 4460   3.181   1.481   2.366
 1499TIP3    H1 4461   3.173   1.388   2.386
 1499TIP3    H2 4462   3.239   1.515   2.435
 1500TIP3   OH2 4463   6.258   1.627   4.903
 1500TIP3    H1 4464   6.306   1.544   4.901
 1500TIP3    H2 4465   6.266   1.662   4.814
 1501TIP3   OH2 4466   6.266   2.472   4.072
 1501TIP3    H1 4467   6.348   2.506   4.036
 1501TIP3    H2 4468   6.266   2.379   4.051
 1502TIP3   OH2 4469   3.731   1.851   1.590
 1502TIP3    H1 4470   3.667   1.886   1.528
 1502TIP3    H2 4471   3.814   1.853   1.542
 1503TIP3   OH2 4472   1.600   3.773   1.999
 1503TIP3    H1 4473   1.613   3.684   2.032
 1503TIP3    H2 4474   1.530   3.765   1.934
 1504TIP3   OH2 4475   0.540   4.112   4.745
 1504TIP3    H1 4476   0.481   4.042   4.717
 1504TIP3    H2 4477   0.623   4.092   4.702
 1505TIP3   OH2 4478   3.185   6.577   3.090
 1505TIP3    H1 4479   3.175   6.483   3.098
 1505TIP3    H2 4480   3.271   6.589   3.050
 1506TIP3   OH2 4481   4.700   0.692   2.606
 1506TIP3    H1 4482   4.707   0.697   2.510
 1506TIP3    H2 4483   4.608   0.671   2.622
 1507TIP3   OH2 4484   4.140   3.054   2.444
 1507TIP3    H1 4485   4.092   3.017   2.518
 1507TIP3    H2 4486   4.218   2.997   2.436
 1508TIP3   OH2 4487   2.421   6.081   0.973
 1508TIP3    H1 4488   2.432   6.176   0.981
 1508TIP3    H2 4489   2.477   6.045   1.041
 1509TIP3   OH2 4490   4.417   0.654   2.555
 1509TIP3    H1 4491   4.420   0.725   2.491
 1509TIP3    H2 4492   4.368   0.585   2.512
 1510TIP3   OH2 4493   3.777   0.420   1.630
 1510TIP3    H1 4494   3.788   0.509   1.664
 1510TIP3    H2 4495   3.816   0.364   1.698
 1511TIP3   OH2 4496   5.419   4.992   2.917
 1511TIP3    H1 4497   5.401   5.009   3.009
 1511TIP3    H2 4498   5.450   4.901   2.915
 1512TIP3   OH2 4499   5.302   3.420   4.613
 1512TIP3    H1 4500   5.246   3.415   4.691
 1512TIP3    H2 4501   5.242   3.410   4.539
 1513TIP3   OH2 4502   5.914   6.034   4.166
 1513TIP3    H1 4503   5.880   6.124   4.161
 1513TIP3    H2 4504   5.909   6.002   4.076
 1514TIP3   OH2 4505   1.060   0.404   4.237
 1514TIP3    H1 4506   0.982   0.360   4.270
 1514TIP3    H2 4507   1.124   0.394   4.307
 1515TIP3   OH2 4508   6.763   1.413   5.359
 1515TIP3    H1 4509   6.804   1.457   5.284
 1515TIP3    H2 4510   6.675   1.391   5.328
 1516TIP3   OH2 4511   4.994   2.516   0.174
 1516TIP3    H1 4512   4.922   2.478   0.225
 1516TIP3    H2 4513   5.024   2.444   0.118
 1517TIP3   OH2 4514   4.776   5.224   5.143
 1517TIP3    H1 4515   4.718   5.262   5.208
 1517TIP3    H2 4516   4.861   5.218   5.187
 1518TIP3   OH2 4517   3.984   6.312   2.456
 1518TIP3    H1 4518   4.009   6.221   2.439
 1518TIP3    H2 4519   4.051   6.364   2.410
 1519TIP3   OH2 4520   2.480   6.314   5.265
 1519TIP3    H1 4521   2.568   6.339   5.294
 1519TIP3    H2 4522   2.423   6.385   5.293
 1520TIP3   OH2 4523   0.809   5.980   3.425
 1520TIP3    H1 4524   0.806   5.940   3.338
 1520TIP3    H2 4525   0.718   5.984   3.453
 1521TIP3   OH2 4526   2.239   1.819   3.590
 1521TIP3    H1 4527   2.152   1.791   3.617
 1521TIP3    H2 4528   2.296   1.794   3.663
 1522TIP3   OH2 4529   6.197   3.824   3.742
 1522TIP3    H1 4530   6.246   3.880   3.681
 1522TIP3    H2 4531   6.135   3.777   3.687
 1523TIP3   OH2 4532   1.944   2.228   3.699
 1523TIP3    H1 4533   2.000   2.160   3.661
 1523TIP3    H2 4534   1.886   2.180   3.759
 1524TIP3   OH2 4535   3.336   2.863   4.203
 1524TIP3    H1 4536   3.280   2.838   4.129
 1524TIP3    H2 4537   3.413   2.903   4.163
 1525TIP3   OH2 4538   5.308   1.596   0.333
 1525TIP3    H1 4539   5.371   1.628   0.398
 1525TIP3    H2 4540   5.342   1.628   0.249
 1526TIP3   OH2 4541   1.887   6.658   5.202
 1526TIP3    H1 4542   1.915   6.745   5.230
 1526TIP3    H2 4543   1.945   6.635   5.130
 1527TIP3   OH2 4544   5.200   0.375   4.987
 1527TIP3    H1 4545   5.142   0.425   4.930
 1527TIP3    H2 4546   5.277   0.356   4.933
 1528TIP3   OH2 4547   0.295   1.901   4.637
 1528TIP3    H1 4548   0.388   1.924   4.631
 1528TIP3    H2 4549   0.256   1.975   4.684
 1529TIP3   OH2 4550   1.341   3.183   2.385
 1529TIP3    H1 4551   1.280   3.133   2.331
 1529TIP3    H2 4552   1.329   3.274   2.356
 1530TIP3   OH2 4553   2.850   4.012   4.415
 1530TIP3    H1 4554   2.928   4.050   4.456
 1530TIP3    H2 4555   2.780   4.025   4.480
 1531TIP3   OH2 4556   1.719   3.207   2.926
 1531TIP3    H1 4557   1.707   3.145   2.998
 1531TIP3    H2 4558   1.732   3.151   2.849
 1532TIP3   OH2 4559   4.183   0.867   1.062
 1532TIP3    H1 4560   4.115   0.931   1.039
 1532TIP3    H2 4561   4.255   0.920   1.096
 1533TIP3   OH2 4562   2.156   2.872   3.219
 1533TIP3    H1 4563   2.132   2.957   3.181
 1533TIP3    H2 4564   2.073   2.824   3.224
 1534TIP3   OH2 4565   1.383   3.784   3.605
 1534TIP3    H1 4566   1.324   3.788   3.680
 1534TIP3    H2 4567   1.468   3.813   3.639
 1535TIP3   OH2 4568   6.857   0.323   2.099
 1535TIP3    H1 4569   6.817   0.388   2.156
 1535TIP3    H2 4570   6.917   0.373   2.044
 1536TIP3   OH2 4571   0.262   1.823   0.775
 1536TIP3    H1 4572   0.258   1.901   0.831
 1536TIP3    H2 4573   0.312   1.759   0.827
 1537TIP3   OH2 4574   6.209   3.636   3.252
 1537TIP3    H1 4575   6.229   3.713   3.305
 1537TIP3    H2 4576   6.136   3.594   3.298
 1538TIP3   OH2 4577   6.367   0.435   3.491
 1538TIP3    H1 4578   6.360   0.530   3.484
 1538TIP3    H2 4579   6.456   0.419   3.522
 1539TIP3   OH2 4580   2.616   4.593   0.585
 1539TIP3    H1 4581   2.608   4.688   0.597
 1539TIP3    H2 4582   2.685   4.583   0.519
 1540TIP3   OH2 4583   7.126   2.585   2.853
 1540TIP3    H1 4584   7.098   2.570   2.763
 1540TIP3    H2 4585   7.201   2.527   2.865
 1541TIP3   OH2 4586   2.842   4.141   3.147
 1541TIP3    H1 4587   2.796   4.113   3.225
 1541TIP3    H2 4588   2.934   4.149   3.174
 1542TIP3   OH2 4589   5.652   1.401   1.824
 1542TIP3    H1 4590   5.654   1.474   1.762
 1542TIP3    H2 4591   5.737   1.359   1.814
 1543TIP3   OH2 4592   6.827   2.856   5.351
 1543TIP3    H1 4593   6.737   2.825   5.347
 1543TIP3    H2 4594   6.823   2.937   5.401
 1544TIP3   OH2 4595   1.101   0.730   1.970
 1544TIP3    H1 4596   1.140   0.661   1.916
 1544TIP3    H2 4597   1.050   0.782   1.908
 1545TIP3   OH2 4598   1.587   6.515   3.718
 1545TIP3    H1 4599   1.652   6.458   3.759
 1545TIP3    H2 4600   1.631   6.549   3.640
 1546TIP3   OH2 4601   4.008   1.970   4.124
 1546TIP3    H1 4602   4.063   1.894   4.109
 1546TIP3    H2 4603   3.960   1.982   4.042
 1547TIP3   OH2 4604   4.994   4.041   5.326
 1547TIP3    H1 4605   5.052   4.061   5.400
 1547TIP3    H2 4606   5.009   4.113   5.264
 1548TIP3   OH2 4607   2.228   6.109   0.529
 1548TIP3    H1 4608   2.253   6.201   0.534
 1548TIP3    H2 4609   2.306   6.061   0.556
 1549TIP3   OH2 4610   5.591   1.032   4.979
 1549TIP3    H1 4611   5.501   1.032   5.012
 1549TIP3    H2 4612   5.644   1.056   5.055
 1550TIP3   OH2 4613   6.683   1.247   1.220
 1550TIP3    H1 4614   6.602   1.208   1.253
 1550TIP3    H2 4615   6.726   1.281   1.298
 1551TIP3   OH2 4616   6.839   5.905   1.411
 1551TIP3    H1 4617   6.884   5.836   1.362
 1551TIP3    H2 4618   6.797   5.858   1.483
 1552TIP3   OH2 4619   3.444   6.027   2.168
 1552TIP3    H1 4620   3.350   6.024   2.151
 1552TIP3    H2 4621   3.480   5.950   2.124
 1553TIP3   OH2 4622   1.497   6.227   2.636
 1553TIP3    H1 4623   1.526   6.259   2.551
 1553TIP3    H2 4624   1.540   6.284   2.700
 1554TIP3   OH2 4625   1.456   6.244   3.002
 1554TIP3    H1 4626   1.540   6.256   2.956
 1554TIP3    H2 4627   1.442   6.327   3.047
 1555TIP3   OH2 4628   5.786   4.321   0.927
 1555TIP3    H1 4629   5.872   4.279   0.930
 1555TIP3    H2 4630   5.800   4.401   0.875
 1556TIP3   OH2 4631   5.053   5.637   0.810
 1556TIP3    H1 4632   5.139   5.668   0.782
 1556TIP3    H2 4633   5.012   5.603   0.731
 1557TIP3   OH2 4634   1.814   6.158   2.406
 1557TIP3    H1 4635   1.747   6.223   2.389
 1557TIP3    H2 4636   1.767   6.083   2.444
 1558TIP3   OH2 4637   2.933   4.201   0.319
 1558TIP3    H1 4638   2.963   4.287   0.287
 1558TIP3    H2 4639   2.985   4.186   0.398
 1559TIP3   OH2 4640   6.747   2.809   4.268
 1559TIP3    H1 4641   6.771   2.868   4.340
 1559TIP3    H2 4642   6.695   2.741   4.309
 1560TIP3   OH2 4643   4.792   4.261   1.129
 1560TIP3    H1 4644   4.880   4.223   1.140
 1560TIP3    H2 4645   4.752   4.206   1.061
 1561TIP3   OH2 4646   5.058   1.608   5.374
 1561TIP3    H1 4647   5.076   1.532   5.428
 1561TIP3    H2 4648   5.105   1.680   5.417
 1562TIP3   OH2 4649   2.321   3.619   2.581
 1562TIP3    H1 4650   2.383   3.553   2.612
 1562TIP3    H2 4651   2.248   3.568   2.545
 1563TIP3   OH2 4652   0.481   5.029   1.211
 1563TIP3    H1 4653   0.563   5.051   1.168
 1563TIP3    H2 4654   0.415   5.082   1.165
 1564TIP3   OH2 4655   4.308   0.849   5.381
 1564TIP3    H1 4656   4.278   0.866   5.291
 1564TIP3    H2 4657   4.284   0.928   5.429
 1565TIP3   OH2 4658   3.461   4.644   4.461
 1565TIP3    H1 4659   3.508   4.571   4.503
 1565TIP3    H2 4660   3.449   4.615   4.371
 1566TIP3   OH2 4661   5.366   5.136   4.078
 1566TIP3    H1 4662   5.358   5.213   4.135
 1566TIP3    H2 4663   5.434   5.159   4.015
 1567TIP3   OH2 4664   2.063   1.662   1.376
 1567TIP3    H1 4665   2.124   1.600   1.417
 1567TIP3    H2 4666   2.025   1.612   1.303
 1568TIP3   OH2 4667   4.419   5.138   5.533
 1568TIP3    H1 4668   4.386   5.053   5.563
 1568TIP3    H2 4669   4.396   5.141   5.440
 1569TIP3   OH2 4670   1.951   0.930   2.674
 1569TIP3    H1 4671   1.905   0.993   2.730
 1569TIP3    H2 4672   1.916   0.946   2.587
 1570TIP3   OH2 4673   4.576   2.064   1.145
 1570TIP3    H1 4674   4.484   2.059   1.120
 1570TIP3    H2 4675   4.582   2.140   1.202
 1571TIP3   OH2 4676   1.824   5.415   2.935
 1571TIP3    H1 4677   1.825   5.471   2.857
 1571TIP3    H2 4678   1.908   5.367   2.931
 1572TIP3   OH2 4679   0.429   1.573   4.555
 1572TIP3    H1 4680   0.460   1.581   4.646
 1572TIP3    H2 4681   0.497   1.617   4.503
 1573TIP3   OH2 4682   6.398   1.666   1.051
 1573TIP3    H1 4683   6.457   1.595   1.076
 1573TIP3    H2 4684   6.313   1.623   1.041
 1574TIP3   OH2 4685   5.140   2.736   3.354
 1574TIP3    H1 4686   5.085   2.745   3.433
 1574TIP3    H2 4687   5.221   2.782   3.375
 1575TIP3   OH2 4688   1.254   3.389   1.005
 1575TIP3    H1 4689   1.210   3.304   1.010
 1575TIP3    H2 4690   1.330   3.379   1.061
 1576TIP3   OH2 4691   7.100   5.026   4.360
 1576TIP3    H1 4692   7.144   4.956   4.408
 1576TIP3    H2 4693   7.026   5.050   4.415
 1577TIP3   OH2 4694   4.478   4.831   3.432
 1577TIP3    H1 4695   4.519   4.803   3.514
 1577TIP3    H2 4696   4.486   4.756   3.373
 1578TIP3   OH2 4697   0.322   5.218   1.652
 1578TIP3    H1 4698   0.304   5.275   1.727
 1578TIP3    H2 4699   0.313   5.130   1.687
 1579TIP3   OH2 4700   4.766   2.474   4.819
 1579TIP3    H1 4701   4.857   2.485   4.790
 1579TIP3    H2 4702   4.742   2.560   4.855
 1580TIP3   OH2 4703   7.123   5.474   1.750
 1580TIP3    H1 4704   7.097   5.398   1.802
 1580TIP3    H2 4705   7.133   5.441   1.661
 1581TIP3   OH2 4706   6.619   0.064   4.669
 1581TIP3    H1 4707   6.631   0.024   4.755
 1581TIP3    H2 4708   6.673   0.011   4.610
 1582TIP3   OH2 4709   2.028   3.136   0.405
 1582TIP3    H1 4710   2.087   3.153   0.331
 1582TIP3    H2 4711   1.966   3.209   0.403
 1583TIP3   OH2 4712   7.184   4.367   2.912
 1583TIP3    H1 4713   7.240   4.346   2.837
 1583TIP3    H2 4714   7.180   4.463   2.912
 1584TIP3   OH2 4715   4.955   6.163   3.485
 1584TIP3    H1 4716   4.945   6.258   3.489
 1584TIP3    H2 4717   5.034   6.149   3.434
 1585TIP3   OH2 4718   0.898   4.951   2.283
 1585TIP3    H1 4719   0.932   4.992   2.362
 1585TIP3    H2 4720   0.963   4.972   2.216
 1586TIP3   OH2 4721   5.763   6.243   3.573
 1586TIP3    H1 4722   5.680   6.240   3.621
 1586TIP3    H2 4723   5.768   6.158   3.529
 1587TIP3   OH2 4724   1.019   3.810   3.604
 1587TIP3    H1 4725   1.002   3.726   3.647
 1587TIP3    H2 4726   1.047   3.785   3.516
 1588TIP3   OH2 4727   5.740   5.808   4.229
 1588TIP3    H1 4728   5.815   5.864   4.208
 1588TIP3    H2 4729   5.674   5.869   4.262
 1589TIP3   OH2 4730   4.577   4.523   5.779
 1589TIP3    H1 4731   4.590   4.616   5.758
 1589TIP3    H2 4732   4.665   4.486   5.780
 1590TIP3   OH2 4733   3.704   6.420   4.476
 1590TIP3    H1 4734   3.752   6.432   4.558
 1590TIP3    H2 4735   3.612   6.420   4.503
 1591TIP3   OH2 4736   4.793   6.108   2.034
 1591TIP3    H1 4737   4.841   6.173   1.982
 1591TIP3    H2 4738   4.760   6.158   2.109
 1592TIP3   OH2 4739   5.627   1.363   1.261
 1592TIP3    H1 4740   5.582   1.376   1.344
 1592TIP3    H2 4741   5.712   1.407   1.272
 1593TIP3   OH2 4742   6.523   1.828   5.525
 1593TIP3    H1 4743   6.586   1.793   5.589
 1593TIP3    H2 4744   6.508   1.918   5.553
 1594TIP3   OH2 4745   5.982   1.907   3.116
 1594TIP3    H1 4746   5.971   1.856   3.036
 1594TIP3    H2 4747   6.077   1.921   3.122
 1595TIP3   OH2 4748   1.146   5.810   2.454
 1595TIP3    H1 4749   1.093   5.850   2.385
 1595TIP3    H2 4750   1.187   5.884   2.500
 1596TIP3   OH2 4751   1.553   3.154   3.600
 1596TIP3    H1 4752   1.509   3.227   3.644
 1596TIP3    H2 4753   1.512   3.076   3.637
 1597TIP3   OH2 4754   6.006   4.853   1.998
 1597TIP3    H1 4755   5.983   4.924   2.058
 1597TIP3    H2 4756   6.093   4.825   2.025
 1598TIP3   OH2 4757   6.586   0.308   0.351
 1598TIP3    H1 4758   6.570   0.259   0.432
 1598TIP3    H2 4759   6.559   0.397   0.372
 1599TIP3   OH2 4760   1.053   4.249   3.152
 1599TIP3    H1 4761   1.085   4.223   3.065
 1599TIP3    H2 4762   1.123   4.303   3.188
 1600TIP3   OH2 4763   5.066   5.069   0.552
 1600TIP3    H1 4764   5.103   5.087   0.465
 1600TIP3    H2 4765   5.009   4.993   0.538
 1601TIP3   OH2 4766   2.100   1.773   4.605
 1601TIP3    H1 4767   2.161   1.812   4.668
 1601TIP3    H2 4768   2.109   1.827   4.526
 1602TIP3   OH2 4769   7.100   3.110   5.466
 1602TIP3    H1 4770   7.150   3.156   5.533
 1602TIP3    H2 4771   7.103   3.168   5.390
 1603TIP3   OH2 4772   7.194   3.181   4.607
 1603TIP3    H1 4773   7.104   3.185   4.640
 1603TIP3    H2 4774   7.185   3.178   4.512
 1604TIP3   OH2 4775   4.417   4.084   4.730
 1604TIP3    H1 4776   4.330   4.054   4.703
 1604TIP3    H2 4777   4.477   4.019   4.693
 1605TIP3   OH2 4778   7.210   5.842   4.606
 1605TIP3    H1 4779   7.227   5.789   4.528
 1605TIP3    H2 4780   7.116   5.860   4.603
 1606TIP3   OH2 4781   3.531   4.187   2.725
 1606TIP3    H1 4782   3.447   4.233   2.729
 1606TIP3    H2 4783   3.522   4.115   2.788
 1607TIP3   OH2 4784   5.057   0.026   0.327
 1607TIP3    H1 4785   5.032   0.118   0.326
 1607TIP3    H2 4786   4.985  -0.018   0.372
 1608TIP3   OH2 4787   4.925   3.552   3.741
 1608TIP3    H1 4788   4.854   3.585   3.687
 1608TIP3    H2 4789   4.936   3.460   3.714
 1609TIP3   OH2 4790   4.569   2.410   1.099
 1609TIP3    H1 4791   4.515   2.343   1.057
 1609TIP3    H2 4792   4.657   2.396   1.064
 1610TIP3   OH2 4793   2.821   2.312   0.616
 1610TIP3    H1 4794   2.759   2.295   0.687
 1610TIP3    H2 4795   2.773   2.290   0.536
 1611TIP3   OH2 4796   2.988   1.725   1.519
 1611TIP3    H1 4797   3.048   1.756   1.452
 1611TIP3    H2 4798   2.904   1.714   1.473
 1612TIP3   OH2 4799   6.088   1.581   5.389
 1612TIP3    H1 4800   6.094   1.632   5.307
 1612TIP3    H2 4801   6.179   1.566   5.414
 1613TIP3   OH2 4802   0.732   1.556   2.650
 1613TIP3    H1 4803   0.701   1.583   2.563
 1613TIP3    H2 4804   0.731   1.460   2.647
 1614TIP3   OH2 4805   4.155   6.752   5.639
 1614TIP3    H1 4806   4.178   6.845   5.645
 1614TIP3    H2 4807   4.088   6.739   5.707
 1615TIP3   OH2 4808   2.269   0.601   2.665
 1615TIP3    H1 4809   2.230   0.685   2.692
 1615TIP3    H2 4810   2.357   0.603   2.704
 1616TIP3   OH2 4811   4.554   6.066   1.176
 1616TIP3    H1 4812   4.474   6.017   1.197
 1616TIP3    H2 4813   4.604   6.007   1.120
 1617TIP3   OH2 4814   3.324   1.755   1.672
 1617TIP3    H1 4815   3.270   1.828   1.701
 1617TIP3    H2 4816   3.283   1.678   1.711
 1618TIP3   OH2 4817   4.770   2.739   4.890
 1618TIP3    H1 4818   4.790   2.811   4.950
 1618TIP3    H2 4819   4.796   2.772   4.804
 1619TIP3   OH2 4820   0.461   5.570   3.556
 1619TIP3    H1 4821   0.377   5.526   3.570
 1619TIP3    H2 4822   0.455   5.650   3.608
 1620TIP3   OH2 4823   3.090   4.164   0.584
 1620TIP3    H1 4824   3.008   4.151   0.631
 1620TIP3    H2 4825   3.108   4.258   0.593
 1621TIP3   OH2 4826   4.780   3.036   1.060
 1621TIP3    H1 4827   4.703   2.989   1.093
 1621TIP3    H2 4828   4.834   2.968   1.020
 1622TIP3   OH2 4829   5.624   3.007   2.550
 1622TIP3    H1 4830   5.569   3.058   2.491
 1622TIP3    H2 4831   5.563   2.950   2.597
 1623TIP3   OH2 4832   4.575   3.637   3.977
 1623TIP3    H1 4833   4.537   3.561   4.021
 1623TIP3    H2 4834   4.507   3.704   3.981
 1624TIP3   OH2 4835   6.038   0.938   3.025
 1624TIP3    H1 4836   6.052   0.846   3.045
 1624TIP3    H2 4837   6.126   0.974   3.015
 1625TIP3   OH2 4838   3.865   2.677   0.034
 1625TIP3    H1 4839   3.958   2.700   0.043
 1625TIP3    H2 4840   3.843   2.635   0.117
 1626TIP3   OH2 4841   6.091   6.658   2.141
 1626TIP3    H1 4842   6.090   6.678   2.048
 1626TIP3    H2 4843   6.041   6.730   2.181
 1627TIP3   OH2 4844   1.508   2.926   1.470
 1627TIP3    H1 4845   1.477   2.837   1.459
 1627TIP3    H2 4846   1.490   2.969   1.386
 1628TIP3   OH2 4847   3.160   5.105   2.142
 1628TIP3    H1 4848   3.159   5.091   2.237
 1628TIP3    H2 4849   3.101   5.178   2.128
 1629TIP3   OH2 4850   6.286   6.471   1.962
 1629TIP3    H1 4851   6.238   6.553   1.978
 1629TIP3    H2 4852   6.322   6.482   1.874
 1630TIP3   OH2 4853   6.366   2.977   5.293
 1630TIP3    H1 4854   6.302   3.032   5.337
 1630TIP3    H2 4855   6.326   2.955   5.209
 1631TIP3   OH2 4856   6.588   4.607   1.405
 1631TIP3    H1 4857   6.674   4.590   1.445
 1631TIP3    H2 4858   6.578   4.702   1.409
 1632TIP3   OH2 4859   6.533   1.453   4.053
 1632TIP3    H1 4860   6.495   1.467   3.966
 1632TIP3    H2 4861   6.598   1.383   4.040
 1633TIP3   OH2 4862   3.256   5.419   2.199
 1633TIP3    H1 4863   3.189   5.389   2.139
 1633TIP3    H2 4864   3.210   5.436   2.281
 1634TIP3   OH2 4865   1.858   1.254   5.651
 1634TIP3    H1 4866   1.770   1.216   5.655
 1634TIP3    H2 4867   1.846   1.345   5.677
 1635TIP3   OH2 4868   5.690   6.502   4.456
 1635TIP3    H1 4869   5.628   6.511   4.528
 1635TIP3    H2 4870   5.722   6.591   4.441
 1636TIP3   OH2 4871   0.866   0.406   2.514
 1636TIP3    H1 4872   0.845   0.334   2.574
 1636TIP3    H2 4873   0.960   0.399   2.499
 1637TIP3   OH2 4874   2.288   4.163   2.663
 1637TIP3    H1 4875   2.300   4.072   2.690
 1637TIP3    H2 4876   2.203   4.188   2.699
 1638TIP3   OH2 4877   4.451   3.875   5.823
 1638TIP3    H1 4878   4.403   3.897   5.902
 1638TIP3    H2 4879   4.493   3.957   5.796
 1639TIP3   OH2 4880   3.460   0.987   5.080
 1639TIP3    H1 4881   3.539   1.041   5.078
 1639TIP3    H2 4882   3.492   0.897   5.085
 1640TIP3   OH2 4883   0.557   6.643   2.551
 1640TIP3    H1 4884   0.562   6.707   2.622
 1640TIP3    H2 4885   0.569   6.559   2.594
 1641TIP3   OH2 4886   6.766   1.058   4.242
 1641TIP3    H1 4887   6.773   0.973   4.198
 1641TIP3    H2 4888   6.745   1.119   4.171
 1642TIP3   OH2 4889   0.747   0.125   4.344
 1642TIP3    H1 4890   0.691   0.124   4.267
 1642TIP3    H2 4891   0.721   0.048   4.394
 1643TIP3   OH2 4892   0.739   1.633   0.439
 1643TIP3    H1 4893   0.746   1.538   0.437
 1643TIP3    H2 4894   0.677   1.655   0.369
 1644TIP3   OH2 4895   4.976   5.998   2.284
 1644TIP3    H1 4896   4.934   5.937   2.223
 1644TIP3    H2 4897   5.064   6.011   2.249
 1645TIP3   OH2 4898   0.118   4.151   1.886
 1645TIP3    H1 4899   0.185   4.083   1.888
 1645TIP3    H2 4900   0.098   4.163   1.794
 1646TIP3   OH2 4901   4.897   2.402   5.108
 1646TIP3    H1 4902   4.846   2.391   5.028
 1646TIP3    H2 4903   4.904   2.497   5.118
 1647TIP3   OH2 4904   3.298   0.986   2.077
 1647TIP3    H1 4905   3.252   0.950   2.153
 1647TIP3    H2 4906   3.346   1.062   2.112
 1648TIP3   OH2 4907   5.031   2.697   3.619
 1648TIP3    H1 4908   5.021   2.606   3.646
 1648TIP3    H2 4909   5.106   2.729   3.669
 1649TIP3   OH2 4910   2.468   4.483   5.531
 1649TIP3    H1 4911   2.406   4.472   5.459
 1649TIP3    H2 4912   2.514   4.399   5.536
 1650TIP3   OH2 4913   6.640   5.178   5.243
 1650TIP3    H1 4914   6.705   5.210   5.181
 1650TIP3    H2 4915   6.651   5.233   5.321
 1651TIP3   OH2 4916   5.963   3.205   5.279
 1651TIP3    H1 4917   5.940   3.201   5.186
 1651TIP3    H2 4918   5.901   3.269   5.316
 1652TIP3   OH2 4919   1.327   6.379   4.864
 1652TIP3    H1 4920   1.416   6.387   4.896
 1652TIP3    H2 4921   1.335   6.374   4.769
 1653TIP3   OH2 4922   2.397   1.447   5.229
 1653TIP3    H1 4923   2.358   1.461   5.142
 1653TIP3    H2 4924   2.419   1.535   5.259
 1654TIP3   OH2 4925   0.081   6.328   5.818
 1654TIP3    H1 4926   0.079   6.270   5.894
 1654TIP3    H2 4927   0.093   6.270   5.743
 1655TIP3   OH2 4928   3.711   5.133   1.542
 1655TIP3    H1 4929   3.663   5.058   1.507
 1655TIP3    H2 4930   3.803   5.109   1.533
 1656TIP3   OH2 4931   1.065   5.404   2.690
 1656TIP3    H1 4932   1.066   5.382   2.597
 1656TIP3    H2 4933   1.156   5.428   2.710
 1657TIP3   OH2 4934   3.245   1.563   4.981
 1657TIP3    H1 4935   3.155   1.594   4.989
 1657TIP3    H2 4936   3.268   1.533   5.068
 1658TIP3   OH2 4937   5.455   3.033   4.406
 1658TIP3    H1 4938   5.376   2.994   4.443
 1658TIP3    H2 4939   5.463   2.993   4.319
 1659TIP3   OH2 4940   4.161   3.606   0.825
 1659TIP3    H1 4941   4.066   3.614   0.822
 1659TIP3    H2 4942   4.193   3.697   0.820
 1660TIP3   OH2 4943   0.706   2.155   2.132
 1660TIP3    H1 4944   0.702   2.066   2.168
 1660TIP3    H2 4945   0.662   2.149   2.048
 1661TIP3   OH2 4946   1.871   1.184   2.820
 1661TIP3    H1 4947   1.782   1.169   2.852
 1661TIP3    H2 4948   1.881   1.279   2.820
 1662TIP3   OH2 4949   0.550   3.342   1.342
 1662TIP3    H1 4950   0.632   3.324   1.296
 1662TIP3    H2 4951   0.529   3.432   1.318
 1663TIP3   OH2 4952   6.338   5.868   2.934
 1663TIP3    H1 4953   6.321   5.847   3.025
 1663TIP3    H2 4954   6.347   5.964   2.933
 1664TIP3   OH2 4955   2.982   4.187   1.735
 1664TIP3    H1 4956   3.022   4.147   1.658
 1664TIP3    H2 4957   3.000   4.281   1.725
 1665TIP3   OH2 4958   5.187   4.599   4.101
 1665TIP3    H1 4959   5.176   4.680   4.150
 1665TIP3    H2 4960   5.279   4.598   4.076
 1666TIP3   OH2 4961   5.880   2.742   1.313
 1666TIP3    H1 4962   5.905   2.680   1.383
 1666TIP3    H2 4963   5.810   2.698   1.266
 1667TIP3   OH2 4964   3.882   1.518   4.905
 1667TIP3    H1 4965   3.932   1.440   4.929
 1667TIP3    H2 4966   3.879   1.516   4.810
 1668TIP3   OH2 4967   5.592   4.308   4.600
 1668TIP3    H1 4968   5.613   4.311   4.507
 1668TIP3    H2 4969   5.659   4.251   4.638
 1669TIP3   OH2 4970   2.405   2.850   3.037
 1669TIP3    H1 4971   2.404   2.768   3.086
 1669TIP3    H2 4972   2.319   2.890   3.054
 1670TIP3   OH2 4973   3.002   2.765   4.245
 1670TIP3    H1 4974   2.924   2.746   4.298
 1670TIP3    H2 4975   3.072   2.779   4.309
 1671TIP3   OH2 4976   6.891   4.530   5.432
 1671TIP3    H1 4977   6.865   4.439   5.445
 1671TIP3    H2 4978   6.883   4.545   5.338
 1672TIP3   OH2 4979   0.604   5.051   0.623
 1672TIP3    H1 4980   0.572   4.965   0.649
 1672TIP3    H2 4981   0.676   5.033   0.563
 1673TIP3   OH2 4982   1.367   5.866   2.796
 1673TIP3    H1 4983   1.437   5.801   2.800
 1673TIP3    H2 4984   1.368   5.906   2.883
 1674TIP3   OH2 4985   0.716   3.064   3.114
 1674TIP3    H1 4986   0.691   3.031   3.201
 1674TIP3    H2 4987   0.707   3.159   3.120
 1675TIP3   OH2 4988   2.834   5.956   4.448
 1675TIP3    H1 4989   2.743   5.983   4.441
 1675TIP3    H2 4990   2.858   5.931   4.358
 1676TIP3   OH2 4991   1.879   4.628   1.721
 1676TIP3    H1 4992   1.811   4.695   1.719
 1676TIP3    H2 4993   1.925   4.643   1.803
 1677TIP3   OH2 4994   4.009   1.105   3.204
 1677TIP3    H1 4995   4.028   1.148   3.287
 1677TIP3    H2 4996   4.055   1.021   3.209
 1678TIP3   OH2 4997   3.172   2.029   4.019
 1678TIP3    H1 4998   3.148   2.030   3.926
 1678TIP3    H2 4999   3.179   1.937   4.041
 1679TIP3   OH2 5000   3.926   0.109   2.413
 1679TIP3    H1 5001   4.005   0.148   2.376
 1679TIP3    H2 5002   3.957   0.056   2.486
 1680TIP3   OH2 5003   1.695   2.747   5.264
 1680TIP3    H1 5004   1.770   2.704   5.223
 1680TIP3    H2 5005   1.630   2.754   5.194
 1681TIP3   OH2 5006   5.457   1.233   1.949
 1681TIP3    H1 5007   5.528   1.293   1.927
 1681TIP3    H2 5008   5.458   1.168   1.879
 1682TIP3   OH2 5009   7.193   0.048   1.157
 1682TIP3    H1 5010   7.202   0.065   1.251
 1682TIP3    H2 5011   7.199  -0.047   1.149
 1683TIP3   OH2 5012   4.022   2.516   5.658
 1683TIP3    H1 5013   4.022   2.436   5.711
 1683TIP3    H2 5014   4.107   2.516   5.614
 1684TIP3   OH2 5015   4.797   6.510   5.059
 1684TIP3    H1 5016   4.820   6.516   5.152
 1684TIP3    H2 5017   4.868   6.557   5.015
 1685TIP3   OH2 5018   2.620   3.034   2.471
 1685TIP3    H1 5019   2.614   2.980   2.392
 1685TIP3    H2 5020   2.672   3.110   2.446
 1686TIP3   OH2 5021   6.236   3.316   2.310
 1686TIP3    H1 5022   6.313   3.282   2.355
 1686TIP3    H2 5023   6.221   3.254   2.238
 1687TIP3   OH2 5024   0.783   4.470   3.494
 1687TIP3    H1 5025   0.790   4.414   3.416
 1687TIP3    H2 5026   0.844   4.541   3.477
 1688TIP3   OH2 5027   5.847   3.601   2.424
 1688TIP3    H1 5028   5.914   3.607   2.355
 1688TIP3    H2 5029   5.885   3.545   2.490
 1689TIP3   OH2 5030   2.252   1.380   3.508
 1689TIP3    H1 5031   2.168   1.397   3.550
 1689TIP3    H2 5032   2.286   1.302   3.551
 1690TIP3   OH2 5033   6.500   1.645   2.528
 1690TIP3    H1 5034   6.474   1.735   2.510
 1690TIP3    H2 5035   6.593   1.641   2.505
 1691TIP3   OH2 5036   6.598   3.614   4.207
 1691TIP3    H1 5037   6.513   3.593   4.245
 1691TIP3    H2 5038   6.656   3.627   4.282
 1692TIP3   OH2 5039   3.738   6.503   3.961
 1692TIP3    H1 5040   3.677   6.433   3.985
 1692TIP3    H2 5041   3.825   6.463   3.968
 1693TIP3   OH2 5042   4.957   0.608   2.619
 1693TIP3    H1 5043   4.861   0.614   2.615
 1693TIP3    H2 5044   4.985   0.612   2.527
 1694TIP3   OH2 5045   0.653   6.484   1.365
 1694TIP3    H1 5046   0.688   6.569   1.392
 1694TIP3    H2 5047   0.615   6.500   1.278
 1695TIP3   OH2 5048   2.798   5.763   2.413
 1695TIP3    H1 5049   2.787   5.834   2.476
 1695TIP3    H2 5050   2.827   5.806   2.333
 1696TIP3   OH2 5051   6.834   2.840   4.673
 1696TIP3    H1 5052   6.795   2.919   4.636
 1696TIP3    H2 5053   6.794   2.833   4.760
 1697TIP3   OH2 5054   1.159   2.655   0.303
 1697TIP3    H1 5055   1.221   2.657   0.229
 1697TIP3    H2 5056   1.183   2.731   0.356
 1698TIP3   OH2 5057   3.169   0.616   4.915
 1698TIP3    H1 5058   3.083   0.624   4.957
 1698TIP3    H2 5059   3.153   0.640   4.824
 1699TIP3   OH2 5060   6.746   0.644   2.142
 1699TIP3    H1 5061   6.795   0.726   2.154
 1699TIP3    H2 5062   6.738   0.608   2.230
 1700TIP3   OH2 5063   4.278   4.568   0.076
 1700TIP3    H1 5064   4.301   4.608   0.160
 1700TIP3    H2 5065   4.361   4.565   0.028
 1701TIP3   OH2 5066   0.899   0.103   5.631
 1701TIP3    H1 5067   0.850   0.184   5.645
 1701TIP3    H2 5068   0.922   0.074   5.720
 1702TIP3   OH2 5069   2.045   1.064   5.545
 1702TIP3    H1 5070   1.976   1.128   5.562
 1702TIP3    H2 5071   1.999   0.981   5.531
 1703TIP3   OH2 5072   5.799   6.805   0.779
 1703TIP3    H1 5073   5.894   6.820   0.778
 1703TIP3    H2 5074   5.784   6.752   0.857
 1704TIP3   OH2 5075   5.217   6.157   3.390
 1704TIP3    H1 5076   5.255   6.244   3.380
 1704TIP3    H2 5077   5.216   6.142   3.485
 1705TIP3   OH2 5078   6.495   6.025   5.140
 1705TIP3    H1 5079   6.413   5.977   5.129
 1705TIP3    H2 5080   6.558   5.977   5.085
 1706TIP3   OH2 5081   6.360   4.656   0.448
 1706TIP3    H1 5082   6.427   4.596   0.416
 1706TIP3    H2 5083   6.409   4.720   0.501
 1707TIP3   OH2 5084   4.883   6.556   5.336
 1707TIP3    H1 5085   4.805   6.571   5.389
 1707TIP3    H2 5086   4.910   6.467   5.359
 1708TIP3   OH2 5087   2.296   2.740   4.372
 1708TIP3    H1 5088   2.242   2.720   4.448
 1708TIP3    H2 5089   2.313   2.834   4.378
 1709TIP3   OH2 5090   4.891   4.140   2.742
 1709TIP3    H1 5091   4.953   4.210   2.721
 1709TIP3    H2 5092   4.943   4.073   2.786
 1710TIP3   OH2 5093   3.700   6.646   5.383
 1710TIP3    H1 5094   3.742   6.560   5.389
 1710TIP3    H2 5095   3.758   6.704   5.433
 1711TIP3   OH2 5096   0.235   1.241   1.660
 1711TIP3    H1 5097   0.262   1.251   1.751
 1711TIP3    H2 5098   0.238   1.330   1.625
 1712TIP3   OH2 5099   4.575   2.904   3.464
 1712TIP3    H1 5100   4.626   2.826   3.486
 1712TIP3    H2 5101   4.620   2.976   3.509
 1713TIP3   OH2 5102   6.341   0.135   0.479
 1713TIP3    H1 5103   6.415   0.114   0.536
 1713TIP3    H2 5104   6.265   0.137   0.538
 1714TIP3   OH2 5105   2.916   3.542   0.526
 1714TIP3    H1 5106   2.939   3.629   0.558
 1714TIP3    H2 5107   2.936   3.483   0.599
 1715TIP3   OH2 5108   4.980   0.486   4.245
 1715TIP3    H1 5109   4.907   0.548   4.243
 1715TIP3    H2 5110   4.962   0.430   4.321
 1716TIP3   OH2 5111   2.364   2.932   2.751
 1716TIP3    H1 5112   2.407   2.908   2.833
 1716TIP3    H2 5113   2.322   2.851   2.720
 1717TIP3   OH2 5114   6.615   2.042   4.333
 1717TIP3    H1 5115   6.558   2.056   4.258
 1717TIP3    H2 5116   6.557   2.049   4.409
 1718TIP3   OH2 5117   3.210   4.924   0.524
 1718TIP3    H1 5118   3.188   4.939   0.616
 1718TIP3    H2 5119   3.306   4.927   0.522
 1719TIP3   OH2 5120   5.858   1.665   2.538
 1719TIP3    H1 5121   5.930   1.707   2.585
 1719TIP3    H2 5122   5.890   1.653   2.449
 1720TIP3   OH2 5123   2.073   0.234   5.529
 1720TIP3    H1 5124   2.140   0.274   5.474
 1720TIP3    H2 5125   2.012   0.305   5.548
 1721TIP3   OH2 5126   1.997   6.103   3.264
 1721TIP3    H1 5127   2.016   6.020   3.307
 1721TIP3    H2 5128   1.908   6.125   3.291
 1722TIP3   OH2 5129   0.018   3.353   5.037
 1722TIP3    H1 5130   0.044   3.316   4.953
 1722TIP3    H2 5131   0.100   3.385   5.076
 1723TIP3   OH2 5132   3.622   4.584   1.406
 1723TIP3    H1 5133   3.668   4.505   1.434
 1723TIP3    H2 5134   3.647   4.595   1.314
 1724TIP3   OH2 5135   0.336   5.889   0.259
 1724TIP3    H1 5136   0.251   5.918   0.291
 1724TIP3    H2 5137   0.400   5.935   0.314
 1725TIP3   OH2 5138   5.895   1.441   1.258
 1725TIP3    H1 5139   5.898   1.453   1.163
 1725TIP3    H2 5140   5.969   1.492   1.291
 1726TIP3   OH2 5141   3.337   0.723   1.631
 1726TIP3    H1 5142   3.420   0.760   1.660
 1726TIP3    H2 5143   3.321   0.764   1.546
 1727TIP3   OH2 5144   1.865   2.434   5.763
 1727TIP3    H1 5145   1.905   2.410   5.846
 1727TIP3    H2 5146   1.789   2.376   5.755
 1728TIP3   OH2 5147   3.604   1.956   3.064
 1728TIP3    H1 5148   3.545   2.004   3.006
 1728TIP3    H2 5149   3.599   1.865   3.035
 1729TIP3   OH2 5150   7.070  -0.024   2.474
 1729TIP3    H1 5151   7.003   0.043   2.475
 1729TIP3    H2 5152   7.122  -0.005   2.396
 1730TIP3   OH2 5153   6.755   0.469   2.375
 1730TIP3    H1 5154   6.800   0.529   2.434
 1730TIP3    H2 5155   6.761   0.384   2.418
 1731TIP3   OH2 5156   4.952   2.275   0.582
 1731TIP3    H1 5157   4.934   2.183   0.560
 1731TIP3    H2 5158   5.033   2.272   0.632
 1732TIP3   OH2 5159   3.326   1.808   0.862
 1732TIP3    H1 5160   3.314   1.847   0.949
 1732TIP3    H2 5161   3.281   1.868   0.802
 1733TIP3   OH2 5162   2.298   6.097   4.963
 1733TIP3    H1 5163   2.387   6.122   4.989
 1733TIP3    H2 5164   2.242   6.137   5.029
 1734TIP3   OH2 5165   2.861   5.591   0.410
 1734TIP3    H1 5166   2.869   5.680   0.444
 1734TIP3    H2 5167   2.951   5.558   0.408
 1735TIP3   OH2 5168   1.448   6.264   0.933
 1735TIP3    H1 5169   1.458   6.224   1.020
 1735TIP3    H2 5170   1.504   6.341   0.936
 1736TIP3   OH2 5171   0.016   0.857   5.649
 1736TIP3    H1 5172  -0.013   0.768   5.630
 1736TIP3    H2 5173   0.080   0.877   5.581
 1737TIP3   OH2 5174   2.973   0.374   5.080
 1737TIP3    H1 5175   2.987   0.432   5.156
 1737TIP3    H2 5176   3.048   0.315   5.082
 1738TIP3   OH2 5177   3.008   5.359   5.360
 1738TIP3    H1 5178   3.022   5.403   5.444
 1738TIP3    H2 5179   2.922   5.318   5.368
 1739TIP3   OH2 5180   3.410   1.816   0.413
 1739TIP3    H1 5181   3.484   1.837   0.470
 1739TIP3    H2 5182   3.336   1.808   0.473
 1740TIP3   OH2 5183   1.799   1.163   4.246
 1740TIP3    H1 5184   1.796   1.259   4.246
 1740TIP3    H2 5185   1.737   1.137   4.178
 1741TIP3   OH2 5186   5.461   0.402   3.257
 1741TIP3    H1 5187   5.391   0.373   3.198
 1741TIP3    H2 5188   5.431   0.376   3.344
 1742TIP3   OH2 5189   2.247   1.230   3.270
 1742TIP3    H1 5190   2.246   1.299   3.336
 1742TIP3    H2 5191   2.333   1.189   3.279
 1743TIP3   OH2 5192   6.985   2.125   2.132
 1743TIP3    H1 5193   6.923   2.129   2.060
 1743TIP3    H2 5194   7.007   2.217   2.150
 1744TIP3   OH2 5195   0.821   6.373   0.356
 1744TIP3    H1 5196   0.863   6.430   0.292
 1744TIP3    H2 5197   0.821   6.423   0.437
 1745TIP3   OH2 5198   4.607   2.794   0.364
 1745TIP3    H1 5199   4.512   2.802   0.372
 1745TIP3    H2 5200   4.637   2.767   0.451
 1746TIP3   OH2 5201   0.407   0.946   5.374
 1746TIP3    H1 5202   0.347   0.997   5.319
 1746TIP3    H2 5203   0.411   0.993   5.457
 1747TIP3   OH2 5204   1.004   2.063   0.673
 1747TIP3    H1 5205   1.018   1.994   0.738
 1747TIP3    H2 5206   0.919   2.100   0.696
 1748TIP3   OH2 5207   4.897   0.641   3.008
 1748TIP3    H1 5208   4.851   0.579   3.064
 1748TIP3    H2 5209   4.990   0.628   3.027
 1749TIP3   OH2 5210   1.179   3.933   1.232
 1749TIP3    H1 5211   1.196   3.878   1.308
 1749TIP3    H2 5212   1.266   3.952   1.196
 1750TIP3   OH2 5213   6.006   1.636   3.353
 1750TIP3    H1 5214   5.945   1.694   3.309
 1750TIP3    H2 5215   5.954   1.560   3.378
 1751TIP3   OH2 5216   0.039   0.091   5.132
 1751TIP3    H1 5217  -0.009   0.167   5.097
 1751TIP3    H2 5218   0.066   0.119   5.220
 1752TIP3   OH2 5219   6.504   5.280   2.419
 1752TIP3    H1 5220   6.516   5.374   2.433
 1752TIP3    H2 5221   6.419   5.260   2.457
 1753TIP3   OH2 5222   2.066   1.183   4.016
 1753TIP3    H1 5223   2.082   1.259   4.072
 1753TIP3    H2 5224   2.146   1.176   3.963
 1754TIP3   OH2 5225   4.547   4.607   4.035
 1754TIP3    H1 5226   4.606   4.553   3.983
 1754TIP3    H2 5227   4.602   4.676   4.071
 1755TIP3   OH2 5228   0.955   1.155   0.588
 1755TIP3    H1 5229   0.992   1.168   0.501
 1755TIP3    H2 5230   0.951   1.242   0.626
 1756TIP3   OH2 5231   4.143   2.139   4.909
 1756TIP3    H1 5232   4.135   2.194   4.987
 1756TIP3    H2 5233   4.199   2.066   4.937
 1757TIP3   OH2 5234   1.032   5.220   1.621
 1757TIP3    H1 5235   0.979   5.245   1.696
 1757TIP3    H2 5236   1.025   5.295   1.561
 1758TIP3   OH2 5237   5.368   1.663   0.078
 1758TIP3    H1 5238   5.452   1.645   0.035
 1758TIP3    H2 5239   5.306   1.603   0.037
 1759TIP3   OH2 5240   1.771   1.030   3.417
 1759TIP3    H1 5241   1.781   1.102   3.479
 1759TIP3    H2 5242   1.857   1.022   3.375
 1760TIP3   OH2 5243   6.436   5.138   3.365
 1760TIP3    H1 5244   6.485   5.140   3.283
 1760TIP3    H2 5245   6.456   5.221   3.407
 1761TIP3   OH2 5246   0.085   4.074   4.912
 1761TIP3    H1 5247   0.046   4.033   4.989
 1761TIP3    H2 5248   0.013   4.078   4.849
 1762TIP3   OH2 5249   4.106   0.440   1.782
 1762TIP3    H1 5250   4.054   0.398   1.713
 1762TIP3    H2 5251   4.081   0.394   1.862
 1763TIP3   OH2 5252   0.081   4.840   0.544
 1763TIP3    H1 5253  -0.002   4.811   0.583
 1763TIP3    H2 5254   0.066   4.933   0.523
 1764TIP3   OH2 5255   0.721   3.633   3.943
 1764TIP3    H1 5256   0.677   3.694   3.885
 1764TIP3    H2 5257   0.713   3.672   4.030
 1765TIP3   OH2 5258   5.582   0.912   4.111
 1765TIP3    H1 5259   5.596   0.930   4.204
 1765TIP3    H2 5260   5.566   0.818   4.107
 1766TIP3   OH2 5261   0.164   4.370   5.163
 1766TIP3    H1 5262   0.246   4.387   5.116
 1766TIP3    H2 5263   0.188   4.370   5.255
 1767TIP3   OH2 5264   3.153   3.515   3.848
 1767TIP3    H1 5265   3.165   3.498   3.941
 1767TIP3    H2 5266   3.141   3.609   3.842
 1768TIP3   OH2 5267   0.749   4.513   5.883
 1768TIP3    H1 5268   0.670   4.489   5.933
 1768TIP3    H2 5269   0.715   4.550   5.801
 1769TIP3   OH2 5270   6.350   4.493   5.645
 1769TIP3    H1 5271   6.397   4.411   5.628
 1769TIP3    H2 5272   6.333   4.530   5.559
 1770TIP3   OH2 5273   6.063   2.033   0.483
 1770TIP3    H1 5274   6.059   2.098   0.553
 1770TIP3    H2 5275   6.078   1.950   0.528
 1771TIP3   OH2 5276   0.746   2.369   1.253
 1771TIP3    H1 5277   0.697   2.288   1.270
 1771TIP3    H2 5278   0.748   2.414   1.338
 1772TIP3   OH2 5279   0.934   5.105   4.934
 1772TIP3    H1 5280   1.008   5.073   4.883
 1772TIP3    H2 5281   0.887   5.162   4.873
 1773TIP3   OH2 5282   5.554   1.872   3.645
 1773TIP3    H1 5283   5.618   1.857   3.576
 1773TIP3    H2 5284   5.602   1.855   3.726
 1774TIP3   OH2 5285   1.246   0.056   4.804
 1774TIP3    H1 5286   1.270  -0.036   4.788
 1774TIP3    H2 5287   1.277   0.073   4.893
 1775TIP3   OH2 5288   1.722   2.538   4.482
 1775TIP3    H1 5289   1.807   2.583   4.478
 1775TIP3    H2 5290   1.669   2.582   4.415
 1776TIP3   OH2 5291   0.017   1.684   1.509
 1776TIP3    H1 5292  -0.075   1.710   1.521
 1776TIP3    H2 5293   0.060   1.708   1.591
 1777TIP3   OH2 5294   2.547   1.103   5.075
 1777TIP3    H1 5295   2.599   1.046   5.132
 1777TIP3    H2 5296   2.492   1.042   5.025
 1778TIP3   OH2 5297   3.995   1.676   4.565
 1778TIP3    H1 5298   4.070   1.700   4.619
 1778TIP3    H2 5299   4.033   1.642   4.484
 1779TIP3   OH2 5300   3.392   3.843   2.499
 1779TIP3    H1 5301   3.336   3.912   2.535
 1779TIP3    H2 5302   3.478   3.860   2.536
 1780TIP3   OH2 5303   3.293   0.051   4.193
 1780TIP3    H1 5304   3.232  -0.023   4.200
 1780TIP3    H2 5305   3.331   0.041   4.105
 1781TIP3   OH2 5306   4.235   2.821   4.175
 1781TIP3    H1 5307   4.234   2.732   4.140
 1781TIP3    H2 5308   4.197   2.813   4.263
 1782TIP3   OH2 5309   1.681   5.951   0.903
 1782TIP3    H1 5310   1.712   5.861   0.905
 1782TIP3    H2 5311   1.621   5.955   0.828
 1783TIP3   OH2 5312   4.429   0.044   2.402
 1783TIP3    H1 5313   4.521   0.051   2.377
 1783TIP3    H2 5314   4.405  -0.046   2.379
 1784TIP3   OH2 5315   6.846   5.689   2.447
 1784TIP3    H1 5316   6.881   5.687   2.536
 1784TIP3    H2 5317   6.905   5.748   2.400
 1785TIP3   OH2 5318   4.188   5.896   3.005
 1785TIP3    H1 5319   4.194   5.911   3.100
 1785TIP3    H2 5320   4.260   5.836   2.986
 1786TIP3   OH2 5321   2.012   3.563   5.107
 1786TIP3    H1 5322   1.960   3.557   5.187
 1786TIP3    H2 5323   1.949   3.547   5.036
 1787TIP3   OH2 5324   5.996   4.333   4.363
 1787TIP3    H1 5325   6.017   4.386   4.286
 1787TIP3    H2 5326   5.901   4.335   4.368
 1788TIP3   OH2 5327   3.521   1.009   2.737
 1788TIP3    H1 5328   3.444   0.956   2.757
 1788TIP3    H2 5329   3.496   1.098   2.764
 1789TIP3   OH2 5330   2.508   2.326   5.551
 1789TIP3    H1 5331   2.535   2.244   5.592
 1789TIP3    H2 5332   2.439   2.301   5.489
 1790TIP3   OH2 5333   3.972   4.450   3.970
 1790TIP3    H1 5334   3.964   4.457   4.065
 1790TIP3    H2 5335   3.965   4.356   3.952
 1791TIP3   OH2 5336   4.971   6.401   3.833
 1791TIP3    H1 5337   4.974   6.491   3.801
 1791TIP3    H2 5338   5.032   6.400   3.907
 1792TIP3   OH2 5339   4.573   6.662   3.660
 1792TIP3    H1 5340   4.539   6.737   3.611
 1792TIP3    H2 5341   4.544   6.586   3.610
 1793TIP3   OH2 5342   2.740   0.111   0.163
 1793TIP3    H1 5343   2.674   0.083   0.099
 1793TIP3    H2 5344   2.699   0.185   0.208
 1794TIP3   OH2 5345   5.118   3.433   4.386
 1794TIP3    H1 5346   5.022   3.425   4.389
 1794TIP3    H2 5347   5.134   3.527   4.390
 1795TIP3   OH2 5348   7.009   0.036   3.911
 1795TIP3    H1 5349   6.926  -0.006   3.891
 1795TIP3    H2 5350   7.055   0.040   3.827
 1796TIP3   OH2 5351   5.199   0.130   3.994
 1796TIP3    H1 5352   5.290   0.156   3.979
 1796TIP3    H2 5353   5.184   0.058   3.933
 1797TIP3   OH2 5354   3.332   3.755   5.833
 1797TIP3    H1 5355   3.236   3.754   5.834
 1797TIP3    H2 5356   3.356   3.775   5.924
 1798TIP3   OH2 5357   6.530   6.147   5.698
 1798TIP3    H1 5358   6.550   6.061   5.660
 1798TIP3    H2 5359   6.527   6.131   5.792
 1799TIP3   OH2 5360   5.744   0.282   4.012
 1799TIP3    H1 5361   5.817   0.224   4.033
 1799TIP3    H2 5362   5.732   0.272   3.917
 1800TIP3   OH2 5363   5.597   1.709   2.614
 1800TIP3    H1 5364   5.566   1.622   2.640
 1800TIP3    H2 5365   5.689   1.695   2.591
 1801TIP3   OH2 5366   5.299   2.369   2.904
 1801TIP3    H1 5367   5.210   2.349   2.875
 1801TIP3    H2 5368   5.339   2.284   2.919
 1802TIP3   OH2 5369   1.425   1.711   4.941
 1802TIP3    H1 5370   1.364   1.768   4.988
 1802TIP3    H2 5371   1.503   1.765   4.928
 1803TIP3   OH2 5372   0.363   2.291   1.947
 1803TIP3    H1 5373   0.300   2.354   1.912
 1803TIP3    H2 5374   0.318   2.248   2.019
 1804TIP3   OH2 5375   1.123   6.701   2.466
 1804TIP3    H1 5376   1.063   6.666   2.401
 1804TIP3    H2 5377   1.108   6.646   2.544
 1805TIP3   OH2 5378   3.955   3.602   2.384
 1805TIP3    H1 5379   3.963   3.635   2.295
 1805TIP3    H2 5380   3.885   3.537   2.379
 1806TIP3   OH2 5381   5.875   6.011   3.903
 1806TIP3    H1 5382   5.789   5.974   3.884
 1806TIP3    H2 5383   5.925   5.998   3.823
 1807TIP3   OH2 5384   3.440   1.371   4.128
 1807TIP3    H1 5385   3.442   1.362   4.033
 1807TIP3    H2 5386   3.347   1.378   4.150
 1808TIP3   OH2 5387   7.111   4.683   2.497
 1808TIP3    H1 5388   7.119   4.711   2.406
 1808TIP3    H2 5389   7.077   4.593   2.491
 1809TIP3   OH2 5390   7.056   5.203   0.413
 1809TIP3    H1 5391   7.027   5.197   0.322
 1809TIP3    H2 5392   7.143   5.242   0.408
 1810TIP3   OH2 5393   0.899   1.098   4.357
 1810TIP3    H1 5394   0.945   1.027   4.401
 1810TIP3    H2 5395   0.826   1.055   4.312
 1811TIP3   OH2 5396   0.638   4.991   4.709
 1811TIP3    H1 5397   0.667   5.080   4.728
 1811TIP3    H2 5398   0.678   4.969   4.626
 1812TIP3   OH2 5399   3.427   3.821   0.106
 1812TIP3    H1 5400   3.480   3.763   0.161
 1812TIP3    H2 5401   3.363   3.763   0.065
 1813TIP3   OH2 5402   1.502   5.607   4.628
 1813TIP3    H1 5403   1.415   5.635   4.600
 1813TIP3    H2 5404   1.550   5.595   4.547
 1814TIP3   OH2 5405   0.738   4.603   2.669
 1814TIP3    H1 5406   0.673   4.625   2.736
 1814TIP3    H2 5407   0.816   4.652   2.694
 1815TIP3   OH2 5408   0.425   5.455   2.156
 1815TIP3    H1 5409   0.469   5.500   2.228
 1815TIP3    H2 5410   0.362   5.520   2.123
 1816TIP3   OH2 5411   0.853   3.940   2.689
 1816TIP3    H1 5412   0.917   3.875   2.720
 1816TIP3    H2 5413   0.799   3.959   2.766
 1817TIP3   OH2 5414   4.525   6.338   4.834
 1817TIP3    H1 5415   4.570   6.371   4.756
 1817TIP3    H2 5416   4.496   6.250   4.810
 1818TIP3   OH2 5417   6.714   6.634   1.733
 1818TIP3    H1 5418   6.697   6.727   1.717
 1818TIP3    H2 5419   6.808   6.624   1.718
 1819TIP3   OH2 5420   6.433   3.286   4.055
 1819TIP3    H1 5421   6.373   3.236   4.111
 1819TIP3    H2 5422   6.519   3.273   4.096
 1820TIP3   OH2 5423   6.377   4.212   2.127
 1820TIP3    H1 5424   6.312   4.282   2.124
 1820TIP3    H2 5425   6.354   4.160   2.204
 1821TIP3   OH2 5426   6.479   5.607   2.570
 1821TIP3    H1 5427   6.443   5.688   2.609
 1821TIP3    H2 5428   6.462   5.540   2.637
 1822TIP3   OH2 5429   6.090   1.824   3.578
 1822TIP3    H1 5430   6.086   1.743   3.526
 1822TIP3    H2 5431   6.001   1.837   3.609
 1823TIP3   OH2 5432   3.729   6.110   1.576
 1823TIP3    H1 5433   3.708   6.030   1.625
 1823TIP3    H2 5434   3.700   6.181   1.633
 1824TIP3   OH2 5435   3.248   3.947   2.704
 1824TIP3    H1 5436   3.167   3.977   2.663
 1824TIP3    H2 5437   3.225   3.932   2.796
 1825TIP3   OH2 5438   4.705   6.757   2.971
 1825TIP3    H1 5439   4.701   6.852   2.962
 1825TIP3    H2 5440   4.746   6.726   2.890
 1826TIP3   OH2 5441   3.661   1.938  -0.031
 1826TIP3    H1 5442   3.612   1.935   0.051
 1826TIP3    H2 5443   3.751   1.955  -0.005
 1827TIP3   OH2 5444   5.453   4.185   0.487
 1827TIP3    H1 5445   5.385   4.186   0.554
 1827TIP3    H2 5446   5.428   4.114   0.427
 1828TIP3   OH2 5447   5.322   2.422   1.442
 1828TIP3    H1 5448   5.401   2.378   1.472
 1828TIP3    H2 5449   5.332   2.512   1.473
 1829TIP3   OH2 5450   6.415   2.523   4.867
 1829TIP3    H1 5451   6.475   2.452   4.890
 1829TIP3    H2 5452   6.346   2.519   4.934
 1830TIP3   OH2 5453   4.436   6.187   2.115
 1830TIP3    H1 5454   4.492   6.249   2.069
 1830TIP3    H2 5455   4.349   6.228   2.114
 1831TIP3   OH2 5456   2.906   5.167   4.203
 1831TIP3    H1 5457   2.811   5.180   4.207
 1831TIP3    H2 5458   2.924   5.108   4.277
 1832TIP3   OH2 5459   2.494   5.707   2.501
 1832TIP3    H1 5460   2.420   5.685   2.444
 1832TIP3    H2 5461   2.556   5.753   2.444
 1833TIP3   OH2 5462   1.412   2.153   1.520
 1833TIP3    H1 5463   1.426   2.236   1.475
 1833TIP3    H2 5464   1.318   2.149   1.535
 1834TIP3   OH2 5465   4.768   4.993   1.423
 1834TIP3    H1 5466   4.770   4.920   1.484
 1834TIP3    H2 5467   4.686   4.982   1.375
 1835TIP3   OH2 5468   1.806   2.956   4.478
 1835TIP3    H1 5469   1.719   2.932   4.445
 1835TIP3    H2 5470   1.789   3.006   4.558
 1836TIP3   OH2 5471   3.628   4.756   5.625
 1836TIP3    H1 5472   3.553   4.729   5.572
 1836TIP3    H2 5473   3.676   4.675   5.640
 1837TIP3   OH2 5474   3.214   5.338   0.121
 1837TIP3    H1 5475   3.288   5.319   0.178
 1837TIP3    H2 5476   3.142   5.285   0.156
 1838TIP3   OH2 5477   5.962   3.518   0.554
 1838TIP3    H1 5478   5.976   3.461   0.630
 1838TIP3    H2 5479   6.035   3.580   0.557
 1839TIP3   OH2 5480   4.573   0.201   0.359
 1839TIP3    H1 5481   4.530   0.165   0.437
 1839TIP3    H2 5482   4.575   0.295   0.374
 1840TIP3   OH2 5483   1.714   6.682   4.096
 1840TIP3    H1 5484   1.637   6.627   4.110
 1840TIP3    H2 5485   1.735   6.717   4.183
 1841TIP3   OH2 5486   4.615   1.361   0.833
 1841TIP3    H1 5487   4.629   1.281   0.782
 1841TIP3    H2 5488   4.680   1.423   0.799
 1842TIP3   OH2 5489   4.800   4.494   4.292
 1842TIP3    H1 5490   4.837   4.408   4.311
 1842TIP3    H2 5491   4.706   4.478   4.282
 1843TIP3   OH2 5492   3.823   6.375   2.656
 1843TIP3    H1 5493   3.864   6.349   2.573
 1843TIP3    H2 5494   3.821   6.294   2.708
 1844TIP3   OH2 5495   3.988   0.884   0.770
 1844TIP3    H1 5496   3.991   0.979   0.776
 1844TIP3    H2 5497   4.010   0.864   0.680
 1845TIP3   OH2 5498   0.487   2.827   0.661
 1845TIP3    H1 5499   0.397   2.849   0.685
 1845TIP3    H2 5500   0.479   2.745   0.612
 1846TIP3   OH2 5501   4.313   2.359   0.777
 1846TIP3    H1 5502   4.330   2.445   0.814
 1846TIP3    H2 5503   4.283   2.307   0.852
 1847TIP3   OH2 5504   2.633   5.712   4.697
 1847TIP3    H1 5505   2.627   5.804   4.723
 1847TIP3    H2 5506   2.724   5.701   4.669
 1848TIP3   OH2 5507   2.885   0.741   1.839
 1848TIP3    H1 5508   2.829   0.817   1.856
 1848TIP3    H2 5509   2.910   0.751   1.747
 1849TIP3   OH2 5510   4.757   4.558   0.105
 1849TIP3    H1 5511   4.806   4.493   0.055
 1849TIP3    H2 5512   4.710   4.507   0.171
 1850TIP3   OH2 5513   0.694   5.923   2.275
 1850TIP3    H1 5514   0.692   6.011   2.239
 1850TIP3    H2 5515   0.673   5.866   2.202
 1851TIP3   OH2 5516   0.711   4.237   1.952
 1851TIP3    H1 5517   0.671   4.150   1.945
 1851TIP3    H2 5518   0.717   4.267   1.861
 1852TIP3   OH2 5519   3.811   0.950   4.233
 1852TIP3    H1 5520   3.799   0.860   4.202
 1852TIP3    H2 5521   3.761   0.955   4.314
 1853TIP3   OH2 5522   2.417   4.451   4.464
 1853TIP3    H1 5523   2.464   4.392   4.405
 1853TIP3    H2 5524   2.471   4.455   4.542
 1854TIP3   OH2 5525   2.341   0.206   5.784
 1854TIP3    H1 5526   2.271   0.193   5.720
 1854TIP3    H2 5527   2.403   0.265   5.741
 1855TIP3   OH2 5528   2.322   3.413   4.782
 1855TIP3    H1 5529   2.325   3.365   4.699
 1855TIP3    H2 5530   2.413   3.428   4.804
 1856TIP3   OH2 5531   0.953   1.055   2.271
 1856TIP3    H1 5532   0.919   1.091   2.189
 1856TIP3    H2 5533   0.898   1.093   2.339
 1857TIP3   OH2 5534   2.024   0.086   4.952
 1857TIP3    H1 5535   2.110   0.102   4.914
 1857TIP3    H2 5536   1.985   0.173   4.959
 1858TIP3   OH2 5537   1.313   5.201   4.049
 1858TIP3    H1 5538   1.254   5.265   4.089
 1858TIP3    H2 5539   1.319   5.229   3.957
 1859TIP3   OH2 5540   5.502   4.887   0.888
 1859TIP3    H1 5541   5.484   4.793   0.884
 1859TIP3    H2 5542   5.428   4.928   0.843
 1860TIP3   OH2 5543   5.111   1.612   3.582
 1860TIP3    H1 5544   5.181   1.624   3.518
 1860TIP3    H2 5545   5.051   1.685   3.566
 1861TIP3   OH2 5546   1.157   3.672   1.382
 1861TIP3    H1 5547   1.155   3.578   1.400
 1861TIP3    H2 5548   1.246   3.699   1.403
 1862TIP3   OH2 5549   0.958   4.120   0.567
 1862TIP3    H1 5550   0.894   4.172   0.615
 1862TIP3    H2 5551   0.956   4.034   0.609
 1863TIP3   OH2 5552   0.981   5.528   3.206
 1863TIP3    H1 5553   1.027   5.612   3.198
 1863TIP3    H2 5554   1.012   5.492   3.289
 1864TIP3   OH2 5555   0.628   4.060   4.239
 1864TIP3    H1 5556   0.560   4.009   4.193
 1864TIP3    H2 5557   0.580   4.110   4.304
 1865TIP3   OH2 5558   5.000   5.822   0.346
 1865TIP3    H1 5559   5.074   5.763   0.335
 1865TIP3    H2 5560   5.035   5.898   0.393
 1866TIP3   OH2 5561   5.571   2.383   4.863
 1866TIP3    H1 5562   5.500   2.435   4.900
 1866TIP3    H2 5563   5.530   2.299   4.841
 1867TIP3   OH2 5564   2.855   2.734   0.342
 1867TIP3    H1 5565   2.817   2.757   0.427
 1867TIP3    H2 5566   2.822   2.645   0.325
 1868TIP3   OH2 5567   3.706   5.069   0.327
 1868TIP3    H1 5568   3.667   5.061   0.240
 1868TIP3    H2 5569   3.790   5.112   0.312
 1869TIP3   OH2 5570   6.488   1.523   3.450
 1869TIP3    H1 5571   6.402   1.494   3.482
 1869TIP3    H2 5572   6.469   1.605   3.404
 1870TIP3   OH2 5573   1.490   0.025   4.299
 1870TIP3    H1 5574   1.459  -0.065   4.290
 1870TIP3    H2 5575   1.449   0.056   4.380
 1871TIP3   OH2 5576   0.350   3.375   4.587
 1871TIP3    H1 5577   0.273   3.421   4.553
 1871TIP3    H2 5578   0.416   3.443   4.598
 1872TIP3   OH2 5579   2.933   5.513   2.240
 1872TIP3    H1 5580   2.853   5.460   2.244
 1872TIP3    H2 5581   2.989   5.476   2.309
 1873TIP3   OH2 5582   6.020   5.325   2.369
 1873TIP3    H1 5583   5.947   5.278   2.330
 1873TIP3    H2 5584   6.046   5.389   2.303
 1874TIP3   OH2 5585   2.391   2.015   2.115
 1874TIP3    H1 5586   2.327   2.084   2.101
 1874TIP3    H2 5587   2.424   2.029   2.203
 1875TIP3   OH2 5588   2.045   2.222   0.507
 1875TIP3    H1 5589   2.015   2.240   0.418
 1875TIP3    H2 5590   1.965   2.222   0.559
 1876TIP3   OH2 5591   1.438   5.479   2.973
 1876TIP3    H1 5592   1.470   5.450   2.887
 1876TIP3    H2 5593   1.343   5.488   2.960
 1877TIP3   OH2 5594   2.439   6.612   5.279
 1877TIP3    H1 5595   2.442   6.707   5.268
 1877TIP3    H2 5596   2.470   6.578   5.195
 1878TIP3   OH2 5597   6.073   3.565   1.878
 1878TIP3    H1 5598   6.007   3.621   1.837
 1878TIP3    H2 5599   6.157   3.606   1.857
 1879TIP3   OH2 5600   1.413   3.110   4.538
 1879TIP3    H1 5601   1.389   3.189   4.587
 1879TIP3    H2 5602   1.374   3.038   4.588
 1880TIP3   OH2 5603   2.621   3.178   4.654
 1880TIP3    H1 5604   2.596   3.161   4.563
 1880TIP3    H2 5605   2.709   3.141   4.663
 1881TIP3   OH2 5606   3.736   2.449   5.600
 1881TIP3    H1 5607   3.702   2.524   5.648
 1881TIP3    H2 5608   3.830   2.466   5.591
 1882TIP3   OH2 5609   3.907   5.943   3.253
 1882TIP3    H1 5610   3.922   6.000   3.177
 1882TIP3    H2 5611   3.924   6.000   3.328
 1883TIP3   OH2 5612   5.001   3.981   3.708
 1883TIP3    H1 5613   5.067   4.006   3.643
 1883TIP3    H2 5614   4.952   4.061   3.724
 1884TIP3   OH2 5615   2.646   3.071   2.004
 1884TIP3    H1 5616   2.681   3.023   2.079
 1884TIP3    H2 5617   2.551   3.055   2.008
 1885TIP3   OH2 5618   5.481   2.142   2.598
 1885TIP3    H1 5619   5.386   2.148   2.594
 1885TIP3    H2 5620   5.505   2.095   2.518
 1886TIP3   OH2 5621   1.607   0.592   3.043
 1886TIP3    H1 5622   1.614   0.541   3.124
 1886TIP3    H2 5623   1.630   0.682   3.069
 1887TIP3   OH2 5624   6.661   2.751   1.743
 1887TIP3    H1 5625   6.667   2.845   1.763
 1887TIP3    H2 5626   6.627   2.747   1.654
 1888TIP3   OH2 5627   4.323   0.532   4.928
 1888TIP3    H1 5628   4.277   0.479   4.994
 1888TIP3    H2 5629   4.404   0.558   4.971
 1889TIP3   OH2 5630   6.698   3.722   3.775
 1889TIP3    H1 5631   6.700   3.816   3.791
 1889TIP3    H2 5632   6.770   3.687   3.827
 1890TIP3   OH2 5633   0.028   3.908   1.067
 1890TIP3    H1 5634   0.081   3.903   0.987
 1890TIP3    H2 5635   0.063   3.839   1.123
 1891TIP3   OH2 5636   4.853   1.183   0.733
 1891TIP3    H1 5637   4.919   1.152   0.671
 1891TIP3    H2 5638   4.778   1.126   0.718
 1892TIP3   OH2 5639   4.254   3.290   1.263
 1892TIP3    H1 5640   4.239   3.313   1.171
 1892TIP3    H2 5641   4.308   3.211   1.261
 1893TIP3   OH2 5642   3.470   6.076   0.372
 1893TIP3    H1 5643   3.515   6.026   0.440
 1893TIP3    H2 5644   3.471   6.019   0.295
 1894TIP3   OH2 5645   2.219   2.414   1.096
 1894TIP3    H1 5646   2.248   2.432   1.186
 1894TIP3    H2 5647   2.130   2.381   1.107
 1895TIP3   OH2 5648   7.147   4.834   5.606
 1895TIP3    H1 5649   7.173   4.884   5.528
 1895TIP3    H2 5650   7.105   4.755   5.571
 1896TIP3   OH2 5651   3.346   2.717   2.939
 1896TIP3    H1 5652   3.304   2.790   2.893
 1896TIP3    H2 5653   3.407   2.759   3.000
 1897TIP3   OH2 5654   4.513   1.503   0.535
 1897TIP3    H1 5655   4.481   1.413   0.540
 1897TIP3    H2 5656   4.587   1.506   0.594
 1898TIP3   OH2 5657   6.110   4.783   0.036
 1898TIP3    H1 5658   6.171   4.776   0.110
 1898TIP3    H2 5659   6.079   4.694   0.021
 1899TIP3   OH2 5660   2.285   3.785   4.833
 1899TIP3    H1 5661   2.311   3.752   4.918
 1899TIP3    H2 5662   2.243   3.869   4.851
 1900TIP3   OH2 5663   0.953   5.649   0.074
 1900TIP3    H1 5664   0.917   5.589   0.139
 1900TIP3    H2 5665   0.986   5.723   0.125
 1901TIP3   OH2 5666   3.955   3.753   4.267
 1901TIP3    H1 5667   3.904   3.831   4.243
 1901TIP3    H2 5668   3.890   3.684   4.277
 1902TIP3   OH2 5669   1.867   6.639   1.448
 1902TIP3    H1 5670   1.897   6.550   1.469
 1902TIP3    H2 5671   1.782   6.625   1.405
 1903TIP3   OH2 5672   5.217   6.212   1.443
 1903TIP3    H1 5673   5.151   6.268   1.484
 1903TIP3    H2 5674   5.259   6.166   1.515
 1904TIP3   OH2 5675   0.209   6.009   2.359
 1904TIP3    H1 5676   0.288   6.042   2.316
 1904TIP3    H2 5677   0.229   6.016   2.453
 1905TIP3   OH2 5678   1.377   1.155   4.772
 1905TIP3    H1 5679   1.463   1.118   4.750
 1905TIP3    H2 5680   1.397   1.235   4.820
 1906TIP3   OH2 5681   5.220   1.981   4.899
 1906TIP3    H1 5682   5.179   1.972   4.985
 1906TIP3    H2 5683   5.148   2.003   4.840
 1907TIP3   OH2 5684   0.584   1.021   5.837
 1907TIP3    H1 5685   0.588   0.960   5.912
 1907TIP3    H2 5686   0.666   1.071   5.843
 1908TIP3   OH2 5687   1.336   3.654   4.573
 1908TIP3    H1 5688   1.357   3.677   4.483
 1908TIP3    H2 5689   1.381   3.571   4.587
 1909TIP3   OH2 5690   6.544   4.337   4.437
 1909TIP3    H1 5691   6.596   4.341   4.517
 1909TIP3    H2 5692   6.476   4.404   4.449
 1910TIP3   OH2 5693   2.174   6.506   2.230
 1910TIP3    H1 5694   2.123   6.430   2.257
 1910TIP3    H2 5695   2.185   6.557   2.311
 1911TIP3   OH2 5696   5.803   6.750   4.428
 1911TIP3    H1 5697   5.888   6.707   4.438
 1911TIP3    H2 5698   5.798   6.810   4.503
 1912TIP3   OH2 5699   7.026   0.594   1.194
 1912TIP3    H1 5700   6.993   0.625   1.110
 1912TIP3    H2 5701   7.121   0.599   1.187
 1913TIP3   OH2 5702   3.160   0.522   0.587
 1913TIP3    H1 5703   3.144   0.616   0.583
 1913TIP3    H2 5704   3.077   0.484   0.616
 1914TIP3   OH2 5705   7.155   4.784   4.519
 1914TIP3    H1 5706   7.225   4.722   4.541
 1914TIP3    H2 5707   7.102   4.737   4.454
 1915TIP3   OH2 5708   4.845   2.812   3.109
 1915TIP3    H1 5709   4.892   2.880   3.158
 1915TIP3    H2 5710   4.835   2.741   3.172
 1916TIP3   OH2 5711   6.526   6.459   5.280
 1916TIP3    H1 5712   6.557   6.451   5.370
 1916TIP3    H2 5713   6.565   6.540   5.248
 1917TIP3   OH2 5714   1.352   5.013   1.988
 1917TIP3    H1 5715   1.326   5.058   1.908
 1917TIP3    H2 5716   1.269   4.984   2.027
 1918TIP3   OH2 5717   6.940   4.158   3.966
 1918TIP3    H1 5718   7.025   4.170   4.006
 1918TIP3    H2 5719   6.887   4.230   4.000
 1919TIP3   OH2 5720   2.045   4.001   0.818
 1919TIP3    H1 5721   2.056   3.998   0.913
 1919TIP3    H2 5722   2.132   4.021   0.784
 1920TIP3   OH2 5723   4.430   0.105   0.796
 1920TIP3    H1 5724   4.456   0.014   0.777
 1920TIP3    H2 5725   4.502   0.141   0.847
 1921TIP3   OH2 5726   3.981   5.407   0.405
 1921TIP3    H1 5727   3.991   5.374   0.494
 1921TIP3    H2 5728   4.059   5.376   0.358
 1922TIP3   OH2 5729   1.884   4.962   0.654
 1922TIP3    H1 5730   1.849   4.886   0.608
 1922TIP3    H2 5731   1.839   5.037   0.614
 1923TIP3   OH2 5732   5.327   2.280   0.124
 1923TIP3    H1 5733   5.286   2.273   0.210
 1923TIP3    H2 5734   5.341   2.190   0.095
 1924TIP3   OH2 5735   4.560   0.866   0.467
 1924TIP3    H1 5736   4.598   0.815   0.539
 1924TIP3    H2 5737   4.621   0.938   0.454
 1925TIP3   OH2 5738   1.830   0.965   2.409
 1925TIP3    H1 5739   1.891   0.901   2.374
 1925TIP3    H2 5740   1.773   0.915   2.466
 1926TIP3   OH2 5741   6.613   6.384   5.533
 1926TIP3    H1 5742   6.569   6.322   5.591
 1926TIP3    H2 5743   6.651   6.450   5.592
 1927TIP3   OH2 5744   4.532   1.477   4.505
 1927TIP3    H1 5745   4.575   1.393   4.489
 1927TIP3    H2 5746   4.449   1.471   4.457
 1928TIP3   OH2 5747   4.190   1.442   5.772
 1928TIP3    H1 5748   4.119   1.506   5.775
 1928TIP3    H2 5749   4.146   1.358   5.764
 1929TIP3   OH2 5750   0.652   6.446   1.681
 1929TIP3    H1 5751   0.587   6.494   1.629
 1929TIP3    H2 5752   0.721   6.425   1.618
 1930TIP3   OH2 5753   2.614   3.226   3.005
 1930TIP3    H1 5754   2.521   3.206   3.004
 1930TIP3    H2 5755   2.628   3.282   2.929
 1931TIP3   OH2 5756   4.942   2.125   1.437
 1931TIP3    H1 5757   4.922   2.082   1.520
 1931TIP3    H2 5758   4.952   2.217   1.460
 1932TIP3   OH2 5759   7.188   1.328   5.368
 1932TIP3    H1 5760   7.175   1.329   5.463
 1932TIP3    H2 5761   7.156   1.414   5.339
 1933TIP3   OH2 5762   2.334   5.887   1.237
 1933TIP3    H1 5763   2.259   5.835   1.206
 1933TIP3    H2 5764   2.410   5.843   1.199
 1934TIP3   OH2 5765   4.578   6.150   4.505
 1934TIP3    H1 5766   4.494   6.195   4.518
 1934TIP3    H2 5767   4.603   6.122   4.593
 1935TIP3   OH2 5768   0.800   4.576   0.307
 1935TIP3    H1 5769   0.748   4.506   0.266
 1935TIP3    H2 5770   0.742   4.652   0.306
 1936TIP3   OH2 5771   1.571   4.864   1.943
 1936TIP3    H1 5772   1.496   4.890   1.998
 1936TIP3    H2 5773   1.567   4.768   1.941
 1937TIP3   OH2 5774   5.822   5.086   2.731
 1937TIP3    H1 5775   5.855   5.165   2.689
 1937TIP3    H2 5776   5.738   5.111   2.769
 1938TIP3   OH2 5777   6.564   0.385   3.715
 1938TIP3    H1 5778   6.591   0.355   3.801
 1938TIP3    H2 5779   6.630   0.352   3.655
 1939TIP3   OH2 5780   2.265   0.789   1.701
 1939TIP3    H1 5781   2.253   0.854   1.632
 1939TIP3    H2 5782   2.359   0.792   1.720
 1940TIP3   OH2 5783   6.177   4.728   4.548
 1940TIP3    H1 5784   6.171   4.756   4.639
 1940TIP3    H2 5785   6.094   4.753   4.509
 1941TIP3   OH2 5786   7.140   2.595   0.068
 1941TIP3    H1 5787   7.223   2.579   0.023
 1941TIP3    H2 5788   7.160   2.664   0.130
 1942TIP3   OH2 5789   0.535   1.160   1.155
 1942TIP3    H1 5790   0.612   1.104   1.161
 1942TIP3    H2 5791   0.566   1.246   1.184
 1943TIP3   OH2 5792   6.550   4.841   0.547
 1943TIP3    H1 5793   6.628   4.896   0.541
 1943TIP3    H2 5794   6.532   4.836   0.641
 1944TIP3   OH2 5795   0.777   4.709   1.052
 1944TIP3    H1 5796   0.835   4.768   1.100
 1944TIP3    H2 5797   0.830   4.631   1.036
 1945TIP3   OH2 5798   0.432   6.539   3.698
 1945TIP3    H1 5799   0.395   6.620   3.663
 1945TIP3    H2 5800   0.424   6.475   3.627
 1946TIP3   OH2 5801   4.452   6.312   0.479
 1946TIP3    H1 5802   4.451   6.316   0.574
 1946TIP3    H2 5803   4.434   6.401   0.450
 1947TIP3   OH2 5804   0.521   1.727   3.577
 1947TIP3    H1 5805   0.517   1.646   3.526
 1947TIP3    H2 5806   0.579   1.784   3.527
 1948TIP3   OH2 5807   6.994   1.080   4.392
 1948TIP3    H1 5808   6.972   1.086   4.485
 1948TIP3    H2 5809   6.909   1.069   4.349
 1949TIP3   OH2 5810   6.580   5.918   4.508
 1949TIP3    H1 5811   6.521   5.883   4.441
 1949TIP3    H2 5812   6.566   6.013   4.504
 1950TIP3   OH2 5813   3.101   4.284   3.808
 1950TIP3    H1 5814   3.042   4.222   3.766
 1950TIP3    H2 5815   3.181   4.235   3.822
 1951TIP3   OH2 5816   4.559   3.443   3.411
 1951TIP3    H1 5817   4.526   3.392   3.337
 1951TIP3    H2 5818   4.500   3.518   3.416
 1952TIP3   OH2 5819   5.821   3.577   3.787
 1952TIP3    H1 5820   5.849   3.648   3.844
 1952TIP3    H2 5821   5.763   3.619   3.723
 1953TIP3   OH2 5822   5.557   0.392   5.816
 1953TIP3    H1 5823   5.569   0.298   5.821
 1953TIP3    H2 5824   5.521   0.417   5.901
 1954TIP3   OH2 5825   4.780   6.007   3.598
 1954TIP3    H1 5826   4.701   6.034   3.552
 1954TIP3    H2 5827   4.851   6.047   3.549
 1955TIP3   OH2 5828   0.364   2.595   2.893
 1955TIP3    H1 5829   0.313   2.555   2.963
 1955TIP3    H2 5830   0.443   2.541   2.887
 1956TIP3   OH2 5831   4.737   4.529   2.284
 1956TIP3    H1 5832   4.666   4.583   2.248
 1956TIP3    H2 5833   4.789   4.504   2.207
 1957TIP3   OH2 5834   5.105   5.531   1.640
 1957TIP3    H1 5835   5.062   5.446   1.654
 1957TIP3    H2 5836   5.116   5.567   1.729
 1958TIP3   OH2 5837   1.884   4.079   4.484
 1958TIP3    H1 5838   1.831   4.056   4.408
 1958TIP3    H2 5839   1.968   4.107   4.447
 1959TIP3   OH2 5840   2.196   0.099   2.039
 1959TIP3    H1 5841   2.214   0.192   2.025
 1959TIP3    H2 5842   2.282   0.062   2.059
 1960TIP3   OH2 5843   3.660   5.118   4.513
 1960TIP3    H1 5844   3.616   5.161   4.586
 1960TIP3    H2 5845   3.590   5.093   4.453
 1961TIP3   OH2 5846   6.627   0.792   2.740
 1961TIP3    H1 5847   6.682   0.856   2.784
 1961TIP3    H2 5848   6.555   0.843   2.702
 1962TIP3   OH2 5849   6.713   6.488   0.619
 1962TIP3    H1 5850   6.744   6.537   0.695
 1962TIP3    H2 5851   6.790   6.441   0.587
 1963TIP3   OH2 5852   2.575   0.811   1.768
 1963TIP3    H1 5853   2.563   0.905   1.760
 1963TIP3    H2 5854   2.526   0.787   1.847
 1964TIP3   OH2 5855   0.824   4.620   1.412
 1964TIP3    H1 5856   0.897   4.672   1.446
 1964TIP3    H2 5857   0.746   4.669   1.437
 1965TIP3   OH2 5858   1.647   4.993   2.553
 1965TIP3    H1 5859   1.731   4.951   2.573
 1965TIP3    H2 5860   1.645   5.069   2.610
 1966TIP3   OH2 5861   2.096   4.523   5.276
 1966TIP3    H1 5862   2.168   4.495   5.221
 1966TIP3    H2 5863   2.025   4.462   5.255
 1967TIP3   OH2 5864   1.963   2.390   2.248
 1967TIP3    H1 5865   2.014   2.465   2.216
 1967TIP3    H2 5866   1.877   2.401   2.208
 1968TIP3   OH2 5867   4.639   0.122   1.378
 1968TIP3    H1 5868   4.718   0.170   1.401
 1968TIP3    H2 5869   4.666   0.062   1.309
 1969TIP3   OH2 5870   6.033   1.453   5.861
 1969TIP3    H1 5871   6.094   1.405   5.806
 1969TIP3    H2 5872   6.021   1.538   5.818
 1970TIP3   OH2 5873   3.641   3.076   0.217
 1970TIP3    H1 5874   3.603   3.147   0.165
 1970TIP3    H2 5875   3.634   2.999   0.161
 1971TIP3   OH2 5876   5.371   4.655   1.481
 1971TIP3    H1 5877   5.441   4.715   1.457
 1971TIP3    H2 5878   5.318   4.646   1.401
 1972TIP3   OH2 5879   5.038   5.956   0.762
 1972TIP3    H1 5880   5.117   5.907   0.743
 1972TIP3    H2 5881   5.020   5.938   0.855
 1973TIP3   OH2 5882   4.096   1.631   2.932
 1973TIP3    H1 5883   4.051   1.709   2.899
 1973TIP3    H2 5884   4.110   1.650   3.025
 1974TIP3   OH2 5885   3.374   1.244   2.796
 1974TIP3    H1 5886   3.358   1.304   2.869
 1974TIP3    H2 5887   3.373   1.300   2.719
 1975TIP3   OH2 5888   3.799   5.439   5.526
 1975TIP3    H1 5889   3.830   5.355   5.558
 1975TIP3    H2 5890   3.770   5.422   5.436
 1976TIP3   OH2 5891   6.875   0.474   4.863
 1976TIP3    H1 5892   6.890   0.410   4.794
 1976TIP3    H2 5893   6.807   0.531   4.828
 1977TIP3   OH2 5894   4.195   6.610   3.297
 1977TIP3    H1 5895   4.104   6.615   3.328
 1977TIP3    H2 5896   4.236   6.544   3.354
 1978TIP3   OH2 5897   1.160   6.154   0.606
 1978TIP3    H1 5898   1.153   6.083   0.543
 1978TIP3    H2 5899   1.247   6.192   0.590
 1979TIP3   OH2 5900   3.015   2.352   4.640
 1979TIP3    H1 5901   2.981   2.289   4.576
 1979TIP3    H2 5902   3.038   2.298   4.716
 1980TIP3   OH2 5903   4.105   2.896   1.301
 1980TIP3    H1 5904   4.074   2.901   1.391
 1980TIP3    H2 5905   4.029   2.920   1.248
 1981TIP3   OH2 5906   1.711   0.463   5.413
 1981TIP3    H1 5907   1.756   0.523   5.354
 1981TIP3    H2 5908   1.766   0.460   5.491
 1982TIP3   OH2 5909   3.594   0.880   3.395
 1982TIP3    H1 5910   3.670   0.826   3.372
 1982TIP3    H2 5911   3.631   0.956   3.439
 1983TIP3   OH2 5912   0.760   3.019   1.839
 1983TIP3    H1 5913   0.795   3.069   1.913
 1983TIP3    H2 5914   0.723   2.941   1.879
 1984TIP3   OH2 5915   3.819   2.882   1.711
 1984TIP3    H1 5916   3.758   2.847   1.646
 1984TIP3    H2 5917   3.891   2.919   1.659
 1985TIP3   OH2 5918   5.544   4.153   5.616
 1985TIP3    H1 5919   5.608   4.086   5.639
 1985TIP3    H2 5920   5.474   4.143   5.681
 1986TIP3   OH2 5921   1.171   5.450   3.008
 1986TIP3    H1 5922   1.112   5.474   3.080
 1986TIP3    H2 5923   1.112   5.427   2.936
 1987TIP3   OH2 5924   1.303   2.839   5.503
 1987TIP3    H1 5925   1.364   2.893   5.455
 1987TIP3    H2 5926   1.267   2.897   5.570
 1988TIP3   OH2 5927   0.106   0.251   4.273
 1988TIP3    H1 5928   0.021   0.242   4.230
 1988TIP3    H2 5929   0.137   0.338   4.250
 1989TIP3   OH2 5930   5.781   4.471   0.475
 1989TIP3    H1 5931   5.873   4.444   0.468
 1989TIP3    H2 5932   5.744   4.450   0.389
 1990TIP3   OH2 5933   2.069   6.683   0.428
 1990TIP3    H1 5934   2.027   6.737   0.361
 1990TIP3    H2 5935   2.008   6.611   0.442
 1991TIP3   OH2 5936   4.148   3.397   0.625
 1991TIP3    H1 5937   4.182   3.466   0.683
 1991TIP3    H2 5938   4.220   3.334   0.617
 1992TIP3   OH2 5939   5.288   5.624   1.072
 1992TIP3    H1 5940   5.376   5.592   1.052
 1992TIP3    H2 5941   5.232   5.583   1.007
 1993TIP3   OH2 5942   4.173   5.269   0.261
 1993TIP3    H1 5943   4.256   5.224   0.246
 1993TIP3    H2 5944   4.169   5.336   0.193
 1994TIP3   OH2 5945   3.209   3.454   4.102
 1994TIP3    H1 5946   3.126   3.417   4.132
 1994TIP3    H2 5947   3.276   3.412   4.157
 1995TIP3   OH2 5948   3.786   4.357   3.280
 1995TIP3    H1 5949   3.761   4.273   3.319
 1995TIP3    H2 5950   3.843   4.398   3.346
 1996TIP3   OH2 5951   1.725   2.448   1.512
 1996TIP3    H1 5952   1.687   2.493   1.436
 1996TIP3    H2 5953   1.703   2.504   1.586
 1997TIP3   OH2 5954   3.938   1.114   0.079
 1997TIP3    H1 5955   3.887   1.082   0.004
 1997TIP3    H2 5956   3.907   1.203   0.093
 1998TIP3   OH2 5957   4.098   4.979   3.608
 1998TIP3    H1 5958   4.145   5.053   3.570
 1998TIP3    H2 5959   4.009   4.988   3.574
 1999TIP3   OH2 5960   5.057   5.232   4.891
 1999TIP3    H1 5961   5.152   5.230   4.891
 1999TIP3    H2 5962   5.032   5.235   4.799
 2000TIP3   OH2 5963   2.943   4.925   1.667
 2000TIP3    H1 5964   2.898   4.845   1.694
 2000TIP3    H2 5965   2.874   4.979   1.627
 2001TIP3   OH2 5966   1.673   0.139   2.744
 2001TIP3    H1 5967   1.603   0.081   2.715
 2001TIP3    H2 5968   1.629   0.223   2.761
 2002TIP3   OH2 5969   3.399   3.609   1.780
 2002TIP3    H1 5970   3.355   3.532   1.745
 2002TIP3    H2 5971   3.352   3.683   1.742
 2003TIP3   OH2 5972   3.707   2.127   5.687
 2003TIP3    H1 5973   3.657   2.158   5.612
 2003TIP3    H2 5974   3.717   2.033   5.673
 2004TIP3   OH2 5975   3.473   1.104   4.723
 2004TIP3    H1 5976   3.505   1.014   4.730
 2004TIP3    H2 5977   3.542   1.150   4.674
 2005TIP3   OH2 5978   7.071   0.860   2.286
 2005TIP3    H1 5979   7.010   0.880   2.215
 2005TIP3    H2 5980   7.140   0.926   2.277
 2006TIP3   OH2 5981   7.170   1.031   3.633
 2006TIP3    H1 5982   7.086   1.074   3.619
 2006TIP3    H2 5983   7.170   1.009   3.726
 2007TIP3   OH2 5984   6.523   6.283   3.973
 2007TIP3    H1 5985   6.566   6.318   4.052
 2007TIP3    H2 5986   6.430   6.301   3.986
 2008TIP3   OH2 5987   3.460   2.821   0.396
 2008TIP3    H1 5988   3.444   2.727   0.387
 2008TIP3    H2 5989   3.385   2.863   0.352
 2009TIP3   OH2 5990   0.517   5.798   0.818
 2009TIP3    H1 5991   0.520   5.774   0.726
 2009TIP3    H2 5992   0.435   5.760   0.850
 2010TIP3   OH2 5993   0.554   1.275   0.535
 2010TIP3    H1 5994   0.577   1.211   0.602
 2010TIP3    H2 5995   0.501   1.340   0.582
 2011TIP3   OH2 5996   1.815   4.573   2.543
 2011TIP3    H1 5997   1.768   4.655   2.559
 2011TIP3    H2 5998   1.904   4.589   2.573
 2012TIP3   OH2 5999   4.616   1.642   4.728
 2012TIP3    H1 6000   4.562   1.610   4.656
 2012TIP3    H2 6001   4.705   1.620   4.703
 2013TIP3   OH2 6002   2.078   6.091   5.832
 2013TIP3    H1 6003   2.166   6.074   5.866
 2013TIP3    H2 6004   2.020   6.080   5.908
 2014TIP3   OH2 6005   6.024   0.406   2.110
 2014TIP3    H1 6006   6.114   0.422   2.081
 2014TIP3    H2 6007   6.020   0.311   2.123
 2015TIP3   OH2 6008   2.611   3.717   5.892
 2015TIP3    H1 6009   2.680   3.683   5.949
 2015TIP3    H2 6010   2.621   3.669   5.810
 2016TIP3   OH2 6011   6.430   1.067   0.875
 2016TIP3    H1 6012   6.505   1.116   0.909
 2016TIP3    H2 6013   6.354   1.121   0.899
 2017TIP3   OH2 6014  -0.004   1.112   0.584
 2017TIP3    H1 6015   0.086   1.145   0.590
 2017TIP3    H2 6016  -0.007   1.039   0.646
 2018TIP3   OH2 6017   3.777   6.757   4.042
 2018TIP3    H1 6018   3.806   6.732   4.130
 2018TIP3    H2 6019   3.766   6.673   3.996
 2019TIP3   OH2 6020   3.864   1.987   3.896
 2019TIP3    H1 6021   3.828   2.000   3.808
 2019TIP3    H2 6022   3.809   2.042   3.952
 2020TIP3   OH2 6023   5.383   0.820   1.892
 2020TIP3    H1 6024   5.316   0.866   1.842
 2020TIP3    H2 6025   5.418   0.885   1.952
 2021TIP3   OH2 6026   6.585   2.338   3.658
 2021TIP3    H1 6027   6.504   2.389   3.653
 2021TIP3    H2 6028   6.615   2.349   3.748
 2022TIP3   OH2 6029   5.765   2.091   3.011
 2022TIP3    H1 6030   5.854   2.059   2.999
 2022TIP3    H2 6031   5.729   2.095   2.922
 2023TIP3   OH2 6032   4.449   1.590   0.176
 2023TIP3    H1 6033   4.392   1.667   0.172
 2023TIP3    H2 6034   4.392   1.517   0.150
 2024TIP3   OH2 6035   0.113   2.474   3.405
 2024TIP3    H1 6036   0.124   2.401   3.466
 2024TIP3    H2 6037   0.202   2.501   3.384
 2025TIP3   OH2 6038   3.753   6.775   1.887
 2025TIP3    H1 6039   3.760   6.762   1.982
 2025TIP3    H2 6040   3.803   6.854   1.869
 2026TIP3   OH2 6041   4.544   1.818   2.814
 2026TIP3    H1 6042   4.581   1.891   2.765
 2026TIP3    H2 6043   4.450   1.837   2.819
 2027TIP3   OH2 6044   3.991   5.107   0.361
 2027TIP3    H1 6045   3.979   5.150   0.445
 2027TIP3    H2 6046   4.055   5.161   0.314
 2028TIP3   OH2 6047   3.143   0.889   3.319
 2028TIP3    H1 6048   3.064   0.937   3.346
 2028TIP3    H2 6049   3.203   0.957   3.287
 2029TIP3   OH2 6050   0.948   6.689   0.780
 2029TIP3    H1 6051   0.964   6.617   0.719
 2029TIP3    H2 6052   0.905   6.648   0.855
 2030TIP3   OH2 6053   7.141   4.044   5.555
 2030TIP3    H1 6054   7.169   3.975   5.495
 2030TIP3    H2 6055   7.168   4.013   5.642
 2031TIP3   OH2 6056   6.405   1.225   5.381
 2031TIP3    H1 6057   6.395   1.210   5.287
 2031TIP3    H2 6058   6.408   1.138   5.420
 2032TIP3   OH2 6059   2.243   3.005   5.095
 2032TIP3    H1 6060   2.158   2.986   5.134
 2032TIP3    H2 6061   2.237   3.097   5.068
 2033TIP3   OH2 6062   7.168   5.279   0.679
 2033TIP3    H1 6063   7.236   5.220   0.647
 2033TIP3    H2 6064   7.090   5.254   0.630
 2034TIP3   OH2 6065   4.238   0.963   1.625
 2034TIP3    H1 6066   4.195   1.047   1.606
 2034TIP3    H2 6067   4.289   0.980   1.705
 2035TIP3   OH2 6068   5.379   0.611   5.362
 2035TIP3    H1 6069   5.448   0.560   5.321
 2035TIP3    H2 6070   5.337   0.550   5.422
 2036TIP3   OH2 6071   5.128   2.975   1.023
 2036TIP3    H1 6072   5.100   2.896   1.069
 2036TIP3    H2 6073   5.220   2.960   1.003
 2037TIP3   OH2 6074   1.691   2.748   0.664
 2037TIP3    H1 6075   1.702   2.704   0.748
 2037TIP3    H2 6076   1.744   2.697   0.603
 2038TIP3   OH2 6077   7.047   1.185   5.170
 2038TIP3    H1 6078   7.101   1.213   5.096
 2038TIP3    H2 6079   7.076   1.240   5.243
 2039TIP3   OH2 6080   0.180   5.524   3.602
 2039TIP3    H1 6081   0.125   5.467   3.657
 2039TIP3    H2 6082   0.132   5.607   3.598
 2040TIP3   OH2 6083   4.216   1.769   4.127
 2040TIP3    H1 6084   4.223   1.819   4.046
 2040TIP3    H2 6085   4.304   1.774   4.166
 2041TIP3   OH2 6086   3.045   0.638   1.097
 2041TIP3    H1 6087   3.094   0.567   1.055
 2041TIP3    H2 6088   3.046   0.709   1.032
 2042TIP3   OH2 6089   1.368   1.005   0.528
 2042TIP3    H1 6090   1.316   1.014   0.448
 2042TIP3    H2 6091   1.459   0.997   0.497
 2043TIP3   OH2 6092   1.201   3.343   5.274
 2043TIP3    H1 6093   1.128   3.300   5.229
 2043TIP3    H2 6094   1.226   3.415   5.216
 2044TIP3   OH2 6095   2.977   0.208   3.479
 2044TIP3    H1 6096   2.933   0.202   3.563
 2044TIP3    H2 6097   3.063   0.245   3.499
 2045TIP3   OH2 6098   0.867   5.497   1.704
 2045TIP3    H1 6099   0.880   5.529   1.614
 2045TIP3    H2 6100   0.917   5.558   1.758
 2046TIP3   OH2 6101   0.549   2.313   4.630
 2046TIP3    H1 6102   0.499   2.320   4.711
 2046TIP3    H2 6103   0.514   2.235   4.587
 2047TIP3   OH2 6104   0.255   3.126   4.572
 2047TIP3    H1 6105   0.296   3.213   4.572
 2047TIP3    H2 6106   0.171   3.140   4.616
 2048TIP3   OH2 6107   3.310   4.747   0.842
 2048TIP3    H1 6108   3.288   4.681   0.908
 2048TIP3    H2 6109   3.320   4.696   0.761
 2049TIP3   OH2 6110   6.469   4.389   0.042
 2049TIP3    H1 6111   6.490   4.335  -0.035
 2049TIP3    H2 6112   6.384   4.357   0.071
 2050TIP3   OH2 6113   6.591   2.711   1.446
 2050TIP3    H1 6114   6.570   2.782   1.386
 2050TIP3    H2 6115   6.578   2.631   1.394
 2051TIP3   OH2 6116   2.114   0.651   0.947
 2051TIP3    H1 6117   2.085   0.561   0.937
 2051TIP3    H2 6118   2.064   0.685   1.021
 2052TIP3   OH2 6119   3.025   4.457   4.788
 2052TIP3    H1 6120   3.056   4.455   4.697
 2052TIP3    H2 6121   3.098   4.496   4.837
 2053TIP3   OH2 6122   4.541   3.417   4.724
 2053TIP3    H1 6123   4.629   3.433   4.757
 2053TIP3    H2 6124   4.527   3.323   4.738
 2054TIP3   OH2 6125   1.545   4.827   1.542
 2054TIP3    H1 6126   1.614   4.826   1.609
 2054TIP3    H2 6127   1.591   4.814   1.460
 2055TIP3   OH2 6128   1.169   1.365   2.976
 2055TIP3    H1 6129   1.246   1.326   3.017
 2055TIP3    H2 6130   1.125   1.292   2.932
 2056TIP3   OH2 6131   4.613   2.987   5.346
 2056TIP3    H1 6132   4.562   2.978   5.266
 2056TIP3    H2 6133   4.634   2.897   5.372
 2057TIP3   OH2 6134   6.130   1.114   3.832
 2057TIP3    H1 6135   6.079   1.096   3.753
 2057TIP3    H2 6136   6.076   1.081   3.903
 2058TIP3   OH2 6137   3.007   4.269   4.978
 2058TIP3    H1 6138   3.060   4.293   5.053
 2058TIP3    H2 6139   3.006   4.347   4.923
 2059TIP3   OH2 6140   4.618   1.309   2.395
 2059TIP3    H1 6141   4.524   1.323   2.386
 2059TIP3    H2 6142   4.626   1.239   2.460
 2060TIP3   OH2 6143   5.077   2.457   5.386
 2060TIP3    H1 6144   5.061   2.465   5.291
 2060TIP3    H2 6145   5.103   2.366   5.398
 2061TIP3   OH2 6146   5.293   4.640   3.648
 2061TIP3    H1 6147   5.348   4.598   3.583
 2061TIP3    H2 6148   5.210   4.592   3.645
 2062TIP3   OH2 6149   5.318   0.077   0.458
 2062TIP3    H1 6150   5.233   0.040   0.481
 2062TIP3    H2 6151   5.327   0.061   0.364
 2063TIP3   OH2 6152   2.185   5.512   4.496
 2063TIP3    H1 6153   2.222   5.425   4.505
 2063TIP3    H2 6154   2.227   5.548   4.418
 2064TIP3   OH2 6155   2.319   4.383   0.349
 2064TIP3    H1 6156   2.296   4.470   0.317
 2064TIP3    H2 6157   2.324   4.393   0.444
 2065TIP3   OH2 6158   4.353   5.187   0.801
 2065TIP3    H1 6159   4.344   5.199   0.707
 2065TIP3    H2 6160   4.310   5.103   0.819
 2066TIP3   OH2 6161   1.001   4.149   5.004
 2066TIP3    H1 6162   0.917   4.137   4.960
 2066TIP3    H2 6163   1.066   4.116   4.942
 2067TIP3   OH2 6164   4.025   0.249   0.933
 2067TIP3    H1 6165   4.055   0.325   0.983
 2067TIP3    H2 6166   3.981   0.285   0.857
 2068TIP3   OH2 6167   2.699   6.303   2.062
 2068TIP3    H1 6168   2.706   6.398   2.072
 2068TIP3    H2 6169   2.664   6.291   1.974
 2069TIP3   OH2 6170   2.396   2.625   2.699
 2069TIP3    H1 6171   2.354   2.561   2.755
 2069TIP3    H2 6172   2.324   2.677   2.664
 2070TIP3   OH2 6173   0.953   1.451   1.398
 2070TIP3    H1 6174   0.982   1.540   1.415
 2070TIP3    H2 6175   0.960   1.442   1.303
 2071TIP3   OH2 6176   0.826   3.020   3.643
 2071TIP3    H1 6177   0.815   3.039   3.736
 2071TIP3    H2 6178   0.801   2.928   3.635
 2072TIP3   OH2 6179   2.354   0.309   2.559
 2072TIP3    H1 6180   2.341   0.327   2.466
 2072TIP3    H2 6181   2.314   0.384   2.603
 2073TIP3   OH2 6182   1.951   6.257   4.861
 2073TIP3    H1 6183   1.925   6.323   4.796
 2073TIP3    H2 6184   1.869   6.213   4.884
 2074TIP3   OH2 6185   5.067   0.850   2.693
 2074TIP3    H1 6186   5.131   0.819   2.758
 2074TIP3    H2 6187   5.028   0.770   2.659
 2075TIP3   OH2 6188   6.794   4.970   0.531
 2075TIP3    H1 6189   6.881   4.957   0.494
 2075TIP3    H2 6190   6.803   5.048   0.586
 2076TIP3   OH2 6191   5.788   3.294   3.712
 2076TIP3    H1 6192   5.869   3.252   3.739
 2076TIP3    H2 6193   5.791   3.380   3.754
 2077TIP3   OH2 6194   1.126   5.408   4.725
 2077TIP3    H1 6195   1.076   5.327   4.710
 2077TIP3    H2 6196   1.185   5.386   4.797
 2078TIP3   OH2 6197   0.699   2.491   1.508
 2078TIP3    H1 6198   0.712   2.419   1.570
 2078TIP3    H2 6199   0.604   2.501   1.504
 2079TIP3   OH2 6200   0.204   2.909   2.999
 2079TIP3    H1 6201   0.142   2.915   2.926
 2079TIP3    H2 6202   0.172   2.836   3.052
 2080TIP3   OH2 6203   6.335   6.701   2.273
 2080TIP3    H1 6204   6.411   6.656   2.236
 2080TIP3    H2 6205   6.262   6.643   2.254
 2081TIP3   OH2 6206   3.549   1.181   0.835
 2081TIP3    H1 6207   3.585   1.201   0.922
 2081TIP3    H2 6208   3.603   1.110   0.802
 2082TIP3   OH2 6209   3.078   2.324   5.097
 2082TIP3    H1 6210   3.025   2.400   5.123
 2082TIP3    H2 6211   3.117   2.293   5.178
 2083TIP3   OH2 6212   3.075   6.279   2.640
 2083TIP3    H1 6213   3.163   6.260   2.606
 2083TIP3    H2 6214   3.086   6.361   2.688
 2084TIP3   OH2 6215   6.968   3.112   2.600
 2084TIP3    H1 6216   7.012   3.081   2.679
 2084TIP3    H2 6217   7.038   3.153   2.548
 2085TIP3   OH2 6218   7.246   6.188   2.651
 2085TIP3    H1 6219   7.223   6.105   2.610
 2085TIP3    H2 6220   7.162   6.227   2.676
 2086TIP3   OH2 6221   3.624   4.013   1.323
 2086TIP3    H1 6222   3.662   4.057   1.399
 2086TIP3    H2 6223   3.697   3.962   1.286
 2087TIP3   OH2 6224   0.464   2.671   2.116
 2087TIP3    H1 6225   0.522   2.596   2.128
 2087TIP3    H2 6226   0.389   2.637   2.067
 2088TIP3   OH2 6227   1.263   0.881   5.522
 2088TIP3    H1 6228   1.337   0.896   5.581
 2088TIP3    H2 6229   1.262   0.957   5.464
 2089TIP3   OH2 6230   4.858   5.911   2.824
 2089TIP3    H1 6231   4.819   5.866   2.899
 2089TIP3    H2 6232   4.947   5.933   2.854
 2090TIP3   OH2 6233   6.947   0.089   4.744
 2090TIP3    H1 6234   6.947   0.177   4.708
 2090TIP3    H2 6235   6.901   0.098   4.828
 2091TIP3   OH2 6236   2.598   3.165   1.747
 2091TIP3    H1 6237   2.587   3.172   1.652
 2091TIP3    H2 6238   2.530   3.220   1.784
 2092TIP3   OH2 6239   4.034   6.129   4.560
 2092TIP3    H1 6240   3.999   6.145   4.473
 2092TIP3    H2 6241   4.065   6.038   4.557
 2093TIP3   OH2 6242   6.783   1.309   4.091
 2093TIP3    H1 6243   6.815   1.254   4.019
 2093TIP3    H2 6244   6.852   1.374   4.104
 2094TIP3   OH2 6245   3.686   2.581   0.835
 2094TIP3    H1 6246   3.744   2.594   0.760
 2094TIP3    H2 6247   3.627   2.657   0.833
 2095TIP3   OH2 6248   2.076   0.017   5.787
 2095TIP3    H1 6249   2.027   0.072   5.725
 2095TIP3    H2 6250   2.032   0.030   5.870
 2096TIP3   OH2 6251   3.355   0.382   5.832
 2096TIP3    H1 6252   3.361   0.317   5.902
 2096TIP3    H2 6253   3.262   0.401   5.824
 2097TIP3   OH2 6254   4.806   2.806   0.156
 2097TIP3    H1 6255   4.897   2.777   0.165
 2097TIP3    H2 6256   4.771   2.802   0.245
 2098TIP3   OH2 6257   2.921   1.339   0.963
 2098TIP3    H1 6258   3.000   1.381   0.930
 2098TIP3    H2 6259   2.939   1.245   0.958
 2099TIP3   OH2 6260   4.453   2.240   0.284
 2099TIP3    H1 6261   4.467   2.254   0.377
 2099TIP3    H2 6262   4.480   2.150   0.268
 2100TIP3   OH2 6263   2.120   2.073   3.545
 2100TIP3    H1 6264   2.166   1.996   3.580
 2100TIP3    H2 6265   2.081   2.042   3.463
 2101TIP3   OH2 6266   2.192   4.976   3.618
 2101TIP3    H1 6267   2.231   5.063   3.619
 2101TIP3    H2 6268   2.101   4.990   3.643
 2102TIP3   OH2 6269   3.422   1.592   2.513
 2102TIP3    H1 6270   3.388   1.605   2.602
 2102TIP3    H2 6271   3.469   1.673   2.494
 2103TIP3   OH2 6272   7.030   3.671   0.909
 2103TIP3    H1 6273   7.121   3.645   0.921
 2103TIP3    H2 6274   6.981   3.590   0.913
 2104TIP3   OH2 6275   3.017   3.649   1.652
 2104TIP3    H1 6276   3.011   3.665   1.558
 2104TIP3    H2 6277   3.095   3.698   1.679
 2105TIP3   OH2 6278   1.752   1.656   3.613
 2105TIP3    H1 6279   1.824   1.671   3.552
 2105TIP3    H2 6280   1.706   1.580   3.577
 2106TIP3   OH2 6281   1.250   0.557   4.627
 2106TIP3    H1 6282   1.213   0.516   4.705
 2106TIP3    H2 6283   1.243   0.489   4.559
 2107TIP3   OH2 6284   5.756   3.607   4.910
 2107TIP3    H1 6285   5.838   3.560   4.896
 2107TIP3    H2 6286   5.692   3.538   4.925
 2108TIP3   OH2 6287   3.926   2.040   3.601
 2108TIP3    H1 6288   4.008   2.071   3.640
 2108TIP3    H2 6289   3.868   2.116   3.602
 2109TIP3   OH2 6290   5.480   4.963   4.861
 2109TIP3    H1 6291   5.437   4.938   4.942
 2109TIP3    H2 6292   5.471   4.886   4.804
 2110TIP3   OH2 6293   1.518   6.793   0.425
 2110TIP3    H1 6294   1.436   6.798   0.375
 2110TIP3    H2 6295   1.583   6.763   0.362
 2111TIP3   OH2 6296   5.037   3.557   0.341
 2111TIP3    H1 6297   5.046   3.543   0.435
 2111TIP3    H2 6298   4.995   3.643   0.334
 2112TIP3   OH2 6299   4.379   3.258   0.630
 2112TIP3    H1 6300   4.454   3.295   0.584
 2112TIP3    H2 6301   4.386   3.292   0.719
 2113TIP3   OH2 6302   2.850   5.504   1.919
 2113TIP3    H1 6303   2.812   5.532   2.002
 2113TIP3    H2 6304   2.844   5.580   1.862
 2114TIP3   OH2 6305   5.407   5.547   2.261
 2114TIP3    H1 6306   5.483   5.587   2.219
 2114TIP3    H2 6307   5.337   5.556   2.197
 2115TIP3   OH2 6308   3.343   2.437   4.058
 2115TIP3    H1 6309   3.251   2.436   4.032
 2115TIP3    H2 6310   3.342   2.444   4.153
 2116TIP3   OH2 6311   4.007   5.787   5.369
 2116TIP3    H1 6312   3.925   5.755   5.331
 2116TIP3    H2 6313   3.996   5.777   5.463
 2117TIP3   OH2 6314   2.662   3.781   0.096
 2117TIP3    H1 6315   2.662   3.871   0.129
 2117TIP3    H2 6316   2.590   3.739   0.144
 2118TIP3   OH2 6317   6.440   3.231   2.083
 2118TIP3    H1 6318   6.426   3.282   2.004
 2118TIP3    H2 6319   6.390   3.151   2.070
 2119TIP3   OH2 6320   6.010   2.432   3.005
 2119TIP3    H1 6321   6.027   2.354   2.953
 2119TIP3    H2 6322   6.011   2.504   2.942
 2120TIP3   OH2 6323   2.851   3.043   4.660
 2120TIP3    H1 6324   2.846   3.009   4.749
 2120TIP3    H2 6325   2.820   2.971   4.605
 2121TIP3   OH2 6326   6.130   1.117   2.706
 2121TIP3    H1 6327   6.126   1.184   2.638
 2121TIP3    H2 6328   6.047   1.071   2.700
 2122TIP3   OH2 6329   4.571   2.295   4.441
 2122TIP3    H1 6330   4.665   2.305   4.458
 2122TIP3    H2 6331   4.534   2.264   4.524
 2123TIP3   OH2 6332   1.848   0.151   5.747
 2123TIP3    H1 6333   1.762   0.177   5.778
 2123TIP3    H2 6334   1.889   0.234   5.719
 2124TIP3   OH2 6335   5.755   1.225   5.407
 2124TIP3    H1 6336   5.749   1.133   5.383
 2124TIP3    H2 6337   5.849   1.241   5.417
 2125TIP3   OH2 6338   3.379   6.382   4.131
 2125TIP3    H1 6339   3.379   6.406   4.038
 2125TIP3    H2 6340   3.457   6.328   4.142
 2126TIP3   OH2 6341   1.046   5.978   1.056
 2126TIP3    H1 6342   1.029   6.015   1.142
 2126TIP3    H2 6343   1.079   6.051   1.004
 2127TIP3   OH2 6344   7.181   4.398   0.388
 2127TIP3    H1 6345   7.194   4.350   0.306
 2127TIP3    H2 6346   7.121   4.469   0.364
 2128TIP3   OH2 6347   6.931   2.614   2.568
 2128TIP3    H1 6348   6.995   2.685   2.560
 2128TIP3    H2 6349   6.884   2.635   2.649
 2129TIP3   OH2 6350   4.109   5.183   5.796
 2129TIP3    H1 6351   4.125   5.108   5.854
 2129TIP3    H2 6352   4.136   5.259   5.848
 2130TIP3   OH2 6353   4.908   5.894   1.611
 2130TIP3    H1 6354   4.965   5.937   1.674
 2130TIP3    H2 6355   4.933   5.932   1.527
 2131TIP3   OH2 6356   3.886   1.769   2.504
 2131TIP3    H1 6357   3.970   1.815   2.500
 2131TIP3    H2 6358   3.868   1.744   2.414
 2132TIP3   OH2 6359   4.461   0.426   1.201
 2132TIP3    H1 6360   4.397   0.368   1.243
 2132TIP3    H2 6361   4.413   0.507   1.184
 2133TIP3   OH2 6362   2.344   5.858   0.574
 2133TIP3    H1 6363   2.259   5.824   0.546
 2133TIP3    H2 6364   2.337   5.869   0.669
 2134TIP3   OH2 6365   1.212   6.726   1.969
 2134TIP3    H1 6366   1.148   6.709   2.038
 2134TIP3    H2 6367   1.260   6.803   1.999
 2135TIP3   OH2 6368   6.441   6.541   3.168
 2135TIP3    H1 6369   6.378   6.470   3.163
 2135TIP3    H2 6370   6.443   6.579   3.080
 2136TIP3   OH2 6371   0.092   1.688   5.041
 2136TIP3    H1 6372   0.015   1.728   5.082
 2136TIP3    H2 6373   0.110   1.610   5.094
 2137TIP3   OH2 6374   3.371   3.903   5.320
 2137TIP3    H1 6375   3.306   3.923   5.388
 2137TIP3    H2 6376   3.384   3.986   5.274
 2138TIP3   OH2 6377   5.493   4.058   3.561
 2138TIP3    H1 6378   5.581   4.044   3.594
 2138TIP3    H2 6379   5.485   3.998   3.486
 2139TIP3   OH2 6380   3.628   2.809   0.123
 2139TIP3    H1 6381   3.687   2.741   0.090
 2139TIP3    H2 6382   3.593   2.773   0.204
 2140TIP3   OH2 6383   3.072   0.733   5.710
 2140TIP3    H1 6384   3.030   0.819   5.710
 2140TIP3    H2 6385   3.157   0.748   5.668
 2141TIP3   OH2 6386   2.075   2.188   5.142
 2141TIP3    H1 6387   2.056   2.131   5.068
 2141TIP3    H2 6388   2.053   2.135   5.219
 2142TIP3   OH2 6389   6.495   0.825   3.254
 2142TIP3    H1 6390   6.587   0.797   3.256
 2142TIP3    H2 6391   6.456   0.775   3.182
 2143TIP3   OH2 6392   4.331   6.542   4.304
 2143TIP3    H1 6393   4.255   6.598   4.286
 2143TIP3    H2 6394   4.313   6.504   4.390
 2144TIP3   OH2 6395   0.461   5.995   4.839
 2144TIP3    H1 6396   0.399   6.028   4.774
 2144TIP3    H2 6397   0.443   6.047   4.918
 2145TIP3   OH2 6398   3.124   0.224   0.740
 2145TIP3    H1 6399   3.200   0.226   0.682
 2145TIP3    H2 6400   3.091   0.314   0.741
 2146TIP3   OH2 6401   5.936   2.960   2.240
 2146TIP3    H1 6402   5.897   3.043   2.264
 2146TIP3    H2 6403   5.863   2.908   2.205
 2147TIP3   OH2 6404   5.147   1.107   5.554
 2147TIP3    H1 6405   5.220   1.076   5.501
 2147TIP3    H2 6406   5.077   1.042   5.538
 2148TIP3   OH2 6407   4.978   4.697   3.895
 2148TIP3    H1 6408   5.067   4.665   3.910
 2148TIP3    H2 6409   4.926   4.655   3.964
 2149TIP3   OH2 6410   0.188   6.488   5.359
 2149TIP3    H1 6411   0.193   6.392   5.361
 2149TIP3    H2 6412   0.097   6.507   5.337
 2150TIP3   OH2 6413   5.308   5.219   2.722
 2150TIP3    H1 6414   5.277   5.162   2.792
 2150TIP3    H2 6415   5.241   5.213   2.654
 2151TIP3   OH2 6416   6.180   1.308   5.699
 2151TIP3    H1 6417   6.230   1.233   5.668
 2151TIP3    H2 6418   6.244   1.360   5.747
 2152TIP3   OH2 6419   5.677   0.813   1.690
 2152TIP3    H1 6420   5.708   0.857   1.611
 2152TIP3    H2 6421   5.607   0.870   1.723
 2153TIP3   OH2 6422   3.621   3.500   3.750
 2153TIP3    H1 6423   3.583   3.581   3.783
 2153TIP3    H2 6424   3.545   3.445   3.728
 2154TIP3   OH2 6425   4.316   3.022   2.028
 2154TIP3    H1 6426   4.364   3.065   1.957
 2154TIP3    H2 6427   4.224   3.029   2.002
 2155TIP3   OH2 6428   2.424   6.726   2.802
 2155TIP3    H1 6429   2.468   6.810   2.789
 2155TIP3    H2 6430   2.455   6.696   2.888
 2156TIP3   OH2 6431   1.687   6.671   2.843
 2156TIP3    H1 6432   1.779   6.645   2.835
 2156TIP3    H2 6433   1.686   6.736   2.912
 2157TIP3   OH2 6434   2.122   1.028   4.240
 2157TIP3    H1 6435   2.084   1.070   4.163
 2157TIP3    H2 6436   2.047   1.003   4.294
 2158TIP3   OH2 6437   1.049   6.642   1.214
 2158TIP3    H1 6438   1.132   6.688   1.201
 2158TIP3    H2 6439   1.039   6.588   1.135
 2159TIP3   OH2 6440   6.446   4.100   4.305
 2159TIP3    H1 6441   6.521   4.149   4.339
 2159TIP3    H2 6442   6.412   4.154   4.234
 2160TIP3   OH2 6443   2.489   4.139   2.230
 2160TIP3    H1 6444   2.399   4.107   2.229
 2160TIP3    H2 6445   2.508   4.155   2.323
 2161TIP3   OH2 6446   3.024   1.089   0.964
 2161TIP3    H1 6447   3.023   1.010   0.910
 2161TIP3    H2 6448   3.113   1.094   0.998
 2162TIP3   OH2 6449   3.680   0.818   0.408
 2162TIP3    H1 6450   3.605   0.824   0.350
 2162TIP3    H2 6451   3.734   0.895   0.386
 2163TIP3   OH2 6452   2.257   2.140   3.258
 2163TIP3    H1 6453   2.219   2.193   3.188
 2163TIP3    H2 6454   2.183   2.091   3.294
 2164TIP3   OH2 6455   6.986   0.692   0.948
 2164TIP3    H1 6456   7.018   0.757   0.885
 2164TIP3    H2 6457   6.942   0.626   0.895
 2165TIP3   OH2 6458   4.996   1.012   0.565
 2165TIP3    H1 6459   4.979   0.998   0.472
 2165TIP3    H2 6460   5.029   0.927   0.596
 2166TIP3   OH2 6461   0.654   1.435   0.824
 2166TIP3    H1 6462   0.737   1.408   0.785
 2166TIP3    H2 6463   0.678   1.499   0.891
 2167TIP3   OH2 6464   6.567   4.743   3.531
 2167TIP3    H1 6465   6.515   4.708   3.458
 2167TIP3    H2 6466   6.623   4.809   3.491
 2168TIP3   OH2 6467   5.992   4.146   3.569
 2168TIP3    H1 6468   6.087   4.147   3.556
 2168TIP3    H2 6469   5.963   4.234   3.546
 2169TIP3   OH2 6470   6.062   0.566   2.371
 2169TIP3    H1 6471   6.071   0.480   2.329
 2169TIP3    H2 6472   6.110   0.557   2.454
 2170TIP3   OH2 6473   2.628   4.338   0.998
 2170TIP3    H1 6474   2.539   4.369   1.010
 2170TIP3    H2 6475   2.663   4.328   1.086
 2171TIP3   OH2 6476   4.263   2.827   2.228
 2171TIP3    H1 6477   4.196   2.788   2.172
 2171TIP3    H2 6478   4.321   2.874   2.168
 2172TIP3   OH2 6479   7.141   0.330   1.121
 2172TIP3    H1 6480   7.067   0.391   1.125
 2172TIP3    H2 6481   7.189   0.346   1.203
 2173TIP3   OH2 6482   5.388   5.961   1.017
 2173TIP3    H1 6483   5.424   5.961   1.105
 2173TIP3    H2 6484   5.431   5.887   0.974
 2174TIP3   OH2 6485   6.675   2.844   3.464
 2174TIP3    H1 6486   6.596   2.804   3.501
 2174TIP3    H2 6487   6.642   2.917   3.411
 2175TIP3   OH2 6488   1.461   0.228   0.837
 2175TIP3    H1 6489   1.383   0.281   0.819
 2175TIP3    H2 6490   1.527   0.263   0.778
 2176TIP3   OH2 6491   1.466   1.263   5.838
 2176TIP3    H1 6492   1.437   1.227   5.921
 2176TIP3    H2 6493   1.551   1.303   5.858
 2177TIP3   OH2 6494   3.617   5.086   5.350
 2177TIP3    H1 6495   3.634   5.113   5.259
 2177TIP3    H2 6496   3.572   5.161   5.389
 2178TIP3   OH2 6497   4.309   3.671   5.677
 2178TIP3    H1 6498   4.220   3.660   5.712
 2178TIP3    H2 6499   4.343   3.749   5.722
 2179TIP3   OH2 6500   3.679   1.880   2.165
 2179TIP3    H1 6501   3.659   1.934   2.242
 2179TIP3    H2 6502   3.726   1.940   2.107
 2180TIP3   OH2 6503   6.945   3.708   1.608
 2180TIP3    H1 6504   6.886   3.746   1.543
 2180TIP3    H2 6505   7.032   3.720   1.572
 2181TIP3   OH2 6506   6.517   3.992   0.932
 2181TIP3    H1 6507   6.551   4.078   0.957
 2181TIP3    H2 6508   6.582   3.956   0.873
 2182TIP3   OH2 6509   1.471   5.466   4.353
 2182TIP3    H1 6510   1.466   5.513   4.270
 2182TIP3    H2 6511   1.528   5.391   4.336
 2183TIP3   OH2 6512   2.787   1.862   5.467
 2183TIP3    H1 6513   2.749   1.778   5.491
 2183TIP3    H2 6514   2.755   1.878   5.378
 2184TIP3   OH2 6515   5.231   0.249   0.974
 2184TIP3    H1 6516   5.235   0.337   1.012
 2184TIP3    H2 6517   5.308   0.245   0.917
 2185TIP3   OH2 6518   0.810   4.977   3.882
 2185TIP3    H1 6519   0.892   5.008   3.921
 2185TIP3    H2 6520   0.821   4.882   3.878
 2186TIP3   OH2 6521   1.370   6.408   1.450
 2186TIP3    H1 6522   1.296   6.456   1.485
 2186TIP3    H2 6523   1.351   6.316   1.468
 2187TIP3   OH2 6524   5.465   3.910   0.370
 2187TIP3    H1 6525   5.554   3.890   0.342
 2187TIP3    H2 6526   5.410   3.877   0.298
 2188TIP3   OH2 6527   7.077   5.648   5.668
 2188TIP3    H1 6528   7.170   5.665   5.653
 2188TIP3    H2 6529   7.072   5.618   5.759
 2189TIP3   OH2 6530   1.148   1.658   4.618
 2189TIP3    H1 6531   1.167   1.622   4.704
 2189TIP3    H2 6532   1.139   1.581   4.561
 2190TIP3   OH2 6533   0.026   2.305   2.440
 2190TIP3    H1 6534   0.081   2.351   2.376
 2190TIP3    H2 6535   0.049   2.344   2.524
 2191TIP3   OH2 6536   2.631   4.074   0.184
 2191TIP3    H1 6537   2.646   4.129   0.108
 2191TIP3    H2 6538   2.538   4.085   0.204
 2192TIP3   OH2 6539   5.074   5.144   1.784
 2192TIP3    H1 6540   4.993   5.096   1.799
 2192TIP3    H2 6541   5.132   5.080   1.741
 2193TIP3   OH2 6542   3.162   2.279   5.727
 2193TIP3    H1 6543   3.221   2.316   5.793
 2193TIP3    H2 6544   3.103   2.351   5.704
 2194TIP3   OH2 6545   6.129   5.727   3.190
 2194TIP3    H1 6546   6.173   5.789   3.247
 2194TIP3    H2 6547   6.041   5.720   3.227
 2195TIP3   OH2 6548   1.534   5.227   5.745
 2195TIP3    H1 6549   1.499   5.316   5.736
 2195TIP3    H2 6550   1.603   5.234   5.811
 2196TIP3   OH2 6551   5.858   6.636   0.990
 2196TIP3    H1 6552   5.907   6.555   0.978
 2196TIP3    H2 6553   5.923   6.698   1.023
 2197TIP3   OH2 6554   7.149   3.575   3.394
 2197TIP3    H1 6555   7.191   3.560   3.478
 2197TIP3    H2 6556   7.056   3.581   3.413
 2198TIP3   OH2 6557   1.598   5.292   1.590
 2198TIP3    H1 6558   1.611   5.248   1.674
 2198TIP3    H2 6559   1.507   5.321   1.592
 2199TIP3   OH2 6560   1.679   5.780   1.914
 2199TIP3    H1 6561   1.597   5.731   1.910
 2199TIP3    H2 6562   1.691   5.815   1.826
 2200TIP3   OH2 6563   6.829   2.674   4.023
 2200TIP3    H1 6564   6.805   2.725   4.101
 2200TIP3    H2 6565   6.768   2.600   4.024
 2201TIP3   OH2 6566   6.602   2.463   2.880
 2201TIP3    H1 6567   6.533   2.398   2.891
 2201TIP3    H2 6568   6.612   2.503   2.966
 2202TIP3   OH2 6569   2.331   2.297   5.345
 2202TIP3    H1 6570   2.269   2.360   5.307
 2202TIP3    H2 6571   2.403   2.293   5.281
 2203TIP3   OH2 6572   4.446   3.126   4.714
 2203TIP3    H1 6573   4.490   3.092   4.792
 2203TIP3    H2 6574   4.444   3.052   4.653
 2204TIP3   OH2 6575   3.710   1.865   1.108
 2204TIP3    H1 6576   3.634   1.812   1.134
 2204TIP3    H2 6577   3.695   1.949   1.152
 2205TIP3   OH2 6578   0.480   3.751   1.566
 2205TIP3    H1 6579   0.480   3.659   1.539
 2205TIP3    H2 6580   0.572   3.772   1.581
 2206TIP3   OH2 6581   3.138   4.981   0.794
 2206TIP3    H1 6582   3.181   5.051   0.843
 2206TIP3    H2 6583   3.186   4.902   0.817
 2207TIP3   OH2 6584   3.723   1.372   0.623
 2207TIP3    H1 6585   3.731   1.411   0.710
 2207TIP3    H2 6586   3.796   1.410   0.573
 2208TIP3   OH2 6587   1.515   3.890   2.693
 2208TIP3    H1 6588   1.598   3.843   2.694
 2208TIP3    H2 6589   1.518   3.946   2.771
 2209TIP3   OH2 6590   6.845   1.645   5.530
 2209TIP3    H1 6591   6.927   1.639   5.578
 2209TIP3    H2 6592   6.843   1.566   5.475
 2210TIP3   OH2 6593   4.037   2.930   2.672
 2210TIP3    H1 6594   3.953   2.961   2.640
 2210TIP3    H2 6595   4.047   2.972   2.757
 2211TIP3   OH2 6596   6.510   2.511   4.573
 2211TIP3    H1 6597   6.438   2.482   4.518
 2211TIP3    H2 6598   6.468   2.536   4.656
 2212TIP3   OH2 6599   4.153   4.370   4.923
 2212TIP3    H1 6600   4.211   4.296   4.938
 2212TIP3    H2 6601   4.083   4.335   4.868
 2213TIP3   OH2 6602   1.644   4.581   5.289
 2213TIP3    H1 6603   1.670   4.655   5.235
 2213TIP3    H2 6604   1.698   4.589   5.368
 2214TIP3   OH2 6605   0.881   3.450   1.056
 2214TIP3    H1 6606   0.931   3.396   1.117
 2214TIP3    H2 6607   0.795   3.408   1.051
 2215TIP3   OH2 6608   5.078   2.283   3.143
 2215TIP3    H1 6609   5.038   2.368   3.164
 2215TIP3    H2 6610   5.096   2.243   3.228
 2216TIP3   OH2 6611   2.384   0.130   0.175
 2216TIP3    H1 6612   2.434   0.212   0.176
 2216TIP3    H2 6613   2.436   0.070   0.123
 2217TIP3   OH2 6614   1.969   0.032   0.185
 2217TIP3    H1 6615   2.030   0.032   0.111
 2217TIP3    H2 6616   1.885   0.057   0.147
 2218TIP3   OH2 6617   4.202   5.245   3.810
 2218TIP3    H1 6618   4.209   5.196   3.728
 2218TIP3    H2 6619   4.108   5.246   3.830
 2219TIP3   OH2 6620   2.605   0.511   1.814
 2219TIP3    H1 6621   2.555   0.471   1.743
 2219TIP3    H2 6622   2.597   0.605   1.800
 2220TIP3   OH2 6623   1.205   3.446   3.591
 2220TIP3    H1 6624   1.150   3.372   3.565
 2220TIP3    H2 6625   1.152   3.523   3.572
 2221TIP3   OH2 6626   3.137   2.223  -0.009
 2221TIP3    H1 6627   3.142   2.261   0.079
 2221TIP3    H2 6628   3.167   2.293  -0.067
 2222TIP3   OH2 6629   4.721   2.657   3.494
 2222TIP3    H1 6630   4.731   2.598   3.419
 2222TIP3    H2 6631   4.809   2.663   3.532
 2223TIP3   OH2 6632   0.718   1.923   4.443
 2223TIP3    H1 6633   0.693   1.854   4.382
 2223TIP3    H2 6634   0.798   1.890   4.484
 2224TIP3   OH2 6635   6.773   4.006   3.800
 2224TIP3    H1 6636   6.863   4.021   3.827
 2224TIP3    H2 6637   6.721   4.064   3.857
 2225TIP3   OH2 6638   2.004   3.486   0.620
 2225TIP3    H1 6639   2.058   3.511   0.545
 2225TIP3    H2 6640   2.043   3.533   0.694
 2226TIP3   OH2 6641   6.344   5.013   1.893
 2226TIP3    H1 6642   6.398   4.934   1.907
 2226TIP3    H2 6643   6.258   4.979   1.870
 2227TIP3   OH2 6644   1.360   4.370   4.556
 2227TIP3    H1 6645   1.456   4.367   4.559
 2227TIP3    H2 6646   1.333   4.278   4.566
 2228TIP3   OH2 6647   2.202   5.449   4.863
 2228TIP3    H1 6648   2.263   5.445   4.789
 2228TIP3    H2 6649   2.231   5.379   4.922
 2229TIP3   OH2 6650   3.309   6.753   1.352
 2229TIP3    H1 6651   3.388   6.802   1.329
 2229TIP3    H2 6652   3.301   6.686   1.284
 2230TIP3   OH2 6653   4.296   5.618   5.202
 2230TIP3    H1 6654   4.261   5.692   5.252
 2230TIP3    H2 6655   4.231   5.549   5.212
 2231TIP3   OH2 6656   6.088   3.339   1.199
 2231TIP3    H1 6657   6.007   3.352   1.150
 2231TIP3    H2 6658   6.152   3.311   1.133
 2232TIP3   OH2 6659   0.538   6.034   3.557
 2232TIP3    H1 6660   0.567   5.989   3.636
 2232TIP3    H2 6661   0.460   5.986   3.530
 2233TIP3   OH2 6662   3.043   2.436   4.125
 2233TIP3    H1 6663   2.967   2.464   4.075
 2233TIP3    H2 6664   3.047   2.496   4.198
 2234TIP3   OH2 6665   6.258   1.701   2.931
 2234TIP3    H1 6666   6.322   1.646   2.886
 2234TIP3    H2 6667   6.201   1.734   2.861
 2235TIP3   OH2 6668   6.876   3.078   0.602
 2235TIP3    H1 6669   6.826   3.129   0.666
 2235TIP3    H2 6670   6.875   2.989   0.636
 2236TIP3   OH2 6671   2.279   0.792   4.185
 2236TIP3    H1 6672   2.345   0.801   4.254
 2236TIP3    H2 6673   2.206   0.847   4.214
 2237TIP3   OH2 6674   3.936   6.659   3.406
 2237TIP3    H1 6675   3.854   6.681   3.362
 2237TIP3    H2 6676   3.909   6.631   3.494
 2238TIP3   OH2 6677   7.189   4.955   4.724
 2238TIP3    H1 6678   7.156   4.912   4.645
 2238TIP3    H2 6679   7.175   5.048   4.707
 2239TIP3   OH2 6680   5.082   0.657   1.678
 2239TIP3    H1 6681   5.067   0.744   1.642
 2239TIP3    H2 6682   5.064   0.666   1.772
 2240TIP3   OH2 6683   3.992   0.507   4.342
 2240TIP3    H1 6684   3.994   0.443   4.271
 2240TIP3    H2 6685   3.921   0.567   4.318
 2241TIP3   OH2 6686   1.189   3.709   4.793
 2241TIP3    H1 6687   1.150   3.640   4.847
 2241TIP3    H2 6688   1.257   3.664   4.742
 2242TIP3   OH2 6689   5.627   4.703   4.379
 2242TIP3    H1 6690   5.598   4.793   4.397
 2242TIP3    H2 6691   5.579   4.678   4.300
 2243TIP3   OH2 6692   0.095   4.633   1.724
 2243TIP3    H1 6693   0.120   4.560   1.668
 2243TIP3    H2 6694   0.002   4.621   1.739
 2244TIP3   OH2 6695   3.166   6.089   1.122
 2244TIP3    H1 6696   3.229   6.146   1.077
 2244TIP3    H2 6697   3.220   6.040   1.185
 2245TIP3   OH2 6698   6.881   6.651   2.663
 2245TIP3    H1 6699   6.812   6.708   2.696
 2245TIP3    H2 6700   6.931   6.626   2.741
 2246TIP3   OH2 6701   4.138   4.262   2.963
 2246TIP3    H1 6702   4.122   4.171   2.989
 2246TIP3    H2 6703   4.085   4.274   2.884
 2247TIP3   OH2 6704   3.035   6.800   3.120
 2247TIP3    H1 6705   3.052   6.845   3.038
 2247TIP3    H2 6706   3.095   6.725   3.120
 2248TIP3   OH2 6707   0.848   2.629   2.563
 2248TIP3    H1 6708   0.771   2.680   2.589
 2248TIP3    H2 6709   0.829   2.601   2.474
 2249TIP3   OH2 6710   1.845   1.221   0.481
 2249TIP3    H1 6711   1.879   1.278   0.550
 2249TIP3    H2 6712   1.923   1.192   0.433
 2250TIP3   OH2 6713   2.188   4.388   4.962
 2250TIP3    H1 6714   2.098   4.383   4.995
 2250TIP3    H2 6715   2.242   4.355   5.034
 2251TIP3   OH2 6716   5.965   0.882   3.340
 2251TIP3    H1 6717   6.047   0.931   3.342
 2251TIP3    H2 6718   5.976   0.820   3.268
 2252TIP3   OH2 6719   3.357   5.571   5.505
 2252TIP3    H1 6720   3.438   5.591   5.459
 2252TIP3    H2 6721   3.306   5.520   5.442
 2253TIP3   OH2 6722   0.600   3.188   2.059
 2253TIP3    H1 6723   0.562   3.101   2.068
 2253TIP3    H2 6724   0.689   3.180   2.094
 2254TIP3   OH2 6725   1.354   0.228   1.822
 2254TIP3    H1 6726   1.345   0.208   1.728
 2254TIP3    H2 6727   1.403   0.310   1.824
 2255TIP3   OH2 6728   6.312   3.060   4.148
 2255TIP3    H1 6729   6.381   3.052   4.213
 2255TIP3    H2 6730   6.318   2.979   4.096
 2256TIP3   OH2 6731   5.008   1.968   4.744
 2256TIP3    H1 6732   4.958   1.960   4.663
 2256TIP3    H2 6733   4.950   1.931   4.812
 2257TIP3   OH2 6734   5.900   1.048   0.916
 2257TIP3    H1 6735   5.852   1.129   0.934
 2257TIP3    H2 6736   5.959   1.037   0.991
 2258TIP3   OH2 6737   4.727   2.150   5.539
 2258TIP3    H1 6738   4.702   2.232   5.582
 2258TIP3    H2 6739   4.794   2.113   5.597
 2259TIP3   OH2 6740   6.673   4.094   3.540
 2259TIP3    H1 6741   6.739   4.062   3.602
 2259TIP3    H2 6742   6.626   4.016   3.512
 2260TIP3   OH2 6743   6.566   6.593   2.144
 2260TIP3    H1 6744   6.575   6.527   2.076
 2260TIP3    H2 6745   6.656   6.624   2.160
 2261TIP3   OH2 6746   2.949   2.664   2.951
 2261TIP3    H1 6747   2.879   2.712   2.995
 2261TIP3    H2 6748   2.982   2.604   3.018
 2262TIP3   OH2 6749   1.389   0.497   3.424
 2262TIP3    H1 6750   1.421   0.407   3.419
 2262TIP3    H2 6751   1.368   0.511   3.516
 2263TIP3   OH2 6752   3.160   1.534   1.664
 2263TIP3    H1 6753   3.095   1.565   1.600
 2263TIP3    H2 6754   3.232   1.501   1.610
 2264TIP3   OH2 6755   1.379   3.947   1.028
 2264TIP3    H1 6756   1.464   3.977   0.995
 2264TIP3    H2 6757   1.321   3.950   0.952
 2265TIP3   OH2 6758   6.237   1.870   1.257
 2265TIP3    H1 6759   6.208   1.879   1.167
 2265TIP3    H2 6760   6.243   1.776   1.271
 2266TIP3   OH2 6761   1.892   3.395   3.739
 2266TIP3    H1 6762   1.845   3.424   3.661
 2266TIP3    H2 6763   1.840   3.427   3.812
 2267TIP3   OH2 6764   5.376   4.013   4.500
 2267TIP3    H1 6765   5.397   4.048   4.587
 2267TIP3    H2 6766   5.429   3.934   4.492
 2268TIP3   OH2 6767   5.656   0.755   5.065
 2268TIP3    H1 6768   5.609   0.776   5.145
 2268TIP3    H2 6769   5.654   0.836   5.014
 2269TIP3   OH2 6770   0.200   4.964   2.759
 2269TIP3    H1 6771   0.169   5.052   2.735
 2269TIP3    H2 6772   0.284   4.980   2.802
 2270TIP3   OH2 6773   5.989   3.082   0.596
 2270TIP3    H1 6774   5.900   3.093   0.564
 2270TIP3    H2 6775   6.004   2.987   0.593
 2271TIP3   OH2 6776   5.984   3.105   1.947
 2271TIP3    H1 6777   5.989   3.167   1.875
 2271TIP3    H2 6778   5.891   3.082   1.953
 2272TIP3   OH2 6779   0.444   4.033   2.974
 2272TIP3    H1 6780   0.399   4.106   3.017
 2272TIP3    H2 6781   0.380   3.962   2.974
 2273TIP3   OH2 6782   0.234   1.373   4.880
 2273TIP3    H1 6783   0.206   1.439   4.817
 2273TIP3    H2 6784   0.282   1.422   4.946
 2274TIP3   OH2 6785   5.875   4.529   3.962
 2274TIP3    H1 6786   5.929   4.501   3.889
 2274TIP3    H2 6787   5.830   4.607   3.931
 2275TIP3   OH2 6788   3.278   4.284   4.630
 2275TIP3    H1 6789   3.336   4.326   4.693
 2275TIP3    H2 6790   3.240   4.357   4.580
 2276TIP3   OH2 6791   3.898   6.361   0.063
 2276TIP3    H1 6792   3.921   6.371  -0.030
 2276TIP3    H2 6793   3.813   6.404   0.071
 2277TIP3   OH2 6794   0.302   4.821   1.883
 2277TIP3    H1 6795   0.231   4.762   1.858
 2277TIP3    H2 6796   0.257   4.898   1.918
 2278TIP3   OH2 6797   3.200   3.960   2.994
 2278TIP3    H1 6798   3.228   3.877   3.032
 2278TIP3    H2 6799   3.208   4.023   3.066
 2279TIP3   OH2 6800   6.822   2.244   3.473
 2279TIP3    H1 6801   6.756   2.252   3.405
 2279TIP3    H2 6802   6.894   2.300   3.442
 2280TIP3   OH2 6803   2.917   0.417   4.811
 2280TIP3    H1 6804   2.976   0.399   4.738
 2280TIP3    H2 6805   2.968   0.397   4.889
 2281TIP3   OH2 6806   5.984   0.873   4.976
 2281TIP3    H1 6807   5.973   0.798   4.918
 2281TIP3    H2 6808   6.074   0.866   5.007
 2282TIP3   OH2 6809   5.027   1.928   1.068
 2282TIP3    H1 6810   4.978   2.007   1.092
 2282TIP3    H2 6811   4.962   1.857   1.073
 2283TIP3   OH2 6812   1.297   2.461   0.752
 2283TIP3    H1 6813   1.289   2.556   0.762
 2283TIP3    H2 6814   1.207   2.429   0.760
 2284TIP3   OH2 6815   3.794   3.782   1.956
 2284TIP3    H1 6816   3.817   3.874   1.947
 2284TIP3    H2 6817   3.827   3.741   1.875
 2285TIP3   OH2 6818   1.495   5.167   2.147
 2285TIP3    H1 6819   1.464   5.101   2.086
 2285TIP3    H2 6820   1.540   5.231   2.092
 2286TIP3   OH2 6821   4.163   1.224   3.541
 2286TIP3    H1 6822   4.169   1.254   3.450
 2286TIP3    H2 6823   4.113   1.292   3.586
 2287TIP3   OH2 6824   4.031   0.237   1.598
 2287TIP3    H1 6825   4.119   0.203   1.612
 2287TIP3    H2 6826   3.977   0.159   1.588
 2288TIP3   OH2 6827   5.333   5.787   4.806
 2288TIP3    H1 6828   5.368   5.791   4.717
 2288TIP3    H2 6829   5.282   5.868   4.815
 2289TIP3   OH2 6830   0.384   5.704   2.769
 2289TIP3    H1 6831   0.378   5.793   2.805
 2289TIP3    H2 6832   0.474   5.699   2.735
 2290TIP3   OH2 6833   1.418   5.810   2.484
 2290TIP3    H1 6834   1.448   5.877   2.422
 2290TIP3    H2 6835   1.335   5.780   2.447
 2291TIP3   OH2 6836   4.999   0.394   3.364
 2291TIP3    H1 6837   5.074   0.445   3.331
 2291TIP3    H2 6838   4.923   0.450   3.348
 2292TIP3   OH2 6839   2.267   1.207   5.182
 2292TIP3    H1 6840   2.314   1.290   5.177
 2292TIP3    H2 6841   2.335   1.142   5.203
 2293TIP3   OH2 6842   4.142   2.828   4.447
 2293TIP3    H1 6843   4.221   2.853   4.494
 2293TIP3    H2 6844   4.100   2.764   4.504
 2294TIP3   OH2 6845   3.931   3.046   0.607
 2294TIP3    H1 6846   4.016   3.055   0.563
 2294TIP3    H2 6847   3.879   2.993   0.546
 2295TIP3   OH2 6848   6.061   1.869   5.820
 2295TIP3    H1 6849   5.974   1.907   5.829
 2295TIP3    H2 6850   6.045   1.779   5.791
 2296TIP3   OH2 6851   0.252   5.719   3.996
 2296TIP3    H1 6852   0.328   5.732   4.052
 2296TIP3    H2 6853   0.284   5.738   3.907
 2297TIP3   OH2 6854   4.270   5.940   4.041
 2297TIP3    H1 6855   4.348   5.993   4.029
 2297TIP3    H2 6856   4.283   5.864   3.985
 2298TIP3   OH2 6857   5.491   0.194   2.907
 2298TIP3    H1 6858   5.552   0.187   2.981
 2298TIP3    H2 6859   5.537   0.248   2.843
 2299TIP3   OH2 6860   6.823   2.543   1.786
 2299TIP3    H1 6861   6.780   2.629   1.785
 2299TIP3    H2 6862   6.760   2.485   1.743
 2300TIP3   OH2 6863   6.112   5.909   4.338
 2300TIP3    H1 6864   6.121   5.990   4.388
 2300TIP3    H2 6865   6.051   5.931   4.268
 2301TIP3   OH2 6866   7.098   3.186   5.804
 2301TIP3    H1 6867   7.091   3.260   5.744
 2301TIP3    H2 6868   7.182   3.146   5.784
 2302TIP3   OH2 6869   3.212   2.666   4.607
 2302TIP3    H1 6870   3.204   2.745   4.553
 2302TIP3    H2 6871   3.281   2.687   4.670
 2303TIP3   OH2 6872   6.416   1.677   5.300
 2303TIP3    H1 6873   6.414   1.707   5.391
 2303TIP3    H2 6874   6.399   1.583   5.305
 2304TIP3   OH2 6875   0.903   2.803   5.750
 2304TIP3    H1 6876   0.960   2.736   5.711
 2304TIP3    H2 6877   0.934   2.885   5.713
 2305TIP3   OH2 6878   1.769   2.345   4.239
 2305TIP3    H1 6879   1.821   2.403   4.184
 2305TIP3    H2 6880   1.829   2.315   4.307
 2306TIP3   OH2 6881   7.179   0.155   0.043
 2306TIP3    H1 6882   7.253   0.214   0.059
 2306TIP3    H2 6883   7.109   0.212   0.011
 2307TIP3   OH2 6884   3.966   1.771   5.357
 2307TIP3    H1 6885   3.885   1.765   5.407
 2307TIP3    H2 6886   4.017   1.694   5.384
 2308TIP3   OH2 6887   6.035   4.464   3.738
 2308TIP3    H1 6888   6.091   4.529   3.782
 2308TIP3    H2 6889   6.012   4.505   3.655
 2309TIP3   OH2 6890   6.648   4.967   4.525
 2309TIP3    H1 6891   6.723   5.025   4.542
 2309TIP3    H2 6892   6.581   4.996   4.587
 2310TIP3   OH2 6893   0.304   3.899   1.786
 2310TIP3    H1 6894   0.298   3.850   1.868
 2310TIP3    H2 6895   0.368   3.851   1.734
 2311TIP3   OH2 6896  -0.007   4.166   5.895
 2311TIP3    H1 6897   0.028   4.096   5.839
 2311TIP3    H2 6898   0.054   4.238   5.885
 2312TIP3   OH2 6899   6.027   4.277   0.430
 2312TIP3    H1 6900   6.040   4.338   0.356
 2312TIP3    H2 6901   5.990   4.199   0.389
 2313TIP3   OH2 6902   5.857  -0.020   0.161
 2313TIP3    H1 6903   5.827   0.061   0.118
 2313TIP3    H2 6904   5.951  -0.007   0.172
 2314TIP3   OH2 6905   6.141   3.706   2.567
 2314TIP3    H1 6906   6.073   3.639   2.557
 2314TIP3    H2 6907   6.162   3.705   2.660
 2315TIP3   OH2 6908   5.867   5.528   0.614
 2315TIP3    H1 6909   5.864   5.452   0.556
 2315TIP3    H2 6910   5.922   5.500   0.687
 2316TIP3   OH2 6911   2.564   3.622   1.039
 2316TIP3    H1 6912   2.604   3.669   1.112
 2316TIP3    H2 6913   2.618   3.645   0.963
 2317TIP3   OH2 6914   4.441   2.998   0.545
 2317TIP3    H1 6915   4.387   3.065   0.587
 2317TIP3    H2 6916   4.471   3.040   0.464
 2318TIP3   OH2 6917   1.021   5.921   3.600
 2318TIP3    H1 6918   0.946   5.914   3.542
 2318TIP3    H2 6919   1.066   6.001   3.572
 2319TIP3   OH2 6920   5.533   6.498   2.897
 2319TIP3    H1 6921   5.492   6.583   2.881
 2319TIP3    H2 6922   5.513   6.446   2.819
 2320TIP3   OH2 6923   1.863   2.527   1.863
 2320TIP3    H1 6924   1.806   2.496   1.934
 2320TIP3    H2 6925   1.933   2.462   1.858
 2321TIP3   OH2 6926   2.265   1.567   4.757
 2321TIP3    H1 6927   2.323   1.633   4.794
 2321TIP3    H2 6928   2.319   1.489   4.747
 2322TIP3   OH2 6929   6.357   2.110   1.978
 2322TIP3    H1 6930   6.396   2.023   1.971
 2322TIP3    H2 6931   6.263   2.094   1.975
 2323TIP3   OH2 6932   4.241   3.373   3.613
 2323TIP3    H1 6933   4.233   3.341   3.523
 2323TIP3    H2 6934   4.262   3.466   3.604
 2324TIP3   OH2 6935   5.714   6.096   2.360
 2324TIP3    H1 6936   5.748   6.141   2.283
 2324TIP3    H2 6937   5.755   6.009   2.357
 2325TIP3   OH2 6938   5.736   2.378   1.358
 2325TIP3    H1 6939   5.759   2.453   1.303
 2325TIP3    H2 6940   5.820   2.342   1.387
 2326TIP3   OH2 6941   2.273   4.917   3.063
 2326TIP3    H1 6942   2.256   4.917   3.158
 2326TIP3    H2 6943   2.358   4.875   3.054
 2327TIP3   OH2 6944   1.291   3.397   1.604
 2327TIP3    H1 6945   1.217   3.374   1.549
 2327TIP3    H2 6946   1.264   3.376   1.693
 2328TIP3   OH2 6947   0.401   6.470   0.176
 2328TIP3    H1 6948   0.426   6.487   0.085
 2328TIP3    H2 6949   0.350   6.389   0.172
 2329TIP3   OH2 6950   2.369   0.788   1.017
 2329TIP3    H1 6951   2.281   0.765   0.988
 2329TIP3    H2 6952   2.379   0.880   0.990
 2330TIP3   OH2 6953   0.363   0.144   1.620
 2330TIP3    H1 6954   0.351   0.049   1.610
 2330TIP3    H2 6955   0.278   0.181   1.597
 2331TIP3   OH2 6956   6.277   4.622   0.192
 2331TIP3    H1 6957   6.308   4.611   0.282
 2331TIP3    H2 6958   6.281   4.534   0.154
 2332TIP3   OH2 6959   1.052   3.938   1.682
 2332TIP3    H1 6960   1.138   3.921   1.643
 2332TIP3    H2 6961   0.991   3.931   1.609
 2333TIP3   OH2 6962   0.587   5.919   1.414
 2333TIP3    H1 6963   0.567   5.908   1.507
 2333TIP3    H2 6964   0.623   6.007   1.407
 2334TIP3   OH2 6965   0.794   3.762   0.846
 2334TIP3    H1 6966   0.716   3.706   0.838
 2334TIP3    H2 6967   0.798   3.783   0.940
 2335TIP3   OH2 6968   1.275   0.946   2.973
 2335TIP3    H1 6969   1.193   0.912   2.939
 2335TIP3    H2 6970   1.331   0.956   2.896
 2336TIP3   OH2 6971   0.037   6.210   0.626
 2336TIP3    H1 6972  -0.011   6.128   0.618
 2336TIP3    H2 6973  -0.005   6.257   0.698
 2337TIP3   OH2 6974   6.420   4.524   5.055
 2337TIP3    H1 6975   6.334   4.550   5.089
 2337TIP3    H2 6976   6.467   4.491   5.132
 2338TIP3   OH2 6977   5.848   5.382   3.987
 2338TIP3    H1 6978   5.807   5.399   4.072
 2338TIP3    H2 6979   5.782   5.332   3.939
 2339TIP3   OH2 6980   3.555   2.315   2.149
 2339TIP3    H1 6981   3.529   2.390   2.203
 2339TIP3    H2 6982   3.481   2.300   2.090
 2340TIP3   OH2 6983   2.580   1.937   3.666
 2340TIP3    H1 6984   2.522   1.945   3.742
 2340TIP3    H2 6985   2.540   1.992   3.599
 2341TIP3   OH2 6986   6.127   1.842   2.062
 2341TIP3    H1 6987   6.087   1.910   2.008
 2341TIP3    H2 6988   6.111   1.871   2.152
 2342TIP3   OH2 6989   3.550   6.248   2.293
 2342TIP3    H1 6990   3.516   6.176   2.241
 2342TIP3    H2 6991   3.477   6.275   2.348
 2343TIP3   OH2 6992   5.893   1.792   0.733
 2343TIP3    H1 6993   5.837   1.714   0.740
 2343TIP3    H2 6994   5.832   1.864   0.720
 2344TIP3   OH2 6995   0.151   5.642   5.594
 2344TIP3    H1 6996   0.131   5.627   5.502
 2344TIP3    H2 6997   0.178   5.734   5.598
 2345TIP3   OH2 6998   3.707   1.676   4.239
 2345TIP3    H1 6999   3.758   1.729   4.301
 2345TIP3    H2 7000   3.769   1.610   4.208
 2346TIP3   OH2 7001   5.064   3.772   1.661
 2346TIP3    H1 7002   4.992   3.797   1.719
 2346TIP3    H2 7003   5.143   3.792   1.712
 2347TIP3   OH2 7004   2.578   6.479   4.204
 2347TIP3    H1 7005   2.506   6.434   4.159
 2347TIP3    H2 7006   2.572   6.570   4.174
 2348TIP3   OH2 7007   1.290   0.592   3.175
 2348TIP3    H1 7008   1.303   0.571   3.268
 2348TIP3    H2 7009   1.357   0.657   3.156
 2349TIP3   OH2 7010   6.654   5.058   3.634
 2349TIP3    H1 7011   6.666   5.028   3.544
 2349TIP3    H2 7012   6.596   5.134   3.627
 2350TIP3   OH2 7013   2.713   1.615   5.073
 2350TIP3    H1 7014   2.681   1.525   5.064
 2350TIP3    H2 7015   2.642   1.668   5.036
 2351TIP3   OH2 7016   5.868   4.498   4.947
 2351TIP3    H1 7017   5.874   4.466   5.037
 2351TIP3    H2 7018   5.827   4.584   4.955
 2352TIP3   OH2 7019   1.888   5.851   4.846
 2352TIP3    H1 7020   1.949   5.898   4.903
 2352TIP3    H2 7021   1.939   5.777   4.812
 2353TIP3   OH2 7022   2.403   0.046   4.050
 2353TIP3    H1 7023   2.350  -0.026   4.084
 2353TIP3    H2 7024   2.490   0.031   4.086
 2354TIP3   OH2 7025   0.188   0.409   1.977
 2354TIP3    H1 7026   0.280   0.412   2.003
 2354TIP3    H2 7027   0.170   0.316   1.962
 2355TIP3   OH2 7028   0.499   3.202   2.624
 2355TIP3    H1 7029   0.583   3.239   2.597
 2355TIP3    H2 7030   0.512   3.179   2.716
 2356TIP3   OH2 7031   1.649   3.493   1.895
 2356TIP3    H1 7032   1.593   3.472   1.969
 2356TIP3    H2 7033   1.737   3.473   1.924
 2357TIP3   OH2 7034   2.477   0.345   5.589
 2357TIP3    H1 7035   2.551   0.286   5.605
 2357TIP3    H2 7036   2.442   0.317   5.505
 2358TIP3   OH2 7037   0.030   0.195   2.277
 2358TIP3    H1 7038   0.117   0.166   2.305
 2358TIP3    H2 7039   0.011   0.142   2.200
 2359TIP3   OH2 7040   2.614   6.752   0.067
 2359TIP3    H1 7041   2.657   6.771   0.150
 2359TIP3    H2 7042   2.521   6.761   0.086
 2360TIP3   OH2 7043   6.117   2.795   5.864
 2360TIP3    H1 7044   6.144   2.884   5.884
 2360TIP3    H2 7045   6.089   2.798   5.773
 2361TIP3   OH2 7046   1.467   6.510   3.358
 2361TIP3    H1 7047   1.545   6.559   3.386
 2361TIP3    H2 7048   1.423   6.487   3.440
 2362TIP3   OH2 7049   4.022   6.344   1.976
 2362TIP3    H1 7050   3.937   6.387   1.966
 2362TIP3    H2 7051   4.027   6.284   1.901
 2363TIP3   OH2 7052   2.535   5.216   4.821
 2363TIP3    H1 7053   2.454   5.166   4.832
 2363TIP3    H2 7054   2.506   5.302   4.791
 2364TIP3   OH2 7055   5.083   5.334   5.473
 2364TIP3    H1 7056   5.132   5.272   5.527
 2364TIP3    H2 7057   5.145   5.405   5.455
 2365TIP3   OH2 7058   2.658   1.902   0.267
 2365TIP3    H1 7059   2.602   1.909   0.189
 2365TIP3    H2 7060   2.732   1.959   0.248
 2366TIP3   OH2 7061   0.020   1.127   1.496
 2366TIP3    H1 7062   0.079   1.137   1.571
 2366TIP3    H2 7063  -0.012   1.215   1.479
 2367TIP3   OH2 7064   1.602   6.285   5.307
 2367TIP3    H1 7065   1.546   6.229   5.254
 2367TIP3    H2 7066   1.666   6.320   5.246
 2368TIP3   OH2 7067   4.680   5.077   0.164
 2368TIP3    H1 7068   4.655   4.985   0.155
 2368TIP3    H2 7069   4.716   5.100   0.078
 2369TIP3   OH2 7070   6.928   2.088   5.213
 2369TIP3    H1 7071   6.947   2.180   5.197
 2369TIP3    H2 7072   6.844   2.088   5.258
 2370TIP3   OH2 7073   6.288   0.664   0.227
 2370TIP3    H1 7074   6.247   0.578   0.226
 2370TIP3    H2 7075   6.280   0.696   0.137
 2371TIP3   OH2 7076   1.946   3.506   2.895
 2371TIP3    H1 7077   2.036   3.476   2.906
 2371TIP3    H2 7078   1.908   3.446   2.832
 2372TIP3   OH2 7079   6.401   5.428   0.716
 2372TIP3    H1 7080   6.438   5.392   0.636
 2372TIP3    H2 7081   6.467   5.488   0.749
 2373TIP3   OH2 7082   4.999   2.774   2.892
 2373TIP3    H1 7083   4.923   2.778   2.949
 2373TIP3    H2 7084   5.074   2.771   2.952
 2374TIP3   OH2 7085   6.078   1.626   5.104
 2374TIP3    H1 7086   6.039   1.538   5.108
 2374TIP3    H2 7087   6.134   1.623   5.027
 2375TIP3   OH2 7088   4.667   4.627   5.401
 2375TIP3    H1 7089   4.681   4.718   5.427
 2375TIP3    H2 7090   4.602   4.632   5.331
 2376TIP3   OH2 7091   1.153   5.003   0.212
 2376TIP3    H1 7092   1.093   4.942   0.257
 2376TIP3    H2 7093   1.122   5.089   0.238
 2377TIP3   OH2 7094   3.657   3.298   5.471
 2377TIP3    H1 7095   3.669   3.374   5.414
 2377TIP3    H2 7096   3.580   3.254   5.435
 2378TIP3   OH2 7097   5.143   3.695   4.367
 2378TIP3    H1 7098   5.215   3.709   4.306
 2378TIP3    H2 7099   5.114   3.782   4.392
 2379TIP3   OH2 7100   3.997   1.235   5.811
 2379TIP3    H1 7101   4.038   1.156   5.846
 2379TIP3    H2 7102   3.942   1.267   5.882
 2380TIP3   OH2 7103   4.473   2.436   3.157
 2380TIP3    H1 7104   4.530   2.424   3.233
 2380TIP3    H2 7105   4.496   2.364   3.098
 2381TIP3   OH2 7106   6.179   0.380   4.782
 2381TIP3    H1 7107   6.214   0.388   4.871
 2381TIP3    H2 7108   6.109   0.316   4.790
 2382TIP3   OH2 7109   6.672   4.360   3.198
 2382TIP3    H1 7110   6.711   4.392   3.279
 2382TIP3    H2 7111   6.669   4.438   3.142
 2383TIP3   OH2 7112   0.248   3.397   5.206
 2383TIP3    H1 7113   0.246   3.490   5.186
 2383TIP3    H2 7114   0.315   3.388   5.274
 2384TIP3   OH2 7115   5.625   5.000   1.124
 2384TIP3    H1 7116   5.567   5.040   1.189
 2384TIP3    H2 7117   5.566   4.968   1.055
 2385TIP3   OH2 7118   0.309   5.309   0.889
 2385TIP3    H1 7119   0.400   5.334   0.899
 2385TIP3    H2 7120   0.296   5.238   0.952
 2386TIP3   OH2 7121   0.986   1.840   2.253
 2386TIP3    H1 7122   0.909   1.892   2.230
 2386TIP3    H2 7123   1.002   1.859   2.345
 2387TIP3   OH2 7124   7.187   4.294   1.411
 2387TIP3    H1 7125   7.159   4.230   1.345
 2387TIP3    H2 7126   7.209   4.373   1.361
 2388TIP3   OH2 7127   2.577   1.224   4.291
 2388TIP3    H1 7128   2.613   1.310   4.269
 2388TIP3    H2 7129   2.630   1.162   4.242
 2389TIP3   OH2 7130   1.574   6.419   4.438
 2389TIP3    H1 7131   1.611   6.335   4.412
 2389TIP3    H2 7132   1.489   6.397   4.477
 2390TIP3   OH2 7133   0.669   4.973   5.612
 2390TIP3    H1 7134   0.718   5.030   5.553
 2390TIP3    H2 7135   0.707   4.989   5.698
 2391TIP3   OH2 7136   1.953   1.620   0.222
 2391TIP3    H1 7137   1.895   1.549   0.191
 2391TIP3    H2 7138   1.979   1.666   0.142
 2392TIP3   OH2 7139   5.392   5.594   3.059
 2392TIP3    H1 7140   5.332   5.544   3.004
 2392TIP3    H2 7141   5.468   5.611   3.003
 2393TIP3   OH2 7142   3.665   5.314   3.453
 2393TIP3    H1 7143   3.619   5.258   3.390
 2393TIP3    H2 7144   3.711   5.252   3.510
 2394TIP3   OH2 7145   3.098   5.963   2.935
 2394TIP3    H1 7146   3.174   5.988   2.882
 2394TIP3    H2 7147   3.099   5.867   2.936
 2395TIP3   OH2 7148   2.042   1.441   0.541
 2395TIP3    H1 7149   2.110   1.407   0.599
 2395TIP3    H2 7150   2.090   1.478   0.467
 2396TIP3   OH2 7151   3.293   4.007   4.381
 2396TIP3    H1 7152   3.301   3.965   4.295
 2396TIP3    H2 7153   3.263   4.096   4.363
 2397TIP3   OH2 7154   2.627   5.141   4.218
 2397TIP3    H1 7155   2.545   5.176   4.183
 2397TIP3    H2 7156   2.607   5.050   4.240
 2398TIP3   OH2 7157   3.344   5.800   3.912
 2398TIP3    H1 7158   3.270   5.859   3.897
 2398TIP3    H2 7159   3.354   5.753   3.829
 2399TIP3   OH2 7160   5.076   3.674   0.916
 2399TIP3    H1 7161   5.040   3.646   1.000
 2399TIP3    H2 7162   4.999   3.687   0.860
 2400TIP3   OH2 7163   1.976   0.071   0.883
 2400TIP3    H1 7164   1.909   0.116   0.934
 2400TIP3    H2 7165   1.932   0.046   0.802
 2401TIP3   OH2 7166   2.453   2.232   2.976
 2401TIP3    H1 7167   2.447   2.137   2.988
 2401TIP3    H2 7168   2.362   2.261   2.971
 2402TIP3   OH2 7169   1.123   2.975   0.388
 2402TIP3    H1 7170   1.178   3.049   0.414
 2402TIP3    H2 7171   1.039   2.991   0.431
 2403TIP3   OH2 7172   6.135   6.452   2.341
 2403TIP3    H1 7173   6.173   6.370   2.310
 2403TIP3    H2 7174   6.130   6.507   2.262
 2404TIP3   OH2 7175   5.051   4.651   5.853
 2404TIP3    H1 7176   5.145   4.653   5.833
 2404TIP3    H2 7177   5.041   4.576   5.911
 2405TIP3   OH2 7178   4.323   2.423   2.061
 2405TIP3    H1 7179   4.391   2.465   2.113
 2405TIP3    H2 7180   4.282   2.494   2.013
 2406TIP3   OH2 7181   1.601   2.549   1.261
 2406TIP3    H1 7182   1.645   2.492   1.198
 2406TIP3    H2 7183   1.620   2.638   1.232
 2407TIP3   OH2 7184   0.939   2.479   4.475
 2407TIP3    H1 7185   0.978   2.566   4.480
 2407TIP3    H2 7186   0.846   2.493   4.493
 2408TIP3   OH2 7187   7.215   6.088   4.326
 2408TIP3    H1 7188   7.132   6.116   4.364
 2408TIP3    H2 7189   7.197   6.081   4.232
 2409TIP3   OH2 7190   3.038   3.047   5.816
 2409TIP3    H1 7191   3.121   3.091   5.797
 2409TIP3    H2 7192   3.007   3.088   5.897
 2410TIP3   OH2 7193   6.399   2.046   4.516
 2410TIP3    H1 7194   6.311   2.011   4.528
 2410TIP3    H2 7195   6.399   2.129   4.563
 2411TIP3   OH2 7196   7.176   0.153   0.585
 2411TIP3    H1 7197   7.215   0.217   0.643
 2411TIP3    H2 7198   7.082   0.159   0.601
 2412TIP3   OH2 7199   5.754   4.188   3.188
 2412TIP3    H1 7200   5.664   4.197   3.157
 2412TIP3    H2 7201   5.808   4.219   3.115
 2413TIP3   OH2 7202   1.436   2.930   3.707
 2413TIP3    H1 7203   1.429   2.922   3.802
 2413TIP3    H2 7204   1.444   2.840   3.676
 2414TIP3   OH2 7205   2.354   1.727   3.818
 2414TIP3    H1 7206   2.394   1.811   3.842
 2414TIP3    H2 7207   2.348   1.679   3.901
 2415TIP3   OH2 7208   6.802   3.416   3.491
 2415TIP3    H1 7209   6.835   3.506   3.484
 2415TIP3    H2 7210   6.724   3.423   3.546
 2416TIP3   OH2 7211   6.981   4.609   0.356
 2416TIP3    H1 7212   6.902   4.592   0.305
 2416TIP3    H2 7213   6.950   4.653   0.435
 2417TIP3   OH2 7214   6.560   6.437   3.574
 2417TIP3    H1 7215   6.554   6.456   3.668
 2417TIP3    H2 7216   6.487   6.485   3.535
 2418TIP3   OH2 7217   4.979   5.300   2.840
 2418TIP3    H1 7218   4.999   5.383   2.795
 2418TIP3    H2 7219   5.028   5.306   2.922
 2419TIP3   OH2 7220   3.335   0.886   2.887
 2419TIP3    H1 7221   3.267   0.930   2.939
 2419TIP3    H2 7222   3.289   0.815   2.842
 2420TIP3   OH2 7223   5.557   6.479   2.199
 2420TIP3    H1 7224   5.543   6.399   2.148
 2420TIP3    H2 7225   5.652   6.490   2.202
 2421TIP3   OH2 7226   5.564   2.182   5.375
 2421TIP3    H1 7227   5.557   2.277   5.358
 2421TIP3    H2 7228   5.634   2.174   5.440
 2422TIP3   OH2 7229   0.238   6.716   4.271
 2422TIP3    H1 7230   0.190   6.780   4.324
 2422TIP3    H2 7231   0.323   6.757   4.254
 2423TIP3   OH2 7232   4.209   4.436   5.420
 2423TIP3    H1 7233   4.261   4.441   5.499
 2423TIP3    H2 7234   4.219   4.522   5.379
 2424TIP3   OH2 7235   4.280   5.277   2.245
 2424TIP3    H1 7236   4.260   5.369   2.225
 2424TIP3    H2 7237   4.299   5.277   2.339
 2425TIP3   OH2 7238   3.954   1.000   3.915
 2425TIP3    H1 7239   4.009   1.013   3.837
 2425TIP3    H2 7240   3.917   0.913   3.904
 2426TIP3   OH2 7241   2.111   0.239   3.210
 2426TIP3    H1 7242   2.053   0.194   3.148
 2426TIP3    H2 7243   2.199   0.218   3.180
 2427TIP3   OH2 7244   1.933   4.792   3.860
 2427TIP3    H1 7245   1.988   4.787   3.939
 2427TIP3    H2 7246   1.935   4.885   3.835
 2428TIP3   OH2 7247   1.918   4.688   3.243
 2428TIP3    H1 7248   1.997   4.655   3.200
 2428TIP3    H2 7249   1.848   4.669   3.181
 2429TIP3   OH2 7250   1.292   3.880   1.531
 2429TIP3    H1 7251   1.345   3.800   1.534
 2429TIP3    H2 7252   1.356   3.951   1.536
 2430TIP3   OH2 7253   3.593   1.197   0.440
 2430TIP3    H1 7254   3.667   1.137   0.454
 2430TIP3    H2 7255   3.615   1.276   0.489
 2431TIP3   OH2 7256   5.992   5.768   2.941
 2431TIP3    H1 7257   5.985   5.859   2.972
 2431TIP3    H2 7258   6.038   5.722   3.011
 2432TIP3   OH2 7259   0.627   2.808   2.949
 2432TIP3    H1 7260   0.644   2.883   3.007
 2432TIP3    H2 7261   0.581   2.846   2.874
 2433TIP3   OH2 7262   4.111   2.402   3.811
 2433TIP3    H1 7263   4.045   2.470   3.824
 2433TIP3    H2 7264   4.112   2.353   3.893
 2434TIP3   OH2 7265   2.254   6.717   4.540
 2434TIP3    H1 7266   2.163   6.740   4.522
 2434TIP3    H2 7267   2.276   6.652   4.473
 2435TIP3   OH2 7268   1.217   1.891   3.096
 2435TIP3    H1 7269   1.188   1.821   3.155
 2435TIP3    H2 7270   1.162   1.882   3.018
 2436TIP3   OH2 7271   6.456   1.532   3.803
 2436TIP3    H1 7272   6.362   1.548   3.799
 2436TIP3    H2 7273   6.475   1.479   3.726
 2437TIP3   OH2 7274   4.040   3.045   1.968
 2437TIP3    H1 7275   3.976   2.976   1.984
 2437TIP3    H2 7276   3.996   3.125   1.996
 2438TIP3   OH2 7277   2.889   6.231   3.872
 2438TIP3    H1 7278   2.860   6.217   3.963
 2438TIP3    H2 7279   2.973   6.184   3.867
 2439TIP3   OH2 7280   2.299   3.686   5.339
 2439TIP3    H1 7281   2.348   3.765   5.315
 2439TIP3    H2 7282   2.315   3.676   5.433
 2440TIP3   OH2 7283   5.899   2.943   5.300
 2440TIP3    H1 7284   5.809   2.943   5.268
 2440TIP3    H2 7285   5.921   3.036   5.310
 2441TIP3   OH2 7286   1.063   2.302   4.843
 2441TIP3    H1 7287   0.995   2.286   4.778
 2441TIP3    H2 7288   1.135   2.245   4.816
 2442TIP3   OH2 7289   2.596   5.776   0.493
 2442TIP3    H1 7290   2.508   5.798   0.523
 2442TIP3    H2 7291   2.583   5.706   0.429
 2443TIP3   OH2 7292   1.344   3.336   4.689
 2443TIP3    H1 7293   1.435   3.359   4.670
 2443TIP3    H2 7294   1.340   3.332   4.785
 2444TIP3   OH2 7295   1.624   4.028   0.058
 2444TIP3    H1 7296   1.583   4.113   0.077
 2444TIP3    H2 7297   1.600   4.010  -0.033
 2445TIP3   OH2 7298   0.433   5.019   5.417
 2445TIP3    H1 7299   0.355   5.055   5.458
 2445TIP3    H2 7300   0.477   4.972   5.488
 2446TIP3   OH2 7301   4.191   5.007   4.589
 2446TIP3    H1 7302   4.102   4.975   4.606
 2446TIP3    H2 7303   4.190   5.033   4.497
 2447TIP3   OH2 7304   6.407   4.473   1.555
 2447TIP3    H1 7305   6.317   4.486   1.525
 2447TIP3    H2 7306   6.460   4.529   1.498
 2448TIP3   OH2 7307   2.238   4.865   3.334
 2448TIP3    H1 7308   2.248   4.772   3.357
 2448TIP3    H2 7309   2.223   4.909   3.417
 2449TIP3   OH2 7310   1.254   5.144   2.846
 2449TIP3    H1 7311   1.292   5.161   2.932
 2449TIP3    H2 7312   1.322   5.171   2.784
 2450TIP3   OH2 7313   2.741   5.656   3.255
 2450TIP3    H1 7314   2.707   5.577   3.296
 2450TIP3    H2 7315   2.664   5.698   3.217
 2451TIP3   OH2 7316   2.092   4.790   4.072
 2451TIP3    H1 7317   2.097   4.845   4.150
 2451TIP3    H2 7318   2.028   4.722   4.094
 2452TIP3   OH2 7319   3.710   3.672   2.198
 2452TIP3    H1 7320   3.711   3.703   2.107
 2452TIP3    H2 7321   3.661   3.739   2.245
 2453TIP3   OH2 7322   0.613   2.402   3.208
 2453TIP3    H1 7323   0.637   2.493   3.194
 2453TIP3    H2 7324   0.661   2.377   3.288
 2454TIP3   OH2 7325   1.602   5.306   5.471
 2454TIP3    H1 7326   1.686   5.304   5.427
 2454TIP3    H2 7327   1.612   5.248   5.546
 2455TIP3   OH2 7328   1.385   0.689   1.032
 2455TIP3    H1 7329   1.466   0.728   0.998
 2455TIP3    H2 7330   1.332   0.674   0.954
 2456TIP3   OH2 7331   7.148   5.169   3.333
 2456TIP3    H1 7332   7.123   5.258   3.359
 2456TIP3    H2 7333   7.241   5.174   3.315
 2457TIP3   OH2 7334   0.652   0.691   4.215
 2457TIP3    H1 7335   0.563   0.686   4.179
 2457TIP3    H2 7336   0.692   0.765   4.171
 2458TIP3   OH2 7337   5.991   5.930   0.631
 2458TIP3    H1 7338   6.041   5.980   0.567
 2458TIP3    H2 7339   5.965   5.851   0.584
 2459TIP3   OH2 7340   0.144   3.569   0.331
 2459TIP3    H1 7341   0.228   3.613   0.330
 2459TIP3    H2 7342   0.127   3.550   0.423
 2460TIP3   OH2 7343   5.115   2.523   5.667
 2460TIP3    H1 7344   5.138   2.560   5.582
 2460TIP3    H2 7345   5.022   2.539   5.676
 2461TIP3   OH2 7346   2.918   0.428   0.710
 2461TIP3    H1 7347   2.836   0.388   0.678
 2461TIP3    H2 7348   2.900   0.449   0.801
 2462TIP3   OH2 7349   0.544   3.995   3.306
 2462TIP3    H1 7350   0.479   4.063   3.284
 2462TIP3    H2 7351   0.625   4.025   3.266
 2463TIP3   OH2 7352   2.029   0.586   4.719
 2463TIP3    H1 7353   2.046   0.643   4.644
 2463TIP3    H2 7354   2.050   0.498   4.689
 2464TIP3   OH2 7355   3.381   4.076   1.626
 2464TIP3    H1 7356   3.370   4.156   1.574
 2464TIP3    H2 7357   3.401   4.107   1.714
 2465TIP3   OH2 7358   5.864   5.663   5.382
 2465TIP3    H1 7359   5.822   5.577   5.393
 2465TIP3    H2 7360   5.937   5.661   5.443
 2466TIP3   OH2 7361   1.855   5.142   4.444
 2466TIP3    H1 7362   1.765   5.115   4.462
 2466TIP3    H2 7363   1.852   5.238   4.442
 2467TIP3   OH2 7364   2.887   1.862   3.990
 2467TIP3    H1 7365   2.894   1.873   4.084
 2467TIP3    H2 7366   2.909   1.948   3.954
 2468TIP3   OH2 7367   3.657   5.022   0.943
 2468TIP3    H1 7368   3.578   5.064   0.908
 2468TIP3    H2 7369   3.728   5.077   0.912
 2469TIP3   OH2 7370   4.707   1.919   2.109
 2469TIP3    H1 7371   4.630   1.958   2.069
 2469TIP3    H2 7372   4.671   1.850   2.166
 2470TIP3   OH2 7373   6.966   3.776   1.325
 2470TIP3    H1 7374   6.943   3.808   1.238
 2470TIP3    H2 7375   6.900   3.710   1.345
 2471TIP3   OH2 7376   3.508   3.952   3.552
 2471TIP3    H1 7377   3.440   4.016   3.532
 2471TIP3    H2 7378   3.460   3.869   3.564
 2472TIP3   OH2 7379   2.962   2.589   0.103
 2472TIP3    H1 7380   2.947   2.648   0.029
 2472TIP3    H2 7381   3.038   2.626   0.147
 2473TIP3   OH2 7382   4.589   5.687   4.766
 2473TIP3    H1 7383   4.570   5.759   4.707
 2473TIP3    H2 7384   4.522   5.693   4.835
 2474TIP3   OH2 7385   2.719   0.182   5.070
 2474TIP3    H1 7386   2.773   0.261   5.075
 2474TIP3    H2 7387   2.709   0.154   5.161
 2475TIP3   OH2 7388   4.622   3.988   3.406
 2475TIP3    H1 7389   4.660   3.927   3.344
 2475TIP3    H2 7390   4.529   3.965   3.408
 2476TIP3   OH2 7391   0.746   6.584   4.826
 2476TIP3    H1 7392   0.769   6.522   4.895
 2476TIP3    H2 7393   0.814   6.651   4.830
 2477TIP3   OH2 7394   2.183   1.539   0.331
 2477TIP3    H1 7395   2.117   1.544   0.262
 2477TIP3    H2 7396   2.174   1.621   0.379
 2478TIP3   OH2 7397   6.565   3.155   5.401
 2478TIP3    H1 7398   6.509   3.081   5.422
 2478TIP3    H2 7399   6.642   3.145   5.457
 2479TIP3   OH2 7400   6.321   3.361   0.797
 2479TIP3    H1 7401   6.303   3.285   0.742
 2479TIP3    H2 7402   6.406   3.393   0.768
 2480TIP3   OH2 7403   0.098   3.012   0.407
 2480TIP3    H1 7404   0.042   3.016   0.329
 2480TIP3    H2 7405   0.037   2.994   0.479
 2481TIP3   OH2 7406   4.932   2.652   1.375
 2481TIP3    H1 7407   4.863   2.608   1.424
 2481TIP3    H2 7408   5.002   2.586   1.369
 2482TIP3   OH2 7409   6.558   0.521   2.686
 2482TIP3    H1 7410   6.579   0.613   2.702
 2482TIP3    H2 7411   6.559   0.512   2.591
 2483TIP3   OH2 7412   5.976   3.187   5.598
 2483TIP3    H1 7413   5.893   3.138   5.600
 2483TIP3    H2 7414   5.994   3.207   5.690
 2484TIP3   OH2 7415   2.362   5.907   4.787
 2484TIP3    H1 7416   2.323   5.820   4.782
 2484TIP3    H2 7417   2.329   5.943   4.869
 2485TIP3   OH2 7418   5.174   6.662   1.818
 2485TIP3    H1 7419   5.139   6.648   1.730
 2485TIP3    H2 7420   5.210   6.751   1.815
 2486TIP3   OH2 7421   4.837   0.041   4.846
 2486TIP3    H1 7422   4.851   0.063   4.754
 2486TIP3    H2 7423   4.923   0.014   4.878
 2487TIP3   OH2 7424   0.651   3.475   4.333
 2487TIP3    H1 7425   0.735   3.493   4.376
 2487TIP3    H2 7426   0.669   3.403   4.273
 2488TIP3   OH2 7427   6.598   4.255   2.683
 2488TIP3    H1 7428   6.616   4.346   2.707
 2488TIP3    H2 7429   6.577   4.212   2.765
 2489TIP3   OH2 7430   4.483   6.701   2.710
 2489TIP3    H1 7431   4.557   6.740   2.663
 2489TIP3    H2 7432   4.485   6.609   2.687
 2490TIP3   OH2 7433   0.330   4.697   4.486
 2490TIP3    H1 7434   0.393   4.677   4.417
 2490TIP3    H2 7435   0.281   4.615   4.498
 2491TIP3   OH2 7436   2.520   1.347   5.762
 2491TIP3    H1 7437   2.437   1.300   5.754
 2491TIP3    H2 7438   2.529   1.363   5.856
 2492TIP3   OH2 7439   7.098   6.474   0.603
 2492TIP3    H1 7440   7.078   6.538   0.535
 2492TIP3    H2 7441   7.028   6.409   0.596
 2493TIP3   OH2 7442   3.229   4.356   5.634
 2493TIP3    H1 7443   3.242   4.330   5.543
 2493TIP3    H2 7444   3.168   4.430   5.630
 2494TIP3   OH2 7445   5.531   3.493   0.098
 2494TIP3    H1 7446   5.616   3.525   0.129
 2494TIP3    H2 7447   5.479   3.572   0.084
 2495TIP3   OH2 7448   2.698   1.454   1.365
 2495TIP3    H1 7449   2.623   1.513   1.356
 2495TIP3    H2 7450   2.762   1.505   1.416
 2496TIP3   OH2 7451   0.009   6.358   3.243
 2496TIP3    H1 7452   0.099   6.339   3.271
 2496TIP3    H2 7453  -0.044   6.293   3.289
 2497TIP3   OH2 7454   2.697   6.485   3.893
 2497TIP3    H1 7455   2.630   6.417   3.888
 2497TIP3    H2 7456   2.733   6.477   3.982
 2498TIP3   OH2 7457   6.347   5.141   5.331
 2498TIP3    H1 7458   6.378   5.202   5.263
 2498TIP3    H2 7459   6.267   5.182   5.364
 2499TIP3   OH2 7460   1.245   1.904   2.162
 2499TIP3    H1 7461   1.205   1.868   2.083
 2499TIP3    H2 7462   1.171   1.922   2.220
 2500TIP3   OH2 7463   6.820   1.307   1.565
 2500TIP3    H1 7464   6.885   1.351   1.619
 2500TIP3    H2 7465   6.784   1.376   1.509
 2501TIP3   OH2 7466   6.864   1.871   4.953
 2501TIP3    H1 7467   6.820   1.890   5.036
 2501TIP3    H2 7468   6.795   1.834   4.898
 2502TIP3   OH2 7469   4.537   5.910   1.812
 2502TIP3    H1 7470   4.562   5.871   1.896
 2502TIP3    H2 7471   4.570   5.849   1.746
 2503TIP3   OH2 7472   4.876   1.680   1.756
 2503TIP3    H1 7473   4.819   1.671   1.679
 2503TIP3    H2 7474   4.820   1.654   1.829
 2504TIP3   OH2 7475   4.968   5.823   4.859
 2504TIP3    H1 7476   4.958   5.731   4.834
 2504TIP3    H2 7477   4.962   5.871   4.777
 2505TIP3   OH2 7478   0.163   2.422   5.013
 2505TIP3    H1 7479   0.208   2.489   4.961
 2505TIP3    H2 7480   0.082   2.464   5.041
 2506TIP3   OH2 7481   4.351   4.170   1.314
 2506TIP3    H1 7482   4.370   4.099   1.252
 2506TIP3    H2 7483   4.339   4.127   1.398
 2507TIP3   OH2 7484   2.437   4.874   3.632
 2507TIP3    H1 7485   2.449   4.782   3.656
 2507TIP3    H2 7486   2.342   4.885   3.627
 2508TIP3   OH2 7487   0.320   3.290   1.130
 2508TIP3    H1 7488   0.282   3.202   1.134
 2508TIP3    H2 7489   0.381   3.293   1.204
 2509TIP3   OH2 7490   0.908   0.579   4.094
 2509TIP3    H1 7491   0.821   0.543   4.113
 2509TIP3    H2 7492   0.967   0.527   4.148
 2510TIP3   OH2 7493   2.585   0.470   3.359
 2510TIP3    H1 7494   2.629   0.529   3.419
 2510TIP3    H2 7495   2.644   0.395   3.351
 2511TIP3   OH2 7496   2.340   6.077   2.941
 2511TIP3    H1 7497   2.312   6.042   2.857
 2511TIP3    H2 7498   2.429   6.111   2.925
 2512TIP3   OH2 7499   3.657   2.367   2.849
 2512TIP3    H1 7500   3.678   2.442   2.904
 2512TIP3    H2 7501   3.740   2.341   2.809
 2513TIP3   OH2 7502   6.819   6.200   0.918
 2513TIP3    H1 7503   6.888   6.208   0.984
 2513TIP3    H2 7504   6.860   6.148   0.848
 2514TIP3   OH2 7505   0.308   3.981   5.856
 2514TIP3    H1 7506   0.363   3.996   5.779
 2514TIP3    H2 7507   0.221   3.964   5.821
 2515TIP3   OH2 7508   5.761   5.076   1.932
 2515TIP3    H1 7509   5.718   5.042   1.854
 2515TIP3    H2 7510   5.728   5.023   2.004
 2516TIP3   OH2 7511   1.058   5.072   4.400
 2516TIP3    H1 7512   1.149   5.083   4.429
 2516TIP3    H2 7513   1.059   5.097   4.307
 2517TIP3   OH2 7514   6.043   1.187   3.264
 2517TIP3    H1 7515   5.975   1.187   3.196
 2517TIP3    H2 7516   6.118   1.144   3.222
 2518TIP3   OH2 7517   5.311   4.490   5.316
 2518TIP3    H1 7518   5.378   4.452   5.373
 2518TIP3    H2 7519   5.243   4.520   5.376
 2519TIP3   OH2 7520   7.201   4.031   3.651
 2519TIP3    H1 7521   7.180   3.984   3.570
 2519TIP3    H2 7522   7.219   4.121   3.622
 2520TIP3   OH2 7523   3.526   4.366   5.527
 2520TIP3    H1 7524   3.534   4.416   5.608
 2520TIP3    H2 7525   3.590   4.295   5.537
 2521TIP3   OH2 7526   5.258   3.326   4.176
 2521TIP3    H1 7527   5.270   3.414   4.141
 2521TIP3    H2 7528   5.202   3.338   4.253
 2522TIP3   OH2 7529   4.210   6.107   5.480
 2522TIP3    H1 7530   4.294   6.102   5.435
 2522TIP3    H2 7531   4.228   6.078   5.569
 2523TIP3   OH2 7532   4.275   6.504   5.642
 2523TIP3    H1 7533   4.243   6.587   5.607
 2523TIP3    H2 7534   4.200   6.467   5.690
 2524TIP3   OH2 7535   4.983   2.250   2.042
 2524TIP3    H1 7536   5.008   2.294   2.123
 2524TIP3    H2 7537   5.064   2.243   1.992
 2525TIP3   OH2 7538   3.133   4.118   5.752
 2525TIP3    H1 7539   3.149   4.199   5.704
 2525TIP3    H2 7540   3.216   4.070   5.746
 2526TIP3   OH2 7541   1.655   4.806   5.119
 2526TIP3    H1 7542   1.747   4.788   5.101
 2526TIP3    H2 7543   1.633   4.879   5.061
 2527TIP3   OH2 7544   5.047   6.492   0.135
 2527TIP3    H1 7545   5.063   6.443   0.054
 2527TIP3    H2 7546   4.999   6.570   0.108
 2528TIP3   OH2 7547   0.382   4.835   2.410
 2528TIP3    H1 7548   0.335   4.776   2.469
 2528TIP3    H2 7549   0.404   4.782   2.334
 2529TIP3   OH2 7550   4.075   5.125   2.768
 2529TIP3    H1 7551   4.081   5.106   2.675
 2529TIP3    H2 7552   4.030   5.209   2.773
 2530TIP3   OH2 7553   6.355   3.476   4.298
 2530TIP3    H1 7554   6.389   3.416   4.231
 2530TIP3    H2 7555   6.268   3.500   4.265
 2531TIP3   OH2 7556   5.105   5.246   4.341
 2531TIP3    H1 7557   5.036   5.257   4.406
 2531TIP3    H2 7558   5.150   5.165   4.367
 2532TIP3   OH2 7559   0.405   4.143   4.992
 2532TIP3    H1 7560   0.435   4.115   4.905
 2532TIP3    H2 7561   0.398   4.239   4.985
 2533TIP3   OH2 7562   6.909   0.724   5.364
 2533TIP3    H1 7563   6.879   0.635   5.349
 2533TIP3    H2 7564   6.834   0.779   5.344
 2534TIP3   OH2 7565   5.506   3.814   2.839
 2534TIP3    H1 7566   5.422   3.834   2.882
 2534TIP3    H2 7567   5.491   3.833   2.747
 2535TIP3   OH2 7568   5.175   5.883   3.333
 2535TIP3    H1 7569   5.208   5.969   3.359
 2535TIP3    H2 7570   5.088   5.901   3.297
 2536TIP3   OH2 7571   6.140   4.721   5.828
 2536TIP3    H1 7572   6.216   4.779   5.837
 2536TIP3    H2 7573   6.099   4.723   5.914
 2537TIP3   OH2 7574   3.160   3.304   1.405
 2537TIP3    H1 7575   3.070   3.318   1.433
 2537TIP3    H2 7576   3.153   3.250   1.326
 2538TIP3   OH2 7577   2.140   5.135   4.544
 2538TIP3    H1 7578   2.110   5.071   4.479
 2538TIP3    H2 7579   2.220   5.172   4.505
 2539TIP3   OH2 7580   2.207   5.182   3.015
 2539TIP3    H1 7581   2.298   5.210   3.012
 2539TIP3    H2 7582   2.212   5.088   3.034
 2540TIP3   OH2 7583   1.285   3.604   4.192
 2540TIP3    H1 7584   1.313   3.664   4.261
 2540TIP3    H2 7585   1.213   3.650   4.148
 2541TIP3   OH2 7586   2.161   3.785   3.597
 2541TIP3    H1 7587   2.070   3.755   3.600
 2541TIP3    H2 7588   2.155   3.880   3.589
 2542TIP3   OH2 7589   1.538   1.427   3.335
 2542TIP3    H1 7590   1.558   1.520   3.327
 2542TIP3    H2 7591   1.610   1.384   3.289
 2543TIP3   OH2 7592   2.936   5.002   2.602
 2543TIP3    H1 7593   2.875   5.037   2.537
 2543TIP3    H2 7594   2.926   4.907   2.596
 2544TIP3   OH2 7595   3.891   1.243   4.003
 2544TIP3    H1 7596   3.908   1.163   3.953
 2544TIP3    H2 7597   3.963   1.248   4.065
 2545TIP3   OH2 7598   3.011   2.513   5.695
 2545TIP3    H1 7599   2.945   2.507   5.764
 2545TIP3    H2 7600   3.059   2.593   5.714
 2546TIP3   OH2 7601   0.363   1.403   4.318
 2546TIP3    H1 7602   0.332   1.449   4.240
 2546TIP3    H2 7603   0.404   1.471   4.372
 2547TIP3   OH2 7604   3.049   6.607   1.198
 2547TIP3    H1 7605   3.143   6.606   1.179
 2547TIP3    H2 7606   3.018   6.691   1.165
 2548TIP3   OH2 7607   3.173   2.949   5.504
 2548TIP3    H1 7608   3.081   2.970   5.516
 2548TIP3    H2 7609   3.211   3.027   5.464
 2549TIP3   OH2 7610   4.261   3.273   4.840
 2549TIP3    H1 7611   4.340   3.227   4.814
 2549TIP3    H2 7612   4.195   3.246   4.776
 2550TIP3   OH2 7613   0.107   5.309   2.097
 2550TIP3    H1 7614   0.080   5.397   2.124
 2550TIP3    H2 7615   0.119   5.262   2.180
 2551TIP3   OH2 7616   4.090   4.459   3.634
 2551TIP3    H1 7617   4.175   4.441   3.595
 2551TIP3    H2 7618   4.053   4.372   3.652
 2552TIP3   OH2 7619   6.081   6.578   3.465
 2552TIP3    H1 7620   6.064   6.579   3.560
 2552TIP3    H2 7621   6.006   6.533   3.427
 2553TIP3   OH2 7622   4.226   0.573   4.670
 2553TIP3    H1 7623   4.271   0.554   4.752
 2553TIP3    H2 7624   4.144   0.524   4.675
 2554TIP3   OH2 7625   1.735   5.181   0.549
 2554TIP3    H1 7626   1.702   5.187   0.459
 2554TIP3    H2 7627   1.789   5.260   0.560
 2555TIP3   OH2 7628   1.573   0.975   4.700
 2555TIP3    H1 7629   1.640   0.907   4.684
 2555TIP3    H2 7630   1.494   0.940   4.659
 2556TIP3   OH2 7631   2.295   6.534   5.482
 2556TIP3    H1 7632   2.353   6.565   5.551
 2556TIP3    H2 7633   2.348   6.543   5.402
 2557TIP3   OH2 7634   1.727   0.975   0.736
 2557TIP3    H1 7635   1.680   0.986   0.654
 2557TIP3    H2 7636   1.805   0.924   0.712
 2558TIP3   OH2 7637   1.020   4.752   1.551
 2558TIP3    H1 7638   0.983   4.795   1.628
 2558TIP3    H2 7639   1.069   4.821   1.506
 2559TIP3   OH2 7640   7.116   0.252   3.373
 2559TIP3    H1 7641   7.050   0.308   3.414
 2559TIP3    H2 7642   7.164   0.214   3.447
 2560TIP3   OH2 7643   0.923   5.676   0.761
 2560TIP3    H1 7644   0.844   5.623   0.776
 2560TIP3    H2 7645   0.991   5.612   0.740
 2561TIP3   OH2 7646   2.448   5.795   0.134
 2561TIP3    H1 7647   2.371   5.752   0.171
 2561TIP3    H2 7648   2.501   5.723   0.099
 2562TIP3   OH2 7649   0.442   1.979   5.256
 2562TIP3    H1 7650   0.414   2.028   5.334
 2562TIP3    H2 7651   0.459   2.047   5.190
 2563TIP3   OH2 7652   2.105   3.482   2.494
 2563TIP3    H1 7653   2.095   3.472   2.400
 2563TIP3    H2 7654   2.021   3.518   2.523
 2564TIP3   OH2 7655   5.142   0.839   2.172
 2564TIP3    H1 7656   5.099   0.843   2.258
 2564TIP3    H2 7657   5.232   0.868   2.189
 2565TIP3   OH2 7658   2.342   6.121   1.384
 2565TIP3    H1 7659   2.361   6.044   1.332
 2565TIP3    H2 7660   2.336   6.193   1.321
 2566TIP3   OH2 7661   5.040   6.519   0.430
 2566TIP3    H1 7662   4.977   6.451   0.456
 2566TIP3    H2 7663   5.032   6.524   0.335
 2567TIP3   OH2 7664   0.036   1.465   2.871
 2567TIP3    H1 7665   0.065   1.490   2.783
 2567TIP3    H2 7666   0.115   1.470   2.924
 2568TIP3   OH2 7667   6.898   0.119   0.643
 2568TIP3    H1 7668   6.862   0.030   0.634
 2568TIP3    H2 7669   6.821   0.176   0.643
 2569TIP3   OH2 7670   1.749   3.096   2.188
 2569TIP3    H1 7671   1.683   3.123   2.125
 2569TIP3    H2 7672   1.818   3.162   2.180
 2570TIP3   OH2 7673   5.086   0.972   3.274
 2570TIP3    H1 7674   5.073   1.032   3.201
 2570TIP3    H2 7675   5.003   0.972   3.320
 2571TIP3   OH2 7676   3.697   0.329   4.370
 2571TIP3    H1 7677   3.640   0.252   4.369
 2571TIP3    H2 7678   3.684   0.370   4.285
 2572TIP3   OH2 7679   3.701   4.802   2.814
 2572TIP3    H1 7680   3.670   4.893   2.820
 2572TIP3    H2 7681   3.782   4.808   2.762
 2573TIP3   OH2 7682   4.128   6.454   5.240
 2573TIP3    H1 7683   4.214   6.495   5.253
 2573TIP3    H2 7684   4.098   6.487   5.155
 2574TIP3   OH2 7685   1.453   2.215   3.790
 2574TIP3    H1 7686   1.485   2.257   3.710
 2574TIP3    H2 7687   1.402   2.140   3.759
 2575TIP3   OH2 7688   5.456   1.880   4.195
 2575TIP3    H1 7689   5.460   1.975   4.196
 2575TIP3    H2 7690   5.502   1.852   4.274
 2576TIP3   OH2 7691   3.434   3.770   0.515
 2576TIP3    H1 7692   3.485   3.722   0.449
 2576TIP3    H2 7693   3.366   3.815   0.464
 2577TIP3   OH2 7694   3.199   0.504   2.878
 2577TIP3    H1 7695   3.269   0.439   2.871
 2577TIP3    H2 7696   3.214   0.564   2.805
 2578TIP3   OH2 7697   1.000   2.711   1.018
 2578TIP3    H1 7698   0.916   2.746   1.047
 2578TIP3    H2 7699   0.995   2.712   0.923
 2579TIP3   OH2 7700   2.223   5.367   2.723
 2579TIP3    H1 7701   2.181   5.393   2.641
 2579TIP3    H2 7702   2.234   5.450   2.771
 2580TIP3   OH2 7703   0.034   4.968   3.531
 2580TIP3    H1 7704   0.021   5.012   3.447
 2580TIP3    H2 7705  -0.005   4.882   3.520
 2581TIP3   OH2 7706   2.077   0.330   3.482
 2581TIP3    H1 7707   2.147   0.394   3.494
 2581TIP3    H2 7708   2.082   0.307   3.389
 2582TIP3   OH2 7709   5.924   5.250   4.465
 2582TIP3    H1 7710   5.893   5.325   4.414
 2582TIP3    H2 7711   5.845   5.216   4.508
 2583TIP3   OH2 7712   1.111   3.490   4.916
 2583TIP3    H1 7713   1.052   3.495   4.991
 2583TIP3    H2 7714   1.161   3.410   4.930
 2584TIP3   OH2 7715   3.619   3.258   3.411
 2584TIP3    H1 7716   3.557   3.319   3.451
 2584TIP3    H2 7717   3.580   3.172   3.426
 2585TIP3   OH2 7718   0.067   3.299   0.200
 2585TIP3    H1 7719   0.089   3.388   0.228
 2585TIP3    H2 7720   0.001   3.311   0.132
 2586TIP3   OH2 7721   5.179   4.809   2.560
 2586TIP3    H1 7722   5.160   4.716   2.549
 2586TIP3    H2 7723   5.207   4.838   2.473
 2587TIP3   OH2 7724   5.004   1.901   3.335
 2587TIP3    H1 7725   4.916   1.939   3.327
 2587TIP3    H2 7726   4.998   1.841   3.409
 2588TIP3   OH2 7727   6.746   6.047   3.335
 2588TIP3    H1 7728   6.815   6.113   3.330
 2588TIP3    H2 7729   6.674   6.091   3.381
 2589TIP3   OH2 7730   6.791   4.444   2.706
 2589TIP3    H1 7731   6.854   4.515   2.720
 2589TIP3    H2 7732   6.806   4.415   2.616
 2590TIP3   OH2 7733   6.539   1.007   3.039
 2590TIP3    H1 7734   6.515   1.004   3.132
 2590TIP3    H2 7735   6.633   0.989   3.038
 2591TIP3   OH2 7736   6.546   6.194   4.445
 2591TIP3    H1 7737   6.505   6.173   4.361
 2591TIP3    H2 7738   6.499   6.272   4.476
 2592TIP3   OH2 7739   0.927   0.230   3.861
 2592TIP3    H1 7740   0.859   0.223   3.795
 2592TIP3    H2 7741   0.899   0.171   3.931
 2593TIP3   OH2 7742   7.003   1.748   0.046
 2593TIP3    H1 7743   6.941   1.774   0.114
 2593TIP3    H2 7744   7.000   1.820  -0.018
 2594TIP3   OH2 7745   7.144   6.208   0.890
 2594TIP3    H1 7746   7.225   6.165   0.919
 2594TIP3    H2 7747   7.103   6.238   0.971
 2595TIP3   OH2 7748   2.635   5.385   4.433
 2595TIP3    H1 7749   2.669   5.321   4.369
 2595TIP3    H2 7750   2.678   5.467   4.409
 2596TIP3   OH2 7751   2.616   1.290   3.539
 2596TIP3    H1 7752   2.568   1.365   3.574
 2596TIP3    H2 7753   2.650   1.320   3.455
 2597TIP3   OH2 7754   5.201   1.176   2.604
 2597TIP3    H1 7755   5.107   1.183   2.622
 2597TIP3    H2 7756   5.242   1.177   2.691
 2598TIP3   OH2 7757   3.843   3.269   3.241
 2598TIP3    H1 7758   3.783   3.252   3.313
 2598TIP3    H2 7759   3.930   3.265   3.281
 2599TIP3   OH2 7760   0.486   4.243   0.269
 2599TIP3    H1 7761   0.561   4.188   0.290
 2599TIP3    H2 7762   0.523   4.329   0.251
 2600TIP3   OH2 7763   5.559   1.645   1.356
 2600TIP3    H1 7764   5.564   1.608   1.445
 2600TIP3    H2 7765   5.522   1.733   1.369
 2601TIP3   OH2 7766   1.059   3.039   5.309
 2601TIP3    H1 7767   1.006   3.109   5.271
 2601TIP3    H2 7768   1.037   3.040   5.403
 2602TIP3   OH2 7769   2.259   0.349   2.320
 2602TIP3    H1 7770   2.183   0.339   2.262
 2602TIP3    H2 7771   2.332   0.368   2.260
 2603TIP3   OH2 7772   5.324   5.712   5.641
 2603TIP3    H1 7773   5.392   5.753   5.587
 2603TIP3    H2 7774   5.243   5.726   5.592
 2604TIP3   OH2 7775   5.068   4.839   1.501
 2604TIP3    H1 7776   5.021   4.801   1.575
 2604TIP3    H2 7777   5.074   4.768   1.437
 2605TIP3   OH2 7778   6.300   5.663   3.938
 2605TIP3    H1 7779   6.226   5.602   3.931
 2605TIP3    H2 7780   6.365   5.630   3.876
 2606TIP3   OH2 7781   3.796   2.664   0.366
 2606TIP3    H1 7782   3.808   2.694   0.457
 2606TIP3    H2 7783   3.702   2.645   0.360
 2607TIP3   OH2 7784   2.147   3.923   2.073
 2607TIP3    H1 7785   2.075   3.889   2.020
 2607TIP3    H2 7786   2.211   3.852   2.076
 2608TIP3   OH2 7787   1.367   3.379   0.265
 2608TIP3    H1 7788   1.394   3.469   0.287
 2608TIP3    H2 7789   1.448   3.335   0.241
 2609TIP3   OH2 7790   3.033   5.604   5.488
 2609TIP3    H1 7791   3.091   5.680   5.479
 2609TIP3    H2 7792   2.952   5.631   5.445
 2610TIP3   OH2 7793   4.479   2.059   4.651
 2610TIP3    H1 7794   4.412   1.992   4.638
 2610TIP3    H2 7795   4.537   2.022   4.717
 2611TIP3   OH2 7796   2.168   0.691   5.227
 2611TIP3    H1 7797   2.252   0.687   5.272
 2611TIP3    H2 7798   2.132   0.776   5.251
 2612TIP3   OH2 7799   0.702   3.815   2.130
 2612TIP3    H1 7800   0.687   3.860   2.213
 2612TIP3    H2 7801   0.632   3.750   2.124
 2613TIP3   OH2 7802   6.691   1.697   4.621
 2613TIP3    H1 7803   6.678   1.780   4.666
 2613TIP3    H2 7804   6.765   1.657   4.666
 2614TIP3   OH2 7805   0.913   2.684   1.503
 2614TIP3    H1 7806   0.835   2.629   1.506
 2614TIP3    H2 7807   0.889   2.758   1.447
 2615TIP3   OH2 7808   1.234   4.598   5.692
 2615TIP3    H1 7809   1.214   4.557   5.608
 2615TIP3    H2 7810   1.326   4.623   5.685
 2616TIP3   OH2 7811   1.061   4.352   4.792
 2616TIP3    H1 7812   1.120   4.425   4.773
 2616TIP3    H2 7813   1.086   4.321   4.879
 2617TIP3   OH2 7814   5.015   6.744   2.021
 2617TIP3    H1 7815   5.094   6.766   2.072
 2617TIP3    H2 7816   5.049   6.717   1.936
 2618TIP3   OH2 7817   4.480   3.701   0.477
 2618TIP3    H1 7818   4.551   3.765   0.479
 2618TIP3    H2 7819   4.508   3.633   0.538
 2619TIP3   OH2 7820   5.506   1.535   3.517
 2619TIP3    H1 7821   5.560   1.461   3.545
 2619TIP3    H2 7822   5.475   1.574   3.599
 2620TIP3   OH2 7823   7.132   1.225   0.961
 2620TIP3    H1 7824   7.083   1.267   1.032
 2620TIP3    H2 7825   7.206   1.184   1.005
 2621TIP3   OH2 7826   1.507   4.866   5.443
 2621TIP3    H1 7827   1.489   4.787   5.494
 2621TIP3    H2 7828   1.477   4.845   5.354
 2622TIP3   OH2 7829   0.199   1.900   1.441
 2622TIP3    H1 7830   0.201   1.993   1.460
 2622TIP3    H2 7831   0.125   1.866   1.491
 2623TIP3   OH2 7832   3.177   3.191   0.850
 2623TIP3    H1 7833   3.148   3.100   0.858
 2623TIP3    H2 7834   3.267   3.184   0.818
 2624TIP3   OH2 7835   1.817   6.459   1.848
 2624TIP3    H1 7836   1.777   6.395   1.789
 2624TIP3    H2 7837   1.775   6.542   1.824
 2625TIP3   OH2 7838   6.278   5.583   4.226
 2625TIP3    H1 7839   6.224   5.509   4.255
 2625TIP3    H2 7840   6.265   5.586   4.131
 2626TIP3   OH2 7841   2.203   0.698   3.707
 2626TIP3    H1 7842   2.139   0.659   3.767
 2626TIP3    H2 7843   2.230   0.779   3.751
 2627TIP3   OH2 7844   6.813   4.669   4.128
 2627TIP3    H1 7845   6.817   4.672   4.033
 2627TIP3    H2 7846   6.867   4.742   4.157
 2628TIP3   OH2 7847   7.104   0.908   5.127
 2628TIP3    H1 7848   7.046   0.980   5.151
 2628TIP3    H2 7849   7.048   0.850   5.074
 2629TIP3   OH2 7850   2.733   6.592   2.006
 2629TIP3    H1 7851   2.718   6.614   1.914
 2629TIP3    H2 7852   2.815   6.635   2.028
 2630TIP3   OH2 7853   0.644   2.483   4.440
 2630TIP3    H1 7854   0.575   2.544   4.411
 2630TIP3    H2 7855   0.602   2.429   4.506
 2631TIP3   OH2 7856   6.952   2.946   5.819
 2631TIP3    H1 7857   7.041   2.912   5.830
 2631TIP3    H2 7858   6.964   3.038   5.797
 2632TIP3   OH2 7859   5.980   2.260   3.880
 2632TIP3    H1 7860   5.941   2.228   3.799
 2632TIP3    H2 7861   5.922   2.332   3.908
 2633TIP3   OH2 7862   3.889   5.749   3.583
 2633TIP3    H1 7863   3.815   5.690   3.600
 2633TIP3    H2 7864   3.925   5.719   3.500
 2634TIP3   OH2 7865   0.857   0.493   1.597
 2634TIP3    H1 7866   0.809   0.528   1.522
 2634TIP3    H2 7867   0.795   0.499   1.670
 2635TIP3   OH2 7868   2.418   3.197  -0.004
 2635TIP3    H1 7869   2.412   3.103   0.013
 2635TIP3    H2 7870   2.507   3.220   0.021
 2636TIP3   OH2 7871   0.178   1.560   3.417
 2636TIP3    H1 7872   0.090   1.561   3.455
 2636TIP3    H2 7873   0.212   1.474   3.440
 2637TIP3   OH2 7874   0.525   6.769   1.833
 2637TIP3    H1 7875   0.602   6.825   1.841
 2637TIP3    H2 7876   0.545   6.711   1.759
 2638TIP3   OH2 7877   5.164   4.076   1.678
 2638TIP3    H1 7878   5.218   4.001   1.704
 2638TIP3    H2 7879   5.172   4.079   1.583
 2639TIP3   OH2 7880   3.889   2.316   2.754
 2639TIP3    H1 7881   3.957   2.377   2.784
 2639TIP3    H2 7882   3.936   2.236   2.731
 2640TIP3   OH2 7883   7.079   3.367   0.590
 2640TIP3    H1 7884   7.031   3.325   0.518
 2640TIP3    H2 7885   7.067   3.309   0.665
 2641TIP3   OH2 7886   4.880   5.474   0.469
 2641TIP3    H1 7887   4.826   5.404   0.432
 2641TIP3    H2 7888   4.950   5.487   0.405
 2642TIP3   OH2 7889   2.421   4.280   2.960
 2642TIP3    H1 7890   2.365   4.346   2.919
 2642TIP3    H2 7891   2.493   4.329   2.998
 2643TIP3   OH2 7892   3.657   1.139   2.068
 2643TIP3    H1 7893   3.688   1.193   1.996
 2643TIP3    H2 7894   3.613   1.200   2.127
 2644TIP3   OH2 7895   0.183   5.664   0.653
 2644TIP3    H1 7896   0.225   5.641   0.570
 2644TIP3    H2 7897   0.090   5.668   0.633
 2645TIP3   OH2 7898   4.741   2.138   2.282
 2645TIP3    H1 7899   4.692   2.208   2.239
 2645TIP3    H2 7900   4.736   2.064   2.221
 2646TIP3   OH2 7901   3.931   1.193   1.843
 2646TIP3    H1 7902   3.964   1.115   1.887
 2646TIP3    H2 7903   3.907   1.253   1.914
 2647TIP3   OH2 7904   3.872   3.657   1.732
 2647TIP3    H1 7905   3.960   3.640   1.698
 2647TIP3    H2 7906   3.828   3.707   1.663
 2648TIP3   OH2 7907   5.915   5.724   1.494
 2648TIP3    H1 7908   5.856   5.789   1.532
 2648TIP3    H2 7909   6.002   5.753   1.521
 2649TIP3   OH2 7910   5.528   6.343   2.658
 2649TIP3    H1 7911   5.517   6.255   2.694
 2649TIP3    H2 7912   5.596   6.333   2.591
 2650TIP3   OH2 7913   5.224   4.316   0.346
 2650TIP3    H1 7914   5.186   4.371   0.414
 2650TIP3    H2 7915   5.209   4.226   0.377
 2651TIP3   OH2 7916   7.036   1.466   4.134
 2651TIP3    H1 7917   7.097   1.496   4.202
 2651TIP3    H2 7918   7.081   1.485   4.052
 2652TIP3   OH2 7919   5.924   4.854   2.849
 2652TIP3    H1 7920   5.855   4.798   2.813
 2652TIP3    H2 7921   5.898   4.943   2.825
 2653TIP3   OH2 7922   4.722   3.791   5.287
 2653TIP3    H1 7923   4.786   3.756   5.348
 2653TIP3    H2 7924   4.643   3.803   5.339
 2654TIP3   OH2 7925   2.037   5.062   1.481
 2654TIP3    H1 7926   2.069   5.108   1.404
 2654TIP3    H2 7927   1.945   5.042   1.460
 2655TIP3   OH2 7928   6.580   3.444   2.786
 2655TIP3    H1 7929   6.651   3.401   2.738
 2655TIP3    H2 7930   6.502   3.425   2.734
 2656TIP3   OH2 7931   1.654   3.665   4.026
 2656TIP3    H1 7932   1.638   3.750   3.986
 2656TIP3    H2 7933   1.583   3.609   3.994
 2657TIP3   OH2 7934   4.895   0.983   4.354
 2657TIP3    H1 7935   4.883   0.975   4.260
 2657TIP3    H2 7936   4.808   0.969   4.391
 2658TIP3   OH2 7937   2.608   1.325   5.348
 2658TIP3    H1 7938   2.563   1.376   5.280
 2658TIP3    H2 7939   2.605   1.235   5.317
 2659TIP3   OH2 7940   3.109   5.405   2.417
 2659TIP3    H1 7941   3.152   5.319   2.415
 2659TIP3    H2 7942   3.066   5.408   2.503
 2660TIP3   OH2 7943   0.179   2.191   0.711
 2660TIP3    H1 7944   0.258   2.237   0.740
 2660TIP3    H2 7945   0.171   2.214   0.618
 2661TIP3   OH2 7946   0.088   0.363   5.684
 2661TIP3    H1 7947   0.111   0.376   5.591
 2661TIP3    H2 7948   0.172   0.372   5.730
 2662TIP3   OH2 7949   6.229   3.736   4.513
 2662TIP3    H1 7950   6.220   3.642   4.531
 2662TIP3    H2 7951   6.268   3.771   4.594
 2663TIP3   OH2 7952   4.039   5.180   4.025
 2663TIP3    H1 7953   4.125   5.188   3.983
 2663TIP3    H2 7954   4.012   5.090   4.007
 2664TIP3   OH2 7955   4.867   1.357   0.448
 2664TIP3    H1 7956   4.923   1.431   0.472
 2664TIP3    H2 7957   4.817   1.388   0.373
 2665TIP3   OH2 7958   2.001   6.676   4.928
 2665TIP3    H1 7959   2.086   6.649   4.963
 2665TIP3    H2 7960   2.000   6.640   4.839
 2666TIP3   OH2 7961   6.291   2.885   0.591
 2666TIP3    H1 7962   6.343   2.842   0.659
 2666TIP3    H2 7963   6.200   2.872   0.618
 2667TIP3   OH2 7964   5.693   1.471   4.493
 2667TIP3    H1 7965   5.744   1.545   4.526
 2667TIP3    H2 7966   5.755   1.420   4.442
 2668TIP3   OH2 7967   0.731   2.644   3.140
 2668TIP3    H1 7968   0.823   2.634   3.114
 2668TIP3    H2 7969   0.688   2.677   3.061
 2669TIP3   OH2 7970   6.706   4.870   0.249
 2669TIP3    H1 7971   6.717   4.776   0.265
 2669TIP3    H2 7972   6.649   4.899   0.320
 2670TIP3   OH2 7973   0.004   6.321   1.833
 2670TIP3    H1 7974   0.004   6.250   1.769
 2670TIP3    H2 7975   0.096   6.339   1.849
 2671TIP3   OH2 7976   0.635   3.931   0.129
 2671TIP3    H1 7977   0.573   3.994   0.093
 2671TIP3    H2 7978   0.706   3.985   0.164
 2672TIP3   OH2 7979   0.440   6.303   3.557
 2672TIP3    H1 7980   0.443   6.339   3.468
 2672TIP3    H2 7981   0.460   6.210   3.546
 2673TIP3   OH2 7982   3.769   3.338   2.035
 2673TIP3    H1 7983   3.726   3.401   1.977
 2673TIP3    H2 7984   3.863   3.347   2.015
 2674TIP3   OH2 7985   3.036   1.278   3.968
 2674TIP3    H1 7986   3.105   1.313   4.025
 2674TIP3    H2 7987   3.072   1.195   3.936
 2675TIP3   OH2 7988   0.533   2.270   5.526
 2675TIP3    H1 7989   0.583   2.246   5.447
 2675TIP3    H2 7990   0.447   2.295   5.493
 2676TIP3   OH2 7991   7.211   6.512   3.020
 2676TIP3    H1 7992   7.175   6.591   3.061
 2676TIP3    H2 7993   7.222   6.450   3.091
 2677TIP3   OH2 7994   6.541   4.793   2.248
 2677TIP3    H1 7995   6.625   4.815   2.289
 2677TIP3    H2 7996   6.496   4.877   2.240
 2678TIP3   OH2 7997   2.281   3.565   5.084
 2678TIP3    H1 7998   2.293   3.579   5.178
 2678TIP3    H2 7999   2.188   3.579   5.069
 2679TIP3   OH2 8000   5.601   0.296   4.460
 2679TIP3    H1 8001   5.654   0.225   4.424
 2679TIP3    H2 8002   5.665   0.360   4.492
 2680TIP3   OH2 8003   5.695   2.867   2.152
 2680TIP3    H1 8004   5.667   2.780   2.179
 2680TIP3    H2 8005   5.633   2.893   2.084
 2681TIP3   OH2 8006   3.597   4.695   0.902
 2681TIP3    H1 8007   3.543   4.760   0.857
 2681TIP3    H2 8008   3.540   4.658   0.969
 2682TIP3   OH2 8009   1.652   3.504   3.616
 2682TIP3    H1 8010   1.567   3.478   3.652
 2682TIP3    H2 8011   1.631   3.549   3.534
 2683TIP3   OH2 8012   2.900   0.478   1.801
 2683TIP3    H1 8013   2.952   0.464   1.881
 2683TIP3    H2 8014   2.854   0.560   1.816
 2684TIP3   OH2 8015   5.333   0.877   5.552
 2684TIP3    H1 8016   5.282   0.805   5.515
 2684TIP3    H2 8017   5.423   0.860   5.524
 2685TIP3   OH2 8018   4.289   4.700   3.686
 2685TIP3    H1 8019   4.315   4.627   3.630
 2685TIP3    H2 8020   4.218   4.743   3.638
 2686TIP3   OH2 8021   0.091   0.969   0.818
 2686TIP3    H1 8022   0.022   0.968   0.884
 2686TIP3    H2 8023   0.150   0.898   0.844
 2687TIP3   OH2 8024   2.482   0.665   2.854
 2687TIP3    H1 8025   2.527   0.749   2.854
 2687TIP3    H2 8026   2.525   0.614   2.923
 2688TIP3   OH2 8027   6.275   2.300   3.203
 2688TIP3    H1 8028   6.186   2.269   3.189
 2688TIP3    H2 8029   6.313   2.302   3.115
 2689TIP3   OH2 8030   5.488   0.176   4.095
 2689TIP3    H1 8031   5.521   0.087   4.109
 2689TIP3    H2 8032   5.568   0.229   4.089
 2690TIP3   OH2 8033   3.100   4.793   5.731
 2690TIP3    H1 8034   3.020   4.843   5.710
 2690TIP3    H2 8035   3.172   4.852   5.708
 2691TIP3   OH2 8036   5.291   2.417   4.734
 2691TIP3    H1 8037   5.329   2.476   4.669
 2691TIP3    H2 8038   5.280   2.334   4.688
 2692TIP3   OH2 8039   5.518   5.686   5.071
 2692TIP3    H1 8040   5.494   5.778   5.064
 2692TIP3    H2 8041   5.436   5.639   5.056
 2693TIP3   OH2 8042   3.783   1.885   4.530
 2693TIP3    H1 8043   3.853   1.941   4.496
 2693TIP3    H2 8044   3.827   1.803   4.551
 2694TIP3   OH2 8045   5.235   4.887   5.059
 2694TIP3    H1 8046   5.160   4.891   5.119
 2694TIP3    H2 8047   5.229   4.800   5.020
 2695TIP3   OH2 8048   2.466   1.524   3.608
 2695TIP3    H1 8049   2.428   1.598   3.654
 2695TIP3    H2 8050   2.395   1.491   3.552
 2696TIP3   OH2 8051   5.034   5.713   5.659
 2696TIP3    H1 8052   4.942   5.720   5.685
 2696TIP3    H2 8053   5.034   5.728   5.565
 2697TIP3   OH2 8054   3.561   4.852   1.661
 2697TIP3    H1 8055   3.524   4.939   1.677
 2697TIP3    H2 8056   3.512   4.794   1.719
 2698TIP3   OH2 8057   1.789   1.944   5.609
 2698TIP3    H1 8058   1.836   1.865   5.639
 2698TIP3    H2 8059   1.852   2.015   5.622
 2699TIP3   OH2 8060   6.932   4.229   5.525
 2699TIP3    H1 8061   7.012   4.186   5.554
 2699TIP3    H2 8062   6.874   4.225   5.601
 2700TIP3   OH2 8063   6.500   6.509   0.225
 2700TIP3    H1 8064   6.478   6.462   0.145
 2700TIP3    H2 8065   6.444   6.470   0.292
 2701TIP3   OH2 8066   2.971   2.917   3.625
 2701TIP3    H1 8067   2.886   2.933   3.585
 2701TIP3    H2 8068   3.034   2.956   3.564
 2702TIP3   OH2 8069   6.675   2.881   0.425
 2702TIP3    H1 8070   6.581   2.870   0.437
 2702TIP3    H2 8071   6.690   2.975   0.435
 2703TIP3   OH2 8072   3.302   2.523   2.727
 2703TIP3    H1 8073   3.310   2.546   2.820
 2703TIP3    H2 8074   3.389   2.493   2.702
 2704TIP3   OH2 8075   5.443   0.760   0.270
 2704TIP3    H1 8076   5.447   0.853   0.250
 2704TIP3    H2 8077   5.419   0.756   0.362
 2705TIP3   OH2 8078   0.712   4.077   4.970
 2705TIP3    H1 8079   0.638   4.015   4.973
 2705TIP3    H2 8080   0.686   4.142   4.906
 2706TIP3   OH2 8081   0.515   3.344   2.878
 2706TIP3    H1 8082   0.528   3.413   2.813
 2706TIP3    H2 8083   0.426   3.359   2.911
 2707TIP3   OH2 8084   5.656   5.170   4.254
 2707TIP3    H1 8085   5.732   5.117   4.230
 2707TIP3    H2 8086   5.687   5.261   4.249
 2708TIP3   OH2 8087   0.179   0.706   2.834
 2708TIP3    H1 8088   0.212   0.624   2.796
 2708TIP3    H2 8089   0.085   0.704   2.816
 2709TIP3   OH2 8090   3.653   5.592   3.627
 2709TIP3    H1 8091   3.621   5.531   3.561
 2709TIP3    H2 8092   3.639   5.546   3.710
 2710TIP3   OH2 8093   0.453   0.445   2.022
 2710TIP3    H1 8094   0.457   0.533   2.061
 2710TIP3    H2 8095   0.528   0.399   2.058
 2711TIP3   OH2 8096   4.810   0.916   3.374
 2711TIP3    H1 8097   4.744   0.881   3.314
 2711TIP3    H2 8098   4.780   1.005   3.394
 2712TIP3   OH2 8099   3.962   4.523   1.308
 2712TIP3    H1 8100   4.046   4.486   1.283
 2712TIP3    H2 8101   3.921   4.455   1.362
 2713TIP3   OH2 8102   0.848   5.394   2.021
 2713TIP3    H1 8103   0.821   5.334   2.091
 2713TIP3    H2 8104   0.942   5.382   2.013
 2714TIP3   OH2 8105   1.235   5.042   2.267
 2714TIP3    H1 8106   1.206   5.121   2.312
 2714TIP3    H2 8107   1.291   4.997   2.331
 2715TIP3   OH2 8108   6.037   4.665   2.657
 2715TIP3    H1 8109   6.075   4.717   2.585
 2715TIP3    H2 8110   6.028   4.728   2.729
 2716TIP3   OH2 8111   6.385   0.168   5.158
 2716TIP3    H1 8112   6.344   0.082   5.166
 2716TIP3    H2 8113   6.477   0.149   5.141
 2717TIP3   OH2 8114   4.314   4.359   3.154
 2717TIP3    H1 8115   4.308   4.454   3.145
 2717TIP3    H2 8116   4.255   4.326   3.086
 2718TIP3   OH2 8117   3.599   6.549   2.370
 2718TIP3    H1 8118   3.664   6.495   2.325
 2718TIP3    H2 8119   3.519   6.537   2.320
 2719TIP3   OH2 8120   4.578   0.255   2.600
 2719TIP3    H1 8121   4.520   0.273   2.526
 2719TIP3    H2 8122   4.665   0.249   2.561
 2720TIP3   OH2 8123   2.017   2.174   0.909
 2720TIP3    H1 8124   2.093   2.179   0.967
 2720TIP3    H2 8125   1.948   2.136   0.964
 2721TIP3   OH2 8126   4.416   0.473   1.628
 2721TIP3    H1 8127   4.359   0.396   1.635
 2721TIP3    H2 8128   4.466   0.458   1.548
 2722TIP3   OH2 8129   1.905   3.728   2.046
 2722TIP3    H1 8130   1.919   3.638   2.014
 2722TIP3    H2 8131   1.879   3.717   2.137
 2723TIP3   OH2 8132   0.090   0.639   1.214
 2723TIP3    H1 8133   0.093   0.547   1.241
 2723TIP3    H2 8134   0.182   0.667   1.216
 2724TIP3   OH2 8135   5.898   5.322   2.618
 2724TIP3    H1 8136   5.895   5.318   2.523
 2724TIP3    H2 8137   5.909   5.415   2.638
 2725TIP3   OH2 8138   0.536   1.155   3.668
 2725TIP3    H1 8139   0.576   1.069   3.674
 2725TIP3    H2 8140   0.480   1.162   3.745
 2726TIP3   OH2 8141   4.223   3.144   3.219
 2726TIP3    H1 8142   4.272   3.076   3.266
 2726TIP3    H2 8143   4.141   3.153   3.269
 2727TIP3   OH2 8144   6.104   1.286   0.213
 2727TIP3    H1 8145   6.136   1.362   0.165
 2727TIP3    H2 8146   6.100   1.314   0.304
 2728TIP3   OH2 8147   4.351   3.408   2.125
 2728TIP3    H1 8148   4.405   3.416   2.046
 2728TIP3    H2 8149   4.389   3.471   2.187
 2729TIP3   OH2 8150   5.099   2.220   1.806
 2729TIP3    H1 8151   5.158   2.194   1.735
 2729TIP3    H2 8152   5.023   2.260   1.762
 2730TIP3   OH2 8153   5.980   6.779   2.366
 2730TIP3    H1 8154   6.030   6.726   2.428
 2730TIP3    H2 8155   5.926   6.836   2.421
 2731TIP3   OH2 8156   6.558   0.744   2.394
 2731TIP3    H1 8157   6.645   0.710   2.417
 2731TIP3    H2 8158   6.521   0.679   2.335
 2732TIP3   OH2 8159   0.429   6.741   0.992
 2732TIP3    H1 8160   0.465   6.702   0.912
 2732TIP3    H2 8161   0.429   6.669   1.055
 2733TIP3   OH2 8162   1.368   0.229   2.339
 2733TIP3    H1 8163   1.287   0.224   2.389
 2733TIP3    H2 8164   1.370   0.318   2.304
 2734TIP3   OH2 8165   0.213   3.172   3.989
 2734TIP3    H1 8166   0.233   3.111   4.059
 2734TIP3    H2 8167   0.272   3.148   3.918
 2735TIP3   OH2 8168   4.516   2.299   3.616
 2735TIP3    H1 8169   4.456   2.287   3.543
 2735TIP3    H2 8170   4.476   2.369   3.669
 2736TIP3   OH2 8171   2.834   4.156   2.020
 2736TIP3    H1 8172   2.750   4.202   2.016
 2736TIP3    H2 8173   2.849   4.142   2.113
 2737TIP3   OH2 8174   2.917   0.570   0.061
 2737TIP3    H1 8175   2.961   0.518   0.128
 2737TIP3    H2 8176   2.834   0.597   0.102
 2738TIP3   OH2 8177   3.468   5.034   0.137
 2738TIP3    H1 8178   3.395   5.044   0.198
 2738TIP3    H2 8179   3.475   4.940   0.123
 2739TIP3   OH2 8180   5.843   2.363   3.241
 2739TIP3    H1 8181   5.882   2.280   3.267
 2739TIP3    H2 8182   5.873   2.377   3.151
 2740TIP3   OH2 8183   1.224   4.714   3.981
 2740TIP3    H1 8184   1.155   4.657   3.945
 2740TIP3    H2 8185   1.263   4.755   3.904
 2741TIP3   OH2 8186   6.216   5.340   3.305
 2741TIP3    H1 8187   6.190   5.308   3.391
 2741TIP3    H2 8188   6.262   5.422   3.323
 2742TIP3   OH2 8189   1.774   6.187   1.019
 2742TIP3    H1 8190   1.835   6.151   1.084
 2742TIP3    H2 8191   1.757   6.113   0.960
 2743TIP3   OH2 8192   0.512   5.302   1.459
 2743TIP3    H1 8193   0.538   5.394   1.451
 2743TIP3    H2 8194   0.442   5.302   1.523
 2744TIP3   OH2 8195   1.123   6.536   2.681
 2744TIP3    H1 8196   1.144   6.442   2.676
 2744TIP3    H2 8197   1.098   6.550   2.772
 2745TIP3   OH2 8198   2.373   5.601   5.168
 2745TIP3    H1 8199   2.393   5.694   5.166
 2745TIP3    H2 8200   2.278   5.597   5.181
 2746TIP3   OH2 8201   0.706   1.290   2.688
 2746TIP3    H1 8202   0.724   1.283   2.782
 2746TIP3    H2 8203   0.610   1.287   2.682
 2747TIP3   OH2 8204   5.130   4.786   0.849
 2747TIP3    H1 8205   5.069   4.771   0.776
 2747TIP3    H2 8206   5.180   4.863   0.821
 2748TIP3   OH2 8207   6.805   4.384   2.437
 2748TIP3    H1 8208   6.723   4.363   2.393
 2748TIP3    H2 8209   6.871   4.332   2.391
 2749TIP3   OH2 8210   1.625   5.574   5.214
 2749TIP3    H1 8211   1.584   5.489   5.231
 2749TIP3    H2 8212   1.557   5.624   5.167
 2750TIP3   OH2 8213   6.850   4.953   5.312
 2750TIP3    H1 8214   6.824   4.886   5.376
 2750TIP3    H2 8215   6.799   5.030   5.336
 2751TIP3   OH2 8216   5.684   6.123   2.963
 2751TIP3    H1 8217   5.726   6.037   2.953
 2751TIP3    H2 8218   5.615   6.123   2.896
 2752TIP3   OH2 8219   6.128   3.493   4.585
 2752TIP3    H1 8220   6.044   3.497   4.540
 2752TIP3    H2 8221   6.106   3.476   4.677
 2753TIP3   OH2 8222   0.261   2.088   2.455
 2753TIP3    H1 8223   0.311   2.008   2.471
 2753TIP3    H2 8224   0.250   2.128   2.541
 2754TIP3   OH2 8225   1.285   6.434   1.177
 2754TIP3    H1 8226   1.286   6.388   1.261
 2754TIP3    H2 8227   1.375   6.464   1.166
 2755TIP3   OH2 8228   4.344   4.947   3.204
 2755TIP3    H1 8229   4.397   4.906   3.273
 2755TIP3    H2 8230   4.256   4.912   3.217
 2756TIP3   OH2 8231   5.000   3.612   4.135
 2756TIP3    H1 8232   5.038   3.636   4.219
 2756TIP3    H2 8233   5.036   3.675   4.073
 2757TIP3   OH2 8234   0.119   6.162   3.536
 2757TIP3    H1 8235   0.164   6.190   3.616
 2757TIP3    H2 8236   0.036   6.209   3.539
 2758TIP3   OH2 8237   5.961   2.126   3.275
 2758TIP3    H1 8238   5.990   2.050   3.224
 2758TIP3    H2 8239   5.870   2.106   3.298
 2759TIP3   OH2 8240   4.947   6.012   5.654
 2759TIP3    H1 8241   5.002   5.935   5.662
 2759TIP3    H2 8242   4.866   5.981   5.615
 2760TIP3   OH2 8243   1.905   1.701   0.696
 2760TIP3    H1 8244   1.954   1.644   0.756
 2760TIP3    H2 8245   1.973   1.749   0.648
 2761TIP3   OH2 8246   1.651   4.993   4.722
 2761TIP3    H1 8247   1.599   4.993   4.802
 2761TIP3    H2 8248   1.647   5.083   4.690
 2762TIP3   OH2 8249   3.023   0.384   4.555
 2762TIP3    H1 8250   2.969   0.306   4.568
 2762TIP3    H2 8251   3.102   0.352   4.513
 2763TIP3   OH2 8252   5.216   0.878   4.710
 2763TIP3    H1 8253   5.272   0.953   4.690
 2763TIP3    H2 8254   5.166   0.863   4.630
 2764TIP3   OH2 8255   0.266   5.151   3.019
 2764TIP3    H1 8256   0.298   5.061   3.025
 2764TIP3    H2 8257   0.335   5.200   2.976
 2765TIP3   OH2 8258   2.269   1.856   2.431
 2765TIP3    H1 8259   2.240   1.772   2.395
 2765TIP3    H2 8260   2.203   1.919   2.401
 2766TIP3   OH2 8261   4.571   1.111   2.634
 2766TIP3    H1 8262   4.511   1.172   2.678
 2766TIP3    H2 8263   4.604   1.055   2.704
 2767TIP3   OH2 8264   2.143   4.636   1.986
 2767TIP3    H1 8265   2.228   4.680   1.993
 2767TIP3    H2 8266   2.159   4.562   1.928
 2768TIP3   OH2 8267   2.020   0.701   2.797
 2768TIP3    H1 8268   2.035   0.784   2.752
 2768TIP3    H2 8269   1.925   0.691   2.799
 2769TIP3   OH2 8270   7.153   6.030   1.301
 2769TIP3    H1 8271   7.126   5.961   1.361
 2769TIP3    H2 8272   7.115   6.005   1.217
 2770TIP3   OH2 8273   6.550   5.410   3.745
 2770TIP3    H1 8274   6.503   5.391   3.826
 2770TIP3    H2 8275   6.608   5.483   3.768
 2771TIP3   OH2 8276   5.663   0.574   1.497
 2771TIP3    H1 8277   5.657   0.669   1.482
 2771TIP3    H2 8278   5.590   0.554   1.556
 2772TIP3   OH2 8279   5.815   5.834   2.304
 2772TIP3    H1 8280   5.755   5.857   2.233
 2772TIP3    H2 8281   5.852   5.750   2.278
 2773TIP3   OH2 8282   2.162   4.014   4.905
 2773TIP3    H1 8283   2.110   4.065   4.843
 2773TIP3    H2 8284   2.119   4.028   4.989
 2774TIP3   OH2 8285   0.401   3.405   4.222
 2774TIP3    H1 8286   0.372   3.324   4.263
 2774TIP3    H2 8287   0.481   3.429   4.269
 2775TIP3   OH2 8288   3.319   5.279   1.630
 2775TIP3    H1 8289   3.378   5.349   1.657
 2775TIP3    H2 8290   3.373   5.200   1.631
 2776TIP3   OH2 8291   2.098   0.303   0.350
 2776TIP3    H1 8292   2.007   0.274   0.340
 2776TIP3    H2 8293   2.142   0.274   0.270
 2777TIP3   OH2 8294   5.380   2.679   1.481
 2777TIP3    H1 8295   5.432   2.732   1.422
 2777TIP3    H2 8296   5.326   2.743   1.529
 2778TIP3   OH2 8297   6.376   6.327   2.542
 2778TIP3    H1 8298   6.395   6.415   2.510
 2778TIP3    H2 8299   6.300   6.299   2.491
 2779TIP3   OH2 8300   6.936   0.345   4.630
 2779TIP3    H1 8301   7.015   0.398   4.634
 2779TIP3    H2 8302   6.895   0.368   4.547
 2780TIP3   OH2 8303   1.599  -0.003   1.578
 2780TIP3    H1 8304   1.591  -0.020   1.484
 2780TIP3    H2 8305   1.688   0.029   1.589
 2781TIP3   OH2 8306   0.267   6.268   3.779
 2781TIP3    H1 8307   0.261   6.359   3.808
 2781TIP3    H2 8308   0.345   6.265   3.723
 2782TIP3   OH2 8309   0.534   4.860   3.734
 2782TIP3    H1 8310   0.499   4.857   3.823
 2782TIP3    H2 8311   0.586   4.941   3.730
 2783TIP3   OH2 8312   1.731   4.128   1.665
 2783TIP3    H1 8313   1.775   4.211   1.681
 2783TIP3    H2 8314   1.763   4.070   1.734
 2784TIP3   OH2 8315   4.262   2.656   0.316
 2784TIP3    H1 8316   4.235   2.567   0.338
 2784TIP3    H2 8317   4.306   2.689   0.395
 2785TIP3   OH2 8318   1.636   2.034   2.508
 2785TIP3    H1 8319   1.572   1.967   2.486
 2785TIP3    H2 8320   1.626   2.047   2.602
 2786TIP3   OH2 8321   0.196   1.964   0.351
 2786TIP3    H1 8322   0.281   1.921   0.358
 2786TIP3    H2 8323   0.144   1.925   0.422
 2787TIP3   OH2 8324   4.696   0.976   2.401
 2787TIP3    H1 8325   4.678   0.950   2.491
 2787TIP3    H2 8326   4.635   0.923   2.349
 2788TIP3   OH2 8327   6.704   1.767   0.838
 2788TIP3    H1 8328   6.621   1.770   0.791
 2788TIP3    H2 8329   6.723   1.673   0.848
 2789TIP3   OH2 8330   1.166   4.108   2.924
 2789TIP3    H1 8331   1.241   4.163   2.902
 2789TIP3    H2 8332   1.133   4.077   2.840
 2790TIP3   OH2 8333   4.984   1.510   4.027
 2790TIP3    H1 8334   4.964   1.495   4.120
 2790TIP3    H2 8335   4.954   1.431   3.983
 2791TIP3   OH2 8336   3.914   6.049   4.869
 2791TIP3    H1 8337   3.927   6.102   4.790
 2791TIP3    H2 8338   3.958   6.098   4.938
 2792TIP3   OH2 8339   4.130   0.923   0.534
 2792TIP3    H1 8340   4.121   0.977   0.456
 2792TIP3    H2 8341   4.083   0.842   0.513
 2793TIP3   OH2 8342   5.414   2.167   4.170
 2793TIP3    H1 8343   5.333   2.217   4.171
 2793TIP3    H2 8344   5.449   2.180   4.081
 2794TIP3   OH2 8345   6.274   0.878   1.285
 2794TIP3    H1 8346   6.299   0.928   1.362
 2794TIP3    H2 8347   6.356   0.860   1.240
 2795TIP3   OH2 8348   5.461   2.081   2.095
 2795TIP3    H1 8349   5.386   2.135   2.071
 2795TIP3    H2 8350   5.511   2.070   2.014
 2796TIP3   OH2 8351   2.250   5.904   0.839
 2796TIP3    H1 8352   2.182   5.969   0.824
 2796TIP3    H2 8353   2.324   5.953   0.873
 2797TIP3   OH2 8354   1.792   0.265   5.209
 2797TIP3    H1 8355   1.871   0.304   5.173
 2797TIP3    H2 8356   1.739   0.340   5.238
 2798TIP3   OH2 8357   2.720   5.003   3.890
 2798TIP3    H1 8358   2.702   4.909   3.887
 2798TIP3    H2 8359   2.697   5.029   3.980
 2799TIP3   OH2 8360   4.836   4.548   4.682
 2799TIP3    H1 8361   4.764   4.513   4.630
 2799TIP3    H2 8362   4.877   4.470   4.721
 2800TIP3   OH2 8363   4.118   3.823   5.099
 2800TIP3    H1 8364   4.099   3.916   5.093
 2800TIP3    H2 8365   4.057   3.791   5.167
 2801TIP3   OH2 8366   1.258   4.540   4.757
 2801TIP3    H1 8367   1.316   4.507   4.826
 2801TIP3    H2 8368   1.306   4.523   4.676
 2802TIP3   OH2 8369   5.585   0.479   1.021
 2802TIP3    H1 8370   5.577   0.472   1.116
 2802TIP3    H2 8371   5.521   0.415   0.987
 2803TIP3   OH2 8372   1.850   2.952   1.100
 2803TIP3    H1 8373   1.831   2.877   1.157
 2803TIP3    H2 8374   1.831   3.029   1.155
 2804TIP3   OH2 8375   4.792   3.515   4.785
 2804TIP3    H1 8376   4.869   3.532   4.840
 2804TIP3    H2 8377   4.748   3.600   4.781
 2805TIP3   OH2 8378   0.434   6.089   0.452
 2805TIP3    H1 8379   0.525   6.073   0.475
 2805TIP3    H2 8380   0.384   6.052   0.524
 2806TIP3   OH2 8381   5.833   6.168   1.292
 2806TIP3    H1 8382   5.837   6.219   1.211
 2806TIP3    H2 8383   5.921   6.174   1.328
 2807TIP3   OH2 8384   4.240   2.342   2.576
 2807TIP3    H1 8385   4.283   2.391   2.646
 2807TIP3    H2 8386   4.312   2.299   2.530
 2808TIP3   OH2 8387   2.973   4.697   1.476
 2808TIP3    H1 8388   2.927   4.748   1.409
 2808TIP3    H2 8389   2.977   4.755   1.552
 2809TIP3   OH2 8390   1.312   4.017   5.098
 2809TIP3    H1 8391   1.386   4.076   5.085
 2809TIP3    H2 8392   1.344   3.932   5.070
 2810TIP3   OH2 8393   4.136   2.566   2.404
 2810TIP3    H1 8394   4.160   2.505   2.473
 2810TIP3    H2 8395   4.093   2.638   2.449
 2811TIP3   OH2 8396   1.078   5.018   2.054
 2811TIP3    H1 8397   1.029   5.080   2.000
 2811TIP3    H2 8398   1.138   5.072   2.104
 2812TIP3   OH2 8399   4.416   3.417   5.630
 2812TIP3    H1 8400   4.388   3.501   5.667
 2812TIP3    H2 8401   4.385   3.352   5.693
 2813TIP3   OH2 8402   1.552   2.183   5.440
 2813TIP3    H1 8403   1.467   2.156   5.406
 2813TIP3    H2 8404   1.610   2.182   5.364
 2814TIP3   OH2 8405   3.554   0.729   3.733
 2814TIP3    H1 8406   3.575   0.637   3.746
 2814TIP3    H2 8407   3.619   0.760   3.670
 2815TIP3   OH2 8408   3.382   1.933   3.491
 2815TIP3    H1 8409   3.318   2.002   3.508
 2815TIP3    H2 8410   3.445   1.972   3.431
 2816TIP3   OH2 8411   2.011   2.663   1.543
 2816TIP3    H1 8412   1.987   2.582   1.497
 2816TIP3    H2 8413   2.071   2.635   1.612
 2817TIP3   OH2 8414   0.004   2.724   2.554
 2817TIP3    H1 8415   0.096   2.725   2.526
 2817TIP3    H2 8416  -0.001   2.792   2.621
 2818TIP3   OH2 8417   2.282   0.139   4.842
 2818TIP3    H1 8418   2.362   0.185   4.817
 2818TIP3    H2 8419   2.290   0.052   4.803
 2819TIP3   OH2 8420   4.291   5.044   1.428
 2819TIP3    H1 8421   4.354   5.047   1.357
 2819TIP3    H2 8422   4.280   4.950   1.446
 2820TIP3   OH2 8423   0.890   0.625   0.205
 2820TIP3    H1 8424   0.855   0.711   0.181
 2820TIP3    H2 8425   0.964   0.613   0.145
 2821TIP3   OH2 8426   3.209   0.215   2.254
 2821TIP3    H1 8427   3.277   0.153   2.228
 2821TIP3    H2 8428   3.254   0.300   2.254
 2822TIP3   OH2 8429   6.657   0.245   2.703
 2822TIP3    H1 8430   6.572   0.284   2.684
 2822TIP3    H2 8431   6.685   0.285   2.785
 2823TIP3   OH2 8432   3.282   3.844   0.885
 2823TIP3    H1 8433   3.306   3.796   0.964
 2823TIP3    H2 8434   3.353   3.826   0.824
 2824TIP3   OH2 8435   4.966   0.962   5.316
 2824TIP3    H1 8436   4.894   0.980   5.256
 2824TIP3    H2 8437   5.044   0.987   5.267
 2825TIP3   OH2 8438   5.995   6.449   1.181
 2825TIP3    H1 8439   5.988   6.543   1.200
 2825TIP3    H2 8440   6.088   6.437   1.159
 2826TIP3   OH2 8441   5.494   1.664   4.032
 2826TIP3    H1 8442   5.525   1.588   4.082
 2826TIP3    H2 8443   5.479   1.731   4.099
 2827TIP3   OH2 8444   4.738   2.557   2.058
 2827TIP3    H1 8445   4.774   2.582   2.143
 2827TIP3    H2 8446   4.648   2.590   2.059
 2828TIP3   OH2 8447   0.299   4.704   5.669
 2828TIP3    H1 8448   0.316   4.675   5.579
 2828TIP3    H2 8449   0.235   4.642   5.702
 2829TIP3   OH2 8450   4.715   0.482   0.215
 2829TIP3    H1 8451   4.735   0.562   0.263
 2829TIP3    H2 8452   4.653   0.435   0.270
 2830TIP3   OH2 8453   3.786   1.249   5.396
 2830TIP3    H1 8454   3.791   1.332   5.348
 2830TIP3    H2 8455   3.784   1.183   5.327
 2831TIP3   OH2 8456   5.535   1.284   3.736
 2831TIP3    H1 8457   5.613   1.339   3.732
 2831TIP3    H2 8458   5.564   1.204   3.780
 2832TIP3   OH2 8459   2.626   3.760   1.851
 2832TIP3    H1 8460   2.635   3.719   1.937
 2832TIP3    H2 8461   2.543   3.727   1.818
 2833TIP3   OH2 8462   5.648   3.797   1.638
 2833TIP3    H1 8463   5.735   3.824   1.667
 2833TIP3    H2 8464   5.660   3.708   1.605
 2834TIP3   OH2 8465   2.516   4.237   2.551
 2834TIP3    H1 8466   2.427   4.207   2.572
 2834TIP3    H2 8467   2.572   4.161   2.565
 2835TIP3   OH2 8468   6.612   5.502   2.956
 2835TIP3    H1 8469   6.688   5.507   2.897
 2835TIP3    H2 8470   6.540   5.539   2.905
 2836TIP3   OH2 8471   5.694   5.174   5.059
 2836TIP3    H1 8472   5.692   5.208   5.149
 2836TIP3    H2 8473   5.731   5.086   5.068
 2837TIP3   OH2 8474   0.414   2.560   4.119
 2837TIP3    H1 8475   0.422   2.576   4.213
 2837TIP3    H2 8476   0.320   2.560   4.103
 2838TIP3   OH2 8477   5.519   0.675   3.220
 2838TIP3    H1 8478   5.484   0.714   3.300
 2838TIP3    H2 8479   5.502   0.581   3.230
 2839TIP3   OH2 8480   1.286   6.425   3.951
 2839TIP3    H1 8481   1.223   6.375   3.899
 2839TIP3    H2 8482   1.331   6.360   4.004
 2840TIP3   OH2 8483   3.300   4.672   2.914
 2840TIP3    H1 8484   3.296   4.750   2.968
 2840TIP3    H2 8485   3.351   4.609   2.965
 2841TIP3   OH2 8486   5.344   3.731   4.203
 2841TIP3    H1 8487   5.306   3.802   4.151
 2841TIP3    H2 8488   5.410   3.691   4.147
 2842TIP3   OH2 8489   2.884   1.903   4.284
 2842TIP3    H1 8490   2.815   1.948   4.331
 2842TIP3    H2 8491   2.942   1.869   4.352
 2843TIP3   OH2 8492   7.230   2.845   4.467
 2843TIP3    H1 8493   7.147   2.799   4.470
 2843TIP3    H2 8494   7.223   2.912   4.534
 2844TIP3   OH2 8495   5.095   5.437   4.659
 2844TIP3    H1 8496   5.029   5.388   4.610
 2844TIP3    H2 8497   5.046   5.477   4.731
 2845TIP3   OH2 8498   1.331   6.664   2.306
 2845TIP3    H1 8499   1.384   6.618   2.371
 2845TIP3    H2 8500   1.245   6.673   2.348
 2846TIP3   OH2 8501   1.648   0.253   4.244
 2846TIP3    H1 8502   1.700   0.218   4.172
 2846TIP3    H2 8503   1.591   0.180   4.270
 2847TIP3   OH2 8504   4.303   3.411   5.172
 2847TIP3    H1 8505   4.326   3.485   5.228
 2847TIP3    H2 8506   4.384   3.389   5.126
 2848TIP3   OH2 8507   6.368   5.955   0.647
 2848TIP3    H1 8508   6.342   5.984   0.560
 2848TIP3    H2 8509   6.407   6.032   0.688
 2849TIP3   OH2 8510   1.883   1.513   4.957
 2849TIP3    H1 8511   1.889   1.601   4.995
 2849TIP3    H2 8512   1.839   1.461   5.024
 2850TIP3   OH2 8513   1.190   2.984   2.534
 2850TIP3    H1 8514   1.163   2.985   2.626
 2850TIP3    H2 8515   1.209   3.076   2.514
 2851TIP3   OH2 8516   4.178   0.298   2.754
 2851TIP3    H1 8517   4.234   0.299   2.832
 2851TIP3    H2 8518   4.200   0.216   2.710
 2852TIP3   OH2 8519   6.983   6.216   2.772
 2852TIP3    H1 8520   7.005   6.148   2.835
 2852TIP3    H2 8521   6.939   6.283   2.824
 2853TIP3   OH2 8522   0.828   1.280   3.832
 2853TIP3    H1 8523   0.796   1.309   3.747
 2853TIP3    H2 8524   0.808   1.187   3.835
 2854TIP3   OH2 8525   0.670   4.504   2.040
 2854TIP3    H1 8526   0.694   4.521   2.131
 2854TIP3    H2 8527   0.692   4.411   2.027
 2855TIP3   OH2 8528   4.628   0.845   5.357
 2855TIP3    H1 8529   4.542   0.879   5.381
 2855TIP3    H2 8530   4.657   0.900   5.284
 2856TIP3   OH2 8531   2.347   0.126   1.019
 2856TIP3    H1 8532   2.433   0.097   0.987
 2856TIP3    H2 8533   2.284   0.076   0.967
 2857TIP3   OH2 8534   2.051   3.166   2.048
 2857TIP3    H1 8535   2.070   3.192   1.958
 2857TIP3    H2 8536   2.032   3.073   2.044
 2858TIP3   OH2 8537   0.967   1.348   2.350
 2858TIP3    H1 8538   0.889   1.338   2.294
 2858TIP3    H2 8539   0.971   1.267   2.400
 2859TIP3   OH2 8540   2.591   1.414   2.877
 2859TIP3    H1 8541   2.523   1.459   2.927
 2859TIP3    H2 8542   2.545   1.347   2.828
 2860TIP3   OH2 8543   3.432   2.989   3.528
 2860TIP3    H1 8544   3.357   3.047   3.519
 2860TIP3    H2 8545   3.399   2.903   3.499
 2861TIP3   OH2 8546   2.359   1.638   2.829
 2861TIP3    H1 8547   2.367   1.588   2.910
 2861TIP3    H2 8548   2.286   1.597   2.782
 2862TIP3   OH2 8549   6.575   1.306   3.258
 2862TIP3    H1 8550   6.580   1.309   3.162
 2862TIP3    H2 8551   6.581   1.398   3.285
 2863TIP3   OH2 8552   2.352   5.244   4.411
 2863TIP3    H1 8553   2.442   5.275   4.404
 2863TIP3    H2 8554   2.332   5.207   4.325
 2864TIP3   OH2 8555   5.792   1.876   5.225
 2864TIP3    H1 8556   5.739   1.797   5.212
 2864TIP3    H2 8557   5.850   1.854   5.297
 2865TIP3   OH2 8558   1.079   1.696   1.370
 2865TIP3    H1 8559   1.093   1.786   1.398
 2865TIP3    H2 8560   1.138   1.685   1.295
 2866TIP3   OH2 8561   6.115   1.122   4.776
 2866TIP3    H1 8562   6.199   1.143   4.735
 2866TIP3    H2 8563   6.051   1.174   4.726
 2867TIP3   OH2 8564   4.694   2.293   5.289
 2867TIP3    H1 8565   4.724   2.381   5.263
 2867TIP3    H2 8566   4.715   2.287   5.382
 2868TIP3   OH2 8567   5.557   2.873   5.758
 2868TIP3    H1 8568   5.587   2.825   5.835
 2868TIP3    H2 8569   5.552   2.807   5.689
 2869TIP3   OH2 8570   0.172   1.677   1.763
 2869TIP3    H1 8571   0.134   1.604   1.812
 2869TIP3    H2 8572   0.261   1.647   1.742
 2870TIP3   OH2 8573   6.098   3.660   3.968
 2870TIP3    H1 8574   6.023   3.624   3.921
 2870TIP3    H2 8575   6.080   3.641   4.060
 2871TIP3   OH2 8576   0.990   2.950   3.143
 2871TIP3    H1 8577   0.974   2.856   3.135
 2871TIP3    H2 8578   0.902   2.989   3.147
 2872TIP3   OH2 8579   2.109   1.336   3.043
 2872TIP3    H1 8580   2.164   1.278   2.990
 2872TIP3    H2 8581   2.135   1.318   3.134
 2873TIP3   OH2 8582   3.937   6.608   2.884
 2873TIP3    H1 8583   3.947   6.699   2.912
 2873TIP3    H2 8584   3.932   6.611   2.789
 2874TIP3   OH2 8585   0.643   4.821   1.474
 2874TIP3    H1 8586   0.603   4.847   1.557
 2874TIP3    H2 8587   0.681   4.902   1.439
 2875TIP3   OH2 8588   1.844   0.088   1.599
 2875TIP3    H1 8589   1.899   0.143   1.655
 2875TIP3    H2 8590   1.882   0.095   1.512
 2876TIP3   OH2 8591   1.691   2.044   0.822
 2876TIP3    H1 8592   1.725   2.114   0.766
 2876TIP3    H2 8593   1.596   2.049   0.812
 2877TIP3   OH2 8594   3.747   4.795   3.122
 2877TIP3    H1 8595   3.790   4.880   3.115
 2877TIP3    H2 8596   3.660   4.808   3.086
 2878TIP3   OH2 8597   2.448   6.346   0.960
 2878TIP3    H1 8598   2.377   6.392   0.915
 2878TIP3    H2 8599   2.528   6.383   0.920
 2879TIP3   OH2 8600   3.062   5.804   5.119
 2879TIP3    H1 8601   3.124   5.802   5.046
 2879TIP3    H2 8602   3.030   5.714   5.125
 2880TIP3   OH2 8603   4.719   2.348   3.954
 2880TIP3    H1 8604   4.712   2.388   3.868
 2880TIP3    H2 8605   4.813   2.346   3.972
 2881TIP3   OH2 8606   0.267   2.796   5.564
 2881TIP3    H1 8607   0.234   2.885   5.551
 2881TIP3    H2 8608   0.306   2.772   5.480
 2882TIP3   OH2 8609   2.897   4.109   0.050
 2882TIP3    H1 8610   2.885   4.118   0.145
 2882TIP3    H2 8611   2.813   4.133   0.012
 2883TIP3   OH2 8612   3.770   3.854   3.469
 2883TIP3    H1 8613   3.685   3.847   3.511
 2883TIP3    H2 8614   3.756   3.818   3.381
 2884TIP3   OH2 8615   3.054   3.116   5.062
 2884TIP3    H1 8616   3.052   3.191   5.123
 2884TIP3    H2 8617   3.113   3.054   5.105
 2885TIP3   OH2 8618   4.552   5.933   4.057
 2885TIP3    H1 8619   4.597   5.902   3.978
 2885TIP3    H2 8620   4.513   5.855   4.095
 2886TIP3   OH2 8621   2.951   4.349   5.856
 2886TIP3    H1 8622   2.952   4.256   5.831
 2886TIP3    H2 8623   2.881   4.386   5.803
 2887TIP3   OH2 8624   6.150   4.940   4.774
 2887TIP3    H1 8625   6.153   5.016   4.716
 2887TIP3    H2 8626   6.106   4.971   4.852
 2888TIP3   OH2 8627   5.254   2.658   0.602
 2888TIP3    H1 8628   5.263   2.581   0.657
 2888TIP3    H2 8629   5.212   2.627   0.522
 2889TIP3   OH2 8630   6.220   3.898   4.309
 2889TIP3    H1 8631   6.196   3.986   4.338
 2889TIP3    H2 8632   6.241   3.851   4.389
 2890TIP3   OH2 8633   4.441   2.409   5.677
 2890TIP3    H1 8634   4.374   2.439   5.615
 2890TIP3    H2 8635   4.517   2.391   5.623
 2891TIP3   OH2 8636   0.843   1.324   4.522
 2891TIP3    H1 8637   0.769   1.276   4.560
 2891TIP3    H2 8638   0.893   1.258   4.474
 2892TIP3   OH2 8639   6.508   1.947   2.673
 2892TIP3    H1 8640   6.445   1.988   2.732
 2892TIP3    H2 8641   6.459   1.934   2.591
 2893TIP3   OH2 8642   0.882   3.882   4.091
 2893TIP3    H1 8643   0.848   3.930   4.015
 2893TIP3    H2 8644   0.811   3.823   4.115
 2894TIP3   OH2 8645   4.964   5.033   3.396
 2894TIP3    H1 8646   4.890   4.979   3.366
 2894TIP3    H2 8647   4.960   5.027   3.492
 2895TIP3   OH2 8648   3.744   4.499   1.670
 2895TIP3    H1 8649   3.781   4.488   1.757
 2895TIP3    H2 8650   3.792   4.437   1.615
 2896TIP3   OH2 8651   1.105   4.040   0.080
 2896TIP3    H1 8652   1.158   4.115   0.055
 2896TIP3    H2 8653   1.098   4.045   0.175
 2897TIP3   OH2 8654   4.196   3.208   4.428
 2897TIP3    H1 8655   4.171   3.167   4.510
 2897TIP3    H2 8656   4.276   3.256   4.448
 2898TIP3   OH2 8657   2.332   3.205   3.209
 2898TIP3    H1 8658   2.353   3.295   3.184
 2898TIP3    H2 8659   2.242   3.192   3.180
 2899TIP3   OH2 8660   5.822   3.270   5.056
 2899TIP3    H1 8661   5.813   3.192   5.001
 2899TIP3    H2 8662   5.875   3.330   5.004
 2900TIP3   OH2 8663   2.521   3.357   3.995
 2900TIP3    H1 8664   2.507   3.323   3.907
 2900TIP3    H2 8665   2.598   3.413   3.987
 2901TIP3   OH2 8666   5.702   5.341   1.904
 2901TIP3    H1 8667   5.708   5.251   1.935
 2901TIP3    H2 8668   5.668   5.390   1.979
 2902TIP3   OH2 8669   5.591   3.993   4.272
 2902TIP3    H1 8670   5.543   3.933   4.329
 2902TIP3    H2 8671   5.541   3.995   4.191
 2903TIP3   OH2 8672   5.390   4.266   4.332
 2903TIP3    H1 8673   5.430   4.314   4.260
 2903TIP3    H2 8674   5.426   4.177   4.324
 2904TIP3   OH2 8675   7.022   3.480   1.823
 2904TIP3    H1 8676   7.009   3.535   1.746
 2904TIP3    H2 8677   7.081   3.530   1.879
 2905TIP3   OH2 8678   0.368   5.370   1.201
 2905TIP3    H1 8679   0.440   5.309   1.218
 2905TIP3    H2 8680   0.289   5.320   1.223
 2906TIP3   OH2 8681   2.579   4.608   1.896
 2906TIP3    H1 8682   2.638   4.536   1.919
 2906TIP3    H2 8683   2.588   4.616   1.801
 2907TIP3   OH2 8684   1.462   6.582   5.234
 2907TIP3    H1 8685   1.463   6.526   5.156
 2907TIP3    H2 8686   1.371   6.608   5.243
 2908TIP3   OH2 8687   0.902   0.672   3.359
 2908TIP3    H1 8688   0.913   0.653   3.266
 2908TIP3    H2 8689   0.989   0.701   3.387
 2909TIP3   OH2 8690   4.049   2.288   1.393
 2909TIP3    H1 8691   4.057   2.221   1.325
 2909TIP3    H2 8692   4.016   2.241   1.469
 2910TIP3   OH2 8693   5.274   6.367   0.786
 2910TIP3    H1 8694   5.282   6.400   0.876
 2910TIP3    H2 8695   5.364   6.348   0.759
 2911TIP3   OH2 8696   2.200   1.049   2.930
 2911TIP3    H1 8697   2.196   0.993   3.007
 2911TIP3    H2 8698   2.203   0.987   2.856
 2912TIP3   OH2 8699   1.072   1.850   2.500
 2912TIP3    H1 8700   1.130   1.845   2.576
 2912TIP3    H2 8701   0.984   1.850   2.536
 2913TIP3   OH2 8702   5.750   1.679   4.662
 2913TIP3    H1 8703   5.745   1.680   4.757
 2913TIP3    H2 8704   5.782   1.766   4.638
 2914TIP3   OH2 8705   1.784   4.292   0.555
 2914TIP3    H1 8706   1.785   4.196   0.557
 2914TIP3    H2 8707   1.762   4.318   0.644
 2915TIP3   OH2 8708   2.525   4.914   1.478
 2915TIP3    H1 8709   2.607   4.951   1.512
 2915TIP3    H2 8710   2.459   4.980   1.499
 2916TIP3   OH2 8711   2.898   1.694   4.718
 2916TIP3    H1 8712   2.897   1.613   4.667
 2916TIP3    H2 8713   2.925   1.668   4.806
 2917TIP3   OH2 8714   0.237   5.608   2.050
 2917TIP3    H1 8715   0.197   5.642   2.130
 2917TIP3    H2 8716   0.186   5.647   1.979
 2918TIP3   OH2 8717   3.703   5.799   4.419
 2918TIP3    H1 8718   3.790   5.792   4.459
 2918TIP3    H2 8719   3.720   5.821   4.327
 2919TIP3   OH2 8720   0.846   6.674   3.164
 2919TIP3    H1 8721   0.835   6.680   3.069
 2919TIP3    H2 8722   0.763   6.705   3.200
 2920TIP3   OH2 8723   3.202   2.246   1.589
 2920TIP3    H1 8724   3.256   2.167   1.587
 2920TIP3    H2 8725   3.164   2.247   1.677
 2921TIP3   OH2 8726   1.224   2.672   4.185
 2921TIP3    H1 8727   1.155   2.735   4.166
 2921TIP3    H2 8728   1.178   2.595   4.219
 2922TIP3   OH2 8729   6.986   2.299   5.776
 2922TIP3    H1 8730   7.023   2.387   5.788
 2922TIP3    H2 8731   6.983   2.262   5.864
 2923TIP3   OH2 8732   1.212   4.175   5.493
 2923TIP3    H1 8733   1.147   4.116   5.530
 2923TIP3    H2 8734   1.279   4.117   5.456
 2924TIP3   OH2 8735   4.986   5.983   1.380
 2924TIP3    H1 8736   5.045   5.909   1.364
 2924TIP3    H2 8737   5.040   6.060   1.362
 2925TIP3   OH2 8738   1.240   0.117   1.385
 2925TIP3    H1 8739   1.286   0.186   1.433
 2925TIP3    H2 8740   1.161   0.160   1.351
 2926TIP3   OH2 8741   2.739   3.959   0.672
 2926TIP3    H1 8742   2.797   3.933   0.601
 2926TIP3    H2 8743   2.661   3.993   0.628
 2927TIP3   OH2 8744   2.971   5.586   3.136
 2927TIP3    H1 8745   2.889   5.599   3.184
 2927TIP3    H2 8746   3.007   5.504   3.171
 2928TIP3   OH2 8747   2.506   0.813   4.360
 2928TIP3    H1 8748   2.598   0.836   4.372
 2928TIP3    H2 8749   2.487   0.751   4.430
 2929TIP3   OH2 8750   4.759   5.963   4.392
 2929TIP3    H1 8751   4.683   6.016   4.368
 2929TIP3    H2 8752   4.742   5.878   4.352
 2930TIP3   OH2 8753   3.456   1.450   5.259
 2930TIP3    H1 8754   3.416   1.366   5.279
 2930TIP3    H2 8755   3.499   1.437   5.175
 2931TIP3   OH2 8756   2.275   0.336   2.852
 2931TIP3    H1 8757   2.320   0.252   2.846
 2931TIP3    H2 8758   2.335   0.392   2.901
 2932TIP3   OH2 8759   0.355   4.198   2.283
 2932TIP3    H1 8760   0.372   4.195   2.189
 2932TIP3    H2 8761   0.264   4.168   2.292
 2933TIP3   OH2 8762   0.345   0.237   0.601
 2933TIP3    H1 8763   0.313   0.275   0.519
 2933TIP3    H2 8764   0.383   0.153   0.574
 2934TIP3   OH2 8765   4.332   1.739   4.436
 2934TIP3    H1 8766   4.286   1.823   4.446
 2934TIP3    H2 8767   4.403   1.758   4.376
 2935TIP3   OH2 8768   6.980   2.430   1.563
 2935TIP3    H1 8769   6.949   2.421   1.473
 2935TIP3    H2 8770   6.916   2.487   1.605
 2936TIP3   OH2 8771   1.667   6.348   3.942
 2936TIP3    H1 8772   1.594   6.400   3.975
 2936TIP3    H2 8773   1.629   6.262   3.926
 2937TIP3   OH2 8774   6.945   1.426   1.989
 2937TIP3    H1 8775   6.940   1.363   2.061
 2937TIP3    H2 8776   6.925   1.374   1.911
 2938TIP3   OH2 8777   2.987   4.065   2.593
 2938TIP3    H1 8778   2.972   4.136   2.531
 2938TIP3    H2 8779   2.925   4.083   2.665
 2939TIP3   OH2 8780   1.127   1.719   0.327
 2939TIP3    H1 8781   1.063   1.762   0.384
 2939TIP3    H2 8782   1.194   1.785   0.313
 2940TIP3   OH2 8783   1.710   4.477   2.836
 2940TIP3    H1 8784   1.745   4.498   2.749
 2940TIP3    H2 8785   1.624   4.519   2.838
 2941TIP3   OH2 8786   5.103   4.074   5.622
 2941TIP3    H1 8787   5.149   4.102   5.701
 2941TIP3    H2 8788   5.169   4.077   5.553
 2942TIP3   OH2 8789   3.366   3.941   1.353
 2942TIP3    H1 8790   3.456   3.972   1.352
 2942TIP3    H2 8791   3.327   3.977   1.273
 2943TIP3   OH2 8792   1.513   6.638   1.096
 2943TIP3    H1 8793   1.570   6.592   1.034
 2943TIP3    H2 8794   1.469   6.704   1.044
 2944TIP3   OH2 8795   4.465   2.708   0.027
 2944TIP3    H1 8796   4.447   2.738   0.116
 2944TIP3    H2 8797   4.442   2.782  -0.029
 2945TIP3   OH2 8798   0.634   5.686   0.176
 2945TIP3    H1 8799   0.721   5.647   0.169
 2945TIP3    H2 8800   0.650   5.780   0.187
 2946TIP3   OH2 8801   1.477   4.495   0.844
 2946TIP3    H1 8802   1.457   4.571   0.790
 2946TIP3    H2 8803   1.445   4.420   0.794
 2947TIP3   OH2 8804   1.052   3.744   4.554
 2947TIP3    H1 8805   1.110   3.742   4.630
 2947TIP3    H2 8806   1.104   3.786   4.485
 2948TIP3   OH2 8807   2.484   3.960   3.573
 2948TIP3    H1 8808   2.482   3.916   3.488
 2948TIP3    H2 8809   2.393   3.984   3.590
 2949TIP3   OH2 8810   4.481   4.106   5.364
 2949TIP3    H1 8811   4.469   4.084   5.272
 2949TIP3    H2 8812   4.574   4.127   5.372
 2950TIP3   OH2 8813   1.015   0.210   1.251
 2950TIP3    H1 8814   0.951   0.220   1.180
 2950TIP3    H2 8815   1.043   0.299   1.271
 2951TIP3   OH2 8816   1.027   4.441   1.709
 2951TIP3    H1 8817   0.998   4.353   1.731
 2951TIP3    H2 8818   0.961   4.473   1.647
 2952TIP3   OH2 8819   1.114   4.747   5.381
 2952TIP3    H1 8820   1.183   4.779   5.323
 2952TIP3    H2 8821   1.123   4.652   5.379
 2953TIP3   OH2 8822   1.077   1.415   3.742
 2953TIP3    H1 8823   0.989   1.392   3.772
 2953TIP3    H2 8824   1.121   1.331   3.731
 2954TIP3   OH2 8825   4.633   3.796   2.535
 2954TIP3    H1 8826   4.676   3.881   2.521
 2954TIP3    H2 8827   4.539   3.816   2.535
 2955TIP3   OH2 8828   2.212   4.752   5.116
 2955TIP3    H1 8829   2.281   4.773   5.179
 2955TIP3    H2 8830   2.256   4.754   5.031
 2956TIP3   OH2 8831   3.173   5.036   2.690
 2956TIP3    H1 8832   3.174   4.988   2.773
 2956TIP3    H2 8833   3.086   5.019   2.654
 2957TIP3   OH2 8834   3.491   2.023   3.768
 2957TIP3    H1 8835   3.484   1.989   3.679
 2957TIP3    H2 8836   3.437   1.963   3.820
 2958TIP3   OH2 8837   2.763   2.103   3.271
 2958TIP3    H1 8838   2.715   2.024   3.296
 2958TIP3    H2 8839   2.839   2.072   3.223
 2959TIP3   OH2 8840   3.398   5.184   2.768
 2959TIP3    H1 8841   3.377   5.256   2.827
 2959TIP3    H2 8842   3.325   5.123   2.778
 2960TIP3   OH2 8843   6.232   2.620   5.410
 2960TIP3    H1 8844   6.262   2.677   5.481
 2960TIP3    H2 8845   6.186   2.679   5.350
 2961TIP3   OH2 8846   5.385   4.611   0.889
 2961TIP3    H1 8847   5.308   4.660   0.917
 2961TIP3    H2 8848   5.355   4.559   0.815
 2962TIP3   OH2 8849   0.666   0.531   1.781
 2962TIP3    H1 8850   0.625   0.616   1.794
 2962TIP3    H2 8851   0.595   0.476   1.745
 2963TIP3   OH2 8852   1.715   2.521   3.594
 2963TIP3    H1 8853   1.669   2.444   3.562
 2963TIP3    H2 8854   1.683   2.531   3.684
 2964TIP3   OH2 8855   2.554   6.140   5.026
 2964TIP3    H1 8856   2.620   6.110   4.964
 2964TIP3    H2 8857   2.589   6.115   5.112
 2965TIP3   OH2 8858   1.159   6.388   2.441
 2965TIP3    H1 8859   1.095   6.447   2.401
 2965TIP3    H2 8860   1.108   6.314   2.473
 2966TIP3   OH2 8861   2.865   2.036   1.381
 2966TIP3    H1 8862   2.866   2.069   1.291
 2966TIP3    H2 8863   2.817   1.954   1.376
 2967TIP3   OH2 8864   5.104   5.625   4.166
 2967TIP3    H1 8865   5.114   5.608   4.260
 2967TIP3    H2 8866   5.066   5.545   4.131
 2968TIP3   OH2 8867   4.381   3.418   4.038
 2968TIP3    H1 8868   4.286   3.412   4.039
 2968TIP3    H2 8869   4.409   3.343   3.986
 2969TIP3   OH2 8870   6.915   2.268   4.898
 2969TIP3    H1 8871   6.865   2.188   4.912
 2969TIP3    H2 8872   6.887   2.299   4.812
 2970TIP3   OH2 8873   0.481   3.085   0.592
 2970TIP3    H1 8874   0.506   2.993   0.583
 2970TIP3    H2 8875   0.506   3.124   0.509
 2971TIP3   OH2 8876   6.896   0.070   5.849
 2971TIP3    H1 8877   6.951   0.145   5.872
 2971TIP3    H2 8878   6.841   0.057   5.927
 2972TIP3   OH2 8879   4.884   4.112   3.356
 2972TIP3    H1 8880   4.809   4.091   3.411
 2972TIP3    H2 8881   4.864   4.072   3.272
 2973TIP3   OH2 8882   4.115   5.034   1.057
 2973TIP3    H1 8883   4.095   4.954   1.105
 2973TIP3    H2 8884   4.130   5.100   1.124
 2974TIP3   OH2 8885   5.996   1.501   2.958
 2974TIP3    H1 8886   5.929   1.516   3.025
 2974TIP3    H2 8887   5.962   1.428   2.906
 2975TIP3   OH2 8888   4.562   0.744   1.363
 2975TIP3    H1 8889   4.574   0.837   1.342
 2975TIP3    H2 8890   4.470   0.737   1.391
 2976TIP3   OH2 8891   7.082   0.632   5.558
 2976TIP3    H1 8892   7.027   0.610   5.632
 2976TIP3    H2 8893   7.021   0.645   5.485
 2977TIP3   OH2 8894   1.727   4.626   3.069
 2977TIP3    H1 8895   1.744   4.577   2.989
 2977TIP3    H2 8896   1.636   4.655   3.059
 2978TIP3   OH2 8897   6.860   1.847   4.410
 2978TIP3    H1 8898   6.802   1.921   4.390
 2978TIP3    H2 8899   6.829   1.815   4.494
 2979TIP3   OH2 8900   1.204   3.075   3.431
 2979TIP3    H1 8901   1.133   3.137   3.416
 2979TIP3    H2 8902   1.238   3.055   3.343
 2980TIP3   OH2 8903   2.797   5.077   0.058
 2980TIP3    H1 8904   2.791   4.988   0.094
 2980TIP3    H2 8905   2.740   5.129   0.115
 2981TIP3   OH2 8906   0.842   6.445   0.653
 2981TIP3    H1 8907   0.835   6.363   0.702
 2981TIP3    H2 8908   0.936   6.456   0.639
 2982TIP3   OH2 8909   2.068   4.318   3.052
 2982TIP3    H1 8910   2.144   4.272   3.088
 2982TIP3    H2 8911   2.063   4.399   3.103
 2983TIP3   OH2 8912   6.673   2.122   1.487
 2983TIP3    H1 8913   6.680   2.142   1.394
 2983TIP3    H2 8914   6.605   2.056   1.493
 2984TIP3   OH2 8915   5.876   4.948   1.613
 2984TIP3    H1 8916   5.948   4.987   1.662
 2984TIP3    H2 8917   5.917   4.899   1.542
 2985TIP3   OH2 8918   6.265   6.047   2.440
 2985TIP3    H1 8919   6.206   6.102   2.491
 2985TIP3    H2 8920   6.242   5.957   2.463
 2986TIP3   OH2 8921   3.249   5.798   4.885
 2986TIP3    H1 8922   3.278   5.710   4.861
 2986TIP3    H2 8923   3.269   5.852   4.809
 2987TIP3   OH2 8924   0.374   2.515   3.361
 2987TIP3    H1 8925   0.431   2.443   3.388
 2987TIP3    H2 8926   0.424   2.594   3.383
 2988TIP3   OH2 8927   7.130   0.609   2.292
 2988TIP3    H1 8928   7.148   0.589   2.200
 2988TIP3    H2 8929   7.089   0.696   2.290
 2989TIP3   OH2 8930   5.661   2.655   0.542
 2989TIP3    H1 8931   5.638   2.565   0.523
 2989TIP3    H2 8932   5.720   2.650   0.617
 2990TIP3   OH2 8933   4.979   5.694   5.171
 2990TIP3    H1 8934   5.004   5.606   5.142
 2990TIP3    H2 8935   4.989   5.749   5.093
 2991TIP3   OH2 8936   7.086   2.514   4.741
 2991TIP3    H1 8937   6.995   2.494   4.764
 2991TIP3    H2 8938   7.096   2.607   4.763
 2992TIP3   OH2 8939   2.141   6.752   5.441
 2992TIP3    H1 8940   2.079   6.759   5.514
 2992TIP3    H2 8941   2.207   6.691   5.472
 2993TIP3   OH2 8942   2.247   5.118   2.006
 2993TIP3    H1 8943   2.338   5.110   1.978
 2993TIP3    H2 8944   2.252   5.164   2.090
 2994TIP3   OH2 8945   3.778   6.388   2.227
 2994TIP3    H1 8946   3.858   6.343   2.254
 2994TIP3    H2 8947   3.711   6.319   2.224
 2995TIP3   OH2 8948   5.326   4.197   5.790
 2995TIP3    H1 8949   5.340   4.117   5.839
 2995TIP3    H2 8950   5.348   4.267   5.852
 2996TIP3   OH2 8951   4.880   6.407   1.930
 2996TIP3    H1 8952   4.787   6.388   1.917
 2996TIP3    H2 8953   4.884   6.501   1.948
 2997TIP3   OH2 8954   3.306   4.182   0.139
 2997TIP3    H1 8955   3.396   4.171   0.109
 2997TIP3    H2 8956   3.260   4.107   0.103
 2998TIP3   OH2 8957   6.905   4.768   1.480
 2998TIP3    H1 8958   6.904   4.824   1.558
 2998TIP3    H2 8959   6.983   4.797   1.432
 2999TIP3   OH2 8960   4.472   1.982   1.932
 2999TIP3    H1 8961   4.491   1.987   1.838
 2999TIP3    H2 8962   4.378   1.964   1.936
 3000TIP3   OH2 8963   4.943   2.973   0.805
 3000TIP3    H1 8964   5.008   3.013   0.863
 3000TIP3    H2 8965   4.976   2.884   0.790
 3001TIP3   OH2 8966   5.845   3.182   3.201
 3001TIP3    H1 8967   5.862   3.239   3.127
 3001TIP3    H2 8968   5.930   3.141   3.220
 3002TIP3   OH2 8969   1.544   3.276   1.435
 3002TIP3    H1 8970   1.591   3.337   1.492
 3002TIP3    H2 8971   1.495   3.220   1.495
 3003TIP3   OH2 8972   2.053   2.414   4.759
 3003TIP3    H1 8973   2.132   2.438   4.807
 3003TIP3    H2 8974   2.039   2.322   4.780
 3004TIP3   OH2 8975   2.067   4.025   1.100
 3004TIP3    H1 8976   2.140   4.076   1.136
 3004TIP3    H2 8977   1.989   4.065   1.138
 3005TIP3   OH2 8978   2.713   6.650   1.474
 3005TIP3    H1 8979   2.673   6.630   1.390
 3005TIP3    H2 8980   2.744   6.741   1.465
 3006TIP3   OH2 8981   6.190   4.141   4.452
 3006TIP3    H1 8982   6.271   4.148   4.402
 3006TIP3    H2 8983   6.138   4.217   4.425
 3007TIP3   OH2 8984   3.739   2.302   5.224
 3007TIP3    H1 8985   3.796   2.351   5.283
 3007TIP3    H2 8986   3.775   2.318   5.137
 3008TIP3   OH2 8987   0.710   0.773   2.863
 3008TIP3    H1 8988   0.642   0.823   2.908
 3008TIP3    H2 8989   0.698   0.683   2.894
 3009TIP3   OH2 8990   0.269   6.214   1.862
 3009TIP3    H1 8991   0.329   6.286   1.883
 3009TIP3    H2 8992   0.248   6.174   1.946
 3010TIP3   OH2 8993   4.405   6.418   5.910
 3010TIP3    H1 8994   4.366   6.428   5.823
 3010TIP3    H2 8995   4.423   6.324   5.917
 3011TIP3   OH2 8996   2.266   3.000   4.367
 3011TIP3    H1 8997   2.183   3.011   4.322
 3011TIP3    H2 8998   2.254   3.046   4.451
 3012TIP3   OH2 8999   1.835   3.852   3.033
 3012TIP3    H1 9000   1.753   3.899   3.021
 3012TIP3    H2 9001   1.894   3.890   2.968
 3013TIP3   OH2 9002   1.723   5.787   4.103
 3013TIP3    H1 9003   1.747   5.704   4.144
 3013TIP3    H2 9004   1.639   5.810   4.143
 3014TIP3   OH2 9005   1.843   5.554   0.159
 3014TIP3    H1 9006   1.787   5.568   0.082
 3014TIP3    H2 9007   1.877   5.641   0.180
 3015TIP3   OH2 9008   2.889   2.458   2.365
 3015TIP3    H1 9009   2.805   2.478   2.405
 3015TIP3    H2 9010   2.952   2.464   2.437
 3016TIP3   OH2 9011   2.042   5.804   2.269
 3016TIP3    H1 9012   2.003   5.777   2.352
 3016TIP3    H2 9013   1.968   5.824   2.213
 3017TIP3   OH2 9014   7.109   3.543   5.451
 3017TIP3    H1 9015   7.039   3.608   5.448
 3017TIP3    H2 9016   7.179   3.580   5.396
 3018TIP3   OH2 9017   2.336   1.681   5.773
 3018TIP3    H1 9018   2.252   1.710   5.737
 3018TIP3    H2 9019   2.357   1.602   5.723
 3019TIP3   OH2 9020   3.041   4.869   2.272
 3019TIP3    H1 9021   2.983   4.841   2.342
 3019TIP3    H2 9022   3.021   4.809   2.199
 3020TIP3   OH2 9023   0.129   0.754   1.654
 3020TIP3    H1 9024   0.057   0.704   1.614
 3020TIP3    H2 9025   0.207   0.725   1.607
 3021TIP3   OH2 9026   0.087   3.647   0.854
 3021TIP3    H1 9027   0.085   3.616   0.764
 3021TIP3    H2 9028   0.115   3.738   0.848
 3022TIP3   OH2 9029   4.493   2.266   2.964
 3022TIP3    H1 9030   4.458   2.306   2.884
 3022TIP3    H2 9031   4.455   2.179   2.966
 3023TIP3   OH2 9032   1.807   1.333   3.068
 3023TIP3    H1 9033   1.816   1.374   3.154
 3023TIP3    H2 9034   1.897   1.331   3.033
 3024TIP3   OH2 9035   0.727   6.352   5.037
 3024TIP3    H1 9036   0.716   6.270   4.990
 3024TIP3    H2 9037   0.670   6.344   5.114
 3025TIP3   OH2 9038   0.548   2.396   2.931
 3025TIP3    H1 9039   0.588   2.401   3.018
 3025TIP3    H2 9040   0.546   2.303   2.911
 3026TIP3   OH2 9041   3.191   0.000   1.633
 3026TIP3    H1 9042   3.262   0.058   1.605
 3026TIP3    H2 9043   3.116   0.028   1.581
 3027TIP3   OH2 9044   5.255   3.588   0.061
 3027TIP3    H1 9045   5.203   3.523   0.109
 3027TIP3    H2 9046   5.268   3.659   0.124
 3028TIP3   OH2 9047   0.591   5.281   0.775
 3028TIP3    H1 9048   0.599   5.210   0.712
 3028TIP3    H2 9049   0.583   5.238   0.860
 3029TIP3   OH2 9050   5.403   3.914   1.054
 3029TIP3    H1 9051   5.487   3.917   1.102
 3029TIP3    H2 9052   5.428   3.921   0.962
 3030TIP3   OH2 9053   1.027   4.122   4.656
 3030TIP3    H1 9054   1.067   4.069   4.726
 3030TIP3    H2 9055   1.034   4.212   4.688
 3031TIP3   OH2 9056   0.433   0.730   4.060
 3031TIP3    H1 9057   0.443   0.703   3.968
 3031TIP3    H2 9058   0.363   0.794   4.059
 3032TIP3   OH2 9059   6.280   3.909   5.191
 3032TIP3    H1 9060   6.243   3.925   5.105
 3032TIP3    H2 9061   6.361   3.860   5.174
 3033TIP3   OH2 9062   4.404   1.731   1.735
 3033TIP3    H1 9063   4.411   1.825   1.718
 3033TIP3    H2 9064   4.358   1.725   1.819
 3034TIP3   OH2 9065   5.805   2.894   3.469
 3034TIP3    H1 9066   5.845   2.972   3.431
 3034TIP3    H2 9067   5.848   2.821   3.425
 3035TIP3   OH2 9068   3.527   4.511   5.211
 3035TIP3    H1 9069   3.502   4.595   5.172
 3035TIP3    H2 9070   3.576   4.534   5.290
 3036TIP3   OH2 9071   6.870   0.760   5.057
 3036TIP3    H1 9072   6.865   0.720   5.144
 3036TIP3    H2 9073   6.899   0.690   4.999
 3037TIP3   OH2 9074   4.258   3.215   5.756
 3037TIP3    H1 9075   4.248   3.189   5.665
 3037TIP3    H2 9076   4.315   3.147   5.794
 3038TIP3   OH2 9077   2.802   3.517   5.214
 3038TIP3    H1 9078   2.723   3.468   5.238
 3038TIP3    H2 9079   2.788   3.605   5.249
 3039TIP3   OH2 9080   4.615   4.267   5.114
 3039TIP3    H1 9081   4.672   4.221   5.052
 3039TIP3    H2 9082   4.656   4.254   5.199
 3040TIP3   OH2 9083   5.559   3.163   5.442
 3040TIP3    H1 9084   5.572   3.247   5.399
 3040TIP3    H2 9085   5.591   3.099   5.379
 3041TIP3   OH2 9086   1.425   1.601   4.670
 3041TIP3    H1 9087   1.513   1.566   4.685
 3041TIP3    H2 9088   1.405   1.650   4.749
 3042TIP3   OH2 9089   1.302   1.308   3.419
 3042TIP3    H1 9090   1.381   1.354   3.391
 3042TIP3    H2 9091   1.331   1.220   3.440
 3043TIP3   OH2 9092   4.234   5.793   2.645
 3043TIP3    H1 9093   4.151   5.833   2.619
 3043TIP3    H2 9094   4.290   5.802   2.568
 3044TIP3   OH2 9095   4.047   2.514   0.904
 3044TIP3    H1 9096   4.044   2.609   0.898
 3044TIP3    H2 9097   4.032   2.494   0.996
 3045TIP3   OH2 9098   0.695   2.513   0.784
 3045TIP3    H1 9099   0.744   2.566   0.847
 3045TIP3    H2 9100   0.655   2.577   0.725
 3046TIP3   OH2 9101   2.112   4.828   1.156
 3046TIP3    H1 9102   2.188   4.866   1.200
 3046TIP3    H2 9103   2.070   4.775   1.224
 3047TIP3   OH2 9104   5.177   4.655   1.277
 3047TIP3    H1 9105   5.233   4.724   1.243
 3047TIP3    H2 9106   5.157   4.600   1.201
 3048TIP3   OH2 9107   3.997   2.423   0.632
 3048TIP3    H1 9108   4.069   2.410   0.570
 3048TIP3    H2 9109   4.039   2.424   0.718
 3049TIP3   OH2 9110   0.891   2.246   2.367
 3049TIP3    H1 9111   0.834   2.212   2.298
 3049TIP3    H2 9112   0.979   2.246   2.329
 3050TIP3   OH2 9113   4.881   1.679   5.722
 3050TIP3    H1 9114   4.968   1.672   5.683
 3050TIP3    H2 9115   4.897   1.690   5.816
 3051TIP3   OH2 9116   2.046   0.808   1.858
 3051TIP3    H1 9117   2.100   0.785   1.782
 3051TIP3    H2 9118   1.956   0.808   1.824
 3052TIP3   OH2 9119   4.740   3.658   2.140
 3052TIP3    H1 9120   4.728   3.726   2.073
 3052TIP3    H2 9121   4.786   3.588   2.095
 3053TIP3   OH2 9122   0.540   2.604   1.792
 3053TIP3    H1 9123   0.499   2.657   1.723
 3053TIP3    H2 9124   0.528   2.514   1.763
 3054TIP3   OH2 9125   5.311   4.489   4.476
 3054TIP3    H1 9126   5.338   4.410   4.428
 3054TIP3    H2 9127   5.220   4.472   4.499
 3055TIP3   OH2 9128   7.051   5.754   2.102
 3055TIP3    H1 9129   7.106   5.824   2.065
 3055TIP3    H2 9130   6.963   5.774   2.071
 3056TIP3   OH2 9131   3.413   5.065   4.424
 3056TIP3    H1 9132   3.409   4.980   4.379
 3056TIP3    H2 9133   3.355   5.055   4.499
 3057TIP3   OH2 9134   0.284   2.310   4.314
 3057TIP3    H1 9135   0.203   2.345   4.280
 3057TIP3    H2 9136   0.285   2.336   4.406
 3058TIP3   OH2 9137   3.936   4.089   2.052
 3058TIP3    H1 9138   3.909   4.025   2.118
 3058TIP3    H2 9139   3.967   4.164   2.103
 3059TIP3   OH2 9140   1.442   6.230   4.125
 3059TIP3    H1 9141   1.444   6.186   4.039
 3059TIP3    H2 9142   1.417   6.161   4.186
 3060TIP3   OH2 9143   4.645   1.815   3.071
 3060TIP3    H1 9144   4.614   1.818   2.980
 3060TIP3    H2 9145   4.718   1.753   3.069
 3061TIP3   OH2 9146   0.693   2.926   2.389
 3061TIP3    H1 9147   0.751   2.887   2.323
 3061TIP3    H2 9148   0.666   2.852   2.443
 3062TIP3   OH2 9149   4.573   1.688   1.183
 3062TIP3    H1 9150   4.540   1.697   1.093
 3062TIP3    H2 9151   4.566   1.594   1.201
 3063TIP3   OH2 9152   4.123   0.865   4.087
 3063TIP3    H1 9153   4.095   0.793   4.030
 3063TIP3    H2 9154   4.083   0.943   4.049
 3064TIP3   OH2 9155   3.653   2.434   1.107
 3064TIP3    H1 9156   3.621   2.521   1.132
 3064TIP3    H2 9157   3.712   2.451   1.033
 3065TIP3   OH2 9158   0.319   5.386   2.412
 3065TIP3    H1 9159   0.342   5.387   2.319
 3065TIP3    H2 9160   0.403   5.373   2.457
 3066TIP3   OH2 9161   0.743   2.199   5.758
 3066TIP3    H1 9162   0.824   2.250   5.756
 3066TIP3    H2 9163   0.693   2.231   5.682
 3067TIP3   OH2 9164   0.418   2.250   3.489
 3067TIP3    H1 9165   0.433   2.160   3.459
 3067TIP3    H2 9166   0.405   2.243   3.583
 3068TIP3   OH2 9167   2.255   2.102   1.053
 3068TIP3    H1 9168   2.217   2.060   1.130
 3068TIP3    H2 9169   2.328   2.045   1.029
 3069TIP3   OH2 9170   4.245   4.200   5.757
 3069TIP3    H1 9171   4.322   4.142   5.752
 3069TIP3    H2 9172   4.260   4.266   5.690
 3070TIP3   OH2 9173   6.601   6.654   4.266
 3070TIP3    H1 9174   6.608   6.691   4.354
 3070TIP3    H2 9175   6.509   6.667   4.243
 3071TIP3   OH2 9176   2.783   5.513   2.503
 3071TIP3    H1 9177   2.838   5.530   2.579
 3071TIP3    H2 9178   2.790   5.592   2.449
 3072TIP3   OH2 9179   2.491   4.090   1.291
 3072TIP3    H1 9180   2.511   4.052   1.205
 3072TIP3    H2 9181   2.555   4.051   1.350
 3073TIP3   OH2 9182   5.560   5.053   0.200
 3073TIP3    H1 9183   5.467   5.073   0.210
 3073TIP3    H2 9184   5.564   4.957   0.199
 3074TIP3   OH2 9185   0.013   6.356   0.291
 3074TIP3    H1 9186   0.045   6.422   0.352
 3074TIP3    H2 9187   0.034   6.392   0.204
 3075TIP3   OH2 9188   2.114   3.170   0.957
 3075TIP3    H1 9189   2.157   3.235   0.902
 3075TIP3    H2 9190   2.053   3.125   0.898
 3076TIP3   OH2 9191   5.240   6.523   4.046
 3076TIP3    H1 9192   5.235   6.615   4.069
 3076TIP3    H2 9193   5.177   6.480   4.104
 3077TIP3   OH2 9194   7.158   2.318   0.325
 3077TIP3    H1 9195   7.184   2.395   0.376
 3077TIP3    H2 9196   7.231   2.256   0.338
 3078TIP3   OH2 9197   0.885   0.952   4.998
 3078TIP3    H1 9198   0.802   0.985   4.963
 3078TIP3    H2 9199   0.876   0.962   5.093
 3079TIP3   OH2 9200   5.712   4.185   0.020
 3079TIP3    H1 9201   5.707   4.276  -0.010
 3079TIP3    H2 9202   5.624   4.167   0.054
 3080TIP3   OH2 9203   0.872   2.658   3.577
 3080TIP3    H1 9204   0.881   2.747   3.543
 3080TIP3    H2 9205   0.786   2.657   3.619
 3081TIP3   OH2 9206   3.170   5.125   3.254
 3081TIP3    H1 9207   3.221   5.172   3.320
 3081TIP3    H2 9208   3.198   5.034   3.263
 3082TIP3   OH2 9209   3.919   2.593   4.825
 3082TIP3    H1 9210   3.856   2.539   4.872
 3082TIP3    H2 9211   3.949   2.656   4.890
 3083TIP3   OH2 9212   3.119   5.542   0.948
 3083TIP3    H1 9213   3.198   5.510   0.991
 3083TIP3    H2 9214   3.149   5.570   0.861
 3084TIP3   OH2 9215   5.777   5.420   2.930
 3084TIP3    H1 9216   5.821   5.373   3.001
 3084TIP3    H2 9217   5.721   5.354   2.889
 3085TIP3   OH2 9218   4.377   1.943   0.539
 3085TIP3    H1 9219   4.359   1.902   0.624
 3085TIP3    H2 9220   4.469   1.925   0.522
 3086TIP3   OH2 9221   0.140   6.109   0.320
 3086TIP3    H1 9222   0.106   6.195   0.346
 3086TIP3    H2 9223   0.230   6.126   0.293
 3087TIP3   OH2 9224   1.279   0.728   4.025
 3087TIP3    H1 9225   1.298   0.642   3.988
 3087TIP3    H2 9226   1.299   0.720   4.118
 3088TIP3   OH2 9227   2.592   1.573   4.545
 3088TIP3    H1 9228   2.519   1.628   4.571
 3088TIP3    H2 9229   2.552   1.489   4.521
 3089TIP3   OH2 9230   1.331   5.328   4.933
 3089TIP3    H1 9231   1.348   5.241   4.967
 3089TIP3    H2 9232   1.408   5.380   4.958
 3090TIP3   OH2 9233   6.726   3.226   0.761
 3090TIP3    H1 9234   6.794   3.285   0.794
 3090TIP3    H2 9235   6.662   3.284   0.719
 3091TIP3   OH2 9236   4.928   3.336   3.525
 3091TIP3    H1 9237   4.959   3.354   3.436
 3091TIP3    H2 9238   4.960   3.248   3.544
 3092TIP3   OH2 9239   4.490   3.072   5.595
 3092TIP3    H1 9240   4.502   3.134   5.524
 3092TIP3    H2 9241   4.527   2.990   5.563
 3093TIP3   OH2 9242   4.724   0.744   0.657
 3093TIP3    H1 9243   4.794   0.758   0.721
 3093TIP3    H2 9244   4.769   0.737   0.573
 3094TIP3   OH2 9245   5.757   4.321   4.092
 3094TIP3    H1 9246   5.812   4.370   4.032
 3094TIP3    H2 9247   5.775   4.229   4.072
 3095TIP3   OH2 9248   3.472   5.560   1.323
 3095TIP3    H1 9249   3.564   5.586   1.329
 3095TIP3    H2 9250   3.460   5.498   1.395
 3096TIP3   OH2 9251   4.758   6.340   3.009
 3096TIP3    H1 9252   4.778   6.429   3.037
 3096TIP3    H2 9253   4.803   6.330   2.925
 3097TIP3   OH2 9254   2.186   3.526   5.593
 3097TIP3    H1 9255   2.258   3.589   5.583
 3097TIP3    H2 9256   2.198   3.490   5.681
 3098TIP3   OH2 9257   3.885   3.482   4.607
 3098TIP3    H1 9258   3.858   3.400   4.648
 3098TIP3    H2 9259   3.933   3.456   4.529
 3099TIP3   OH2 9260   2.583   3.626   2.128
 3099TIP3    H1 9261   2.677   3.606   2.136
 3099TIP3    H2 9262   2.542   3.579   2.200
 3100TIP3   OH2 9263   6.186   2.910   2.903
 3100TIP3    H1 9264   6.246   2.964   2.955
 3100TIP3    H2 9265   6.161   2.839   2.962
 3101TIP3   OH2 9266   4.419   0.235   5.339
 3101TIP3    H1 9267   4.455   0.306   5.392
 3101TIP3    H2 9268   4.486   0.167   5.340
 3102TIP3   OH2 9269   5.694   3.544   2.652
 3102TIP3    H1 9270   5.753   3.555   2.727
 3102TIP3    H2 9271   5.732   3.601   2.584
 3103TIP3   OH2 9272   4.211   5.334   5.516
 3103TIP3    H1 9273   4.272   5.261   5.528
 3103TIP3    H2 9274   4.169   5.345   5.602
 3104TIP3   OH2 9275   4.571   0.003   2.719
 3104TIP3    H1 9276   4.667   0.004   2.717
 3104TIP3    H2 9277   4.546   0.090   2.689
 3105TIP3   OH2 9278   0.752   0.657   2.472
 3105TIP3    H1 9279   0.797   0.709   2.538
 3105TIP3    H2 9280   0.779   0.567   2.489
 3106TIP3   OH2 9281   4.918   6.443   1.275
 3106TIP3    H1 9282   5.000   6.434   1.226
 3106TIP3    H2 9283   4.867   6.365   1.250
 3107TIP3   OH2 9284   2.644   1.192   1.390
 3107TIP3    H1 9285   2.659   1.283   1.365
 3107TIP3    H2 9286   2.689   1.142   1.322
 3108TIP3   OH2 9287   6.357   2.388   5.528
 3108TIP3    H1 9288   6.441   2.416   5.563
 3108TIP3    H2 9289   6.313   2.470   5.502
 3109TIP3   OH2 9290   6.966   5.659   1.636
 3109TIP3    H1 9291   6.965   5.742   1.683
 3109TIP3    H2 9292   7.018   5.601   1.691
 3110TIP3   OH2 9293   4.657   5.431   4.650
 3110TIP3    H1 9294   4.586   5.385   4.605
 3110TIP3    H2 9295   4.617   5.514   4.678
 3111TIP3   OH2 9296   4.200   0.772   4.881
 3111TIP3    H1 9297   4.250   0.690   4.877
 3111TIP3    H2 9298   4.130   0.760   4.816
 3112TIP3   OH2 9299   7.016   4.164   0.153
 3112TIP3    H1 9300   7.080   4.099   0.183
 3112TIP3    H2 9301   6.932   4.119   0.161
 3113TIP3   OH2 9302   1.633   1.283   1.737
 3113TIP3    H1 9303   1.602   1.347   1.801
 3113TIP3    H2 9304   1.666   1.336   1.664
 3114TIP3   OH2 9305   5.823   2.315   1.911
 3114TIP3    H1 9306   5.882   2.247   1.876
 3114TIP3    H2 9307   5.868   2.348   1.989
 3115TIP3   OH2 9308   0.536   3.602   1.244
 3115TIP3    H1 9309   0.485   3.682   1.256
 3115TIP3    H2 9310   0.620   3.620   1.287
 3116TIP3   OH2 9311   0.420   1.856   2.557
 3116TIP3    H1 9312   0.514   1.854   2.538
 3116TIP3    H2 9313   0.385   1.777   2.515
 3117TIP3   OH2 9314   4.342   0.251   2.156
 3117TIP3    H1 9315   4.343   0.159   2.130
 3117TIP3    H2 9316   4.419   0.289   2.115
 3118TIP3   OH2 9317   5.722   3.132   1.645
 3118TIP3    H1 9318   5.643   3.137   1.591
 3118TIP3    H2 9319   5.783   3.192   1.604
 3119TIP3   OH2 9320   1.082   2.150   4.219
 3119TIP3    H1 9321   0.996   2.143   4.262
 3119TIP3    H2 9322   1.079   2.084   4.150
 3120TIP3   OH2 9323   5.213   2.414   4.154
 3120TIP3    H1 9324   5.233   2.441   4.064
 3120TIP3    H2 9325   5.220   2.494   4.206
 3121TIP3   OH2 9326   6.200   4.197   4.992
 3121TIP3    H1 9327   6.183   4.129   4.927
 3121TIP3    H2 9328   6.192   4.279   4.943
 3122TIP3   OH2 9329   2.729   1.647   2.261
 3122TIP3    H1 9330   2.802   1.690   2.306
 3122TIP3    H2 9331   2.656   1.707   2.272
 3123TIP3   OH2 9332   0.854   3.239   5.774
 3123TIP3    H1 9333   0.770   3.284   5.781
 3123TIP3    H2 9334   0.870   3.204   5.862
 3124TIP3   OH2 9335   4.670   5.555   2.085
 3124TIP3    H1 9336   4.716   5.613   2.026
 3124TIP3    H2 9337   4.599   5.608   2.122
 3125TIP3   OH2 9338   3.416   6.695   2.532
 3125TIP3    H1 9339   3.329   6.681   2.495
 3125TIP3    H2 9340   3.476   6.662   2.465
 3126TIP3   OH2 9341   2.368   6.068   5.321
 3126TIP3    H1 9342   2.409   6.144   5.279
 3126TIP3    H2 9343   2.380   6.083   5.415
 3127TIP3   OH2 9344   5.105   6.707   3.803
 3127TIP3    H1 9345   5.097   6.668   3.716
 3127TIP3    H2 9346   5.016   6.732   3.827
 3128TIP3   OH2 9347   2.797   4.443   5.188
 3128TIP3    H1 9348   2.830   4.533   5.189
 3128TIP3    H2 9349   2.853   4.397   5.251
 3129TIP3   OH2 9350   5.057   0.432   1.429
 3129TIP3    H1 9351   5.103   0.513   1.410
 3129TIP3    H2 9352   5.123   0.376   1.471
 3130TIP3   OH2 9353   5.489   1.798   5.064
 3130TIP3    H1 9354   5.450   1.857   5.128
 3130TIP3    H2 9355   5.447   1.821   4.981
 3131TIP3   OH2 9356   2.955   5.373   1.203
 3131TIP3    H1 9357   2.909   5.392   1.284
 3131TIP3    H2 9358   2.914   5.430   1.138
 3132TIP3   OH2 9359   0.079   1.860   1.962
 3132TIP3    H1 9360   0.107   1.803   1.890
 3132TIP3    H2 9361   0.050   1.800   2.031
 3133TIP3   OH2 9362   2.171   6.089   0.170
 3133TIP3    H1 9363   2.240   6.051   0.225
 3133TIP3    H2 9364   2.096   6.030   0.183
 3134TIP3   OH2 9365   3.792   5.046   4.213
 3134TIP3    H1 9366   3.771   5.071   4.122
 3134TIP3    H2 9367   3.721   4.987   4.238
 3135TIP3   OH2 9368   0.646   4.293   3.029
 3135TIP3    H1 9369   0.672   4.347   2.954
 3135TIP3    H2 9370   0.657   4.203   2.999
 3136TIP3   OH2 9371   4.661   1.972   2.609
 3136TIP3    H1 9372   4.713   2.043   2.647
 3136TIP3    H2 9373   4.726   1.906   2.584
 3137TIP3   OH2 9374   7.170   5.038   3.021
 3137TIP3    H1 9375   7.180   5.057   3.114
 3137TIP3    H2 9376   7.240   5.087   2.978
 3138TIP3   OH2 9377   0.934   0.127   2.621
 3138TIP3    H1 9378   0.896   0.045   2.590
 3138TIP3    H2 9379   0.931   0.120   2.717
 3139TIP3   OH2 9380   3.822   2.183   0.146
 3139TIP3    H1 9381   3.730   2.184   0.174
 3139TIP3    H2 9382   3.862   2.258   0.191
 3140TIP3   OH2 9383   2.236   1.930   4.995
 3140TIP3    H1 9384   2.324   1.961   5.018
 3140TIP3    H2 9385   2.238   1.917   4.901
 3141TIP3   OH2 9386   2.236   4.077   2.263
 3141TIP3    H1 9387   2.238   3.999   2.318
 3141TIP3    H2 9388   2.186   4.051   2.186
 3142TIP3   OH2 9389   3.945   1.254   0.443
 3142TIP3    H1 9390   3.942   1.334   0.390
 3142TIP3    H2 9391   4.037   1.228   0.442
 3143TIP3   OH2 9392   5.727   2.630   3.774
 3143TIP3    H1 9393   5.693   2.616   3.686
 3143TIP3    H2 9394   5.730   2.725   3.783
 3144TIP3   OH2 9395   6.022   2.822   1.963
 3144TIP3    H1 9396   5.942   2.791   1.920
 3144TIP3    H2 9397   5.998   2.906   2.001
 3145TIP3   OH2 9398   0.908   0.863   1.791
 3145TIP3    H1 9399   0.829   0.894   1.835
 3145TIP3    H2 9400   0.878   0.792   1.734
 3146TIP3   OH2 9401   2.029   2.434   1.398
 3146TIP3    H1 9402   2.002   2.343   1.407
 3146TIP3    H2 9403   2.125   2.430   1.391
 3147TIP3   OH2 9404   0.210   3.554   1.446
 3147TIP3    H1 9405   0.177   3.544   1.535
 3147TIP3    H2 9406   0.285   3.614   1.455
 3148TIP3   OH2 9407   1.867   6.781   2.057
 3148TIP3    H1 9408   1.957   6.773   2.024
 3148TIP3    H2 9409   1.851   6.699   2.103
 3149TIP3   OH2 9410   0.074   3.852   4.535
 3149TIP3    H1 9411   0.044   3.872   4.446
 3149TIP3    H2 9412   0.165   3.883   4.536
 3150TIP3   OH2 9413   0.794   2.896   4.656
 3150TIP3    H1 9414   0.827   2.821   4.606
 3150TIP3    H2 9415   0.721   2.929   4.605
 3151TIP3   OH2 9416   2.008   2.037   5.352
 3151TIP3    H1 9417   1.956   2.102   5.397
 3151TIP3    H2 9418   1.956   1.957   5.357
 3152TIP3   OH2 9419   3.330   0.149   1.140
 3152TIP3    H1 9420   3.324   0.204   1.217
 3152TIP3    H2 9421   3.410   0.098   1.152
 3153TIP3   OH2 9422   1.139   6.517   1.555
 3153TIP3    H1 9423   1.157   6.589   1.615
 3153TIP3    H2 9424   1.052   6.537   1.519
 3154TIP3   OH2 9425   0.831   2.524   2.282
 3154TIP3    H1 9426   0.786   2.499   2.201
 3154TIP3    H2 9427   0.859   2.440   2.320
 3155TIP3   OH2 9428   4.418   0.737   5.610
 3155TIP3    H1 9429   4.388   0.751   5.520
 3155TIP3    H2 9430   4.513   0.737   5.604
 3156TIP3   OH2 9431   5.146   4.071   3.480
 3156TIP3    H1 9432   5.194   4.079   3.397
 3156TIP3    H2 9433   5.059   4.106   3.461
 3157TIP3   OH2 9434   2.158   2.487   0.533
 3157TIP3    H1 9435   2.157   2.404   0.485
 3157TIP3    H2 9436   2.246   2.491   0.571
 3158TIP3   OH2 9437   6.470   2.680   3.535
 3158TIP3    H1 9438   6.406   2.745   3.505
 3158TIP3    H2 9439   6.437   2.597   3.500
 3159TIP3   OH2 9440   2.895   5.796   3.975
 3159TIP3    H1 9441   2.953   5.722   3.961
 3159TIP3    H2 9442   2.932   5.866   3.921
 3160TIP3   OH2 9443   6.505   0.005   1.893
 3160TIP3    H1 9444   6.498   0.095   1.925
 3160TIP3    H2 9445   6.573  -0.034   1.947
 3161TIP3   OH2 9446   5.630   4.884   3.977
 3161TIP3    H1 9447   5.549   4.834   3.982
 3161TIP3    H2 9448   5.633   4.935   4.058
 3162TIP3   OH2 9449   5.166   3.994   2.111
 3162TIP3    H1 9450   5.258   3.997   2.136
 3162TIP3    H2 9451   5.130   4.077   2.144
 3163TIP3   OH2 9452   2.049   4.093   5.620
 3163TIP3    H1 9453   2.067   4.151   5.694
 3163TIP3    H2 9454   2.102   4.129   5.548
 3164TIP3   OH2 9455   3.092   3.828   4.194
 3164TIP3    H1 9456   3.029   3.764   4.161
 3164TIP3    H2 9457   3.065   3.845   4.284
 3165TIP3   OH2 9458   6.683   2.139   5.364
 3165TIP3    H1 9459   6.739   2.186   5.425
 3165TIP3    H2 9460   6.599   2.131   5.409
 3166TIP3   OH2 9461   5.218   6.131   0.378
 3166TIP3    H1 9462   5.218   6.161   0.468
 3166TIP3    H2 9463   5.129   6.147   0.347
 3167TIP3   OH2 9464   4.325   6.011   5.707
 3167TIP3    H1 9465   4.342   6.040   5.797
 3167TIP3    H2 9466   4.409   6.024   5.662
 3168TIP3   OH2 9467   1.876   0.989   3.053
 3168TIP3    H1 9468   1.916   1.058   3.001
 3168TIP3    H2 9469   1.917   0.997   3.140
 3169TIP3   OH2 9470   2.678   3.736   1.270
 3169TIP3    H1 9471   2.684   3.830   1.253
 3169TIP3    H2 9472   2.752   3.717   1.327
 3170TIP3   OH2 9473   6.364   5.772   1.761
 3170TIP3    H1 9474   6.288   5.721   1.733
 3170TIP3    H2 9475   6.342   5.802   1.849
 3171TIP3   OH2 9476   6.495   2.505   1.853
 3171TIP3    H1 9477   6.550   2.578   1.880
 3171TIP3    H2 9478   6.471   2.525   1.762
 3172TIP3   OH2 9479   4.813   2.612   5.745
 3172TIP3    H1 9480   4.790   2.611   5.839
 3172TIP3    H2 9481   4.871   2.687   5.736
 3173TIP3   OH2 9482   3.583   2.215   0.300
 3173TIP3    H1 9483   3.627   2.229   0.384
 3173TIP3    H2 9484   3.515   2.282   0.297
 3174TIP3   OH2 9485   2.517   0.670   2.422
 3174TIP3    H1 9486   2.600   0.659   2.376
 3174TIP3    H2 9487   2.532   0.631   2.508
 3175TIP3   OH2 9488   6.658   6.463   1.937
 3175TIP3    H1 9489   6.646   6.375   1.902
 3175TIP3    H2 9490   6.672   6.518   1.860
 3176TIP3   OH2 9491   5.325   3.570   3.094
 3176TIP3    H1 9492   5.353   3.545   3.182
 3176TIP3    H2 9493   5.398   3.545   3.038
 3177TIP3   OH2 9494   1.335   6.308   0.462
 3177TIP3    H1 9495   1.419   6.263   0.458
 3177TIP3    H2 9496   1.344   6.382   0.402
 3178TIP3   OH2 9497   5.846   2.023   2.469
 3178TIP3    H1 9498   5.757   2.048   2.443
 3178TIP3    H2 9499   5.880   2.100   2.514
 3179TIP3   OH2 9500   0.205   3.394   4.844
 3179TIP3    H1 9501   0.148   3.436   4.781
 3179TIP3    H2 9502   0.273   3.353   4.790
 3180TIP3   OH2 9503   2.388   4.769   1.980
 3180TIP3    H1 9504   2.403   4.852   1.936
 3180TIP3    H2 9505   2.445   4.707   1.934
 3181TIP3   OH2 9506   4.596   1.584   5.036
 3181TIP3    H1 9507   4.544   1.573   4.956
 3181TIP3    H2 9508   4.687   1.585   5.005
 3182TIP3   OH2 9509   0.944   5.243   4.594
 3182TIP3    H1 9510   0.997   5.169   4.567
 3182TIP3    H2 9511   0.905   5.276   4.513
 3183TIP3   OH2 9512   4.870   4.060   0.169
 3183TIP3    H1 9513   4.943   3.999   0.179
 3183TIP3    H2 9514   4.797   4.006   0.138
 3184TIP3   OH2 9515   6.344   0.799   4.356
 3184TIP3    H1 9516   6.405   0.728   4.339
 3184TIP3    H2 9517   6.321   0.832   4.269
 3185TIP3   OH2 9518   3.806   2.093   0.772
 3185TIP3    H1 9519   3.898   2.075   0.790
 3185TIP3    H2 9520   3.779   2.154   0.840
 3186TIP3   OH2 9521   5.944   2.899   4.313
 3186TIP3    H1 9522   5.882   2.827   4.322
 3186TIP3    H2 9523   5.962   2.904   4.220
 3187TIP3   OH2 9524   5.339   1.740   5.879
 3187TIP3    H1 9525   5.328   1.656   5.923
 3187TIP3    H2 9526   5.403   1.724   5.810
 3188TIP3   OH2 9527   6.955   1.748   3.321
 3188TIP3    H1 9528   6.874   1.798   3.314
 3188TIP3    H2 9529   6.997   1.757   3.236
 3189TIP3   OH2 9530   6.937   3.922   4.531
 3189TIP3    H1 9531   6.870   3.981   4.566
 3189TIP3    H2 9532   6.913   3.908   4.440
 3190TIP3   OH2 9533   5.472   6.039   5.589
 3190TIP3    H1 9534   5.414   6.089   5.646
 3190TIP3    H2 9535   5.518   6.105   5.537
 3191TIP3   OH2 9536   6.675   5.046   1.991
 3191TIP3    H1 9537   6.585   5.021   1.969
 3191TIP3    H2 9538   6.683   5.024   2.084
 3192TIP3   OH2 9539   6.460   5.176   0.242
 3192TIP3    H1 9540   6.375   5.145   0.212
 3192TIP3    H2 9541   6.523   5.117   0.201
 3193TIP3   OH2 9542   0.310   2.616   4.892
 3193TIP3    H1 9543   0.372   2.627   4.963
 3193TIP3    H2 9544   0.359   2.640   4.813
 3194TIP3   OH2 9545   6.375   1.442   4.586
 3194TIP3    H1 9546   6.414   1.454   4.500
 3194TIP3    H2 9547   6.317   1.518   4.597
 3195TIP3   OH2 9548   5.235   4.851   3.442
 3195TIP3    H1 9549   5.190   4.923   3.397
 3195TIP3    H2 9550   5.235   4.779   3.379
 3196TIP3   OH2 9551   2.913   6.009   3.580
 3196TIP3    H1 9552   2.970   5.961   3.641
 3196TIP3    H2 9553   2.824   5.984   3.606
 3197TIP3   OH2 9554   2.593   3.946   1.061
 3197TIP3    H1 9555   2.516   3.897   1.033
 3197TIP3    H2 9556   2.666   3.901   1.018
 3198TIP3   OH2 9557   5.756   2.815   5.066
 3198TIP3    H1 9558   5.801   2.899   5.056
 3198TIP3    H2 9559   5.821   2.749   5.042
 3199TIP3   OH2 9560   5.810   3.923   5.445
 3199TIP3    H1 9561   5.895   3.953   5.413
 3199TIP3    H2 9562   5.809   3.947   5.538
 3200TIP3   OH2 9563   5.024   4.169   4.041
 3200TIP3    H1 9564   4.939   4.155   4.082
 3200TIP3    H2 9565   5.063   4.242   4.091
 3201TIP3   OH2 9566   1.098   1.167   2.807
 3201TIP3    H1 9567   1.187   1.146   2.779
 3201TIP3    H2 9568   1.080   1.106   2.878
 3202TIP3   OH2 9569   4.458   4.697   5.211
 3202TIP3    H1 9570   4.515   4.628   5.175
 3202TIP3    H2 9571   4.378   4.690   5.160
 3203TIP3   OH2 9572   1.221   1.499   4.159
 3203TIP3    H1 9573   1.164   1.489   4.235
 3203TIP3    H2 9574   1.221   1.593   4.141
 3204TIP3   OH2 9575   6.211   1.553   0.121
 3204TIP3    H1 9576   6.220   1.561   0.026
 3204TIP3    H2 9577   6.295   1.582   0.155
 3205TIP3   OH2 9578   1.056   0.732   3.082
 3205TIP3    H1 9579   1.141   0.694   3.106
 3205TIP3    H2 9580   1.044   0.708   2.990
 3206TIP3   OH2 9581   3.021   2.193   4.855
 3206TIP3    H1 9582   3.101   2.147   4.833
 3206TIP3    H2 9583   3.042   2.241   4.936
 3207TIP3   OH2 9584   2.239   5.713   5.390
 3207TIP3    H1 9585   2.191   5.768   5.452
 3207TIP3    H2 9586   2.195   5.628   5.395
 3208TIP3   OH2 9587   0.920   1.945   0.424
 3208TIP3    H1 9588   0.939   1.974   0.513
 3208TIP3    H2 9589   0.843   1.890   0.433
 3209TIP3   OH2 9590   0.563   6.480   4.637
 3209TIP3    H1 9591   0.582   6.387   4.621
 3209TIP3    H2 9592   0.633   6.508   4.696
 3210TIP3   OH2 9593   6.663   5.372   5.023
 3210TIP3    H1 9594   6.714   5.406   5.097
 3210TIP3    H2 9595   6.625   5.449   4.982
 3211TIP3   OH2 9596   4.947   6.443   0.883
 3211TIP3    H1 9597   4.918   6.372   0.827
 3211TIP3    H2 9598   4.977   6.399   0.963
 3212TIP3   OH2 9599   4.736   5.820   5.599
 3212TIP3    H1 9600   4.692   5.754   5.653
 3212TIP3    H2 9601   4.754   5.775   5.517
 3213TIP3   OH2 9602   2.917   4.635   1.090
 3213TIP3    H1 9603   2.827   4.663   1.072
 3213TIP3    H2 9604   2.916   4.607   1.181
 3214TIP3   OH2 9605   3.223   6.328   3.233
 3214TIP3    H1 9606   3.277   6.252   3.255
 3214TIP3    H2 9607   3.149   6.293   3.185
 3215TIP3   OH2 9608   6.932   5.919   1.732
 3215TIP3    H1 9609   6.953   5.999   1.779
 3215TIP3    H2 9610   6.960   5.935   1.642
 3216TIP3   OH2 9611   1.200   3.102   3.082
 3216TIP3    H1 9612   1.261   3.034   3.055
 3216TIP3    H2 9613   1.121   3.054   3.108
 3217TIP3   OH2 9614   1.971   1.662   5.498
 3217TIP3    H1 9615   1.890   1.611   5.498
 3217TIP3    H2 9616   1.995   1.668   5.405
 3218TIP3   OH2 9617   2.640   3.587   0.524
 3218TIP3    H1 9618   2.602   3.516   0.472
 3218TIP3    H2 9619   2.734   3.580   0.509
 3219TIP3   OH2 9620   3.360   6.752   4.773
 3219TIP3    H1 9621   3.306   6.831   4.772
 3219TIP3    H2 9622   3.407   6.756   4.856
 3220TIP3   OH2 9623   4.559   4.235   3.221
 3220TIP3    H1 9624   4.562   4.197   3.309
 3220TIP3    H2 9625   4.480   4.288   3.219
 3221TIP3   OH2 9626   3.385   3.451   4.862
 3221TIP3    H1 9627   3.328   3.445   4.785
 3221TIP3    H2 9628   3.326   3.475   4.933
 3222TIP3   OH2 9629   4.020   2.742   5.020
 3222TIP3    H1 9630   4.070   2.663   5.043
 3222TIP3    H2 9631   4.057   2.810   5.076
 3223TIP3   OH2 9632   3.231   5.995   2.537
 3223TIP3    H1 9633   3.190   5.909   2.542
 3223TIP3    H2 9634   3.250   6.018   2.628
 3224TIP3   OH2 9635   3.393   3.706   3.603
 3224TIP3    H1 9636   3.375   3.717   3.697
 3224TIP3    H2 9637   3.307   3.689   3.565
 3225TIP3   OH2 9638   0.691   1.096   3.409
 3225TIP3    H1 9639   0.618   1.135   3.459
 3225TIP3    H2 9640   0.724   1.027   3.467
 3226TIP3   OH2 9641   0.332   1.795   4.332
 3226TIP3    H1 9642   0.426   1.798   4.317
 3226TIP3    H2 9643   0.295   1.776   4.246
 3227TIP3   OH2 9644   2.184   2.766   2.631
 3227TIP3    H1 9645   2.157   2.840   2.576
 3227TIP3    H2 9646   2.109   2.752   2.689
 3228TIP3   OH2 9647   3.095   4.459   4.012
 3228TIP3    H1 9648   3.074   4.391   3.947
 3228TIP3    H2 9649   3.090   4.541   3.962
 3229TIP3   OH2 9650   3.439   4.879   1.375
 3229TIP3    H1 9651   3.394   4.877   1.460
 3229TIP3    H2 9652   3.461   4.788   1.358
 3230TIP3   OH2 9653   5.251   1.582   0.720
 3230TIP3    H1 9654   5.317   1.649   0.700
 3230TIP3    H2 9655   5.244   1.585   0.816
 3231TIP3   OH2 9656   0.552   5.775   5.566
 3231TIP3    H1 9657   0.647   5.782   5.576
 3231TIP3    H2 9658   0.517   5.843   5.624
 3232TIP3   OH2 9659   5.812   0.504   1.804
 3232TIP3    H1 9660   5.882   0.447   1.772
 3232TIP3    H2 9661   5.858   0.580   1.839
 3233TIP3   OH2 9662   6.217   5.101   3.897
 3233TIP3    H1 9663   6.311   5.089   3.885
 3233TIP3    H2 9664   6.179   5.082   3.812
 3234TIP3   OH2 9665   3.406   1.647   4.173
 3234TIP3    H1 9666   3.383   1.558   4.147
 3234TIP3    H2 9667   3.500   1.654   4.154
 3235TIP3   OH2 9668   2.447   5.856   5.178
 3235TIP3    H1 9669   2.428   5.909   5.255
 3235TIP3    H2 9670   2.447   5.918   5.105
 3236TIP3   OH2 9671   1.332   2.672   2.561
 3236TIP3    H1 9672   1.251   2.631   2.590
 3236TIP3    H2 9673   1.401   2.629   2.611
 3237TIP3   OH2 9674   0.304   4.902   3.391
 3237TIP3    H1 9675   0.285   4.934   3.478
 3237TIP3    H2 9676   0.362   4.827   3.405
 3238TIP3   OH2 9677   0.984   6.297   4.437
 3238TIP3    H1 9678   0.903   6.309   4.388
 3238TIP3    H2 9679   1.054   6.310   4.372
 3239TIP3   OH2 9680   2.944   2.645   1.079
 3239TIP3    H1 9681   2.868   2.606   1.122
 3239TIP3    H2 9682   3.016   2.632   1.140
 3240TIP3   OH2 9683   6.775   6.158   3.687
 3240TIP3    H1 9684   6.824   6.187   3.611
 3240TIP3    H2 9685   6.765   6.236   3.741
 3241TIP3   OH2 9686   2.545   4.894   4.565
 3241TIP3    H1 9687   2.458   4.867   4.594
 3241TIP3    H2 9688   2.602   4.821   4.587
 3242TIP3   OH2 9689   5.990   4.254   2.656
 3242TIP3    H1 9690   6.084   4.254   2.635
 3242TIP3    H2 9691   5.956   4.333   2.615
 3243TIP3   OH2 9692   6.850   1.176   0.784
 3243TIP3    H1 9693   6.944   1.196   0.781
 3243TIP3    H2 9694   6.845   1.081   0.778
 3244TIP3   OH2 9695   4.474   0.109   1.852
 3244TIP3    H1 9696   4.530   0.060   1.911
 3244TIP3    H2 9697   4.533   0.170   1.807
 3245TIP3   OH2 9698   5.096   3.131   4.609
 3245TIP3    H1 9699   5.123   3.175   4.690
 3245TIP3    H2 9700   5.001   3.143   4.606
 3246TIP3   OH2 9701   5.837   4.956   4.203
 3246TIP3    H1 9702   5.874   4.916   4.282
 3246TIP3    H2 9703   5.910   4.958   4.140
 3247TIP3   OH2 9704   1.854   5.617   1.282
 3247TIP3    H1 9705   1.859   5.546   1.346
 3247TIP3    H2 9706   1.798   5.583   1.212
 3248TIP3   OH2 9707   5.722   4.269   4.963
 3248TIP3    H1 9708   5.743   4.362   4.955
 3248TIP3    H2 9709   5.750   4.231   4.880
 3249TIP3   OH2 9710   3.850   0.834   3.250
 3249TIP3    H1 9711   3.832   0.849   3.158
 3249TIP3    H2 9712   3.848   0.921   3.290
 3250TIP3   OH2 9713   2.322   1.907   4.729
 3250TIP3    H1 9714   2.369   1.877   4.651
 3250TIP3    H2 9715   2.314   2.001   4.717
 3251TIP3   OH2 9716   7.125   1.985   0.180
 3251TIP3    H1 9717   7.084   1.986   0.266
 3251TIP3    H2 9718   7.185   1.910   0.183
 3252TIP3   OH2 9719   2.862   3.887   3.909
 3252TIP3    H1 9720   2.815   3.880   3.993
 3252TIP3    H2 9721   2.793   3.906   3.845
 3253TIP3   OH2 9722   6.438   6.120   2.076
 3253TIP3    H1 9723   6.494   6.157   2.007
 3253TIP3    H2 9724   6.498   6.101   2.148
 3254TIP3   OH2 9725   4.662   5.982   2.523
 3254TIP3    H1 9726   4.616   5.977   2.607
 3254TIP3    H2 9727   4.655   6.074   2.497
 3255TIP3   OH2 9728   7.006   3.732   5.146
 3255TIP3    H1 9729   6.930   3.674   5.160
 3255TIP3    H2 9730   6.977   3.817   5.180
 3256TIP3   OH2 9731   3.774   4.204   5.580
 3256TIP3    H1 9732   3.820   4.284   5.556
 3256TIP3    H2 9733   3.839   4.135   5.570
 3257TIP3   OH2 9734   3.899   2.495   1.932
 3257TIP3    H1 9735   3.807   2.519   1.927
 3257TIP3    H2 9736   3.906   2.416   1.879
 3258TIP3   OH2 9737   2.786   0.627   4.888
 3258TIP3    H1 9738   2.832   0.659   4.966
 3258TIP3    H2 9739   2.820   0.538   4.875
 3259TIP3   OH2 9740   5.686   0.204   5.246
 3259TIP3    H1 9741   5.704   0.288   5.287
 3259TIP3    H2 9742   5.742   0.141   5.292
 3260TIP3   OH2 9743   1.644   5.883   5.049
 3260TIP3    H1 9744   1.605   5.841   4.972
 3260TIP3    H2 9745   1.620   5.828   5.122
 3261TIP3   OH2 9746   4.832   4.177   5.665
 3261TIP3    H1 9747   4.926   4.171   5.649
 3261TIP3    H2 9748   4.821   4.263   5.707
 3262TIP3   OH2 9749   6.530   3.933   5.777
 3262TIP3    H1 9750   6.458   3.996   5.781
 3262TIP3    H2 9751   6.535   3.908   5.685
 3263TIP3   OH2 9752   3.052   0.553   5.305
 3263TIP3    H1 9753   3.143   0.526   5.310
 3263TIP3    H2 9754   3.014   0.528   5.389
 3264TIP3   OH2 9755   5.549   3.522   4.571
 3264TIP3    H1 9756   5.605   3.444   4.568
 3264TIP3    H2 9757   5.460   3.487   4.578
 3265TIP3   OH2 9758   5.518   5.821   5.426
 3265TIP3    H1 9759   5.514   5.865   5.341
 3265TIP3    H2 9760   5.493   5.889   5.489
 3266TIP3   OH2 9761   0.219   0.510   4.824
 3266TIP3    H1 9762   0.255   0.530   4.911
 3266TIP3    H2 9763   0.214   0.414   4.822
 3267TIP3   OH2 9764   1.015   3.885   0.709
 3267TIP3    H1 9765   1.066   3.896   0.789
 3267TIP3    H2 9766   0.941   3.831   0.736
 3268TIP3   OH2 9767   0.242   3.689   5.284
 3268TIP3    H1 9768   0.332   3.670   5.313
 3268TIP3    H2 9769   0.253   3.727   5.196
 3269TIP3   OH2 9770   6.808   0.452   4.038
 3269TIP3    H1 9771   6.848   0.380   4.086
 3269TIP3    H2 9772   6.719   0.458   4.073
 3270TIP3   OH2 9773   4.042   3.092   4.232
 3270TIP3    H1 9774   4.086   3.082   4.147
 3270TIP3    H2 9775   4.107   3.136   4.287
 3271TIP3   OH2 9776   7.075   5.996   2.924
 3271TIP3    H1 9777   7.073   5.940   3.001
 3271TIP3    H2 9778   7.142   5.958   2.868
 3272TIP3   OH2 9779   1.120   0.278   0.637
 3272TIP3    H1 9780   1.026   0.288   0.649
 3272TIP3    H2 9781   1.156   0.288   0.725
 3273TIP3   OH2 9782   2.267   4.648   1.684
 3273TIP3    H1 9783   2.213   4.698   1.623
 3273TIP3    H2 9784   2.217   4.567   1.698
 3274TIP3   OH2 9785   4.175   1.360   3.290
 3274TIP3    H1 9786   4.113   1.428   3.263
 3274TIP3    H2 9787   4.209   1.325   3.207
 3275TIP3   OH2 9788   1.748   0.489   0.952
 3275TIP3    H1 9789   1.707   0.537   1.024
 3275TIP3    H2 9790   1.736   0.396   0.975
 3276TIP3   OH2 9791   3.711   0.332   5.239
 3276TIP3    H1 9792   3.688   0.263   5.300
 3276TIP3    H2 9793   3.807   0.330   5.235
 3277TIP3   OH2 9794   1.431   1.181   0.725
 3277TIP3    H1 9795   1.417   1.127   0.648
 3277TIP3    H2 9796   1.435   1.118   0.798
 3278TIP3   OH2 9797   3.362   2.607   5.449
 3278TIP3    H1 9798   3.306   2.671   5.404
 3278TIP3    H2 9799   3.388   2.545   5.381
 3279TIP3   OH2 9800   1.367   2.601   2.293
 3279TIP3    H1 9801   1.337   2.631   2.379
 3279TIP3    H2 9802   1.430   2.532   2.312
 3280TIP3   OH2 9803   1.926   2.396   3.456
 3280TIP3    H1 9804   1.878   2.475   3.480
 3280TIP3    H2 9805   1.910   2.336   3.529
 3281TIP3   OH2 9806   6.170   6.730   5.304
 3281TIP3    H1 9807   6.234   6.782   5.353
 3281TIP3    H2 9808   6.189   6.640   5.329
 3282TIP3   OH2 9809   0.313   1.523   3.724
 3282TIP3    H1 9810   0.317   1.493   3.814
 3282TIP3    H2 9811   0.250   1.464   3.681
 3283TIP3   OH2 9812   6.760   3.317   5.042
 3283TIP3    H1 9813   6.669   3.286   5.041
 3283TIP3    H2 9814   6.780   3.331   5.135
 3284TIP3   OH2 9815   1.894   4.794   4.805
 3284TIP3    H1 9816   1.929   4.796   4.894
 3284TIP3    H2 9817   1.817   4.851   4.808
 3285TIP3   OH2 9818   4.267   6.161   5.164
 3285TIP3    H1 9819   4.338   6.143   5.227
 3285TIP3    H2 9820   4.292   6.244   5.124
 3286TIP3   OH2 9821   2.062   1.956   2.183
 3286TIP3    H1 9822   2.125   2.028   2.190
 3286TIP3    H2 9823   2.114   1.882   2.151
 3287TIP3   OH2 9824   2.727   2.692   0.908
 3287TIP3    H1 9825   2.803   2.656   0.955
 3287TIP3    H2 9826   2.717   2.781   0.944
 3288TIP3   OH2 9827   1.536   4.043   2.156
 3288TIP3    H1 9828   1.631   4.035   2.150
 3288TIP3    H2 9829   1.519   4.058   2.249
 3289TIP3   OH2 9830   5.875   5.432   5.695
 3289TIP3    H1 9831   5.942   5.389   5.749
 3289TIP3    H2 9832   5.867   5.519   5.733
 3290TIP3   OH2 9833   6.701   1.931   3.321
 3290TIP3    H1 9834   6.703   1.918   3.226
 3290TIP3    H2 9835   6.632   1.995   3.335
 3291TIP3   OH2 9836   0.030   0.600   0.337
 3291TIP3    H1 9837   0.090   0.661   0.380
 3291TIP3    H2 9838   0.058   0.599   0.246
 3292TIP3   OH2 9839   6.562   1.383   4.797
 3292TIP3    H1 9840   6.512   1.401   4.717
 3292TIP3    H2 9841   6.497   1.348   4.858
 3293TIP3   OH2 9842   1.226   0.064   5.728
 3293TIP3    H1 9843   1.202   0.052   5.636
 3293TIP3    H2 9844   1.217  -0.023   5.767
 3294TIP3   OH2 9845   1.894   4.308   4.265
 3294TIP3    H1 9846   1.926   4.263   4.187
 3294TIP3    H2 9847   1.968   4.304   4.327
 3295TIP3   OH2 9848   2.643   5.368   5.639
 3295TIP3    H1 9849   2.606   5.425   5.572
 3295TIP3    H2 9850   2.661   5.427   5.712
 3296TIP3   OH2 9851   6.936   5.924   2.313
 3296TIP3    H1 9852   6.948   5.931   2.218
 3296TIP3    H2 9853   6.844   5.947   2.327
 3297TIP3   OH2 9854   3.637   4.579   2.964
 3297TIP3    H1 9855   3.723   4.558   2.999
 3297TIP3    H2 9856   3.652   4.655   2.908
 3298TIP3   OH2 9857   4.138   0.353   1.375
 3298TIP3    H1 9858   4.202   0.292   1.339
 3298TIP3    H2 9859   4.071   0.298   1.414
 3299TIP3   OH2 9860   1.465   2.938   2.150
 3299TIP3    H1 9861   1.505   2.974   2.230
 3299TIP3    H2 9862   1.371   2.948   2.164
 3300TIP3   OH2 9863   0.375   0.261   1.182
 3300TIP3    H1 9864   0.386   0.208   1.102
 3300TIP3    H2 9865   0.439   0.226   1.243
 3301TIP3   OH2 9866   2.133   5.818   5.626
 3301TIP3    H1 9867   2.210   5.780   5.668
 3301TIP3    H2 9868   2.127   5.907   5.661
 3302TIP3   OH2 9869   0.119   4.259   0.151
 3302TIP3    H1 9870   0.116   4.337   0.095
 3302TIP3    H2 9871   0.124   4.186   0.089
 3303TIP3   OH2 9872   5.761   5.854   5.213
 3303TIP3    H1 9873   5.813   5.793   5.266
 3303TIP3    H2 9874   5.670   5.832   5.232
 3304TIP3   OH2 9875   4.507   5.449   0.173
 3304TIP3    H1 9876   4.521   5.355   0.160
 3304TIP3    H2 9877   4.592   5.488   0.150
 3305TIP3   OH2 9878   3.267   4.250   4.267
 3305TIP3    H1 9879   3.222   4.335   4.265
 3305TIP3    H2 9880   3.217   4.195   4.207
 3306TIP3   OH2 9881   4.286   2.547   1.134
 3306TIP3    H1 9882   4.325   2.563   1.220
 3306TIP3    H2 9883   4.201   2.507   1.152
 3307TIP3   OH2 9884   1.202   2.904   2.199
 3307TIP3    H1 9885   1.176   2.861   2.117
 3307TIP3    H2 9886   1.186   2.839   2.267
 3308TIP3   OH2 9887   5.944   5.620   1.921
 3308TIP3    H1 9888   6.009   5.609   1.851
 3308TIP3    H2 9889   5.936   5.715   1.930
 3309TIP3   OH2 9890   2.222   0.359   0.718
 3309TIP3    H1 9891   2.169   0.355   0.798
 3309TIP3    H2 9892   2.189   0.287   0.664
 3310TIP3   OH2 9893   5.718   4.448   5.846
 3310TIP3    H1 9894   5.785   4.485   5.904
 3310TIP3    H2 9895   5.768   4.407   5.775
 3311TIP3   OH2 9896   6.599   5.602   2.330
 3311TIP3    H1 9897   6.681   5.646   2.355
 3311TIP3    H2 9898   6.550   5.595   2.412
 3312TIP3   OH2 9899   2.213   0.642   1.372
 3312TIP3    H1 9900   2.298   0.611   1.340
 3312TIP3    H2 9901   2.186   0.577   1.437
 3313TIP3   OH2 9902   5.992   6.596   5.815
 3313TIP3    H1 9903   5.904   6.559   5.802
 3313TIP3    H2 9904   6.048   6.547   5.755
 3314TIP3   OH2 9905   5.740   3.386   1.286
 3314TIP3    H1 9906   5.657   3.340   1.270
 3314TIP3    H2 9907   5.780   3.394   1.199
 3315TIP3   OH2 9908   5.715   4.772   1.425
 3315TIP3    H1 9909   5.799   4.817   1.411
 3315TIP3    H2 9910   5.659   4.839   1.464
 3316TIP3   OH2 9911   4.472   3.528   2.841
 3316TIP3    H1 9912   4.409   3.463   2.872
 3316TIP3    H2 9913   4.474   3.516   2.746
 3317TIP3   OH2 9914   0.587   1.142   2.055
 3317TIP3    H1 9915   0.572   1.221   2.108
 3317TIP3    H2 9916   0.500   1.103   2.045
 3318TIP3   OH2 9917   2.489   6.819   0.799
 3318TIP3    H1 9918   2.531   6.744   0.842
 3318TIP3    H2 9919   2.395   6.804   0.811
 3319TIP3   OH2 9920   0.950   2.650   0.746
 3319TIP3    H1 9921   0.884   2.690   0.689
 3319TIP3    H2 9922   1.033   2.685   0.713
 3320TIP3   OH2 9923   0.913   4.369   1.353
 3320TIP3    H1 9924   0.989   4.357   1.411
 3320TIP3    H2 9925   0.893   4.463   1.359
 3321TIP3   OH2 9926   0.546   2.761   3.373
 3321TIP3    H1 9927   0.578   2.849   3.393
 3321TIP3    H2 9928   0.566   2.749   3.280
 3322TIP3   OH2 9929   4.294   6.725   2.062
 3322TIP3    H1 9930   4.349   6.780   2.118
 3322TIP3    H2 9931   4.346   6.647   2.046
 3323TIP3   OH2 9932   1.163   2.345   1.344
 3323TIP3    H1 9933   1.246   2.361   1.301
 3323TIP3    H2 9934   1.105   2.313   1.274
 3324TIP3   OH2 9935   0.811   5.232   1.799
 3324TIP3    H1 9936   0.811   5.291   1.874
 3324TIP3    H2 9937   0.739   5.171   1.817
 3325TIP3   OH2 9938   0.482   6.623   5.764
 3325TIP3    H1 9939   0.397   6.660   5.787
 3325TIP3    H2 9940   0.494   6.645   5.672
 3326TIP3   OH2 9941   6.457   0.871   0.570
 3326TIP3    H1 9942   6.455   0.822   0.487
 3326TIP3    H2 9943   6.379   0.842   0.616
 3327TIP3   OH2 9944   1.540   5.656   0.096
 3327TIP3    H1 9945   1.501   5.590   0.039
 3327TIP3    H2 9946   1.470   5.679   0.157
 3328TIP3   OH2 9947   1.810   2.974   5.492
 3328TIP3    H1 9948   1.850   2.939   5.412
 3328TIP3    H2 9949   1.756   3.047   5.462
 3329TIP3   OH2 9950   0.048   6.671   4.574
 3329TIP3    H1 9951   0.128   6.621   4.554
 3329TIP3    H2 9952   0.040   6.733   4.502
 3330TIP3   OH2 9953   3.901   3.580   4.864
 3330TIP3    H1 9954   3.850   3.661   4.857
 3330TIP3    H2 9955   3.894   3.541   4.777
 3331TIP3   OH2 9956   4.980   4.045   1.878
 3331TIP3    H1 9957   5.027   4.032   1.796
 3331TIP3    H2 9958   5.030   3.995   1.943
 3332TIP3   OH2 9959   3.903   0.210   2.834
 3332TIP3    H1 9960   3.966   0.263   2.785
 3332TIP3    H2 9961   3.878   0.141   2.773
 3333TIP3   OH2 9962   7.101   3.584   2.289
 3333TIP3    H1 9963   7.116   3.660   2.234
 3333TIP3    H2 9964   7.034   3.612   2.352
 3334TIP3   OH2 9965   5.283   2.714   1.001
 3334TIP3    H1 9966   5.274   2.789   0.942
 3334TIP3    H2 9967   5.195   2.700   1.035
 3335TIP3   OH2 9968   7.045   1.384   4.447
 3335TIP3    H1 9969   7.073   1.292   4.449
 3335TIP3    H2 9970   7.116   1.430   4.401
 3336TIP3   OH2 9971   1.143   0.867   1.177
 3336TIP3    H1 9972   1.049   0.880   1.186
 3336TIP3    H2 9973   1.161   0.785   1.223
 3337TIP3   OH2 9974   0.986   5.272   5.630
 3337TIP3    H1 9975   0.892   5.279   5.617
 3337TIP3    H2 9976   1.022   5.354   5.595
 3338TIP3   OH2 9977   6.197   2.127   2.742
 3338TIP3    H1 9978   6.158   2.048   2.704
 3338TIP3    H2 9979   6.123   2.174   2.780
 3339TIP3   OH2 9980   4.150   0.679   3.604
 3339TIP3    H1 9981   4.102   0.624   3.543
 3339TIP3    H2 9982   4.118   0.654   3.690
 3340TIP3   OH2 9983   4.278   1.575   0.395
 3340TIP3    H1 9984   4.254   1.482   0.394
 3340TIP3    H2 9985   4.371   1.575   0.419
 3341TIP3   OH2 9986   3.753   1.882   0.353
 3341TIP3    H1 9987   3.819   1.950   0.365
 3341TIP3    H2 9988   3.679   1.911   0.407
 3342TIP3   OH2 9989   1.649   0.187   2.357
 3342TIP3    H1 9990   1.635   0.211   2.449
 3342TIP3    H2 9991   1.742   0.206   2.342
 3343TIP3   OH2 9992   4.547   2.764   5.745
 3343TIP3    H1 9993   4.559   2.833   5.811
 3343TIP3    H2 9994   4.632   2.720   5.742
 3344TIP3   OH2 9995   3.695   3.598   3.327
 3344TIP3    H1 9996   3.643   3.678   3.324
 3344TIP3    H2 9997   3.631   3.529   3.344
 3345TIP3   OH2 9998   4.652   6.436   4.627
 3345TIP3    H1 9999   4.666   6.408   4.536
 3345TIP3    H210000   4.632   6.529   4.620
 3346TIP3   OH210001   0.372   6.319   0.945
 3346TIP3    H110002   0.315   6.249   0.912
 3346TIP3    H210003   0.417   6.351   0.867
 3347TIP3   OH210004   3.251   6.076   3.562
 3347TIP3    H110005   3.280   6.006   3.620
 3347TIP3    H210006   3.183   6.121   3.611
 3348TIP3   OH210007   5.366   0.282   0.060
 3348TIP3    H110008   5.433   0.343   0.027
 3348TIP3    H210009   5.318   0.332   0.125
 3349TIP3   OH210010   0.912   4.194   1.723
 3349TIP3    H110011   0.829   4.188   1.676
 3349TIP3    H210012   0.946   4.105   1.724
 3350TIP3   OH210013   3.022   5.403   4.828
 3350TIP3    H110014   3.040   5.475   4.769
 3350TIP3    H210015   2.941   5.428   4.873
 3351TIP3   OH210016   3.496   5.677   0.748
 3351TIP3    H110017   3.476   5.726   0.827
 3351TIP3    H210018   3.411   5.647   0.715
 3352TIP3   OH210019   0.349   1.486   2.352
 3352TIP3    H110020   0.303   1.509   2.433
 3352TIP3    H210021   0.429   1.538   2.354
 3353TIP3   OH210022   5.314   2.326   2.329
 3353TIP3    H110023   5.324   2.271   2.251
 3353TIP3    H210024   5.268   2.270   2.392
 3354TIP3   OH210025   6.928   1.829   3.723
 3354TIP3    H110026   6.987   1.880   3.668
 3354TIP3    H210027   6.866   1.894   3.757
 3355TIP3   OH210028   3.630   3.895   5.416
 3355TIP3    H110029   3.702   3.923   5.359
 3355TIP3    H210030   3.552   3.902   5.362
 3356TIP3   OH210031   0.984   6.025   1.840
 3356TIP3    H110032   0.932   6.104   1.850
 3356TIP3    H210033   0.953   5.985   1.759
 3357TIP3   OH210034   5.277   3.383   5.497
 3357TIP3    H110035   5.235   3.461   5.534
 3357TIP3    H210036   5.306   3.410   5.410
 3358TIP3   OH210037   4.814   4.553   1.294
 3358TIP3    H110038   4.839   4.619   1.229
 3358TIP3    H210039   4.761   4.490   1.246
 3359TIP3   OH210040   0.009   3.012   3.612
 3359TIP3    H110041  -0.050   2.965   3.553
 3359TIP3    H210042   0.074   3.051   3.554
 3360TIP3   OH210043   6.585   1.928   0.633
 3360TIP3    H110044   6.501   1.937   0.588
 3360TIP3    H210045   6.646   1.980   0.580
 3361TIP3   OH210046   5.092   4.563   2.481
 3361TIP3    H110047   5.021   4.500   2.494
 3361TIP3    H210048   5.079   4.597   2.393
 3362TIP3   OH210049   0.071   5.651   5.326
 3362TIP3    H110050   0.106   5.595   5.257
 3362TIP3    H210051   0.054   5.735   5.284
 3363TIP3   OH210052   1.708   1.741   1.918
 3363TIP3    H110053   1.733   1.655   1.953
 3363TIP3    H210054   1.626   1.725   1.872
 3364TIP3   OH210055   0.732   3.986   3.872
 3364TIP3    H110056   0.751   4.066   3.824
 3364TIP3    H210057   0.648   4.004   3.916
 3365TIP3   OH210058   2.839   5.547   0.826
 3365TIP3    H110059   2.817   5.610   0.757
 3365TIP3    H210060   2.930   5.566   0.847
 3366TIP3   OH210061   1.563   1.985   4.566
 3366TIP3    H110062   1.560   2.072   4.528
 3366TIP3    H210063   1.479   1.946   4.543
 3367TIP3   OH210064   3.923   5.353   4.701
 3367TIP3    H110065   3.922   5.321   4.791
 3367TIP3    H210066   3.975   5.433   4.704
 3368TIP3   OH210067   1.471   4.959   4.949
 3368TIP3    H110068   1.404   4.916   4.896
 3368TIP3    H210069   1.422   5.017   5.007
 3369TIP3   OH210070   0.385   1.222   5.294
 3369TIP3    H110071   0.347   1.265   5.370
 3369TIP3    H210072   0.478   1.211   5.316
 3370TIP3   OH210073   2.578   2.213   4.817
 3370TIP3    H110074   2.537   2.152   4.878
 3370TIP3    H210075   2.628   2.273   4.873
 3371TIP3   OH210076   6.509   2.940   1.313
 3371TIP3    H110077   6.558   2.952   1.231
 3371TIP3    H210078   6.435   2.999   1.306
 3372TIP3   OH210079   1.974   2.141   4.783
 3372TIP3    H110080   1.929   2.066   4.743
 3372TIP3    H210081   2.062   2.139   4.745
 3373TIP3   OH210082   6.241   2.153   4.232
 3373TIP3    H110083   6.252   2.149   4.137
 3373TIP3    H210084   6.147   2.140   4.245
 3374TIP3   OH210085   6.223   0.141   0.750
 3374TIP3    H110086   6.228   0.050   0.779
 3374TIP3    H210087   6.314   0.170   0.747
 3375TIP3   OH210088   3.414   4.203   0.693
 3375TIP3    H110089   3.468   4.124   0.699
 3375TIP3    H210090   3.475   4.275   0.713
 3376TIP3   OH210091   4.883   3.771   3.321
 3376TIP3    H110092   4.882   3.733   3.409
 3376TIP3    H210093   4.843   3.705   3.265
 3377TIP3   OH210094   4.174   4.023   0.328
 3377TIP3    H110095   4.177   3.943   0.277
 3377TIP3    H210096   4.265   4.040   0.354
 3378TIP3   OH210097   7.123   3.950   0.630
 3378TIP3    H110098   7.162   3.913   0.551
 3378TIP3    H210099   7.121   4.045   0.615
 3379TIP3   OH210100   6.978   6.330   0.087
 3379TIP3    H110101   7.028   6.410   0.103
 3379TIP3    H210102   6.893   6.345   0.130
 3380TIP3   OH210103   4.243   1.101   3.854
 3380TIP3    H110104   4.295   1.034   3.900
 3380TIP3    H210105   4.211   1.157   3.924
 3381TIP3   OH210106   0.239   3.840   4.834
 3381TIP3    H110107   0.202   3.924   4.860
 3381TIP3    H210108   0.269   3.853   4.744
 3382TIP3   OH210109   4.537   6.747   5.503
 3382TIP3    H110110   4.606   6.749   5.569
 3382TIP3    H210111   4.534   6.656   5.473
 3383TIP3   OH210112   2.873   5.447   1.472
 3383TIP3    H110113   2.943   5.449   1.538
 3383TIP3    H210114   2.798   5.410   1.519
 3384TIP3   OH210115   4.843   6.253   1.070
 3384TIP3    H110116   4.773   6.205   1.116
 3384TIP3    H210117   4.889   6.186   1.020
 3385TIP3   OH210118   3.900   3.081   0.886
 3385TIP3    H110119   3.929   3.099   0.797
 3385TIP3    H210120   3.811   3.047   0.876
 3386TIP3   OH210121   4.283   2.954   0.069
 3386TIP3    H110122   4.239   3.018   0.013
 3386TIP3    H210123   4.348   3.004   0.118
 3387TIP3   OH210124   4.619   6.735   4.290
 3387TIP3    H110125   4.594   6.708   4.378
 3387TIP3    H210126   4.546   6.791   4.261
 3388TIP3   OH210127   1.431   5.824   3.518
 3388TIP3    H110128   1.412   5.731   3.503
 3388TIP3    H210129   1.381   5.846   3.596
 3389TIP3   OH210130   4.746   6.348   4.391
 3389TIP3    H110131   4.760   6.363   4.298
 3389TIP3    H210132   4.717   6.257   4.398
 3390TIP3   OH210133   6.918   3.872   5.691
 3390TIP3    H110134   6.855   3.856   5.761
 3390TIP3    H210135   7.001   3.839   5.725
 3391TIP3   OH210136   4.732   1.115   0.413
 3391TIP3    H110137   4.803   1.070   0.367
 3391TIP3    H210138   4.767   1.202   0.432
 3392TIP3   OH210139   4.980   2.807   5.764
 3392TIP3    H110140   5.000   2.890   5.722
 3392TIP3    H210141   5.063   2.778   5.802
 3393TIP3   OH210142   4.419   0.578   3.609
 3393TIP3    H110143   4.442   0.554   3.699
 3393TIP3    H210144   4.327   0.602   3.613
 3394TIP3   OH210145   6.897   1.091   3.644
 3394TIP3    H110146   6.806   1.101   3.616
 3394TIP3    H210147   6.891   1.082   3.739
 3395TIP3   OH210148   4.477   0.660   5.120
 3395TIP3    H110149   4.486   0.606   5.198
 3395TIP3    H210150   4.565   0.665   5.083
 3396TIP3   OH210151   0.278   4.702   3.979
 3396TIP3    H110152   0.308   4.781   3.934
 3396TIP3    H210153   0.240   4.648   3.910
 3397TIP3   OH210154   4.400   4.490   0.367
 3397TIP3    H110155   4.307   4.505   0.352
 3397TIP3    H210156   4.436   4.578   0.382
 3398TIP3   OH210157   3.321   0.882   4.427
 3398TIP3    H110158   3.370   0.829   4.365
 3398TIP3    H210159   3.361   0.968   4.423
 3399TIP3   OH210160   2.939   1.588   0.357
 3399TIP3    H110161   2.887   1.656   0.400
 3399TIP3    H210162   3.024   1.630   0.341
 3400TIP3   OH210163   2.632   2.254   1.363
 3400TIP3    H110164   2.596   2.169   1.337
 3400TIP3    H210165   2.571   2.287   1.429
 3401TIP3   OH210166   3.516   6.154   5.036
 3401TIP3    H110167   3.533   6.070   5.079
 3401TIP3    H210168   3.422   6.169   5.048
 3402TIP3   OH210169   2.613   6.351   3.182
 3402TIP3    H110170   2.700   6.374   3.215
 3402TIP3    H210171   2.566   6.434   3.177
 3403TIP3   OH210172   4.043   6.349   4.737
 3403TIP3    H110173   4.049   6.281   4.671
 3403TIP3    H210174   3.950   6.373   4.738
 3404TIP3   OH210175   1.231  -0.019   0.049
 3404TIP3    H110176   1.289   0.021   0.113
 3404TIP3    H210177   1.268   0.006  -0.036
 3405TIP3   OH210178   2.753   5.832   0.146
 3405TIP3    H110179   2.680   5.871   0.098
 3405TIP3    H210180   2.711   5.781   0.215
 3406TIP3   OH210181   0.815   4.088   3.140
 3406TIP3    H110182   0.854   4.005   3.170
 3406TIP3    H210183   0.887   4.151   3.142
 3407TIP3   OH210184   1.835   4.096   3.746
 3407TIP3    H110185   1.894   4.158   3.704
 3407TIP3    H210186   1.758   4.148   3.769
 3408TIP3   OH210187   6.388   1.202   1.343
 3408TIP3    H110188   6.430   1.262   1.404
 3408TIP3    H210189   6.378   1.121   1.392
 3409TIP3   OH210190   5.042   2.569   4.769
 3409TIP3    H110191   5.033   2.592   4.676
 3409TIP3    H210192   5.113   2.505   4.771
 3410TIP3   OH210193   3.976   2.050   4.370
 3410TIP3    H110194   3.979   2.143   4.345
 3410TIP3    H210195   3.973   2.003   4.287
 3411TIP3   OH210196   1.789   5.957   0.383
 3411TIP3    H110197   1.773   5.863   0.393
 3411TIP3    H210198   1.705   5.993   0.354
 3412TIP3   OH210199   5.572   2.251   1.049
 3412TIP3    H110200   5.649   2.212   1.008
 3412TIP3    H210201   5.606   2.299   1.125
 3413TIP3   OH210202   1.437   2.224   0.979
 3413TIP3    H110203   1.430   2.174   0.898
 3413TIP3    H210204   1.348   2.252   0.999
 3414TIP3   OH210205   0.611   2.424   2.145
 3414TIP3    H110206   0.612   2.330   2.162
 3414TIP3    H210207   0.662   2.435   2.065
 3415TIP3   OH210208   4.376   0.064   4.673
 3415TIP3    H110209   4.294   0.091   4.715
 3415TIP3    H210210   4.444   0.092   4.735
 3416TIP3   OH210211   0.623   3.041   4.845
 3416TIP3    H110212   0.628   3.127   4.804
 3416TIP3    H210213   0.654   2.981   4.777
 3417TIP3   OH210214   6.220   5.536   2.044
 3417TIP3    H110215   6.255   5.567   2.128
 3417TIP3    H210216   6.220   5.440   2.052
 3418TIP3   OH210217   0.053   4.792   0.199
 3418TIP3    H110218  -0.029   4.836   0.176
 3418TIP3    H210219   0.044   4.772   0.292
 3419TIP3   OH210220   6.679   5.148   1.680
 3419TIP3    H110221   6.717   5.064   1.702
 3419TIP3    H210222   6.711   5.208   1.748
 3420TIP3   OH210223   6.117   3.970   1.830
 3420TIP3    H110224   6.045   3.938   1.885
 3420TIP3    H210225   6.073   4.017   1.758
 3421TIP3   OH210226   5.576   0.629   1.903
 3421TIP3    H110227   5.631   0.616   1.826
 3421TIP3    H210228   5.514   0.697   1.877
 3422TIP3   OH210229   3.777   3.915   0.070
 3422TIP3    H110230   3.838   3.958   0.010
 3422TIP3    H210231   3.751   3.835   0.024
 3423TIP3   OH210232   6.995   6.715   1.751
 3423TIP3    H110233   7.001   6.621   1.765
 3423TIP3    H210234   7.085   6.747   1.761
 3424TIP3   OH210235   2.337   3.260   0.514
 3424TIP3    H110236   2.279   3.190   0.544
 3424TIP3    H210237   2.424   3.220   0.511
 3425TIP3   OH210238   2.427   1.843   5.526
 3425TIP3    H110239   2.393   1.780   5.590
 3425TIP3    H210240   2.351   1.893   5.498
 3426TIP3   OH210241   6.003   2.334   5.804
 3426TIP3    H110242   6.038   2.302   5.722
 3426TIP3    H210243   5.949   2.263   5.837
 3427TIP3   OH210244   5.294   5.410   4.141
 3427TIP3    H110245   5.210   5.408   4.187
 3427TIP3    H210246   5.278   5.467   4.065
 3428TIP3   OH210247   3.265   3.560   4.438
 3428TIP3    H110248   3.236   3.530   4.524
 3428TIP3    H210249   3.190   3.607   4.402
 3429TIP3   OH210250   3.235   2.202   5.315
 3429TIP3    H110251   3.171   2.135   5.293
 3429TIP3    H210252   3.311   2.153   5.347
 3430TIP3   OH210253   1.921   6.164   2.077
 3430TIP3    H110254   1.967   6.212   2.146
 3430TIP3    H210255   1.969   6.186   1.997
 3431TIP3   OH210256   3.911   3.893   1.187
 3431TIP3    H110257   3.833   3.902   1.132
 3431TIP3    H210258   3.979   3.942   1.141
 3432TIP3   OH210259   2.972   1.536   3.517
 3432TIP3    H110260   2.992   1.489   3.598
 3432TIP3    H210261   3.002   1.625   3.532
 3433TIP3   OH210262   6.989   1.552   3.821
 3433TIP3    H110263   6.973   1.646   3.810
 3433TIP3    H210264   6.902   1.512   3.813
 3434TIP3   OH210265   4.147   0.958   2.231
 3434TIP3    H110266   4.112   1.040   2.195
 3434TIP3    H210267   4.126   0.962   2.324
 3435TIP3   OH210268   5.571  -0.002   1.796
 3435TIP3    H110269   5.524   0.078   1.819
 3435TIP3    H210270   5.504  -0.070   1.794
 3436TIP3   OH210271   3.875   3.936   2.704
 3436TIP3    H110272   3.871   3.912   2.796
 3436TIP3    H210273   3.964   3.912   2.676
 3437TIP3   OH210274   1.296   4.312   0.410
 3437TIP3    H110275   1.319   4.334   0.320
 3437TIP3    H210276   1.377   4.281   0.450
 3438TIP3   OH210277   4.404   5.201   2.779
 3438TIP3    H110278   4.414   5.106   2.789
 3438TIP3    H210279   4.478   5.238   2.828
 3439TIP3   OH210280   0.079   4.784   4.158
 3439TIP3    H110281   0.112   4.873   4.169
 3439TIP3    H210282   0.144   4.742   4.101
 3440TIP3   OH210283   6.452   5.712   3.634
 3440TIP3    H110284   6.490   5.798   3.617
 3440TIP3    H210285   6.527   5.653   3.641
 3441TIP3   OH210286   3.562   2.121   4.339
 3441TIP3    H110287   3.480   2.112   4.289
 3441TIP3    H210288   3.548   2.068   4.418
 3442TIP3   OH210289   6.265   4.910   1.389
 3442TIP3    H110290   6.346   4.859   1.394
 3442TIP3    H210291   6.294   5.001   1.379
 3443TIP3   OH210292   5.321   2.856   2.730
 3443TIP3    H110293   5.400   2.897   2.765
 3443TIP3    H210294   5.317   2.771   2.772
 3444TIP3   OH210295   0.895   1.960   5.447
 3444TIP3    H110296   0.952   1.912   5.387
 3444TIP3    H210297   0.884   1.900   5.521
 3445TIP3   OH210298   0.608   6.427   2.927
 3445TIP3    H110299   0.558   6.378   2.991
 3445TIP3    H210300   0.700   6.412   2.950
 3446TIP3   OH210301   4.153   3.801   2.619
 3446TIP3    H110302   4.175   3.789   2.711
 3446TIP3    H210303   4.164   3.714   2.580
 3447TIP3   OH210304   7.192   6.104   0.109
 3447TIP3    H110305   7.161   6.193   0.090
 3447TIP3    H210306   7.241   6.113   0.191
 3448TIP3   OH210307   3.573   6.073   2.668
 3448TIP3    H110308   3.574   5.977   2.675
 3448TIP3    H210309   3.625   6.091   2.590
 3449TIP3   OH210310   7.113   4.878   1.355
 3449TIP3    H110311   7.119   4.847   1.264
 3449TIP3    H210312   7.194   4.847   1.396
 3450TIP3   OH210313   4.931   2.048   5.697
 3450TIP3    H110314   4.997   1.979   5.702
 3450TIP3    H210315   4.963   2.116   5.756
 3451TIP3   OH210316   4.202   0.170   0.357
 3451TIP3    H110317   4.274   0.121   0.317
 3451TIP3    H210318   4.222   0.170   0.450
 3452TIP3   OH210319   1.678   2.172   1.953
 3452TIP3    H110320   1.618   2.123   2.009
 3452TIP3    H210321   1.622   2.208   1.884
 3453TIP3   OH210322   4.487   5.647   5.009
 3453TIP3    H110323   4.441   5.638   5.092
 3453TIP3    H210324   4.525   5.561   4.993
 3454TIP3   OH210325   0.897   1.464   3.043
 3454TIP3    H110326   0.906   1.555   3.072
 3454TIP3    H210327   0.987   1.435   3.027
 3455TIP3   OH210328   4.122   2.111   2.783
 3455TIP3    H110329   4.129   2.139   2.691
 3455TIP3    H210330   4.171   2.177   2.832
 3456TIP3   OH210331   5.958   1.062   5.676
 3456TIP3    H110332   6.039   1.097   5.640
 3456TIP3    H210333   5.930   1.126   5.741
 3457TIP3   OH210334   2.085   4.119   5.154
 3457TIP3    H110335   2.130   4.034   5.150
 3457TIP3    H210336   2.151   4.180   5.187
 3458TIP3   OH210337   6.890   3.599   0.295
 3458TIP3    H110338   6.915   3.507   0.300
 3458TIP3    H210339   6.964   3.641   0.251
 3459TIP3   OH210340   3.987   5.928   2.779
 3459TIP3    H110341   3.952   5.845   2.745
 3459TIP3    H210342   4.020   5.905   2.866
 3460TIP3   OH210343   0.727   5.571   4.203
 3460TIP3    H110344   0.715   5.564   4.298
 3460TIP3    H210345   0.767   5.488   4.178
 3461TIP3   OH210346   6.006   3.461   2.593
 3461TIP3    H110347   6.017   3.368   2.573
 3461TIP3    H210348   6.051   3.473   2.676
 3462TIP3   OH210349   5.643   6.652   5.431
 3462TIP3    H110350   5.729   6.637   5.393
 3462TIP3    H210351   5.658   6.717   5.500
 3463TIP3   OH210352   5.774   3.560   1.811
 3463TIP3    H110353   5.718   3.497   1.765
 3463TIP3    H210354   5.816   3.609   1.741
 3464TIP3   OH210355   6.397   2.375   4.368
 3464TIP3    H110356   6.341   2.441   4.328
 3464TIP3    H210357   6.370   2.293   4.327
 3465TIP3   OH210358   1.871   2.268   1.638
 3465TIP3    H110359   1.833   2.344   1.594
 3465TIP3    H210360   1.819   2.259   1.719
 3466TIP3   OH210361   1.242   5.811   4.080
 3466TIP3    H110362   1.228   5.870   4.154
 3466TIP3    H210363   1.232   5.723   4.117
 3467TIP3   OH210364   5.521   2.483   5.589
 3467TIP3    H110365   5.586   2.464   5.521
 3467TIP3    H210366   5.482   2.566   5.562
 3468TIP3   OH210367   6.919   6.442   3.200
 3468TIP3    H110368   6.969   6.444   3.282
 3468TIP3    H210369   6.901   6.349   3.185
 3469TIP3   OH210370   2.393   4.958   1.765
 3469TIP3    H110371   2.392   5.047   1.730
 3469TIP3    H210372   2.301   4.934   1.771
 3470TIP3   OH210373   3.225   6.464   3.559
 3470TIP3    H110374   3.192   6.517   3.631
 3470TIP3    H210375   3.184   6.378   3.572
 3471TIP3   OH210376   3.817   4.649   0.731
 3471TIP3    H110377   3.883   4.675   0.796
 3471TIP3    H210378   3.734   4.650   0.779
 3472TIP3   OH210379   3.143   6.068   0.523
 3472TIP3    H110380   3.129   6.155   0.483
 3472TIP3    H210381   3.183   6.016   0.454
 3473TIP3   OH210382   2.250   0.663   2.254
 3473TIP3    H110383   2.317   0.600   2.228
 3473TIP3    H210384   2.206   0.623   2.329
 3474TIP3   OH210385   0.037   1.479   1.924
 3474TIP3    H110386   0.030   1.384   1.927
 3474TIP3    H210387   0.043   1.506   2.015
 3475TIP3   OH210388   7.037   3.521   1.238
 3475TIP3    H110389   7.119   3.471   1.245
 3475TIP3    H210390   7.064   3.612   1.245
 3476TIP3   OH210391   5.660   5.901   3.757
 3476TIP3    H110392   5.667   5.960   3.682
 3476TIP3    H210393   5.576   5.857   3.745
 3477TIP3   OH210394   3.513   3.396   5.222
 3477TIP3    H110395   3.506   3.488   5.248
 3477TIP3    H210396   3.567   3.398   5.142
 3478TIP3   OH210397   0.299   2.280   3.963
 3478TIP3    H110398   0.316   2.350   4.026
 3478TIP3    H210399   0.205   2.264   3.968
 3479TIP3   OH210400   3.586   1.845   4.020
 3479TIP3    H110401   3.602   1.937   3.999
 3479TIP3    H210402   3.623   1.834   4.108
 3480TIP3   OH210403   5.384   3.172   4.740
 3480TIP3    H110404   5.350   3.154   4.652
 3480TIP3    H210405   5.405   3.265   4.739
 3481TIP3   OH210406   6.294   5.880   2.013
 3481TIP3    H110407   6.323   5.970   2.002
 3481TIP3    H210408   6.234   5.883   2.088
 3482TIP3   OH210409   7.181   0.808   3.033
 3482TIP3    H110410   7.136   0.798   2.949
 3482TIP3    H210411   7.267   0.768   3.018
 3483TIP3   OH210412   0.361   2.167   1.527
 3483TIP3    H110413   0.274   2.173   1.487
 3483TIP3    H210414   0.351   2.103   1.598
 3484TIP3   OH210415   4.148   6.522   2.351
 3484TIP3    H110416   4.115   6.608   2.324
 3484TIP3    H210417   4.243   6.533   2.352
 3485TIP3   OH210418   6.942   1.588   4.657
 3485TIP3    H110419   6.955   1.512   4.600
 3485TIP3    H210420   6.995   1.568   4.735
 3486TIP3   OH210421   6.523   2.341   2.068
 3486TIP3    H110422   6.507   2.392   1.989
 3486TIP3    H210423   6.469   2.263   2.057
 3487TIP3   OH210424   3.045   3.279   4.426
 3487TIP3    H110425   3.010   3.368   4.423
 3487TIP3    H210426   2.980   3.225   4.382
 3488TIP3   OH210427   0.354   2.357   1.042
 3488TIP3    H110428   0.312   2.394   0.964
 3488TIP3    H210429   0.287   2.299   1.080
 3489TIP3   OH210430   6.034   1.890   2.311
 3489TIP3    H110431   5.975   1.916   2.382
 3489TIP3    H210432   6.083   1.816   2.346
 3490TIP3   OH210433   4.766   6.281   2.239
 3490TIP3    H110434   4.809   6.357   2.278
 3490TIP3    H210435   4.692   6.264   2.296
 3491TIP3   OH210436   4.140   4.425   0.987
 3491TIP3    H110437   4.165   4.350   0.934
 3491TIP3    H210438   4.170   4.402   1.075
 3492TIP3   OH210439   3.872   3.186   5.127
 3492TIP3    H110440   3.812   3.216   5.058
 3492TIP3    H210441   3.939   3.253   5.131
 3493TIP3   OH210442   2.361   4.166   0.202
 3493TIP3    H110443   2.300   4.105   0.243
 3493TIP3    H210444   2.336   4.252   0.237
 3494TIP3   OH210445   3.830   4.464   3.539
 3494TIP3    H110446   3.905   4.504   3.583
 3494TIP3    H210447   3.804   4.392   3.596
 3495TIP3   OH210448   5.295   2.264   1.999
 3495TIP3    H110449   5.341   2.343   1.972
 3495TIP3    H210450   5.251   2.233   1.919
 3496TIP3   OH210451   2.051   6.275   2.298
 3496TIP3    H110452   1.979   6.247   2.356
 3496TIP3    H210453   2.123   6.215   2.318
 3497TIP3   OH210454   6.946   0.259   0.382
 3497TIP3    H110455   6.984   0.321   0.444
 3497TIP3    H210456   6.894   0.314   0.323
 3498TIP3   OH210457   6.338   4.719   4.161
 3498TIP3    H110458   6.384   4.803   4.168
 3498TIP3    H210459   6.407   4.655   4.146
 3499TIP3   OH210460   5.609   2.984   0.059
 3499TIP3    H110461   5.686   2.990   0.002
 3499TIP3    H210462   5.641   2.939   0.138
 3500TIP3   OH210463   6.702   6.729   4.774
 3500TIP3    H110464   6.766   6.660   4.796
 3500TIP3    H210465   6.711   6.793   4.845
 3501TIP3   OH210466   3.840   3.794   2.954
 3501TIP3    H110467   3.856   3.775   3.046
 3501TIP3    H210468   3.802   3.714   2.919
 3502TIP3   OH210469   4.355   6.550   1.174
 3502TIP3    H110470   4.302   6.526   1.098
 3502TIP3    H210471   4.352   6.473   1.231
 3503TIP3   OH210472   4.042   3.307   1.481
 3503TIP3    H110473   4.106   3.305   1.410
 3503TIP3    H210474   4.066   3.385   1.533
 3504TIP3   OH210475   2.685   0.823   2.067
 3504TIP3    H110476   2.613   0.884   2.053
 3504TIP3    H210477   2.764   0.876   2.056
 3505TIP3   OH210478   2.632   5.070   5.529
 3505TIP3    H110479   2.563   5.051   5.593
 3505TIP3    H210480   2.633   5.166   5.523
 3506TIP3   OH210481   4.645   3.699   0.971
 3506TIP3    H110482   4.572   3.643   0.998
 3506TIP3    H210483   4.644   3.771   1.034
 3507TIP3   OH210484   2.785   4.479   2.217
 3507TIP3    H110485   2.736   4.464   2.298
 3507TIP3    H210486   2.751   4.560   2.182
 3508TIP3   OH210487   6.162   5.645   4.503
 3508TIP3    H110488   6.201   5.698   4.433
 3508TIP3    H210489   6.070   5.636   4.477
 3509TIP3   OH210490   0.880   0.506   3.144
 3509TIP3    H110491   0.934   0.470   3.073
 3509TIP3    H210492   0.826   0.432   3.171
 3510TIP3   OH210493   5.093   6.132   3.935
 3510TIP3    H110494   5.009   6.172   3.955
 3510TIP3    H210495   5.121   6.092   4.018
 3511TIP3   OH210496   0.507   5.322   0.176
 3511TIP3    H110497   0.514   5.286   0.087
 3511TIP3    H210498   0.485   5.414   0.163
 3512TIP3   OH210499   4.948   5.600   1.414
 3512TIP3    H110500   4.881   5.538   1.443
 3512TIP3    H210501   5.016   5.594   1.481
 3513TIP3   OH210502   1.683   6.621   5.368
 3513TIP3    H110503   1.743   6.638   5.296
 3513TIP3    H210504   1.598   6.610   5.325
 3514TIP3   OH210505   2.569   4.480   0.179
 3514TIP3    H110506   2.642   4.543   0.176
 3514TIP3    H210507   2.587   4.427   0.257
 3515TIP3   OH210508   2.231   0.878   2.083
 3515TIP3    H110509   2.191   0.851   2.000
 3515TIP3    H210510   2.213   0.806   2.143
 3516TIP3   OH210511   5.492   1.971   0.737
 3516TIP3    H110512   5.425   2.034   0.764
 3516TIP3    H210513   5.523   2.003   0.652
 3517TIP3   OH210514   5.913   6.423   0.644
 3517TIP3    H110515   5.839   6.383   0.689
 3517TIP3    H210516   5.926   6.368   0.566
 3518TIP3   OH210517   3.869   4.164   4.973
 3518TIP3    H110518   3.947   4.114   4.948
 3518TIP3    H210519   3.901   4.227   5.037
 3519TIP3   OH210520   5.584   2.640   2.250
 3519TIP3    H110521   5.497   2.601   2.239
 3519TIP3    H210522   5.605   2.625   2.342
 3520TIP3   OH210523   4.403   1.651   3.162
 3520TIP3    H110524   4.462   1.706   3.110
 3520TIP3    H210525   4.351   1.713   3.213
 3521TIP3   OH210526   3.088   4.331   5.252
 3521TIP3    H110527   3.142   4.255   5.272
 3521TIP3    H210528   3.136   4.405   5.289
 3522TIP3   OH210529   3.987   4.658   0.941
 3522TIP3    H110530   4.018   4.569   0.956
 3522TIP3    H210531   4.029   4.711   1.009
 3523TIP3   OH210532   6.124   1.654   2.391
 3523TIP3    H110533   6.119   1.681   2.482
 3523TIP3    H210534   6.190   1.584   2.390
 3524TIP3   OH210535   7.033   2.697   2.290
 3524TIP3    H110536   6.963   2.748   2.330
 3524TIP3    H210537   7.099   2.689   2.359
 3525TIP3   OH210538   0.754   5.273   4.785
 3525TIP3    H110539   0.706   5.350   4.755
 3525TIP3    H210540   0.825   5.262   4.722
 3526TIP3   OH210541   7.009   5.068   3.967
 3526TIP3    H110542   6.950   5.121   3.913
 3526TIP3    H210543   7.001   4.979   3.931
 3527TIP3   OH210544   7.077   3.785   4.734
 3527TIP3    H110545   7.044   3.803   4.646
 3527TIP3    H210546   7.172   3.777   4.723
 3528TIP3   OH210547   2.819   3.523   3.856
 3528TIP3    H110548   2.850   3.512   3.766
 3528TIP3    H210549   2.742   3.579   3.848
 3529TIP3   OH210550   5.802   1.678   3.669
 3529TIP3    H110551   5.810   1.704   3.578
 3529TIP3    H210552   5.798   1.583   3.667
 3530TIP3   OH210553   6.246   0.192   3.934
 3530TIP3    H110554   6.188   0.132   3.981
 3530TIP3    H210555   6.309   0.135   3.891
 3531TIP3   OH210556   0.125   3.012   1.734
 3531TIP3    H110557   0.160   2.928   1.763
 3531TIP3    H210558   0.030   2.998   1.733
 3532TIP3   OH210559   5.283   0.302   3.458
 3532TIP3    H110560   5.237   0.263   3.383
 3532TIP3    H210561   5.214   0.342   3.510
 3533TIP3   OH210562   6.587   2.804   2.087
 3533TIP3    H110563   6.652   2.869   2.112
 3533TIP3    H210564   6.510   2.856   2.062
 3534TIP3   OH210565   0.544   5.802   4.608
 3534TIP3    H110566   0.448   5.794   4.606
 3534TIP3    H210567   0.560   5.872   4.672
 3535TIP3   OH210568   3.466   4.449   2.273
 3535TIP3    H110569   3.371   4.462   2.274
 3535TIP3    H210570   3.485   4.403   2.354
 3536TIP3   OH210571   3.693   6.278   0.620
 3536TIP3    H110572   3.749   6.299   0.545
 3536TIP3    H210573   3.632   6.212   0.585
 3537TIP3   OH210574   5.358   0.266   3.821
 3537TIP3    H110575   5.388   0.198   3.761
 3537TIP3    H210576   5.277   0.299   3.782
 3538TIP3   OH210577   4.355   3.474   4.532
 3538TIP3    H110578   4.424   3.453   4.594
 3538TIP3    H210579   4.397   3.474   4.446
 3539TIP3   OH210580   6.365   0.132   0.217
 3539TIP3    H110581   6.435   0.070   0.194
 3539TIP3    H210582   6.390   0.165   0.303
 3540TIP3   OH210583   4.909   4.940   0.294
 3540TIP3    H110584   4.999   4.971   0.299
 3540TIP3    H210585   4.858   5.016   0.267
 3541TIP3   OH210586   1.589   3.680   0.987
 3541TIP3    H110587   1.668   3.685   1.041
 3541TIP3    H210588   1.517   3.697   1.047
 3542TIP3   OH210589   2.893   0.208   0.949
 3542TIP3    H110590   2.899   0.216   0.853
 3542TIP3    H210591   2.881   0.114   0.964
 3543TIP3   OH210592   1.113   0.411   4.799
 3543TIP3    H110593   1.063   0.451   4.870
 3543TIP3    H210594   1.073   0.325   4.786
 3544TIP3   OH210595   0.734   1.991   5.069
 3544TIP3    H110596   0.709   1.898   5.064
 3544TIP3    H210597   0.667   2.036   5.018
 3545TIP3   OH210598   3.249   5.185   2.468
 3545TIP3    H110599   3.306   5.248   2.512
 3545TIP3    H210600   3.237   5.115   2.532
 3546TIP3   OH210601   5.016   3.040   1.723
 3546TIP3    H110602   4.970   3.012   1.644
 3546TIP3    H210603   5.004   3.134   1.727
 3547TIP3   OH210604   5.982   3.568   2.156
 3547TIP3    H110605   5.893   3.534   2.146
 3547TIP3    H210606   6.026   3.544   2.075
 3548TIP3   OH210607   2.985   2.729   2.187
 3548TIP3    H110608   3.007   2.739   2.094
 3548TIP3    H210609   2.954   2.638   2.194
 3549TIP3   OH210610   6.110   2.573   3.270
 3549TIP3    H110611   6.186   2.519   3.292
 3549TIP3    H210612   6.088   2.549   3.180
 3550TIP3   OH210613   2.220   5.426   5.661
 3550TIP3    H110614   2.293   5.482   5.688
 3550TIP3    H210615   2.261   5.355   5.611
 3551TIP3   OH210616   6.664   6.527   0.979
 3551TIP3    H110617   6.615   6.585   1.037
 3551TIP3    H210618   6.611   6.521   0.899
 3552TIP3   OH210619   6.329   2.307   2.943
 3552TIP3    H110620   6.316   2.363   2.866
 3552TIP3    H210621   6.335   2.219   2.907
 3553TIP3   OH210622   4.479   1.173   5.225
 3553TIP3    H110623   4.509   1.261   5.204
 3553TIP3    H210624   4.395   1.185   5.269
 3554TIP3   OH210625   6.258   2.954   2.619
 3554TIP3    H110626   6.237   2.933   2.710
 3554TIP3    H210627   6.208   2.891   2.567
 3555TIP3   OH210628   4.723   5.890   4.983
 3555TIP3    H110629   4.678   5.806   4.991
 3555TIP3    H210630   4.814   5.868   4.966
 3556TIP3   OH210631   5.197   3.326   3.232
 3556TIP3    H110632   5.242   3.292   3.155
 3556TIP3    H210633   5.267   3.350   3.292
 3557TIP3   OH210634   3.249   0.443   1.873
 3557TIP3    H110635   3.229   0.358   1.833
 3557TIP3    H210636   3.336   0.465   1.840
 3558TIP3   OH210637   4.270   2.888   5.753
 3558TIP3    H110638   4.264   2.792   5.751
 3558TIP3    H210639   4.360   2.906   5.725
 3559TIP3   OH210640   3.672   1.371   2.947
 3559TIP3    H110641   3.738   1.330   2.891
 3559TIP3    H210642   3.714   1.452   2.978
 3560TIP3   OH210643   6.686   5.917   2.517
 3560TIP3    H110644   6.731   5.841   2.481
 3560TIP3    H210645   6.619   5.879   2.575
 3561TIP3   OH210646   5.909   1.922   2.840
 3561TIP3    H110647   5.872   2.005   2.810
 3561TIP3    H210648   5.982   1.906   2.779
 3562TIP3   OH210649   0.127   5.332   5.385
 3562TIP3    H110650   0.161   5.311   5.298
 3562TIP3    H210651   0.032   5.336   5.375
 3563TIP3   OH210652   5.952   0.349   3.692
 3563TIP3    H110653   6.016   0.398   3.744
 3563TIP3    H210654   5.888   0.415   3.664
 3564TIP3   OH210655   2.951   5.848   3.334
 3564TIP3    H110656   2.897   5.914   3.378
 3564TIP3    H210657   2.889   5.801   3.278
 3565TIP3   OH210658   5.301   5.526   4.946
 3565TIP3    H110659   5.296   5.615   4.910
 3565TIP3    H210660   5.341   5.475   4.876
 3566TIP3   OH210661   0.339   5.045   0.259
 3566TIP3    H110662   0.353   4.952   0.240
 3566TIP3    H210663   0.247   5.051   0.282
 3567TIP3   OH210664   2.576   4.207   5.576
 3567TIP3    H110665   2.493   4.214   5.623
 3567TIP3    H210666   2.640   4.183   5.643
 3568TIP3   OH210667   4.415   6.391   5.077
 3568TIP3    H110668   4.424   6.480   5.110
 3568TIP3    H210669   4.478   6.385   5.005
 3569TIP3   OH210670   4.117   3.998   2.990
 3569TIP3    H110671   4.206   3.963   3.000
 3569TIP3    H210672   4.062   3.921   2.978
 3570TIP3   OH210673   7.215   0.908   3.308
 3570TIP3    H110674   7.187   0.865   3.227
 3570TIP3    H210675   7.133   0.929   3.354
 3571TIP3   OH210676   3.660   0.891   5.526
 3571TIP3    H110677   3.681   0.873   5.618
 3571TIP3    H210678   3.745   0.891   5.482
 3572TIP3   OH210679   3.911   6.118   3.464
 3572TIP3    H110680   3.852   6.184   3.499
 3572TIP3    H210681   3.922   6.054   3.534
 3573TIP3   OH210682   6.741   1.406   0.568
 3573TIP3    H110683   6.649   1.406   0.542
 3573TIP3    H210684   6.758   1.317   0.598
 3574TIP3   OH210685   5.493   6.654   2.415
 3574TIP3    H110686   5.403   6.628   2.438
 3574TIP3    H210687   5.522   6.588   2.352
 3575TIP3   OH210688   0.258   4.464   3.427
 3575TIP3    H110689   0.331   4.430   3.376
 3575TIP3    H210690   0.180   4.442   3.375
 3576TIP3   OH210691   4.084   0.066   3.031
 3576TIP3    H110692   4.173   0.100   3.046
 3576TIP3    H210693   4.027   0.139   3.054
 3577TIP3   OH210694   1.088   0.958   3.671
 3577TIP3    H110695   1.163   0.965   3.611
 3577TIP3    H210696   1.128   0.945   3.757
 3578TIP3   OH210697   0.423   0.810   2.901
 3578TIP3    H110698   0.333   0.776   2.899
 3578TIP3    H210699   0.417   0.888   2.956
 3579TIP3   OH210700   4.965   5.872   1.126
 3579TIP3    H110701   4.995   5.801   1.182
 3579TIP3    H210702   5.037   5.935   1.126
 3580TIP3   OH210703   1.032   2.433   1.956
 3580TIP3    H110704   0.937   2.437   1.967
 3580TIP3    H210705   1.066   2.499   2.017
 3581TIP3   OH210706   0.156   0.695   3.430
 3581TIP3    H110707   0.135   0.785   3.404
 3581TIP3    H210708   0.242   0.700   3.470
 3582TIP3   OH210709   4.748   1.726   1.512
 3582TIP3    H110710   4.687   1.784   1.467
 3582TIP3    H210711   4.821   1.716   1.451
 3583TIP3   OH210712   3.838   6.167   0.852
 3583TIP3    H110713   3.814   6.076   0.869
 3583TIP3    H210714   3.778   6.196   0.783
 3584TIP3   OH210715   5.477   0.184   2.521
 3584TIP3    H110716   5.396   0.175   2.472
 3584TIP3    H210717   5.546   0.160   2.459
 3585TIP3   OH210718   6.638   6.101   1.614
 3585TIP3    H110719   6.636   6.006   1.606
 3585TIP3    H210720   6.637   6.133   1.524
 3586TIP3   OH210721   0.206   4.415   0.902
 3586TIP3    H110722   0.190   4.327   0.868
 3586TIP3    H210723   0.300   4.428   0.891
 3587TIP3   OH210724   3.439   3.199   0.757
 3587TIP3    H110725   3.498   3.124   0.772
 3587TIP3    H210726   3.492   3.276   0.777
 3588TIP3   OH210727   4.726   2.205   3.471
 3588TIP3    H110728   4.656   2.245   3.524
 3588TIP3    H210729   4.683   2.133   3.425
 3589TIP3   OH210730   3.052   1.862   1.746
 3589TIP3    H110731   3.037   1.792   1.682
 3589TIP3    H210732   3.022   1.942   1.702
 3590TIP3   OH210733   6.332   0.846   0.990
 3590TIP3    H110734   6.348   0.921   0.933
 3590TIP3    H210735   6.399   0.851   1.057
 3591TIP3   OH210736   6.159   4.905   1.712
 3591TIP3    H110737   6.173   4.832   1.773
 3591TIP3    H210738   6.243   4.913   1.666
 3592TIP3   OH210739   6.551   2.717   5.111
 3592TIP3    H110740   6.556   2.709   5.206
 3592TIP3    H210741   6.525   2.630   5.081
 3593TIP3   OH210742   2.510   3.157   2.692
 3593TIP3    H110743   2.469   3.074   2.715
 3593TIP3    H210744   2.557   3.139   2.610
 3594TIP3   OH210745   0.817   6.369   3.119
 3594TIP3    H110746   0.876   6.383   3.046
 3594TIP3    H210747   0.865   6.398   3.196
 3595TIP3   OH210748   6.245   6.137   4.445
 3595TIP3    H110749   6.197   6.219   4.458
 3595TIP3    H210750   6.274   6.112   4.533
 3596TIP3   OH210751   4.812   6.258   0.720
 3596TIP3    H110752   4.821   6.297   0.633
 3596TIP3    H210753   4.819   6.164   0.706
 3597TIP3   OH210754   4.109   3.938   2.350
 3597TIP3    H110755   4.016   3.952   2.335
 3597TIP3    H210756   4.112   3.878   2.425
 3598TIP3   OH210757   4.460   5.253   4.799
 3598TIP3    H110758   4.460   5.246   4.704
 3598TIP3    H210759   4.376   5.293   4.820
 3599TIP3   OH210760   2.763   2.734   1.940
 3599TIP3    H110761   2.706   2.706   2.012
 3599TIP3    H210762   2.706   2.783   1.882
 3600TIP3   OH210763   1.592   2.779   3.205
 3600TIP3    H110764   1.559   2.689   3.213
 3600TIP3    H210765   1.543   2.828   3.271
 3601TIP3   OH210766   0.954   4.107   2.030
 3601TIP3    H110767   1.025   4.169   2.011
 3601TIP3    H210768   0.875   4.157   2.011
 3602TIP3   OH210769   6.162   6.720   0.371
 3602TIP3    H110770   6.109   6.746   0.447
 3602TIP3    H210771   6.117   6.644   0.335
 3603TIP3   OH210772   4.637   2.005   3.848
 3603TIP3    H110773   4.569   2.015   3.781
 3603TIP3    H210774   4.715   2.043   3.808
 3604TIP3   OH210775   6.917   4.878   2.973
 3604TIP3    H110776   7.005   4.917   2.979
 3604TIP3    H210777   6.864   4.930   3.033
 3605TIP3   OH210778   5.318   4.522   3.083
 3605TIP3    H110779   5.414   4.521   3.084
 3605TIP3    H210780   5.294   4.435   3.050
 3606TIP3   OH210781   3.301   6.588   1.133
 3606TIP3    H110782   3.371   6.527   1.158
 3606TIP3    H210783   3.296   6.580   1.037
 3607TIP3   OH210784   5.014   3.815   5.693
 3607TIP3    H110785   5.038   3.907   5.689
 3607TIP3    H210786   5.013   3.786   5.601
 3608TIP3   OH210787   0.491   6.649   3.053
 3608TIP3    H110788   0.576   6.670   3.092
 3608TIP3    H210789   0.508   6.574   2.997
 3609TIP3   OH210790   6.631   1.131   4.525
 3609TIP3    H110791   6.580   1.092   4.453
 3609TIP3    H210792   6.665   1.212   4.487
 3610TIP3   OH210793   0.470   4.469   0.723
 3610TIP3    H110794   0.478   4.377   0.697
 3610TIP3    H210795   0.560   4.499   0.733
 3611TIP3   OH210796   6.072   6.684   2.953
 3611TIP3    H110797   6.141   6.723   3.006
 3611TIP3    H210798   6.117   6.642   2.880
 3612TIP3   OH210799   4.901   3.895   5.107
 3612TIP3    H110800   4.828   3.857   5.155
 3612TIP3    H210801   4.935   3.964   5.164
 3613TIP3   OH210802   1.529   0.060   5.482
 3613TIP3    H110803   1.501   0.150   5.494
 3613TIP3    H210804   1.623   0.066   5.468
 3614TIP3   OH210805   0.929   2.573   5.287
 3614TIP3    H110806   0.837   2.573   5.262
 3614TIP3    H210807   0.975   2.542   5.208
 3615TIP3   OH210808   3.862   4.943   4.573
 3615TIP3    H110809   3.784   4.957   4.519
 3615TIP3    H210810   3.874   4.848   4.574
 3616TIP3   OH210811   4.215   6.328   4.002
 3616TIP3    H110812   4.158   6.385   3.952
 3616TIP3    H210813   4.207   6.242   3.959
 3617TIP3   OH210814   1.227   1.294   2.263
 3617TIP3    H110815   1.318   1.290   2.292
 3617TIP3    H210816   1.200   1.203   2.256
 3618TIP3   OH210817   0.643   3.312   4.759
 3618TIP3    H110818   0.677   3.400   4.745
 3618TIP3    H210819   0.565   3.325   4.813
 3619TIP3   OH210820   5.955   2.308   0.796
 3619TIP3    H110821   6.033   2.253   0.789
 3619TIP3    H210822   5.959   2.366   0.720
 3620TIP3   OH210823   1.539   1.143   5.298
 3620TIP3    H110824   1.445   1.147   5.314
 3620TIP3    H210825   1.576   1.208   5.358
 3621TIP3   OH210826   2.178   6.138   1.106
 3621TIP3    H110827   2.269   6.109   1.102
 3621TIP3    H210828   2.171   6.205   1.038
 3622TIP3   OH210829   0.195   5.232   3.279
 3622TIP3    H110830   0.208   5.313   3.231
 3622TIP3    H210831   0.219   5.163   3.216
 3623TIP3   OH210832   4.265   0.784   0.059
 3623TIP3    H110833   4.316   0.743   0.129
 3623TIP3    H210834   4.226   0.711   0.011
 3624TIP3   OH210835   6.336   0.424   2.812
 3624TIP3    H110836   6.409   0.482   2.792
 3624TIP3    H210837   6.320   0.436   2.905
 3625TIP3   OH210838   0.916   4.342   5.173
 3625TIP3    H110839   0.928   4.268   5.113
 3625TIP3    H210840   1.000   4.386   5.174
 3626TIP3   OH210841   3.768   4.947   5.536
 3626TIP3    H110842   3.728   4.860   5.546
 3626TIP3    H210843   3.714   4.991   5.470
 3627TIP3   OH210844   1.880   3.142   3.854
 3627TIP3    H110845   1.868   3.214   3.792
 3627TIP3    H210846   1.878   3.184   3.940
 3628TIP3   OH210847   4.516   1.759   3.905
 3628TIP3    H110848   4.592   1.701   3.910
 3628TIP3    H210849   4.553   1.847   3.896
 3629TIP3   OH210850   0.410   4.938   3.979
 3629TIP3    H110851   0.359   4.951   4.059
 3629TIP3    H210852   0.470   5.013   3.976
 3630TIP3   OH210853   1.284   2.698   4.956
 3630TIP3    H110854   1.324   2.771   4.909
 3630TIP3    H210855   1.214   2.738   5.008
 3631TIP3   OH210856   0.382   0.508   2.990
 3631TIP3    H110857   0.333   0.582   3.024
 3631TIP3    H210858   0.353   0.500   2.899
 3632TIP3   OH210859   4.016   4.237   0.319
 3632TIP3    H110860   3.977   4.212   0.235
 3632TIP3    H210861   4.068   4.161   0.344
 3633TIP3   OH210862   2.207   3.356   0.774
 3633TIP3    H110863   2.223   3.351   0.679
 3633TIP3    H210864   2.294   3.359   0.813
 3634TIP3   OH210865   2.624   0.551   2.635
 3634TIP3    H110866   2.661   0.463   2.627
 3634TIP3    H210867   2.672   0.590   2.708
 3635TIP3   OH210868   0.057   3.538   3.626
 3635TIP3    H110869   0.058   3.474   3.698
 3635TIP3    H210870   0.118   3.607   3.655
 3636TIP3   OH210871   5.756   2.815   1.842
 3636TIP3    H110872   5.664   2.839   1.847
 3636TIP3    H210873   5.755   2.722   1.817
 3637TIP3   OH210874   4.377   4.406   5.641
 3637TIP3    H110875   4.422   4.455   5.710
 3637TIP3    H210876   4.447   4.355   5.599
 3638TIP3   OH210877   5.481   5.521   4.300
 3638TIP3    H110878   5.448   5.499   4.387
 3638TIP3    H210879   5.415   5.488   4.240
 3639TIP3   OH210880   4.476   5.710   3.192
 3639TIP3    H110881   4.485   5.618   3.220
 3639TIP3    H210882   4.420   5.749   3.259
 3640TIP3   OH210883   0.119   3.113   1.019
 3640TIP3    H110884   0.145   3.022   1.013
 3640TIP3    H210885   0.028   3.110   1.048
 3641TIP3   OH210886   3.704   2.136   4.082
 3641TIP3    H110887   3.772   2.204   4.091
 3641TIP3    H210888   3.661   2.132   4.167
 3642TIP3   OH210889   7.096   2.673   2.011
 3642TIP3    H110890   7.019   2.721   1.979
 3642TIP3    H210891   7.100   2.694   2.105
 3643TIP3   OH210892   0.966   4.058   5.595
 3643TIP3    H110893   0.907   4.108   5.651
 3643TIP3    H210894   0.960   4.100   5.509
 3644TIP3   OH210895   2.872   2.485   1.853
 3644TIP3    H110896   2.877   2.427   1.929
 3644TIP3    H210897   2.841   2.568   1.888
 3645TIP3   OH210898   4.095   5.000   5.250
 3645TIP3    H110899   4.179   5.042   5.271
 3645TIP3    H210900   4.112   4.949   5.171
 3646TIP3   OH210901   5.082   2.769   0.150
 3646TIP3    H110902   5.148   2.795   0.086
 3646TIP3    H210903   5.074   2.674   0.138
 3647TIP3   OH210904   6.925   4.308   2.967
 3647TIP3    H110905   7.020   4.310   2.966
 3647TIP3    H210906   6.899   4.345   2.882
 3648TIP3   OH210907   6.460   0.785   2.088
 3648TIP3    H110908   6.469   0.690   2.082
 3648TIP3    H210909   6.548   0.816   2.106
 3649TIP3   OH210910   3.665   0.417   4.107
 3649TIP3    H110911   3.641   0.332   4.071
 3649TIP3    H210912   3.759   0.424   4.089
 3650TIP3   OH210913   5.689   5.293   4.823
 3650TIP3    H110914   5.685   5.253   4.910
 3650TIP3    H210915   5.699   5.219   4.763
 3651TIP3   OH210916   4.807   5.644   5.384
 3651TIP3    H110917   4.875   5.630   5.318
 3651TIP3    H210918   4.798   5.559   5.428
 3652TIP3   OH210919   2.406   1.586   0.606
 3652TIP3    H110920   2.478   1.602   0.545
 3652TIP3    H210921   2.377   1.497   0.585
 3653TIP3   OH210922   0.053   2.285   3.645
 3653TIP3    H110923   0.023   2.372   3.671
 3653TIP3    H210924   0.042   2.231   3.723
 3654TIP3   OH210925   1.892   3.834   3.821
 3654TIP3    H110926   1.896   3.783   3.740
 3654TIP3    H210927   1.863   3.921   3.793
 3655TIP3   OH210928   4.671   5.632   2.488
 3655TIP3    H110929   4.654   5.544   2.519
 3655TIP3    H210930   4.590   5.680   2.504
 3656TIP3   OH210931   2.759   4.162   5.057
 3656TIP3    H110932   2.689   4.190   4.999
 3656TIP3    H210933   2.839   4.193   5.016
 3657TIP3   OH210934   6.752   0.150   3.705
 3657TIP3    H110935   6.761   0.064   3.664
 3657TIP3    H210936   6.706   0.134   3.786
 3658TIP3   OH210937   0.165   1.793   2.382
 3658TIP3    H110938   0.119   1.877   2.382
 3658TIP3    H210939   0.209   1.790   2.298
 3659TIP3   OH210940   2.007   0.383   2.745
 3659TIP3    H110941   2.052   0.323   2.686
 3659TIP3    H210942   2.074   0.448   2.768
 3660TIP3   OH210943   2.721   4.120   5.808
 3660TIP3    H110944   2.674   4.082   5.883
 3660TIP3    H210945   2.801   4.067   5.802
 3661TIP3   OH210946   3.768   6.648   2.580
 3661TIP3    H110947   3.704   6.609   2.520
 3661TIP3    H210948   3.833   6.580   2.595
 3662TIP3   OH210949   6.944   4.671   2.730
 3662TIP3    H110950   6.927   4.756   2.770
 3662TIP3    H210951   6.989   4.691   2.648
 3663TIP3   OH210952   2.081   0.725   4.432
 3663TIP3    H110953   2.020   0.787   4.391
 3663TIP3    H210954   2.145   0.781   4.476
 3664TIP3   OH210955   5.544   6.270   5.472
 3664TIP3    H110956   5.602   6.280   5.397
 3664TIP3    H210957   5.495   6.353   5.475
 3665TIP3   OH210958   2.991   3.316   4.847
 3665TIP3    H110959   2.903   3.307   4.811
 3665TIP3    H210960   3.005   3.236   4.897
 3666TIP3   OH210961   1.102   5.316   4.199
 3666TIP3    H110962   1.131   5.407   4.209
 3666TIP3    H210963   1.007   5.322   4.188
 3667TIP3   OH210964   5.872   4.300   5.605
 3667TIP3    H110965   5.936   4.366   5.632
 3667TIP3    H210966   5.824   4.340   5.533
 3668TIP3   OH210967   3.795   2.447   2.442
 3668TIP3    H110968   3.861   2.511   2.469
 3668TIP3    H210969   3.751   2.487   2.367
 3669TIP3   OH210970   1.814   2.834   2.231
 3669TIP3    H110971   1.779   2.920   2.207
 3669TIP3    H210972   1.882   2.817   2.166
 3670TIP3   OH210973   5.318   5.229   0.090
 3670TIP3    H110974   5.318   5.309   0.038
 3670TIP3    H210975   5.338   5.160   0.027
 3671TIP3   OH210976   2.143   5.419   1.248
 3671TIP3    H110977   2.125   5.428   1.342
 3671TIP3    H210978   2.112   5.501   1.209
 3672TIP3   OH210979   1.528   0.831   5.298
 3672TIP3    H110980   1.497   0.921   5.307
 3672TIP3    H210981   1.575   0.829   5.214
 3673TIP3   OH210982   2.316   5.108   4.914
 3673TIP3    H110983   2.353   5.021   4.930
 3673TIP3    H210984   2.321   5.153   4.998
 3674TIP3   OH210985   6.292   6.787   2.652
 3674TIP3    H110986   6.205   6.762   2.622
 3674TIP3    H210987   6.351   6.725   2.609
 3675TIP3   OH210988   4.279   1.972   3.943
 3675TIP3    H110989   4.248   2.062   3.930
 3675TIP3    H210990   4.326   1.951   3.862
 3676TIP3   OH210991   2.478   0.466   2.186
 3676TIP3    H110992   2.536   0.397   2.155
 3676TIP3    H210993   2.532   0.520   2.243
 3677TIP3   OH210994   1.059   3.579   1.708
 3677TIP3    H110995   0.979   3.632   1.704
 3677TIP3    H210996   1.053   3.521   1.632
 3678TIP3   OH210997   1.507   0.146   2.067
 3678TIP3    H110998   1.544   0.066   2.030
 3678TIP3    H210999   1.436   0.169   2.006
 3679TIP3   OH211000   6.929   0.722   0.383
 3679TIP3    H111001   6.965   0.811   0.379
 3679TIP3    H211002   6.974   0.674   0.313
 3680TIP3   OH211003   4.257   6.508   1.861
 3680TIP3    H111004   4.264   6.512   1.766
 3680TIP3    H211005   4.165   6.487   1.877
 3681TIP3   OH211006   2.633   5.426   0.988
 3681TIP3    H111007   2.693   5.469   0.928
 3681TIP3    H211008   2.579   5.370   0.933
 3682TIP3   OH211009   4.032   3.857   5.662
 3682TIP3    H111010   4.032   3.921   5.733
 3682TIP3    H211011   4.054   3.908   5.584
 3683TIP3   OH211012   6.247   4.405   5.334
 3683TIP3    H111013   6.314   4.354   5.288
 3683TIP3    H211014   6.292   4.484   5.362
 3684TIP3   OH211015   5.073   1.275   4.309
 3684TIP3    H111016   5.045   1.200   4.256
 3684TIP3    H211017   5.020   1.348   4.277
 3685TIP3   OH211018   3.127   1.716   3.713
 3685TIP3    H111019   3.102   1.634   3.757
 3685TIP3    H211020   3.197   1.752   3.767
 3686TIP3   OH211021   0.100   1.552   5.851
 3686TIP3    H111022   0.119   1.602   5.772
 3686TIP3    H211023   0.067   1.617   5.914
 3687TIP3   OH211024   2.444   4.385   0.612
 3687TIP3    H111025   2.473   4.296   0.593
 3687TIP3    H211026   2.525   4.437   0.613
 3688TIP3   OH211027   5.557   0.543   0.136
 3688TIP3    H111028   5.479   0.592   0.159
 3688TIP3    H211029   5.629   0.604   0.150
 3689TIP3   OH211030   3.732   2.174   1.973
 3689TIP3    H111031   3.675   2.232   2.023
 3689TIP3    H211032   3.751   2.223   1.892
 3690TIP3   OH211033   1.577   3.758   4.279
 3690TIP3    H111034   1.575   3.697   4.205
 3690TIP3    H211035   1.669   3.786   4.285
 3691TIP3   OH211036  -0.017   1.275   4.953
 3691TIP3    H111037  -0.055   1.357   4.923
 3691TIP3    H211038   0.073   1.277   4.922
 3692TIP3   OH211039   6.615   4.332   2.013
 3692TIP3    H111040   6.682   4.264   2.013
 3692TIP3    H211041   6.534   4.286   2.034
 3693TIP3   OH211042   2.729   0.924   0.672
 3693TIP3    H111043   2.642   0.919   0.632
 3693TIP3    H211044   2.711   0.949   0.763
 3694TIP3   OH211045   2.482   2.718   1.316
 3694TIP3    H111046   2.473   2.813   1.323
 3694TIP3    H211047   2.575   2.702   1.331
 3695TIP3   OH211048   0.393   4.444   4.988
 3695TIP3    H111049   0.339   4.476   4.916
 3695TIP3    H211050   0.415   4.522   5.039
 3696TIP3   OH211051   4.425   1.476   5.244
 3696TIP3    H111052   4.333   1.501   5.242
 3696TIP3    H211053   4.462   1.518   5.166
 3697TIP3   OH211054   1.510   6.799   5.034
 3697TIP3    H111055   1.418   6.823   5.044
 3697TIP3    H211056   1.512   6.704   5.050
 3698TIP3   OH211057   5.198   3.964   5.005
 3698TIP3    H111058   5.140   4.030   5.043
 3698TIP3    H211059   5.202   3.987   4.912
 3699TIP3   OH211060   0.054   5.462   0.884
 3699TIP3    H111061   0.011   5.426   0.806
 3699TIP3    H211062   0.148   5.448   0.868
 3700TIP3   OH211063   1.675   4.395   2.381
 3700TIP3    H111064   1.718   4.457   2.441
 3700TIP3    H211065   1.748   4.348   2.339
 3701TIP3   OH211066   2.511   3.447   2.710
 3701TIP3    H111067   2.598   3.478   2.734
 3701TIP3    H211068   2.517   3.352   2.716
 3702TIP3   OH211069   1.459   4.776   3.084
 3702TIP3    H111070   1.383   4.727   3.054
 3702TIP3    H211071   1.451   4.779   3.179
 3703TIP3   OH211072   7.097   2.872   5.366
 3703TIP3    H111073   7.002   2.864   5.360
 3703TIP3    H211074   7.111   2.953   5.416
 3704TIP3   OH211075   2.683   2.098   4.000
 3704TIP3    H111076   2.678   2.193   3.990
 3704TIP3    H211077   2.764   2.073   3.957
 3705TIP3   OH211078   4.074   2.389   0.004
 3705TIP3    H111079   4.027   2.412   0.084
 3705TIP3    H211080   4.164   2.375   0.032
 3706TIP3   OH211081   3.728   6.493   5.756
 3706TIP3    H111082   3.679   6.429   5.808
 3706TIP3    H211083   3.678   6.500   5.675
 3707TIP3   OH211084   4.166   1.533   3.877
 3707TIP3    H111085   4.112   1.600   3.837
 3707TIP3    H211086   4.212   1.492   3.803
 3708TIP3   OH211087   5.587   4.608   4.617
 3708TIP3    H111088   5.582   4.512   4.615
 3708TIP3    H211089   5.584   4.634   4.525
 3709TIP3   OH211090   3.144   4.933   2.965
 3709TIP3    H111091   3.165   4.924   3.058
 3709TIP3    H211092   3.056   4.896   2.956
 3710TIP3   OH211093   2.998   6.470   3.362
 3710TIP3    H111094   3.080   6.425   3.342
 3710TIP3    H211095   2.980   6.448   3.453
 3711TIP3   OH211096   0.319   1.995   2.027
 3711TIP3    H111097   0.347   2.027   2.113
 3711TIP3    H211098   0.311   1.900   2.039
 3712TIP3   OH211099   4.012   0.075   4.629
 3712TIP3    H111100   3.934   0.023   4.649
 3712TIP3    H211101   4.072   0.056   4.701
 3713TIP3   OH211102   2.078   5.040   4.801
 3713TIP3    H111103   2.169   5.063   4.821
 3713TIP3    H211104   2.060   5.085   4.719
 3714TIP3   OH211105   6.818   0.432   5.413
 3714TIP3    H111106   6.821   0.406   5.321
 3714TIP3    H211107   6.841   0.352   5.461
 3715TIP3   OH211108   4.430   2.762   5.493
 3715TIP3    H111109   4.447   2.724   5.580
 3715TIP3    H211110   4.496   2.723   5.436
 3716TIP3   OH211111   2.459   3.004   3.315
 3716TIP3    H111112   2.429   3.067   3.250
 3716TIP3    H211113   2.385   2.945   3.328
 3717TIP3   OH211114   0.136   3.518   3.205
 3717TIP3    H111115   0.056   3.534   3.255
 3717TIP3    H211116   0.207   3.544   3.264
 3718TIP3   OH211117   3.768   3.557   5.406
 3718TIP3    H111118   3.722   3.635   5.438
 3718TIP3    H211119   3.825   3.590   5.335
 3719TIP3   OH211120   2.370   1.120   3.597
 3719TIP3    H111121   2.434   1.100   3.666
 3719TIP3    H211122   2.413   1.093   3.516
 3720TIP3   OH211123   3.645   3.341   4.344
 3720TIP3    H111124   3.704   3.304   4.409
 3720TIP3    H211125   3.621   3.268   4.288
 3721TIP3   OH211126   5.993   1.094   3.580
 3721TIP3    H111127   6.021   1.039   3.507
 3721TIP3    H211128   5.899   1.106   3.568
 3722TIP3   OH211129   5.825   1.233   5.855
 3722TIP3    H111130   5.844   1.197   5.942
 3722TIP3    H211131   5.866   1.319   5.855
 3723TIP3   OH211132   5.995   0.716   2.725
 3723TIP3    H111133   5.918   0.662   2.744
 3723TIP3    H211134   5.959   0.803   2.706
 3724TIP3   OH211135   2.637   1.652  -0.023
 3724TIP3    H111136   2.722   1.655   0.020
 3724TIP3    H211137   2.580   1.706   0.032
 3725TIP3   OH211138   1.331   2.739   0.102
 3725TIP3    H111139   1.383   2.746   0.022
 3725TIP3    H211140   1.262   2.804   0.091
 3726TIP3   OH211141   2.641   5.993   3.249
 3726TIP3    H111142   2.621   6.068   3.193
 3726TIP3    H211143   2.722   6.019   3.294
 3727TIP3   OH211144   0.211   1.261   5.512
 3727TIP3    H111145   0.123   1.284   5.542
 3727TIP3    H211146   0.198   1.179   5.464
 3728TIP3   OH211147   6.679   4.411   1.637
 3728TIP3    H111148   6.672   4.319   1.665
 3728TIP3    H211149   6.588   4.441   1.629
 3729TIP3   OH211150   2.757   0.820   1.236
 3729TIP3    H111151   2.697   0.746   1.222
 3729TIP3    H211152   2.754   0.836   1.331
 3730TIP3   OH211153   7.048   2.130   3.762
 3730TIP3    H111154   6.956   2.122   3.739
 3730TIP3    H211155   7.048   2.173   3.847
 3731TIP3   OH211156   1.452   3.385   3.738
 3731TIP3    H111157   1.363   3.395   3.704
 3731TIP3    H211158   1.447   3.418   3.827
 3732TIP3   OH211159   4.090   2.985   3.850
 3732TIP3    H111160   4.004   3.023   3.833
 3732TIP3    H211161   4.072   2.893   3.870
 3733TIP3   OH211162   2.590   6.030   4.399
 3733TIP3    H111163   2.569   6.105   4.455
 3733TIP3    H211164   2.509   6.013   4.350
 3734TIP3   OH211165   2.717   2.717   4.714
 3734TIP3    H111166   2.795   2.662   4.710
 3734TIP3    H211167   2.714   2.763   4.630
 3735TIP3   OH211168   5.125   3.226   5.057
 3735TIP3    H111169   5.084   3.166   5.119
 3735TIP3    H211170   5.197   3.266   5.106
 3736TIP3   OH211171   6.166   2.753   2.200
 3736TIP3    H111172   6.137   2.665   2.224
 3736TIP3    H211173   6.131   2.767   2.112
 3737TIP3   OH211174   2.878   4.089   1.147
 3737TIP3    H111175   2.893   4.181   1.166
 3737TIP3    H211176   2.841   4.088   1.059
 3738TIP3   OH211177   4.126   4.089   5.142
 3738TIP3    H111178   4.183   4.138   5.083
 3738TIP3    H211179   4.154   4.115   5.230
 3739TIP3   OH211180   1.813   0.542   0.154
 3739TIP3    H111181   1.755   0.562   0.227
 3739TIP3    H211182   1.772   0.466   0.111
 3740TIP3   OH211183   2.910   6.150   2.817
 3740TIP3    H111184   2.971   6.206   2.769
 3740TIP3    H211185   2.964   6.075   2.845
 3741TIP3   OH211186   3.735   4.693   1.170
 3741TIP3    H111187   3.731   4.699   1.075
 3741TIP3    H211188   3.816   4.646   1.189
 3742TIP3   OH211189   6.740   5.694   4.483
 3742TIP3    H111190   6.670   5.652   4.433
 3742TIP3    H211191   6.710   5.783   4.497
 3743TIP3   OH211192   3.333   5.257   0.415
 3743TIP3    H111193   3.421   5.221   0.424
 3743TIP3    H211194   3.279   5.183   0.386
 3744TIP3   OH211195   5.369   3.905   3.846
 3744TIP3    H111196   5.361   3.814   3.873
 3744TIP3    H211197   5.339   3.905   3.754
 3745TIP3   OH211198   5.205   6.057   3.638
 3745TIP3    H111199   5.194   6.100   3.723
 3745TIP3    H211200   5.283   6.003   3.648
 3746TIP3   OH211201   1.084   0.137   3.149
 3746TIP3    H111202   1.106   0.047   3.124
 3746TIP3    H211203   1.162   0.188   3.125
 3747TIP3   OH211204   2.250   5.201   0.340
 3747TIP3    H111205   2.289   5.133   0.393
 3747TIP3    H211206   2.156   5.184   0.344
 3748TIP3   OH211207   1.587   3.501   5.382
 3748TIP3    H111208   1.658   3.562   5.403
 3748TIP3    H211209   1.544   3.486   5.466
 3749TIP3   OH211210   3.956   3.665   0.405
 3749TIP3    H111211   3.910   3.741   0.369
 3749TIP3    H211212   4.006   3.700   0.479
 3750TIP3   OH211213   1.262   1.636   5.255
 3750TIP3    H111214   1.299   1.549   5.266
 3750TIP3    H211215   1.337   1.692   5.238
 3751TIP3   OH211216   2.400   5.136   2.487
 3751TIP3    H111217   2.400   5.124   2.582
 3751TIP3    H211218   2.414   5.230   2.475
 3752TIP3   OH211219   0.990   1.840   0.907
 3752TIP3    H111220   0.900   1.808   0.914
 3752TIP3    H211221   1.017   1.854   0.997
 3753TIP3   OH211222   5.038   3.590   4.883
 3753TIP3    H111223   5.050   3.637   4.800
 3753TIP3    H211224   5.083   3.644   4.948
 3754TIP3   OH211225   5.917   2.657   5.494
 3754TIP3    H111226   5.980   2.717   5.454
 3754TIP3    H211227   5.832   2.683   5.457
 3755TIP3   OH211228   1.910   5.411   4.465
 3755TIP3    H111229   2.005   5.419   4.451
 3755TIP3    H211230   1.897   5.446   4.553
 3756TIP3   OH211231   2.474   0.994   5.810
 3756TIP3    H111232   2.553   0.960   5.853
 3756TIP3    H211233   2.469   0.946   5.727
 3757TIP3   OH211234   4.800   2.998   1.558
 3757TIP3    H111235   4.829   2.999   1.467
 3757TIP3    H211236   4.743   3.074   1.568
 3758TIP3   OH211237   5.794   2.491   2.777
 3758TIP3    H111238   5.777   2.584   2.791
 3758TIP3    H211239   5.708   2.452   2.764
 3759TIP3   OH211240   3.309   5.274   4.681
 3759TIP3    H111241   3.243   5.226   4.631
 3759TIP3    H211242   3.392   5.231   4.660
 3760TIP3   OH211243   0.924   4.099   4.239
 3760TIP3    H111244   0.834   4.099   4.273
 3760TIP3    H211245   0.926   4.022   4.181
 3761TIP3   OH211246   6.946   2.014   3.522
 3761TIP3    H111247   6.928   2.107   3.510
 3761TIP3    H211248   6.871   1.969   3.483
 3762TIP3   OH211249   6.933   4.196   4.867
 3762TIP3    H111250   7.023   4.206   4.835
 3762TIP3    H211251   6.931   4.109   4.905
 3763TIP3   OH211252   0.335   5.607   0.976
 3763TIP3    H111253   0.314   5.527   0.928
 3763TIP3    H211254   0.295   5.595   1.062
 3764TIP3   OH211255   7.166   1.220   1.934
 3764TIP3    H111256   7.184   1.147   1.874
 3764TIP3    H211257   7.074   1.240   1.920
 3765TIP3   OH211258   6.770   2.156   4.672
 3765TIP3    H111259   6.791   2.123   4.585
 3765TIP3    H211260   6.769   2.252   4.661
 3766TIP3   OH211261   4.974   0.303   0.830
 3766TIP3    H111262   5.059   0.277   0.795
 3766TIP3    H211263   4.936   0.221   0.863
 3767TIP3   OH211264   6.821   6.213   3.092
 3767TIP3    H111265   6.893   6.168   3.136
 3767TIP3    H211266   6.761   6.238   3.163
 3768TIP3   OH211267   1.867   6.397   4.348
 3768TIP3    H111268   1.802   6.460   4.380
 3768TIP3    H211269   1.902   6.357   4.427
 3769TIP3   OH211270   5.701   6.299   4.257
 3769TIP3    H111271   5.663   6.352   4.327
 3769TIP3    H211272   5.793   6.289   4.282
 3770TIP3   OH211273   7.119   5.984   1.992
 3770TIP3    H111274   7.186   6.034   2.039
 3770TIP3    H211275   7.166   5.946   1.918
 3771TIP3   OH211276   4.074   0.120   5.748
 3771TIP3    H111277   4.146   0.088   5.803
 3771TIP3    H211278   4.118   0.169   5.678
 3772TIP3   OH211279   4.929   4.304   4.782
 3772TIP3    H111280   4.876   4.270   4.854
 3772TIP3    H211281   5.009   4.335   4.824
 3773TIP3   OH211282   5.327   5.379   4.514
 3773TIP3    H111283   5.247   5.406   4.558
 3773TIP3    H211284   5.299   5.311   4.453
 3774TIP3   OH211285   3.854   1.386   2.037
 3774TIP3    H111286   3.928   1.434   2.075
 3774TIP3    H211287   3.798   1.453   1.999
 3775TIP3   OH211288   6.407   5.889   5.419
 3775TIP3    H111289   6.453   5.875   5.502
 3775TIP3    H211290   6.477   5.911   5.357
 3776TIP3   OH211291   5.688   1.136   4.754
 3776TIP3    H111292   5.662   1.119   4.845
 3776TIP3    H211293   5.736   1.057   4.729
 3777TIP3   OH211294   1.678   0.309   0.103
 3777TIP3    H111295   1.717   0.228   0.072
 3777TIP3    H211296   1.602   0.322   0.045
 3778TIP3   OH211297   1.509   4.174   2.834
 3778TIP3    H111298   1.428   4.225   2.834
 3778TIP3    H211299   1.554   4.200   2.753
 3779TIP3   OH211300   5.250   4.062   1.422
 3779TIP3    H111301   5.210   4.001   1.361
 3779TIP3    H211302   5.317   4.108   1.371
 3780TIP3   OH211303   3.158   1.291   3.039
 3780TIP3    H111304   3.134   1.304   3.130
 3780TIP3    H211305   3.236   1.346   3.026
 3781TIP3   OH211306   3.117   2.269   1.294
 3781TIP3    H111307   3.024   2.288   1.286
 3781TIP3    H211308   3.146   2.324   1.367
 3782TIP3   OH211309   0.167   2.347   4.551
 3782TIP3    H111310   0.201   2.279   4.609
 3782TIP3    H211311   0.078   2.363   4.582
 3783TIP3   OH211312   5.409   6.387   1.364
 3783TIP3    H111313   5.343   6.327   1.401
 3783TIP3    H211314   5.391   6.471   1.406
 3784TIP3   OH211315   3.637   0.482   3.031
 3784TIP3    H111316   3.644   0.406   2.975
 3784TIP3    H211317   3.679   0.553   2.982
 3785TIP3   OH211318   4.313   4.821   4.791
 3785TIP3    H111319   4.310   4.876   4.713
 3785TIP3    H211320   4.397   4.843   4.833
 3786TIP3   OH211321   3.135   6.624   3.783
 3786TIP3    H111322   3.089   6.558   3.835
 3786TIP3    H211323   3.214   6.644   3.834
 3787TIP3   OH211324   4.158   1.467   2.473
 3787TIP3    H111325   4.156   1.448   2.567
 3787TIP3    H211326   4.067   1.459   2.446
 3788TIP3   OH211327   1.149   1.262   0.078
 3788TIP3    H111328   1.123   1.351   0.098
 3788TIP3    H211329   1.082   1.207   0.118
 3789TIP3   OH211330   6.054   4.661   0.683
 3789TIP3    H111331   6.147   4.645   0.698
 3789TIP3    H211332   6.048   4.687   0.592
 3790TIP3   OH211333   1.322   4.320   0.712
 3790TIP3    H111334   1.293   4.384   0.647
 3790TIP3    H211335   1.300   4.235   0.674
 3791TIP3   OH211336   4.999   1.404   1.454
 3791TIP3    H111337   4.905   1.421   1.461
 3791TIP3    H211338   5.009   1.363   1.368
 3792TIP3   OH211339   0.498   0.148   2.949
 3792TIP3    H111340   0.524   0.141   3.041
 3792TIP3    H211341   0.402   0.149   2.951
 3793TIP3   OH211342   2.413   0.594   5.419
 3793TIP3    H111343   2.479   0.565   5.356
 3793TIP3    H211344   2.455   0.583   5.504
 3794TIP3   OH211345   5.130   0.398   5.243
 3794TIP3    H111346   5.156   0.360   5.159
 3794TIP3    H211347   5.202   0.374   5.302
 3795TIP3   OH211348   6.114   0.657   1.702
 3795TIP3    H111349   6.055   0.655   1.627
 3795TIP3    H211350   6.065   0.702   1.770
 3796TIP3   OH211351   6.112   3.300   3.422
 3796TIP3    H111352   6.079   3.281   3.510
 3796TIP3    H211353   6.205   3.319   3.435
 3797TIP3   OH211354   6.050   4.538   3.467
 3797TIP3    H111355   6.008   4.620   3.441
 3797TIP3    H211356   6.101   4.512   3.390
 3798TIP3   OH211357   2.714   6.257   5.601
 3798TIP3    H111358   2.703   6.285   5.510
 3798TIP3    H211359   2.801   6.217   5.603
 3799TIP3   OH211360   6.435   1.375   0.549
 3799TIP3    H111361   6.440   1.280   0.547
 3799TIP3    H211362   6.434   1.397   0.642
 3800TIP3   OH211363   5.957   1.647   5.668
 3800TIP3    H111364   5.891   1.579   5.652
 3800TIP3    H211365   5.999   1.660   5.583
 3801TIP3   OH211366   6.570   3.110   1.515
 3801TIP3    H111367   6.558   3.026   1.471
 3801TIP3    H211368   6.501   3.167   1.480
 3802TIP3   OH211369   5.617   6.318   1.189
 3802TIP3    H111370   5.652   6.256   1.254
 3802TIP3    H211371   5.547   6.364   1.236
 3803TIP3   OH211372   3.011   3.862   0.236
 3803TIP3    H111373   3.064   3.916   0.178
 3803TIP3    H211374   2.991   3.783   0.186
 3804TIP3   OH211375   6.564   2.759   4.442
 3804TIP3    H111376   6.581   2.673   4.480
 3804TIP3    H211377   6.469   2.770   4.450
 3805TIP3   OH211378   3.875   0.623   5.130
 3805TIP3    H111379   3.947   0.579   5.176
 3805TIP3    H211380   3.808   0.556   5.120
 3806TIP3   OH211381   4.780   1.826   0.962
 3806TIP3    H111382   4.710   1.866   0.910
 3806TIP3    H211383   4.845   1.798   0.898
 3807TIP3   OH211384   5.408   6.505   5.438
 3807TIP3    H111385   5.358   6.533   5.361
 3807TIP3    H211386   5.475   6.572   5.448
 3808TIP3   OH211387   5.617   2.350   0.090
 3808TIP3    H111388   5.624   2.255   0.092
 3808TIP3    H211389   5.525   2.367   0.069
 3809TIP3   OH211390   5.077   0.890   3.995
 3809TIP3    H111391   5.026   0.846   4.064
 3809TIP3    H211392   5.164   0.851   4.003
 3810TIP3   OH211393   6.970   6.252   1.137
 3810TIP3    H111394   7.020   6.205   1.204
 3810TIP3    H211395   6.936   6.329   1.182
 3811TIP3   OH211396   2.609   6.739   3.005
 3811TIP3    H111397   2.688   6.686   3.016
 3811TIP3    H211398   2.635   6.827   3.032
 3812TIP3   OH211399   5.104   5.054   2.802
 3812TIP3    H111400   5.117   5.027   2.711
 3812TIP3    H211401   5.071   5.144   2.795
 3813TIP3   OH211402   3.299   1.013   0.819
 3813TIP3    H111403   3.331   1.061   0.895
 3813TIP3    H211404   3.249   1.077   0.769
 3814TIP3   OH211405   1.642   0.812   2.549
 3814TIP3    H111406   1.558   0.837   2.588
 3814TIP3    H211407   1.677   0.745   2.608
 3815TIP3   OH211408   1.823   6.024   5.374
 3815TIP3    H111409   1.897   6.076   5.344
 3815TIP3    H211410   1.831   6.023   5.469
 3816TIP3   OH211411   1.246   5.876   5.798
 3816TIP3    H111412   1.189   5.803   5.775
 3816TIP3    H211413   1.190   5.953   5.792
 3817TIP3   OH211414   2.010   3.400   4.329
 3817TIP3    H111415   2.008   3.489   4.294
 3817TIP3    H211416   2.059   3.350   4.263
 3818TIP3   OH211417   2.999   5.526   5.143
 3818TIP3    H111418   2.991   5.480   5.227
 3818TIP3    H211419   2.936   5.483   5.086
 3819TIP3   OH211420   4.134   0.871   3.305
 3819TIP3    H111421   4.215   0.883   3.255
 3819TIP3    H211422   4.132   0.778   3.327
 3820TIP3   OH211423   7.068   5.250   1.896
 3820TIP3    H111424   7.067   5.251   1.992
 3820TIP3    H211425   7.094   5.161   1.873
 3821TIP3   OH211426   0.991   5.806   2.676
 3821TIP3    H111427   1.048   5.854   2.736
 3821TIP3    H211428   1.040   5.802   2.594
 3822TIP3   OH211429   4.314   0.759   1.447
 3822TIP3    H111430   4.245   0.700   1.477
 3822TIP3    H211431   4.297   0.841   1.493
 3823TIP3   OH211432   0.339   4.478   4.712
 3823TIP3    H111433   0.408   4.481   4.645
 3823TIP3    H211434   0.297   4.393   4.699
 3824TIP3   OH211435   1.831   5.746   0.565
 3824TIP3    H111436   1.815   5.723   0.657
 3824TIP3    H211437   1.756   5.710   0.518
 3825TIP3   OH211438   2.719   1.618   3.158
 3825TIP3    H111439   2.678   1.702   3.179
 3825TIP3    H211440   2.728   1.620   3.062
 3826TIP3   OH211441   3.761   0.399   2.385
 3826TIP3    H111442   3.732   0.479   2.430
 3826TIP3    H211443   3.771   0.425   2.294
 3827TIP3   OH211444   5.597   4.109   5.331
 3827TIP3    H111445   5.670   4.047   5.328
 3827TIP3    H211446   5.595   4.141   5.421
 3828TIP3   OH211447   3.235   1.906   2.870
 3828TIP3    H111448   3.252   1.990   2.914
 3828TIP3    H211449   3.147   1.916   2.833
 3829TIP3   OH211450   1.855   1.269   3.824
 3829TIP3    H111451   1.901   1.212   3.886
 3829TIP3    H211452   1.863   1.357   3.861
 3830TIP3   OH211453   6.506   0.058   0.703
 3830TIP3    H111454   6.523   0.066   0.797
 3830TIP3    H211455   6.524  -0.034   0.683
 3831TIP3   OH211456   2.695   3.385   3.501
 3831TIP3    H111457   2.692   3.480   3.514
 3831TIP3    H211458   2.607   3.362   3.469
 3832TIP3   OH211459   3.066   1.613   4.391
 3832TIP3    H111460   3.150   1.657   4.405
 3832TIP3    H211461   3.030   1.602   4.479
 3833TIP3   OH211462   3.591   1.491   4.987
 3833TIP3    H111463   3.578   1.449   4.902
 3833TIP3    H211464   3.591   1.585   4.968
 3834TIP3   OH211465   1.884   4.862   4.517
 3834TIP3    H111466   1.864   4.857   4.611
 3834TIP3    H211467   1.925   4.947   4.506
 3835TIP3   OH211468   1.583   3.792   5.269
 3835TIP3    H111469   1.519   3.722   5.279
 3835TIP3    H211470   1.578   3.815   5.176
 3836TIP3   OH211471   3.103   5.677   2.922
 3836TIP3    H111472   3.073   5.633   2.843
 3836TIP3    H211473   3.050   5.641   2.992
 3837TIP3   OH211474   5.142   2.323   0.970
 3837TIP3    H111475   5.204   2.365   1.029
 3837TIP3    H211476   5.079   2.279   1.027
 3838TIP3   OH211477   5.625   2.727   5.455
 3838TIP3    H111478   5.542   2.742   5.500
 3838TIP3    H211479   5.609   2.754   5.365
 3839TIP3   OH211480   6.477   4.364   3.404
 3839TIP3    H111481   6.482   4.385   3.311
 3839TIP3    H211482   6.442   4.443   3.445
 3840TIP3   OH211483   3.060   3.785   4.500
 3840TIP3    H111484   3.078   3.877   4.519
 3840TIP3    H211485   3.001   3.757   4.570
 3841TIP3   OH211486   2.972   0.120   4.618
 3841TIP3    H111487   2.996   0.103   4.708
 3841TIP3    H211488   3.013   0.049   4.568
 3842TIP3   OH211489   6.554   5.053   5.528
 3842TIP3    H111490   6.493   5.104   5.473
 3842TIP3    H211491   6.543   4.963   5.498
 3843TIP3   OH211492   0.157   2.032   4.423
 3843TIP3    H111493   0.191   2.122   4.425
 3843TIP3    H211494   0.068   2.039   4.458
 3844TIP3   OH211495   4.263   4.143   2.201
 3844TIP3    H111496   4.352   4.122   2.229
 3844TIP3    H211497   4.209   4.073   2.237
 3845TIP3   OH211498   1.469   0.829   3.144
 3845TIP3    H111499   1.510   0.903   3.187
 3845TIP3    H211500   1.390   0.865   3.104
 3846TIP3   OH211501   2.940   5.313   3.992
 3846TIP3    H111502   2.961   5.402   4.020
 3846TIP3    H211503   2.939   5.261   4.072
 3847TIP3   OH211504   7.067   1.811   5.154
 3847TIP3    H111505   7.047   1.893   5.198
 3847TIP3    H211506   6.995   1.799   5.092
 3848TIP3   OH211507   6.203   5.057   2.846
 3848TIP3    H111508   6.288   5.081   2.809
 3848TIP3    H211509   6.160   5.140   2.864
 3849TIP3   OH211510   5.326   0.736   3.879
 3849TIP3    H111511   5.326   0.655   3.930
 3849TIP3    H211512   5.244   0.734   3.830
 3850TIP3   OH211513   4.971   6.416   4.760
 3850TIP3    H111514   4.985   6.504   4.796
 3850TIP3    H211515   4.879   6.416   4.733
 3851TIP3   OH211516   4.256   2.273   4.680
 3851TIP3    H111517   4.236   2.224   4.760
 3851TIP3    H211518   4.341   2.239   4.652
 3852TIP3   OH211519   1.514   2.640   2.066
 3852TIP3    H111520   1.579   2.698   2.104
 3852TIP3    H211521   1.440   2.644   2.126
 3853TIP3   OH211522   0.774   2.662   0.287
 3853TIP3    H111523   0.824   2.638   0.365
 3853TIP3    H211524   0.840   2.676   0.219
 3854TIP3   OH211525   2.794   3.199   2.239
 3854TIP3    H111526   2.715   3.251   2.224
 3854TIP3    H211527   2.866   3.263   2.237
 3855TIP3   OH211528   1.686   1.964   3.174
 3855TIP3    H111529   1.764   1.961   3.229
 3855TIP3    H211530   1.710   2.022   3.102
 3856TIP3   OH211531   2.519   3.659   5.000
 3856TIP3    H111532   2.536   3.594   4.932
 3856TIP3    H211533   2.436   3.632   5.039
 3857TIP3   OH211534   6.503   3.825   1.438
 3857TIP3    H111535   6.548   3.853   1.517
 3857TIP3    H211536   6.558   3.756   1.402
 3858TIP3   OH211537   6.026   2.876   3.994
 3858TIP3    H111538   6.026   2.783   3.970
 3858TIP3    H211539   6.118   2.898   4.005
 3859TIP3   OH211540   2.138   4.237   4.379
 3859TIP3    H111541   2.173   4.303   4.440
 3859TIP3    H211542   2.215   4.189   4.349
 3860TIP3   OH211543   5.694   6.293   5.255
 3860TIP3    H111544   5.750   6.369   5.240
 3860TIP3    H211545   5.684   6.253   5.168
 3861TIP3   OH211546   0.948   5.656   3.701
 3861TIP3    H111547   0.933   5.679   3.793
 3861TIP3    H211548   0.998   5.729   3.665
 3862TIP3   OH211549   1.269   1.627   1.793
 3862TIP3    H111550   1.267   1.720   1.818
 3862TIP3    H211551   1.336   1.588   1.849
 3863TIP3   OH211552   1.472   4.595   2.771
 3863TIP3    H111553   1.450   4.682   2.737
 3863TIP3    H211554   1.444   4.534   2.703
 3864TIP3   OH211555   4.012   2.678   2.170
 3864TIP3    H111556   3.921   2.653   2.188
 3864TIP3    H211557   4.060   2.650   2.248
 3865TIP3   OH211558   0.394   2.614   4.386
 3865TIP3    H111559   0.391   2.709   4.384
 3865TIP3    H211560   0.356   2.591   4.471
 3866TIP3   OH211561   4.927   4.698   1.696
 3866TIP3    H111562   4.956   4.609   1.714
 3866TIP3    H211563   4.931   4.742   1.781
 3867TIP3   OH211564   7.040   4.480   0.804
 3867TIP3    H111565   6.988   4.417   0.755
 3867TIP3    H211566   6.994   4.492   0.887
 3868TIP3   OH211567   2.130   6.759   1.088
 3868TIP3    H111568   2.155   6.851   1.082
 3868TIP3    H211569   2.035   6.760   1.089
 3869TIP3   OH211570   4.566   2.994   2.726
 3869TIP3    H111571   4.482   2.979   2.770
 3869TIP3    H211572   4.631   2.988   2.796
 3870TIP3   OH211573   7.087   3.919   1.829
 3870TIP3    H111574   6.997   3.887   1.818
 3870TIP3    H211575   7.090   3.999   1.778
 3871TIP3   OH211576   0.753   5.123   5.163
 3871TIP3    H111577   0.803   5.110   5.083
 3871TIP3    H211578   0.662   5.123   5.135
 3872TIP3   OH211579   4.349   2.035   2.230
 3872TIP3    H111580   4.425   2.081   2.194
 3872TIP3    H211581   4.278   2.099   2.224
 3873TIP3   OH211582   5.572   3.927   5.034
 3873TIP3    H111583   5.541   4.016   5.018
 3873TIP3    H211584   5.563   3.915   5.129
 3874TIP3   OH211585   6.650   0.065   0.950
 3874TIP3    H111586   6.736   0.024   0.965
 3874TIP3    H211587   6.589   0.013   1.002
 3875TIP3   OH211588   1.537   2.788   1.090
 3875TIP3    H111589   1.447   2.758   1.091
 3875TIP3    H211590   1.579   2.737   1.021
 3876TIP3   OH211591   3.136   5.529   0.364
 3876TIP3    H111592   3.119   5.435   0.369
 3876TIP3    H211593   3.219   5.540   0.412
 3877TIP3   OH211594   0.092   3.279   3.500
 3877TIP3    H111595   0.087   3.375   3.506
 3877TIP3    H211596   0.186   3.260   3.503
 3878TIP3   OH211597   1.616   5.248   4.290
 3878TIP3    H111598   1.565   5.173   4.319
 3878TIP3    H211599   1.639   5.229   4.199
 3879TIP3   OH211600   4.036   2.679   3.585
 3879TIP3    H111601   4.124   2.674   3.624
 3879TIP3    H211602   3.976   2.664   3.658
 3880TIP3   OH211603   5.921   0.629   1.471
 3880TIP3    H111604   5.906   0.719   1.440
 3880TIP3    H211605   5.834   0.591   1.479
 3881TIP3   OH211606   5.571   0.991   1.054
 3881TIP3    H111607   5.564   0.897   1.070
 3881TIP3    H211608   5.484   1.016   1.021
 3882TIP3   OH211609   4.793   4.125   4.963
 3882TIP3    H111610   4.720   4.065   4.948
 3882TIP3    H211611   4.858   4.072   5.009
 3883TIP3   OH211612   0.423   0.389   5.545
 3883TIP3    H111613   0.395   0.480   5.551
 3883TIP3    H211614   0.498   0.390   5.486
 3884TIP3   OH211615   0.107   3.078   0.067
 3884TIP3    H111616   0.118   3.146   0.133
 3884TIP3    H211617   0.020   3.042   0.084
 3885TIP3   OH211618   2.740   3.860   4.903
 3885TIP3    H111619   2.715   3.946   4.936
 3885TIP3    H211620   2.672   3.800   4.936
 3886TIP3   OH211621   3.316   3.159   0.105
 3886TIP3    H111622   3.249   3.147   0.038
 3886TIP3    H211623   3.343   3.250   0.096
 3887TIP3   OH211624   6.946   0.372   1.582
 3887TIP3    H111625   6.937   0.293   1.528
 3887TIP3    H211626   6.856   0.394   1.607
 3888TIP3   OH211627   0.051   1.098   2.173
 3888TIP3    H111628   0.131   1.047   2.160
 3888TIP3    H211629   0.043   1.151   2.094
 3889TIP3   OH211630   4.039   0.019   0.705
 3889TIP3    H111631   3.987   0.092   0.740
 3889TIP3    H211632   3.988  -0.013   0.631
 3890TIP3   OH211633   3.245   3.151   2.080
 3890TIP3    H111634   3.164   3.110   2.050
 3890TIP3    H211635   3.229   3.245   2.070
 3891TIP3   OH211636   5.387   1.161   3.168
 3891TIP3    H111637   5.434   1.081   3.144
 3891TIP3    H211638   5.324   1.173   3.097
 3892TIP3   OH211639   1.407   6.316   3.615
 3892TIP3    H111640   1.489   6.289   3.573
 3892TIP3    H211641   1.433   6.385   3.677
 3893TIP3   OH211642   3.803   0.611   2.863
 3893TIP3    H111643   3.879   0.597   2.919
 3893TIP3    H211644   3.769   0.697   2.889
 3894TIP3   OH211645   5.399   0.269   1.247
 3894TIP3    H111646   5.481   0.318   1.250
 3894TIP3    H211647   5.335   0.329   1.209
 3895TIP3   OH211648   5.110   5.210   3.953
 3895TIP3    H111649   5.063   5.127   3.940
 3895TIP3    H211650   5.199   5.183   3.978
 3896TIP3   OH211651   6.799   5.286   1.474
 3896TIP3    H111652   6.756   5.224   1.534
 3896TIP3    H211653   6.810   5.365   1.527
 3897TIP3   OH211654   4.530   5.615   5.682
 3897TIP3    H111655   4.501   5.549   5.745
 3897TIP3    H211656   4.508   5.578   5.596
 3898TIP3   OH211657   5.526   0.824   3.493
 3898TIP3    H111658   5.522   0.821   3.589
 3898TIP3    H211659   5.530   0.917   3.472
 3899TIP3   OH211660   3.100   1.978   5.231
 3899TIP3    H111661   3.141   1.908   5.283
 3899TIP3    H211662   3.107   1.947   5.141
 3900TIP3   OH211663   4.059   1.733   1.482
 3900TIP3    H111664   4.147   1.744   1.447
 3900TIP3    H211665   4.018   1.819   1.470
 3901TIP3   OH211666   1.365   4.514   1.240
 3901TIP3    H111667   1.369   4.558   1.325
 3901TIP3    H211668   1.354   4.421   1.262
 3902TIP3   OH211669   5.033   6.421   4.213
 3902TIP3    H111670   4.971   6.376   4.155
 3902TIP3    H211671   4.999   6.510   4.219
 3903TIP3   OH211672   6.638   3.794   4.702
 3903TIP3    H111673   6.656   3.873   4.753
 3903TIP3    H211674   6.676   3.723   4.754
 3904TIP3   OH211675   1.862   3.191   4.112
 3904TIP3    H111676   1.786   3.147   4.150
 3904TIP3    H211677   1.841   3.284   4.118
 3905TIP3   OH211678   6.468   4.153   1.459
 3905TIP3    H111679   6.380   4.190   1.444
 3905TIP3    H211680   6.465   4.067   1.417
 3906TIP3   OH211681   1.938   1.681   3.419
 3906TIP3    H111682   1.920   1.767   3.381
 3906TIP3    H211683   2.004   1.697   3.486
 3907TIP3   OH211684   3.322   4.879   2.335
 3907TIP3    H111685   3.364   4.800   2.303
 3907TIP3    H211686   3.230   4.871   2.307
 3908TIP3   OH211687   5.226   5.839   1.280
 3908TIP3    H111688   5.304   5.822   1.333
 3908TIP3    H211689   5.232   5.777   1.207
 3909TIP3   OH211690   3.975   5.000   1.538
 3909TIP3    H111691   3.980   5.001   1.633
 3909TIP3    H211692   3.944   4.912   1.516
 3910TIP3   OH211693   4.294   3.700   3.965
 3910TIP3    H111694   4.307   3.750   4.045
 3910TIP3    H211695   4.254   3.618   3.994
 3911TIP3   OH211696   3.288   1.347   1.487
 3911TIP3    H111697   3.223   1.305   1.430
 3911TIP3    H211698   3.341   1.275   1.520
 3912TIP3   OH211699   0.120   1.733   5.647
 3912TIP3    H111700   0.192   1.730   5.583
 3912TIP3    H211701   0.093   1.825   5.647
 3913TIP3   OH211702   5.489   4.821   3.401
 3913TIP3    H111703   5.396   4.835   3.416
 3913TIP3    H211704   5.524   4.908   3.381
 3914TIP3   OH211705   6.449   1.621   0.744
 3914TIP3    H111706   6.490   1.540   0.775
 3914TIP3    H211707   6.356   1.608   0.758
 3915TIP3   OH211708   6.870   4.313   0.669
 3915TIP3    H111709   6.870   4.335   0.576
 3915TIP3    H211710   6.796   4.253   0.680
 3916TIP3   OH211711   5.143   1.677   3.864
 3916TIP3    H111712   5.095   1.608   3.909
 3916TIP3    H211713   5.138   1.653   3.772
 3917TIP3   OH211714   6.140   2.535   4.309
 3917TIP3    H111715   6.072   2.470   4.329
 3917TIP3    H211716   6.163   2.517   4.218
 3918TIP3   OH211717   5.462   4.424   5.544
 3918TIP3    H111718   5.488   4.478   5.618
 3918TIP3    H211719   5.496   4.337   5.565
 3919TIP3   OH211720   3.009   2.213   2.538
 3919TIP3    H111721   2.974   2.300   2.559
 3919TIP3    H211722   3.085   2.204   2.596
 3920TIP3   OH211723   3.877   3.248   0.267
 3920TIP3    H111724   3.806   3.189   0.293
 3920TIP3    H211725   3.929   3.198   0.205
 3921TIP3   OH211726   4.756   2.857   2.120
 3921TIP3    H111727   4.757   2.944   2.160
 3921TIP3    H211728   4.779   2.798   2.191
 3922TIP3   OH211729   1.575   3.270   0.158
 3922TIP3    H111730   1.670   3.274   0.153
 3922TIP3    H211731   1.556   3.180   0.185
 3923TIP3   OH211732   6.666   6.795   0.623
 3923TIP3    H111733   6.579   6.772   0.591
 3923TIP3    H211734   6.726   6.755   0.561
 3924TIP3   OH211735   5.122   0.795   0.163
 3924TIP3    H111736   5.208   0.806   0.123
 3924TIP3    H211737   5.087   0.716   0.124
 3925TIP3   OH211738   1.855   4.340   0.133
 3925TIP3    H111739   1.763   4.315   0.135
 3925TIP3    H211740   1.886   4.330   0.223
 3926TIP3   OH211741   4.431   3.530   1.066
 3926TIP3    H111742   4.359   3.572   1.112
 3926TIP3    H211743   4.417   3.436   1.078
 3927TIP3   OH211744   5.391   3.261   3.020
 3927TIP3    H111745   5.482   3.273   2.995
 3927TIP3    H211746   5.390   3.176   3.064
 3928TIP3   OH211747   3.065   4.536   2.808
 3928TIP3    H111748   3.152   4.572   2.823
 3928TIP3    H211749   3.061   4.459   2.864
 3929TIP3   OH211750   6.391   4.057   1.884
 3929TIP3    H111751   6.408   4.103   1.966
 3929TIP3    H211752   6.297   4.038   1.887
 3930TIP3   OH211753   6.604   4.154   3.989
 3930TIP3    H111754   6.571   4.080   4.040
 3930TIP3    H211755   6.675   4.191   4.043
 3931TIP3   OH211756   5.713   0.879   0.405
 3931TIP3    H111757   5.667   0.796   0.392
 3931TIP3    H211758   5.738   0.906   0.316
 3932TIP3   OH211759   1.844   0.343   2.535
 3932TIP3    H111760   1.751   0.365   2.543
 3932TIP3    H211761   1.878   0.350   2.624
 3933TIP3   OH211762   4.289   0.742   2.136
 3933TIP3    H111763   4.257   0.721   2.048
 3933TIP3    H211764   4.237   0.818   2.163
 3934TIP3   OH211765   4.635   1.101   3.114
 3934TIP3    H111766   4.675   1.025   3.072
 3934TIP3    H211767   4.617   1.161   3.043
 3935TIP3   OH211768   0.376   0.617   4.633
 3935TIP3    H111769   0.338   0.556   4.696
 3935TIP3    H211770   0.367   0.703   4.675
 3936TIP3   OH211771   1.145   1.046   5.026
 3936TIP3    H111772   1.123   1.116   4.965
 3936TIP3    H211773   1.066   0.992   5.030
 3937TIP3   OH211774   2.402   4.657   0.406
 3937TIP3    H111775   2.442   4.709   0.336
 3937TIP3    H211776   2.468   4.591   0.427
 3938TIP3   OH211777   2.401   4.430   3.244
 3938TIP3    H111778   2.427   4.420   3.336
 3938TIP3    H211779   2.307   4.451   3.249
 3939TIP3   OH211780   6.376   4.577   2.331
 3939TIP3    H111781   6.413   4.490   2.346
 3939TIP3    H211782   6.444   4.623   2.282
 3940TIP3   OH211783   1.292   6.215   1.880
 3940TIP3    H111784   1.341   6.236   1.801
 3940TIP3    H211785   1.310   6.289   1.939
 3941TIP3   OH211786   3.581   0.620   5.365
 3941TIP3    H111787   3.595   0.679   5.440
 3941TIP3    H211788   3.596   0.532   5.401
 3942TIP3   OH211789   4.787   4.522   2.590
 3942TIP3    H111790   4.867   4.471   2.597
 3942TIP3    H211791   4.759   4.509   2.499
 3943TIP3   OH211792   4.307   1.054   1.215
 3943TIP3    H111793   4.372   1.105   1.263
 3943TIP3    H211794   4.223   1.079   1.255
 3944TIP3   OH211795   0.752   3.512   3.491
 3944TIP3    H111796   0.732   3.606   3.485
 3944TIP3    H211797   0.774   3.487   3.401
 3945TIP3   OH211798   4.537   5.035   5.887
 3945TIP3    H111799   4.562   5.115   5.840
 3945TIP3    H211800   4.620   4.992   5.907
 3946TIP3   OH211801   3.107   0.826   0.910
 3946TIP3    H111802   3.048   0.793   0.842
 3946TIP3    H211803   3.165   0.886   0.864
 3947TIP3   OH211804   6.663   6.742   3.791
 3947TIP3    H111805   6.721   6.818   3.795
 3947TIP3    H211806   6.700   6.688   3.721
 3948TIP3   OH211807   3.452   0.269   3.645
 3948TIP3    H111808   3.516   0.335   3.673
 3948TIP3    H211809   3.489   0.186   3.674
 3949TIP3   OH211810   6.267   5.244   1.712
 3949TIP3    H111811   6.188   5.208   1.752
 3949TIP3    H211812   6.314   5.167   1.679
 3950TIP3   OH211813   4.854   4.801   3.091
 3950TIP3    H111814   4.830   4.834   3.178
 3950TIP3    H211815   4.803   4.721   3.080
 3951TIP3   OH211816   1.857   5.006   1.171
 3951TIP3    H111817   1.796   5.078   1.187
 3951TIP3    H211818   1.942   5.040   1.201
 3952TIP3   OH211819   4.318   0.507   4.082
 3952TIP3    H111820   4.282   0.458   4.155
 3952TIP3    H211821   4.310   0.599   4.108
 3953TIP3   OH211822   6.342   4.301   0.808
 3953TIP3    H111823   6.323   4.351   0.888
 3953TIP3    H211824   6.270   4.238   0.802
 3954TIP3   OH211825   3.745   4.128   3.397
 3954TIP3    H111826   3.687   4.155   3.469
 3954TIP3    H211827   3.742   4.033   3.398
 3955TIP3   OH211828   3.424   6.177   3.010
 3955TIP3    H111829   3.368   6.177   3.087
 3955TIP3    H211830   3.510   6.151   3.042
 3956TIP3   OH211831   4.731   2.244   0.071
 3956TIP3    H111832   4.709   2.337   0.063
 3956TIP3    H211833   4.774   2.238   0.157
 3957TIP3   OH211834   6.769   6.462   0.253
 3957TIP3    H111835   6.676   6.471   0.234
 3957TIP3    H211836   6.792   6.540   0.303
 3958TIP3   OH211837   5.097   4.364   4.224
 3958TIP3    H111838   5.114   4.454   4.195
 3958TIP3    H211839   5.174   4.342   4.277
 3959TIP3   OH211840   0.436   6.015   0.017
 3959TIP3    H111841   0.456   5.956   0.090
 3959TIP3    H211842   0.429   5.958  -0.059
 3960TIP3   OH211843   1.389   5.001   5.724
 3960TIP3    H111844   1.440   5.080   5.744
 3960TIP3    H211845   1.339   5.024   5.646
 3961TIP3   OH211846   5.937   5.623   3.478
 3961TIP3    H111847   6.004   5.690   3.495
 3961TIP3    H211848   5.977   5.541   3.504
 3962TIP3   OH211849   3.807   6.667   4.296
 3962TIP3    H111850   3.767   6.721   4.364
 3962TIP3    H211851   3.758   6.585   4.299
 3963TIP3   OH211852   1.982   6.276   4.551
 3963TIP3    H111853   1.938   6.192   4.564
 3963TIP3    H211854   2.071   6.262   4.583
 3964TIP3   OH211855   4.715   6.511   4.150
 3964TIP3    H111856   4.679   6.577   4.210
 3964TIP3    H211857   4.639   6.462   4.120
 3965TIP3   OH211858   2.739   3.486   2.841
 3965TIP3    H111859   2.721   3.573   2.875
 3965TIP3    H211860   2.831   3.471   2.862
 3966TIP3   OH211861   4.582   1.939   5.737
 3966TIP3    H111862   4.661   1.985   5.708
 3966TIP3    H211863   4.524   2.008   5.770
 3967TIP3   OH211864   5.106   3.972   2.785
 3967TIP3    H111865   5.141   3.941   2.869
 3967TIP3    H211866   5.174   4.030   2.751
 3968TIP3   OH211867   3.450   5.978   5.694
 3968TIP3    H111868   3.370   6.016   5.657
 3968TIP3    H211869   3.513   6.051   5.694
 3969TIP3   OH211870   0.439   1.821   5.704
 3969TIP3    H111871   0.357   1.783   5.671
 3969TIP3    H211872   0.448   1.786   5.793
 3970TIP3   OH211873   1.237   0.983   3.908
 3970TIP3    H111874   1.266   0.895   3.933
 3970TIP3    H211875   1.221   1.027   3.991
 3971TIP3   OH211876   6.217   4.068   2.875
 3971TIP3    H111877   6.274   3.999   2.909
 3971TIP3    H211878   6.193   4.038   2.788
 3972TIP3   OH211879   3.395   0.485   4.144
 3972TIP3    H111880   3.482   0.450   4.126
 3972TIP3    H211881   3.338   0.441   4.082
 3973TIP3   OH211882   0.655   0.533   2.242
 3973TIP3    H111883   0.701   0.580   2.312
 3973TIP3    H211884   0.571   0.577   2.235
 3974TIP3   OH211885   5.769   1.602   3.173
 3974TIP3    H111886   5.749   1.513   3.202
 3974TIP3    H211887   5.747   1.603   3.080
 3975TIP3   OH211888   1.151   1.486   2.060
 3975TIP3    H111889   1.234   1.455   2.023
 3975TIP3    H211890   1.116   1.546   1.994
 3976TIP3   OH211891   7.089   3.288   5.265
 3976TIP3    H111892   7.132   3.331   5.191
 3976TIP3    H211893   7.051   3.360   5.315
 3977TIP3   OH211894   2.981   4.570   3.710
 3977TIP3    H111895   2.894   4.542   3.681
 3977TIP3    H211896   3.024   4.489   3.737
 3978TIP3   OH211897   0.293   3.235   1.452
 3978TIP3    H111898   0.372   3.192   1.418
 3978TIP3    H211899   0.316   3.328   1.456
 3979TIP3   OH211900   4.515   0.730   1.757
 3979TIP3    H111901   4.471   0.653   1.720
 3979TIP3    H211902   4.594   0.694   1.798
 3980TIP3   OH211903   5.250   3.851   2.980
 3980TIP3    H111904   5.277   3.763   3.006
 3980TIP3    H211905   5.194   3.881   3.051
 3981TIP3   OH211906   0.733   0.592   5.909
 3981TIP3    H111907   0.647   0.622   5.879
 3981TIP3    H211908   0.786   0.587   5.829
 3982TIP3   OH211909   6.628   6.294   3.278
 3982TIP3    H111910   6.535   6.275   3.264
 3982TIP3    H211911   6.631   6.343   3.360
 3983TIP3   OH211912   0.578   0.311   3.967
 3983TIP3    H111913   0.646   0.245   3.979
 3983TIP3    H211914   0.589   0.369   4.043
 3984TIP3   OH211915   4.052   2.935   5.912
 3984TIP3    H111916   4.135   2.948   5.866
 3984TIP3    H211917   3.985   2.952   5.845
 3985TIP3   OH211918   4.367   5.066   5.284
 3985TIP3    H111919   4.352   5.138   5.221
 3985TIP3    H211920   4.381   4.989   5.229
 3986TIP3   OH211921   1.928   4.798   1.959
 3986TIP3    H111922   1.857   4.782   2.021
 3986TIP3    H211923   2.004   4.754   1.997
 3987TIP3   OH211924   6.156   4.864   5.543
 3987TIP3    H111925   6.198   4.859   5.629
 3987TIP3    H211926   6.185   4.948   5.508
 3988TIP3   OH211927   1.936   5.531   4.723
 3988TIP3    H111928   1.946   5.502   4.813
 3988TIP3    H211929   2.010   5.591   4.709
 3989TIP3   OH211930   6.151   5.225   5.517
 3989TIP3    H111931   6.083   5.286   5.546
 3989TIP3    H211932   6.215   5.225   5.588
 3990TIP3   OH211933   6.242   6.567   4.203
 3990TIP3    H111934   6.236   6.476   4.172
 3990TIP3    H211935   6.233   6.619   4.123
 3991TIP3   OH211936   4.426   5.150   0.225
 3991TIP3    H111937   4.466   5.101   0.297
 3991TIP3    H211938   4.415   5.085   0.155
 3992TIP3   OH211939   6.400   0.981   0.116
 3992TIP3    H111940   6.352   0.957   0.037
 3992TIP3    H211941   6.332   1.014   0.176
 3993TIP3   OH211942   2.527   1.781   4.958
 3993TIP3    H111943   2.541   1.863   5.006
 3993TIP3    H211944   2.569   1.795   4.873
 3994TIP3   OH211945   3.610   5.344   1.137
 3994TIP3    H111946   3.564   5.276   1.187
 3994TIP3    H211947   3.542   5.407   1.114
 3995TIP3   OH211948   1.332   1.293   1.644
 3995TIP3    H111949   1.399   1.357   1.621
 3995TIP3    H211950   1.277   1.285   1.566
 3996TIP3   OH211951   6.392   0.207   2.631
 3996TIP3    H111952   6.325   0.157   2.585
 3996TIP3    H211953   6.343   0.269   2.685
 3997TIP3   OH211954   1.618   1.352   5.470
 3997TIP3    H111955   1.603   1.283   5.534
 3997TIP3    H211956   1.642   1.428   5.522
 3998TIP3   OH211957   2.021   6.765   4.297
 3998TIP3    H111958   1.934   6.804   4.284
 3998TIP3    H211959   2.041   6.725   4.213
 3999TIP3   OH211960   5.229   3.097   4.016
 3999TIP3    H111961   5.134   3.082   4.018
 3999TIP3    H211962   5.243   3.170   4.076
 4000TIP3   OH211963   3.903   2.707   0.643
 4000TIP3    H111964   3.965   2.639   0.617
 4000TIP3    H211965   3.954   2.766   0.698
 4001TIP3   OH211966   6.462   6.766   1.947
 4001TIP3    H111967   6.446   6.714   1.868
 4001TIP3    H211968   6.517   6.710   2.001
 4002TIP3   OH211969   1.123   0.773   0.450
 4002TIP3    H111970   1.085   0.846   0.403
 4002TIP3    H211971   1.149   0.711   0.382
 4003TIP3   OH211972   5.897   3.675   5.253
 4003TIP3    H111973   5.894   3.709   5.164
 4003TIP3    H211974   5.912   3.753   5.308
 4004TIP3   OH211975   5.481   3.986   4.740
 4004TIP3    H111976   5.515   4.069   4.774
 4004TIP3    H211977   5.403   3.969   4.793
 4005TIP3   OH211978   1.569   2.409   0.706
 4005TIP3    H111979   1.476   2.408   0.729
 4005TIP3    H211980   1.571   2.433   0.614
 4006TIP3   OH211981   2.417   0.761   0.066
 4006TIP3    H111982   2.345   0.822   0.083
 4006TIP3    H211983   2.406   0.736  -0.025
 4007TIP3   OH211984   1.231   1.911   5.006
 4007TIP3    H111985   1.252   1.988   4.954
 4007TIP3    H211986   1.186   1.852   4.945
 4008TIP3   OH211987   0.553   2.915   3.951
 4008TIP3    H111988   0.612   2.988   3.933
 4008TIP3    H211989   0.474   2.957   3.987
 4009TIP3   OH211990   0.183   5.028   4.208
 4009TIP3    H111991   0.163   5.100   4.269
 4009TIP3    H211992   0.171   5.067   4.121
 4010TIP3   OH211993   3.306   2.980   2.519
 4010TIP3    H111994   3.323   3.060   2.470
 4010TIP3    H211995   3.284   2.915   2.452
 4011TIP3   OH211996   2.625   2.310   5.247
 4011TIP3    H111997   2.671   2.342   5.325
 4011TIP3    H211998   2.694   2.273   5.193
 4012TIP3   OH211999   6.091   4.978   3.111
 4012TIP3    H112000   6.084   5.073   3.100
 4012TIP3    H212001   6.111   4.946   3.023
 4013TIP3   OH212002   2.596   6.219   3.478
 4013TIP3    H112003   2.660   6.217   3.408
 4013TIP3    H212004   2.513   6.239   3.435
 4014TIP3   OH212005   1.282   0.803   4.963
 4014TIP3    H112006   1.266   0.894   4.989
 4014TIP3    H212007   1.204   0.779   4.912
 4015TIP3   OH212008   0.261   1.931   5.013
 4015TIP3    H112009   0.195   1.872   5.051
 4015TIP3    H212010   0.246   2.015   5.057
 4016TIP3   OH212011   5.077   5.875   3.031
 4016TIP3    H112012   5.013   5.875   3.103
 4016TIP3    H212013   5.089   5.783   3.010
 4017TIP3   OH212014   2.442   2.599   1.801
 4017TIP3    H112015   2.379   2.587   1.872
 4017TIP3    H212016   2.424   2.686   1.766
 4018TIP3   OH212017   1.839   0.708   1.434
 4018TIP3    H112018   1.914   0.752   1.475
 4018TIP3    H212019   1.805   0.650   1.503
 4019TIP3   OH212020   5.653   5.465   3.624
 4019TIP3    H112021   5.720   5.533   3.627
 4019TIP3    H212022   5.573   5.509   3.650
 4020TIP3   OH212023   6.249   3.605   1.152
 4020TIP3    H112024   6.262   3.677   1.089
 4020TIP3    H212025   6.180   3.552   1.113
 4021TIP3   OH212026   3.368   3.037   3.065
 4021TIP3    H112027   3.367   3.044   2.969
 4021TIP3    H212028   3.429   3.105   3.093
 4022TIP3   OH212029   4.700   0.474   2.312
 4022TIP3    H112030   4.771   0.452   2.372
 4022TIP3    H212031   4.641   0.399   2.317
 4023TIP3   OH212032   4.509   2.178   4.982
 4023TIP3    H112033   4.430   2.163   5.033
 4023TIP3    H212034   4.537   2.090   4.954
 4024TIP3   OH212035   6.300   1.717   4.629
 4024TIP3    H112036   6.220   1.751   4.589
 4024TIP3    H212037   6.371   1.765   4.586
 4025TIP3   OH212038   2.122   4.286   1.587
 4025TIP3    H112039   2.086   4.199   1.572
 4025TIP3    H212040   2.206   4.286   1.540
 4026TIP3   OH212041   5.152   6.667   2.933
 4026TIP3    H112042   5.225   6.695   2.877
 4026TIP3    H212043   5.088   6.737   2.926
 4027TIP3   OH212044   0.389   1.556   0.081
 4027TIP3    H112045   0.461   1.522   0.134
 4027TIP3    H212046   0.388   1.500   0.003
 4028TIP3   OH212047   3.769   3.523   2.861
 4028TIP3    H112048   3.726   3.547   2.779
 4028TIP3    H212049   3.862   3.518   2.838
 4029TIP3   OH212050   6.066   2.484   3.642
 4029TIP3    H112051   6.068   2.564   3.590
 4029TIP3    H212052   5.995   2.432   3.604
 4030TIP3   OH212053   1.486   3.030   1.207
 4030TIP3    H112054   1.575   3.056   1.232
 4030TIP3    H212055   1.498   2.962   1.142
 4031TIP3   OH212056   7.217   2.308   4.242
 4031TIP3    H112057   7.148   2.289   4.179
 4031TIP3    H212058   7.196   2.254   4.318
 4032TIP3   OH212059   3.930   6.647   5.144
 4032TIP3    H112060   3.877   6.569   5.158
 4032TIP3    H212061   3.978   6.659   5.225
 4033TIP3   OH212062   5.281   3.135   1.612
 4033TIP3    H112063   5.263   3.183   1.693
 4033TIP3    H212064   5.279   3.043   1.637
 4034TIP3   OH212065   4.089   2.844   3.169
 4034TIP3    H112066   4.131   2.887   3.244
 4034TIP3    H212067   4.151   2.778   3.141
 4035TIP3   OH212068   4.229   3.836   4.282
 4035TIP3    H112069   4.208   3.917   4.236
 4035TIP3    H212070   4.148   3.786   4.283
 4036TIP3   OH212071   0.447   4.660   5.156
 4036TIP3    H112072   0.510   4.588   5.155
 4036TIP3    H212073   0.496   4.734   5.193
 4037TIP3   OH212074   5.695   5.709   2.573
 4037TIP3    H112075   5.763   5.685   2.635
 4037TIP3    H212076   5.705   5.804   2.562
 4038TIP3   OH212077   2.068   4.110   3.323
 4038TIP3    H112078   2.038   4.019   3.317
 4038TIP3    H212079   2.118   4.124   3.243
 4039TIP3   OH212080   1.036   5.317   0.855
 4039TIP3    H112081   1.063   5.407   0.839
 4039TIP3    H212082   1.055   5.302   0.948
 4040TIP3   OH212083   0.457   4.349   2.731
 4040TIP3    H112084   0.415   4.421   2.685
 4040TIP3    H212085   0.535   4.329   2.679
 4041TIP3   OH212086   5.368   1.237   0.916
 4041TIP3    H112087   5.380   1.170   0.983
 4041TIP3    H212088   5.308   1.197   0.853
 4042TIP3   OH212089   3.540   0.460   0.388
 4042TIP3    H112090   3.517   0.448   0.480
 4042TIP3    H212091   3.457   0.477   0.343
 4043TIP3   OH212092   1.891   2.115   2.581
 4043TIP3    H112093   1.883   2.210   2.569
 4043TIP3    H212094   1.815   2.079   2.537
 4044TIP3   OH212095   2.007   0.729   0.181
 4044TIP3    H112096   1.932   0.669   0.190
 4044TIP3    H212097   1.967   0.815   0.168
 4045TIP3   OH212098   1.848   4.756   0.494
 4045TIP3    H112099   1.927   4.711   0.466
 4045TIP3    H212100   1.778   4.692   0.483
 4046TIP3   OH212101   0.201   2.493   5.305
 4046TIP3    H112102   0.231   2.579   5.276
 4046TIP3    H212103   0.110   2.508   5.333
 4047TIP3   OH212104   1.420   6.482   2.517
 4047TIP3    H112105   1.427   6.486   2.612
 4047TIP3    H212106   1.327   6.466   2.500
 4048TIP3   OH212107   2.520   3.098   4.384
 4048TIP3    H112108   2.529   3.125   4.293
 4048TIP3    H212109   2.437   3.050   4.387
 4049TIP3   OH212110   4.179   0.458   0.685
 4049TIP3    H112111   4.205   0.367   0.673
 4049TIP3    H212112   4.085   0.454   0.703
 4050TIP3   OH212113   5.570   3.695   4.053
 4050TIP3    H112114   5.628   3.671   4.126
 4050TIP3    H212115   5.610   3.773   4.015
 4051TIP3   OH212116   2.516   0.398   4.309
 4051TIP3    H112117   2.605   0.405   4.344
 4051TIP3    H212118   2.460   0.417   4.384
 4052TIP3   OH212119   0.717   3.858   1.637
 4052TIP3    H112120   0.738   3.939   1.591
 4052TIP3    H212121   0.732   3.878   1.729
 4053TIP3   OH212122   7.080   3.064   5.080
 4053TIP3    H112123   7.057   3.138   5.138
 4053TIP3    H212124   7.164   3.090   5.042
 4054TIP3   OH212125   0.173   2.650   2.106
 4054TIP3    H112126   0.106   2.608   2.051
 4054TIP3    H212127   0.185   2.737   2.067
 4055TIP3   OH212128   1.874   6.616   1.149
 4055TIP3    H112129   1.806   6.683   1.160
 4055TIP3    H212130   1.856   6.553   1.219
 4056TIP3   OH212131   5.219   1.972   0.864
 4056TIP3    H112132   5.143   1.937   0.910
 4056TIP3    H212133   5.251   2.043   0.920
 4057TIP3   OH212134   3.937   4.065   0.842
 4057TIP3    H112135   3.902   4.111   0.918
 4057TIP3    H212136   4.031   4.056   0.861
 4058TIP3   OH212137   4.868   5.880   4.043
 4058TIP3    H112138   4.853   5.974   4.030
 4058TIP3    H212139   4.946   5.860   3.992
 4059TIP3   OH212140   1.447   1.570   0.449
 4059TIP3    H112141   1.390   1.575   0.372
 4059TIP3    H212142   1.530   1.607   0.419
 4060TIP3   OH212143   1.159   0.052   5.478
 4060TIP3    H112144   1.192  -0.007   5.411
 4060TIP3    H212145   1.109   0.118   5.430
 4061TIP3   OH212146   5.197   0.657   4.276
 4061TIP3    H112147   5.264   0.604   4.318
 4061TIP3    H212148   5.150   0.596   4.219
 4062TIP3   OH212149   2.613   3.623   3.641
 4062TIP3    H112150   2.543   3.669   3.594
 4062TIP3    H212151   2.590   3.632   3.733
 4063TIP3   OH212152   3.892   6.723   5.802
 4063TIP3    H112153   3.829   6.652   5.791
 4063TIP3    H212154   3.932   6.708   5.887
 4064TIP3   OH212155   1.329   1.057   1.262
 4064TIP3    H112156   1.260   1.121   1.282
 4064TIP3    H212157   1.282   0.974   1.252
 4065TIP3   OH212158   3.726   1.400   1.554
 4065TIP3    H112159   3.694   1.392   1.464
 4065TIP3    H212160   3.662   1.456   1.598
 4066TIP3   OH212161   0.727   3.118   5.409
 4066TIP3    H112162   0.739   3.025   5.390
 4066TIP3    H212163   0.649   3.121   5.464
 4067TIP3   OH212164   2.395   5.759   5.704
 4067TIP3    H112165   2.469   5.714   5.744
 4067TIP3    H212166   2.434   5.816   5.637
 4068TIP3   OH212167   2.743   5.314   5.286
 4068TIP3    H112168   2.657   5.338   5.321
 4068TIP3    H212169   2.725   5.283   5.197
 4069TIP3   OH212170   5.961   0.404   0.736
 4069TIP3    H112171   5.885   0.366   0.691
 4069TIP3    H212172   5.976   0.346   0.811
 4070TIP3   OH212173   3.165   2.917   0.956
 4070TIP3    H112174   3.135   2.883   0.872
 4070TIP3    H212175   3.256   2.887   0.963
 4071TIP3   OH212176   2.665   2.196   0.386
 4071TIP3    H112177   2.707   2.166   0.306
 4071TIP3    H212178   2.637   2.115   0.430
 4072TIP3   OH212179   5.204   2.941   1.354
 4072TIP3    H112180   5.276   2.917   1.296
 4072TIP3    H212181   5.244   2.947   1.441
 4073TIP3   OH212182   0.834   0.130   1.781
 4073TIP3    H112183   0.908   0.107   1.836
 4073TIP3    H212184   0.872   0.186   1.713
 4074TIP3   OH212185   2.976   1.093   3.430
 4074TIP3    H112186   2.940   1.071   3.516
 4074TIP3    H212187   3.010   1.181   3.441
 4075TIP3   OH212188   6.481   3.298   5.161
 4075TIP3    H112189   6.394   3.295   5.121
 4075TIP3    H212190   6.477   3.234   5.232
 4076TIP3   OH212191   5.988   5.152   0.825
 4076TIP3    H112192   5.996   5.056   0.818
 4076TIP3    H212193   6.035   5.173   0.906
 4077TIP3   OH212194   5.091   4.502   0.526
 4077TIP3    H112195   5.085   4.597   0.515
 4077TIP3    H212196   5.002   4.470   0.510
 4078TIP3   OH212197   3.176   1.773   4.154
 4078TIP3    H112198   3.123   1.747   4.229
 4078TIP3    H212199   3.265   1.743   4.175
 4079TIP3   OH212200   6.943   5.245   5.440
 4079TIP3    H112201   6.855   5.278   5.456
 4079TIP3    H212202   6.986   5.248   5.526
 4080TIP3   OH212203   2.046   4.989   4.296
 4080TIP3    H112204   2.087   5.034   4.222
 4080TIP3    H212205   1.962   5.034   4.307
 4081TIP3   OH212206   3.015   6.750   3.386
 4081TIP3    H112207   3.044   6.779   3.300
 4081TIP3    H212208   3.011   6.655   3.380
 4082TIP3   OH212209   0.509   4.580   4.275
 4082TIP3    H112210   0.575   4.512   4.269
 4082TIP3    H212211   0.499   4.612   4.185
 4083TIP3   OH212212   1.245   0.447   5.467
 4083TIP3    H112213   1.193   0.408   5.395
 4083TIP3    H212214   1.207   0.534   5.479
 4084TIP3   OH212215   2.704   1.763   3.828
 4084TIP3    H112216   2.779   1.785   3.884
 4084TIP3    H212217   2.681   1.845   3.785
 4085TIP3   OH212218   4.399   1.004   3.202
 4085TIP3    H112219   4.445   0.951   3.267
 4085TIP3    H212220   4.469   1.046   3.152
 4086TIP3   OH212221   1.052   3.464   3.929
 4086TIP3    H112222   1.056   3.372   3.902
 4086TIP3    H212223   1.006   3.508   3.858
 4087TIP3   OH212224   5.127   4.077   4.760
 4087TIP3    H112225   5.183   4.152   4.739
 4087TIP3    H212226   5.038   4.109   4.746
 4088TIP3   OH212227   0.224   0.826   4.312
 4088TIP3    H112228   0.245   0.734   4.328
 4088TIP3    H212229   0.282   0.875   4.371
 4089TIP3   OH212230   3.304   5.537   5.809
 4089TIP3    H112231   3.394   5.519   5.833
 4089TIP3    H212232   3.308   5.565   5.718
 4090TIP3   OH212233   3.303   5.906   0.929
 4090TIP3    H112234   3.232   5.930   0.870
 4090TIP3    H212235   3.262   5.897   1.015
 4091TIP3   OH212236   0.521   6.376   2.668
 4091TIP3    H112237   0.556   6.393   2.755
 4091TIP3    H212238   0.439   6.329   2.683
 4092TIP3   OH212239   4.925   1.040   2.868
 4092TIP3    H112240   4.980   0.965   2.847
 4092TIP3    H212241   4.835   1.011   2.850
 4093TIP3   OH212242   0.442   4.870   2.873
 4093TIP3    H112243   0.361   4.845   2.918
 4093TIP3    H212244   0.491   4.920   2.938
 4094TIP3   OH212245   5.090   6.094   1.074
 4094TIP3    H112246   5.183   6.071   1.075
 4094TIP3    H212247   5.089   6.189   1.086
 4095TIP3   OH212248   2.045   4.726   0.280
 4095TIP3    H112249   2.070   4.640   0.247
 4095TIP3    H212250   2.099   4.788   0.232
 4096TIP3   OH212251   4.169   6.584   0.738
 4096TIP3    H112252   4.114   6.517   0.699
 4096TIP3    H212253   4.138   6.593   0.828
 4097TIP3   OH212254   0.537   0.760   0.945
 4097TIP3    H112255   0.611   0.801   0.901
 4097TIP3    H212256   0.552   0.776   1.038
 4098TIP3   OH212257   4.229   5.802   3.624
 4098TIP3    H112258   4.161   5.744   3.657
 4098TIP3    H212259   4.279   5.827   3.701
 4099TIP3   OH212260   2.261   2.151   5.713
 4099TIP3    H112261   2.338   2.112   5.671
 4099TIP3    H212262   2.240   2.092   5.785
 4100TIP3   OH212263   3.442   3.538   0.862
 4100TIP3    H112264   3.372   3.562   0.802
 4100TIP3    H212265   3.513   3.507   0.806
 4101TIP3   OH212266   0.534   4.991   2.638
 4101TIP3    H112267   0.471   4.956   2.575
 4101TIP3    H212268   0.511   4.949   2.721
 4102TIP3   OH212269   2.758   5.078   1.535
 4102TIP3    H112270   2.783   5.088   1.443
 4102TIP3    H212271   2.727   5.165   1.561
 4103TIP3   OH212272   6.968   5.838   0.045
 4103TIP3    H112273   6.926   5.818  -0.038
 4103TIP3    H212274   7.027   5.765   0.061
 4104TIP3   OH212275   1.157   0.696   3.475
 4104TIP3    H112276   1.229   0.654   3.522
 4104TIP3    H212277   1.200   0.762   3.421
 4105TIP3   OH212278   6.046   6.215   3.257
 4105TIP3    H112279   5.979   6.268   3.301
 4105TIP3    H212280   6.026   6.125   3.282
 4106TIP3   OH212281   0.696   4.181   5.713
 4106TIP3    H112282   0.625   4.234   5.749
 4106TIP3    H212283   0.669   4.161   5.624
 4107TIP3   OH212284   1.732   0.166   4.497
 4107TIP3    H112285   1.684   0.204   4.423
 4107TIP3    H212286   1.717   0.228   4.569
 4108TIP3   OH212287   6.864   3.332   3.221
 4108TIP3    H112288   6.793   3.367   3.167
 4108TIP3    H212289   6.838   3.352   3.311
 4109TIP3   OH212290   5.627   2.069   1.885
 4109TIP3    H112291   5.689   2.141   1.890
 4109TIP3    H212292   5.607   2.060   1.792
 4110TIP3   OH212293   0.117   0.118   5.825
 4110TIP3    H112294   0.095   0.192   5.770
 4110TIP3    H212295   0.047   0.055   5.810
 4111TIP3   OH212296   1.816   2.043   1.127
 4111TIP3    H112297   1.749   2.017   1.190
 4111TIP3    H212298   1.832   1.964   1.075
 4112TIP3   OH212299   3.440   0.415   2.192
 4112TIP3    H112300   3.403   0.416   2.104
 4112TIP3    H212301   3.459   0.507   2.211
 4113TIP3   OH212302   6.907   0.285   3.187
 4113TIP3    H112303   6.946   0.368   3.161
 4113TIP3    H212304   6.951   0.261   3.269
 4114TIP3   OH212305   1.911   2.315   5.452
 4114TIP3    H112306   1.845   2.293   5.386
 4114TIP3    H212307   1.868   2.380   5.508
 4115TIP3   OH212308   0.726   2.875   1.099
 4115TIP3    H112309   0.727   2.779   1.101
 4115TIP3    H212310   0.706   2.896   1.007
 4116TIP3   OH212311   1.013   5.423   1.447
 4116TIP3    H112312   1.040   5.429   1.355
 4116TIP3    H212313   0.923   5.455   1.447
 4117TIP3   OH212314   0.407   3.211   5.804
 4117TIP3    H112315   0.327   3.252   5.839
 4117TIP3    H212316   0.440   3.158   5.877
 4118TIP3   OH212317   0.876   0.128   3.313
 4118TIP3    H112318   0.877   0.203   3.373
 4118TIP3    H212319   0.955   0.137   3.261
 4119TIP3   OH212320   3.249   3.214   5.799
 4119TIP3    H112321   3.287   3.222   5.887
 4119TIP3    H212322   3.282   3.290   5.752
 4120TIP3   OH212323   0.415   0.736   3.529
 4120TIP3    H112324   0.494   0.690   3.500
 4120TIP3    H212325   0.423   0.736   3.625
 4121TIP3   OH212326   2.904   1.171   0.164
 4121TIP3    H112327   2.946   1.252   0.136
 4121TIP3    H212328   2.956   1.101   0.123
 4122TIP3   OH212329   1.994   5.731   2.650
 4122TIP3    H112330   2.068   5.723   2.710
 4122TIP3    H212331   1.954   5.816   2.673
 4123TIP3   OH212332   0.575   1.902   1.960
 4123TIP3    H112333   0.539   1.857   1.883
 4123TIP3    H212334   0.522   1.982   1.967
 4124TIP3   OH212335   1.893   2.435   0.891
 4124TIP3    H112336   1.939   2.352   0.878
 4124TIP3    H212337   1.904   2.454   0.985
 4125TIP3   OH212338   0.171   1.316   3.612
 4125TIP3    H112339   0.206   1.235   3.573
 4125TIP3    H212340   0.083   1.293   3.639
 4126TIP3   OH212341   1.488   1.821   5.272
 4126TIP3    H112342   1.443   1.905   5.264
 4126TIP3    H212343   1.515   1.817   5.363
 4127TIP3   OH212344   6.714   6.401   2.920
 4127TIP3    H112345   6.762   6.340   2.975
 4127TIP3    H212346   6.765   6.482   2.923
 4128TIP3   OH212347   5.370   4.314   0.945
 4128TIP3    H112348   5.371   4.343   0.854
 4128TIP3    H212349   5.349   4.392   0.996
 4129TIP3   OH212350   2.002   5.828   3.410
 4129TIP3    H112351   2.080   5.790   3.370
 4129TIP3    H212352   1.933   5.764   3.393
 4130TIP3   OH212353   5.400   4.697   4.795
 4130TIP3    H112354   5.391   4.629   4.861
 4130TIP3    H212355   5.450   4.656   4.724
 4131TIP3   OH212356   2.404   6.387   2.399
 4131TIP3    H112357   2.328   6.438   2.428
 4131TIP3    H212358   2.449   6.444   2.337
 4132TIP3   OH212359   1.291   3.082   4.235
 4132TIP3    H112360   1.288   3.178   4.237
 4132TIP3    H212361   1.236   3.058   4.161
 4133TIP3   OH212362   3.240   3.841   1.711
 4133TIP3    H112363   3.180   3.854   1.785
 4133TIP3    H212364   3.297   3.917   1.713
 4134TIP3   OH212365   4.356   6.631   5.284
 4134TIP3    H112366   4.297   6.692   5.238
 4134TIP3    H212367   4.409   6.688   5.340
 4135TIP3   OH212368   1.664   6.142   4.440
 4135TIP3    H112369   1.754   6.119   4.419
 4135TIP3    H212370   1.617   6.058   4.441
 4136TIP3   OH212371   6.294   1.303   4.298
 4136TIP3    H112372   6.351   1.379   4.316
 4136TIP3    H212373   6.355   1.230   4.287
 4137TIP3   OH212374   0.665   5.726   2.638
 4137TIP3    H112375   0.737   5.674   2.673
 4137TIP3    H212376   0.705   5.809   2.611
 4138TIP3   OH212377   0.321   1.715   4.833
 4138TIP3    H112378   0.253   1.716   4.900
 4138TIP3    H212379   0.301   1.789   4.777
 4139TIP3   OH212380   4.821   4.461   5.815
 4139TIP3    H112381   4.907   4.494   5.791
 4139TIP3    H212382   4.819   4.466   5.910
 4140TIP3   OH212383   2.121   5.856   1.758
 4140TIP3    H112384   2.045   5.915   1.756
 4140TIP3    H212385   2.164   5.877   1.841
 4141TIP3   OH212386   4.030   6.395   4.441
 4141TIP3    H112387   4.055   6.372   4.530
 4141TIP3    H212388   3.972   6.470   4.451
 4142TIP3   OH212389   2.576   2.604   2.076
 4142TIP3    H112390   2.552   2.519   2.111
 4142TIP3    H212391   2.515   2.618   2.003
 4143TIP3   OH212392   5.311   0.509   4.042
 4143TIP3    H112393   5.331   0.430   3.992
 4143TIP3    H212394   5.333   0.487   4.132
 4144TIP3   OH212395   3.880   4.735   4.282
 4144TIP3    H112396   3.929   4.785   4.217
 4144TIP3    H212397   3.901   4.644   4.263
 4145TIP3   OH212398   3.901   0.749   0.992
 4145TIP3    H112399   3.933   0.805   1.063
 4145TIP3    H212400   3.925   0.795   0.912
 4146TIP3   OH212401   6.666   2.265   5.094
 4146TIP3    H112402   6.702   2.188   5.139
 4146TIP3    H212403   6.615   2.310   5.161
 4147TIP3   OH212404   4.776   1.656   3.947
 4147TIP3    H112405   4.860   1.623   3.980
 4147TIP3    H212406   4.776   1.749   3.967
 4148TIP3   OH212407   2.245   1.936   0.297
 4148TIP3    H112408   2.244   1.916   0.391
 4148TIP3    H212409   2.153   1.948   0.274
 4149TIP3   OH212410   5.005   2.968   2.682
 4149TIP3    H112411   4.948   3.041   2.706
 4149TIP3    H212412   5.011   2.914   2.760
 4150TIP3   OH212413   1.147   4.427   5.473
 4150TIP3    H112414   1.177   4.337   5.490
 4150TIP3    H212415   1.176   4.445   5.384
 4151TIP3   OH212416   2.170   0.805   0.509
 4151TIP3    H112417   2.194   0.764   0.426
 4151TIP3    H212418   2.191   0.740   0.576
 4152TIP3   OH212419   5.153   5.091   0.288
 4152TIP3    H112420   5.189   5.002   0.284
 4152TIP3    H212421   5.224   5.147   0.257
 4153TIP3   OH212422   5.876   4.102   5.802
 4153TIP3    H112423   5.924   4.031   5.759
 4153TIP3    H212424   5.874   4.173   5.737
 4154TIP3   OH212425   5.209   5.873   0.042
 4154TIP3    H112426   5.237   5.785   0.065
 4154TIP3    H212427   5.266   5.931   0.092
 4155TIP3   OH212428   2.755   2.766   1.317
 4155TIP3    H112429   2.770   2.845   1.264
 4155TIP3    H212430   2.781   2.792   1.406
 4156TIP3   OH212431   5.091   2.361   3.773
 4156TIP3    H112432   5.035   2.345   3.849
 4156TIP3    H212433   5.169   2.308   3.789
 4157TIP3   OH212434   5.451   4.450   1.289
 4157TIP3    H112435   5.459   4.535   1.246
 4157TIP3    H212436   5.530   4.442   1.342
 4158TIP3   OH212437   1.818   5.082   1.958
 4158TIP3    H112438   1.831   5.084   2.053
 4158TIP3    H212439   1.904   5.101   1.921
 4159TIP3   OH212440   2.634   3.941   1.499
 4159TIP3    H112441   2.551   3.894   1.490
 4159TIP3    H212442   2.698   3.872   1.517
 4160TIP3   OH212443   6.091   0.164   0.999
 4160TIP3    H112444   6.140   0.245   0.987
 4160TIP3    H212445   6.131   0.102   0.938
 4161TIP3   OH212446   6.971   5.866   4.507
 4161TIP3    H112447   6.934   5.951   4.483
 4161TIP3    H212448   6.973   5.816   4.426
 4162TIP3   OH212449   4.773   1.574   0.713
 4162TIP3    H112450   4.856   1.542   0.747
 4162TIP3    H212451   4.796   1.622   0.633
 4163TIP3   OH212452   5.097   2.719   5.476
 4163TIP3    H112453   5.090   2.635   5.430
 4163TIP3    H212454   5.058   2.783   5.417
 4164TIP3   OH212455   2.858   2.513   1.568
 4164TIP3    H112456   2.860   2.473   1.654
 4164TIP3    H212457   2.882   2.605   1.583
 4165TIP3   OH212458   1.868   3.568   2.552
 4165TIP3    H112459   1.852   3.488   2.602
 4165TIP3    H212460   1.835   3.639   2.607
 4166TIP3   OH212461   6.027   6.147   1.844
 4166TIP3    H112462   5.971   6.181   1.774
 4166TIP3    H212463   6.008   6.203   1.919
 4167TIP3   OH212464   1.774   4.918   5.444
 4167TIP3    H112465   1.679   4.910   5.434
 4167TIP3    H212466   1.786   4.993   5.501
 4168TIP3   OH212467   2.643   1.003   2.521
 4168TIP3    H112468   2.584   1.054   2.464
 4168TIP3    H212469   2.718   1.061   2.535
 4169TIP3   OH212470   0.378   4.094   5.358
 4169TIP3    H112471   0.468   4.107   5.388
 4169TIP3    H212472   0.386   4.028   5.289
 4170TIP3   OH212473   3.104   6.263   1.438
 4170TIP3    H112474   3.182   6.313   1.415
 4170TIP3    H212475   3.052   6.321   1.492
 4171TIP3   OH212476   3.480   4.819   3.319
 4171TIP3    H112477   3.424   4.802   3.395
 4171TIP3    H212478   3.562   4.775   3.339
 4172TIP3   OH212479   6.141   1.424   1.789
 4172TIP3    H112480   6.132   1.508   1.835
 4172TIP3    H212481   6.051   1.400   1.764
 4173TIP3   OH212482   6.428   0.544   5.390
 4173TIP3    H112483   6.477   0.496   5.457
 4173TIP3    H212484   6.495   0.582   5.334
 4174TIP3   OH212485   4.106   1.249   4.923
 4174TIP3    H112486   4.103   1.181   4.855
 4174TIP3    H212487   4.088   1.202   5.005
 4175TIP3   OH212488   4.875   0.255   2.131
 4175TIP3    H112489   4.956   0.287   2.172
 4175TIP3    H212490   4.903   0.186   2.071
 4176TIP3   OH212491   4.839   0.881   1.073
 4176TIP3    H112492   4.765   0.856   1.017
 4176TIP3    H212493   4.800   0.930   1.145
 4177TIP3   OH212494   0.218   6.524   2.591
 4177TIP3    H112495   0.208   6.438   2.633
 4177TIP3    H212496   0.310   6.527   2.564
 4178TIP3   OH212497   6.255   5.301   4.071
 4178TIP3    H112498   6.261   5.221   4.019
 4178TIP3    H212499   6.337   5.347   4.054
 4179TIP3   OH212500   6.882   4.767   1.935
 4179TIP3    H112501   6.876   4.698   2.001
 4179TIP3    H212502   6.940   4.832   1.974
 4180TIP3   OH212503   0.538   4.338   1.024
 4180TIP3    H112504   0.477   4.272   0.994
 4180TIP3    H212505   0.512   4.357   1.114
 4181TIP3   OH212506   1.787   2.234   0.633
 4181TIP3    H112507   1.730   2.230   0.555
 4181TIP3    H212508   1.743   2.295   0.692
 4182TIP3   OH212509   6.493   5.417   1.668
 4182TIP3    H112510   6.404   5.398   1.697
 4182TIP3    H212511   6.541   5.335   1.682
 4183TIP3   OH212512   0.698   1.675   5.623
 4183TIP3    H112513   0.648   1.707   5.548
 4183TIP3    H212514   0.753   1.749   5.648
 4184TIP3   OH212515   6.260   4.319   2.665
 4184TIP3    H112516   6.317   4.288   2.736
 4184TIP3    H212517   6.201   4.381   2.708
 4185TIP3   OH212518   6.252   4.126   3.193
 4185TIP3    H112519   6.278   4.040   3.161
 4185TIP3    H212520   6.188   4.157   3.129
 4186TIP3   OH212521   1.493   5.350   1.220
 4186TIP3    H112522   1.427   5.327   1.285
 4186TIP3    H212523   1.451   5.332   1.136
 4187TIP3   OH212524   0.706   3.988   2.896
 4187TIP3    H112525   0.745   4.015   2.979
 4187TIP3    H212526   0.612   3.999   2.909
 4188TIP3   OH212527   7.000   6.197   4.641
 4188TIP3    H112528   6.914   6.198   4.682
 4188TIP3    H212529   7.058   6.163   4.709
 4189TIP3   OH212530   3.232   4.606   1.800
 4189TIP3    H112531   3.227   4.518   1.836
 4189TIP3    H212532   3.290   4.597   1.724
 4190TIP3   OH212533   1.278   4.130   4.221
 4190TIP3    H112534   1.212   4.097   4.160
 4190TIP3    H212535   1.227   4.170   4.291
 4191TIP3   OH212536   2.983   3.341   0.690
 4191TIP3    H112537   3.071   3.314   0.715
 4191TIP3    H212538   2.932   3.260   0.688
 4192TIP3   OH212539   3.063   5.356   1.669
 4192TIP3    H112540   3.012   5.297   1.724
 4192TIP3    H212541   3.149   5.315   1.662
 4193TIP3   OH212542   3.843   2.991   5.754
 4193TIP3    H112543   3.777   3.059   5.765
 4193TIP3    H212544   3.830   2.959   5.665
 4194TIP3   OH212545   6.796   2.257   4.101
 4194TIP3    H112546   6.823   2.168   4.125
 4194TIP3    H212547   6.747   2.289   4.177
 4195TIP3   OH212548   1.051   4.478   2.859
 4195TIP3    H112549   0.972   4.432   2.833
 4195TIP3    H212550   1.058   4.551   2.797
 4196TIP3   OH212551   0.412   1.219   2.737
 4196TIP3    H112552   0.366   1.298   2.762
 4196TIP3    H212553   0.348   1.149   2.748
 4197TIP3   OH212554   4.655   2.973   3.019
 4197TIP3    H112555   4.575   2.953   3.068
 4197TIP3    H212556   4.722   2.917   3.059
 4198TIP3   OH212557   6.776   3.569   4.024
 4198TIP3    H112558   6.780   3.477   3.999
 4198TIP3    H212559   6.699   3.575   4.081
 4199TIP3   OH212560   3.365   6.593   0.795
 4199TIP3    H112561   3.338   6.659   0.730
 4199TIP3    H212562   3.450   6.624   0.825
 4200TIP3   OH212563   2.132   3.017   1.384
 4200TIP3    H112564   2.137   3.087   1.450
 4200TIP3    H212565   2.052   2.970   1.406
 4201TIP3   OH212566   4.357   0.016   0.163
 4201TIP3    H112567   4.422   0.074   0.124
 4201TIP3    H212568   4.395  -0.072   0.152
 4202TIP3   OH212569   0.031   0.068   4.805
 4202TIP3    H112570   0.049   0.118   4.726
 4202TIP3    H212571  -0.062   0.047   4.800
 4203TIP3   OH212572   5.356   3.160   1.187
 4203TIP3    H112573   5.381   3.252   1.176
 4203TIP3    H212574   5.262   3.158   1.172
 4204TIP3   OH212575   6.979   4.554   3.677
 4204TIP3    H112576   6.966   4.461   3.691
 4204TIP3    H212577   7.072   4.564   3.657
 4205TIP3   OH212578   0.865   1.141   2.027
 4205TIP3    H112579   0.862   1.229   1.991
 4205TIP3    H212580   0.775   1.122   2.051
 4206TIP3   OH212581   2.642   1.634   5.482
 4206TIP3    H112582   2.572   1.600   5.537
 4206TIP3    H212583   2.600   1.651   5.397
 4207TIP3   OH212584   3.552   6.485   0.364
 4207TIP3    H112585   3.617   6.543   0.325
 4207TIP3    H212586   3.524   6.529   0.444
 4208TIP3   OH212587   1.866   6.557   5.639
 4208TIP3    H112588   1.916   6.638   5.641
 4208TIP3    H212589   1.932   6.488   5.650
 4209TIP3   OH212590   4.640   4.846   4.181
 4209TIP3    H112591   4.566   4.900   4.209
 4209TIP3    H212592   4.690   4.830   4.260
 4210TIP3   OH212593   2.540   3.137   4.127
 4210TIP3    H112594   2.533   3.214   4.070
 4210TIP3    H212595   2.603   3.080   4.082
 4211TIP3   OH212596   4.524   2.603   5.099
 4211TIP3    H112597   4.499   2.694   5.108
 4211TIP3    H212598   4.601   2.604   5.042
 4212TIP3   OH212599   3.441   5.082   2.181
 4212TIP3    H112600   3.407   5.034   2.257
 4212TIP3    H212601   3.362   5.120   2.141
 4213TIP3   OH212602   3.868   1.605   3.449
 4213TIP3    H112603   3.843   1.520   3.412
 4213TIP3    H212604   3.785   1.644   3.477
 4214TIP3   OH212605   6.563   4.017   0.577
 4214TIP3    H112606   6.538   3.925   0.567
 4214TIP3    H212607   6.632   4.016   0.643
 4215TIP3   OH212608   6.463   6.426   4.566
 4215TIP3    H112609   6.498   6.515   4.564
 4215TIP3    H212610   6.484   6.393   4.654
 4216TIP3   OH212611   2.074   5.422   3.048
 4216TIP3    H112612   2.136   5.492   3.029
 4216TIP3    H212613   2.126   5.342   3.042
 4217TIP3   OH212614   2.767   3.992   3.529
 4217TIP3    H112615   2.784   3.900   3.508
 4217TIP3    H212616   2.683   3.991   3.575
 4218TIP3   OH212617   6.846   0.209   5.547
 4218TIP3    H112618   6.830   0.186   5.638
 4218TIP3    H212619   6.876   0.127   5.507
 4219TIP3   OH212620   0.254   0.432   3.455
 4219TIP3    H112621   0.201   0.511   3.447
 4219TIP3    H212622   0.218   0.387   3.532
 4220TIP3   OH212623   1.439   6.541   1.857
 4220TIP3    H112624   1.429   6.635   1.868
 4220TIP3    H212625   1.364   6.503   1.904
 4221TIP3   OH212626   0.618   1.684   4.383
 4221TIP3    H112627   0.667   1.678   4.465
 4221TIP3    H212628   0.659   1.618   4.327
 4222TIP3   OH212629   6.464   1.117   3.447
 4222TIP3    H112630   6.494   1.182   3.385
 4222TIP3    H212631   6.377   1.147   3.473
 4223TIP3   OH212632   5.486   6.023   5.224
 4223TIP3    H112633   5.398   6.048   5.252
 4223TIP3    H212634   5.507   6.085   5.155
 4224TIP3   OH212635   3.504   0.109   0.466
 4224TIP3    H112636   3.436   0.061   0.513
 4224TIP3    H212637   3.465   0.129   0.381
 4225TIP3   OH212638   3.656   3.182   5.716
 4225TIP3    H112639   3.648   3.243   5.643
 4225TIP3    H212640   3.653   3.238   5.794
 4226TIP3   OH212641   4.829   5.394   5.473
 4226TIP3    H112642   4.802   5.303   5.489
 4226TIP3    H212643   4.923   5.389   5.454
 4227TIP3   OH212644   1.965   5.974   1.142
 4227TIP3    H112645   2.014   5.906   1.190
 4227TIP3    H212646   2.027   6.008   1.078
 4228TIP3   OH212647   0.937   3.287   1.976
 4228TIP3    H112648   0.959   3.345   2.049
 4228TIP3    H212649   0.916   3.203   2.019
 4229TIP3   OH212650   4.267   5.900   1.788
 4229TIP3    H112651   4.359   5.906   1.813
 4229TIP3    H212652   4.264   5.936   1.699
 4230TIP3   OH212653   3.055   5.030   1.125
 4230TIP3    H112654   3.082   4.944   1.093
 4230TIP3    H212655   3.063   5.023   1.220
 4231TIP3   OH212656   6.241   0.969   3.351
 4231TIP3    H112657   6.283   0.892   3.314
 4231TIP3    H212658   6.311   1.016   3.395
 4232TIP3   OH212659   0.651   4.347   4.927
 4232TIP3    H112660   0.559   4.362   4.905
 4232TIP3    H212661   0.665   4.396   5.008
 4233TIP3   OH212662   2.478   2.113   3.483
 4233TIP3    H112663   2.427   2.063   3.419
 4233TIP3    H212664   2.439   2.201   3.482
 4234TIP3   OH212665   0.704   0.075   3.656
 4234TIP3    H112666   0.641   0.025   3.706
 4234TIP3    H212667   0.664   0.084   3.569
 4235TIP3   OH212668   4.026   3.172   3.452
 4235TIP3    H112669   3.981   3.213   3.526
 4235TIP3    H212670   4.029   3.079   3.473
 4236TIP3   OH212671   3.548   5.428   2.190
 4236TIP3    H112672   3.454   5.445   2.205
 4236TIP3    H212673   3.562   5.342   2.229
 4237TIP3   OH212674   5.115   2.544   2.764
 4237TIP3    H112675   5.068   2.620   2.797
 4237TIP3    H212676   5.196   2.542   2.814
 4238TIP3   OH212677   6.704   6.020   0.011
 4238TIP3    H112678   6.771   5.957  -0.016
 4238TIP3    H212679   6.753   6.095   0.043
 4239TIP3   OH212680   0.706   2.758   1.948
 4239TIP3    H112681   0.628   2.709   1.920
 4239TIP3    H212682   0.767   2.749   1.874
 4240TIP3   OH212683   1.126   1.501   3.449
 4240TIP3    H112684   1.160   1.413   3.461
 4240TIP3    H212685   1.035   1.488   3.421
 4241TIP3   OH212686   6.278   6.331   3.592
 4241TIP3    H112687   6.193   6.294   3.614
 4241TIP3    H212688   6.288   6.405   3.652
 4242TIP3   OH212689   3.672   4.178   5.875
 4242TIP3    H112690   3.699   4.195   5.784
 4242TIP3    H212691   3.640   4.088   5.874
 4243TIP3   OH212692   4.096   0.926   0.240
 4243TIP3    H112693   4.129   0.851   0.191
 4243TIP3    H212694   4.051   0.979   0.175
 4244TIP3   OH212695   3.587   4.913   2.540
 4244TIP3    H112696   3.580   4.972   2.616
 4244TIP3    H212697   3.544   4.832   2.567
 4245TIP3   OH212698   5.651   3.916   3.895
 4245TIP3    H112699   5.564   3.955   3.896
 4245TIP3    H212700   5.697   3.962   3.825
 4246TIP3   OH212701   2.864   5.433   4.270
 4246TIP3    H112702   2.900   5.510   4.313
 4246TIP3    H212703   2.938   5.371   4.266
 4247TIP3   OH212704   2.294   1.268   3.860
 4247TIP3    H112705   2.345   1.190   3.838
 4247TIP3    H212706   2.352   1.341   3.837
 4248TIP3   OH212707   3.858   5.416   1.079
 4248TIP3    H112708   3.881   5.506   1.104
 4248TIP3    H212709   3.782   5.395   1.133
 4249TIP3   OH212710   5.243   2.394   0.699
 4249TIP3    H112711   5.201   2.381   0.783
 4249TIP3    H212712   5.310   2.326   0.694
 4250TIP3   OH212713   7.109   3.059   1.193
 4250TIP3    H112714   7.172   3.025   1.257
 4250TIP3    H212715   7.028   3.069   1.242
 4251TIP3   OH212716   6.363   2.106   3.730
 4251TIP3    H112717   6.330   2.038   3.672
 4251TIP3    H212718   6.432   2.062   3.780
 4252TIP3   OH212719   4.703   4.341   2.875
 4252TIP3    H112720   4.608   4.341   2.866
 4252TIP3    H212721   4.735   4.298   2.796
 4253TIP3   OH212722   7.036   4.608   1.760
 4253TIP3    H112723   6.994   4.633   1.678
 4253TIP3    H212724   6.996   4.664   1.826
 4254TIP3   OH212725   0.189   1.091   4.831
 4254TIP3    H112726   0.244   1.163   4.864
 4254TIP3    H212727   0.185   1.105   4.737
 4255TIP3   OH212728   3.955   5.136   4.419
 4255TIP3    H112729   3.913   5.088   4.348
 4255TIP3    H212730   3.897   5.124   4.495
 4256TIP3   OH212731   2.844   4.369   0.609
 4256TIP3    H112732   2.834   4.408   0.522
 4256TIP3    H212733   2.757   4.373   0.648
 4257TIP3   OH212734   4.662   4.517   1.768
 4257TIP3    H112735   4.744   4.521   1.719
 4257TIP3    H212736   4.619   4.438   1.737
 4258TIP3   OH212737   5.937   4.898   5.381
 4258TIP3    H112738   5.887   4.947   5.447
 4258TIP3    H212739   6.014   4.867   5.428
 4259TIP3   OH212740   4.953   2.653   1.882
 4259TIP3    H112741   4.990   2.740   1.899
 4259TIP3    H212742   4.925   2.622   1.968
 4260TIP3   OH212743   1.831   1.241   2.524
 4260TIP3    H112744   1.758   1.292   2.488
 4260TIP3    H212745   1.857   1.182   2.453
 4261TIP3   OH212746   5.600   6.022   4.541
 4261TIP3    H112747   5.588   5.927   4.536
 4261TIP3    H212748   5.578   6.054   4.454
 4262TIP3   OH212749   1.921   5.415   1.949
 4262TIP3    H112750   1.946   5.325   1.932
 4262TIP3    H212751   1.945   5.430   2.040
 4263TIP3   OH212752   1.612   1.319   1.434
 4263TIP3    H112753   1.542   1.373   1.400
 4263TIP3    H212754   1.691   1.373   1.427
 4264TIP3   OH212755   6.870   2.522   0.643
 4264TIP3    H112756   6.948   2.495   0.690
 4264TIP3    H212757   6.851   2.450   0.583
 4265TIP3   OH212758   2.479   1.826   4.513
 4265TIP3    H112759   2.557   1.844   4.461
 4265TIP3    H212760   2.420   1.779   4.454
 4266TIP3   OH212761   5.185   1.272   1.652
 4266TIP3    H112762   5.137   1.250   1.731
 4266TIP3    H212763   5.119   1.305   1.592
 4267TIP3   OH212764   1.177   4.500   5.194
 4267TIP3    H112765   1.270   4.480   5.185
 4267TIP3    H212766   1.163   4.577   5.140
 4268TIP3   OH212767   1.573   0.771   0.864
 4268TIP3    H112768   1.537   0.737   0.782
 4268TIP3    H212769   1.592   0.863   0.845
 4269TIP3   OH212770   5.507   2.534   1.670
 4269TIP3    H112771   5.504   2.447   1.630
 4269TIP3    H212772   5.466   2.592   1.605
 4270TIP3   OH212773   3.716   3.790   5.634
 4270TIP3    H112774   3.688   3.826   5.550
 4270TIP3    H212775   3.806   3.820   5.646
 4271TIP3   OH212776   0.186   5.501   4.141
 4271TIP3    H112777   0.245   5.541   4.205
 4271TIP3    H212778   0.166   5.572   4.080
 4272TIP3   OH212779   0.220   4.106   1.448
 4272TIP3    H112780   0.144   4.071   1.402
 4272TIP3    H212781   0.183   4.170   1.510
 4273TIP3   OH212782   5.145   0.548   3.123
 4273TIP3    H112783   5.209   0.619   3.119
 4273TIP3    H212784   5.173   0.486   3.056
 4274TIP3   OH212785   6.195   6.618   4.779
 4274TIP3    H112786   6.241   6.598   4.698
 4274TIP3    H212787   6.263   6.612   4.847
 4275TIP3   OH212788   1.687   5.753   2.317
 4275TIP3    H112789   1.731   5.771   2.234
 4275TIP3    H212790   1.674   5.838   2.357
 4276TIP3   OH212791   2.149   2.676   5.902
 4276TIP3    H112792   2.095   2.688   5.824
 4276TIP3    H212793   2.183   2.587   5.894
 4277TIP3   OH212794   6.843   5.190   3.024
 4277TIP3    H112795   6.783   5.127   3.064
 4277TIP3    H212796   6.805   5.206   2.937
 4278TIP3   OH212797   1.216   2.719   0.700
 4278TIP3    H112798   1.256   2.778   0.765
 4278TIP3    H212799   1.248   2.752   0.616
 4279TIP3   OH212800   4.623   3.520   5.480
 4279TIP3    H112801   4.608   3.613   5.493
 4279TIP3    H212802   4.546   3.477   5.518
 4280TIP3   OH212803   5.016   0.252   3.012
 4280TIP3    H112804   5.043   0.330   2.963
 4280TIP3    H212805   4.941   0.281   3.064
 4281TIP3   OH212806   3.790   2.039   2.564
 4281TIP3    H112807   3.821   1.949   2.555
 4281TIP3    H212808   3.868   2.093   2.555
 4282TIP3   OH212809   1.148   2.963   4.016
 4282TIP3    H112810   1.096   2.886   3.991
 4282TIP3    H212811   1.239   2.936   4.002
 4283TIP3   OH212812   6.672   2.392   4.348
 4283TIP3    H112813   6.702   2.438   4.427
 4283TIP3    H212814   6.577   2.391   4.356
 4284TIP3   OH212815   4.199   3.579   1.871
 4284TIP3    H112816   4.149   3.520   1.928
 4284TIP3    H212817   4.233   3.646   1.929
 4285TIP3   OH212818   2.577   3.160   1.450
 4285TIP3    H112819   2.659   3.134   1.409
 4285TIP3    H212820   2.510   3.107   1.408
 4286TIP3   OH212821   5.771   0.119   2.986
 4286TIP3    H112822   5.807   0.066   2.915
 4286TIP3    H212823   5.809   0.082   3.066
 4287TIP3   OH212824   3.525   3.317   0.394
 4287TIP3    H112825   3.554   3.227   0.406
 4287TIP3    H212826   3.606   3.369   0.390
 4288TIP3   OH212827   3.116   2.270   0.552
 4288TIP3    H112828   3.090   2.283   0.460
 4288TIP3    H212829   3.081   2.347   0.597
 4289TIP3   OH212830   4.694   0.056   2.300
 4289TIP3    H112831   4.758   0.037   2.369
 4289TIP3    H212832   4.725   0.137   2.260
 4290TIP3   OH212833   5.450   4.823   5.250
 4290TIP3    H112834   5.376   4.853   5.197
 4290TIP3    H212835   5.497   4.762   5.193
 4291TIP3   OH212836   3.386   1.278   4.946
 4291TIP3    H112837   3.402   1.205   4.886
 4291TIP3    H212838   3.401   1.357   4.894
 4292TIP3   OH212839   0.597   6.819   4.894
 4292TIP3    H112840   0.654   6.744   4.882
 4292TIP3    H212841   0.508   6.782   4.892
 4293TIP3   OH212842   4.756   2.603   2.329
 4293TIP3    H112843   4.824   2.539   2.347
 4293TIP3    H212844   4.759   2.664   2.403
 4294TIP3   OH212845   5.514   3.513   2.229
 4294TIP3    H112846   5.514   3.477   2.140
 4294TIP3    H212847   5.423   3.538   2.245
 4295TIP3   OH212848   4.170   0.386   3.798
 4295TIP3    H112849   4.140   0.467   3.839
 4295TIP3    H212850   4.265   0.395   3.792
 4296TIP3   OH212851   6.876   2.246   5.531
 4296TIP3    H112852   6.931   2.299   5.473
 4296TIP3    H212853   6.882   2.290   5.616
 4297TIP3   OH212854   5.743   5.195   0.699
 4297TIP3    H112855   5.758   5.231   0.612
 4297TIP3    H212856   5.827   5.205   0.744
 4298TIP3   OH212857   2.242   2.792   1.663
 4298TIP3    H112858   2.202   2.765   1.745
 4298TIP3    H212859   2.169   2.796   1.601
 4299TIP3   OH212860   1.501   1.969   1.083
 4299TIP3    H112861   1.488   2.058   1.050
 4299TIP3    H212862   1.556   1.927   1.017
 4300TIP3   OH212863   5.856   5.393   0.914
 4300TIP3    H112864   5.911   5.328   0.871
 4300TIP3    H212865   5.807   5.344   0.980
 4301TIP3   OH212866   5.438   5.110   3.195
 4301TIP3    H112867   5.346   5.112   3.223
 4301TIP3    H212868   5.476   5.190   3.232
 4302TIP3   OH212869   5.469   3.046   0.394
 4302TIP3    H112870   5.388   2.996   0.401
 4302TIP3    H212871   5.454   3.106   0.321
 4303TIP3   OH212872   1.414   4.803   4.642
 4303TIP3    H112873   1.432   4.732   4.581
 4303TIP3    H212874   1.491   4.859   4.637
 4304TIP3   OH212875   4.665   6.405   3.563
 4304TIP3    H112876   4.748   6.411   3.609
 4304TIP3    H212877   4.650   6.311   3.553
 4305TIP3   OH212878   4.044   2.804   0.858
 4305TIP3    H112879   4.006   2.886   0.888
 4305TIP3    H212880   4.137   2.811   0.880
 4306TIP3   OH212881   2.161   3.132   4.630
 4306TIP3    H112882   2.102   3.108   4.702
 4306TIP3    H212883   2.248   3.134   4.670
 4307TIP3   OH212884   3.210   2.888   3.827
 4307TIP3    H112885   3.297   2.870   3.794
 4307TIP3    H212886   3.151   2.870   3.754
 4308TIP3   OH212887   4.959   3.749   5.418
 4308TIP3    H112888   4.958   3.843   5.402
 4308TIP3    H212889   5.025   3.715   5.358
 4309TIP3   OH212890   2.726   1.474   1.091
 4309TIP3    H112891   2.766   1.463   1.178
 4309TIP3    H212892   2.795   1.450   1.030
 4310TIP3   OH212893   0.876   0.562   0.852
 4310TIP3    H112894   0.854   0.641   0.802
 4310TIP3    H212895   0.921   0.595   0.930
 4311TIP3   OH212896   1.198   6.634   4.579
 4311TIP3    H112897   1.233   6.641   4.490
 4311TIP3    H212898   1.250   6.696   4.630
 4312TIP3   OH212899   4.729   4.098   1.808
 4312TIP3    H112900   4.816   4.069   1.836
 4312TIP3    H212901   4.671   4.076   1.880
 4313TIP3   OH212902   3.118   0.166   1.858
 4313TIP3    H112903   3.138   0.208   1.942
 4313TIP3    H212904   3.193   0.110   1.840
 4314TIP3   OH212905   3.724   4.110   1.059
 4314TIP3    H112906   3.668   4.034   1.043
 4314TIP3    H212907   3.664   4.178   1.088
 4315TIP3   OH212908   6.733   5.270   4.053
 4315TIP3    H112909   6.794   5.237   3.986
 4315TIP3    H212910   6.786   5.276   4.132
 4316TIP3   OH212911   5.893   3.237   2.322
 4316TIP3    H112912   5.942   3.310   2.285
 4316TIP3    H212913   5.807   3.274   2.343
 4317TIP3   OH212914   6.488   4.192   5.047
 4317TIP3    H112915   6.528   4.261   4.995
 4317TIP3    H212916   6.401   4.181   5.010
 4318TIP3   OH212917   2.731   3.048   0.876
 4318TIP3    H112918   2.648   3.047   0.924
 4318TIP3    H212919   2.759   3.139   0.878
 4319TIP3   OH212920   4.740   5.835   2.050
 4319TIP3    H112921   4.742   5.817   2.144
 4319TIP3    H212922   4.767   5.926   2.042
 4320TIP3   OH212923   2.482   0.359   0.817
 4320TIP3    H112924   2.431   0.377   0.896
 4320TIP3    H212925   2.421   0.317   0.757
 4321TIP3   OH212926   4.608   5.396   2.616
 4321TIP3    H112927   4.528   5.438   2.646
 4321TIP3    H212928   4.651   5.366   2.697
 4322TIP3   OH212929   1.032   2.395   0.820
 4322TIP3    H112930   0.998   2.482   0.835
 4322TIP3    H212931   0.955   2.340   0.805
 4323TIP3   OH212932   6.128   5.895   1.552
 4323TIP3    H112933   6.166   5.952   1.619
 4323TIP3    H212934   6.204   5.862   1.503
 4324TIP3   OH212935   0.905   5.992   2.981
 4324TIP3    H112936   0.947   5.998   3.067
 4324TIP3    H212937   0.943   6.063   2.930
 4325TIP3   OH212938   3.996   2.019   0.025
 4325TIP3    H112939   3.951   2.087   0.076
 4325TIP3    H212940   4.038   1.963   0.090
 4326TIP3   OH212941   4.017   5.735   0.193
 4326TIP3    H112942   4.092   5.727   0.251
 4326TIP3    H212943   4.030   5.668   0.126
 4327TIP3   OH212944   3.925   2.676   2.540
 4327TIP3    H112945   3.923   2.763   2.498
 4327TIP3    H212946   3.871   2.685   2.618
 4328TIP3   OH212947   4.862   1.501   5.023
 4328TIP3    H112948   4.870   1.443   5.099
 4328TIP3    H212949   4.899   1.451   4.951
 4329TIP3   OH212950   2.369   6.000   3.750
 4329TIP3    H112951   2.323   5.950   3.818
 4329TIP3    H212952   2.336   6.090   3.760
 4330TIP3   OH212953   0.429   5.522   4.545
 4330TIP3    H112954   0.334   5.518   4.537
 4330TIP3    H212955   0.459   5.551   4.459
 4331TIP3   OH212956   7.160   5.090   0.891
 4331TIP3    H112957   7.145   5.171   0.843
 4331TIP3    H212958   7.254   5.074   0.882
 4332TIP3   OH212959   3.595   1.370   2.593
 4332TIP3    H112960   3.673   1.370   2.649
 4332TIP3    H212961   3.576   1.462   2.578
 4333TIP3   OH212962   6.365   1.020   1.558
 4333TIP3    H112963   6.443   1.052   1.603
 4333TIP3    H212964   6.346   0.937   1.602
 4334TIP3   OH212965   6.759   5.204   1.217
 4334TIP3    H112966   6.776   5.248   1.300
 4334TIP3    H212967   6.670   5.230   1.194
 4335TIP3   OH212968   2.065   2.354   3.930
 4335TIP3    H112969   2.157   2.357   3.904
 4335TIP3    H212970   2.022   2.300   3.865
 4336TIP3   OH212971   3.433   0.761   0.757
 4336TIP3    H112972   3.375   0.837   0.751
 4336TIP3    H212973   3.499   0.787   0.821
 4337TIP3   OH212974   5.703   2.038   3.269
 4337TIP3    H112975   5.737   2.042   3.180
 4337TIP3    H212976   5.609   2.020   3.258
 4338TIP3   OH212977   1.771   6.290   1.634
 4338TIP3    H112978   1.710   6.364   1.638
 4338TIP3    H212979   1.838   6.319   1.572
 4339TIP3   OH212980   4.303   4.618   3.027
 4339TIP3    H112981   4.302   4.619   2.931
 4339TIP3    H212982   4.234   4.681   3.051
 4340TIP3   OH212983   5.766   2.365   5.082
 4340TIP3    H112984   5.699   2.388   5.017
 4340TIP3    H212985   5.793   2.277   5.059
 4341TIP3   OH212986   4.536   1.118   4.217
 4341TIP3    H112987   4.499   1.030   4.210
 4341TIP3    H212988   4.462   1.174   4.238
 4342TIP3   OH212989   1.760   1.613   0.440
 4342TIP3    H112990   1.825   1.550   0.472
 4342TIP3    H212991   1.802   1.654   0.365
 4343TIP3   OH212992   5.382   3.604   2.623
 4343TIP3    H112993   5.443   3.646   2.563
 4343TIP3    H212994   5.400   3.511   2.616
 4344TIP3   OH212995   0.644   1.039   4.877
 4344TIP3    H112996   0.661   1.105   4.810
 4344TIP3    H212997   0.576   1.077   4.932
 4345TIP3   OH212998   5.368   1.210   4.374
 4345TIP3    H112999   5.381   1.116   4.370
 4345TIP3    H213000   5.287   1.225   4.324
 4346TIP3   OH213001   3.815   1.473   3.865
 4346TIP3    H113002   3.807   1.389   3.910
 4346TIP3    H213003   3.868   1.527   3.924
 4347TIP3   OH213004   4.959   0.970   1.968
 4347TIP3    H113005   5.041   0.954   2.014
 4347TIP3    H213006   4.891   0.940   2.028
 4348TIP3   OH213007   2.445   4.815   0.881
 4348TIP3    H113008   2.467   4.909   0.878
 4348TIP3    H213009   2.437   4.790   0.789
 4349TIP3   OH213010   1.388   2.414   4.426
 4349TIP3    H113011   1.357   2.478   4.362
 4349TIP3    H213012   1.393   2.462   4.509
 4350TIP3   OH213013   6.396   4.643   3.322
 4350TIP3    H113014   6.336   4.578   3.285
 4350TIP3    H213015   6.354   4.727   3.304
 4351TIP3   OH213016   1.283   1.231   4.493
 4351TIP3    H113017   1.334   1.164   4.448
 4351TIP3    H213018   1.336   1.255   4.569
 4352TIP3   OH213019   2.640   0.433   5.362
 4352TIP3    H113020   2.555   0.392   5.376
 4352TIP3    H213021   2.648   0.440   5.267
 4353TIP3   OH213022   1.633   1.540   0.684
 4353TIP3    H113023   1.673   1.601   0.622
 4353TIP3    H213024   1.559   1.502   0.636
 4354TIP3   OH213025   1.351   4.018   1.938
 4354TIP3    H113026   1.379   3.938   1.894
 4354TIP3    H213027   1.411   4.027   2.013
 4355TIP3   OH213028   5.989   3.954   4.549
 4355TIP3    H113029   6.046   4.030   4.533
 4355TIP3    H213030   6.048   3.879   4.545
 4356TIP3   OH213031   0.414   2.216   3.166
 4356TIP3    H113032   0.482   2.282   3.176
 4356TIP3    H213033   0.430   2.154   3.237
 4357TIP3   OH213034   1.125   5.485   0.296
 4357TIP3    H113035   1.209   5.440   0.282
 4357TIP3    H213036   1.062   5.414   0.308
 4358TIP3   OH213037   5.847   5.191   3.191
 4358TIP3    H113038   5.780   5.252   3.221
 4358TIP3    H213039   5.798   5.116   3.157
 4359TIP3   OH213040   4.304   6.060   0.596
 4359TIP3    H113041   4.211   6.075   0.580
 4359TIP3    H213042   4.323   5.977   0.551
 4360TIP3   OH213043   3.523   0.520   1.403
 4360TIP3    H113044   3.580   0.456   1.361
 4360TIP3    H213045   3.571   0.603   1.397
 4361TIP3   OH213046   1.866   3.455   3.319
 4361TIP3    H113047   1.803   3.503   3.265
 4361TIP3    H213048   1.813   3.387   3.362
 4362TIP3   OH213049   5.119   1.372   5.523
 4362TIP3    H113050   5.142   1.415   5.605
 4362TIP3    H213051   5.127   1.278   5.542
 4363TIP3   OH213052   3.459   6.421   3.700
 4363TIP3    H113053   3.371   6.400   3.731
 4363TIP3    H213054   3.516   6.363   3.750
 4364TIP3   OH213055   0.903   0.148   5.036
 4364TIP3    H113056   0.953   0.175   5.114
 4364TIP3    H213057   0.884   0.056   5.051
 4365TIP3   OH213058   2.337   5.167   3.380
 4365TIP3    H113059   2.389   5.246   3.373
 4365TIP3    H213060   2.384   5.102   3.328
 4366TIP3   OH213061   5.100   1.364   3.514
 4366TIP3    H113062   5.050   1.296   3.558
 4366TIP3    H213063   5.094   1.440   3.572
 4367TIP3   OH213064   2.175   0.949   1.312
 4367TIP3    H113065   2.105   0.931   1.249
 4367TIP3    H213066   2.208   0.863   1.337
 4368TIP3   OH213067   5.645   1.544   2.918
 4368TIP3    H113068   5.579   1.526   2.851
 4368TIP3    H213069   5.655   1.639   2.916
 4369TIP3   OH213070   1.458   5.724   3.874
 4369TIP3    H113071   1.388   5.789   3.872
 4369TIP3    H213072   1.539   5.775   3.862
 4370TIP3   OH213073   2.078   2.423   5.252
 4370TIP3    H113074   2.049   2.388   5.336
 4370TIP3    H213075   2.094   2.346   5.198
 4371TIP3   OH213076   5.654   0.563   4.122
 4371TIP3    H113077   5.644   0.589   4.031
 4371TIP3    H213078   5.654   0.467   4.120
 4372TIP3   OH213079   1.864   4.048   2.611
 4372TIP3    H113080   1.860   4.143   2.604
 4372TIP3    H213081   1.935   4.022   2.552
 4373TIP3   OH213082   6.019   5.641   0.937
 4373TIP3    H113083   5.942   5.695   0.949
 4373TIP3    H213084   5.995   5.580   0.866
 4374TIP3   OH213085   6.475   4.991   1.158
 4374TIP3    H113086   6.384   4.978   1.131
 4374TIP3    H213087   6.508   4.902   1.174
 4375TIP3   OH213088   4.761   5.686   0.597
 4375TIP3    H113089   4.810   5.628   0.538
 4375TIP3    H213090   4.677   5.641   0.611
 4376TIP3   OH213091   1.829   2.629   4.867
 4376TIP3    H113092   1.892   2.617   4.796
 4376TIP3    H213093   1.745   2.637   4.823
 4377TIP3   OH213094   6.171   1.579   0.802
 4377TIP3    H113095   6.105   1.510   0.800
 4377TIP3    H213096   6.142   1.642   0.735
 4378TIP3   OH213097   0.305   4.720   3.632
 4378TIP3    H113098   0.390   4.753   3.662
 4378TIP3    H213099   0.328   4.651   3.569
 4379TIP3   OH213100   6.634   6.166   1.883
 4379TIP3    H113101   6.653   6.161   1.789
 4379TIP3    H213102   6.714   6.137   1.926
 4380TIP3   OH213103   4.551   0.474   2.824
 4380TIP3    H113104   4.548   0.443   2.914
 4380TIP3    H213105   4.529   0.397   2.771
 4381TIP3   OH213106   4.570   6.146   3.502
 4381TIP3    H113107   4.485   6.141   3.546
 4381TIP3    H213108   4.549   6.158   3.409
 4382TIP3   OH213109   1.061   4.388   0.506
 4382TIP3    H113110   1.009   4.317   0.542
 4382TIP3    H213111   1.140   4.346   0.471
 4383TIP3   OH213112   4.475   3.716   4.236
 4383TIP3    H113113   4.382   3.725   4.259
 4383TIP3    H213114   4.496   3.798   4.191
 4384TIP3   OH213115   1.555   2.876   4.873
 4384TIP3    H113116   1.469   2.917   4.863
 4384TIP3    H213117   1.545   2.789   4.834
 4385TIP3   OH213118   5.097   2.006   3.744
 4385TIP3    H113119   5.140   2.015   3.829
 4385TIP3    H213120   5.152   1.943   3.696
 4386TIP3   OH213121   4.810   6.333   0.435
 4386TIP3    H113122   4.836   6.271   0.366
 4386TIP3    H213123   4.726   6.367   0.405
 4387TIP3   OH213124   2.942   0.032   0.705
 4387TIP3    H113125   3.015   0.088   0.731
 4387TIP3    H213126   2.969  -0.056   0.730
 4388TIP3   OH213127   6.500   5.431   3.998
 4388TIP3    H113128   6.516   5.520   4.031
 4388TIP3    H213129   6.587   5.390   3.997
 4389TIP3   OH213130   3.259   3.523   5.205
 4389TIP3    H113131   3.219   3.583   5.142
 4389TIP3    H213132   3.325   3.577   5.250
 4390TIP3   OH213133   0.164   6.017   3.830
 4390TIP3    H113134   0.206   6.103   3.819
 4390TIP3    H213135   0.170   5.976   3.744
 4391TIP3   OH213136   0.330   0.183   3.711
 4391TIP3    H113137   0.381   0.124   3.656
 4391TIP3    H213138   0.336   0.145   3.799
 4392TIP3   OH213139   6.317   4.678   4.831
 4392TIP3    H113140   6.243   4.739   4.828
 4392TIP3    H213141   6.280   4.597   4.865
 4393TIP3   OH213142   4.033   6.119   0.630
 4393TIP3    H113143   3.979   6.145   0.704
 4393TIP3    H213144   4.047   6.200   0.581
 4394TIP3   OH213145   2.296   4.934   3.981
 4394TIP3    H113146   2.287   4.945   3.887
 4394TIP3    H213147   2.245   4.856   4.002
 4395TIP3   OH213148   3.015   6.298   3.606
 4395TIP3    H113149   2.956   6.361   3.648
 4395TIP3    H213150   2.979   6.212   3.629
 4396TIP3   OH213151   4.844   5.293   1.269
 4396TIP3    H113152   4.854   5.250   1.354
 4396TIP3    H213153   4.789   5.370   1.287
 4397TIP3   OH213154   5.308   1.052   4.963
 4397TIP3    H113155   5.304   1.134   4.914
 4397TIP3    H213156   5.286   0.985   4.899
 4398TIP3   OH213157   5.943   1.389   5.036
 4398TIP3    H113158   5.918   1.302   5.066
 4398TIP3    H213159   5.918   1.391   4.943
 4399TIP3   OH213160   4.925   2.076   0.247
 4399TIP3    H113161   4.841   2.079   0.203
 4399TIP3    H213162   4.983   2.128   0.191
 4400TIP3   OH213163   1.931   4.348   5.036
 4400TIP3    H113164   1.859   4.326   4.977
 4400TIP3    H213165   1.952   4.265   5.080
 4401TIP3   OH213166   0.406   5.335   0.448
 4401TIP3    H113167   0.389   5.251   0.491
 4401TIP3    H213168   0.426   5.313   0.358
 4402TIP3   OH213169   7.091   1.558   5.257
 4402TIP3    H113170   7.018   1.540   5.199
 4402TIP3    H213171   7.093   1.653   5.266
 4403TIP3   OH213172   7.225   2.659   0.696
 4403TIP3    H113173   7.189   2.572   0.714
 4403TIP3    H213174   7.209   2.672   0.603
 4404TIP3   OH213175   0.437   0.690   2.153
 4404TIP3    H113176   0.514   0.747   2.147
 4404TIP3    H213177   0.363   0.750   2.150
 4405TIP3   OH213178   4.387   0.196   3.389
 4405TIP3    H113179   4.387   0.211   3.484
 4405TIP3    H213180   4.357   0.279   3.352
 4406TIP3   OH213181   2.619   5.968   1.400
 4406TIP3    H113182   2.637   6.051   1.443
 4406TIP3    H213183   2.678   5.906   1.442
 4407TIP3   OH213184   7.175   4.132   1.635
 4407TIP3    H113185   7.123   4.193   1.688
 4407TIP3    H213186   7.174   4.170   1.547
 4408TIP3   OH213187   6.885   2.472   3.705
 4408TIP3    H113188   6.973   2.485   3.739
 4408TIP3    H213189   6.895   2.474   3.610
 4409TIP3   OH213190   6.850   1.539   5.117
 4409TIP3    H113191   6.839   1.454   5.074
 4409TIP3    H213192   6.811   1.602   5.057
 4410TIP3   OH213193   1.572   0.245   5.805
 4410TIP3    H113194   1.569   0.256   5.710
 4410TIP3    H213195   1.490   0.282   5.836
 4411TIP3   OH213196   1.974   6.392   1.494
 4411TIP3    H113197   2.061   6.420   1.520
 4411TIP3    H213198   1.988   6.336   1.417
 4412TIP3   OH213199   2.471   0.956   1.314
 4412TIP3    H113200   2.517   0.895   1.371
 4412TIP3    H213201   2.513   0.946   1.229
 4413TIP3   OH213202   4.095   3.108   2.960
 4413TIP3    H113203   4.006   3.142   2.971
 4413TIP3    H213204   4.133   3.114   3.048
 4414TIP3   OH213205   2.805   4.508   3.256
 4414TIP3    H113206   2.833   4.442   3.319
 4414TIP3    H213207   2.759   4.459   3.188
 4415TIP3   OH213208   0.021   5.825   5.134
 4415TIP3    H113209  -0.031   5.906   5.136
 4415TIP3    H213210   0.046   5.815   5.042
 4416TIP3   OH213211   0.343   2.914   0.333
 4416TIP3    H113212   0.320   2.861   0.256
 4416TIP3    H213213   0.264   2.964   0.353
 4417TIP3   OH213214   6.004   4.852   1.367
 4417TIP3    H113215   5.988   4.899   1.286
 4417TIP3    H213216   6.094   4.875   1.391
 4418TIP3   OH213217   0.446   4.045   3.917
 4418TIP3    H113218   0.388   4.038   3.842
 4418TIP3    H213219   0.405   4.110   3.973
 4419TIP3   OH213220   4.000   6.121   5.847
 4419TIP3    H113221   4.072   6.110   5.909
 4419TIP3    H213222   4.018   6.057   5.778
 4420TIP3   OH213223   0.498   6.191   1.161
 4420TIP3    H113224   0.451   6.252   1.105
 4420TIP3    H213225   0.526   6.121   1.102
 4421TIP3   OH213226   4.786   4.179   0.415
 4421TIP3    H113227   4.725   4.230   0.362
 4421TIP3    H213228   4.831   4.122   0.353
 4422TIP3   OH213229   0.276   4.410   2.508
 4422TIP3    H113230   0.261   4.322   2.472
 4422TIP3    H213231   0.259   4.469   2.435
 4423TIP3   OH213232   3.451   5.528   4.326
 4423TIP3    H113233   3.515   5.552   4.392
 4423TIP3    H213234   3.452   5.432   4.324
 4424TIP3   OH213235   5.491   3.606   5.307
 4424TIP3    H113236   5.543   3.644   5.378
 4424TIP3    H213237   5.551   3.547   5.262
 4425TIP3   OH213238   6.412   6.684   2.916
 4425TIP3    H113239   6.455   6.757   2.870
 4425TIP3    H213240   6.342   6.656   2.857
 4426TIP3   OH213241   3.774   1.651   0.195
 4426TIP3    H113242   3.758   1.737   0.234
 4426TIP3    H213243   3.778   1.667   0.101
 4427TIP3   OH213244   0.761   0.089   4.715
 4427TIP3    H113245   0.734   0.015   4.769
 4427TIP3    H213246   0.680   0.139   4.700
 4428TIP3   OH213247   6.841   3.692   3.469
 4428TIP3    H113248   6.873   3.719   3.555
 4428TIP3    H213249   6.827   3.773   3.422
 4429TIP3   OH213250   4.902   5.529   4.819
 4429TIP3    H113251   4.951   5.520   4.901
 4429TIP3    H213252   4.831   5.465   4.826
 4430TIP3   OH213253   0.556   6.215   4.608
 4430TIP3    H113254   0.469   6.175   4.610
 4430TIP3    H213255   0.597   6.178   4.530
 4431TIP3   OH213256   4.655   4.901   5.367
 4431TIP3    H113257   4.563   4.920   5.387
 4431TIP3    H213258   4.666   4.929   5.276
 4432TIP3   OH213259   2.337   5.165   4.142
 4432TIP3    H113260   2.322   5.084   4.093
 4432TIP3    H213261   2.300   5.234   4.087
 4433TIP3   OH213262   0.637   4.479   5.468
 4433TIP3    H113263   0.600   4.538   5.533
 4433TIP3    H213264   0.713   4.440   5.511
 4434TIP3   OH213265   5.249   6.297   2.060
 4434TIP3    H113266   5.192   6.300   1.984
 4434TIP3    H213267   5.261   6.389   2.085
 4435TIP3   OH213268   2.367   1.159   2.523
 4435TIP3    H113269   2.422   1.135   2.449
 4435TIP3    H213270   2.284   1.112   2.508
 4436TIP3   OH213271   3.923   0.714   5.594
 4436TIP3    H113272   3.906   0.802   5.560
 4436TIP3    H213273   3.968   0.669   5.522
 4437TIP3   OH213274   3.566   2.645   4.103
 4437TIP3    H113275   3.499   2.577   4.094
 4437TIP3    H213276   3.612   2.644   4.019
 4438TIP3   OH213277   6.176   4.547   3.174
 4438TIP3    H113278   6.167   4.634   3.137
 4438TIP3    H213279   6.117   4.492   3.122
 4439TIP3   OH213280   4.315   3.747   2.065
 4439TIP3    H113281   4.239   3.764   2.121
 4439TIP3    H213282   4.381   3.711   2.124
 4440TIP3   OH213283   2.592   6.556   2.646
 4440TIP3    H113284   2.529   6.599   2.702
 4440TIP3    H213285   2.678   6.584   2.680
 4441TIP3   OH213286   5.672   4.709   5.079
 4441TIP3    H113287   5.684   4.705   5.174
 4441TIP3    H213288   5.713   4.791   5.053
 4442TIP3   OH213289   6.943   4.248   1.293
 4442TIP3    H113290   6.986   4.320   1.340
 4442TIP3    H213291   6.851   4.274   1.289
 4443TIP3   OH213292   3.796   1.533   0.840
 4443TIP3    H113293   3.875   1.528   0.894
 4443TIP3    H213294   3.807   1.612   0.788
 4444TIP3   OH213295   4.268   5.254   5.109
 4444TIP3    H113296   4.188   5.214   5.075
 4444TIP3    H213297   4.306   5.300   5.034
 4445TIP3   OH213298   3.823   1.653   1.337
 4445TIP3    H113299   3.797   1.740   1.306
 4445TIP3    H213300   3.905   1.668   1.383
 4446TIP3   OH213301   3.780   2.289   1.737
 4446TIP3    H113302   3.705   2.276   1.679
 4446TIP3    H213303   3.825   2.366   1.702
 4447TIP3   OH213304   3.322   3.261   5.097
 4447TIP3    H113305   3.266   3.332   5.066
 4447TIP3    H213306   3.390   3.304   5.148
 4448TIP3   OH213307   2.142   5.713   1.523
 4448TIP3    H113308   2.121   5.747   1.610
 4448TIP3    H213309   2.237   5.721   1.517
 4449TIP3   OH213310   2.716   0.620   2.258
 4449TIP3    H113311   2.707   0.674   2.179
 4449TIP3    H213312   2.782   0.555   2.235
 4450TIP3   OH213313   4.690   0.927   2.801
 4450TIP3    H113314   4.698   0.841   2.760
 4450TIP3    H213315   4.626   0.914   2.871
 4451TIP3   OH213316   6.041   2.586   2.795
 4451TIP3    H113317   6.007   2.674   2.808
 4451TIP3    H213318   5.969   2.539   2.753
 4452TIP3   OH213319   3.503   1.083   0.154
 4452TIP3    H113320   3.516   0.991   0.178
 4452TIP3    H213321   3.491   1.128   0.237
 4453TIP3   OH213322   4.398   3.961   3.026
 4453TIP3    H113323   4.457   3.888   3.007
 4453TIP3    H213324   4.457   4.035   3.040
 4454TIP3   OH213325   1.585   1.025   4.971
 4454TIP3    H113326   1.571   0.998   4.881
 4454TIP3    H213327   1.569   1.119   4.972
 4455TIP3   OH213328   1.452   5.058   1.350
 4455TIP3    H113329   1.500   5.082   1.271
 4455TIP3    H213330   1.425   4.968   1.336
 4456TIP3   OH213331   2.616   5.943   5.883
 4456TIP3    H113332   2.699   5.946   5.834
 4456TIP3    H213333   2.611   5.852   5.914
 4457TIP3   OH213334   1.783   0.590   1.703
 4457TIP3    H113335   1.769   0.680   1.735
 4457TIP3    H213336   1.794   0.538   1.783
 4458TIP3   OH213337   0.555   1.064   3.066
 4458TIP3    H113338   0.599   1.133   3.016
 4458TIP3    H213339   0.623   1.027   3.122
 4459TIP3   OH213340   0.291   1.060   3.147
 4459TIP3    H113341   0.387   1.062   3.136
 4459TIP3    H213342   0.271   0.968   3.165
 4460TIP3   OH213343   2.896   2.349   3.367
 4460TIP3    H113344   2.990   2.344   3.348
 4460TIP3    H213345   2.859   2.269   3.327
 4461TIP3   OH213346   5.242   5.613   1.854
 4461TIP3    H113347   5.307   5.543   1.845
 4461TIP3    H213348   5.204   5.600   1.941
 4462TIP3   OH213349   5.559   4.754   2.927
 4462TIP3    H113350   5.616   4.719   2.858
 4462TIP3    H213351   5.602   4.729   3.009
 4463TIP3   OH213352   3.405   2.124   1.750
 4463TIP3    H113353   3.398   2.098   1.842
 4463TIP3    H213354   3.500   2.126   1.733
 4464TIP3   OH213355   5.250   1.073   3.602
 4464TIP3    H113356   5.185   1.142   3.594
 4464TIP3    H213357   5.209   0.996   3.563
 4465TIP3   OH213358   6.034   2.411   4.704
 4465TIP3    H113359   5.943   2.417   4.674
 4465TIP3    H213360   6.035   2.335   4.762
 4466TIP3   OH213361   6.054   1.908   5.469
 4466TIP3    H113362   6.134   1.880   5.425
 4466TIP3    H213363   6.037   1.996   5.435
 4467TIP3   OH213364   4.306   5.605   4.647
 4467TIP3    H113365   4.294   5.573   4.558
 4467TIP3    H213366   4.364   5.681   4.638
 4468TIP3   OH213367   1.056   6.313   3.510
 4468TIP3    H113368   0.969   6.274   3.510
 4468TIP3    H213369   1.042   6.402   3.480
 4469TIP3   OH213370   5.704   2.900   0.339
 4469TIP3    H113371   5.615   2.930   0.356
 4469TIP3    H213372   5.744   2.891   0.426
 4470TIP3   OH213373   0.105   5.664   0.238
 4470TIP3    H113374   0.194   5.647   0.270
 4470TIP3    H213375   0.067   5.722   0.305
 4471TIP3   OH213376   6.653   0.730   0.691
 4471TIP3    H113377   6.600   0.656   0.721
 4471TIP3    H213378   6.589   0.793   0.656
 4472TIP3   OH213379   5.121   1.964   5.155
 4472TIP3    H113380   5.093   2.051   5.182
 4472TIP3    H213381   5.055   1.905   5.192
 4473TIP3   OH213382   0.668   0.270   1.207
 4473TIP3    H113383   0.660   0.282   1.302
 4473TIP3    H213384   0.641   0.354   1.170
 4474TIP3   OH213385   0.250   6.014   2.635
 4474TIP3    H113386   0.308   5.990   2.707
 4474TIP3    H213387   0.196   6.085   2.670
 4475TIP3   OH213388   1.769   5.723   5.706
 4475TIP3    H113389   1.696   5.767   5.663
 4475TIP3    H213390   1.833   5.708   5.636
 4476TIP3   OH213391   4.948   0.072   1.949
 4476TIP3    H113392   5.017   0.060   1.884
 4476TIP3    H213393   4.902  -0.012   1.951
 4477TIP3   OH213394   0.595   0.627   3.157
 4477TIP3    H113395   0.672   0.571   3.149
 4477TIP3    H213396   0.536   0.596   3.089
 4478TIP3   OH213397   1.814   5.035   2.943
 4478TIP3    H113398   1.838   5.019   3.034
 4478TIP3    H213399   1.891   5.077   2.905
 4479TIP3   OH213400   2.089   3.095   3.090
 4479TIP3    H113401   1.998   3.102   3.120
 4479TIP3    H213402   2.082   3.088   2.995
 4480TIP3   OH213403   2.845   4.471   1.958
 4480TIP3    H113404   2.837   4.464   2.053
 4480TIP3    H213405   2.913   4.408   1.935
 4481TIP3   OH213406   5.367   2.285   3.845
 4481TIP3    H113407   5.374   2.366   3.793
 4481TIP3    H213408   5.455   2.248   3.843
 4482TIP3   OH213409   2.375   1.497   0.049
 4482TIP3    H113410   2.447   1.549   0.013
 4482TIP3    H213411   2.418   1.419   0.084
 4483TIP3   OH213412   4.656   4.167   1.371
 4483TIP3    H113413   4.714   4.233   1.334
 4483TIP3    H213414   4.715   4.104   1.411
 4484TIP3   OH213415   0.995   0.882   0.667
 4484TIP3    H113416   1.023   0.836   0.588
 4484TIP3    H213417   1.011   0.974   0.648
 4485TIP3   OH213418   0.376   1.867   1.082
 4485TIP3    H113419   0.397   1.811   1.008
 4485TIP3    H213420   0.449   1.929   1.086
 4486TIP3   OH213421   0.650   0.471   0.191
 4486TIP3    H113422   0.647   0.426   0.275
 4486TIP3    H213423   0.739   0.505   0.184
 4487TIP3   OH213424   2.791   5.020   3.448
 4487TIP3    H113425   2.778   4.929   3.477
 4487TIP3    H213426   2.716   5.037   3.391
 4488TIP3   OH213427   2.868   2.347   1.301
 4488TIP3    H113428   2.895   2.406   1.372
 4488TIP3    H213429   2.779   2.321   1.325
 4489TIP3   OH213430   3.204   3.466   3.389
 4489TIP3    H113431   3.211   3.519   3.310
 4489TIP3    H213432   3.115   3.482   3.421
 4490TIP3   OH213433   3.605   3.082   2.475
 4490TIP3    H113434   3.556   3.158   2.507
 4490TIP3    H213435   3.538   3.020   2.447
 4491TIP3   OH213436   0.595   1.817   0.267
 4491TIP3    H113437   0.508   1.790   0.294
 4491TIP3    H213438   0.585   1.909   0.240
 4492TIP3   OH213439   0.796   5.131   1.212
 4492TIP3    H113440   0.857   5.060   1.191
 4492TIP3    H213441   0.764   5.111   1.300
 4493TIP3   OH213442   2.232   5.579   3.792
 4493TIP3    H113443   2.154   5.635   3.799
 4493TIP3    H213444   2.281   5.595   3.873
 4494TIP3   OH213445   5.621   6.565   0.469
 4494TIP3    H113446   5.534   6.573   0.430
 4494TIP3    H213447   5.638   6.471   0.469
 4495TIP3   OH213448   2.699   2.853   3.010
 4495TIP3    H113449   2.745   2.933   3.033
 4495TIP3    H213450   2.606   2.878   3.008
 4496TIP3   OH213451   2.039   5.472   4.028
 4496TIP3    H113452   2.099   5.496   3.958
 4496TIP3    H213453   2.074   5.516   4.106
 4497TIP3   OH213454   3.977   4.672   2.313
 4497TIP3    H113455   3.926   4.748   2.343
 4497TIP3    H213456   3.973   4.611   2.386
 4498TIP3   OH213457   4.682   1.142   4.646
 4498TIP3    H113458   4.656   1.129   4.737
 4498TIP3    H213459   4.747   1.073   4.629
 4499TIP3   OH213460   0.722   4.262   3.797
 4499TIP3    H113461   0.769   4.300   3.724
 4499TIP3    H213462   0.647   4.218   3.757
 4500TIP3   OH213463   1.459   0.066   3.140
 4500TIP3    H113464   1.547   0.027   3.135
 4500TIP3    H213465   1.462   0.138   3.077
 4501TIP3   OH213466   2.482   1.714   5.272
 4501TIP3    H113467   2.447   1.788   5.322
 4501TIP3    H213468   2.463   1.736   5.180
 4502TIP3   OH213469   7.002   1.316   0.168
 4502TIP3    H113470   6.996   1.384   0.101
 4502TIP3    H213471   7.082   1.267   0.146
 4503TIP3   OH213472   5.207   6.700   2.602
 4503TIP3    H113473   5.143   6.771   2.595
 4503TIP3    H213474   5.195   6.649   2.522
 4504TIP3   OH213475   2.904   1.470   1.941
 4504TIP3    H113476   2.950   1.476   2.025
 4504TIP3    H213477   2.849   1.548   1.938
 4505TIP3   OH213478   0.623   1.567   5.278
 4505TIP3    H113479   0.631   1.654   5.317
 4505TIP3    H213480   0.571   1.517   5.342
 4506TIP3   OH213481   1.405   0.755   2.083
 4506TIP3    H113482   1.383   0.718   1.998
 4506TIP3    H213483   1.325   0.800   2.111
 4507TIP3   OH213484   6.231   5.370   0.443
 4507TIP3    H113485   6.313   5.330   0.470
 4507TIP3    H213486   6.232   5.457   0.483
 4508TIP3   OH213487   0.303   6.411   3.328
 4508TIP3    H113488   0.237   6.436   3.393
 4508TIP3    H213489   0.351   6.492   3.312
 4509TIP3   OH213490   5.068   5.831   5.399
 4509TIP3    H113491   5.099   5.919   5.378
 4509TIP3    H213492   5.030   5.799   5.317
 4510TIP3   OH213493   1.021   4.692   2.682
 4510TIP3    H113494   1.085   4.731   2.622
 4510TIP3    H213495   1.021   4.749   2.758
 4511TIP3   OH213496   4.038   6.585   2.628
 4511TIP3    H113497   4.107   6.649   2.642
 4511TIP3    H213498   4.060   6.543   2.545
 4512TIP3   OH213499   1.262   4.607   1.493
 4512TIP3    H113500   1.183   4.661   1.498
 4512TIP3    H213501   1.304   4.620   1.578
 4513TIP3   OH213502   0.133   2.999   1.406
 4513TIP3    H113503   0.151   3.001   1.500
 4513TIP3    H213504   0.177   3.077   1.372
 4514TIP3   OH213505   1.110   1.278   5.440
 4514TIP3    H113506   1.036   1.325   5.402
 4514TIP3    H213507   1.114   1.308   5.530
 4515TIP3   OH213508   6.897   2.773   0.302
 4515TIP3    H113509   6.822   2.816   0.342
 4515TIP3    H213510   6.860   2.698   0.256
 4516TIP3   OH213511   5.817   5.319   0.432
 4516TIP3    H113512   5.863   5.266   0.367
 4516TIP3    H213513   5.740   5.352   0.385
 4517TIP3   OH213514   2.194   3.152   1.827
 4517TIP3    H113515   2.185   3.245   1.805
 4517TIP3    H213516   2.234   3.113   1.749
 4518TIP3   OH213517   4.078   6.775   1.167
 4518TIP3    H113518   4.111   6.739   1.250
 4518TIP3    H213519   4.071   6.869   1.183
 4519TIP3   OH213520   2.748   5.085   2.963
 4519TIP3    H113521   2.818   5.118   2.906
 4519TIP3    H213522   2.794   5.055   3.042
 4520TIP3   OH213523   1.364   5.315   0.903
 4520TIP3    H113524   1.306   5.391   0.894
 4520TIP3    H213525   1.324   5.262   0.971
 4521TIP3   OH213526   3.408   4.665   2.656
 4521TIP3    H113527   3.316   4.670   2.629
 4521TIP3    H213528   3.405   4.664   2.752
 4522TIP3   OH213529   3.510   3.222   1.863
 4522TIP3    H113530   3.487   3.238   1.954
 4522TIP3    H213531   3.556   3.301   1.836
 4523TIP3   OH213532   3.981   5.618   5.071
 4523TIP3    H113533   3.957   5.547   5.131
 4523TIP3    H213534   4.076   5.628   5.082
 4524TIP3   OH213535   4.492   0.870   2.958
 4524TIP3    H113536   4.447   0.795   2.919
 4524TIP3    H213537   4.437   0.895   3.032
 4525TIP3   OH213538   2.818   4.625   0.049
 4525TIP3    H113539   2.828   4.540   0.007
 4525TIP3    H213540   2.797   4.685  -0.023
 4526TIP3   OH213541   4.089   0.685   1.936
 4526TIP3    H113542   4.079   0.597   1.899
 4526TIP3    H213543   4.113   0.739   1.861
 4527TIP3   OH213544   1.882   2.768   1.327
 4527TIP3    H113545   1.919   2.728   1.406
 4527TIP3    H213546   1.924   2.722   1.255
 4528TIP3   OH213547   4.432   5.518   5.451
 4528TIP3    H113548   4.348   5.483   5.482
 4528TIP3    H213549   4.414   5.547   5.361
 4529TIP3   OH213550   3.408   6.758   0.519
 4529TIP3    H113551   3.318   6.735   0.499
 4529TIP3    H213552   3.436   6.813   0.446
 4530TIP3   OH213553   4.853   3.524   4.498
 4530TIP3    H113554   4.863   3.618   4.481
 4530TIP3    H213555   4.833   3.518   4.591
 4531TIP3   OH213556   4.465   5.405   1.374
 4531TIP3    H113557   4.376   5.431   1.397
 4531TIP3    H213558   4.456   5.321   1.330
 4532TIP3   OH213559   1.545   4.977   2.889
 4532TIP3    H113560   1.635   5.006   2.904
 4532TIP3    H213561   1.529   4.912   2.957
 4533TIP3   OH213562   4.238   4.427   1.245
 4533TIP3    H113563   4.293   4.484   1.299
 4533TIP3    H213564   4.259   4.339   1.275
 4534TIP3   OH213565   2.564   2.886   1.740
 4534TIP3    H113566   2.479   2.896   1.695
 4534TIP3    H213567   2.584   2.974   1.772
 4535TIP3   OH213568   4.362   5.843   0.128
 4535TIP3    H113569   4.399   5.930   0.146
 4535TIP3    H213570   4.338   5.809   0.214
 4536TIP3   OH213571   1.091   5.425   3.676
 4536TIP3    H113572   1.131   5.433   3.762
 4536TIP3    H213573   1.035   5.503   3.669
 4537TIP3   OH213574   6.819   4.683   3.843
 4537TIP3    H113575   6.874   4.630   3.787
 4537TIP3    H213576   6.732   4.643   3.837
 4538TIP3   OH213577   3.291   5.444   3.806
 4538TIP3    H113578   3.384   5.437   3.827
 4538TIP3    H213579   3.287   5.503   3.732
 4539TIP3   OH213580   4.192   2.258   1.714
 4539TIP3    H113581   4.250   2.249   1.790
 4539TIP3    H213582   4.235   2.323   1.659
 4540TIP3   OH213583   4.384   4.050   0.019
 4540TIP3    H113584   4.416   4.137   0.044
 4540TIP3    H213585   4.289   4.060   0.015
 4541TIP3   OH213586   7.004   4.905   0.199
 4541TIP3    H113587   6.997   4.992   0.160
 4541TIP3    H213588   6.933   4.903   0.263
 4542TIP3   OH213589   6.549   6.084   2.323
 4542TIP3    H113590   6.467   6.104   2.368
 4542TIP3    H213591   6.582   6.005   2.365
 4543TIP3   OH213592   5.991   0.231   3.153
 4543TIP3    H113593   5.948   0.291   3.092
 4543TIP3    H213594   5.919   0.194   3.205
 4544TIP3   OH213595   2.489   4.168   4.930
 4544TIP3    H113596   2.425   4.171   4.859
 4544TIP3    H213597   2.458   4.234   4.992
 4545TIP3   OH213598   1.515   2.360   4.077
 4545TIP3    H113599   1.460   2.289   4.108
 4545TIP3    H213600   1.584   2.367   4.142
 4546TIP3   OH213601   1.304   3.271   5.517
 4546TIP3    H113602   1.362   3.346   5.508
 4546TIP3    H213603   1.257   3.267   5.433
 4547TIP3   OH213604   3.632   2.303   3.264
 4547TIP3    H113605   3.720   2.330   3.239
 4547TIP3    H213606   3.624   2.328   3.356
 4548TIP3   OH213607   5.344   4.940   1.191
 4548TIP3    H113608   5.260   4.925   1.148
 4548TIP3    H213609   5.333   5.023   1.237
 4549TIP3   OH213610   5.029   6.422   2.815
 4549TIP3    H113611   5.111   6.467   2.834
 4549TIP3    H213612   4.963   6.491   2.816
 4550TIP3   OH213613   0.600   2.153   1.315
 4550TIP3    H113614   0.606   2.057   1.307
 4550TIP3    H213615   0.552   2.167   1.397
 4551TIP3   OH213616   3.067   6.254   0.888
 4551TIP3    H113617   3.014   6.213   0.958
 4551TIP3    H213618   3.152   6.269   0.929
 4552TIP3   OH213619   6.089   3.739   0.225
 4552TIP3    H113620   6.154   3.685   0.180
 4552TIP3    H213621   6.008   3.722   0.177
 4553TIP3   OH213622   4.834   5.146   0.798
 4553TIP3    H113623   4.925   5.170   0.780
 4553TIP3    H213624   4.831   5.138   0.894
 4554TIP3   OH213625   4.021   4.220   4.342
 4554TIP3    H113626   4.000   4.220   4.249
 4554TIP3    H213627   4.116   4.218   4.346
 4555TIP3   OH213628   6.438   5.181   2.792
 4555TIP3    H113629   6.521   5.229   2.797
 4555TIP3    H213630   6.461   5.099   2.748
 4556TIP3   OH213631   3.223   1.678   3.009
 4556TIP3    H113632   3.157   1.702   3.074
 4556TIP3    H213633   3.249   1.760   2.968
 4557TIP3   OH213634   0.404   1.385   0.919
 4557TIP3    H113635   0.396   1.294   0.948
 4557TIP3    H213636   0.487   1.389   0.872
 4558TIP3   OH213637   2.652   2.673   5.784
 4558TIP3    H113638   2.565   2.634   5.785
 4558TIP3    H213639   2.702   2.622   5.847
 4559TIP3   OH213640   2.759   6.067   4.829
 4559TIP3    H113641   2.814   6.000   4.790
 4559TIP3    H213642   2.693   6.087   4.762
 4560TIP3   OH213643   1.202   0.091   4.171
 4560TIP3    H113644   1.233   0.118   4.258
 4560TIP3    H213645   1.169   0.171   4.132
 4561TIP3   OH213646   5.465   5.221   1.319
 4561TIP3    H113647   5.412   5.216   1.399
 4561TIP3    H213648   5.534   5.284   1.340
 4562TIP3   OH213649   1.980   5.185   0.330
 4562TIP3    H113650   1.951   5.094   0.318
 4562TIP3    H213651   1.912   5.237   0.287
 4563TIP3   OH213652   2.387   4.398   1.560
 4563TIP3    H113653   2.396   4.402   1.465
 4563TIP3    H213654   2.476   4.409   1.594
 4564TIP3   OH213655   5.663   0.993   5.274
 4564TIP3    H113656   5.594   0.930   5.252
 4564TIP3    H213657   5.695   0.965   5.360
 4565TIP3   OH213658   6.764   1.586   1.516
 4565TIP3    H113659   6.830   1.655   1.515
 4565TIP3    H213660   6.713   1.601   1.596
 4566TIP3   OH213661   1.059   3.865   1.951
 4566TIP3    H113662   1.032   3.942   2.002
 4566TIP3    H213663   1.035   3.887   1.861
 4567TIP3   OH213664   4.642   3.931   0.077
 4567TIP3    H113665   4.641   3.835   0.080
 4567TIP3    H213666   4.550   3.956   0.069
 4568TIP3   OH213667   1.895   5.681   5.202
 4568TIP3    H113668   1.818   5.634   5.170
 4568TIP3    H213669   1.875   5.700   5.294
 4569TIP3   OH213670   0.024   4.946   5.355
 4569TIP3    H113671   0.061   4.866   5.317
 4569TIP3    H213672  -0.039   4.976   5.289
 4570TIP3   OH213673   5.548   2.360   2.756
 4570TIP3    H113674   5.551   2.275   2.712
 4570TIP3    H213675   5.508   2.342   2.841
 4571TIP3   OH213676   5.199   1.134   5.847
 4571TIP3    H113677   5.195   1.124   5.752
 4571TIP3    H213678   5.108   1.128   5.876
 4572TIP3   OH213679   1.247   2.234   5.677
 4572TIP3    H113680   1.265   2.156   5.624
 4572TIP3    H213681   1.226   2.199   5.764
 4573TIP3   OH213682   1.481   6.141   3.866
 4573TIP3    H113683   1.539   6.127   3.791
 4573TIP3    H213684   1.400   6.097   3.843
 4574TIP3   OH213685   5.678   0.586   4.838
 4574TIP3    H113686   5.691   0.645   4.912
 4574TIP3    H213687   5.618   0.519   4.872
 4575TIP3   OH213688   0.208   2.604   3.721
 4575TIP3    H113689   0.220   2.650   3.638
 4575TIP3    H213690   0.289   2.620   3.769
 4576TIP3   OH213691   0.776   4.694   1.860
 4576TIP3    H113692   0.848   4.729   1.912
 4576TIP3    H213693   0.736   4.627   1.915
 4577TIP3   OH213694   6.871   1.046   1.457
 4577TIP3    H113695   6.905   1.135   1.453
 4577TIP3    H213696   6.805   1.047   1.526
 4578TIP3   OH213697   0.872   3.069   4.148
 4578TIP3    H113698   0.921   2.997   4.110
 4578TIP3    H213699   0.904   3.074   4.238
 4579TIP3   OH213700   6.298   1.450   2.395
 4579TIP3    H113701   6.302   1.370   2.342
 4579TIP3    H213702   6.387   1.486   2.390
 4580TIP3   OH213703   4.250   4.489   1.535
 4580TIP3    H113704   4.221   4.566   1.584
 4580TIP3    H213705   4.181   4.424   1.551
 4581TIP3   OH213706   5.295   2.854   1.656
 4581TIP3    H113707   5.272   2.846   1.749
 4581TIP3    H213708   5.390   2.866   1.656
 4582TIP3   OH213709   6.886   1.202   1.836
 4582TIP3    H113710   6.803   1.201   1.788
 4582TIP3    H213711   6.877   1.132   1.901
 4583TIP3   OH213712   6.806   1.499   0.809
 4583TIP3    H113713   6.873   1.433   0.824
 4583TIP3    H213714   6.774   1.480   0.721
 4584TIP3   OH213715   6.266   6.084   1.714
 4584TIP3    H113716   6.338   6.067   1.775
 4584TIP3    H213717   6.199   6.127   1.767
 4585TIP3   OH213718   4.002   1.645   5.799
 4585TIP3    H113719   4.008   1.732   5.760
 4585TIP3    H213720   3.912   1.617   5.782
 4586TIP3   OH213721   2.644   5.553   5.166
 4586TIP3    H113722   2.641   5.505   5.248
 4586TIP3    H213723   2.554   5.584   5.153
 4587TIP3   OH213724   2.545   4.797   0.201
 4587TIP3    H113725   2.534   4.803   0.106
 4587TIP3    H213726   2.607   4.867   0.222
 4588TIP3   OH213727   3.607   4.297   2.465
 4588TIP3    H113728   3.568   4.239   2.531
 4588TIP3    H213729   3.621   4.380   2.512
 4589TIP3   OH213730   4.581   2.215   1.690
 4589TIP3    H113731   4.637   2.226   1.767
 4589TIP3    H213732   4.536   2.299   1.681
 4590TIP3   OH213733   0.794   2.782   2.203
 4590TIP3    H113734   0.807   2.694   2.237
 4590TIP3    H213735   0.750   2.769   2.119
 4591TIP3   OH213736   1.015   0.764   1.438
 4591TIP3    H113737   1.036   0.672   1.427
 4591TIP3    H213738   1.086   0.800   1.491
 4592TIP3   OH213739   3.546   2.547   0.343
 4592TIP3    H113740   3.519   2.469   0.391
 4592TIP3    H213741   3.491   2.547   0.264
 4593TIP3   OH213742   6.469   0.251   2.070
 4593TIP3    H113743   6.511   0.332   2.039
 4593TIP3    H213744   6.433   0.274   2.155
 4594TIP3   OH213745   2.667   4.363   2.757
 4594TIP3    H113746   2.634   4.328   2.674
 4594TIP3    H213747   2.747   4.410   2.733
 4595TIP3   OH213748   0.973   1.976   4.586
 4595TIP3    H113749   1.028   2.055   4.585
 4595TIP3    H213750   1.030   1.908   4.624
 4596TIP3   OH213751   0.248   3.056   5.485
 4596TIP3    H113752   0.336   3.040   5.449
 4596TIP3    H213753   0.239   3.151   5.483
 4597TIP3   OH213754   0.428   0.287   5.250
 4597TIP3    H113755   0.479   0.221   5.297
 4597TIP3    H213756   0.492   0.355   5.229
 4598TIP3   OH213757   5.872   0.684   5.527
 4598TIP3    H113758   5.866   0.596   5.564
 4598TIP3    H213759   5.888   0.670   5.434
 4599TIP3   OH213760   2.286   4.002   0.684
 4599TIP3    H113761   2.236   3.973   0.608
 4599TIP3    H213762   2.293   3.925   0.740
 4600TIP3   OH213763   2.903   4.999   5.166
 4600TIP3    H113764   2.841   5.065   5.197
 4600TIP3    H213765   2.953   5.043   5.097
 4601TIP3   OH213766   2.684   1.391   2.201
 4601TIP3    H113767   2.697   1.485   2.186
 4601TIP3    H213768   2.714   1.350   2.120
 4602TIP3   OH213769   3.215   1.717   0.581
 4602TIP3    H113770   3.180   1.634   0.614
 4602TIP3    H213771   3.160   1.784   0.623
 4603TIP3   OH213772   3.210   5.267   1.165
 4603TIP3    H113773   3.186   5.177   1.187
 4603TIP3    H213774   3.126   5.314   1.162
 4604TIP3   OH213775   1.404   3.706   1.189
 4604TIP3    H113776   1.461   3.761   1.242
 4604TIP3    H213777   1.392   3.626   1.240
 4605TIP3   OH213778   3.131   1.486   5.759
 4605TIP3    H113779   3.041   1.497   5.789
 4605TIP3    H213780   3.130   1.519   5.669
 4606TIP3   OH213781   0.655   1.402   2.100
 4606TIP3    H113782   0.620   1.412   2.188
 4606TIP3    H213783   0.742   1.442   2.105
 4607TIP3   OH213784   3.390   6.550   3.321
 4607TIP3    H113785   3.357   6.548   3.411
 4607TIP3    H213786   3.325   6.501   3.271
 4608TIP3   OH213787   1.277   4.238   1.245
 4608TIP3    H113788   1.221   4.239   1.323
 4608TIP3    H213789   1.215   4.238   1.172
 4609TIP3   OH213790   6.959   4.961   3.330
 4609TIP3    H113791   6.962   4.954   3.425
 4609TIP3    H213792   7.029   5.022   3.308
 4610TIP3   OH213793   2.669   1.056   0.978
 4610TIP3    H113794   2.704   0.966   0.980
 4610TIP3    H213795   2.705   1.098   1.055
 4611TIP3   OH213796   2.229   4.636   4.433
 4611TIP3    H113797   2.248   4.714   4.485
 4611TIP3    H213798   2.308   4.583   4.440
 4612TIP3   OH213799   4.437   5.743   3.460
 4612TIP3    H113800   4.503   5.699   3.514
 4612TIP3    H213801   4.374   5.778   3.523
 4613TIP3   OH213802   2.305   3.563   3.738
 4613TIP3    H113803   2.281   3.655   3.724
 4613TIP3    H213804   2.259   3.538   3.818
 4614TIP3   OH213805   1.514   4.572   1.963
 4614TIP3    H113806   1.600   4.531   1.976
 4614TIP3    H213807   1.465   4.551   2.043
 4615TIP3   OH213808   1.650   3.686   3.357
 4615TIP3    H113809   1.656   3.691   3.261
 4615TIP3    H213810   1.557   3.668   3.374
 4616TIP3   OH213811   4.516   3.738   1.643
 4616TIP3    H113812   4.479   3.784   1.718
 4616TIP3    H213813   4.574   3.801   1.602
 4617TIP3   OH213814   6.215   3.868   2.306
 4617TIP3    H113815   6.191   3.919   2.384
 4617TIP3    H213816   6.249   3.786   2.341
 4618TIP3   OH213817   5.657   1.329   5.162
 4618TIP3    H113818   5.742   1.292   5.134
 4618TIP3    H213819   5.648   1.301   5.253
 4619TIP3   OH213820   2.808   1.375   1.694
 4619TIP3    H113821   2.867   1.355   1.622
 4619TIP3    H213822   2.865   1.402   1.766
 4620TIP3   OH213823   0.051   5.267   3.745
 4620TIP3    H113824  -0.038   5.232   3.735
 4620TIP3    H213825   0.108   5.198   3.712
 4621TIP3   OH213826   1.771   2.615   2.412
 4621TIP3    H113827   1.702   2.552   2.427
 4621TIP3    H213828   1.729   2.685   2.360
 4622TIP3   OH213829   6.707   3.346   1.534
 4622TIP3    H113830   6.783   3.322   1.587
 4622TIP3    H213831   6.664   3.262   1.515
 4623TIP3   OH213832   2.724   0.975   3.400
 4623TIP3    H113833   2.648   1.033   3.400
 4623TIP3    H213834   2.796   1.029   3.369
 4624TIP3   OH213835   1.129   1.978   3.736
 4624TIP3    H113836   1.179   1.983   3.818
 4624TIP3    H213837   1.041   1.951   3.763
 4625TIP3   OH213838   1.556   6.557   2.162
 4625TIP3    H113839   1.491   6.620   2.194
 4625TIP3    H213840   1.504   6.489   2.120
 4626TIP3   OH213841   2.594   0.640   3.729
 4626TIP3    H113842   2.641   0.685   3.659
 4626TIP3    H213843   2.576   0.707   3.794
 4627TIP3   OH213844   5.196   6.137   2.741
 4627TIP3    H113845   5.142   6.191   2.684
 4627TIP3    H213846   5.153   6.142   2.827
 4628TIP3   OH213847   2.000   6.188   1.299
 4628TIP3    H113848   2.060   6.191   1.225
 4628TIP3    H213849   2.012   6.102   1.337
 4629TIP3   OH213850   6.359   3.407   3.813
 4629TIP3    H113851   6.281   3.356   3.789
 4629TIP3    H213852   6.398   3.358   3.885
 4630TIP3   OH213853   2.161   6.449   4.270
 4630TIP3    H113854   2.091   6.419   4.328
 4630TIP3    H213855   2.117   6.507   4.208
 4631TIP3   OH213856   5.759   6.391   2.978
 4631TIP3    H113857   5.680   6.442   2.956
 4631TIP3    H213858   5.725   6.307   3.008
 4632TIP3   OH213859   2.037   2.456   2.801
 4632TIP3    H113860   2.131   2.443   2.810
 4632TIP3    H213861   2.025   2.481   2.709
 4633TIP3   OH213862   1.768   5.732   4.544
 4633TIP3    H113863   1.732   5.816   4.573
 4633TIP3    H213864   1.843   5.718   4.602
 4634TIP3   OH213865   4.795   5.664   0.903
 4634TIP3    H113866   4.891   5.667   0.900
 4634TIP3    H213867   4.769   5.640   0.814
 4635TIP3   OH213868   4.963   2.974   2.410
 4635TIP3    H113869   5.020   2.969   2.487
 4635TIP3    H213870   4.900   3.043   2.431
 4636TIP3   OH213871   1.545   1.417   0.956
 4636TIP3    H113872   1.596   1.476   0.901
 4636TIP3    H213873   1.527   1.341   0.899
 4637TIP3   OH213874   4.826   0.660   5.400
 4637TIP3    H113875   4.765   0.716   5.353
 4637TIP3    H213876   4.908   0.667   5.353
 4638TIP3   OH213877   5.594   0.339   2.708
 4638TIP3    H113878   5.671   0.285   2.688
 4638TIP3    H213879   5.524   0.301   2.655
 4639TIP3   OH213880   6.378   3.703   5.847
 4639TIP3    H113881   6.412   3.773   5.903
 4639TIP3    H213882   6.437   3.630   5.862
 4640TIP3   OH213883   5.218   2.203   5.372
 4640TIP3    H113884   5.161   2.129   5.393
 4640TIP3    H213885   5.284   2.203   5.441
 4641TIP3   OH213886   4.429   4.612   4.412
 4641TIP3    H113887   4.367   4.679   4.384
 4641TIP3    H213888   4.513   4.657   4.415
 4642TIP3   OH213889   2.234   3.450   0.260
 4642TIP3    H113890   2.143   3.477   0.251
 4642TIP3    H213891   2.229   3.356   0.281
 4643TIP3   OH213892   4.701   6.087   5.163
 4643TIP3    H113893   4.740   6.159   5.114
 4643TIP3    H213894   4.699   6.014   5.101
 4644TIP3   OH213895   3.332   1.796   3.889
 4644TIP3    H113896   3.275   1.773   3.963
 4644TIP3    H213897   3.420   1.778   3.921
 4645TIP3   OH213898   3.368   5.144   0.963
 4645TIP3    H113899   3.384   5.060   1.007
 4645TIP3    H213900   3.330   5.200   1.031
 4646TIP3   OH213901   1.735   6.323   0.113
 4646TIP3    H113902   1.828   6.333   0.133
 4646TIP3    H213903   1.693   6.397   0.157
 4647TIP3   OH213904   5.659   6.649   2.628
 4647TIP3    H113905   5.592   6.670   2.563
 4647TIP3    H213906   5.616   6.667   2.712
 4648TIP3   OH213907   6.596   1.095   1.981
 4648TIP3    H113908   6.664   1.034   2.012
 4648TIP3    H213909   6.615   1.177   2.027
 4649TIP3   OH213910   0.951   6.811   1.892
 4649TIP3    H113911   0.921   6.721   1.877
 4649TIP3    H213912   1.011   6.829   1.819
 4650TIP3   OH213913   2.284   3.998   5.397
 4650TIP3    H113914   2.287   4.094   5.391
 4650TIP3    H213915   2.311   3.968   5.311
 4651TIP3   OH213916   4.511   2.246   2.488
 4651TIP3    H113917   4.545   2.164   2.452
 4651TIP3    H213918   4.586   2.284   2.534
 4652TIP3   OH213919   6.048   5.810   4.064
 4652TIP3    H113920   6.075   5.745   4.129
 4652TIP3    H213921   6.000   5.760   3.998
 4653TIP3   OH213922   0.744   4.567   0.748
 4653TIP3    H113923   0.802   4.614   0.689
 4653TIP3    H213924   0.760   4.606   0.834
 4654TIP3   OH213925   5.588   1.657   5.745
 4654TIP3    H113926   5.625   1.709   5.817
 4654TIP3    H213927   5.636   1.686   5.667
 4655TIP3   OH213928   5.702   1.801   2.959
 4655TIP3    H113929   5.655   1.876   2.923
 4655TIP3    H213930   5.794   1.816   2.935
 4656TIP3   OH213931   2.623   0.579   0.564
 4656TIP3    H113932   2.633   0.626   0.481
 4656TIP3    H213933   2.546   0.523   0.550
 4657TIP3   OH213934   5.050   3.132   4.281
 4657TIP3    H113935   4.959   3.127   4.310
 4657TIP3    H213936   5.100   3.148   4.362
 4658TIP3   OH213937   0.094   3.403   4.159
 4658TIP3    H113938   0.086   3.412   4.064
 4658TIP3    H213939   0.113   3.310   4.171
 4659TIP3   OH213940   2.821   4.731   3.429
 4659TIP3    H113941   2.827   4.696   3.340
 4659TIP3    H213942   2.740   4.694   3.464
 4660TIP3   OH213943   7.029   4.347   1.752
 4660TIP3    H113944   7.081   4.428   1.754
 4660TIP3    H213945   6.938   4.378   1.756
 4661TIP3   OH213946   5.398   2.612   2.843
 4661TIP3    H113947   5.440   2.637   2.926
 4661TIP3    H213948   5.381   2.519   2.852
 4662TIP3   OH213949   3.408   0.054   2.160
 4662TIP3    H113950   3.373   0.059   2.071
 4662TIP3    H213951   3.418  -0.040   2.176
 4663TIP3   OH213952   6.919   0.655   1.906
 4663TIP3    H113953   6.885   0.736   1.944
 4663TIP3    H213954   6.997   0.635   1.959
 4664TIP3   OH213955   3.973   3.232   2.267
 4664TIP3    H113956   4.021   3.178   2.329
 4664TIP3    H213957   3.889   3.188   2.255
 4665TIP3   OH213958   6.344   5.596   4.690
 4665TIP3    H113959   6.356   5.691   4.680
 4665TIP3    H213960   6.269   5.576   4.634
 4666TIP3   OH213961   4.396   5.830   2.436
 4666TIP3    H113962   4.375   5.883   2.359
 4666TIP3    H213963   4.455   5.885   2.488
 4667TIP3   OH213964   1.946   4.739   5.762
 4667TIP3    H113965   1.961   4.645   5.767
 4667TIP3    H213966   2.026   4.778   5.797
 4668TIP3   OH213967   3.495   0.970   1.185
 4668TIP3    H113968   3.500   0.890   1.237
 4668TIP3    H213969   3.536   1.037   1.240
 4669TIP3   OH213970   5.652   3.185   3.501
 4669TIP3    H113971   5.657   3.247   3.429
 4669TIP3    H213972   5.708   3.223   3.569
 4670TIP3   OH213973   5.177   2.113   0.602
 4670TIP3    H113974   5.188   2.058   0.679
 4670TIP3    H213975   5.186   2.053   0.528
 4671TIP3   OH213976   4.514   1.108   4.876
 4671TIP3    H113977   4.421   1.094   4.862
 4671TIP3    H213978   4.524   1.112   4.971
 4672TIP3   OH213979   6.812   1.611   4.222
 4672TIP3    H113980   6.841   1.683   4.279
 4672TIP3    H213981   6.893   1.570   4.192
 4673TIP3   OH213982   1.083   0.790   2.820
 4673TIP3    H113983   1.031   0.829   2.750
 4673TIP3    H213984   1.127   0.716   2.779
 4674TIP3   OH213985   6.126   2.856   1.299
 4674TIP3    H113986   6.111   2.938   1.347
 4674TIP3    H213987   6.040   2.813   1.299
 4675TIP3   OH213988   2.077   1.602   0.910
 4675TIP3    H113989   2.105   1.611   1.001
 4675TIP3    H213990   2.091   1.510   0.889
 4676TIP3   OH213991   1.494   5.701   0.967
 4676TIP3    H113992   1.399   5.692   0.971
 4676TIP3    H213993   1.514   5.773   1.027
 4677TIP3   OH213994   2.167   6.808   5.173
 4677TIP3    H113995   2.191   6.788   5.264
 4677TIP3    H213996   2.228   6.755   5.121
 4678TIP3   OH213997   7.042   6.055   5.078
 4678TIP3    H113998   7.112   6.100   5.030
 4678TIP3    H213999   6.981   6.125   5.101
 4679TIP3   OH214000   1.160   2.562   1.483
 4679TIP3    H114001   1.153   2.479   1.436
 4679TIP3    H214002   1.070   2.595   1.488
 4680TIP3   OH214003   4.741   6.413   2.599
 4680TIP3    H114004   4.645   6.404   2.600
 4680TIP3    H214005   4.772   6.328   2.631
 4681TIP3   OH214006   5.470   0.938   5.777
 4681TIP3    H114007   5.472   0.842   5.778
 4681TIP3    H214008   5.396   0.959   5.719
 4682TIP3   OH214009   6.409   3.151   2.485
 4682TIP3    H114010   6.341   3.091   2.518
 4682TIP3    H214011   6.462   3.097   2.427
 4683TIP3   OH214012   4.608   3.261   5.156
 4683TIP3    H114013   4.612   3.356   5.154
 4683TIP3    H214014   4.567   3.240   5.239
 4684TIP3   OH214015   7.036   5.905   3.607
 4684TIP3    H114016   7.026   5.933   3.698
 4684TIP3    H214017   7.063   5.984   3.560
 4685TIP3   OH214018   2.773   0.630   4.032
 4685TIP3    H114019   2.681   0.621   4.056
 4685TIP3    H214020   2.794   0.549   3.986
 4686TIP3   OH214021   2.597   5.716   2.151
 4686TIP3    H114022   2.692   5.718   2.162
 4686TIP3    H214023   2.571   5.808   2.148
 4687TIP3   OH214024   7.113   6.348   2.084
 4687TIP3    H114025   7.022   6.376   2.088
 4687TIP3    H214026   7.138   6.360   1.993
 4688TIP3   OH214027   2.683   2.673   5.517
 4688TIP3    H114028   2.707   2.582   5.500
 4688TIP3    H214029   2.661   2.674   5.611
 4689TIP3   OH214030   3.047   5.719   1.155
 4689TIP3    H114031   3.072   5.636   1.114
 4689TIP3    H214032   2.974   5.751   1.102
 4690TIP3   OH214033   6.058   5.267   1.534
 4690TIP3    H114034   6.142   5.264   1.578
 4690TIP3    H214035   6.002   5.209   1.585
 4691TIP3   OH214036   1.907   5.360   0.872
 4691TIP3    H114037   1.882   5.387   0.783
 4691TIP3    H214038   1.827   5.373   0.924
 4692TIP3   OH214039   2.783   5.105   0.965
 4692TIP3    H114040   2.703   5.104   1.018
 4692TIP3    H214041   2.852   5.076   1.025
 4693TIP3   OH214042   2.594   0.100   1.494
 4693TIP3    H114043   2.633   0.015   1.511
 4693TIP3    H214044   2.669   0.158   1.477
 4694TIP3   OH214045   6.654   5.885   4.988
 4694TIP3    H114046   6.675   5.881   4.895
 4694TIP3    H214047   6.731   5.848   5.032
 4695TIP3   OH214048   0.701   3.791   3.436
 4695TIP3    H114049   0.650   3.857   3.389
 4695TIP3    H214050   0.791   3.824   3.434
 4696TIP3   OH214051   5.540   4.741   0.335
 4696TIP3    H114052   5.502   4.676   0.394
 4696TIP3    H214053   5.629   4.756   0.368
 4697TIP3   OH214054   3.759   4.889   5.013
 4697TIP3    H114055   3.817   4.826   4.971
 4697TIP3    H214056   3.742   4.955   4.946
 4698TIP3   OH214057   2.688   4.701   4.688
 4698TIP3    H114058   2.728   4.735   4.767
 4698TIP3    H214059   2.653   4.616   4.714
 4699TIP3   OH214060   6.615   1.088   1.717
 4699TIP3    H114061   6.653   1.001   1.730
 4699TIP3    H214062   6.594   1.118   1.805
 4700TIP3   OH214063   4.350   2.619   0.593
 4700TIP3    H114064   4.341   2.631   0.687
 4700TIP3    H214065   4.343   2.524   0.580
 4701TIP3   OH214066   1.101   5.685   1.532
 4701TIP3    H114067   1.090   5.600   1.489
 4701TIP3    H214068   1.106   5.748   1.460
 4702TIP3   OH214069   3.919   0.716   1.362
 4702TIP3    H114070   3.973   0.787   1.394
 4702TIP3    H214071   3.948   0.639   1.411
 4703TIP3   OH214072   6.282   0.275   3.295
 4703TIP3    H114073   6.195   0.253   3.326
 4703TIP3    H214074   6.318   0.333   3.363
 4704TIP3   OH214075   2.399   2.045   1.846
 4704TIP3    H114076   2.420   2.044   1.939
 4704TIP3    H214077   2.458   1.981   1.807
 4705TIP3   OH214078   3.166   6.583   2.461
 4705TIP3    H114079   3.174   6.565   2.555
 4705TIP3    H214080   3.080   6.547   2.438
 4706TIP3   OH214081   1.735   3.864   5.024
 4706TIP3    H114082   1.691   3.944   4.996
 4706TIP3    H214083   1.796   3.893   5.093
 4707TIP3   OH214084   3.497   1.138   3.044
 4707TIP3    H114085   3.489   1.230   3.021
 4707TIP3    H214086   3.476   1.091   2.963
 4708TIP3   OH214087   5.836   3.901   0.529
 4708TIP3    H114088   5.832   3.829   0.592
 4708TIP3    H214089   5.827   3.980   0.582
 4709TIP3   OH214090   4.384   5.172   0.523
 4709TIP3    H114091   4.479   5.174   0.536
 4709TIP3    H214092   4.366   5.086   0.487
 4710TIP3   OH214093   0.773   2.898   1.413
 4710TIP3    H114094   0.693   2.951   1.417
 4710TIP3    H214095   0.781   2.872   1.322
 4711TIP3   OH214096   4.231   4.178   3.627
 4711TIP3    H114097   4.260   4.189   3.536
 4711TIP3    H214098   4.171   4.104   3.624
 4712TIP3   OH214099   3.111   4.425   3.414
 4712TIP3    H114100   3.143   4.356   3.356
 4712TIP3    H214101   3.028   4.391   3.448
 4713TIP3   OH214102   3.169   0.905   5.308
 4713TIP3    H114103   3.205   0.837   5.365
 4713TIP3    H214104   3.205   0.885   5.222
 4714TIP3   OH214105   0.197   4.243   4.656
 4714TIP3    H114106   0.243   4.159   4.646
 4714TIP3    H214107   0.104   4.220   4.647
 4715TIP3   OH214108   1.513   2.920   1.742
 4715TIP3    H114109   1.492   3.013   1.749
 4715TIP3    H214110   1.514   2.903   1.648
 4716TIP3   OH214111   4.187   5.877   4.519
 4716TIP3    H114112   4.270   5.900   4.560
 4716TIP3    H214113   4.210   5.834   4.437
 4717TIP3   OH214114   0.453   0.079   2.079
 4717TIP3    H114115   0.471   0.080   1.985
 4717TIP3    H214116   0.515   0.142   2.116
 4718TIP3   OH214117   4.893   6.270   5.266
 4718TIP3    H114118   4.934   6.237   5.186
 4718TIP3    H214119   4.809   6.225   5.271
 4719TIP3   OH214120   6.055   3.168   2.571
 4719TIP3    H114121   6.115   3.101   2.603
 4719TIP3    H214122   6.010   3.126   2.497
 4720TIP3   OH214123   7.118   4.817   1.089
 4720TIP3    H114124   7.101   4.734   1.044
 4720TIP3    H214125   7.177   4.865   1.030
 4721TIP3   OH214126   3.257   2.812   3.446
 4721TIP3    H114127   3.235   2.834   3.355
 4721TIP3    H214128   3.190   2.748   3.471
 4722TIP3   OH214129   1.811   1.341   0.780
 4722TIP3    H114130   1.748   1.400   0.740
 4722TIP3    H214131   1.758   1.271   0.818
 4723TIP3   OH214132   1.840   6.523   2.163
 4723TIP3    H114133   1.745   6.518   2.150
 4723TIP3    H214134   1.877   6.483   2.084
 4724TIP3   OH214135   4.260   2.472   4.988
 4724TIP3    H114136   4.321   2.542   5.011
 4724TIP3    H214137   4.275   2.457   4.895
 4725TIP3   OH214138   6.837   2.916   3.853
 4725TIP3    H114139   6.853   2.986   3.916
 4725TIP3    H214140   6.797   2.846   3.904
 4726TIP3   OH214141   0.304   1.043   3.801
 4726TIP3    H114142   0.231   1.001   3.845
 4726TIP3    H214143   0.277   1.050   3.710
 4727TIP3   OH214144   1.132   2.453   0.085
 4727TIP3    H114145   1.127   2.474  -0.009
 4727TIP3    H214146   1.065   2.509   0.125
 4728TIP3   OH214147   3.744   0.421   0.134
 4728TIP3    H114148   3.732   0.515   0.151
 4728TIP3    H214149   3.830   0.400   0.171
 4729TIP3   OH214150   4.325   0.261   2.981
 4729TIP3    H114151   4.381   0.333   3.010
 4729TIP3    H214152   4.375   0.182   3.001
 4730TIP3   OH214153   5.198   2.067   3.465
 4730TIP3    H114154   5.211   2.026   3.550
 4730TIP3    H214155   5.127   2.018   3.425
 4731TIP3   OH214156   6.565   0.501   1.958
 4731TIP3    H114157   6.609   0.555   2.025
 4731TIP3    H214158   6.598   0.536   1.875
 4732TIP3   OH214159   0.183   1.548   5.276
 4732TIP3    H114160   0.249   1.495   5.321
 4732TIP3    H214161   0.104   1.494   5.276
 4733TIP3   OH214162   4.044   0.079   1.899
 4733TIP3    H114163   4.061   0.048   1.810
 4733TIP3    H214164   4.118   0.045   1.950
 4734TIP3   OH214165   1.483   5.156   3.376
 4734TIP3    H114166   1.413   5.090   3.380
 4734TIP3    H214167   1.504   5.162   3.283
 4735TIP3   OH214168   1.591   5.198   0.799
 4735TIP3    H114169   1.640   5.212   0.718
 4735TIP3    H214170   1.542   5.279   0.813
 4736TIP3   OH214171   6.497   1.333   2.993
 4736TIP3    H114172   6.510   1.302   2.903
 4736TIP3    H214173   6.455   1.418   2.983
 4737TIP3   OH214174   0.116   6.479   4.197
 4737TIP3    H114175   0.024   6.505   4.191
 4737TIP3    H214176   0.161   6.558   4.229
 4738TIP3   OH214177   1.229   0.005   5.077
 4738TIP3    H114178   1.279  -0.016   5.156
 4738TIP3    H214179   1.175   0.080   5.103
 4739TIP3   OH214180   2.485   2.043   5.051
 4739TIP3    H114181   2.575   2.059   5.082
 4739TIP3    H214182   2.440   2.126   5.066
 4740TIP3   OH214183   1.044   1.171   3.319
 4740TIP3    H114184   0.954   1.190   3.343
 4740TIP3    H214185   1.082   1.256   3.296
 4741TIP3   OH214186   5.827   2.518   2.140
 4741TIP3    H114187   5.782   2.459   2.201
 4741TIP3    H214188   5.775   2.599   2.143
 4742TIP3   OH214189   4.217   4.404   4.152
 4742TIP3    H114190   4.279   4.341   4.189
 4742TIP3    H214191   4.261   4.438   4.073
 4743TIP3   OH214192   4.076   4.041   0.606
 4743TIP3    H114193   4.008   4.000   0.659
 4743TIP3    H214194   4.087   3.983   0.531
 4744TIP3   OH214195   4.002   2.202   2.498
 4744TIP3    H114196   4.064   2.273   2.515
 4744TIP3    H214197   3.919   2.246   2.479
 4745TIP3   OH214198   3.686   4.926   3.913
 4745TIP3    H114199   3.630   4.869   3.967
 4745TIP3    H214200   3.689   4.883   3.828
 4746TIP3   OH214201   6.868   2.802   0.623
 4746TIP3    H114202   6.872   2.713   0.656
 4746TIP3    H214203   6.810   2.798   0.547
 4747TIP3   OH214204   5.342   0.158   1.823
 4747TIP3    H114205   5.247   0.152   1.809
 4747TIP3    H214206   5.364   0.247   1.798
 4748TIP3   OH214207   0.932   1.516   1.111
 4748TIP3    H114208   0.884   1.590   1.073
 4748TIP3    H214209   1.005   1.501   1.051
 4749TIP3   OH214210   5.581   0.686   5.658
 4749TIP3    H114211   5.555   0.599   5.690
 4749TIP3    H214212   5.676   0.686   5.663
 4750TIP3   OH214213   2.644   5.309   1.595
 4750TIP3    H114214   2.606   5.332   1.680
 4750TIP3    H214215   2.587   5.351   1.531
 4751TIP3   OH214216   0.780   2.976   5.092
 4751TIP3    H114217   0.786   2.968   5.187
 4751TIP3    H214218   0.687   2.979   5.073
 4752TIP3   OH214219   2.042   1.840   1.828
 4752TIP3    H114220   2.057   1.796   1.911
 4752TIP3    H214221   2.031   1.932   1.851
 4753TIP3   OH214222   4.253   2.026   5.605
 4753TIP3    H114223   4.315   1.976   5.551
 4753TIP3    H214224   4.309   2.078   5.663
 4754TIP3   OH214225   7.076   0.179   4.134
 4754TIP3    H114226   7.057   0.132   4.052
 4754TIP3    H214227   6.998   0.167   4.188
 4755TIP3   OH214228   4.973   3.807   3.028
 4755TIP3    H114229   4.933   3.886   2.992
 4755TIP3    H214230   4.912   3.778   3.096
 4756TIP3   OH214231   1.497   2.303   1.781
 4756TIP3    H114232   1.404   2.309   1.761
 4756TIP3    H214233   1.528   2.394   1.774
 4757TIP3   OH214234   0.756   1.390   4.934
 4757TIP3    H114235   0.807   1.353   5.006
 4757TIP3    H214236   0.821   1.424   4.873
 4758TIP3   OH214237   0.541   3.856   4.976
 4758TIP3    H114238   0.505   3.796   4.910
 4758TIP3    H214239   0.466   3.881   5.030
 4759TIP3   OH214240   0.868   0.072   2.934
 4759TIP3    H114241   0.930   0.007   2.966
 4759TIP3    H214242   0.782   0.036   2.957
 4760TIP3   OH214243   3.408   2.413   5.264
 4760TIP3    H114244   3.418   2.380   5.174
 4760TIP3    H214245   3.347   2.352   5.305
 4761TIP3   OH214246   0.966   1.019   4.669
 4761TIP3    H114247   0.915   0.969   4.732
 4761TIP3    H214248   1.004   0.953   4.610
 4762TIP3   OH214249   4.508   0.434   0.464
 4762TIP3    H114250   4.503   0.445   0.559
 4762TIP3    H214251   4.419   0.447   0.433
 4763TIP3   OH214252   6.386   5.608   2.860
 4763TIP3    H114253   6.296   5.584   2.884
 4763TIP3    H214254   6.395   5.699   2.890
 4764TIP3   OH214255   0.807   4.376   3.229
 4764TIP3    H114256   0.759   4.344   3.152
 4764TIP3    H214257   0.898   4.357   3.210
 4765TIP3   OH214258   1.481   0.010   1.017
 4765TIP3    H114259   1.463   0.084   0.959
 4765TIP3    H214260   1.577   0.010   1.027
 4766TIP3   OH214261   7.035   2.748   1.628
 4766TIP3    H114262   6.967   2.766   1.563
 4766TIP3    H214263   7.114   2.736   1.577
 4767TIP3   OH214264   1.187   1.591   2.353
 4767TIP3    H114265   1.275   1.593   2.391
 4767TIP3    H214266   1.138   1.658   2.401
 4768TIP3   OH214267   6.833   0.389   3.601
 4768TIP3    H114268   6.863   0.448   3.670
 4768TIP3    H214269   6.824   0.304   3.645
 4769TIP3   OH214270   1.208   6.660   5.232
 4769TIP3    H114271   1.162   6.700   5.306
 4769TIP3    H214272   1.142   6.605   5.190
 4770TIP3   OH214273   1.825   3.623   4.920
 4770TIP3    H114274   1.809   3.711   4.954
 4770TIP3    H214275   1.868   3.637   4.836
 4771TIP3   OH214276   5.682   5.273   0.040
 4771TIP3    H114277   5.599   5.315   0.014
 4771TIP3    H214278   5.655   5.192   0.083
 4772TIP3   OH214279   2.708   5.292   3.819
 4772TIP3    H114280   2.791   5.334   3.841
 4772TIP3    H214281   2.723   5.199   3.835
 4773TIP3   OH214282   5.976   0.653   4.786
 4773TIP3    H114283   5.889   0.626   4.756
 4773TIP3    H214284   6.037   0.604   4.731
 4774TIP3   OH214285   1.038   2.433   3.664
 4774TIP3    H114286   1.006   2.505   3.610
 4774TIP3    H214287   0.958   2.388   3.692
 4775TIP3   OH214288   6.383   5.763   4.969
 4775TIP3    H114289   6.428   5.784   4.887
 4775TIP3    H214290   6.444   5.708   5.017
 4776TIP3   OH214291   6.486   5.920   1.280
 4776TIP3    H114292   6.419   5.881   1.336
 4776TIP3    H214293   6.537   5.845   1.249
 4777TIP3   OH214294   3.175   0.173   5.100
 4777TIP3    H114295   3.172   0.080   5.123
 4777TIP3    H214296   3.223   0.215   5.171
 4778TIP3   OH214297   6.796   1.241   5.063
 4778TIP3    H114298   6.738   1.165   5.054
 4778TIP3    H214299   6.876   1.206   5.101
 4779TIP3   OH214300   2.956   0.258   4.216
 4779TIP3    H114301   3.030   0.318   4.206
 4779TIP3    H214302   2.885   0.313   4.248
 4780TIP3   OH214303   3.669   5.340   3.051
 4780TIP3    H114304   3.595   5.388   3.014
 4780TIP3    H214305   3.746   5.389   3.022
 4781TIP3   OH214306   0.182   4.172   0.724
 4781TIP3    H114307   0.093   4.204   0.712
 4781TIP3    H214308   0.226   4.189   0.641
 4782TIP3   OH214309   1.300   1.024   3.493
 4782TIP3    H114310   1.250   0.995   3.417
 4782TIP3    H214311   1.378   0.967   3.493
 4783TIP3   OH214312   7.100   1.472   0.393
 4783TIP3    H114313   7.188   1.435   0.394
 4783TIP3    H214314   7.058   1.432   0.316
 4784TIP3   OH214315   1.417   2.537   3.161
 4784TIP3    H114316   1.399   2.463   3.218
 4784TIP3    H214317   1.386   2.508   3.075
 4785TIP3   OH214318   0.062   0.457   3.228
 4785TIP3    H114319  -0.013   0.508   3.196
 4785TIP3    H214320   0.033   0.423   3.312
 4786TIP3   OH214321   1.148   2.366   3.937
 4786TIP3    H114322   1.089   2.412   3.996
 4786TIP3    H214323   1.118   2.391   3.850
 4787TIP3   OH214324   7.054   2.995   1.769
 4787TIP3    H114325   7.044   2.924   1.706
 4787TIP3    H214326   7.017   2.961   1.850
 4788TIP3   OH214327   5.865   1.583   1.017
 4788TIP3    H114328   5.860   1.590   0.921
 4788TIP3    H214329   5.789   1.632   1.048
 4789TIP3   OH214330   6.637   4.746   4.310
 4789TIP3    H114331   6.584   4.825   4.293
 4789TIP3    H214332   6.661   4.714   4.223
 4790TIP3   OH214333   5.262   4.269   2.970
 4790TIP3    H114334   5.176   4.243   3.003
 4790TIP3    H214335   5.267   4.231   2.883
 4791TIP3   OH214336   2.445   2.114   2.374
 4791TIP3    H114337   2.378   2.133   2.440
 4791TIP3    H214338   2.520   2.167   2.399
 4792TIP3   OH214339   7.081   6.031   3.211
 4792TIP3    H114340   7.080   5.936   3.195
 4792TIP3    H214341   7.068   6.039   3.305
 4793TIP3   OH214342   5.477   0.140   4.702
 4793TIP3    H114343   5.408   0.089   4.660
 4793TIP3    H214344   5.525   0.179   4.629
 4794TIP3   OH214345   3.110   2.238   1.854
 4794TIP3    H114346   3.059   2.158   1.870
 4794TIP3    H214347   3.057   2.308   1.891
 4795TIP3   OH214348   0.036   5.823   4.880
 4795TIP3    H114349  -0.013   5.897   4.843
 4795TIP3    H214350   0.004   5.747   4.832
 4796TIP3   OH214351   2.704   6.058   5.244
 4796TIP3    H114352   2.660   5.994   5.300
 4796TIP3    H214353   2.793   6.062   5.279
 4797TIP3   OH214354   5.996   2.447   0.568
 4797TIP3    H114355   5.937   2.433   0.494
 4797TIP3    H214356   6.084   2.446   0.529
 4798TIP3   OH214357   1.634   0.031   3.444
 4798TIP3    H114358   1.611  -0.060   3.427
 4798TIP3    H214359   1.725   0.039   3.415
 4799TIP3   OH214360   1.943   1.738   2.998
 4799TIP3    H114361   1.980   1.793   2.930
 4799TIP3    H214362   1.967   1.781   3.080
 4800TIP3   OH214363   7.100   5.319   5.221
 4800TIP3    H114364   7.083   5.243   5.165
 4800TIP3    H214365   7.029   5.318   5.285
 4801TIP3   OH214366   0.997   2.864   3.453
 4801TIP3    H114367   1.041   2.823   3.378
 4801TIP3    H214368   1.066   2.914   3.496
 4802TIP3   OH214369   2.442   6.761   4.088
 4802TIP3    H114370   2.408   6.848   4.066
 4802TIP3    H214371   2.397   6.702   4.027
 4803TIP3   OH214372   1.620   6.453   0.379
 4803TIP3    H114373   1.617   6.531   0.325
 4803TIP3    H214374   1.580   6.479   0.462
 4804TIP3   OH214375   6.704   2.432   3.917
 4804TIP3    H114376   6.757   2.438   3.838
 4804TIP3    H214377   6.746   2.362   3.968
 4805TIP3   OH214378   4.339   4.733   0.663
 4805TIP3    H114379   4.410   4.773   0.613
 4805TIP3    H214380   4.300   4.806   0.712
 4806TIP3   OH214381   3.771   5.705   4.096
 4806TIP3    H114382   3.700   5.643   4.077
 4806TIP3    H214383   3.727   5.790   4.102
 4807TIP3   OH214384   3.491   4.732   1.941
 4807TIP3    H114385   3.447   4.678   1.874
 4807TIP3    H214386   3.421   4.754   2.003
 4808TIP3   OH214387   1.163   6.588   4.919
 4808TIP3    H114388   1.109   6.540   4.982
 4808TIP3    H214389   1.222   6.522   4.882
 4809TIP3   OH214390   4.531   1.609   2.598
 4809TIP3    H114391   4.541   1.672   2.670
 4809TIP3    H214392   4.593   1.640   2.532
 4810TIP3   OH214393   6.627   0.593   1.056
 4810TIP3    H114394   6.646   0.500   1.051
 4810TIP3    H214395   6.666   0.621   1.139
 4811TIP3   OH214396   1.159   3.990   2.587
 4811TIP3    H114397   1.069   3.966   2.567
 4811TIP3    H214398   1.183   3.933   2.660
 4812TIP3   OH214399   6.868   4.988   1.098
 4812TIP3    H114400   6.817   5.057   1.142
 4812TIP3    H214401   6.958   5.003   1.125
 4813TIP3   OH214402   5.911   3.525   4.435
 4813TIP3    H114403   5.845   3.468   4.475
 4813TIP3    H214404   5.871   3.612   4.438
 4814TIP3   OH214405   5.425   1.773   0.917
 4814TIP3    H114406   5.337   1.807   0.935
 4814TIP3    H214407   5.452   1.817   0.836
 4815TIP3   OH214408   6.504   4.537   4.093
 4815TIP3    H114409   6.525   4.459   4.145
 4815TIP3    H214410   6.511   4.508   4.002
 4816TIP3   OH214411   1.782   5.670   3.515
 4816TIP3    H114412   1.723   5.668   3.591
 4816TIP3    H214413   1.733   5.625   3.446
 4817TIP3   OH214414   1.250   2.406   0.488
 4817TIP3    H114415   1.306   2.395   0.565
 4817TIP3    H214416   1.240   2.501   0.479
 4818TIP3   OH214417   1.125   5.057   4.719
 4818TIP3    H114418   1.206   5.076   4.671
 4818TIP3    H214419   1.136   4.966   4.747
 4819TIP3   OH214420   1.779   5.111   2.276
 4819TIP3    H114421   1.795   5.063   2.357
 4819TIP3    H214422   1.684   5.112   2.267
 4820TIP3   OH214423   2.310   5.642   3.351
 4820TIP3    H114424   2.371   5.713   3.370
 4820TIP3    H214425   2.335   5.572   3.411
 4821TIP3   OH214426   5.088   1.816   2.872
 4821TIP3    H114427   5.044   1.886   2.921
 4821TIP3    H214428   5.133   1.765   2.940
 4822TIP3   OH214429   6.735   1.109   2.677
 4822TIP3    H114430   6.658   1.073   2.633
 4822TIP3    H214431   6.740   1.061   2.760
 4823TIP3   OH214432   6.630   0.593   5.586
 4823TIP3    H114433   6.646   0.686   5.569
 4823TIP3    H214434   6.687   0.547   5.524
 4824TIP3   OH214435   1.939   5.979   4.048
 4824TIP3    H114436   1.948   5.972   3.953
 4824TIP3    H214437   1.938   6.074   4.065
 4825TIP3   OH214438   4.643   6.180   4.153
 4825TIP3    H114439   4.561   6.228   4.161
 4825TIP3    H214440   4.617   6.092   4.124
 4826TIP3   OH214441   2.381   2.239   3.790
 4826TIP3    H114442   2.364   2.252   3.697
 4826TIP3    H214443   2.372   2.326   3.829
 4827TIP3   OH214444   4.263   4.645   2.299
 4827TIP3    H114445   4.245   4.612   2.211
 4827TIP3    H214446   4.180   4.684   2.328
 4828TIP3   OH214447   2.690   3.732   2.538
 4828TIP3    H114448   2.694   3.657   2.478
 4828TIP3    H214449   2.781   3.752   2.558
 4829TIP3   OH214450   7.185   5.456   0.442
 4829TIP3    H114451   7.157   5.502   0.522
 4829TIP3    H214452   7.134   5.498   0.372
 4830TIP3   OH214453   7.142   6.681   3.208
 4830TIP3    H114454   7.181   6.748   3.264
 4830TIP3    H214455   7.102   6.619   3.268
 4831TIP3   OH214456   4.130   2.461   3.402
 4831TIP3    H114457   4.106   2.553   3.399
 4831TIP3    H214458   4.126   2.439   3.495
 4832TIP3   OH214459   4.467   2.272   0.549
 4832TIP3    H114460   4.551   2.239   0.579
 4832TIP3    H214461   4.415   2.281   0.628
 4833TIP3   OH214462   4.963   4.768   0.511
 4833TIP3    H114463   4.887   4.771   0.569
 4833TIP3    H214464   4.943   4.829   0.440
 4834TIP3   OH214465   0.871   4.919   3.570
 4834TIP3    H114466   0.798   4.870   3.533
 4834TIP3    H214467   0.831   4.988   3.622
 4835TIP3   OH214468   3.689   5.369   2.555
 4835TIP3    H114469   3.783   5.358   2.567
 4835TIP3    H214470   3.663   5.295   2.500
 4836TIP3   OH214471   0.345   3.674   3.341
 4836TIP3    H114472   0.371   3.695   3.431
 4836TIP3    H214473   0.377   3.748   3.289
 4837TIP3   OH214474   5.256   2.182   4.591
 4837TIP3    H114475   5.197   2.219   4.525
 4837TIP3    H214476   5.210   2.105   4.622
 4838TIP3   OH214477   1.380   4.415   0.167
 4838TIP3    H114478   1.332   4.356   0.109
 4838TIP3    H214479   1.355   4.502   0.138
 4839TIP3   OH214480   4.888   5.927   3.225
 4839TIP3    H114481   4.869   6.018   3.248
 4839TIP3    H214482   4.842   5.876   3.292
 4840TIP3   OH214483   2.050   2.077   1.263
 4840TIP3    H114484   2.025   2.028   1.341
 4840TIP3    H214485   1.967   2.094   1.217
 4841TIP3   OH214486   4.991   1.212   1.838
 4841TIP3    H114487   4.910   1.206   1.787
 4841TIP3    H214488   4.989   1.137   1.897
 4842TIP3   OH214489   3.655   3.370   0.788
 4842TIP3    H114490   3.733   3.356   0.734
 4842TIP3    H214491   3.677   3.328   0.872
 4843TIP3   OH214492   4.235   0.071   2.601
 4843TIP3    H114493   4.316   0.051   2.555
 4843TIP3    H214494   4.221  -0.002   2.661
 4844TIP3   OH214495   2.246   5.998   2.342
 4844TIP3    H114496   2.210   5.921   2.299
 4844TIP3    H214497   2.325   6.019   2.292
 4845TIP3   OH214498   1.936   6.394   2.637
 4845TIP3    H114499   1.926   6.425   2.547
 4845TIP3    H214500   2.019   6.347   2.637
 4846TIP3   OH214501   0.529   5.300   1.947
 4846TIP3    H114502   0.444   5.316   1.906
 4846TIP3    H214503   0.525   5.347   2.031
 4847TIP3   OH214504   2.237   0.370   2.003
 4847TIP3    H114505   2.239   0.435   1.933
 4847TIP3    H214506   2.328   0.342   2.013
 4848TIP3   OH214507   5.692   1.879   0.521
 4848TIP3    H114508   5.778   1.853   0.488
 4848TIP3    H214509   5.663   1.948   0.461
 4849TIP3   OH214510   1.289   4.332   2.832
 4849TIP3    H114511   1.310   4.403   2.771
 4849TIP3    H214512   1.198   4.349   2.857
 4850TIP3   OH214513   5.135   3.311   0.593
 4850TIP3    H114514   5.226   3.322   0.565
 4850TIP3    H214515   5.115   3.220   0.576
 4851TIP3   OH214516   1.176   3.384   5.748
 4851TIP3    H114517   1.232   3.337   5.686
 4851TIP3    H214518   1.234   3.448   5.790
 4852TIP3   OH214519   0.736   6.476   5.364
 4852TIP3    H114520   0.686   6.409   5.319
 4852TIP3    H214521   0.816   6.431   5.393
 4853TIP3   OH214522   6.002   6.461   4.907
 4853TIP3    H114523   6.063   6.530   4.884
 4853TIP3    H214524   6.057   6.386   4.929
 4854TIP3   OH214525   2.334   6.508   0.718
 4854TIP3    H114526   2.419   6.537   0.686
 4854TIP3    H214527   2.286   6.482   0.639
 4855TIP3   OH214528   5.958   0.241   0.402
 4855TIP3    H114529   5.979   0.306   0.470
 4855TIP3    H214530   5.911   0.291   0.336
 4856TIP3   OH214531   4.054   4.360   0.032
 4856TIP3    H114532   4.141   4.397   0.023
 4856TIP3    H214533   4.068   4.266   0.038
 4857TIP3   OH214534   3.084   3.581   1.930
 4857TIP3    H114535   3.117   3.669   1.910
 4857TIP3    H214536   3.026   3.561   1.857
 4858TIP3   OH214537   3.616   4.452   4.602
 4858TIP3    H114538   3.696   4.406   4.625
 4858TIP3    H214539   3.555   4.434   4.674
 4859TIP3   OH214540   1.400   2.111   0.132
 4859TIP3    H114541   1.399   2.206   0.123
 4859TIP3    H214542   1.467   2.082   0.070
 4860TIP3   OH214543   1.222   6.007   4.864
 4860TIP3    H114544   1.149   6.068   4.867
 4860TIP3    H214545   1.263   6.014   4.950
 4861TIP3   OH214546   4.970   3.843   2.439
 4861TIP3    H114547   5.029   3.792   2.494
 4861TIP3    H214548   4.961   3.792   2.359
 4862TIP3   OH214549   5.329   4.141   2.715
 4862TIP3    H114550   5.423   4.126   2.725
 4862TIP3    H214551   5.323   4.207   2.646
 4863TIP3   OH214552   6.586   0.362   4.637
 4863TIP3    H114553   6.647   0.351   4.564
 4863TIP3    H214554   6.588   0.277   4.682
 4864TIP3   OH214555   1.514   0.491   4.234
 4864TIP3    H114556   1.515   0.508   4.328
 4864TIP3    H214557   1.566   0.411   4.223
 4865TIP3   OH214558   6.533   2.833   2.889
 4865TIP3    H114559   6.542   2.758   2.830
 4865TIP3    H214560   6.494   2.902   2.835
 4866TIP3   OH214561   2.838   2.780   0.657
 4866TIP3    H114562   2.777   2.845   0.620
 4866TIP3    H214563   2.788   2.738   0.727
 4867TIP3   OH214564   1.501   2.289   4.761
 4867TIP3    H114565   1.588   2.295   4.721
 4867TIP3    H214566   1.448   2.352   4.714
 4868TIP3   OH214567   5.229   2.858   0.380
 4868TIP3    H114568   5.283   2.788   0.342
 4868TIP3    H214569   5.146   2.815   0.401
 4869TIP3   OH214570   5.170   2.891   1.898
 4869TIP3    H114571   5.127   2.907   1.982
 4869TIP3    H214572   5.131   2.954   1.838
 4870TIP3   OH214573   6.106   5.353   0.207
 4870TIP3    H114574   6.140   5.347   0.296
 4870TIP3    H214575   6.101   5.262   0.177
 4871TIP3   OH214576   3.425   1.386   2.078
 4871TIP3    H114577   3.419   1.301   2.122
 4871TIP3    H214578   3.400   1.449   2.145
 4872TIP3   OH214579   5.100   0.296   2.272
 4872TIP3    H114580   5.140   0.209   2.269
 4872TIP3    H214581   5.123   0.335   2.187
 4873TIP3   OH214582   3.506   3.980   2.930
 4873TIP3    H114583   3.416   4.012   2.937
 4873TIP3    H214584   3.498   3.885   2.923
 4874TIP3   OH214585   4.385   1.595   0.925
 4874TIP3    H114586   4.317   1.572   0.861
 4874TIP3    H214587   4.420   1.511   0.953
 4875TIP3   OH214588   6.633   6.110   0.335
 4875TIP3    H114589   6.591   6.050   0.273
 4875TIP3    H214590   6.727   6.099   0.319
 4876TIP3   OH214591   6.802   6.358   1.552
 4876TIP3    H114592   6.863   6.393   1.617
 4876TIP3    H214593   6.724   6.412   1.561
 4877TIP3   OH214594   1.899   0.925   4.352
 4877TIP3    H114595   1.831   0.863   4.325
 4877TIP3    H214596   1.863   1.011   4.332
 4878TIP3   OH214597   5.564   5.349   3.325
 4878TIP3    H114598   5.564   5.444   3.311
 4878TIP3    H214599   5.584   5.338   3.418
 4879TIP3   OH214600   0.249   5.207  -0.002
 4879TIP3    H114601   0.289   5.169   0.076
 4879TIP3    H214602   0.310   5.276  -0.029
 4880TIP3   OH214603   2.372   5.464   3.595
 4880TIP3    H114604   2.335   5.523   3.660
 4880TIP3    H214605   2.365   5.377   3.634
 4881TIP3   OH214606   5.053   5.510   0.257
 4881TIP3    H114607   5.038   5.556   0.174
 4881TIP3    H214608   5.048   5.417   0.234
 4882TIP3   OH214609   4.343   5.451   4.187
 4882TIP3    H114610   4.247   5.457   4.188
 4882TIP3    H214611   4.361   5.383   4.122
 4883TIP3   OH214612   6.128   4.496   4.152
 4883TIP3    H114613   6.082   4.523   4.073
 4883TIP3    H214614   6.175   4.574   4.181
 4884TIP3   OH214615   0.622   0.804   1.881
 4884TIP3    H114616   0.559   0.868   1.848
 4884TIP3    H214617   0.637   0.829   1.972
 4885TIP3   OH214618   2.189   5.986   4.549
 4885TIP3    H114619   2.095   5.997   4.536
 4885TIP3    H214620   2.206   6.027   4.634
 4886TIP3   OH214621   1.385   2.851   3.031
 4886TIP3    H114622   1.463   2.813   3.071
 4886TIP3    H214623   1.322   2.778   3.028
 4887TIP3   OH214624   7.107   3.464   2.925
 4887TIP3    H114625   7.071   3.432   2.842
 4887TIP3    H214626   7.106   3.387   2.983
 4888TIP3   OH214627   5.105   4.483   3.306
 4888TIP3    H114628   5.136   4.571   3.284
 4888TIP3    H214629   5.166   4.425   3.259
 4889TIP3   OH214630   2.895   4.685   4.906
 4889TIP3    H114631   2.923   4.609   4.856
 4889TIP3    H214632   2.954   4.756   4.880
 4890TIP3   OH214633   7.213   1.758   1.202
 4890TIP3    H114634   7.231   1.740   1.294
 4890TIP3    H214635   7.118   1.770   1.198
 4891TIP3   OH214636   3.386   3.326   3.737
 4891TIP3    H114637   3.314   3.388   3.740
 4891TIP3    H214638   3.361   3.263   3.668
 4892TIP3   OH214639   1.313   5.551   2.723
 4892TIP3    H114640   1.408   5.558   2.713
 4892TIP3    H214641   1.279   5.631   2.684
 4893TIP3   OH214642   1.601   2.634   4.727
 4893TIP3    H114643   1.618   2.617   4.634
 4893TIP3    H214644   1.533   2.571   4.751
 4894TIP3   OH214645   3.323   4.828   3.532
 4894TIP3    H114646   3.231   4.835   3.509
 4894TIP3    H214647   3.325   4.766   3.605
 4895TIP3   OH214648   1.591   0.065   4.759
 4895TIP3    H114649   1.570   0.139   4.816
 4895TIP3    H214650   1.657   0.016   4.808
 4896TIP3   OH214651   2.371   1.406   4.222
 4896TIP3    H114652   2.400   1.429   4.134
 4896TIP3    H214653   2.389   1.312   4.229
 4897TIP3   OH214654   2.698   4.589   1.398
 4897TIP3    H114655   2.719   4.677   1.367
 4897TIP3    H214656   2.636   4.603   1.470
 4898TIP3   OH214657   6.209   0.499   0.638
 4898TIP3    H114658   6.228   0.590   0.659
 4898TIP3    H214659   6.116   0.488   0.658
 4899TIP3   OH214660   3.199   3.740   5.022
 4899TIP3    H114661   3.120   3.687   5.008
 4899TIP3    H214662   3.185   3.781   5.107
 4900TIP3   OH214663   3.746   4.197   4.590
 4900TIP3    H114664   3.690   4.120   4.585
 4900TIP3    H214665   3.831   4.162   4.620
 4901TIP3   OH214666   4.510   5.571   0.679
 4901TIP3    H114667   4.527   5.478   0.693
 4901TIP3    H214668   4.470   5.601   0.760
 4902TIP3   OH214669   5.907   4.460   3.033
 4902TIP3    H114670   5.969   4.400   2.992
 4902TIP3    H214671   5.823   4.415   3.029
 4903TIP3   OH214672   2.782   0.765   4.381
 4903TIP3    H114673   2.826   0.785   4.463
 4903TIP3    H214674   2.852   0.760   4.316
 4904TIP3   OH214675   2.142   4.888   5.858
 4904TIP3    H114676   2.130   4.915   5.767
 4904TIP3    H214677   2.159   4.969   5.906
 4905TIP3   OH214678   1.277   6.690   3.914
 4905TIP3    H114679   1.368   6.714   3.900
 4905TIP3    H214680   1.280   6.599   3.942
 4906TIP3   OH214681   1.982   4.130   4.744
 4906TIP3    H114682   1.929   4.209   4.755
 4906TIP3    H214683   1.950   4.091   4.663
 4907TIP3   OH214684   5.006   5.294   2.024
 4907TIP3    H114685   5.057   5.255   1.954
 4907TIP3    H214686   4.917   5.298   1.989
 4908TIP3   OH214687   5.966   5.982   3.393
 4908TIP3    H114688   5.892   5.966   3.451
 4908TIP3    H214689   6.042   5.945   3.439
 4909TIP3   OH214690   0.479   4.121   1.766
 4909TIP3    H114691   0.514   4.148   1.681
 4909TIP3    H214692   0.439   4.036   1.749
 4910TIP3   OH214693   7.224   2.139   5.317
 4910TIP3    H114694   7.142   2.112   5.276
 4910TIP3    H214695   7.199   2.165   5.405
 4911TIP3   OH214696   6.802   3.151   3.982
 4911TIP3    H114697   6.799   3.235   3.937
 4911TIP3    H214698   6.790   3.172   4.075
 4912TIP3   OH214699   5.594   6.480   4.081
 4912TIP3    H114700   5.638   6.409   4.128
 4912TIP3    H214701   5.644   6.559   4.105
 4913TIP3   OH214702   3.956   1.397   0.191
 4913TIP3    H114703   4.046   1.416   0.163
 4913TIP3    H214704   3.905   1.472   0.162
 4914TIP3   OH214705   6.080   3.774   0.499
 4914TIP3    H114706   6.003   3.830   0.499
 4914TIP3    H214707   6.086   3.740   0.410
 4915TIP3   OH214708   7.149   3.630   0.151
 4915TIP3    H114709   7.179   3.647   0.062
 4915TIP3    H214710   7.229   3.631   0.204
 4916TIP3   OH214711   5.759   4.080   3.716
 4916TIP3    H114712   5.726   4.169   3.722
 4916TIP3    H214713   5.836   4.086   3.660
 4917TIP3   OH214714   0.915   1.558   5.565
 4917TIP3    H114715   0.935   1.587   5.475
 4917TIP3    H214716   0.831   1.599   5.585
 4918TIP3   OH214717   5.477   4.935   1.575
 4918TIP3    H114718   5.403   4.988   1.543
 4918TIP3    H214719   5.533   4.998   1.620
 4919TIP3   OH214720   3.870   2.307   0.937
 4919TIP3    H114721   3.931   2.372   0.902
 4919TIP3    H214722   3.920   2.259   1.003
 4920TIP3   OH214723   3.048   4.075   4.582
 4920TIP3    H114724   3.070   4.169   4.579
 4920TIP3    H214725   3.016   4.061   4.671
 4921TIP3   OH214726   0.331   1.709   1.296
 4921TIP3    H114727   0.290   1.765   1.362
 4921TIP3    H214728   0.345   1.767   1.221
 4922TIP3   OH214729   0.402   3.482   5.444
 4922TIP3    H114730   0.482   3.508   5.399
 4922TIP3    H214731   0.402   3.535   5.524
 4923TIP3   OH214732   2.156   1.869   0.834
 4923TIP3    H114733   2.132   1.779   0.858
 4923TIP3    H214734   2.251   1.872   0.846
 4924TIP3   OH214735   0.632   0.809   5.359
 4924TIP3    H114736   0.641   0.756   5.439
 4924TIP3    H214737   0.544   0.846   5.364
 4925TIP3   OH214738   1.492   2.987   5.327
 4925TIP3    H114739   1.538   3.063   5.362
 4925TIP3    H214740   1.560   2.922   5.312
 4926TIP3   OH214741   7.107   1.997   5.902
 4926TIP3    H114742   7.019   1.960   5.888
 4926TIP3    H214743   7.145   2.002   5.814
 4927TIP3   OH214744   5.394   0.555   2.741
 4927TIP3    H114745   5.359   0.580   2.656
 4927TIP3    H214746   5.475   0.506   2.721
 4928TIP3   OH214747   3.996   1.442   3.634
 4928TIP3    H114748   3.949   1.511   3.586
 4928TIP3    H214749   3.943   1.426   3.712
 4929TIP3   OH214750   0.423   3.412   0.109
 4929TIP3    H114751   0.374   3.441   0.032
 4929TIP3    H214752   0.470   3.490   0.138
 4930TIP3   OH214753   6.812   0.136   4.248
 4930TIP3    H114754   6.718   0.146   4.233
 4930TIP3    H214755   6.835   0.208   4.306
 4931TIP3   OH214756   5.687   3.388   3.320
 4931TIP3    H114757   5.719   3.321   3.260
 4931TIP3    H214758   5.671   3.464   3.264
 4932TIP3   OH214759   0.267   4.293   3.002
 4932TIP3    H114760   0.219   4.271   2.922
 4932TIP3    H214761   0.311   4.375   2.982
 4933TIP3   OH214762   3.297   5.951   4.657
 4933TIP3    H114763   3.294   6.024   4.718
 4933TIP3    H214764   3.258   5.985   4.576
 4934TIP3   OH214765   1.029   3.311   3.363
 4934TIP3    H114766   0.952   3.339   3.315
 4934TIP3    H214767   0.995   3.280   3.447
 4935TIP3   OH214768   4.470   0.696   4.664
 4935TIP3    H114769   4.456   0.789   4.648
 4935TIP3    H214770   4.388   0.654   4.638
 4936TIP3   OH214771   1.968   6.278   3.047
 4936TIP3    H114772   2.025   6.224   3.102
 4936TIP3    H214773   1.940   6.221   2.977
 4937TIP3   OH214774   2.577   4.613   2.858
 4937TIP3    H114775   2.599   4.521   2.873
 4937TIP3    H214776   2.518   4.635   2.930
 4938TIP3   OH214777   0.856   0.269   1.010
 4938TIP3    H114778   0.785   0.279   1.074
 4938TIP3    H214779   0.812   0.241   0.930
 4939TIP3   OH214780   0.851   4.314   0.731
 4939TIP3    H114781   0.818   4.402   0.715
 4939TIP3    H214782   0.825   4.295   0.821
 4940TIP3   OH214783   5.780   5.217   2.292
 4940TIP3    H114784   5.717   5.279   2.256
 4940TIP3    H214785   5.730   5.137   2.307
 4941TIP3   OH214786   1.895   2.744   2.637
 4941TIP3    H114787   1.849   2.822   2.667
 4941TIP3    H214788   1.838   2.706   2.570
 4942TIP3   OH214789   4.835   2.293   4.581
 4942TIP3    H114790   4.831   2.268   4.673
 4942TIP3    H214791   4.799   2.382   4.579
 4943TIP3   OH214792   3.277   1.117   1.074
 4943TIP3    H114793   3.312   1.203   1.099
 4943TIP3    H214794   3.339   1.054   1.112
 4944TIP3   OH214795   1.361   2.373   0.232
 4944TIP3    H114796   1.308   2.369   0.312
 4944TIP3    H214797   1.307   2.422   0.170
 4945TIP3   OH214798   2.193   1.295   4.480
 4945TIP3    H114799   2.283   1.306   4.509
 4945TIP3    H214800   2.165   1.212   4.519
 4946TIP3   OH214801   1.292   0.096   3.756
 4946TIP3    H114802   1.231   0.091   3.682
 4946TIP3    H214803   1.334   0.181   3.747
 4947TIP3   OH214804   4.348   0.944   4.522
 4947TIP3    H114805   4.353   1.015   4.458
 4947TIP3    H214806   4.256   0.942   4.549
 4948TIP3   OH214807   0.114   0.900   2.470
 4948TIP3    H114808   0.065   0.944   2.539
 4948TIP3    H214809   0.109   0.807   2.491
 4949TIP3   OH214810   4.983   2.989   3.595
 4949TIP3    H114811   4.889   3.009   3.594
 4949TIP3    H214812   4.999   2.954   3.683
 4950TIP3   OH214813   3.287   0.625   3.630
 4950TIP3    H114814   3.247   0.602   3.714
 4950TIP3    H214815   3.379   0.640   3.651
 4951TIP3   OH214816   0.106   5.257   1.261
 4951TIP3    H114817   0.092   5.294   1.348
 4951TIP3    H214818   0.049   5.308   1.204
 4952TIP3   OH214819   6.205   3.377   5.355
 4952TIP3    H114820   6.137   3.309   5.357
 4952TIP3    H214821   6.188   3.426   5.274
 4953TIP3   OH214822   7.152   0.370   0.792
 4953TIP3    H114823   7.243   0.394   0.774
 4953TIP3    H214824   7.105   0.391   0.711
 4954TIP3   OH214825   5.422   6.251   3.155
 4954TIP3    H114826   5.349   6.282   3.102
 4954TIP3    H214827   5.446   6.167   3.117
 4955TIP3   OH214828   0.990   3.249   2.823
 4955TIP3    H114829   1.015   3.308   2.894
 4955TIP3    H214830   0.900   3.223   2.845
 4956TIP3   OH214831   2.964   1.246   2.266
 4956TIP3    H114832   2.903   1.301   2.315
 4956TIP3    H214833   3.037   1.232   2.326
 4957TIP3   OH214834   1.011   1.500   0.416
 4957TIP3    H114835   1.074   1.558   0.373
 4957TIP3    H214836   0.988   1.545   0.497
 4958TIP3   OH214837   4.832   3.192   4.561
 4958TIP3    H114838   4.835   3.281   4.598
 4958TIP3    H214839   4.806   3.205   4.470
 4959TIP3   OH214840   4.508   0.277   5.674
 4959TIP3    H114841   4.549   0.322   5.748
 4959TIP3    H214842   4.504   0.185   5.700
 4960TIP3   OH214843   3.245   4.845   3.189
 4960TIP3    H114844   3.330   4.840   3.234
 4960TIP3    H214845   3.205   4.759   3.203
 4961TIP3   OH214846   3.487   5.573   4.054
 4961TIP3    H114847   3.444   5.659   4.044
 4961TIP3    H214848   3.487   5.559   4.149
 4962TIP3   OH214849   4.622   0.496   1.424
 4962TIP3    H114850   4.606   0.588   1.404
 4962TIP3    H214851   4.601   0.450   1.342
 4963TIP3   OH214852   5.501   5.899   0.634
 4963TIP3    H114853   5.532   5.808   0.639
 4963TIP3    H214854   5.581   5.952   0.642
 4964TIP3   OH214855   0.991   5.108   2.990
 4964TIP3    H114856   1.078   5.133   2.959
 4964TIP3    H214857   0.995   5.122   3.085
 4965TIP3   OH214858   2.908   4.446   2.607
 4965TIP3    H114859   2.983   4.471   2.661
 4965TIP3    H214860   2.946   4.403   2.531
 4966TIP3   OH214861   0.489   4.688   1.086
 4966TIP3    H114862   0.512   4.736   1.166
 4966TIP3    H214863   0.564   4.630   1.072
 4967TIP3   OH214864   4.461   2.481   1.370
 4967TIP3    H114865   4.474   2.452   1.280
 4967TIP3    H214866   4.530   2.546   1.384
 4968TIP3   OH214867   3.895   4.178   4.065
 4968TIP3    H114868   3.845   4.148   4.141
 4968TIP3    H214869   3.915   4.098   4.016
 4969TIP3   OH214870   6.313   5.720   1.399
 4969TIP3    H114871   6.291   5.688   1.312
 4969TIP3    H214872   6.392   5.672   1.424
 4970TIP3   OH214873   2.259   4.114   3.105
 4970TIP3    H114874   2.256   4.023   3.076
 4970TIP3    H214875   2.315   4.157   3.040
 4971TIP3   OH214876   1.476   0.881   2.317
 4971TIP3    H114877   1.472   0.833   2.234
 4971TIP3    H214878   1.553   0.847   2.361
 4972TIP3   OH214879   3.084   5.960   0.752
 4972TIP3    H114880   3.028   6.032   0.780
 4972TIP3    H214881   3.132   5.995   0.677
 4973TIP3   OH214882   3.089   0.902   1.203
 4973TIP3    H114883   3.081   0.812   1.173
 4973TIP3    H214884   3.098   0.953   1.122
 4974TIP3   OH214885   5.292   6.531   4.498
 4974TIP3    H114886   5.244   6.610   4.523
 4974TIP3    H214887   5.356   6.519   4.568
 4975TIP3   OH214888   3.863   2.374   4.161
 4975TIP3    H114889   3.929   2.437   4.190
 4975TIP3    H214890   3.797   2.374   4.230
 4976TIP3   OH214891   6.540   0.681   3.767
 4976TIP3    H114892   6.483   0.757   3.775
 4976TIP3    H214893   6.488   0.617   3.718
 4977TIP3   OH214894   5.360   5.907   3.780
 4977TIP3    H114895   5.329   5.905   3.870
 4977TIP3    H214896   5.349   5.817   3.749
 4978TIP3   OH214897   6.711   5.006   5.758
 4978TIP3    H114898   6.701   5.006   5.663
 4978TIP3    H214899   6.778   4.939   5.775
 4979TIP3   OH214900   3.856   0.531   4.600
 4979TIP3    H114901   3.789   0.591   4.567
 4979TIP3    H214902   3.912   0.514   4.524
 4980TIP3   OH214903   1.625   3.197   5.453
 4980TIP3    H114904   1.564   3.270   5.462
 4980TIP3    H214905   1.700   3.222   5.507
 4981TIP3   OH214906   5.526   3.757   1.906
 4981TIP3    H114907   5.560   3.739   1.994
 4981TIP3    H214908   5.605   3.762   1.851
 4982TIP3   OH214909   1.045   2.980   2.781
 4982TIP3    H114910   1.076   3.064   2.816
 4982TIP3    H214911   0.954   2.997   2.755
 4983TIP3   OH214912   6.360   1.256   1.789
 4983TIP3    H114913   6.330   1.182   1.844
 4983TIP3    H214914   6.284   1.315   1.786
 4984TIP3   OH214915   3.801   5.439   5.209
 4984TIP3    H114916   3.863   5.366   5.214
 4984TIP3    H214917   3.806   5.469   5.119
 4985TIP3   OH214918   6.451   3.958   2.569
 4985TIP3    H114919   6.511   3.933   2.639
 4985TIP3    H214920   6.507   3.981   2.495
 4986TIP3   OH214921   1.849   5.086   0.005
 4986TIP3    H114922   1.795   5.144   0.059
 4986TIP3    H214923   1.842   5.001   0.048
 4987TIP3   OH214924   1.657   6.240   2.142
 4987TIP3    H114925   1.593   6.200   2.083
 4987TIP3    H214926   1.737   6.191   2.127
 4988TIP3   OH214927   2.144   4.570   2.851
 4988TIP3    H114928   2.135   4.660   2.820
 4988TIP3    H214929   2.229   4.541   2.818
 4989TIP3   OH214930   2.661   3.974   4.612
 4989TIP3    H114931   2.567   3.978   4.595
 4989TIP3    H214932   2.669   3.927   4.695
 4990TIP3   OH214933   4.965   2.414   3.548
 4990TIP3    H114934   5.027   2.395   3.619
 4990TIP3    H214935   4.891   2.354   3.565
 4991TIP3   OH214936   2.724   5.739   1.486
 4991TIP3    H114937   2.695   5.743   1.395
 4991TIP3    H214938   2.817   5.759   1.483
 4992TIP3   OH214939   0.084   6.707   0.692
 4992TIP3    H114940   0.155   6.696   0.629
 4992TIP3    H214941   0.119   6.769   0.757
 4993TIP3   OH214942   4.963   0.188   5.556
 4993TIP3    H114943   4.985   0.229   5.472
 4993TIP3    H214944   4.992   0.097   5.546
 4994TIP3   OH214945   5.438   4.136   1.881
 4994TIP3    H114946   5.437   4.040   1.881
 4994TIP3    H214947   5.528   4.159   1.904
 4995TIP3   OH214948   0.951   2.745   3.961
 4995TIP3    H114949   0.912   2.661   3.987
 4995TIP3    H214950   0.986   2.729   3.874
 4996TIP3   OH214951   0.076   5.041   1.601
 4996TIP3    H114952   0.044   5.117   1.553
 4996TIP3    H214953   0.161   5.022   1.562
 4997TIP3   OH214954   3.947   2.443   0.238
 4997TIP3    H114955   3.921   2.519   0.290
 4997TIP3    H214956   4.007   2.395   0.294
 4998TIP3   OH214957   2.916   3.613   4.103
 4998TIP3    H114958   2.840   3.669   4.117
 4998TIP3    H214959   2.909   3.585   4.011
 4999TIP3   OH214960   4.348   5.621   0.321
 4999TIP3    H114961   4.426   5.583   0.281
 4999TIP3    H214962   4.318   5.554   0.383
 5000TIP3   OH214963   4.227   5.438   0.825
 5000TIP3    H114964   4.148   5.385   0.821
 5000TIP3    H214965   4.298   5.376   0.812
 5001TIP3   OH214966   3.516   1.032   1.811
 5001TIP3    H114967   3.497   0.983   1.891
 5001TIP3    H214968   3.581   1.098   1.837
 5002TIP3   OH214969   3.655   4.394   1.100
 5002TIP3    H114970   3.733   4.388   1.155
 5002TIP3    H214971   3.681   4.353   1.017
 5003TIP3   OH214972   5.771   1.892   5.601
 5003TIP3    H114973   5.859   1.894   5.562
 5003TIP3    H214974   5.779   1.946   5.680
 5004TIP3   OH214975   0.782   5.791   1.224
 5004TIP3    H114976   0.787   5.775   1.130
 5004TIP3    H214977   0.710   5.853   1.234
 5005TIP3   OH214978   5.751   1.129   1.558
 5005TIP3    H114979   5.767   1.099   1.468
 5005TIP3    H214980   5.734   1.222   1.549
 5006TIP3   OH214981   5.855   1.876   1.261
 5006TIP3    H114982   5.872   1.959   1.216
 5006TIP3    H214983   5.813   1.820   1.196
 5007TIP3   OH214984   0.489   4.216   1.437
 5007TIP3    H114985   0.480   4.303   1.399
 5007TIP3    H214986   0.403   4.175   1.423
 5008TIP3   OH214987   2.270   4.385   0.991
 5008TIP3    H114988   2.297   4.294   0.982
 5008TIP3    H214989   2.217   4.386   1.071
 5009TIP3   OH214990   0.346   3.066   3.756
 5009TIP3    H114991   0.347   2.989   3.699
 5009TIP3    H214992   0.328   3.139   3.698
 5010TIP3   OH214993   0.054   0.539   4.253
 5010TIP3    H114994   0.131   0.565   4.305
 5010TIP3    H214995  -0.021   0.572   4.303
 5011TIP3   OH214996   3.619   0.399   4.719
 5011TIP3    H114997   3.583   0.479   4.756
 5011TIP3    H214998   3.662   0.427   4.638
 5012TIP3   OH214999   3.087   4.099   5.437
 5012TIP3    H115000   3.069   4.071   5.527
 5012TIP3    H215001   3.001   4.119   5.401
 5013TIP3   OH215002   6.061   0.785   4.546
 5013TIP3    H115003   6.143   0.795   4.497
 5013TIP3    H215004   5.993   0.786   4.478
 5014TIP3   OH215005   5.151   0.388   3.687
 5014TIP3    H115006   5.067   0.344   3.681
 5014TIP3    H215007   5.130   0.479   3.708
 5015TIP3   OH215008   0.102   2.619   1.026
 5015TIP3    H115009   0.122   2.710   1.005
 5015TIP3    H215010   0.175   2.569   0.990
 5016TIP3   OH215011   0.159   5.545   5.105
 5016TIP3    H115012   0.190   5.454   5.110
 5016TIP3    H215013   0.224   5.589   5.050
 5017TIP3   OH215014   2.559   2.992   4.907
 5017TIP3    H115015   2.508   2.955   4.979
 5017TIP3    H215016   2.645   2.950   4.915
 5018TIP3   OH215017   1.976   2.687   4.527
 5018TIP3    H115018   1.941   2.766   4.486
 5018TIP3    H215019   2.035   2.718   4.594
 5019TIP3   OH215020   3.272   1.321   5.904
 5019TIP3    H115021   3.229   1.380   5.842
 5019TIP3    H215022   3.218   1.242   5.903
 5020TIP3   OH215023   0.737   4.905   2.938
 5020TIP3    H115024   0.763   4.865   3.021
 5020TIP3    H215025   0.756   4.999   2.950
 5021TIP3   OH215026   4.965   0.883   2.413
 5021TIP3    H115027   4.992   0.888   2.505
 5021TIP3    H215028   4.885   0.936   2.409
 5022TIP3   OH215029   2.251   1.283   0.302
 5022TIP3    H115030   2.225   1.375   0.299
 5022TIP3    H215031   2.345   1.284   0.285
 5023TIP3   OH215032   5.821   3.406   5.410
 5023TIP3    H115033   5.810   3.490   5.365
 5023TIP3    H215034   5.876   3.427   5.486
 5024TIP3   OH215035   5.227   6.007   4.907
 5024TIP3    H115036   5.142   5.965   4.891
 5024TIP3    H215037   5.206   6.100   4.918
 5025TIP3   OH215038   0.312   0.538   4.370
 5025TIP3    H115039   0.368   0.466   4.342
 5025TIP3    H215040   0.337   0.554   4.461
 5026TIP3   OH215041   0.902   5.726   4.964
 5026TIP3    H115042   0.862   5.650   5.006
 5026TIP3    H215043   0.846   5.799   4.990
 5027TIP3   OH215044   1.305   6.464   3.135
 5027TIP3    H115045   1.349   6.460   3.220
 5027TIP3    H215046   1.340   6.542   3.093
 5028TIP3   OH215047   0.776   2.318   3.824
 5028TIP3    H115048   0.705   2.262   3.790
 5028TIP3    H215049   0.841   2.257   3.858
 5029TIP3   OH215050   1.574   0.391   2.594
 5029TIP3    H115051   1.529   0.413   2.676
 5029TIP3    H215052   1.539   0.453   2.530
 5030TIP3   OH215053   7.128   3.625   3.901
 5030TIP3    H115054   7.144   3.537   3.869
 5030TIP3    H215055   7.089   3.614   3.987
 5031TIP3   OH215056   1.949   5.233   3.237
 5031TIP3    H115057   2.029   5.222   3.186
 5031TIP3    H215058   1.965   5.309   3.292
 5032TIP3   OH215059   2.401   2.350   4.660
 5032TIP3    H115060   2.417   2.441   4.686
 5032TIP3    H215061   2.456   2.299   4.719
 5033TIP3   OH215062   4.047   4.206   4.624
 5033TIP3    H115063   4.129   4.254   4.611
 5033TIP3    H215064   4.010   4.196   4.536
 5034TIP3   OH215065   2.653   4.765   1.105
 5034TIP3    H115066   2.627   4.789   1.016
 5034TIP3    H215067   2.573   4.730   1.145
 5035TIP3   OH215068   7.180   2.248   5.578
 5035TIP3    H115069   7.259   2.278   5.622
 5035TIP3    H215070   7.109   2.270   5.638
 5036TIP3   OH215071   4.272   2.604   3.741
 5036TIP3    H115072   4.345   2.609   3.804
 5036TIP3    H215073   4.236   2.516   3.752
 5037TIP3   OH215074   6.152   5.985   0.843
 5037TIP3    H115075   6.089   5.961   0.775
 5037TIP3    H215076   6.211   5.910   0.848
 5038TIP3   OH215077   6.802   0.600   3.805
 5038TIP3    H115078   6.809   0.558   3.891
 5038TIP3    H215079   6.709   0.617   3.794
 5039TIP3   OH215080   2.782   1.063   1.581
 5039TIP3    H115081   2.762   1.132   1.517
 5039TIP3    H215082   2.708   1.003   1.576
 5040TIP3   OH215083   0.355   3.589   3.012
 5040TIP3    H115084   0.275   3.606   3.062
 5040TIP3    H215085   0.324   3.558   2.927
 5041TIP3   OH215086   0.737   5.223   2.217
 5041TIP3    H115087   0.783   5.254   2.296
 5041TIP3    H215088   0.645   5.241   2.234
 5042TIP3   OH215089   6.612   1.403   1.845
 5042TIP3    H115090   6.524   1.366   1.843
 5042TIP3    H215091   6.627   1.424   1.937
 5043TIP3   OH215092   6.760   4.098   2.011
 5043TIP3    H115093   6.798   4.066   1.930
 5043TIP3    H215094   6.695   4.032   2.036
 5044TIP3   OH215095   4.002   4.282   2.245
 5044TIP3    H115096   4.094   4.266   2.266
 5044TIP3    H215097   3.959   4.290   2.330
 5045TIP3   OH215098   2.716   0.211   3.216
 5045TIP3    H115099   2.792   0.230   3.161
 5045TIP3    H215100   2.687   0.124   3.186
 5046TIP3   OH215101   3.147   2.185   2.202
 5046TIP3    H115102   3.132   2.200   2.109
 5046TIP3    H215103   3.090   2.111   2.224
 5047TIP3   OH215104   0.630   4.821   0.325
 5047TIP3    H115105   0.558   4.772   0.285
 5047TIP3    H215106   0.599   4.912   0.327
 5048TIP3   OH215107   4.439   2.881   3.231
 5048TIP3    H115108   4.431   2.792   3.197
 5048TIP3    H215109   4.480   2.870   3.317
 5049TIP3   OH215110   6.225   4.219   1.358
 5049TIP3    H115111   6.169   4.141   1.365
 5049TIP3    H215112   6.195   4.263   1.279
 5050TIP3   OH215113   6.401   1.018   2.782
 5050TIP3    H115114   6.321   1.065   2.804
 5050TIP3    H215115   6.453   1.019   2.862
 5051TIP3   OH215116   1.686   6.452   0.973
 5051TIP3    H115117   1.764   6.493   0.935
 5051TIP3    H215118   1.714   6.365   1.000
 5052TIP3   OH215119   2.362   4.105   4.354
 5052TIP3    H115120   2.379   4.032   4.296
 5052TIP3    H215121   2.386   4.074   4.441
 5053TIP3   OH215122   4.172   0.259   2.376
 5053TIP3    H115123   4.222   0.248   2.296
 5053TIP3    H215124   4.217   0.205   2.441
 5054TIP3   OH215125   3.570   5.519   5.317
 5054TIP3    H115126   3.505   5.449   5.310
 5054TIP3    H215127   3.650   5.481   5.279
 5055TIP3   OH215128   4.317   5.261   3.240
 5055TIP3    H115129   4.292   5.185   3.188
 5055TIP3    H215130   4.235   5.294   3.276
 5056TIP3   OH215131   5.461   2.834   0.645
 5056TIP3    H115132   5.386   2.781   0.617
 5056TIP3    H215133   5.536   2.789   0.607
 5057TIP3   OH215134   6.194   5.074   0.995
 5057TIP3    H115135   6.153   4.988   0.993
 5057TIP3    H215136   6.257   5.073   0.923
 5058TIP3   OH215137   6.268   2.857   3.720
 5058TIP3    H115138   6.314   2.846   3.637
 5058TIP3    H215139   6.177   2.836   3.701
 5059TIP3   OH215140   1.415   4.922   2.421
 5059TIP3    H115141   1.507   4.947   2.419
 5059TIP3    H215142   1.408   4.858   2.492
 5060TIP3   OH215143   2.768   3.308   2.600
 5060TIP3    H115144   2.739   3.325   2.689
 5060TIP3    H215145   2.832   3.237   2.609
 5061TIP3   OH215146   2.482   0.686   4.627
 5061TIP3    H115147   2.467   0.714   4.718
 5061TIP3    H215148   2.530   0.603   4.636
 5062TIP3   OH215149   4.267   2.013   0.795
 5062TIP3    H115150   4.179   1.997   0.830
 5062TIP3    H215151   4.306   2.076   0.855
 5063TIP3   OH215152   6.351   0.591   5.689
 5063TIP3    H115153   6.280   0.574   5.628
 5063TIP3    H215154   6.430   0.563   5.644
 5064TIP3   OH215155   3.613   2.550   3.855
 5064TIP3    H115156   3.605   2.455   3.843
 5064TIP3    H215157   3.527   2.585   3.832
 5065TIP3   OH215158   2.766   6.561   5.757
 5065TIP3    H115159   2.825   6.559   5.681
 5065TIP3    H215160   2.814   6.514   5.825
 5066TIP3   OH215161   3.038   2.673   3.722
 5066TIP3    H115162   2.987   2.662   3.803
 5066TIP3    H215163   2.991   2.741   3.673
 5067TIP3   OH215164   2.533   4.026   4.063
 5067TIP3    H115165   2.541   4.120   4.080
 5067TIP3    H215166   2.471   4.019   3.991
 5068TIP3   OH215167   5.063   4.382   2.711
 5068TIP3    H115168   5.070   4.368   2.806
 5068TIP3    H215169   5.112   4.462   2.695
 5069TIP3   OH215170   1.594   1.868   3.675
 5069TIP3    H115171   1.658   1.797   3.664
 5069TIP3    H215172   1.553   1.876   3.589
 5070TIP3   OH215173   4.134   5.904   5.131
 5070TIP3    H115174   4.172   5.982   5.172
 5070TIP3    H215175   4.095   5.855   5.204
 5071TIP3   OH215176   5.238   2.805   5.089
 5071TIP3    H115177   5.291   2.845   5.020
 5071TIP3    H215178   5.229   2.873   5.156
 5072TIP3   OH215179   1.463   5.629   1.364
 5072TIP3    H115180   1.472   5.543   1.323
 5072TIP3    H215181   1.488   5.615   1.455
 5073TIP3   OH215182   1.607   6.370   5.564
 5073TIP3    H115183   1.617   6.299   5.628
 5073TIP3    H215184   1.623   6.328   5.479
 5074TIP3   OH215185   3.212   4.548   4.256
 5074TIP3    H115186   3.188   4.524   4.167
 5074TIP3    H215187   3.303   4.577   4.249
 5075TIP3   OH215188   3.676   5.064   3.006
 5075TIP3    H115189   3.677   5.156   3.033
 5075TIP3    H215190   3.651   5.066   2.914
 5076TIP3   OH215191   3.218   5.826   5.478
 5076TIP3    H115192   3.287   5.770   5.513
 5076TIP3    H215193   3.259   5.871   5.404
 5077TIP3   OH215194   1.565   4.138   4.182
 5077TIP3    H115195   1.474   4.139   4.213
 5077TIP3    H215196   1.565   4.195   4.105
 5078TIP3   OH215197   3.632   4.118   2.265
 5078TIP3    H115198   3.604   4.166   2.187
 5078TIP3    H215199   3.616   4.178   2.338
 5079TIP3   OH215200   3.597   6.151   4.782
 5079TIP3    H115201   3.553   6.153   4.868
 5079TIP3    H215202   3.614   6.058   4.766
 5080TIP3   OH215203   0.677   5.150   3.715
 5080TIP3    H115204   0.750   5.128   3.773
 5080TIP3    H215205   0.637   5.227   3.756
 5081TIP3   OH215206   6.890   3.984   5.239
 5081TIP3    H115207   6.829   4.012   5.171
 5081TIP3    H215208   6.838   3.981   5.319
 5082TIP3   OH215209   0.257   6.399   2.144
 5082TIP3    H115210   0.228   6.473   2.091
 5082TIP3    H215211   0.349   6.418   2.163
 5083TIP3   OH215212   6.122   2.789   0.055
 5083TIP3    H115213   6.048   2.784   0.116
 5083TIP3    H215214   6.195   2.823   0.108
 5084TIP3   OH215215   6.765   1.590   2.097
 5084TIP3    H115216   6.831   1.532   2.058
 5084TIP3    H215217   6.810   1.674   2.106
 5085TIP3   OH215218   4.399   1.969   2.490
 5085TIP3    H115219   4.391   1.972   2.395
 5085TIP3    H215220   4.493   1.968   2.507
 5086TIP3   OH215221   5.547   3.143   2.176
 5086TIP3    H115222   5.593   3.147   2.093
 5086TIP3    H215223   5.580   3.063   2.218
 5087TIP3   OH215224   7.028   2.727   4.317
 5087TIP3    H115225   7.091   2.726   4.245
 5087TIP3    H215226   6.944   2.745   4.276
 5088TIP3   OH215227   4.118   1.879   2.534
 5088TIP3    H115228   4.201   1.883   2.580
 5088TIP3    H215229   4.140   1.894   2.443
 5089TIP3   OH215230   5.429   2.938   4.932
 5089TIP3    H115231   5.398   3.010   4.876
 5089TIP3    H215232   5.522   2.931   4.912
 5090TIP3   OH215233   4.575   4.026   3.698
 5090TIP3    H115234   4.591   4.007   3.606
 5090TIP3    H215235   4.641   3.975   3.745
 5091TIP3   OH215236   1.888   0.956   3.769
 5091TIP3    H115237   1.809   1.011   3.765
 5091TIP3    H215238   1.948   0.996   3.707
 5092TIP3   OH215239   0.958   4.522   0.970
 5092TIP3    H115240   0.982   4.432   0.946
 5092TIP3    H215241   1.040   4.561   1.001
 5093TIP3   OH215242   1.828   0.226   1.039
 5093TIP3    H115243   1.752   0.236   1.096
 5093TIP3    H215244   1.903   0.226   1.100
 5094TIP3   OH215245   1.903   4.711   5.067
 5094TIP3    H115246   1.987   4.728   5.110
 5094TIP3    H215247   1.907   4.618   5.043
 5095TIP3   OH215248   7.168   0.888   1.049
 5095TIP3    H115249   7.223   0.921   1.120
 5095TIP3    H215250   7.175   0.793   1.056
 5096TIP3   OH215251   1.456   0.714   1.780
 5096TIP3    H115252   1.402   0.690   1.705
 5096TIP3    H215253   1.479   0.806   1.765
 5097TIP3   OH215254   5.373   0.886   0.736
 5097TIP3    H115255   5.339   0.959   0.684
 5097TIP3    H215256   5.463   0.912   0.756
 5098TIP3   OH215257   0.987   1.053   1.557
 5098TIP3    H115258   0.959   1.134   1.601
 5098TIP3    H215259   0.908   1.022   1.513
 5099TIP3   OH215260   3.222   5.232   4.921
 5099TIP3    H115261   3.282   5.220   4.847
 5099TIP3    H215262   3.147   5.277   4.883
 5100TIP3   OH215263   2.510   1.173   3.084
 5100TIP3    H115264   2.458   1.253   3.072
 5100TIP3    H215265   2.564   1.167   3.005
 5101TIP3   OH215266   3.772   1.070   5.187
 5101TIP3    H115267   3.736   1.110   5.109
 5101TIP3    H215268   3.861   1.043   5.162
 5102TIP3   OH215269   7.002   1.906   4.175
 5102TIP3    H115270   6.939   1.912   4.102
 5102TIP3    H215271   6.948   1.886   4.251
 5103TIP3   OH215272   3.473   2.661   4.729
 5103TIP3    H115273   3.485   2.745   4.773
 5103TIP3    H215274   3.498   2.596   4.794
 5104TIP3   OH215275   4.554   1.405   3.372
 5104TIP3    H115276   4.547   1.388   3.278
 5104TIP3    H215277   4.464   1.420   3.401
 5105TIP3   OH215278   2.278   5.429   2.054
 5105TIP3    H115279   2.291   5.353   2.110
 5105TIP3    H215280   2.310   5.400   1.968
 5106TIP3   OH215281   1.525   4.195   0.480
 5106TIP3    H115282   1.512   4.146   0.562
 5106TIP3    H215283   1.598   4.253   0.499
 5107TIP3   OH215284   0.191   3.214   0.767
 5107TIP3    H115285   0.194   3.174   0.854
 5107TIP3    H215286   0.099   3.213   0.743
 5108TIP3   OH215287   4.464   4.692   2.501
 5108TIP3    H115288   4.420   4.717   2.582
 5108TIP3    H215289   4.393   4.675   2.439
 5109TIP3   OH215290   5.167   3.944   4.122
 5109TIP3    H115291   5.123   3.949   4.206
 5109TIP3    H215292   5.115   3.999   4.064
 5110TIP3   OH215293   0.563   1.589   4.829
 5110TIP3    H115294   0.489   1.645   4.851
 5110TIP3    H215295   0.546   1.508   4.877
 5111TIP3   OH215296   5.327   3.398   1.832
 5111TIP3    H115297   5.310   3.466   1.768
 5111TIP3    H215298   5.280   3.426   1.911
 5112TIP3   OH215299   0.206   4.259   2.743
 5112TIP3    H115300   0.300   4.273   2.734
 5112TIP3    H215301   0.188   4.178   2.696
 5113TIP3   OH215302   0.188   0.418   0.710
 5113TIP3    H115303   0.237   0.338   0.690
 5113TIP3    H215304   0.224   0.449   0.793
 5114TIP3   OH215305   7.047   2.961   2.185
 5114TIP3    H115306   7.075   2.879   2.224
 5114TIP3    H215307   7.124   2.993   2.139
 5115TIP3   OH215308   6.755   4.253   5.310
 5115TIP3    H115309   6.725   4.168   5.278
 5115TIP3    H215310   6.800   4.234   5.392
 5116TIP3   OH215311   1.008   1.654   5.329
 5116TIP3    H115312   0.968   1.702   5.257
 5116TIP3    H215313   1.103   1.666   5.316
 5117TIP3   OH215314   5.048   2.268   5.815
 5117TIP3    H115315   5.123   2.299   5.764
 5117TIP3    H215316   5.022   2.344   5.868
 5118TIP3   OH215317   2.300   6.729   5.882
 5118TIP3    H115318   2.350   6.733   5.800
 5118TIP3    H215319   2.252   6.812   5.884
 5119TIP3   OH215320   6.171   2.469   5.002
 5119TIP3    H115321   6.130   2.386   4.978
 5119TIP3    H215322   6.144   2.484   5.093
 5120TIP3   OH215323   5.945   1.073   0.443
 5120TIP3    H115324   5.981   1.065   0.532
 5120TIP3    H215325   5.984   1.001   0.394
 5121TIP3   OH215326   3.922   3.228   5.603
 5121TIP3    H115327   3.863   3.240   5.529
 5121TIP3    H215328   3.890   3.148   5.646
 5122TIP3   OH215329   6.206   4.799   2.899
 5122TIP3    H115330   6.236   4.885   2.869
 5122TIP3    H215331   6.110   4.806   2.898
 5123TIP3   OH215332   0.468   6.027   5.124
 5123TIP3    H115333   0.542   5.967   5.133
 5123TIP3    H215334   0.399   5.987   5.178
 5124TIP3   OH215335   1.590   5.575   5.522
 5124TIP3    H115336   1.629   5.582   5.435
 5124TIP3    H215337   1.608   5.485   5.549
 5125TIP3   OH215338   1.900   4.283   1.818
 5125TIP3    H115339   1.949   4.206   1.845
 5125TIP3    H215340   1.962   4.356   1.826
 5126TIP3   OH215341   1.167   3.377   1.846
 5126TIP3    H115342   1.131   3.462   1.822
 5126TIP3    H215343   1.091   3.328   1.879
 5127TIP3   OH215344   2.305   6.600   3.876
 5127TIP3    H115345   2.265   6.521   3.912
 5127TIP3    H215346   2.360   6.569   3.804
 5128TIP3   OH215347   2.727   6.421   5.373
 5128TIP3    H115348   2.776   6.468   5.305
 5128TIP3    H215349   2.729   6.479   5.449
 5129TIP3   OH215350   0.170   2.169   5.069
 5129TIP3    H115351   0.177   2.252   5.022
 5129TIP3    H215352   0.149   2.194   5.159
 5130TIP3   OH215353   2.806   3.736   3.440
 5130TIP3    H115354   2.759   3.668   3.489
 5130TIP3    H215355   2.899   3.713   3.451
 5131TIP3   OH215356   1.413   1.644   5.741
 5131TIP3    H115357   1.330   1.599   5.723
 5131TIP3    H215358   1.391   1.705   5.812
 5132TIP3   OH215359   1.153   5.627   5.665
 5132TIP3    H115360   1.229   5.651   5.613
 5132TIP3    H215361   1.187   5.566   5.730
 5133TIP3   OH215362   4.854   1.654   3.064
 5133TIP3    H115363   4.809   1.579   3.025
 5133TIP3    H215364   4.942   1.621   3.083
 5134TIP3   OH215365   6.919   3.808   0.702
 5134TIP3    H115366   6.969   3.754   0.764
 5134TIP3    H215367   6.985   3.859   0.656
 5135TIP3   OH215368   2.251   0.133   3.842
 5135TIP3    H115369   2.212   0.218   3.861
 5135TIP3    H215370   2.294   0.107   3.923
 5136TIP3   OH215371   0.551   0.517   0.768
 5136TIP3    H115372   0.588   0.604   0.759
 5136TIP3    H215373   0.589   0.467   0.696
 5137TIP3   OH215374   4.716   6.790   5.713
 5137TIP3    H115375   4.635   6.795   5.765
 5137TIP3    H215376   4.766   6.720   5.754
 5138TIP3   OH215377   5.708   0.578   0.561
 5138TIP3    H115378   5.773   0.509   0.569
 5138TIP3    H215379   5.687   0.601   0.652
 5139TIP3   OH215380   0.249   3.958   3.743
 5139TIP3    H115381   0.170   4.011   3.732
 5139TIP3    H215382   0.218   3.875   3.777
 5140TIP3   OH215383   3.207   3.413   2.099
 5140TIP3    H115384   3.170   3.478   2.040
 5140TIP3    H215385   3.272   3.461   2.150
 5141TIP3   OH215386   5.898   6.396   3.377
 5141TIP3    H115387   5.845   6.341   3.435
 5141TIP3    H215388   5.837   6.463   3.346
 5142TIP3   OH215389   3.201   2.775   1.629
 5142TIP3    H115390   3.205   2.688   1.589
 5142TIP3    H215391   3.213   2.836   1.556
 5143TIP3   OH215392   0.427   4.640   1.415
 5143TIP3    H115393   0.492   4.711   1.416
 5143TIP3    H215394   0.344   4.683   1.396
 5144TIP3   OH215395   1.915   6.014   4.551
 5144TIP3    H115396   1.903   5.986   4.460
 5144TIP3    H215397   1.827   6.008   4.590
 5145TIP3   OH215398   5.786   6.207   2.129
 5145TIP3    H115399   5.695   6.202   2.102
 5145TIP3    H215400   5.829   6.259   2.061
 5146TIP3   OH215401   0.831   0.071   2.284
 5146TIP3    H115402   0.799   0.034   2.202
 5146TIP3    H215403   0.785   0.022   2.352
 5147TIP3   OH215404   2.392   5.578   2.241
 5147TIP3    H115405   2.351   5.545   2.162
 5147TIP3    H215406   2.467   5.630   2.210
 5148TIP3   OH215407   2.421   2.458   0.270
 5148TIP3    H115408   2.436   2.443   0.364
 5148TIP3    H215409   2.410   2.370   0.234
 5149TIP3   OH215410   5.136   0.390   0.155
 5149TIP3    H115411   5.059   0.333   0.148
 5149TIP3    H215412   5.132   0.445   0.076
 5150TIP3   OH215413   4.383   1.222   4.669
 5150TIP3    H115414   4.336   1.154   4.717
 5150TIP3    H215415   4.475   1.196   4.674
 5151TIP3   OH215416   2.248   0.627   0.707
 5151TIP3    H115417   2.213   0.542   0.680
 5151TIP3    H215418   2.217   0.639   0.797
 5152TIP3   OH215419   2.808   1.096   1.210
 5152TIP3    H115420   2.806   1.010   1.169
 5152TIP3    H215421   2.886   1.139   1.173
 5153TIP3   OH215422   5.018   0.475   2.836
 5153TIP3    H115423   4.947   0.536   2.855
 5153TIP3    H215424   5.053   0.504   2.752
 5154TIP3   OH215425   1.662   1.128   2.271
 5154TIP3    H115426   1.721   1.055   2.290
 5154TIP3    H215427   1.580   1.105   2.314
 5155TIP3   OH215428   2.454   1.056   3.341
 5155TIP3    H115429   2.477   1.097   3.258
 5155TIP3    H215430   2.402   0.979   3.316
 5156TIP3   OH215431   1.060   5.987   3.244
 5156TIP3    H115432   1.072   6.082   3.240
 5156TIP3    H215433   1.092   5.963   3.331
 5157TIP3   OH215434   5.596   0.302   1.587
 5157TIP3    H115435   5.654   0.333   1.656
 5157TIP3    H215436   5.642   0.323   1.506
 5158TIP3   OH215437   1.478   3.055   0.353
 5158TIP3    H115438   1.518   3.050   0.440
 5158TIP3    H215439   1.396   3.006   0.361
 5159TIP3   OH215440   2.675   4.355   3.065
 5159TIP3    H115441   2.646   4.291   3.130
 5159TIP3    H215442   2.711   4.302   2.994
 5160TIP3   OH215443   5.135   1.120   1.218
 5160TIP3    H115444   5.222   1.159   1.208
 5160TIP3    H215445   5.095   1.128   1.131
 5161TIP3   OH215446   1.361   3.742   1.827
 5161TIP3    H115447   1.281   3.712   1.868
 5161TIP3    H215448   1.373   3.685   1.751
 5162TIP3   OH215449   4.950   3.106   4.006
 5162TIP3    H115450   4.976   3.124   4.097
 5162TIP3    H215451   4.861   3.071   4.013
 5163TIP3   OH215452   5.272   1.323   3.806
 5163TIP3    H115453   5.366   1.318   3.786
 5163TIP3    H215454   5.230   1.334   3.720
 5164TIP3   OH215455   3.004   0.747   3.580
 5164TIP3    H115456   2.977   0.673   3.526
 5164TIP3    H215457   3.095   0.728   3.602
 5165TIP3   OH215458   0.643   3.787   3.705
 5165TIP3    H115459   0.660   3.796   3.611
 5165TIP3    H215460   0.677   3.868   3.744
 5166TIP3   OH215461   1.880   5.257   5.400
 5166TIP3    H115462   1.967   5.262   5.359
 5166TIP3    H215463   1.898   5.267   5.494
 5167TIP3   OH215464   0.389   1.736   2.176
 5167TIP3    H115465   0.457   1.715   2.240
 5167TIP3    H215466   0.373   1.653   2.131
 5168TIP3   OH215467   4.273   0.636   1.196
 5168TIP3    H115468   4.234   0.699   1.135
 5168TIP3    H215469   4.278   0.684   1.279
 5169TIP3   OH215470   3.407   3.011   1.696
 5169TIP3    H115471   3.349   2.952   1.744
 5169TIP3    H215472   3.423   3.083   1.757
 5170TIP3   OH215473   6.012   1.088   0.045
 5170TIP3    H115474   5.997   1.132  -0.039
 5170TIP3    H215475   6.045   1.157   0.102
 5171TIP3   OH215476   5.484   0.063   3.619
 5171TIP3    H115477   5.427   0.057   3.542
 5171TIP3    H215478   5.473  -0.022   3.662
 5172TIP3   OH215479   0.681   3.738   4.213
 5172TIP3    H115480   0.696   3.801   4.283
 5172TIP3    H215481   0.642   3.662   4.256
 5173TIP3   OH215482   2.706   2.505   0.405
 5173TIP3    H115483   2.622   2.544   0.427
 5173TIP3    H215484   2.687   2.411   0.394
 5174TIP3   OH215485   5.085   2.703   2.544
 5174TIP3    H115486   5.111   2.637   2.607
 5174TIP3    H215487   5.124   2.784   2.576
 5175TIP3   OH215488   0.821   5.859   4.226
 5175TIP3    H115489   0.790   5.768   4.231
 5175TIP3    H215490   0.884   5.867   4.297
 5176TIP3   OH215491   0.479   3.326   5.017
 5176TIP3    H115492   0.539   3.308   5.089
 5176TIP3    H215493   0.392   3.327   5.057
 5177TIP3   OH215494   4.164   1.453   1.469
 5177TIP3    H115495   4.251   1.494   1.466
 5177TIP3    H215496   4.107   1.520   1.507
 5178TIP3   OH215497   2.936   0.649   1.511
 5178TIP3    H115498   2.992   0.585   1.556
 5178TIP3    H215499   2.986   0.731   1.515
 5179TIP3   OH215500   6.285   0.473   1.819
 5179TIP3    H115501   6.284   0.511   1.907
 5179TIP3    H215502   6.223   0.527   1.769
 5180TIP3   OH215503   5.069   5.869   3.846
 5180TIP3    H115504   5.050   5.840   3.757
 5180TIP3    H215505   5.070   5.965   3.841
 5181TIP3   OH215506   6.849   2.366   1.327
 5181TIP3    H115507   6.796   2.288   1.308
 5181TIP3    H215508   6.831   2.426   1.255
 5182TIP3   OH215509   5.374   3.851   1.573
 5182TIP3    H115510   5.401   3.939   1.549
 5182TIP3    H215511   5.445   3.818   1.628
 5183TIP3   OH215512   5.808   1.294   0.595
 5183TIP3    H115513   5.876   1.265   0.535
 5183TIP3    H215514   5.735   1.233   0.580
 5184TIP3   OH215515   1.743   0.585   4.793
 5184TIP3    H115516   1.825   0.633   4.802
 5184TIP3    H215517   1.698   0.599   4.877
 5185TIP3   OH215518   1.965   5.908   0.180
 5185TIP3    H115519   1.903   5.903   0.108
 5185TIP3    H215520   1.912   5.930   0.257
 5186TIP3   OH215521   5.473   0.540   2.310
 5186TIP3    H115522   5.425   0.546   2.228
 5186TIP3    H215523   5.562   0.518   2.284
 5187TIP3   OH215524   1.107   1.418   4.454
 5187TIP3    H115525   1.022   1.388   4.487
 5187TIP3    H215526   1.166   1.345   4.470
 5188TIP3   OH215527   4.813   4.479   0.521
 5188TIP3    H115528   4.830   4.447   0.609
 5188TIP3    H215529   4.785   4.570   0.534
 5189TIP3   OH215530   3.468   0.490   0.639
 5189TIP3    H115531   3.374   0.494   0.652
 5189TIP3    H215532   3.496   0.581   0.635
 5190TIP3   OH215533   7.172   2.596   5.119
 5190TIP3    H115534   7.132   2.625   5.201
 5190TIP3    H215535   7.152   2.665   5.057
 5191TIP3   OH215536   7.227   1.531   1.023
 5191TIP3    H115537   7.196   1.470   1.089
 5191TIP3    H215538   7.209   1.618   1.060
 5192TIP3   OH215539   4.952   4.318   2.424
 5192TIP3    H115540   5.016   4.288   2.360
 5192TIP3    H215541   4.986   4.287   2.508
 5193TIP3   OH215542   0.997   6.477   5.109
 5193TIP3    H115543   1.022   6.393   5.149
 5193TIP3    H215544   0.902   6.470   5.096
 5194TIP3   OH215545   5.853   5.488   0.154
 5194TIP3    H115546   5.934   5.437   0.157
 5194TIP3    H215547   5.793   5.434   0.103
 5195TIP3   OH215548   7.204   1.159   4.155
 5195TIP3    H115549   7.236   1.179   4.067
 5195TIP3    H215550   7.109   1.161   4.146
 5196TIP3   OH215551   6.539   6.190   1.365
 5196TIP3    H115552   6.513   6.102   1.337
 5196TIP3    H215553   6.568   6.233   1.285
 5197TIP3   OH215554   6.333   3.434   3.076
 5197TIP3    H115555   6.277   3.471   3.144
 5197TIP3    H215556   6.421   3.436   3.114
 5198TIP3   OH215557   1.147   0.326   5.180
 5198TIP3    H115558   1.092   0.366   5.113
 5198TIP3    H215559   1.086   0.298   5.248
 5199TIP3   OH215560   5.710   1.280   4.080
 5199TIP3    H115561   5.739   1.364   4.043
 5199TIP3    H215562   5.648   1.304   4.149
 5200TIP3   OH215563   3.345   2.161   4.175
 5200TIP3    H115564   3.356   2.252   4.148
 5200TIP3    H215565   3.289   2.123   4.107
 5201TIP3   OH215566   1.094   6.365   4.674
 5201TIP3    H115567   1.110   6.459   4.662
 5201TIP3    H215568   1.054   6.337   4.592
 5202TIP3   OH215569   1.724   0.270   0.685
 5202TIP3    H115570   1.652   0.217   0.650
 5202TIP3    H215571   1.800   0.245   0.632
 5203TIP3   OH215572   0.727   3.154   2.871
 5203TIP3    H115573   0.656   3.212   2.898
 5203TIP3    H215574   0.730   3.088   2.940
 5204TIP3   OH215575   7.029   2.327   3.992
 5204TIP3    H115576   6.934   2.318   3.992
 5204TIP3    H215577   7.045   2.420   4.010
 5205TIP3   OH215578   6.520   4.946   2.717
 5205TIP3    H115579   6.558   4.913   2.798
 5205TIP3    H215580   6.521   4.871   2.657
 5206TIP3   OH215581   4.055   0.533   2.453
 5206TIP3    H115582   3.971   0.488   2.442
 5206TIP3    H215583   4.119   0.474   2.415
 5207TIP3   OH215584   1.319   0.471   0.781
 5207TIP3    H115585   1.237   0.458   0.827
 5207TIP3    H215586   1.324   0.566   0.766
 5208TIP3   OH215587   4.726   3.800   4.775
 5208TIP3    H115588   4.749   3.807   4.683
 5208TIP3    H215589   4.808   3.816   4.822
 5209TIP3   OH215590   4.230   2.801   1.708
 5209TIP3    H115591   4.217   2.773   1.799
 5209TIP3    H215592   4.322   2.780   1.690
 5210TIP3   OH215593   1.744   4.495   3.488
 5210TIP3    H115594   1.838   4.473   3.491
 5210TIP3    H215595   1.743   4.590   3.479
 5211TIP3   OH215596   4.133   1.216   1.594
 5211TIP3    H115597   4.143   1.308   1.567
 5211TIP3    H215598   4.056   1.216   1.650
 5212TIP3   OH215599   2.400   4.356   3.785
 5212TIP3    H115600   2.315   4.323   3.813
 5212TIP3    H215601   2.457   4.342   3.860
 5213TIP3   OH215602   4.155   5.236   1.752
 5213TIP3    H115603   4.200   5.161   1.792
 5213TIP3    H215604   4.123   5.287   1.827
 5214TIP3   OH215605   5.706   5.491   2.415
 5214TIP3    H115606   5.687   5.576   2.456
 5214TIP3    H215607   5.781   5.508   2.359
 5215TIP3   OH215608   2.141   6.005   3.602
 5215TIP3    H115609   2.131   5.926   3.548
 5215TIP3    H215610   2.235   6.012   3.616
 5216TIP3   OH215611   6.718   6.628   3.156
 5216TIP3    H115612   6.645   6.566   3.155
 5216TIP3    H215613   6.790   6.579   3.197
 5217TIP3   OH215614   6.701   0.163   0.152
 5217TIP3    H115615   6.671   0.073   0.157
 5217TIP3    H215616   6.670   0.204   0.233
 5218TIP3   OH215617   2.070   1.315   0.858
 5218TIP3    H115618   1.982   1.303   0.823
 5218TIP3    H215619   2.074   1.258   0.935
 5219TIP3   OH215620   5.099   6.794   5.644
 5219TIP3    H115621   5.042   6.804   5.720
 5219TIP3    H215622   5.186   6.781   5.681
 5220TIP3   OH215623   5.781   0.928   0.080
 5220TIP3    H115624   5.861   0.974   0.054
 5220TIP3    H215625   5.722   0.998   0.109
 5221TIP3   OH215626   4.748   2.007   3.219
 5221TIP3    H115627   4.695   1.937   3.179
 5221TIP3    H215628   4.739   2.081   3.159
 5222TIP3   OH215629   2.447   5.096   5.847
 5222TIP3    H115630   2.509   5.152   5.893
 5222TIP3    H215631   2.366   5.101   5.899
 5223TIP3   OH215632   2.027   0.203   4.162
 5223TIP3    H115633   2.000   0.268   4.226
 5223TIP3    H215634   2.120   0.221   4.147
 5224TIP3   OH215635   3.620   1.382   3.302
 5224TIP3    H115636   3.655   1.454   3.249
 5224TIP3    H215637   3.649   1.303   3.258
 5225TIP3   OH215638   6.054   2.443   5.314
 5225TIP3    H115639   6.144   2.472   5.330
 5225TIP3    H215640   5.999   2.510   5.356
 5226TIP3   OH215641   4.017   5.699   0.498
 5226TIP3    H115642   4.037   5.644   0.573
 5226TIP3    H215643   3.966   5.643   0.440
 5227TIP3   OH215644   3.580   2.528   4.525
 5227TIP3    H115645   3.616   2.598   4.471
 5227TIP3    H215646   3.533   2.574   4.595
 5228TIP3   OH215647   1.144   6.070   4.576
 5228TIP3    H115648   1.103   6.016   4.645
 5228TIP3    H215649   1.073   6.126   4.545
 5229TIP3   OH215650   6.870   6.759   1.378
 5229TIP3    H115651   6.923   6.835   1.403
 5229TIP3    H215652   6.933   6.692   1.354
 5230TIP3   OH215653   4.727   2.369   2.602
 5230TIP3    H115654   4.789   2.314   2.555
 5230TIP3    H215655   4.776   2.401   2.678
 5231TIP3   OH215656   1.933   1.463   2.844
 5231TIP3    H115657   2.021   1.459   2.882
 5231TIP3    H215658   1.910   1.556   2.848
 5232TIP3   OH215659   4.496   6.178   5.881
 5232TIP3    H115660   4.546   6.166   5.961
 5232TIP3    H215661   4.545   6.130   5.814
 5233TIP3   OH215662   2.088   3.061   2.800
 5233TIP3    H115663   2.116   3.095   2.715
 5233TIP3    H215664   2.023   2.994   2.778
 5234TIP3   OH215665   2.448   4.499   2.170
 5234TIP3    H115666   2.510   4.445   2.121
 5234TIP3    H215667   2.437   4.578   2.116
 5235TIP3   OH215668   3.627   0.176   0.076
 5235TIP3    H115669   3.659   0.266   0.080
 5235TIP3    H215670   3.537   0.181   0.109
 5236TIP3   OH215671   3.402   6.538   1.925
 5236TIP3    H115672   3.443   6.456   1.950
 5236TIP3    H215673   3.323   6.512   1.877
 5237TIP3   OH215674   6.527   2.123   3.436
 5237TIP3    H115675   6.522   2.194   3.501
 5237TIP3    H215676   6.453   2.066   3.458
 5238TIP3   OH215677   6.595   5.932   3.120
 5238TIP3    H115678   6.501   5.940   3.137
 5238TIP3    H215679   6.636   5.965   3.200
 5239TIP3   OH215680   0.678   0.847   0.478
 5239TIP3    H115681   0.658   0.929   0.433
 5239TIP3    H215682   0.596   0.797   0.472
 5240TIP3   OH215683   7.101   4.730   3.260
 5240TIP3    H115684   7.030   4.790   3.284
 5240TIP3    H215685   7.064   4.676   3.189
 5241TIP3   OH215686   4.230   6.772   2.661
 5241TIP3    H115687   4.225   6.866   2.680
 5241TIP3    H215688   4.323   6.752   2.662
 5242TIP3   OH215689   0.131   2.224   1.193
 5242TIP3    H115690   0.134   2.197   1.285
 5242TIP3    H215691   0.135   2.142   1.144
 5243TIP3   OH215692   6.545   3.596   2.497
 5243TIP3    H115693   6.513   3.506   2.498
 5243TIP3    H215694   6.473   3.648   2.533
 5244TIP3   OH215695   1.035   6.402   1.791
 5244TIP3    H115696   1.112   6.367   1.836
 5244TIP3    H215697   1.064   6.416   1.701
 5245TIP3   OH215698   3.751   4.800   1.976
 5245TIP3    H115699   3.717   4.889   1.984
 5245TIP3    H215700   3.685   4.753   1.925
 5246TIP3   OH215701   2.797   5.456   3.504
 5246TIP3    H115702   2.839   5.372   3.520
 5246TIP3    H215703   2.860   5.521   3.536
 5247TIP3   OH215704   1.172   5.706   5.058
 5247TIP3    H115705   1.083   5.719   5.024
 5247TIP3    H215706   1.171   5.618   5.096
 5248TIP3   OH215707   4.108   6.171   1.770
 5248TIP3    H115708   4.106   6.233   1.697
 5248TIP3    H215709   4.160   6.097   1.737
 5249TIP3   OH215710   3.471   3.637   5.347
 5249TIP3    H115711   3.448   3.730   5.338
 5249TIP3    H215712   3.450   3.616   5.438
 5250TIP3   OH215713   6.283   5.585   5.180
 5250TIP3    H115714   6.206   5.640   5.170
 5250TIP3    H215715   6.331   5.596   5.098
 5251TIP3   OH215716   6.005   2.076   4.092
 5251TIP3    H115717   5.921   2.037   4.114
 5251TIP3    H215718   5.991   2.119   4.008
 5252TIP3   OH215719   6.795   6.041   0.628
 5252TIP3    H115720   6.728   6.109   0.643
 5252TIP3    H215721   6.745   5.967   0.592
 5253TIP3   OH215722   1.565   5.105   1.084
 5253TIP3    H115723   1.547   5.013   1.063
 5253TIP3    H215724   1.603   5.141   1.004
 5254TIP3   OH215725   3.097   5.581   4.007
 5254TIP3    H115726   3.150   5.624   4.075
 5254TIP3    H215727   3.160   5.559   3.939
 5255TIP3   OH215728   2.501   0.064   2.897
 5255TIP3    H115729   2.572   0.045   2.958
 5255TIP3    H215730   2.503  -0.008   2.834
 5256TIP3   OH215731   1.040   4.517   3.840
 5256TIP3    H115732   1.043   4.460   3.917
 5256TIP3    H215733   1.037   4.458   3.765
 5257TIP3   OH215734   2.570   4.160   3.311
 5257TIP3    H115735   2.496   4.219   3.302
 5257TIP3    H215736   2.565   4.127   3.401
 5258TIP3   OH215737   0.982   1.005   2.994
 5258TIP3    H115738   0.904   1.060   3.003
 5258TIP3    H215739   0.964   0.930   3.051
 5259TIP3   OH215740   3.581   6.263   1.973
 5259TIP3    H115741   3.592   6.170   1.994
 5259TIP3    H215742   3.585   6.267   1.878
 5260TIP3   OH215743   5.308   5.813   2.310
 5260TIP3    H115744   5.283   5.899   2.277
 5260TIP3    H215745   5.398   5.824   2.341
 5261TIP3   OH215746   3.196   0.913   5.014
 5261TIP3    H115747   3.285   0.946   5.027
 5261TIP3    H215748   3.191   0.890   4.921
 5262TIP3   OH215749   5.694   3.657   1.040
 5262TIP3    H115750   5.721   3.732   0.987
 5262TIP3    H215751   5.697   3.688   1.130
 5263TIP3   OH215752   2.424   1.417   1.109
 5263TIP3    H115753   2.518   1.419   1.128
 5263TIP3    H215754   2.415   1.464   1.027
 5264TIP3   OH215755   5.543   1.091   1.731
 5264TIP3    H115756   5.470   1.115   1.674
 5264TIP3    H215757   5.621   1.098   1.675
 5265TIP3   OH215758   6.711   4.187   1.042
 5265TIP3    H115759   6.799   4.154   1.060
 5265TIP3    H215760   6.680   4.219   1.127
 5266TIP3   OH215761   1.651   4.394   4.441
 5266TIP3    H115762   1.649   4.307   4.402
 5266TIP3    H215763   1.735   4.431   4.413
 5267TIP3   OH215764   2.035   1.730   3.773
 5267TIP3    H115765   1.993   1.657   3.818
 5267TIP3    H215766   2.099   1.764   3.837
 5268TIP3   OH215767   1.906   0.609   3.457
 5268TIP3    H115768   1.855   0.650   3.386
 5268TIP3    H215769   1.930   0.523   3.423
 5269TIP3   OH215770   6.979   2.762   3.595
 5269TIP3    H115771   6.900   2.775   3.648
 5269TIP3    H215772   6.973   2.829   3.526
 5270TIP3   OH215773   0.156   5.012   5.023
 5270TIP3    H115774   0.174   4.927   5.062
 5270TIP3    H215775   0.073   5.000   4.976
 5271TIP3   OH215776   5.368   1.225   2.205
 5271TIP3    H115777   5.380   1.143   2.253
 5271TIP3    H215778   5.382   1.202   2.113
 5272TIP3   OH215779   3.627   3.503   3.083
 5272TIP3    H115780   3.673   3.554   3.149
 5272TIP3    H215781   3.679   3.516   3.003
 5273TIP3   OH215782   6.335   1.573   1.501
 5273TIP3    H115783   6.368   1.490   1.535
 5273TIP3    H215784   6.388   1.640   1.544
 5274TIP3   OH215785   2.223   1.544   3.271
 5274TIP3    H115786   2.128   1.543   3.260
 5274TIP3    H215787   2.240   1.494   3.350
 5275TIP3   OH215788   0.950   2.177   1.196
 5275TIP3    H115789   0.894   2.249   1.225
 5275TIP3    H215790   0.892   2.120   1.145
 5276TIP3   OH215791   3.593   3.931   1.788
 5276TIP3    H115792   3.544   3.902   1.865
 5276TIP3    H215793   3.639   4.010   1.816
 5277TIP3   OH215794   5.213   0.426   5.813
 5277TIP3    H115795   5.196   0.502   5.869
 5277TIP3    H215796   5.195   0.457   5.724
 5278TIP3   OH215797   3.825   3.475   4.020
 5278TIP3    H115798   3.763   3.402   4.016
 5278TIP3    H215799   3.788   3.535   4.085
 5279TIP3   OH215800   3.642   2.974   1.178
 5279TIP3    H115801   3.627   2.973   1.273
 5279TIP3    H215802   3.728   3.015   1.168
 5280TIP3   OH215803   3.336   6.339   5.864
 5280TIP3    H115804   3.321   6.434   5.862
 5280TIP3    H215805   3.323   6.312   5.773
 5281TIP3   OH215806   5.987   2.891   1.634
 5281TIP3    H115807   5.897   2.903   1.665
 5281TIP3    H215808   5.995   2.797   1.619
 5282TIP3   OH215809   3.542   3.655   4.462
 5282TIP3    H115810   3.567   3.628   4.550
 5282TIP3    H215811   3.450   3.631   4.454
 5283TIP3   OH215812   1.603   6.094   0.068
 5283TIP3    H115813   1.525   6.143   0.040
 5283TIP3    H215814   1.673   6.159   0.072
 5284TIP3   OH215815   1.507   0.445   1.860
 5284TIP3    H115816   1.589   0.437   1.908
 5284TIP3    H215817   1.502   0.537   1.835
 5285TIP3   OH215818   0.813   2.692   4.995
 5285TIP3    H115819   0.882   2.625   5.002
 5285TIP3    H215820   0.857   2.773   5.020
 5286TIP3   OH215821   5.632   5.181   3.582
 5286TIP3    H115822   5.634   5.274   3.604
 5286TIP3    H215823   5.545   5.167   3.546
 5287TIP3   OH215824   2.681   1.153   4.722
 5287TIP3    H115825   2.700   1.099   4.798
 5287TIP3    H215826   2.767   1.182   4.691
 5288TIP3   OH215827   2.151   2.586   1.797
 5288TIP3    H115828   2.155   2.595   1.892
 5288TIP3    H215829   2.198   2.504   1.779
 5289TIP3   OH215830   0.650   5.812   1.679
 5289TIP3    H115831   0.687   5.724   1.690
 5289TIP3    H215832   0.578   5.815   1.741
 5290TIP3   OH215833   2.848   4.935   5.458
 5290TIP3    H115834   2.893   4.984   5.389
 5290TIP3    H215835   2.767   4.983   5.474
 5291TIP3   OH215836   0.459   0.702   2.474
 5291TIP3    H115837   0.441   0.795   2.490
 5291TIP3    H215838   0.555   0.696   2.475
 5292TIP3   OH215839   5.579   5.414   0.316
 5292TIP3    H115840   5.606   5.470   0.243
 5292TIP3    H215841   5.505   5.460   0.355
 5293TIP3   OH215842   5.876   4.111   5.154
 5293TIP3    H115843   5.797   4.157   5.124
 5293TIP3    H215844   5.880   4.033   5.098
 5294TIP3   OH215845   3.034   1.879   5.608
 5294TIP3    H115846   3.070   1.794   5.584
 5294TIP3    H215847   2.967   1.896   5.542
 5295TIP3   OH215848   6.091   4.382   1.180
 5295TIP3    H115849   6.050   4.468   1.170
 5295TIP3    H215850   6.017   4.322   1.188
 5296TIP3   OH215851   1.714   1.505   0.101
 5296TIP3    H115852   1.672   1.469   0.023
 5296TIP3    H215853   1.677   1.455   0.174
 5297TIP3   OH215854   4.303   1.493   4.339
 5297TIP3    H115855   4.293   1.578   4.382
 5297TIP3    H215856   4.311   1.514   4.246
 5298TIP3   OH215857   2.302   2.494   3.863
 5298TIP3    H115858   2.310   2.530   3.774
 5298TIP3    H215859   2.317   2.569   3.920
 5299TIP3   OH215860   1.572   1.050   1.373
 5299TIP3    H115861   1.482   1.068   1.344
 5299TIP3    H215862   1.612   1.137   1.379
 5300TIP3   OH215863   5.215   6.433   3.053
 5300TIP3    H115864   5.193   6.512   3.004
 5300TIP3    H215865   5.177   6.362   3.002
 5301TIP3   OH215866   2.409   6.114   1.658
 5301TIP3    H115867   2.375   6.129   1.569
 5301TIP3    H215868   2.490   6.165   1.661
 5302TIP3   OH215869   4.697   2.430   5.545
 5302TIP3    H115870   4.763   2.472   5.599
 5302TIP3    H215871   4.681   2.491   5.473
 5303TIP3   OH215872   7.070   6.668   4.777
 5303TIP3    H115873   7.141   6.673   4.713
 5303TIP3    H215874   7.036   6.579   4.768
 5304TIP3   OH215875   4.112   3.312   2.616
 5304TIP3    H115876   4.033   3.268   2.586
 5304TIP3    H215877   4.173   3.305   2.543
 5305TIP3   OH215878   4.004   1.808   2.260
 5305TIP3    H115879   3.957   1.868   2.203
 5305TIP3    H215880   4.087   1.792   2.215
 5306TIP3   OH215881   3.825   0.882   4.698
 5306TIP3    H115882   3.859   0.808   4.748
 5306TIP3    H215883   3.730   0.874   4.706
 5307TIP3   OH215884   4.791   6.656   0.575
 5307TIP3    H115885   4.886   6.657   0.576
 5307TIP3    H215886   4.765   6.748   0.586
 5308TIP3   OH215887   5.641   4.083   1.393
 5308TIP3    H115888   5.613   4.147   1.459
 5308TIP3    H215889   5.671   4.137   1.320
 5309TIP3   OH215890   0.581   6.201   1.419
 5309TIP3    H115891   0.558   6.210   1.327
 5309TIP3    H215892   0.605   6.289   1.446
 5310TIP3   OH215893   4.498   6.793   3.408
 5310TIP3    H115894   4.501   6.707   3.366
 5310TIP3    H215895   4.424   6.837   3.366
 5311TIP3   OH215896   1.315   5.078   4.506
 5311TIP3    H115897   1.338   5.161   4.548
 5311TIP3    H215898   1.399   5.041   4.480
 5312TIP3   OH215899   0.499   1.416   2.942
 5312TIP3    H115900   0.429   1.417   3.007
 5312TIP3    H215901   0.454   1.425   2.858
 5313TIP3   OH215902   6.330   6.605   1.350
 5313TIP3    H115903   6.316   6.511   1.356
 5313TIP3    H215904   6.266   6.635   1.285
 5314TIP3   OH215905   1.728   3.139   1.277
 5314TIP3    H115906   1.785   3.204   1.234
 5314TIP3    H215907   1.676   3.191   1.338
 5315TIP3   OH215908   0.848   4.709   3.955
 5315TIP3    H115909   0.901   4.647   3.905
 5315TIP3    H215910   0.765   4.663   3.970
 5316TIP3   OH215911   3.337   4.491   0.725
 5316TIP3    H115912   3.398   4.497   0.799
 5316TIP3    H215913   3.252   4.475   0.766
 5317TIP3   OH215914   4.654   5.585   3.557
 5317TIP3    H115915   4.662   5.530   3.635
 5317TIP3    H215916   4.686   5.531   3.486
 5318TIP3   OH215917   3.920   5.937   4.281
 5318TIP3    H115918   3.948   6.026   4.263
 5318TIP3    H215919   3.990   5.881   4.248
 5319TIP3   OH215920   1.772   1.566   4.449
 5319TIP3    H115921   1.778   1.660   4.434
 5319TIP3    H215922   1.848   1.545   4.503
 5320TIP3   OH215923   1.801   5.358   3.592
 5320TIP3    H115924   1.830   5.329   3.678
 5320TIP3    H215925   1.715   5.396   3.607
 5321TIP3   OH215926   2.371   2.291   0.818
 5321TIP3    H115927   2.359   2.264   0.909
 5321TIP3    H215928   2.308   2.238   0.768
 5322TIP3   OH215929   4.080   5.590   3.767
 5322TIP3    H115930   4.039   5.577   3.681
 5322TIP3    H215931   4.026   5.538   3.827
 5323TIP3   OH215932   0.400   4.633   0.479
 5323TIP3    H115933   0.445   4.578   0.543
 5323TIP3    H215934   0.312   4.597   0.474
 5324TIP3   OH215935   1.039   4.727   5.014
 5324TIP3    H115936   1.068   4.809   5.053
 5324TIP3    H215937   0.960   4.750   4.964
 5325TIP3   OH215938   3.301   4.142   3.510
 5325TIP3    H115939   3.337   4.215   3.460
 5325TIP3    H215940   3.262   4.084   3.444
 5326TIP3   OH215941   3.032   6.217   3.061
 5326TIP3    H115942   2.958   6.239   3.004
 5326TIP3    H215943   3.035   6.122   3.061
 5327TIP3   OH215944   4.059   5.363   3.000
 5327TIP3    H115945   3.977   5.387   2.958
 5327TIP3    H215946   4.075   5.273   2.974
 5328TIP3   OH215947   6.943   2.223   0.704
 5328TIP3    H115948   6.973   2.164   0.773
 5328TIP3    H215949   6.921   2.165   0.631
 5329TIP3   OH215950   5.074   0.346   1.725
 5329TIP3    H115951   5.141   0.343   1.656
 5329TIP3    H215952   5.019   0.420   1.702
 5330TIP3   OH215953   1.846   0.563   3.984
 5330TIP3    H115954   1.846   0.603   3.897
 5330TIP3    H215955   1.815   0.474   3.970
 5331TIP3   OH215956   3.500   1.701   1.166
 5331TIP3    H115957   3.514   1.649   1.245
 5331TIP3    H215958   3.470   1.638   1.101
 5332TIP3   OH215959   3.685   0.232   2.619
 5332TIP3    H115960   3.596   0.224   2.585
 5332TIP3    H215961   3.675   0.228   2.714
 5333TIP3   OH215962   3.529   3.254   3.142
 5333TIP3    H115963   3.556   3.258   3.234
 5333TIP3    H215964   3.578   3.325   3.100
 5334TIP3   OH215965   6.934   0.687   3.569
 5334TIP3    H115966   6.892   0.752   3.512
 5334TIP3    H215967   6.891   0.698   3.653
 5335TIP3   OH215968   5.784   1.069   3.246
 5335TIP3    H115969   5.857   1.013   3.274
 5335TIP3    H215970   5.724   1.069   3.321
 5336TIP3   OH215971   2.289   3.819   2.366
 5336TIP3    H115972   2.325   3.751   2.424
 5336TIP3    H215973   2.325   3.798   2.280
 5337TIP3   OH215974   4.769   4.448   3.994
 5337TIP3    H115975   4.816   4.431   4.076
 5337TIP3    H215976   4.760   4.362   3.953
 5338TIP3   OH215977   2.420   1.629   2.100
 5338TIP3    H115978   2.468   1.711   2.111
 5338TIP3    H215979   2.393   1.605   2.189
 5339TIP3   OH215980   4.796   5.581   2.845
 5339TIP3    H115981   4.776   5.651   2.907
 5339TIP3    H215982   4.770   5.616   2.760
 5340TIP3   OH215983   0.710   2.607   1.086
 5340TIP3    H115984   0.628   2.611   1.136
 5340TIP3    H215985   0.747   2.521   1.106
 5341TIP3   OH215986   1.026   0.102   4.667
 5341TIP3    H115987   0.942   0.089   4.711
 5341TIP3    H215988   1.090   0.059   4.724
 5342TIP3   OH215989   5.235   4.696   0.014
 5342TIP3    H115990   5.171   4.714   0.083
 5342TIP3    H215991   5.184   4.699  -0.067
 5343TIP3   OH215992   0.265   3.727   2.023
 5343TIP3    H115993   0.198   3.752   2.086
 5343TIP3    H215994   0.328   3.676   2.075
 5344TIP3   OH215995   3.833   3.252   4.812
 5344TIP3    H115996   3.805   3.167   4.847
 5344TIP3    H215997   3.929   3.246   4.809
 5345TIP3   OH215998   3.029   2.770   2.710
 5345TIP3    H115999   2.997   2.767   2.801
 5345TIP3    H216000   3.115   2.811   2.717
 5346TIP3   OH216001   3.364   4.955   3.982
 5346TIP3    H116002   3.380   5.042   4.020
 5346TIP3    H216003   3.271   4.940   3.996
 5347TIP3   OH216004   0.500   5.788   4.076
 5347TIP3    H116005   0.574   5.752   4.026
 5347TIP3    H216006   0.541   5.826   4.154
 5348TIP3   OH216007   1.236   4.590   1.018
 5348TIP3    H116008   1.271   4.540   1.092
 5348TIP3    H216009   1.311   4.601   0.959
 5349TIP3   OH216010   6.056   6.342   2.999
 5349TIP3    H116011   5.970   6.383   2.994
 5349TIP3    H216012   6.067   6.320   3.092
 5350TIP3   OH216013   6.856   5.481   3.207
 5350TIP3    H116014   6.815   5.557   3.248
 5350TIP3    H216015   6.798   5.460   3.133
 5351TIP3   OH216016   1.506   0.548   4.492
 5351TIP3    H116017   1.536   0.479   4.550
 5351TIP3    H216018   1.457   0.607   4.548
 5352TIP3   OH216019   3.273   4.914   1.588
 5352TIP3    H116020   3.184   4.899   1.618
 5352TIP3    H216021   3.314   4.967   1.657
 5353TIP3   OH216022   4.596   0.849   4.012
 5353TIP3    H116023   4.513   0.812   3.983
 5353TIP3    H216024   4.591   0.942   3.988
 5354TIP3   OH216025   1.525   0.896   3.498
 5354TIP3    H116026   1.602   0.954   3.491
 5354TIP3    H216027   1.559   0.816   3.538
 5355TIP3   OH216028   1.731   2.426   2.088
 5355TIP3    H116029   1.719   2.338   2.052
 5355TIP3    H216030   1.642   2.457   2.106
 5356TIP3   OH216031   2.106   5.978   1.452
 5356TIP3    H116032   2.193   6.013   1.433
 5356TIP3    H216033   2.118   5.883   1.451
 5357TIP3   OH216034   3.073   1.374   0.125
 5357TIP3    H116035   3.154   1.389   0.075
 5357TIP3    H216036   3.096   1.397   0.215
 5358TIP3   OH216037   1.414   5.650   1.899
 5358TIP3    H116038   1.364   5.684   1.825
 5358TIP3    H216039   1.411   5.555   1.890
 5359TIP3   OH216040   3.246   2.053   4.776
 5359TIP3    H116041   3.286   1.970   4.803
 5359TIP3    H216042   3.295   2.079   4.698
 5360TIP3   OH216043   2.075   5.553   2.177
 5360TIP3    H116044   2.083   5.647   2.193
 5360TIP3    H216045   2.153   5.530   2.127
 5361TIP3   OH216046   5.410   0.407   5.579
 5361TIP3    H116047   5.384   0.315   5.567
 5361TIP3    H216048   5.452   0.409   5.665
 5362TIP3   OH216049   3.965   6.208   5.063
 5362TIP3    H116050   4.046   6.224   5.111
 5362TIP3    H216051   3.927   6.131   5.105
 5363TIP3   OH216052   2.686   0.066   2.191
 5363TIP3    H116053   2.771   0.030   2.214
 5363TIP3    H216054   2.656   0.110   2.271
 5364TIP3   OH216055   5.293   1.165   4.706
 5364TIP3    H116056   5.365   1.225   4.687
 5364TIP3    H216057   5.224   1.191   4.645
 5365TIP3   OH216058   6.850   3.393   2.101
 5365TIP3    H116059   6.810   3.313   2.066
 5365TIP3    H216060   6.863   3.375   2.194
 5366TIP3   OH216061   0.302   2.268   5.381
 5366TIP3    H116062   0.269   2.354   5.354
 5366TIP3    H216063   0.223   2.217   5.397
 5367TIP3   OH216064   5.498   1.441   4.290
 5367TIP3    H116065   5.563   1.474   4.351
 5367TIP3    H216066   5.443   1.383   4.343
 5368TIP3   OH216067   3.579   1.618   3.859
 5368TIP3    H116068   3.656   1.563   3.867
 5368TIP3    H216069   3.606   1.703   3.893
 5369TIP3   OH216070   3.949   5.942   3.986
 5369TIP3    H116071   3.922   6.028   4.019
 5369TIP3    H216072   3.922   5.881   4.054
 5370TIP3   OH216073   1.583   3.456   0.507
 5370TIP3    H116074   1.580   3.462   0.602
 5370TIP3    H216075   1.639   3.380   0.489
 5371TIP3   OH216076   1.383   5.324   4.589
 5371TIP3    H116077   1.318   5.369   4.642
 5371TIP3    H216078   1.400   5.383   4.516
 5372TIP3   OH216079   1.965   5.335   5.681
 5372TIP3    H116080   1.947   5.383   5.762
 5372TIP3    H216081   2.046   5.374   5.648
 5373TIP3   OH216082   7.197   1.961   3.594
 5373TIP3    H116083   7.165   2.016   3.666
 5373TIP3    H216084   7.124   1.959   3.532
 5374TIP3   OH216085   0.466   4.305   5.782
 5374TIP3    H116086   0.401   4.278   5.717
 5374TIP3    H216087   0.433   4.387   5.817
 5375TIP3   OH216088   7.077   6.361   1.393
 5375TIP3    H116089   7.047   6.279   1.431
 5375TIP3    H216090   7.001   6.396   1.347
 5376TIP3   OH216091   0.254   1.838   3.407
 5376TIP3    H116092   0.174   1.872   3.366
 5376TIP3    H216093   0.239   1.743   3.412
 5377TIP3   OH216094   6.448   2.843   4.750
 5377TIP3    H116095   6.459   2.758   4.707
 5377TIP3    H216096   6.524   2.851   4.807
 5378TIP3   OH216097   1.125   6.247   3.160
 5378TIP3    H116098   1.118   6.234   3.065
 5378TIP3    H216099   1.176   6.328   3.169
 5379TIP3   OH216100   7.093   2.632   3.342
 5379TIP3    H116101   7.088   2.686   3.421
 5379TIP3    H216102   7.168   2.575   3.357
 5380TIP3   OH216103   7.051   2.984   0.244
 5380TIP3    H116104   7.028   3.000   0.153
 5380TIP3    H216105   6.999   2.907   0.269
 5381TIP3   OH216106   6.123   1.925   4.513
 5381TIP3    H116107   6.029   1.916   4.526
 5381TIP3    H216108   6.134   1.930   4.418
 5382TIP3   OH216109   4.097   4.768   3.168
 5382TIP3    H116110   4.032   4.836   3.186
 5382TIP3    H216111   4.046   4.687   3.165
 5383TIP3   OH216112   1.842   3.720   5.315
 5383TIP3    H116113   1.751   3.748   5.308
 5383TIP3    H216114   1.887   3.794   5.355
 5384TIP3   OH216115   2.846   5.859   2.693
 5384TIP3    H116116   2.827   5.837   2.785
 5384TIP3    H216117   2.766   5.902   2.662
 5385TIP3   OH216118   5.016   3.562   0.628
 5385TIP3    H116119   5.050   3.473   0.624
 5385TIP3    H216120   4.935   3.555   0.679
 5386TIP3   OH216121   3.103   0.910   2.253
 5386TIP3    H116122   3.046   0.836   2.274
 5386TIP3    H216123   3.056   0.956   2.183
 5387TIP3   OH216124   5.201   4.993   4.741
 5387TIP3    H116125   5.265   4.927   4.765
 5387TIP3    H216126   5.121   4.968   4.787
 5388TIP3   OH216127   0.082   0.675   5.248
 5388TIP3    H116128   0.011   0.654   5.187
 5388TIP3    H216129   0.116   0.759   5.217
 5389TIP3   OH216130   5.460   0.720   1.141
 5389TIP3    H116131   5.514   0.645   1.116
 5389TIP3    H216132   5.374   0.703   1.103
 5390TIP3   OH216133   2.511   5.479   3.141
 5390TIP3    H116134   2.482   5.435   3.221
 5390TIP3    H216135   2.458   5.558   3.136
 5391TIP3   OH216136   6.818   3.054   4.445
 5391TIP3    H116137   6.753   3.117   4.478
 5391TIP3    H216138   6.900   3.103   4.445
 5392TIP3   OH216139   6.393   3.649   3.970
 5392TIP3    H116140   6.373   3.571   3.918
 5392TIP3    H216141   6.460   3.620   4.033
 5393TIP3   OH216142   2.319   2.163   2.642
 5393TIP3    H116143   2.242   2.141   2.590
 5393TIP3    H216144   2.354   2.078   2.669
 5394TIP3   OH216145   1.000   2.676   3.041
 5394TIP3    H116146   1.068   2.631   3.091
 5394TIP3    H216147   1.037   2.685   2.953
 5395TIP3   OH216148   0.465   3.784   4.018
 5395TIP3    H116149   0.442   3.858   3.962
 5395TIP3    H216150   0.447   3.815   4.107
 5396TIP3   OH216151   2.807   2.026   2.058
 5396TIP3    H116152   2.820   2.072   2.141
 5396TIP3    H216153   2.811   1.933   2.081
 5397TIP3   OH216154   6.617   3.169   0.417
 5397TIP3    H116155   6.526   3.159   0.389
 5397TIP3    H216156   6.632   3.263   0.416
 5398TIP3   OH216157   2.907   3.052   3.013
 5398TIP3    H116158   2.915   3.142   3.043
 5398TIP3    H216159   2.894   3.059   2.919
 5399TIP3   OH216160   3.486   4.427   3.855
 5399TIP3    H116161   3.540   4.368   3.908
 5399TIP3    H216162   3.406   4.376   3.837
 5400TIP3   OH216163   1.034   0.526   5.030
 5400TIP3    H116164   0.940   0.521   5.046
 5400TIP3    H216165   1.044   0.601   4.971
 5401TIP3   OH216166   7.059   6.630   5.070
 5401TIP3    H116167   7.136   6.581   5.099
 5401TIP3    H216168   7.078   6.654   4.979
 5402TIP3   OH216169   6.682   0.829   0.349
 5402TIP3    H116170   6.766   0.788   0.372
 5402TIP3    H216171   6.692   0.920   0.377
 5403TIP3   OH216172   0.160   5.943   3.081
 5403TIP3    H116173   0.169   5.861   3.129
 5403TIP3    H216174   0.067   5.965   3.088
 5404TIP3   OH216175   1.730   3.722   0.582
 5404TIP3    H116176   1.653   3.682   0.622
 5404TIP3    H216177   1.803   3.666   0.610
 5405TIP3   OH216178   1.945   0.100   2.697
 5405TIP3    H116179   1.934   0.142   2.612
 5405TIP3    H216180   1.856   0.097   2.734
 5406TIP3   OH216181   5.562   4.636   5.712
 5406TIP3    H116182   5.611   4.578   5.771
 5406TIP3    H216183   5.630   4.686   5.667
 5407TIP3   OH216184   3.738   6.373   5.034
 5407TIP3    H116185   3.668   6.313   5.058
 5407TIP3    H216186   3.818   6.320   5.040
 5408TIP3   OH216187   5.676   5.514   1.679
 5408TIP3    H116188   5.671   5.458   1.757
 5408TIP3    H216189   5.756   5.565   1.692
 5409TIP3   OH216190   4.974   5.418   4.064
 5409TIP3    H116191   5.034   5.348   4.038
 5409TIP3    H216192   4.894   5.400   4.016
 5410TIP3   OH216193   4.061   1.630   3.241
 5410TIP3    H116194   4.131   1.667   3.295
 5410TIP3    H216195   3.981   1.670   3.276
 5411TIP3   OH216196   3.674   0.828   5.814
 5411TIP3    H116197   3.634   0.743   5.828
 5411TIP3    H216198   3.725   0.845   5.893
 5412TIP3   OH216199   2.010   1.902   2.779
 5412TIP3    H116200   2.007   1.980   2.723
 5412TIP3    H216201   2.003   1.828   2.719
 5413TIP3   OH216202   4.653   1.161   1.024
 5413TIP3    H116203   4.641   1.106   0.946
 5413TIP3    H216204   4.640   1.250   0.993
 5414TIP3   OH216205   1.451   1.873   3.430
 5414TIP3    H116206   1.361   1.850   3.454
 5414TIP3    H216207   1.443   1.960   3.390
 5415TIP3   OH216208   0.100   0.169   1.865
 5415TIP3    H116209   0.091   0.128   1.779
 5415TIP3    H216210   0.096   0.096   1.927
 5416TIP3   OH216211   0.477   1.163   5.020
 5416TIP3    H116212   0.466   1.123   5.107
 5416TIP3    H216213   0.496   1.255   5.038
 5417TIP3   OH216214   0.577   1.479   1.202
 5417TIP3    H116215   0.594   1.571   1.182
 5417TIP3    H216216   0.485   1.467   1.180
 5418TIP3   OH216217   1.904   5.610   3.129
 5418TIP3    H116218   1.919   5.538   3.068
 5418TIP3    H216219   1.960   5.590   3.204
 5419TIP3   OH216220   2.779   1.102   4.127
 5419TIP3    H116221   2.779   1.148   4.043
 5419TIP3    H216222   2.796   1.010   4.103
 5420TIP3   OH216223   5.862   4.468   1.628
 5420TIP3    H116224   5.938   4.513   1.663
 5420TIP3    H216225   5.803   4.459   1.703
 5421TIP3   OH216226   1.754   5.273   1.181
 5421TIP3    H116227   1.667   5.235   1.188
 5421TIP3    H216228   1.764   5.326   1.260
 5422TIP3   OH216229   1.128   1.685   3.251
 5422TIP3    H116230   1.042   1.685   3.208
 5422TIP3    H216231   1.120   1.622   3.322
 5423TIP3   OH216232   2.477   6.340   5.730
 5423TIP3    H116233   2.564   6.332   5.690
 5423TIP3    H216234   2.482   6.421   5.781
 5424TIP3   OH216235   3.482   2.364   1.609
 5424TIP3    H116236   3.456   2.310   1.535
 5424TIP3    H216237   3.419   2.342   1.678
 5425TIP3   OH216238   7.061   3.288   3.647
 5425TIP3    H116239   6.986   3.240   3.613
 5425TIP3    H216240   7.129   3.275   3.580
 5426TIP3   OH216241   3.516   3.039   5.382
 5426TIP3    H116242   3.520   2.987   5.302
 5426TIP3    H216243   3.523   2.975   5.453
 5427TIP3   OH216244   3.878   2.575   3.800
 5427TIP3    H116245   3.787   2.567   3.830
 5427TIP3    H216246   3.903   2.665   3.823
 5428TIP3   OH216247   2.886   1.833   2.400
 5428TIP3    H116248   2.840   1.912   2.429
 5428TIP3    H216249   2.961   1.866   2.350
 5429TIP3   OH216250   4.818   6.658   2.738
 5429TIP3    H116251   4.807   6.575   2.693
 5429TIP3    H216252   4.898   6.695   2.699
 5430TIP3   OH216253   0.908   4.730   5.870
 5430TIP3    H116254   0.954   4.752   5.789
 5430TIP3    H216255   0.875   4.641   5.856
 5431TIP3   OH216256   0.313   0.615   1.525
 5431TIP3    H116257   0.310   0.584   1.435
 5431TIP3    H216258   0.370   0.552   1.570
 5432TIP3   OH216259   4.599   2.123   4.107
 5432TIP3    H116260   4.608   2.087   4.019
 5432TIP3    H216261   4.617   2.216   4.097
 5433TIP3   OH216262   6.350   6.130   1.138
 5433TIP3    H116263   6.274   6.122   1.196
 5433TIP3    H216264   6.402   6.052   1.157
 5434TIP3   OH216265   6.466   3.681   2.910
 5434TIP3    H116266   6.541   3.697   2.967
 5434TIP3    H216267   6.483   3.594   2.872
 5435TIP3   OH216268   0.377   3.542   3.978
 5435TIP3    H116269   0.377   3.483   4.053
 5435TIP3    H216270   0.422   3.621   4.009
 5436TIP3   OH216271   1.479   2.010   2.040
 5436TIP3    H116272   1.469   2.008   1.945
 5436TIP3    H216273   1.400   1.969   2.073
 5437TIP3   OH216274   3.240   4.431   0.067
 5437TIP3    H116275   3.243   4.352   0.120
 5437TIP3    H216276   3.322   4.429   0.017
 5438TIP3   OH216277   2.004   4.477   3.440
 5438TIP3    H116278   2.074   4.528   3.481
 5438TIP3    H216279   1.977   4.531   3.366
 5439TIP3   OH216280   0.527   4.721   4.738
 5439TIP3    H116281   0.473   4.653   4.778
 5439TIP3    H216282   0.552   4.685   4.653
 5440TIP3   OH216283   6.967   1.129   3.325
 5440TIP3    H116284   7.060   1.153   3.329
 5440TIP3    H216285   6.944   1.138   3.233
 5441TIP3   OH216286   6.037   6.154   2.284
 5441TIP3    H116287   6.111   6.180   2.229
 5441TIP3    H216288   5.961   6.198   2.246
 5442TIP3   OH216289   1.459   4.025   3.274
 5442TIP3    H116290   1.537   4.006   3.327
 5442TIP3    H216291   1.459   4.120   3.265
 5443TIP3   OH216292   3.299   0.435   4.689
 5443TIP3    H116293   3.306   0.351   4.735
 5443TIP3    H216294   3.389   0.461   4.672
 5444TIP3   OH216295   4.844   5.586   4.489
 5444TIP3    H116296   4.767   5.642   4.494
 5444TIP3    H216297   4.838   5.529   4.566
 5445TIP3   OH216298   3.211   0.578   3.375
 5445TIP3    H116299   3.239   0.586   3.466
 5445TIP3    H216300   3.229   0.486   3.353
 5446TIP3   OH216301   5.307   5.591   1.432
 5446TIP3    H116302   5.231   5.577   1.489
 5446TIP3    H216303   5.298   5.523   1.365
 5447TIP3   OH216304   3.026   4.273   2.899
 5447TIP3    H116305   2.969   4.197   2.889
 5447TIP3    H216306   3.039   4.280   2.994
 5448TIP3   OH216307   6.373   5.243   5.682
 5448TIP3    H116308   6.459   5.205   5.669
 5448TIP3    H216309   6.376   5.281   5.770
 5449TIP3   OH216310   4.424   0.705   0.288
 5449TIP3    H116311   4.396   0.616   0.310
 5449TIP3    H216312   4.455   0.742   0.370
 5450TIP3   OH216313   5.741   2.760   4.178
 5450TIP3    H116314   5.756   2.821   4.107
 5450TIP3    H216315   5.647   2.760   4.191
 5451TIP3   OH216316   3.900   3.575   0.897
 5451TIP3    H116317   3.832   3.556   0.833
 5451TIP3    H216318   3.859   3.554   0.982
 5452TIP3   OH216319   4.968   1.230   0.103
 5452TIP3    H116320   4.906   1.187   0.043
 5452TIP3    H216321   4.952   1.324   0.090
 5453TIP3   OH216322   4.010   1.272   0.967
 5453TIP3    H116323   3.989   1.365   0.976
 5453TIP3    H216324   3.994   1.253   0.875
 5454TIP3   OH216325   1.531   1.430   3.593
 5454TIP3    H116326   1.523   1.432   3.497
 5454TIP3    H216327   1.454   1.380   3.622
 5455TIP3   OH216328   1.310   4.091   3.519
 5455TIP3    H116329   1.369   4.017   3.503
 5455TIP3    H216330   1.360   4.168   3.492
 5456TIP3   OH216331   5.278   1.277   5.247
 5456TIP3    H116332   5.316   1.314   5.327
 5456TIP3    H216333   5.282   1.348   5.183
 5457TIP3   OH216334   0.676   0.434   4.203
 5457TIP3    H116335   0.627   0.396   4.276
 5457TIP3    H216336   0.681   0.528   4.223
 5458TIP3   OH216337   1.938   2.917   1.987
 5458TIP3    H116338   1.848   2.885   1.984
 5458TIP3    H216339   1.965   2.922   1.895
 5459TIP3   OH216340   1.406   6.703   2.985
 5459TIP3    H116341   1.484   6.758   2.984
 5459TIP3    H216342   1.333   6.765   2.989
 5460TIP3   OH216343   0.199   3.962   0.251
 5460TIP3    H116344   0.179   3.979   0.159
 5460TIP3    H216345   0.207   4.050   0.289
 5461TIP3   OH216346   5.271   3.540   1.561
 5461TIP3    H116347   5.198   3.598   1.581
 5461TIP3    H216348   5.310   3.576   1.482
 5462TIP3   OH216349   2.150   3.215   2.581
 5462TIP3    H116350   2.224   3.179   2.532
 5462TIP3    H216351   2.134   3.301   2.541
 5463TIP3   OH216352   1.598   1.305   5.079
 5463TIP3    H116353   1.561   1.244   5.142
 5463TIP3    H216354   1.525   1.328   5.021
 5464TIP3   OH216355   1.438   1.019   1.691
 5464TIP3    H116356   1.497   0.970   1.633
 5464TIP3    H216357   1.476   1.106   1.696
 5465TIP3   OH216358   6.805   1.293   4.799
 5465TIP3    H116359   6.715   1.322   4.788
 5465TIP3    H216360   6.808   1.258   4.888
 5466TIP3   OH216361   1.001   6.512   0.197
 5466TIP3    H116362   1.072   6.483   0.255
 5466TIP3    H216363   1.040   6.509   0.109
 5467TIP3   OH216364   3.502   3.733   3.870
 5467TIP3    H116365   3.576   3.789   3.893
 5467TIP3    H216366   3.483   3.685   3.951
 5468TIP3   OH216367   2.572   5.056   3.231
 5468TIP3    H116368   2.550   5.132   3.177
 5468TIP3    H216369   2.606   4.992   3.169
 5469TIP3   OH216370   6.722   4.645   0.411
 5469TIP3    H116371   6.691   4.560   0.381
 5469TIP3    H216372   6.657   4.673   0.475
 5470TIP3   OH216373   6.216   2.103   5.813
 5470TIP3    H116374   6.225   2.142   5.726
 5470TIP3    H216375   6.159   2.028   5.800
 5471TIP3   OH216376   4.242   5.301   1.485
 5471TIP3    H116377   4.267   5.208   1.481
 5471TIP3    H216378   4.219   5.316   1.576
 5472TIP3   OH216379   4.979   2.321   4.027
 5472TIP3    H116380   5.033   2.368   4.090
 5472TIP3    H216381   4.941   2.249   4.078
 5473TIP3   OH216382   0.855   0.643   0.478
 5473TIP3    H116383   0.888   0.631   0.389
 5473TIP3    H216384   0.824   0.733   0.481
 5474TIP3   OH216385   0.357   2.213   2.203
 5474TIP3    H116386   0.329   2.302   2.228
 5474TIP3    H216387   0.328   2.158   2.275
 5475TIP3   OH216388   1.108   2.735   3.736
 5475TIP3    H116389   1.049   2.717   3.663
 5475TIP3    H216390   1.194   2.704   3.706
 5476TIP3   OH216391   4.508   4.802   3.821
 5476TIP3    H116392   4.499   4.735   3.888
 5476TIP3    H216393   4.424   4.803   3.776
 5477TIP3   OH216394   5.228   3.718   5.330
 5477TIP3    H116395   5.314   3.677   5.319
 5477TIP3    H216396   5.233   3.760   5.416
 5478TIP3   OH216397   4.019   6.465   3.873
 5478TIP3    H116398   3.991   6.545   3.828
 5478TIP3    H216399   3.968   6.395   3.830
 5479TIP3   OH216400   3.961   0.713   2.236
 5479TIP3    H116401   4.047   0.744   2.208
 5479TIP3    H216402   3.934   0.776   2.304
 5480TIP3   OH216403   5.596   5.636   3.255
 5480TIP3    H116404   5.513   5.622   3.208
 5480TIP3    H216405   5.646   5.694   3.198
 5481TIP3   OH216406   6.527   3.552   1.199
 5481TIP3    H116407   6.546   3.639   1.165
 5481TIP3    H216408   6.432   3.544   1.194
 5482TIP3   OH216409   4.345   6.156   3.649
 5482TIP3    H116410   4.266   6.113   3.681
 5482TIP3    H216411   4.393   6.182   3.728
 5483TIP3   OH216412   4.653   0.341   4.828
 5483TIP3    H116413   4.592   0.282   4.873
 5483TIP3    H216414   4.739   0.320   4.866
 5484TIP3   OH216415   6.367   2.436   3.417
 5484TIP3    H116416   6.321   2.406   3.496
 5484TIP3    H216417   6.347   2.369   3.351
 5485TIP3   OH216418   7.127   3.392   2.095
 5485TIP3    H116419   7.047   3.388   2.042
 5485TIP3    H216420   7.110   3.461   2.158
 5486TIP3   OH216421   4.823   5.301   3.677
 5486TIP3    H116422   4.791   5.301   3.767
 5486TIP3    H216423   4.749   5.267   3.625
 5487TIP3   OH216424   4.420   2.428   2.763
 5487TIP3    H116425   4.431   2.522   2.781
 5487TIP3    H216426   4.491   2.407   2.702
 5488TIP3   OH216427   3.269   3.993   3.953
 5488TIP3    H116428   3.217   4.044   4.015
 5488TIP3    H216429   3.326   3.940   4.008
 5489TIP3   OH216430   3.628   5.230   5.107
 5489TIP3    H116431   3.649   5.299   5.045
 5489TIP3    H216432   3.570   5.171   5.058
 5490TIP3   OH216433   4.756   1.563   3.423
 5490TIP3    H116434   4.797   1.528   3.344
 5490TIP3    H216435   4.664   1.538   3.415
 5491TIP3   OH216436   1.534   6.764   3.796
 5491TIP3    H116437   1.545   6.791   3.706
 5491TIP3    H216438   1.544   6.668   3.794
 5492TIP3   OH216439   4.235   0.333   5.131
 5492TIP3    H116440   4.151   0.303   5.164
 5492TIP3    H216441   4.299   0.302   5.195
 5493TIP3   OH216442   3.000   1.682   2.597
 5493TIP3    H116443   2.950   1.720   2.524
 5493TIP3    H216444   3.003   1.588   2.578
 5494TIP3   OH216445   4.050   1.006   4.579
 5494TIP3    H116446   4.029   1.033   4.489
 5494TIP3    H216447   3.978   0.949   4.604
 5495TIP3   OH216448   6.859   5.031   4.953
 5495TIP3    H116449   6.785   4.994   4.906
 5495TIP3    H216450   6.873   5.117   4.912
 5496TIP3   OH216451   5.362   0.913   2.557
 5496TIP3    H116452   5.436   0.974   2.562
 5496TIP3    H216453   5.286   0.967   2.578
 5497TIP3   OH216454   3.987   4.719   2.048
 5497TIP3    H116455   4.009   4.716   2.141
 5497TIP3    H216456   3.894   4.743   2.046
 5498TIP3   OH216457   1.187   1.251   1.375
 5498TIP3    H116458   1.205   1.343   1.356
 5498TIP3    H216459   1.100   1.252   1.415
 5499TIP3   OH216460   3.703   6.301   3.555
 5499TIP3    H116461   3.616   6.266   3.532
 5499TIP3    H216462   3.688   6.394   3.571
 5500TIP3   OH216463   1.830   5.934   4.311
 5500TIP3    H116464   1.860   5.969   4.227
 5500TIP3    H216465   1.809   5.843   4.293
 5501TIP3   OH216466   5.963   6.029   3.042
 5501TIP3    H116467   6.003   6.108   3.005
 5501TIP3    H216468   5.917   6.059   3.120
 5502TIP3   OH216469   0.440   4.121   0.009
 5502TIP3    H116470   0.443   4.176   0.088
 5502TIP3    H216471   0.395   4.175  -0.056
 5503TIP3   OH216472   1.174   1.729   1.088
 5503TIP3    H116473   1.153   1.643   1.051
 5503TIP3    H216474   1.257   1.753   1.046
 5504TIP3   OH216475   3.585   5.173   2.377
 5504TIP3    H116476   3.507   5.156   2.431
 5504TIP3    H216477   3.566   5.130   2.293
 5505TIP3   OH216478   0.193   0.862   5.866
 5505TIP3    H116479   0.140   0.875   5.787
 5505TIP3    H216480   0.169   0.935   5.923
 5506TIP3   OH216481   2.119   5.660   0.916
 5506TIP3    H116482   2.158   5.737   0.875
 5506TIP3    H216483   2.160   5.586   0.871
 5507TIP3   OH216484   6.896   5.156   4.515
 5507TIP3    H116485   6.959   5.194   4.576
 5507TIP3    H216486   6.838   5.228   4.493
 5508TIP3   OH216487   2.035   1.949   3.968
 5508TIP3    H116488   2.009   1.923   4.057
 5508TIP3    H216489   1.958   1.995   3.934
 5509TIP3   OH216490   0.316   0.814   4.978
 5509TIP3    H116491   0.315   0.852   5.066
 5509TIP3    H216492   0.226   0.824   4.947
 5510TIP3   OH216493   4.794   3.407   0.755
 5510TIP3    H116494   4.847   3.388   0.833
 5510TIP3    H216495   4.784   3.322   0.711
 5511TIP3   OH216496   2.645   4.889   0.519
 5511TIP3    H116497   2.696   4.918   0.595
 5511TIP3    H216498   2.562   4.936   0.527
 5512TIP3   OH216499   1.542   4.641   4.420
 5512TIP3    H116500   1.473   4.624   4.357
 5512TIP3    H216501   1.588   4.558   4.430
 5513TIP3   OH216502   0.141   0.972   5.112
 5513TIP3    H116503   0.156   1.011   5.026
 5513TIP3    H216504   0.051   0.941   5.109
 5514TIP3   OH216505   6.326   5.254   2.016
 5514TIP3    H116506   6.391   5.312   1.977
 5514TIP3    H216507   6.324   5.178   1.957
 5515TIP3   OH216508   3.429   2.359   3.083
 5515TIP3    H116509   3.482   2.410   3.022
 5515TIP3    H216510   3.481   2.356   3.163
 5516TIP3   OH216511   4.829   6.651   3.934
 5516TIP3    H116512   4.817   6.616   4.022
 5516TIP3    H216513   4.770   6.726   3.930
 5517TIP3   OH216514   0.538   4.527   3.612
 5517TIP3    H116515   0.543   4.617   3.645
 5517TIP3    H216516   0.622   4.513   3.570
 5518TIP3   OH216517   3.499   1.504   0.504
 5518TIP3    H116518   3.592   1.483   0.500
 5518TIP3    H216519   3.494   1.584   0.557
 5519TIP3   OH216520   0.006   3.844   0.407
 5519TIP3    H116521  -0.005   3.768   0.350
 5519TIP3    H216522   0.061   3.904   0.356
 5520TIP3   OH216523   2.080   1.578   1.675
 5520TIP3    H116524   1.985   1.588   1.670
 5520TIP3    H216525   2.109   1.652   1.729
 5521TIP3   OH216526   2.156   3.636   3.146
 5521TIP3    H116527   2.146   3.577   3.221
 5521TIP3    H216528   2.194   3.581   3.077
 5522TIP3   OH216529   6.043   6.486   0.228
 5522TIP3    H116530   5.986   6.409   0.227
 5522TIP3    H216531   6.130   6.450   0.249
 5523TIP3   OH216532   6.360   3.075   0.041
 5523TIP3    H116533   6.449   3.095   0.070
 5523TIP3    H216534   6.308   3.150   0.070
 5524TIP3   OH216535   6.544   1.470   5.134
 5524TIP3    H116536   6.558   1.475   5.039
 5524TIP3    H216537   6.578   1.553   5.168
 5525TIP3   OH216538   4.840   2.768   5.261
 5525TIP3    H116539   4.872   2.846   5.306
 5525TIP3    H216540   4.899   2.757   5.187
 5526TIP3   OH216541   2.777   4.449   5.643
 5526TIP3    H116542   2.802   4.376   5.587
 5526TIP3    H216543   2.747   4.517   5.582
 5527TIP3   OH216544   6.182   5.569   0.071
 5527TIP3    H116545   6.165   5.547  -0.020
 5527TIP3    H216546   6.160   5.489   0.120
 5528TIP3   OH216547   1.620   0.156   5.039
 5528TIP3    H116548   1.687   0.203   5.088
 5528TIP3    H216549   1.540   0.208   5.051
 5529TIP3   OH216550   0.020   2.154   1.964
 5529TIP3    H116551  -0.060   2.135   2.013
 5529TIP3    H216552   0.072   2.074   1.971
 5530TIP3   OH216553   2.760   2.558   3.220
 5530TIP3    H116554   2.854   2.545   3.207
 5530TIP3    H216555   2.735   2.495   3.287
 5531TIP3   OH216556   4.026   4.676   3.848
 5531TIP3    H116557   4.015   4.591   3.890
 5531TIP3    H216558   4.078   4.658   3.770
 5532TIP3   OH216559   0.393   3.436   2.265
 5532TIP3    H116560   0.361   3.432   2.355
 5532TIP3    H216561   0.389   3.345   2.234
 5533TIP3   OH216562   3.724   3.005   2.214
 5533TIP3    H116563   3.719   2.970   2.125
 5533TIP3    H216564   3.633   3.022   2.239
 5534TIP3   OH216565   3.016   5.347   3.261
 5534TIP3    H116566   3.029   5.255   3.236
 5534TIP3    H216567   2.992   5.343   3.354
 5535TIP3   OH216568   6.782   2.681   2.789
 5535TIP3    H116569   6.806   2.672   2.881
 5535TIP3    H216570   6.721   2.609   2.773
 5536TIP3   OH216571   2.375   4.791   4.897
 5536TIP3    H116572   2.341   4.715   4.850
 5536TIP3    H216573   2.452   4.758   4.943
 5537TIP3   OH216574   5.508   4.708   1.204
 5537TIP3    H116575   5.463   4.792   1.205
 5537TIP3    H216576   5.597   4.728   1.234
 5538TIP3   OH216577   5.703   5.973   3.503
 5538TIP3    H116578   5.700   5.878   3.512
 5538TIP3    H216579   5.627   5.994   3.449
 5539TIP3   OH216580   0.482   3.051   1.333
 5539TIP3    H116581   0.562   3.083   1.292
 5539TIP3    H216582   0.501   3.052   1.427
 5540TIP3   OH216583   7.053   4.168   4.344
 5540TIP3    H116584   7.001   4.100   4.300
 5540TIP3    H216585   6.990   4.237   4.365
 5541TIP3   OH216586   5.732   4.284   1.198
 5541TIP3    H116587   5.725   4.306   1.106
 5541TIP3    H216588   5.789   4.352   1.235
 5542TIP3   OH216589   5.429   2.865   3.802
 5542TIP3    H116590   5.515   2.902   3.781
 5542TIP3    H216591   5.406   2.904   3.886
 5543TIP3   OH216592   6.541   3.622   0.175
 5543TIP3    H116593   6.560   3.702   0.224
 5543TIP3    H216594   6.468   3.646   0.118
 5544TIP3   OH216595   0.731   1.895   2.205
 5544TIP3    H116596   0.706   1.836   2.276
 5544TIP3    H216597   0.680   1.864   2.130
 5545TIP3   OH216598   3.007   2.380   0.327
 5545TIP3    H116599   2.993   2.440   0.253
 5545TIP3    H216600   2.940   2.405   0.391
 5546TIP3   OH216601   4.677   1.268   4.397
 5546TIP3    H116602   4.696   1.236   4.485
 5546TIP3    H216603   4.643   1.192   4.350
 5547TIP3   OH216604   2.041   5.180   1.795
 5547TIP3    H116605   2.132   5.180   1.824
 5547TIP3    H216606   2.037   5.112   1.728
 5548TIP3   OH216607   4.548   6.012   0.331
 5548TIP3    H116608   4.617   5.974   0.278
 5548TIP3    H216609   4.525   5.943   0.393
 5549TIP3   OH216610   0.878   2.961   2.575
 5549TIP3    H116611   0.794   2.943   2.535
 5549TIP3    H216612   0.932   2.884   2.553
 5550TIP3   OH216613   5.883   2.161   3.651
 5550TIP3    H116614   5.940   2.102   3.600
 5550TIP3    H216615   5.821   2.195   3.587
 5551TIP3   OH216616   2.329   5.172   5.632
 5551TIP3    H116617   2.387   5.165   5.707
 5551TIP3    H216618   2.284   5.087   5.629
 5552TIP3   OH216619   0.568   1.138   1.705
 5552TIP3    H116620   0.562   1.159   1.798
 5552TIP3    H216621   0.483   1.101   1.683
 5553TIP3   OH216622   7.087   0.358   2.423
 5553TIP3    H116623   7.153   0.305   2.377
 5553TIP3    H216624   7.094   0.444   2.383
 5554TIP3   OH216625   2.889   2.136   2.309
 5554TIP3    H116626   2.809   2.169   2.349
 5554TIP3    H216627   2.959   2.164   2.368
 5555TIP3   OH216628   4.184   6.680   3.697
 5555TIP3    H116629   4.230   6.617   3.752
 5555TIP3    H216630   4.191   6.643   3.609
 5556TIP3   OH216631   1.383   2.759   4.563
 5556TIP3    H116632   1.306   2.813   4.544
 5556TIP3    H216633   1.427   2.748   4.479
 5557TIP3   OH216634   0.680   4.155   2.613
 5557TIP3    H116635   0.728   4.075   2.634
 5557TIP3    H216636   0.737   4.226   2.643
 5558TIP3   OH216637   3.783   3.815   4.843
 5558TIP3    H116638   3.762   3.816   4.750
 5558TIP3    H216639   3.765   3.904   4.873
 5559TIP3   OH216640   0.436   5.182   2.810
 5559TIP3    H116641   0.496   5.256   2.813
 5559TIP3    H216642   0.475   5.122   2.747
 5560TIP3   OH216643   7.131   2.410   0.755
 5560TIP3    H116644   7.148   2.405   0.849
 5560TIP3    H216645   7.083   2.330   0.735
 5561TIP3   OH216646   6.161   5.341   4.342
 5561TIP3    H116647   6.143   5.287   4.265
 5561TIP3    H216648   6.091   5.319   4.403
 5562TIP3   OH216649   3.268   2.932   2.786
 5562TIP3    H116650   3.237   3.018   2.815
 5562TIP3    H216651   3.302   2.948   2.698
 5563TIP3   OH216652   6.974   4.787   4.834
 5563TIP3    H116653   7.055   4.826   4.801
 5563TIP3    H216654   6.975   4.805   4.928
 5564TIP3   OH216655   2.005   6.316   0.159
 5564TIP3    H116656   2.032   6.253   0.226
 5564TIP3    H216657   2.053   6.290   0.081
 5565TIP3   OH216658   6.411   4.615   2.844
 5565TIP3    H116659   6.419   4.617   2.749
 5565TIP3    H216660   6.320   4.641   2.861
 5566TIP3   OH216661   0.229   5.837   0.868
 5566TIP3    H116662   0.208   5.803   0.782
 5566TIP3    H216663   0.242   5.759   0.923
 5567TIP3   OH216664   5.588   2.334   2.151
 5567TIP3    H116665   5.530   2.259   2.140
 5567TIP3    H216666   5.540   2.407   2.111
 5568TIP3   OH216667   5.987   4.095   0.980
 5568TIP3    H116668   6.069   4.063   1.018
 5568TIP3    H216669   6.010   4.127   0.893
 5569TIP3   OH216670   3.130   0.423   0.968
 5569TIP3    H116671   3.164   0.334   0.971
 5569TIP3    H216672   3.202   0.475   0.930
 5570TIP3   OH216673   0.538   5.416   3.231
 5570TIP3    H116674   0.583   5.481   3.176
 5570TIP3    H216675   0.446   5.425   3.208
 5571TIP3   OH216676   1.897   0.043   3.379
 5571TIP3    H116677   1.922   0.012   3.292
 5571TIP3    H216678   1.939   0.129   3.387
 5572TIP3   OH216679   3.226   4.700   0.390
 5572TIP3    H116680   3.222   4.781   0.440
 5572TIP3    H216681   3.158   4.710   0.323
 5573TIP3   OH216682   2.502   5.515   1.438
 5573TIP3    H116683   2.536   5.573   1.505
 5573TIP3    H216684   2.499   5.569   1.359
 5574TIP3   OH216685   5.044   4.578   4.493
 5574TIP3    H116686   4.988   4.611   4.422
 5574TIP3    H216687   4.983   4.560   4.565
 5575TIP3   OH216688   3.751   1.216   4.689
 5575TIP3    H116689   3.831   1.168   4.710
 5575TIP3    H216690   3.783   1.302   4.659
 5576TIP3   OH216691   3.978   2.080   5.283
 5576TIP3    H116692   3.934   2.153   5.238
 5576TIP3    H216693   4.036   2.123   5.345
 5577TIP3   OH216694   5.619   0.813   2.219
 5577TIP3    H116695   5.629   0.736   2.276
 5577TIP3    H216696   5.708   0.844   2.204
 5578TIP3   OH216697   2.556   1.193   0.729
 5578TIP3    H116698   2.603   1.160   0.805
 5578TIP3    H216699   2.619   1.251   0.686
 5579TIP3   OH216700   3.588   2.666   1.601
 5579TIP3    H116701   3.534   2.588   1.586
 5579TIP3    H216702   3.675   2.631   1.620
 5580TIP3   OH216703   3.362   1.424   0.023
 5580TIP3    H116704   3.447   1.395   0.054
 5580TIP3    H216705   3.375   1.514  -0.006
 5581TIP3   OH216706   1.257   6.283   2.733
 5581TIP3    H116707   1.311   6.280   2.812
 5581TIP3    H216708   1.319   6.292   2.661
 5582TIP3   OH216709   3.212   4.607   4.913
 5582TIP3    H116710   3.241   4.655   4.991
 5582TIP3    H216711   3.226   4.668   4.841
 5583TIP3   OH216712   2.498   5.422   5.387
 5583TIP3    H116713   2.440   5.346   5.396
 5583TIP3    H216714   2.440   5.497   5.380
 5584TIP3   OH216715   2.324   0.819   3.240
 5584TIP3    H116716   2.298   0.751   3.303
 5584TIP3    H216717   2.288   0.790   3.157
 5585TIP3   OH216718   4.086   5.089   2.479
 5585TIP3    H116719   4.042   5.062   2.399
 5585TIP3    H216720   4.144   5.161   2.452
 5586TIP3   OH216721   0.340   0.294   2.514
 5586TIP3    H116722   0.372   0.246   2.438
 5586TIP3    H216723   0.294   0.369   2.478
 5587TIP3   OH216724   3.170   2.488   2.161
 5587TIP3    H116725   3.220   2.566   2.184
 5587TIP3    H216726   3.180   2.430   2.236
 5588TIP3   OH216727   5.837   2.634   3.353
 5588TIP3    H116728   5.925   2.631   3.392
 5588TIP3    H216729   5.834   2.558   3.296
 5589TIP3   OH216730   1.796   4.135   1.120
 5589TIP3    H116731   1.721   4.152   1.177
 5589TIP3    H216732   1.821   4.222   1.087
 5590TIP3   OH216733   3.555   2.546   5.014
 5590TIP3    H116734   3.463   2.573   5.015
 5590TIP3    H216735   3.583   2.552   5.105
 5591TIP3   OH216736   6.836   5.458   5.245
 5591TIP3    H116737   6.892   5.523   5.288
 5591TIP3    H216738   6.779   5.425   5.314
 5592TIP3   OH216739   0.770   1.471   4.296
 5592TIP3    H116740   0.832   1.416   4.248
 5592TIP3    H216741   0.795   1.462   4.388
 5593TIP3   OH216742   0.318   4.777   0.237
 5593TIP3    H116743   0.322   4.714   0.309
 5593TIP3    H216744   0.225   4.784   0.215
 5594TIP3   OH216745   6.718   3.731   2.345
 5594TIP3    H116746   6.642   3.685   2.380
 5594TIP3    H216747   6.736   3.687   2.262
 5595TIP3   OH216748   6.062   6.743   1.168
 5595TIP3    H116749   6.044   6.811   1.232
 5595TIP3    H216750   6.132   6.779   1.113
 5596TIP3   OH216751   6.553   4.703   4.631
 5596TIP3    H116752   6.493   4.630   4.617
 5596TIP3    H216753   6.536   4.731   4.721
 5597TIP3   OH216754   0.943   0.178   5.374
 5597TIP3    H116755   0.915   0.122   5.446
 5597TIP3    H216756   0.910   0.265   5.397
 5598TIP3   OH216757   6.845   5.826   0.923
 5598TIP3    H116758   6.799   5.854   0.844
 5598TIP3    H216759   6.817   5.888   0.990
 5599TIP3   OH216760   3.522   5.802   2.637
 5599TIP3    H116761   3.450   5.764   2.687
 5599TIP3    H216762   3.537   5.741   2.565
 5600TIP3   OH216763   1.255   4.382   3.285
 5600TIP3    H116764   1.334   4.354   3.332
 5600TIP3    H216765   1.193   4.404   3.354
 5601TIP3   OH216766   1.714   4.620   3.908
 5601TIP3    H116767   1.806   4.595   3.898
 5601TIP3    H216768   1.716   4.704   3.954
 5602TIP3   OH216769   3.502   5.251   5.499
 5602TIP3    H116770   3.438   5.322   5.505
 5602TIP3    H216771   3.520   5.228   5.590
 5603TIP3   OH216772   0.762   4.053   4.613
 5603TIP3    H116773   0.750   4.091   4.526
 5603TIP3    H216774   0.838   4.099   4.648
 5604TIP3   OH216775   1.834   4.789   3.497
 5604TIP3    H116776   1.901   4.856   3.510
 5604TIP3    H216777   1.841   4.765   3.404
 5605TIP3   OH216778   6.161   1.523   3.749
 5605TIP3    H116779   6.175   1.466   3.673
 5605TIP3    H216780   6.092   1.479   3.799
 5606TIP3   OH216781   2.832   2.142   5.174
 5606TIP3    H116782   2.893   2.155   5.102
 5606TIP3    H216783   2.822   2.047   5.180
 5607TIP3   OH216784   1.429   1.768   1.259
 5607TIP3    H116785   1.428   1.840   1.196
 5607TIP3    H216786   1.510   1.781   1.309
 5608TIP3   OH216787   2.558   2.441   1.610
 5608TIP3    H116788   2.636   2.471   1.562
 5608TIP3    H216789   2.525   2.520   1.653
 5609TIP3   OH216790   2.995   0.331   0.222
 5609TIP3    H116791   3.024   0.274   0.151
 5609TIP3    H216792   2.955   0.271   0.285
 5610TIP3   OH216793   0.521   0.374   3.511
 5610TIP3    H116794   0.428   0.396   3.498
 5610TIP3    H216795   0.566   0.458   3.502
 5611TIP3   OH216796   6.365   1.490   5.495
 5611TIP3    H116797   6.370   1.403   5.455
 5611TIP3    H216798   6.434   1.490   5.561
 5612TIP3   OH216799   3.902   5.504   3.963
 5612TIP3    H116800   3.845   5.433   3.994
 5612TIP3    H216801   3.856   5.584   3.989
 5613TIP3   OH216802   5.101   2.875   4.225
 5613TIP3    H116803   5.119   2.967   4.205
 5613TIP3    H216804   5.043   2.878   4.301
 5614TIP3   OH216805   0.169   6.209   1.255
 5614TIP3    H116806   0.214   6.245   1.331
 5614TIP3    H216807   0.105   6.147   1.292
 5615TIP3   OH216808   3.743   5.645   1.337
 5615TIP3    H116809   3.827   5.660   1.380
 5615TIP3    H216810   3.760   5.660   1.244
 5616TIP3   OH216811   6.833   2.759   0.915
 5616TIP3    H116812   6.759   2.807   0.877
 5616TIP3    H216813   6.910   2.810   0.889
 5617TIP3   OH216814   6.691   3.590   1.435
 5617TIP3    H116815   6.642   3.557   1.360
 5617TIP3    H216816   6.703   3.514   1.492
 5618TIP3   OH216817   6.673   5.378   5.448
 5618TIP3    H116818   6.673   5.399   5.542
 5618TIP3    H216819   6.590   5.413   5.416
 5619TIP3   OH216820   2.207   2.387   5.832
 5619TIP3    H116821   2.115   2.376   5.856
 5619TIP3    H216822   2.229   2.308   5.783
 5620TIP3   OH216823   4.340   2.089   4.192
 5620TIP3    H116824   4.313   2.036   4.117
 5620TIP3    H216825   4.436   2.083   4.192
 5621TIP3   OH216826   3.033   3.116   1.611
 5621TIP3    H116827   2.974   3.083   1.679
 5621TIP3    H216828   2.982   3.182   1.565
 5622TIP3   OH216829   0.124   5.758   2.255
 5622TIP3    H116830   0.129   5.853   2.268
 5622TIP3    H216831   0.166   5.721   2.332
 5623TIP3   OH216832   5.257   0.030   4.526
 5623TIP3    H116833   5.211   0.095   4.472
 5623TIP3    H216834   5.314  -0.016   4.465
 5624TIP3   OH216835   6.656   3.030   1.114
 5624TIP3    H116836   6.623   3.118   1.096
 5624TIP3    H216837   6.639   2.981   1.034
 5625TIP3   OH216838   0.361   5.602   1.648
 5625TIP3    H116839   0.414   5.609   1.568
 5625TIP3    H216840   0.425   5.584   1.717
 5626TIP3   OH216841   4.570   4.096   5.656
 5626TIP3    H116842   4.553   4.123   5.565
 5626TIP3    H216843   4.659   4.127   5.673
 5627TIP3   OH216844   1.388   3.756   5.079
 5627TIP3    H116845   1.317   3.700   5.110
 5627TIP3    H216846   1.417   3.715   4.997
 5628TIP3   OH216847   4.152   5.521   0.065
 5628TIP3    H116848   4.248   5.516   0.066
 5628TIP3    H216849   4.130   5.559  -0.020
 5629TIP3   OH216850   2.505   2.572   4.801
 5629TIP3    H116851   2.540   2.562   4.889
 5629TIP3    H216852   2.557   2.642   4.762
 5630TIP3   OH216853   4.618   6.485   1.822
 5630TIP3    H116854   4.581   6.408   1.779
 5630TIP3    H216855   4.632   6.547   1.751
 5631TIP3   OH216856   4.771   3.562   3.185
 5631TIP3    H116857   4.774   3.479   3.232
 5631TIP3    H216858   4.683   3.564   3.148
 5632TIP3   OH216859   3.430   4.550   1.077
 5632TIP3    H116860   3.356   4.522   1.130
 5632TIP3    H216861   3.507   4.526   1.129
 5633TIP3   OH216862   4.238   3.663   1.185
 5633TIP3    H116863   4.154   3.617   1.179
 5633TIP3    H216864   4.251   3.676   1.279
 5634TIP3   OH216865   0.427   1.528   2.003
 5634TIP3    H116866   0.513   1.491   2.023
 5634TIP3    H216867   0.427   1.539   1.908
 5635TIP3   OH216868   2.941   2.348   2.081
 5635TIP3    H116869   3.010   2.412   2.098
 5635TIP3    H216870   2.923   2.309   2.167
 5636TIP3   OH216871   5.347   5.577   0.402
 5636TIP3    H116872   5.327   5.664   0.436
 5636TIP3    H216873   5.275   5.556   0.343
 5637TIP3   OH216874   5.718   4.626   1.029
 5637TIP3    H116875   5.710   4.638   0.935
 5637TIP3    H216876   5.629   4.640   1.063
 5638TIP3   OH216877   1.901   0.881   0.448
 5638TIP3    H116878   1.970   0.821   0.475
 5638TIP3    H216879   1.944   0.940   0.387
 5639TIP3   OH216880   5.968   2.930   4.972
 5639TIP3    H116881   6.021   2.866   4.925
 5639TIP3    H216882   5.985   3.013   4.926
 5640TIP3   OH216883   6.440   6.402   0.727
 5640TIP3    H116884   6.374   6.344   0.766
 5640TIP3    H216885   6.490   6.345   0.669
 5641TIP3   OH216886   2.944   6.072   2.353
 5641TIP3    H116887   2.956   6.042   2.443
 5641TIP3    H216888   3.012   6.138   2.340
 5642TIP3   OH216889   6.132   1.627   1.100
 5642TIP3    H116890   6.124   1.604   1.193
 5642TIP3    H216891   6.042   1.631   1.068
 5643TIP3   OH216892   0.407   6.304   3.100
 5643TIP3    H116893   0.342   6.242   3.068
 5643TIP3    H216894   0.371   6.335   3.184
 5644TIP3   OH216895   5.646   5.844   5.728
 5644TIP3    H116896   5.736   5.874   5.719
 5644TIP3    H216897   5.596   5.899   5.667
 5645TIP3   OH216898   1.743   6.013   3.367
 5645TIP3    H116899   1.717   5.955   3.295
 5645TIP3    H216900   1.738   5.958   3.445
 5646TIP3   OH216901   6.630   3.970   4.484
 5646TIP3    H116902   6.633   3.946   4.577
 5646TIP3    H216903   6.561   4.036   4.478
 5647TIP3   OH216904   3.140   1.018   3.032
 5647TIP3    H116905   3.049   0.991   3.020
 5647TIP3    H216906   3.135   1.112   3.046
 5648TIP3   OH216907   5.894   5.738   0.437
 5648TIP3    H116908   5.867   5.671   0.500
 5648TIP3    H216909   5.911   5.689   0.356
 5649TIP3   OH216910   1.719   2.972   2.483
 5649TIP3    H116911   1.711   2.973   2.388
 5649TIP3    H216912   1.632   2.946   2.514
 5650TIP3   OH216913   4.724   4.687   2.786
 5650TIP3    H116914   4.790   4.752   2.761
 5650TIP3    H216915   4.715   4.631   2.709
 5651TIP3   OH216916   2.735   0.490   1.337
 5651TIP3    H116917   2.795   0.540   1.392
 5651TIP3    H216918   2.788   0.459   1.264
 5652TIP3   OH216919   3.392   4.195   0.422
 5652TIP3    H116920   3.372   4.185   0.515
 5652TIP3    H216921   3.307   4.196   0.379
 5653TIP3   OH216922   6.995   1.190   3.046
 5653TIP3    H116923   7.027   1.259   2.988
 5653TIP3    H216924   7.070   1.132   3.058
 5654TIP3   OH216925   2.718   4.301   4.491
 5654TIP3    H116926   2.752   4.266   4.409
 5654TIP3    H216927   2.754   4.389   4.497
 5655TIP3   OH216928   3.252   5.445   3.137
 5655TIP3    H116929   3.321   5.457   3.202
 5655TIP3    H216930   3.183   5.398   3.184
 5656TIP3   OH216931   3.019   5.911   0.064
 5656TIP3    H116932   3.001   5.916  -0.030
 5656TIP3    H216933   2.940   5.872   0.102
 5657TIP3   OH216934   2.768   6.017   0.429
 5657TIP3    H116935   2.719   5.936   0.439
 5657TIP3    H216936   2.812   6.029   0.513
 5658TIP3   OH216937   4.090   6.687   4.309
 5658TIP3    H116938   4.059   6.704   4.398
 5658TIP3    H216939   4.015   6.648   4.265
 5659TIP3   OH216940   7.096   1.024   1.744
 5659TIP3    H116941   7.008   1.057   1.728
 5659TIP3    H216942   7.139   1.027   1.659
 5660TIP3   OH216943   6.358   3.808   0.360
 5660TIP3    H116944   6.275   3.824   0.316
 5660TIP3    H216945   6.335   3.783   0.449
 5661TIP3   OH216946   1.608   5.658   0.439
 5661TIP3    H116947   1.538   5.641   0.377
 5661TIP3    H216948   1.564   5.662   0.524
 5662TIP3   OH216949   3.766   4.279   2.835
 5662TIP3    H116950   3.776   4.208   2.899
 5662TIP3    H216951   3.683   4.259   2.790
 5663TIP3   OH216952  -0.010   2.856   5.839
 5663TIP3    H116953   0.054   2.919   5.807
 5663TIP3    H216954   0.037   2.773   5.842
 5664TIP3   OH216955   0.160   3.572   2.794
 5664TIP3    H116956   0.169   3.506   2.725
 5664TIP3    H216957   0.068   3.567   2.821
 5665TIP3   OH216958   0.667   1.819   5.380
 5665TIP3    H116959   0.738   1.881   5.397
 5665TIP3    H216960   0.593   1.873   5.355
 5666TIP3   OH216961   7.107   6.472   5.377
 5666TIP3    H116962   7.144   6.492   5.463
 5666TIP3    H216963   7.033   6.415   5.395
 5667TIP3   OH216964   2.852   6.658   2.732
 5667TIP3    H116965   2.942   6.634   2.710
 5667TIP3    H216966   2.849   6.753   2.720
 5668TIP3   OH216967   4.600   4.601   1.069
 5668TIP3    H116968   4.570   4.533   1.130
 5668TIP3    H216969   4.520   4.631   1.026
 5669TIP3   OH216970   4.967   1.025   0.308
 5669TIP3    H116971   4.999   0.956   0.249
 5669TIP3    H216972   4.987   1.107   0.263
 5670TIP3   OH216973   0.100   5.664   1.818
 5670TIP3    H116974   0.011   5.629   1.815
 5670TIP3    H216975   0.138   5.643   1.733
 5671TIP3   OH216976   4.909   1.278   2.548
 5671TIP3    H116977   4.928   1.301   2.639
 5671TIP3    H216978   4.814   1.266   2.546
 5672TIP3   OH216979   2.093   5.701   0.523
 5672TIP3    H116980   2.005   5.738   0.535
 5672TIP3    H216981   2.080   5.625   0.467
 5673TIP3   OH216982   5.274   5.598   3.314
 5673TIP3    H116983   5.244   5.689   3.313
 5673TIP3    H216984   5.276   5.572   3.222
 5674TIP3   OH216985   2.094   6.279   0.863
 5674TIP3    H116986   2.065   6.348   0.804
 5674TIP3    H216987   2.028   6.210   0.853
 5675TIP3   OH216988   6.106   2.654   0.338
 5675TIP3    H116989   6.125   2.568   0.300
 5675TIP3    H216990   6.035   2.689   0.284
 5676TIP3   OH216991   2.332   6.353   1.226
 5676TIP3    H116992   2.400   6.345   1.159
 5676TIP3    H216993   2.250   6.351   1.178
 5677TIP3   OH216994   5.771   1.411   3.631
 5677TIP3    H116995   5.842   1.381   3.688
 5677TIP3    H216996   5.807   1.407   3.543
 5678TIP3   OH216997   1.614   6.327   2.394
 5678TIP3    H116998   1.642   6.325   2.302
 5678TIP3    H216999   1.547   6.396   2.397
 5679TIP3   OH217000   4.869   0.369   4.463
 5679TIP3    H117001   4.813   0.412   4.527
 5679TIP3    H217002   4.821   0.291   4.437
 5680TIP3   OH217003   5.773   6.136   2.646
 5680TIP3    H117004   5.768   6.130   2.551
 5680TIP3    H217005   5.824   6.215   2.663
 5681TIP3   OH217006   6.518   6.359   1.623
 5681TIP3    H117007   6.546   6.269   1.642
 5681TIP3    H217008   6.473   6.352   1.539
 5682TIP3   OH217009   1.093   2.188   1.577
 5682TIP3    H117010   1.107   2.252   1.507
 5682TIP3    H217011   1.098   2.239   1.658
 5683TIP3   OH217012   1.491   6.151   1.648
 5683TIP3    H117013   1.519   6.061   1.665
 5683TIP3    H217014   1.572   6.199   1.633
 5684TIP3   OH217015   4.970   5.046   3.708
 5684TIP3    H117016   5.058   5.010   3.704
 5684TIP3    H217017   4.970   5.102   3.786
 5685TIP3   OH217018   5.384   2.583   3.749
 5685TIP3    H117019   5.422   2.662   3.788
 5685TIP3    H217020   5.404   2.591   3.655
 5686TIP3   OH217021   6.369   1.885   2.446
 5686TIP3    H117022   6.297   1.861   2.506
 5686TIP3    H217023   6.342   1.968   2.408
 5687TIP3   OH217024   2.801   2.410   4.246
 5687TIP3    H117025   2.823   2.324   4.211
 5687TIP3    H217026   2.737   2.391   4.315
 5688TIP3   OH217027   4.202   2.859   4.724
 5688TIP3    H117028   4.185   2.785   4.782
 5688TIP3    H217029   4.298   2.866   4.722
 5689TIP3   OH217030   2.203   2.113   0.711
 5689TIP3    H117031   2.129   2.127   0.653
 5689TIP3    H217032   2.175   2.043   0.770
 5690TIP3   OH217033   7.138   5.873   1.070
 5690TIP3    H117034   7.069   5.843   1.012
 5690TIP3    H217035   7.206   5.806   1.064
 5691TIP3   OH217036   6.992   5.219   4.191
 5691TIP3    H117037   7.034   5.169   4.261
 5691TIP3    H217038   6.983   5.156   4.118
 5692TIP3   OH217039   7.121   1.335   3.699
 5692TIP3    H117040   7.120   1.419   3.744
 5692TIP3    H217041   7.043   1.337   3.643
 5693TIP3   OH217042   1.647   3.940   0.938
 5693TIP3    H117043   1.670   3.987   1.018
 5693TIP3    H217044   1.644   3.848   0.963
 5694TIP3   OH217045   4.845   6.197   3.233
 5694TIP3    H117046   4.884   6.262   3.292
 5694TIP3    H217047   4.825   6.246   3.154
 5695TIP3   OH217048   5.583   6.613   1.083
 5695TIP3    H117049   5.667   6.636   1.043
 5695TIP3    H217050   5.596   6.524   1.117
 5696TIP3   OH217051   5.563   6.057   4.263
 5696TIP3    H117052   5.598   6.141   4.234
 5696TIP3    H217053   5.507   6.028   4.190
 5697TIP3   OH217054   6.637   1.933   4.756
 5697TIP3    H117055   6.547   1.951   4.785
 5697TIP3    H217056   6.679   2.019   4.754
 5698TIP3   OH217057   1.427   3.552   3.457
 5698TIP3    H117058   1.350   3.500   3.481
 5698TIP3    H217059   1.415   3.636   3.502
 5699TIP3   OH217060   0.786   4.150   1.247
 5699TIP3    H117061   0.817   4.240   1.239
 5699TIP3    H217062   0.805   4.126   1.338
 5700TIP3   OH217063   4.683   5.371   4.948
 5700TIP3    H117064   4.710   5.318   5.023
 5700TIP3    H217065   4.623   5.315   4.900
 5701TIP3   OH217066   6.817   6.526   5.141
 5701TIP3    H117067   6.897   6.576   5.125
 5701TIP3    H217068   6.750   6.592   5.159
 5702TIP3   OH217069   2.152   6.243   2.616
 5702TIP3    H117070   2.192   6.161   2.587
 5702TIP3    H217071   2.219   6.283   2.671
 5703TIP3   OH217072   4.138   4.842   5.019
 5703TIP3    H117073   4.079   4.780   4.976
 5703TIP3    H217074   4.224   4.802   5.014
 5704TIP3   OH217075   2.287   6.444   1.962
 5704TIP3    H117076   2.216   6.385   1.934
 5704TIP3    H217077   2.278   6.448   2.057
 5705TIP3   OH217078   0.515   3.617   2.691
 5705TIP3    H117079   0.465   3.645   2.614
 5705TIP3    H217080   0.538   3.698   2.736
 5706TIP3   OH217081   0.760   6.362   3.583
 5706TIP3    H117082   0.698   6.340   3.514
 5706TIP3    H217083   0.720   6.328   3.663
 5707TIP3   OH217084   6.847   6.736   0.439
 5707TIP3    H117085   6.936   6.748   0.407
 5707TIP3    H217086   6.795   6.721   0.360
 5708TIP3   OH217087   6.957   1.026   0.150
 5708TIP3    H117088   6.951   1.121   0.156
 5708TIP3    H217089   7.018   1.001   0.220
 5709TIP3   OH217090   4.436   3.748   4.664
 5709TIP3    H117091   4.353   3.737   4.710
 5709TIP3    H217092   4.502   3.720   4.728
 5710TIP3   OH217093   1.181   2.005  -0.023
 5710TIP3    H117094   1.264   2.031   0.018
 5710TIP3    H217095   1.118   2.007   0.048
 5711TIP3   OH217096   1.976   3.852   5.716
 5711TIP3    H117097   2.039   3.924   5.719
 5711TIP3    H217098   1.900   3.884   5.765
 5712TIP3   OH217099   5.456   6.099   2.782
 5712TIP3    H117100   5.369   6.131   2.759
 5712TIP3    H217101   5.470   6.023   2.726
 5713TIP3   OH217102   3.181   1.420   4.177
 5713TIP3    H117103   3.106   1.474   4.153
 5713TIP3    H217104   3.166   1.397   4.269
 5714TIP3   OH217105   3.041   3.120  -0.012
 5714TIP3    H117106   3.008   3.110   0.077
 5714TIP3    H217107   3.102   3.048  -0.024
 5715TIP3   OH217108   1.106   3.299   0.185
 5715TIP3    H117109   1.121   3.225   0.244
 5715TIP3    H217110   1.179   3.359   0.202
 5716TIP3   OH217111   1.369   6.752   4.762
 5716TIP3    H117112   1.405   6.683   4.817
 5716TIP3    H217113   1.316   6.805   4.822
 5717TIP3   OH217114   6.057   4.971   4.051
 5717TIP3    H117115   6.078   5.050   4.001
 5717TIP3    H217116   6.140   4.947   4.093
 5718TIP3   OH217117   0.360   3.681   0.599
 5718TIP3    H117118   0.345   3.711   0.510
 5718TIP3    H217119   0.279   3.635   0.622
 5719TIP3   OH217120   7.025   4.417   3.308
 5719TIP3    H117121   6.947   4.368   3.333
 5719TIP3    H217122   6.992   4.499   3.272
 5720TIP3   OH217123   3.859   0.455   2.129
 5720TIP3    H117124   3.939   0.431   2.082
 5720TIP3    H217125   3.868   0.549   2.146
 5721TIP3   OH217126   0.929   6.709   4.504
 5721TIP3    H117127   0.924   6.725   4.598
 5721TIP3    H217128   1.017   6.673   4.490
 5722TIP3   OH217129   5.896   5.600   4.367
 5722TIP3    H117130   5.862   5.603   4.456
 5722TIP3    H217131   5.851   5.670   4.321
 5723TIP3   OH217132   3.625   5.154   3.771
 5723TIP3    H117133   3.532   5.155   3.747
 5723TIP3    H217134   3.638   5.071   3.816
 5724TIP3   OH217135   6.199   4.202   5.526
 5724TIP3    H117136   6.256   4.236   5.457
 5724TIP3    H217137   6.128   4.158   5.479
 5725TIP3   OH217138   5.147   5.117   5.631
 5725TIP3    H117139   5.229   5.071   5.650
 5725TIP3    H217140   5.099   5.116   5.714
 5726TIP3   OH217141   1.256   5.756   4.771
 5726TIP3    H117142   1.242   5.711   4.854
 5726TIP3    H217143   1.244   5.849   4.791
 5727TIP3   OH217144   0.804   0.641   5.131
 5727TIP3    H117145   0.755   0.662   5.051
 5727TIP3    H217146   0.864   0.715   5.143
 5728TIP3   OH217147   6.589   0.896   4.063
 5728TIP3    H117148   6.595   0.828   4.130
 5728TIP3    H217149   6.670   0.888   4.013
 5729TIP3   OH217150   3.296   1.791   4.507
 5729TIP3    H117151   3.330   1.711   4.548
 5729TIP3    H217152   3.370   1.851   4.507
 5730TIP3   OH217153   7.133   1.630   2.396
 5730TIP3    H117154   7.094   1.543   2.410
 5730TIP3    H217155   7.066   1.691   2.427
 5731TIP3   OH217156   0.412   6.154   2.228
 5731TIP3    H117157   0.422   6.229   2.285
 5731TIP3    H217158   0.467   6.174   2.152
 5732TIP3   OH217159   5.605   5.654   2.070
 5732TIP3    H117160   5.591   5.627   1.979
 5732TIP3    H217161   5.585   5.747   2.071
 5733TIP3   OH217162   6.707   5.075   0.080
 5733TIP3    H117163   6.704   5.000   0.139
 5733TIP3    H217164   6.673   5.041  -0.003
 5734TIP3   OH217165   6.495   2.440   1.045
 5734TIP3    H117166   6.544   2.359   1.029
 5734TIP3    H217167   6.509   2.492   0.966
 5735TIP3   OH217168   2.130   4.275   3.792
 5735TIP3    H117169   2.063   4.285   3.725
 5735TIP3    H217170   2.118   4.350   3.850
 5736TIP3   OH217171   5.448   2.034   5.183
 5736TIP3    H117172   5.503   2.077   5.249
 5736TIP3    H217173   5.386   2.102   5.156
 5737TIP3   OH217174   0.044   3.143   4.852
 5737TIP3    H117175   0.071   3.051   4.852
 5737TIP3    H217176   0.036   3.165   4.759
 5738TIP3   OH217177   5.633   4.203   2.524
 5738TIP3    H117178   5.548   4.235   2.493
 5738TIP3    H217179   5.696   4.253   2.473
 5739TIP3   OH217180   4.193   4.049   4.096
 5739TIP3    H117181   4.108   4.023   4.062
 5739TIP3    H217182   4.227   4.111   4.031
 5740TIP3   OH217183   0.642   0.390   2.867
 5740TIP3    H117184   0.610   0.300   2.868
 5740TIP3    H217185   0.571   0.442   2.903
 5741TIP3   OH217186   0.986   3.411   2.204
 5741TIP3    H117187   0.959   3.499   2.228
 5741TIP3    H217188   0.921   3.353   2.246
 5742TIP3   OH217189   4.923   3.743   1.888
 5742TIP3    H117190   4.910   3.649   1.878
 5742TIP3    H217191   4.835   3.778   1.901
 5743TIP3   OH217192   4.881   3.249   2.455
 5743TIP3    H117193   4.798   3.225   2.498
 5743TIP3    H217194   4.863   3.334   2.416
 5744TIP3   OH217195   0.508   0.110   0.308
 5744TIP3    H117196   0.600   0.104   0.281
 5744TIP3    H217197   0.495   0.035   0.366
 5745TIP3   OH217198   6.544   4.986   5.071
 5745TIP3    H117199   6.572   5.017   5.157
 5745TIP3    H217200   6.530   5.066   5.020
 5746TIP3   OH217201   4.936   0.898   1.701
 5746TIP3    H117202   4.849   0.917   1.666
 5746TIP3    H217203   4.936   0.940   1.787
 5747TIP3   OH217204   5.351   2.556   5.016
 5747TIP3    H117205   5.295   2.491   4.975
 5747TIP3    H217206   5.292   2.627   5.040
 5748TIP3   OH217207   0.975   5.728   3.966
 5748TIP3    H117208   1.016   5.814   3.963
 5748TIP3    H217209   0.912   5.733   4.038
 5749TIP3   OH217210   4.003   2.563   4.297
 5749TIP3    H117211   4.049   2.494   4.345
 5749TIP3    H217212   3.955   2.611   4.364
 5750TIP3   OH217213   4.676   5.786   3.860
 5750TIP3    H117214   4.764   5.791   3.896
 5750TIP3    H217215   4.665   5.693   3.838
 5751TIP3   OH217216   6.265   4.704   1.851
 5751TIP3    H117217   6.249   4.691   1.944
 5751TIP3    H217218   6.355   4.676   1.838
 5752TIP3   OH217219   1.747   1.299   1.198
 5752TIP3    H117220   1.729   1.258   1.114
 5752TIP3    H217221   1.661   1.313   1.238
 5753TIP3   OH217222   0.187   5.506   4.674
 5753TIP3    H117223   0.103   5.513   4.719
 5753TIP3    H217224   0.234   5.437   4.721
 5754TIP3   OH217225   4.073   5.401   4.172
 5754TIP3    H117226   4.049   5.312   4.145
 5754TIP3    H217227   4.039   5.456   4.101
 5755TIP3   OH217228   5.723   2.887   0.847
 5755TIP3    H117229   5.716   2.932   0.762
 5755TIP3    H217230   5.773   2.948   0.901
 5756TIP3   OH217231   4.750   3.043   0.491
 5756TIP3    H117232   4.810   3.099   0.442
 5756TIP3    H217233   4.668   3.047   0.442
 5757TIP3   OH217234   5.204   6.136   5.283
 5757TIP3    H117235   5.232   6.214   5.330
 5757TIP3    H217236   5.221   6.156   5.191
 5758TIP3   OH217237   2.503   2.465   4.108
 5758TIP3    H117238   2.510   2.554   4.074
 5758TIP3    H217239   2.426   2.467   4.166
 5759TIP3   OH217240   2.706   1.750   0.886
 5759TIP3    H117241   2.652   1.773   0.961
 5759TIP3    H217242   2.796   1.754   0.920
 5760TIP3   OH217243   4.381   3.881   5.221
 5760TIP3    H117244   4.370   3.809   5.284
 5760TIP3    H217245   4.306   3.874   5.163
 5761TIP3   OH217246   0.199   6.145   5.107
 5761TIP3    H117247   0.180   6.179   5.194
 5761TIP3    H217248   0.249   6.065   5.123
 5762TIP3   OH217249   6.458   1.364   0.824
 5762TIP3    H117250   6.375   1.338   0.866
 5762TIP3    H217251   6.514   1.390   0.897
 5763TIP3   OH217252   6.012   0.105   1.287
 5763TIP3    H117253   6.035   0.114   1.195
 5763TIP3    H217254   5.982   0.192   1.313
 5764TIP3   OH217255   5.574   6.793   0.211
 5764TIP3    H117256   5.660   6.751   0.204
 5764TIP3    H217257   5.514   6.733   0.166
 5765TIP3   OH217258   3.008   6.438   3.968
 5765TIP3    H117259   2.940   6.401   3.913
 5765TIP3    H217260   2.980   6.419   4.058
 5766TIP3   OH217261   4.895   4.032   1.418
 5766TIP3    H117262   4.976   4.080   1.405
 5766TIP3    H217263   4.906   3.950   1.369
 5767TIP3   OH217264   6.178   6.469   2.790
 5767TIP3    H117265   6.134   6.404   2.845
 5767TIP3    H217266   6.266   6.433   2.776
 5768TIP3   OH217267   2.470   3.057   0.992
 5768TIP3    H117268   2.494   3.129   1.050
 5768TIP3    H217269   2.410   3.003   1.044
 5769TIP3   OH217270   2.250   4.614   3.510
 5769TIP3    H117271   2.271   4.659   3.592
 5769TIP3    H217272   2.313   4.543   3.504
 5770TIP3   OH217273   2.401   1.380   1.990
 5770TIP3    H117274   2.480   1.341   1.955
 5770TIP3    H217275   2.431   1.462   2.030
 5771TIP3   OH217276   6.345   3.794   2.047
 5771TIP3    H117277   6.348   3.724   2.112
 5771TIP3    H217278   6.304   3.868   2.093
 5772TIP3   OH217279   4.574   3.067   4.955
 5772TIP3    H117280   4.662   3.084   4.922
 5772TIP3    H217281   4.561   3.131   5.024
 5773TIP3   OH217282   5.885   3.859   5.035
 5773TIP3    H117283   5.806   3.810   5.011
 5773TIP3    H217284   5.945   3.846   4.961
 5774TIP3   OH217285   2.757   3.492   2.382
 5774TIP3    H117286   2.797   3.421   2.431
 5774TIP3    H217287   2.830   3.536   2.338
 5775TIP3   OH217288   5.832   4.476   2.092
 5775TIP3    H117289   5.806   4.511   2.007
 5775TIP3    H217290   5.899   4.411   2.072
 5776TIP3   OH217291   0.777   3.785   5.548
 5776TIP3    H117292   0.769   3.838   5.627
 5776TIP3    H217293   0.703   3.812   5.494
 5777TIP3   OH217294   6.238   5.602   2.310
 5777TIP3    H117295   6.181   5.596   2.387
 5777TIP3    H217296   6.326   5.592   2.344
 5778TIP3   OH217297   6.171   5.154   4.615
 5778TIP3    H117298   6.214   5.224   4.664
 5778TIP3    H217299   6.100   5.198   4.568
 5779TIP3   OH217300   4.191   1.982   1.892
 5779TIP3    H117301   4.159   2.045   1.957
 5779TIP3    H217302   4.111   1.949   1.851
 5780TIP3   OH217303   0.486   6.359   1.887
 5780TIP3    H117304   0.562   6.350   1.829
 5780TIP3    H217305   0.465   6.452   1.885
 5781TIP3   OH217306   4.043   4.055   1.562
 5781TIP3    H117307   4.138   4.054   1.574
 5781TIP3    H217308   4.008   4.013   1.641
 5782TIP3   OH217309   0.286   4.479   1.629
 5782TIP3    H117310   0.344   4.534   1.576
 5782TIP3    H217311   0.336   4.462   1.709
 5783TIP3   OH217312   3.650   5.597   1.968
 5783TIP3    H117313   3.640   5.688   1.940
 5783TIP3    H217314   3.585   5.550   1.916
 5784TIP3   OH217315   3.927   5.367   1.557
 5784TIP3    H117316   3.999   5.370   1.494
 5784TIP3    H217317   3.939   5.285   1.604
 5785TIP3   OH217318   0.580   2.973   1.606
 5785TIP3    H117319   0.503   2.918   1.598
 5785TIP3    H217320   0.608   2.964   1.697
 5786TIP3   OH217321   2.476   6.333   4.683
 5786TIP3    H117322   2.520   6.395   4.742
 5786TIP3    H217323   2.423   6.387   4.626
 5787TIP3   OH217324   4.389   5.993   4.310
 5787TIP3    H117325   4.331   5.977   4.236
 5787TIP3    H217326   4.413   6.086   4.302
 5788TIP3   OH217327   1.056   4.162   3.444
 5788TIP3    H117328   1.145   4.139   3.470
 5788TIP3    H217329   1.068   4.216   3.365
 5789TIP3   OH217330   1.644   3.993   3.483
 5789TIP3    H117331   1.638   3.968   3.575
 5789TIP3    H217332   1.732   3.966   3.457
 5790TIP3   OH217333   0.683   3.405   2.570
 5790TIP3    H117334   0.700   3.437   2.481
 5790TIP3    H217335   0.642   3.479   2.614
 5791TIP3   OH217336   5.227   1.744   4.694
 5791TIP3    H117337   5.213   1.813   4.758
 5791TIP3    H217338   5.319   1.720   4.703
 5792TIP3   OH217339   0.843   4.791   5.419
 5792TIP3    H117340   0.935   4.766   5.416
 5792TIP3    H217341   0.822   4.798   5.512
 5793TIP3   OH217342   0.484   5.481   5.598
 5793TIP3    H117343   0.389   5.481   5.610
 5793TIP3    H217344   0.507   5.573   5.585
 5794TIP3   OH217345   2.512   3.140   5.186
 5794TIP3    H117346   2.554   3.059   5.217
 5794TIP3    H217347   2.426   3.140   5.228
 5795TIP3   OH217348   2.262   0.045   2.602
 5795TIP3    H117349   2.330   0.008   2.659
 5795TIP3    H217350   2.294   0.133   2.581
 5796TIP3   OH217351   0.499   0.342   5.792
 5796TIP3    H117352   0.419   0.355   5.842
 5796TIP3    H217353   0.470   0.334   5.701
 5797TIP3   OH217354   4.703   0.364   0.878
 5797TIP3    H117355   4.651   0.422   0.824
 5797TIP3    H217356   4.785   0.352   0.830
 5798TIP3   OH217357   4.912   0.661   4.631
 5798TIP3    H117358   4.978   0.593   4.646
 5798TIP3    H217359   4.828   0.616   4.638
 5799TIP3   OH217360   3.010   1.875   0.690
 5799TIP3    H117361   2.941   1.896   0.628
 5799TIP3    H217362   3.008   1.945   0.754
 5800TIP3   OH217363   6.649   1.325   2.125
 5800TIP3    H117364   6.643   1.293   2.216
 5800TIP3    H217365   6.688   1.411   2.133
 5801TIP3   OH217366   3.719   1.592   5.735
 5801TIP3    H117367   3.699   1.529   5.804
 5801TIP3    H217368   3.640   1.593   5.680
 5802TIP3   OH217369   5.679   4.450   1.816
 5802TIP3    H117370   5.584   4.457   1.819
 5802TIP3    H217371   5.710   4.529   1.860
 5803TIP3   OH217372   4.118   6.106   2.664
 5803TIP3    H117373   4.077   6.030   2.706
 5803TIP3    H217374   4.108   6.089   2.570
 5804TIP3   OH217375   1.700   3.151   0.753
 5804TIP3    H117376   1.703   3.214   0.825
 5804TIP3    H217377   1.769   3.089   0.773
 5805TIP3   OH217378   2.212   6.602   2.495
 5805TIP3    H117379   2.226   6.556   2.578
 5805TIP3    H217380   2.157   6.677   2.518
 5806TIP3   OH217381   3.279   5.829   1.603
 5806TIP3    H117382   3.220   5.760   1.631
 5806TIP3    H217383   3.229   5.910   1.613
 5807TIP3   OH217384   1.476   2.525   2.739
 5807TIP3    H117385   1.425   2.519   2.820
 5807TIP3    H217386   1.562   2.490   2.761
 5808TIP3   OH217387   2.728   2.984   3.977
 5808TIP3    H117388   2.800   2.934   3.940
 5808TIP3    H217389   2.697   3.039   3.904
 5809TIP3   OH217390   5.168   3.806   0.700
 5809TIP3    H117391   5.147   3.755   0.779
 5809TIP3    H217392   5.157   3.743   0.628
 5810TIP3   OH217393   4.140   3.479   0.194
 5810TIP3    H117394   4.109   3.495   0.284
 5810TIP3    H217395   4.061   3.458   0.145
 5811TIP3   OH217396   6.580   3.833   1.703
 5811TIP3    H117397   6.528   3.878   1.769
 5811TIP3    H217398   6.541   3.746   1.696
 5812TIP3   OH217399   0.031   1.281   3.291
 5812TIP3    H117400   0.025   1.376   3.292
 5812TIP3    H217401   0.033   1.258   3.198
 5813TIP3   OH217402   2.203   0.739   2.986
 5813TIP3    H117403   2.132   0.706   2.931
 5813TIP3    H217404   2.281   0.733   2.932
 5814TIP3   OH217405   7.200   4.593   2.038
 5814TIP3    H117406   7.276   4.556   1.992
 5814TIP3    H217407   7.154   4.516   2.072
 5815TIP3   OH217408   4.721   0.795   3.126
 5815TIP3    H117409   4.645   0.740   3.109
 5815TIP3    H217410   4.789   0.760   3.069
 5816TIP3   OH217411   6.743   1.627   3.675
 5816TIP3    H117412   6.692   1.684   3.731
 5816TIP3    H217413   6.814   1.682   3.642
 5817TIP3   OH217414   6.479   3.121   4.704
 5817TIP3    H117415   6.485   3.026   4.713
 5817TIP3    H217416   6.394   3.137   4.663
 5818TIP3   OH217417   3.106   4.155   2.155
 5818TIP3    H117418   3.166   4.125   2.223
 5818TIP3    H217419   3.083   4.076   2.107
 5819TIP3   OH217420   6.430   0.530   2.255
 5819TIP3    H117421   6.346   0.570   2.233
 5819TIP3    H217422   6.407   0.446   2.295
 5820TIP3   OH217423   2.979   2.153   4.458
 5820TIP3    H117424   3.021   2.068   4.474
 5820TIP3    H217425   2.974   2.160   4.363
 5821TIP3   OH217426   6.219   2.849   5.592
 5821TIP3    H117427   6.197   2.923   5.535
 5821TIP3    H217428   6.310   2.865   5.617
 5822TIP3   OH217429   0.755   2.055   1.036
 5822TIP3    H117430   0.664   2.082   1.023
 5822TIP3    H217431   0.756   1.963   1.009
 5823TIP3   OH217432   6.246   2.230   3.953
 5823TIP3    H117433   6.285   2.182   3.880
 5823TIP3    H217434   6.158   2.253   3.922
 5824TIP3   OH217435   4.749   0.501   1.111
 5824TIP3    H117436   4.668   0.551   1.126
 5824TIP3    H217437   4.739   0.467   1.022
 5825TIP3   OH217438   2.895   1.102   1.833
 5825TIP3    H117439   2.863   1.089   1.744
 5825TIP3    H217440   2.987   1.076   1.829
 5826TIP3   OH217441   1.185   5.230   0.595
 5826TIP3    H117442   1.267   5.184   0.610
 5826TIP3    H217443   1.148   5.243   0.682
 5827TIP3   OH217444   1.756   4.782   4.289
 5827TIP3    H117445   1.827   4.810   4.348
 5827TIP3    H217446   1.689   4.748   4.347
 5828TIP3   OH217447   2.649   2.955   0.571
 5828TIP3    H117448   2.615   3.006   0.645
 5828TIP3    H217449   2.699   3.018   0.520
 5829TIP3   OH217450   6.751   4.691   2.500
 5829TIP3    H117451   6.705   4.628   2.555
 5829TIP3    H217452   6.757   4.647   2.415
 5830TIP3   OH217453   6.079   0.995   1.123
 5830TIP3    H117454   6.147   0.945   1.168
 5830TIP3    H217455   6.122   1.078   1.101
 5831TIP3   OH217456   6.638   4.575   0.742
 5831TIP3    H117457   6.661   4.492   0.701
 5831TIP3    H217458   6.648   4.558   0.836
 5832TIP3   OH217459   7.225   3.898   5.840
 5832TIP3    H117460   7.212   3.809   5.807
 5832TIP3    H217461   7.164   3.906   5.914
 5833TIP3   OH217462   4.697   3.081   2.258
 5833TIP3    H117463   4.629   3.146   2.239
 5833TIP3    H217464   4.657   3.024   2.325
 5834TIP3   OH217465   0.854   3.191   4.918
 5834TIP3    H117466   0.784   3.202   4.853
 5834TIP3    H217467   0.818   3.127   4.980
 5835TIP3   OH217468   2.310   0.863   2.475
 5835TIP3    H117469   2.388   0.808   2.471
 5835TIP3    H217470   2.266   0.849   2.391
 5836TIP3   OH217471   6.650   4.991   3.124
 5836TIP3    H117472   6.611   4.910   3.093
 5836TIP3    H217473   6.592   5.060   3.092
 5837TIP3   OH217474   3.532   3.772   3.233
 5837TIP3    H117475   3.452   3.726   3.206
 5837TIP3    H217476   3.505   3.864   3.238
 5838TIP3   OH217477   5.151   5.853   1.963
 5838TIP3    H117478   5.165   5.780   1.902
 5838TIP3    H217479   5.133   5.810   2.047
 5839TIP3   OH217480   6.147   4.424   4.864
 5839TIP3    H117481   6.078   4.473   4.909
 5839TIP3    H217482   6.119   4.423   4.773
 5840TIP3   OH217483   3.103   4.580   5.574
 5840TIP3    H117484   3.112   4.643   5.645
 5840TIP3    H217485   3.031   4.615   5.520
 5841TIP3   OH217486   6.510   1.909   3.864
 5841TIP3    H117487   6.429   1.861   3.846
 5841TIP3    H217488   6.557   1.854   3.926
 5842TIP3   OH217489   2.778   2.656   4.353
 5842TIP3    H117490   2.801   2.575   4.307
 5842TIP3    H217491   2.812   2.643   4.442
 5843TIP3   OH217492   5.107   3.707   2.672
 5843TIP3    H117493   5.117   3.780   2.733
 5843TIP3    H217494   5.194   3.666   2.668
 5844TIP3   OH217495   5.227   5.392   3.498
 5844TIP3    H117496   5.242   5.440   3.579
 5844TIP3    H217497   5.228   5.460   3.430
 5845TIP3   OH217498   1.604   2.663   4.262
 5845TIP3    H117499   1.522   2.712   4.265
 5845TIP3    H217500   1.627   2.660   4.169
 5846TIP3   OH217501   5.889   3.708   2.775
 5846TIP3    H117502   5.956   3.718   2.843
 5846TIP3    H217503   5.858   3.797   2.758
 5847TIP3   OH217504   3.323   1.831   5.409
 5847TIP3    H117505   3.338   1.905   5.467
 5847TIP3    H217506   3.262   1.775   5.456
 5848TIP3   OH217507   1.264   2.571   5.427
 5848TIP3    H117508   1.235   2.556   5.337
 5848TIP3    H217509   1.270   2.666   5.434
 5849TIP3   OH217510   2.363   2.208   0.153
 5849TIP3    H117511   2.430   2.150   0.117
 5849TIP3    H217512   2.315   2.154   0.216
 5850TIP3   OH217513   2.792   0.965   4.891
 5850TIP3    H117514   2.837   0.908   4.829
 5850TIP3    H217515   2.847   0.965   4.969
 5851TIP3   OH217516   5.237   1.147   0.034
 5851TIP3    H117517   5.268   1.110   0.117
 5851TIP3    H217518   5.155   1.191   0.056
 5852TIP3   OH217519   5.821   6.516   2.249
 5852TIP3    H117520   5.887   6.451   2.274
 5852TIP3    H217521   5.851   6.597   2.289
 5853TIP3   OH217522   1.718   4.361   0.809
 5853TIP3    H117523   1.644   4.417   0.836
 5853TIP3    H217524   1.793   4.396   0.856
 5854TIP3   OH217525   3.579   1.631   1.666
 5854TIP3    H117526   3.513   1.698   1.686
 5854TIP3    H217527   3.653   1.680   1.630
 5855TIP3   OH217528   2.394   4.641   1.078
 5855TIP3    H117529   2.371   4.566   1.025
 5855TIP3    H217530   2.415   4.710   1.015
 5856TIP3   OH217531   4.909   4.740   4.304
 5856TIP3    H117532   4.863   4.656   4.300
 5856TIP3    H217533   4.891   4.781   4.220
 5857TIP3   OH217534   4.270   1.852   2.813
 5857TIP3    H117535   4.186   1.896   2.805
 5857TIP3    H217536   4.248   1.763   2.843
 5858TIP3   OH217537   6.172   3.941   1.324
 5858TIP3    H117538   6.082   3.936   1.293
 5858TIP3    H217539   6.203   3.850   1.323
 5859TIP3   OH217540   3.323   2.369   1.962
 5859TIP3    H117541   3.270   2.417   2.026
 5859TIP3    H217542   3.261   2.312   1.918
 5860TIP3   OH217543   3.638   3.849   1.017
 5860TIP3    H117544   3.549   3.823   1.039
 5860TIP3    H217545   3.639   3.852   0.921
 5861TIP3   OH217546   6.022   0.078   2.759
 5861TIP3    H117547   6.028   0.063   2.853
 5861TIP3    H217548   6.087   0.018   2.721
 5862TIP3   OH217549   7.023   0.552   3.178
 5862TIP3    H117550   6.945   0.563   3.232
 5862TIP3    H217551   7.018   0.622   3.113
 5863TIP3   OH217552   2.993   3.298   4.127
 5863TIP3    H117553   2.950   3.232   4.182
 5863TIP3    H217554   3.047   3.247   4.067
 5864TIP3   OH217555   0.431   6.570   1.607
 5864TIP3    H117556   0.427   6.601   1.517
 5864TIP3    H217557   0.342   6.540   1.626
 5865TIP3   OH217558   3.328   2.533   1.066
 5865TIP3    H117559   3.418   2.562   1.056
 5865TIP3    H217560   3.287   2.597   1.124
 5866TIP3   OH217561   5.442   2.135   4.801
 5866TIP3    H117562   5.388   2.132   4.723
 5866TIP3    H217563   5.380   2.129   4.874
 5867TIP3   OH217564   0.239   2.023   3.091
 5867TIP3    H117565   0.329   2.056   3.091
 5867TIP3    H217566   0.198   2.067   3.165
 5868TIP3   OH217567   1.048   6.429   1.014
 5868TIP3    H117568   1.112   6.358   1.018
 5868TIP3    H217569   1.083   6.489   0.947
 5869TIP3   OH217570   1.575   6.680   5.652
 5869TIP3    H117571   1.480   6.686   5.645
 5869TIP3    H217572   1.601   6.758   5.701
 5870TIP3   OH217573   3.997   3.554   1.210
 5870TIP3    H117574   3.909   3.566   1.174
 5870TIP3    H217575   3.983   3.541   1.304
 5871TIP3   OH217576   0.872   0.698   2.110
 5871TIP3    H117577   0.965   0.703   2.087
 5871TIP3    H217578   0.845   0.611   2.081
 5872TIP3   OH217579   1.433   1.906   3.910
 5872TIP3    H117580   1.515   1.911   3.861
 5872TIP3    H217581   1.381   1.840   3.864
 5873TIP3   OH217582   1.609   3.868   3.745
 5873TIP3    H117583   1.664   3.861   3.823
 5873TIP3    H217584   1.576   3.957   3.747
 5874TIP3   OH217585   0.868   0.560   5.660
 5874TIP3    H117586   0.796   0.619   5.640
 5874TIP3    H217587   0.946   0.606   5.627
 5875TIP3   OH217588   2.162   3.188   0.165
 5875TIP3    H117589   2.097   3.137   0.117
 5875TIP3    H217590   2.218   3.226   0.098
 5876TIP3   OH217591   4.994   0.098   1.092
 5876TIP3    H117592   4.955   0.156   1.157
 5876TIP3    H217593   5.065   0.150   1.053
 5877TIP3   OH217594   4.049   3.441   5.357
 5877TIP3    H117595   3.961   3.407   5.372
 5877TIP3    H217596   4.048   3.470   5.266
 5878TIP3   OH217597   0.993   4.756   2.018
 5878TIP3    H117598   0.980   4.757   2.113
 5878TIP3    H217599   1.021   4.845   1.996
 5879TIP3   OH217600   0.951   3.674   3.133
 5879TIP3    H117601   0.984   3.756   3.097
 5879TIP3    H217602   0.998   3.606   3.084
 5880TIP3   OH217603   6.050   3.214   3.760
 5880TIP3    H117604   6.050   3.209   3.855
 5880TIP3    H217605   6.129   3.168   3.733
 5881TIP3   OH217606   0.987   6.452   5.739
 5881TIP3    H117607   0.957   6.531   5.783
 5881TIP3    H217608   1.082   6.462   5.732
 5882TIP3   OH217609   5.679   1.454   2.146
 5882TIP3    H117610   5.678   1.451   2.050
 5882TIP3    H217611   5.754   1.509   2.167
 5883TIP3   OH217612   2.797   6.345   2.547
 5883TIP3    H117613   2.740   6.357   2.623
 5883TIP3    H217614   2.878   6.309   2.582
 5884TIP3   OH217615   4.086   4.764   0.074
 5884TIP3    H117616   4.170   4.726   0.101
 5884TIP3    H217617   4.040   4.781   0.155
 5885TIP3   OH217618   2.159   2.484   2.473
 5885TIP3    H117619   2.127   2.559   2.421
 5885TIP3    H217620   2.235   2.452   2.425
 5886TIP3   OH217621   1.725   2.321   4.597
 5886TIP3    H117622   1.801   2.267   4.577
 5886TIP3    H217623   1.742   2.404   4.553
 5887TIP3   OH217624   2.436   2.860   4.657
 5887TIP3    H117625   2.522   2.859   4.616
 5887TIP3    H217626   2.452   2.894   4.745
 5888TIP3   OH217627   2.979   1.745   0.979
 5888TIP3    H117628   2.978   1.681   0.908
 5888TIP3    H217629   3.068   1.779   0.979
 5889TIP3   OH217630   3.225   0.354   3.928
 5889TIP3    H117631   3.139   0.318   3.908
 5889TIP3    H217632   3.281   0.278   3.942
 5890TIP3   OH217633   6.671   2.194   2.560
 5890TIP3    H117634   6.725   2.219   2.485
 5890TIP3    H217635   6.583   2.227   2.539
 5891TIP3   OH217636   4.966   2.733   4.040
 5891TIP3    H117637   5.017   2.794   4.093
 5891TIP3    H217638   5.032   2.682   3.992
 5892TIP3   OH217639   6.239   0.071   4.764
 5892TIP3    H117640   6.301   0.119   4.710
 5892TIP3    H217641   6.292   0.027   4.830
 5893TIP3   OH217642   1.089   5.054   5.808
 5893TIP3    H117643   1.107   4.980   5.750
 5893TIP3    H217644   1.034   5.113   5.755
 5894TIP3   OH217645   0.801   6.235   0.818
 5894TIP3    H117646   0.710   6.214   0.795
 5894TIP3    H217647   0.841   6.150   0.835
 5895TIP3   OH217648   6.551   5.431   1.193
 5895TIP3    H117649   6.514   5.479   1.267
 5895TIP3    H217650   6.477   5.384   1.154
 5896TIP3   OH217651   3.533   3.074   2.770
 5896TIP3    H117652   3.498   3.163   2.778
 5896TIP3    H217653   3.592   3.079   2.695
 5897TIP3   OH217654   4.222   0.246   5.548
 5897TIP3    H117655   4.153   0.312   5.559
 5897TIP3    H217656   4.270   0.275   5.471
 5898TIP3   OH217657   0.357   5.959   2.891
 5898TIP3    H117658   0.305   5.956   2.971
 5898TIP3    H217659   0.447   5.973   2.922
 5899TIP3   OH217660   5.916   5.991   5.715
 5899TIP3    H117661   5.922   6.081   5.684
 5899TIP3    H217662   5.977   5.942   5.659
 5900TIP3   OH217663   3.671   4.951   5.815
 5900TIP3    H117664   3.608   4.915   5.878
 5900TIP3    H217665   3.657   4.900   5.735
 5901TIP3   OH217666   0.716   5.084   1.474
 5901TIP3    H117667   0.649   5.153   1.478
 5901TIP3    H217668   0.796   5.127   1.504
 5902TIP3   OH217669   5.821   5.705   3.852
 5902TIP3    H117670   5.775   5.771   3.800
 5902TIP3    H217671   5.818   5.626   3.798
 5903TIP3   OH217672   5.503   2.199   4.436
 5903TIP3    H117673   5.419   2.220   4.477
 5903TIP3    H217674   5.487   2.210   4.342
 5904TIP3   OH217675   5.855   6.445   5.629
 5904TIP3    H117676   5.915   6.371   5.620
 5904TIP3    H217677   5.854   6.486   5.543
 5905TIP3   OH217678   0.114   2.432   1.475
 5905TIP3    H117679   0.042   2.491   1.499
 5905TIP3    H217680   0.170   2.483   1.417
 5906TIP3   OH217681   3.772   0.073   5.388
 5906TIP3    H117682   3.740   0.037   5.470
 5906TIP3    H217683   3.789  -0.003   5.333
 5907TIP3   OH217684   5.617   1.086   0.565
 5907TIP3    H117685   5.657   1.041   0.490
 5907TIP3    H217686   5.618   1.021   0.635
 5908TIP3   OH217687   0.021   0.221   3.072
 5908TIP3    H117688   0.041   0.311   3.096
 5908TIP3    H217689   0.019   0.174   3.156
 5909TIP3   OH217690   1.967   0.203   2.337
 5909TIP3    H117691   1.945   0.260   2.263
 5909TIP3    H217692   1.957   0.258   2.414
 5910TIP3   OH217693   6.840   1.172   5.492
 5910TIP3    H117694   6.818   1.201   5.404
 5910TIP3    H217695   6.908   1.106   5.480
 5911TIP3   OH217696   6.102   4.315   1.832
 5911TIP3    H117697   6.143   4.235   1.800
 5911TIP3    H217698   6.170   4.382   1.823
 5912TIP3   OH217699   4.277   5.598   1.157
 5912TIP3    H117700   4.216   5.530   1.185
 5912TIP3    H217701   4.287   5.585   1.063
 5913TIP3   OH217702   2.997   5.858   1.920
 5913TIP3    H117703   3.015   5.787   1.858
 5913TIP3    H217704   2.958   5.927   1.866
 5914TIP3   OH217705   5.779   1.534   4.062
 5914TIP3    H117706   5.791   1.546   4.156
 5914TIP3    H217707   5.846   1.588   4.021
 5915TIP3   OH217708   4.598   5.313   0.699
 5915TIP3    H117709   4.693   5.311   0.716
 5915TIP3    H217710   4.562   5.245   0.757
 5916TIP3   OH217711   2.360   3.219   5.417
 5916TIP3    H117712   2.268   3.193   5.404
 5916TIP3    H217713   2.387   3.171   5.496
 5917TIP3   OH217714   6.149   5.916   5.520
 5917TIP3    H117715   6.149   6.012   5.514
 5917TIP3    H217716   6.232   5.890   5.479
 5918TIP3   OH217717   5.999   2.796   0.589
 5918TIP3    H117718   5.931   2.738   0.624
 5918TIP3    H217719   6.044   2.744   0.522
 5919TIP3   OH217720   3.413   2.737   1.811
 5919TIP3    H117721   3.481   2.710   1.750
 5919TIP3    H217722   3.333   2.741   1.758
 5920TIP3   OH217723   2.993   1.368   4.786
 5920TIP3    H117724   3.081   1.333   4.773
 5920TIP3    H217725   2.962   1.389   4.697
 5921TIP3   OH217726   6.041   0.462   5.215
 5921TIP3    H117727   6.028   0.397   5.284
 5921TIP3    H217728   6.111   0.426   5.161
 5922TIP3   OH217729   5.390   3.296   0.263
 5922TIP3    H117730   5.305   3.299   0.220
 5922TIP3    H217731   5.438   3.370   0.227
 5923TIP3   OH217732   4.204   5.104   4.312
 5923TIP3    H117733   4.112   5.125   4.329
 5923TIP3    H217734   4.223   5.147   4.228
 5924TIP3   OH217735   2.599   0.361   3.775
 5924TIP3    H117736   2.546   0.437   3.754
 5924TIP3    H217737   2.607   0.364   3.871
 5925TIP3   OH217738   3.897   0.678   3.650
 5925TIP3    H117739   3.943   0.673   3.734
 5925TIP3    H217740   3.928   0.760   3.611
 5926TIP3   OH217741   6.014   3.763   3.007
 5926TIP3    H117742   6.052   3.700   3.068
 5926TIP3    H217743   5.988   3.836   3.063
 5927TIP3   OH217744   6.903   4.329   4.538
 5927TIP3    H117745   6.948   4.373   4.610
 5927TIP3    H217746   6.820   4.300   4.576
 5928TIP3   OH217747   2.448   1.540   0.865
 5928TIP3    H117748   2.422   1.563   0.776
 5928TIP3    H217749   2.506   1.464   0.855
 5929TIP3   OH217750   6.967   3.195   0.380
 5929TIP3    H117751   6.998   3.116   0.334
 5929TIP3    H217752   6.941   3.163   0.466
 5930TIP3   OH217753   3.927   4.514   3.068
 5930TIP3    H117754   3.886   4.462   3.137
 5930TIP3    H217755   3.991   4.455   3.029
 5931TIP3   OH217756   4.298   2.652   3.100
 5931TIP3    H117757   4.366   2.655   3.032
 5931TIP3    H217758   4.304   2.563   3.135
 5932TIP3   OH217759   4.860   0.129   0.526
 5932TIP3    H117760   4.805   0.063   0.483
 5932TIP3    H217761   4.883   0.089   0.610
 5933TIP3   OH217762   3.362   5.480   1.089
 5933TIP3    H117763   3.327   5.400   1.128
 5933TIP3    H217764   3.390   5.533   1.164
 5934TIP3   OH217765   1.618   6.600   1.330
 5934TIP3    H117766   1.580   6.516   1.355
 5934TIP3    H217767   1.574   6.623   1.248
 5935TIP3   OH217768   0.251   2.459   3.126
 5935TIP3    H117769   0.271   2.366   3.138
 5935TIP3    H217770   0.302   2.503   3.194
 5936TIP3   OH217771   0.886   1.466   3.326
 5936TIP3    H117772   0.858   1.552   3.293
 5936TIP3    H217773   0.830   1.404   3.280
 5937TIP3   OH217774   5.022   1.798   0.247
 5937TIP3    H117775   4.988   1.886   0.265
 5937TIP3    H217776   5.050   1.801   0.156
 5938TIP3   OH217777   4.546   3.094   0.299
 5938TIP3    H117778   4.554   3.061   0.210
 5938TIP3    H217779   4.585   3.181   0.296
 5939TIP3   OH217780   1.412   1.288   2.473
 5939TIP3    H117781   1.448   1.237   2.545
 5939TIP3    H217782   1.409   1.378   2.505
 5940TIP3   OH217783   2.829   6.492   3.642
 5940TIP3    H117784   2.787   6.572   3.610
 5940TIP3    H217785   2.799   6.485   3.733
 5941TIP3   OH217786   3.395   3.372   4.283
 5941TIP3    H117787   3.487   3.390   4.303
 5941TIP3    H217788   3.347   3.439   4.331
 5942TIP3   OH217789   1.050   0.825   2.405
 5942TIP3    H117790   1.029   0.893   2.341
 5942TIP3    H217791   1.007   0.854   2.486
 5943TIP3   OH217792   5.674   5.690   0.120
 5943TIP3    H117793   5.739   5.621   0.135
 5943TIP3    H217794   5.722   5.772   0.135
 5944TIP3   OH217795   1.575   5.877   5.331
 5944TIP3    H117796   1.651   5.921   5.294
 5944TIP3    H217797   1.578   5.899   5.424
 5945TIP3   OH217798   5.367   1.775   1.656
 5945TIP3    H117799   5.334   1.858   1.690
 5945TIP3    H217800   5.292   1.716   1.662
 5946TIP3   OH217801   3.948   4.292   5.359
 5946TIP3    H117802   3.931   4.361   5.296
 5946TIP3    H217803   4.033   4.315   5.398
 5947TIP3   OH217804   3.403   4.198   5.829
 5947TIP3    H117805   3.392   4.263   5.760
 5947TIP3    H217806   3.474   4.232   5.884
 5948TIP3   OH217807   3.869   2.455   3.227
 5948TIP3    H117808   3.885   2.548   3.242
 5948TIP3    H217809   3.855   2.448   3.132
 5949TIP3   OH217810   5.213   0.167   2.746
 5949TIP3    H117811   5.280   0.199   2.807
 5949TIP3    H217812   5.205   0.238   2.681
 5950TIP3   OH217813   4.791   3.278   4.945
 5950TIP3    H117814   4.775   3.304   5.036
 5950TIP3    H217815   4.784   3.360   4.895
 5951TIP3   OH217816   1.417   2.013   0.776
 5951TIP3    H117817   1.353   2.019   0.705
 5951TIP3    H217818   1.408   1.923   0.809
 5952TIP3   OH217819   5.877   1.112   5.086
 5952TIP3    H117820   5.855   1.065   5.166
 5952TIP3    H217821   5.932   1.052   5.036
 5953TIP3   OH217822   5.893   4.928   1.106
 5953TIP3    H117823   5.897   4.903   1.014
 5953TIP3    H217824   5.800   4.938   1.124
 5954TIP3   OH217825   5.699   1.536   5.484
 5954TIP3    H117826   5.704   1.442   5.466
 5954TIP3    H217827   5.681   1.576   5.399
 5955TIP3   OH217828   6.402   0.877   4.613
 5955TIP3    H117829   6.373   0.968   4.625
 5955TIP3    H217830   6.364   0.851   4.529
 5956TIP3   OH217831   3.340   2.234   4.990
 5956TIP3    H117832   3.305   2.183   4.917
 5956TIP3    H217833   3.273   2.300   5.008
 5957TIP3   OH217834   5.668   2.937   4.815
 5957TIP3    H117835   5.748   2.933   4.867
 5957TIP3    H217836   5.653   2.846   4.788
 5958TIP3   OH217837   5.867   1.752   0.371
 5958TIP3    H117838   5.949   1.722   0.332
 5958TIP3    H217839   5.821   1.672   0.395
 5959TIP3   OH217840   1.429   3.459   5.146
 5959TIP3    H117841   1.479   3.479   5.225
 5959TIP3    H217842   1.470   3.510   5.077
 5960TIP3   OH217843   3.966   3.944   3.925
 5960TIP3    H117844   3.950   3.853   3.949
 5960TIP3    H217845   3.969   3.943   3.829
 5961TIP3   OH217846   5.923   0.744   1.874
 5961TIP3    H117847   5.910   0.777   1.963
 5961TIP3    H217848   5.847   0.775   1.825
 5962TIP3   OH217849   6.744   6.198   4.711
 5962TIP3    H117850   6.709   6.218   4.798
 5962TIP3    H217851   6.666   6.185   4.656
 5963TIP3   OH217852   6.616   2.974   0.850
 5963TIP3    H117853   6.644   3.050   0.799
 5963TIP3    H217854   6.521   2.980   0.851
 5964TIP3   OH217855   0.258   1.581   0.324
 5964TIP3    H117856   0.206   1.503   0.344
 5964TIP3    H217857   0.315   1.553   0.252
 5965TIP3   OH217858   4.718   5.448   1.477
 5965TIP3    H117859   4.711   5.521   1.538
 5965TIP3    H217860   4.628   5.431   1.449
 5966TIP3   OH217861   0.689   6.694   5.189
 5966TIP3    H117862   0.600   6.658   5.194
 5966TIP3    H217863   0.740   6.641   5.251
 5967TIP3   OH217864   6.342   1.176   3.982
 5967TIP3    H117865   6.373   1.238   3.916
 5967TIP3    H217866   6.258   1.145   3.948
 5968TIP3   OH217867   1.280   5.134   1.752
 5968TIP3    H117868   1.290   5.057   1.695
 5968TIP3    H217869   1.189   5.162   1.739
 5969TIP3   OH217870   0.860   2.144   4.369
 5969TIP3    H117871   0.850   2.097   4.452
 5969TIP3    H217872   0.808   2.093   4.307
 5970TIP3   OH217873   1.666   1.519   4.727
 5970TIP3    H117874   1.709   1.593   4.684
 5970TIP3    H217875   1.736   1.475   4.776
 5971TIP3   OH217876   4.692   6.091   4.771
 5971TIP3    H117877   4.778   6.057   4.746
 5971TIP3    H217878   4.662   6.033   4.840
 5972TIP3   OH217879   6.792   5.841   2.004
 5972TIP3    H117880   6.704   5.818   2.036
 5972TIP3    H217881   6.776   5.882   1.919
 5973TIP3   OH217882   1.106   1.248   4.743
 5973TIP3    H117883   1.187   1.207   4.714
 5973TIP3    H217884   1.037   1.188   4.715
 5974TIP3   OH217885   3.768   3.471   0.345
 5974TIP3    H117886   3.842   3.525   0.374
 5974TIP3    H217887   3.809   3.391   0.312
 5975TIP3   OH217888   1.819   2.344   5.000
 5975TIP3    H117889   1.814   2.424   4.947
 5975TIP3    H217890   1.869   2.282   4.945
 5976TIP3   OH217891   1.539   0.490   1.472
 5976TIP3    H117892   1.488   0.494   1.391
 5976TIP3    H217893   1.513   0.569   1.520
 5977TIP3   OH217894   1.313   5.285   0.284
 5977TIP3    H117895   1.286   5.228   0.213
 5977TIP3    H217896   1.393   5.245   0.319
 5978TIP3   OH217897   2.718   1.546   0.714
 5978TIP3    H117898   2.705   1.614   0.781
 5978TIP3    H217899   2.684   1.585   0.634
 5979TIP3   OH217900   6.657   0.971   5.614
 5979TIP3    H117901   6.690   1.059   5.599
 5979TIP3    H217902   6.715   0.935   5.681
 5980TIP3   OH217903   6.540   4.806   5.407
 5980TIP3    H117904   6.615   4.780   5.460
 5980TIP3    H217905   6.566   4.788   5.317
 5981TIP3   OH217906   4.270   5.469   3.507
 5981TIP3    H117907   4.324   5.482   3.585
 5981TIP3    H217908   4.319   5.511   3.436
 5982TIP3   OH217909   5.756   4.671   3.112
 5982TIP3    H117910   5.797   4.730   3.175
 5982TIP3    H217911   5.826   4.613   3.084
 5983TIP3   OH217912   5.158   1.664   3.107
 5983TIP3    H117913   5.212   1.585   3.111
 5983TIP3    H217914   5.160   1.699   3.196
 5984TIP3   OH217915   3.646   3.483   1.814
 5984TIP3    H117916   3.704   3.553   1.784
 5984TIP3    H217917   3.563   3.526   1.832
 5985TIP3   OH217918   2.213   4.860   0.097
 5985TIP3    H117919   2.247   4.950   0.099
 5985TIP3    H217920   2.286   4.808   0.063
 5986TIP3   OH217921   3.601   3.685   0.260
 5986TIP3    H117922   3.662   3.753   0.289
 5986TIP3    H217923   3.654   3.605   0.260
 5987TIP3   OH217924   4.009   1.292   5.547
 5987TIP3    H117925   3.929   1.273   5.499
 5987TIP3    H217926   3.992   1.259   5.636
 5988TIP3   OH217927   2.548   4.417   5.068
 5988TIP3    H117928   2.479   4.395   5.130
 5988TIP3    H217929   2.629   4.396   5.114
 5989TIP3   OH217930   2.720   3.526   4.527
 5989TIP3    H117931   2.735   3.506   4.619
 5989TIP3    H217932   2.804   3.512   4.484
 5990TIP3   OH217933   2.348   2.479   4.334
 5990TIP3    H117934   2.287   2.440   4.396
 5990TIP3    H217935   2.337   2.573   4.347
 5991TIP3   OH217936   2.234   1.460   1.382
 5991TIP3    H117937   2.239   1.373   1.420
 5991TIP3    H217938   2.236   1.445   1.287
 5992TIP3   OH217939   1.251   4.041   2.311
 5992TIP3    H117940   1.219   3.984   2.241
 5992TIP3    H217941   1.262   3.983   2.387
 5993TIP3   OH217942   5.385   2.075   1.162
 5993TIP3    H117943   5.311   2.123   1.199
 5993TIP3    H217944   5.447   2.143   1.134
 5994TIP3   OH217945   6.817   0.880   1.693
 5994TIP3    H117946   6.872   0.865   1.771
 5994TIP3    H217947   6.875   0.860   1.620
 5995TIP3   OH217948   6.995   2.438   5.382
 5995TIP3    H117949   7.054   2.504   5.417
 5995TIP3    H217950   7.021   2.429   5.290
 5996TIP3   OH217951   6.520   6.665   1.172
 5996TIP3    H117952   6.565   6.738   1.215
 5996TIP3    H217953   6.454   6.636   1.235
 5997TIP3   OH217954   4.260   1.399   1.826
 5997TIP3    H117955   4.265   1.492   1.851
 5997TIP3    H217956   4.167   1.384   1.808
 5998TIP3   OH217957   7.036   6.447   1.665
 5998TIP3    H117958   7.075   6.396   1.736
 5998TIP3    H217959   7.101   6.446   1.595
 5999TIP3   OH217960   5.917   5.895   1.934
 5999TIP3    H117961   5.960   5.902   2.019
 5999TIP3    H217962   5.960   5.961   1.880
 6000TIP3   OH217963   5.456   1.735   0.585
 6000TIP3    H117964   5.552   1.739   0.590
 6000TIP3    H217965   5.430   1.820   0.550
 6001TIP3   OH217966   0.377   5.317   4.833
 6001TIP3    H117967   0.456   5.368   4.852
 6001TIP3    H217968   0.388   5.290   4.742
 6002TIP3   OH217969   0.355   4.692   0.831
 6002TIP3    H117970   0.372   4.619   0.772
 6002TIP3    H217971   0.427   4.688   0.894
 6003TIP3   OH217972   2.696   0.675   3.475
 6003TIP3    H117973   2.776   0.637   3.439
 6003TIP3    H217974   2.709   0.770   3.467
 6004TIP3   OH217975   1.361   3.789   3.181
 6004TIP3    H117976   1.408   3.850   3.238
 6004TIP3    H217977   1.429   3.749   3.127
 6005TIP3   OH217978   6.227   3.936   4.037
 6005TIP3    H117979   6.158   4.001   4.023
 6005TIP3    H217980   6.231   3.925   4.132
 6006TIP3   OH217981   7.071   3.479   4.300
 6006TIP3    H117982   7.165   3.465   4.286
 6006TIP3    H217983   7.060   3.472   4.394
 6007TIP3   OH217984   3.176   2.106   3.537
 6007TIP3    H117985   3.109   2.052   3.578
 6007TIP3    H217986   3.162   2.193   3.575
 6008TIP3   OH217987   4.149   1.365   0.651
 6008TIP3    H117988   4.190   1.345   0.567
 6008TIP3    H217989   4.089   1.292   0.666
 6009TIP3   OH217990   6.215   4.355   0.162
 6009TIP3    H117991   6.132   4.400   0.181
 6009TIP3    H217992   6.217   4.283   0.225
 6010TIP3   OH217993   1.515   2.690   0.283
 6010TIP3    H117994   1.452   2.716   0.216
 6010TIP3    H217995   1.600   2.707   0.244
 6011TIP3   OH217996   3.969   0.203   4.374
 6011TIP3    H117997   3.970   0.183   4.468
 6011TIP3    H217998   3.885   0.246   4.360
 6012TIP3   OH217999   6.213   2.588   2.494
 6012TIP3    H118000   6.167   2.669   2.516
 6012TIP3    H218001   6.171   2.557   2.414
 6013TIP3   OH218002   3.532   6.295   1.718
 6013TIP3    H118003   3.503   6.367   1.662
 6013TIP3    H218004   3.469   6.225   1.702
 6014TIP3   OH218005   1.305   3.802   3.887
 6014TIP3    H118006   1.244   3.872   3.865
 6014TIP3    H218007   1.250   3.731   3.919
 6015TIP3   OH218008   3.958   4.041   5.456
 6015TIP3    H118009   3.909   4.106   5.407
 6015TIP3    H218010   4.049   4.074   5.455
 6016TIP3   OH218011   3.238   6.234   5.104
 6016TIP3    H118012   3.185   6.156   5.098
 6016TIP3    H218013   3.179   6.301   5.139
 6017TIP3   OH218014   4.722   5.794   3.393
 6017TIP3    H118015   4.709   5.743   3.472
 6017TIP3    H218016   4.636   5.794   3.350
 6018TIP3   OH218017   1.017   6.302   5.516
 6018TIP3    H118018   0.988   6.346   5.596
 6018TIP3    H218019   1.110   6.323   5.510
 6019TIP3   OH218020   1.557   2.460   5.503
 6019TIP3    H118021   1.469   2.485   5.476
 6019TIP3    H218022   1.554   2.365   5.510
 6020TIP3   OH218023   6.581   4.665   5.740
 6020TIP3    H118024   6.633   4.586   5.724
 6020TIP3    H218025   6.492   4.640   5.715
 6021TIP3   OH218026   4.466   0.641   4.317
 6021TIP3    H118027   4.475   0.728   4.280
 6021TIP3    H218028   4.375   0.637   4.349
 6022TIP3   OH218029   0.983   6.707   5.877
 6022TIP3    H118030   0.967   6.783   5.933
 6022TIP3    H218031   0.932   6.725   5.798
 6023TIP3   OH218032   2.906   0.173   1.229
 6023TIP3    H118033   2.890   0.184   1.135
 6023TIP3    H218034   2.954   0.252   1.254
 6024TIP3   OH218035   2.654   1.251   1.936
 6024TIP3    H118036   2.721   1.271   1.870
 6024TIP3    H218037   2.673   1.162   1.964
 6025TIP3   OH218038   0.639   4.858   4.986
 6025TIP3    H118039   0.725   4.832   4.954
 6025TIP3    H218040   0.646   4.852   5.082
 6026TIP3   OH218041   2.137   6.394   5.091
 6026TIP3    H118042   2.106   6.393   5.000
 6026TIP3    H218043   2.203   6.462   5.093
 6027TIP3   OH218044   6.525   2.012   3.089
 6027TIP3    H118045   6.518   2.091   3.142
 6027TIP3    H218046   6.615   2.014   3.056
 6028TIP3   OH218047   1.683   4.719   5.838
 6028TIP3    H118048   1.693   4.680   5.925
 6028TIP3    H218049   1.772   4.743   5.812
 6029TIP3   OH218050   0.535   0.888   3.801
 6029TIP3    H118051   0.444   0.915   3.812
 6029TIP3    H218052   0.573   0.895   3.888
 6030TIP3   OH218053   5.643   2.184   0.385
 6030TIP3    H118054   5.672   2.275   0.392
 6030TIP3    H218055   5.719   2.137   0.349
 6031TIP3   OH218056   5.874   5.997   0.329
 6031TIP3    H118057   5.885   5.997   0.234
 6031TIP3    H218058   5.906   5.911   0.357
 6032TIP3   OH218059   0.728   6.731   5.768
 6032TIP3    H118060   0.727   6.775   5.853
 6032TIP3    H218061   0.645   6.684   5.764
 6033TIP3   OH218062   5.656   3.761   2.151
 6033TIP3    H118063   5.628   3.670   2.165
 6033TIP3    H218064   5.751   3.757   2.146
 6034TIP3   OH218065   4.881   1.359   2.039
 6034TIP3    H118066   4.881   1.290   2.106
 6034TIP3    H218067   4.925   1.319   1.964
 6035TIP3   OH218068   6.591   4.179   0.334
 6035TIP3    H118069   6.565   4.130   0.411
 6035TIP3    H218070   6.605   4.112   0.267
 6036TIP3   OH218071   2.135   4.507   3.961
 6036TIP3    H118072   2.218   4.505   4.009
 6036TIP3    H218073   2.068   4.507   4.029
 6037TIP3   OH218074   4.508   1.455   3.690
 6037TIP3    H118075   4.602   1.464   3.702
 6037TIP3    H218076   4.498   1.378   3.633
 6038TIP3   OH218077   5.376   2.207   0.868
 6038TIP3    H118078   5.302   2.253   0.907
 6038TIP3    H218079   5.445   2.211   0.934
 6039TIP3   OH218080   4.863   1.100   1.338
 6039TIP3    H118081   4.932   1.134   1.281
 6039TIP3    H218082   4.902   1.099   1.426
 6040TIP3   OH218083   6.025   0.803   5.782
 6040TIP3    H118084   5.999   0.893   5.762
 6040TIP3    H218085   5.969   0.749   5.727
 6041TIP3   OH218086   0.007   3.448   2.504
 6041TIP3    H118087   0.026   3.460   2.411
 6041TIP3    H218088   0.058   3.371   2.529
 6042TIP3   OH218089   5.162   3.712   5.068
 6042TIP3    H118090   5.158   3.807   5.062
 6042TIP3    H218091   5.194   3.694   5.157
 6043TIP3   OH218092   3.016   1.122   5.822
 6043TIP3    H118093   2.951   1.055   5.798
 6043TIP3    H218094   2.966   1.185   5.875
 6044TIP3   OH218095   5.758   6.421   4.817
 6044TIP3    H118096   5.838   6.443   4.865
 6044TIP3    H218097   5.789   6.389   4.733
 6045TIP3   OH218098   5.084   5.335   3.084
 6045TIP3    H118099   5.058   5.379   3.164
 6045TIP3    H218100   5.124   5.253   3.114
 6046TIP3   OH218101   6.379   2.603   0.328
 6046TIP3    H118102   6.297   2.649   0.346
 6046TIP3    H218103   6.361   2.552   0.249
 6047TIP3   OH218104   0.759   1.690   5.038
 6047TIP3    H118105   0.756   1.616   5.099
 6047TIP3    H218106   0.702   1.664   4.966
 6048TIP3   OH218107   1.111   3.908   3.139
 6048TIP3    H118108   1.127   3.989   3.091
 6048TIP3    H218109   1.195   3.862   3.137
 6049TIP3   OH218110   1.682   4.840   1.278
 6049TIP3    H118111   1.759   4.886   1.246
 6049TIP3    H218112   1.696   4.749   1.252
 6050TIP3   OH218113   1.568   5.291   0.041
 6050TIP3    H118114   1.493   5.351   0.034
 6050TIP3    H218115   1.528   5.204   0.048
 6051TIP3   OH218116   1.149   5.727   3.169
 6051TIP3    H118117   1.127   5.817   3.192
 6051TIP3    H218118   1.244   5.729   3.154
 6052TIP3   OH218119   2.835   4.731   5.189
 6052TIP3    H118120   2.860   4.706   5.100
 6052TIP3    H218121   2.859   4.823   5.197
 6053TIP3   OH218122   6.096   6.604   2.569
 6053TIP3    H118123   6.117   6.543   2.640
 6053TIP3    H218124   6.093   6.550   2.491
 6054TIP3   OH218125   6.320   1.887   0.862
 6054TIP3    H118126   6.390   1.937   0.821
 6054TIP3    H218127   6.363   1.808   0.896
 6055TIP3   OH218128   4.283   2.858   1.077
 6055TIP3    H118129   4.265   2.934   1.021
 6055TIP3    H218130   4.238   2.877   1.159
 6056TIP3   OH218131   2.358   3.759   2.074
 6056TIP3    H118132   2.346   3.731   1.983
 6056TIP3    H218133   2.444   3.726   2.098
 6057TIP3   OH218134   2.737   1.631   2.665
 6057TIP3    H118135   2.820   1.602   2.628
 6057TIP3    H218136   2.738   1.598   2.755
 6058TIP3   OH218137   5.768   4.104   4.712
 6058TIP3    H118138   5.733   4.025   4.670
 6058TIP3    H218139   5.863   4.096   4.702
 6059TIP3   OH218140   4.402   1.981   3.657
 6059TIP3    H118141   4.461   2.015   3.589
 6059TIP3    H218142   4.415   1.887   3.656
 6060TIP3   OH218143   4.481   3.570   2.273
 6060TIP3    H118144   4.570   3.603   2.258
 6060TIP3    H218145   4.456   3.607   2.358
 6061TIP3   OH218146   4.397   1.267   1.482
 6061TIP3    H118147   4.432   1.277   1.570
 6061TIP3    H218148   4.304   1.246   1.495
 6062TIP3   OH218149   3.851   2.850   5.523
 6062TIP3    H118150   3.843   2.894   5.438
 6062TIP3    H218151   3.762   2.820   5.542
 6063TIP3   OH218152   3.347   2.624   5.717
 6063TIP3    H118153   3.351   2.605   5.623
 6063TIP3    H218154   3.261   2.664   5.729
 6064TIP3   OH218155   2.487   3.389   0.835
 6064TIP3    H118156   2.508   3.356   0.747
 6064TIP3    H218157   2.491   3.485   0.826
 6065TIP3   OH218158   3.926   5.211   0.610
 6065TIP3    H118159   3.958   5.216   0.700
 6065TIP3    H218160   3.837   5.177   0.618
 6066TIP3   OH218161   3.769   2.427   1.355
 6066TIP3    H118162   3.707   2.415   1.283
 6066TIP3    H218163   3.835   2.359   1.341
 6067TIP3   OH218164   2.026   0.242   1.231
 6067TIP3    H118165   2.031   0.338   1.224
 6067TIP3    H218166   2.076   0.221   1.310
 6068TIP3   OH218167   1.315   6.512   0.917
 6068TIP3    H118168   1.289   6.514   1.009
 6068TIP3    H218169   1.328   6.419   0.898
 6069TIP3   OH218170   6.202   4.776   1.010
 6069TIP3    H118171   6.233   4.745   1.095
 6069TIP3    H218172   6.246   4.719   0.947
 6070TIP3   OH218173   1.031   5.731   0.330
 6070TIP3    H118174   1.065   5.641   0.327
 6070TIP3    H218175   0.941   5.722   0.361
 6071TIP3   OH218176   0.212   6.356   1.512
 6071TIP3    H118177   0.171   6.442   1.521
 6071TIP3    H218178   0.155   6.297   1.561
 6072TIP3   OH218179   4.336   0.515   2.304
 6072TIP3    H118180   4.372   0.433   2.271
 6072TIP3    H218181   4.295   0.555   2.227
 6073TIP3   OH218182   2.465   0.211   2.023
 6073TIP3    H118183   2.527   0.235   1.954
 6073TIP3    H218184   2.513   0.150   2.079
 6074TIP3   OH218185   4.497   1.307   1.737
 6074TIP3    H118186   4.554   1.376   1.770
 6074TIP3    H218187   4.410   1.330   1.768
 6075TIP3   OH218188   0.595   5.613   2.376
 6075TIP3    H118189   0.686   5.637   2.360
 6075TIP3    H218190   0.589   5.600   2.470
 6076TIP3   OH218191   3.782   4.226   0.151
 6076TIP3    H118192   3.726   4.175   0.093
 6076TIP3    H218193   3.750   4.206   0.239
 6077TIP3   OH218194   2.628   5.999   3.647
 6077TIP3    H118195   2.555   5.999   3.708
 6077TIP3    H218196   2.614   6.076   3.592
 6078TIP3   OH218197   6.147   5.033   0.197
 6078TIP3    H118198   6.183   4.984   0.272
 6078TIP3    H218199   6.088   4.972   0.154
 6079TIP3   OH218200   1.233   3.142   2.057
 6079TIP3    H118201   1.180   3.080   2.108
 6079TIP3    H218202   1.219   3.117   1.966
 6080TIP3   OH218203   0.035   3.112   2.100
 6080TIP3    H118204   0.126   3.124   2.126
 6080TIP3    H218205  -0.003   3.200   2.105
 6081TIP3   OH218206   3.281   2.967   0.287
 6081TIP3    H118207   3.233   3.021   0.349
 6081TIP3    H218208   3.301   3.026   0.214
 6082TIP3   OH218209   4.735   5.814   0.349
 6082TIP3    H118210   4.830   5.818   0.337
 6082TIP3    H218211   4.724   5.785   0.440
 6083TIP3   OH218212   0.883   4.316   5.453
 6083TIP3    H118213   0.868   4.319   5.359
 6083TIP3    H218214   0.970   4.352   5.466
 6084TIP3   OH218215   7.069   2.313   5.135
 6084TIP3    H118216   7.144   2.357   5.094
 6084TIP3    H218217   7.028   2.264   5.064
 6085TIP3   OH218218   4.427   2.546   3.953
 6085TIP3    H118219   4.486   2.489   4.002
 6085TIP3    H218220   4.345   2.544   4.003
 6086TIP3   OH218221   1.038   6.184   2.856
 6086TIP3    H118222   0.992   6.267   2.866
 6086TIP3    H218223   1.123   6.208   2.820
 6087TIP3   OH218224   5.923   5.474   1.384
 6087TIP3    H118225   5.933   5.563   1.418
 6087TIP3    H218226   5.972   5.419   1.445
 6088TIP3   OH218227   4.231   4.593   1.988
 6088TIP3    H118228   4.302   4.652   1.963
 6088TIP3    H218229   4.151   4.640   1.967
 6089TIP3   OH218230   1.782   4.530   4.781
 6089TIP3    H118231   1.849   4.599   4.784
 6089TIP3    H218232   1.765   4.518   4.688
 6090TIP3   OH218233   2.637   5.495   4.123
 6090TIP3    H118234   2.721   5.464   4.158
 6090TIP3    H218235   2.608   5.426   4.064
 6091TIP3   OH218236   4.810   1.162   4.091
 6091TIP3    H118237   4.805   1.244   4.042
 6091TIP3    H218238   4.719   1.140   4.111
 6092TIP3   OH218239   5.974   1.360   2.451
 6092TIP3    H118240   6.042   1.379   2.515
 6092TIP3    H218241   5.892   1.371   2.498
 6093TIP3   OH218242   0.465   1.453   5.074
 6093TIP3    H118243   0.408   1.398   5.128
 6093TIP3    H218244   0.535   1.481   5.133
 6094TIP3   OH218245   3.144   4.568   3.180
 6094TIP3    H118246   3.075   4.590   3.244
 6094TIP3    H218247   3.157   4.474   3.190
 6095TIP3   OH218248   1.867   5.082   5.640
 6095TIP3    H118249   1.859   5.035   5.722
 6095TIP3    H218250   1.898   5.169   5.664
 6096TIP3   OH218251   1.138   4.775   4.421
 6096TIP3    H118252   1.185   4.851   4.454
 6096TIP3    H218253   1.078   4.810   4.355
 6097TIP3   OH218254   0.088   6.387   4.699
 6097TIP3    H118255   0.030   6.356   4.630
 6097TIP3    H218256   0.155   6.438   4.654
 6098TIP3   OH218257   4.233   4.576   5.116
 6098TIP3    H118258   4.152   4.571   5.166
 6098TIP3    H218259   4.224   4.507   5.050
 6099TIP3   OH218260   2.481   3.416   1.810
 6099TIP3    H118261   2.576   3.429   1.809
 6099TIP3    H218262   2.445   3.501   1.788
 6100TIP3   OH218263   2.067   3.507   2.220
 6100TIP3    H118264   2.034   3.598   2.219
 6100TIP3    H218265   2.094   3.491   2.130
 6101TIP3   OH218266   1.799   6.095   2.946
 6101TIP3    H118267   1.806   6.029   3.015
 6101TIP3    H218268   1.836   6.052   2.868
 6102TIP3   OH218269   4.712   1.155   1.778
 6102TIP3    H118270   4.646   1.219   1.753
 6102TIP3    H218271   4.691   1.077   1.727
 6103TIP3   OH218272   4.250   3.579   3.170
 6103TIP3    H118273   4.290   3.492   3.170
 6103TIP3    H218274   4.161   3.564   3.202
 6104TIP3   OH218275   6.266   3.263   1.647
 6104TIP3    H118276   6.196   3.279   1.711
 6104TIP3    H218277   6.252   3.329   1.579
 6105TIP3   OH218278   2.633   1.503   3.879
 6105TIP3    H118279   2.572   1.516   3.806
 6105TIP3    H218280   2.711   1.553   3.854
 6106TIP3   OH218281   7.084   5.372   3.040
 6106TIP3    H118282   7.044   5.410   3.118
 6106TIP3    H218283   7.017   5.315   3.003
 6107TIP3   OH218284   5.254   6.082   2.232
 6107TIP3    H118285   5.252   6.157   2.172
 6107TIP3    H218286   5.313   6.109   2.302
 6108TIP3   OH218287   2.216   0.031   0.797
 6108TIP3    H118288   2.229   0.057   0.706
 6108TIP3    H218289   2.122   0.042   0.812
 6109TIP3   OH218290   5.176   4.735   3.212
 6109TIP3    H118291   5.246   4.684   3.172
 6109TIP3    H218292   5.126   4.770   3.138
 6110TIP3   OH218293   1.460   6.495   2.813
 6110TIP3    H118294   1.437   6.572   2.866
 6110TIP3    H218295   1.554   6.484   2.827
 6111TIP3   OH218296   0.869   5.946   0.831
 6111TIP3    H118297   0.933   5.956   0.902
 6111TIP3    H218298   0.882   5.857   0.799
 6112TIP3   OH218299   2.015   3.374   4.607
 6112TIP3    H118300   1.996   3.385   4.513
 6112TIP3    H218301   2.089   3.314   4.610
 6113TIP3   OH218302   3.152   4.555   0.948
 6113TIP3    H118303   3.117   4.468   0.968
 6113TIP3    H218304   3.080   4.615   0.966
 6114TIP3   OH218305   3.731   5.346   4.101
 6114TIP3    H118306   3.675   5.284   4.147
 6114TIP3    H218307   3.789   5.381   4.169
 6115TIP3   OH218308   1.813   3.891   1.811
 6115TIP3    H118309   1.886   3.835   1.785
 6115TIP3    H218310   1.767   3.841   1.878
 6116TIP3   OH218311   4.949   4.446   2.958
 6116TIP3    H118312   4.873   4.406   2.914
 6116TIP3    H218313   4.919   4.533   2.982
 6117TIP3   OH218314   6.026   3.123   4.812
 6117TIP3    H118315   6.027   3.099   4.719
 6117TIP3    H218316   6.046   3.217   4.813
 6118TIP3   OH218317   3.107   1.095   4.511
 6118TIP3    H118318   3.148   1.008   4.516
 6118TIP3    H218319   3.061   1.095   4.427
 6119TIP3   OH218320   0.670   5.442   0.458
 6119TIP3    H118321   0.577   5.454   0.478
 6119TIP3    H218322   0.693   5.360   0.501
 6120TIP3   OH218323   3.317   2.327   0.278
 6120TIP3    H118324   3.316   2.366   0.190
 6120TIP3    H218325   3.226   2.332   0.307
 6121TIP3   OH218326   1.893   2.966   3.586
 6121TIP3    H118327   1.861   3.031   3.648
 6121TIP3    H218328   1.953   3.014   3.529
 6122TIP3   OH218329   2.313   0.563   3.461
 6122TIP3    H118330   2.333   0.588   3.552
 6122TIP3    H218331   2.393   0.519   3.431
 6123TIP3   OH218332   6.234   5.986   0.410
 6123TIP3    H118333   6.264   6.042   0.339
 6123TIP3    H218334   6.233   5.898   0.372
 6124TIP3   OH218335   1.687   5.955   4.704
 6124TIP3    H118336   1.758   5.930   4.762
 6124TIP3    H218337   1.631   6.012   4.757
 6125TIP3   OH218338   1.887   6.116   5.650
 6125TIP3    H118339   1.953   6.114   5.719
 6125TIP3    H218340   1.810   6.157   5.689
 6126TIP3   OH218341   5.406   2.697   0.042
 6126TIP3    H118342   5.425   2.779  -0.004
 6126TIP3    H218343   5.465   2.697   0.117
 6127TIP3   OH218344   3.459   0.973   5.365
 6127TIP3    H118345   3.540   0.943   5.406
 6127TIP3    H218346   3.482   0.985   5.273
 6128TIP3   OH218347   3.666   2.899   4.610
 6128TIP3    H118348   3.612   2.926   4.684
 6128TIP3    H218349   3.618   2.929   4.533
 6129TIP3   OH218350   3.682   0.240   2.045
 6129TIP3    H118351   3.603   0.286   2.018
 6129TIP3    H218352   3.726   0.300   2.105
 6130TIP3   OH218353   5.857   4.958   0.019
 6130TIP3    H118354   5.904   4.879   0.042
 6130TIP3    H218355   5.774   4.927  -0.017
 6131TIP3   OH218356   2.942   1.391   2.616
 6131TIP3    H118357   2.865   1.357   2.571
 6131TIP3    H218358   2.936   1.355   2.705
 6132TIP3   OH218359   4.508   6.213   3.882
 6132TIP3    H118360   4.594   6.226   3.842
 6132TIP3    H218361   4.483   6.299   3.915
 6133TIP3   OH218362   3.129   0.162   0.036
 6133TIP3    H118363   3.194   0.161  -0.034
 6133TIP3    H218364   3.135   0.075   0.075
 6134TIP3   OH218365   3.120   0.666   1.993
 6134TIP3    H118366   3.140   0.599   1.928
 6134TIP3    H218367   3.065   0.729   1.946
 6135TIP3   OH218368   5.743   1.561   0.742
 6135TIP3    H118369   5.672   1.575   0.805
 6135TIP3    H218370   5.713   1.488   0.688
 6136TIP3   OH218371   5.234   5.865   4.500
 6136TIP3    H118372   5.167   5.910   4.448
 6136TIP3    H218373   5.221   5.773   4.479
 6137TIP3   OH218374   6.793   6.661   3.571
 6137TIP3    H118375   6.759   6.581   3.531
 6137TIP3    H218376   6.783   6.728   3.504
 6138TIP3   OH218377   6.800   2.645   3.309
 6138TIP3    H118378   6.767   2.723   3.354
 6138TIP3    H218379   6.894   2.646   3.326
 6139TIP3   OH218380   4.689   3.077   3.630
 6139TIP3    H118381   4.690   3.171   3.614
 6139TIP3    H218382   4.614   3.063   3.688
 6140TIP3   OH218383   5.219   1.350   2.399
 6140TIP3    H118384   5.204   1.296   2.477
 6140TIP3    H218385   5.256   1.290   2.335
 6141TIP3   OH218386   6.670   1.120   0.991
 6141TIP3    H118387   6.703   1.158   1.072
 6141TIP3    H218388   6.729   1.153   0.923
 6142TIP3   OH218389   1.877   3.198   3.207
 6142TIP3    H118390   1.899   3.286   3.180
 6142TIP3    H218391   1.833   3.209   3.292
 6143TIP3   OH218392   0.635   2.792   5.687
 6143TIP3    H118393   0.725   2.808   5.715
 6143TIP3    H218394   0.643   2.725   5.618
 6144TIP3   OH218395   1.162   5.545   0.580
 6144TIP3    H118396   1.203   5.606   0.518
 6144TIP3    H218397   1.181   5.458   0.544
 6145TIP3   OH218398   0.993   3.002   1.582
 6145TIP3    H118399   0.911   2.972   1.541
 6145TIP3    H218400   1.024   3.072   1.525
 6146TIP3   OH218401   5.228   1.860   5.427
 6146TIP3    H118402   5.319   1.829   5.430
 6146TIP3    H218403   5.222   1.911   5.347
 6147TIP3   OH218404   0.344   0.694   5.674
 6147TIP3    H118405   0.264   0.657   5.634
 6147TIP3    H218406   0.328   0.788   5.676
 6148TIP3   OH218407   4.553   4.444   2.018
 6148TIP3    H118408   4.510   4.518   2.062
 6148TIP3    H218409   4.604   4.484   1.948
 6149TIP3   OH218410   0.353   2.138   2.720
 6149TIP3    H118411   0.287   2.203   2.698
 6149TIP3    H218412   0.436   2.180   2.700
 6150TIP3   OH218413   4.321   4.884   2.692
 6150TIP3    H118414   4.412   4.887   2.723
 6150TIP3    H218415   4.269   4.870   2.771
 6151TIP3   OH218416   1.780   6.116   5.051
 6151TIP3    H118417   1.718   6.044   5.045
 6151TIP3    H218418   1.852   6.081   5.105
 6152TIP3   OH218419   0.378   2.932   4.400
 6152TIP3    H118420   0.326   2.954   4.477
 6152TIP3    H218421   0.469   2.940   4.430
 6153TIP3   OH218422   1.140   5.012   1.430
 6153TIP3    H118423   1.228   4.994   1.463
 6153TIP3    H218424   1.098   5.060   1.502
 6154TIP3   OH218425   2.393   2.900   0.738
 6154TIP3    H118426   2.412   2.951   0.817
 6154TIP3    H218427   2.362   2.965   0.675
 6155TIP3   OH218428   1.433   6.011   3.303
 6155TIP3    H118429   1.492   6.079   3.337
 6155TIP3    H218430   1.427   5.947   3.374
 6156TIP3   OH218431   4.970   5.000   5.051
 6156TIP3    H118432   5.012   5.084   5.034
 6156TIP3    H218433   4.936   5.007   5.140
 6157TIP3   OH218434   3.036   4.801   3.581
 6157TIP3    H118435   2.991   4.784   3.499
 6157TIP3    H218436   3.012   4.729   3.638
 6158TIP3   OH218437   0.749   3.167   0.438
 6158TIP3    H118438   0.732   3.077   0.412
 6158TIP3    H218439   0.819   3.196   0.379
 6159TIP3   OH218440   1.964   1.240   1.423
 6159TIP3    H118441   2.054   1.272   1.431
 6159TIP3    H218442   1.941   1.254   1.331
 6160TIP3   OH218443   5.253   3.155   2.187
 6160TIP3    H118444   5.224   3.207   2.261
 6160TIP3    H218445   5.349   3.159   2.191
 6161TIP3   OH218446   7.003   6.615   3.788
 6161TIP3    H118447   6.955   6.601   3.706
 6161TIP3    H218448   7.005   6.711   3.798
 6162TIP3   OH218449   2.845   6.556   5.174
 6162TIP3    H118450   2.854   6.651   5.184
 6162TIP3    H218451   2.879   6.538   5.087
 6163TIP3   OH218452   2.989   0.870   0.668
 6163TIP3    H118453   2.897   0.846   0.674
 6163TIP3    H218454   2.989   0.966   0.672
 6164TIP3   OH218455   6.823   2.260   1.962
 6164TIP3    H118456   6.740   2.249   1.917
 6164TIP3    H218457   6.858   2.343   1.928
 6165TIP3   OH218458   2.616   1.732   5.760
 6165TIP3    H118459   2.524   1.748   5.779
 6165TIP3    H218460   2.628   1.763   5.670
 6166TIP3   OH218461   1.428   4.821   0.424
 6166TIP3    H118462   1.498   4.758   0.408
 6166TIP3    H218463   1.361   4.801   0.359
 6167TIP3   OH218464   2.667   3.748   2.942
 6167TIP3    H118465   2.738   3.789   2.892
 6167TIP3    H218466   2.621   3.821   2.983
 6168TIP3   OH218467   0.782   2.329   0.082
 6168TIP3    H118468   0.794   2.247   0.035
 6168TIP3    H218469   0.794   2.305   0.174
 6169TIP3   OH218470   1.025   0.827   4.139
 6169TIP3    H118471   0.975   0.747   4.126
 6169TIP3    H218472   1.101   0.817   4.082
 6170TIP3   OH218473   5.451   4.649   3.915
 6170TIP3    H118474   5.521   4.623   3.856
 6170TIP3    H218475   5.383   4.686   3.857
 6171TIP3   OH218476   5.311   6.673   1.357
 6171TIP3    H118477   5.312   6.768   1.366
 6171TIP3    H218478   5.334   6.657   1.266
 6172TIP3   OH218479   5.245   0.464   1.129
 6172TIP3    H118480   5.177   0.510   1.079
 6172TIP3    H218481   5.249   0.512   1.212
 6173TIP3   OH218482   4.081   5.408   3.270
 6173TIP3    H118483   4.053   5.379   3.183
 6173TIP3    H218484   4.038   5.493   3.281
 6174TIP3   OH218485   5.459   0.933   3.738
 6174TIP3    H118486   5.410   1.011   3.713
 6174TIP3    H218487   5.401   0.886   3.798
 6175TIP3   OH218488   3.140  -0.027   1.252
 6175TIP3    H118489   3.196   0.026   1.196
 6175TIP3    H218490   3.056   0.018   1.252
 6176TIP3   OH218491   3.633   2.123   4.855
 6176TIP3    H118492   3.579   2.134   4.934
 6176TIP3    H218493   3.579   2.161   4.784
 6177TIP3   OH218494   5.524   3.095   0.674
 6177TIP3    H118495   5.492   3.013   0.636
 6177TIP3    H218496   5.462   3.162   0.645
 6178TIP3   OH218497   0.799   4.983   5.860
 6178TIP3    H118498   0.852   5.046   5.909
 6178TIP3    H218499   0.847   4.900   5.868
 6179TIP3   OH218500   5.191   0.337   2.534
 6179TIP3    H118501   5.200   0.430   2.554
 6179TIP3    H218502   5.168   0.335   2.441
 6180TIP3   OH218503   6.385   0.041   3.756
 6180TIP3    H118504   6.451  -0.018   3.720
 6180TIP3    H218505   6.303   0.012   3.715
 6181TIP3   OH218506   3.852   6.150   3.090
 6181TIP3    H118507   3.828   6.156   2.997
 6181TIP3    H218508   3.804   6.221   3.132
 6182TIP3   OH218509   2.399   6.691   0.412
 6182TIP3    H118510   2.371   6.731   0.329
 6182TIP3    H218511   2.331   6.626   0.431
 6183TIP3   OH218512   1.169   4.342   1.475
 6183TIP3    H118513   1.178   4.300   1.561
 6183TIP3    H218514   1.201   4.431   1.489
 6184TIP3   OH218515   2.511   3.348   5.010
 6184TIP3    H118516   2.531   3.259   5.040
 6184TIP3    H218517   2.435   3.374   5.063
 6185TIP3   OH218518   3.516   1.846   2.493
 6185TIP3    H118519   3.526   1.896   2.574
 6185TIP3    H218520   3.461   1.900   2.437
 6186TIP3   OH218521   1.264   2.153   4.756
 6186TIP3    H118522   1.252   2.192   4.669
 6186TIP3    H218523   1.354   2.174   4.779
 6187TIP3   OH218524   3.042   2.520   2.580
 6187TIP3    H118525   3.135   2.531   2.602
 6187TIP3    H218526   2.999   2.596   2.619
 6188TIP3   OH218527   3.473   1.973   0.175
 6188TIP3    H118528   3.458   1.930   0.260
 6188TIP3    H218529   3.502   2.061   0.198
 6189TIP3   OH218530   3.726   4.378   5.110
 6189TIP3    H118531   3.662   4.440   5.143
 6189TIP3    H218532   3.675   4.315   5.059
 6190TIP3   OH218533   3.622   5.920   3.641
 6190TIP3    H118534   3.702   5.867   3.648
 6190TIP3    H218535   3.603   5.946   3.731
 6191TIP3   OH218536   3.540   2.006   0.575
 6191TIP3    H118537   3.445   2.018   0.577
 6191TIP3    H218538   3.569   2.034   0.662
 6192TIP3   OH218539   1.003   0.326   0.199
 6192TIP3    H118540   1.068   0.394   0.217
 6192TIP3    H218541   1.005   0.269   0.276
 6193TIP3   OH218542   1.069   3.459   3.006
 6193TIP3    H118543   1.135   3.496   2.946
 6193TIP3    H218544   1.121   3.414   3.073
 6194TIP3   OH218545   4.558   3.909   4.481
 6194TIP3    H118546   4.503   3.861   4.544
 6194TIP3    H218547   4.533   3.873   4.396
 6195TIP3   OH218548   1.994   3.020   4.272
 6195TIP3    H118549   1.997   3.113   4.252
 6195TIP3    H218550   1.929   3.011   4.341
 6196TIP3   OH218551   2.591   6.631   1.222
 6196TIP3    H118552   2.594   6.702   1.158
 6196TIP3    H218553   2.498   6.615   1.235
 6197TIP3   OH218554   1.348   1.814   4.485
 6197TIP3    H118555   1.362   1.755   4.410
 6197TIP3    H218556   1.289   1.766   4.543
 6198TIP3   OH218557   5.891   5.588   2.732
 6198TIP3    H118558   5.855   5.511   2.776
 6198TIP3    H218559   5.934   5.637   2.802
 6199TIP3   OH218560   0.432   3.892   1.319
 6199TIP3    H118561   0.454   3.865   1.408
 6199TIP3    H218562   0.353   3.946   1.329
 6200TIP3   OH218563   7.156   5.455   1.139
 6200TIP3    H118564   7.168   5.493   1.052
 6200TIP3    H218565   7.086   5.507   1.179
 6201TIP3   OH218566   5.919   4.240   1.477
 6201TIP3    H118567   5.909   4.307   1.545
 6201TIP3    H218568   5.841   4.186   1.485
 6202TIP3   OH218569   6.585   4.581   3.051
 6202TIP3    H118570   6.574   4.640   3.126
 6202TIP3    H218571   6.522   4.614   2.986
 6203TIP3   OH218572   6.134   5.823   2.521
 6203TIP3    H118573   6.113   5.877   2.597
 6203TIP3    H218574   6.136   5.734   2.556
 6204TIP3   OH218575   6.469   5.080   2.205
 6204TIP3    H118576   6.515   5.139   2.265
 6204TIP3    H218577   6.429   5.137   2.140
 6205TIP3   OH218578   4.228   6.405   3.514
 6205TIP3    H118579   4.268   6.342   3.574
 6205TIP3    H218580   4.185   6.352   3.448
 6206TIP3   OH218581   5.589   3.745   2.422
 6206TIP3    H118582   5.588   3.783   2.334
 6206TIP3    H218583   5.673   3.699   2.428
 6207TIP3   OH218584   4.887   4.850   1.929
 6207TIP3    H118585   4.837   4.923   1.892
 6207TIP3    H218586   4.892   4.869   2.022
 6208TIP3   OH218587   4.952   4.929   4.527
 6208TIP3    H118588   4.948   4.882   4.610
 6208TIP3    H218589   4.956   4.860   4.460
 6209TIP3   OH218590   0.878   5.307   2.449
 6209TIP3    H118591   0.858   5.271   2.535
 6209TIP3    H218592   0.973   5.305   2.443
 6210TIP3   OH218593   1.510   4.143   3.720
 6210TIP3    H118594   1.507   4.186   3.805
 6210TIP3    H218595   1.441   4.186   3.668
 6211TIP3   OH218596   3.742   5.618   2.216
 6211TIP3    H118597   3.756   5.620   2.121
 6211TIP3    H218598   3.689   5.540   2.231
 6212TIP3   OH218599   6.565   2.445   5.328
 6212TIP3    H118600   6.507   2.392   5.383
 6212TIP3    H218601   6.577   2.527   5.376
 6213TIP3   OH218602   5.297   1.428   4.090
 6213TIP3    H118603   5.347   1.437   4.172
 6213TIP3    H218604   5.293   1.517   4.055
 6214TIP3   OH218605   7.094   5.419   3.372
 6214TIP3    H118606   7.128   5.493   3.421
 6214TIP3    H218607   7.014   5.452   3.331
 6215TIP3   OH218608   0.156   4.599   4.931
 6215TIP3    H118609   0.178   4.641   4.848
 6215TIP3    H218610   0.106   4.521   4.906
 6216TIP3   OH218611   3.587   4.736   4.813
 6216TIP3    H118612   3.647   4.740   4.738
 6216TIP3    H218613   3.619   4.804   4.873
 6217TIP3   OH218614   1.587   3.984   2.445
 6217TIP3    H118615   1.545   3.947   2.523
 6217TIP3    H218616   1.586   3.912   2.382
 6218TIP3   OH218617   1.972   0.896   1.134
 6218TIP3    H118618   1.980   0.894   1.039
 6218TIP3    H218619   1.880   0.875   1.151
 6219TIP3   OH218620   6.610   0.041   1.394
 6219TIP3    H118621   6.681   0.055   1.457
 6219TIP3    H218622   6.570   0.128   1.385
 6220TIP3   OH218623   2.074   5.419   1.504
 6220TIP3    H118624   2.088   5.513   1.518
 6220TIP3    H218625   2.098   5.379   1.588
 6221TIP3   OH218626   1.893   3.461   1.421
 6221TIP3    H118627   1.982   3.495   1.418
 6221TIP3    H218628   1.838   3.539   1.425
 6222TIP3   OH218629   0.103   6.711   0.061
 6222TIP3    H118630   0.093   6.701  -0.034
 6222TIP3    H218631   0.097   6.622   0.095
 6223TIP3   OH218632   2.787   6.447   0.121
 6223TIP3    H118633   2.809   6.354   0.132
 6223TIP3    H218634   2.757   6.475   0.208
 6224TIP3   OH218635   3.915   4.404   0.697
 6224TIP3    H118636   4.011   4.403   0.698
 6224TIP3    H218637   3.891   4.489   0.734
 6225TIP3   OH218638   1.054   5.049   4.018
 6225TIP3    H118639   1.067   5.072   3.926
 6225TIP3    H218640   1.115   5.105   4.065
 6226TIP3   OH218641   1.989   0.901   0.859
 6226TIP3    H118642   2.045   0.954   0.804
 6226TIP3    H218643   1.972   0.822   0.808
 6227TIP3   OH218644   0.100   0.183   4.563
 6227TIP3    H118645   0.078   0.157   4.473
 6227TIP3    H218646   0.076   0.276   4.567
 6228TIP3   OH218647   5.621   0.141   5.833
 6228TIP3    H118648   5.607   0.105   5.920
 6228TIP3    H218649   5.716   0.136   5.819
 6229TIP3   OH218650   3.925   6.467   0.637
 6229TIP3    H118651   3.844   6.449   0.686
 6229TIP3    H218652   3.908   6.550   0.592
 6230TIP3   OH218653   4.515   1.201   3.863
 6230TIP3    H118654   4.426   1.233   3.871
 6230TIP3    H218655   4.570   1.276   3.887
 6231TIP3   OH218656   6.726   4.069   4.742
 6231TIP3    H118657   6.782   4.112   4.808
 6231TIP3    H218658   6.683   4.142   4.698
 6232TIP3   OH218659   1.528   2.453   2.444
 6232TIP3    H118660   1.516   2.460   2.538
 6232TIP3    H218661   1.536   2.359   2.427
 6233TIP3   OH218662   1.785   3.325   4.780
 6233TIP3    H118663   1.769   3.409   4.824
 6233TIP3    H218664   1.840   3.348   4.705
 6234TIP3   OH218665   6.532   3.121   2.757
 6234TIP3    H118666   6.615   3.155   2.725
 6234TIP3    H218667   6.476   3.114   2.680
 6235TIP3   OH218668   5.689   5.702   3.501
 6235TIP3    H118669   5.646   5.673   3.421
 6235TIP3    H218670   5.781   5.679   3.488
 6236TIP3   OH218671   4.172   5.128   2.025
 6236TIP3    H118672   4.090   5.096   2.063
 6236TIP3    H218673   4.225   5.155   2.100
 6237TIP3   OH218674   4.304   1.158   2.960
 6237TIP3    H118675   4.214   1.179   2.935
 6237TIP3    H218676   4.307   1.171   3.054
 6238TIP3   OH218677   3.623   4.385   0.698
 6238TIP3    H118678   3.718   4.391   0.707
 6238TIP3    H218679   3.602   4.448   0.629
 6239TIP3   OH218680   5.168   1.629   0.969
 6239TIP3    H118681   5.236   1.616   1.035
 6239TIP3    H218682   5.090   1.590   1.008
 6240TIP3   OH218683   1.478   0.049   0.160
 6240TIP3    H118684   1.437   0.004   0.233
 6240TIP3    H218685   1.572   0.039   0.174
 6241TIP3   OH218686   1.640   6.288   3.466
 6241TIP3    H118687   1.638   6.338   3.384
 6241TIP3    H218688   1.695   6.212   3.446
 6242TIP3   OH218689   3.901   5.261   2.336
 6242TIP3    H118690   3.898   5.304   2.251
 6242TIP3    H218691   3.811   5.234   2.353
 6243TIP3   OH218692   0.852   3.068   2.114
 6243TIP3    H118693   0.878   2.976   2.118
 6243TIP3    H218694   0.869   3.102   2.202
 6244TIP3   OH218695   0.358   0.039   0.073
 6244TIP3    H118696   0.411   0.067   0.148
 6244TIP3    H218697   0.274   0.013   0.112
 6245TIP3   OH218698   1.016   0.377   2.222
 6245TIP3    H118699   1.039   0.405   2.133
 6245TIP3    H218700   0.922   0.394   2.229
 6246TIP3   OH218701   5.572   3.143   3.810
 6246TIP3    H118702   5.492   3.192   3.829
 6246TIP3    H218703   5.634   3.209   3.780
 6247TIP3   OH218704   3.207   0.317   3.558
 6247TIP3    H118705   3.168   0.369   3.628
 6247TIP3    H218706   3.290   0.286   3.595
 6248TIP3   OH218707   1.367   0.791   4.579
 6248TIP3    H118708   1.284   0.820   4.540
 6248TIP3    H218709   1.342   0.721   4.639
 6249TIP3   OH218710   1.102   1.189   1.808
 6249TIP3    H118711   1.017   1.232   1.820
 6249TIP3    H218712   1.081   1.095   1.806
 6250TIP3   OH218713   5.828   6.245   1.662
 6250TIP3    H118714   5.746   6.277   1.700
 6250TIP3    H218715   5.855   6.313   1.601
 6251TIP3   OH218716   0.210   2.618   1.278
 6251TIP3    H118717   0.302   2.595   1.265
 6251TIP3    H218718   0.175   2.630   1.190
 6252TIP3   OH218719   1.857   2.889   3.959
 6252TIP3    H118720   1.863   2.979   3.928
 6252TIP3    H218721   1.890   2.836   3.886
 6253TIP3   OH218722   3.754   6.108   2.469
 6253TIP3    H118723   3.719   6.157   2.395
 6253TIP3    H218724   3.750   6.016   2.441
 6254TIP3   OH218725   0.847   1.866   1.879
 6254TIP3    H118726   0.774   1.880   1.939
 6254TIP3    H218727   0.806   1.854   1.794
 6255TIP3   OH218728   1.572   2.289   3.561
 6255TIP3    H118729   1.529   2.296   3.475
 6255TIP3    H218730   1.634   2.217   3.551
 6256TIP3   OH218731   0.462   6.329   0.689
 6256TIP3    H118732   0.487   6.365   0.604
 6256TIP3    H218733   0.494   6.239   0.686
 6257TIP3   OH218734   3.587   0.076   3.074
 6257TIP3    H118735   3.503   0.120   3.086
 6257TIP3    H218736   3.653   0.142   3.097
 6258TIP3   OH218737   4.622   4.283   1.617
 6258TIP3    H118738   4.604   4.230   1.540
 6258TIP3    H218739   4.652   4.221   1.683
 6259TIP3   OH218740   4.412   6.366   5.442
 6259TIP3    H118741   4.335   6.334   5.394
 6259TIP3    H218742   4.374   6.414   5.516
 6260TIP3   OH218743   0.946   1.466   4.734
 6260TIP3    H118744   1.017   1.410   4.766
 6260TIP3    H218745   0.909   1.418   4.661
 6261TIP3   OH218746   2.326   3.542   2.942
 6261TIP3    H118747   2.350   3.481   2.872
 6261TIP3    H218748   2.355   3.628   2.910
 6262TIP3   OH218749   0.311   3.826   1.069
 6262TIP3    H118750   0.350   3.869   1.145
 6262TIP3    H218751   0.329   3.733   1.082
 6263TIP3   OH218752   3.695   6.550   3.041
 6263TIP3    H118753   3.677   6.635   3.080
 6263TIP3    H218754   3.725   6.570   2.952
 6264TIP3   OH218755   3.916   5.224   3.683
 6264TIP3    H118756   3.904   5.167   3.607
 6264TIP3    H218757   3.832   5.222   3.729
 6265TIP3   OH218758   3.893   4.867   2.605
 6265TIP3    H118759   3.962   4.933   2.596
 6265TIP3    H218760   3.842   4.875   2.525
 6266TIP3   OH218761   2.694   5.706   4.287
 6266TIP3    H118762   2.622   5.768   4.279
 6266TIP3    H218763   2.680   5.644   4.216
 6267TIP3   OH218764   5.223   6.743   0.511
 6267TIP3    H118765   5.161   6.675   0.484
 6267TIP3    H218766   5.266   6.708   0.589
 6268TIP3   OH218767   1.762   0.400   2.847
 6268TIP3    H118768   1.855   0.392   2.825
 6268TIP3    H218769   1.730   0.471   2.792
 6269TIP3   OH218770   1.924   3.749   0.350
 6269TIP3    H118771   1.863   3.809   0.306
 6269TIP3    H218772   1.972   3.804   0.411
 6270TIP3   OH218773   1.071   1.504   0.139
 6270TIP3    H118774   1.116   1.558   0.204
 6270TIP3    H218775   0.979   1.531   0.145
 6271TIP3   OH218776   3.131   6.184   4.139
 6271TIP3    H118777   3.054   6.214   4.090
 6271TIP3    H218778   3.190   6.259   4.137
 6272TIP3   OH218779   1.227   5.774   0.978
 6272TIP3    H118780   1.250   5.816   0.895
 6272TIP3    H218781   1.186   5.845   1.029
 6273TIP3   OH218782   3.435   0.140   0.879
 6273TIP3    H118783   3.410   0.133   0.971
 6273TIP3    H218784   3.382   0.074   0.834
 6274TIP3   OH218785   1.147   4.029   3.749
 6274TIP3    H118786   1.081   3.979   3.702
 6274TIP3    H218787   1.220   4.037   3.688
 6275TIP3   OH218788   1.783   0.801   4.590
 6275TIP3    H118789   1.823   0.814   4.504
 6275TIP3    H218790   1.719   0.731   4.576
 6276TIP3   OH218791   2.247   3.263   1.175
 6276TIP3    H118792   2.336   3.294   1.157
 6276TIP3    H218793   2.220   3.219   1.095
 6277TIP3   OH218794   2.361   1.234   2.795
 6277TIP3    H118795   2.282   1.182   2.809
 6277TIP3    H218796   2.381   1.223   2.702
 6278TIP3   OH218797   3.331   5.997   4.197
 6278TIP3    H118798   3.287   6.063   4.143
 6278TIP3    H218799   3.331   6.034   4.285
 6279TIP3   OH218800   5.004   6.045   1.828
 6279TIP3    H118801   5.065   5.989   1.875
 6279TIP3    H218802   4.918   6.022   1.865
 6280TIP3   OH218803   1.680   2.193   5.700
 6280TIP3    H118804   1.728   2.112   5.687
 6280TIP3    H218805   1.616   2.195   5.629
 6281TIP3   OH218806   2.802   5.143   1.267
 6281TIP3    H118807   2.867   5.212   1.252
 6281TIP3    H218808   2.720   5.190   1.280
 6282TIP3   OH218809   2.121   2.312   3.093
 6282TIP3    H118810   2.035   2.271   3.094
 6282TIP3    H218811   2.121   2.364   3.012
 6283TIP3   OH218812   2.217   3.857   3.014
 6283TIP3    H118813   2.166   3.822   2.940
 6283TIP3    H218814   2.210   3.790   3.082
 6284TIP3   OH218815   6.341   1.315   4.937
 6284TIP3    H118816   6.350   1.320   5.032
 6284TIP3    H218817   6.248   1.293   4.923
 6285TIP3   OH218818   6.793   4.784   5.515
 6285TIP3    H118819   6.831   4.816   5.597
 6285TIP3    H218820   6.824   4.694   5.507
 6286TIP3   OH218821   6.417   2.256   2.500
 6286TIP3    H118822   6.404   2.273   2.594
 6286TIP3    H218823   6.340   2.205   2.475
 6287TIP3   OH218824   7.164   5.583   4.796
 6287TIP3    H118825   7.103   5.573   4.868
 6287TIP3    H218826   7.109   5.587   4.718
 6288TIP3   OH218827   0.755   1.370   0.131
 6288TIP3    H118828   0.743   1.383   0.037
 6288TIP3    H218829   0.755   1.458   0.168
 6289TIP3   OH218830   6.885   4.048   1.455
 6289TIP3    H118831   6.917   4.118   1.399
 6289TIP3    H218832   6.919   3.968   1.415
 6290TIP3   OH218833   6.771   1.922   0.204
 6290TIP3    H118834   6.822   1.988   0.157
 6290TIP3    H218835   6.817   1.911   0.287
 6291TIP3   OH218836   1.813   2.717   5.884
 6291TIP3    H118837   1.858   2.787   5.837
 6291TIP3    H218838   1.819   2.641   5.826
 6292TIP3   OH218839   3.066   3.670   0.864
 6292TIP3    H118840   3.145   3.720   0.880
 6292TIP3    H218841   3.077   3.636   0.775
 6293TIP3   OH218842   4.106   3.256   3.798
 6293TIP3    H118843   4.162   3.297   3.732
 6293TIP3    H218844   4.139   3.167   3.806
 6294TIP3   OH218845   2.436   0.500   1.286
 6294TIP3    H118846   2.374   0.470   1.220
 6294TIP3    H218847   2.514   0.525   1.235
 6295TIP3   OH218848   2.405   3.032   1.289
 6295TIP3    H118849   2.359   3.085   1.225
 6295TIP3    H218850   2.335   2.996   1.345
 6296TIP3   OH218851   0.680   6.664   0.466
 6296TIP3    H118852   0.630   6.696   0.391
 6296TIP3    H218853   0.650   6.574   0.479
 6297TIP3   OH218854   4.440   0.837   3.413
 6297TIP3    H118855   4.399   0.899   3.473
 6297TIP3    H218856   4.478   0.770   3.470
 6298TIP3   OH218857   6.903   4.091   3.145
 6298TIP3    H118858   6.986   4.106   3.190
 6298TIP3    H218859   6.891   4.169   3.091
 6299TIP3   OH218860   4.123   3.122   1.033
 6299TIP3    H118861   4.040   3.105   0.988
 6299TIP3    H218862   4.151   3.207   1.000
 6300TIP3   OH218863   4.982   2.030   5.389
 6300TIP3    H118864   4.964   1.939   5.414
 6300TIP3    H218865   4.963   2.081   5.468
 6301TIP3   OH218866   0.321   4.945   1.442
 6301TIP3    H118867   0.372   4.972   1.366
 6301TIP3    H218868   0.379   4.958   1.516
 6302TIP3   OH218869   2.000   5.534   3.370
 6302TIP3    H118870   1.930   5.531   3.435
 6302TIP3    H218871   2.075   5.571   3.418
 6303TIP3   OH218872   4.050   1.421   2.734
 6303TIP3    H118873   4.047   1.344   2.791
 6303TIP3    H218874   4.110   1.481   2.779
 6304TIP3   OH218875   1.808   4.026   1.405
 6304TIP3    H118876   1.750   4.065   1.339
 6304TIP3    H218877   1.770   4.053   1.488
 6305TIP3   OH218878   0.870   5.611   5.667
 6305TIP3    H118879   0.845   5.604   5.759
 6305TIP3    H218880   0.965   5.599   5.667
 6306TIP3   OH218881   0.977   6.243   2.221
 6306TIP3    H118882   0.933   6.243   2.136
 6306TIP3    H218883   1.030   6.324   2.220
 6307TIP3   OH218884   2.099   6.642   4.073
 6307TIP3    H118885   2.180   6.660   4.026
 6307TIP3    H218886   2.033   6.633   4.004
 6308TIP3   OH218887   2.574   3.954   3.091
 6308TIP3    H118888   2.636   3.994   3.151
 6308TIP3    H218889   2.503   3.922   3.147
 6309TIP3   OH218890   5.402   5.949   4.071
 6309TIP3    H118891   5.437   5.861   4.054
 6309TIP3    H218892   5.311   5.933   4.096
 6310TIP3   OH218893   2.340   2.284   5.060
 6310TIP3    H118894   2.256   2.249   5.090
 6310TIP3    H218895   2.319   2.373   5.030
 6311TIP3   OH218896   5.003   4.949   3.985
 6311TIP3    H118897   4.976   4.871   3.937
 6311TIP3    H218898   5.089   4.927   4.020
 6312TIP3   OH218899   6.274   2.444   2.731
 6312TIP3    H118900   6.213   2.503   2.775
 6312TIP3    H218901   6.276   2.475   2.640
 6313TIP3   OH218902   2.793   5.700   5.379
 6313TIP3    H118903   2.782   5.645   5.302
 6313TIP3    H218904   2.712   5.690   5.428
 6314TIP3   OH218905   1.907   2.998   0.835
 6314TIP3    H118906   1.959   2.924   0.803
 6314TIP3    H218907   1.878   2.971   0.922
 6315TIP3   OH218908   0.713   3.402   0.598
 6315TIP3    H118909   0.655   3.362   0.663
 6315TIP3    H218910   0.720   3.337   0.528
 6316TIP3   OH218911   6.883   0.803  -0.002
 6316TIP3    H118912   6.929   0.866   0.054
 6316TIP3    H218913   6.791   0.815   0.020
 6317TIP3   OH218914   0.398   3.061   2.880
 6317TIP3    H118915   0.401   3.151   2.912
 6317TIP3    H218916   0.339   3.015   2.939
 6318TIP3   OH218917   3.586   5.987   3.916
 6318TIP3    H118918   3.599   6.011   4.008
 6318TIP3    H218919   3.500   5.944   3.914
 6319TIP3   OH218920   7.082   6.549   3.427
 6319TIP3    H118921   7.172   6.523   3.446
 6319TIP3    H218922   7.030   6.472   3.448
 6320TIP3   OH218923   5.432   3.425   1.177
 6320TIP3    H118924   5.493   3.478   1.125
 6320TIP3    H218925   5.396   3.487   1.241
 6321TIP3   OH218926   5.468   4.148   3.145
 6321TIP3    H118927   5.433   4.206   3.212
 6321TIP3    H218928   5.403   4.149   3.075
 6322TIP3   OH218929   1.715   1.193   3.612
 6322TIP3    H118930   1.762   1.222   3.690
 6322TIP3    H218931   1.652   1.264   3.595
 6323TIP3   OH218932   4.653   6.580   0.303
 6323TIP3    H118933   4.727   6.582   0.363
 6323TIP3    H218934   4.583   6.626   0.350
 6324TIP3   OH218935   3.538   2.127   2.679
 6324TIP3    H118936   3.616   2.073   2.663
 6324TIP3    H218937   3.572   2.208   2.717
 6325TIP3   OH218938   4.678   3.898   0.556
 6325TIP3    H118939   4.724   3.889   0.472
 6325TIP3    H218940   4.716   3.977   0.595
 6326TIP3   OH218941   2.167   5.719   0.207
 6326TIP3    H118942   2.100   5.780   0.176
 6326TIP3    H218943   2.118   5.652   0.254
 6327TIP3   OH218944   5.885   3.991   2.758
 6327TIP3    H118945   5.809   4.038   2.790
 6327TIP3    H218946   5.928   4.052   2.699
 6328TIP3   OH218947   6.537   3.426   2.256
 6328TIP3    H118948   6.475   3.498   2.257
 6328TIP3    H218949   6.499   3.362   2.196
 6329TIP3   OH218950   5.812   5.012   0.297
 6329TIP3    H118951   5.742   5.077   0.289
 6329TIP3    H218952   5.842   4.998   0.207
 6330TIP3   OH218953   3.945   1.881   2.868
 6330TIP3    H118954   3.966   1.934   2.791
 6330TIP3    H218955   3.920   1.946   2.934
 6331TIP3   OH218956   1.450   2.902   2.487
 6331TIP3    H118957   1.361   2.937   2.490
 6331TIP3    H218958   1.438   2.807   2.495
 6332TIP3   OH218959   0.931   1.257   0.330
 6332TIP3    H118960   0.842   1.283   0.307
 6332TIP3    H218961   0.979   1.340   0.339
 6333TIP3   OH218962   1.134   6.175   0.202
 6333TIP3    H118963   1.160   6.191   0.111
 6333TIP3    H218964   1.177   6.245   0.252
 6334TIP3   OH218965   2.570   5.769   1.138
 6334TIP3    H118966   2.650   5.808   1.103
 6334TIP3    H218967   2.533   5.720   1.065
 6335TIP3   OH218968   0.073   1.850   0.573
 6335TIP3    H118969   0.021   1.770   0.562
 6335TIP3    H218970   0.145   1.823   0.630
 6336TIP3   OH218971   4.765   4.149   4.144
 6336TIP3    H118972   4.711   4.154   4.223
 6336TIP3    H218973   4.704   4.154   4.071
 6337TIP3   OH218974   2.667   6.459   0.849
 6337TIP3    H118975   2.729   6.532   0.856
 6337TIP3    H218976   2.704   6.403   0.781
 6338TIP3   OH218977   3.456   4.576   1.639
 6338TIP3    H118978   3.549   4.553   1.641
 6338TIP3    H218979   3.446   4.627   1.558
 6339TIP3   OH218980   5.857   3.153   0.246
 6339TIP3    H118981   5.823   3.194   0.167
 6339TIP3    H218982   5.885   3.227   0.301
 6340TIP3   OH218983   6.879   3.688   5.445
 6340TIP3    H118984   6.876   3.774   5.486
 6340TIP3    H218985   6.805   3.641   5.483
 6341TIP3   OH218986   2.155   2.852   4.621
 6341TIP3    H118987   2.248   2.852   4.645
 6341TIP3    H218988   2.132   2.944   4.613
 6342TIP3   OH218989   3.968   4.332   1.764
 6342TIP3    H118990   4.054   4.320   1.806
 6342TIP3    H218991   3.905   4.304   1.830
 6343TIP3   OH218992   1.403   5.380   1.809
 6343TIP3    H118993   1.388   5.286   1.800
 6343TIP3    H218994   1.497   5.388   1.825
 6344TIP3   OH218995   2.748   6.774   3.463
 6344TIP3    H118996   2.767   6.839   3.530
 6344TIP3    H218997   2.827   6.772   3.409
 6345TIP3   OH218998   2.048   6.290   1.840
 6345TIP3    H118999   2.099   6.278   1.759
 6345TIP3    H219000   1.976   6.347   1.815
 6346TIP3   OH219001   6.647   1.012   3.614
 6346TIP3    H119002   6.588   1.048   3.547
 6346TIP3    H219003   6.591   0.955   3.667
 6347TIP3   OH219004   0.620   0.682   5.645
 6347TIP3    H119005   0.620   0.754   5.707
 6347TIP3    H219006   0.527   0.660   5.634
 6348TIP3   OH219007   1.803   3.694   4.601
 6348TIP3    H119008   1.833   3.724   4.515
 6348TIP3    H219009   1.883   3.665   4.645
 6349TIP3   OH219010   0.664   0.213   0.745
 6349TIP3    H119011   0.739   0.267   0.719
 6349TIP3    H219012   0.673   0.134   0.692
 6350TIP3   OH219013   5.931   1.235   2.924
 6350TIP3    H119014   5.875   1.175   2.973
 6350TIP3    H219015   5.999   1.179   2.886
 6351TIP3   OH219016   0.259   5.377   1.871
 6351TIP3    H119017   0.192   5.347   1.932
 6351TIP3    H219018   0.283   5.465   1.902
 6352TIP3   OH219019   2.740   1.924   2.643
 6352TIP3    H119020   2.645   1.912   2.633
 6352TIP3    H219021   2.775   1.836   2.655
 6353TIP3   OH219022   4.004   5.690   1.390
 6353TIP3    H119023   4.075   5.749   1.363
 6353TIP3    H219024   4.034   5.603   1.364
 6354TIP3   OH219025   1.431   2.418   5.861
 6354TIP3    H119026   1.473   2.473   5.795
 6354TIP3    H219027   1.338   2.423   5.840
 6355TIP3   OH219028   4.406   5.028   2.251
 6355TIP3    H119029   4.482   5.043   2.307
 6355TIP3    H219030   4.356   5.109   2.257
 6356TIP3   OH219031   5.419   2.117   2.958
 6356TIP3    H119032   5.438   2.084   3.045
 6356TIP3    H219033   5.399   2.039   2.906
 6357TIP3   OH219034   3.269   1.582   4.668
 6357TIP3    H119035   3.212   1.506   4.658
 6357TIP3    H219036   3.253   1.613   4.757
 6358TIP3   OH219037   3.783   4.843   2.357
 6358TIP3    H119038   3.719   4.905   2.391
 6358TIP3    H219039   3.730   4.769   2.326
 6359TIP3   OH219040   4.490   5.463   3.318
 6359TIP3    H119041   4.568   5.413   3.340
 6359TIP3    H219042   4.434   5.401   3.271
 6360TIP3   OH219043   0.279   2.801   3.493
 6360TIP3    H119044   0.234   2.860   3.432
 6360TIP3    H219045   0.365   2.786   3.454
 6361TIP3   OH219046   4.049   1.893   5.681
 6361TIP3    H119047   4.128   1.939   5.657
 6361TIP3    H219048   3.983   1.925   5.619
 6362TIP3   OH219049   1.401   1.900   2.472
 6362TIP3    H119050   1.351   1.900   2.390
 6362TIP3    H219051   1.336   1.880   2.539
 6363TIP3   OH219052   4.513   2.820   4.786
 6363TIP3    H119053   4.492   2.735   4.747
 6363TIP3    H219054   4.577   2.799   4.855
 6364TIP3   OH219055   3.649   6.662   3.368
 6364TIP3    H119056   3.618   6.745   3.404
 6364TIP3    H219057   3.570   6.609   3.357
 6365TIP3   OH219058   1.992   2.144   5.635
 6365TIP3    H119059   1.973   2.227   5.592
 6365TIP3    H219060   2.087   2.142   5.644
 6366TIP3   OH219061   6.149   6.702   1.876
 6366TIP3    H119062   6.172   6.661   1.792
 6366TIP3    H219063   6.127   6.792   1.852
 6367TIP3   OH219064   4.583   4.853   1.276
 6367TIP3    H119065   4.524   4.779   1.293
 6367TIP3    H219066   4.650   4.817   1.217
 6368TIP3   OH219067   2.130   3.340   3.600
 6368TIP3    H119068   2.207   3.325   3.655
 6368TIP3    H219069   2.059   3.353   3.663
 6369TIP3   OH219070   1.163   6.267   3.752
 6369TIP3    H119071   1.108   6.289   3.677
 6369TIP3    H219072   1.253   6.270   3.717
 6370TIP3   OH219073   3.501   5.266   4.264
 6370TIP3    H119074   3.433   5.301   4.206
 6370TIP3    H219075   3.456   5.200   4.317
 6371TIP3   OH219076   0.936   2.681   0.059
 6371TIP3    H119077   0.928   2.773   0.032
 6371TIP3    H219078   0.957   2.635  -0.022
 6372TIP3   OH219079   6.687   4.675   5.206
 6372TIP3    H119080   6.767   4.724   5.189
 6372TIP3    H219081   6.632   4.693   5.129
 6373TIP3   OH219082   0.311   0.504   2.337
 6373TIP3    H119083   0.361   0.572   2.381
 6373TIP3    H219084   0.303   0.534   2.247
 6374TIP3   OH219085   4.051   1.560   5.510
 6374TIP3    H119086   4.033   1.466   5.517
 6374TIP3    H219087   4.048   1.591   5.600
 6375TIP3   OH219088   0.549   6.816   2.325
 6375TIP3    H119089   0.571   6.749   2.389
 6375TIP3    H219090   0.625   6.820   2.267
 6376TIP3   OH219091   4.655   3.851   1.978
 6376TIP3    H119092   4.656   3.914   2.050
 6376TIP3    H219093   4.567   3.859   1.941
 6377TIP3   OH219094   2.722   3.168   3.254
 6377TIP3    H119095   2.686   3.186   3.167
 6377TIP3    H219096   2.816   3.188   3.246
 6378TIP3   OH219097   3.913   1.942   1.390
 6378TIP3    H119098   3.938   1.953   1.298
 6378TIP3    H219099   3.918   2.030   1.427
 6379TIP3   OH219100   2.894   2.957   4.911
 6379TIP3    H119101   2.970   2.983   4.963
 6379TIP3    H219102   2.844   2.900   4.969
 6380TIP3   OH219103   4.071   5.931   0.393
 6380TIP3    H119104   4.036   5.994   0.456
 6380TIP3    H219105   4.067   5.847   0.439
 6381TIP3   OH219106   0.288   1.278   1.924
 6381TIP3    H119107   0.271   1.362   1.965
 6381TIP3    H219108   0.298   1.216   1.997
 6382TIP3   OH219109   6.726   1.390   0.178
 6382TIP3    H119110   6.813   1.357   0.200
 6382TIP3    H219111   6.669   1.313   0.181
 6383TIP3   OH219112   2.757   4.725   2.107
 6383TIP3    H119113   2.761   4.815   2.074
 6383TIP3    H219114   2.681   4.687   2.062
 6384TIP3   OH219115   2.788   6.312   0.590
 6384TIP3    H119116   2.718   6.352   0.539
 6384TIP3    H219117   2.864   6.314   0.531
 6385TIP3   OH219118   3.779   0.804   2.436
 6385TIP3    H119119   3.817   0.891   2.432
 6385TIP3    H219120   3.713   0.803   2.366
 6386TIP3   OH219121   7.131   5.590   0.064
 6386TIP3    H119122   7.211   5.615   0.110
 6386TIP3    H219123   7.136   5.494   0.058
 6387TIP3   OH219124   6.828   2.176   4.403
 6387TIP3    H119125   6.828   2.254   4.348
 6387TIP3    H219126   6.743   2.136   4.388
 6388TIP3   OH219127   1.002   2.453   5.052
 6388TIP3    H119128   1.004   2.395   4.976
 6388TIP3    H219129   1.094   2.471   5.072
 6389TIP3   OH219130   1.661   3.613   5.678
 6389TIP3    H119131   1.658   3.709   5.675
 6389TIP3    H219132   1.746   3.591   5.641
 6390TIP3   OH219133   5.502   2.694   0.312
 6390TIP3    H119134   5.523   2.712   0.404
 6390TIP3    H219135   5.575   2.640   0.281
 6391TIP3   OH219136   6.795   3.451   4.347
 6391TIP3    H119137   6.765   3.524   4.401
 6391TIP3    H219138   6.891   3.457   4.350
 6392TIP3   OH219139   2.970   4.079   3.721
 6392TIP3    H119140   2.915   4.048   3.649
 6392TIP3    H219141   2.953   4.018   3.793
 6393TIP3   OH219142   0.057   6.756   1.843
 6393TIP3    H119143   0.057   6.704   1.924
 6393TIP3    H219144   0.135   6.812   1.850
 6394TIP3   OH219145   1.203   6.406   4.268
 6394TIP3    H119146   1.228   6.493   4.301
 6394TIP3    H219147   1.165   6.423   4.182
 6395TIP3   OH219148   3.487   2.763   0.699
 6395TIP3    H119149   3.409   2.798   0.742
 6395TIP3    H219150   3.457   2.731   0.614
 6396TIP3   OH219151   3.285   6.388   0.120
 6396TIP3    H119152   3.261   6.384   0.027
 6396TIP3    H219153   3.273   6.298   0.151
 6397TIP3   OH219154   1.868   1.786   4.780
 6397TIP3    H119155   1.939   1.758   4.722
 6397TIP3    H219156   1.909   1.793   4.866
 6398TIP3   OH219157   1.651   0.881   5.603
 6398TIP3    H119158   1.744   0.862   5.613
 6398TIP3    H219159   1.630   0.854   5.513
 6399TIP3   OH219160   6.547   6.144   0.750
 6399TIP3    H119161   6.587   6.218   0.796
 6399TIP3    H219162   6.567   6.068   0.804
 6400TIP3   OH219163   1.773   3.197   1.901
 6400TIP3    H119164   1.795   3.147   1.823
 6400TIP3    H219165   1.689   3.161   1.930
 6401TIP3   OH219166   3.332   4.375   5.356
 6401TIP3    H119167   3.400   4.351   5.419
 6401TIP3    H219168   3.377   4.429   5.291
 6402TIP3   OH219169   2.682   0.562   0.840
 6402TIP3    H119170   2.686   0.594   0.750
 6402TIP3    H219171   2.621   0.488   0.836
 6403TIP3   OH219172   7.029   5.269   2.177
 6403TIP3    H119173   6.960   5.291   2.240
 6403TIP3    H219174   7.091   5.342   2.182
 6404TIP3   OH219175   0.584   0.824   1.220
 6404TIP3    H119176   0.638   0.820   1.299
 6404TIP3    H219177   0.499   0.858   1.250
 6405TIP3   OH219178   1.165   3.775   0.284
 6405TIP3    H119179   1.122   3.860   0.289
 6405TIP3    H219180   1.219   3.771   0.362
 6406TIP3   OH219181   6.386   3.954   3.597
 6406TIP3    H119182   6.389   3.958   3.693
 6406TIP3    H219183   6.359   4.042   3.570
 6407TIP3   OH219184   0.039   4.557   3.611
 6407TIP3    H119185   0.115   4.556   3.553
 6407TIP3    H219186   0.075   4.549   3.699
 6408TIP3   OH219187   3.994   0.425   5.618
 6408TIP3    H119188   3.979   0.443   5.711
 6408TIP3    H219189   3.916   0.459   5.574
 6409TIP3   OH219190   6.092   4.454   4.595
 6409TIP3    H119191   6.100   4.544   4.562
 6409TIP3    H219192   6.052   4.406   4.523
 6410TIP3   OH219193   6.888   1.833   2.124
 6410TIP3    H119194   6.818   1.890   2.092
 6410TIP3    H219195   6.940   1.888   2.182
 6411TIP3   OH219196   4.609   5.246   5.681
 6411TIP3    H119197   4.671   5.193   5.632
 6411TIP3    H219198   4.527   5.238   5.633
 6412TIP3   OH219199   3.303   2.783   2.050
 6412TIP3    H119200   3.211   2.792   2.026
 6412TIP3    H219201   3.349   2.772   1.967
 6413TIP3   OH219202   1.370   2.060   5.201
 6413TIP3    H119203   1.300   2.019   5.150
 6413TIP3    H219204   1.343   2.152   5.208
 6414TIP3   OH219205   1.520   3.594   4.913
 6414TIP3    H119206   1.524   3.536   4.837
 6414TIP3    H219207   1.612   3.612   4.934
 6415TIP3   OH219208   4.698   1.499   2.223
 6415TIP3    H119209   4.785   1.477   2.188
 6415TIP3    H219210   4.666   1.416   2.258
 6416TIP3   OH219211   6.541   2.427   0.057
 6416TIP3    H119212   6.474   2.488   0.028
 6416TIP3    H219213   6.576   2.389  -0.024
 6417TIP3   OH219214   3.412   4.411   2.976
 6417TIP3    H119215   3.488   4.469   2.971
 6417TIP3    H219216   3.417   4.370   3.062
 6418TIP3   OH219217   5.116   1.542   2.193
 6418TIP3    H119218   5.153   1.493   2.266
 6418TIP3    H219219   5.061   1.479   2.147
 6419TIP3   OH219220   6.700   2.139   1.228
 6419TIP3    H119221   6.669   2.192   1.154
 6419TIP3    H219222   6.657   2.054   1.216
 6420TIP3   OH219223   0.998   0.734   4.862
 6420TIP3    H119224   0.973   0.823   4.884
 6420TIP3    H219225   0.934   0.706   4.796
 6421TIP3   OH219226   5.650   3.409   5.203
 6421TIP3    H119227   5.679   3.338   5.146
 6421TIP3    H219228   5.705   3.400   5.282
 6422TIP3   OH219229   5.733   1.757   1.842
 6422TIP3    H119230   5.827   1.747   1.823
 6422TIP3    H219231   5.727   1.840   1.889
 6423TIP3   OH219232   2.583   6.114   0.071
 6423TIP3    H119233   2.536   6.087   0.150
 6423TIP3    H219234   2.669   6.141   0.103
 6424TIP3   OH219235   6.266   3.228   1.032
 6424TIP3    H119236   6.227   3.144   1.005
 6424TIP3    H219237   6.273   3.277   0.950
 6425TIP3   OH219238   5.678   2.105   3.958
 6425TIP3    H119239   5.688   2.162   3.882
 6425TIP3    H219240   5.670   2.017   3.921
 6426TIP3   OH219241   0.979   0.076   0.002
 6426TIP3    H119242   0.990   0.153   0.058
 6426TIP3    H219243   1.060   0.027   0.014
 6427TIP3   OH219244   6.725   3.703   4.434
 6427TIP3    H119245   6.665   3.776   4.438
 6427TIP3    H219246   6.770   3.704   4.518
 6428TIP3   OH219247   4.296   5.483   2.919
 6428TIP3    H119248   4.326   5.423   2.987
 6428TIP3    H219249   4.201   5.473   2.919
 6429TIP3   OH219250   0.380   5.957   1.246
 6429TIP3    H119251   0.404   6.048   1.228
 6429TIP3    H219252   0.456   5.921   1.292
 6430TIP3   OH219253   1.463   5.573   2.262
 6430TIP3    H119254   1.373   5.598   2.240
 6430TIP3    H219255   1.511   5.656   2.264
 6431TIP3   OH219256   2.929   0.189   0.465
 6431TIP3    H119257   2.872   0.189   0.541
 6431TIP3    H219258   3.011   0.151   0.497
 6432TIP3   OH219259   4.050   5.399   1.952
 6432TIP3    H119260   4.029   5.492   1.944
 6432TIP3    H219261   3.967   5.357   1.976
 6433TIP3   OH219262   3.898   5.826   5.642
 6433TIP3    H119263   3.812   5.785   5.653
 6433TIP3    H219264   3.930   5.837   5.731
 6434TIP3   OH219265   6.821   5.436   1.698
 6434TIP3    H119266   6.872   5.517   1.697
 6434TIP3    H219267   6.822   5.408   1.789
 6435TIP3   OH219268   6.832   2.505   5.031
 6435TIP3    H119269   6.895   2.448   4.987
 6435TIP3    H219270   6.768   2.445   5.069
 6436TIP3   OH219271   6.508   3.829   3.355
 6436TIP3    H119272   6.504   3.906   3.298
 6436TIP3    H219273   6.460   3.855   3.433
 6437TIP3   OH219274   5.198   2.208   2.535
 6437TIP3    H119275   5.184   2.123   2.494
 6437TIP3    H219276   5.146   2.204   2.616
 6438TIP3   OH219277   2.057   2.920   2.450
 6438TIP3    H119278   1.961   2.925   2.447
 6438TIP3    H219279   2.086   3.012   2.450
 6439TIP3   OH219280   6.039   2.576   0.947
 6439TIP3    H119281   5.982   2.522   1.001
 6439TIP3    H219282   6.107   2.608   1.006
 6440TIP3   OH219283   6.867   6.123   2.524
 6440TIP3    H119284   6.791   6.065   2.534
 6440TIP3    H219285   6.884   6.155   2.612
 6441TIP3   OH219286   6.484   3.877   5.484
 6441TIP3    H119287   6.408   3.819   5.489
 6441TIP3    H219288   6.450   3.955   5.439
 6442TIP3   OH219289   2.120   3.438   3.326
 6442TIP3    H119290   2.139   3.409   3.415
 6442TIP3    H219291   2.025   3.448   3.323
 6443TIP3   OH219292   6.659   4.295   1.293
 6443TIP3    H119293   6.686   4.378   1.332
 6443TIP3    H219294   6.589   4.264   1.350
 6444TIP3   OH219295   6.242   0.410   0.326
 6444TIP3    H119296   6.229   0.444   0.415
 6444TIP3    H219297   6.265   0.318   0.340
 6445TIP3   OH219298   4.566   4.594   3.314
 6445TIP3    H119299   4.559   4.561   3.224
 6445TIP3    H219300   4.659   4.585   3.335
 6446TIP3   OH219301   6.276   3.048   4.483
 6446TIP3    H119302   6.255   2.971   4.431
 6446TIP3    H219303   6.211   3.113   4.458
 6447TIP3   OH219304   3.666   4.130   1.557
 6447TIP3    H119305   3.576   4.111   1.581
 6447TIP3    H219306   3.716   4.116   1.637
 6448TIP3   OH219307   6.377   4.400   1.822
 6448TIP3    H119308   6.470   4.388   1.840
 6448TIP3    H219309   6.372   4.415   1.728
 6449TIP3   OH219310   6.331   0.416   4.576
 6449TIP3    H119311   6.418   0.420   4.615
 6449TIP3    H219312   6.272   0.401   4.650
 6450TIP3   OH219313   3.072   2.050   5.821
 6450TIP3    H119314   3.062   1.983   5.754
 6450TIP3    H219315   3.122   2.120   5.779
 6451TIP3   OH219316   6.177   5.491   2.994
 6451TIP3    H119317   6.146   5.407   3.027
 6451TIP3    H219318   6.169   5.551   3.068
 6452TIP3   OH219319   2.286   2.714   0.194
 6452TIP3    H119320   2.242   2.708   0.279
 6452TIP3    H219321   2.333   2.632   0.185
 6453TIP3   OH219322   1.704   6.337   2.807
 6453TIP3    H119323   1.760   6.382   2.743
 6453TIP3    H219324   1.759   6.268   2.843
 6454TIP3   OH219325   6.053   0.248   5.403
 6454TIP3    H119326   5.993   0.186   5.363
 6454TIP3    H219327   6.125   0.194   5.437
 6455TIP3   OH219328   4.465   1.689   5.630
 6455TIP3    H119329   4.460   1.615   5.690
 6455TIP3    H219330   4.517   1.755   5.676
 6456TIP3   OH219331   2.357   1.673   1.806
 6456TIP3    H119332   2.327   1.647   1.893
 6456TIP3    H219333   2.452   1.661   1.809
 6457TIP3   OH219334   4.290   3.635   5.396
 6457TIP3    H119335   4.306   3.646   5.489
 6457TIP3    H219336   4.212   3.580   5.391
 6458TIP3   OH219337   3.715   1.835   0.805
 6458TIP3    H119338   3.714   1.810   0.897
 6458TIP3    H219339   3.730   1.930   0.806
 6459TIP3   OH219340   2.221   0.945   3.858
 6459TIP3    H119341   2.299   0.948   3.913
 6459TIP3    H219342   2.148   0.944   3.919
 6460TIP3   OH219343   2.507   6.507   1.583
 6460TIP3    H119344   2.461   6.570   1.638
 6460TIP3    H219345   2.599   6.534   1.589
 6461TIP3   OH219346   7.083   1.365   1.206
 6461TIP3    H119347   6.989   1.380   1.208
 6461TIP3    H219348   7.113   1.383   1.295
 6462TIP3   OH219349   2.140   3.457   3.926
 6462TIP3    H119350   2.045   3.442   3.927
 6462TIP3    H219351   2.175   3.387   3.981
 6463TIP3   OH219352   3.267   3.096   1.198
 6463TIP3    H119353   3.255   3.036   1.124
 6463TIP3    H219354   3.329   3.162   1.165
 6464TIP3   OH219355   1.499   5.547   5.783
 6464TIP3    H119356   1.584   5.582   5.810
 6464TIP3    H219357   1.493   5.568   5.690
 6465TIP3   OH219358   3.949   2.037   2.090
 6465TIP3    H119359   3.875   2.072   2.040
 6465TIP3    H219360   3.997   2.114   2.120
 6466TIP3   OH219361   3.467   2.955   0.973
 6466TIP3    H119362   3.531   2.937   1.042
 6466TIP3    H219363   3.519   2.991   0.902
 6467TIP3   OH219364   3.774   6.386   4.744
 6467TIP3    H119365   3.781   6.422   4.832
 6467TIP3    H219366   3.722   6.306   4.754
 6468TIP3   OH219367   1.609   1.318   4.546
 6468TIP3    H119368   1.636   1.384   4.610
 6468TIP3    H219369   1.582   1.369   4.469
 6469TIP3   OH219370   3.870   5.687   2.685
 6469TIP3    H119371   3.874   5.618   2.618
 6469TIP3    H219372   3.781   5.722   2.678
 6470TIP3   OH219373   7.086   2.449   1.862
 6470TIP3    H119374   7.007   2.484   1.821
 6470TIP3    H219375   7.110   2.515   1.928
 6471TIP3   OH219376   2.110   1.159   5.816
 6471TIP3    H119377   2.121   1.154   5.721
 6471TIP3    H219378   2.191   1.124   5.852
 6472TIP3   OH219379   4.407   2.142   5.813
 6472TIP3    H119380   4.393   2.235   5.794
 6472TIP3    H219381   4.347   2.123   5.885
 6473TIP3   OH219382   4.159   1.059   5.514
 6473TIP3    H119383   4.151   1.152   5.494
 6473TIP3    H219384   4.216   1.055   5.590
 6474TIP3   OH219385   5.930   4.621   1.204
 6474TIP3    H119386   5.968   4.703   1.234
 6474TIP3    H219387   5.874   4.646   1.130
 6475TIP3   OH219388   5.966   2.981   4.581
 6475TIP3    H119389   5.978   2.940   4.495
 6475TIP3    H219390   5.874   3.007   4.583
 6476TIP3   OH219391   5.110   3.990   4.409
 6476TIP3    H119392   5.067   4.057   4.462
 6476TIP3    H219393   5.203   3.999   4.430
 6477TIP3   OH219394   1.371   6.333   4.590
 6477TIP3    H119395   1.402   6.242   4.589
 6477TIP3    H219396   1.275   6.325   4.587
 6478TIP3   OH219397   5.108   0.587   4.833
 6478TIP3    H119398   5.126   0.544   4.749
 6478TIP3    H219399   5.099   0.680   4.811
 6479TIP3   OH219400   6.574   3.509   5.866
 6479TIP3    H119401   6.532   3.425   5.845
 6479TIP3    H219402   6.636   3.488   5.936
 6480TIP3   OH219403   1.853   3.967   5.461
 6480TIP3    H119404   1.786   3.938   5.524
 6480TIP3    H219405   1.931   3.981   5.514
 6481TIP3   OH219406   1.214   2.192   3.523
 6481TIP3    H119407   1.179   2.273   3.562
 6481TIP3    H219408   1.188   2.123   3.583
 6482TIP3   OH219409   0.428   4.850   0.629
 6482TIP3    H119410   0.371   4.822   0.700
 6482TIP3    H219411   0.410   4.788   0.558
 6483TIP3   OH219412   0.505   1.159   4.379
 6483TIP3    H119413   0.477   1.105   4.306
 6483TIP3    H219414   0.461   1.243   4.367
 6484TIP3   OH219415   6.629   0.842   0.077
 6484TIP3    H119416   6.550   0.897   0.078
 6484TIP3    H219417   6.663   0.846   0.166
 6485TIP3   OH219418   4.232   3.299   1.755
 6485TIP3    H119419   4.295   3.261   1.816
 6485TIP3    H219420   4.284   3.359   1.702
 6486TIP3   OH219421   6.692   4.938   3.379
 6486TIP3    H119422   6.785   4.951   3.358
 6486TIP3    H219423   6.647   4.959   3.297
 6487TIP3   OH219424   0.509   2.029   4.931
 6487TIP3    H119425   0.533   1.976   4.855
 6487TIP3    H219426   0.426   1.991   4.961
 6488TIP3   OH219427   3.590   2.348   5.845
 6488TIP3    H119428   3.631   2.361   5.759
 6488TIP3    H219429   3.659   2.307   5.898
 6489TIP3   OH219430   2.301   6.635   1.284
 6489TIP3    H119431   2.232   6.656   1.222
 6489TIP3    H219432   2.276   6.550   1.319
 6490TIP3   OH219433   1.566   4.115   0.752
 6490TIP3    H119434   1.593   4.034   0.795
 6490TIP3    H219435   1.602   4.185   0.807
 6491TIP3   OH219436   2.272   2.311   3.532
 6491TIP3    H119437   2.252   2.313   3.438
 6491TIP3    H219438   2.205   2.253   3.569
 6492TIP3   OH219439   4.712   2.954   4.026
 6492TIP3    H119440   4.645   2.887   4.043
 6492TIP3    H219441   4.678   3.002   3.950
 6493TIP3   OH219442   1.110   4.390   2.127
 6493TIP3    H119443   1.126   4.455   2.058
 6493TIP3    H219444   1.029   4.419   2.169
 6494TIP3   OH219445   1.136   5.449   1.871
 6494TIP3    H119446   1.227   5.446   1.841
 6494TIP3    H219447   1.101   5.530   1.834
 6495TIP3   OH219448   4.334   1.063   0.699
 6495TIP3    H119449   4.255   1.013   0.680
 6495TIP3    H219450   4.314   1.109   0.781
 6496TIP3   OH219451   1.450   4.407   5.216
 6496TIP3    H119452   1.512   4.468   5.254
 6496TIP3    H219453   1.448   4.333   5.276
 6497TIP3   OH219454   1.007   5.398  -0.036
 6497TIP3    H119455   0.979   5.336   0.031
 6497TIP3    H219456   1.003   5.483   0.007
 6498TIP3   OH219457   1.943   3.842   3.281
 6498TIP3    H119458   1.902   3.832   3.195
 6498TIP3    H219459   2.025   3.793   3.274
 6499TIP3   OH219460   0.646   3.401   5.693
 6499TIP3    H119461   0.604   3.487   5.686
 6499TIP3    H219462   0.573   3.340   5.700
 6500TIP3   OH219463   0.647   5.357   4.423
 6500TIP3    H119464   0.561   5.323   4.449
 6500TIP3    H219465   0.659   5.435   4.476
 6501TIP3   OH219466   1.110   3.312   4.399
 6501TIP3    H119467   1.191   3.282   4.440
 6501TIP3    H219468   1.134   3.331   4.309
 6502TIP3   OH219469   3.851   0.685   4.173
 6502TIP3    H119470   3.921   0.682   4.108
 6502TIP3    H219471   3.770   0.678   4.122
 6503TIP3   OH219472   0.807   5.480   5.896
 6503TIP3    H119473   0.750   5.425   5.843
 6503TIP3    H219474   0.884   5.426   5.912
 6504TIP3   OH219475   2.652   1.987   1.819
 6504TIP3    H119476   2.718   1.992   1.888
 6504TIP3    H219477   2.651   2.074   1.780
 6505TIP3   OH219478   0.773   6.692   2.883
 6505TIP3    H119479   0.686   6.689   2.843
 6505TIP3    H219480   0.825   6.746   2.823
 6506TIP3   OH219481   1.242   2.701   3.308
 6506TIP3    H119482   1.320   2.653   3.278
 6506TIP3    H219483   1.174   2.634   3.315
 6507TIP3   OH219484   2.661   5.182   0.421
 6507TIP3    H119485   2.649   5.227   0.505
 6507TIP3    H219486   2.751   5.150   0.423
 6508TIP3   OH219487   3.456   0.812   0.243
 6508TIP3    H119488   3.384   0.839   0.301
 6508TIP3    H219489   3.412   0.776   0.166
 6509TIP3   OH219490   5.850   3.749   0.765
 6509TIP3    H119491   5.777   3.811   0.761
 6509TIP3    H219492   5.809   3.663   0.760
 6510TIP3   OH219493   1.676   0.359   3.931
 6510TIP3    H119494   1.696   0.276   3.974
 6510TIP3    H219495   1.685   0.341   3.838
 6511TIP3   OH219496   3.473   2.192   1.322
 6511TIP3    H119497   3.409   2.206   1.252
 6511TIP3    H219498   3.558   2.201   1.279
 6512TIP3   OH219499   2.040   2.679   2.314
 6512TIP3    H119500   2.058   2.764   2.354
 6512TIP3    H219501   1.953   2.655   2.347
 6513TIP3   OH219502   3.023   5.909   4.174
 6513TIP3    H119503   3.086   5.970   4.136
 6513TIP3    H219504   2.992   5.857   4.099
 6514TIP3   OH219505   7.194   6.333   4.457
 6514TIP3    H119506   7.219   6.281   4.381
 6514TIP3    H219507   7.098   6.338   4.452
 6515TIP3   OH219508   4.294   6.024   0.913
 6515TIP3    H119509   4.331   5.968   0.982
 6515TIP3    H219510   4.203   5.995   0.906
 6516TIP3   OH219511   0.240   6.500   3.942
 6516TIP3    H119512   0.182   6.549   3.884
 6516TIP3    H219513   0.190   6.488   4.022
 6517TIP3   OH219514   6.812   0.214   1.848
 6517TIP3    H119515   6.752   0.236   1.920
 6517TIP3    H219516   6.893   0.261   1.869
 6518TIP3   OH219517   3.631   5.180   1.800
 6518TIP3    H119518   3.696   5.136   1.746
 6518TIP3    H219519   3.625   5.268   1.764
 6519TIP3   OH219520   3.309   1.666   1.970
 6519TIP3    H119521   3.223   1.624   1.976
 6519TIP3    H219522   3.346   1.657   2.057
 6520TIP3   OH219523   2.477   0.583   4.060
 6520TIP3    H119524   2.400   0.572   4.004
 6520TIP3    H219525   2.445   0.564   4.149
 6521TIP3   OH219526   3.601   4.268   3.616
 6521TIP3    H119527   3.555   4.219   3.684
 6521TIP3    H219528   3.550   4.349   3.606
 6522TIP3   OH219529   4.751   3.300   0.165
 6522TIP3    H119530   4.746   3.321   0.071
 6522TIP3    H219531   4.844   3.288   0.182
 6523TIP3   OH219532   6.241   0.990   4.982
 6523TIP3    H119533   6.210   1.042   5.057
 6523TIP3    H219534   6.203   1.033   4.906
 6524TIP3   OH219535   0.688   6.071   4.419
 6524TIP3    H119536   0.730   6.151   4.387
 6524TIP3    H219537   0.692   6.011   4.345
 6525TIP3   OH219538   0.037   4.632   0.894
 6525TIP3    H119539   0.115   4.578   0.886
 6525TIP3    H219540  -0.033   4.579   0.856
 6526TIP3   OH219541   1.017   5.723   1.800
 6526TIP3    H119542   1.077   5.722   1.726
 6526TIP3    H219543   1.010   5.815   1.824
 6527TIP3   OH219544   2.127   0.415   5.336
 6527TIP3    H119545   2.171   0.355   5.276
 6527TIP3    H219546   2.152   0.502   5.306
 6528TIP3   OH219547   0.692   5.527   0.770
 6528TIP3    H119548   0.654   5.444   0.798
 6528TIP3    H219549   0.620   5.590   0.777
 6529TIP3   OH219550   3.208   2.375   3.639
 6529TIP3    H119551   3.274   2.420   3.692
 6529TIP3    H219552   3.135   2.361   3.700
 6530TIP3   OH219553   0.642   0.335   3.208
 6530TIP3    H119554   0.550   0.333   3.236
 6530TIP3    H219555   0.669   0.243   3.210
 6531TIP3   OH219556   6.145   4.892   2.543
 6531TIP3    H119557   6.094   4.925   2.616
 6531TIP3    H219558   6.174   4.970   2.496
 6532TIP3   OH219559   7.125   1.571   3.486
 6532TIP3    H119560   7.076   1.588   3.405
 6532TIP3    H219561   7.075   1.502   3.530
 6533TIP3   OH219562   6.267   1.104   0.324
 6533TIP3    H119563   6.280   1.130   0.415
 6533TIP3    H219564   6.204   1.168   0.290
 6534TIP3   OH219565   2.536   2.054   5.647
 6534TIP3    H119566   2.526   1.988   5.579
 6534TIP3    H219567   2.628   2.051   5.670
 6535TIP3   OH219568   5.464   2.717   4.197
 6535TIP3    H119569   5.461   2.807   4.164
 6535TIP3    H219570   5.385   2.709   4.251
 6536TIP3   OH219571   2.106   0.230   1.504
 6536TIP3    H119572   2.095   0.319   1.538
 6536TIP3    H219573   2.126   0.177   1.581
 6537TIP3   OH219574   2.752   2.602   3.621
 6537TIP3    H119575   2.701   2.652   3.557
 6537TIP3    H219576   2.722   2.512   3.610
 6538TIP3   OH219577   4.417   1.090   5.619
 6538TIP3    H119578   4.397   1.182   5.603
 6538TIP3    H219579   4.512   1.083   5.607
 6539TIP3   OH219580   6.795   3.328   5.324
 6539TIP3    H119581   6.825   3.260   5.383
 6539TIP3    H219582   6.700   3.326   5.331
 6540TIP3   OH219583   5.644   5.653   0.674
 6540TIP3    H119584   5.582   5.583   0.692
 6540TIP3    H219585   5.727   5.608   0.659
 6541TIP3   OH219586   4.294   6.500   0.346
 6541TIP3    H119587   4.324   6.589   0.365
 6541TIP3    H219588   4.256   6.506   0.258
 6542TIP3   OH219589   7.072   5.983   0.661
 6542TIP3    H119590   6.979   5.992   0.639
 6542TIP3    H219591   7.072   5.938   0.746
 6543TIP3   OH219592   1.795   1.538   1.427
 6543TIP3    H119593   1.861   1.607   1.438
 6543TIP3    H219594   1.757   1.527   1.514
 6544TIP3   OH219595   5.796   3.769   4.448
 6544TIP3    H119596   5.710   3.809   4.457
 6544TIP3    H219597   5.857   3.836   4.480
 6545TIP3   OH219598   3.701   0.188   3.976
 6545TIP3    H119599   3.792   0.192   3.946
 6545TIP3    H219600   3.683   0.095   3.987
 6546TIP3   OH219601   1.280   6.210   2.241
 6546TIP3    H119602   1.192   6.194   2.276
 6546TIP3    H219603   1.335   6.145   2.283
 6547TIP3   OH219604   6.596   2.553   3.147
 6547TIP3    H119605   6.539   2.626   3.121
 6547TIP3    H219606   6.644   2.586   3.223
 6548TIP3   OH219607   3.191   0.015   5.485
 6548TIP3    H119608   3.202  -0.004   5.578
 6548TIP3    H219609   3.096   0.019   5.473
 6549TIP3   OH219610   5.549   0.752   4.364
 6549TIP3    H119611   5.568   0.766   4.457
 6549TIP3    H219612   5.595   0.671   4.343
 6550TIP3   OH219613   2.635   1.947   0.714
 6550TIP3    H119614   2.667   2.033   0.742
 6550TIP3    H219615   2.661   1.888   0.785
 6551TIP3   OH219616   4.668   1.136   5.581
 6551TIP3    H119617   4.675   1.180   5.496
 6551TIP3    H219618   4.713   1.194   5.642
 6552TIP3   OH219619   3.663   4.293   4.298
 6552TIP3    H119620   3.589   4.233   4.309
 6552TIP3    H219621   3.729   4.261   4.360
 6553TIP3   OH219622   1.632   0.862   1.553
 6553TIP3    H119623   1.703   0.812   1.512
 6553TIP3    H219624   1.597   0.916   1.483
 6554TIP3   OH219625   5.557   3.809   0.634
 6554TIP3    H119626   5.473   3.850   0.653
 6554TIP3    H219627   5.558   3.799   0.539
 6555TIP3   OH219628   0.050   3.734   2.504
 6555TIP3    H119629   0.015   3.657   2.458
 6555TIP3    H219630  -0.020   3.759   2.565
 6556TIP3   OH219631   1.721   4.894   4.042
 6556TIP3    H119632   1.756   4.869   4.128
 6556TIP3    H219633   1.640   4.941   4.063
 6557TIP3   OH219634   2.524   2.681   5.295
 6557TIP3    H119635   2.433   2.671   5.325
 6557TIP3    H219636   2.576   2.678   5.375
 6558TIP3   OH219637   6.894   5.649   4.081
 6558TIP3    H119638   6.934   5.735   4.097
 6558TIP3    H219639   6.969   5.589   4.078
 6559TIP3   OH219640   0.057   6.449   0.039
 6559TIP3    H119641   0.121   6.436  -0.031
 6559TIP3    H219642  -0.018   6.488  -0.006
 6560TIP3   OH219643   0.124   0.942   0.102
 6560TIP3    H119644   0.219   0.954   0.109
 6560TIP3    H219645   0.113   0.873   0.037
 6561TIP3   OH219646   1.350   6.738   2.657
 6561TIP3    H119647   1.331   6.657   2.704
 6561TIP3    H219648   1.266   6.766   2.622
 6562TIP3   OH219649   6.177   5.788   3.481
 6562TIP3    H119650   6.238   5.715   3.469
 6562TIP3    H219651   6.189   5.815   3.572
 6563TIP3   OH219652   3.168   4.619   2.499
 6563TIP3    H119653   3.163   4.610   2.404
 6563TIP3    H219654   3.099   4.682   2.521
 6564TIP3   OH219655   5.523   4.584   4.168
 6564TIP3    H119656   5.520   4.491   4.147
 6564TIP3    H219657   5.509   4.628   4.084
 6565TIP3   OH219658   4.000   3.959   1.824
 6565TIP3    H119659   4.032   3.876   1.860
 6565TIP3    H219660   4.010   4.021   1.896
 6566TIP3   OH219661   3.733   3.602   4.274
 6566TIP3    H119662   3.661   3.640   4.324
 6566TIP3    H219663   3.736   3.511   4.301
 6567TIP3   OH219664   1.197   6.082   3.461
 6567TIP3    H119665   1.149   6.163   3.474
 6567TIP3    H219666   1.266   6.104   3.398
 6568TIP3   OH219667   5.572   0.914   3.117
 6568TIP3    H119668   5.505   0.905   3.050
 6568TIP3    H219669   5.571   0.830   3.164
 6569TIP3   OH219670   1.105   0.117   2.105
 6569TIP3    H119671   1.092   0.137   2.197
 6569TIP3    H219672   1.105   0.202   2.061
 6570TIP3   OH219673   2.373   0.427   0.475
 6570TIP3    H119674   2.298   0.422   0.416
 6570TIP3    H219675   2.334   0.439   0.562
 6571TIP3   OH219676   1.641   3.881   5.617
 6571TIP3    H119677   1.594   3.925   5.688
 6571TIP3    H219678   1.572   3.852   5.557
 6572TIP3   OH219679   3.098   4.482   4.514
 6572TIP3    H119680   3.147   4.486   4.431
 6572TIP3    H219681   3.039   4.558   4.510
 6573TIP3   OH219682   5.741   3.115   0.525
 6573TIP3    H119683   5.654   3.104   0.563
 6573TIP3    H219684   5.726   3.117   0.430
 6574TIP3   OH219685   7.153   3.102   0.760
 6574TIP3    H119686   7.096   3.054   0.820
 6574TIP3    H219687   7.145   3.055   0.677
 6575TIP3   OH219688   0.773   5.311   4.193
 6575TIP3    H119689   0.752   5.229   4.147
 6575TIP3    H219690   0.713   5.312   4.267
 6576TIP3   OH219691   6.854   4.290   0.402
 6576TIP3    H119692   6.776   4.242   0.374
 6576TIP3    H219693   6.887   4.331   0.323
 6577TIP3   OH219694   5.868   4.126   0.258
 6577TIP3    H119695   5.814   4.061   0.303
 6577TIP3    H219696   5.818   4.149   0.179
 6578TIP3   OH219697   5.669   2.032   2.747
 6578TIP3    H119698   5.704   1.966   2.687
 6578TIP3    H219699   5.593   2.068   2.702
 6579TIP3   OH219700   0.465   2.071   5.828
 6579TIP3    H119701   0.546   2.122   5.819
 6579TIP3    H219702   0.471   2.005   5.759
 6580TIP3   OH219703   2.470   1.613   1.391
 6580TIP3    H119704   2.465   1.695   1.440
 6580TIP3    H219705   2.383   1.573   1.401
 6581TIP3   OH219706   4.457   6.632   2.981
 6581TIP3    H119707   4.450   6.645   2.886
 6581TIP3    H219708   4.540   6.674   3.004
 6582TIP3   OH219709   3.356   6.685   1.632
 6582TIP3    H119710   3.305   6.720   1.706
 6582TIP3    H219711   3.309   6.716   1.555
 6583TIP3   OH219712   2.783   4.561   4.485
 6583TIP3    H119713   2.742   4.607   4.558
 6583TIP3    H219714   2.727   4.581   4.410
 6584TIP3   OH219715   5.955   0.117   4.117
 6584TIP3    H119716   6.026   0.066   4.078
 6584TIP3    H219717   5.997   0.164   4.190
 6585TIP3   OH219718   6.406   5.869   4.729
 6585TIP3    H119719   6.398   5.959   4.760
 6585TIP3    H219720   6.455   5.876   4.648
 6586TIP3   OH219721   0.052   1.796   4.211
 6586TIP3    H119722  -0.034   1.827   4.187
 6586TIP3    H219723   0.106   1.811   4.134
 6587TIP3   OH219724   2.318   5.332   1.722
 6587TIP3    H119725   2.391   5.342   1.783
 6587TIP3    H219726   2.264   5.410   1.736
 6588TIP3   OH219727   3.120   6.048   1.649
 6588TIP3    H119728   3.108   6.117   1.583
 6588TIP3    H219729   3.037   6.047   1.697
 6589TIP3   OH219730   0.894   2.091   3.925
 6589TIP3    H119731   0.861   2.019   3.872
 6589TIP3    H219732   0.983   2.065   3.948
 6590TIP3   OH219733   3.984   6.658   4.577
 6590TIP3    H119734   3.983   6.651   4.672
 6590TIP3    H219735   3.957   6.748   4.558
 6591TIP3   OH219736   0.301   6.267   4.111
 6591TIP3    H119737   0.287   6.269   4.017
 6591TIP3    H219738   0.235   6.327   4.147
 6592TIP3   OH219739   5.655   1.199   2.285
 6592TIP3    H119740   5.584   1.151   2.240
 6592TIP3    H219741   5.655   1.285   2.245
 6593TIP3   OH219742   4.738   6.137   1.374
 6593TIP3    H119743   4.812   6.076   1.368
 6593TIP3    H219744   4.670   6.097   1.319
 6594TIP3   OH219745   0.299   0.113   2.308
 6594TIP3    H119746   0.323   0.022   2.320
 6594TIP3    H219747   0.338   0.137   2.223
 6595TIP3   OH219748   3.323   6.044   2.788
 6595TIP3    H119749   3.340   6.094   2.868
 6595TIP3    H219750   3.410   6.022   2.754
 6596TIP3   OH219751   2.143   3.459   1.366
 6596TIP3    H119752   2.158   3.536   1.310
 6596TIP3    H219753   2.176   3.386   1.314
 6597TIP3   OH219754   4.317   6.191   4.605
 6597TIP3    H119755   4.303   6.164   4.696
 6597TIP3    H219756   4.230   6.187   4.565
 6598TIP3   OH219757   5.825   1.940   2.122
 6598TIP3    H119758   5.868   2.016   2.083
 6598TIP3    H219759   5.891   1.904   2.182
 6599TIP3   OH219760   0.905   1.156   0.029
 6599TIP3    H119761   0.863   1.234   0.067
 6599TIP3    H219762   0.833   1.094   0.016
 6600TIP3   OH219763   0.252   2.887   0.919
 6600TIP3    H119764   0.337   2.928   0.932
 6600TIP3    H219765   0.232   2.901   0.827
 6601TIP3   OH219766   5.028   1.787   2.275
 6601TIP3    H119767   4.993   1.832   2.199
 6601TIP3    H219768   5.054   1.701   2.243
 6602TIP3   OH219769   6.399   5.829   4.309
 6602TIP3    H119770   6.391   5.736   4.286
 6602TIP3    H219771   6.312   5.865   4.295
 6603TIP3   OH219772   4.537   4.394   4.276
 6603TIP3    H119773   4.538   4.427   4.186
 6603TIP3    H219774   4.490   4.461   4.325
 6604TIP3   OH219775   2.782   2.328   4.941
 6604TIP3    H119776   2.769   2.418   4.970
 6604TIP3    H219777   2.872   2.327   4.908
 6605TIP3   OH219778   2.782   0.804   0.955
 6605TIP3    H119779   2.750   0.721   0.919
 6605TIP3    H219780   2.802   0.784   1.046
 6606TIP3   OH219781   6.517   5.767   0.328
 6606TIP3    H119782   6.459   5.724   0.391
 6606TIP3    H219783   6.459   5.804   0.262
 6607TIP3   OH219784   0.146   5.651   2.930
 6607TIP3    H119785   0.229   5.646   2.882
 6607TIP3    H219786   0.095   5.718   2.884
 6608TIP3   OH219787   2.382   2.207   1.492
 6608TIP3    H119788   2.441   2.142   1.530
 6608TIP3    H219789   2.348   2.165   1.413
 6609TIP3   OH219790   0.337   6.691   1.354
 6609TIP3    H119791   0.373   6.637   1.284
 6609TIP3    H219792   0.250   6.716   1.324
 6610TIP3   OH219793   3.143   3.900   3.359
 6610TIP3    H119794   3.177   3.840   3.293
 6610TIP3    H219795   3.143   3.986   3.317
 6611TIP3   OH219796   4.949   4.875   4.811
 6611TIP3    H119797   5.011   4.804   4.830
 6611TIP3    H219798   4.929   4.913   4.896
 6612TIP3   OH219799   4.199   2.342   2.937
 6612TIP3    H119800   4.146   2.412   2.902
 6612TIP3    H219801   4.284   2.382   2.955
 6613TIP3   OH219802   5.923   0.778   0.940
 6613TIP3    H119803   5.929   0.761   1.034
 6613TIP3    H219804   5.900   0.871   0.934
 6614TIP3   OH219805   5.031   0.618   1.101
 6614TIP3    H119806   4.942   0.599   1.130
 6614TIP3    H219807   5.061   0.688   1.159
 6615TIP3   OH219808   1.268   0.458   0.507
 6615TIP3    H119809   1.216   0.392   0.552
 6615TIP3    H219810   1.294   0.519   0.576
 6616TIP3   OH219811   1.430   0.974   0.098
 6616TIP3    H119812   1.381   0.903   0.056
 6616TIP3    H219813   1.484   0.930   0.163
 6617TIP3   OH219814   0.709   3.522   2.316
 6617TIP3    H119815   0.703   3.614   2.343
 6617TIP3    H219816   0.662   3.518   2.233
 6618TIP3   OH219817   4.796   3.309   4.309
 6618TIP3    H119818   4.782   3.342   4.220
 6618TIP3    H219819   4.793   3.388   4.364
 6619TIP3   OH219820   0.149   2.441   1.777
 6619TIP3    H119821   0.150   2.439   1.681
 6619TIP3    H219822   0.066   2.399   1.800
 6620TIP3   OH219823   4.684   2.511   3.743
 6620TIP3    H119824   4.694   2.605   3.755
 6620TIP3    H219825   4.642   2.501   3.658
 6621TIP3   OH219826   4.392   4.506   3.526
 6621TIP3    H119827   4.432   4.531   3.443
 6621TIP3    H219828   4.443   4.430   3.555
 6622TIP3   OH219829   1.849   4.003   0.611
 6622TIP3    H119830   1.781   3.938   0.628
 6622TIP3    H219831   1.886   4.023   0.698
 6623TIP3   OH219832   3.167   2.488   1.483
 6623TIP3    H119833   3.076   2.502   1.506
 6623TIP3    H219834   3.193   2.408   1.530
 6624TIP3   OH219835   0.507   5.870   4.338
 6624TIP3    H119836   0.455   5.950   4.332
 6624TIP3    H219837   0.526   5.861   4.432
 6625TIP3   OH219838   1.210   1.886   1.862
 6625TIP3    H119839   1.289   1.929   1.827
 6625TIP3    H219840   1.139   1.946   1.841
 6626TIP3   OH219841   5.408   3.480   3.645
 6626TIP3    H119842   5.384   3.395   3.682
 6626TIP3    H219843   5.342   3.541   3.679
 6627TIP3   OH219844   6.728   4.412   5.745
 6627TIP3    H119845   6.729   4.385   5.837
 6627TIP3    H219846   6.664   4.355   5.703
 6628TIP3   OH219847   3.275   3.534   1.288
 6628TIP3    H119848   3.362   3.528   1.326
 6628TIP3    H219849   3.239   3.446   1.294
 6629TIP3   OH219850   0.777   3.469   1.779
 6629TIP3    H119851   0.838   3.427   1.840
 6629TIP3    H219852   0.690   3.450   1.815
 6630TIP3   OH219853   6.165   1.888   4.244
 6630TIP3    H119854   6.255   1.902   4.273
 6630TIP3    H219855   6.151   1.954   4.176
 6631TIP3   OH219856   1.320   3.597   0.048
 6631TIP3    H119857   1.347   3.512   0.085
 6631TIP3    H219858   1.399   3.651   0.052
 6632TIP3   OH219859   2.813   6.056   2.131
 6632TIP3    H119860   2.862   6.071   2.211
 6632TIP3    H219861   2.865   5.994   2.081
 6633TIP3   OH219862   3.159   3.874   0.473
 6633TIP3    H119863   3.109   3.867   0.392
 6633TIP3    H219864   3.149   3.965   0.500
 6634TIP3   OH219865   0.433   4.182   2.023
 6634TIP3    H119866   0.446   4.126   1.946
 6634TIP3    H219867   0.481   4.262   2.002
 6635TIP3   OH219868   5.151   4.466   1.079
 6635TIP3    H119869   5.084   4.492   1.016
 6635TIP3    H219870   5.143   4.370   1.085
 6636TIP3   OH219871   4.416   5.170   1.903
 6636TIP3    H119872   4.477   5.197   1.971
 6636TIP3    H219873   4.330   5.192   1.937
 6637TIP3   OH219874   1.690   5.322   3.159
 6637TIP3    H119875   1.775   5.295   3.195
 6637TIP3    H219876   1.711   5.363   3.076
 6638TIP3   OH219877   0.006   6.640   2.752
 6638TIP3    H119878   0.071   6.595   2.698
 6638TIP3    H219879  -0.008   6.581   2.826
 6639TIP3   OH219880   4.755   5.088   2.756
 6639TIP3    H119881   4.811   5.165   2.748
 6639TIP3    H219882   4.815   5.014   2.744
 6640TIP3   OH219883   5.538   2.972   2.867
 6640TIP3    H119884   5.506   2.967   2.957
 6640TIP3    H219885   5.631   2.994   2.876
 6641TIP3   OH219886   6.009   2.180   5.344
 6641TIP3    H119887   6.035   2.264   5.308
 6641TIP3    H219888   5.913   2.182   5.344
 6642TIP3   OH219889   0.541   3.586   5.216
 6642TIP3    H119890   0.604   3.516   5.200
 6642TIP3    H219891   0.494   3.595   5.133
 6643TIP3   OH219892   1.354   4.662   1.765
 6643TIP3    H119893   1.429   4.671   1.823
 6643TIP3    H219894   1.293   4.605   1.812
 6644TIP3   OH219895   1.763   5.855   3.156
 6644TIP3    H119896   1.832   5.790   3.148
 6644TIP3    H219897   1.688   5.815   3.113
 6645TIP3   OH219898   1.287   6.495   0.274
 6645TIP3    H119899   1.339   6.482   0.195
 6645TIP3    H219900   1.269   6.589   0.276
 6646TIP3   OH219901   5.907   6.104   5.251
 6646TIP3    H119902   5.836   6.155   5.290
 6646TIP3    H219903   5.863   6.027   5.213
 6647TIP3   OH219904   3.873   3.143   1.224
 6647TIP3    H119905   3.967   3.157   1.223
 6647TIP3    H219906   3.840   3.201   1.292
 6648TIP3   OH219907   4.051   0.554   0.310
 6648TIP3    H119908   4.014   0.468   0.327
 6648TIP3    H219909   3.999   0.589   0.237
 6649TIP3   OH219910   4.107   5.421   1.264
 6649TIP3    H119911   4.163   5.377   1.328
 6649TIP3    H219912   4.038   5.358   1.245
 6650TIP3   OH219913   3.538   5.127   1.292
 6650TIP3    H119914   3.626   5.096   1.268
 6650TIP3    H219915   3.498   5.053   1.337
 6651TIP3   OH219916   6.447   3.142   3.019
 6651TIP3    H119917   6.493   3.111   2.941
 6651TIP3    H219918   6.443   3.237   3.009
 6652TIP3   OH219919   6.456   1.726   2.213
 6652TIP3    H119920   6.537   1.734   2.264
 6652TIP3    H219921   6.405   1.804   2.238
 6653TIP3   OH219922   0.265   1.833   3.714
 6653TIP3    H119923   0.224   1.879   3.641
 6653TIP3    H219924   0.195   1.782   3.753
 6654TIP3   OH219925   3.725   1.857   5.641
 6654TIP3    H119926   3.630   1.867   5.653
 6654TIP3    H219927   3.749   1.785   5.698
 6655TIP3   OH219928   0.322   5.595   0.399
 6655TIP3    H119929   0.315   5.500   0.406
 6655TIP3    H219930   0.373   5.609   0.319
 6656TIP3   OH219931   1.832   1.142   5.057
 6656TIP3    H119932   1.792   1.229   5.054
 6656TIP3    H219933   1.764   1.084   5.023
 6657TIP3   OH219934   0.314   1.018   0.644
 6657TIP3    H119935   0.318   1.054   0.733
 6657TIP3    H219936   0.244   0.954   0.647
 6658TIP3   OH219937   0.550   0.137   1.439
 6658TIP3    H119938   0.499   0.156   1.518
 6658TIP3    H219939   0.641   0.154   1.465
 6659TIP3   OH219940   5.769   4.462   5.399
 6659TIP3    H119941   5.843   4.444   5.340
 6659TIP3    H219942   5.759   4.557   5.395
 6660TIP3   OH219943   3.299   5.830   1.206
 6660TIP3    H119944   3.215   5.787   1.224
 6660TIP3    H219945   3.365   5.764   1.228
 6661TIP3   OH219946   6.997   1.642   2.852
 6661TIP3    H119947   7.062   1.585   2.813
 6661TIP3    H219948   7.031   1.731   2.840
 6662TIP3   OH219949   5.114   6.782   4.562
 6662TIP3    H119950   5.067   6.735   4.493
 6662TIP3    H219951   5.058   6.856   4.583
 6663TIP3   OH219952   4.929   2.384   2.316
 6663TIP3    H119953   4.892   2.310   2.364
 6663TIP3    H219954   5.012   2.402   2.359
 6664TIP3   OH219955   4.827   6.602   1.077
 6664TIP3    H119956   4.817   6.548   1.156
 6664TIP3    H219957   4.873   6.546   1.015
 6665TIP3   OH219958   0.468   5.106   2.322
 6665TIP3    H119959   0.508   5.152   2.396
 6665TIP3    H219960   0.416   5.037   2.362
 6666TIP3   OH219961   3.278   1.849   1.130
 6666TIP3    H119962   3.368   1.843   1.161
 6666TIP3    H219963   3.225   1.845   1.210
 6667TIP3   OH219964   1.846   0.094   3.104
 6667TIP3    H119965   1.835   0.001   3.124
 6667TIP3    H219966   1.913   0.096   3.037
 6668TIP3   OH219967   1.319   2.285   2.537
 6668TIP3    H119968   1.335   2.269   2.630
 6668TIP3    H219969   1.255   2.356   2.536
 6669TIP3   OH219970   3.516   3.809   1.535
 6669TIP3    H119971   3.522   3.851   1.621
 6669TIP3    H219972   3.453   3.863   1.488
 6670TIP3   OH219973   6.865   3.319   1.175
 6670TIP3    H119974   6.894   3.242   1.224
 6670TIP3    H219975   6.911   3.393   1.216
 6671TIP3   OH219976   6.607   4.160   1.716
 6671TIP3    H119977   6.584   4.123   1.631
 6671TIP3    H219978   6.535   4.135   1.774
 6672TIP3   OH219979   6.871   2.620   4.504
 6672TIP3    H119980   6.859   2.692   4.567
 6672TIP3    H219981   6.947   2.646   4.452
 6673TIP3   OH219982   1.166   3.780   0.968
 6673TIP3    H119983   1.101   3.790   1.038
 6673TIP3    H219984   1.251   3.782   1.014
 6674TIP3   OH219985   6.105   3.054   3.284
 6674TIP3    H119986   6.105   3.141   3.326
 6674TIP3    H219987   6.188   3.051   3.236
 6675TIP3   OH219988   2.539   0.493   3.048
 6675TIP3    H119989   2.492   0.409   3.047
 6675TIP3    H219990   2.523   0.528   3.135
 6676TIP3   OH219991   2.591   1.714   1.135
 6676TIP3    H119992   2.616   1.623   1.116
 6676TIP3    H219993   2.510   1.707   1.186
 6677TIP3   OH219994   0.796   0.894   0.109
 6677TIP3    H119995   0.841   0.844   0.041
 6677TIP3    H219996   0.707   0.905   0.075
 6678TIP3   OH219997   3.826   0.680   0.207
 6678TIP3    H119998   3.797   0.714   0.292
 6678TIP3    H219999   3.805   0.750   0.145
 6679TIP3   OH220000   6.161   2.233   2.145
 6679TIP3    H120001   6.097   2.178   2.100
 6679TIP3    H220002   6.204   2.281   2.074
 6680TIP3   OH220003   6.679   1.364   3.578
 6680TIP3    H120004   6.699   1.448   3.618
 6680TIP3    H220005   6.618   1.385   3.507
 6681TIP3   OH220006   1.886   3.474   4.054
 6681TIP3    H120007   1.938   3.542   4.097
 6681TIP3    H220008   1.801   3.514   4.038
 6682TIP3   OH220009   0.471   1.557   0.631
 6682TIP3    H120010   0.533   1.539   0.702
 6682TIP3    H220011   0.387   1.570   0.674
 6683TIP3   OH220012   6.255   5.354   4.811
 6683TIP3    H120013   6.161   5.373   4.812
 6683TIP3    H220014   6.295   5.434   4.777
 6684TIP3   OH220015   6.969   4.770   5.140
 6684TIP3    H120016   6.960   4.822   5.220
 6684TIP3    H220017   7.040   4.708   5.159
 6685TIP3   OH220018   1.448   4.081   1.613
 6685TIP3    H120019   1.390   4.148   1.650
 6685TIP3    H220020   1.534   4.101   1.650
 6686TIP3   OH220021   4.421   5.811   0.506
 6686TIP3    H120022   4.452   5.745   0.567
 6686TIP3    H220023   4.374   5.762   0.439
 6687TIP3   OH220024   5.059   0.698   1.950
 6687TIP3    H120025   4.987   0.641   1.976
 6687TIP3    H220026   5.079   0.748   2.029
 6688TIP3   OH220027   0.595   5.426   2.821
 6688TIP3    H120028   0.569   5.491   2.886
 6688TIP3    H220029   0.686   5.405   2.844
 6689TIP3   OH220030   0.664   5.279   5.718
 6689TIP3    H120031   0.642   5.198   5.673
 6689TIP3    H220032   0.601   5.343   5.684
 6690TIP3   OH220033   5.785   3.343   4.614
 6690TIP3    H120034   5.739   3.259   4.622
 6690TIP3    H220035   5.848   3.343   4.687
 6691TIP3   OH220036   3.103   1.297   3.310
 6691TIP3    H120037   3.155   1.217   3.302
 6691TIP3    H220038   3.166   1.363   3.340
 6692TIP3   OH220039   5.835   5.850   1.261
 6692TIP3    H120040   5.839   5.795   1.340
 6692TIP3    H220041   5.861   5.937   1.291
 6693TIP3   OH220042   6.487   2.478   1.319
 6693TIP3    H120043   6.410   2.437   1.358
 6693TIP3    H220044   6.481   2.458   1.226
 6694TIP3   OH220045   1.690   0.793   5.081
 6694TIP3    H120046   1.639   0.870   5.057
 6694TIP3    H220047   1.770   0.801   5.029
 6695TIP3   OH220048   3.210   2.170   3.016
 6695TIP3    H120049   3.269   2.225   3.068
 6695TIP3    H220050   3.167   2.232   2.956
 6696TIP3   OH220051   2.447   0.057   3.650
 6696TIP3    H120052   2.503   0.078   3.725
 6696TIP3    H220053   2.362   0.094   3.674
 6697TIP3   OH220054   5.750   1.196   0.254
 6697TIP3    H120055   5.832   1.166   0.293
 6697TIP3    H220056   5.776   1.239   0.173
 6698TIP3   OH220057   1.499   1.611   1.641
 6698TIP3    H120058   1.405   1.596   1.642
 6698TIP3    H220059   1.530   1.578   1.725
 6699TIP3   OH220060   0.204   3.516   5.740
 6699TIP3    H120061   0.226   3.484   5.828
 6699TIP3    H220062   0.287   3.543   5.702
 6700TIP3   OH220063   2.970   1.947   0.058
 6700TIP3    H120064   2.920   1.988  -0.013
 6700TIP3    H220065   3.061   1.952   0.029
 6701TIP3   OH220066   4.523   2.235   2.124
 6701TIP3    H120067   4.463   2.307   2.106
 6701TIP3    H220068   4.580   2.233   2.047
 6702TIP3   OH220069   6.425   4.676   1.142
 6702TIP3    H120070   6.398   4.584   1.134
 6702TIP3    H220071   6.518   4.671   1.166
 6703TIP3   OH220072   4.898   4.861   2.646
 6703TIP3    H120073   4.837   4.861   2.572
 6703TIP3    H220074   4.977   4.818   2.613
 6704TIP3   OH220075   4.751   2.998   4.299
 6704TIP3    H120076   4.666   3.041   4.288
 6704TIP3    H220077   4.767   2.955   4.215
 6705TIP3   OH220078   0.714   1.186   1.447
 6705TIP3    H120079   0.735   1.094   1.431
 6705TIP3    H220080   0.636   1.185   1.502
 6706TIP3   OH220081   4.478   1.811   4.231
 6706TIP3    H120082   4.510   1.888   4.278
 6706TIP3    H220083   4.550   1.786   4.173
 6707TIP3   OH220084   4.818   6.152   2.696
 6707TIP3    H120085   4.830   6.064   2.733
 6707TIP3    H220086   4.877   6.154   2.621
 6708TIP3   OH220087   3.518   1.934   1.419
 6708TIP3    H120088   3.440   1.878   1.415
 6708TIP3    H220089   3.489   2.018   1.383
 6709TIP3   OH220090   1.478   5.627   4.138
 6709TIP3    H120091   1.429   5.685   4.080
 6709TIP3    H220092   1.541   5.583   4.080
 6710TIP3   OH220093   0.277   5.224   3.554
 6710TIP3    H120094   0.258   5.311   3.589
 6710TIP3    H220095   0.250   5.228   3.463
 6711TIP3   OH220096   4.879   2.141   2.513
 6711TIP3    H120097   4.834   2.126   2.430
 6711TIP3    H220098   4.945   2.072   2.517
 6712TIP3   OH220099   4.819   3.359   5.373
 6712TIP3    H120100   4.813   3.406   5.290
 6712TIP3    H220101   4.758   3.405   5.431
 6713TIP3   OH220102   0.130   6.669   2.359
 6713TIP3    H120103   0.184   6.736   2.317
 6713TIP3    H220104   0.180   6.643   2.436
 6714TIP3   OH220105   6.523   0.611   0.377
 6714TIP3    H120106   6.575   0.689   0.360
 6714TIP3    H220107   6.442   0.625   0.327
 6715TIP3   OH220108   0.269   5.779   4.666
 6715TIP3    H120109   0.235   5.691   4.653
 6715TIP3    H220110   0.197   5.837   4.639
 6716TIP3   OH220111   5.431   2.007   3.210
 6716TIP3    H120112   5.432   1.911   3.211
 6716TIP3    H220113   5.364   2.030   3.274
 6717TIP3   OH220114   0.632   2.160   2.838
 6717TIP3    H120115   0.698   2.176   2.771
 6717TIP3    H220116   0.613   2.066   2.831
 6718TIP3   OH220117   3.444   0.037   2.712
 6718TIP3    H120118   3.470  -0.022   2.783
 6718TIP3    H220119   3.386  -0.015   2.657
 6719TIP3   OH220120   2.117   4.476   1.272
 6719TIP3    H120121   2.080   4.470   1.360
 6719TIP3    H220122   2.174   4.552   1.276
 6720TIP3   OH220123   0.041   6.609   5.766
 6720TIP3    H120124  -0.048   6.618   5.732
 6720TIP3    H220125   0.057   6.514   5.767
 6721TIP3   OH220126   0.584   5.516   4.770
 6721TIP3    H120127   0.536   5.513   4.687
 6721TIP3    H220128   0.597   5.610   4.787
 6722TIP3   OH220129   2.526   5.966   4.019
 6722TIP3    H120130   2.566   5.880   4.005
 6722TIP3    H220131   2.470   5.954   4.095
 6723TIP3   OH220132   6.146   3.754   0.893
 6723TIP3    H120133   6.058   3.790   0.881
 6723TIP3    H220134   6.134   3.659   0.889
 6724TIP3   OH220135   2.619   1.709   1.825
 6724TIP3    H120136   2.701   1.702   1.875
 6724TIP3    H220137   2.613   1.802   1.803
 6725TIP3   OH220138   3.545   3.600   4.719
 6725TIP3    H120139   3.484   3.539   4.760
 6725TIP3    H220140   3.590   3.642   4.792
 6726TIP3   OH220141   5.756   1.399   1.509
 6726TIP3    H120142   5.838   1.398   1.460
 6726TIP3    H220143   5.751   1.487   1.547
 6727TIP3   OH220144   1.009   5.225   0.375
 6727TIP3    H120145   0.947   5.241   0.447
 6727TIP3    H220146   1.093   5.210   0.419
 6728TIP3   OH220147   2.607   5.287   0.176
 6728TIP3    H120148   2.652   5.282   0.260
 6728TIP3    H220149   2.517   5.261   0.196
 6729TIP3   OH220150   2.383   2.397   2.312
 6729TIP3    H120151   2.439   2.356   2.247
 6729TIP3    H220152   2.443   2.452   2.363
 6730TIP3   OH220153   3.688   6.117   5.623
 6730TIP3    H120154   3.772   6.155   5.648
 6730TIP3    H220155   3.690   6.114   5.528
 6731TIP3   OH220156   1.714   6.593   3.482
 6731TIP3    H120157   1.733   6.679   3.444
 6731TIP3    H220158   1.799   6.553   3.496
 6732TIP3   OH220159   1.410   2.848   4.283
 6732TIP3    H120160   1.380   2.938   4.274
 6732TIP3    H220161   1.337   2.795   4.251
 6733TIP3   OH220162   3.170   5.198   3.866
 6733TIP3    H120163   3.076   5.198   3.853
 6733TIP3    H220164   3.198   5.286   3.842
 6734TIP3   OH220165   3.979   5.181   1.300
 6734TIP3    H120166   4.037   5.118   1.342
 6734TIP3    H220167   3.900   5.132   1.280
 6735TIP3   OH220168   4.468   3.716   3.476
 6735TIP3    H120169   4.432   3.761   3.400
 6735TIP3    H220170   4.416   3.749   3.550
 6736TIP3   OH220171   6.719   6.406   3.823
 6736TIP3    H120172   6.717   6.500   3.838
 6736TIP3    H220173   6.648   6.371   3.877
 6737TIP3   OH220174   5.630   2.511   4.355
 6737TIP3    H120175   5.594   2.584   4.304
 6737TIP3    H220176   5.661   2.449   4.288
 6738TIP3   OH220177   1.781   0.655   4.323
 6738TIP3    H120178   1.834   0.628   4.248
 6738TIP3    H220179   1.697   0.612   4.311
 6739TIP3   OH220180   5.944   1.120   4.032
 6739TIP3    H120181   5.917   1.030   4.052
 6739TIP3    H220182   5.870   1.173   4.062
 6740TIP3   OH220183   4.767   6.649   1.507
 6740TIP3    H120184   4.681   6.679   1.538
 6740TIP3    H220185   4.764   6.554   1.517
 6741TIP3   OH220186   2.674   4.638   2.594
 6741TIP3    H120187   2.620   4.586   2.534
 6741TIP3    H220188   2.629   4.631   2.679
 6742TIP3   OH220189   0.367   6.204   0.202
 6742TIP3    H120190   0.392   6.148   0.128
 6742TIP3    H220191   0.422   6.173   0.275
 6743TIP3   OH220192   5.591   2.381   3.072
 6743TIP3    H120193   5.510   2.333   3.054
 6743TIP3    H220194   5.659   2.313   3.076
 6744TIP3   OH220195   1.490   2.955   3.407
 6744TIP3    H120196   1.536   3.039   3.411
 6744TIP3    H220197   1.472   2.934   3.499
 6745TIP3   OH220198   6.800   4.064   2.586
 6745TIP3    H120199   6.883   4.099   2.552
 6745TIP3    H220200   6.761   4.137   2.633
 6746TIP3   OH220201   3.132   3.765   1.361
 6746TIP3    H120202   3.214   3.813   1.375
 6746TIP3    H220203   3.159   3.679   1.329
 6747TIP3   OH220204   4.569   2.844   1.103
 6747TIP3    H120205   4.558   2.843   1.008
 6747TIP3    H220206   4.484   2.872   1.137
 6748TIP3   OH220207   2.216   4.375   2.293
 6748TIP3    H120208   2.205   4.280   2.285
 6748TIP3    H220209   2.301   4.392   2.252
 6749TIP3   OH220210   2.524   5.533   0.057
 6749TIP3    H120211   2.587   5.460   0.061
 6749TIP3    H220212   2.439   5.490   0.044
 6750TIP3   OH220213   1.976   2.025   0.250
 6750TIP3    H120214   1.891   1.982   0.235
 6750TIP3    H220215   1.955   2.118   0.252
 6751TIP3   OH220216   5.775   4.592   0.739
 6751TIP3    H120217   5.861   4.633   0.733
 6751TIP3    H220218   5.770   4.533   0.663
 6752TIP3   OH220219   5.969   3.843   2.109
 6752TIP3    H120220   5.992   3.914   2.167
 6752TIP3    H220221   6.013   3.766   2.146
 6753TIP3   OH220222   3.248   3.199   3.460
 6753TIP3    H120223   3.249   3.293   3.438
 6753TIP3    H220224   3.162   3.186   3.501
 6754TIP3   OH220225   5.516   1.343   4.691
 6754TIP3    H120226   5.565   1.401   4.632
 6754TIP3    H220227   5.581   1.279   4.719
 6755TIP3   OH220228   4.680   1.488   1.862
 6755TIP3    H120229   4.628   1.484   1.942
 6755TIP3    H220230   4.768   1.463   1.888
 6756TIP3   OH220231   6.387   4.126   5.317
 6756TIP3    H120232   6.331   4.060   5.276
 6756TIP3    H220233   6.424   4.175   5.243
 6757TIP3   OH220234   3.561   4.833   5.197
 6757TIP3    H120235   3.562   4.911   5.253
 6757TIP3    H220236   3.613   4.858   5.121
 6758TIP3   OH220237   7.179   1.385   1.464
 6758TIP3    H120238   7.109   1.430   1.511
 6758TIP3    H220239   7.256   1.440   1.475
 6759TIP3   OH220240   1.577   4.130   5.047
 6759TIP3    H120241   1.588   4.204   4.987
 6759TIP3    H220242   1.652   4.137   5.107
 6760TIP3   OH220243   0.313   3.396   2.588
 6760TIP3    H120244   0.331   3.487   2.567
 6760TIP3    H220245   0.397   3.360   2.616
 6761TIP3   OH220246   3.583   4.680   0.445
 6761TIP3    H120247   3.549   4.598   0.408
 6761TIP3    H220248   3.678   4.673   0.435
 6762TIP3   OH220249   6.663   4.337   4.693
 6762TIP3    H120250   6.732   4.398   4.718
 6762TIP3    H220251   6.584   4.372   4.734
 6763TIP3   OH220252   1.993   1.766   4.191
 6763TIP3    H120253   1.903   1.746   4.167
 6763TIP3    H220254   2.006   1.724   4.276
 6764TIP3   OH220255   3.733   1.150   3.185
 6764TIP3    H120256   3.665   1.124   3.123
 6764TIP3    H220257   3.815   1.136   3.138
 6765TIP3   OH220258   4.052   1.238   2.235
 6765TIP3    H120259   3.988   1.295   2.277
 6765TIP3    H220260   4.100   1.295   2.175
 6766TIP3   OH220261   0.323   3.661   2.505
 6766TIP3    H120262   0.229   3.676   2.508
 6766TIP3    H220263   0.350   3.696   2.420
 6767TIP3   OH220264   3.761   3.628   1.119
 6767TIP3    H120265   3.684   3.581   1.150
 6767TIP3    H220266   3.727   3.691   1.056
 6768TIP3   OH220267   0.746   3.722   1.383
 6768TIP3    H120268   0.779   3.802   1.425
 6768TIP3    H220269   0.798   3.652   1.423
 6769TIP3   OH220270   0.349   0.510   2.684
 6769TIP3    H120271   0.376   0.568   2.613
 6769TIP3    H220272   0.372   0.422   2.653
 6770TIP3   OH220273   0.538   1.479   0.323
 6770TIP3    H120274   0.556   1.402   0.376
 6770TIP3    H220275   0.491   1.538   0.381
 6771TIP3   OH220276   5.084   5.176   2.553
 6771TIP3    H120277   5.046   5.138   2.474
 6771TIP3    H220278   5.047   5.264   2.557
 6772TIP3   OH220279   3.297   2.605   5.035
 6772TIP3    H120280   3.266   2.643   5.118
 6772TIP3    H220281   3.257   2.659   4.967
 6773TIP3   OH220282   1.907   6.272   4.109
 6773TIP3    H120283   1.911   6.326   4.188
 6773TIP3    H220284   1.820   6.288   4.073
 6774TIP3   OH220285   2.586  -0.007   4.793
 6774TIP3    H120286   2.586   0.085   4.766
 6774TIP3    H220287   2.559  -0.055   4.715
 6775TIP3   OH220288   5.793   3.001   3.998
 6775TIP3    H120289   5.807   3.088   3.961
 6775TIP3    H220290   5.878   2.958   3.989
 6776TIP3   OH220291   4.479   1.447   5.823
 6776TIP3    H120292   4.502   1.474   5.912
 6776TIP3    H220293   4.383   1.450   5.821
 6777TIP3   OH220294   4.669   1.965   5.343
 6777TIP3    H120295   4.745   1.909   5.361
 6777TIP3    H220296   4.669   2.030   5.414
 6778TIP3   OH220297   7.101   0.694   2.792
 6778TIP3    H120298   7.097   0.724   2.701
 6778TIP3    H220299   7.017   0.649   2.806
 6779TIP3   OH220300   0.273   5.380   3.910
 6779TIP3    H120301   0.200   5.333   3.869
 6779TIP3    H220302   0.238   5.411   3.993
 6780TIP3   OH220303   1.677   2.322   1.076
 6780TIP3    H120304   1.593   2.296   1.039
 6780TIP3    H220305   1.710   2.243   1.120
 6781TIP3   OH220306   4.789   0.358   3.153
 6781TIP3    H120307   4.791   0.442   3.199
 6781TIP3    H220308   4.787   0.293   3.223
 6782TIP3   OH220309   4.545   3.986   1.189
 6782TIP3    H120310   4.561   4.063   1.244
 6782TIP3    H220311   4.590   4.005   1.107
 6783TIP3   OH220312   7.105   5.659   0.670
 6783TIP3    H120313   7.101   5.604   0.748
 6783TIP3    H220314   7.013   5.670   0.644
 6784TIP3   OH220315   6.125   3.015   0.287
 6784TIP3    H120316   6.059   3.026   0.355
 6784TIP3    H220317   6.086   3.055   0.209
 6785TIP3   OH220318   3.928   5.978   3.706
 6785TIP3    H120319   3.913   5.955   3.797
 6785TIP3    H220320   3.921   5.896   3.658
 6786TIP3   OH220321  -0.019   0.580   2.013
 6786TIP3    H120322   0.024   0.655   1.972
 6786TIP3    H220323   0.053   0.520   2.035
 6787TIP3   OH220324   7.229   0.261   3.925
 6787TIP3    H120325   7.207   0.225   4.011
 6787TIP3    H220326   7.191   0.349   3.925
 6788TIP3   OH220327   5.736   6.694   2.051
 6788TIP3    H120328   5.785   6.772   2.076
 6788TIP3    H220329   5.771   6.624   2.106
 6789TIP3   OH220330   3.627   5.054   3.299
 6789TIP3    H120331   3.641   5.053   3.204
 6789TIP3    H220332   3.578   4.973   3.316
 6790TIP3   OH220333   2.423   0.633   5.711
 6790TIP3    H120334   2.438   0.542   5.687
 6790TIP3    H220335   2.388   0.630   5.800
 6791TIP3   OH220336   1.413   2.657   1.474
 6791TIP3    H120337   1.322   2.643   1.448
 6791TIP3    H220338   1.465   2.622   1.402
 6792TIP3   OH220339   2.725   5.089   4.660
 6792TIP3    H120340   2.676   5.150   4.715
 6792TIP3    H220341   2.662   5.022   4.634
 6793TIP3   OH220342   3.350   6.488   2.246
 6793TIP3    H120343   3.271   6.498   2.299
 6793TIP3    H220344   3.324   6.430   2.174
 6794TIP3   OH220345   6.959   4.265   3.690
 6794TIP3    H120346   7.037   4.222   3.654
 6794TIP3    H220347   6.962   4.247   3.783
 6795TIP3   OH220348   6.351   0.344   4.274
 6795TIP3    H120349   6.274   0.387   4.238
 6795TIP3    H220350   6.367   0.389   4.357
 6796TIP3   OH220351   1.918   6.578   2.426
 6796TIP3    H120352   1.909   6.537   2.340
 6796TIP3    H220353   1.828   6.588   2.458
 6797TIP3   OH220354   4.492   5.851   4.565
 6797TIP3    H120355   4.499   5.942   4.538
 6797TIP3    H220356   4.507   5.801   4.484
 6798TIP3   OH220357   2.298   0.281   4.157
 6798TIP3    H120358   2.348   0.205   4.128
 6798TIP3    H220359   2.363   0.338   4.198
 6799TIP3   OH220360   4.493   4.994   4.345
 6799TIP3    H120361   4.453   5.081   4.345
 6799TIP3    H220362   4.419   4.934   4.357
 6800TIP3   OH220363   3.476   0.981   3.801
 6800TIP3    H120364   3.511   0.893   3.786
 6800TIP3    H220365   3.408   0.991   3.735
 6801TIP3   OH220366   1.676   1.875   0.567
 6801TIP3    H120367   1.728   1.876   0.648
 6801TIP3    H220368   1.705   1.796   0.521
 6802TIP3   OH220369   0.297   6.048   0.684
 6802TIP3    H120370   0.205   6.075   0.688
 6802TIP3    H220371   0.313   6.007   0.769
 6803TIP3   OH220372   3.231   4.379   1.203
 6803TIP3    H120373   3.166   4.353   1.138
 6803TIP3    H220374   3.299   4.312   1.197
 6804TIP3   OH220375   6.980   3.554   4.604
 6804TIP3    H120376   7.012   3.627   4.656
 6804TIP3    H220377   6.975   3.481   4.666
 6805TIP3   OH220378   1.287   1.126   0.264
 6805TIP3    H120379   1.238   1.184   0.207
 6805TIP3    H220380   1.337   1.070   0.204
 6806TIP3   OH220381   1.775   2.721   0.177
 6806TIP3    H120382   1.805   2.665   0.248
 6806TIP3    H220383   1.774   2.809   0.214
 6807TIP3   OH220384   3.899   2.223   3.357
 6807TIP3    H120385   3.910   2.300   3.301
 6807TIP3    H220386   3.949   2.244   3.436
 6808TIP3   OH220387   3.572   0.764   0.982
 6808TIP3    H120388   3.517   0.782   1.058
 6808TIP3    H220389   3.619   0.684   1.005
 6809TIP3   OH220390   5.725   6.265   0.783
 6809TIP3    H120391   5.773   6.185   0.807
 6809TIP3    H220392   5.641   6.256   0.827
 6810TIP3   OH220393   2.378   3.037   2.054
 6810TIP3    H120394   2.301   3.090   2.032
 6810TIP3    H220395   2.343   2.961   2.101
 6811TIP3   OH220396   4.714   3.590   1.793
 6811TIP3    H120397   4.785   3.570   1.732
 6811TIP3    H220398   4.654   3.645   1.743
 6812TIP3   OH220399   4.198   4.966   0.767
 6812TIP3    H120400   4.141   4.911   0.713
 6812TIP3    H220401   4.155   4.970   0.852
 6813TIP3   OH220402   4.530   5.369   1.754
 6813TIP3    H120403   4.483   5.301   1.803
 6813TIP3    H220404   4.461   5.424   1.716
 6814TIP3   OH220405   1.165   2.961   0.105
 6814TIP3    H120406   1.139   2.947   0.196
 6814TIP3    H220407   1.084   2.955   0.055
 6815TIP3   OH220408   0.247   6.777   5.778
 6815TIP3    H120409   0.176   6.715   5.765
 6815TIP3    H220410   0.221   6.827   5.855
 6816TIP3   OH220411   4.186   6.603   3.039
 6816TIP3    H120412   4.181   6.587   3.133
 6816TIP3    H220413   4.279   6.620   3.022
 6817TIP3   OH220414   6.020   1.635   1.912
 6817TIP3    H120415   5.970   1.587   1.978
 6817TIP3    H220416   6.071   1.699   1.963
 6818TIP3   OH220417   2.157   6.180   4.221
 6818TIP3    H120418   2.085   6.235   4.191
 6818TIP3    H220419   2.211   6.238   4.274
 6819TIP3   OH220420   7.190   4.448   4.172
 6819TIP3    H120421   7.207   4.360   4.140
 6819TIP3    H220422   7.105   4.443   4.214
 6820TIP3   OH220423   0.158   2.711   1.777
 6820TIP3    H120424   0.064   2.725   1.792
 6820TIP3    H220425   0.168   2.616   1.774
 6821TIP3   OH220426   3.647   0.689   4.475
 6821TIP3    H120427   3.687   0.775   4.463
 6821TIP3    H220428   3.599   0.673   4.393
 6822TIP3   OH220429   0.931   1.337   4.075
 6822TIP3    H120430   0.943   1.430   4.054
 6822TIP3    H220431   0.886   1.301   3.998
 6823TIP3   OH220432   0.483   2.011   3.387
 6823TIP3    H120433   0.421   1.938   3.387
 6823TIP3    H220434   0.568   1.970   3.373
 6824TIP3   OH220435   6.852   0.911   0.738
 6824TIP3    H120436   6.781   0.905   0.802
 6824TIP3    H220437   6.839   0.834   0.682
 6825TIP3   OH220438   3.041   3.858   5.327
 6825TIP3    H120439   2.946   3.863   5.340
 6825TIP3    H220440   3.073   3.942   5.361
 6826TIP3   OH220441   2.535   2.669   3.452
 6826TIP3    H120442   2.441   2.656   3.464
 6826TIP3    H220443   2.567   2.585   3.419
 6827TIP3   OH220444   5.547   2.294   1.526
 6827TIP3    H120445   5.625   2.315   1.474
 6827TIP3    H220446   5.573   2.217   1.577
 6828TIP3   OH220447   2.646   0.808   0.384
 6828TIP3    H120448   2.571   0.823   0.441
 6828TIP3    H220449   2.701   0.886   0.396
 6829TIP3   OH220450   4.957   5.140   2.307
 6829TIP3    H120451   4.988   5.172   2.222
 6829TIP3    H220452   4.895   5.206   2.337
 6830TIP3   OH220453   1.367   3.471   2.628
 6830TIP3    H120454   1.431   3.540   2.609
 6830TIP3    H220455   1.311   3.469   2.551
 6831TIP3   OH220456   6.822   4.523   2.067
 6831TIP3    H120457   6.836   4.448   2.125
 6831TIP3    H220458   6.751   4.496   2.009
 6832TIP3   OH220459   6.813   0.865   1.260
 6832TIP3    H120460   6.837   0.923   1.332
 6832TIP3    H220461   6.895   0.852   1.212
 6833TIP3   OH220462   3.366   4.524   3.525
 6833TIP3    H120463   3.279   4.522   3.486
 6833TIP3    H220464   3.423   4.487   3.457
 6834TIP3   OH220465   7.092   4.777   3.831
 6834TIP3    H120466   7.184   4.754   3.839
 6834TIP3    H220467   7.045   4.697   3.853
 6835TIP3   OH220468   2.842   0.914   5.702
 6835TIP3    H120469   2.890   0.940   5.623
 6835TIP3    H220470   2.751   0.906   5.672
 6836TIP3   OH220471   4.979   4.722   0.140
 6836TIP3    H120472   4.903   4.663   0.141
 6836TIP3    H220473   4.958   4.789   0.206
 6837TIP3   OH220474   7.135   4.236   0.602
 6837TIP3    H120475   7.159   4.284   0.523
 6837TIP3    H220476   7.048   4.267   0.625
 6838TIP3   OH220477   4.098   6.615   1.465
 6838TIP3    H120478   4.157   6.677   1.421
 6838TIP3    H220479   4.052   6.668   1.531
 6839TIP3   OH220480   6.525   1.739   4.416
 6839TIP3    H120481   6.530   1.658   4.367
 6839TIP3    H220482   6.576   1.723   4.496
 6840TIP3   OH220483   1.915   0.680   0.680
 6840TIP3    H120484   1.829   0.639   0.690
 6840TIP3    H220485   1.962   0.623   0.619
 6841TIP3   OH220486   1.730   4.855   1.724
 6841TIP3    H120487   1.808   4.908   1.708
 6841TIP3    H220488   1.705   4.875   1.814
 6842TIP3   OH220489   6.538   1.000   2.509
 6842TIP3    H120490   6.550   0.910   2.478
 6842TIP3    H220491   6.463   0.995   2.568
 6843TIP3   OH220492   6.653   5.541   0.783
 6843TIP3    H120493   6.710   5.575   0.714
 6843TIP3    H220494   6.714   5.509   0.850
 6844TIP3   OH220495   7.101   5.641   3.552
 6844TIP3    H120496   7.078   5.732   3.570
 6844TIP3    H220497   7.078   5.594   3.632
 6845TIP3   OH220498   5.566   6.274   0.516
 6845TIP3    H120499   5.559   6.207   0.447
 6845TIP3    H220500   5.625   6.235   0.581
 6846TIP3   OH220501   4.806   5.121   5.506
 6846TIP3    H120502   4.878   5.078   5.552
 6846TIP3    H220503   4.755   5.050   5.468
 6847TIP3   OH220504   6.403   4.736   2.578
 6847TIP3    H120505   6.327   4.794   2.582
 6847TIP3    H220506   6.385   4.676   2.506
 6848TIP3   OH220507   3.147   6.548   2.735
 6848TIP3    H120508   3.216   6.519   2.796
 6848TIP3    H220509   3.161   6.643   2.729
 6849TIP3   OH220510   1.285   1.827   0.623
 6849TIP3    H120511   1.333   1.746   0.638
 6849TIP3    H220512   1.325   1.865   0.544
 6850TIP3   OH220513   5.601   3.730   3.643
 6850TIP3    H120514   5.591   3.773   3.727
 6850TIP3    H220515   5.557   3.645   3.654
 6851TIP3   OH220516   5.933   1.680   4.390
 6851TIP3    H120517   5.999   1.734   4.346
 6851TIP3    H220518   5.978   1.598   4.409
 6852TIP3   OH220519   4.380   4.925   0.069
 6852TIP3    H120520   4.315   4.869   0.112
 6852TIP3    H220521   4.463   4.879   0.079
 6853TIP3   OH220522   6.438   6.363   4.842
 6853TIP3    H120523   6.522   6.337   4.881
 6853TIP3    H220524   6.393   6.411   4.912
 6854TIP3   OH220525   0.770   0.933   4.113
 6854TIP3    H120526   0.787   0.982   4.033
 6854TIP3    H220527   0.853   0.890   4.133
 6855TIP3   OH220528   3.997   6.643   4.882
 6855TIP3    H120529   4.082   6.599   4.891
 6855TIP3    H220530   3.963   6.648   4.971
 6856TIP3   OH220531   1.482   4.485   4.965
 6856TIP3    H120532   1.524   4.567   4.992
 6856TIP3    H220533   1.479   4.433   5.045
 6857TIP3   OH220534   3.256   3.588   0.639
 6857TIP3    H120535   3.288   3.649   0.573
 6857TIP3    H220536   3.210   3.521   0.590
 6858TIP3   OH220537   0.100   1.506   2.220
 6858TIP3    H120538   0.182   1.508   2.269
 6858TIP3    H220539   0.043   1.566   2.268
 6859TIP3   OH220540   5.679   5.003   3.112
 6859TIP3    H120541   5.583   5.002   3.113
 6859TIP3    H220542   5.704   4.916   3.082
 6860TIP3   OH220543   1.168   5.603   4.545
 6860TIP3    H120544   1.151   5.522   4.593
 6860TIP3    H220545   1.201   5.664   4.610
 6861TIP3   OH220546   1.541   2.970   0.619
 6861TIP3    H120547   1.592   2.891   0.636
 6861TIP3    H220548   1.570   3.032   0.686
 6862TIP3   OH220549   3.515   0.135   4.345
 6862TIP3    H120550   3.490   0.163   4.433
 6862TIP3    H220551   3.432   0.130   4.297
 6863TIP3   OH220552   4.641   5.125   3.291
 6863TIP3    H120553   4.568   5.138   3.231
 6863TIP3    H220554   4.716   5.108   3.234
 6864TIP3   OH220555   6.729   1.089   0.405
 6864TIP3    H120556   6.666   1.120   0.470
 6864TIP3    H220557   6.813   1.125   0.435
 6865TIP3   OH220558   2.054   4.397   4.630
 6865TIP3    H120559   2.062   4.459   4.557
 6865TIP3    H220560   1.960   4.389   4.644
 6866TIP3   OH220561   2.879   0.491   3.730
 6866TIP3    H120562   2.909   0.573   3.691
 6866TIP3    H220563   2.784   0.495   3.724
 6867TIP3   OH220564   0.344   2.019   5.522
 6867TIP3    H120565   0.392   2.100   5.541
 6867TIP3    H220566   0.394   1.951   5.566
 6868TIP3   OH220567   5.366   6.057   1.606
 6868TIP3    H120568   5.376   5.963   1.592
 6868TIP3    H220569   5.385   6.070   1.699
 6869TIP3   OH220570   1.583   5.988   5.594
 6869TIP3    H120571   1.514   6.040   5.553
 6869TIP3    H220572   1.583   6.015   5.686
 6870TIP3   OH220573   1.524   5.864   1.190
 6870TIP3    H120574   1.515   5.783   1.241
 6870TIP3    H220575   1.612   5.896   1.212
 6871TIP3   OH220576   5.844   2.635   0.750
 6871TIP3    H120577   5.804   2.715   0.786
 6871TIP3    H220578   5.923   2.623   0.802
 6872TIP3   OH220579   2.401   5.824   1.586
 6872TIP3    H120580   2.367   5.894   1.642
 6872TIP3    H220581   2.480   5.862   1.546
 6873TIP3   OH220582   6.573   5.553   4.835
 6873TIP3    H120583   6.495   5.567   4.782
 6873TIP3    H220584   6.636   5.617   4.804
 6874TIP3   OH220585   0.536   6.359   2.360
 6874TIP3    H120586   0.618   6.310   2.370
 6874TIP3    H220587   0.519   6.393   2.448
 6875TIP3   OH220588   6.836   1.982   2.671
 6875TIP3    H120589   6.749   2.019   2.654
 6875TIP3    H220590   6.896   2.056   2.661
 6876TIP3   OH220591   4.780   2.942   4.663
 6876TIP3    H120592   4.694   2.946   4.703
 6876TIP3    H220593   4.792   3.029   4.624
 6877TIP3   OH220594   4.944   1.170   3.582
 6877TIP3    H120595   4.949   1.088   3.631
 6877TIP3    H220596   4.857   1.169   3.542
 6878TIP3   OH220597   1.067   6.064   1.411
 6878TIP3    H120598   1.019   6.141   1.379
 6878TIP3    H220599   1.002   6.016   1.462
 6879TIP3   OH220600   2.136   2.483   3.293
 6879TIP3    H120601   2.062   2.459   3.349
 6879TIP3    H220602   2.132   2.422   3.220
 6880TIP3   OH220603   3.136   5.421   4.366
 6880TIP3    H120604   3.139   5.515   4.382
 6880TIP3    H220605   3.183   5.410   4.283
 6881TIP3   OH220606   1.794   0.087   5.413
 6881TIP3    H120607   1.875   0.111   5.458
 6881TIP3    H220608   1.780   0.158   5.350
 6882TIP3   OH220609   2.673   3.600   3.163
 6882TIP3    H120610   2.662   3.634   3.075
 6882TIP3    H220611   2.757   3.636   3.192
 6883TIP3   OH220612   6.952   3.384   5.615
 6883TIP3    H120613   6.858   3.370   5.615
 6883TIP3    H220614   6.970   3.436   5.537
 6884TIP3   OH220615   3.984   0.295   0.294
 6884TIP3    H120616   4.053   0.230   0.304
 6884TIP3    H220617   3.910   0.259   0.342
 6885TIP3   OH220618   6.418   2.685   0.867
 6885TIP3    H120619   6.354   2.666   0.798
 6885TIP3    H220620   6.502   2.659   0.830
 6886TIP3   OH220621   0.231   2.841   0.108
 6886TIP3    H120622   0.231   2.790   0.027
 6886TIP3    H220623   0.197   2.927   0.082
 6887TIP3   OH220624   0.346   3.594   5.001
 6887TIP3    H120625   0.312   3.674   4.960
 6887TIP3    H220626   0.303   3.522   4.955
 6888TIP3   OH220627   2.749   1.076   2.970
 6888TIP3    H120628   2.787   1.115   3.049
 6888TIP3    H220629   2.669   1.033   3.000
 6889TIP3   OH220630   0.551   5.336   3.921
 6889TIP3    H120631   0.560   5.273   3.992
 6889TIP3    H220632   0.456   5.346   3.910
 6890TIP3   OH220633   3.827   0.233   1.818
 6890TIP3    H120634   3.766   0.241   1.890
 6890TIP3    H220635   3.908   0.201   1.858
 6891TIP3   OH220636   6.498   0.535   4.914
 6891TIP3    H120637   6.518   0.533   4.820
 6891TIP3    H220638   6.563   0.595   4.950
 6892TIP3   OH220639   3.996   3.639   3.403
 6892TIP3    H120640   4.032   3.617   3.489
 6892TIP3    H220641   3.902   3.630   3.414
 6893TIP3   OH220642   6.881   3.065   1.323
 6893TIP3    H120643   6.881   2.996   1.389
 6893TIP3    H220644   6.796   3.056   1.279
 6894TIP3   OH220645   3.379   6.306   0.736
 6894TIP3    H120646   3.365   6.401   0.745
 6894TIP3    H220647   3.350   6.286   0.647
 6895TIP3   OH220648   1.354   1.405   5.358
 6895TIP3    H120649   1.280   1.367   5.407
 6895TIP3    H220650   1.431   1.371   5.403
 6896TIP3   OH220651   4.417   0.261   4.475
 6896TIP3    H120652   4.416   0.196   4.545
 6896TIP3    H220653   4.437   0.344   4.519
 6897TIP3   OH220654   0.940   3.075   4.406
 6897TIP3    H120655   0.977   3.163   4.401
 6897TIP3    H220656   0.860   3.086   4.458
 6898TIP3   OH220657   2.519   1.085   3.807
 6898TIP3    H120658   2.612   1.104   3.820
 6898TIP3    H220659   2.498   1.020   3.875
 6899TIP3   OH220660   0.624   5.942   2.955
 6899TIP3    H120661   0.699   5.902   2.998
 6899TIP3    H220662   0.661   5.988   2.879
 6900TIP3   OH220663   6.074   1.320   2.211
 6900TIP3    H120664   6.168   1.304   2.223
 6900TIP3    H220665   6.037   1.312   2.298
 6901TIP3   OH220666   6.108   1.565   1.376
 6901TIP3    H120667   6.060   1.633   1.421
 6901TIP3    H220668   6.183   1.547   1.432
 6902TIP3   OH220669   3.368   3.841   4.170
 6902TIP3    H120670   3.290   3.792   4.195
 6902TIP3    H220671   3.429   3.775   4.139
 6903TIP3   OH220672   3.527   3.377   4.001
 6903TIP3    H120673   3.502   3.361   3.910
 6903TIP3    H220674   3.594   3.312   4.019
 6904TIP3   OH220675   6.637   5.720   1.130
 6904TIP3    H120676   6.715   5.712   1.074
 6904TIP3    H220677   6.628   5.633   1.170
 6905TIP3   OH220678   1.320   0.653   1.555
 6905TIP3    H120679   1.304   0.747   1.549
 6905TIP3    H220680   1.302   0.619   1.467
 6906TIP3   OH220681   1.077   2.751   2.427
 6906TIP3    H120682   1.040   2.701   2.499
 6906TIP3    H220683   1.141   2.809   2.469
 6907TIP3   OH220684   1.977   6.466   0.722
 6907TIP3    H120685   1.936   6.550   0.744
 6907TIP3    H220686   1.935   6.440   0.640
 6908TIP3   OH220687   4.124   0.577   1.524
 6908TIP3    H120688   4.111   0.543   1.613
 6908TIP3    H220689   4.140   0.499   1.471
 6909TIP3   OH220690   0.112   5.113   3.975
 6909TIP3    H120691   0.119   5.043   3.911
 6909TIP3    H220692   0.019   5.133   3.980
 6910TIP3   OH220693   2.038   0.168   1.791
 6910TIP3    H120694   2.084   0.230   1.847
 6910TIP3    H220695   2.096   0.092   1.785
 6911TIP3   OH220696   0.963   4.046   0.975
 6911TIP3    H120697   1.014   4.111   0.927
 6911TIP3    H220698   1.028   3.997   1.026
 6912TIP3   OH220699   1.551   4.262   3.121
 6912TIP3    H120700   1.544   4.316   3.042
 6912TIP3    H220701   1.638   4.222   3.115
 6913TIP3   OH220702   6.554   5.576   1.464
 6913TIP3    H120703   6.531   5.519   1.537
 6913TIP3    H220704   6.584   5.657   1.506
 6914TIP3   OH220705   4.752   2.189   3.011
 6914TIP3    H120706   4.666   2.205   2.972
 6914TIP3    H220707   4.804   2.265   2.986
 6915TIP3   OH220708   6.600   2.441   1.590
 6915TIP3    H120709   6.626   2.361   1.545
 6915TIP3    H220710   6.561   2.496   1.522
 6916TIP3   OH220711   1.263   6.730   0.685
 6916TIP3    H120712   1.204   6.745   0.759
 6916TIP3    H220713   1.318   6.808   0.682
 6917TIP3   OH220714   7.201   4.031   1.306
 6917TIP3    H120715   7.184   3.939   1.326
 6917TIP3    H220716   7.240   4.030   1.219
 6918TIP3   OH220717   4.998   2.664   5.068
 6918TIP3    H120718   5.078   2.716   5.077
 6918TIP3    H220719   4.998   2.635   4.977
 6919TIP3   OH220720   6.325   2.391   3.695
 6919TIP3    H120721   6.236   2.423   3.711
 6919TIP3    H220722   6.318   2.296   3.700
 6920TIP3   OH220723   4.913   2.349   2.810
 6920TIP3    H120724   4.974   2.421   2.794
 6920TIP3    H220725   4.967   2.270   2.802
 6921TIP3   OH220726   5.377   4.305   2.471
 6921TIP3    H120727   5.427   4.325   2.392
 6921TIP3    H220728   5.395   4.378   2.530
 6922TIP3   OH220729   7.163   5.403   1.478
 6922TIP3    H120730   7.138   5.311   1.473
 6922TIP3    H220731   7.096   5.449   1.427
 6923TIP3   OH220732   1.003   2.573   3.351
 6923TIP3    H120733   0.943   2.599   3.422
 6923TIP3    H220734   0.956   2.504   3.304
 6924TIP3   OH220735   6.463   1.754   3.301
 6924TIP3    H120736   6.551   1.790   3.310
 6924TIP3    H220737   6.434   1.783   3.214
 6925TIP3   OH220738   2.902   1.337   5.335
 6925TIP3    H120739   2.889   1.317   5.242
 6925TIP3    H220740   2.813   1.351   5.369
 6926TIP3   OH220741   0.768   5.160   5.438
 6926TIP3    H120742   0.728   5.129   5.357
 6926TIP3    H220743   0.831   5.227   5.410
 6927TIP3   OH220744   0.829   6.694   2.605
 6927TIP3    H120745   0.798   6.628   2.544
 6927TIP3    H220746   0.797   6.777   2.568
 6928TIP3   OH220747   2.694   0.113   1.857
 6928TIP3    H120748   2.755   0.054   1.902
 6928TIP3    H220749   2.741   0.139   1.777
 6929TIP3   OH220750   5.763   0.235   0.645
 6929TIP3    H120751   5.785   0.144   0.625
 6929TIP3    H220752   5.669   0.241   0.627
 6930TIP3   OH220753   1.906   6.014   3.781
 6930TIP3    H120754   1.990   5.973   3.764
 6930TIP3    H220755   1.912   6.100   3.741
 6931TIP3   OH220756   3.731   3.459   2.365
 6931TIP3    H120757   3.706   3.378   2.320
 6931TIP3    H220758   3.681   3.527   2.320
 6932TIP3   OH220759   7.003   6.620   5.612
 6932TIP3    H120760   6.971   6.696   5.662
 6932TIP3    H220761   6.966   6.545   5.658
 6933TIP3   OH220762   6.575   3.807   1.119
 6933TIP3    H120763   6.551   3.863   1.045
 6933TIP3    H220764   6.548   3.857   1.196
 6934TIP3   OH220765   1.317   0.427   2.143
 6934TIP3    H120766   1.391   0.442   2.085
 6934TIP3    H220767   1.239   0.435   2.087
 6935TIP3   OH220768   3.829   1.819   3.291
 6935TIP3    H120769   3.757   1.878   3.311
 6935TIP3    H220770   3.908   1.867   3.317
 6936TIP3   OH220771   6.217   6.393   5.775
 6936TIP3    H120772   6.196   6.334   5.847
 6936TIP3    H220773   6.257   6.336   5.709
 6937TIP3   OH220774   5.881   2.103   1.092
 6937TIP3    H120775   5.836   2.098   1.008
 6937TIP3    H220776   5.970   2.073   1.073
 6938TIP3   OH220777   6.233   1.479   3.087
 6938TIP3    H120778   6.267   1.561   3.052
 6938TIP3    H220779   6.150   1.466   3.042
 6939TIP3   OH220780   0.597   5.181   1.014
 6939TIP3    H120781   0.676   5.197   1.066
 6939TIP3    H220782   0.608   5.092   0.980
 6940TIP3   OH220783   2.130   2.795   4.914
 6940TIP3    H120784   2.081   2.829   4.839
 6940TIP3    H220785   2.172   2.872   4.953
 6941TIP3   OH220786   5.677   0.273   3.391
 6941TIP3    H120787   5.654   0.354   3.435
 6941TIP3    H220788   5.600   0.250   3.340
 6942TIP3   OH220789   3.397   5.021   1.804
 6942TIP3    H120790   3.457   5.090   1.832
 6942TIP3    H220791   3.365   4.983   1.885
 6943TIP3   OH220792   7.063   0.317   5.810
 6943TIP3    H120793   7.133   0.332   5.746
 6943TIP3    H220794   6.996   0.383   5.788
 6944TIP3   OH220795   5.633   5.654   2.936
 6944TIP3    H120796   5.666   5.722   2.877
 6944TIP3    H220797   5.707   5.594   2.948
 6945TIP3   OH220798   3.547   0.208   1.702
 6945TIP3    H120799   3.485   0.281   1.704
 6945TIP3    H220800   3.632   0.248   1.686
 6946TIP3   OH220801   0.449   2.377   0.676
 6946TIP3    H120802   0.510   2.418   0.738
 6946TIP3    H220803   0.460   2.426   0.595
 6947TIP3   OH220804   4.221   2.544   4.135
 6947TIP3    H120805   4.152   2.564   4.198
 6947TIP3    H220806   4.256   2.460   4.164
 6948TIP3   OH220807   6.293   0.419   5.066
 6948TIP3    H120808   6.374   0.457   5.033
 6948TIP3    H220809   6.321   0.349   5.125
 6949TIP3   OH220810   1.391   4.078   0.266
 6949TIP3    H120811   1.431   4.088   0.352
 6949TIP3    H220812   1.455   4.029   0.215
 6950TIP3   OH220813   6.253   2.348   1.460
 6950TIP3    H120814   6.294   2.266   1.434
 6950TIP3    H220815   6.221   2.332   1.549
 6951TIP3   OH220816   0.013   4.333   4.930
 6951TIP3    H120817   0.043   4.351   5.019
 6951TIP3    H220818   0.068   4.261   4.900
 6952TIP3   OH220819   6.417   1.114   5.781
 6952TIP3    H120820   6.424   1.019   5.770
 6952TIP3    H220821   6.503   1.147   5.758
 6953TIP3   OH220822   3.951   6.440   3.106
 6953TIP3    H120823   3.957   6.446   3.202
 6953TIP3    H220824   3.859   6.459   3.087
 6954TIP3   OH220825   4.253   4.775   1.384
 6954TIP3    H120826   4.337   4.735   1.407
 6954TIP3    H220827   4.197   4.759   1.460
 6955TIP3   OH220828   1.848   0.697   5.282
 6955TIP3    H120829   1.929   0.699   5.232
 6955TIP3    H220830   1.790   0.758   5.237
 6956TIP3   OH220831   3.367   2.565   3.328
 6956TIP3    H120832   3.366   2.523   3.242
 6956TIP3    H220833   3.275   2.584   3.347
 6957TIP3   OH220834   7.015   4.808   4.214
 6957TIP3    H120835   7.104   4.795   4.181
 6957TIP3    H220836   7.009   4.902   4.230
 6958TIP3   OH220837   3.355   6.422   2.914
 6958TIP3    H120838   3.418   6.450   2.848
 6958TIP3    H220839   3.384   6.335   2.941
 6959TIP3   OH220840   6.891   4.954   1.708
 6959TIP3    H120841   6.856   4.896   1.776
 6959TIP3    H220842   6.970   4.992   1.746
 6960TIP3   OH220843   1.583   2.195   4.385
 6960TIP3    H120844   1.530   2.275   4.388
 6960TIP3    H220845   1.669   2.224   4.357
 6961TIP3   OH220846   5.191   3.125   5.501
 6961TIP3    H120847   5.225   3.206   5.462
 6961TIP3    H220848   5.238   3.116   5.583
 6962TIP3   OH220849   4.547   0.398   3.079
 6962TIP3    H120850   4.534   0.461   3.150
 6962TIP3    H220851   4.641   0.378   3.083
 6963TIP3   OH220852   6.375   1.772   0.503
 6963TIP3    H120853   6.436   1.717   0.553
 6963TIP3    H220854   6.298   1.779   0.558
 6964TIP3   OH220855   5.546   4.387   2.242
 6964TIP3    H120856   5.629   4.431   2.259
 6964TIP3    H220857   5.501   4.443   2.179
 6965TIP3   OH220858   1.353   4.102   4.562
 6965TIP3    H120859   1.300   4.032   4.523
 6965TIP3    H220860   1.438   4.062   4.578
 6966TIP3   OH220861   6.229   2.585   4.672
 6966TIP3    H120862   6.141   2.547   4.676
 6966TIP3    H220863   6.252   2.604   4.763
 6967TIP3   OH220864   1.344   5.312   3.804
 6967TIP3    H120865   1.332   5.396   3.850
 6967TIP3    H220866   1.397   5.334   3.728
 6968TIP3   OH220867   6.635   3.627   5.593
 6968TIP3    H120868   6.575   3.689   5.552
 6968TIP3    H220869   6.580   3.576   5.652
 6969TIP3   OH220870   5.116   0.251   4.431
 6969TIP3    H120871   5.095   0.205   4.349
 6969TIP3    H220872   5.031   0.276   4.467
 6970TIP3   OH220873   1.821   6.689   0.836
 6970TIP3    H120874   1.831   6.737   0.918
 6970TIP3    H220875   1.752   6.735   0.789
 6971TIP3   OH220876   3.230   0.216   4.447
 6971TIP3    H120877   3.304   0.246   4.499
 6971TIP3    H220878   3.261   0.137   4.403
 6972TIP3   OH220879   3.073   1.442   3.746
 6972TIP3    H120880   3.145   1.383   3.723
 6972TIP3    H220881   3.044   1.412   3.833
 6973TIP3   OH220882   1.261   4.292   2.359
 6973TIP3    H120883   1.282   4.201   2.340
 6973TIP3    H220884   1.222   4.325   2.278
 6974TIP3   OH220885   2.445   2.830   5.099
 6974TIP3    H120886   2.466   2.780   5.178
 6974TIP3    H220887   2.357   2.863   5.115
 6975TIP3   OH220888   7.163   5.738   4.332
 6975TIP3    H120889   7.130   5.651   4.352
 6975TIP3    H220890   7.219   5.726   4.256
 6976TIP3   OH220891   0.080   4.374   3.244
 6976TIP3    H120892  -0.008   4.410   3.254
 6976TIP3    H220893   0.103   4.393   3.153
 6977TIP3   OH220894   6.105   2.758   5.209
 6977TIP3    H120895   6.145   2.792   5.129
 6977TIP3    H220896   6.028   2.814   5.222
 6978TIP3   OH220897   2.259   0.645   0.265
 6978TIP3    H120898   2.331   0.646   0.202
 6978TIP3    H220899   2.181   0.664   0.213
 6979TIP3   OH220900   6.347   0.287   5.657
 6979TIP3    H120901   6.287   0.357   5.630
 6979TIP3    H220902   6.342   0.286   5.752
 6980TIP3   OH220903   3.558   2.689   1.160
 6980TIP3    H120904   3.611   2.762   1.128
 6980TIP3    H220905   3.512   2.725   1.236
 6981TIP3   OH220906   2.317   1.862   4.141
 6981TIP3    H120907   2.271   1.907   4.070
 6981TIP3    H220908   2.395   1.914   4.156
 6982TIP3   OH220909   6.071   3.908   3.347
 6982TIP3    H120910   5.991   3.903   3.294
 6982TIP3    H220911   6.092   4.001   3.350
 6983TIP3   OH220912   5.870   1.335   4.317
 6983TIP3    H120913   5.909   1.357   4.233
 6983TIP3    H220914   5.936   1.281   4.360
 6984TIP3   OH220915   4.916   0.189   2.733
 6984TIP3    H120916   4.995   0.204   2.785
 6984TIP3    H220917   4.873   0.275   2.729
 6985TIP3   OH220918   3.454   3.674   2.923
 6985TIP3    H120919   3.512   3.610   2.965
 6985TIP3    H220920   3.376   3.676   2.978
 6986TIP3   OH220921   0.181   4.808   2.986
 6986TIP3    H120922   0.136   4.836   3.066
 6986TIP3    H220923   0.129   4.844   2.915
 6987TIP3   OH220924   2.457   0.467   1.568
 6987TIP3    H120925   2.454   0.514   1.485
 6987TIP3    H220926   2.482   0.378   1.546
 6988TIP3   OH220927   7.131   4.998   1.830
 6988TIP3    H120928   7.179   4.992   1.747
 6988TIP3    H220929   7.196   4.978   1.897
 6989TIP3   OH220930   3.510   1.992   4.590
 6989TIP3    H120931   3.529   2.086   4.588
 6989TIP3    H220932   3.595   1.950   4.582
 6990TIP3   OH220933   2.391   5.145   2.766
 6990TIP3    H120934   2.327   5.215   2.759
 6990TIP3    H220935   2.446   5.170   2.841
 6991TIP3   OH220936   4.925   0.921   3.758
 6991TIP3    H120937   4.991   0.933   3.827
 6991TIP3    H220938   4.850   0.882   3.804
 6992TIP3   OH220939   0.415   3.210   3.206
 6992TIP3    H120940   0.349   3.245   3.146
 6992TIP3    H220941   0.471   3.285   3.225
 6993TIP3   OH220942   3.753   5.053   4.795
 6993TIP3    H120943   3.773   5.013   4.710
 6993TIP3    H220944   3.783   5.143   4.787
 6994TIP3   OH220945   6.283   6.433   0.397
 6994TIP3    H120946   6.224   6.452   0.470
 6994TIP3    H220947   6.349   6.374   0.435
 6995TIP3   OH220948   2.955   4.453   1.578
 6995TIP3    H120949   2.884   4.410   1.531
 6995TIP3    H220950   2.977   4.529   1.525
 6996TIP3   OH220951   5.010   5.425   2.500
 6996TIP3    H120952   4.938   5.427   2.437
 6996TIP3    H220953   5.060   5.505   2.482
 6997TIP3   OH220954   0.830   0.264   5.888
 6997TIP3    H120955   0.777   0.315   5.828
 6997TIP3    H220956   0.767   0.219   5.944
 6998TIP3   OH220957   2.001   4.389   0.394
 6998TIP3    H120958   1.917   4.384   0.440
 6998TIP3    H220959   2.065   4.410   0.463
 6999TIP3   OH220960   4.410   0.028   3.096
 6999TIP3    H120961   4.482   0.047   3.157
 6999TIP3    H220962   4.412  -0.067   3.084
 7000TIP3   OH220963   5.216   0.819   3.455
 7000TIP3    H120964   5.304   0.849   3.432
 7000TIP3    H220965   5.162   0.844   3.380
 7001TIP3   OH220966   3.594   6.252   0.221
 7001TIP3    H120967   3.545   6.196   0.282
 7001TIP3    H220968   3.558   6.339   0.234
 7002TIP3   OH220969   0.432   4.933   3.143
 7002TIP3    H120970   0.384   4.926   3.225
 7002TIP3    H220971   0.512   4.980   3.165
 7003TIP3   OH220972   4.093   0.556   2.769
 7003TIP3    H120973   4.091   0.607   2.687
 7003TIP3    H220974   4.106   0.466   2.740
 7004TIP3   OH220975   4.003   5.703   2.281
 7004TIP3    H120976   3.911   5.679   2.276
 7004TIP3    H220977   4.011   5.779   2.223
 7005TIP3   OH220978   4.245   0.187   0.624
 7005TIP3    H120979   4.172   0.140   0.663
 7005TIP3    H220980   4.318   0.171   0.684
 7006TIP3   OH220981   6.458   0.956   3.825
 7006TIP3    H120982   6.470   1.050   3.810
 7006TIP3    H220983   6.497   0.941   3.912
 7007TIP3   OH220984   2.445   4.677   3.111
 7007TIP3    H120985   2.534   4.705   3.131
 7007TIP3    H220986   2.431   4.600   3.167
 7008TIP3   OH220987   6.336   1.930   3.482
 7008TIP3    H120988   6.245   1.909   3.505
 7008TIP3    H220989   6.359   1.867   3.414
 7009TIP3   OH220990   4.144   6.475   0.098
 7009TIP3    H120991   4.055   6.439   0.096
 7009TIP3    H220992   4.185   6.440   0.019
 7010TIP3   OH220993   5.367   6.554   0.158
 7010TIP3    H120994   5.273   6.569   0.150
 7010TIP3    H220995   5.381   6.545   0.253
 7011TIP3   OH220996   5.471   4.354   4.067
 7011TIP3    H120997   5.566   4.345   4.057
 7011TIP3    H220998   5.435   4.309   3.990
 7012TIP3   OH220999   0.552   6.508   3.954
 7012TIP3    H121000   0.498   6.511   3.876
 7012TIP3    H221001   0.490   6.491   4.025
 7013TIP3   OH221002   3.201   4.414   0.508
 7013TIP3    H121003   3.268   4.410   0.577
 7013TIP3    H221004   3.212   4.501   0.469
 7014TIP3   OH221005   4.766   1.811   4.191
 7014TIP3    H121006   4.848   1.790   4.148
 7014TIP3    H221007   4.770   1.765   4.275
 7015TIP3   OH221008   1.605   5.147   1.811
 7015TIP3    H121009   1.673   5.169   1.875
 7015TIP3    H221010   1.578   5.058   1.835
 7016TIP3   OH221011   5.796   0.235   0.066
 7016TIP3    H121012   5.782   0.317   0.111
 7016TIP3    H221013   5.809   0.260  -0.026
 7017TIP3   OH221014   1.537   6.005   0.302
 7017TIP3    H121015   1.557   6.022   0.210
 7017TIP3    H221016   1.442   5.993   0.304
 7018TIP3   OH221017   6.600   4.054   2.376
 7018TIP3    H121018   6.632   4.000   2.304
 7018TIP3    H221019   6.672   4.055   2.439
 7019TIP3   OH221020   6.649   3.449   0.378
 7019TIP3    H121021   6.590   3.480   0.310
 7019TIP3    H221022   6.715   3.518   0.387
 7020TIP3   OH221023   2.476   0.085   4.380
 7020TIP3    H121024   2.485   0.176   4.406
 7020TIP3    H221025   2.382   0.068   4.380
 7021TIP3   OH221026   5.437   2.491   1.951
 7021TIP3    H121027   5.492   2.501   1.874
 7021TIP3    H221028   5.415   2.580   1.977
 7022TIP3   OH221029   3.948   6.329   1.054
 7022TIP3    H121030   3.885   6.317   1.125
 7022TIP3    H221031   3.921   6.266   0.987
 7023TIP3   OH221032   6.946   2.778   5.039
 7023TIP3    H121033   6.890   2.703   5.056
 7023TIP3    H221034   6.933   2.836   5.114
 7024TIP3   OH221035   3.424   2.356   0.536
 7024TIP3    H121036   3.459   2.339   0.623
 7024TIP3    H221037   3.406   2.269   0.500
 7025TIP3   OH221038   4.855   1.180   2.263
 7025TIP3    H121039   4.900   1.221   2.337
 7025TIP3    H221040   4.781   1.133   2.302
 7026TIP3   OH221041   4.826   0.279   2.479
 7026TIP3    H121042   4.871   0.282   2.395
 7026TIP3    H221043   4.888   0.234   2.537
 7027TIP3   OH221044   4.645   0.369   4.048
 7027TIP3    H121045   4.732   0.410   4.054
 7027TIP3    H221046   4.615   0.364   4.139
 7028TIP3   OH221047   1.287   2.977   4.901
 7028TIP3    H121048   1.204   3.000   4.859
 7028TIP3    H221049   1.268   2.979   4.995
 7029TIP3   OH221050   3.397   3.697   1.088
 7029TIP3    H121051   3.419   3.636   1.018
 7029TIP3    H221052   3.366   3.641   1.159
 7030TIP3   OH221053   6.786   2.982   2.140
 7030TIP3    H121054   6.878   2.983   2.167
 7030TIP3    H221055   6.772   3.069   2.101
 7031TIP3   OH221056   3.222   0.934   0.315
 7031TIP3    H121057   3.227   1.005   0.379
 7031TIP3    H221058   3.168   0.867   0.358
 7032TIP3   OH221059   6.349   1.233   2.249
 7032TIP3    H121060   6.315   1.145   2.236
 7032TIP3    H221061   6.431   1.235   2.199
 7033TIP3   OH221062   1.752   3.605   3.096
 7033TIP3    H121063   1.813   3.552   3.044
 7033TIP3    H221064   1.778   3.696   3.077
 7034TIP3   OH221065   2.880   5.757   2.167
 7034TIP3    H121066   2.906   5.676   2.210
 7034TIP3    H221067   2.950   5.774   2.104
 7035TIP3   OH221068   1.802   1.022   5.312
 7035TIP3    H121069   1.708   1.028   5.328
 7035TIP3    H221070   1.815   1.065   5.227
 7036TIP3   OH221071   1.202   6.688   4.306
 7036TIP3    H121072   1.215   6.694   4.211
 7036TIP3    H221073   1.167   6.774   4.330
 7037TIP3   OH221074   0.011   5.840   0.429
 7037TIP3    H121075   0.071   5.911   0.410
 7037TIP3    H221076  -0.028   5.863   0.514
 7038TIP3   OH221077   0.321   3.542   1.008
 7038TIP3    H121078   0.312   3.473   1.074
 7038TIP3    H221079   0.233   3.556   0.975
 7039TIP3   OH221080   3.414   6.801   1.934
 7039TIP3    H121081   3.363   6.806   1.853
 7039TIP3    H221082   3.450   6.712   1.934
 7040TIP3   OH221083   4.993   5.499   3.743
 7040TIP3    H121084   4.987   5.557   3.667
 7040TIP3    H221085   4.942   5.422   3.719
 7041TIP3   OH221086   5.733   0.159   3.763
 7041TIP3    H121087   5.672   0.145   3.691
 7041TIP3    H221088   5.802   0.214   3.726
 7042TIP3   OH221089   6.287   0.972   2.212
 7042TIP3    H121090   6.342   0.895   2.198
 7042TIP3    H221091   6.202   0.937   2.237
 7043TIP3   OH221092   2.659   1.764   0.495
 7043TIP3    H121093   2.644   1.818   0.572
 7043TIP3    H221094   2.626   1.817   0.422
 7044TIP3   OH221095   6.838   3.356   3.810
 7044TIP3    H121096   6.919   3.372   3.761
 7044TIP3    H221097   6.771   3.405   3.762
 7045TIP3   OH221098   4.577   3.418   1.369
 7045TIP3    H121099   4.588   3.497   1.316
 7045TIP3    H221100   4.548   3.351   1.307
 7046TIP3   OH221101   5.724   1.077   3.570
 7046TIP3    H121102   5.679   1.092   3.653
 7046TIP3    H221103   5.654   1.080   3.504
 7047TIP3   OH221104   6.659   3.271   4.202
 7047TIP3    H121105   6.692   3.341   4.258
 7047TIP3    H221106   6.630   3.203   4.263
 7048TIP3   OH221107   1.060   2.085   2.760
 7048TIP3    H121108   1.050   1.993   2.784
 7048TIP3    H221109   1.144   2.088   2.714
 7049TIP3   OH221110   1.974   4.188   4.021
 7049TIP3    H121111   2.038   4.187   3.950
 7049TIP3    H221112   1.890   4.203   3.977
 7050TIP3   OH221113   5.723   2.098   5.084
 7050TIP3    H121114   5.764   2.031   5.140
 7050TIP3    H221115   5.629   2.082   5.093
 7051TIP3   OH221116   2.081   6.099   5.297
 7051TIP3    H121117   2.089   6.193   5.311
 7051TIP3    H221118   2.171   6.067   5.294
 7052TIP3   OH221119   4.330   2.238   3.385
 7052TIP3    H121120   4.361   2.216   3.297
 7052TIP3    H221121   4.264   2.305   3.371
 7053TIP3   OH221122   0.369   1.052   2.407
 7053TIP3    H121123   0.280   1.020   2.424
 7053TIP3    H221124   0.422   1.014   2.476
 7054TIP3   OH221125   4.878   0.083   5.179
 7054TIP3    H121126   4.896   0.175   5.198
 7054TIP3    H221127   4.927   0.065   5.099
 7055TIP3   OH221128   2.156   2.374   0.032
 7055TIP3    H121129   2.159   2.340  -0.057
 7055TIP3    H221130   2.228   2.331   0.077
 7056TIP3   OH221131   3.244   5.126   5.173
 7056TIP3    H121132   3.240   5.148   5.080
 7056TIP3    H221133   3.325   5.076   5.183
 7057TIP3   OH221134   6.615   0.207   2.409
 7057TIP3    H121135   6.698   0.160   2.399
 7057TIP3    H221136   6.578   0.172   2.491
 7058TIP3   OH221137   6.494  -0.011   2.259
 7058TIP3    H121138   6.495   0.085   2.266
 7058TIP3    H221139   6.548  -0.030   2.182
 7059TIP3   OH221140   5.504   1.481   4.968
 7059TIP3    H121141   5.478   1.415   4.903
 7059TIP3    H221142   5.552   1.431   5.035
 7060TIP3   OH221143   4.768   5.464   0.071
 7060TIP3    H121144   4.834   5.532   0.063
 7060TIP3    H221145   4.818   5.384   0.087
 7061TIP3   OH221146   1.907   3.316   1.153
 7061TIP3    H121147   1.939   3.374   1.222
 7061TIP3    H221148   1.977   3.253   1.140
 7062TIP3   OH221149   7.050   0.857   2.559
 7062TIP3    H121150   7.050   0.843   2.464
 7062TIP3    H221151   7.053   0.952   2.569
 7063TIP3   OH221152   6.820   2.494   0.964
 7063TIP3    H121153   6.798   2.584   0.938
 7063TIP3    H221154   6.889   2.504   1.029
 7064TIP3   OH221155   4.319   4.069   1.602
 7064TIP3    H121156   4.320   4.149   1.655
 7064TIP3    H221157   4.375   4.008   1.649
 7065TIP3   OH221158   6.141   4.104   0.208
 7065TIP3    H121159   6.046   4.100   0.216
 7065TIP3    H221160   6.161   4.043   0.137
 7066TIP3   OH221161   5.999   5.978   4.695
 7066TIP3    H121162   5.945   5.998   4.618
 7066TIP3    H221163   6.012   5.883   4.691
 7067TIP3   OH221164   3.631   1.521   1.956
 7067TIP3    H121165   3.553   1.479   1.993
 7067TIP3    H221166   3.598   1.567   1.878
 7068TIP3   OH221167   6.723   3.239   5.706
 7068TIP3    H121168   6.628   3.235   5.716
 7068TIP3    H221169   6.757   3.216   5.792
 7069TIP3   OH221170   3.501   4.557   4.207
 7069TIP3    H121171   3.517   4.465   4.187
 7069TIP3    H221172   3.528   4.605   4.129
 7070TIP3   OH221173   4.162   0.900   2.927
 7070TIP3    H121174   4.194   0.990   2.922
 7070TIP3    H221175   4.237   0.846   2.902
 7071TIP3   OH221176   5.919   1.569   2.199
 7071TIP3    H121177   5.976   1.630   2.246
 7071TIP3    H221178   5.961   1.484   2.211
 7072TIP3   OH221179   1.367   3.463   1.301
 7072TIP3    H121180   1.315   3.387   1.328
 7072TIP3    H221181   1.440   3.426   1.252
 7073TIP3   OH221182   6.048   0.267   3.457
 7073TIP3    H121183   6.021   0.297   3.543
 7073TIP3    H221184   5.978   0.295   3.398
 7074TIP3   OH221185   1.692   1.581   5.288
 7074TIP3    H121186   1.651   1.495   5.279
 7074TIP3    H221187   1.619   1.639   5.310
 7075TIP3   OH221188   1.125   4.465   3.504
 7075TIP3    H121189   1.067   4.395   3.535
 7075TIP3    H221190   1.067   4.539   3.489
 7076TIP3   OH221191   1.699   2.206   2.985
 7076TIP3    H121192   1.704   2.278   2.924
 7076TIP3    H221193   1.728   2.242   3.069
 7077TIP3   OH221194   1.819   4.348   5.337
 7077TIP3    H121195   1.750   4.282   5.336
 7077TIP3    H221196   1.776   4.429   5.311
 7078TIP3   OH221197   5.114   6.297   1.796
 7078TIP3    H121198   5.050   6.344   1.850
 7078TIP3    H221199   5.066   6.221   1.763
 7079TIP3   OH221200   3.505   3.625   4.120
 7079TIP3    H121201   3.517   3.538   4.081
 7079TIP3    H221202   3.519   3.611   4.213
 7080TIP3   OH221203   4.444   2.349   4.172
 7080TIP3    H121204   4.491   2.369   4.253
 7080TIP3    H221205   4.425   2.255   4.177
 7081TIP3   OH221206   0.578   5.026   4.298
 7081TIP3    H121207   0.627   5.032   4.380
 7081TIP3    H221208   0.493   4.990   4.323
 7082TIP3   OH221209   0.364   4.917   5.850
 7082TIP3    H121210   0.354   4.877   5.764
 7082TIP3    H221211   0.307   4.865   5.908
 7083TIP3   OH221212   4.128   3.616   4.622
 7083TIP3    H121213   4.207   3.567   4.601
 7083TIP3    H221214   4.060   3.549   4.631
 7084TIP3   OH221215   6.666   6.596   5.722
 7084TIP3    H121216   6.728   6.655   5.764
 7084TIP3    H221217   6.589   6.651   5.706
 7085TIP3   OH221218   4.594   4.226   3.937
 7085TIP3    H121219   4.506   4.190   3.935
 7085TIP3    H221220   4.627   4.212   3.848
 7086TIP3   OH221221   0.333   6.111   4.593
 7086TIP3    H121222   0.331   6.104   4.498
 7086TIP3    H221223   0.259   6.168   4.615
 7087TIP3   OH221224   5.931   4.754   3.301
 7087TIP3    H121225   6.003   4.813   3.276
 7087TIP3    H221226   5.880   4.804   3.364
 7088TIP3   OH221227   1.609   1.240   2.917
 7088TIP3    H121228   1.523   1.230   2.958
 7088TIP3    H221229   1.657   1.299   2.975
 7089TIP3   OH221230   0.466   5.116   5.143
 7089TIP3    H121231   0.436   5.199   5.181
 7089TIP3    H221232   0.448   5.051   5.210
 7090TIP3   OH221233   2.382   6.376   4.034
 7090TIP3    H121234   2.403   6.301   3.978
 7090TIP3    H221235   2.334   6.337   4.108
 7091TIP3   OH221236   6.099   5.504   1.180
 7091TIP3    H121237   6.042   5.492   1.255
 7091TIP3    H221238   6.043   5.539   1.111
 7092TIP3   OH221239   1.231   2.116   0.525
 7092TIP3    H121240   1.160   2.099   0.588
 7092TIP3    H221241   1.221   2.208   0.502
 7093TIP3   OH221242   3.045   3.352   2.312
 7093TIP3    H121243   3.051   3.446   2.330
 7093TIP3    H221244   3.109   3.337   2.243
 7094TIP3   OH221245   5.565   3.386   1.671
 7094TIP3    H121246   5.477   3.362   1.698
 7094TIP3    H221247   5.552   3.453   1.604
 7095TIP3   OH221248   1.718   5.804   3.808
 7095TIP3    H121249   1.740   5.779   3.898
 7095TIP3    H221250   1.782   5.872   3.786
 7096TIP3   OH221251   6.370   2.859   3.117
 7096TIP3    H121252   6.427   2.827   3.047
 7096TIP3    H221253   6.387   2.953   3.121
 7097TIP3   OH221254   4.485   1.844   0.809
 7097TIP3    H121255   4.487   1.748   0.812
 7097TIP3    H221256   4.394   1.867   0.823
 7098TIP3   OH221257   0.037   3.868   4.234
 7098TIP3    H121258  -0.052   3.834   4.228
 7098TIP3    H221259   0.094   3.792   4.217
 7099TIP3   OH221260   2.471   1.376   4.830
 7099TIP3    H121261   2.505   1.347   4.745
 7099TIP3    H221262   2.538   1.351   4.893
 7100TIP3   OH221263   0.437   3.635   5.706
 7100TIP3    H121264   0.485   3.637   5.789
 7100TIP3    H221265   0.452   3.721   5.667
 7101TIP3   OH221266   0.406   2.541   0.286
 7101TIP3    H121267   0.351   2.469   0.255
 7101TIP3    H221268   0.444   2.577   0.207
 7102TIP3   OH221269   5.630   1.103   2.554
 7102TIP3    H121270   5.679   1.159   2.614
 7102TIP3    H221271   5.648   1.140   2.467
 7103TIP3   OH221272   1.620   5.105   3.812
 7103TIP3    H121273   1.591   5.133   3.725
 7103TIP3    H221274   1.641   5.012   3.801
 7104TIP3   OH221275   4.481   4.607   1.432
 7104TIP3    H121276   4.414   4.565   1.486
 7104TIP3    H221277   4.539   4.651   1.495
 7105TIP3   OH221278   3.378   4.206   1.899
 7105TIP3    H121279   3.448   4.260   1.937
 7105TIP3    H221280   3.402   4.116   1.922
 7106TIP3   OH221281   5.197   4.411   1.393
 7106TIP3    H121282   5.289   4.414   1.365
 7106TIP3    H221283   5.162   4.496   1.369
 7107TIP3   OH221284   0.163   3.717   3.845
 7107TIP3    H121285   0.072   3.696   3.867
 7107TIP3    H221286   0.214   3.652   3.893
 7108TIP3   OH221287   0.634   0.037   3.234
 7108TIP3    H121288   0.622  -0.052   3.199
 7108TIP3    H221289   0.728   0.046   3.244
 7109TIP3   OH221290   0.708   6.063   4.914
 7109TIP3    H121291   0.625   6.022   4.890
 7109TIP3    H221292   0.738   6.013   4.989
 7110TIP3   OH221293   5.241   4.351   1.663
 7110TIP3    H121294   5.205   4.386   1.582
 7110TIP3    H221295   5.205   4.263   1.670
 7111TIP3   OH221296   3.789   0.775   2.007
 7111TIP3    H121297   3.817   0.685   1.988
 7111TIP3    H221298   3.783   0.817   1.921
 7112TIP3   OH221299   5.555   5.573   0.932
 7112TIP3    H121300   5.619   5.576   0.861
 7112TIP3    H221301   5.573   5.491   0.977
 7113TIP3   OH221302   0.101   2.697   3.157
 7113TIP3    H121303   0.121   2.613   3.115
 7113TIP3    H221304   0.016   2.683   3.198
 7114TIP3   OH221305   7.003   4.592   3.051
 7114TIP3    H121306   6.993   4.672   2.999
 7114TIP3    H221307   6.943   4.530   3.011
 7115TIP3   OH221308   0.779   1.655   0.155
 7115TIP3    H121309   0.813   1.716   0.090
 7115TIP3    H221310   0.704   1.700   0.193
 7116TIP3   OH221311   1.015   5.757   5.397
 7116TIP3    H121312   1.074   5.775   5.324
 7116TIP3    H221313   1.060   5.689   5.447
 7117TIP3   OH221314   0.166   4.767   2.558
 7117TIP3    H121315   0.192   4.831   2.623
 7117TIP3    H221316   0.073   4.784   2.542
 7118TIP3   OH221317   4.709   1.743   2.356
 7118TIP3    H121318   4.790   1.775   2.396
 7118TIP3    H221319   4.730   1.655   2.325
 7119TIP3   OH221320   1.804   1.451   4.192
 7119TIP3    H121321   1.769   1.501   4.266
 7119TIP3    H221322   1.898   1.467   4.195
 7120TIP3   OH221323   3.824   2.514   1.596
 7120TIP3    H121324   3.786   2.513   1.508
 7120TIP3    H221325   3.918   2.527   1.580
 7121TIP3   OH221326   6.759   3.645   2.090
 7121TIP3    H121327   6.782   3.552   2.097
 7121TIP3    H221328   6.790   3.671   2.003
 7122TIP3   OH221329   4.003   4.991   1.802
 7122TIP3    H121330   4.050   5.066   1.838
 7122TIP3    H221331   4.001   4.927   1.874
 7123TIP3   OH221332   3.858   5.390   4.392
 7123TIP3    H121333   3.920   5.434   4.450
 7123TIP3    H221334   3.879   5.297   4.401
 7124TIP3   OH221335   4.456   0.496   3.863
 7124TIP3    H121336   4.523   0.438   3.899
 7124TIP3    H221337   4.392   0.504   3.934
 7125TIP3   OH221338   2.807   6.683   4.757
 7125TIP3    H121339   2.776   6.744   4.690
 7125TIP3    H221340   2.899   6.669   4.735
 7126TIP3   OH221341   1.848   5.389   4.989
 7126TIP3    H121342   1.766   5.380   5.037
 7126TIP3    H221343   1.873   5.298   4.968
 7127TIP3   OH221344   2.383   5.008   0.483
 7127TIP3    H121345   2.307   5.021   0.540
 7127TIP3    H221346   2.364   4.929   0.434
 7128TIP3   OH221347   5.891   0.426   4.986
 7128TIP3    H121348   5.920   0.511   4.952
 7128TIP3    H221349   5.938   0.417   5.069
 7129TIP3   OH221350   3.077   1.461   0.554
 7129TIP3    H121351   3.026   1.516   0.494
 7129TIP3    H221352   3.144   1.421   0.499
 7130TIP3   OH221353   5.392   1.550   5.577
 7130TIP3    H121354   5.427   1.464   5.553
 7130TIP3    H221355   5.459   1.588   5.634
 7131TIP3   OH221356   5.940   2.299   2.512
 7131TIP3    H121357   6.025   2.342   2.505
 7131TIP3    H221358   5.902   2.307   2.424
 7132TIP3   OH221359   5.429   5.858   2.613
 7132TIP3    H121360   5.486   5.784   2.634
 7132TIP3    H221361   5.341   5.826   2.627
 7133TIP3   OH221362   0.492   2.507   5.711
 7133TIP3    H121363   0.472   2.594   5.678
 7133TIP3    H221364   0.525   2.459   5.635
 7134TIP3   OH221365   0.112   3.504   0.615
 7134TIP3    H121366   0.020   3.484   0.598
 7134TIP3    H221367   0.152   3.418   0.633
 7135TIP3   OH221368   3.508   4.418   3.323
 7135TIP3    H121369   3.511   4.327   3.296
 7135TIP3    H221370   3.600   4.443   3.334
 7136TIP3   OH221371   1.306   0.815   2.519
 7136TIP3    H121372   1.359   0.844   2.445
 7136TIP3    H221373   1.216   0.818   2.487
 7137TIP3   OH221374   2.985   5.695   4.370
 7137TIP3    H121375   3.039   5.750   4.314
 7137TIP3    H221376   2.897   5.733   4.364
 7138TIP3   OH221377   2.297   3.911   2.756
 7138TIP3    H121378   2.250   3.840   2.711
 7138TIP3    H221379   2.271   3.904   2.847
 7139TIP3   OH221380   1.372   2.807   0.477
 7139TIP3    H121381   1.422   2.772   0.403
 7139TIP3    H221382   1.430   2.873   0.515
 7140TIP3   OH221383   2.794   0.304   1.549
 7140TIP3    H121384   2.811   0.350   1.631
 7140TIP3    H221385   2.771   0.374   1.487
 7141TIP3   OH221386   1.759   5.617   4.308
 7141TIP3    H121387   1.788   5.529   4.330
 7141TIP3    H221388   1.764   5.666   4.390
 7142TIP3   OH221389   0.773   4.018   5.245
 7142TIP3    H121390   0.861   3.992   5.270
 7142TIP3    H221391   0.782   4.049   5.154
 7143TIP3   OH221392   3.681  -0.018   0.279
 7143TIP3    H121393   3.670   0.050   0.212
 7143TIP3    H221394   3.646   0.022   0.359
 7144TIP3   OH221395   2.100   1.412   4.231
 7144TIP3    H121396   2.193   1.433   4.237
 7144TIP3    H221397   2.084   1.351   4.303
 7145TIP3   OH221398   2.954   6.775   2.077
 7145TIP3    H121399   2.935   6.838   2.007
 7145TIP3    H221400   3.049   6.767   2.078
 7146TIP3   OH221401   4.080   2.320   5.136
 7146TIP3    H121402   4.026   2.381   5.186
 7146TIP3    H221403   4.126   2.374   5.072
 7147TIP3   OH221404   5.265   3.868   3.598
 7147TIP3    H121405   5.216   3.938   3.556
 7147TIP3    H221406   5.338   3.851   3.539
 7148TIP3   OH221407   5.312   1.925   0.162
 7148TIP3    H121408   5.236   1.950   0.110
 7148TIP3    H221409   5.340   1.841   0.126
 7149TIP3   OH221410   4.677   0.907   1.605
 7149TIP3    H121411   4.665   0.889   1.512
 7149TIP3    H221412   4.600   0.870   1.648
 7150TIP3   OH221413   2.014   5.169   2.779
 7150TIP3    H121414   2.077   5.234   2.811
 7150TIP3    H221415   2.051   5.137   2.697
 7151TIP3   OH221416   5.437   1.996   0.411
 7151TIP3    H121417   5.494   2.070   0.393
 7151TIP3    H221418   5.400   1.973   0.326
 7152TIP3   OH221419   1.206   3.239   0.448
 7152TIP3    H121420   1.259   3.264   0.373
 7152TIP3    H221421   1.178   3.322   0.487
 7153TIP3   OH221422   6.205   1.455   3.365
 7153TIP3    H121423   6.226   1.425   3.276
 7153TIP3    H221424   6.131   1.515   3.354
 7154TIP3   OH221425   5.435   3.885   3.347
 7154TIP3    H121426   5.345   3.892   3.315
 7154TIP3    H221427   5.489   3.903   3.270
 7155TIP3   OH221428   1.862   3.707   3.563
 7155TIP3    H121429   1.773   3.696   3.596
 7155TIP3    H221430   1.852   3.713   3.468
 7156TIP3   OH221431   1.856   4.939   0.252
 7156TIP3    H121432   1.783   4.910   0.307
 7156TIP3    H221433   1.910   4.861   0.240
 7157TIP3   OH221434   2.227   4.198   1.273
 7157TIP3    H121435   2.314   4.166   1.297
 7157TIP3    H221436   2.234   4.293   1.282
 7158TIP3   OH221437   4.498   5.721   0.951
 7158TIP3    H121438   4.465   5.749   1.036
 7158TIP3    H221439   4.577   5.670   0.971
 7159TIP3   OH221440   0.451   6.110   1.666
 7159TIP3    H121441   0.473   6.151   1.582
 7159TIP3    H221442   0.374   6.157   1.696
 7160TIP3   OH221443   6.325   0.286   2.328
 7160TIP3    H121444   6.250   0.227   2.333
 7160TIP3    H221445   6.394   0.243   2.378
 7161TIP3   OH221446   1.406   4.743   0.704
 7161TIP3    H121447   1.425   4.778   0.617
 7161TIP3    H221448   1.361   4.815   0.749
 7162TIP3   OH221449   1.110   0.641   5.841
 7162TIP3    H121450   1.051   0.591   5.898
 7162TIP3    H221451   1.178   0.578   5.816
 7163TIP3   OH221452   4.179   3.769   0.075
 7163TIP3    H121453   4.188   3.699   0.139
 7163TIP3    H221454   4.101   3.745   0.024
 7164TIP3   OH221455   7.027   2.325   0.074
 7164TIP3    H121456   7.073   2.409   0.069
 7164TIP3    H221457   7.062   2.284   0.153
 7165TIP3   OH221458   5.090   6.549   5.873
 7165TIP3    H121459   5.089   6.482   5.805
 7165TIP3    H221460   5.164   6.605   5.851
 7166TIP3   OH221461   3.399   5.381   2.564
 7166TIP3    H121462   3.491   5.401   2.545
 7166TIP3    H221463   3.396   5.374   2.660
 7167TIP3   OH221464   4.864   4.822   1.201
 7167TIP3    H121465   4.938   4.867   1.161
 7167TIP3    H221466   4.862   4.856   1.291
 7168TIP3   OH221467   0.544   5.786   0.547
 7168TIP3    H121468   0.473   5.724   0.528
 7168TIP3    H221469   0.623   5.744   0.513
 7169TIP3   OH221470   6.628   3.720   3.122
 7169TIP3    H121471   6.581   3.733   3.204
 7169TIP3    H221472   6.720   3.736   3.143
 7170TIP3   OH221473   6.579   1.870   1.093
 7170TIP3    H121474   6.516   1.809   1.056
 7170TIP3    H221475   6.664   1.828   1.080
 7171TIP3   OH221476   0.801   1.835   2.556
 7171TIP3    H121477   0.777   1.747   2.527
 7171TIP3    H221478   0.747   1.851   2.633
 7172TIP3   OH221479   6.093   3.613   4.244
 7172TIP3    H121480   6.024   3.581   4.302
 7172TIP3    H221481   6.129   3.689   4.290
 7173TIP3   OH221482   6.611   1.509   5.674
 7173TIP3    H121483   6.657   1.540   5.596
 7173TIP3    H221484   6.613   1.584   5.734
 7174TIP3   OH221485   4.566   4.303   4.627
 7174TIP3    H121486   4.537   4.217   4.656
 7174TIP3    H221487   4.510   4.364   4.675
 7175TIP3   OH221488   3.658   1.255   1.825
 7175TIP3    H121489   3.750   1.246   1.798
 7175TIP3    H221490   3.634   1.344   1.799
 7176TIP3   OH221491   2.188   3.798   3.927
 7176TIP3    H121492   2.096   3.785   3.948
 7176TIP3    H221493   2.234   3.740   3.988
 7177TIP3   OH221494   5.203   3.999   0.417
 7177TIP3    H121495   5.291   3.963   0.411
 7177TIP3    H221496   5.191   4.017   0.510
 7178TIP3   OH221497   4.533   0.115   3.960
 7178TIP3    H121498   4.557   0.207   3.968
 7178TIP3    H221499   4.442   0.111   3.991
 7179TIP3   OH221500   5.650   5.932   1.889
 7179TIP3    H121501   5.645   5.966   1.800
 7179TIP3    H221502   5.741   5.904   1.899
 7180TIP3   OH221503   3.765   5.532   3.333
 7180TIP3    H121504   3.848   5.529   3.381
 7180TIP3    H221505   3.711   5.463   3.373
 7181TIP3   OH221506   3.076   0.836   1.667
 7181TIP3    H121507   3.148   0.776   1.688
 7181TIP3    H221508   3.097   0.916   1.714
 7182TIP3   OH221509   1.706   6.284   4.711
 7182TIP3    H121510   1.685   6.255   4.623
 7182TIP3    H221511   1.711   6.379   4.705
 7183TIP3   OH221512   3.092   4.079   1.507
 7183TIP3    H121513   3.075   4.003   1.452
 7183TIP3    H221514   3.183   4.070   1.534
 7184TIP3   OH221515   0.212   0.821   2.109
 7184TIP3    H121516   0.185   0.810   2.200
 7184TIP3    H221517   0.130   0.832   2.061
 7185TIP3   OH221518   5.889   4.819   3.595
 7185TIP3    H121519   5.854   4.893   3.545
 7185TIP3    H221520   5.895   4.853   3.685
 7186TIP3   OH221521   3.601   0.756   5.099
 7186TIP3    H121522   3.595   0.716   5.186
 7186TIP3    H221523   3.693   0.748   5.075
 7187TIP3   OH221524   1.785   3.794   2.698
 7187TIP3    H121525   1.793   3.870   2.640
 7187TIP3    H221526   1.826   3.822   2.780
 7188TIP3   OH221527   1.775   2.691   2.995
 7188TIP3    H121528   1.851   2.712   3.049
 7188TIP3    H221529   1.707   2.751   3.024
 7189TIP3   OH221530   5.995   4.889   0.843
 7189TIP3    H121531   5.923   4.863   0.786
 7189TIP3    H221532   6.052   4.812   0.847
 7190TIP3   OH221533   1.414   0.931   5.763
 7190TIP3    H121534   1.397   0.897   5.850
 7190TIP3    H221535   1.509   0.929   5.754
 7191TIP3   OH221536   1.874   0.692   3.719
 7191TIP3    H121537   1.897   0.784   3.725
 7191TIP3    H221538   1.895   0.668   3.628
 7192TIP3   OH221539   1.966   2.310   0.243
 7192TIP3    H121540   1.918   2.392   0.256
 7192TIP3    H221541   2.046   2.336   0.197
 7193TIP3   OH221542   2.127   5.510   1.778
 7193TIP3    H121543   2.084   5.589   1.745
 7193TIP3    H221544   2.076   5.485   1.854
 7194TIP3   OH221545   6.985   2.104   3.211
 7194TIP3    H121546   7.006   2.187   3.254
 7194TIP3    H221547   6.966   2.044   3.283
 7195TIP3   OH221548   6.953   1.214   0.510
 7195TIP3    H121549   6.999   1.137   0.544
 7195TIP3    H221550   6.994   1.288   0.556
 7196TIP3   OH221551   5.325   6.269   5.071
 7196TIP3    H121552   5.284   6.257   4.985
 7196TIP3    H221553   5.417   6.289   5.051
 7197TIP3   OH221554   0.785   1.070   0.992
 7197TIP3    H121555   0.806   1.150   1.041
 7197TIP3    H221556   0.764   1.101   0.904
 7198TIP3   OH221557   3.791   1.570   2.674
 7198TIP3    H121558   3.820   1.631   2.607
 7198TIP3    H221559   3.871   1.525   2.702
 7199TIP3   OH221560   5.366   1.822   2.538
 7199TIP3    H121561   5.339   1.731   2.540
 7199TIP3    H221562   5.457   1.822   2.566
 7200TIP3   OH221563   5.308   4.520   2.174
 7200TIP3    H121564   5.226   4.567   2.194
 7200TIP3    H221565   5.288   4.471   2.095
 7201TIP3   OH221566   1.820   2.496   3.916
 7201TIP3    H121567   1.914   2.496   3.899
 7201TIP3    H221568   1.795   2.404   3.914
 7202TIP3   OH221569   5.350   3.796   5.660
 7202TIP3    H121570   5.369   3.825   5.749
 7202TIP3    H221571   5.433   3.806   5.614
 7203TIP3   OH221572   1.903   2.544   0.651
 7203TIP3    H121573   1.884   2.495   0.731
 7203TIP3    H221574   1.984   2.505   0.618
 7204TIP3   OH221575   1.038   6.177   2.542
 7204TIP3    H121576   0.966   6.165   2.604
 7204TIP3    H221577   1.105   6.116   2.571
 7205TIP3   OH221578   3.001   2.006   2.774
 7205TIP3    H121579   2.909   2.025   2.796
 7205TIP3    H221580   3.020   2.063   2.700
 7206TIP3   OH221581   5.722   1.100   1.251
 7206TIP3    H121582   5.643   1.065   1.210
 7206TIP3    H221583   5.704   1.194   1.261
 7207TIP3   OH221584   2.600   5.540   0.331
 7207TIP3    H121585   2.695   5.554   0.336
 7207TIP3    H221586   2.581   5.539   0.238
 7208TIP3   OH221587   0.935   3.529   5.133
 7208TIP3    H121588   0.950   3.578   5.214
 7208TIP3    H221589   0.869   3.580   5.086
 7209TIP3   OH221590   6.124   6.728   1.590
 7209TIP3    H121591   6.090   6.785   1.521
 7209TIP3    H221592   6.219   6.736   1.584
 7210TIP3   OH221593   0.256   2.998   3.277
 7210TIP3    H121594   0.246   2.938   3.203
 7210TIP3    H221595   0.329   3.054   3.253
 7211TIP3   OH221596   3.385   3.630   2.128
 7211TIP3    H121597   3.456   3.694   2.128
 7211TIP3    H221598   3.379   3.601   2.037
 7212TIP3   OH221599   0.670   5.411   3.465
 7212TIP3    H121600   0.598   5.424   3.527
 7212TIP3    H221601   0.630   5.421   3.379
 7213TIP3   OH221602   2.197   1.802   0.550
 7213TIP3    H121603   2.182   1.845   0.634
 7213TIP3    H221604   2.268   1.739   0.567
 7214TIP3   OH221605   2.115   3.619   0.855
 7214TIP3    H121606   2.130   3.525   0.843
 7214TIP3    H221607   2.095   3.628   0.948
 7215TIP3   OH221608   0.776   5.218   2.744
 7215TIP3    H121609   0.855   5.264   2.773
 7215TIP3    H221610   0.743   5.176   2.823
 7216TIP3   OH221611   3.279   3.374   1.652
 7216TIP3    H121612   3.306   3.290   1.688
 7216TIP3    H221613   3.231   3.352   1.573
 7217TIP3   OH221614   1.519   6.488   4.184
 7217TIP3    H121615   1.476   6.405   4.163
 7217TIP3    H221616   1.534   6.484   4.278
 7218TIP3   OH221617   2.524   4.657   1.591
 7218TIP3    H121618   2.440   4.634   1.630
 7218TIP3    H221619   2.514   4.748   1.563
 7219TIP3   OH221620   3.941   3.591   3.784
 7219TIP3    H121621   3.903   3.536   3.715
 7219TIP3    H221622   3.904   3.557   3.865
 7220TIP3   OH221623   1.628   1.696   3.323
 7220TIP3    H121624   1.563   1.753   3.364
 7220TIP3    H221625   1.660   1.745   3.248
 7221TIP3   OH221626   0.639   0.625   3.437
 7221TIP3    H121627   0.731   0.648   3.444
 7221TIP3    H221628   0.622   0.620   3.343
 7222TIP3   OH221629   3.696   2.953   1.937
 7222TIP3    H121630   3.758   2.937   1.867
 7222TIP3    H221631   3.647   3.031   1.910
 7223TIP3   OH221632   1.222   0.428   4.032
 7223TIP3    H121633   1.175   0.415   3.950
 7223TIP3    H221634   1.154   0.429   4.099
 7224TIP3   OH221635   1.619   1.106   3.166
 7224TIP3    H121636   1.693   1.142   3.119
 7224TIP3    H221637   1.658   1.054   3.237
 7225TIP3   OH221638   1.739   2.093   3.498
 7225TIP3    H121639   1.784   2.045   3.567
 7225TIP3    H221640   1.769   2.052   3.417
 7226TIP3   OH221641   1.642   1.041   0.467
 7226TIP3    H121642   1.698   0.979   0.421
 7226TIP3    H221643   1.697   1.118   0.480
 7227TIP3   OH221644   1.549   5.559   2.531
 7227TIP3    H121645   1.538   5.520   2.444
 7227TIP3    H221646   1.492   5.636   2.530
 7228TIP3   OH221647   0.626   3.342   3.946
 7228TIP3    H121648   0.625   3.437   3.938
 7228TIP3    H221649   0.541   3.314   3.912
 7229TIP3   OH221650   0.566   2.738   5.110
 7229TIP3    H121651   0.641   2.719   5.053
 7229TIP3    H221652   0.553   2.832   5.102
 7230TIP3   OH221653   2.920   0.212   5.657
 7230TIP3    H121654   2.935   0.194   5.750
 7230TIP3    H221655   2.827   0.195   5.644
 7231TIP3   OH221656   4.772   3.477   4.083
 7231TIP3    H121657   4.724   3.548   4.040
 7231TIP3    H221658   4.860   3.512   4.097
 7232TIP3   OH221659   3.259   2.749   0.081
 7232TIP3    H121660   3.265   2.800   0.162
 7232TIP3    H221661   3.228   2.812   0.016
 7233TIP3   OH221662   4.841   1.798   5.478
 7233TIP3    H121663   4.789   1.729   5.435
 7233TIP3    H221664   4.831   1.780   5.572
 7234TIP3   OH221665   1.390   6.468   0.038
 7234TIP3    H121666   1.331   6.537   0.008
 7234TIP3    H221667   1.475   6.492   0.001
 7235TIP3   OH221668   0.092   2.394   2.913
 7235TIP3    H121669   0.133   2.404   2.999
 7235TIP3    H221670   0.036   2.317   2.923
 7236TIP3   OH221671   4.759   5.575   1.184
 7236TIP3    H121672   4.835   5.582   1.242
 7236TIP3    H221673   4.795   5.583   1.096
 7237TIP3   OH221674   4.965   1.388   5.237
 7237TIP3    H121675   5.022   1.318   5.207
 7237TIP3    H221676   5.024   1.452   5.277
 7238TIP3   OH221677   3.310   0.327   3.298
 7238TIP3    H121678   3.299   0.299   3.389
 7238TIP3    H221679   3.401   0.355   3.293
 7239TIP3   OH221680   4.348   5.864   1.160
 7239TIP3    H121681   4.404   5.850   1.236
 7239TIP3    H221682   4.293   5.786   1.156
 7240TIP3   OH221683   2.768   1.055   0.387
 7240TIP3    H121684   2.840   1.087   0.332
 7240TIP3    H221685   2.797   1.073   0.476
 7241TIP3   OH221686   0.508   2.500   2.415
 7241TIP3    H121687   0.493   2.427   2.476
 7241TIP3    H221688   0.532   2.459   2.333
 7242TIP3   OH221689   4.333   3.031   3.546
 7242TIP3    H121690   4.416   2.988   3.528
 7242TIP3    H221691   4.339   3.058   3.638
 7243TIP3   OH221692   6.570   2.496   0.730
 7243TIP3    H121693   6.569   2.521   0.637
 7243TIP3    H221694   6.656   2.523   0.761
 7244TIP3   OH221695   4.715   6.351   1.530
 7244TIP3    H121696   4.731   6.282   1.465
 7244TIP3    H221697   4.638   6.322   1.578
 7245TIP3   OH221698   6.634   0.686   1.468
 7245TIP3    H121699   6.642   0.690   1.563
 7245TIP3    H221700   6.720   0.712   1.435
 7246TIP3   OH221701   2.757   2.825   5.109
 7246TIP3    H121702   2.687   2.770   5.143
 7246TIP3    H221703   2.802   2.857   5.187
 7247TIP3   OH221704   5.996   6.495   1.671
 7247TIP3    H121705   5.995   6.467   1.580
 7247TIP3    H221706   6.039   6.581   1.670
 7248TIP3   OH221707   1.103   4.234   0.842
 7248TIP3    H121708   1.185   4.258   0.799
 7248TIP3    H221709   1.035   4.260   0.779
 7249TIP3   OH221710   3.091   1.972   0.375
 7249TIP3    H121711   3.125   1.957   0.287
 7249TIP3    H221712   3.002   2.004   0.360
 7250TIP3   OH221713   3.052   4.883   4.760
 7250TIP3    H121714   3.030   4.976   4.756
 7250TIP3    H221715   3.053   4.854   4.669
 7251TIP3   OH221716   1.822   3.158   0.201
 7251TIP3    H121717   1.798   3.078   0.249
 7251TIP3    H221718   1.906   3.137   0.160
 7252TIP3   OH221719   0.173   6.214   5.360
 7252TIP3    H121720   0.183   6.214   5.455
 7252TIP3    H221721   0.081   6.191   5.345
 7253TIP3   OH221722   1.249   6.421   5.695
 7253TIP3    H121723   1.294   6.366   5.630
 7253TIP3    H221724   1.307   6.418   5.771
 7254TIP3   OH221725   0.525   3.885   2.628
 7254TIP3    H121726   0.444   3.867   2.676
 7254TIP3    H221727   0.512   3.972   2.591
 7255TIP3   OH221728   6.814   3.992   0.115
 7255TIP3    H121729   6.768   3.931   0.173
 7255TIP3    H221730   6.766   3.989   0.033
 7256TIP3   OH221731   0.459   0.631   0.524
 7256TIP3    H121732   0.446   0.662   0.434
 7256TIP3    H221733   0.371   0.622   0.559
 7257TIP3   OH221734   0.469   5.421   5.170
 7257TIP3    H121735   0.544   5.431   5.229
 7257TIP3    H221736   0.456   5.509   5.134
 7258TIP3   OH221737   6.080   6.234   4.734
 7258TIP3    H121738   6.006   6.281   4.696
 7258TIP3    H221739   6.048   6.145   4.746
 7259TIP3   OH221740   1.301   6.429   2.072
 7259TIP3    H121741   1.307   6.364   2.141
 7259TIP3    H221742   1.238   6.493   2.105
 7260TIP3   OH221743   3.494   1.531   1.380
 7260TIP3    H121744   3.414   1.481   1.397
 7260TIP3    H221745   3.499   1.593   1.452
 7261TIP3   OH221746   2.948   3.758   2.603
 7261TIP3    H121747   2.983   3.768   2.691
 7261TIP3    H221748   2.956   3.845   2.564
 7262TIP3   OH221749   3.174   4.911   4.288
 7262TIP3    H121750   3.149   5.003   4.296
 7262TIP3    H221751   3.145   4.886   4.200
 7263TIP3   OH221752   1.628   5.645   3.087
 7263TIP3    H121753   1.587   5.574   3.037
 7263TIP3    H221754   1.710   5.607   3.119
 7264TIP3   OH221755   2.963   5.075   3.731
 7264TIP3    H121756   2.872   5.066   3.760
 7264TIP3    H221757   2.972   5.012   3.660
 7265TIP3   OH221758   6.964   1.792   1.850
 7265TIP3    H121759   6.913   1.873   1.856
 7265TIP3    H221760   6.932   1.738   1.922
 7266TIP3   OH221761   0.677   5.604   2.040
 7266TIP3    H121762   0.693   5.596   2.134
 7266TIP3    H221763   0.735   5.538   2.000
 7267TIP3   OH221764   1.339   5.668   0.284
 7267TIP3    H121765   1.258   5.619   0.273
 7267TIP3    H221766   1.316   5.759   0.264
 7268TIP3   OH221767   4.488   1.720   3.612
 7268TIP3    H121768   4.426   1.664   3.565
 7268TIP3    H221769   4.494   1.682   3.699
 7269TIP3   OH221770   6.418   2.108   1.075
 7269TIP3    H121771   6.443   2.127   1.165
 7269TIP3    H221772   6.445   2.018   1.060
 7270TIP3   OH221773   2.478   2.578   3.112
 7270TIP3    H121774   2.568   2.594   3.082
 7270TIP3    H221775   2.486   2.505   3.173
 7271TIP3   OH221776   2.095   5.717   1.189
 7271TIP3    H121777   2.113   5.681   1.102
 7271TIP3    H221778   2.008   5.684   1.211
 7272TIP3   OH221779   4.917   1.804   3.603
 7272TIP3    H121780   4.826   1.800   3.631
 7272TIP3    H221781   4.952   1.882   3.646
 7273TIP3   OH221782   3.764   2.369   4.947
 7273TIP3    H121783   3.695   2.434   4.954
 7273TIP3    H221784   3.726   2.298   4.895
 7274TIP3   OH221785   2.019   4.926   5.276
 7274TIP3    H121786   1.938   4.918   5.327
 7274TIP3    H221787   2.071   4.850   5.301
 7275TIP3   OH221788   5.500   2.821   4.595
 7275TIP3    H121789   5.514   2.880   4.522
 7275TIP3    H221790   5.446   2.870   4.657
 7276TIP3   OH221791   2.967   5.946   5.440
 7276TIP3    H121792   3.054   5.907   5.452
 7276TIP3    H221793   2.929   5.897   5.367
 7277TIP3   OH221794   6.515   0.143   4.189
 7277TIP3    H121795   6.500   0.054   4.220
 7277TIP3    H221796   6.448   0.196   4.232
 7278TIP3   OH221797   6.152   1.832   0.665
 7278TIP3    H121798   6.219   1.836   0.734
 7278TIP3    H221799   6.072   1.806   0.710
 7279TIP3   OH221800   5.816   0.920   2.707
 7279TIP3    H121801   5.802   0.953   2.796
 7279TIP3    H221802   5.754   0.970   2.653
 7280TIP3   OH221803   0.303   0.976   1.592
 7280TIP3    H121804   0.272   1.066   1.603
 7280TIP3    H221805   0.225   0.922   1.605
 7281TIP3   OH221806   2.100   2.149   4.176
 7281TIP3    H121807   2.066   2.209   4.110
 7281TIP3    H221808   2.192   2.137   4.152
 7282TIP3   OH221809   5.983   1.773   1.498
 7282TIP3    H121810   5.918   1.791   1.431
 7282TIP3    H221811   5.968   1.840   1.565
 7283TIP3   OH221812   4.037   5.667   0.871
 7283TIP3    H121813   4.127   5.637   0.863
 7283TIP3    H221814   4.042   5.762   0.861
 7284TIP3   OH221815   2.201   1.020   0.676
 7284TIP3    H121816   2.175   1.105   0.643
 7284TIP3    H221817   2.174   0.957   0.609
 7285TIP3   OH221818   5.500   2.913   1.943
 7285TIP3    H121819   5.447   2.841   1.979
 7285TIP3    H221820   5.437   2.984   1.928
 7286TIP3   OH221821   0.396   0.210   0.870
 7286TIP3    H121822   0.369   0.196   0.779
 7286TIP3    H221823   0.482   0.252   0.863
 7287TIP3   OH221824   3.567   4.423   0.371
 7287TIP3    H121825   3.648   4.374   0.389
 7287TIP3    H221826   3.498   4.357   0.377
 7288TIP3   OH221827   6.268   3.434   1.410
 7288TIP3    H121828   6.177   3.430   1.380
 7288TIP3    H221829   6.293   3.526   1.399
 7289TIP3   OH221830   3.633   0.903   1.612
 7289TIP3    H121831   3.571   0.943   1.672
 7289TIP3    H221832   3.685   0.976   1.579
 7290TIP3   OH221833   4.360   4.529   4.814
 7290TIP3    H121834   4.292   4.470   4.845
 7290TIP3    H221835   4.315   4.610   4.794
 7291TIP3   OH221836   2.229   6.411   5.826
 7291TIP3    H121837   2.181   6.392   5.745
 7291TIP3    H221838   2.320   6.388   5.806
 7292TIP3   OH221839   2.790   1.310   0.624
 7292TIP3    H121840   2.776   1.390   0.674
 7292TIP3    H221841   2.771   1.334   0.534
 7293TIP3   OH221842   3.179   1.252   5.127
 7293TIP3    H121843   3.211   1.264   5.216
 7293TIP3    H221844   3.257   1.252   5.072
 7294TIP3   OH221845   3.018   6.318   0.396
 7294TIP3    H121846   3.014   6.329   0.301
 7294TIP3    H221847   3.100   6.361   0.422
 7295TIP3   OH221848   5.311   5.211   2.345
 7295TIP3    H121849   5.265   5.261   2.412
 7295TIP3    H221850   5.403   5.216   2.370
 7296TIP3   OH221851   6.569   4.734   4.902
 7296TIP3    H121852   6.489   4.681   4.904
 7296TIP3    H221853   6.546   4.814   4.949
 7297TIP3   OH221854   1.219   3.335   3.199
 7297TIP3    H121855   1.154   3.323   3.268
 7297TIP3    H221856   1.217   3.253   3.150
 7298TIP3   OH221857   3.366   5.511   0.547
 7298TIP3    H121858   3.382   5.477   0.635
 7298TIP3    H221859   3.394   5.440   0.489
 7299TIP3   OH221860   1.237   3.573   0.805
 7299TIP3    H121861   1.238   3.502   0.869
 7299TIP3    H221862   1.182   3.641   0.845
 7300TIP3   OH221863   4.998   5.302   3.370
 7300TIP3    H121864   5.030   5.215   3.395
 7300TIP3    H221865   5.039   5.361   3.433
 7301TIP3   OH221866   3.062   2.781   1.914
 7301TIP3    H121867   3.092   2.796   1.824
 7301TIP3    H221868   2.968   2.768   1.906
 7302TIP3   OH221869   0.698   3.906   5.760
 7302TIP3    H121870   0.741   3.914   5.846
 7302TIP3    H221871   0.683   3.997   5.733
 7303TIP3   OH221872   6.210   2.154   0.696
 7303TIP3    H121873   6.240   2.198   0.776
 7303TIP3    H221874   6.171   2.072   0.728
 7304TIP3   OH221875   3.520   1.730   0.657
 7304TIP3    H121876   3.601   1.745   0.705
 7304TIP3    H221877   3.451   1.744   0.722
 7305TIP3   OH221878   3.995   0.211   5.201
 7305TIP3    H121879   3.956   0.142   5.147
 7305TIP3    H221880   3.964   0.192   5.290
 7306TIP3   OH221881   0.774   1.651   1.572
 7306TIP3    H121882   0.824   1.726   1.540
 7306TIP3    H221883   0.806   1.637   1.660
 7307TIP3   OH221884   5.027   1.176   3.081
 7307TIP3    H121885   5.108   1.198   3.034
 7307TIP3    H221886   4.975   1.128   3.016
 7308TIP3   OH221887   7.197   3.666   1.940
 7308TIP3    H121888   7.173   3.743   1.889
 7308TIP3    H221889   7.193   3.696   2.031
 7309TIP3   OH221890   4.279   6.081   4.854
 7309TIP3    H121891   4.305   6.077   4.946
 7309TIP3    H221892   4.215   6.010   4.844
 7310TIP3   OH221893   3.168   0.248   3.074
 7310TIP3    H121894   3.214   0.282   3.150
 7310TIP3    H221895   3.228   0.262   3.000
 7311TIP3   OH221896   4.560   4.349   0.565
 7311TIP3    H121897   4.498   4.380   0.498
 7311TIP3    H221898   4.645   4.381   0.535
 7312TIP3   OH221899   2.053   2.766   4.114
 7312TIP3    H121900   2.050   2.841   4.174
 7312TIP3    H221901   1.975   2.776   4.060
 7313TIP3   OH221902   6.054   1.475   4.533
 7313TIP3    H121903   6.064   1.388   4.493
 7313TIP3    H221904   6.052   1.459   4.627
 7314TIP3   OH221905   3.201   2.813   4.869
 7314TIP3    H121906   3.176   2.874   4.800
 7314TIP3    H221907   3.241   2.867   4.937
 7315TIP3   OH221908   0.438   1.503   5.486
 7315TIP3    H121909   0.403   1.591   5.476
 7315TIP3    H221910   0.407   1.474   5.571
 7316TIP3   OH221911   0.425   0.096   4.312
 7316TIP3    H121912   0.374   0.117   4.233
 7316TIP3    H221913   0.438   0.001   4.308
 7317TIP3   OH221914   3.629   4.844   4.366
 7317TIP3    H121915   3.713   4.799   4.351
 7317TIP3    H221916   3.576   4.779   4.411
 7318TIP3   OH221917   4.357   4.085   0.938
 7318TIP3    H121918   4.441   4.126   0.959
 7318TIP3    H221919   4.317   4.144   0.875
 7319TIP3   OH221920   1.509   1.701   4.217
 7319TIP3    H121921   1.469   1.637   4.276
 7319TIP3    H221922   1.437   1.731   4.161
 7320TIP3   OH221923   0.681   4.517   5.184
 7320TIP3    H121924   0.769   4.480   5.176
 7320TIP3    H221925   0.666   4.522   5.279
 7321TIP3   OH221926   4.939   3.300   3.111
 7321TIP3    H121927   5.025   3.300   3.154
 7321TIP3    H221928   4.944   3.369   3.045
 7322TIP3   OH221929   2.871   3.361   0.324
 7322TIP3    H121930   2.881   3.423   0.395
 7322TIP3    H221931   2.808   3.402   0.265
 7323TIP3   OH221932   6.299   2.853   3.433
 7323TIP3    H121933   6.271   2.944   3.430
 7323TIP3    H221934   6.309   2.828   3.341
 7324TIP3   OH221935   3.673   5.547   4.594
 7324TIP3    H121936   3.704   5.616   4.536
 7324TIP3    H221937   3.738   5.477   4.585
 7325TIP3   OH221938   3.336   3.609   2.677
 7325TIP3    H121939   3.388   3.629   2.755
 7325TIP3    H221940   3.349   3.685   2.619
 7326TIP3   OH221941   3.995   2.266   5.783
 7326TIP3    H121942   3.912   2.221   5.768
 7326TIP3    H221943   4.019   2.245   5.873
 7327TIP3   OH221944   1.050   5.967   2.275
 7327TIP3    H121945   1.092   5.993   2.193
 7327TIP3    H221946   1.009   6.047   2.307
 7328TIP3   OH221947   4.408   2.434   1.628
 7328TIP3    H121948   4.449   2.504   1.680
 7328TIP3    H221949   4.440   2.449   1.539
 7329TIP3   OH221950   0.575   1.884   1.688
 7329TIP3    H121951   0.579   1.857   1.596
 7329TIP3    H221952   0.492   1.930   1.696
 7330TIP3   OH221953   6.482   2.465   2.321
 7330TIP3    H121954   6.414   2.406   2.354
 7330TIP3    H221955   6.451   2.552   2.347
 7331TIP3   OH221956   2.290   3.054   4.020
 7331TIP3    H121957   2.358   3.079   4.084
 7331TIP3    H221958   2.276   2.961   4.035
 7332TIP3   OH221959   1.130   2.606   2.152
 7332TIP3    H121960   1.083   2.624   2.233
 7332TIP3    H221961   1.223   2.608   2.177
 7333TIP3   OH221962   2.638   6.484   4.847
 7333TIP3    H121963   2.691   6.406   4.868
 7333TIP3    H221964   2.699   6.543   4.803
 7334TIP3   OH221965   3.815   0.526   1.122
 7334TIP3    H121966   3.905   0.496   1.134
 7334TIP3    H221967   3.824   0.617   1.094
 7335TIP3   OH221968   3.315   4.972   5.668
 7335TIP3    H121969   3.375   5.012   5.731
 7335TIP3    H221970   3.369   4.957   5.590
 7336TIP3   OH221971   0.040   2.159   3.939
 7336TIP3    H121972  -0.029   2.225   3.950
 7336TIP3    H221973   0.012   2.086   3.994
 7337TIP3   OH221974   4.156   3.677   3.645
 7337TIP3    H121975   4.104   3.652   3.722
 7337TIP3    H221976   4.225   3.733   3.680
 7338TIP3   OH221977   0.096   2.624   5.691
 7338TIP3    H121978   0.140   2.558   5.746
 7338TIP3    H221979   0.168   2.675   5.654
 7339TIP3   OH221980   6.331   6.345   5.100
 7339TIP3    H121981   6.303   6.270   5.152
 7339TIP3    H221982   6.414   6.372   5.139
 7340TIP3   OH221983   0.652   2.519   5.273
 7340TIP3    H121984   0.611   2.434   5.260
 7340TIP3    H221985   0.591   2.582   5.234
 7341TIP3   OH221986   3.409   1.634   2.220
 7341TIP3    H121987   3.409   1.600   2.310
 7341TIP3    H221988   3.484   1.693   2.216
 7342TIP3   OH221989   0.642   6.679   4.471
 7342TIP3    H121990   0.737   6.668   4.479
 7342TIP3    H221991   0.606   6.617   4.535
 7343TIP3   OH221992   6.080   0.055   3.669
 7343TIP3    H121993   5.990   0.021   3.669
 7343TIP3    H221994   6.077   0.132   3.613
 7344TIP3   OH221995   3.896   5.192   5.630
 7344TIP3    H121996   3.966   5.181   5.694
 7344TIP3    H221997   3.876   5.104   5.600
 7345TIP3   OH221998   4.099   2.592   1.571
 7345TIP3    H121999   4.171   2.539   1.537
 7345TIP3    H222000   4.139   2.677   1.589
 7346TIP3   OH222001   2.295   2.277   1.776
 7346TIP3    H122002   2.307   2.272   1.681
 7346TIP3    H222003   2.324   2.191   1.808
 7347TIP3   OH222004   7.121   0.380   5.298
 7347TIP3    H122005   7.209   0.363   5.332
 7347TIP3    H222006   7.066   0.382   5.376
 7348TIP3   OH222007   5.409   4.521   2.671
 7348TIP3    H122008   5.338   4.545   2.731
 7348TIP3    H222009   5.439   4.605   2.634
 7349TIP3   OH222010   3.881   0.368   3.311
 7349TIP3    H122011   3.897   0.459   3.333
 7349TIP3    H222012   3.956   0.321   3.348
 7350TIP3   OH222013   6.313   2.948   0.885
 7350TIP3    H122014   6.342   2.860   0.909
 7350TIP3    H222015   6.235   2.963   0.938
 7351TIP3   OH222016   2.024   3.139   3.443
 7351TIP3    H122017   2.065   3.217   3.478
 7351TIP3    H222018   2.012   3.157   3.350
 7352TIP3   OH222019   3.751   2.659   3.488
 7352TIP3    H122020   3.844   2.656   3.511
 7352TIP3    H222021   3.748   2.715   3.410
 7353TIP3   OH222022   6.335   6.572   3.766
 7353TIP3    H122023   6.285   6.631   3.823
 7353TIP3    H222024   6.384   6.630   3.708
 7354TIP3   OH222025   3.510   5.060   4.925
 7354TIP3    H122026   3.592   5.074   4.878
 7354TIP3    H222027   3.451   5.023   4.859
 7355TIP3   OH222028   5.871   0.048   5.381
 7355TIP3    H122029   5.951  -0.004   5.368
 7355TIP3    H222030   5.836   0.017   5.464
 7356TIP3   OH222031   4.370   0.938   2.522
 7356TIP3    H122032   4.406   0.991   2.593
 7356TIP3    H222033   4.362   0.999   2.448
 7357TIP3   OH222034   6.859   4.626   3.408
 7357TIP3    H122035   6.792   4.587   3.464
 7357TIP3    H222036   6.935   4.637   3.465
 7358TIP3   OH222037   2.977   6.094   5.060
 7358TIP3    H122038   2.981   6.003   5.090
 7358TIP3    H222039   2.884   6.108   5.039
 7359TIP3   OH222040   4.247   5.760   4.925
 7359TIP3    H122041   4.242   5.838   4.981
 7359TIP3    H222042   4.303   5.699   4.974
 7360TIP3   OH222043   2.116   0.321   4.653
 7360TIP3    H122044   2.087   0.271   4.578
 7360TIP3    H222045   2.123   0.257   4.724
 7361TIP3   OH222046   3.173   1.697   0.259
 7361TIP3    H122047   3.233   1.728   0.191
 7361TIP3    H222048   3.229   1.674   0.333
 7362TIP3   OH222049   1.699   5.172   5.200
 7362TIP3    H122050   1.746   5.116   5.138
 7362TIP3    H222051   1.761   5.183   5.272
 7363TIP3   OH222052   4.741   4.197   5.364
 7363TIP3    H122053   4.774   4.272   5.414
 7363TIP3    H222054   4.812   4.133   5.367
 7364TIP3   OH222055   4.803   6.569   3.136
 7364TIP3    H122056   4.758   6.644   3.098
 7364TIP3    H222057   4.836   6.600   3.220
 7365TIP3   OH222058   0.045   0.107   0.324
 7365TIP3    H122059  -0.005   0.154   0.258
 7365TIP3    H222060   0.020   0.148   0.407
 7366TIP3   OH222061   1.533   2.191   2.277
 7366TIP3    H122062   1.593   2.152   2.341
 7366TIP3    H222063   1.513   2.119   2.217
 7367TIP3   OH222064   6.259   1.896   3.111
 7367TIP3    H122065   6.341   1.944   3.097
 7367TIP3    H222066   6.252   1.838   3.034
 7368TIP3   OH222067   6.492   5.245   3.059
 7368TIP3    H122068   6.413   5.255   3.007
 7368TIP3    H222069   6.534   5.331   3.055
 7369TIP3   OH222070   2.423   5.747   4.501
 7369TIP3    H122071   2.499   5.752   4.559
 7369TIP3    H222072   2.355   5.798   4.546
 7370TIP3   OH222073   2.579   4.887   2.941
 7370TIP3    H122074   2.612   4.835   3.014
 7370TIP3    H222075   2.651   4.948   2.921
 7371TIP3   OH222076   6.918   6.140   0.300
 7371TIP3    H122077   6.975   6.160   0.227
 7371TIP3    H222078   6.929   6.046   0.314
 7372TIP3   OH222079   4.838   0.290   5.799
 7372TIP3    H122080   4.895   0.271   5.724
 7372TIP3    H222081   4.795   0.373   5.777
 7373TIP3   OH222082   6.092   1.062   0.708
 7373TIP3    H122083   6.167   1.116   0.728
 7373TIP3    H222084   6.044   1.055   0.790
 7374TIP3   OH222085   2.748   5.705   5.741
 7374TIP3    H122086   2.795   5.765   5.683
 7374TIP3    H222087   2.810   5.634   5.757
 7375TIP3   OH222088   3.438   3.016   2.223
 7375TIP3    H122089   3.373   3.065   2.172
 7375TIP3    H222090   3.426   2.925   2.195
 7376TIP3   OH222091   2.047   5.634   4.256
 7376TIP3    H122092   2.071   5.727   4.264
 7376TIP3    H222093   2.029   5.606   4.345
 7377TIP3   OH222094   6.686   0.620   3.163
 7377TIP3    H122095   6.606   0.617   3.112
 7377TIP3    H222096   6.679   0.546   3.224
 7378TIP3   OH222097   3.004   2.153   0.752
 7378TIP3    H122098   3.028   2.155   0.659
 7378TIP3    H222099   2.966   2.240   0.769
 7379TIP3   OH222100   1.570   3.870   1.323
 7379TIP3    H122101   1.532   3.955   1.302
 7379TIP3    H222102   1.592   3.877   1.416
 7380TIP3   OH222103   3.508   0.621   4.860
 7380TIP3    H122104   3.419   0.605   4.892
 7380TIP3    H222105   3.554   0.660   4.935
 7381TIP3   OH222106   4.614   4.356   0.258
 7381TIP3    H122107   4.585   4.317   0.176
 7381TIP3    H222108   4.534   4.393   0.296
 7382TIP3   OH222109   3.977   5.338   2.624
 7382TIP3    H122110   3.971   5.276   2.551
 7382TIP3    H222111   4.011   5.418   2.585
 7383TIP3   OH222112   6.160   2.638   1.786
 7383TIP3    H122113   6.107   2.708   1.824
 7383TIP3    H222114   6.199   2.677   1.708
 7384TIP3   OH222115   0.044   3.352   3.848
 7384TIP3    H122116   0.097   3.295   3.904
 7384TIP3    H222117  -0.011   3.291   3.798
 7385TIP3   OH222118   0.975   2.951   4.865
 7385TIP3    H122119   0.911   2.933   4.795
 7385TIP3    H222120   0.980   3.046   4.870
 7386TIP3   OH222121   6.119   5.448   0.745
 7386TIP3    H122122   6.101   5.407   0.829
 7386TIP3    H222123   6.214   5.444   0.736
 7387TIP3   OH222124   0.960   4.899   1.209
 7387TIP3    H122125   1.018   4.925   1.280
 7387TIP3    H222126   1.008   4.924   1.129
 7388TIP3   OH222127   0.205   0.692   3.127
 7388TIP3    H122128   0.281   0.720   3.179
 7388TIP3    H222129   0.172   0.615   3.172
 7389TIP3   OH222130   5.983   4.651   1.819
 7389TIP3    H122131   5.961   4.735   1.861
 7389TIP3    H222132   6.078   4.649   1.816
 7390TIP3   OH222133   4.718   2.497   1.511
 7390TIP3    H122134   4.688   2.584   1.540
 7390TIP3    H222135   4.742   2.452   1.592
 7391TIP3   OH222136   3.067   3.285   1.093
 7391TIP3    H122137   3.069   3.199   1.135
 7391TIP3    H222138   3.101   3.270   1.005
 7392TIP3   OH222139   3.230   6.185   5.664
 7392TIP3    H122140   3.136   6.194   5.652
 7392TIP3    H222141   3.267   6.201   5.577
 7393TIP3   OH222142   0.579   1.865   1.416
 7393TIP3    H122143   0.501   1.815   1.394
 7393TIP3    H222144   0.648   1.828   1.361
 7394TIP3   OH222145   0.552   0.084   1.826
 7394TIP3    H122146   0.521   0.093   1.736
 7394TIP3    H222147   0.642   0.117   1.823
 7395TIP3   OH222148   1.775   6.409   5.126
 7395TIP3    H122149   1.842   6.340   5.127
 7395TIP3    H222150   1.825   6.491   5.128
 7396TIP3   OH222151   0.047   2.732   1.473
 7396TIP3    H122152   0.084   2.680   1.402
 7396TIP3    H222153   0.065   2.822   1.450
 7397TIP3   OH222154   2.978   2.413   0.906
 7397TIP3    H122155   3.018   2.482   0.960
 7397TIP3    H222156   2.889   2.406   0.940
 7398TIP3   OH222157   1.632   0.294   1.203
 7398TIP3    H122158   1.650   0.374   1.252
 7398TIP3    H222159   1.537   0.294   1.192
 7399TIP3   OH222160   6.050   4.026   5.355
 7399TIP3    H122161   5.991   4.074   5.296
 7399TIP3    H222162   6.127   4.009   5.301
 7400TIP3   OH222163   4.609   6.064   5.665
 7400TIP3    H122164   4.649   5.979   5.646
 7400TIP3    H222165   4.673   6.128   5.634
 7401TIP3   OH222166   5.331   2.312   5.685
 7401TIP3    H122167   5.379   2.246   5.736
 7401TIP3    H222168   5.398   2.377   5.661
 7402TIP3   OH222169   1.424   2.665   3.650
 7402TIP3    H122170   1.418   2.613   3.730
 7402TIP3    H222171   1.469   2.609   3.587
 7403TIP3   OH222172   6.840   2.231   2.968
 7403TIP3    H122173   6.749   2.213   2.945
 7403TIP3    H222174   6.859   2.171   3.039
 7404TIP3   OH222175   2.783   4.911   0.285
 7404TIP3    H122176   2.836   4.988   0.306
 7404TIP3    H222177   2.731   4.895   0.364
 7405TIP3   OH222178   5.904   4.181   2.947
 7405TIP3    H122179   5.905   4.223   2.861
 7405TIP3    H222180   5.939   4.094   2.932
 7406TIP3   OH222181   2.306   1.166   1.198
 7406TIP3    H122182   2.365   1.216   1.142
 7406TIP3    H222183   2.230   1.147   1.142
 7407TIP3   OH222184   5.355   6.076   0.151
 7407TIP3    H122185   5.436   6.060   0.198
 7407TIP3    H222186   5.309   6.141   0.203
 7408TIP3   OH222187   2.922   0.564   2.780
 7408TIP3    H122188   2.986   0.514   2.830
 7408TIP3    H222189   2.870   0.609   2.846
 7409TIP3   OH222190   2.874   4.986   4.397
 7409TIP3    H122191   2.866   5.036   4.478
 7409TIP3    H222192   2.805   4.919   4.403
 7410TIP3   OH222193   5.015   1.198   4.612
 7410TIP3    H122194   4.990   1.106   4.601
 7410TIP3    H222195   5.028   1.231   4.523
 7411TIP3   OH222196   2.031   1.030   3.305
 7411TIP3    H122197   2.072   0.963   3.360
 7411TIP3    H222198   2.080   1.110   3.324
 7412TIP3   OH222199   2.595   1.852   3.204
 7412TIP3    H122200   2.565   1.846   3.113
 7412TIP3    H222201   2.514   1.850   3.256
 7413TIP3   OH222202   2.179   1.661   2.270
 7413TIP3    H122203   2.128   1.636   2.193
 7413TIP3    H222204   2.150   1.600   2.338
 7414TIP3   OH222205   5.850   2.760   2.928
 7414TIP3    H122206   5.906   2.766   3.005
 7414TIP3    H222207   5.826   2.851   2.908
 7415TIP3   OH222208   5.919   3.502   3.436
 7415TIP3    H122209   5.834   3.472   3.405
 7415TIP3    H222210   5.976   3.425   3.428
 7416TIP3   OH222211   6.870   5.461   1.977
 7416TIP3    H122212   6.947   5.461   2.034
 7416TIP3    H222213   6.823   5.542   1.999
 7417TIP3   OH222214   4.006   1.926   0.885
 7417TIP3    H122215   3.993   1.839   0.923
 7417TIP3    H222216   4.007   1.985   0.960
 7418TIP3   OH222217   5.419   1.621   3.767
 7418TIP3    H122218   5.333   1.658   3.749
 7418TIP3    H222219   5.429   1.626   3.862
 7419TIP3   OH222220   3.947   1.756   0.612
 7419TIP3    H122221   3.882   1.818   0.646
 7419TIP3    H222222   4.006   1.810   0.559
 7420TIP3   OH222223   5.486   4.266   0.145
 7420TIP3    H122224   5.413   4.313   0.186
 7420TIP3    H222225   5.444   4.198   0.092
 7421TIP3   OH222226   0.980   1.632   1.879
 7421TIP3    H122227   1.064   1.637   1.834
 7421TIP3    H222228   0.960   1.723   1.903
 7422TIP3   OH222229   4.214   4.476   0.622
 7422TIP3    H122230   4.181   4.477   0.532
 7422TIP3    H222231   4.274   4.550   0.627
 7423TIP3   OH222232   6.538   1.851   0.070
 7423TIP3    H122233   6.534   1.756   0.057
 7423TIP3    H222234   6.620   1.866   0.116
 7424TIP3   OH222235   4.520   6.212   1.738
 7424TIP3    H122236   4.451   6.189   1.676
 7424TIP3    H222237   4.548   6.129   1.775
 7425TIP3   OH222238   0.581   4.109   3.596
 7425TIP3    H122239   0.545   4.055   3.526
 7425TIP3    H222240   0.517   4.179   3.608
 7426TIP3   OH222241   0.272   0.268   0.310
 7426TIP3    H122242   0.192   0.221   0.334
 7426TIP3    H222243   0.333   0.201   0.281
 7427TIP3   OH222244   2.554   1.691   4.116
 7427TIP3    H122245   2.590   1.656   4.034
 7427TIP3    H222246   2.490   1.756   4.087
 7428TIP3   OH222247   5.378   2.744   5.588
 7428TIP3    H122248   5.362   2.821   5.642
 7428TIP3    H222249   5.292   2.722   5.551
 7429TIP3   OH222250   6.996   1.878   0.398
 7429TIP3    H122251   6.954   1.792   0.400
 7429TIP3    H222252   7.002   1.904   0.489
 7430TIP3   OH222253   0.252   2.457   2.294
 7430TIP3    H122254   0.227   2.529   2.235
 7430TIP3    H222255   0.297   2.500   2.367
 7431TIP3   OH222256   6.103   5.137   3.506
 7431TIP3    H122257   6.168   5.071   3.530
 7431TIP3    H222258   6.026   5.087   3.480
 7432TIP3   OH222259   2.878   1.474   4.553
 7432TIP3    H122260   2.902   1.422   4.476
 7432TIP3    H222261   2.788   1.500   4.537
 7433TIP3   OH222262   6.096   5.335   5.239
 7433TIP3    H122263   6.087   5.341   5.334
 7433TIP3    H222264   6.122   5.422   5.211
 7434TIP3   OH222265   3.294   3.224   0.526
 7434TIP3    H122266   3.343   3.226   0.608
 7434TIP3    H222267   3.337   3.289   0.470
 7435TIP3   OH222268   6.650   0.828   5.355
 7435TIP3    H122269   6.655   0.887   5.431
 7435TIP3    H222270   6.585   0.868   5.298
 7436TIP3   OH222271   0.185   5.035   2.018
 7436TIP3    H122272   0.131   5.033   2.097
 7436TIP3    H222273   0.221   5.124   2.016
 7437TIP3   OH222274   7.086   1.641   5.658
 7437TIP3    H122275   7.173   1.678   5.644
 7437TIP3    H222276   7.045   1.699   5.722
 7438TIP3   OH222277   3.399   5.701   2.162
 7438TIP3    H122278   3.372   5.717   2.253
 7438TIP3    H222279   3.476   5.645   2.169
 7439TIP3   OH222280   1.873   4.445   1.084
 7439TIP3    H122281   1.823   4.477   1.159
 7439TIP3    H222282   1.964   4.452   1.111
 7440TIP3   OH222283   3.837   2.930   2.454
 7440TIP3    H122284   3.841   2.956   2.362
 7440TIP3    H222285   3.744   2.933   2.475
 7441TIP3   OH222286   1.882   6.467   0.452
 7441TIP3    H122287   1.791   6.459   0.425
 7441TIP3    H222288   1.919   6.380   0.435
 7442TIP3   OH222289   2.596   5.963   5.523
 7442TIP3    H122290   2.548   6.035   5.564
 7442TIP3    H222291   2.678   5.958   5.571
 7443TIP3   OH222292   0.243   4.599   1.127
 7443TIP3    H122293   0.331   4.631   1.105
 7443TIP3    H222294   0.192   4.611   1.047
 7444TIP3   OH222295   3.431   6.272   3.458
 7444TIP3    H122296   3.371   6.205   3.492
 7444TIP3    H222297   3.391   6.355   3.482
 7445TIP3   OH222298   3.623   0.329   1.099
 7445TIP3    H122299   3.696   0.384   1.127
 7445TIP3    H222300   3.599   0.363   1.013
 7446TIP3   OH222301   5.453   2.572   4.559
 7446TIP3    H122302   5.501   2.533   4.486
 7446TIP3    H222303   5.494   2.657   4.572
 7447TIP3   OH222304   4.538   2.341   4.777
 7447TIP3    H122305   4.519   2.271   4.840
 7447TIP3    H222306   4.611   2.389   4.816
 7448TIP3   OH222307   6.716   5.259   2.774
 7448TIP3    H122308   6.767   5.337   2.752
 7448TIP3    H222309   6.748   5.192   2.713
 7449TIP3   OH222310   2.339   3.223   2.901
 7449TIP3    H122311   2.388   3.218   2.819
 7449TIP3    H222312   2.269   3.157   2.891
 7450TIP3   OH222313   1.364   0.999   2.714
 7450TIP3    H122314   1.403   1.071   2.665
 7450TIP3    H222315   1.365   0.925   2.652
 7451TIP3   OH222316   0.569   6.268   5.271
 7451TIP3    H122317   0.572   6.188   5.324
 7451TIP3    H222318   0.477   6.276   5.245
 7452TIP3   OH222319   6.653   6.292   1.134
 7452TIP3    H122320   6.624   6.383   1.132
 7452TIP3    H222321   6.697   6.278   1.050
 7453TIP3   OH222322   0.159   5.102   5.532
 7453TIP3    H122323   0.135   5.185   5.491
 7453TIP3    H222324   0.125   5.036   5.471
 7454TIP3   OH222325   5.009   5.122   5.288
 7454TIP3    H122326   4.984   5.173   5.365
 7454TIP3    H222327   5.104   5.133   5.283
 7455TIP3   OH222328   4.554   3.456   5.870
 7455TIP3    H122329   4.528   3.481   5.781
 7455TIP3    H222330   4.610   3.528   5.900
 7456TIP3   OH222331   1.840   5.513   2.675
 7456TIP3    H122332   1.911   5.573   2.652
 7456TIP3    H222333   1.773   5.528   2.609
 7457TIP3   OH222334   2.295   2.668   5.620
 7457TIP3    H122335   2.206   2.639   5.639
 7457TIP3    H222336   2.350   2.612   5.674
 7458TIP3   OH222337   6.707   3.188   2.002
 7458TIP3    H122338   6.721   3.196   1.908
 7458TIP3    H222339   6.615   3.214   2.015
 7459TIP3   OH222340   6.875   4.908   2.337
 7459TIP3    H122341   6.955   4.858   2.321
 7459TIP3    H222342   6.820   4.850   2.391
 7460TIP3   OH222343   0.680   4.940   0.923
 7460TIP3    H122344   0.754   4.974   0.872
 7460TIP3    H222345   0.718   4.868   0.974
 7461TIP3   OH222346   2.837   1.157   3.203
 7461TIP3    H122347   2.795   1.240   3.226
 7461TIP3    H222348   2.909   1.149   3.265
 7462TIP3   OH222349   7.004   5.628   5.386
 7462TIP3    H122350   7.010   5.654   5.478
 7462TIP3    H222351   7.089   5.590   5.366
 7463TIP3   OH222352   5.467   4.199   4.944
 7463TIP3    H122353   5.420   4.227   5.022
 7463TIP3    H222354   5.557   4.227   4.958
 7464TIP3   OH222355   6.163   3.412   2.827
 7464TIP3    H122356   6.166   3.507   2.840
 7464TIP3    H222357   6.200   3.376   2.908
 7465TIP3   OH222358   3.411   4.775   0.171
 7465TIP3    H122359   3.332   4.761   0.223
 7465TIP3    H222360   3.474   4.712   0.206
 7466TIP3   OH222361   5.234   4.896   4.114
 7466TIP3    H122362   5.249   4.879   4.207
 7466TIP3    H222363   5.281   4.977   4.097
 7467TIP3   OH222364   1.418   4.597   3.541
 7467TIP3    H122365   1.335   4.551   3.543
 7467TIP3    H222366   1.437   4.617   3.633
 7468TIP3   OH222367   1.456   4.960   4.108
 7468TIP3    H122368   1.422   4.916   4.030
 7468TIP3    H222369   1.432   5.052   4.096
 7469TIP3   OH222370   6.512   2.256   4.857
 7469TIP3    H122371   6.574   2.262   4.930
 7469TIP3    H222372   6.501   2.162   4.843
 7470TIP3   OH222373   6.264   4.158   3.455
 7470TIP3    H122374   6.247   4.173   3.363
 7470TIP3    H222375   6.343   4.208   3.474
 7471TIP3   OH222376   4.897   0.971   5.605
 7471TIP3    H122377   4.821   1.028   5.593
 7471TIP3    H222378   4.907   0.927   5.521
 7472TIP3   OH222379   6.373   3.833   4.782
 7472TIP3    H122380   6.361   3.778   4.860
 7472TIP3    H222381   6.448   3.794   4.737
 7473TIP3   OH222382   5.119   0.729   3.703
 7473TIP3    H122383   5.141   0.724   3.610
 7473TIP3    H222384   5.039   0.781   3.706
 7474TIP3   OH222385   3.279   2.439   4.329
 7474TIP3    H122386   3.330   2.360   4.349
 7474TIP3    H222387   3.231   2.457   4.410
 7475TIP3   OH222388   1.911   3.614   5.600
 7475TIP3    H122389   1.991   3.563   5.617
 7475TIP3    H222390   1.925   3.697   5.647
 7476TIP3   OH222391   5.757   3.608   3.132
 7476TIP3    H122392   5.729   3.651   3.212
 7476TIP3    H222393   5.733   3.668   3.062
 7477TIP3   OH222394   0.738   3.968   1.886
 7477TIP3    H122395   0.713   3.915   1.961
 7477TIP3    H222396   0.827   3.997   1.905
 7478TIP3   OH222397   5.328   4.252   4.714
 7478TIP3    H122398   5.378   4.239   4.795
 7478TIP3    H222399   5.394   4.270   4.647
 7479TIP3   OH222400   3.013   3.780   2.861
 7479TIP3    H122401   3.014   3.702   2.917
 7479TIP3    H222402   3.073   3.840   2.905
 7480TIP3   OH222403   0.407   2.785   2.734
 7480TIP3    H122404   0.379   2.871   2.766
 7480TIP3    H222405   0.379   2.724   2.802
 7481TIP3   OH222406   4.441   4.419   2.850
 7481TIP3    H122407   4.422   4.418   2.944
 7481TIP3    H222408   4.368   4.465   2.811
 7482TIP3   OH222409   5.484   6.451   4.701
 7482TIP3    H122410   5.572   6.464   4.734
 7482TIP3    H222411   5.471   6.356   4.702
 7483TIP3   OH222412   6.226   2.407   1.916
 7483TIP3    H122413   6.176   2.487   1.900
 7483TIP3    H222414   6.318   2.433   1.906
 7484TIP3   OH222415   4.467   0.639   3.196
 7484TIP3    H122416   4.396   0.582   3.227
 7484TIP3    H222417   4.463   0.715   3.255
 7485TIP3   OH222418   7.159   5.393   4.055
 7485TIP3    H122419   7.099   5.338   4.106
 7485TIP3    H222420   7.236   5.403   4.111
 7486TIP3   OH222421   0.558   2.067   0.155
 7486TIP3    H122422   0.625   2.091   0.090
 7486TIP3    H222423   0.475   2.080   0.110
 7487TIP3   OH222424   5.571   1.925   1.343
 7487TIP3    H122425   5.660   1.942   1.313
 7487TIP3    H222426   5.515   1.970   1.279
 7488TIP3   OH222427   0.798   6.586   1.034
 7488TIP3    H122428   0.786   6.620   1.123
 7488TIP3    H222429   0.853   6.509   1.044
 7489TIP3   OH222430   3.283   0.377   1.328
 7489TIP3    H122431   3.268   0.345   1.417
 7489TIP3    H222432   3.353   0.442   1.337
 7490TIP3   OH222433   4.998   5.626   0.026
 7490TIP3    H122434   5.068   5.608  -0.037
 7490TIP3    H222435   5.015   5.716   0.054
 7491TIP3   OH222436   3.967   1.022   1.070
 7491TIP3    H122437   3.969   1.107   1.027
 7491TIP3    H222438   3.953   1.041   1.162
 7492TIP3   OH222439   6.853   5.591   1.379
 7492TIP3    H122440   6.913   5.620   1.447
 7492TIP3    H222441   6.766   5.599   1.418
 7493TIP3   OH222442   2.260   5.535   0.686
 7493TIP3    H122443   2.210   5.586   0.623
 7493TIP3    H222444   2.341   5.512   0.641
 7494TIP3   OH222445   4.919   1.292   3.833
 7494TIP3    H122446   4.911   1.226   3.764
 7494TIP3    H222447   4.861   1.363   3.806
 7495TIP3   OH222448   1.207   1.309   5.738
 7495TIP3    H122449   1.194   1.392   5.785
 7495TIP3    H222450   1.298   1.286   5.756
 7496TIP3   OH222451   5.382   5.383   1.830
 7496TIP3    H122452   5.465   5.336   1.821
 7496TIP3    H222453   5.340   5.344   1.906
 7497TIP3   OH222454   5.712   4.098   0.662
 7497TIP3    H122455   5.655   4.143   0.599
 7497TIP3    H222456   5.658   4.090   0.740
 7498TIP3   OH222457   1.077   2.830   1.952
 7498TIP3    H122458   1.015   2.818   1.881
 7498TIP3    H222459   1.149   2.769   1.933
 7499TIP3   OH222460   0.614   3.801   4.516
 7499TIP3    H122461   0.524   3.832   4.525
 7499TIP3    H222462   0.669   3.876   4.541
 7500TIP3   OH222463   3.492   4.150   3.222
 7500TIP3    H122464   3.398   4.160   3.204
 7500TIP3    H222465   3.530   4.123   3.139
 7501TIP3   OH222466   4.414   1.872   5.441
 7501TIP3    H122467   4.497   1.890   5.398
 7501TIP3    H222468   4.437   1.819   5.517
 7502TIP3   OH222469   5.480   1.731   3.151
 7502TIP3    H122470   5.571   1.725   3.120
 7502TIP3    H222471   5.437   1.655   3.113
 7503TIP3   OH222472   4.255   5.425   4.854
 7503TIP3    H122473   4.167   5.457   4.876
 7503TIP3    H222474   4.282   5.478   4.780
 7504TIP3   OH222475   6.786   2.153   3.747
 7504TIP3    H122476   6.691   2.146   3.761
 7504TIP3    H222477   6.794   2.192   3.660
 7505TIP3   OH222478   0.193   5.913   1.661
 7505TIP3    H122479   0.203   5.848   1.731
 7505TIP3    H222480   0.275   5.910   1.613
 7506TIP3   OH222481   1.154   0.936   3.288
 7506TIP3    H122482   1.123   0.900   3.205
 7506TIP3    H222483   1.094   1.009   3.306
 7507TIP3   OH222484   5.353   3.009   3.139
 7507TIP3    H122485   5.285   3.024   3.205
 7507TIP3    H222486   5.426   2.970   3.188
 7508TIP3   OH222487   5.151   0.716   5.421
 7508TIP3    H122488   5.086   0.768   5.374
 7508TIP3    H222489   5.198   0.669   5.352
 7509TIP3   OH222490   3.358   0.558   0.929
 7509TIP3    H122491   3.363   0.607   1.012
 7509TIP3    H222492   3.403   0.614   0.866
 7510TIP3   OH222493   6.893   4.408   5.064
 7510TIP3    H122494   6.898   4.375   5.153
 7510TIP3    H222495   6.888   4.329   5.009
 7511TIP3   OH222496   6.909   1.179   2.210
 7511TIP3    H122497   6.836   1.165   2.270
 7511TIP3    H222498   6.891   1.121   2.136
 7512TIP3   OH222499   4.642   3.248   3.028
 7512TIP3    H122500   4.646   3.154   3.010
 7512TIP3    H222501   4.732   3.272   3.047
 7513TIP3   OH222502   5.287   4.719   5.744
 7513TIP3    H122503   5.378   4.691   5.732
 7513TIP3    H222504   5.290   4.814   5.738
 7514TIP3   OH222505   6.615   5.659   4.074
 7514TIP3    H122506   6.587   5.746   4.105
 7514TIP3    H222507   6.710   5.663   4.076
 7515TIP3   OH222508   6.612   0.684   1.763
 7515TIP3    H122509   6.697   0.726   1.776
 7515TIP3    H222510   6.549   0.744   1.802
 7516TIP3   OH222511   2.464   4.402   3.522
 7516TIP3    H122512   2.413   4.364   3.594
 7516TIP3    H222513   2.553   4.407   3.556
 7517TIP3   OH222514   3.063   4.308   0.990
 7517TIP3    H122515   2.982   4.326   0.941
 7517TIP3    H222516   3.094   4.225   0.954
 7518TIP3   OH222517   2.919   2.211   5.476
 7518TIP3    H122518   3.014   2.220   5.467
 7518TIP3    H222519   2.888   2.196   5.387
 7519TIP3   OH222520   0.212   5.261   5.107
 7519TIP3    H122521   0.167   5.181   5.079
 7519TIP3    H222522   0.300   5.252   5.071
 7520TIP3   OH222523   7.150   0.546   3.498
 7520TIP3    H122524   7.066   0.590   3.511
 7520TIP3    H222525   7.203   0.610   3.450
 7521TIP3   OH222526   2.503   5.254   2.990
 7521TIP3    H122527   2.512   5.335   3.040
 7521TIP3    H222528   2.593   5.228   2.970
 7522TIP3   OH222529   2.489   3.872   0.419
 7522TIP3    H122530   2.566   3.821   0.444
 7522TIP3    H222531   2.443   3.816   0.356
 7523TIP3   OH222532   0.400   1.052   5.619
 7523TIP3    H122533   0.429   1.044   5.710
 7523TIP3    H222534   0.356   1.137   5.615
 7524TIP3   OH222535   4.658   0.518   5.830
 7524TIP3    H122536   4.574   0.548   5.866
 7524TIP3    H222537   4.678   0.581   5.760
 7525TIP3   OH222538   0.396   4.417   1.276
 7525TIP3    H122539   0.401   4.491   1.337
 7525TIP3    H222540   0.326   4.442   1.215
 7526TIP3   OH222541   0.254   5.926   5.260
 7526TIP3    H122542   0.208   5.928   5.345
 7526TIP3    H222543   0.211   5.854   5.213
 7527TIP3   OH222544   4.527   1.873   1.367
 7527TIP3    H122545   4.529   1.953   1.314
 7527TIP3    H222546   4.548   1.803   1.305
 7528TIP3   OH222547   6.952   4.530   1.359
 7528TIP3    H122548   6.929   4.607   1.411
 7528TIP3    H222549   7.041   4.547   1.329
 7529TIP3   OH222550   0.870   0.401   0.633
 7529TIP3    H122551   0.882   0.472   0.570
 7529TIP3    H222552   0.886   0.442   0.718
 7530TIP3   OH222553   1.530   3.513   2.136
 7530TIP3    H122554   1.577   3.457   2.198
 7530TIP3    H222555   1.441   3.479   2.136
 7531TIP3   OH222556   1.558   2.445   0.013
 7531TIP3    H122557   1.510   2.521   0.045
 7531TIP3    H222558   1.575   2.392   0.091
 7532TIP3   OH222559   2.095   4.678   2.563
 7532TIP3    H122560   2.191   4.679   2.562
 7532TIP3    H222561   2.070   4.689   2.471
 7533TIP3   OH222562   4.291   4.809   4.268
 7533TIP3    H122563   4.293   4.769   4.181
 7533TIP3    H222564   4.224   4.877   4.261
 7534TIP3   OH222565   6.897   2.835   1.907
 7534TIP3    H122566   6.827   2.797   1.854
 7534TIP3    H222567   6.860   2.916   1.942
 7535TIP3   OH222568   3.143   5.678   3.436
 7535TIP3    H122569   3.179   5.612   3.378
 7535TIP3    H222570   3.089   5.733   3.380
 7536TIP3   OH222571   6.510   5.290   0.501
 7536TIP3    H122572   6.478   5.244   0.424
 7536TIP3    H222573   6.604   5.303   0.484
 7537TIP3   OH222574   5.449   0.530   4.620
 7537TIP3    H122575   5.543   0.535   4.607
 7537TIP3    H222576   5.416   0.615   4.589
 7538TIP3   OH222577   0.824   2.514   4.004
 7538TIP3    H122578   0.818   2.462   4.084
 7538TIP3    H222579   0.787   2.458   3.936
 7539TIP3   OH222580   1.337   1.469   0.729
 7539TIP3    H122581   1.355   1.376   0.715
 7539TIP3    H222582   1.342   1.508   0.642
 7540TIP3   OH222583   4.862   1.947   0.652
 7540TIP3    H122584   4.837   1.875   0.594
 7540TIP3    H222585   4.936   1.912   0.703
 7541TIP3   OH222586   5.813   6.292   0.113
 7541TIP3    H122587   5.821   6.209   0.067
 7541TIP3    H222588   5.850   6.357   0.053
 7542TIP3   OH222589   2.399   0.248   3.135
 7542TIP3    H122590   2.434   0.174   3.085
 7542TIP3    H222591   2.409   0.221   3.227
 7543TIP3   OH222592   4.852   4.615   3.381
 7543TIP3    H122593   4.842   4.546   3.446
 7543TIP3    H222594   4.943   4.607   3.351
 7544TIP3   OH222595   0.397   3.956   5.600
 7544TIP3    H122596   0.347   4.001   5.532
 7544TIP3    H222597   0.483   3.941   5.561
 7545TIP3   OH222598   2.912   1.581   4.128
 7545TIP3    H122599   2.950   1.623   4.205
 7545TIP3    H222600   2.883   1.654   4.073
 7546TIP3   OH222601   1.346   0.690   4.301
 7546TIP3    H122602   1.363   0.711   4.392
 7546TIP3    H222603   1.405   0.617   4.281
 7547TIP3   OH222604   6.134   5.546   2.555
 7547TIP3    H122605   6.171   5.465   2.590
 7547TIP3    H222606   6.040   5.537   2.567
 7548TIP3   OH222607   6.595   3.310   1.100
 7548TIP3    H122608   6.550   3.393   1.090
 7548TIP3    H222609   6.681   3.333   1.136
 7549TIP3   OH222610   7.190   3.817   5.415
 7549TIP3    H122611   7.244   3.834   5.338
 7549TIP3    H222612   7.102   3.802   5.380
 7550TIP3   OH222613   4.688   0.923   5.851
 7550TIP3    H122614   4.614   0.968   5.809
 7550TIP3    H222615   4.650   0.885   5.930
 7551TIP3   OH222616   5.211   2.282   0.357
 7551TIP3    H122617   5.178   2.245   0.439
 7551TIP3    H222618   5.240   2.370   0.381
 7552TIP3   OH222619   3.583   1.281   5.616
 7552TIP3    H122620   3.638   1.244   5.547
 7552TIP3    H222621   3.613   1.239   5.697
 7553TIP3   OH222622   6.711   1.399   2.579
 7553TIP3    H122623   6.804   1.421   2.570
 7553TIP3    H222624   6.686   1.435   2.664
 7554TIP3   OH222625   6.214   3.109   5.486
 7554TIP3    H122626   6.273   3.176   5.520
 7554TIP3    H222627   6.130   3.127   5.529
 7555TIP3   OH222628   6.793   0.817   5.803
 7555TIP3    H122629   6.880   0.855   5.807
 7555TIP3    H222630   6.748   0.851   5.880
 7556TIP3   OH222631   6.942   1.334   2.743
 7556TIP3    H122632   6.893   1.258   2.710
 7556TIP3    H222633   6.884   1.372   2.809
 7557TIP3   OH222634   3.023   1.870   4.516
 7557TIP3    H122635   3.116   1.864   4.536
 7557TIP3    H222636   2.982   1.804   4.572
 7558TIP3   OH222637   4.904   5.584   3.226
 7558TIP3    H122638   4.968   5.591   3.156
 7558TIP3    H222639   4.845   5.658   3.212
 7559TIP3   OH222640   1.901   0.330   4.960
 7559TIP3    H122641   1.813   0.365   4.951
 7559TIP3    H222642   1.958   0.406   4.949
 7560TIP3   OH222643   2.722   3.285   5.596
 7560TIP3    H122644   2.675   3.336   5.530
 7560TIP3    H222645   2.738   3.347   5.667
 7561TIP3   OH222646   3.082   2.341   2.849
 7561TIP3    H122647   3.140   2.374   2.780
 7561TIP3    H222648   2.994   2.357   2.816
 7562TIP3   OH222649   4.704   5.729   4.255
 7562TIP3    H122650   4.729   5.637   4.254
 7562TIP3    H222651   4.726   5.761   4.167
 7563TIP3   OH222652   2.586   4.423   4.694
 7563TIP3    H122653   2.614   4.356   4.632
 7563TIP3    H222654   2.580   4.377   4.778
 7564TIP3   OH222655   1.838   4.818   2.697
 7564TIP3    H122656   1.920   4.824   2.745
 7564TIP3    H222657   1.770   4.830   2.764
 7565TIP3   OH222658   6.009   4.174   0.710
 7565TIP3    H122659   6.063   4.187   0.633
 7565TIP3    H222660   5.919   4.192   0.680
 7566TIP3   OH222661   1.705   2.000   4.029
 7566TIP3    H122662   1.698   2.019   4.123
 7566TIP3    H222663   1.723   2.085   3.989
 7567TIP3   OH222664   0.339   3.972   4.234
 7567TIP3    H122665   0.367   3.952   4.324
 7567TIP3    H222666   0.259   4.024   4.245
 7568TIP3   OH222667   7.169   2.270   4.719
 7568TIP3    H122668   7.115   2.223   4.781
 7568TIP3    H222669   7.172   2.360   4.753
 7569TIP3   OH222670   4.886   4.898   2.204
 7569TIP3    H122671   4.822   4.872   2.270
 7569TIP3    H222672   4.925   4.978   2.239
 7570TIP3   OH222673   1.392   2.363   1.237
 7570TIP3    H122674   1.406   2.303   1.164
 7570TIP3    H222675   1.464   2.426   1.230
 7571TIP3   OH222676   2.498   4.778   5.441
 7571TIP3    H122677   2.456   4.817   5.518
 7571TIP3    H222678   2.511   4.687   5.464
 7572TIP3   OH222679   5.765   5.985   1.536
 7572TIP3    H122680   5.790   6.067   1.578
 7572TIP3    H222681   5.698   6.010   1.472
 7573TIP3   OH222682   0.927   4.506   2.342
 7573TIP3    H122683   0.961   4.432   2.392
 7573TIP3    H222684   0.994   4.574   2.351
 7574TIP3   OH222685   6.945   3.178   4.706
 7574TIP3    H122686   6.926   3.118   4.778
 7574TIP3    H222687   6.861   3.222   4.689
 7575TIP3   OH222688   2.210   5.888   3.963
 7575TIP3    H122689   2.146   5.908   4.031
 7575TIP3    H222690   2.257   5.811   3.996
 7576TIP3   OH222691   2.114   1.638   5.231
 7576TIP3    H122692   2.141   1.709   5.173
 7576TIP3    H222693   2.116   1.560   5.175
 7577TIP3   OH222694   7.162   0.591   4.989
 7577TIP3    H122695   7.226   0.602   4.918
 7577TIP3    H222696   7.080   0.622   4.952
 7578TIP3   OH222697   3.275   5.753   0.149
 7578TIP3    H122698   3.233   5.667   0.156
 7578TIP3    H222699   3.206   5.811   0.116
 7579TIP3   OH222700   0.114   5.631   1.514
 7579TIP3    H122701   0.195   5.597   1.552
 7579TIP3    H222702   0.064   5.553   1.490
 7580TIP3   OH222703   0.670   3.014   3.396
 7580TIP3    H122704   0.644   3.100   3.430
 7580TIP3    H222705   0.736   2.983   3.458
 7581TIP3   OH222706   2.817   1.960   4.896
 7581TIP3    H122707   2.816   2.050   4.863
 7581TIP3    H222708   2.773   1.909   4.828
 7582TIP3   OH222709   4.646   0.222   4.296
 7582TIP3    H122710   4.659   0.128   4.282
 7582TIP3    H222711   4.566   0.228   4.347
 7583TIP3   OH222712   5.514   3.442   4.846
 7583TIP3    H122713   5.489   3.526   4.885
 7583TIP3    H222714   5.576   3.466   4.776
 7584TIP3   OH222715   4.770   5.264   0.340
 7584TIP3    H122716   4.729   5.208   0.274
 7584TIP3    H222717   4.760   5.216   0.422
 7585TIP3   OH222718   7.195   6.058   4.058
 7585TIP3    H122719   7.270   6.067   3.999
 7585TIP3    H222720   7.119   6.054   4.000
 7586TIP3   OH222721   6.614   0.315   1.033
 7586TIP3    H122722   6.642   0.246   0.972
 7586TIP3    H222723   6.560   0.270   1.097
 7587TIP3   OH222724   5.264   6.165   4.605
 7587TIP3    H122725   5.262   6.076   4.569
 7587TIP3    H222726   5.280   6.221   4.529
 7588TIP3   OH222727   5.047   0.845   1.261
 7588TIP3    H122728   4.967   0.874   1.218
 7588TIP3    H222729   5.082   0.924   1.302
 7589TIP3   OH222730   1.933   6.189   0.474
 7589TIP3    H122731   2.023   6.159   0.485
 7589TIP3    H222732   1.884   6.111   0.450
 7590TIP3   OH222733   3.742   0.597   0.565
 7590TIP3    H122734   3.706   0.678   0.529
 7590TIP3    H222735   3.712   0.528   0.505
 7591TIP3   OH222736   2.363   1.794   3.345
 7591TIP3    H122737   2.340   1.827   3.432
 7591TIP3    H222738   2.304   1.719   3.332
 7592TIP3   OH222739   1.024   2.038   0.197
 7592TIP3    H122740   1.013   2.130   0.222
 7592TIP3    H222741   0.975   1.989   0.264
 7593TIP3   OH222742   1.534   0.281   2.962
 7593TIP3    H122743   1.501   0.351   2.906
 7593TIP3    H222744   1.622   0.310   2.987
 7594TIP3   OH222745   0.541   6.708   0.232
 7594TIP3    H122746   0.503   6.783   0.188
 7594TIP3    H222747   0.476   6.639   0.223
 7595TIP3   OH222748   5.687   4.502   1.429
 7595TIP3    H122749   5.694   4.595   1.405
 7595TIP3    H222750   5.749   4.492   1.501
 7596TIP3   OH222751   1.029   6.208   4.892
 7596TIP3    H122752   1.072   6.273   4.836
 7596TIP3    H222753   0.936   6.221   4.877
 7597TIP3   OH222754   4.728   4.718   1.494
 7597TIP3    H122755   4.746   4.657   1.423
 7597TIP3    H222756   4.806   4.713   1.550
 7598TIP3   OH222757   7.187   1.363   5.639
 7598TIP3    H122758   7.191   1.318   5.723
 7598TIP3    H222759   7.140   1.444   5.657
 7599TIP3   OH222760   6.928   2.666   1.178
 7599TIP3    H122761   7.001   2.615   1.141
 7599TIP3    H222762   6.893   2.715   1.104
 7600TIP3   OH222763   4.338   1.230   4.400
 7600TIP3    H122764   4.306   1.313   4.365
 7600TIP3    H222765   4.351   1.247   4.494
 7601TIP3   OH222766   4.531   4.697   2.174
 7601TIP3    H122767   4.453   4.716   2.226
 7601TIP3    H222768   4.563   4.783   2.148
 7602TIP3   OH222769   5.960   2.871   3.730
 7602TIP3    H122770   5.867   2.893   3.736
 7602TIP3    H222771   5.996   2.891   3.816
 7603TIP3   OH222772   0.173   6.121   0.969
 7603TIP3    H122773   0.194   6.028   0.971
 7603TIP3    H222774   0.175   6.148   1.061
 7604TIP3   OH222775   4.095   5.989   2.005
 7604TIP3    H122776   4.109   6.059   1.941
 7604TIP3    H222777   4.079   5.911   1.953
 7605TIP3   OH222778   4.422   3.344   3.180
 7605TIP3    H122779   4.487   3.306   3.121
 7605TIP3    H222780   4.367   3.269   3.206
 7606TIP3   OH222781   0.635   4.043   0.921
 7606TIP3    H122782   0.643   3.954   0.889
 7606TIP3    H222783   0.545   4.068   0.901
 7607TIP3   OH222784   6.243   4.935   3.620
 7607TIP3    H122785   6.211   4.849   3.592
 7607TIP3    H222786   6.330   4.917   3.656
 7608TIP3   OH222787   5.526   3.310   4.361
 7608TIP3    H122788   5.516   3.219   4.388
 7608TIP3    H222789   5.451   3.327   4.304
 7609TIP3   OH222790   2.476   0.848   3.995
 7609TIP3    H122791   2.440   0.894   4.071
 7609TIP3    H222792   2.492   0.759   4.027
 7610TIP3   OH222793   4.827   2.749   2.541
 7610TIP3    H122794   4.922   2.742   2.530
 7610TIP3    H222795   4.808   2.842   2.528
 7611TIP3   OH222796   1.110   0.129   3.529
 7611TIP3    H122797   1.168   0.134   3.453
 7611TIP3    H222798   1.062   0.211   3.529
 7612TIP3   OH222799   3.671   5.072   2.044
 7612TIP3    H122800   3.642   5.081   1.953
 7612TIP3    H222801   3.590   5.055   2.093
 7613TIP3   OH222802   3.659   1.327   1.057
 7613TIP3    H122803   3.707   1.394   1.008
 7613TIP3    H222804   3.715   1.309   1.134
 7614TIP3   OH222805   0.327   1.404   5.740
 7614TIP3    H122806   0.243   1.418   5.784
 7614TIP3    H222807   0.309   1.333   5.678
 7615TIP3   OH222808   7.228   1.622   3.962
 7615TIP3    H122809   7.190   1.557   3.902
 7615TIP3    H222810   7.197   1.706   3.928
 7616TIP3   OH222811   0.863   4.910   1.702
 7616TIP3    H122812   0.827   4.997   1.718
 7616TIP3    H222813   0.820   4.854   1.766
 7617TIP3   OH222814   5.244   5.026   4.453
 7617TIP3    H122815   5.226   4.933   4.439
 7617TIP3    H222816   5.217   5.042   4.543
 7618TIP3   OH222817   0.879   6.243   4.007
 7618TIP3    H122818   0.837   6.280   4.084
 7618TIP3    H222819   0.835   6.284   3.932
 7619TIP3   OH222820   6.112   0.059   0.250
 7619TIP3    H122821   6.205   0.081   0.251
 7619TIP3    H222822   6.069   0.131   0.297
 7620TIP3   OH222823   3.366   4.000   5.631
 7620TIP3    H122824   3.421   3.934   5.589
 7620TIP3    H222825   3.426   4.050   5.686
 7621TIP3   OH222826   5.725   3.836   0.300
 7621TIP3    H122827   5.751   3.748   0.273
 7621TIP3    H222828   5.768   3.850   0.384
 7622TIP3   OH222829   4.493   4.067   2.293
 7622TIP3    H122830   4.554   4.133   2.326
 7622TIP3    H222831   4.495   3.997   2.359
 7623TIP3   OH222832   1.630   2.672   3.984
 7623TIP3    H122833   1.695   2.607   3.956
 7623TIP3    H222834   1.681   2.753   3.993
 7624TIP3   OH222835   2.844   3.562   2.122
 7624TIP3    H122836   2.806   3.480   2.089
 7624TIP3    H222837   2.928   3.568   2.077
 7625TIP3   OH222838   4.979   6.217   0.221
 7625TIP3    H122839   5.009   6.306   0.201
 7625TIP3    H222840   4.940   6.186   0.139
 7626TIP3   OH222841   6.773   5.429   3.469
 7626TIP3    H122842   6.817   5.438   3.554
 7626TIP3    H222843   6.832   5.375   3.417
 7627TIP3   OH222844   6.197   0.687   5.060
 7627TIP3    H122845   6.206   0.593   5.044
 7627TIP3    H222846   6.178   0.693   5.154
 7628TIP3   OH222847   3.605   0.899   2.173
 7628TIP3    H122848   3.663   0.863   2.106
 7628TIP3    H222849   3.619   0.994   2.168
 7629TIP3   OH222850   3.218   5.247   5.831
 7629TIP3    H122851   3.284   5.232   5.764
 7629TIP3    H222852   3.223   5.341   5.849
 7630TIP3   OH222853   3.292   3.163   4.412
 7630TIP3    H122854   3.335   3.236   4.368
 7630TIP3    H222855   3.199   3.184   4.406
 7631TIP3   OH222856   5.759   0.556   2.771
 7631TIP3    H122857   5.698   0.494   2.733
 7631TIP3    H222858   5.721   0.579   2.855
 7632TIP3   OH222859   4.223   2.036   1.474
 7632TIP3    H122860   4.144   2.048   1.526
 7632TIP3    H222861   4.294   2.035   1.538
 7633TIP3   OH222862   5.233   4.954   2.022
 7633TIP3    H122863   5.322   4.929   1.995
 7633TIP3    H222864   5.185   4.963   1.940
 7634TIP3   OH222865   3.076   5.252   0.578
 7634TIP3    H122866   3.170   5.261   0.567
 7634TIP3    H222867   3.061   5.270   0.671
 7635TIP3   OH222868   1.003   2.219   5.386
 7635TIP3    H122869   0.958   2.136   5.404
 7635TIP3    H222870   0.994   2.269   5.468
 7636TIP3   OH222871   0.598   4.628   5.703
 7636TIP3    H122872   0.531   4.598   5.764
 7636TIP3    H222873   0.591   4.723   5.706
 7637TIP3   OH222874   5.313   0.338   1.562
 7637TIP3    H122875   5.407   0.356   1.566
 7637TIP3    H222876   5.306   0.259   1.508
 7638TIP3   OH222877   3.198   6.334   4.610
 7638TIP3    H122878   3.149   6.269   4.661
 7638TIP3    H222879   3.290   6.314   4.628
 7639TIP3   OH222880   3.527   2.758   2.407
 7639TIP3    H122881   3.435   2.768   2.380
 7639TIP3    H222882   3.523   2.741   2.501
 7640TIP3   OH222883   4.726   1.206   3.438
 7640TIP3    H122884   4.757   1.265   3.370
 7640TIP3    H222885   4.632   1.225   3.445
 7641TIP3   OH222886   1.836   3.685   2.299
 7641TIP3    H122887   1.743   3.669   2.284
 7641TIP3    H222888   1.851   3.652   2.388
 7642TIP3   OH222889   0.795   5.611   5.365
 7642TIP3    H122890   0.880   5.654   5.360
 7642TIP3    H222891   0.787   5.583   5.456
 7643TIP3   OH222892   6.732   4.756   1.157
 7643TIP3    H122893   6.790   4.832   1.158
 7643TIP3    H222894   6.791   4.681   1.149
 7644TIP3   OH222895   5.829   6.654   3.039
 7644TIP3    H122896   5.919   6.657   3.008
 7644TIP3    H222897   5.809   6.561   3.047
 7645TIP3   OH222898   1.959   5.329   3.822
 7645TIP3    H122899   2.053   5.315   3.815
 7645TIP3    H222900   1.949   5.392   3.893
 7646TIP3   OH222901   5.407   4.062   4.096
 7646TIP3    H122902   5.394   4.079   4.002
 7646TIP3    H222903   5.318   4.052   4.130
 7647TIP3   OH222904   0.590   4.605   4.003
 7647TIP3    H122905   0.498   4.627   3.989
 7647TIP3    H222906   0.593   4.509   3.995
 7648TIP3   OH222907   6.807   0.884   3.909
 7648TIP3    H122908   6.825   0.837   3.828
 7648TIP3    H222909   6.873   0.852   3.971
 7649TIP3   OH222910   5.729   6.487   3.840
 7649TIP3    H122911   5.695   6.514   3.754
 7649TIP3    H222912   5.656   6.501   3.900
 7650TIP3   OH222913   5.866   4.752   0.212
 7650TIP3    H122914   5.778   4.737   0.177
 7650TIP3    H222915   5.853   4.766   0.306
 7651TIP3   OH222916   6.193   4.664   5.099
 7651TIP3    H122917   6.105   4.687   5.127
 7651TIP3    H222918   6.243   4.745   5.108
 7652TIP3   OH222919   3.013   2.875   2.425
 7652TIP3    H122920   2.993   2.815   2.353
 7652TIP3    H222921   2.994   2.824   2.504
 7653TIP3   OH222922   4.992   2.619   4.490
 7653TIP3    H122923   4.975   2.689   4.428
 7653TIP3    H222924   4.907   2.575   4.501
 7654TIP3   OH222925   0.350   3.264   3.560
 7654TIP3    H122926   0.380   3.336   3.615
 7654TIP3    H222927   0.429   3.235   3.513
 7655TIP3   OH222928   6.034   0.789   2.233
 7655TIP3    H122929   5.941   0.809   2.237
 7655TIP3    H222930   6.048   0.720   2.297
 7656TIP3   OH222931   3.604   5.296   4.745
 7656TIP3    H122932   3.555   5.338   4.816
 7656TIP3    H222933   3.644   5.369   4.697
 7657TIP3   OH222934   1.466   6.562   0.579
 7657TIP3    H122935   1.411   6.628   0.538
 7657TIP3    H222936   1.486   6.598   0.665
 7658TIP3   OH222937   2.752   2.426   5.495
 7658TIP3    H122938   2.682   2.363   5.512
 7658TIP3    H222939   2.832   2.379   5.514
 7659TIP3   OH222940   5.070   3.041   2.990
 7659TIP3    H122941   5.124   3.058   2.913
 7659TIP3    H222942   4.994   3.099   2.979
 7660TIP3   OH222943   3.660   5.383   0.502
 7660TIP3    H122944   3.684   5.423   0.586
 7660TIP3    H222945   3.734   5.326   0.481
 7661TIP3   OH222946   0.126   1.198   2.808
 7661TIP3    H122947   0.086   1.283   2.826
 7661TIP3    H222948   0.097   1.142   2.880
 7662TIP3   OH222949   1.636   2.055   1.361
 7662TIP3    H122950   1.617   1.967   1.393
 7662TIP3    H222951   1.565   2.109   1.397
 7663TIP3   OH222952   1.871   6.555   3.915
 7663TIP3    H122953   1.828   6.597   3.989
 7663TIP3    H222954   1.831   6.468   3.909
 7664TIP3   OH222955   1.655   2.270   0.206
 7664TIP3    H122956   1.699   2.213   0.143
 7664TIP3    H222957   1.636   2.213   0.281
 7665TIP3   OH222958   5.499   1.439   0.610
 7665TIP3    H122959   5.420   1.486   0.581
 7665TIP3    H222960   5.483   1.422   0.703
 7666TIP3   OH222961   6.079   0.944   4.251
 7666TIP3    H122962   6.012   0.885   4.217
 7666TIP3    H222963   6.159   0.918   4.205
 7667TIP3   OH222964   3.108   1.883   2.251
 7667TIP3    H122965   3.117   1.914   2.161
 7667TIP3    H222966   3.191   1.908   2.293
 7668TIP3   OH222967   5.070   3.186   1.201
 7668TIP3    H122968   5.065   3.139   1.284
 7668TIP3    H222969   5.101   3.120   1.139
 7669TIP3   OH222970   0.637   6.601   0.802
 7669TIP3    H122971   0.665   6.534   0.739
 7669TIP3    H222972   0.699   6.592   0.875
 7670TIP3   OH222973   5.872   6.706   0.505
 7670TIP3    H122974   5.793   6.654   0.490
 7670TIP3    H222975   5.910   6.671   0.585
 7671TIP3   OH222976   6.798   0.537   0.546
 7671TIP3    H122977   6.802   0.584   0.462
 7671TIP3    H222978   6.747   0.594   0.603
 7672TIP3   OH222979   0.550   4.220   0.618
 7672TIP3    H122980   0.590   4.226   0.531
 7672TIP3    H222981   0.561   4.129   0.644
 7673TIP3   OH222982   2.649   3.271   0.620
 7673TIP3    H122983   2.707   3.242   0.549
 7673TIP3    H222984   2.709   3.306   0.686
 7674TIP3   OH222985   3.760   0.076   3.368
 7674TIP3    H122986   3.751   0.046   3.277
 7674TIP3    H222987   3.677   0.120   3.386
 7675TIP3   OH222988   6.462   2.582   3.940
 7675TIP3    H122989   6.529   2.515   3.953
 7675TIP3    H222990   6.476   2.613   3.851
 7676TIP3   OH222991   6.863   5.494   2.735
 7676TIP3    H122992   6.924   5.472   2.665
 7676TIP3    H222993   6.858   5.589   2.734
 7677TIP3   OH222994   4.642   1.595   5.367
 7677TIP3    H122995   4.556   1.599   5.411
 7677TIP3    H222996   4.621   1.578   5.276
 7678TIP3   OH222997   4.233   3.601   2.436
 7678TIP3    H122998   4.153   3.614   2.385
 7678TIP3    H222999   4.257   3.510   2.421
 7679TIP3   OH223000   6.700   2.270   1.002
 7679TIP3    H123001   6.745   2.346   0.965
 7679TIP3    H223002   6.710   2.202   0.936
 7680TIP3   OH223003   7.168   0.255   2.711
 7680TIP3    H123004   7.108   0.264   2.784
 7680TIP3    H223005   7.137   0.318   2.646
 7681TIP3   OH223006   1.871   2.258   3.219
 7681TIP3    H123007   1.885   2.294   3.307
 7681TIP3    H223008   1.895   2.165   3.227
 7682TIP3   OH223009   2.159   6.354   5.354
 7682TIP3    H123010   2.206   6.433   5.379
 7682TIP3    H223011   2.161   6.353   5.258
 7683TIP3   OH223012   7.126   0.923   0.351
 7683TIP3    H123013   7.197   0.859   0.340
 7683TIP3    H223014   7.161   0.989   0.411
 7684TIP3   OH223015   1.566   1.180   2.657
 7684TIP3    H123016   1.579   1.222   2.742
 7684TIP3    H223017   1.651   1.184   2.614
 7685TIP3   OH223018   5.734   4.681   2.724
 7685TIP3    H123019   5.659   4.696   2.667
 7685TIP3    H223020   5.768   4.596   2.697
 7686TIP3   OH223021   1.533   2.466   0.452
 7686TIP3    H123022   1.527   2.407   0.377
 7686TIP3    H223023   1.530   2.554   0.414
 7687TIP3   OH223024   5.336   4.440   0.685
 7687TIP3    H123025   5.267   4.444   0.619
 7687TIP3    H223026   5.416   4.464   0.637
 7688TIP3   OH223027   5.462   0.376   5.178
 7688TIP3    H123028   5.458   0.413   5.090
 7688TIP3    H223029   5.500   0.289   5.166
 7689TIP3   OH223030   0.844   3.103   0.703
 7689TIP3    H123031   0.870   3.166   0.770
 7689TIP3    H223032   0.863   3.148   0.620
 7690TIP3   OH223033   5.224   0.105   1.446
 7690TIP3    H123034   5.242   0.148   1.363
 7690TIP3    H223035   5.310   0.093   1.487
 7691TIP3   OH223036   3.095   1.882   4.993
 7691TIP3    H123037   3.148   1.872   4.914
 7691TIP3    H223038   3.005   1.883   4.962
 7692TIP3   OH223039   4.482   6.391   3.096
 7692TIP3    H123040   4.558   6.357   3.048
 7692TIP3    H223041   4.453   6.466   3.044
 7693TIP3   OH223042   1.569   2.578   1.707
 7693TIP3    H123043   1.505   2.608   1.643
 7693TIP3    H223044   1.628   2.653   1.719
 7694TIP3   OH223045   6.034   4.086   2.276
 7694TIP3    H123046   6.114   4.107   2.323
 7694TIP3    H223047   5.989   4.023   2.332
 7695TIP3   OH223048   2.001   0.622   2.468
 7695TIP3    H123049   1.962   0.536   2.484
 7695TIP3    H223050   2.052   0.640   2.547
 7696TIP3   OH223051   7.095   1.355   0.732
 7696TIP3    H123052   7.176   1.346   0.681
 7696TIP3    H223053   7.122   1.338   0.822
 7697TIP3   OH223054   6.153   3.102   2.163
 7697TIP3    H123055   6.075   3.053   2.187
 7697TIP3    H223056   6.130   3.142   2.079
 7698TIP3   OH223057   2.093   0.936   5.277
 7698TIP3    H123058   2.144   1.011   5.306
 7698TIP3    H223059   2.002   0.959   5.296
 7699TIP3   OH223060   4.395   3.812   3.735
 7699TIP3    H123061   4.372   3.791   3.825
 7699TIP3    H223062   4.416   3.905   3.736
 7700TIP3   OH223063   6.760   5.877   3.652
 7700TIP3    H123064   6.856   5.881   3.648
 7700TIP3    H223065   6.731   5.967   3.638
 7701TIP3   OH223066   4.456   2.854   4.011
 7701TIP3    H123067   4.409   2.839   4.093
 7701TIP3    H223068   4.457   2.768   3.968
 7702TIP3   OH223069   2.639   2.234   0.795
 7702TIP3    H123070   2.667   2.298   0.860
 7702TIP3    H223071   2.546   2.252   0.781
 7703TIP3   OH223072   4.574   4.167   2.049
 7703TIP3    H123073   4.576   4.258   2.079
 7703TIP3    H223074   4.523   4.121   2.116
 7704TIP3   OH223075   7.044   5.754   3.181
 7704TIP3    H123076   6.966   5.727   3.229
 7704TIP3    H223077   7.053   5.690   3.111
 7705TIP3   OH223078   6.855   6.481   1.276
 7705TIP3    H123079   6.765   6.493   1.306
 7705TIP3    H223080   6.864   6.541   1.203
 7706TIP3   OH223081   5.313   4.893   0.231
 7706TIP3    H123082   5.396   4.850   0.255
 7706TIP3    H223083   5.296   4.862   0.142
 7707TIP3   OH223084   6.660   4.183   2.946
 7707TIP3    H123085   6.627   4.127   3.016
 7707TIP3    H223086   6.743   4.217   2.979
 7708TIP3   OH223087   4.652   1.926   3.470
 7708TIP3    H123088   4.694   1.920   3.384
 7708TIP3    H223089   4.647   1.835   3.500
 7709TIP3   OH223090   1.223   5.928   4.318
 7709TIP3    H123091   1.190   6.018   4.309
 7709TIP3    H223092   1.147   5.878   4.348
 7710TIP3   OH223093   4.726   5.795   3.019
 7710TIP3    H123094   4.644   5.764   3.058
 7710TIP3    H223095   4.738   5.883   3.055
 7711TIP3   OH223096   7.021   3.797   2.116
 7711TIP3    H123097   6.955   3.752   2.064
 7711TIP3    H223098   6.972   3.840   2.186
 7712TIP3   OH223099   2.515   6.252   2.632
 7712TIP3    H123100   2.486   6.293   2.550
 7712TIP3    H223101   2.514   6.323   2.696
 7713TIP3   OH223102   6.467   4.835   3.769
 7713TIP3    H123103   6.433   4.746   3.761
 7713TIP3    H223104   6.537   4.839   3.704
 7714TIP3   OH223105   4.937   0.918   4.771
 7714TIP3    H123106   4.912   0.843   4.717
 7714TIP3    H223107   5.033   0.917   4.769
 7715TIP3   OH223108   6.370   1.163   4.634
 7715TIP3    H123109   6.465   1.160   4.651
 7715TIP3    H223110   6.355   1.251   4.601
 7716TIP3   OH223111   2.865   3.005   1.803
 7716TIP3    H123112   2.781   3.009   1.849
 7716TIP3    H223113   2.930   3.012   1.873
 7717TIP3   OH223114   6.525   4.341   2.392
 7717TIP3    H123115   6.498   4.265   2.340
 7717TIP3    H223116   6.538   4.307   2.480
 7718TIP3   OH223117   3.833   1.066   2.341
 7718TIP3    H123118   3.874   1.101   2.262
 7718TIP3    H223119   3.758   1.124   2.357
 7719TIP3   OH223120   1.855   3.210   1.583
 7719TIP3    H123121   1.871   3.116   1.586
 7719TIP3    H223122   1.824   3.227   1.495
 7720TIP3   OH223123   2.923   1.304   5.056
 7720TIP3    H123124   2.933   1.307   4.961
 7720TIP3    H223125   3.013   1.305   5.089
 7721TIP3   OH223126   3.166   3.482   4.689
 7721TIP3    H123127   3.121   3.557   4.728
 7721TIP3    H223128   3.111   3.407   4.712
 7722TIP3   OH223129   4.390   2.728   2.438
 7722TIP3    H123130   4.414   2.648   2.390
 7722TIP3    H223131   4.308   2.756   2.397
 7723TIP3   OH223132   6.711   2.130   0.450
 7723TIP3    H123133   6.648   2.158   0.516
 7723TIP3    H223134   6.658   2.116   0.371
 7724TIP3   OH223135   2.284   4.247   4.746
 7724TIP3    H123136   2.210   4.221   4.692
 7724TIP3    H223137   2.248   4.308   4.810
 7725TIP3   OH223138   4.127  -0.003   4.350
 7725TIP3    H123139   4.066   0.063   4.318
 7725TIP3    H223140   4.113  -0.004   4.445
 7726TIP3   OH223141   4.408   3.484   0.156
 7726TIP3    H123142   4.443   3.459   0.242
 7726TIP3    H223143   4.313   3.487   0.168
 7727TIP3   OH223144   4.347   0.874   4.242
 7727TIP3    H123145   4.309   0.849   4.326
 7727TIP3    H223146   4.278   0.857   4.178
 7728TIP3   OH223147   1.426   6.119   1.165
 7728TIP3    H123148   1.389   6.127   1.253
 7728TIP3    H223149   1.462   6.031   1.161
 7729TIP3   OH223150   3.338   5.313   3.435
 7729TIP3    H123151   3.341   5.279   3.524
 7729TIP3    H223152   3.418   5.365   3.426
 7730TIP3   OH223153   1.140   2.226   2.240
 7730TIP3    H123154   1.189   2.289   2.293
 7730TIP3    H223155   1.196   2.211   2.164
 7731TIP3   OH223156   4.225   4.755   1.651
 7731TIP3    H123157   4.291   4.792   1.709
 7731TIP3    H223158   4.146   4.750   1.705
 7732TIP3   OH223159   2.772   6.225   1.529
 7732TIP3    H123160   2.773   6.230   1.434
 7732TIP3    H223161   2.767   6.316   1.558
 7733TIP3   OH223162   2.988   5.288   0.831
 7733TIP3    H123163   3.007   5.367   0.882
 7733TIP3    H223164   2.933   5.235   0.889
 7734TIP3   OH223165   4.621   0.346   1.769
 7734TIP3    H123166   4.545   0.387   1.727
 7734TIP3    H223167   4.691   0.356   1.705
 7735TIP3   OH223168   4.215   4.522   2.731
 7735TIP3    H123169   4.152   4.593   2.746
 7735TIP3    H223170   4.167   4.457   2.680
 7736TIP3   OH223171   2.529   1.833   2.313
 7736TIP3    H123172   2.557   1.909   2.364
 7736TIP3    H223173   2.435   1.826   2.329
 7737TIP3   OH223174   4.630   3.514   5.116
 7737TIP3    H123175   4.713   3.562   5.122
 7737TIP3    H223176   4.581   3.561   5.048
 7738TIP3   OH223177   5.028   5.313   0.679
 7738TIP3    H123178   5.054   5.233   0.633
 7738TIP3    H223179   4.984   5.366   0.613
 7739TIP3   OH223180   1.585   0.727   4.006
 7739TIP3    H123181   1.667   0.685   4.031
 7739TIP3    H223182   1.527   0.655   3.983
 7740TIP3   OH223183   5.081   4.468   3.579
 7740TIP3    H123184   5.086   4.459   3.484
 7740TIP3    H223185   5.083   4.378   3.613
 7741TIP3   OH223186   0.443   0.864   4.759
 7741TIP3    H123187   0.525   0.904   4.788
 7741TIP3    H223188   0.387   0.866   4.836
 7742TIP3   OH223189   0.014   3.136   3.303
 7742TIP3    H123190   0.032   3.199   3.373
 7742TIP3    H223191   0.098   3.093   3.287
 7743TIP3   OH223192   3.138   2.254   3.276
 7743TIP3    H123193   3.206   2.224   3.335
 7743TIP3    H223194   3.133   2.187   3.208
 7744TIP3   OH223195   6.261   3.695   1.477
 7744TIP3    H123196   6.257   3.717   1.570
 7744TIP3    H223197   6.332   3.748   1.443
 7745TIP3   OH223198   0.711   2.150   0.552
 7745TIP3    H123199   0.738   2.182   0.637
 7745TIP3    H223200   0.670   2.065   0.570
 7746TIP3   OH223201   0.666   5.645   3.915
 7746TIP3    H123202   0.607   5.584   3.872
 7746TIP3    H223203   0.733   5.589   3.956
 7747TIP3   OH223204   6.101   3.181   4.028
 7747TIP3    H123205   6.186   3.150   4.060
 7747TIP3    H223206   6.043   3.175   4.103
 7748TIP3   OH223207   5.926   2.256   1.530
 7748TIP3    H123208   5.982   2.305   1.590
 7748TIP3    H223209   5.988   2.207   1.475
 7749TIP3   OH223210   0.741   1.169   2.365
 7749TIP3    H123211   0.652   1.191   2.336
 7749TIP3    H223212   0.733   1.154   2.459
 7750TIP3   OH223213   4.779   5.077   1.814
 7750TIP3    H123214   4.799   5.170   1.803
 7750TIP3    H223215   4.694   5.066   1.772
 7751TIP3   OH223216   4.050   2.980   1.562
 7751TIP3    H123217   4.071   3.071   1.580
 7751TIP3    H223218   4.103   2.930   1.624
 7752TIP3   OH223219   1.904   4.568   4.150
 7752TIP3    H123220   1.825   4.621   4.163
 7752TIP3    H223221   1.900   4.502   4.219
 7753TIP3   OH223222   2.797   4.278   3.834
 7753TIP3    H123223   2.848   4.199   3.818
 7753TIP3    H223224   2.770   4.272   3.926
 7754TIP3   OH223225   5.554   2.922   1.609
 7754TIP3    H123226   5.628   2.970   1.646
 7754TIP3    H223227   5.531   2.970   1.530
 7755TIP3   OH223228   5.900   0.123   1.558
 7755TIP3    H123229   5.935   0.167   1.636
 7755TIP3    H223230   5.903   0.030   1.580
 7756TIP3   OH223231   2.632   6.211   2.340
 7756TIP3    H123232   2.549   6.181   2.378
 7756TIP3    H223233   2.671   6.266   2.408
 7757TIP3   OH223234   6.353   6.675   4.996
 7757TIP3    H123235   6.374   6.768   4.985
 7757TIP3    H223236   6.390   6.653   5.082
 7758TIP3   OH223237   4.021   4.320   2.705
 7758TIP3    H123238   4.041   4.228   2.686
 7758TIP3    H223239   3.936   4.317   2.750
 7759TIP3   OH223240   6.508   1.349   1.542
 7759TIP3    H123241   6.598   1.317   1.537
 7759TIP3    H223242   6.469   1.301   1.615
 7760TIP3   OH223243   4.773   0.792   2.099
 7760TIP3    H123244   4.723   0.782   2.180
 7760TIP3    H223245   4.780   0.703   2.064
 7761TIP3   OH223246   2.653   5.160   5.065
 7761TIP3    H123247   2.625   5.073   5.093
 7761TIP3    H223248   2.604   5.177   4.985
 7762TIP3   OH223249   5.641   0.789   4.631
 7762TIP3    H123250   5.706   0.859   4.637
 7762TIP3    H223251   5.637   0.752   4.719
 7763TIP3   OH223252   4.744   4.778   2.436
 7763TIP3    H123253   4.780   4.700   2.393
 7763TIP3    H223254   4.665   4.747   2.480
 7764TIP3   OH223255   3.831   2.297   3.660
 7764TIP3    H123256   3.850   2.365   3.725
 7764TIP3    H223257   3.737   2.306   3.644
 7765TIP3   OH223258   2.093   3.916   0.508
 7765TIP3    H123259   2.012   3.953   0.542
 7765TIP3    H223260   2.112   3.966   0.429
 7766TIP3   OH223261   6.269   3.177   0.598
 7766TIP3    H123262   6.176   3.155   0.599
 7766TIP3    H223263   6.313   3.092   0.598
 7767TIP3   OH223264   1.766   5.036   1.479
 7767TIP3    H123265   1.710   4.977   1.428
 7767TIP3    H223266   1.709   5.108   1.505
 7768TIP3   OH223267   3.659   4.541   2.630
 7768TIP3    H123268   3.658   4.518   2.723
 7768TIP3    H223269   3.577   4.588   2.616
 7769TIP3   OH223270   5.553   5.280   2.488
 7769TIP3    H123271   5.509   5.279   2.573
 7769TIP3    H223272   5.607   5.359   2.490
 7770TIP3   OH223273   0.223   5.379   5.664
 7770TIP3    H123274   0.177   5.462   5.651
 7770TIP3    H223275   0.232   5.342   5.576
 7771TIP3   OH223276   2.898   5.035   2.060
 7771TIP3    H123277   2.968   5.024   2.125
 7771TIP3    H223278   2.822   5.063   2.111
 7772TIP3   OH223279   0.931   3.234  -0.023
 7772TIP3    H123280   1.004   3.280   0.018
 7772TIP3    H223281   0.859   3.241   0.040
 7773TIP3   OH223282   6.477   0.176   3.115
 7773TIP3    H123283   6.549   0.148   3.171
 7773TIP3    H223284   6.408   0.200   3.177
 7774TIP3   OH223285   3.001   3.566   1.127
 7774TIP3    H123286   3.086   3.522   1.131
 7774TIP3    H223287   2.998   3.605   1.040
 7775TIP3   OH223288   0.355   6.712   5.009
 7775TIP3    H123289   0.308   6.707   4.926
 7775TIP3    H223290   0.326   6.794   5.049
 7776TIP3   OH223291   1.531   4.992   4.373
 7776TIP3    H123292   1.512   4.972   4.281
 7776TIP3    H223293   1.606   4.938   4.394
 7777TIP3   OH223294   1.917   6.286   3.705
 7777TIP3    H123295   1.944   6.373   3.675
 7777TIP3    H223296   1.889   6.241   3.625
 7778TIP3   OH223297   0.225   2.957   0.650
 7778TIP3    H123298   0.231   2.929   0.559
 7778TIP3    H223299   0.241   3.051   0.647
 7779TIP3   OH223300   6.284   0.213   1.861
 7779TIP3    H123301   6.287   0.300   1.821
 7779TIP3    H223302   6.349   0.217   1.931
 7780TIP3   OH223303   6.525   2.211   0.654
 7780TIP3    H123304   6.532   2.199   0.749
 7780TIP3    H223305   6.495   2.301   0.643
 7781TIP3   OH223306   0.240   5.099   1.056
 7781TIP3    H123307   0.233   5.014   1.013
 7781TIP3    H223308   0.180   5.093   1.131
 7782TIP3   OH223309   0.053   5.865   2.772
 7782TIP3    H123310   0.011   5.859   2.686
 7782TIP3    H223311   0.134   5.915   2.757
 7783TIP3   OH223312   1.425   4.808   1.173
 7783TIP3    H123313   1.504   4.827   1.224
 7783TIP3    H223314   1.429   4.713   1.158
 7784TIP3   OH223315   1.412   4.923   3.832
 7784TIP3    H123316   1.421   5.017   3.820
 7784TIP3    H223317   1.343   4.897   3.771
 7785TIP3   OH223318   2.977   6.485   4.638
 7785TIP3    H123319   2.953   6.537   4.562
 7785TIP3    H223320   3.065   6.453   4.619
 7786TIP3   OH223321   3.118   1.993   1.464
 7786TIP3    H123322   3.162   2.074   1.439
 7786TIP3    H223323   3.028   2.005   1.434
 7787TIP3   OH223324   0.990   4.273   2.478
 7787TIP3    H123325   1.086   4.265   2.482
 7787TIP3    H223326   0.961   4.187   2.447
 7788TIP3   OH223327   6.874   0.813   3.124
 7788TIP3    H123328   6.806   0.747   3.139
 7788TIP3    H223329   6.901   0.840   3.211
 7789TIP3   OH223330   5.157   5.836   2.665
 7789TIP3    H123331   5.068   5.846   2.630
 7789TIP3    H223332   5.170   5.912   2.721
 7790TIP3   OH223333   6.040   4.883   0.454
 7790TIP3    H123334   6.120   4.928   0.482
 7790TIP3    H223335   5.988   4.951   0.412
 7791TIP3   OH223336   4.966   6.818   5.394
 7791TIP3    H123337   5.019   6.799   5.471
 7791TIP3    H223338   4.937   6.732   5.364
 7792TIP3   OH223339   5.459   0.403   4.850
 7792TIP3    H123340   5.449   0.450   4.767
 7792TIP3    H223341   5.510   0.325   4.828
 7793TIP3   OH223342   4.870   0.132   3.310
 7793TIP3    H123343   4.907   0.050   3.340
 7793TIP3    H223344   4.934   0.199   3.337
 7794TIP3   OH223345   6.925   4.213   2.216
 7794TIP3    H123346   6.860   4.151   2.183
 7794TIP3    H223347   7.009   4.172   2.198
 7795TIP3   OH223348   3.880   4.510   0.173
 7795TIP3    H123349   3.832   4.428   0.183
 7795TIP3    H223350   3.968   4.483   0.144
 7796TIP3   OH223351   5.529   5.898   1.242
 7796TIP3    H123352   5.622   5.881   1.230
 7796TIP3    H223353   5.526   5.985   1.282
 7797TIP3   OH223354   4.448   0.207   4.940
 7797TIP3    H123355   4.475   0.151   5.013
 7797TIP3    H223356   4.362   0.240   4.965
 7798TIP3   OH223357   1.171   4.929   1.041
 7798TIP3    H123358   1.151   4.891   0.956
 7798TIP3    H223359   1.252   4.886   1.068
 7799TIP3   OH223360   0.509   3.292   0.774
 7799TIP3    H123361   0.490   3.208   0.732
 7799TIP3    H223362   0.423   3.334   0.783
 7800TIP3   OH223363   0.398   1.810   0.506
 7800TIP3    H123364   0.368   1.726   0.470
 7800TIP3    H223365   0.333   1.831   0.574
 7801TIP3   OH223366   3.982   1.500   4.338
 7801TIP3    H123367   3.903   1.461   4.378
 7801TIP3    H223368   4.008   1.437   4.271
 7802TIP3   OH223369   4.944   0.233   3.770
 7802TIP3    H123370   4.994   0.151   3.781
 7802TIP3    H223371   4.935   0.268   3.858
 7803TIP3   OH223372   2.951   6.525   0.831
 7803TIP3    H123373   2.984   6.436   0.831
 7803TIP3    H223374   2.999   6.569   0.761
 7804TIP3   OH223375   3.958   0.404   4.114
 7804TIP3    H123376   3.943   0.345   4.040
 7804TIP3    H223377   4.026   0.464   4.085
 7805TIP3   OH223378   2.132   1.902   1.520
 7805TIP3    H123379   2.054   1.958   1.524
 7805TIP3    H223380   2.098   1.815   1.496
 7806TIP3   OH223381   5.134   3.354   2.397
 7806TIP3    H123382   5.046   3.321   2.416
 7806TIP3    H223383   5.184   3.336   2.476
 7807TIP3   OH223384   4.099   6.308   2.861
 7807TIP3    H123385   4.070   6.319   2.770
 7807TIP3    H223386   4.121   6.215   2.868
 7808TIP3   OH223387   3.567   2.862   5.182
 7808TIP3    H123388   3.602   2.780   5.216
 7808TIP3    H223389   3.630   2.890   5.115
 7809TIP3   OH223390   2.777   4.193   4.201
 7809TIP3    H123391   2.693   4.221   4.163
 7809TIP3    H223392   2.752   4.136   4.273
 7810TIP3   OH223393   1.967   4.469   5.777
 7810TIP3    H123394   1.889   4.414   5.762
 7810TIP3    H223395   2.014   4.424   5.848
 7811TIP3   OH223396   6.316   0.463   1.549
 7811TIP3    H123397   6.265   0.535   1.512
 7811TIP3    H223398   6.304   0.472   1.643
 7812TIP3   OH223399   5.790   0.952   5.510
 7812TIP3    H123400   5.857   1.000   5.559
 7812TIP3    H223401   5.820   0.861   5.513
 7813TIP3   OH223402   5.973   6.255   0.423
 7813TIP3    H123403   5.922   6.179   0.394
 7813TIP3    H223404   6.064   6.225   0.419
 7814TIP3   OH223405   1.247   5.552   3.897
 7814TIP3    H123406   1.325   5.607   3.904
 7814TIP3    H223407   1.175   5.609   3.924
 7815TIP3   OH223408   1.701   0.886   1.151
 7815TIP3    H123409   1.639   0.915   1.083
 7815TIP3    H223410   1.705   0.959   1.212
 7816TIP3   OH223411   1.766   5.301   0.231
 7816TIP3    H123412   1.762   5.391   0.264
 7816TIP3    H223413   1.686   5.290   0.180
 7817TIP3   OH223414   1.674   2.625   0.930
 7817TIP3    H123415   1.759   2.582   0.934
 7817TIP3    H223416   1.619   2.566   0.878
 7818TIP3   OH223417   6.693   5.637   3.789
 7818TIP3    H123418   6.704   5.663   3.881
 7818TIP3    H223419   6.702   5.719   3.740
 7819TIP3   OH223420   0.950   4.513   4.441
 7819TIP3    H123421   0.896   4.499   4.519
 7819TIP3    H223422   0.981   4.603   4.449
 7820TIP3   OH223423   5.240   4.113   0.044
 7820TIP3    H123424   5.171   4.172   0.076
 7820TIP3    H223425   5.250   4.137  -0.049
 7821TIP3   OH223426   3.739   4.676   3.379
 7821TIP3    H123427   3.776   4.595   3.413
 7821TIP3    H223428   3.768   4.680   3.288
 7822TIP3   OH223429   7.139   0.915   3.911
 7822TIP3    H123430   7.158   0.833   3.864
 7822TIP3    H223431   7.205   0.919   3.979
 7823TIP3   OH223432   0.579   2.281   2.555
 7823TIP3    H123433   0.596   2.210   2.493
 7823TIP3    H223434   0.657   2.284   2.611
 7824TIP3   OH223435   5.956   5.365   4.862
 7824TIP3    H123436   5.865   5.336   4.857
 7824TIP3    H223437   5.951   5.461   4.863
 7825TIP3   OH223438   6.646   1.232   5.688
 7825TIP3    H123439   6.628   1.322   5.714
 7825TIP3    H223440   6.710   1.239   5.617
 7826TIP3   OH223441   2.384   4.614   0.016
 7826TIP3    H123442   2.297   4.576   0.026
 7826TIP3    H223443   2.436   4.572   0.085
 7827TIP3   OH223444   1.489   4.048   5.829
 7827TIP3    H123445   1.412   3.992   5.821
 7827TIP3    H223446   1.453   4.135   5.846
 7828TIP3   OH223447   0.222   4.530   2.270
 7828TIP3    H123448   0.209   4.475   2.194
 7828TIP3    H223449   0.305   4.575   2.254
 7829TIP3   OH223450   6.753   2.294   2.263
 7829TIP3    H123451   6.818   2.303   2.333
 7829TIP3    H223452   6.798   2.240   2.197
 7830TIP3   OH223453   1.455   3.014   2.782
 7830TIP3    H123454   1.398   2.987   2.854
 7830TIP3    H223455   1.404   3.079   2.734
 7831TIP3   OH223456   5.265   5.003   0.781
 7831TIP3    H123457   5.322   5.078   0.795
 7831TIP3    H223458   5.222   5.021   0.698
 7832TIP3   OH223459   4.189   2.342   0.339
 7832TIP3    H123460   4.284   2.337   0.328
 7832TIP3    H223461   4.166   2.258   0.380
 7833TIP3   OH223462   0.533   1.515   3.421
 7833TIP3    H123463   0.593   1.468   3.363
 7833TIP3    H223464   0.447   1.477   3.403
 7834TIP3   OH223465   4.120   2.741   0.090
 7834TIP3    H123466   4.173   2.821   0.084
 7834TIP3    H223467   4.154   2.696   0.167
 7835TIP3   OH223468   6.769   5.816   0.473
 7835TIP3    H123469   6.689   5.818   0.421
 7835TIP3    H223470   6.836   5.855   0.417
 7836TIP3   OH223471   0.216   0.927   4.047
 7836TIP3    H123472   0.294   0.980   4.060
 7836TIP3    H223473   0.178   0.917   4.135
 7837TIP3   OH223474   4.902   1.609   1.090
 7837TIP3    H123475   4.888   1.515   1.104
 7837TIP3    H223476   4.817   1.640   1.058
 7838TIP3   OH223477   7.098   1.646   3.115
 7838TIP3    H123478   7.038   1.625   3.044
 7838TIP3    H223479   7.176   1.593   3.099
 7839TIP3   OH223480   4.733   2.418   3.288
 7839TIP3    H123481   4.760   2.332   3.320
 7839TIP3    H223482   4.814   2.457   3.254
 7840TIP3   OH223483   1.429   5.231   2.653
 7840TIP3    H123484   1.524   5.226   2.661
 7840TIP3    H223485   1.413   5.253   2.562
 7841TIP3   OH223486   2.356   2.201   4.107
 7841TIP3    H123487   2.418   2.138   4.142
 7841TIP3    H223488   2.403   2.284   4.106
 7842TIP3   OH223489   2.695   1.444   4.198
 7842TIP3    H123490   2.636   1.517   4.179
 7842TIP3    H223491   2.781   1.475   4.168
 7843TIP3   OH223492   0.676   3.241   4.218
 7843TIP3    H123493   0.751   3.185   4.199
 7843TIP3    H223494   0.662   3.290   4.136
 7844TIP3   OH223495   2.772   1.293   5.611
 7844TIP3    H123496   2.713   1.218   5.604
 7844TIP3    H223497   2.714   1.366   5.634
 7845TIP3   OH223498   2.951   4.303   2.352
 7845TIP3    H123499   2.962   4.227   2.295
 7845TIP3    H223500   2.905   4.368   2.297
 7846TIP3   OH223501   2.363   4.441   2.739
 7846TIP3    H123502   2.457   4.444   2.758
 7846TIP3    H223503   2.352   4.361   2.687
 7847TIP3   OH223504   3.173   0.741   4.650
 7847TIP3    H123505   3.203   0.784   4.570
 7847TIP3    H223506   3.192   0.648   4.636
 7848TIP3   OH223507   5.502   6.025   3.326
 7848TIP3    H123508   5.461   6.104   3.361
 7848TIP3    H223509   5.440   5.992   3.261
 7849TIP3   OH223510   2.815   4.965   0.711
 7849TIP3    H123511   2.790   5.011   0.792
 7849TIP3    H223512   2.909   4.947   0.722
 7850TIP3   OH223513   6.995   6.308   5.685
 7850TIP3    H123514   7.062   6.241   5.699
 7850TIP3    H223515   6.947   6.278   5.608
 7851TIP3   OH223516   2.240   2.662   5.240
 7851TIP3    H123517   2.172   2.606   5.278
 7851TIP3    H223518   2.234   2.646   5.146
 7852TIP3   OH223519   1.339   5.752   5.478
 7852TIP3    H123520   1.353   5.846   5.487
 7852TIP3    H223521   1.427   5.715   5.477
 7853TIP3   OH223522   5.885   2.591   5.779
 7853TIP3    H123523   5.933   2.509   5.792
 7853TIP3    H223524   5.891   2.608   5.685
 7854TIP3   OH223525   5.912   0.201   2.363
 7854TIP3    H123526   5.818   0.201   2.347
 7854TIP3    H223527   5.951   0.200   2.276
 7855TIP3   OH223528   5.669   5.390   1.404
 7855TIP3    H123529   5.640   5.436   1.483
 7855TIP3    H223530   5.762   5.413   1.396
 7856TIP3   OH223531   7.167   2.099   0.849
 7856TIP3    H123532   7.216   2.065   0.924
 7856TIP3    H223533   7.235   2.126   0.787
 7857TIP3   OH223534   6.082   2.044   1.415
 7857TIP3    H123535   5.996   2.010   1.393
 7857TIP3    H223536   6.144   1.982   1.376
 7858TIP3   OH223537   3.641   0.131   2.330
 7858TIP3    H123538   3.678   0.043   2.324
 7858TIP3    H223539   3.589   0.140   2.250
 7859TIP3   OH223540   2.821   2.132   0.197
 7859TIP3    H123541   2.829   2.209   0.140
 7859TIP3    H223542   2.895   2.077   0.172
 7860TIP3   OH223543   5.209   1.956   5.704
 7860TIP3    H123544   5.208   1.905   5.624
 7860TIP3    H223545   5.297   1.994   5.708
 7861TIP3   OH223546   6.815   0.969   2.898
 7861TIP3    H123547   6.882   1.037   2.899
 7861TIP3    H223548   6.855   0.895   2.943
 7862TIP3   OH223549   1.327   6.037   5.515
 7862TIP3    H123550   1.267   6.051   5.442
 7862TIP3    H223551   1.275   6.056   5.593
 7863TIP3   OH223552   6.046   3.854   5.722
 7863TIP3    H123553   6.128   3.821   5.684
 7863TIP3    H223554   6.064   3.860   5.816
 7864TIP3   OH223555   0.194   6.428   0.769
 7864TIP3    H123556   0.236   6.374   0.702
 7864TIP3    H223557   0.250   6.420   0.845
 7865TIP3   OH223558   6.090   5.402   3.594
 7865TIP3    H123559   6.083   5.426   3.686
 7865TIP3    H223560   6.102   5.307   3.595
 7866TIP3   OH223561   5.000   1.290   4.862
 7866TIP3    H123562   4.977   1.272   4.771
 7866TIP3    H223563   5.068   1.357   4.857
 7867TIP3   OH223564   3.397   1.118   1.580
 7867TIP3    H123565   3.440   1.113   1.666
 7867TIP3    H223566   3.304   1.105   1.599
 7868TIP3   OH223567   4.364   1.050   3.560
 7868TIP3    H123568   4.298   1.115   3.536
 7868TIP3    H223569   4.374   1.060   3.655
 7869TIP3   OH223570   6.302   5.908   3.791
 7869TIP3    H123571   6.390   5.945   3.788
 7869TIP3    H223572   6.315   5.817   3.819
 7870TIP3   OH223573   3.847   0.232   0.709
 7870TIP3    H123574   3.829   0.257   0.618
 7870TIP3    H223575   3.781   0.279   0.760
 7871TIP3   OH223576   6.667   0.409   3.363
 7871TIP3    H123577   6.720   0.411   3.443
 7871TIP3    H223578   6.646   0.316   3.350
 7872TIP3   OH223579   5.349   6.074   1.885
 7872TIP3    H123580   5.291   6.004   1.912
 7872TIP3    H223581   5.303   6.155   1.909
 7873TIP3   OH223582   4.817   0.634   0.425
 7873TIP3    H123583   4.854   0.552   0.457
 7873TIP3    H223584   4.890   0.695   0.425
 7874TIP3   OH223585   1.728   0.340   3.657
 7874TIP3    H123586   1.705   0.330   3.565
 7874TIP3    H223587   1.811   0.293   3.666
 7875TIP3   OH223588   2.317   4.490   4.165
 7875TIP3    H123589   2.263   4.431   4.219
 7875TIP3    H223590   2.397   4.440   4.149
 7876TIP3   OH223591   3.527   5.632   3.022
 7876TIP3    H123592   3.473   5.696   3.070
 7876TIP3    H223593   3.617   5.659   3.040
 7877TIP3   OH223594   2.971   2.549   0.602
 7877TIP3    H123595   2.913   2.483   0.638
 7877TIP3    H223596   2.922   2.631   0.611
 7878TIP3   OH223597   2.190   5.570   2.457
 7878TIP3    H123598   2.100   5.572   2.489
 7878TIP3    H223599   2.190   5.504   2.388
 7879TIP3   OH223600   5.760   1.029   2.976
 7879TIP3    H123601   5.839   0.979   2.995
 7879TIP3    H223602   5.696   0.999   3.041
 7880TIP3   OH223603   2.051   3.651   4.707
 7880TIP3    H123604   2.092   3.582   4.655
 7880TIP3    H223605   2.119   3.680   4.768
 7881TIP3   OH223606   6.601   3.891   2.058
 7881TIP3    H123607   6.633   3.803   2.077
 7881TIP3    H223608   6.507   3.881   2.046
 7882TIP3   OH223609   0.720   3.558   4.698
 7882TIP3    H123610   0.756   3.630   4.750
 7882TIP3    H223611   0.781   3.549   4.624
 7883TIP3   OH223612   2.002   1.486   4.606
 7883TIP3    H123613   2.055   1.407   4.607
 7883TIP3    H223614   2.060   1.554   4.640
 7884TIP3   OH223615   0.239   4.260   0.436
 7884TIP3    H123616   0.157   4.306   0.419
 7884TIP3    H223617   0.297   4.287   0.365
 7885TIP3   OH223618   3.557   1.173   1.337
 7885TIP3    H123619   3.503   1.160   1.415
 7885TIP3    H223620   3.503   1.226   1.278
 7886TIP3   OH223621   6.414   4.833   3.093
 7886TIP3    H123622   6.347   4.819   3.027
 7886TIP3    H223623   6.370   4.882   3.162
 7887TIP3   OH223624   7.125   1.825   0.836
 7887TIP3    H123625   7.211   1.860   0.812
 7887TIP3    H223626   7.124   1.737   0.798
 7888TIP3   OH223627   4.088   4.849   5.485
 7888TIP3    H123628   4.093   4.878   5.394
 7888TIP3    H223629   4.164   4.791   5.496
 7889TIP3   OH223630   5.148   1.503   4.834
 7889TIP3    H123631   5.162   1.510   4.928
 7889TIP3    H223632   5.198   1.574   4.796
 7890TIP3   OH223633   6.021   3.604   1.407
 7890TIP3    H123634   6.101   3.607   1.460
 7890TIP3    H223635   6.038   3.664   1.334
 7891TIP3   OH223636   1.213   3.038   1.219
 7891TIP3    H123637   1.308   3.051   1.222
 7891TIP3    H223638   1.202   2.943   1.227
 7892TIP3   OH223639   5.968   6.308   4.268
 7892TIP3    H123640   5.956   6.326   4.175
 7892TIP3    H223641   6.044   6.359   4.294
 7893TIP3   OH223642   0.682   1.150   5.277
 7893TIP3    H123643   0.714   1.061   5.291
 7893TIP3    H223644   0.652   1.178   5.363
 7894TIP3   OH223645   3.705   3.255   1.024
 7894TIP3    H123646   3.679   3.280   1.112
 7894TIP3    H223647   3.779   3.195   1.037
 7895TIP3   OH223648   3.983   5.232   0.888
 7895TIP3    H123649   4.002   5.151   0.936
 7895TIP3    H223650   3.929   5.283   0.949
 7896TIP3   OH223651   2.974   0.272   3.853
 7896TIP3    H123652   2.950   0.358   3.818
 7896TIP3    H223653   2.890   0.227   3.865
 7897TIP3   OH223654   0.968   3.237   3.624
 7897TIP3    H123655   0.907   3.166   3.639
 7897TIP3    H223656   1.029   3.233   3.698
 7898TIP3   OH223657   5.267   4.366   1.961
 7898TIP3    H123658   5.256   4.271   1.957
 7898TIP3    H223659   5.337   4.385   1.898
 7899TIP3   OH223660   3.384   2.056   5.532
 7899TIP3    H123661   3.404   2.024   5.620
 7899TIP3    H223662   3.438   2.135   5.522
 7900TIP3   OH223663   4.612   3.011   0.057
 7900TIP3    H123664   4.678   2.949   0.088
 7900TIP3    H223665   4.601   2.990  -0.036
 7901TIP3   OH223666   0.182   1.944   2.802
 7901TIP3    H123667   0.095   1.913   2.779
 7901TIP3    H223668   0.175   1.972   2.894
 7902TIP3   OH223669   0.326   0.479   0.950
 7902TIP3    H123670   0.337   0.397   0.997
 7902TIP3    H223671   0.403   0.486   0.894
 7903TIP3   OH223672   3.364   5.082   3.644
 7903TIP3    H123673   3.297   5.080   3.713
 7903TIP3    H223674   3.378   4.990   3.622
 7904TIP3   OH223675   6.166   2.054   4.741
 7904TIP3    H123676   6.190   2.140   4.708
 7904TIP3    H223677   6.126   2.009   4.667
 7905TIP3   OH223678   6.487   6.117   3.490
 7905TIP3    H123679   6.540   6.114   3.570
 7905TIP3    H223680   6.433   6.195   3.501
 7906TIP3   OH223681   2.786   0.542   3.149
 7906TIP3    H123682   2.816   0.460   3.111
 7906TIP3    H223683   2.692   0.543   3.133
 7907TIP3   OH223684   0.092   4.520   3.875
 7907TIP3    H123685   0.089   4.532   3.969
 7907TIP3    H223686   0.099   4.425   3.863
 7908TIP3   OH223687   6.534   3.082   4.358
 7908TIP3    H123688   6.560   2.992   4.378
 7908TIP3    H223689   6.461   3.099   4.418
 7909TIP3   OH223690   4.578   4.961   2.062
 7909TIP3    H123691   4.620   5.046   2.045
 7909TIP3    H223692   4.497   4.983   2.108
 7910TIP3   OH223693   5.320   1.794   2.099
 7910TIP3    H123694   5.264   1.860   2.140
 7910TIP3    H223695   5.409   1.827   2.112
 7911TIP3   OH223696   6.256   6.294   2.164
 7911TIP3    H123697   6.267   6.367   2.103
 7911TIP3    H223698   6.324   6.231   2.139
 7912TIP3   OH223699   1.608   1.155   5.640
 7912TIP3    H123700   1.552   1.180   5.714
 7912TIP3    H223701   1.610   1.060   5.643
 7913TIP3   OH223702   0.035   3.745   1.357
 7913TIP3    H123703   0.035   3.789   1.442
 7913TIP3    H223704   0.064   3.656   1.376
 7914TIP3   OH223705   4.111   2.908   3.453
 7914TIP3    H123706   4.095   2.832   3.508
 7914TIP3    H223707   4.198   2.940   3.479
 7915TIP3   OH223708   5.852   5.038   3.427
 7915TIP3    H123709   5.793   5.098   3.471
 7915TIP3    H223710   5.864   5.076   3.339
 7916TIP3   OH223711   0.951   3.093   5.563
 7916TIP3    H123712   0.924   3.157   5.628
 7916TIP3    H223713   0.898   3.114   5.485
 7917TIP3   OH223714   6.253   3.985   1.044
 7917TIP3    H123715   6.339   4.002   1.006
 7917TIP3    H223716   6.230   3.898   1.012
 7918TIP3   OH223717   2.095   2.773   0.721
 7918TIP3    H123718   2.013   2.728   0.744
 7918TIP3    H223719   2.164   2.717   0.755
 7919TIP3   OH223720   2.235   1.444   2.653
 7919TIP3    H123721   2.167   1.451   2.586
 7919TIP3    H223722   2.242   1.350   2.670
 7920TIP3   OH223723   1.096   5.083   5.397
 7920TIP3    H123724   1.186   5.107   5.416
 7920TIP3    H223725   1.044   5.154   5.435
 7921TIP3   OH223726   7.144   5.527   2.234
 7921TIP3    H123727   7.131   5.602   2.177
 7921TIP3    H223728   7.181   5.564   2.315
 7922TIP3   OH223729   3.275   1.783   1.402
 7922TIP3    H123730   3.221   1.856   1.434
 7922TIP3    H223731   3.277   1.722   1.476
 7923TIP3   OH223732   3.628   5.970   4.181
 7923TIP3    H123733   3.667   6.042   4.231
 7923TIP3    H223734   3.543   5.956   4.222
 7924TIP3   OH223735   2.069   4.036   1.788
 7924TIP3    H123736   2.160   4.055   1.810
 7924TIP3    H223737   2.074   3.968   1.721
 7925TIP3   OH223738   3.208   0.537   2.413
 7925TIP3    H123739   3.293   0.568   2.444
 7925TIP3    H223740   3.145   0.575   2.474
 7926TIP3   OH223741   6.496   0.933   4.872
 7926TIP3    H123742   6.494   0.906   4.780
 7926TIP3    H223743   6.404   0.942   4.896
 7927TIP3   OH223744   1.074   2.836   5.101
 7927TIP3    H123745   1.083   2.910   5.161
 7927TIP3    H223746   1.038   2.874   5.021
 7928TIP3   OH223747   1.646   0.955   2.864
 7928TIP3    H123748   1.699   0.989   2.936
 7928TIP3    H223749   1.573   1.016   2.857
 7929TIP3   OH223750   2.667   6.382   1.266
 7929TIP3    H123751   2.751   6.389   1.221
 7929TIP3    H223752   2.621   6.463   1.247
 7930TIP3   OH223753   1.176   2.254   1.027
 7930TIP3    H123754   1.132   2.285   0.948
 7930TIP3    H223755   1.119   2.185   1.061
 7931TIP3   OH223756   1.921   3.450   1.968
 7931TIP3    H123757   2.012   3.440   1.943
 7931TIP3    H223758   1.889   3.361   1.982
 7932TIP3   OH223759   4.725   3.120   0.739
 7932TIP3    H123760   4.790   3.060   0.777
 7932TIP3    H223761   4.717   3.092   0.648
 7933TIP3   OH223762   5.976   5.356   1.997
 7933TIP3    H123763   5.980   5.450   1.979
 7933TIP3    H223764   5.883   5.335   1.994
 7934TIP3   OH223765   1.924   5.769   5.471
 7934TIP3    H123766   1.914   5.861   5.449
 7934TIP3    H223767   1.996   5.767   5.534
 7935TIP3   OH223768   6.329   3.613   4.989
 7935TIP3    H123769   6.276   3.583   5.062
 7935TIP3    H223770   6.345   3.534   4.937
 7936TIP3   OH223771   2.958   0.694   5.097
 7936TIP3    H123772   3.021   0.766   5.095
 7936TIP3    H223773   2.976   0.648   5.179
 7937TIP3   OH223774   5.900   0.602   4.281
 7937TIP3    H123775   5.984   0.599   4.235
 7937TIP3    H223776   5.838   0.629   4.214
 7938TIP3   OH223777   5.051   5.618   2.971
 7938TIP3    H123778   4.973   5.609   2.915
 7938TIP3    H223779   5.118   5.566   2.927
 7939TIP3   OH223780   3.843   5.726   1.062
 7939TIP3    H123781   3.879   5.812   1.082
 7939TIP3    H223782   3.903   5.689   0.998
 7940TIP3   OH223783   3.271   5.597   1.903
 7940TIP3    H123784   3.205   5.552   1.851
 7940TIP3    H223785   3.262   5.559   1.991
 7941TIP3   OH223786   4.133   3.997   1.074
 7941TIP3    H123787   4.175   3.912   1.061
 7941TIP3    H223788   4.200   4.061   1.050
 7942TIP3   OH223789   3.337   0.824   5.580
 7942TIP3    H123790   3.334   0.880   5.657
 7942TIP3    H223791   3.421   0.845   5.538
 7943TIP3   OH223792   2.969   5.693   3.651
 7943TIP3    H123793   3.007   5.760   3.708
 7943TIP3    H223794   3.021   5.698   3.571
 7944TIP3   OH223795   1.090   3.197   3.897
 7944TIP3    H123796   1.088   3.124   3.959
 7944TIP3    H223797   1.167   3.182   3.843
 7945TIP3   OH223798   2.084   3.363   1.705
 7945TIP3    H123799   2.093   3.455   1.681
 7945TIP3    H223800   2.003   3.335   1.662
 7946TIP3   OH223801   6.384   5.171   1.368
 7946TIP3    H123802   6.449   5.117   1.323
 7946TIP3    H223803   6.352   5.230   1.301
 7947TIP3   OH223804   2.789   4.083   2.273
 7947TIP3    H123805   2.832   3.997   2.265
 7947TIP3    H223806   2.721   4.070   2.339
 7948TIP3   OH223807   5.197   0.516   0.459
 7948TIP3    H123808   5.291   0.534   0.470
 7948TIP3    H223809   5.188   0.486   0.369
 7949TIP3   OH223810   0.821   6.258   1.115
 7949TIP3    H123811   0.764   6.199   1.065
 7949TIP3    H223812   0.897   6.272   1.057
 7950TIP3   OH223813   5.559   2.744   1.020
 7950TIP3    H123814   5.475   2.759   0.976
 7950TIP3    H223815   5.623   2.785   0.962
 7951TIP3   OH223816   0.919   3.659   2.080
 7951TIP3    H123817   0.844   3.718   2.092
 7951TIP3    H223818   0.985   3.712   2.036
 7952TIP3   OH223819   6.853   5.765   2.734
 7952TIP3    H123820   6.793   5.830   2.769
 7952TIP3    H223821   6.937   5.811   2.726
 7953TIP3   OH223822   5.148   5.075   3.196
 7953TIP3    H123823   5.145   5.006   3.129
 7953TIP3    H223824   5.073   5.056   3.252
 7954TIP3   OH223825   3.818   1.467   5.233
 7954TIP3    H123826   3.811   1.551   5.278
 7954TIP3    H223827   3.762   1.476   5.156
 7955TIP3   OH223828   0.808   4.958   4.506
 7955TIP3    H123829   0.819   4.865   4.483
 7955TIP3    H223830   0.886   5.001   4.473
 7956TIP3   OH223831   4.885   3.293   0.993
 7956TIP3    H123832   4.836   3.217   1.024
 7956TIP3    H223833   4.977   3.269   1.003
 7957TIP3   OH223834   4.115   0.988   1.938
 7957TIP3    H123835   4.076   0.925   1.999
 7957TIP3    H223836   4.209   0.976   1.948
 7958TIP3   OH223837   6.589   4.807   0.866
 7958TIP3    H123838   6.642   4.847   0.936
 7958TIP3    H223839   6.624   4.718   0.859
 7959TIP3   OH223840   5.163   0.496   4.580
 7959TIP3    H123841   5.241   0.445   4.605
 7959TIP3    H223842   5.122   0.446   4.510
 7960TIP3   OH223843   4.392   3.960   2.523
 7960TIP3    H123844   4.369   4.053   2.513
 7960TIP3    H223845   4.310   3.917   2.547
 7961TIP3   OH223846   1.426   0.492   2.821
 7961TIP3    H123847   1.339   0.531   2.814
 7961TIP3    H223848   1.466   0.536   2.896
 7962TIP3   OH223849   6.257   6.433   1.089
 7962TIP3    H123850   6.292   6.351   1.124
 7962TIP3    H223851   6.275   6.428   0.995
 7963TIP3   OH223852   0.222   1.050   3.543
 7963TIP3    H123853   0.128   1.039   3.553
 7963TIP3    H223854   0.241   1.018   3.455
 7964TIP3   OH223855   2.198   1.395   5.450
 7964TIP3    H123856   2.225   1.427   5.364
 7964TIP3    H223857   2.103   1.403   5.450
 7965TIP3   OH223858   4.408   6.633   0.621
 7965TIP3    H123859   4.465   6.594   0.688
 7965TIP3    H223860   4.320   6.617   0.654
 7966TIP3   OH223861   2.120   2.444   4.484
 7966TIP3    H123862   2.067   2.521   4.465
 7966TIP3    H223863   2.116   2.436   4.579
 7967TIP3   OH223864   2.262   4.580   4.757
 7967TIP3    H123865   2.230   4.516   4.820
 7967TIP3    H223866   2.236   4.545   4.672
 7968TIP3   OH223867   5.106   5.583   4.431
 7968TIP3    H123868   5.127   5.537   4.512
 7968TIP3    H223869   5.010   5.584   4.428
 7969TIP3   OH223870   1.021   1.723   4.908
 7969TIP3    H123871   0.940   1.731   4.959
 7969TIP3    H223872   1.050   1.633   4.923
 7970TIP3   OH223873   2.939   2.610   4.586
 7970TIP3    H123874   2.957   2.527   4.630
 7970TIP3    H223875   3.024   2.655   4.583
 7971TIP3   OH223876   1.380   3.506   3.964
 7971TIP3    H123877   1.375   3.527   4.057
 7971TIP3    H223878   1.289   3.512   3.933
 7972TIP3   OH223879   5.550   1.218   5.793
 7972TIP3    H123880   5.646   1.220   5.791
 7972TIP3    H223881   5.529   1.127   5.814
 7973TIP3   OH223882   5.156   2.206   1.244
 7973TIP3    H123883   5.079   2.178   1.294
 7973TIP3    H223884   5.185   2.286   1.288
 7974TIP3   OH223885   5.827   4.931   2.496
 7974TIP3    H123886   5.735   4.919   2.470
 7974TIP3    H223887   5.825   4.933   2.592
 7975TIP3   OH223888   0.264   6.324   2.785
 7975TIP3    H123889   0.189   6.298   2.732
 7975TIP3    H223890   0.241   6.298   2.874
 7976TIP3   OH223891   0.094   2.808   4.205
 7976TIP3    H123892   0.140   2.724   4.205
 7976TIP3    H223893   0.089   2.833   4.297
 7977TIP3   OH223894   5.624   3.800   1.312
 7977TIP3    H123895   5.608   3.755   1.395
 7977TIP3    H223896   5.609   3.893   1.331
 7978TIP3   OH223897   1.171   0.980   2.094
 7978TIP3    H123898   1.087   1.016   2.123
 7978TIP3    H223899   1.147   0.902   2.044
 7979TIP3   OH223900   6.600   0.217   5.654
 7979TIP3    H123901   6.516   0.260   5.641
 7979TIP3    H223902   6.656   0.250   5.584
 7980TIP3   OH223903   2.726   5.218   5.862
 7980TIP3    H123904   2.758   5.132   5.892
 7980TIP3    H223905   2.751   5.221   5.769
 7981TIP3   OH223906   7.086   5.558   5.080
 7981TIP3    H123907   7.171   5.586   5.114
 7981TIP3    H223908   7.057   5.491   5.142
 7982TIP3   OH223909   2.855   6.044   1.730
 7982TIP3    H123910   2.771   6.022   1.770
 7982TIP3    H223911   2.837   6.122   1.678
 7983TIP3   OH223912   3.331   2.595   3.765
 7983TIP3    H123913   3.345   2.609   3.671
 7983TIP3    H223914   3.243   2.630   3.781
 7984TIP3   OH223915   3.321   6.728   5.120
 7984TIP3    H123916   3.391   6.781   5.083
 7984TIP3    H223917   3.365   6.664   5.175
 7985TIP3   OH223918   6.993   3.939   4.920
 7985TIP3    H123919   6.948   3.864   4.960
 7985TIP3    H223920   7.028   3.904   4.838
 7986TIP3   OH223921   4.447   4.090   4.198
 7986TIP3    H123922   4.430   4.145   4.274
 7986TIP3    H223923   4.365   4.092   4.148
 7987TIP3   OH223924   6.949   4.893   0.872
 7987TIP3    H123925   7.020   4.957   0.869
 7987TIP3    H223926   6.895   4.921   0.945
 7988TIP3   OH223927   1.600   6.009   3.636
 7988TIP3    H123928   1.545   5.953   3.581
 7988TIP3    H223929   1.645   5.948   3.695
 7989TIP3   OH223930   2.496   2.536   1.116
 7989TIP3    H123931   2.478   2.590   1.193
 7989TIP3    H223932   2.415   2.488   1.101
 7990TIP3   OH223933   0.943   0.574   4.486
 7990TIP3    H123934   0.848   0.581   4.494
 7990TIP3    H223935   0.959   0.482   4.465
 7991TIP3   OH223936   5.657   6.367   3.241
 7991TIP3    H123937   5.573   6.324   3.254
 7991TIP3    H223938   5.719   6.295   3.232
 7992TIP3   OH223939   2.922   3.717   5.863
 7992TIP3    H123940   2.982   3.647   5.843
 7992TIP3    H223941   2.951   3.751   5.948
 7993TIP3   OH223942   3.352   4.311   1.510
 7993TIP3    H123943   3.281   4.347   1.458
 7993TIP3    H223944   3.412   4.385   1.524
 7994TIP3   OH223945   5.145   5.911   4.141
 7994TIP3    H123946   5.081   5.953   4.198
 7994TIP3    H223947   5.120   5.818   4.142
 7995TIP3   OH223948   0.627   3.263   3.528
 7995TIP3    H123949   0.663   3.208   3.597
 7995TIP3    H223950   0.663   3.350   3.546
 7996TIP3   OH223951   3.920   2.979   4.564
 7996TIP3    H123952   3.978   2.913   4.525
 7996TIP3    H223953   3.838   2.933   4.582
 7997TIP3   OH223954   2.977   5.143   4.721
 7997TIP3    H123955   2.881   5.133   4.720
 7997TIP3    H223956   2.991   5.237   4.730
 7998TIP3   OH223957   1.286   5.899   5.212
 7998TIP3    H123958   1.363   5.856   5.249
 7998TIP3    H223959   1.250   5.834   5.150
 7999TIP3   OH223960   5.100   6.722   3.534
 7999TIP3    H123961   5.160   6.775   3.482
 7999TIP3    H223962   5.022   6.715   3.480
 8000TIP3   OH223963   1.535   0.118   0.552
 8000TIP3    H123964   1.542   0.023   0.562
 8000TIP3    H223965   1.463   0.131   0.490
 8001TIP3   OH223966   0.740   5.679   3.223
 8001TIP3    H123967   0.715   5.687   3.315
 8001TIP3    H223968   0.832   5.653   3.225
 8002TIP3   OH223969   4.184   4.118   2.675
 8002TIP3    H123970   4.198   4.068   2.755
 8002TIP3    H223971   4.265   4.168   2.664
 8003TIP3   OH223972   4.840   4.407   0.787
 8003TIP3    H123973   4.776   4.352   0.832
 8003TIP3    H223974   4.863   4.474   0.851
 8004TIP3   OH223975   6.508   3.447   4.521
 8004TIP3    H123976   6.545   3.535   4.519
 8004TIP3    H223977   6.434   3.451   4.460
 8005TIP3   OH223978   4.068   1.926   0.254
 8005TIP3    H123979   4.110   1.868   0.318
 8005TIP3    H223980   4.034   1.999   0.306
 8006TIP3   OH223981   2.410   3.329   3.432
 8006TIP3    H123982   2.400   3.399   3.368
 8006TIP3    H223983   2.392   3.249   3.383
 8007TIP3   OH223984   6.722   6.275   2.340
 8007TIP3    H123985   6.650   6.212   2.327
 8007TIP3    H223986   6.787   6.227   2.391
 8008TIP3   OH223987   4.247   1.428   4.773
 8008TIP3    H123988   4.290   1.366   4.715
 8008TIP3    H223989   4.204   1.374   4.839
 8009TIP3   OH223990   4.250   1.368   2.106
 8009TIP3    H123991   4.218   1.363   2.016
 8009TIP3    H223992   4.335   1.411   2.097
 8010TIP3   OH223993   2.698   2.943   5.778
 8010TIP3    H123994   2.691   2.848   5.784
 8010TIP3    H223995   2.785   2.959   5.740
 8011TIP3   OH223996   3.073   4.695   1.999
 8011TIP3    H123997   2.984   4.662   1.995
 8011TIP3    H223998   3.113   4.668   1.916
 8012TIP3   OH223999   4.190   5.438   5.892
 8012TIP3    H124000   4.281   5.427   5.864
 8012TIP3    H224001   4.149   5.489   5.821
 8013TIP3   OH224002   3.809   5.481   0.198
 8013TIP3    H124003   3.873   5.489   0.127
 8013TIP3    H224004   3.861   5.455   0.274
 8014TIP3   OH224005   5.524   1.495   0.901
 8014TIP3    H124006   5.495   1.567   0.956
 8014TIP3    H224007   5.468   1.421   0.927
 8015TIP3   OH224008   1.891   2.763   3.235
 8015TIP3    H124009   1.874   2.829   3.302
 8015TIP3    H224010   1.823   2.697   3.246
 8016TIP3   OH224011   1.398   5.824   2.105
 8016TIP3    H124012   1.308   5.857   2.104
 8016TIP3    H224013   1.404   5.768   2.027
 8017TIP3   OH224014   0.022   3.865   1.595
 8017TIP3    H124015   0.026   3.953   1.633
 8017TIP3    H224016   0.063   3.809   1.660
 8018TIP3   OH224017   3.505   3.306   2.169
 8018TIP3    H124018   3.594   3.308   2.134
 8018TIP3    H224019   3.503   3.229   2.225
 8019TIP3   OH224020   4.284   4.761   0.292
 8019TIP3    H124021   4.205   4.775   0.346
 8019TIP3    H224022   4.354   4.802   0.343
 8020TIP3   OH224023   0.302   4.604   5.418
 8020TIP3    H124024   0.341   4.640   5.339
 8020TIP3    H224025   0.307   4.509   5.407
 8021TIP3   OH224026   5.163   1.861   0.500
 8021TIP3    H124027   5.102   1.849   0.426
 8021TIP3    H224028   5.231   1.796   0.486
 8022TIP3   OH224029   5.087   1.178   4.051
 8022TIP3    H124030   5.004   1.195   4.006
 8022TIP3    H224031   5.084   1.085   4.073
 8023TIP3   OH224032   3.107   3.019   0.492
 8023TIP3    H124033   3.161   3.095   0.514
 8023TIP3    H224034   3.133   2.952   0.555
 8024TIP3   OH224035   7.069   2.314   3.362
 8024TIP3    H124036   7.115   2.304   3.446
 8024TIP3    H224037   7.126   2.371   3.311
 8025TIP3   OH224038   6.255   3.584   2.247
 8025TIP3    H124039   6.163   3.611   2.249
 8025TIP3    H224040   6.254   3.493   2.277
 8026TIP3   OH224041   2.776   1.908   2.954
 8026TIP3    H124042   2.738   1.931   2.869
 8026TIP3    H224043   2.823   1.826   2.937
 8027TIP3   OH224044   6.993   1.076   4.769
 8027TIP3    H124045   7.073   1.111   4.806
 8027TIP3    H224046   6.936   1.152   4.757
 8028TIP3   OH224047   5.004   5.255   0.108
 8028TIP3    H124048   5.016   5.195   0.035
 8028TIP3    H224049   5.062   5.222   0.176
 8029TIP3   OH224050   5.093   4.686   4.930
 8029TIP3    H124051   5.018   4.673   4.989
 8029TIP3    H224052   5.124   4.597   4.911
 8030TIP3   OH224053   2.859   3.132   0.486
 8030TIP3    H124054   2.941   3.084   0.488
 8030TIP3    H224055   2.862   3.182   0.404
 8031TIP3   OH224056   5.021   2.044   3.008
 8031TIP3    H124057   4.927   2.032   3.024
 8031TIP3    H224058   5.046   2.117   3.065
 8032TIP3   OH224059   0.753   4.395   4.277
 8032TIP3    H124060   0.767   4.314   4.326
 8032TIP3    H224061   0.804   4.461   4.323
 8033TIP3   OH224062   6.756   1.512   2.849
 8033TIP3    H124063   6.713   1.588   2.887
 8033TIP3    H224064   6.849   1.533   2.853
 8034TIP3   OH224065   6.698   0.626   4.722
 8034TIP3    H124066   6.709   0.700   4.662
 8034TIP3    H224067   6.671   0.554   4.666
 8035TIP3   OH224068   6.422   2.018   4.873
 8035TIP3    H124069   6.333   2.003   4.840
 8035TIP3    H224070   6.424   1.972   4.957
 8036TIP3   OH224071   0.138   6.517   3.512
 8036TIP3    H124072   0.122   6.509   3.606
 8036TIP3    H224073   0.191   6.596   3.503
 8037TIP3   OH224074   6.265   5.062   0.534
 8037TIP3    H124075   6.324   5.060   0.609
 8037TIP3    H224076   6.228   5.150   0.534
 8038TIP3   OH224077   4.942   0.633   5.869
 8038TIP3    H124078   4.977   0.630   5.779
 8038TIP3    H224079   4.880   0.561   5.873
 8039TIP3   OH224080   0.434   1.667   0.911
 8039TIP3    H124081   0.522   1.674   0.947
 8039TIP3    H224082   0.416   1.573   0.909
 8040TIP3   OH224083   4.726   5.352   3.402
 8040TIP3    H124084   4.819   5.372   3.392
 8040TIP3    H224085   4.714   5.269   3.356
 8041TIP3   OH224086   0.970   3.568   0.333
 8041TIP3    H124087   1.019   3.523   0.401
 8041TIP3    H224088   1.032   3.633   0.298
 8042TIP3   OH224089   2.757   3.999   1.760
 8042TIP3    H124090   2.694   3.931   1.785
 8042TIP3    H224091   2.752   4.002   1.665
 8043TIP3   OH224092   6.366   3.406   2.625
 8043TIP3    H124093   6.381   3.327   2.572
 8043TIP3    H224094   6.274   3.401   2.649
 8044TIP3   OH224095   1.456   0.509   3.914
 8044TIP3    H124096   1.517   0.444   3.949
 8044TIP3    H224097   1.369   0.478   3.941
 8045TIP3   OH224098   3.122   2.560   3.432
 8045TIP3    H124099   3.135   2.470   3.463
 8045TIP3    H224100   3.041   2.589   3.475
 8046TIP3   OH224101   4.209   2.952   5.436
 8046TIP3    H124102   4.270   2.909   5.496
 8046TIP3    H224103   4.217   3.045   5.457
 8047TIP3   OH224104   5.678   4.338   3.708
 8047TIP3    H124105   5.706   4.423   3.739
 8047TIP3    H224106   5.673   4.347   3.613
 8048TIP3   OH224107   0.645   2.890   4.378
 8048TIP3    H124108   0.632   2.811   4.326
 8048TIP3    H224109   0.654   2.960   4.313
 8049TIP3   OH224110   0.468   1.585   1.732
 8049TIP3    H124111   0.486   1.521   1.662
 8049TIP3    H224112   0.536   1.652   1.721
 8050TIP3   OH224113   5.738   0.030   3.254
 8050TIP3    H124114   5.752   0.089   3.328
 8050TIP3    H224115   5.753  -0.058   3.289
 8051TIP3   OH224116   6.777   6.657   4.085
 8051TIP3    H124117   6.704   6.680   4.028
 8051TIP3    H224118   6.745   6.674   4.173
 8052TIP3   OH224119   4.208   3.164   5.085
 8052TIP3    H124120   4.243   3.234   5.141
 8052TIP3    H224121   4.214   3.200   4.996
 8053TIP3   OH224122   5.399   1.475   3.077
 8053TIP3    H124123   5.347   1.400   3.048
 8053TIP3    H224124   5.461   1.489   3.006
 8054TIP3   OH224125   3.710   0.587   2.598
 8054TIP3    H124126   3.748   0.597   2.685
 8054TIP3    H224127   3.746   0.660   2.547
 8055TIP3   OH224128   2.827   5.829   1.007
 8055TIP3    H124129   2.829   5.796   0.917
 8055TIP3    H224130   2.832   5.924   0.998
 8056TIP3   OH224131   2.015   6.750   3.738
 8056TIP3    H124132   2.082   6.777   3.800
 8056TIP3    H224133   1.966   6.681   3.783
 8057TIP3   OH224134   4.209   1.900   5.205
 8057TIP3    H124135   4.278   1.900   5.271
 8057TIP3    H224136   4.256   1.892   5.122
 8058TIP3   OH224137   2.581   3.655   3.901
 8058TIP3    H124138   2.514   3.654   3.969
 8058TIP3    H224139   2.609   3.746   3.897
 8059TIP3   OH224140   4.865   3.087   5.391
 8059TIP3    H124141   4.772   3.066   5.396
 8059TIP3    H224142   4.868   3.181   5.372
 8060TIP3   OH224143   2.307   2.392   2.815
 8060TIP3    H124144   2.397   2.394   2.847
 8060TIP3    H224145   2.310   2.334   2.739
 8061TIP3   OH224146   1.831   1.146   4.652
 8061TIP3    H124147   1.757   1.087   4.671
 8061TIP3    H224148   1.794   1.211   4.592
 8062TIP3   OH224149   6.556   1.181   0.197
 8062TIP3    H124150   6.611   1.131   0.257
 8062TIP3    H224151   6.519   1.116   0.137
 8063TIP3   OH224152   7.215   1.719   3.707
 8063TIP3    H124153   7.189   1.811   3.697
 8063TIP3    H224154   7.172   1.674   3.634
 8064TIP3   OH224155   3.750   2.630   2.234
 8064TIP3    H124156   3.690   2.620   2.160
 8064TIP3    H224157   3.715   2.705   2.283
 8065TIP3   OH224158   2.044   5.205   2.371
 8065TIP3    H124159   1.959   5.198   2.328
 8065TIP3    H224160   2.050   5.127   2.426
 8066TIP3   OH224161   0.029   1.734   0.247
 8066TIP3    H124162  -0.021   1.718   0.327
 8066TIP3    H224163   0.110   1.685   0.260
 8067TIP3   OH224164   0.766   6.203   2.384
 8067TIP3    H124165   0.847   6.182   2.338
 8067TIP3    H224166   0.727   6.118   2.404
 8068TIP3   OH224167   1.479   4.722   5.665
 8068TIP3    H124168   1.555   4.712   5.722
 8068TIP3    H224169   1.441   4.806   5.691
 8069TIP3   OH224170   0.665   0.517   1.050
 8069TIP3    H124171   0.599   0.562   0.997
 8069TIP3    H224172   0.745   0.522   0.998
 8070TIP3   OH224173   1.159   5.443   5.125
 8070TIP3    H124174   1.073   5.402   5.134
 8070TIP3    H224175   1.207   5.386   5.065
 8071TIP3   OH224176   1.329   2.742   1.878
 8071TIP3    H124177   1.403   2.697   1.920
 8071TIP3    H224178   1.371   2.811   1.826
 8072TIP3   OH224179   4.372   1.260   2.434
 8072TIP3    H124180   4.290   1.308   2.417
 8072TIP3    H224181   4.376   1.195   2.363
 8073TIP3   OH224182   1.549   4.430   5.623
 8073TIP3    H124183   1.578   4.521   5.630
 8073TIP3    H224184   1.630   4.380   5.620
 8074TIP3   OH224185   1.735   0.580   1.230
 8074TIP3    H124186   1.666   0.640   1.203
 8074TIP3    H224187   1.762   0.612   1.316
 8075TIP3   OH224188   5.191   3.050   3.417
 8075TIP3    H124189   5.121   3.016   3.474
 8075TIP3    H224190   5.259   3.078   3.478
 8076TIP3   OH224191   1.994   4.500   1.508
 8076TIP3    H124192   2.026   4.414   1.536
 8076TIP3    H224193   1.960   4.540   1.589
 8077TIP3   OH224194   2.568   2.733   0.458
 8077TIP3    H124195   2.568   2.820   0.499
 8077TIP3    H224196   2.491   2.690   0.495
 8078TIP3   OH224197   1.198   0.235   2.585
 8078TIP3    H124198   1.110   0.197   2.582
 8078TIP3    H224199   1.214   0.248   2.678
 8079TIP3   OH224200   3.287   2.377   4.632
 8079TIP3    H124201   3.196   2.354   4.612
 8079TIP3    H224202   3.291   2.472   4.620
 8080TIP3   OH224203   1.842   1.439   3.315
 8080TIP3    H124204   1.868   1.395   3.395
 8080TIP3    H224205   1.871   1.530   3.327
 8081TIP3   OH224206   1.714   0.688   2.803
 8081TIP3    H124207   1.695   0.781   2.815
 8081TIP3    H224208   1.660   0.644   2.870
 8082TIP3   OH224209   6.340   2.964   2.012
 8082TIP3    H124210   6.352   2.969   1.917
 8082TIP3    H224211   6.254   2.925   2.023
 8083TIP3   OH224212   1.117   2.473   2.603
 8083TIP3    H124213   1.116   2.472   2.699
 8083TIP3    H224214   1.026   2.494   2.579
 8084TIP3   OH224215   1.025   4.024   5.896
 8084TIP3    H124216   1.022   4.117   5.917
 8084TIP3    H224217   1.002   4.020   5.803
 8085TIP3   OH224218   5.406   1.067   0.232
 8085TIP3    H124219   5.493   1.106   0.241
 8085TIP3    H224220   5.351   1.115   0.294
 8086TIP3   OH224221   1.514   3.392   5.641
 8086TIP3    H124222   1.516   3.315   5.698
 8086TIP3    H224223   1.571   3.455   5.685
 8087TIP3   OH224224   5.349   2.946   0.868
 8087TIP3    H124225   5.379   2.884   0.801
 8087TIP3    H224226   5.404   3.023   0.856
 8088TIP3   OH224227   4.355   4.782   1.051
 8088TIP3    H124228   4.337   4.742   1.136
 8088TIP3    H224229   4.326   4.718   0.987
 8089TIP3   OH224230   0.504   5.088   3.505
 8089TIP3    H124231   0.420   5.123   3.532
 8089TIP3    H224232   0.563   5.107   3.578
 8090TIP3   OH224233   1.367   1.111   1.957
 8090TIP3    H124234   1.446   1.059   1.944
 8090TIP3    H224235   1.313   1.058   2.016
 8091TIP3   OH224236   0.533   6.410   0.437
 8091TIP3    H124237   0.451   6.392   0.391
 8091TIP3    H224238   0.601   6.393   0.372
 8092TIP3   OH224239   2.673   0.366   0.284
 8092TIP3    H124240   2.733   0.441   0.273
 8092TIP3    H224241   2.676   0.348   0.378
 8093TIP3   OH224242   2.822   4.829   5.706
 8093TIP3    H124243   2.829   4.867   5.619
 8093TIP3    H224244   2.770   4.750   5.694
 8094TIP3   OH224245   3.832   1.394   1.280
 8094TIP3    H124246   3.927   1.391   1.289
 8094TIP3    H224247   3.810   1.487   1.291
 8095TIP3   OH224248   4.300   0.455   0.276
 8095TIP3    H124249   4.280   0.362   0.262
 8095TIP3    H224250   4.223   0.489   0.323
 8096TIP3   OH224251   5.425   4.538   1.736
 8096TIP3    H124252   5.355   4.475   1.718
 8096TIP3    H224253   5.431   4.591   1.657
 8097TIP3   OH224254   1.825   4.211   3.160
 8097TIP3    H124255   1.846   4.188   3.250
 8097TIP3    H224256   1.903   4.254   3.127
 8098TIP3   OH224257   0.169   6.587   0.414
 8098TIP3    H124258   0.215   6.504   0.424
 8098TIP3    H224259   0.236   6.654   0.428
 8099TIP3   OH224260   0.705   0.692   4.818
 8099TIP3    H124261   0.637   0.690   4.884
 8099TIP3    H224262   0.660   0.717   4.737
 8100TIP3   OH224263   4.522   2.646   1.785
 8100TIP3    H124264   4.513   2.678   1.875
 8100TIP3    H224265   4.602   2.686   1.753
 8101TIP3   OH224266   5.465   2.468   3.328
 8101TIP3    H124267   5.473   2.463   3.232
 8101TIP3    H224268   5.381   2.427   3.347
 8102TIP3   OH224269   3.385   5.368   0.782
 8102TIP3    H124270   3.336   5.289   0.807
 8102TIP3    H224271   3.434   5.391   0.861
 8103TIP3   OH224272   2.715   4.761   3.135
 8103TIP3    H124273   2.741   4.672   3.158
 8103TIP3    H224274   2.785   4.793   3.078
 8104TIP3   OH224275   2.483   3.404   2.429
 8104TIP3    H124276   2.490   3.389   2.523
 8104TIP3    H224277   2.563   3.453   2.406
 8105TIP3   OH224278   0.700   5.630   4.473
 8105TIP3    H124279   0.637   5.694   4.507
 8105TIP3    H224280   0.757   5.611   4.547
 8106TIP3   OH224281   6.268   1.797   3.792
 8106TIP3    H124282   6.241   1.705   3.796
 8106TIP3    H224283   6.215   1.835   3.722
 8107TIP3   OH224284   4.115   5.099   4.915
 8107TIP3    H124285   4.167   5.083   4.837
 8107TIP3    H224286   4.100   5.012   4.953
 8108TIP3   OH224287   5.461   0.702   0.526
 8108TIP3    H124288   5.417   0.705   0.611
 8108TIP3    H224289   5.543   0.655   0.543
 8109TIP3   OH224290   6.144   4.459   1.489
 8109TIP3    H124291   6.127   4.367   1.467
 8109TIP3    H224292   6.072   4.507   1.447
 8110TIP3   OH224293   2.197   2.925   1.078
 8110TIP3    H124294   2.155   2.992   1.024
 8110TIP3    H224295   2.166   2.944   1.167
 8111TIP3   OH224296   5.281   3.275   2.626
 8111TIP3    H124297   5.234   3.297   2.707
 8111TIP3    H224298   5.373   3.289   2.647
 8112TIP3   OH224299   3.969   3.613   5.768
 8112TIP3    H124300   3.992   3.681   5.705
 8112TIP3    H224301   3.899   3.564   5.726
 8113TIP3   OH224302   2.600   5.993   1.838
 8113TIP3    H124303   2.586   5.989   1.933
 8113TIP3    H224304   2.513   6.004   1.801
 8114TIP3   OH224305   3.669   6.177   5.356
 8114TIP3    H124306   3.752   6.223   5.342
 8114TIP3    H224307   3.679   6.094   5.310
 8115TIP3   OH224308   6.514   4.444   0.393
 8115TIP3    H124309   6.502   4.361   0.347
 8115TIP3    H224310   6.545   4.419   0.480
 8116TIP3   OH224311   5.175   4.409   4.866
 8116TIP3    H124312   5.236   4.372   4.803
 8116TIP3    H224313   5.220   4.406   4.950
 8117TIP3   OH224314   1.191   5.583   4.280
 8117TIP3    H124315   1.152   5.589   4.367
 8117TIP3    H224316   1.283   5.564   4.296
 8118TIP3   OH224317   3.097   3.464   2.733
 8118TIP3    H124318   3.030   3.495   2.672
 8118TIP3    H224319   3.175   3.515   2.710
 8119TIP3   OH224320   0.342   3.741   0.320
 8119TIP3    H124321   0.412   3.727   0.256
 8119TIP3    H224322   0.310   3.829   0.301
 8120TIP3   OH224323   0.657   1.408   3.651
 8120TIP3    H124324   0.625   1.452   3.572
 8120TIP3    H224325   0.611   1.324   3.651
 8121TIP3   OH224326   6.055   0.318   1.713
 8121TIP3    H124327   6.104   0.312   1.631
 8121TIP3    H224328   6.107   0.268   1.775
 8122TIP3   OH224329   6.957   6.148   1.519
 8122TIP3    H124330   6.924   6.092   1.449
 8122TIP3    H224331   6.885   6.207   1.538
 8123TIP3   OH224332   5.253   6.298   4.367
 8123TIP3    H124333   5.258   6.386   4.405
 8123TIP3    H224334   5.160   6.285   4.349
 8124TIP3   OH224335   4.361   1.637   1.478
 8124TIP3    H124336   4.390   1.666   1.564
 8124TIP3    H224337   4.402   1.700   1.417
 8125TIP3   OH224338   1.837   0.222   0.363
 8125TIP3    H124339   1.809   0.140   0.403
 8125TIP3    H224340   1.760   0.253   0.315
 8126TIP3   OH224341   0.861   4.945   3.201
 8126TIP3    H124342   0.928   5.008   3.227
 8126TIP3    H224343   0.778   4.988   3.221
 8127TIP3   OH224344   7.066   5.048   5.133
 8127TIP3    H124345   7.012   5.020   5.059
 8127TIP3    H224346   7.005   5.055   5.206
 8128TIP3   OH224347   2.231   2.729   3.697
 8128TIP3    H124348   2.137   2.732   3.714
 8128TIP3    H224349   2.239   2.746   3.603
 8129TIP3   OH224350   5.171   6.352   1.150
 8129TIP3    H124351   5.219   6.293   1.209
 8129TIP3    H224352   5.237   6.415   1.121
 8130TIP3   OH224353   1.055   2.607   5.604
 8130TIP3    H124354   1.106   2.600   5.523
 8130TIP3    H224355   1.119   2.639   5.669
 8131TIP3   OH224356   0.743   0.874   3.573
 8131TIP3    H124357   0.837   0.862   3.589
 8131TIP3    H224358   0.701   0.816   3.638
 8132TIP3   OH224359   0.092   6.132   2.101
 8132TIP3    H124360   0.064   6.223   2.105
 8132TIP3    H224361   0.161   6.126   2.167
 8133TIP3   OH224362   1.960   1.531   1.151
 8133TIP3    H124363   1.950   1.509   1.058
 8133TIP3    H224364   1.890   1.482   1.195
 8134TIP3   OH224365   3.502   3.526   1.471
 8134TIP3    H124366   3.454   3.506   1.551
 8134TIP3    H224367   3.522   3.619   1.477
 8135TIP3   OH224368   5.331   6.418   1.695
 8135TIP3    H124369   5.309   6.493   1.751
 8135TIP3    H224370   5.254   6.362   1.699
 8136TIP3   OH224371   4.487   6.649   1.568
 8136TIP3    H124372   4.423   6.694   1.623
 8136TIP3    H224373   4.443   6.569   1.540
 8137TIP3   OH224374   2.252   6.474   2.749
 8137TIP3    H124375   2.253   6.430   2.834
 8137TIP3    H224376   2.292   6.559   2.766
 8138TIP3   OH224377   4.638   0.926   4.423
 8138TIP3    H124378   4.554   0.932   4.470
 8138TIP3    H224379   4.615   0.892   4.337
 8139TIP3   OH224380   3.767   3.744   1.505
 8139TIP3    H124381   3.774   3.756   1.411
 8139TIP3    H224382   3.675   3.760   1.525
 8140TIP3   OH224383   5.325   2.284   5.120
 8140TIP3    H124384   5.288   2.261   5.205
 8140TIP3    H224385   5.395   2.346   5.141
 8141TIP3   OH224386   1.442   2.054   3.232
 8141TIP3    H124387   1.369   2.012   3.186
 8141TIP3    H224388   1.519   2.004   3.205
 8142TIP3   OH224389   4.637   1.425   4.030
 8142TIP3    H124390   4.571   1.467   4.086
 8142TIP3    H224391   4.700   1.494   4.011
 8143TIP3   OH224392   6.323   3.888   3.079
 8143TIP3    H124393   6.279   3.811   3.115
 8143TIP3    H224394   6.389   3.853   3.020
 8144TIP3   OH224395   1.216   0.904   1.594
 8144TIP3    H124396   1.139   0.960   1.584
 8144TIP3    H224397   1.286   0.963   1.621
 8145TIP3   OH224398   0.050   0.213   3.598
 8145TIP3    H124399   0.138   0.184   3.620
 8145TIP3    H224400   0.013   0.242   3.681
 8146TIP3   OH224401   6.670   5.670   1.779
 8146TIP3    H124402   6.694   5.578   1.768
 8146TIP3    H224403   6.591   5.668   1.832
 8147TIP3   OH224404   5.927   5.584   2.242
 8147TIP3    H124405   5.939   5.610   2.151
 8147TIP3    H224406   6.015   5.590   2.280
 8148TIP3   OH224407   1.755   1.838   4.425
 8148TIP3    H124408   1.822   1.905   4.412
 8148TIP3    H224409   1.687   1.881   4.476
 8149TIP3   OH224410   3.838   3.414   3.576
 8149TIP3    H124411   3.800   3.418   3.488
 8149TIP3    H224412   3.762   3.421   3.634
 8150TIP3   OH224413   3.644   1.124   5.840
 8150TIP3    H124414   3.648   1.035   5.805
 8150TIP3    H224415   3.593   1.115   5.921
 8151TIP3   OH224416   0.298   0.494   5.105
 8151TIP3    H124417   0.251   0.563   5.151
 8151TIP3    H224418   0.296   0.420   5.166
 8152TIP3   OH224419   5.330   3.011   0.018
 8152TIP3    H124420   5.312   3.100  -0.013
 8152TIP3    H224421   5.423   3.013   0.043
 8153TIP3   OH224422   5.026   1.783   0.782
 8153TIP3    H124423   5.053   1.754   0.695
 8153TIP3    H224424   5.095   1.751   0.840
 8154TIP3   OH224425   4.290   3.102   4.054
 8154TIP3    H124426   4.249   3.105   3.967
 8154TIP3    H224427   4.287   3.010   4.079
 8155TIP3   OH224428   4.543   5.091   3.566
 8155TIP3    H124429   4.591   5.124   3.490
 8155TIP3    H224430   4.527   4.999   3.545
 8156TIP3   OH224431   4.612   0.028   3.289
 8156TIP3    H124432   4.690   0.083   3.283
 8156TIP3    H224433   4.550   0.080   3.341
 8157TIP3   OH224434   0.080   5.768   3.305
 8157TIP3    H124435   0.062   5.739   3.395
 8157TIP3    H224436  -0.003   5.760   3.260
 8158TIP3   OH224437   2.494   1.306   4.557
 8158TIP3    H124438   2.526   1.279   4.471
 8158TIP3    H224439   2.529   1.239   4.617
 8159TIP3   OH224440   5.544   3.570   2.912
 8159TIP3    H124441   5.534   3.655   2.869
 8159TIP3    H224442   5.545   3.507   2.840
 8160TIP3   OH224443   4.117   5.401   5.265
 8160TIP3    H124444   4.120   5.380   5.358
 8160TIP3    H224445   4.166   5.329   5.223
 8161TIP3   OH224446   4.451   4.091   0.475
 8161TIP3    H124447   4.519   4.131   0.529
 8161TIP3    H224448   4.475   3.999   0.470
 8162TIP3   OH224449   1.505   5.960   5.864
 8162TIP3    H124450   1.479   6.040   5.909
 8162TIP3    H224451   1.425   5.929   5.822
 8163TIP3   OH224452   0.127   3.319   5.551
 8163TIP3    H124453   0.153   3.374   5.625
 8163TIP3    H224454   0.135   3.377   5.475
 8164TIP3   OH224455   4.632   2.225   1.387
 8164TIP3    H124456   4.645   2.189   1.475
 8164TIP3    H224457   4.614   2.318   1.402
 8165TIP3   OH224458   1.075   1.207   0.993
 8165TIP3    H124459   0.988   1.166   0.999
 8165TIP3    H224460   1.115   1.190   1.078
 8166TIP3   OH224461   4.972   1.693   1.355
 8166TIP3    H124462   4.993   1.600   1.349
 8166TIP3    H224463   4.981   1.726   1.265
 8167TIP3   OH224464   5.785   0.470   5.659
 8167TIP3    H124465   5.714   0.430   5.710
 8167TIP3    H224466   5.861   0.469   5.718
 8168TIP3   OH224467   6.841   0.913   3.418
 8168TIP3    H124468   6.769   0.951   3.468
 8168TIP3    H224469   6.916   0.969   3.437
 8169TIP3   OH224470   3.287   0.252   2.782
 8169TIP3    H124471   3.359   0.192   2.766
 8169TIP3    H224472   3.237   0.251   2.700
 8170TIP3   OH224473   3.461   3.473   3.473
 8170TIP3    H124474   3.453   3.557   3.517
 8170TIP3    H224475   3.372   3.454   3.441
 8171TIP3   OH224476   3.643   2.999   1.439
 8171TIP3    H124477   3.728   3.032   1.470
 8171TIP3    H224478   3.581   3.069   1.459
 8172TIP3   OH224479   4.411   1.562   4.044
 8172TIP3    H124480   4.454   1.636   4.002
 8172TIP3    H224481   4.320   1.566   4.015
 8173TIP3   OH224482   2.287   5.243   2.259
 8173TIP3    H124483   2.329   5.194   2.330
 8173TIP3    H224484   2.194   5.243   2.281
 8174TIP3   OH224485   5.294   6.512   5.199
 8174TIP3    H124486   5.211   6.529   5.155
 8174TIP3    H224487   5.322   6.427   5.163
 8175TIP3   OH224488   3.028   1.143   0.638
 8175TIP3    H124489   2.981   1.224   0.658
 8175TIP3    H224490   3.108   1.171   0.594
 8176TIP3   OH224491   2.602   4.281   2.017
 8176TIP3    H124492   2.562   4.228   2.086
 8176TIP3    H224493   2.544   4.270   1.942
 8177TIP3   OH224494   0.237   5.931   3.510
 8177TIP3    H124495   0.206   6.021   3.507
 8177TIP3    H224496   0.206   5.892   3.428
 8178TIP3   OH224497   0.626   6.374   3.345
 8178TIP3    H124498   0.547   6.348   3.298
 8178TIP3    H224499   0.698   6.348   3.287
 8179TIP3   OH224500   0.025   1.541   4.320
 8179TIP3    H124501   0.042   1.634   4.302
 8179TIP3    H224502   0.107   1.497   4.298
 8180TIP3   OH224503   6.375   2.844   3.965
 8180TIP3    H124504   6.330   2.870   3.884
 8180TIP3    H224505   6.386   2.749   3.957
 8181TIP3   OH224506   5.811   3.286   4.055
 8181TIP3    H124507   5.822   3.232   4.133
 8181TIP3    H224508   5.782   3.371   4.088
 8182TIP3   OH224509   5.435   3.683   4.973
 8182TIP3    H124510   5.474   3.769   4.962
 8182TIP3    H224511   5.341   3.700   4.982
 8183TIP3   OH224512   0.552   6.297   4.175
 8183TIP3    H124513   0.552   6.213   4.129
 8183TIP3    H224514   0.466   6.302   4.217
 8184TIP3   OH224515   3.029   1.771   3.260
 8184TIP3    H124516   3.024   1.850   3.206
 8184TIP3    H224517   2.960   1.782   3.325
 8185TIP3   OH224518   1.337   4.638   4.237
 8185TIP3    H124519   1.276   4.672   4.303
 8185TIP3    H224520   1.311   4.681   4.155
 8186TIP3   OH224521   6.102   3.484   0.912
 8186TIP3    H124522   6.191   3.464   0.885
 8186TIP3    H224523   6.046   3.429   0.857
 8187TIP3   OH224524   0.120   5.206   0.391
 8187TIP3    H124525   0.121   5.297   0.359
 8187TIP3    H224526   0.174   5.207   0.469
 8188TIP3   OH224527   1.677   2.035   2.784
 8188TIP3    H124528   1.752   1.975   2.794
 8188TIP3    H224529   1.691   2.102   2.850
 8189TIP3   OH224530   1.984   0.474   4.375
 8189TIP3    H124531   1.900   0.518   4.393
 8189TIP3    H224532   2.050   0.539   4.399
 8190TIP3   OH224533   5.890   3.358   2.859
 8190TIP3    H124534   5.864   3.283   2.805
 8190TIP3    H224535   5.980   3.377   2.831
 8191TIP3   OH224536   0.286   6.518   4.561
 8191TIP3    H124537   0.298   6.564   4.478
 8191TIP3    H224538   0.373   6.518   4.601
 8192TIP3   OH224539   3.265   5.321   4.119
 8192TIP3    H124540   3.311   5.389   4.071
 8192TIP3    H224541   3.206   5.282   4.055
 8193TIP3   OH224542   6.365   2.312   0.257
 8193TIP3    H124543   6.429   2.354   0.199
 8193TIP3    H224544   6.404   2.227   0.278
 8194TIP3   OH224545   5.930   3.759   1.672
 8194TIP3    H124546   5.987   3.800   1.607
 8194TIP3    H224547   5.920   3.825   1.740
 8195TIP3   OH224548   0.842   1.238   1.210
 8195TIP3    H124549   0.817   1.241   1.303
 8195TIP3    H224550   0.834   1.328   1.180
 8196TIP3   OH224551   5.113   6.627   2.348
 8196TIP3    H124552   5.027   6.585   2.336
 8196TIP3    H224553   5.169   6.586   2.282
 8197TIP3   OH224554   3.510   1.802   5.184
 8197TIP3    H124555   3.450   1.777   5.254
 8197TIP3    H224556   3.502   1.897   5.178
 8198TIP3   OH224557   1.353   1.224   4.161
 8198TIP3    H124558   1.408   1.192   4.233
 8198TIP3    H224559   1.277   1.165   4.161
 8199TIP3   OH224560   5.501   4.952   3.741
 8199TIP3    H124561   5.564   4.972   3.671
 8199TIP3    H224562   5.553   4.905   3.807
 8200TIP3   OH224563   4.259   6.607   4.598
 8200TIP3    H124564   4.272   6.536   4.660
 8200TIP3    H224565   4.164   6.622   4.597
 8201TIP3   OH224566   2.747   3.849   4.147
 8201TIP3    H124567   2.675   3.907   4.126
 8201TIP3    H224568   2.734   3.826   4.239
 8202TIP3   OH224569   1.070   3.502  -0.019
 8202TIP3    H124570   1.143   3.561  -0.001
 8202TIP3    H224571   1.063   3.447   0.059
 8203TIP3   OH224572   1.650   5.623   1.603
 8203TIP3    H124573   1.684   5.708   1.630
 8203TIP3    H224574   1.645   5.572   1.684
 8204TIP3   OH224575   6.783   5.355   0.474
 8204TIP3    H124576   6.788   5.294   0.548
 8204TIP3    H224577   6.864   5.341   0.425
 8205TIP3   OH224578   2.688   0.290   0.604
 8205TIP3    H124579   2.632   0.229   0.556
 8205TIP3    H224580   2.635   0.321   0.677
 8206TIP3   OH224581   1.509   0.979   3.810
 8206TIP3    H124582   1.540   0.889   3.816
 8206TIP3    H224583   1.418   0.976   3.840
 8207TIP3   OH224584   0.839   3.453   1.525
 8207TIP3    H124585   0.817   3.360   1.522
 8207TIP3    H224586   0.812   3.481   1.613
 8208TIP3   OH224587   6.274   0.056   5.532
 8208TIP3    H124588   6.280   0.025   5.623
 8208TIP3    H224589   6.310   0.144   5.533
 8209TIP3   OH224590   0.066   4.546   5.736
 8209TIP3    H124591  -0.017   4.543   5.784
 8209TIP3    H224592   0.042   4.536   5.644
 8210TIP3   OH224593   1.040   6.569   3.346
 8210TIP3    H124594   0.966   6.607   3.298
 8210TIP3    H224595   1.113   6.571   3.283
 8211TIP3   OH224596   5.391   0.114   5.607
 8211TIP3    H124597   5.308   0.080   5.641
 8211TIP3    H224598   5.458   0.065   5.655
 8212TIP3   OH224599   4.327   6.292   0.739
 8212TIP3    H124600   4.306   6.343   0.818
 8212TIP3    H224601   4.255   6.312   0.678
 8213TIP3   OH224602   5.213   5.569   3.889
 8213TIP3    H124603   5.190   5.644   3.942
 8213TIP3    H224604   5.134   5.551   3.837
 8214TIP3   OH224605   1.476   0.332   5.525
 8214TIP3    H124606   1.529   0.394   5.474
 8214TIP3    H224607   1.388   0.368   5.521
 8215TIP3   OH224608   2.548   3.046   3.773
 8215TIP3    H124609   2.473   3.105   3.766
 8215TIP3    H224610   2.512   2.963   3.803
 8216TIP3   OH224611   2.298   5.653   3.078
 8216TIP3    H124612   2.282   5.652   3.172
 8216TIP3    H224613   2.362   5.723   3.065
 8217TIP3   OH224614   5.875   2.073   0.296
 8217TIP3    H124615   5.870   1.986   0.255
 8217TIP3    H224616   5.952   2.069   0.352
 8218TIP3   OH224617   2.446   6.447   5.031
 8218TIP3    H124618   2.481   6.383   5.094
 8218TIP3    H224619   2.512   6.450   4.962
 8219TIP3   OH224620   0.787   3.204   1.597
 8219TIP3    H124621   0.834   3.176   1.675
 8219TIP3    H224622   0.711   3.145   1.591
 8220TIP3   OH224623   3.335   1.431   3.345
 8220TIP3    H124624   3.332   1.526   3.331
 8220TIP3    H224625   3.427   1.408   3.337
 8221TIP3   OH224626   5.726   2.532   0.251
 8221TIP3    H124627   5.682   2.476   0.187
 8221TIP3    H224628   5.794   2.475   0.289
 8222TIP3   OH224629   6.725   2.051   0.858
 8222TIP3    H124630   6.763   2.026   0.774
 8222TIP3    H224631   6.683   1.971   0.890
 8223TIP3   OH224632   1.241   5.594   3.477
 8223TIP3    H124633   1.240   5.529   3.548
 8223TIP3    H224634   1.263   5.544   3.399
 8224TIP3   OH224635   4.395   6.299   4.214
 8224TIP3    H124636   4.356   6.310   4.127
 8224TIP3    H224637   4.356   6.367   4.267
 8225TIP3   OH224638   0.873   1.412   5.228
 8225TIP3    H124639   0.829   1.332   5.257
 8225TIP3    H224640   0.815   1.483   5.256
 8226TIP3   OH224641   4.583   5.532   3.901
 8226TIP3    H124642   4.495   5.519   3.867
 8226TIP3    H224643   4.623   5.445   3.898
 8227TIP3   OH224644   2.490   6.725   3.505
 8227TIP3    H124645   2.470   6.638   3.538
 8227TIP3    H224646   2.582   6.720   3.478
 8228TIP3   OH224647   4.490   3.439   4.291
 8228TIP3    H124648   4.515   3.531   4.280
 8228TIP3    H224649   4.452   3.415   4.207
 8229TIP3   OH224650   4.308   0.672   0.560
 8229TIP3    H124651   4.269   0.589   0.589
 8229TIP3    H224652   4.237   0.735   0.566
 8230TIP3   OH224653   0.086   4.127   2.318
 8230TIP3    H124654   0.028   4.133   2.242
 8230TIP3    H224655   0.048   4.057   2.372
 8231TIP3   OH224656   2.961   1.932   3.649
 8231TIP3    H124657   3.000   1.847   3.672
 8231TIP3    H224658   2.897   1.911   3.581
 8232TIP3   OH224659   2.195   6.220   4.729
 8232TIP3    H124660   2.110   6.225   4.772
 8232TIP3    H224661   2.254   6.185   4.796
 8233TIP3   OH224662   4.840   5.439   2.294
 8233TIP3    H124663   4.874   5.471   2.210
 8233TIP3    H224664   4.749   5.469   2.296
 8234TIP3   OH224665   2.184   0.871   5.882
 8234TIP3    H124666   2.168   0.838   5.794
 8234TIP3    H224667   2.277   0.890   5.885
 8235TIP3   OH224668   5.872   1.359   4.752
 8235TIP3    H124669   5.817   1.287   4.721
 8235TIP3    H224670   5.814   1.435   4.752
 8236TIP3   OH224671   2.460   2.491   5.759
 8236TIP3    H124672   2.486   2.438   5.684
 8236TIP3    H224673   2.399   2.435   5.807
 8237TIP3   OH224674   4.926   4.138   4.568
 8237TIP3    H124675   4.924   4.216   4.623
 8237TIP3    H224676   4.856   4.152   4.503
 8238TIP3   OH224677   5.655   1.733   1.071
 8238TIP3    H124678   5.624   1.708   1.158
 8238TIP3    H224679   5.575   1.757   1.024
 8239TIP3   OH224680   4.722   0.195   3.639
 8239TIP3    H124681   4.754   0.106   3.625
 8239TIP3    H224682   4.797   0.243   3.671
 8240TIP3   OH224683   3.198   6.500   4.386
 8240TIP3    H124684   3.214   6.463   4.299
 8240TIP3    H224685   3.223   6.430   4.447
 8241TIP3   OH224686   4.557   4.291   3.568
 8241TIP3    H124687   4.641   4.283   3.613
 8241TIP3    H224688   4.503   4.223   3.607
 8242TIP3   OH224689   1.309   4.887   1.636
 8242TIP3    H124690   1.400   4.890   1.604
 8242TIP3    H224691   1.308   4.815   1.699
 8243TIP3   OH224692   2.926   5.005   3.166
 8243TIP3    H124693   2.988   5.073   3.192
 8243TIP3    H224694   2.886   4.976   3.249
 8244TIP3   OH224695   5.898   2.339   0.324
 8244TIP3    H124696   5.879   2.250   0.293
 8244TIP3    H224697   5.986   2.357   0.291
 8245TIP3   OH224698   4.977   1.421   0.783
 8245TIP3    H124699   5.071   1.424   0.764
 8245TIP3    H224700   4.953   1.330   0.770
 8246TIP3   OH224701   4.365   1.397   1.228
 8246TIP3    H124702   4.386   1.370   1.318
 8246TIP3    H224703   4.276   1.431   1.233
 8247TIP3   OH224704   5.354   1.294   1.248
 8247TIP3    H124705   5.338   1.374   1.198
 8247TIP3    H224706   5.448   1.279   1.241
 8248TIP3   OH224707   2.133   4.587   3.129
 8248TIP3    H124708   2.102   4.586   3.038
 8248TIP3    H224709   2.187   4.665   3.134
 8249TIP3   OH224710   7.095   0.508   3.990
 8249TIP3    H124711   7.019   0.461   4.024
 8249TIP3    H224712   7.126   0.560   4.063
 8250TIP3   OH224713   4.378   5.582   2.679
 8250TIP3    H124714   4.359   5.528   2.756
 8250TIP3    H224715   4.318   5.656   2.686
 8251TIP3   OH224716   0.163   0.093   2.611
 8251TIP3    H124717   0.072   0.120   2.622
 8251TIP3    H224718   0.205   0.168   2.568
 8252TIP3   OH224719   4.523   1.843   5.142
 8252TIP3    H124720   4.561   1.759   5.118
 8252TIP3    H224721   4.586   1.882   5.203
 8253TIP3   OH224722   0.284   5.786   4.957
 8253TIP3    H124723   0.340   5.812   4.884
 8253TIP3    H224724   0.197   5.820   4.934
 8254TIP3   OH224725   5.126   2.182   2.803
 8254TIP3    H124726   5.096   2.119   2.869
 8254TIP3    H224727   5.206   2.144   2.768
 8255TIP3   OH224728   2.328   1.055   0.903
 8255TIP3    H124729   2.406   1.106   0.881
 8255TIP3    H224730   2.293   1.027   0.818
 8256TIP3   OH224731   6.384   3.099   3.293
 8256TIP3    H124732   6.432   3.134   3.218
 8256TIP3    H224733   6.443   3.113   3.368
 8257TIP3   OH224734   3.524   2.267   4.617
 8257TIP3    H124735   3.566   2.353   4.619
 8257TIP3    H224736   3.430   2.287   4.625
 8258TIP3   OH224737   6.668   1.902   5.162
 8258TIP3    H124738   6.674   1.943   5.248
 8258TIP3    H224739   6.576   1.879   5.152
 8259TIP3   OH224740   1.127   5.135   3.769
 8259TIP3    H124741   1.079   5.150   3.688
 8259TIP3    H224742   1.199   5.198   3.766
 8260TIP3   OH224743   1.789   0.864   1.773
 8260TIP3    H124744   1.728   0.892   1.842
 8260TIP3    H224745   1.742   0.882   1.692
 8261TIP3   OH224746   6.315   6.335   1.399
 8261TIP3    H124747   6.387   6.277   1.373
 8261TIP3    H224748   6.240   6.276   1.409
 8262TIP3   OH224749   3.069   4.789   4.492
 8262TIP3    H124750   3.132   4.816   4.425
 8262TIP3    H224751   2.997   4.851   4.483
 8263TIP3   OH224752   4.236   2.001   4.430
 8263TIP3    H124753   4.142   2.011   4.412
 8263TIP3    H224754   4.279   2.032   4.351
 8264TIP3   OH224755   1.323   4.067   0.629
 8264TIP3    H124756   1.402   4.067   0.683
 8264TIP3    H224757   1.300   3.975   0.620
 8265TIP3   OH224758   5.434   1.010   2.859
 8265TIP3    H124759   5.517   1.053   2.837
 8265TIP3    H224760   5.369   1.081   2.859
 8266TIP3   OH224761   3.816   4.310   0.459
 8266TIP3    H124762   3.889   4.291   0.399
 8266TIP3    H224763   3.856   4.307   0.546
 8267TIP3   OH224764   4.352   0.397   0.013
 8267TIP3    H124765   4.278   0.436  -0.033
 8267TIP3    H224766   4.336   0.416   0.105
 8268TIP3   OH224767   4.133   2.236   2.195
 8268TIP3    H124768   4.122   2.270   2.284
 8268TIP3    H224769   4.182   2.303   2.148
 8269TIP3   OH224770   2.046   0.144   2.948
 8269TIP3    H124771   2.011   0.098   2.872
 8269TIP3    H224772   2.095   0.217   2.912
 8270TIP3   OH224773   3.752   5.870   0.261
 8270TIP3    H124774   3.739   5.812   0.336
 8270TIP3    H224775   3.664   5.890   0.230
 8271TIP3   OH224776   1.247   4.221   1.789
 8271TIP3    H124777   1.190   4.274   1.844
 8271TIP3    H224778   1.265   4.143   1.840
 8272TIP3   OH224779   2.144   2.120   2.444
 8272TIP3    H124780   2.110   2.203   2.411
 8272TIP3    H224781   2.067   2.076   2.481
 8273TIP3   OH224782   3.931   0.710   4.873
 8273TIP3    H124783   3.909   0.684   4.963
 8273TIP3    H224784   3.950   0.627   4.829
 8274TIP3   OH224785   6.114   2.483   2.259
 8274TIP3    H124786   6.136   2.400   2.217
 8274TIP3    H224787   6.018   2.486   2.257
 8275TIP3   OH224788   5.515   5.312   1.068
 8275TIP3    H124789   5.464   5.294   1.147
 8275TIP3    H224790   5.605   5.288   1.092
 8276TIP3   OH224791   0.360   4.290   4.024
 8276TIP3    H124792   0.453   4.312   4.021
 8276TIP3    H224793   0.333   4.312   4.113
 8277TIP3   OH224794   3.141   4.817   5.331
 8277TIP3    H124795   3.048   4.798   5.324
 8277TIP3    H224796   3.146   4.890   5.392
 8278TIP3   OH224797   5.847   3.387   1.036
 8278TIP3    H124798   5.918   3.444   1.006
 8278TIP3    H224799   5.802   3.359   0.957
 8279TIP3   OH224800   0.472   0.193   4.711
 8279TIP3    H124801   0.426   0.138   4.648
 8279TIP3    H224802   0.407   0.215   4.777
 8280TIP3   OH224803   1.458   6.134   5.144
 8280TIP3    H124804   1.477   6.117   5.051
 8280TIP3    H224805   1.469   6.048   5.186
 8281TIP3   OH224806   0.728   4.110   0.322
 8281TIP3    H124807   0.815   4.145   0.306
 8281TIP3    H224808   0.743   4.028   0.369
 8282TIP3   OH224809   7.054   3.823   2.688
 8282TIP3    H124810   7.006   3.859   2.763
 8282TIP3    H224811   7.020   3.735   2.678
 8283TIP3   OH224812   1.946   5.071   3.753
 8283TIP3    H124813   1.892   5.054   3.676
 8283TIP3    H224814   1.941   5.165   3.766
 8284TIP3   OH224815   6.886   0.158   5.167
 8284TIP3    H124816   6.936   0.232   5.133
 8284TIP3    H224817   6.941   0.082   5.151
 8285TIP3   OH224818   4.222   4.163   5.386
 8285TIP3    H124819   4.311   4.133   5.403
 8285TIP3    H224820   4.229   4.258   5.381
 8286TIP3   OH224821   1.493   6.799   1.541
 8286TIP3    H124822   1.526   6.723   1.493
 8286TIP3    H224823   1.426   6.764   1.600
 8287TIP3   OH224824   2.421   5.620   0.940
 8287TIP3    H124825   2.490   5.556   0.924
 8287TIP3    H224826   2.384   5.637   0.854
 8288TIP3   OH224827   2.682   0.522   5.105
 8288TIP3    H124828   2.701   0.561   5.020
 8288TIP3    H224829   2.622   0.583   5.147
 8289TIP3   OH224830   5.356   0.553   2.052
 8289TIP3    H124831   5.296   0.621   2.020
 8289TIP3    H224832   5.440   0.574   2.010
 8290TIP3   OH224833   5.484   0.259   0.860
 8290TIP3    H124834   5.572   0.226   0.877
 8290TIP3    H224835   5.470   0.243   0.767
 8291TIP3   OH224836   6.539   2.783   0.159
 8291TIP3    H124837   6.598   2.728   0.210
 8291TIP3    H224838   6.481   2.823   0.224
 8292TIP3   OH224839   6.903   6.769   2.354
 8292TIP3    H124840   6.876   6.731   2.271
 8292TIP3    H224841   6.865   6.857   2.354
 8293TIP3   OH224842   1.217   3.460   2.405
 8293TIP3    H124843   1.129   3.421   2.406
 8293TIP3    H224844   1.250   3.443   2.317
 8294TIP3   OH224845   3.631   4.274   4.023
 8294TIP3    H124846   3.720   4.257   3.991
 8294TIP3    H224847   3.639   4.274   4.118
 8295TIP3   OH224848   5.060   1.906   4.354
 8295TIP3    H124849   5.112   1.827   4.370
 8295TIP3    H224850   5.117   1.978   4.382
 8296TIP3   OH224851   1.584   6.192   0.509
 8296TIP3    H124852   1.608   6.115   0.457
 8296TIP3    H224853   1.606   6.266   0.453
 8297TIP3   OH224854   3.919   4.217   3.671
 8297TIP3    H124855   3.941   4.124   3.664
 8297TIP3    H224856   3.825   4.218   3.692
 8298TIP3   OH224857   3.793   1.131   1.466
 8298TIP3    H124858   3.795   1.207   1.525
 8298TIP3    H224859   3.723   1.151   1.404
 8299TIP3   OH224860   5.133   5.162   1.099
 8299TIP3    H124861   5.120   5.158   1.194
 8299TIP3    H224862   5.112   5.252   1.076
 8300TIP3   OH224863   5.389   1.506   2.148
 8300TIP3    H124864   5.482   1.525   2.157
 8300TIP3    H224865   5.376   1.424   2.197
 8301TIP3   OH224866   2.644   6.177   2.959
 8301TIP3    H124867   2.641   6.244   3.027
 8301TIP3    H224868   2.698   6.216   2.890
 8302TIP3   OH224869   2.171   3.025   0.629
 8302TIP3    H124870   2.131   2.940   0.649
 8302TIP3    H224871   2.107   3.068   0.571
 8303TIP3   OH224872   2.989   3.242   3.209
 8303TIP3    H124873   3.030   3.225   3.294
 8303TIP3    H224874   3.060   3.273   3.154
 8304TIP3   OH224875   5.862   0.501   3.301
 8304TIP3    H124876   5.780   0.453   3.286
 8304TIP3    H224877   5.860   0.524   3.394
 8305TIP3   OH224878   0.282   1.449   1.487
 8305TIP3    H124879   0.277   1.437   1.392
 8305TIP3    H224880   0.371   1.479   1.503
 8306TIP3   OH224881   4.096   3.568   1.543
 8306TIP3    H124882   4.090   3.646   1.487
 8306TIP3    H224883   4.181   3.575   1.585
 8307TIP3   OH224884   4.739   6.307   5.650
 8307TIP3    H124885   4.831   6.310   5.675
 8307TIP3    H224886   4.691   6.303   5.733
 8308TIP3   OH224887   0.764   2.838   0.615
 8308TIP3    H124888   0.777   2.929   0.640
 8308TIP3    H224889   0.671   2.831   0.594
 8309TIP3   OH224890   6.850   2.600   5.576
 8309TIP3    H124891   6.898   2.581   5.657
 8309TIP3    H224892   6.887   2.539   5.512
 8310TIP3   OH224893   4.868   4.435   5.446
 8310TIP3    H124894   4.948   4.483   5.469
 8310TIP3    H224895   4.802   4.504   5.434
 8311TIP3   OH224896   5.032   3.803   4.707
 8311TIP3    H124897   4.983   3.806   4.625
 8311TIP3    H224898   5.051   3.894   4.728
 8312TIP3   OH224899   3.084   4.878   3.986
 8312TIP3    H124900   3.061   4.927   3.907
 8312TIP3    H224901   3.001   4.844   4.019
 8313TIP3   OH224902   4.614   1.795   0.484
 8313TIP3    H124903   4.534   1.755   0.450
 8313TIP3    H224904   4.685   1.746   0.441
 8314TIP3   OH224905   1.591   3.242   2.600
 8314TIP3    H124906   1.501   3.266   2.618
 8314TIP3    H224907   1.589   3.146   2.592
 8315TIP3   OH224908   3.281   4.734   4.648
 8315TIP3    H124909   3.347   4.690   4.595
 8315TIP3    H224910   3.206   4.744   4.590
 8316TIP3   OH224911   5.041   0.727   0.605
 8316TIP3    H124912   5.095   0.671   0.551
 8316TIP3    H224913   5.010   0.670   0.676
 8317TIP3   OH224914   0.117   3.928   0.797
 8317TIP3    H124915   0.156   4.012   0.773
 8317TIP3    H224916   0.034   3.925   0.749
 8318TIP3   OH224917   0.083   0.586   0.023
 8318TIP3    H124918   0.118   0.505  -0.014
 8318TIP3    H224919  -0.012   0.577   0.015
 8319TIP3   OH224920   6.265   3.675   5.608
 8319TIP3    H124921   6.314   3.599   5.575
 8319TIP3    H224922   6.285   3.676   5.702
 8320TIP3   OH224923   1.292   1.496   1.397
 8320TIP3    H124924   1.355   1.529   1.333
 8320TIP3    H224925   1.230   1.568   1.409
 8321TIP3   OH224926   6.090   5.253   3.092
 8321TIP3    H124927   6.008   5.224   3.131
 8321TIP3    H224928   6.146   5.274   3.166
 8322TIP3   OH224929   6.491   6.162   5.368
 8322TIP3    H124930   6.507   6.136   5.277
 8322TIP3    H224931   6.491   6.258   5.365
 8323TIP3   OH224932   5.733   4.704   1.959
 8323TIP3    H124933   5.682   4.783   1.942
 8323TIP3    H224934   5.820   4.736   1.981
 8324TIP3   OH224935   0.723   1.253   2.986
 8324TIP3    H124936   0.653   1.313   2.959
 8324TIP3    H224937   0.793   1.310   3.018
 8325TIP3   OH224938   4.641   6.490   5.463
 8325TIP3    H124939   4.681   6.422   5.518
 8325TIP3    H224940   4.554   6.456   5.442
 8326TIP3   OH224941   4.556   3.789   5.509
 8326TIP3    H124942   4.584   3.782   5.600
 8326TIP3    H224943   4.469   3.830   5.514
 8327TIP3   OH224944   5.044   0.566   0.822
 8327TIP3    H124945   5.056   0.580   0.916
 8327TIP3    H224946   5.009   0.478   0.815
 8328TIP3   OH224947   6.900   5.774   5.105
 8328TIP3    H124948   6.973   5.716   5.127
 8328TIP3    H224949   6.938   5.840   5.048
 8329TIP3   OH224950   1.304   5.403   3.275
 8329TIP3    H124951   1.359   5.324   3.280
 8329TIP3    H224952   1.312   5.431   3.183
 8330TIP3   OH224953   2.627   3.156   0.284
 8330TIP3    H124954   2.625   3.160   0.188
 8330TIP3    H224955   2.640   3.064   0.304
 8331TIP3   OH224956   1.130   0.387   3.724
 8331TIP3    H124957   1.071   0.312   3.728
 8331TIP3    H224958   1.198   0.361   3.661
 8332TIP3   OH224959   4.274   2.252   1.024
 8332TIP3    H124960   4.294   2.301   1.104
 8332TIP3    H224961   4.192   2.207   1.044
 8333TIP3   OH224962   6.852   2.886   2.490
 8333TIP3    H124963   6.778   2.835   2.523
 8333TIP3    H224964   6.869   2.950   2.559
 8334TIP3   OH224965   0.832   2.201   2.627
 8334TIP3    H124966   0.909   2.168   2.672
 8334TIP3    H224967   0.860   2.216   2.536
 8335TIP3   OH224968   2.513   0.359   0.057
 8335TIP3    H124969   2.563   0.386  -0.020
 8335TIP3    H224970   2.563   0.392   0.131
 8336TIP3   OH224971   2.659   6.738   3.770
 8336TIP3    H124972   2.682   6.649   3.797
 8336TIP3    H224973   2.570   6.731   3.736
 8337TIP3   OH224974   1.270   5.884   0.729
 8337TIP3    H124975   1.347   5.937   0.708
 8337TIP3    H224976   1.206   5.906   0.661
 8338TIP3   OH224977   5.264   1.497   1.887
 8338TIP3    H124978   5.231   1.521   1.801
 8338TIP3    H224979   5.317   1.419   1.873
 8339TIP3   OH224980   4.563   2.859   0.801
 8339TIP3    H124981   4.630   2.927   0.792
 8339TIP3    H224982   4.506   2.871   0.725
 8340TIP3   OH224983   0.629   2.524   3.718
 8340TIP3    H124984   0.667   2.450   3.766
 8340TIP3    H224985   0.535   2.507   3.719
 8341TIP3   OH224986   2.530   2.546   2.474
 8341TIP3    H124987   2.488   2.587   2.550
 8341TIP3    H224988   2.616   2.587   2.469
 8342TIP3   OH224989   4.687   5.072   4.532
 8342TIP3    H124990   4.618   5.023   4.487
 8342TIP3    H224991   4.757   5.008   4.544
 8343TIP3   OH224992   6.540   5.772   2.102
 8343TIP3    H124993   6.452   5.807   2.089
 8343TIP3    H224994   6.530   5.705   2.170
 8344TIP3   OH224995   0.965   3.266   5.154
 8344TIP3    H124996   0.957   3.361   5.145
 8344TIP3    H224997   0.964   3.233   5.065
 8345TIP3   OH224998   0.664   1.868   0.672
 8345TIP3    H124999   0.697   1.806   0.736
 8345TIP3    H225000   0.659   1.819   0.590
 8346TIP3   OH225001   2.439   3.449   3.193
 8346TIP3    H125002   2.390   3.483   3.118
 8346TIP3    H225003   2.527   3.486   3.183
 8347TIP3   OH225004   6.201   4.418   2.119
 8347TIP3    H125005   6.124   4.470   2.142
 8347TIP3    H225006   6.197   4.411   2.023
 8348TIP3   OH225007   4.527   6.530   3.335
 8348TIP3    H125008   4.570   6.474   3.400
 8348TIP3    H225009   4.524   6.477   3.256
 8349TIP3   OH225010   6.549   4.428   5.277
 8349TIP3    H125011   6.618   4.364   5.295
 8349TIP3    H225012   6.595   4.512   5.272
 8350TIP3   OH225013   0.832   5.424   2.992
 8350TIP3    H125014   0.851   5.502   2.941
 8350TIP3    H225015   0.862   5.445   3.081
 8351TIP3   OH225016   6.592   0.415   1.412
 8351TIP3    H125017   6.527   0.412   1.483
 8351TIP3    H225018   6.630   0.502   1.419
 8352TIP3   OH225019   2.047   0.853   3.527
 8352TIP3    H125020   2.100   0.796   3.583
 8352TIP3    H225021   1.988   0.793   3.481
 8353TIP3   OH225022   2.267   6.646   4.976
 8353TIP3    H125023   2.287   6.687   4.892
 8353TIP3    H225024   2.332   6.576   4.984
 8354TIP3   OH225025   6.456   3.354   1.840
 8354TIP3    H125026   6.419   3.307   1.765
 8354TIP3    H225027   6.502   3.429   1.801
 8355TIP3   OH225028   5.506   3.939   2.592
 8355TIP3    H125029   5.537   3.860   2.547
 8355TIP3    H225030   5.447   3.981   2.530
 8356TIP3   OH225031   2.349   4.102   0.982
 8356TIP3    H125032   2.427   4.066   1.023
 8356TIP3    H225033   2.319   4.033   0.923
 8357TIP3   OH225034   4.941   3.985   0.915
 8357TIP3    H125035   5.007   3.954   0.978
 8357TIP3    H225036   4.958   3.933   0.836
 8358TIP3   OH225037   1.759   4.562   1.345
 8358TIP3    H125038   1.688   4.509   1.381
 8358TIP3    H225039   1.838   4.529   1.387
 8359TIP3   OH225040   6.041   2.231   4.913
 8359TIP3    H125041   6.100   2.162   4.882
 8359TIP3    H225042   5.958   2.186   4.930
 8360TIP3   OH225043   6.451   5.051   4.694
 8360TIP3    H125044   6.364   5.027   4.726
 8360TIP3    H225045   6.478   5.123   4.751
 8361TIP3   OH225046   2.581   2.529   5.064
 8361TIP3    H125047   2.565   2.607   5.118
 8361TIP3    H225048   2.575   2.456   5.125
 8362TIP3   OH225049   1.619   0.672   3.628
 8362TIP3    H125050   1.692   0.696   3.686
 8362TIP3    H225051   1.649   0.594   3.582
 8363TIP3   OH225052   6.293   5.326   1.126
 8363TIP3    H125053   6.249   5.247   1.092
 8363TIP3    H225054   6.221   5.385   1.148
 8364TIP3   OH225055   0.942   1.413   0.735
 8364TIP3    H125056   1.007   1.381   0.797
 8364TIP3    H225057   0.962   1.506   0.725
 8365TIP3   OH225058   6.548   1.116   0.603
 8365TIP3    H125059   6.536   1.137   0.696
 8365TIP3    H225060   6.504   1.031   0.592
 8366TIP3   OH225061   3.514   5.457   1.737
 8366TIP3    H125062   3.554   5.470   1.651
 8366TIP3    H225063   3.443   5.522   1.740
 8367TIP3   OH225064   2.756   4.660   5.462
 8367TIP3    H125065   2.803   4.665   5.378
 8367TIP3    H225066   2.706   4.742   5.466
 8368TIP3   OH225067   5.123   6.136   3.020
 8368TIP3    H125068   5.074   6.190   3.082
 8368TIP3    H225069   5.102   6.046   3.043
 8369TIP3   OH225070   7.105   2.637   0.437
 8369TIP3    H125071   7.019   2.669   0.411
 8369TIP3    H225072   7.167   2.694   0.392
 8370TIP3   OH225073   1.193   5.532   0.835
 8370TIP3    H125074   1.195   5.617   0.880
 8370TIP3    H225075   1.205   5.554   0.743
 8371TIP3   OH225076   5.053   3.740   3.882
 8371TIP3    H125077   4.995   3.682   3.833
 8371TIP3    H225078   5.062   3.817   3.826
 8372TIP3   OH225079   1.239   0.298   4.418
 8372TIP3    H125080   1.189   0.249   4.483
 8372TIP3    H225081   1.326   0.258   4.420
 8373TIP3   OH225082   0.087   3.423   1.214
 8373TIP3    H125083   0.142   3.489   1.256
 8373TIP3    H225084   0.149   3.357   1.182
 8374TIP3   OH225085   6.829   3.734   1.853
 8374TIP3    H125086   6.876   3.713   1.773
 8374TIP3    H225087   6.739   3.752   1.824
 8375TIP3   OH225088   5.615   3.010   5.233
 8375TIP3    H125089   5.572   2.926   5.222
 8375TIP3    H225090   5.593   3.059   5.153
 8376TIP3   OH225091   3.722   5.495   0.732
 8376TIP3    H125092   3.670   5.572   0.756
 8376TIP3    H225093   3.779   5.481   0.808
 8377TIP3   OH225094   2.752   6.734   1.765
 8377TIP3    H125095   2.846   6.720   1.755
 8377TIP3    H225096   2.715   6.709   1.681
 8378TIP3   OH225097   2.876   1.752   1.946
 8378TIP3    H125098   2.918   1.784   1.866
 8378TIP3    H225099   2.949   1.727   2.003
 8379TIP3   OH225100   2.835   1.778   1.259
 8379TIP3    H125101   2.743   1.751   1.257
 8379TIP3    H225102   2.869   1.754   1.173
 8380TIP3   OH225103   5.890   5.664   5.835
 8380TIP3    H125104   5.952   5.686   5.765
 8380TIP3    H225105   5.859   5.749   5.867
 8381TIP3   OH225106   4.132   6.038   2.405
 8381TIP3    H125107   4.049   6.002   2.372
 8381TIP3    H225108   4.196   6.018   2.337
 8382TIP3   OH225109   4.083   3.388   2.061
 8382TIP3    H125110   4.174   3.363   2.077
 8382TIP3    H225111   4.033   3.337   2.125
 8383TIP3   OH225112   3.506   4.107   5.216
 8383TIP3    H125113   3.534   4.176   5.275
 8383TIP3    H225114   3.479   4.152   5.136
 8384TIP3   OH225115   2.397   5.166   5.355
 8384TIP3    H125116   2.338   5.130   5.422
 8384TIP3    H225117   2.467   5.102   5.348
 8385TIP3   OH225118   3.143   0.143   2.516
 8385TIP3    H125119   3.193   0.146   2.435
 8385TIP3    H225120   3.065   0.195   2.497
 8386TIP3   OH225121   5.562   2.868   3.254
 8386TIP3    H125122   5.591   2.800   3.194
 8386TIP3    H225123   5.635   2.877   3.316
 8387TIP3   OH225124   4.605   3.684   0.115
 8387TIP3    H125125   4.666   3.644   0.053
 8387TIP3    H225126   4.535   3.620   0.124
 8388TIP3   OH225127   6.522   1.486   4.334
 8388TIP3    H125128   6.535   1.495   4.240
 8388TIP3    H225129   6.608   1.459   4.368
 8389TIP3   OH225130   2.379   5.401   0.466
 8389TIP3    H125131   2.439   5.458   0.418
 8389TIP3    H225132   2.359   5.330   0.404
 8390TIP3   OH225133   3.022   3.616   2.376
 8390TIP3    H125134   3.009   3.662   2.459
 8390TIP3    H225135   3.028   3.686   2.311
 8391TIP3   OH225136   3.890   3.334   0.672
 8391TIP3    H125137   3.977   3.371   0.658
 8391TIP3    H225138   3.893   3.248   0.631
 8392TIP3   OH225139   4.549   0.542   0.736
 8392TIP3    H125140   4.588   0.610   0.682
 8392TIP3    H225141   4.466   0.580   0.766
 8393TIP3   OH225142   3.397   1.171   2.242
 8393TIP3    H125143   3.467   1.159   2.306
 8393TIP3    H225144   3.318   1.182   2.295
 8394TIP3   OH225145   1.536   1.342   0.278
 8394TIP3    H125146   1.516   1.276   0.345
 8394TIP3    H225147   1.460   1.401   0.280
 8395TIP3   OH225148   5.230   4.958   3.696
 8395TIP3    H125149   5.319   4.964   3.730
 8395TIP3    H225150   5.238   4.904   3.617
 8396TIP3   OH225151   2.674   3.102   3.536
 8396TIP3    H125152   2.661   3.196   3.537
 8396TIP3    H225153   2.650   3.073   3.624
 8397TIP3   OH225154   1.878   2.401   2.570
 8397TIP3    H125155   1.953   2.403   2.510
 8397TIP3    H225156   1.837   2.486   2.560
 8398TIP3   OH225157   6.078   1.196   4.405
 8398TIP3    H125158   6.071   1.106   4.372
 8398TIP3    H225159   6.164   1.226   4.374
 8399TIP3   OH225160   4.226   3.697   4.875
 8399TIP3    H125161   4.188   3.740   4.951
 8399TIP3    H225162   4.154   3.647   4.837
 8400TIP3   OH225163   5.567   4.372   5.227
 8400TIP3    H125164   5.595   4.281   5.240
 8400TIP3    H225165   5.621   4.422   5.288
 8401TIP3   OH225166   4.146   5.770   4.249
 8401TIP3    H125167   4.129   5.687   4.204
 8401TIP3    H225168   4.208   5.815   4.193
 8402TIP3   OH225169   6.151   3.958   4.871
 8402TIP3    H125170   6.222   3.965   4.808
 8402TIP3    H225171   6.096   3.887   4.837
 8403TIP3   OH225172   4.085   5.714   3.370
 8403TIP3    H125173   4.159   5.733   3.428
 8403TIP3    H225174   4.080   5.790   3.312
 8404TIP3   OH225175   5.419   1.287   1.506
 8404TIP3    H125176   5.345   1.304   1.564
 8404TIP3    H225177   5.382   1.296   1.418
 8405TIP3   OH225178   2.168   1.381   2.229
 8405TIP3    H125179   2.164   1.336   2.145
 8405TIP3    H225180   2.251   1.354   2.267
 8406TIP3   OH225181   6.560   6.698   4.549
 8406TIP3    H125182   6.585   6.706   4.641
 8406TIP3    H225183   6.520   6.782   4.528
 8407TIP3   OH225184   5.695   2.341   3.496
 8407TIP3    H125185   5.703   2.326   3.402
 8407TIP3    H225186   5.659   2.430   3.504
 8408TIP3   OH225187   0.672   0.322   5.011
 8408TIP3    H125188   0.744   0.259   5.003
 8408TIP3    H225189   0.679   0.376   4.933
 8409TIP3   OH225190   2.907   1.313   4.333
 8409TIP3    H125191   2.842   1.329   4.265
 8409TIP3    H225192   2.962   1.243   4.298
 8410TIP3   OH225193   0.485   5.884   5.798
 8410TIP3    H125194   0.486   5.828   5.876
 8410TIP3    H225195   0.525   5.966   5.827
 8411TIP3   OH225196   0.913   0.351   3.475
 8411TIP3    H125197   0.918   0.419   3.408
 8411TIP3    H225198   0.917   0.398   3.558
 8412TIP3   OH225199   7.055   4.118   2.488
 8412TIP3    H125200   7.127   4.076   2.535
 8412TIP3    H225201   7.087   4.205   2.467
 8413TIP3   OH225202   3.138   2.821   0.699
 8413TIP3    H125203   3.047   2.802   0.674
 8413TIP3    H225204   3.189   2.761   0.645
 8414TIP3   OH225205   5.318   0.985   0.989
 8414TIP3    H125206   5.247   0.959   1.048
 8414TIP3    H225207   5.315   0.921   0.918
 8415TIP3   OH225208   6.522   4.257   5.607
 8415TIP3    H125209   6.523   4.204   5.527
 8415TIP3    H225210   6.472   4.206   5.670
 8416TIP3   OH225211   1.656   2.011   5.103
 8416TIP3    H125212   1.636   2.028   5.010
 8416TIP3    H225213   1.579   1.965   5.136
 8417TIP3   OH225214   3.831   2.690   5.772
 8417TIP3    H125215   3.857   2.781   5.787
 8417TIP3    H225216   3.906   2.651   5.727
 8418TIP3   OH225217   3.512   5.161   5.770
 8418TIP3    H125218   3.553   5.234   5.817
 8418TIP3    H225219   3.565   5.085   5.794
 8419TIP3   OH225220   3.453   1.821   5.722
 8419TIP3    H125221   3.468   1.727   5.719
 8419TIP3    H225222   3.408   1.835   5.806
 8420TIP3   OH225223   2.094   0.347   3.919
 8420TIP3    H125224   2.108   0.433   3.958
 8420TIP3    H225225   2.039   0.300   3.982
 8421TIP3   OH225226   4.107   4.103   0.020
 8421TIP3    H125227   4.057   4.098  -0.061
 8421TIP3    H225228   4.076   4.028   0.072
 8422TIP3   OH225229   5.780   3.328   5.823
 8422TIP3    H125230   5.717   3.321   5.895
 8422TIP3    H225231   5.761   3.254   5.767
 8423TIP3   OH225232   3.880   3.729   5.197
 8423TIP3    H125233   3.859   3.667   5.127
 8423TIP3    H225234   3.840   3.811   5.168
 8424TIP3   OH225235   5.622   2.022   1.597
 8424TIP3    H125236   5.716   2.032   1.609
 8424TIP3    H225237   5.612   1.973   1.516
 8425TIP3   OH225238   4.935   2.434   1.724
 8425TIP3    H125239   4.959   2.500   1.789
 8425TIP3    H225240   4.858   2.391   1.761
 8426TIP3   OH225241   5.182   3.518   2.007
 8426TIP3    H125242   5.188   3.613   2.019
 8426TIP3    H225243   5.097   3.494   2.042
 8427TIP3   OH225244   1.647   6.556   4.674
 8427TIP3    H125245   1.714   6.610   4.632
 8427TIP3    H225246   1.601   6.513   4.602
 8428TIP3   OH225247   5.240   2.713   2.326
 8428TIP3    H125248   5.243   2.808   2.318
 8428TIP3    H225249   5.177   2.697   2.396
 8429TIP3   OH225250   0.434   1.087   0.909
 8429TIP3    H125251   0.476   1.102   0.994
 8429TIP3    H225252   0.496   1.031   0.861
 8430TIP3   OH225253   3.428   3.947   1.997
 8430TIP3    H125254   3.464   3.927   2.084
 8430TIP3    H225255   3.339   3.911   2.000
 8431TIP3   OH225256   6.989   5.846   0.316
 8431TIP3    H125257   6.994   5.857   0.221
 8431TIP3    H225258   7.079   5.836   0.344
 8432TIP3   OH225259   5.425   6.638   4.287
 8432TIP3    H125260   5.392   6.589   4.362
 8432TIP3    H225261   5.422   6.576   4.214
 8433TIP3   OH225262   5.096   5.662   2.346
 8433TIP3    H125263   5.039   5.715   2.401
 8433TIP3    H225264   5.172   5.718   2.329
 8434TIP3   OH225265   4.059   1.993   3.319
 8434TIP3    H125266   4.066   2.069   3.261
 8434TIP3    H225267   3.997   2.020   3.386
 8435TIP3   OH225268   5.602   1.790   2.201
 8435TIP3    H125269   5.616   1.710   2.150
 8435TIP3    H225270   5.670   1.850   2.168
 8436TIP3   OH225271   0.907   1.130   2.597
 8436TIP3    H125272   0.980   1.140   2.659
 8436TIP3    H225273   0.841   1.192   2.627
 8437TIP3   OH225274   3.579   4.358   2.037
 8437TIP3    H125275   3.667   4.394   2.044
 8437TIP3    H225276   3.529   4.405   2.104
 8438TIP3   OH225277   2.342   4.954   1.244
 8438TIP3    H125278   2.290   5.031   1.268
 8438TIP3    H225279   2.414   4.953   1.307
 8439TIP3   OH225280   4.508   3.453   2.545
 8439TIP3    H125281   4.561   3.532   2.559
 8439TIP3    H225282   4.568   3.381   2.563
 8440TIP3   OH225283   3.756   0.756   3.916
 8440TIP3    H125284   3.826   0.703   3.878
 8440TIP3    H225285   3.679   0.737   3.862
 8441TIP3   OH225286   4.731   5.090   0.557
 8441TIP3    H125287   4.685   5.008   0.542
 8441TIP3    H225288   4.766   5.082   0.645
 8442TIP3   OH225289   2.814   4.320   3.483
 8442TIP3    H125290   2.774   4.341   3.567
 8442TIP3    H225291   2.844   4.229   3.492
 8443TIP3   OH225292   5.512   5.545   5.411
 8443TIP3    H125293   5.447   5.538   5.341
 8443TIP3    H225294   5.520   5.639   5.427
 8444TIP3   OH225295   3.489   4.705   3.979
 8444TIP3    H125296   3.450   4.793   3.980
 8444TIP3    H225297   3.508   4.688   3.887
 8445TIP3   OH225298   6.004   6.536   3.765
 8445TIP3    H125299   5.909   6.549   3.754
 8445TIP3    H225300   6.025   6.583   3.846
 8446TIP3   OH225301   1.308   6.718   5.604
 8446TIP3    H125302   1.276   6.720   5.694
 8446TIP3    H225303   1.242   6.668   5.556
 8447TIP3   OH225304   3.465   0.322   5.140
 8447TIP3    H125305   3.554   0.345   5.168
 8447TIP3    H225306   3.409   0.352   5.211
 8448TIP3   OH225307   2.056   2.345   1.914
 8448TIP3    H125308   2.086   2.322   1.826
 8448TIP3    H225309   2.028   2.262   1.952
 8449TIP3   OH225310   4.728   2.612   2.788
 8449TIP3    H125311   4.766   2.637   2.704
 8449TIP3    H225312   4.802   2.613   2.849
 8450TIP3   OH225313   0.241   2.647   4.601
 8450TIP3    H125314   0.191   2.565   4.606
 8450TIP3    H225315   0.177   2.713   4.576
 8451TIP3   OH225316   3.694   1.733   2.915
 8451TIP3    H125317   3.774   1.784   2.901
 8451TIP3    H225318   3.682   1.685   2.833
 8452TIP3   OH225319   3.045   5.623   4.638
 8452TIP3    H125320   3.141   5.627   4.639
 8452TIP3    H225321   3.022   5.642   4.547
 8453TIP3   OH225322   1.501   3.296   1.095
 8453TIP3    H125323   1.475   3.204   1.100
 8453TIP3    H225324   1.588   3.295   1.055
 8454TIP3   OH225325   3.245   3.372   3.075
 8454TIP3    H125326   3.315   3.336   3.129
 8454TIP3    H225327   3.250   3.467   3.089
 8455TIP3   OH225328   5.142   5.099   1.372
 8455TIP3    H125329   5.112   5.010   1.393
 8455TIP3    H225330   5.079   5.156   1.416
 8456TIP3   OH225331   0.631   6.073   5.459
 8456TIP3    H125332   0.706   6.112   5.414
 8456TIP3    H225333   0.669   6.013   5.523
 8457TIP3   OH225334   6.660   2.830   4.903
 8457TIP3    H125335   6.719   2.899   4.934
 8457TIP3    H225336   6.625   2.792   4.983
 8458TIP3   OH225337   6.752   4.002   0.767
 8458TIP3    H125338   6.791   3.917   0.746
 8458TIP3    H225339   6.813   4.042   0.829
 8459TIP3   OH225340   5.042   4.209   1.197
 8459TIP3    H125341   5.106   4.139   1.186
 8459TIP3    H225342   5.080   4.266   1.265
 8460TIP3   OH225343   4.901   2.011   1.673
 8460TIP3    H125344   4.841   1.961   1.728
 8460TIP3    H225345   4.986   1.969   1.685
 8461TIP3   OH225346   2.540   0.244   4.775
 8461TIP3    H125347   2.591   0.314   4.735
 8461TIP3    H225348   2.589   0.221   4.854
 8462TIP3   OH225349   2.149   3.710   1.156
 8462TIP3    H125350   2.121   3.801   1.148
 8462TIP3    H225351   2.241   3.715   1.181
 8463TIP3   OH225352   0.774   0.909   1.443
 8463TIP3    H125353   0.727   0.841   1.492
 8463TIP3    H225354   0.863   0.874   1.433
 8464TIP3   OH225355   6.910   5.271   0.986
 8464TIP3    H125356   6.858   5.316   1.052
 8464TIP3    H225357   6.995   5.258   1.028
 8465TIP3   OH225358   1.921   5.057   5.041
 8465TIP3    H125359   1.986   5.030   4.976
 8465TIP3    H225360   1.939   5.002   5.117
 8466TIP3   OH225361   2.624   3.911   3.805
 8466TIP3    H125362   2.568   3.917   3.727
 8466TIP3    H225363   2.584   3.970   3.868
 8467TIP3   OH225364   0.650   1.331   3.272
 8467TIP3    H125365   0.627   1.291   3.188
 8467TIP3    H225366   0.679   1.258   3.326
 8468TIP3   OH225367   4.662   4.965   5.081
 8468TIP3    H125368   4.721   5.040   5.077
 8468TIP3    H225369   4.609   4.971   5.001
 8469TIP3   OH225370   0.798   2.473   2.808
 8469TIP3    H125371   0.705   2.453   2.815
 8469TIP3    H225372   0.810   2.505   2.719
 8470TIP3   OH225373   0.933   3.922   3.344
 8470TIP3    H125374   0.976   3.989   3.397
 8470TIP3    H225375   0.988   3.913   3.266
 8471TIP3   OH225376   2.501   1.110   2.300
 8471TIP3    H125377   2.518   1.204   2.298
 8471TIP3    H225378   2.496   1.084   2.207
 8472TIP3   OH225379   4.839   5.654   1.838
 8472TIP3    H125380   4.799   5.680   1.755
 8472TIP3    H225381   4.824   5.728   1.897
 8473TIP3   OH225382   1.431   3.724   5.526
 8473TIP3    H125383   1.358   3.682   5.481
 8473TIP3    H225384   1.430   3.687   5.614
 8474TIP3   OH225385   5.245   2.560   0.337
 8474TIP3    H125386   5.158   2.539   0.304
 8474TIP3    H225387   5.296   2.582   0.260
 8475TIP3   OH225388   5.140   1.947   2.462
 8475TIP3    H125389   5.088   1.897   2.399
 8475TIP3    H225390   5.223   1.899   2.468
 8476TIP3   OH225391   3.059   6.399   5.279
 8476TIP3    H125392   3.085   6.491   5.287
 8476TIP3    H225393   2.976   6.402   5.231
 8477TIP3   OH225394   6.010   6.234   5.545
 8477TIP3    H125395   6.105   6.243   5.552
 8477TIP3    H225396   5.993   6.236   5.451
 8478TIP3   OH225397   2.088   1.112   3.583
 8478TIP3    H125398   2.179   1.136   3.599
 8478TIP3    H225399   2.086   1.017   3.592
 8479TIP3   OH225400   4.318   5.441   0.506
 8479TIP3    H125401   4.325   5.346   0.495
 8479TIP3    H225402   4.387   5.463   0.568
 8480TIP3   OH225403   0.806   6.363   4.238
 8480TIP3    H125404   0.804   6.458   4.235
 8480TIP3    H225405   0.714   6.337   4.228
 8481TIP3   OH225406   3.905   3.816   3.204
 8481TIP3    H125407   3.968   3.888   3.202
 8481TIP3    H225408   3.946   3.749   3.259
 8482TIP3   OH225409   4.517   6.763   1.247
 8482TIP3    H125410   4.559   6.787   1.164
 8482TIP3    H225411   4.486   6.674   1.233
 8483TIP3   OH225412   5.841   5.789   3.221
 8483TIP3    H125413   5.852   5.869   3.273
 8483TIP3    H225414   5.852   5.818   3.130
 8484TIP3   OH225415   1.680   6.286   1.267
 8484TIP3    H125416   1.758   6.238   1.297
 8484TIP3    H225417   1.655   6.241   1.186
 8485TIP3   OH225418   6.400   5.714   0.717
 8485TIP3    H125419   6.490   5.687   0.701
 8485TIP3    H225420   6.397   5.806   0.689
 8486TIP3   OH225421   0.810   4.910   0.093
 8486TIP3    H125422   0.730   4.902   0.145
 8486TIP3    H225423   0.784   4.885   0.005
 8487TIP3   OH225424   3.956   4.674   1.757
 8487TIP3    H125425   3.885   4.694   1.696
 8487TIP3    H225426   3.928   4.713   1.840
 8488TIP3   OH225427   3.584   5.959   0.591
 8488TIP3    H125428   3.668   5.913   0.601
 8488TIP3    H225429   3.518   5.894   0.617
 8489TIP3   OH225430   5.525   4.890   5.494
 8489TIP3    H125431   5.492   4.878   5.405
 8489TIP3    H225432   5.451   4.866   5.550
 8490TIP3   OH225433   0.511   0.339   4.419
 8490TIP3    H125434   0.514   0.343   4.514
 8490TIP3    H225435   0.481   0.250   4.399
 8491TIP3   OH225436   0.893   2.791   1.756
 8491TIP3    H125437   0.908   2.746   1.673
 8491TIP3    H225438   0.887   2.884   1.733
 8492TIP3   OH225439   5.790   0.765   3.523
 8492TIP3    H125440   5.836   0.806   3.450
 8492TIP3    H225441   5.698   0.769   3.499
 8493TIP3   OH225442   4.777   1.480   3.691
 8493TIP3    H125443   4.804   1.491   3.600
 8493TIP3    H225444   4.819   1.552   3.738
 8494TIP3   OH225445   6.054   2.829   2.463
 8494TIP3    H125446   5.966   2.801   2.489
 8494TIP3    H225447   6.044   2.859   2.373
 8495TIP3   OH225448   1.063   6.632   2.968
 8495TIP3    H125449   1.124   6.565   2.999
 8495TIP3    H225450   1.089   6.711   3.014
 8496TIP3   OH225451   2.512   3.821   3.329
 8496TIP3    H125452   2.592   3.774   3.305
 8496TIP3    H225453   2.455   3.755   3.366
 8497TIP3   OH225454   3.434   0.075   1.515
 8497TIP3    H125455   3.485   0.131   1.574
 8497TIP3    H225456   3.491   0.059   1.440
 8498TIP3   OH225457   5.786   4.185   1.758
 8498TIP3    H125458   5.809   4.257   1.817
 8498TIP3    H225459   5.709   4.217   1.711
 8499TIP3   OH225460   2.616   6.435   0.397
 8499TIP3    H125461   2.562   6.408   0.323
 8499TIP3    H225462   2.591   6.526   0.414
 8500TIP3   OH225463   5.163   3.315   2.860
 8500TIP3    H125464   5.124   3.385   2.912
 8500TIP3    H225465   5.252   3.306   2.894
 8501TIP3   OH225466   5.145   3.342   4.802
 8501TIP3    H125467   5.150   3.282   4.877
 8501TIP3    H225468   5.103   3.420   4.837
 8502TIP3   OH225469   3.547   2.295   0.796
 8502TIP3    H125470   3.596   2.343   0.863
 8502TIP3    H225471   3.482   2.245   0.846
 8503TIP3   OH225472   5.127   3.046   0.556
 8503TIP3    H125473   5.056   2.982   0.546
 8503TIP3    H225474   5.194   3.016   0.494
 8504TIP3   OH225475   3.085   1.308   5.529
 8504TIP3    H125476   3.038   1.277   5.606
 8504TIP3    H225477   3.016   1.328   5.465
 8505TIP3   OH225478   4.614   6.739   5.054
 8505TIP3    H125479   4.647   6.649   5.056
 8505TIP3    H225480   4.693   6.794   5.056
 8506TIP3   OH225481   3.724   2.866   3.209
 8506TIP3    H125482   3.697   2.910   3.129
 8506TIP3    H225483   3.801   2.916   3.238
 8507TIP3   OH225484   5.089   3.396   3.910
 8507TIP3    H125485   5.051   3.314   3.942
 8507TIP3    H225486   5.026   3.463   3.937
 8508TIP3   OH225487   2.499   2.030   1.301
 8508TIP3    H125488   2.454   1.945   1.298
 8508TIP3    H225489   2.498   2.061   1.210
 8509TIP3   OH225490   5.393   4.983   5.739
 8509TIP3    H125491   5.384   5.022   5.826
 8509TIP3    H225492   5.454   5.040   5.694
 8510TIP3   OH225493   2.184   6.737   2.062
 8510TIP3    H125494   2.207   6.645   2.049
 8510TIP3    H225495   2.202   6.754   2.154
 8511TIP3   OH225496   5.267   5.809   0.788
 8511TIP3    H125497   5.339   5.843   0.735
 8511TIP3    H225498   5.298   5.816   0.878
 8512TIP3   OH225499   0.291   1.847   4.055
 8512TIP3    H125500   0.330   1.934   4.041
 8512TIP3    H225501   0.344   1.789   4.001
 8513TIP3   OH225502   6.537   5.656   3.181
 8513TIP3    H125503   6.567   5.740   3.147
 8513TIP3    H225504   6.567   5.592   3.117
 8514TIP3   OH225505   6.967   1.757   1.571
 8514TIP3    H125506   6.953   1.757   1.666
 8514TIP3    H225507   6.953   1.849   1.546
 8515TIP3   OH225508   5.831   0.987   2.132
 8515TIP3    H125509   5.807   1.052   2.197
 8515TIP3    H225510   5.891   1.033   2.072
 8516TIP3   OH225511   5.310   4.252   5.170
 8516TIP3    H125512   5.357   4.196   5.231
 8516TIP3    H225513   5.323   4.341   5.204
 8517TIP3   OH225514   4.353   6.724   4.908
 8517TIP3    H125515   4.341   6.632   4.884
 8517TIP3    H225516   4.440   6.727   4.947
 8518TIP3   OH225517   0.483   2.498   1.223
 8518TIP3    H125518   0.428   2.447   1.163
 8518TIP3    H225519   0.564   2.447   1.230
 8519TIP3   OH225520   3.952   4.481   4.296
 8519TIP3    H125521   4.040   4.483   4.258
 8519TIP3    H225522   3.958   4.417   4.367
 8520TIP3   OH225523   6.121   0.855   0.294
 8520TIP3    H125524   6.190   0.796   0.263
 8520TIP3    H225525   6.164   0.939   0.304
 8521TIP3   OH225526   5.783   5.762   1.003
 8521TIP3    H125527   5.715   5.695   1.008
 8521TIP3    H225528   5.803   5.783   1.094
 8522TIP3   OH225529   1.824   1.973   3.764
 8522TIP3    H125530   1.729   1.981   3.753
 8522TIP3    H225531   1.841   1.879   3.762
 8523TIP3   OH225532   1.685   4.138   4.650
 8523TIP3    H125533   1.648   4.058   4.687
 8523TIP3    H225534   1.754   4.108   4.591
 8524TIP3   OH225535   0.119   6.603   1.605
 8524TIP3    H125536   0.072   6.634   1.527
 8524TIP3    H225537   0.096   6.666   1.673
 8525TIP3   OH225538   2.363   1.635   4.362
 8525TIP3    H125539   2.394   1.670   4.278
 8525TIP3    H225540   2.348   1.542   4.345
 8526TIP3   OH225541   7.225   1.871   3.305
 8526TIP3    H125542   7.255   1.840   3.219
 8526TIP3    H225543   7.150   1.817   3.325
 8527TIP3   OH225544   2.399   1.834   3.014
 8527TIP3    H125545   2.321   1.888   3.021
 8527TIP3    H225546   2.385   1.781   2.936
 8528TIP3   OH225547  -0.001   6.148   4.876
 8528TIP3    H125548   0.069   6.140   4.941
 8528TIP3    H225549   0.023   6.224   4.823
 8529TIP3   OH225550   4.014   0.467   4.806
 8529TIP3    H125551   3.981   0.415   4.879
 8529TIP3    H225552   3.946   0.459   4.739
 8530TIP3   OH225553   2.263   6.413   0.456
 8530TIP3    H125554   2.308   6.390   0.375
 8530TIP3    H225555   2.184   6.460   0.428
 8531TIP3   OH225556   0.819   0.434   1.979
 8531TIP3    H125557   0.755   0.471   1.919
 8531TIP3    H225558   0.866   0.368   1.928
 8532TIP3   OH225559   0.762   2.420   1.917
 8532TIP3    H125560   0.723   2.335   1.897
 8532TIP3    H225561   0.720   2.481   1.856
 8533TIP3   OH225562   4.546   4.991   4.820
 8533TIP3    H125563   4.604   4.996   4.743
 8533TIP3    H225564   4.508   5.078   4.827
 8534TIP3   OH225565   5.850   0.705   5.254
 8534TIP3    H125566   5.784   0.686   5.187
 8534TIP3    H225567   5.897   0.781   5.220
 8535TIP3   OH225568   3.310   6.303   0.442
 8535TIP3    H125569   3.348   6.341   0.362
 8535TIP3    H225570   3.361   6.224   0.457
 8536TIP3   OH225571   6.603   2.560   0.486
 8536TIP3    H125572   6.525   2.551   0.431
 8536TIP3    H225573   6.672   2.583   0.424
 8537TIP3   OH225574   5.062   3.542   2.997
 8537TIP3    H125575   5.148   3.545   3.040
 8537TIP3    H225576   5.034   3.633   2.993
 8538TIP3   OH225577   3.255   2.626   0.530
 8538TIP3    H125578   3.300   2.545   0.508
 8538TIP3    H225579   3.163   2.601   0.537
 8539TIP3   OH225580   1.073   5.112   3.258
 8539TIP3    H125581   1.049   5.188   3.310
 8539TIP3    H225582   1.133   5.062   3.313
 8540TIP3   OH225583   2.442   6.018   0.309
 8540TIP3    H125584   2.461   5.987   0.397
 8540TIP3    H225585   2.438   5.938   0.256
 8541TIP3   OH225586   0.137   4.591   0.490
 8541TIP3    H125587   0.053   4.547   0.477
 8541TIP3    H225588   0.114   4.682   0.507
 8542TIP3   OH225589   2.835   6.085   0.733
 8542TIP3    H125590   2.844   6.168   0.686
 8542TIP3    H225591   2.818   6.110   0.823
 8543TIP3   OH225592   3.880   5.872   1.753
 8543TIP3    H125593   3.961   5.914   1.724
 8543TIP3    H225594   3.849   5.823   1.676
 8544TIP3   OH225595   5.885   0.926   4.689
 8544TIP3    H125596   5.942   0.870   4.638
 8544TIP3    H225597   5.926   0.931   4.776
 8545TIP3   OH225598   5.683   3.076   4.569
 8545TIP3    H125599   5.605   3.099   4.519
 8545TIP3    H225600   5.652   3.018   4.638
 8546TIP3   OH225601   1.171   3.982   4.829
 8546TIP3    H125602   1.214   3.995   4.914
 8546TIP3    H225603   1.160   3.887   4.823
 8547TIP3   OH225604   2.570   6.571   2.252
 8547TIP3    H125605   2.492   6.619   2.225
 8547TIP3    H225606   2.633   6.584   2.180
 8548TIP3   OH225607   6.748   4.533   4.860
 8548TIP3    H125608   6.804   4.535   4.938
 8548TIP3    H225609   6.690   4.608   4.870
 8549TIP3   OH225610   5.210   4.595   2.840
 8549TIP3    H125611   5.197   4.690   2.840
 8549TIP3    H225612   5.227   4.572   2.931
 8550TIP3   OH225613   1.097   0.162   0.390
 8550TIP3    H125614   1.080   0.069   0.403
 8550TIP3    H225615   1.104   0.198   0.478
 8551TIP3   OH225616   5.376   2.804   3.462
 8551TIP3    H125617   5.376   2.891   3.502
 8551TIP3    H225618   5.447   2.807   3.398
 8552TIP3   OH225619   3.007   0.523   2.219
 8552TIP3    H125620   3.070   0.509   2.290
 8552TIP3    H225621   3.054   0.578   2.156
 8553TIP3   OH225622   1.998   3.465   5.389
 8553TIP3    H125623   1.947   3.539   5.421
 8553TIP3    H225624   2.076   3.463   5.444
 8554TIP3   OH225625   7.061   1.490   1.721
 8554TIP3    H125626   7.037   1.581   1.738
 8554TIP3    H225627   7.111   1.464   1.797
 8555TIP3   OH225628   6.843   5.959   4.121
 8555TIP3    H125629   6.749   5.945   4.113
 8555TIP3    H225630   6.852   6.027   4.187
 8556TIP3   OH225631   2.371   3.143   4.788
 8556TIP3    H125632   2.409   3.081   4.850
 8556TIP3    H225633   2.445   3.175   4.737
 8557TIP3   OH225634   4.718   0.017   0.195
 8557TIP3    H125635   4.684   0.081   0.258
 8557TIP3    H225636   4.658   0.022   0.121
 8558TIP3   OH225637   2.612   3.376   5.352
 8558TIP3    H125638   2.526   3.389   5.391
 8558TIP3    H225639   2.598   3.309   5.285
 8559TIP3   OH225640   6.152   5.002   4.336
 8559TIP3    H125641   6.076   4.971   4.384
 8559TIP3    H225642   6.221   5.011   4.402
 8560TIP3   OH225643   5.950   4.385   5.221
 8560TIP3    H125644   6.033   4.389   5.269
 8560TIP3    H225645   5.951   4.299   5.179
 8561TIP3   OH225646   5.377   3.674   1.343
 8561TIP3    H125647   5.440   3.728   1.297
 8561TIP3    H225648   5.313   3.735   1.379
 8562TIP3   OH225649   7.060   4.767   0.654
 8562TIP3    H125650   7.000   4.790   0.726
 8562TIP3    H225651   7.071   4.673   0.660
 8563TIP3   OH225652   3.291   1.727   3.322
 8563TIP3    H125653   3.310   1.794   3.387
 8563TIP3    H225654   3.202   1.747   3.293
 8564TIP3   OH225655   2.115   3.709   2.746
 8564TIP3    H125656   2.169   3.652   2.691
 8564TIP3    H225657   2.036   3.658   2.764
 8565TIP3   OH225658   2.281   0.980   0.140
 8565TIP3    H125659   2.275   1.021   0.226
 8565TIP3    H225660   2.200   1.005   0.096
 8566TIP3   OH225661   4.621   2.745   1.365
 8566TIP3    H125662   4.645   2.772   1.276
 8566TIP3    H225663   4.631   2.825   1.417
 8567TIP3   OH225664   4.530   6.236   2.376
 8567TIP3    H125665   4.460   6.213   2.437
 8567TIP3    H225666   4.500   6.201   2.292
 8568TIP3   OH225667   0.621   3.601   0.430
 8568TIP3    H125668   0.546   3.635   0.478
 8568TIP3    H225669   0.671   3.552   0.495
 8569TIP3   OH225670   3.561   2.314   3.580
 8569TIP3    H125671   3.538   2.277   3.665
 8569TIP3    H225672   3.496   2.382   3.565
 8570TIP3   OH225673   2.593   5.443   1.823
 8570TIP3    H125674   2.678   5.483   1.843
 8570TIP3    H225675   2.531   5.517   1.823
 8571TIP3   OH225676   1.298   4.697   0.190
 8571TIP3    H125677   1.224   4.643   0.215
 8571TIP3    H225678   1.259   4.772   0.144
 8572TIP3   OH225679   4.092   1.273   4.186
 8572TIP3    H125680   4.175   1.275   4.138
 8572TIP3    H225681   4.103   1.203   4.250
 8573TIP3   OH225682   0.784   1.747   1.270
 8573TIP3    H125683   0.752   1.735   1.180
 8573TIP3    H225684   0.874   1.715   1.268
 8574TIP3   OH225685   2.663   5.092   2.176
 8574TIP3    H125686   2.663   5.176   2.222
 8574TIP3    H225687   2.575   5.057   2.192
 8575TIP3   OH225688   1.311   2.160   4.028
 8575TIP3    H125689   1.238   2.221   4.032
 8575TIP3    H225690   1.371   2.198   3.963
 8576TIP3   OH225691   0.670   2.786   3.705
 8576TIP3    H125692   0.641   2.698   3.728
 8576TIP3    H225693   0.647   2.839   3.782
 8577TIP3   OH225694   4.665   3.848   2.926
 8577TIP3    H125695   4.656   3.785   2.997
 8577TIP3    H225696   4.652   3.797   2.846
 8578TIP3   OH225697   0.105   5.322   2.926
 8578TIP3    H125698   0.029   5.338   2.982
 8578TIP3    H225699   0.151   5.250   2.969
 8579TIP3   OH225700   7.049   3.191   4.347
 8579TIP3    H125701   7.046   3.277   4.306
 8579TIP3    H225702   7.075   3.131   4.277
 8580TIP3   OH225703   4.371   2.019   3.018
 8580TIP3    H125704   4.325   1.972   2.949
 8580TIP3    H225705   4.304   2.034   3.085
 8581TIP3   OH225706   0.885   1.365   1.884
 8581TIP3    H125707   0.872   1.354   1.790
 8581TIP3    H225708   0.909   1.457   1.894
 8582TIP3   OH225709   0.237   6.751   3.098
 8582TIP3    H125710   0.329   6.728   3.086
 8582TIP3    H225711   0.196   6.670   3.129
 8583TIP3   OH225712   5.010   5.638   3.494
 8583TIP3    H125713   4.934   5.689   3.522
 8583TIP3    H225714   4.992   5.618   3.401
 8584TIP3   OH225715   7.147   4.395   2.471
 8584TIP3    H125716   7.221   4.390   2.411
 8584TIP3    H225717   7.186   4.418   2.555
 8585TIP3   OH225718   4.597   3.393   0.385
 8585TIP3    H125719   4.624   3.473   0.430
 8585TIP3    H225720   4.647   3.393   0.303
 8586TIP3   OH225721   2.517   5.368   0.716
 8586TIP3    H125722   2.607   5.387   0.687
 8586TIP3    H225723   2.469   5.354   0.635
 8587TIP3   OH225724   1.977   4.239   3.555
 8587TIP3    H125725   1.992   4.175   3.485
 8587TIP3    H225726   1.995   4.324   3.514
 8588TIP3   OH225727   3.025   3.164   2.526
 8588TIP3    H125728   3.018   3.230   2.457
 8588TIP3    H225729   3.078   3.094   2.489
 8589TIP3   OH225730   3.297   1.042   5.789
 8589TIP3    H125731   3.339   1.127   5.804
 8589TIP3    H225732   3.205   1.063   5.774
 8590TIP3   OH225733   6.052   2.735   3.526
 8590TIP3    H125734   6.018   2.797   3.590
 8590TIP3    H225735   6.124   2.780   3.484
 8591TIP3   OH225736   2.482   4.131   0.516
 8591TIP3    H125737   2.414   4.102   0.577
 8591TIP3    H225738   2.494   4.057   0.456
 8592TIP3   OH225739   0.246   2.514   0.826
 8592TIP3    H125740   0.166   2.566   0.817
 8592TIP3    H225741   0.285   2.517   0.739
 8593TIP3   OH225742   3.389   1.427   3.021
 8593TIP3    H125743   3.338   1.507   3.037
 8593TIP3    H225744   3.479   1.457   3.011
 8594TIP3   OH225745   6.277   6.341   3.281
 8594TIP3    H125746   6.290   6.340   3.376
 8594TIP3    H225747   6.202   6.283   3.267
 8595TIP3   OH225748   5.920   4.877   4.487
 8595TIP3    H125749   5.853   4.810   4.472
 8595TIP3    H225750   5.901   4.911   4.574
 8596TIP3   OH225751   2.993   2.913   0.175
 8596TIP3    H125752   2.931   2.861   0.226
 8596TIP3    H225753   3.058   2.943   0.238
 8597TIP3   OH225754   2.397   2.881   5.895
 8597TIP3    H125755   2.356   2.842   5.817
 8597TIP3    H225756   2.372   2.973   5.892
 8598TIP3   OH225757   4.932   5.839   2.521
 8598TIP3    H125758   4.959   5.894   2.448
 8598TIP3    H225759   4.847   5.873   2.548
 8599TIP3   OH225760   0.837   5.302   0.651
 8599TIP3    H125761   0.898   5.276   0.720
 8599TIP3    H225762   0.782   5.368   0.692
 8600TIP3   OH225763   0.629   4.648   2.913
 8600TIP3    H125764   0.599   4.736   2.890
 8600TIP3    H225765   0.679   4.659   2.994
 8601TIP3   OH225766   4.549   3.261   0.884
 8601TIP3    H125767   4.618   3.208   0.844
 8601TIP3    H225768   4.592   3.343   0.907
 8602TIP3   OH225769   4.325   4.206   3.881
 8602TIP3    H125770   4.306   4.186   3.790
 8602TIP3    H225771   4.329   4.301   3.885
 8603TIP3   OH225772   2.355   5.323   5.083
 8603TIP3    H125773   2.417   5.296   5.151
 8603TIP3    H225774   2.338   5.415   5.101
 8604TIP3   OH225775   2.098   1.181   2.640
 8604TIP3    H125776   2.042   1.206   2.567
 8604TIP3    H225777   2.037   1.172   2.714
 8605TIP3   OH225778   0.061   6.142   1.607
 8605TIP3    H125779  -0.025   6.111   1.581
 8605TIP3    H225780   0.108   6.063   1.634
 8606TIP3   OH225781   3.448   0.602   2.541
 8606TIP3    H125782   3.475   0.659   2.469
 8606TIP3    H225783   3.531   0.571   2.579
 8607TIP3   OH225784   0.360   0.302   3.220
 8607TIP3    H125785   0.314   0.339   3.145
 8607TIP3    H225786   0.336   0.358   3.293
 8608TIP3   OH225787   1.482   1.075   4.382
 8608TIP3    H125788   1.483   0.999   4.323
 8608TIP3    H225789   1.540   1.050   4.454
 8609TIP3   OH225790   6.748   2.584   2.179
 8609TIP3    H125791   6.699   2.654   2.136
 8609TIP3    H225792   6.837   2.620   2.189
 8610TIP3   OH225793   1.320   5.927   0.079
 8610TIP3    H125794   1.284   5.863   0.017
 8610TIP3    H225795   1.327   6.008   0.028
 8611TIP3   OH225796   6.434   0.629   3.031
 8611TIP3    H125797   6.382   0.692   2.980
 8611TIP3    H225798   6.371   0.564   3.059
 8612TIP3   OH225799   4.961   2.850   0.465
 8612TIP3    H125800   4.983   2.807   0.548
 8612TIP3    H225801   4.868   2.871   0.473
 8613TIP3   OH225802   3.710   2.964   4.969
 8613TIP3    H125803   3.803   2.983   4.961
 8613TIP3    H225804   3.669   3.010   4.896
 8614TIP3   OH225805   0.197   4.098   3.204
 8614TIP3    H125806   0.160   4.167   3.259
 8614TIP3    H225807   0.226   4.144   3.125
 8615TIP3   OH225808   0.171   1.596   2.562
 8615TIP3    H125809   0.102   1.530   2.553
 8615TIP3    H225810   0.144   1.667   2.504
 8616TIP3   OH225811   2.315   0.380   1.072
 8616TIP3    H125812   2.225   0.404   1.049
 8616TIP3    H225813   2.318   0.285   1.055
 8617TIP3   OH225814   6.041   5.155   5.013
 8617TIP3    H125815   6.012   5.224   4.953
 8617TIP3    H225816   6.067   5.202   5.092
 8618TIP3   OH225817   3.006   5.137   1.833
 8618TIP3    H125818   2.937   5.120   1.897
 8618TIP3    H225819   3.004   5.061   1.775
 8619TIP3   OH225820   1.702   5.530   1.041
 8619TIP3    H125821   1.674   5.451   1.087
 8619TIP3    H225822   1.621   5.575   1.019
 8620TIP3   OH225823   6.784   3.912   3.306
 8620TIP3    H125824   6.827   3.965   3.238
 8620TIP3    H225825   6.692   3.938   3.303
 8621TIP3   OH225826   1.002   3.341   0.819
 8621TIP3    H125827   0.977   3.374   0.905
 8621TIP3    H225828   0.959   3.400   0.757
 8622TIP3   OH225829   5.578   2.650   2.638
 8622TIP3    H125830   5.502   2.651   2.697
 8622TIP3    H225831   5.567   2.570   2.586
 8623TIP3   OH225832   0.568   5.921   1.048
 8623TIP3    H125833   0.558   5.869   0.968
 8623TIP3    H225834   0.507   5.882   1.110
 8624TIP3   OH225835   5.784   4.353   3.438
 8624TIP3    H125836   5.762   4.292   3.368
 8624TIP3    H225837   5.843   4.416   3.397
 8625TIP3   OH225838   6.267   2.754   1.569
 8625TIP3    H125839   6.272   2.841   1.609
 8625TIP3    H225840   6.278   2.771   1.475
 8626TIP3   OH225841   2.545   0.813   4.932
 8626TIP3    H125842   2.487   0.879   4.895
 8626TIP3    H225843   2.633   0.842   4.907
 8627TIP3   OH225844   4.794   4.555   3.675
 8627TIP3    H125845   4.753   4.640   3.662
 8627TIP3    H225846   4.862   4.572   3.741
 8628TIP3   OH225847   5.171   2.586   3.899
 8628TIP3    H125848   5.264   2.585   3.877
 8628TIP3    H225849   5.137   2.503   3.864
 8629TIP3   OH225850   6.291   0.615   3.942
 8629TIP3    H125851   6.385   0.596   3.942
 8629TIP3    H225852   6.259   0.573   3.862
 8630TIP3   OH225853   2.903   0.516   0.420
 8630TIP3    H125854   2.934   0.427   0.402
 8630TIP3    H225855   2.872   0.512   0.511
 8631TIP3   OH225856   5.317   3.033   5.788
 8631TIP3    H125857   5.391   2.977   5.809
 8631TIP3    H225858   5.356   3.117   5.763
 8632TIP3   OH225859   5.759   5.018   5.545
 8632TIP3    H125860   5.673   4.977   5.550
 8632TIP3    H225861   5.751   5.097   5.599
 8633TIP3   OH225862   6.493   5.535   0.123
 8633TIP3    H125863   6.514   5.442   0.120
 8633TIP3    H225864   6.528   5.566   0.206
 8634TIP3   OH225865   1.506   3.184   2.013
 8634TIP3    H125866   1.489   3.222   1.927
 8634TIP3    H225867   1.419   3.177   2.053
 8635TIP3   OH225868   4.908   2.994   4.949
 8635TIP3    H125869   4.983   2.974   4.893
 8635TIP3    H225870   4.897   3.089   4.941
 8636TIP3   OH225871   1.336   3.607   5.834
 8636TIP3    H125872   1.328   3.702   5.841
 8636TIP3    H225873   1.392   3.582   5.907
 8637TIP3   OH225874   5.340   3.330   5.206
 8637TIP3    H125875   5.405   3.272   5.166
 8637TIP3    H225876   5.387   3.412   5.220
 8638TIP3   OH225877   1.082   4.050   5.268
 8638TIP3    H125878   1.173   4.020   5.265
 8638TIP3    H225879   1.065   4.082   5.179
 8639TIP3   OH225880   0.237   3.444   1.979
 8639TIP3    H125881   0.244   3.540   1.982
 8639TIP3    H225882   0.147   3.426   2.006
 8640TIP3   OH225883   0.023   3.130   2.419
 8640TIP3    H125884  -0.003   3.105   2.330
 8640TIP3    H225885   0.118   3.129   2.418
 8641TIP3   OH225886   4.863   2.099   3.700
 8641TIP3    H125887   4.957   2.094   3.718
 8641TIP3    H225888   4.858   2.128   3.609
 8642TIP3   OH225889   6.288   4.922   3.321
 8642TIP3    H125890   6.225   4.959   3.259
 8642TIP3    H225891   6.326   4.998   3.366
 8643TIP3   OH225892   3.474   2.632   3.556
 8643TIP3    H125893   3.566   2.626   3.533
 8643TIP3    H225894   3.428   2.640   3.472
 8644TIP3   OH225895   1.508   1.600   3.853
 8644TIP3    H125896   1.414   1.600   3.835
 8644TIP3    H225897   1.548   1.573   3.770
 8645TIP3   OH225898   5.304   0.385   2.960
 8645TIP3    H125899   5.351   0.447   2.904
 8645TIP3    H225900   5.349   0.302   2.946
 8646TIP3   OH225901   4.468   1.546   2.081
 8646TIP3    H125902   4.404   1.615   2.102
 8646TIP3    H225903   4.528   1.546   2.156
 8647TIP3   OH225904   4.631   2.638   5.353
 8647TIP3    H125905   4.582   2.608   5.277
 8647TIP3    H225906   4.712   2.674   5.317
 8648TIP3   OH225907   6.359   3.377   0.426
 8648TIP3    H125908   6.431   3.410   0.479
 8648TIP3    H225909   6.324   3.303   0.475
 8649TIP3   OH225910   5.747   0.442   5.371
 8649TIP3    H125911   5.730   0.536   5.375
 8649TIP3    H225912   5.742   0.413   5.462
 8650TIP3   OH225913   4.931   4.461   2.078
 8650TIP3    H125914   4.939   4.464   1.983
 8650TIP3    H225915   4.929   4.368   2.099
 8651TIP3   OH225916   0.451   2.037   0.702
 8651TIP3    H125917   0.519   1.970   0.710
 8651TIP3    H225918   0.435   2.044   0.608
 8652TIP3   OH225919   6.957   4.495   4.300
 8652TIP3    H125920   6.912   4.575   4.274
 8652TIP3    H225921   6.947   4.491   4.395
 8653TIP3   OH225922   3.617   1.504   4.470
 8653TIP3    H125923   3.582   1.572   4.412
 8653TIP3    H225924   3.652   1.437   4.411
 8654TIP3   OH225925   3.469   5.885   5.102
 8654TIP3    H125926   3.550   5.849   5.064
 8654TIP3    H225927   3.399   5.841   5.055
 8655TIP3   OH225928   7.203   0.458   4.605
 8655TIP3    H125929   7.169   0.496   4.524
 8655TIP3    H225930   7.233   0.533   4.656
 8656TIP3   OH225931   0.492   1.048   4.136
 8656TIP3    H125932   0.586   1.034   4.138
 8656TIP3    H225933   0.481   1.132   4.090
 8657TIP3   OH225934   1.151   4.567   1.911
 8657TIP3    H125935   1.100   4.542   1.834
 8657TIP3    H225936   1.104   4.643   1.947
 8658TIP3   OH225937   0.891   5.594   4.706
 8658TIP3    H125938   0.884   5.632   4.794
 8658TIP3    H225939   0.969   5.539   4.709
 8659TIP3   OH225940   0.320   6.606   1.969
 8659TIP3    H125941   0.362   6.684   1.933
 8659TIP3    H225942   0.375   6.582   2.044
 8660TIP3   OH225943   7.112   2.153   4.470
 8660TIP3    H125944   7.017   2.149   4.461
 8660TIP3    H225945   7.126   2.171   4.563
 8661TIP3   OH225946   4.072   0.319   2.029
 8661TIP3    H125947   4.059   0.231   1.993
 8661TIP3    H225948   4.149   0.311   2.086
 8662TIP3   OH225949   3.713   1.343   4.247
 8662TIP3    H125950   3.629   1.349   4.202
 8662TIP3    H225951   3.776   1.321   4.178
 8663TIP3   OH225952   3.891   1.413   2.391
 8663TIP3    H125953   3.838   1.465   2.330
 8663TIP3    H225954   3.831   1.392   2.462
 8664TIP3   OH225955   0.824   3.857   0.418
 8664TIP3    H125956   0.920   3.860   0.420
 8664TIP3    H225957   0.804   3.767   0.391
 8665TIP3   OH225958   7.196   1.971   5.641
 8665TIP3    H125959   7.111   1.943   5.605
 8665TIP3    H225960   7.206   2.061   5.608
 8666TIP3   OH225961   3.263   3.191   5.380
 8666TIP3    H125962   3.257   3.280   5.345
 8666TIP3    H225963   3.337   3.152   5.333
 8667TIP3   OH225964   3.086   5.350   1.995
 8667TIP3    H125965   3.055   5.277   1.940
 8667TIP3    H225966   3.016   5.415   1.989
 8668TIP3   OH225967   0.254   3.851   2.775
 8668TIP3    H125968   0.233   3.857   2.868
 8668TIP3    H225969   0.269   3.758   2.759
 8669TIP3   OH225970   2.094   1.131   4.699
 8669TIP3    H125971   2.105   1.138   4.794
 8669TIP3    H225972   1.999   1.125   4.686
 8670TIP3   OH225973   6.948   0.277  -0.002
 8670TIP3    H125974   6.896   0.227   0.061
 8670TIP3    H225975   6.886   0.338  -0.042
 8671TIP3   OH225976   2.258   2.530   4.934
 8671TIP3    H125977   2.206   2.604   4.904
 8671TIP3    H225978   2.340   2.537   4.886
 8672TIP3   OH225979   2.674   0.150   5.542
 8672TIP3    H125980   2.686   0.095   5.620
 8672TIP3    H225981   2.690   0.090   5.468
 8673TIP3   OH225982   7.101   3.065   3.869
 8673TIP3    H125983   7.152   3.059   3.788
 8673TIP3    H225984   7.027   3.121   3.846
 8674TIP3   OH225985   0.602   1.886   4.707
 8674TIP3    H125986   0.650   1.806   4.685
 8674TIP3    H225987   0.638   1.953   4.649
 8675TIP3   OH225988   5.227   2.337   3.413
 8675TIP3    H125989   5.182   2.371   3.490
 8675TIP3    H225990   5.256   2.249   3.440
 8676TIP3   OH225991   4.431   3.029   1.637
 8676TIP3    H125992   4.492   3.004   1.707
 8676TIP3    H225993   4.415   3.122   1.651
 8677TIP3   OH225994   1.305   1.980   5.559
 8677TIP3    H125995   1.234   1.915   5.556
 8677TIP3    H225996   1.382   1.931   5.529
 8678TIP3   OH225997   3.452   6.531   5.258
 8678TIP3    H125998   3.539   6.558   5.288
 8678TIP3    H225999   3.460   6.437   5.243
 8679TIP3   OH226000   5.876   4.875   3.865
 8679TIP3    H126001   5.936   4.898   3.936
 8679TIP3    H226002   5.789   4.879   3.905
 8680TIP3   OH226003   4.849   3.157   2.807
 8680TIP3    H126004   4.767   3.205   2.815
 8680TIP3    H226005   4.917   3.225   2.806
 8681TIP3   OH226006   5.540   1.869   5.485
 8681TIP3    H126007   5.567   1.920   5.409
 8681TIP3    H226008   5.610   1.884   5.549
 8682TIP3   OH226009   2.955   2.351   3.770
 8682TIP3    H126010   2.889   2.362   3.702
 8682TIP3    H226011   2.914   2.388   3.849
 8683TIP3   OH226012   3.068   4.089   4.129
 8683TIP3    H126013   2.992   4.132   4.169
 8683TIP3    H226014   3.054   3.996   4.146
 8684TIP3   OH226015   4.307   5.956   2.184
 8684TIP3    H126016   4.229   5.957   2.129
 8684TIP3    H226017   4.357   6.033   2.156
 8685TIP3   OH226018   4.473   3.468   1.875
 8685TIP3    H126019   4.412   3.498   1.808
 8685TIP3    H226020   4.554   3.516   1.856
 8686TIP3   OH226021   6.547   2.096   0.223
 8686TIP3    H126022   6.483   2.027   0.244
 8686TIP3    H226023   6.596   2.061   0.149
 8687TIP3   OH226024   3.442   2.806   1.373
 8687TIP3    H126025   3.403   2.892   1.357
 8687TIP3    H226026   3.512   2.822   1.437
 8688TIP3   OH226027   2.987   3.041   2.090
 8688TIP3    H126028   2.906   3.075   2.127
 8688TIP3    H226029   3.009   2.965   2.144
 8689TIP3   OH226030   4.898   5.259   4.574
 8689TIP3    H126031   4.819   5.299   4.611
 8689TIP3    H226032   4.881   5.165   4.576
 8690TIP3   OH226033   6.274   6.181   5.580
 8690TIP3    H126034   6.342   6.156   5.518
 8690TIP3    H226035   6.296   6.135   5.661
 8691TIP3   OH226036   2.888   2.113   1.646
 8691TIP3    H126037   2.892   2.121   1.551
 8691TIP3    H226038   2.796   2.091   1.665
 8692TIP3   OH226039   6.168   5.545   1.776
 8692TIP3    H126040   6.197   5.457   1.753
 8692TIP3    H226041   6.181   5.552   1.870
 8693TIP3   OH226042   4.671   5.757   1.597
 8693TIP3    H126043   4.754   5.804   1.601
 8693TIP3    H226044   4.629   5.790   1.518
 8694TIP3   OH226045   1.406   4.311   5.814
 8694TIP3    H126046   1.447   4.356   5.740
 8694TIP3    H226047   1.329   4.363   5.835
 8695TIP3   OH226048   1.649   5.722   2.736
 8695TIP3    H126049   1.721   5.689   2.789
 8695TIP3    H226050   1.636   5.656   2.668
 8696TIP3   OH226051   4.788   5.966   0.649
 8696TIP3    H126052   4.773   5.881   0.608
 8696TIP3    H226053   4.882   5.969   0.664
 8697TIP3   OH226054   2.607   0.067   0.929
 8697TIP3    H126055   2.650   0.153   0.926
 8697TIP3    H226056   2.676   0.007   0.957
 8698TIP3   OH226057   2.384   1.075   4.151
 8698TIP3    H126058   2.439   1.067   4.229
 8698TIP3    H226059   2.296   1.056   4.183
 8699TIP3   OH226060   6.436   4.413   4.814
 8699TIP3    H126061   6.385   4.477   4.765
 8699TIP3    H226062   6.431   4.441   4.905
 8700TIP3   OH226063   2.892   2.110   1.063
 8700TIP3    H126064   2.919   2.200   1.043
 8700TIP3    H226065   2.974   2.060   1.066
 8701TIP3   OH226066   0.555   4.482   4.554
 8701TIP3    H126067   0.629   4.456   4.610
 8701TIP3    H226068   0.552   4.415   4.486
 8702TIP3   OH226069   0.625   4.329   4.044
 8702TIP3    H126070   0.690   4.300   3.980
 8702TIP3    H226071   0.673   4.338   4.126
 8703TIP3   OH226072   3.549   6.481   2.714
 8703TIP3    H126073   3.560   6.565   2.669
 8703TIP3    H226074   3.624   6.429   2.686
 8704TIP3   OH226075   0.935   0.477   5.359
 8704TIP3    H126076   0.972   0.549   5.411
 8704TIP3    H226077   0.883   0.521   5.292
 8705TIP3   OH226078   3.366   6.001   5.325
 8705TIP3    H126079   3.449   6.023   5.367
 8705TIP3    H226080   3.390   5.971   5.237
 8706TIP3   OH226081   3.520   0.852   4.703
 8706TIP3    H126082   3.484   0.778   4.751
 8706TIP3    H226083   3.496   0.835   4.611
 8707TIP3   OH226084   2.455   2.462   0.575
 8707TIP3    H126085   2.467   2.528   0.644
 8707TIP3    H226086   2.499   2.384   0.608
 8708TIP3   OH226087   6.808   2.138   0.023
 8708TIP3    H126088   6.892   2.178   0.002
 8708TIP3    H226089   6.760   2.207   0.069
 8709TIP3   OH226090   4.692   0.721   5.631
 8709TIP3    H126091   4.721   0.785   5.696
 8709TIP3    H226092   4.742   0.743   5.552
 8710TIP3   OH226093   4.174   3.231   5.482
 8710TIP3    H126094   4.151   3.306   5.429
 8710TIP3    H226095   4.091   3.204   5.524
 8711TIP3   OH226096   5.535   2.415   2.461
 8711TIP3    H126097   5.458   2.392   2.408
 8711TIP3    H226098   5.527   2.360   2.539
 8712TIP3   OH226099   4.203   1.636   1.907
 8712TIP3    H126100   4.119   1.641   1.861
 8712TIP3    H226101   4.188   1.679   1.990
 8713TIP3   OH226102   6.314   4.080   5.740
 8713TIP3    H126103   6.264   4.127   5.673
 8713TIP3    H226104   6.270   4.101   5.822
 8714TIP3   OH226105   5.859   6.069   4.464
 8714TIP3    H126106   5.766   6.050   4.477
 8714TIP3    H226107   5.871   6.071   4.369
 8715TIP3   OH226108   5.050   4.201   0.807
 8715TIP3    H126109   4.990   4.144   0.856
 8715TIP3    H226110   5.006   4.285   0.802
 8716TIP3   OH226111   5.792   3.022   2.978
 8716TIP3    H126112   5.829   3.091   2.924
 8716TIP3    H226113   5.780   3.063   3.064
 8717TIP3   OH226114   3.617   2.610   5.307
 8717TIP3    H126115   3.581   2.525   5.330
 8717TIP3    H226116   3.623   2.657   5.391
 8718TIP3   OH226117   1.154   5.255   2.478
 8718TIP3    H126118   1.180   5.168   2.511
 8718TIP3    H226119   1.228   5.283   2.424
 8719TIP3   OH226120   3.645   1.389   0.197
 8719TIP3    H126121   3.641   1.340   0.279
 8719TIP3    H226122   3.674   1.476   0.223
 8720TIP3   OH226123   3.568   2.654   3.193
 8720TIP3    H126124   3.514   2.624   3.267
 8720TIP3    H226125   3.607   2.736   3.225
 8721TIP3   OH226126   2.816   2.194   5.750
 8721TIP3    H126127   2.825   2.189   5.655
 8721TIP3    H226128   2.897   2.155   5.783
 8722TIP3   OH226129   5.732   5.418   4.252
 8722TIP3    H126130   5.645   5.444   4.282
 8722TIP3    H226131   5.789   5.490   4.279
 8723TIP3   OH226132   3.713   6.627   1.636
 8723TIP3    H126133   3.699   6.654   1.726
 8723TIP3    H226134   3.808   6.614   1.629
 8724TIP3   OH226135   4.178   2.536   4.710
 8724TIP3    H126136   4.084   2.552   4.718
 8724TIP3    H226137   4.186   2.443   4.691
 8725TIP3   OH226138   0.653   0.621   4.536
 8725TIP3    H126139   0.647   0.622   4.440
 8725TIP3    H226140   0.563   0.617   4.566
 8726TIP3   OH226141   6.144   2.234   5.582
 8726TIP3    H126142   6.221   2.281   5.549
 8726TIP3    H226143   6.097   2.209   5.503
 8727TIP3   OH226144   0.094   4.916   3.232
 8727TIP3    H126145   0.167   4.903   3.293
 8727TIP3    H226146   0.038   4.839   3.245
 8728TIP3   OH226147   1.519   6.131   4.883
 8728TIP3    H126148   1.595   6.177   4.847
 8728TIP3    H226149   1.468   6.104   4.806
 8729TIP3   OH226150   4.087   6.137   1.275
 8729TIP3    H126151   4.041   6.213   1.312
 8729TIP3    H226152   4.156   6.118   1.338
 8730TIP3   OH226153   4.273   0.151   1.615
 8730TIP3    H126154   4.330   0.106   1.677
 8730TIP3    H226155   4.295   0.113   1.530
 8731TIP3   OH226156   2.094   4.996   2.576
 8731TIP3    H126157   2.026   4.929   2.580
 8731TIP3    H226158   2.175   4.948   2.557
 8732TIP3   OH226159   3.376   4.037   4.622
 8732TIP3    H126160   3.343   4.022   4.534
 8732TIP3    H226161   3.342   4.123   4.646
 8733TIP3   OH226162   6.057   6.602   4.410
 8733TIP3    H126163   6.106   6.523   4.434
 8733TIP3    H226164   6.082   6.619   4.319
 8734TIP3   OH226165   4.415   5.871   3.792
 8734TIP3    H126166   4.505   5.840   3.785
 8734TIP3    H226167   4.420   5.948   3.848
 8735TIP3   OH226168   6.392   1.844   5.097
 8735TIP3    H126169   6.395   1.797   5.181
 8735TIP3    H226170   6.330   1.795   5.044
 8736TIP3   OH226171   4.362   0.179   1.333
 8736TIP3    H126172   4.386   0.130   1.254
 8736TIP3    H226173   4.441   0.178   1.387
 8737TIP3   OH226174   2.509   3.344   1.102
 8737TIP3    H126175   2.571   3.410   1.131
 8737TIP3    H226176   2.502   3.358   1.007
 8738TIP3   OH226177   4.163   1.802   0.475
 8738TIP3    H126178   4.242   1.855   0.468
 8738TIP3    H226179   4.189   1.716   0.444
 8739TIP3   OH226180   5.668   3.462   0.503
 8739TIP3    H126181   5.739   3.522   0.526
 8739TIP3    H226182   5.697   3.377   0.534
 8740TIP3   OH226183   3.210   6.101   0.105
 8740TIP3    H126184   3.237   6.131   0.018
 8740TIP3    H226185   3.160   6.022   0.089
 8741TIP3   OH226186   2.755   3.407   1.187
 8741TIP3    H126187   2.741   3.417   1.281
 8741TIP3    H226188   2.829   3.465   1.168
 8742TIP3   OH226189   1.429   3.197   1.731
 8742TIP3    H126190   1.342   3.163   1.749
 8742TIP3    H226191   1.415   3.290   1.713
 8743TIP3   OH226192   2.541   2.334   3.268
 8743TIP3    H126193   2.458   2.294   3.243
 8743TIP3    H226194   2.605   2.263   3.262
 8744TIP3   OH226195   6.202   0.643   1.401
 8744TIP3    H126196   6.107   0.650   1.401
 8744TIP3    H226197   6.233   0.725   1.363
 8745TIP3   OH226198   2.393   4.005   4.635
 8745TIP3    H126199   2.349   3.962   4.709
 8745TIP3    H226200   2.380   4.098   4.651
 8746TIP3   OH226201   4.808   0.591   3.321
 8746TIP3    H126202   4.755   0.553   3.391
 8746TIP3    H226203   4.803   0.686   3.336
 8747TIP3   OH226204   4.036   1.183   2.931
 8747TIP3    H126205   3.944   1.190   2.902
 8747TIP3    H226206   4.030   1.165   3.024
 8748TIP3   OH226207   3.857   3.957   2.284
 8748TIP3    H126208   3.787   4.021   2.270
 8748TIP3    H226209   3.813   3.882   2.323
 8749TIP3   OH226210   5.880   1.985   1.645
 8749TIP3    H126211   5.903   2.074   1.619
 8749TIP3    H226212   5.916   1.976   1.733
 8750TIP3   OH226213   3.971   0.944   3.627
 8750TIP3    H126214   4.056   0.989   3.627
 8750TIP3    H226215   3.920   0.989   3.559
 8751TIP3   OH226216   1.151   4.672   2.274
 8751TIP3    H126217   1.196   4.735   2.330
 8751TIP3    H226218   1.218   4.607   2.253
 8752TIP3   OH226219   2.945   2.847   3.949
 8752TIP3    H126220   2.958   2.807   4.035
 8752TIP3    H226221   3.030   2.839   3.905
 8753TIP3   OH226222   7.111   5.240   2.526
 8753TIP3    H126223   7.189   5.282   2.563
 8753TIP3    H226224   7.053   5.312   2.501
 8754TIP3   OH226225   3.226   6.653   0.226
 8754TIP3    H126226   3.245   6.562   0.203
 8754TIP3    H226227   3.309   6.699   0.217
 8755TIP3   OH226228   4.623   0.989   1.278
 8755TIP3    H126229   4.694   1.048   1.304
 8755TIP3    H226230   4.585   1.030   1.201
 8756TIP3   OH226231   3.352   2.014   2.319
 8756TIP3    H126232   3.436   2.059   2.314
 8756TIP3    H226233   3.287   2.080   2.296
 8757TIP3   OH226234   4.464   6.698   0.934
 8757TIP3    H126235   4.438   6.648   1.012
 8757TIP3    H226236   4.511   6.634   0.880
 8758TIP3   OH226237   3.793   6.678   2.143
 8758TIP3    H126238   3.811   6.584   2.147
 8758TIP3    H226239   3.873   6.719   2.175
 8759TIP3   OH226240   3.094   3.787   3.805
 8759TIP3    H126241   3.019   3.820   3.856
 8759TIP3    H226242   3.170   3.827   3.847
 8760TIP3   OH226243   0.839   6.233   1.966
 8760TIP3    H126244   0.852   6.277   1.882
 8760TIP3    H226245   0.750   6.199   1.961
 8761TIP3   OH226246   3.935   4.581   5.170
 8761TIP3    H126247   3.877   4.507   5.155
 8761TIP3    H226248   3.890   4.634   5.236
 8762TIP3   OH226249   6.380   4.891   5.792
 8762TIP3    H126250   6.434   4.934   5.858
 8762TIP3    H226251   6.439   4.880   5.717
 8763TIP3   OH226252   6.124   6.145   1.342
 8763TIP3    H126253   6.075   6.086   1.399
 8763TIP3    H226254   6.121   6.103   1.256
 8764TIP3   OH226255   6.407   1.417   5.867
 8764TIP3    H126256   6.467   1.422   5.793
 8764TIP3    H226257   6.432   1.336   5.912
 8765TIP3   OH226258   7.153   0.841   4.270
 8765TIP3    H126259   7.248   0.830   4.279
 8765TIP3    H226260   7.138   0.935   4.285
 8766TIP3   OH226261   3.351   6.283   1.026
 8766TIP3    H126262   3.420   6.249   1.083
 8766TIP3    H226263   3.392   6.286   0.939
 8767TIP3   OH226264   3.406   0.781   3.232
 8767TIP3    H126265   3.472   0.798   3.299
 8767TIP3    H226266   3.456   0.776   3.150
 8768TIP3   OH226267   0.411   2.687   3.866
 8768TIP3    H126268   0.464   2.766   3.859
 8768TIP3    H226269   0.433   2.651   3.952
 8769TIP3   OH226270   1.182   3.059   1.799
 8769TIP3    H126271   1.130   3.043   1.720
 8769TIP3    H226272   1.156   2.988   1.858
 8770TIP3   OH226273   6.427   0.246   1.246
 8770TIP3    H126274   6.361   0.291   1.194
 8770TIP3    H226275   6.473   0.317   1.293
 8771TIP3   OH226276   6.843   5.592   0.609
 8771TIP3    H126277   6.834   5.530   0.537
 8771TIP3    H226278   6.822   5.677   0.571
 8772TIP3   OH226279   1.560   6.517   4.960
 8772TIP3    H126280   1.622   6.528   4.888
 8772TIP3    H226281   1.615   6.489   5.034
 8773TIP3   OH226282   0.385   5.608   4.270
 8773TIP3    H126283   0.389   5.704   4.272
 8773TIP3    H226284   0.443   5.583   4.199
 8774TIP3   OH226285   2.199   3.643   0.512
 8774TIP3    H126286   2.190   3.641   0.416
 8774TIP3    H226287   2.153   3.722   0.539
 8775TIP3   OH226288   7.076   2.207   1.688
 8775TIP3    H126289   7.046   2.288   1.646
 8775TIP3    H226290   7.090   2.232   1.779
 8776TIP3   OH226291   0.212   3.263   0.476
 8776TIP3    H126292   0.176   3.175   0.477
 8776TIP3    H226293   0.203   3.292   0.385
 8777TIP3   OH226294   0.381   4.086   0.921
 8777TIP3    H126295   0.345   4.103   0.834
 8777TIP3    H226296   0.323   4.019   0.958
 8778TIP3   OH226297   6.794   3.670   4.909
 8778TIP3    H126298   6.780   3.628   4.994
 8778TIP3    H226299   6.853   3.611   4.862
 8779TIP3   OH226300   1.341   2.507   4.669
 8779TIP3    H126301   1.309   2.580   4.616
 8779TIP3    H226302   1.292   2.514   4.751
 8780TIP3   OH226303   1.986   5.730   3.864
 8780TIP3    H126304   1.979   5.740   3.959
 8780TIP3    H226305   1.897   5.742   3.832
 8781TIP3   OH226306   3.264   6.173   2.334
 8781TIP3    H126307   3.332   6.213   2.389
 8781TIP3    H226308   3.254   6.085   2.370
 8782TIP3   OH226309   4.597   2.921   2.472
 8782TIP3    H126310   4.527   2.858   2.453
 8782TIP3    H226311   4.597   2.929   2.567
 8783TIP3   OH226312   7.183   2.628   5.442
 8783TIP3    H126313   7.230   2.639   5.525
 8783TIP3    H226314   7.147   2.715   5.424
 8784TIP3   OH226315   6.760   5.646   5.595
 8784TIP3    H126316   6.689   5.585   5.618
 8784TIP3    H226317   6.839   5.606   5.631
 8785TIP3   OH226318   0.404   4.120   2.533
 8785TIP3    H126319   0.485   4.156   2.570
 8785TIP3    H226320   0.386   4.175   2.457
 8786TIP3   OH226321   3.743   2.596   2.999
 8786TIP3    H126322   3.806   2.666   2.985
 8786TIP3    H226323   3.694   2.623   3.077
 8787TIP3   OH226324   1.962   2.752   3.715
 8787TIP3    H126325   1.936   2.674   3.666
 8787TIP3    H226326   1.932   2.826   3.661
 8788TIP3   OH226327   1.061   4.863   0.456
 8788TIP3    H126328   0.992   4.929   0.455
 8788TIP3    H226329   1.017   4.782   0.483
 8789TIP3   OH226330   1.687   4.866   3.702
 8789TIP3    H126331   1.745   4.829   3.769
 8789TIP3    H226332   1.724   4.835   3.619
 8790TIP3   OH226333   1.408   2.566   3.891
 8790TIP3    H126334   1.374   2.500   3.952
 8790TIP3    H226335   1.489   2.597   3.933
 8791TIP3   OH226336   1.953   4.598   4.473
 8791TIP3    H126337   2.039   4.602   4.430
 8791TIP3    H226338   1.930   4.690   4.487
 8792TIP3   OH226339   5.259   5.480   2.811
 8792TIP3    H126340   5.255   5.388   2.787
 8792TIP3    H226341   5.299   5.523   2.736
 8793TIP3   OH226342   4.303   0.499   5.750
 8793TIP3    H126343   4.345   0.554   5.683
 8793TIP3    H226344   4.313   0.410   5.718
 8794TIP3   OH226345   4.496   2.693   2.054
 8794TIP3    H126346   4.429   2.690   2.123
 8794TIP3    H226347   4.539   2.778   2.067
 8795TIP3   OH226348   3.294   0.584   5.451
 8795TIP3    H126349   3.298   0.661   5.508
 8795TIP3    H226350   3.385   0.565   5.429
 8796TIP3   OH226351   4.589   6.044   3.165
 8796TIP3    H126352   4.669   6.068   3.211
 8796TIP3    H226353   4.529   6.117   3.182
 8797TIP3   OH226354   5.215   0.963   1.725
 8797TIP3    H126355   5.201   1.056   1.746
 8797TIP3    H226356   5.127   0.925   1.724
 8798TIP3   OH226357   5.345   2.467   1.146
 8798TIP3    H126358   5.340   2.555   1.109
 8798TIP3    H226359   5.399   2.477   1.224
 8799TIP3   OH226360   2.569   6.371   1.833
 8799TIP3    H126361   2.482   6.356   1.871
 8799TIP3    H226362   2.553   6.430   1.759
 8800TIP3   OH226363   2.534   5.373   3.417
 8800TIP3    H126364   2.481   5.414   3.486
 8800TIP3    H226365   2.624   5.386   3.444
 8801TIP3   OH226366   5.586   4.459   3.164
 8801TIP3    H126367   5.654   4.526   3.171
 8801TIP3    H226368   5.591   4.429   3.073
 8802TIP3   OH226369   2.171   6.535   3.361
 8802TIP3    H126370   2.178   6.630   3.353
 8802TIP3    H226371   2.129   6.507   3.280
 8803TIP3   OH226372   7.106   2.987   4.149
 8803TIP3    H126373   7.101   2.988   4.054
 8803TIP3    H226374   7.167   2.915   4.169
 8804TIP3   OH226375   1.430   0.241   1.540
 8804TIP3    H126376   1.513   0.196   1.556
 8804TIP3    H226377   1.456   0.329   1.512
 8805TIP3   OH226378   2.402   4.256   1.822
 8805TIP3    H126379   2.410   4.274   1.728
 8805TIP3    H226380   2.385   4.162   1.827
 8806TIP3   OH226381   0.839   6.370   2.600
 8806TIP3    H126382   0.829   6.289   2.551
 8806TIP3    H226383   0.816   6.439   2.538
 8807TIP3   OH226384   7.199   1.614   0.628
 8807TIP3    H126385   7.141   1.548   0.591
 8807TIP3    H226386   7.254   1.566   0.690
 8808TIP3   OH226387   2.674   5.634   3.695
 8808TIP3    H126388   2.758   5.680   3.697
 8808TIP3    H226389   2.676   5.583   3.614
 8809TIP3   OH226390   6.187   0.084   2.450
 8809TIP3    H126391   6.180   0.002   2.499
 8809TIP3    H226392   6.097   0.115   2.443
 8810TIP3   OH226393   5.168   0.351   1.984
 8810TIP3    H126394   5.114   0.370   1.907
 8810TIP3    H226395   5.225   0.427   1.993
 8811TIP3   OH226396   1.126   6.158   4.219
 8811TIP3    H126397   1.155   6.249   4.221
 8811TIP3    H226398   1.082   6.150   4.134
 8812TIP3   OH226399   2.383   3.415   4.235
 8812TIP3    H126400   2.454   3.378   4.182
 8812TIP3    H226401   2.305   3.368   4.207
 8813TIP3   OH226402   6.565   3.446   0.698
 8813TIP3    H126403   6.603   3.488   0.621
 8813TIP3    H226404   6.594   3.501   0.771
 8814TIP3   OH226405   3.645   0.759   1.362
 8814TIP3    H126406   3.653   0.809   1.443
 8814TIP3    H226407   3.736   0.738   1.339
 8815TIP3   OH226408   4.415   6.296   1.270
 8815TIP3    H126409   4.455   6.228   1.216
 8815TIP3    H226410   4.383   6.250   1.347
 8816TIP3   OH226411   5.719   2.981   1.298
 8816TIP3    H126412   5.696   3.037   1.372
 8816TIP3    H226413   5.791   2.927   1.330
 8817TIP3   OH226414   3.819   1.034   0.314
 8817TIP3    H126415   3.833   1.127   0.334
 8817TIP3    H226416   3.881   1.015   0.244
 8818TIP3   OH226417   6.661   5.316   1.926
 8818TIP3    H126418   6.741   5.364   1.949
 8818TIP3    H226419   6.672   5.230   1.967
 8819TIP3   OH226420   0.511   2.653   4.711
 8819TIP3    H126421   0.505   2.558   4.715
 8819TIP3    H226422   0.605   2.671   4.713
 8820TIP3   OH226423   6.705   0.308   0.654
 8820TIP3    H126424   6.613   0.332   0.669
 8820TIP3    H226425   6.727   0.348   0.570
 8821TIP3   OH226426   0.384   5.566   0.154
 8821TIP3    H126427   0.329   5.546   0.078
 8821TIP3    H226428   0.431   5.646   0.129
 8822TIP3   OH226429   4.166   2.095   3.675
 8822TIP3    H126430   4.248   2.046   3.666
 8822TIP3    H226431   4.193   2.184   3.695
 8823TIP3   OH226432   5.504   3.208   4.999
 8823TIP3    H126433   5.508   3.296   4.961
 8823TIP3    H226434   5.443   3.160   4.943
 8824TIP3   OH226435   2.965   3.188   3.509
 8824TIP3    H126436   2.991   3.237   3.587
 8824TIP3    H226437   2.869   3.187   3.512
 8825TIP3   OH226438   1.908   2.942   5.770
 8825TIP3    H126439   1.882   2.987   5.690
 8825TIP3    H226440   1.990   2.984   5.795
 8826TIP3   OH226441   3.308   5.596   4.710
 8826TIP3    H126442   3.308   5.503   4.731
 8826TIP3    H226443   3.390   5.629   4.748
 8827TIP3   OH226444   6.171   6.386   4.520
 8827TIP3    H126445   6.266   6.379   4.525
 8827TIP3    H226446   6.140   6.370   4.610
 8828TIP3   OH226447   3.851   0.914   2.978
 8828TIP3    H126448   3.932   0.864   2.987
 8828TIP3    H226449   3.850   0.942   2.886
 8829TIP3   OH226450   6.497   3.572   1.663
 8829TIP3    H126451   6.403   3.563   1.653
 8829TIP3    H226452   6.531   3.567   1.574
 8830TIP3   OH226453   3.635   3.560   2.600
 8830TIP3    H126454   3.696   3.527   2.534
 8830TIP3    H226455   3.550   3.523   2.576
 8831TIP3   OH226456   4.092   0.444   1.122
 8831TIP3    H126457   4.138   0.528   1.122
 8831TIP3    H226458   4.104   0.410   1.210
 8832TIP3   OH226459   2.569   3.986   5.396
 8832TIP3    H126460   2.516   3.998   5.317
 8832TIP3    H226461   2.555   4.066   5.446
 8833TIP3   OH226462   2.482   5.449   4.674
 8833TIP3    H126463   2.516   5.538   4.684
 8833TIP3    H226464   2.524   5.415   4.595
 8834TIP3   OH226465   0.767   2.851   5.322
 8834TIP3    H126466   0.843   2.806   5.359
 8834TIP3    H226467   0.696   2.787   5.326
 8835TIP3   OH226468   4.916   2.934   1.316
 8835TIP3    H126469   4.914   2.839   1.304
 8835TIP3    H226470   5.007   2.954   1.337
 8836TIP3   OH226471   6.924   3.254   1.728
 8836TIP3    H126472   6.960   3.335   1.764
 8836TIP3    H226473   6.999   3.194   1.727
 8837TIP3   OH226474   5.773   2.182   4.809
 8837TIP3    H126475   5.734   2.143   4.887
 8837TIP3    H226476   5.719   2.259   4.792
 8838TIP3   OH226477   3.939   6.140   5.492
 8838TIP3    H126478   4.031   6.164   5.489
 8838TIP3    H226479   3.939   6.045   5.497
 8839TIP3   OH226480   2.501   2.325   2.064
 8839TIP3    H126481   2.575   2.266   2.054
 8839TIP3    H226482   2.448   2.311   1.986
 8840TIP3   OH226483   6.380   2.096   1.351
 8840TIP3    H126484   6.334   2.032   1.296
 8840TIP3    H226485   6.422   2.043   1.419
 8841TIP3   OH226486   1.273   0.003   0.808
 8841TIP3    H126487   1.310   0.084   0.774
 8841TIP3    H226488   1.332  -0.023   0.879
 8842TIP3   OH226489   3.337   5.649   2.426
 8842TIP3    H126490   3.330   5.557   2.450
 8842TIP3    H226491   3.269   5.692   2.478
 8843TIP3   OH226492   4.763   4.049   3.109
 8843TIP3    H126493   4.694   4.115   3.118
 8843TIP3    H226494   4.725   3.982   3.052
 8844TIP3   OH226495   2.061   0.517   1.583
 8844TIP3    H126496   1.979   0.483   1.620
 8844TIP3    H226497   2.084   0.590   1.641
 8845TIP3   OH226498   2.862   0.887   3.987
 8845TIP3    H126499   2.841   0.798   4.013
 8845TIP3    H226500   2.833   0.894   3.896
 8846TIP3   OH226501   0.980   3.234   1.205
 8846TIP3    H126502   0.898   3.186   1.197
 8846TIP3    H226503   1.048   3.167   1.204
 8847TIP3   OH226504   3.984   5.621   1.673
 8847TIP3    H126505   3.959   5.531   1.655
 8847TIP3    H226506   4.002   5.659   1.586
 8848TIP3   OH226507   1.964   4.315   2.488
 8848TIP3    H126508   2.050   4.318   2.447
 8848TIP3    H226509   1.946   4.405   2.513
 8849TIP3   OH226510   5.115   4.600   5.497
 8849TIP3    H126511   5.099   4.692   5.476
 8849TIP3    H226512   5.169   4.602   5.576
 8850TIP3   OH226513   0.405   2.399   5.131
 8850TIP3    H126514   0.392   2.378   5.224
 8850TIP3    H226515   0.317   2.404   5.095
 8851TIP3   OH226516   5.495   6.174   4.763
 8851TIP3    H126517   5.408   6.180   4.722
 8851TIP3    H226518   5.547   6.125   4.700
 8852TIP3   OH226519   3.531   2.277   3.855
 8852TIP3    H126520   3.481   2.304   3.932
 8852TIP3    H226521   3.522   2.181   3.853
 8853TIP3   OH226522   3.185   2.736   5.287
 8853TIP3    H126523   3.111   2.693   5.331
 8853TIP3    H226524   3.178   2.828   5.313
 8854TIP3   OH226525   2.508   3.431   0.348
 8854TIP3    H126526   2.525   3.338   0.334
 8854TIP3    H226527   2.413   3.438   0.354
 8855TIP3   OH226528   0.801   3.366   3.192
 8855TIP3    H126529   0.844   3.421   3.126
 8855TIP3    H226530   0.709   3.395   3.191
 8856TIP3   OH226531   3.919   2.101   0.471
 8856TIP3    H126532   3.829   2.129   0.487
 8856TIP3    H226533   3.965   2.122   0.551
 8857TIP3   OH226534   2.143   5.265   0.676
 8857TIP3    H126535   2.065   5.273   0.730
 8857TIP3    H226536   2.201   5.334   0.708
 8858TIP3   OH226537   1.310   0.324   5.774
 8858TIP3    H126538   1.309   0.230   5.760
 8858TIP3    H226539   1.265   0.361   5.698
 8859TIP3   OH226540   4.122   2.925   5.181
 8859TIP3    H126541   4.162   2.922   5.268
 8859TIP3    H226542   4.118   3.018   5.159
 8860TIP3   OH226543   0.841   0.993   3.844
 8860TIP3    H126544   0.831   0.899   3.834
 8860TIP3    H226545   0.898   1.019   3.772
 8861TIP3   OH226546   1.477   4.263   3.947
 8861TIP3    H126547   1.384   4.244   3.957
 8861TIP3    H226548   1.484   4.357   3.965
 8862TIP3   OH226549   4.236   0.117   1.038
 8862TIP3    H126550   4.269   0.129   0.950
 8862TIP3    H226551   4.148   0.156   1.037
 8863TIP3   OH226552   4.194   0.029   3.361
 8863TIP3    H126553   4.261   0.097   3.371
 8863TIP3    H226554   4.193   0.009   3.268
 8864TIP3   OH226555   3.064   6.653   5.713
 8864TIP3    H126556   3.149   6.624   5.745
 8864TIP3    H226557   3.016   6.679   5.792
 8865TIP3   OH226558   4.188   5.088   3.011
 8865TIP3    H126559   4.192   5.098   2.916
 8865TIP3    H226560   4.270   5.044   3.034
 8866TIP3   OH226561   1.683   5.887   1.626
 8866TIP3    H126562   1.658   5.869   1.535
 8866TIP3    H226563   1.749   5.956   1.620
 8867TIP3   OH226564   5.541   2.014   2.354
 8867TIP3    H126565   5.521   2.058   2.271
 8867TIP3    H226566   5.569   1.926   2.328
 8868TIP3   OH226567   1.485   6.055   0.720
 8868TIP3    H126568   1.460   6.114   0.791
 8868TIP3    H226569   1.514   6.113   0.650
 8869TIP3   OH226570   3.837   6.292   0.344
 8869TIP3    H126571   3.749   6.276   0.310
 8869TIP3    H226572   3.895   6.255   0.278
 8870TIP3   OH226573   6.449   5.034   1.623
 8870TIP3    H126574   6.543   5.046   1.634
 8870TIP3    H226575   6.429   5.076   1.539
 8871TIP3   OH226576   2.289   0.518   1.787
 8871TIP3    H126577   2.273   0.611   1.771
 8871TIP3    H226578   2.331   0.486   1.707
 8872TIP3   OH226579   3.474   4.254   4.978
 8872TIP3    H126580   3.464   4.326   4.916
 8872TIP3    H226581   3.460   4.175   4.927
 8873TIP3   OH226582   1.774   5.880   1.339
 8873TIP3    H126583   1.840   5.920   1.282
 8873TIP3    H226584   1.810   5.794   1.359
 8874TIP3   OH226585   0.375   4.549   2.980
 8874TIP3    H126586   0.313   4.617   2.953
 8874TIP3    H226587   0.458   4.574   2.939
 8875TIP3   OH226588   3.546   2.451   2.608
 8875TIP3    H126589   3.557   2.433   2.701
 8875TIP3    H226590   3.635   2.463   2.574
 8876TIP3   OH226591   0.156   5.245   2.664
 8876TIP3    H126592   0.250   5.246   2.678
 8876TIP3    H226593   0.121   5.300   2.735
 8877TIP3   OH226594   2.346   3.775   0.945
 8877TIP3    H126595   2.306   3.714   0.883
 8877TIP3    H226596   2.397   3.720   1.004
 8878TIP3   OH226597   1.948   6.644   2.780
 8878TIP3    H126598   1.963   6.565   2.728
 8878TIP3    H226599   2.030   6.693   2.772
 8879TIP3   OH226600   0.660   2.962   0.855
 8879TIP3    H126601   0.717   3.011   0.797
 8879TIP3    H226602   0.585   2.938   0.801
 8880TIP3   OH226603   1.063   6.726   5.468
 8880TIP3    H126604   1.076   6.808   5.516
 8880TIP3    H226605   0.970   6.725   5.448
 8881TIP3   OH226606   7.132   6.706   0.367
 8881TIP3    H126607   7.136   6.770   0.295
 8881TIP3    H226608   7.223   6.684   0.384
 8882TIP3   OH226609   4.437   2.384   5.294
 8882TIP3    H126610   4.507   2.321   5.278
 8882TIP3    H226611   4.418   2.421   5.207
 8883TIP3   OH226612   5.443   6.076   2.427
 8883TIP3    H126613   5.536   6.085   2.405
 8883TIP3    H226614   5.440   6.007   2.492
 8884TIP3   OH226615   1.954   3.931   4.099
 8884TIP3    H126616   1.979   4.017   4.064
 8884TIP3    H226617   1.940   3.877   4.021
 8885TIP3   OH226618   5.275   1.837   1.207
 8885TIP3    H126619   5.331   1.911   1.181
 8885TIP3    H226620   5.191   1.855   1.164
 8886TIP3   OH226621   6.352   0.782   1.687
 8886TIP3    H126622   6.266   0.739   1.683
 8886TIP3    H226623   6.412   0.719   1.647
 8887TIP3   OH226624   0.307   1.280   4.596
 8887TIP3    H126625   0.347   1.352   4.547
 8887TIP3    H226626   0.226   1.261   4.549
 8888TIP3   OH226627   5.669   4.450   0.214
 8888TIP3    H126628   5.611   4.526   0.226
 8888TIP3    H226629   5.610   4.380   0.187
 8889TIP3   OH226630   3.323   4.987   4.734
 8889TIP3    H126631   3.240   5.018   4.770
 8889TIP3    H226632   3.303   4.901   4.697
 8890TIP3   OH226633   5.537   2.963   4.113
 8890TIP3    H126634   5.624   2.989   4.085
 8890TIP3    H226635   5.478   3.028   4.075
 8891TIP3   OH226636   6.653   6.265   4.989
 8891TIP3    H126637   6.628   6.186   5.037
 8891TIP3    H226638   6.722   6.305   5.042
 8892TIP3   OH226639   3.435   6.640   4.506
 8892TIP3    H126640   3.349   6.622   4.469
 8892TIP3    H226641   3.421   6.638   4.601
 8893TIP3   OH226642   6.232   4.956   2.272
 8893TIP3    H126643   6.315   5.004   2.271
 8893TIP3    H226644   6.167   5.021   2.249
 8894TIP3   OH226645   1.246   6.011   2.630
 8894TIP3    H126646   1.275   6.096   2.663
 8894TIP3    H226647   1.289   5.947   2.686
 8895TIP3   OH226648   5.143   4.892   5.438
 8895TIP3    H126649   5.124   4.953   5.509
 8895TIP3    H226650   5.207   4.938   5.383
 8896TIP3   OH226651   1.531   4.325   1.781
 8896TIP3    H126652   1.568   4.259   1.840
 8896TIP3    H226653   1.491   4.389   1.840
 8897TIP3   OH226654   1.897   6.026   2.658
 8897TIP3    H126655   1.810   5.992   2.635
 8897TIP3    H226656   1.914   6.094   2.594
 8898TIP3   OH226657   2.896   4.755   2.893
 8898TIP3    H126658   2.960   4.684   2.891
 8898TIP3    H226659   2.823   4.724   2.840
 8899TIP3   OH226660   3.177   4.485   2.249
 8899TIP3    H126661   3.177   4.474   2.154
 8899TIP3    H226662   3.102   4.433   2.279
 8900TIP3   OH226663   0.478   2.169   4.178
 8900TIP3    H126664   0.454   2.257   4.206
 8900TIP3    H226665   0.436   2.159   4.092
 8901TIP3   OH226666   5.038   4.278   0.114
 8901TIP3    H126667   4.969   4.220   0.146
 8901TIP3    H226668   5.082   4.309   0.193
 8902TIP3   OH226669   6.942   3.452   4.850
 8902TIP3    H126670   6.880   3.382   4.872
 8902TIP3    H226671   6.995   3.463   4.929
 8903TIP3   OH226672   3.507   1.528   5.540
 8903TIP3    H126673   3.535   1.504   5.451
 8903TIP3    H226674   3.514   1.446   5.590
 8904TIP3   OH226675   5.775   1.682   4.945
 8904TIP3    H126676   5.733   1.752   4.995
 8904TIP3    H226677   5.843   1.649   5.004
 8905TIP3   OH226678   7.015   0.701   1.467
 8905TIP3    H126679   7.087   0.638   1.479
 8905TIP3    H226680   6.987   0.688   1.377
 8906TIP3   OH226681   4.050   1.015   4.309
 8906TIP3    H126682   3.960   1.006   4.281
 8906TIP3    H226683   4.095   0.939   4.271
 8907TIP3   OH226684   4.716   3.702   5.717
 8907TIP3    H126685   4.725   3.727   5.809
 8907TIP3    H226686   4.805   3.699   5.684
 8908TIP3   OH226687   5.989   1.559   0.573
 8908TIP3    H126688   5.951   1.645   0.589
 8908TIP3    H226689   5.932   1.498   0.619
 8909TIP3   OH226690   0.710   3.199   4.514
 8909TIP3    H126691   0.670   3.239   4.591
 8909TIP3    H226692   0.677   3.250   4.440
 8910TIP3   OH226693   6.931   2.702   3.026
 8910TIP3    H126694   7.000   2.670   2.968
 8910TIP3    H226695   6.941   2.650   3.106
 8911TIP3   OH226696   5.746   0.382   2.096
 8911TIP3    H126697   5.836   0.413   2.083
 8911TIP3    H226698   5.692   0.443   2.046
 8912TIP3   OH226699   4.871   0.522   2.028
 8912TIP3    H126700   4.803   0.537   1.962
 8912TIP3    H226701   4.874   0.427   2.039
 8913TIP3   OH226702   2.876   3.682   4.715
 8913TIP3    H126703   2.860   3.621   4.788
 8913TIP3    H226704   2.844   3.766   4.747
 8914TIP3   OH226705   0.717   3.490   0.213
 8914TIP3    H126706   0.652   3.547   0.254
 8914TIP3    H226707   0.795   3.499   0.268
 8915TIP3   OH226708   0.689   6.048   4.076
 8915TIP3    H126709   0.745   5.984   4.119
 8915TIP3    H226710   0.750   6.114   4.043
 8916TIP3   OH226711   3.658   6.248   1.115
 8916TIP3    H126712   3.687   6.204   1.035
 8916TIP3    H226713   3.675   6.184   1.185
 8917TIP3   OH226714   3.138   0.831   4.061
 8917TIP3    H126715   3.054   0.840   4.017
 8917TIP3    H226716   3.191   0.904   4.030
 8918TIP3   OH226717   0.421   3.458   3.734
 8918TIP3    H126718   0.399   3.490   3.821
 8918TIP3    H226719   0.434   3.537   3.681
 8919TIP3   OH226720   0.234   0.251   4.860
 8919TIP3    H126721   0.150   0.207   4.873
 8919TIP3    H226722   0.297   0.199   4.910
 8920TIP3   OH226723   4.192   1.648   1.143
 8920TIP3    H126724   4.184   1.739   1.171
 8920TIP3    H226725   4.237   1.652   1.059
 8921TIP3   OH226726   4.623   2.085   0.726
 8921TIP3    H126727   4.709   2.070   0.686
 8921TIP3    H226728   4.589   1.997   0.742
 8922TIP3   OH226729   3.343   2.987   5.050
 8922TIP3    H126730   3.339   3.080   5.072
 8922TIP3    H226731   3.388   2.947   5.124
 8923TIP3   OH226732   5.452   4.206   3.813
 8923TIP3    H126733   5.520   4.270   3.791
 8923TIP3    H226734   5.451   4.146   3.738
 8924TIP3   OH226735   6.591   0.587   0.015
 8924TIP3    H126736   6.599   0.680   0.036
 8924TIP3    H226737   6.499   0.575  -0.007
 8925TIP3   OH226738   4.221   1.036   4.782
 8925TIP3    H126739   4.221   0.955   4.832
 8925TIP3    H226740   4.163   1.019   4.708
 8926TIP3   OH226741   6.252   1.023   1.945
 8926TIP3    H126742   6.285   1.000   2.032
 8926TIP3    H226743   6.309   0.976   1.885
 8927TIP3   OH226744   5.306   1.957   2.761
 8927TIP3    H126745   5.225   1.911   2.782
 8927TIP3    H226746   5.343   1.908   2.688
 8928TIP3   OH226747   2.817   0.356   2.594
 8928TIP3    H126748   2.876   0.421   2.632
 8928TIP3    H226749   2.848   0.345   2.504
 8929TIP3   OH226750  -0.006   4.189   4.015
 8929TIP3    H126751   0.019   4.116   4.072
 8929TIP3    H226752   0.068   4.199   3.955
 8930TIP3   OH226753   4.147   3.427   5.905
 8930TIP3    H126754   4.176   3.362   5.841
 8930TIP3    H226755   4.055   3.443   5.883
 8931TIP3   OH226756   2.108   5.531   5.180
 8931TIP3    H126757   2.024   5.577   5.182
 8931TIP3    H226758   2.086   5.443   5.150
 8932TIP3   OH226759   4.129   6.253   3.308
 8932TIP3    H126760   4.052   6.232   3.362
 8932TIP3    H226761   4.112   6.209   3.224
 8933TIP3   OH226762   4.119   3.453   4.008
 8933TIP3    H126763   4.031   3.482   4.030
 8933TIP3    H226764   4.109   3.403   3.928
 8934TIP3   OH226765   2.129   4.507   0.161
 8934TIP3    H126766   2.080   4.451   0.221
 8934TIP3    H226767   2.101   4.479   0.074
 8935TIP3   OH226768   0.284   2.725   2.455
 8935TIP3    H126769   0.341   2.724   2.532
 8935TIP3    H226770   0.343   2.710   2.381
 8936TIP3   OH226771   1.396   1.389   4.924
 8936TIP3    H126772   1.439   1.474   4.912
 8936TIP3    H226773   1.305   1.410   4.940
 8937TIP3   OH226774   0.123   5.222   2.356
 8937TIP3    H126775   0.194   5.279   2.386
 8937TIP3    H226776   0.052   5.236   2.419
 8938TIP3   OH226777   5.063   4.180   5.103
 8938TIP3    H126778   5.019   4.264   5.117
 8938TIP3    H226779   5.154   4.195   5.129
 8939TIP3   OH226780   5.337   5.571   2.525
 8939TIP3    H126781   5.381   5.543   2.445
 8939TIP3    H226782   5.278   5.641   2.497
 8940TIP3   OH226783   0.572   5.749   5.295
 8940TIP3    H126784   0.551   5.771   5.386
 8940TIP3    H226785   0.660   5.711   5.299
 8941TIP3   OH226786   3.783   1.131   2.788
 8941TIP3    H126787   3.704   1.085   2.760
 8941TIP3    H226788   3.856   1.081   2.751
 8942TIP3   OH226789   3.484   5.494   3.301
 8942TIP3    H126790   3.552   5.461   3.242
 8942TIP3    H226791   3.483   5.589   3.287
 8943TIP3   OH226792   1.595   5.448   3.964
 8943TIP3    H126793   1.621   5.357   3.976
 8943TIP3    H226794   1.609   5.466   3.871
 8944TIP3   OH226795   6.808   2.429   4.685
 8944TIP3    H126796   6.719   2.456   4.705
 8944TIP3    H226797   6.838   2.494   4.621
 8945TIP3   OH226798   1.416   6.062   4.625
 8945TIP3    H126799   1.437   5.981   4.578
 8945TIP3    H226800   1.321   6.063   4.629
 8946TIP3   OH226801   1.981   3.367   5.826
 8946TIP3    H126802   2.011   3.289   5.873
 8946TIP3    H226803   1.955   3.428   5.895
 8947TIP3   OH226804   2.761   1.253   3.897
 8947TIP3    H126805   2.847   1.289   3.916
 8947TIP3    H226806   2.701   1.327   3.908
 8948TIP3   OH226807   6.078   6.010   2.725
 8948TIP3    H126808   6.137   6.045   2.792
 8948TIP3    H226809   6.057   6.086   2.670
 8949TIP3   OH226810   4.840   3.766   0.306
 8949TIP3    H126811   4.906   3.813   0.255
 8949TIP3    H226812   4.780   3.731   0.241
 8950TIP3   OH226813   1.808   1.796   1.651
 8950TIP3    H126814   1.833   1.781   1.742
 8950TIP3    H226815   1.865   1.868   1.622
 8951TIP3   OH226816   7.011   2.152   1.054
 8951TIP3    H126817   7.048   2.145   0.966
 8951TIP3    H226818   6.924   2.191   1.040
 8952TIP3   OH226819   4.952   2.896   4.451
 8952TIP3    H126820   4.885   2.957   4.424
 8952TIP3    H226821   4.922   2.862   4.535
 8953TIP3   OH226822   3.513   0.599   5.776
 8953TIP3    H126823   3.489   0.507   5.792
 8953TIP3    H226824   3.434   0.648   5.797
 8954TIP3   OH226825   6.230   2.588   0.680
 8954TIP3    H126826   6.243   2.517   0.617
 8954TIP3    H226827   6.157   2.559   0.735
 8955TIP3   OH226828   1.622   0.377   4.661
 8955TIP3    H126829   1.549   0.360   4.720
 8955TIP3    H226830   1.671   0.448   4.703
 8956TIP3   OH226831   5.256   1.969   3.987
 8956TIP3    H126832   5.307   1.955   4.068
 8956TIP3    H226833   5.278   1.893   3.933
 8957TIP3   OH226834   6.469   2.936   5.665
 8957TIP3    H126835   6.474   3.024   5.702
 8957TIP3    H226836   6.541   2.888   5.705
 8958TIP3   OH226837   4.844   6.244   4.979
 8958TIP3    H126838   4.822   6.223   4.888
 8958TIP3    H226839   4.818   6.336   4.989
 8959TIP3   OH226840   2.624   2.853   2.234
 8959TIP3    H126841   2.531   2.837   2.214
 8959TIP3    H226842   2.654   2.770   2.271
 8960TIP3   OH226843   1.963   2.877   5.259
 8960TIP3    H126844   1.958   2.786   5.230
 8960TIP3    H226845   1.906   2.924   5.199
 8961TIP3   OH226846   1.408   5.316   2.371
 8961TIP3    H126847   1.439   5.388   2.316
 8961TIP3    H226848   1.433   5.237   2.324
 8962TIP3   OH226849   0.251   2.352   5.733
 8962TIP3    H126850   0.290   2.282   5.787
 8962TIP3    H226851   0.316   2.422   5.735
 8963TIP3   OH226852   1.188   5.180   1.095
 8963TIP3    H126853   1.180   5.088   1.071
 8963TIP3    H226854   1.175   5.181   1.190
 8964TIP3   OH226855   3.198   6.395   1.841
 8964TIP3    H126856   3.253   6.324   1.807
 8964TIP3    H226857   3.171   6.364   1.928
 8965TIP3   OH226858   0.191   4.781   4.738
 8965TIP3    H126859   0.214   4.755   4.649
 8965TIP3    H226860   0.110   4.832   4.727
 8966TIP3   OH226861   5.619   0.006   2.720
 8966TIP3    H126862   5.541   0.062   2.719
 8966TIP3    H226863   5.693   0.067   2.711
 8967TIP3   OH226864   1.297   5.791   1.696
 8967TIP3    H126865   1.250   5.874   1.699
 8967TIP3    H226866   1.275   5.753   1.612
 8968TIP3   OH226867   0.364   2.755   5.304
 8968TIP3    H126868   0.282   2.786   5.266
 8968TIP3    H226869   0.428   2.763   5.233
 8969TIP3   OH226870   5.718   4.919   0.731
 8969TIP3    H126871   5.642   4.891   0.783
 8969TIP3    H226872   5.707   5.013   0.722
 8970TIP3   OH226873   2.363   4.812   2.472
 8970TIP3    H126874   2.399   4.852   2.551
 8970TIP3    H226875   2.413   4.732   2.460
 8971TIP3   OH226876   6.255   2.288   0.924
 8971TIP3    H126877   6.206   2.368   0.942
 8971TIP3    H226878   6.330   2.292   0.983
 8972TIP3   OH226879   1.416   0.567   2.465
 8972TIP3    H126880   1.407   0.654   2.504
 8972TIP3    H226881   1.344   0.562   2.402
 8973TIP3   OH226882   1.090   4.013   4.416
 8973TIP3    H126883   1.033   4.049   4.348
 8973TIP3    H226884   1.055   4.049   4.498
 8974TIP3   OH226885   2.340   3.831   1.515
 8974TIP3    H126886   2.271   3.890   1.545
 8974TIP3    H226887   2.352   3.769   1.587
 8975TIP3   OH226888   2.833   6.586   3.123
 8975TIP3    H126889   2.894   6.659   3.123
 8975TIP3    H226890   2.869   6.525   3.187
 8976TIP3   OH226891   0.508   0.109   3.472
 8976TIP3    H126892   0.532   0.114   3.379
 8976TIP3    H226893   0.487   0.199   3.495
 8977TIP3   OH226894   3.613   0.316   0.812
 8977TIP3    H126895   3.578   0.341   0.727
 8977TIP3    H226896   3.554   0.248   0.843
 8978TIP3   OH226897   4.530   3.653   3.074
 8978TIP3    H126898   4.447   3.653   3.122
 8978TIP3    H226899   4.514   3.597   2.998
 8979TIP3   OH226900   6.889   0.173   2.516
 8979TIP3    H126901   6.848   0.173   2.602
 8979TIP3    H226902   6.950   0.246   2.518
 8980TIP3   OH226903   7.026   6.425   3.981
 8980TIP3    H126904   7.059   6.362   3.918
 8980TIP3    H226905   6.997   6.499   3.928
 8981TIP3   OH226906   5.426   5.390   4.763
 8981TIP3    H126907   5.402   5.366   4.673
 8981TIP3    H226908   5.512   5.348   4.776
 8982TIP3   OH226909   1.542   1.492   1.225
 8982TIP3    H126910   1.570   1.583   1.230
 8982TIP3    H226911   1.535   1.474   1.131
 8983TIP3   OH226912   3.967   0.224   3.892
 8983TIP3    H126913   3.977   0.133   3.865
 8983TIP3    H226914   4.037   0.270   3.847
 8984TIP3   OH226915   5.397   6.004   3.062
 8984TIP3    H126916   5.303   5.992   3.053
 8984TIP3    H226917   5.432   5.985   2.975
 8985TIP3   OH226918   0.447   3.048   0.094
 8985TIP3    H126919   0.422   3.096   0.172
 8985TIP3    H226920   0.458   2.958   0.123
 8986TIP3   OH226921   6.069   1.925   5.108
 8986TIP3    H126922   6.109   1.839   5.096
 8986TIP3    H226923   5.977   1.911   5.088
 8987TIP3   OH226924   4.736   5.825   2.313
 8987TIP3    H126925   4.743   5.745   2.365
 8987TIP3    H226926   4.716   5.893   2.377
 8988TIP3   OH226927   1.289   6.349   5.428
 8988TIP3    H126928   1.383   6.364   5.434
 8988TIP3    H226929   1.271   6.345   5.334
 8989TIP3   OH226930   4.781   5.177   3.052
 8989TIP3    H126931   4.807   5.149   2.964
 8989TIP3    H226932   4.848   5.239   3.079
 8990TIP3   OH226933   2.752   0.066   4.022
 8990TIP3    H126934   2.746  -0.004   3.957
 8990TIP3    H226935   2.829   0.044   4.074
 8991TIP3   OH226936   0.939   2.576   0.478
 8991TIP3    H126937   1.000   2.541   0.544
 8991TIP3    H226938   0.996   2.603   0.405
 8992TIP3   OH226939   4.844   1.973   4.507
 8992TIP3    H126940   4.908   1.956   4.438
 8992TIP3    H226941   4.760   1.974   4.461
 8993TIP3   OH226942   3.337   5.693   3.633
 8993TIP3    H126943   3.260   5.660   3.588
 8993TIP3    H226944   3.385   5.742   3.567
 8994TIP3   OH226945   5.862   1.962   4.613
 8994TIP3    H126946   5.779   1.993   4.577
 8994TIP3    H226947   5.878   2.019   4.688
 8995TIP3   OH226948   2.630   5.998   2.622
 8995TIP3    H126949   2.616   6.090   2.645
 8995TIP3    H226950   2.542   5.964   2.604
 8996TIP3   OH226951   6.087   2.623   3.910
 8996TIP3    H126952   6.075   2.588   3.822
 8996TIP3    H226953   6.133   2.554   3.958
 8997TIP3   OH226954   2.821   6.158   0.996
 8997TIP3    H126955   2.749   6.137   1.056
 8997TIP3    H226956   2.845   6.248   1.019
 8998TIP3   OH226957   2.894   3.876   1.328
 8998TIP3    H126958   2.912   3.946   1.265
 8998TIP3    H226959   2.977   3.829   1.336
 8999TIP3   OH226960   3.481   6.458   1.290
 8999TIP3    H126961   3.570   6.426   1.280
 8999TIP3    H226962   3.470   6.471   1.384
 9000TIP3   OH226963   2.785   1.356   0.345
 9000TIP3    H126964   2.844   1.430   0.357
 9000TIP3    H226965   2.820   1.310   0.268
 9001TIP3   OH226966   0.752   3.730   2.489
 9001TIP3    H126967   0.803   3.679   2.552
 9001TIP3    H226968   0.703   3.793   2.542
 9002TIP3   OH226969   0.035   6.572   2.069
 9002TIP3    H126970   0.002   6.488   2.100
 9002TIP3    H226971   0.075   6.612   2.146
 9003TIP3   OH226972   1.720   3.352   0.950
 9003TIP3    H126973   1.720   3.432   0.898
 9003TIP3    H226974   1.797   3.359   1.006
 9004TIP3   OH226975   3.808   3.065   5.363
 9004TIP3    H126976   3.743   3.134   5.377
 9004TIP3    H226977   3.849   3.088   5.280
 9005TIP3   OH226978   5.241   2.906   4.501
 9005TIP3    H126979   5.150   2.931   4.518
 9005TIP3    H226980   5.238   2.812   4.484
 9006TIP3   OH226981   0.715   4.140   1.532
 9006TIP3    H126982   0.628   4.130   1.495
 9006TIP3    H226983   0.745   4.225   1.500
 9007TIP3   OH226984   6.435   4.947   4.242
 9007TIP3    H126985   6.455   5.002   4.166
 9007TIP3    H226986   6.344   4.968   4.264
 9008TIP3   OH226987   1.092   0.351   0.919
 9008TIP3    H126988   1.014   0.300   0.939
 9008TIP3    H226989   1.072   0.440   0.950
 9009TIP3   OH226990   0.464   4.656   2.213
 9009TIP3    H126991   0.493   4.726   2.155
 9009TIP3    H226992   0.538   4.640   2.271
 9010TIP3   OH226993   2.871   4.682   1.750
 9010TIP3    H126994   2.878   4.596   1.710
 9010TIP3    H226995   2.846   4.665   1.841
 9011TIP3   OH226996   4.978   1.721   5.140
 9011TIP3    H126997   5.009   1.678   5.220
 9011TIP3    H226998   4.935   1.651   5.090
 9012TIP3   OH226999   4.913   1.363   3.294
 9012TIP3    H127000   4.977   1.357   3.366
 9012TIP3    H227001   4.940   1.296   3.231
 9013TIP3   OH227002   7.111   1.248   2.376
 9013TIP3    H127003   7.028   1.244   2.328
 9013TIP3    H227004   7.173   1.203   2.319
 9014TIP3   OH227005   0.945   3.631   5.399
 9014TIP3    H127006   0.883   3.699   5.427
 9014TIP3    H227007   0.933   3.560   5.463
 9015TIP3   OH227008   7.068   6.286   2.368
 9015TIP3    H127009   7.049   6.197   2.397
 9015TIP3    H227010   7.125   6.275   2.291
 9016TIP3   OH227011   2.323   5.108   0.106
 9016TIP3    H127012   2.309   5.143   0.193
 9016TIP3    H227013   2.263   5.157   0.050
 9017TIP3   OH227014   5.392   4.957   2.599
 9017TIP3    H127015   5.303   4.939   2.630
 9017TIP3    H227016   5.434   5.003   2.672
 9018TIP3   OH227017   2.874   0.790   3.005
 9018TIP3    H127018   2.844   0.878   2.982
 9018TIP3    H227019   2.803   0.754   3.059
 9019TIP3   OH227020   6.093   3.217   4.379
 9019TIP3    H127021   6.001   3.216   4.353
 9019TIP3    H227022   6.098   3.287   4.445
 9020TIP3   OH227023   3.378   6.711   3.886
 9020TIP3    H127024   3.463   6.719   3.929
 9020TIP3    H227025   3.363   6.796   3.845
 9021TIP3   OH227026   6.260   6.145   2.880
 9021TIP3    H127027   6.197   6.204   2.923
 9021TIP3    H227028   6.339   6.198   2.870
 9022TIP3   OH227029   1.753   2.450   2.860
 9022TIP3    H127030   1.834   2.422   2.817
 9022TIP3    H227031   1.776   2.533   2.902
 9023TIP3   OH227032   3.159   1.939   1.982
 9023TIP3    H127033   3.113   1.910   1.903
 9023TIP3    H227034   3.249   1.908   1.970
 9024TIP3   OH227035   4.678   3.332   3.642
 9024TIP3    H127036   4.621   3.354   3.568
 9024TIP3    H227037   4.763   3.371   3.620
 9025TIP3   OH227038   6.088   2.929   1.033
 9025TIP3    H127039   5.999   2.905   1.007
 9025TIP3    H227040   6.090   2.916   1.128
 9026TIP3   OH227041   4.940   5.993   4.635
 9026TIP3    H127042   4.901   5.972   4.550
 9026TIP3    H227043   5.006   6.059   4.615
 9027TIP3   OH227044   6.203   1.084   5.553
 9027TIP3    H127045   6.229   1.010   5.607
 9027TIP3    H227046   6.198   1.050   5.464
 9028TIP3   OH227047   6.628   0.732   4.310
 9028TIP3    H127048   6.630   0.778   4.394
 9028TIP3    H227049   6.666   0.646   4.330
 9029TIP3   OH227050   2.143   3.067   5.586
 9029TIP3    H127051   2.053   3.063   5.551
 9029TIP3    H227052   2.190   3.000   5.538
 9030TIP3   OH227053   0.737   0.794   0.748
 9030TIP3    H127054   0.707   0.779   0.658
 9030TIP3    H227055   0.832   0.805   0.740
 9031TIP3   OH227056   0.508   6.061   3.868
 9031TIP3    H127057   0.564   6.037   3.943
 9031TIP3    H227058   0.460   5.981   3.848
 9032TIP3   OH227059   3.320   4.733   5.147
 9032TIP3    H127060   3.403   4.769   5.178
 9032TIP3    H227061   3.255   4.769   5.207
 9033TIP3   OH227062   6.333   6.154   0.199
 9033TIP3    H127063   6.352   6.232   0.146
 9033TIP3    H227064   6.361   6.081   0.144
 9034TIP3   OH227065   7.149   4.156   4.637
 9034TIP3    H127066   7.117   4.067   4.622
 9034TIP3    H227067   7.096   4.211   4.580
 9035TIP3   OH227068   3.989   0.698   0.522
 9035TIP3    H127069   3.905   0.665   0.553
 9035TIP3    H227070   4.011   0.643   0.447
 9036TIP3   OH227071   5.658   5.111   1.655
 9036TIP3    H127072   5.690   5.189   1.700
 9036TIP3    H227073   5.736   5.067   1.623
 9037TIP3   OH227074   6.220   5.752   0.302
 9037TIP3    H127075   6.205   5.699   0.380
 9037TIP3    H227076   6.207   5.692   0.228
 9038TIP3   OH227077   0.366   2.796   1.605
 9038TIP3    H127078   0.302   2.754   1.662
 9038TIP3    H227079   0.319   2.870   1.566
 9039TIP3   OH227080   4.001   2.092   1.613
 9039TIP3    H127081   4.063   2.151   1.655
 9039TIP3    H227082   3.935   2.074   1.680
 9040TIP3   OH227083   6.260   6.230   0.870
 9040TIP3    H127084   6.281   6.197   0.957
 9040TIP3    H227085   6.231   6.154   0.821
 9041TIP3   OH227086   6.164   2.862   4.793
 9041TIP3    H127087   6.243   2.866   4.740
 9041TIP3    H227088   6.100   2.915   4.745
 9042TIP3   OH227089   6.875   5.103   2.585
 9042TIP3    H127090   6.963   5.137   2.570
 9042TIP3    H227091   6.887   5.008   2.592
 9043TIP3   OH227092   1.981   1.802   5.027
 9043TIP3    H127093   1.945   1.805   5.116
 9043TIP3    H227094   2.062   1.852   5.033
 9044TIP3   OH227095   0.301   3.097   2.213
 9044TIP3    H127096   0.350   3.042   2.152
 9044TIP3    H227097   0.347   3.086   2.297
 9045TIP3   OH227098   7.021   2.994   3.379
 9045TIP3    H127099   7.088   3.050   3.339
 9045TIP3    H227100   6.945   3.002   3.322
 9046TIP3   OH227101   0.208   5.135   0.681
 9046TIP3    H127102   0.239   5.208   0.734
 9046TIP3    H227103   0.278   5.070   0.687
 9047TIP3   OH227104   3.034   4.008   4.870
 9047TIP3    H127105   3.025   3.938   4.935
 9047TIP3    H227106   3.050   4.087   4.923
 9048TIP3   OH227107   7.189   5.295   4.941
 9048TIP3    H127108   7.266   5.282   4.995
 9048TIP3    H227109   7.172   5.390   4.944
 9049TIP3   OH227110   7.161   4.066   2.088
 9049TIP3    H127111   7.128   3.984   2.054
 9049TIP3    H227112   7.211   4.105   2.016
 9050TIP3   OH227113   1.747   6.700   1.701
 9050TIP3    H127114   1.792   6.694   1.617
 9050TIP3    H227115   1.663   6.656   1.687
 9051TIP3   OH227116   3.236   1.562   5.508
 9051TIP3    H127117   3.331   1.554   5.500
 9051TIP3    H227118   3.203   1.474   5.489
 9052TIP3   OH227119   4.273   1.201   0.927
 9052TIP3    H127120   4.190   1.230   0.966
 9052TIP3    H227121   4.339   1.218   0.994
 9053TIP3   OH227122   1.097   0.821   4.437
 9053TIP3    H127123   1.051   0.747   4.477
 9053TIP3    H227124   1.085   0.807   4.343
 9054TIP3   OH227125   2.728   1.323   2.464
 9054TIP3    H127126   2.716   1.349   2.373
 9054TIP3    H227127   2.651   1.358   2.510
 9055TIP3   OH227128   0.252   5.654   5.895
 9055TIP3    H127129   0.331   5.696   5.860
 9055TIP3    H227130   0.189   5.657   5.822
 9056TIP3   OH227131   4.479   5.926   2.717
 9056TIP3    H127132   4.517   5.899   2.801
 9056TIP3    H227133   4.398   5.877   2.711
 9057TIP3   OH227134   3.046   1.497   1.248
 9057TIP3    H127135   3.075   1.579   1.289
 9057TIP3    H227136   3.092   1.494   1.165
 9058TIP3   OH227137   6.326   3.806   0.644
 9058TIP3    H127138   6.304   3.801   0.737
 9058TIP3    H227139   6.243   3.823   0.600
 9059TIP3   OH227140   3.647   4.109   0.364
 9059TIP3    H127141   3.554   4.092   0.348
 9059TIP3    H227142   3.651   4.140   0.454
 9060TIP3   OH227143   0.238   1.475   3.084
 9060TIP3    H127144   0.267   1.466   3.175
 9060TIP3    H227145   0.262   1.565   3.061
 9061TIP3   OH227146   3.810   4.670   4.544
 9061TIP3    H127147   3.737   4.608   4.553
 9061TIP3    H227148   3.820   4.682   4.450
 9062TIP3   OH227149   0.263   0.738   0.868
 9062TIP3    H127150   0.350   0.777   0.881
 9062TIP3    H227151   0.265   0.657   0.918
 9063TIP3   OH227152   1.987   6.036   0.776
 9063TIP3    H127153   1.918   5.982   0.815
 9063TIP3    H227154   1.967   6.037   0.682
 9064TIP3   OH227155   4.825   2.115   1.131
 9064TIP3    H127156   4.742   2.072   1.112
 9064TIP3    H227157   4.812   2.156   1.217
 9065TIP3   OH227158   6.114   3.532   5.157
 9065TIP3    H127159   6.083   3.518   5.067
 9065TIP3    H227160   6.044   3.581   5.199
 9066TIP3   OH227161   0.017   3.897   3.392
 9066TIP3    H127162   0.101   3.886   3.437
 9066TIP3    H227163  -0.006   3.809   3.362
 9067TIP3   OH227164   4.293   3.292   2.847
 9067TIP3    H127165   4.243   3.216   2.874
 9067TIP3    H227166   4.247   3.326   2.770
 9068TIP3   OH227167   1.626   5.244   4.638
 9068TIP3    H127168   1.678   5.324   4.638
 9068TIP3    H227169   1.543   5.269   4.599
 9069TIP3   OH227170   2.231   6.247   3.763
 9069TIP3    H127171   2.194   6.173   3.715
 9069TIP3    H227172   2.161   6.277   3.820
 9070TIP3   OH227173   1.545   3.573   0.753
 9070TIP3    H127174   1.456   3.540   0.755
 9070TIP3    H227175   1.556   3.618   0.838
 9071TIP3   OH227176   5.190   0.329   0.649
 9071TIP3    H127177   5.188   0.388   0.573
 9071TIP3    H227178   5.277   0.290   0.646
 9072TIP3   OH227179   5.964   3.324   0.735
 9072TIP3    H127180   5.973   3.243   0.685
 9072TIP3    H227181   5.875   3.321   0.768
 9073TIP3   OH227182   2.408   3.985   5.154
 9073TIP3    H127183   2.441   3.959   5.068
 9073TIP3    H227184   2.408   4.081   5.151
 9074TIP3   OH227185   4.363   2.892   2.878
 9074TIP3    H127186   4.305   2.817   2.871
 9074TIP3    H227187   4.337   2.935   2.959
 9075TIP3   OH227188   6.583   4.513   3.816
 9075TIP3    H127189   6.633   4.459   3.754
 9075TIP3    H227190   6.492   4.487   3.801
 9076TIP3   OH227191   0.187   3.141   4.273
 9076TIP3    H127192   0.246   3.097   4.334
 9076TIP3    H227193   0.117   3.078   4.257
 9077TIP3   OH227194   6.739   5.986   2.888
 9077TIP3    H127195   6.713   5.956   2.975
 9077TIP3    H227196   6.796   6.062   2.906
 9078TIP3   OH227197   1.426   0.101   4.546
 9078TIP3    H127198   1.509   0.067   4.580
 9078TIP3    H227199   1.370   0.109   4.623
 9079TIP3   OH227200   1.254   5.449   5.860
 9079TIP3    H127201   1.236   5.376   5.918
 9079TIP3    H227202   1.348   5.463   5.867
 9080TIP3   OH227203   5.663   3.909   5.736
 9080TIP3    H127204   5.751   3.878   5.755
 9080TIP3    H227205   5.621   3.917   5.821
 9081TIP3   OH227206   5.618   6.695   5.151
 9081TIP3    H127207   5.542   6.644   5.124
 9081TIP3    H227208   5.614   6.695   5.247
 9082TIP3   OH227209   0.649   2.723   4.143
 9082TIP3    H127210   0.683   2.747   4.057
 9082TIP3    H227211   0.603   2.641   4.129
 9083TIP3   OH227212   6.004   3.555   5.609
 9083TIP3    H127213   6.037   3.465   5.617
 9083TIP3    H227214   6.080   3.605   5.579
 9084TIP3   OH227215   2.188   4.750   5.412
 9084TIP3    H127216   2.281   4.728   5.422
 9084TIP3    H227217   2.151   4.676   5.365
 9085TIP3   OH227218   0.956   3.898   1.440
 9085TIP3    H127219   0.996   3.971   1.394
 9085TIP3    H227220   1.015   3.824   1.424
 9086TIP3   OH227221   1.063   4.842   5.647
 9086TIP3    H127222   1.108   4.763   5.619
 9086TIP3    H227223   1.059   4.896   5.568
 9087TIP3   OH227224   5.103   4.262   3.777
 9087TIP3    H127225   5.085   4.212   3.857
 9087TIP3    H227226   5.196   4.247   3.760
 9088TIP3   OH227227   2.398   3.334   2.161
 9088TIP3    H127228   2.345   3.256   2.177
 9088TIP3    H227229   2.435   3.356   2.247
 9089TIP3   OH227230   6.008   5.126   1.784
 9089TIP3    H127231   6.021   5.042   1.827
 9089TIP3    H227232   5.969   5.182   1.851
 9090TIP3   OH227233   2.651   1.834   4.711
 9090TIP3    H127234   2.725   1.788   4.671
 9090TIP3    H227235   2.593   1.853   4.637
 9091TIP3   OH227236   6.760   3.979   5.477
 9091TIP3    H127237   6.813   3.953   5.552
 9091TIP3    H227238   6.687   3.917   5.477
 9092TIP3   OH227239   0.072   0.828   4.863
 9092TIP3    H127240   0.056   0.775   4.784
 9092TIP3    H227241   0.064   0.919   4.833
 9093TIP3   OH227242   0.630   2.039   2.435
 9093TIP3    H127243   0.622   2.019   2.342
 9093TIP3    H227244   0.704   1.986   2.465
 9094TIP3   OH227245   0.260   6.320   0.497
 9094TIP3    H127246   0.304   6.238   0.520
 9094TIP3    H227247   0.167   6.301   0.508
 9095TIP3   OH227248   0.605   0.542   5.285
 9095TIP3    H127249   0.611   0.637   5.276
 9095TIP3    H227250   0.674   0.508   5.229
 9096TIP3   OH227251   6.731   3.238   2.613
 9096TIP3    H127252   6.712   3.226   2.521
 9096TIP3    H227253   6.809   3.185   2.629
 9097TIP3   OH227254   5.544   6.723   0.688
 9097TIP3    H127255   5.558   6.673   0.608
 9097TIP3    H227256   5.630   6.759   0.709
 9098TIP3   OH227257   0.100   1.259   4.399
 9098TIP3    H127258   0.074   1.186   4.343
 9098TIP3    H227259   0.168   1.304   4.349
 9099TIP3   OH227260   2.531   5.714   5.416
 9099TIP3    H127261   2.560   5.801   5.444
 9099TIP3    H227262   2.436   5.722   5.407
 9100TIP3   OH227263   3.206   5.059   0.302
 9100TIP3    H127264   3.134   5.037   0.243
 9100TIP3    H227265   3.177   5.027   0.388
 9101TIP3   OH227266   6.360   4.651   0.803
 9101TIP3    H127267   6.404   4.735   0.812
 9101TIP3    H227268   6.420   4.598   0.750
 9102TIP3   OH227269   6.717   3.509   0.009
 9102TIP3    H127270   6.657   3.567   0.057
 9102TIP3    H227271   6.751   3.449   0.075
 9103TIP3   OH227272   0.321   1.535   2.783
 9103TIP3    H127273   0.342   1.623   2.815
 9103TIP3    H227274   0.288   1.548   2.694
 9104TIP3   OH227275   5.140   5.492   5.804
 9104TIP3    H127276   5.120   5.576   5.844
 9104TIP3    H227277   5.213   5.510   5.745
 9105TIP3   OH227278   3.121   1.455   0.830
 9105TIP3    H127279   3.213   1.433   0.811
 9105TIP3    H227280   3.078   1.454   0.745
 9106TIP3   OH227281   5.213   4.930   1.715
 9106TIP3    H127282   5.172   4.879   1.646
 9106TIP3    H227283   5.298   4.888   1.729
 9107TIP3   OH227284   1.337   6.134   1.429
 9107TIP3    H127285   1.373   6.113   1.515
 9107TIP3    H227286   1.260   6.077   1.421
 9108TIP3   OH227287   1.862   0.930   2.091
 9108TIP3    H127288   1.871   0.848   2.140
 9108TIP3    H227289   1.952   0.951   2.064
 9109TIP3   OH227290   3.372   3.262   2.509
 9109TIP3    H127291   3.361   3.349   2.469
 9109TIP3    H227292   3.371   3.279   2.603
 9110TIP3   OH227293   4.993   4.442   1.793
 9110TIP3    H127294   4.949   4.391   1.725
 9110TIP3    H227295   5.086   4.424   1.780
 9111TIP3   OH227296   0.726   2.572   5.521
 9111TIP3    H127297   0.680   2.548   5.441
 9111TIP3    H227298   0.814   2.537   5.511
 9112TIP3   OH227299   0.577   0.129   5.445
 9112TIP3    H127300   0.653   0.149   5.499
 9112TIP3    H227301   0.503   0.170   5.489
 9113TIP3   OH227302   4.180   2.186   0.583
 9113TIP3    H127303   4.238   2.114   0.607
 9113TIP3    H227304   4.186   2.248   0.656
 9114TIP3   OH227305   3.103   6.142   4.797
 9114TIP3    H127306   3.053   6.063   4.775
 9114TIP3    H227307   3.090   6.152   4.892
 9115TIP3   OH227308   0.802   4.297   1.004
 9115TIP3    H127309   0.708   4.304   1.021
 9115TIP3    H227310   0.840   4.376   1.041
 9116TIP3   OH227311   1.581   3.516   4.659
 9116TIP3    H127312   1.625   3.457   4.598
 9116TIP3    H227313   1.627   3.600   4.649
 9117TIP3   OH227314   4.296   4.186   4.393
 9117TIP3    H127315   4.300   4.274   4.429
 9117TIP3    H227316   4.293   4.129   4.470
 9118TIP3   OH227317   2.665   6.792   4.974
 9118TIP3    H127318   2.742   6.813   5.027
 9118TIP3    H227319   2.700   6.751   4.895
 9119TIP3   OH227320   2.407   3.613   0.691
 9119TIP3    H127321   2.483   3.611   0.633
 9119TIP3    H227322   2.337   3.650   0.638
 9120TIP3   OH227323   1.583   3.904   0.420
 9120TIP3    H127324   1.529   3.841   0.373
 9120TIP3    H227325   1.639   3.850   0.476
 9121TIP3   OH227326   0.080   4.514   0.017
 9121TIP3    H127327   0.007   4.468  -0.023
 9121TIP3    H227328   0.049   4.604   0.027
 9122TIP3   OH227329   6.614   6.716   5.187
 9122TIP3    H127330   6.571   6.782   5.133
 9122TIP3    H227331   6.666   6.766   5.250
 9123TIP3   OH227332   6.954   3.885   2.365
 9123TIP3    H127333   6.973   3.962   2.418
 9123TIP3    H227334   6.864   3.861   2.390
 9124TIP3   OH227335   2.410   4.621   3.727
 9124TIP3    H127336   2.472   4.662   3.787
 9124TIP3    H227337   2.407   4.529   3.754
 9125TIP3   OH227338   3.395   4.727   5.474
 9125TIP3    H127339   3.350   4.649   5.506
 9125TIP3    H227340   3.331   4.771   5.418
 9126TIP3   OH227341   6.925   4.816   5.776
 9126TIP3    H127342   6.929   4.722   5.757
 9126TIP3    H227343   7.015   4.846   5.764
 9127TIP3   OH227344   4.718   5.943   1.000
 9127TIP3    H127345   4.806   5.933   1.035
 9127TIP3    H227346   4.696   5.856   0.967
 9128TIP3   OH227347   3.734   0.259   0.473
 9128TIP3    H127348   3.673   0.190   0.500
 9128TIP3    H227349   3.686   0.310   0.408
 9129TIP3   OH227350   1.958   3.489   0.234
 9129TIP3    H127351   1.943   3.570   0.283
 9129TIP3    H227352   1.886   3.432   0.258
 9130TIP3   OH227353   2.781   5.355   0.612
 9130TIP3    H127354   2.802   5.434   0.563
 9130TIP3    H227355   2.864   5.330   0.653
 9131TIP3   OH227356   2.061   5.469   0.358
 9131TIP3    H127357   2.107   5.386   0.346
 9131TIP3    H227358   1.981   5.461   0.306
 9132TIP3   OH227359   6.927   2.021   1.517
 9132TIP3    H127360   6.972   2.097   1.554
 9132TIP3    H227361   6.836   2.048   1.512
 9133TIP3   OH227362   2.261   2.700   3.399
 9133TIP3    H127363   2.228   2.617   3.366
 9133TIP3    H227364   2.253   2.761   3.326
 9134TIP3   OH227365   1.819   5.711   0.847
 9134TIP3    H127366   1.912   5.708   0.870
 9134TIP3    H227367   1.780   5.640   0.897
 9135TIP3   OH227368   1.539   4.184   5.415
 9135TIP3    H127369   1.483   4.106   5.413
 9135TIP3    H227370   1.531   4.217   5.504
 9136TIP3   OH227371   6.214   0.634   2.093
 9136TIP3    H127372   6.268   0.703   2.055
 9136TIP3    H227373   6.134   0.678   2.121
 9137TIP3   OH227374   3.983   0.070   3.538
 9137TIP3    H127375   3.916   0.082   3.470
 9137TIP3    H227376   4.063   0.049   3.489
 9138TIP3   OH227377   2.418   0.267   5.329
 9138TIP3    H127378   2.358   0.289   5.257
 9138TIP3    H227379   2.407   0.173   5.342
 9139TIP3   OH227380   5.822   3.147   4.306
 9139TIP3    H127381   5.845   3.054   4.310
 9139TIP3    H227382   5.771   3.162   4.386
 9140TIP3   OH227383   3.586   3.983   3.943
 9140TIP3    H127384   3.548   3.973   3.856
 9140TIP3    H227385   3.586   4.077   3.959
 9141TIP3   OH227386   4.002   3.931   3.611
 9141TIP3    H127387   3.933   3.907   3.549
 9141TIP3    H227388   4.057   3.853   3.618
 9142TIP3   OH227389   6.626   0.078   5.113
 9142TIP3    H127390   6.670   0.042   5.036
 9142TIP3    H227391   6.695   0.121   5.162
 9143TIP3   OH227392   5.720   1.785   3.421
 9143TIP3    H127393   5.701   1.716   3.357
 9143TIP3    H227394   5.720   1.866   3.371
 9144TIP3   OH227395   5.390   0.926   2.251
 9144TIP3    H127396   5.469   0.875   2.232
 9144TIP3    H227397   5.372   0.908   2.343
 9145TIP3   OH227398   3.719   0.475   5.581
 9145TIP3    H127399   3.733   0.387   5.617
 9145TIP3    H227400   3.686   0.526   5.655
 9146TIP3   OH227401   5.330   2.720   2.036
 9146TIP3    H127402   5.307   2.725   2.129
 9146TIP3    H227403   5.266   2.776   1.993
 9147TIP3   OH227404   1.226   2.418   1.722
 9147TIP3    H127405   1.188   2.443   1.806
 9147TIP3    H227406   1.194   2.483   1.661
 9148TIP3   OH227407   4.806   4.291   3.713
 9148TIP3    H127408   4.789   4.385   3.708
 9148TIP3    H227409   4.902   4.284   3.709
 9149TIP3   OH227410   2.820   3.119   1.322
 9149TIP3    H127411   2.872   3.051   1.280
 9149TIP3    H227412   2.836   3.197   1.270
 9150TIP3   OH227413   4.359   1.069   0.151
 9150TIP3    H127414   4.432   1.008   0.160
 9150TIP3    H227415   4.294   1.037   0.213
 9151TIP3   OH227416   1.427   2.646   5.709
 9151TIP3    H127417   1.504   2.683   5.667
 9151TIP3    H227418   1.370   2.620   5.636
 9152TIP3   OH227419   2.821   0.825   2.392
 9152TIP3    H127420   2.783   0.748   2.351
 9152TIP3    H227421   2.748   0.887   2.398
 9153TIP3   OH227422   1.284   0.721   0.697
 9153TIP3    H127423   1.284   0.797   0.755
 9153TIP3    H227424   1.262   0.756   0.611
 9154TIP3   OH227425   0.095   2.176   1.476
 9154TIP3    H127426   0.020   2.140   1.523
 9154TIP3    H227427   0.082   2.271   1.481
 9155TIP3   OH227428   1.118   1.572   5.761
 9155TIP3    H127429   1.081   1.630   5.828
 9155TIP3    H227430   1.061   1.583   5.685
 9156TIP3   OH227431   5.408   4.788   1.888
 9156TIP3    H127432   5.336   4.733   1.919
 9156TIP3    H227433   5.442   4.742   1.812
 9157TIP3   OH227434   6.224   5.213   2.508
 9157TIP3    H127435   6.219   5.243   2.599
 9157TIP3    H227436   6.142   5.242   2.468
 9158TIP3   OH227437   3.854   3.225   2.557
 9158TIP3    H127438   3.849   3.131   2.537
 9158TIP3    H227439   3.809   3.267   2.484
 9159TIP3   OH227440   4.258   6.478   4.854
 9159TIP3    H127441   4.322   6.410   4.873
 9159TIP3    H227442   4.186   6.433   4.809
 9160TIP3   OH227443   1.967   4.005   2.857
 9160TIP3    H127444   1.929   4.006   2.769
 9160TIP3    H227445   1.939   4.088   2.896
 9161TIP3   OH227446   5.486   1.686   4.748
 9161TIP3    H127447   5.494   1.646   4.835
 9161TIP3    H227448   5.571   1.672   4.706
 9162TIP3   OH227449   2.420   1.527   3.065
 9162TIP3    H127450   2.500   1.570   3.095
 9162TIP3    H227451   2.354   1.549   3.131
 9163TIP3   OH227452   2.982   6.240   5.525
 9163TIP3    H127453   2.993   6.308   5.459
 9163TIP3    H227454   2.997   6.158   5.478
 9164TIP3   OH227455   4.943   3.372   5.671
 9164TIP3    H127456   5.024   3.422   5.685
 9164TIP3    H227457   4.933   3.368   5.576
 9165TIP3   OH227458   1.313   5.328   1.413
 9165TIP3    H127459   1.353   5.252   1.456
 9165TIP3    H227460   1.221   5.326   1.442
 9166TIP3   OH227461   3.231   0.712   2.705
 9166TIP3    H127462   3.153   0.712   2.650
 9166TIP3    H227463   3.304   0.701   2.643
 9167TIP3   OH227464   4.690   4.815   3.641
 9167TIP3    H127465   4.634   4.804   3.717
 9167TIP3    H227466   4.754   4.881   3.668
 9168TIP3   OH227467   1.310   3.235   2.722
 9168TIP3    H127468   1.316   3.319   2.676
 9168TIP3    H227469   1.283   3.258   2.811
 9169TIP3   OH227470   4.080   5.548   2.526
 9169TIP3    H127471   4.139   5.619   2.551
 9169TIP3    H227472   4.076   5.553   2.430
 9170TIP3   OH227473   2.898   1.383   2.900
 9170TIP3    H127474   2.983   1.351   2.932
 9170TIP3    H227475   2.833   1.338   2.955
 9171TIP3   OH227476   0.551   6.344   5.619
 9171TIP3    H127477   0.544   6.382   5.707
 9171TIP3    H227478   0.572   6.418   5.562
 9172TIP3   OH227479   6.943   3.586   5.899
 9172TIP3    H127480   6.864   3.631   5.869
 9172TIP3    H227481   7.008   3.606   5.832
 9173TIP3   OH227482   4.860   4.419   1.547
 9173TIP3    H127483   4.835   4.455   1.462
 9173TIP3    H227484   4.786   4.364   1.572
 9174TIP3   OH227485   2.958   1.334   1.466
 9174TIP3    H127486   2.956   1.367   1.376
 9174TIP3    H227487   3.014   1.257   1.462
 9175TIP3   OH227488   1.235   2.193   4.474
 9175TIP3    H127489   1.270   2.276   4.441
 9175TIP3    H227490   1.217   2.142   4.395
 9176TIP3   OH227491   0.896   0.309   4.472
 9176TIP3    H127492   0.903   0.230   4.525
 9176TIP3    H227493   0.834   0.286   4.402
 9177TIP3   OH227494   0.603   5.504   1.720
 9177TIP3    H127495   0.697   5.501   1.699
 9177TIP3    H227496   0.594   5.450   1.798
 9178TIP3   OH227497   1.487   3.536   3.050
 9178TIP3    H127498   1.582   3.539   3.059
 9178TIP3    H227499   1.461   3.457   3.097
 9179TIP3   OH227500   1.596   4.274   0.190
 9179TIP3    H127501   1.514   4.322   0.194
 9179TIP3    H227502   1.596   4.220   0.269
 9180TIP3   OH227503   6.314   3.713   0.049
 9180TIP3    H127504   6.303   3.683  -0.041
 9180TIP3    H227505   6.277   3.801   0.050
 9181TIP3   OH227506   6.782   1.917   3.037
 9181TIP3    H127507   6.715   1.877   2.982
 9181TIP3    H227508   6.864   1.902   2.991
 9182TIP3   OH227509   6.722   4.950   1.400
 9182TIP3    H127510   6.782   4.993   1.339
 9182TIP3    H227511   6.764   4.867   1.421
 9183TIP3   OH227512   3.721   6.660   1.349
 9183TIP3    H127513   3.700   6.748   1.318
 9183TIP3    H227514   3.684   6.656   1.437
 9184TIP3   OH227515   1.762   4.428   2.041
 9184TIP3    H127516   1.785   4.393   1.955
 9184TIP3    H227517   1.787   4.359   2.102
 9185TIP3   OH227518   5.540   4.965   4.421
 9185TIP3    H127519   5.460   4.985   4.470
 9185TIP3    H227520   5.556   5.043   4.368
 9186TIP3   OH227521   4.248   1.763   2.145
 9186TIP3    H127522   4.252   1.858   2.155
 9186TIP3    H227523   4.295   1.728   2.221
 9187TIP3   OH227524   4.428   2.865   5.076
 9187TIP3    H127525   4.474   2.938   5.036
 9187TIP3    H227526   4.348   2.902   5.111
 9188TIP3   OH227527   6.154   5.912   1.167
 9188TIP3    H127528   6.197   5.878   1.089
 9188TIP3    H227529   6.072   5.862   1.172
 9189TIP3   OH227530   7.173   5.496   2.758
 9189TIP3    H127531   7.100   5.455   2.804
 9189TIP3    H227532   7.232   5.526   2.827
 9190TIP3   OH227533   1.706   6.270   3.184
 9190TIP3    H127534   1.793   6.302   3.160
 9190TIP3    H227535   1.678   6.217   3.109
 9191TIP3   OH227536   6.431   0.616   0.873
 9191TIP3    H127537   6.361   0.662   0.919
 9191TIP3    H227538   6.502   0.611   0.936
 9192TIP3   OH227539   6.267   4.231   2.392
 9192TIP3    H127540   6.241   4.322   2.377
 9192TIP3    H227541   6.279   4.225   2.487
 9193TIP3   OH227542   4.439   3.159   2.199
 9193TIP3    H127543   4.420   3.251   2.178
 9193TIP3    H227544   4.370   3.110   2.154
 9194TIP3   OH227545   7.048   1.860   4.717
 9194TIP3    H127546   7.004   1.783   4.680
 9194TIP3    H227547   7.027   1.857   4.810
 9195TIP3   OH227548   6.286   0.850   4.082
 9195TIP3    H127549   6.282   0.778   4.020
 9195TIP3    H227550   6.329   0.921   4.033
 9196TIP3   OH227551   7.068   0.324   1.913
 9196TIP3    H127552   7.064   0.418   1.895
 9196TIP3    H227553   7.157   0.299   1.888
 9197TIP3   OH227554   5.034   2.187   4.399
 9197TIP3    H127555   4.990   2.142   4.327
 9197TIP3    H227556   4.963   2.215   4.457
 9198TIP3   OH227557   2.139   4.653   2.264
 9198TIP3    H127558   2.141   4.625   2.173
 9198TIP3    H227559   2.177   4.580   2.313
 9199TIP3   OH227560   4.346   4.482   3.906
 9199TIP3    H127561   4.319   4.532   3.828
 9199TIP3    H227562   4.407   4.540   3.951
 9200TIP3   OH227563   0.556   3.470   3.185
 9200TIP3    H127564   0.531   3.518   3.107
 9200TIP3    H227565   0.507   3.511   3.256
 9201TIP3   OH227566   5.902   1.253   1.750
 9201TIP3    H127567   5.875   1.192   1.681
 9201TIP3    H227568   5.945   1.198   1.815
 9202TIP3   OH227569   4.603   5.326   5.338
 9202TIP3    H127570   4.662   5.305   5.410
 9202TIP3    H227571   4.543   5.391   5.374
 9203TIP3   OH227572   5.025   3.327   1.759
 9203TIP3    H127573   5.054   3.361   1.844
 9203TIP3    H227574   4.999   3.404   1.710
 9204TIP3   OH227575   5.704   2.306   4.159
 9204TIP3    H127576   5.674   2.226   4.116
 9204TIP3    H227577   5.740   2.359   4.088
 9205TIP3   OH227578   2.372   5.181   3.645
 9205TIP3    H127579   2.446   5.124   3.666
 9205TIP3    H227580   2.369   5.181   3.549
 9206TIP3   OH227581   2.422   6.307   0.237
 9206TIP3    H127582   2.451   6.225   0.276
 9206TIP3    H227583   2.400   6.284   0.147
 9207TIP3   OH227584   2.135   3.865   4.445
 9207TIP3    H127585   2.142   3.812   4.525
 9207TIP3    H227586   2.182   3.946   4.467
 9208TIP3   OH227587   0.282   6.259   5.602
 9208TIP3    H127588   0.366   6.237   5.561
 9208TIP3    H227589   0.305   6.312   5.678
 9209TIP3   OH227590   0.521   1.278   3.992
 9209TIP3    H127591   0.460   1.348   3.974
 9209TIP3    H227592   0.607   1.321   3.997
 9210TIP3   OH227593   7.007   0.792   4.778
 9210TIP3    H127594   6.962   0.779   4.695
 9210TIP3    H227595   7.001   0.886   4.795
 9211TIP3   OH227596   1.971   6.551   3.574
 9211TIP3    H127597   2.041   6.533   3.511
 9211TIP3    H227598   1.997   6.632   3.617
 9212TIP3   OH227599   6.040   4.485   5.729
 9212TIP3    H127600   6.114   4.494   5.669
 9212TIP3    H227601   6.052   4.556   5.792
 9213TIP3   OH227602   5.847   6.488   5.125
 9213TIP3    H127603   5.818   6.574   5.096
 9213TIP3    H227604   5.908   6.458   5.057
 9214TIP3   OH227605   3.026   4.739   0.195
 9214TIP3    H127606   2.964   4.698   0.134
 9214TIP3    H227607   3.034   4.829   0.165
 9215TIP3   OH227608   4.620   0.803   0.933
 9215TIP3    H127609   4.545   0.820   0.991
 9215TIP3    H227610   4.591   0.730   0.879
 9216TIP3   OH227611   3.669   5.693   0.484
 9216TIP3    H127612   3.691   5.620   0.426
 9216TIP3    H227613   3.619   5.652   0.555
 9217TIP3   OH227614   3.766   6.456   1.912
 9217TIP3    H127615   3.728   6.544   1.923
 9217TIP3    H227616   3.707   6.398   1.960
 9218TIP3   OH227617   4.591   1.992   0.304
 9218TIP3    H127618   4.661   1.944   0.260
 9218TIP3    H227619   4.597   1.965   0.396
 9219TIP3   OH227620   3.725   1.867   3.599
 9219TIP3    H127621   3.814   1.902   3.592
 9219TIP3    H227622   3.669   1.938   3.570
 9220TIP3   OH227623   5.669   1.612   5.200
 9220TIP3    H127624   5.677   1.520   5.175
 9220TIP3    H227625   5.595   1.644   5.148
 9221TIP3   OH227626   6.813   5.267   4.817
 9221TIP3    H127627   6.786   5.318   4.741
 9221TIP3    H227628   6.788   5.320   4.892
 9222TIP3   OH227629   3.951   1.800   5.064
 9222TIP3    H127630   3.972   1.711   5.036
 9222TIP3    H227631   3.887   1.830   5.000
 9223TIP3   OH227632   3.170   2.904   3.216
 9223TIP3    H127633   3.217   2.958   3.152
 9223TIP3    H227634   3.078   2.916   3.193
 9224TIP3   OH227635   2.157   0.152   0.560
 9224TIP3    H127636   2.156   0.223   0.495
 9224TIP3    H227637   2.097   0.087   0.524
 9225TIP3   OH227638   5.345   0.418   4.330
 9225TIP3    H127639   5.287   0.343   4.341
 9225TIP3    H227640   5.423   0.396   4.380
 9226TIP3   OH227641   4.599   0.914   0.182
 9226TIP3    H127642   4.577   0.855   0.254
 9226TIP3    H227643   4.648   0.860   0.120
 9227TIP3   OH227644   7.123   0.552   1.671
 9227TIP3    H127645   7.057   0.615   1.699
 9227TIP3    H227646   7.075   0.489   1.617
 9228TIP3   OH227647   5.984   1.362   0.841
 9228TIP3    H127648   5.902   1.381   0.886
 9228TIP3    H227649   5.957   1.323   0.757
 9229TIP3   OH227650   5.618   4.104   2.770
 9229TIP3    H127651   5.654   4.145   2.691
 9229TIP3    H227652   5.603   4.013   2.745
 9230TIP3   OH227653   6.235   2.749   4.443
 9230TIP3    H127654   6.183   2.696   4.384
 9230TIP3    H227655   6.247   2.694   4.521
 9231TIP3   OH227656   5.170   3.574   5.663
 9231TIP3    H127657   5.103   3.627   5.708
 9231TIP3    H227658   5.244   3.634   5.652
 9232TIP3   OH227659   6.070   5.622   4.818
 9232TIP3    H127660   6.020   5.690   4.862
 9232TIP3    H227661   6.161   5.641   4.841
 9233TIP3   OH227662   1.050   2.395   2.909
 9233TIP3    H127663   1.042   2.301   2.889
 9233TIP3    H227664   0.964   2.431   2.888
 9234TIP3   OH227665   7.098   5.963   2.545
 9234TIP3    H127666   7.023   6.023   2.547
 9234TIP3    H227667   7.079   5.902   2.474
 9235TIP3   OH227668   6.576   3.043   3.798
 9235TIP3    H127669   6.659   3.080   3.829
 9235TIP3    H227670   6.544   2.990   3.871
 9236TIP3   OH227671   2.589   0.663   1.112
 9236TIP3    H127672   2.507   0.705   1.087
 9236TIP3    H227673   2.609   0.603   1.040
 9237TIP3   OH227674   1.551   3.755   0.062
 9237TIP3    H127675   1.643   3.729   0.069
 9237TIP3    H227676   1.552   3.850   0.074
 9238TIP3   OH227677   1.604   0.936   1.957
 9238TIP3    H127678   1.579   0.853   1.997
 9238TIP3    H227679   1.686   0.960   2.000
 9239TIP3   OH227680   0.689   5.946   0.200
 9239TIP3    H127681   0.731   5.991   0.128
 9239TIP3    H227682   0.680   6.012   0.269
 9240TIP3   OH227683   5.379   1.582   1.179
 9240TIP3    H127684   5.456   1.564   1.233
 9240TIP3    H227685   5.357   1.673   1.199
 9241TIP3   OH227686   3.257   1.033   3.626
 9241TIP3    H127687   3.223   1.004   3.541
 9241TIP3    H227688   3.288   1.122   3.610
 9242TIP3   OH227689   6.443   2.774   2.313
 9242TIP3    H127690   6.485   2.802   2.232
 9242TIP3    H227691   6.349   2.780   2.294
 9243TIP3   OH227692   2.317   2.484   1.343
 9243TIP3    H127693   2.334   2.441   1.427
 9243TIP3    H227694   2.358   2.570   1.351
 9244TIP3   OH227695   2.731   0.926   5.250
 9244TIP3    H127696   2.819   0.961   5.240
 9244TIP3    H227697   2.743   0.849   5.307
 9245TIP3   OH227698   2.877   3.048   4.233
 9245TIP3    H127699   2.937   2.974   4.226
 9245TIP3    H227700   2.804   3.025   4.176
 9246TIP3   OH227701   4.561   4.911   2.830
 9246TIP3    H127702   4.602   4.830   2.862
 9246TIP3    H227703   4.634   4.972   2.820
 9247TIP3   OH227704   7.016   0.121   0.895
 9247TIP3    H127705   6.965   0.041   0.906
 9247TIP3    H227706   6.986   0.157   0.811
 9248TIP3   OH227707   5.250   3.879   1.858
 9248TIP3    H127708   5.233   3.931   1.936
 9248TIP3    H227709   5.321   3.820   1.883
 9249TIP3   OH227710   2.224   0.871   4.599
 9249TIP3    H127711   2.312   0.903   4.622
 9249TIP3    H227712   2.167   0.947   4.613
 9250TIP3   OH227713   6.305   3.145   3.714
 9250TIP3    H127714   6.369   3.077   3.735
 9250TIP3    H227715   6.341   3.190   3.638
 9251TIP3   OH227716   1.911   0.703   2.227
 9251TIP3    H127717   1.951   0.663   2.304
 9251TIP3    H227718   1.818   0.682   2.235
 9252TIP3   OH227719   2.125   5.224   5.278
 9252TIP3    H127720   2.091   5.139   5.251
 9252TIP3    H227721   2.219   5.219   5.261
 9253TIP3   OH227722   0.952   3.330   2.575
 9253TIP3    H127723   0.858   3.345   2.583
 9253TIP3    H227724   0.976   3.286   2.656
 9254TIP3   OH227725   6.876   3.944   4.259
 9254TIP3    H127726   6.927   3.869   4.227
 9254TIP3    H227727   6.790   3.933   4.219
 9255TIP3   OH227728   5.479   1.463   2.721
 9255TIP3    H127729   5.421   1.405   2.769
 9255TIP3    H227730   5.431   1.484   2.640
 9256TIP3   OH227731   1.275   4.968   3.432
 9256TIP3    H127732   1.345   4.907   3.410
 9256TIP3    H227733   1.235   4.932   3.510
 9257TIP3   OH227734   5.757   2.542   1.747
 9257TIP3    H127735   5.670   2.533   1.709
 9257TIP3    H227736   5.760   2.476   1.816
 9258TIP3   OH227737   0.168   6.773   5.312
 9258TIP3    H127738   0.074   6.774   5.297
 9258TIP3    H227739   0.191   6.681   5.319
 9259TIP3   OH227740   2.812   4.202   1.479
 9259TIP3    H127741   2.901   4.191   1.512
 9259TIP3    H227742   2.796   4.125   1.424
 9260TIP3   OH227743   2.973   3.536   2.982
 9260TIP3    H127744   3.018   3.484   2.916
 9260TIP3    H227745   3.039   3.551   3.050
 9261TIP3   OH227746   5.452   5.456   5.665
 9261TIP3    H127747   5.470   5.487   5.576
 9261TIP3    H227748   5.474   5.531   5.721
 9262TIP3   OH227749   5.980   3.377   0.317
 9262TIP3    H127750   5.934   3.434   0.256
 9262TIP3    H227751   5.980   3.426   0.400
 9263TIP3   OH227752   3.228   5.905   2.088
 9263TIP3    H127753   3.285   5.828   2.091
 9263TIP3    H227754   3.165   5.886   2.019
 9264TIP3   OH227755   3.807   3.884   0.366
 9264TIP3    H127756   3.795   3.911   0.275
 9264TIP3    H227757   3.796   3.965   0.416
 9265TIP3   OH227758   3.351   5.695   2.815
 9265TIP3    H127759   3.267   5.709   2.859
 9265TIP3    H227760   3.413   5.675   2.885
 9266TIP3   OH227761   3.666   2.749   4.372
 9266TIP3    H127762   3.635   2.715   4.288
 9266TIP3    H227763   3.602   2.816   4.397
 9267TIP3   OH227764   4.392   0.960   1.881
 9267TIP3    H127765   4.442   0.892   1.835
 9267TIP3    H227766   4.448   0.984   1.955
 9268TIP3   OH227767   0.890   0.349   2.926
 9268TIP3    H127768   0.889   0.257   2.953
 9268TIP3    H227769   0.798   0.369   2.908
 9269TIP3   OH227770   6.666   3.457   3.046
 9269TIP3    H127771   6.686   3.550   3.047
 9269TIP3    H227772   6.629   3.440   2.959
 9270TIP3   OH227773   5.274   5.845   0.456
 9270TIP3    H127774   5.272   5.925   0.404
 9270TIP3    H227775   5.347   5.858   0.516
 9271TIP3   OH227776   1.860   4.239   2.219
 9271TIP3    H127777   1.835   4.147   2.204
 9271TIP3    H227778   1.911   4.237   2.300
 9272TIP3   OH227779   0.218   0.863   0.398
 9272TIP3    H127780   0.250   0.948   0.427
 9272TIP3    H227781   0.252   0.801   0.462
 9273TIP3   OH227782   2.702   2.872   4.491
 9273TIP3    H127783   2.660   2.953   4.461
 9273TIP3    H227784   2.699   2.814   4.414
 9274TIP3   OH227785   2.064   6.331   5.607
 9274TIP3    H127786   1.998   6.268   5.580
 9274TIP3    H227787   2.117   6.346   5.528
 9275TIP3   OH227788   6.905   6.278   5.171
 9275TIP3    H127789   6.896   6.276   5.266
 9275TIP3    H227790   6.916   6.371   5.151
 9276TIP3   OH227791   5.844   4.917   4.815
 9276TIP3    H127792   5.880   4.836   4.778
 9276TIP3    H227793   5.876   4.918   4.905
 9277TIP3   OH227794   5.002   0.615   5.169
 9277TIP3    H127795   5.051   0.637   5.090
 9277TIP3    H227796   5.025   0.524   5.188
 9278TIP3   OH227797   5.878   3.911   2.421
 9278TIP3    H127798   5.930   3.855   2.479
 9278TIP3    H227799   5.789   3.906   2.457
 9279TIP3   OH227800   0.774   6.519   2.376
 9279TIP3    H127801   0.696   6.476   2.340
 9279TIP3    H227802   0.842   6.505   2.310
 9280TIP3   OH227803   5.862   6.313   4.577
 9280TIP3    H127804   5.881   6.250   4.508
 9280TIP3    H227805   5.797   6.372   4.538
 9281TIP3   OH227806   3.757   5.725   3.129
 9281TIP3    H127807   3.757   5.671   3.208
 9281TIP3    H227808   3.808   5.803   3.153
 9282TIP3   OH227809   5.584   1.976   4.566
 9282TIP3    H127810   5.566   2.060   4.524
 9282TIP3    H227811   5.533   1.977   4.646
 9283TIP3   OH227812   2.948   6.103   1.286
 9283TIP3    H127813   2.991   6.144   1.361
 9283TIP3    H227814   3.005   6.124   1.212
 9284TIP3   OH227815   4.970   2.540   3.313
 9284TIP3    H127816   4.978   2.503   3.401
 9284TIP3    H227817   5.047   2.596   3.303
 9285TIP3   OH227818   6.688   6.483   2.547
 9285TIP3    H127819   6.689   6.412   2.483
 9285TIP3    H227820   6.781   6.500   2.566
 9286TIP3   OH227821   5.776   0.620   2.398
 9286TIP3    H127822   5.870   0.604   2.396
 9286TIP3    H227823   5.743   0.563   2.468
 9287TIP3   OH227824   5.090   4.851   2.967
 9287TIP3    H127825   5.084   4.922   2.903
 9287TIP3    H227826   4.999   4.831   2.989
 9288TIP3   OH227827   6.615   3.126   0.131
 9288TIP3    H127828   6.650   3.109   0.219
 9288TIP3    H227829   6.689   3.165   0.084
 9289TIP3   OH227830   5.651   0.179   2.288
 9289TIP3    H127831   5.669   0.245   2.221
 9289TIP3    H227832   5.618   0.104   2.239
 9290TIP3   OH227833   3.050   1.070   4.221
 9290TIP3    H127834   3.053   0.976   4.202
 9290TIP3    H227835   2.984   1.105   4.160
 9291TIP3   OH227836   1.647   1.082   4.045
 9291TIP3    H127837   1.565   1.033   4.038
 9291TIP3    H227838   1.640   1.151   3.979
 9292TIP3   OH227839   5.650   1.788   4.384
 9292TIP3    H127840   5.742   1.765   4.394
 9292TIP3    H227841   5.631   1.846   4.457
 9293TIP3   OH227842   4.065   3.806   1.399
 9293TIP3    H127843   4.012   3.827   1.323
 9293TIP3    H227844   4.051   3.879   1.460
 9294TIP3   OH227845   1.117   0.676   5.573
 9294TIP3    H127846   1.120   0.667   5.668
 9294TIP3    H227847   1.174   0.751   5.553
 9295TIP3   OH227848   6.764   6.024   5.396
 9295TIP3    H127849   6.672   6.048   5.382
 9295TIP3    H227850   6.767   5.930   5.377
 9296TIP3   OH227851   3.023   0.692   4.259
 9296TIP3    H127852   3.088   0.621   4.261
 9296TIP3    H227853   3.057   0.753   4.193
 9297TIP3   OH227854   2.325   3.925   5.643
 9297TIP3    H127855   2.295   3.943   5.554
 9297TIP3    H227856   2.291   3.999   5.694
 9298TIP3   OH227857   1.112   2.449   4.260
 9298TIP3    H127858   1.076   2.447   4.349
 9298TIP3    H227859   1.147   2.361   4.246
 9299TIP3   OH227860   4.055   4.734   2.846
 9299TIP3    H127861   3.982   4.692   2.892
 9299TIP3    H227862   4.013   4.787   2.779
 9300TIP3   OH227863   5.362   6.657   4.851
 9300TIP3    H127864   5.390   6.594   4.785
 9300TIP3    H227865   5.288   6.615   4.895
 9301TIP3   OH227866   0.409   0.818   3.260
 9301TIP3    H127867   0.432   0.820   3.353
 9301TIP3    H227868   0.473   0.759   3.221
 9302TIP3   OH227869   3.636   6.045   3.228
 9302TIP3    H127870   3.721   6.037   3.186
 9302TIP3    H227871   3.628   6.139   3.247
 9303TIP3   OH227872   4.503   6.541   0.058
 9303TIP3    H127873   4.525   6.587   0.139
 9303TIP3    H227874   4.586   6.537   0.010
 9304TIP3   OH227875   1.386   5.133   5.165
 9304TIP3    H127876   1.480   5.144   5.152
 9304TIP3    H227877   1.369   5.163   5.254
 9305TIP3   OH227878   3.282   1.313   1.799
 9305TIP3    H127879   3.225   1.377   1.755
 9305TIP3    H227880   3.310   1.358   1.879
 9306TIP3   OH227881   4.780   3.902   3.871
 9306TIP3    H127882   4.786   3.839   3.942
 9306TIP3    H227883   4.871   3.920   3.847
 9307TIP3   OH227884   2.428   1.849   0.086
 9307TIP3    H127885   2.372   1.872   0.160
 9307TIP3    H227886   2.408   1.915   0.019
 9308TIP3   OH227887   5.549   3.334   2.686
 9308TIP3    H127888   5.588   3.250   2.662
 9308TIP3    H227889   5.616   3.399   2.662
 9309TIP3   OH227890   7.079   1.894   2.815
 9309TIP3    H127891   7.083   1.980   2.856
 9309TIP3    H227892   7.030   1.908   2.734
 9310TIP3   OH227893   1.844   3.337   2.688
 9310TIP3    H127894   1.865   3.254   2.645
 9310TIP3    H227895   1.749   3.338   2.694
 9311TIP3   OH227896   4.534   5.698   1.304
 9311TIP3    H127897   4.477   5.622   1.300
 9311TIP3    H227898   4.615   5.670   1.261
 9312TIP3   OH227899   0.805   5.669   0.505
 9312TIP3    H127900   0.861   5.663   0.583
 9312TIP3    H227901   0.774   5.580   0.491
 9313TIP3   OH227902   6.705   0.966   5.031
 9313TIP3    H127903   6.651   0.940   4.956
 9313TIP3    H227904   6.784   0.912   5.024
 9314TIP3   OH227905   3.523   5.441   4.961
 9314TIP3    H127906   3.561   5.526   4.938
 9314TIP3    H227907   3.446   5.462   5.014
 9315TIP3   OH227908   6.799   3.578   5.165
 9315TIP3    H127909   6.814   3.594   5.258
 9315TIP3    H227910   6.711   3.540   5.161
 9316TIP3   OH227911   3.679   5.931   1.944
 9316TIP3    H127912   3.756   5.912   1.891
 9316TIP3    H227913   3.605   5.902   1.890
 9317TIP3   OH227914   6.946   3.011   0.970
 9317TIP3    H127915   7.012   3.020   1.039
 9317TIP3    H227916   6.870   3.057   1.004
 9318TIP3   OH227917   2.108   1.116   4.968
 9318TIP3    H127918   2.019   1.126   5.002
 9318TIP3    H227919   2.164   1.151   5.038
 9319TIP3   OH227920   2.849   6.177   0.161
 9319TIP3    H127921   2.892   6.141   0.239
 9319TIP3    H227922   2.896   6.137   0.087
 9320TIP3   OH227923   2.660   4.303   0.391
 9320TIP3    H127924   2.595   4.234   0.405
 9320TIP3    H227925   2.742   4.256   0.375
 9321TIP3   OH227926   3.896   6.462   1.341
 9321TIP3    H127927   3.820   6.517   1.322
 9321TIP3    H227928   3.948   6.513   1.403
 9322TIP3   OH227929   3.525   4.639   3.714
 9322TIP3    H127930   3.527   4.566   3.776
 9322TIP3    H227931   3.475   4.606   3.639
 9323TIP3   OH227932   3.769   4.986   1.187
 9323TIP3    H127933   3.779   4.891   1.179
 9323TIP3    H227934   3.722   5.011   1.107
 9324TIP3   OH227935   5.323   5.471   5.220
 9324TIP3    H127936   5.298   5.380   5.239
 9324TIP3    H227937   5.345   5.470   5.127
 9325TIP3   OH227938   4.594   4.540   5.034
 9325TIP3    H127939   4.524   4.570   4.976
 9325TIP3    H227940   4.597   4.445   5.020
 9326TIP3   OH227941   2.785   3.767   0.898
 9326TIP3    H127942   2.789   3.804   0.809
 9326TIP3    H227943   2.865   3.716   0.905
 9327TIP3   OH227944   5.113   5.395   0.942
 9327TIP3    H127945   5.099   5.347   0.861
 9327TIP3    H227946   5.091   5.486   0.920
 9328TIP3   OH227947   2.357   6.370   3.000
 9328TIP3    H127948   2.327   6.296   3.052
 9328TIP3    H227949   2.400   6.428   3.063
 9329TIP3   OH227950   6.413   5.927   0.083
 9329TIP3    H127951   6.396   5.859   0.018
 9329TIP3    H227952   6.505   5.951   0.068
 9330TIP3   OH227953   3.846   5.985   2.166
 9330TIP3    H127954   3.936   5.999   2.135
 9330TIP3    H227955   3.794   5.983   2.086
 9331TIP3   OH227956   6.823   0.670   2.548
 9331TIP3    H127957   6.891   0.735   2.530
 9331TIP3    H227958   6.813   0.671   2.643
 9332TIP3   OH227959   1.691   3.272   3.404
 9332TIP3    H127960   1.614   3.301   3.355
 9332TIP3    H227961   1.656   3.238   3.486
 9333TIP3   OH227962   2.841   6.374   4.180
 9333TIP3    H127963   2.786   6.436   4.227
 9333TIP3    H227964   2.813   6.288   4.212
 9334TIP3   OH227965   2.049   3.873   2.489
 9334TIP3    H127966   2.125   3.856   2.434
 9334TIP3    H227967   2.069   3.829   2.572
 9335TIP3   OH227968   0.833   4.792   4.826
 9335TIP3    H127969   0.877   4.709   4.806
 9335TIP3    H227970   0.831   4.838   4.742
 9336TIP3   OH227971   0.939   4.630   0.537
 9336TIP3    H127972   0.867   4.613   0.476
 9336TIP3    H227973   0.989   4.549   0.537
 9337TIP3   OH227974   4.904   6.722   0.134
 9337TIP3    H127975   4.861   6.753   0.214
 9337TIP3    H227976   4.866   6.776   0.064
 9338TIP3   OH227977   6.828   0.066   2.260
 9338TIP3    H127978   6.847   0.142   2.206
 9338TIP3    H227979   6.853   0.093   2.349
 9339TIP3   OH227980   6.334   5.615   5.724
 9339TIP3    H127981   6.369   5.674   5.792
 9339TIP3    H227982   6.310   5.536   5.772
 9340TIP3   OH227983   0.712   3.133   1.189
 9340TIP3    H127984   0.675   3.187   1.119
 9340TIP3    H227985   0.732   3.049   1.146
 9341TIP3   OH227986   3.080   6.737   4.358
 9341TIP3    H127987   3.122   6.651   4.367
 9341TIP3    H227988   3.127   6.779   4.285
 9342TIP3   OH227989   6.586   0.163   3.919
 9342TIP3    H127990   6.505   0.134   3.877
 9342TIP3    H227991   6.561   0.182   4.009
 9343TIP3   OH227992   6.470   1.114   4.232
 9343TIP3    H127993   6.518   1.036   4.204
 9343TIP3    H227994   6.432   1.149   4.151
 9344TIP3   OH227995   4.874   6.265   4.052
 9344TIP3    H127996   4.847   6.320   3.979
 9344TIP3    H227997   4.793   6.248   4.100
 9345TIP3   OH227998   4.366   3.011   1.349
 9345TIP3    H127999   4.383   2.976   1.437
 9345TIP3    H228000   4.278   2.980   1.328
 9346TIP3   OH228001   1.992   3.230   2.314
 9346TIP3    H128002   2.021   3.195   2.229
 9346TIP3    H228003   1.985   3.324   2.299
 9347TIP3   OH228004   4.715   1.023   5.177
 9347TIP3    H128005   4.776   1.058   5.112
 9347TIP3    H228006   4.663   1.099   5.204
 9348TIP3   OH228007   1.556   5.493   4.934
 9348TIP3    H128008   1.616   5.447   4.876
 9348TIP3    H228009   1.515   5.559   4.879
 9349TIP3   OH228010   1.804   2.897   5.023
 9349TIP3    H128011   1.842   2.812   5.001
 9349TIP3    H228012   1.715   2.893   4.990
 9350TIP3   OH228013   1.624   0.639   2.237
 9350TIP3    H128014   1.537   0.629   2.199
 9350TIP3    H228015   1.610   0.631   2.332
 9351TIP3   OH228016   0.540   3.043   5.592
 9351TIP3    H128017   0.549   2.956   5.632
 9351TIP3    H228018   0.473   3.086   5.645
 9352TIP3   OH228019   1.403   0.340   3.683
 9352TIP3    H128020   1.409   0.430   3.717
 9352TIP3    H228021   1.493   0.318   3.658
 9353TIP3   OH228022   4.846   1.448   4.252
 9353TIP3    H128023   4.787   1.378   4.281
 9353TIP3    H228024   4.816   1.526   4.299
 9354TIP3   OH228025   3.553   3.925   5.872
 9354TIP3    H128026   3.499   3.867   5.818
 9354TIP3    H228027   3.640   3.886   5.869
 9355TIP3   OH228028   2.237   5.247   3.917
 9355TIP3    H128029   2.237   5.177   3.852
 9355TIP3    H228030   2.301   5.310   3.884
 9356TIP3   OH228031   3.372   4.160   3.772
 9356TIP3    H128032   3.341   4.092   3.832
 9356TIP3    H228033   3.329   4.141   3.689
 9357TIP3   OH228034   6.981   6.048   3.886
 9357TIP3    H128035   6.954   6.000   3.965
 9357TIP3    H228036   6.900   6.085   3.851
 9358TIP3   OH228037   0.751   1.688   4.638
 9358TIP3    H128038   0.840   1.688   4.673
 9358TIP3    H228039   0.710   1.612   4.679
 9359TIP3   OH228040   0.731   6.095   0.407
 9359TIP3    H128041   0.770   6.177   0.378
 9359TIP3    H228042   0.803   6.045   0.444
 9360TIP3   OH228043   2.043   1.453   2.450
 9360TIP3    H128044   2.070   1.424   2.363
 9360TIP3    H228045   1.963   1.403   2.469
 9361TIP3   OH228046   5.278   0.057   2.353
 9361TIP3    H128047   5.263  -0.034   2.376
 9361TIP3    H228048   5.314   0.053   2.264
 9362TIP3   OH228049   0.652   3.307   0.990
 9362TIP3    H128050   0.623   3.276   0.904
 9362TIP3    H228051   0.585   3.370   1.016
 9363TIP3   OH228052   5.474   5.621   3.792
 9363TIP3    H128053   5.502   5.660   3.875
 9363TIP3    H228054   5.378   5.617   3.798
 9364TIP3   OH228055   0.119   4.734   1.468
 9364TIP3    H128056   0.194   4.794   1.459
 9364TIP3    H228057   0.112   4.718   1.562
 9365TIP3   OH228058  -0.018   3.663   5.709
 9365TIP3    H128059  -0.054   3.615   5.635
 9365TIP3    H228060   0.072   3.632   5.718
 9366TIP3   OH228061   2.407   6.652   1.822
 9366TIP3    H128062   2.329   6.703   1.801
 9366TIP3    H228063   2.373   6.570   1.857
 9367TIP3   OH228064   4.772   2.742   1.667
 9367TIP3    H128065   4.802   2.808   1.604
 9367TIP3    H228066   4.853   2.714   1.712
 9368TIP3   OH228067   5.558   6.241   1.977
 9368TIP3    H128068   5.505   6.168   1.945
 9368TIP3    H228069   5.556   6.306   1.907
 9369TIP3   OH228070   3.772   6.665   0.567
 9369TIP3    H128071   3.695   6.708   0.529
 9369TIP3    H228072   3.778   6.701   0.656
 9370TIP3   OH228073   6.229   1.247   0.933
 9370TIP3    H128074   6.145   1.274   0.895
 9370TIP3    H228075   6.232   1.290   1.018
 9371TIP3   OH228076   0.952   0.583   3.656
 9371TIP3    H128077   1.015   0.523   3.695
 9371TIP3    H228078   0.995   0.617   3.578
 9372TIP3   OH228079   4.038   5.935   0.883
 9372TIP3    H128080   3.994   5.955   0.966
 9372TIP3    H228081   3.967   5.924   0.820
 9373TIP3   OH228082   4.066   2.729   5.435
 9373TIP3    H128083   4.120   2.807   5.425
 9373TIP3    H228084   3.986   2.759   5.477
 9374TIP3   OH228085   5.139   5.542   2.095
 9374TIP3    H128086   5.094   5.462   2.067
 9374TIP3    H228087   5.128   5.543   2.190
 9375TIP3   OH228088   5.019   1.151   0.977
 9375TIP3    H128089   5.061   1.189   0.899
 9375TIP3    H228090   4.941   1.106   0.942
 9376TIP3   OH228091   5.537   5.778   4.453
 9376TIP3    H128092   5.447   5.795   4.481
 9376TIP3    H228093   5.529   5.706   4.390
 9377TIP3   OH228094   0.540   0.614   4.990
 9377TIP3    H128095   0.509   0.528   5.019
 9377TIP3    H228096   0.461   0.666   4.978
 9378TIP3   OH228097   5.926   6.449   1.940
 9378TIP3    H128098   5.942   6.493   1.856
 9378TIP3    H228099   5.965   6.507   2.005
 9379TIP3   OH228100   1.276   0.317   3.104
 9379TIP3    H128101   1.368   0.305   3.082
 9379TIP3    H228102   1.264   0.411   3.110
 9380TIP3   OH228103   5.476   3.968   2.197
 9380TIP3    H128104   5.500   4.056   2.168
 9380TIP3    H228105   5.534   3.910   2.149
 9381TIP3   OH228106   3.554   2.925   4.005
 9381TIP3    H128107   3.558   2.834   4.033
 9381TIP3    H228108   3.549   2.921   3.909
 9382TIP3   OH228109   4.261   1.701   4.707
 9382TIP3    H128110   4.276   1.608   4.728
 9382TIP3    H228111   4.309   1.714   4.625
 9383TIP3   OH228112   5.328   1.686   3.390
 9383TIP3    H128113   5.403   1.634   3.418
 9383TIP3    H228114   5.357   1.728   3.309
 9384TIP3   OH228115   3.748   6.216   4.222
 9384TIP3    H128116   3.842   6.230   4.212
 9384TIP3    H228117   3.726   6.261   4.304
 9385TIP3   OH228118   3.957   3.821   4.557
 9385TIP3    H128119   4.018   3.747   4.559
 9385TIP3    H228120   3.927   3.825   4.466
 9386TIP3   OH228121   1.331   1.201   3.702
 9386TIP3    H128122   1.283   1.154   3.634
 9386TIP3    H228123   1.396   1.138   3.733
 9387TIP3   OH228124   5.839   0.214   2.642
 9387TIP3    H128125   5.918   0.170   2.674
 9387TIP3    H228126   5.845   0.206   2.547
 9388TIP3   OH228127   0.342   1.172   0.386
 9388TIP3    H128128   0.370   1.109   0.319
 9388TIP3    H228129   0.417   1.182   0.443
 9389TIP3   OH228130   4.488   3.049   3.819
 9389TIP3    H128131   4.504   3.121   3.880
 9389TIP3    H228132   4.455   2.978   3.874
 9390TIP3   OH228133   6.055   3.723   3.541
 9390TIP3    H128134   5.981   3.661   3.547
 9390TIP3    H228135   6.047   3.760   3.453
 9391TIP3   OH228136   3.486   2.746   2.684
 9391TIP3    H128137   3.489   2.820   2.745
 9391TIP3    H228138   3.419   2.688   2.719
 9392TIP3   OH228139   1.094   3.718   4.051
 9392TIP3    H128140   1.041   3.641   4.031
 9392TIP3    H228141   1.030   3.790   4.055
 9393TIP3   OH228142   6.160   4.309   2.960
 9393TIP3    H128143   6.254   4.325   2.964
 9393TIP3    H228144   6.153   4.221   2.922
 9394TIP3   OH228145   1.122   3.677   3.361
 9394TIP3    H128146   1.198   3.701   3.309
 9394TIP3    H228147   1.050   3.669   3.297
 9395TIP3   OH228148   0.331   6.728   3.539
 9395TIP3    H128149   0.404   6.711   3.479
 9395TIP3    H228150   0.330   6.823   3.549
 9396TIP3   OH228151   6.380   6.147   4.226
 9396TIP3    H128152   6.316   6.141   4.296
 9396TIP3    H228153   6.329   6.135   4.146
 9397TIP3   OH228154   5.753   6.709   3.618
 9397TIP3    H128155   5.686   6.778   3.612
 9397TIP3    H228156   5.830   6.749   3.578
 9398TIP3   OH228157   3.998   0.956   5.062
 9398TIP3    H128158   4.082   0.919   5.088
 9398TIP3    H228159   3.950   0.882   5.023
 9399TIP3   OH228160   5.014   6.026   4.335
 9399TIP3    H128161   4.925   5.992   4.326
 9399TIP3    H228162   5.005   6.102   4.392
 9400TIP3   OH228163   6.210   6.034   4.027
 9400TIP3    H128164   6.128   5.991   4.049
 9400TIP3    H228165   6.247   5.980   3.957
 9401TIP3   OH228166   5.561   0.846   1.380
 9401TIP3    H128167   5.537   0.816   1.293
 9401TIP3    H228168   5.485   0.827   1.434
 9402TIP3   OH228169   2.567   2.357   4.448
 9402TIP3    H128170   2.496   2.390   4.392
 9402TIP3    H228171   2.529   2.357   4.536
 9403TIP3   OH228172   3.109   0.346   1.579
 9403TIP3    H128173   3.096   0.289   1.654
 9403TIP3    H228174   3.047   0.314   1.513
 9404TIP3   OH228175   1.163   5.562   2.273
 9404TIP3    H128176   1.164   5.572   2.368
 9404TIP3    H228177   1.100   5.628   2.242
 9405TIP3   OH228178   3.199   3.204   2.827
 9405TIP3    H128179   3.188   3.235   2.917
 9405TIP3    H228180   3.146   3.263   2.774
 9406TIP3   OH228181   4.458   2.566   4.670
 9406TIP3    H128182   4.485   2.477   4.694
 9406TIP3    H228183   4.363   2.561   4.658
 9407TIP3   OH228184   1.130   6.816   3.736
 9407TIP3    H128185   1.084   6.747   3.689
 9407TIP3    H228186   1.183   6.770   3.801
 9408TIP3   OH228187   6.842   6.278   5.438
 9408TIP3    H128188   6.822   6.185   5.437
 9408TIP3    H228189   6.763   6.319   5.474
 9409TIP3   OH228190   0.036   6.411   1.136
 9409TIP3    H128191   0.092   6.334   1.147
 9409TIP3    H228192  -0.010   6.419   1.219
 9410TIP3   OH228193   3.095   6.680   5.314
 9410TIP3    H128194   3.168   6.668   5.253
 9410TIP3    H228195   3.101   6.772   5.340
 9411TIP3   OH228196   2.321   5.135   1.501
 9411TIP3    H128197   2.229   5.119   1.521
 9411TIP3    H228198   2.337   5.224   1.532
 9412TIP3   OH228199   3.548   3.027   4.401
 9412TIP3    H128200   3.457   3.055   4.408
 9412TIP3    H228201   3.583   3.076   4.326
 9413TIP3   OH228202   1.462   1.978   4.220
 9413TIP3    H128203   1.497   2.043   4.282
 9413TIP3    H228204   1.501   1.895   4.249
 9414TIP3   OH228205   6.566   4.290   0.663
 9414TIP3    H128206   6.497   4.324   0.720
 9414TIP3    H228207   6.544   4.198   0.650
 9415TIP3   OH228208   3.692   1.295   3.559
 9415TIP3    H128209   3.657   1.354   3.625
 9415TIP3    H228210   3.663   1.331   3.475
 9416TIP3   OH228211   0.504   2.125   0.973
 9416TIP3    H128212   0.482   2.108   0.882
 9416TIP3    H228213   0.467   2.211   0.992
 9417TIP3   OH228214   0.192   5.622   2.503
 9417TIP3    H128215   0.271   5.642   2.554
 9417TIP3    H228216   0.202   5.529   2.480
 9418TIP3   OH228217   0.462   4.680   3.331
 9418TIP3    H128218   0.466   4.714   3.242
 9418TIP3    H228219   0.473   4.586   3.322
 9419TIP3   OH228220   2.378   3.641   3.471
 9419TIP3    H128221   2.376   3.565   3.529
 9419TIP3    H228222   2.289   3.677   3.476
 9420TIP3   OH228223   1.284   3.059   5.155
 9420TIP3    H128224   1.210   3.048   5.214
 9420TIP3    H228225   1.361   3.032   5.206
 9421TIP3   OH228226   6.752   1.365   4.427
 9421TIP3    H128227   6.839   1.376   4.468
 9421TIP3    H228228   6.771   1.329   4.340
 9422TIP3   OH228229   2.312   3.134   5.781
 9422TIP3    H128230   2.396   3.111   5.742
 9422TIP3    H228231   2.248   3.121   5.710
 9423TIP3   OH228232   4.507   5.014   1.691
 9423TIP3    H128233   4.474   5.070   1.761
 9423TIP3    H228234   4.471   5.053   1.611
 9424TIP3   OH228235   4.184   4.241   0.765
 9424TIP3    H128236   4.154   4.193   0.688
 9424TIP3    H228237   4.205   4.328   0.733
 9425TIP3   OH228238   6.589   5.875   5.644
 9425TIP3    H128239   6.636   5.794   5.626
 9425TIP3    H228240   6.533   5.854   5.719
 9426TIP3   OH228241   2.109   4.115   0.317
 9426TIP3    H128242   2.021   4.088   0.290
 9426TIP3    H228243   2.100   4.209   0.336
 9427TIP3   OH228244   2.044   0.387   0.914
 9427TIP3    H128245   2.046   0.303   0.960
 9427TIP3    H228246   1.953   0.417   0.922
 9428TIP3   OH228247   2.686   4.342   1.266
 9428TIP3    H128248   2.672   4.282   1.340
 9428TIP3    H228249   2.693   4.428   1.306
 9429TIP3   OH228250   0.358   4.307   3.639
 9429TIP3    H128251   0.299   4.326   3.566
 9429TIP3    H228252   0.422   4.378   3.637
 9430TIP3   OH228253   4.149   6.082   3.866
 9430TIP3    H128254   4.083   6.029   3.822
 9430TIP3    H228255   4.179   6.028   3.939
 9431TIP3   OH228256   0.058   0.754   4.576
 9431TIP3    H128257  -0.021   0.732   4.526
 9431TIP3    H228258   0.111   0.805   4.515
 9432TIP3   OH228259   4.623   3.194   2.551
 9432TIP3    H128260   4.589   3.180   2.639
 9432TIP3    H228261   4.611   3.111   2.506
 9433TIP3   OH228262   1.991   5.111   4.058
 9433TIP3    H128263   2.014   5.182   3.999
 9433TIP3    H228264   1.985   5.034   4.001
 9434TIP3   OH228265   5.700   4.639   3.732
 9434TIP3    H128266   5.707   4.640   3.637
 9434TIP3    H228267   5.754   4.713   3.761
 9435TIP3   OH228268   0.719   0.331   5.638
 9435TIP3    H128269   0.768   0.413   5.627
 9435TIP3    H228270   0.640   0.358   5.684
 9436TIP3   OH228271   7.097   6.059   5.361
 9436TIP3    H128272   7.063   5.989   5.417
 9436TIP3    H228273   7.043   6.056   5.282
 9437TIP3   OH228274   4.413   4.286   2.619
 9437TIP3    H128275   4.498   4.296   2.577
 9437TIP3    H228276   4.413   4.351   2.690
 9438TIP3   OH228277   4.969   1.353   2.840
 9438TIP3    H128278   5.063   1.348   2.861
 9438TIP3    H228279   4.938   1.263   2.846
 9439TIP3   OH228280   7.202   0.857   1.936
 9439TIP3    H128281   7.113   0.891   1.946
 9439TIP3    H228282   7.229   0.886   1.849
 9440TIP3   OH228283   2.774   2.484   3.945
 9440TIP3    H128284   2.744   2.550   3.883
 9440TIP3    H228285   2.720   2.497   4.023
 9441TIP3   OH228286   5.334   5.223   2.073
 9441TIP3    H128287   5.313   5.213   2.166
 9441TIP3    H228288   5.304   5.141   2.033
 9442TIP3   OH228289   4.033   3.459   5.081
 9442TIP3    H128290   4.124   3.452   5.052
 9442TIP3    H228291   3.988   3.500   5.006
 9443TIP3   OH228292   3.264   4.603   1.411
 9443TIP3    H128293   3.229   4.543   1.346
 9443TIP3    H228294   3.186   4.643   1.451
 9444TIP3   OH228295   3.112   2.773   5.760
 9444TIP3    H128296   3.051   2.806   5.827
 9444TIP3    H228297   3.130   2.849   5.705
 9445TIP3   OH228298   1.461   1.016   1.024
 9445TIP3    H128299   1.436   1.038   1.114
 9445TIP3    H228300   1.382   0.977   0.986
 9446TIP3   OH228301   5.084   2.936   2.156
 9446TIP3    H128302   5.028   2.923   2.232
 9446TIP3    H228303   5.142   3.008   2.180
 9447TIP3   OH228304   6.982   5.590   0.916
 9447TIP3    H128305   6.928   5.668   0.899
 9447TIP3    H228306   6.929   5.536   0.975
 9448TIP3   OH228307   6.875   1.636   0.430
 9448TIP3    H128308   6.951   1.578   0.422
 9448TIP3    H228309   6.820   1.594   0.496
 9449TIP3   OH228310   6.509   3.760   5.136
 9449TIP3    H128311   6.468   3.721   5.059
 9449TIP3    H228312   6.490   3.698   5.207
 9450TIP3   OH228313   1.533   1.811   5.531
 9450TIP3    H128314   1.517   1.739   5.592
 9450TIP3    H228315   1.614   1.851   5.562
 9451TIP3   OH228316   6.435   5.879   2.682
 9451TIP3    H128317   6.377   5.885   2.758
 9451TIP3    H228318   6.427   5.965   2.639
 9452TIP3   OH228319   5.738   4.418   4.359
 9452TIP3    H128320   5.711   4.510   4.367
 9452TIP3    H228321   5.743   4.403   4.265
 9453TIP3   OH228322   6.926   3.679   3.074
 9453TIP3    H128323   6.983   3.610   3.039
 9453TIP3    H228324   6.960   3.696   3.162
 9454TIP3   OH228325   1.144   4.338   4.371
 9454TIP3    H128326   1.212   4.375   4.428
 9454TIP3    H228327   1.065   4.387   4.394
 9455TIP3   OH228328   6.995   5.205   0.115
 9455TIP3    H128329   7.031   5.220   0.027
 9455TIP3    H228330   6.901   5.220   0.105
 9456TIP3   OH228331   6.232   5.949   5.103
 9456TIP3    H128332   6.155   5.904   5.137
 9456TIP3    H228333   6.267   5.890   5.037
 9457TIP3   OH228334   6.272   1.154   3.088
 9457TIP3    H128335   6.265   1.249   3.097
 9457TIP3    H228336   6.359   1.140   3.050
 9458TIP3   OH228337   1.880   6.634   4.528
 9458TIP3    H128338   1.913   6.659   4.441
 9458TIP3    H228339   1.925   6.693   4.588
 9459TIP3   OH228340   6.346   5.598   3.360
 9459TIP3    H128341   6.401   5.608   3.282
 9459TIP3    H228342   6.409   5.582   3.430
 9460TIP3   OH228343   4.712   3.672   3.612
 9460TIP3    H128344   4.634   3.693   3.561
 9460TIP3    H228345   4.703   3.726   3.691
 9461TIP3   OH228346   0.894   1.312   1.615
 9461TIP3    H128347   0.926   1.373   1.548
 9461TIP3    H228348   0.803   1.295   1.591
 9462TIP3   OH228349   2.701   5.346   2.266
 9462TIP3    H128350   2.606   5.354   2.281
 9462TIP3    H228351   2.739   5.349   2.353
 9463TIP3   OH228352   1.241   3.147   3.685
 9463TIP3    H128353   1.282   3.062   3.700
 9463TIP3    H228354   1.224   3.149   3.591
 9464TIP3   OH228355   2.176   0.672   5.572
 9464TIP3    H128356   2.213   0.631   5.494
 9464TIP3    H228357   2.249   0.678   5.633
 9465TIP3   OH228358   5.655   1.351   3.215
 9465TIP3    H128359   5.672   1.268   3.171
 9465TIP3    H228360   5.560   1.363   3.206
 9466TIP3   OH228361   2.389   5.870   4.260
 9466TIP3    H128362   2.405   5.829   4.345
 9466TIP3    H228363   2.294   5.871   4.251
 9467TIP3   OH228364   1.275   4.547   3.051
 9467TIP3    H128365   1.296   4.466   3.098
 9467TIP3    H228366   1.246   4.518   2.965
 9468TIP3   OH228367   3.672   0.490   3.704
 9468TIP3    H128368   3.728   0.419   3.735
 9468TIP3    H228369   3.732   0.551   3.662
 9469TIP3   OH228370   5.830   3.134   2.724
 9469TIP3    H128371   5.774   3.074   2.676
 9469TIP3    H228372   5.908   3.142   2.669
 9470TIP3   OH228373   4.025   3.666   2.125
 9470TIP3    H128374   3.942   3.706   2.099
 9470TIP3    H228375   4.017   3.575   2.098
 9471TIP3   OH228376   1.636   5.441   2.097
 9471TIP3    H128377   1.564   5.470   2.153
 9471TIP3    H228378   1.711   5.493   2.125
 9472TIP3   OH228379   4.448   6.761   0.379
 9472TIP3    H128380   4.440   6.727   0.468
 9472TIP3    H228381   4.488   6.847   0.390
 9473TIP3   OH228382   1.212   1.748   3.565
 9473TIP3    H128383   1.205   1.655   3.543
 9473TIP3    H228384   1.166   1.756   3.649
 9474TIP3   OH228385   4.685   4.043   0.952
 9474TIP3    H128386   4.676   4.068   0.860
 9474TIP3    H228387   4.776   4.012   0.959
 9475TIP3   OH228388   4.008   3.136   0.050
 9475TIP3    H128389   4.010   3.207  -0.014
 9475TIP3    H228390   3.956   3.068   0.008
 9476TIP3   OH228391   1.102   1.498   5.067
 9476TIP3    H128392   1.024   1.477   5.117
 9476TIP3    H228393   1.148   1.564   5.119
 9477TIP3   OH228394   4.615   4.613   3.042
 9477TIP3    H128395   4.520   4.601   3.036
 9477TIP3    H228396   4.645   4.613   2.951
 9478TIP3   OH228397   0.279   2.340   0.154
 9478TIP3    H128398   0.360   2.293   0.134
 9478TIP3    H228399   0.220   2.274   0.189
 9479TIP3   OH228400   2.960   5.834   1.397
 9479TIP3    H128401   2.953   5.923   1.362
 9479TIP3    H228402   2.987   5.781   1.322
 9480TIP3   OH228403   7.013   4.180   1.034
 9480TIP3    H128404   6.990   4.187   1.127
 9480TIP3    H228405   7.096   4.133   1.034
 9481TIP3   OH228406   0.781   3.746   5.048
 9481TIP3    H128407   0.816   3.789   4.970
 9481TIP3    H228408   0.695   3.787   5.061
 9482TIP3   OH228409   6.955   5.496   0.278
 9482TIP3    H128410   6.892   5.446   0.225
 9482TIP3    H228411   7.008   5.543   0.214
 9483TIP3   OH228412   2.637   6.746   5.453
 9483TIP3    H128413   2.621   6.718   5.363
 9483TIP3    H228414   2.733   6.747   5.461
 9484TIP3   OH228415   7.168   6.092   5.670
 9484TIP3    H128416   7.174   6.036   5.747
 9484TIP3    H228417   7.114   6.042   5.608
 9485TIP3   OH228418   1.697   2.952   4.163
 9485TIP3    H128419   1.748   2.925   4.086
 9485TIP3    H228420   1.703   2.878   4.223
 9486TIP3   OH228421   4.779   0.629   1.795
 9486TIP3    H128422   4.800   0.562   1.729
 9486TIP3    H228423   4.831   0.705   1.769
 9487TIP3   OH228424   0.532   6.769   4.235
 9487TIP3    H128425   0.548   6.731   4.321
 9487TIP3    H228426   0.547   6.863   4.247
 9488TIP3   OH228427   6.136   5.076   5.806
 9488TIP3    H128428   6.216   5.062   5.755
 9488TIP3    H228429   6.124   5.170   5.806
 9489TIP3   OH228430   6.281   0.867   5.697
 9489TIP3    H128431   6.202   0.830   5.737
 9489TIP3    H228432   6.336   0.791   5.680
 9490TIP3   OH228433   7.076   3.230   3.074
 9490TIP3    H128434   7.152   3.203   3.125
 9490TIP3    H228435   7.028   3.289   3.131
 9491TIP3   OH228436   0.097   6.486   5.037
 9491TIP3    H128437   0.110   6.473   4.943
 9491TIP3    H228438   0.153   6.421   5.078
 9492TIP3   OH228439   5.306   0.765   2.930
 9492TIP3    H128440   5.343   0.704   2.867
 9492TIP3    H228441   5.355   0.846   2.917
 9493TIP3   OH228442   5.134   6.177   0.616
 9493TIP3    H128443   5.095   6.122   0.684
 9493TIP3    H228444   5.176   6.249   0.663
 9494TIP3   OH228445   2.465   1.831   2.633
 9494TIP3    H128446   2.397   1.828   2.566
 9494TIP3    H228447   2.441   1.763   2.695
 9495TIP3   OH228448   6.147   2.046   1.006
 9495TIP3    H128449   6.211   2.116   1.008
 9495TIP3    H228450   6.195   1.970   0.973
 9496TIP3   OH228451   0.839   5.955   4.651
 9496TIP3    H128452   0.782   6.021   4.612
 9496TIP3    H228453   0.841   5.976   4.744
 9497TIP3   OH228454   1.214   3.154   0.725
 9497TIP3    H128455   1.242   3.162   0.634
 9497TIP3    H228456   1.220   3.242   0.761
 9498TIP3   OH228457   0.941   6.751   4.795
 9498TIP3    H128458   1.028   6.711   4.806
 9498TIP3    H228459   0.951   6.839   4.833
 9499TIP3   OH228460   2.417   2.835   3.852
 9499TIP3    H128461   2.382   2.806   3.936
 9499TIP3    H228462   2.363   2.791   3.786
 9500TIP3   OH228463   3.647   6.444   0.860
 9500TIP3    H128464   3.627   6.401   0.943
 9500TIP3    H228465   3.622   6.380   0.794
 9501TIP3   OH228466   0.697   2.195   5.269
 9501TIP3    H128467   0.771   2.255   5.276
 9501TIP3    H228468   0.713   2.146   5.189
 9502TIP3   OH228469   0.905   3.560   0.670
 9502TIP3    H128470   0.881   3.597   0.755
 9502TIP3    H228471   0.825   3.516   0.640
 9503TIP3   OH228472   2.736   2.826   3.351
 9503TIP3    H128473   2.660   2.781   3.389
 9503TIP3    H228474   2.759   2.773   3.275
 9504TIP3   OH228475   3.682   5.645   5.678
 9504TIP3    H128476   3.626   5.599   5.740
 9504TIP3    H228477   3.688   5.587   5.602
 9505TIP3   OH228478   0.272   5.710   1.254
 9505TIP3    H128479   0.216   5.712   1.331
 9505TIP3    H228480   0.270   5.799   1.220
 9506TIP3   OH228481   2.672   3.459   0.149
 9506TIP3    H128482   2.621   3.492   0.075
 9506TIP3    H228483   2.611   3.456   0.222
 9507TIP3   OH228484   2.900   6.420   1.084
 9507TIP3    H128485   2.904   6.458   0.996
 9507TIP3    H228486   2.956   6.478   1.137
 9508TIP3   OH228487   4.421   4.778   1.852
 9508TIP3    H128488   4.498   4.730   1.823
 9508TIP3    H228489   4.457   4.855   1.897
 9509TIP3   OH228490   2.671   0.660   0.119
 9509TIP3    H128491   2.583   0.680   0.090
 9509TIP3    H228492   2.682   0.710   0.201
 9510TIP3   OH228493   2.794   0.435   4.374
 9510TIP3    H128494   2.798   0.520   4.331
 9510TIP3    H228495   2.882   0.421   4.407
 9511TIP3   OH228496   2.013   6.543   3.080
 9511TIP3    H128497   1.998   6.448   3.089
 9511TIP3    H228498   2.026   6.556   2.986
 9512TIP3   OH228499   1.547   3.746   2.284
 9512TIP3    H128500   1.488   3.671   2.275
 9512TIP3    H228501   1.523   3.804   2.212
 9513TIP3   OH228502   0.124   4.585   4.342
 9513TIP3    H128503   0.129   4.675   4.310
 9513TIP3    H228504   0.077   4.537   4.273
 9514TIP3   OH228505   1.637   3.155   4.362
 9514TIP3    H128506   1.634   3.079   4.304
 9514TIP3    H228507   1.552   3.154   4.406
 9515TIP3   OH228508   3.743   1.597   2.254
 9515TIP3    H128509   3.771   1.683   2.223
 9515TIP3    H228510   3.692   1.561   2.181
 9516TIP3   OH228511   3.176   1.042   1.828
 9516TIP3    H128512   3.195   1.135   1.815
 9516TIP3    H228513   3.217   1.021   1.911
 9517TIP3   OH228514   3.264   5.708   4.247
 9517TIP3    H128515   3.290   5.798   4.231
 9517TIP3    H228516   3.342   5.666   4.283
 9518TIP3   OH228517   3.172   0.615   3.876
 9518TIP3    H128518   3.175   0.527   3.913
 9518TIP3    H228519   3.149   0.671   3.950
 9519TIP3   OH228520   1.107   6.500   0.612
 9519TIP3    H128521   1.140   6.436   0.549
 9519TIP3    H228522   1.181   6.556   0.632
 9520TIP3   OH228523   4.382   6.204   3.263
 9520TIP3    H128524   4.299   6.222   3.307
 9520TIP3    H228525   4.401   6.284   3.213
 9521TIP3   OH228526   6.197   6.307   4.009
 9521TIP3    H128527   6.197   6.212   4.022
 9521TIP3    H228528   6.117   6.324   3.959
 9522TIP3   OH228529   2.811   4.585   0.385
 9522TIP3    H128530   2.809   4.670   0.340
 9522TIP3    H228531   2.887   4.540   0.348
 9523TIP3   OH228532   0.693   6.065   1.782
 9523TIP3    H128533   0.626   6.118   1.740
 9523TIP3    H228534   0.663   5.975   1.769
 9524TIP3   OH228535   3.985   6.083   0.116
 9524TIP3    H128536   4.055   6.085   0.050
 9524TIP3    H228537   3.960   6.174   0.127
 9525TIP3   OH228538   0.179   1.488   0.805
 9525TIP3    H128539   0.116   1.485   0.878
 9525TIP3    H228540   0.264   1.472   0.846
 9526TIP3   OH228541   3.838   5.530   2.942
 9526TIP3    H128542   3.827   5.586   3.019
 9526TIP3    H228543   3.887   5.583   2.880
 9527TIP3   OH228544   3.910   2.662   4.532
 9527TIP3    H128545   3.901   2.644   4.626
 9527TIP3    H228546   3.828   2.705   4.508
 9528TIP3   OH228547   2.887   1.676   0.084
 9528TIP3    H128548   2.897   1.765   0.116
 9528TIP3    H228549   2.926   1.621   0.152
 9529TIP3   OH228550   0.042   1.931   1.698
 9529TIP3    H128551   0.004   1.868   1.760
 9529TIP3    H228552  -0.002   2.014   1.719
 9530TIP3   OH228553   3.271   1.297   3.582
 9530TIP3    H128554   3.238   1.345   3.507
 9530TIP3    H228555   3.351   1.344   3.607
 9531TIP3   OH228556   3.349   6.074   1.825
 9531TIP3    H128557   3.309   6.069   1.911
 9531TIP3    H228558   3.275   6.079   1.764
 9532TIP3   OH228559   4.022   4.833   0.340
 9532TIP3    H128560   4.007   4.927   0.335
 9532TIP3    H228561   3.937   4.796   0.367
 9533TIP3   OH228562   5.892   2.755   0.189
 9533TIP3    H128563   5.824   2.689   0.202
 9533TIP3    H228564   5.849   2.838   0.209
 9534TIP3   OH228565   6.624   4.442   0.979
 9534TIP3    H128566   6.532   4.422   0.996
 9534TIP3    H228567   6.661   4.361   0.944
 9535TIP3   OH228568   2.690   3.403   4.812
 9535TIP3    H128569   2.657   3.321   4.775
 9535TIP3    H228570   2.641   3.413   4.894
 9536TIP3   OH228571   6.217   3.287   0.196
 9536TIP3    H128572   6.140   3.283   0.253
 9536TIP3    H228573   6.284   3.330   0.249
 9537TIP3   OH228574   4.591   0.347   2.034
 9537TIP3    H128575   4.595   0.388   1.947
 9537TIP3    H228576   4.677   0.305   2.044
 9538TIP3   OH228577   5.192   0.174   3.235
 9538TIP3    H128578   5.130   0.202   3.169
 9538TIP3    H228579   5.270   0.146   3.186
 9539TIP3   OH228580   1.070   1.869   5.732
 9539TIP3    H128581   1.115   1.953   5.722
 9539TIP3    H228582   0.978   1.892   5.744
 9540TIP3   OH228583   0.521   3.615   2.100
 9540TIP3    H128584   0.512   3.559   2.022
 9540TIP3    H228585   0.478   3.565   2.169
 9541TIP3   OH228586   3.458   1.689   0.005
 9541TIP3    H128587   3.540   1.661  -0.036
 9541TIP3    H228588   3.482   1.765   0.059
 9542TIP3   OH228589   3.645   3.828   2.595
 9542TIP3    H128590   3.727   3.856   2.636
 9542TIP3    H228591   3.655   3.733   2.584
 9543TIP3   OH228592   2.219   4.054   3.592
 9543TIP3    H128593   2.203   4.118   3.661
 9543TIP3    H228594   2.184   4.094   3.512
 9544TIP3   OH228595   6.894   6.644   1.038
 9544TIP3    H128596   6.818   6.591   1.013
 9544TIP3    H228597   6.871   6.733   1.014
 9545TIP3   OH228598   0.472   0.084   5.017
 9545TIP3    H128599   0.519   0.166   5.032
 9545TIP3    H228600   0.526   0.036   4.954
 9546TIP3   OH228601   2.473   6.489   3.659
 9546TIP3    H128602   2.396   6.435   3.677
 9546TIP3    H228603   2.523   6.439   3.594
 9547TIP3   OH228604   0.600   2.731   2.543
 9547TIP3    H128605   0.534   2.743   2.612
 9547TIP3    H228606   0.577   2.648   2.502
 9548TIP3   OH228607   7.175   4.587   5.129
 9548TIP3    H128608   7.117   4.530   5.079
 9548TIP3    H228609   7.245   4.609   5.068
 9549TIP3   OH228610   6.400   5.147   0.804
 9549TIP3    H128611   6.381   5.241   0.799
 9549TIP3    H228612   6.486   5.142   0.846
 9550TIP3   OH228613  -0.021   5.869   1.524
 9550TIP3    H128614   0.057   5.909   1.561
 9550TIP3    H228615  -0.005   5.775   1.529
 9551TIP3   OH228616   6.012   1.314   5.435
 9551TIP3    H128617   6.011   1.405   5.407
 9551TIP3    H228618   6.068   1.313   5.513
 9552TIP3   OH228619   6.361   6.663   5.688
 9552TIP3    H128620   6.352   6.721   5.613
 9552TIP3    H228621   6.271   6.645   5.715
 9553TIP3   OH228622   5.153   1.626   5.678
 9553TIP3    H128623   5.185   1.662   5.760
 9553TIP3    H228624   5.232   1.603   5.629
 9554TIP3   OH228625   1.481   5.876   4.299
 9554TIP3    H128626   1.495   5.785   4.273
 9554TIP3    H228627   1.386   5.886   4.301
 9555TIP3   OH228628   6.312   4.404   3.759
 9555TIP3    H128629   6.362   4.322   3.764
 9555TIP3    H228630   6.223   4.377   3.740
 9556TIP3   OH228631   4.745   1.670   4.432
 9556TIP3    H128632   4.788   1.660   4.516
 9556TIP3    H228633   4.662   1.623   4.441
 9557TIP3   OH228634   2.174   0.611   3.980
 9557TIP3    H128635   2.220   0.654   4.051
 9557TIP3    H228636   2.090   0.655   3.975
 9558TIP3   OH228637   2.405   4.426   1.271
 9558TIP3    H128638   2.406   4.498   1.208
 9558TIP3    H228639   2.488   4.380   1.256
 9559TIP3   OH228640   3.340   5.792   3.137
 9559TIP3    H128641   3.274   5.722   3.131
 9559TIP3    H228642   3.305   5.852   3.203
 9560TIP3   OH228643   4.264   6.461   1.584
 9560TIP3    H128644   4.271   6.373   1.548
 9560TIP3    H228645   4.192   6.501   1.535
 9561TIP3   OH228646   0.627   4.884   2.167
 9561TIP3    H128647   0.714   4.913   2.196
 9561TIP3    H228648   0.567   4.919   2.234
 9562TIP3   OH228649   5.535   2.728   5.180
 9562TIP3    H128650   5.471   2.678   5.129
 9562TIP3    H228651   5.607   2.743   5.118
 9563TIP3   OH228652   0.946   5.254   3.469
 9563TIP3    H128653   0.989   5.304   3.539
 9563TIP3    H228654   0.864   5.301   3.453
 9564TIP3   OH228655   2.824   4.111   5.344
 9564TIP3    H128656   2.752   4.070   5.392
 9564TIP3    H228657   2.793   4.117   5.254
 9565TIP3   OH228658   4.263   2.507   5.481
 9565TIP3    H128659   4.251   2.597   5.452
 9565TIP3    H228660   4.327   2.471   5.420
 9566TIP3   OH228661   0.898   1.320   5.680
 9566TIP3    H128662   0.892   1.408   5.644
 9566TIP3    H228663   0.947   1.330   5.761
 9567TIP3   OH228664   3.881   6.417   5.382
 9567TIP3    H128665   3.892   6.329   5.418
 9567TIP3    H228666   3.968   6.439   5.347
 9568TIP3   OH228667   1.109   1.037   5.835
 9568TIP3    H128668   1.117   1.129   5.861
 9568TIP3    H228669   1.186   1.021   5.780
 9569TIP3   OH228670   6.009   0.420   5.807
 9569TIP3    H128671   6.003   0.487   5.876
 9569TIP3    H228672   6.015   0.338   5.855
 9570TIP3   OH228673   6.384   3.307   3.519
 9570TIP3    H128674   6.397   3.398   3.547
 9570TIP3    H228675   6.473   3.270   3.517
 9571TIP3   OH228676   6.871   4.052   1.726
 9571TIP3    H128677   6.776   4.065   1.731
 9571TIP3    H228678   6.890   4.054   1.632
 9572TIP3   OH228679   2.989   6.532   1.456
 9572TIP3    H128680   3.023   6.543   1.367
 9572TIP3    H228681   2.901   6.569   1.454
 9573TIP3   OH228682   1.130   3.181   4.711
 9573TIP3    H128683   1.217   3.215   4.689
 9573TIP3    H228684   1.069   3.243   4.672
 9574TIP3   OH228685   5.497   3.785   4.443
 9574TIP3    H128686   5.479   3.765   4.351
 9574TIP3    H228687   5.495   3.700   4.487
 9575TIP3   OH228688   1.421   3.652   0.389
 9575TIP3    H128689   1.487   3.585   0.407
 9575TIP3    H228690   1.388   3.677   0.476
 9576TIP3   OH228691   3.863   4.604   0.448
 9576TIP3    H128692   3.869   4.608   0.543
 9576TIP3    H228693   3.851   4.511   0.428
 9577TIP3   OH228694   2.805   4.142   0.881
 9577TIP3    H128695   2.764   4.081   0.819
 9577TIP3    H228696   2.738   4.209   0.896
 9578TIP3   OH228697   2.207   5.700   2.807
 9578TIP3    H128698   2.298   5.715   2.782
 9578TIP3    H228699   2.207   5.709   2.903
 9579TIP3   OH228700   2.759   0.211   2.831
 9579TIP3    H128701   2.763   0.239   2.740
 9579TIP3    H228702   2.665   0.207   2.851
 9580TIP3   OH228703   2.203   3.447   1.972
 9580TIP3    H128704   2.230   3.508   1.903
 9580TIP3    H228705   2.284   3.407   2.003
 9581TIP3   OH228706   2.349   3.688   4.134
 9581TIP3    H128707   2.405   3.751   4.178
 9581TIP3    H228708   2.372   3.603   4.173
 9582TIP3   OH228709   1.100   4.973   5.124
 9582TIP3    H128710   1.097   4.987   5.218
 9582TIP3    H228711   1.046   5.042   5.087
 9583TIP3   OH228712   1.902   2.620   5.163
 9583TIP3    H128713   1.971   2.555   5.177
 9583TIP3    H228714   1.869   2.602   5.075
 9584TIP3   OH228715   0.610   1.246   4.654
 9584TIP3    H128716   0.624   1.318   4.716
 9584TIP3    H228717   0.516   1.242   4.642
 9585TIP3   OH228718   4.559   3.729   1.271
 9585TIP3    H128719   4.539   3.820   1.251
 9585TIP3    H228720   4.496   3.679   1.220
 9586TIP3   OH228721   4.908   3.174   2.090
 9586TIP3    H128722   4.949   3.088   2.095
 9586TIP3    H228723   4.849   3.178   2.165
 9587TIP3   OH228724   4.752   2.303   0.915
 9587TIP3    H128725   4.819   2.246   0.951
 9587TIP3    H228726   4.691   2.244   0.871
 9588TIP3   OH228727   5.221   6.449   3.343
 9588TIP3    H128728   5.309   6.485   3.352
 9588TIP3    H228729   5.198   6.462   3.251
 9589TIP3   OH228730   3.981   1.830   1.771
 9589TIP3    H128731   4.023   1.795   1.692
 9589TIP3    H228732   3.887   1.826   1.752
 9590TIP3   OH228733   6.380   0.130   4.539
 9590TIP3    H128734   6.474   0.118   4.552
 9590TIP3    H228735   6.370   0.224   4.525
 9591TIP3   OH228736   1.378   4.414   2.566
 9591TIP3    H128737   1.331   4.388   2.487
 9591TIP3    H228738   1.428   4.337   2.590
 9592TIP3   OH228739   4.958   0.609   2.308
 9592TIP3    H128740   4.930   0.590   2.219
 9592TIP3    H228741   4.952   0.704   2.315
 9593TIP3   OH228742   7.093   0.319   5.016
 9593TIP3    H128743   7.103   0.329   4.921
 9593TIP3    H228744   7.124   0.402   5.052
 9594TIP3   OH228745   4.063   2.179   3.108
 9594TIP3    H128746   3.981   2.144   3.073
 9594TIP3    H228747   4.096   2.237   3.040
 9595TIP3   OH228748   3.362   1.373   0.734
 9595TIP3    H128749   3.419   1.308   0.776
 9595TIP3    H228750   3.410   1.399   0.655
 9596TIP3   OH228751   5.321   6.544   0.997
 9596TIP3    H128752   5.292   6.612   0.936
 9596TIP3    H228753   5.416   6.558   1.005
 9597TIP3   OH228754   2.788   3.313   0.932
 9597TIP3    H128755   2.730   3.353   0.996
 9597TIP3    H228756   2.876   3.337   0.961
 9598TIP3   OH228757   4.676   3.259   1.577
 9598TIP3    H128758   4.664   3.316   1.501
 9598TIP3    H228759   4.704   3.318   1.647
 9599TIP3   OH228760   0.840   4.361   2.750
 9599TIP3    H128761   0.800   4.441   2.715
 9599TIP3    H228762   0.896   4.330   2.679
 9600TIP3   OH228763   0.890   5.192   0.116
 9600TIP3    H128764   0.917   5.212   0.205
 9600TIP3    H228765   0.899   5.097   0.109
 9601TIP3   OH228766   4.044   2.545   2.820
 9601TIP3    H128767   3.991   2.611   2.864
 9601TIP3    H228768   4.099   2.595   2.760
 9602TIP3   OH228769   2.686   5.591   2.933
 9602TIP3    H128770   2.777   5.614   2.954
 9602TIP3    H228771   2.644   5.581   3.018
 9603TIP3   OH228772   0.030   4.616   5.387
 9603TIP3    H128773   0.123   4.615   5.409
 9603TIP3    H228774   0.024   4.566   5.305
 9604TIP3   OH228775   4.735   2.658   4.131
 9604TIP3    H128776   4.811   2.709   4.102
 9604TIP3    H228777   4.736   2.580   4.076
 9605TIP3   OH228778   3.238   1.274   4.658
 9605TIP3    H128779   3.318   1.230   4.686
 9605TIP3    H228780   3.188   1.206   4.612
 9606TIP3   OH228781   0.136   2.535   4.110
 9606TIP3    H128782   0.074   2.556   4.040
 9606TIP3    H228783   0.085   2.484   4.173
 9607TIP3   OH228784   4.769   6.745   2.180
 9607TIP3    H128785   4.697   6.762   2.119
 9607TIP3    H228786   4.848   6.757   2.127
 9608TIP3   OH228787   1.821   4.295   5.605
 9608TIP3    H128788   1.880   4.224   5.631
 9608TIP3    H228789   1.829   4.298   5.510
 9609TIP3   OH228790   1.708   4.295   4.876
 9609TIP3    H128791   1.733   4.387   4.860
 9609TIP3    H228792   1.688   4.261   4.789
 9610TIP3   OH228793   2.623   0.205   2.417
 9610TIP3    H128794   2.538   0.227   2.457
 9610TIP3    H228795   2.685   0.262   2.462
 9611TIP3   OH228796   0.854   6.166   5.314
 9611TIP3    H128797   0.905   6.179   5.393
 9611TIP3    H228798   0.918   6.141   5.247
 9612TIP3   OH228799   5.766   2.415   4.565
 9612TIP3    H128800   5.720   2.485   4.519
 9612TIP3    H228801   5.716   2.336   4.545
 9613TIP3   OH228802   3.430   0.460   1.655
 9613TIP3    H128803   3.352   0.515   1.644
 9613TIP3    H228804   3.487   0.486   1.583
 9614TIP3   OH228805   5.471   5.206   0.812
 9614TIP3    H128806   5.560   5.212   0.776
 9614TIP3    H228807   5.482   5.226   0.905
 9615TIP3   OH228808   5.594   5.196   2.834
 9615TIP3    H128809   5.523   5.244   2.791
 9615TIP3    H228810   5.549   5.128   2.885
 9616TIP3   OH228811   5.874   6.394   1.408
 9616TIP3    H128812   5.840   6.305   1.415
 9616TIP3    H228813   5.876   6.412   1.314
 9617TIP3   OH228814   1.012   4.353   4.109
 9617TIP3    H128815   1.074   4.326   4.177
 9617TIP3    H228816   0.926   4.335   4.146
 9618TIP3   OH228817   0.417   5.192   4.535
 9618TIP3    H128818   0.423   5.102   4.500
 9618TIP3    H228819   0.328   5.219   4.513
 9619TIP3   OH228820   1.150   2.723   2.795
 9619TIP3    H128821   1.236   2.756   2.771
 9619TIP3    H228822   1.092   2.800   2.789
 9620TIP3   OH228823   6.025   5.673   5.162
 9620TIP3    H128824   5.973   5.703   5.087
 9620TIP3    H228825   5.960   5.651   5.229
 9621TIP3   OH228826   5.138   3.808   1.384
 9621TIP3    H128827   5.047   3.792   1.356
 9621TIP3    H228828   5.133   3.813   1.479
 9622TIP3   OH228829   5.068   6.747   4.116
 9622TIP3    H128830   5.017   6.777   4.191
 9622TIP3    H228831   5.083   6.825   4.064
 9623TIP3   OH228832   6.805   5.901   4.761
 9623TIP3    H128833   6.839   5.884   4.673
 9623TIP3    H228834   6.809   5.997   4.770
 9624TIP3   OH228835   3.149   3.142   3.950
 9624TIP3    H128836   3.237   3.179   3.944
 9624TIP3    H228837   3.162   3.047   3.940
 9625TIP3   OH228838   1.988   0.082   4.561
 9625TIP3    H128839   1.911   0.130   4.531
 9625TIP3    H228840   1.955   0.021   4.627
 9626TIP3   OH228841   7.136   4.096   5.198
 9626TIP3    H128842   7.140   4.179   5.244
 9626TIP3    H228843   7.046   4.066   5.211
 9627TIP3   OH228844   2.712   0.208   3.573
 9627TIP3    H128845   2.659   0.215   3.652
 9627TIP3    H228846   2.728   0.299   3.546
 9628TIP3   OH228847   0.991   4.278   3.673
 9628TIP3    H128848   0.973   4.215   3.742
 9628TIP3    H228849   0.980   4.229   3.591
 9629TIP3   OH228850   3.510   4.970   0.502
 9629TIP3    H128851   3.585   5.002   0.452
 9629TIP3    H228852   3.508   4.876   0.485
 9630TIP3   OH228853   5.689   5.598   4.879
 9630TIP3    H128854   5.689   5.504   4.863
 9630TIP3    H228855   5.623   5.611   4.947
 9631TIP3   OH228856   3.557   0.426   3.277
 9631TIP3    H128857   3.642   0.412   3.318
 9631TIP3    H228858   3.578   0.445   3.185
 9632TIP3   OH228859   5.891   0.877   1.345
 9632TIP3    H128860   5.942   0.954   1.319
 9632TIP3    H228861   5.800   0.903   1.331
 9633TIP3   OH228862   4.475   6.093   5.362
 9633TIP3    H128863   4.550   6.077   5.305
 9633TIP3    H228864   4.501   6.166   5.418
 9634TIP3   OH228865   3.390   1.360   1.177
 9634TIP3    H128866   3.459   1.385   1.117
 9634TIP3    H228867   3.342   1.441   1.195
 9635TIP3   OH228868   4.349   1.650   2.370
 9635TIP3    H128869   4.403   1.660   2.449
 9635TIP3    H228870   4.277   1.593   2.397
 9636TIP3   OH228871   3.183   5.676   0.720
 9636TIP3    H128872   3.220   5.636   0.642
 9636TIP3    H228873   3.141   5.756   0.689
 9637TIP3   OH228874   6.642   1.702   4.036
 9637TIP3    H128875   6.583   1.626   4.042
 9637TIP3    H228876   6.715   1.680   4.094
 9638TIP3   OH228877   3.040   0.761   0.431
 9638TIP3    H128878   3.035   0.796   0.521
 9638TIP3    H228879   2.972   0.694   0.428
 9639TIP3   OH228880   2.675   3.363   2.028
 9639TIP3    H128881   2.695   3.280   1.985
 9639TIP3    H228882   2.579   3.365   2.034
 9640TIP3   OH228883   7.146   1.549   4.836
 9640TIP3    H128884   7.185   1.594   4.910
 9640TIP3    H228885   7.218   1.537   4.774
 9641TIP3   OH228886   5.769   0.499   3.556
 9641TIP3    H128887   5.687   0.492   3.604
 9641TIP3    H228888   5.783   0.593   3.545
 9642TIP3   OH228889   5.850   4.655   4.700
 9642TIP3    H128890   5.870   4.578   4.754
 9642TIP3    H228891   5.772   4.630   4.651
 9643TIP3   OH228892   5.579   4.130   0.891
 9643TIP3    H128893   5.636   4.206   0.899
 9643TIP3    H228894   5.491   4.164   0.903
 9644TIP3   OH228895   0.634   4.149   5.434
 9644TIP3    H128896   0.685   4.099   5.370
 9644TIP3    H228897   0.673   4.237   5.431
 9645TIP3   OH228898   4.637   4.886   0.874
 9645TIP3    H128899   4.605   4.976   0.878
 9645TIP3    H228900   4.589   4.840   0.942
 9646TIP3   OH228901   2.976   5.512   5.743
 9646TIP3    H128902   3.029   5.563   5.682
 9646TIP3    H228903   2.977   5.423   5.707
 9647TIP3   OH228904   4.885   1.792   2.567
 9647TIP3    H128905   4.969   1.838   2.561
 9647TIP3    H228906   4.902   1.719   2.627
 9648TIP3   OH228907   0.714   3.674   3.003
 9648TIP3    H128908   0.660   3.753   2.996
 9648TIP3    H228909   0.770   3.691   3.079
 9649TIP3   OH228910   3.979   2.990   4.919
 9649TIP3    H128911   3.970   2.894   4.923
 9649TIP3    H228912   4.069   3.007   4.946
 9650TIP3   OH228913   0.970   3.854   2.393
 9650TIP3    H128914   0.949   3.781   2.334
 9650TIP3    H228915   0.890   3.868   2.443
 9651TIP3   OH228916   2.688   4.484   3.696
 9651TIP3    H128917   2.704   4.417   3.762
 9651TIP3    H228918   2.671   4.564   3.747
 9652TIP3   OH228919   4.196   4.326   1.933
 9652TIP3    H128920   4.191   4.421   1.944
 9652TIP3    H228921   4.217   4.294   2.021
 9653TIP3   OH228922   2.480   5.684   2.765
 9653TIP3    H128923   2.563   5.645   2.794
 9653TIP3    H228924   2.484   5.680   2.669
 9654TIP3   OH228925   4.269   4.187   3.352
 9654TIP3    H128926   4.296   4.259   3.295
 9654TIP3    H228927   4.179   4.169   3.327
 9655TIP3   OH228928   2.285   3.222   1.501
 9655TIP3    H128929   2.327   3.219   1.415
 9655TIP3    H228930   2.273   3.315   1.518
 9656TIP3   OH228931   1.612   0.306   3.420
 9656TIP3    H128932   1.660   0.328   3.340
 9656TIP3    H228933   1.580   0.217   3.405
 9657TIP3   OH228934   5.809   0.103   4.381
 9657TIP3    H128935   5.841   0.015   4.401
 9657TIP3    H228936   5.886   0.159   4.392
 9658TIP3   OH228937   6.425   5.486   5.375
 9658TIP3    H128938   6.352   5.507   5.317
 9658TIP3    H228939   6.408   5.537   5.454
 9659TIP3   OH228940   3.574   0.798   2.980
 9659TIP3    H128941   3.495   0.846   2.954
 9659TIP3    H228942   3.646   0.855   2.955
 9660TIP3   OH228943   6.838   1.485   1.279
 9660TIP3    H128944   6.805   1.511   1.365
 9660TIP3    H228945   6.845   1.566   1.230
 9661TIP3   OH228946   5.926   2.362   4.349
 9661TIP3    H128947   5.857   2.311   4.307
 9661TIP3    H228948   5.884   2.401   4.425
 9662TIP3   OH228949   3.711   0.935   0.800
 9662TIP3    H128950   3.800   0.899   0.794
 9662TIP3    H228951   3.673   0.892   0.877
 9663TIP3   OH228952   0.788   0.517   1.316
 9663TIP3    H128953   0.879   0.497   1.336
 9663TIP3    H228954   0.775   0.485   1.227
 9664TIP3   OH228955   2.275   0.283   5.071
 9664TIP3    H128956   2.307   0.366   5.035
 9664TIP3    H228957   2.278   0.222   4.997
 9665TIP3   OH228958   2.604   1.027   0.146
 9665TIP3    H128959   2.675   1.016   0.209
 9665TIP3    H228960   2.554   0.945   0.152
 9666TIP3   OH228961   5.377   4.260   3.381
 9666TIP3    H128962   5.385   4.346   3.423
 9666TIP3    H228963   5.433   4.203   3.433
 9667TIP3   OH228964   5.612   6.357   5.749
 9667TIP3    H128965   5.691   6.407   5.731
 9667TIP3    H228966   5.586   6.322   5.664
 9668TIP3   OH228967   2.160   4.403   1.842
 9668TIP3    H128968   2.248   4.399   1.879
 9668TIP3    H228969   2.167   4.362   1.756
 9669TIP3   OH228970   1.378   5.136   5.469
 9669TIP3    H128971   1.430   5.217   5.471
 9669TIP3    H228972   1.441   5.068   5.445
 9670TIP3   OH228973   0.287   6.081   4.326
 9670TIP3    H128974   0.307   6.133   4.247
 9670TIP3    H228975   0.192   6.078   4.329
 9671TIP3   OH228976   6.036   6.266   3.695
 9671TIP3    H128977   5.958   6.271   3.641
 9671TIP3    H228978   6.038   6.349   3.743
 9672TIP3   OH228979   3.524   2.854   3.753
 9672TIP3    H128980   3.528   2.770   3.708
 9672TIP3    H228981   3.528   2.919   3.682
 9673TIP3   OH228982   5.224   4.954   2.315
 9673TIP3    H128983   5.219   5.035   2.366
 9673TIP3    H228984   5.235   4.983   2.225
 9674TIP3   OH228985   4.137   4.502   0.334
 9674TIP3    H128986   4.065   4.556   0.301
 9674TIP3    H228987   4.106   4.412   0.325
 9675TIP3   OH228988   4.011   1.552   0.990
 9675TIP3    H128989   4.066   1.575   0.915
 9675TIP3    H228990   4.071   1.552   1.064
 9676TIP3   OH228991   1.367   5.056   0.687
 9676TIP3    H128992   1.426   5.101   0.749
 9676TIP3    H228993   1.421   5.040   0.610
 9677TIP3   OH228994   6.767   0.495   0.216
 9677TIP3    H128995   6.698   0.464   0.274
 9677TIP3    H228996   6.720   0.535   0.142
 9678TIP3   OH228997   4.873   1.681   0.443
 9678TIP3    H128998   4.955   1.638   0.468
 9678TIP3    H228999   4.892   1.721   0.358
 9679TIP3   OH229000   5.772   5.164   5.313
 9679TIP3    H129001   5.791   5.088   5.369
 9679TIP3    H229002   5.797   5.239   5.366
 9680TIP3   OH229003   0.453   1.981   3.862
 9680TIP3    H129004   0.487   1.898   3.894
 9680TIP3    H229005   0.363   1.962   3.836
 9681TIP3   OH229006   3.643   2.014   3.355
 9681TIP3    H129007   3.607   1.998   3.268
 9681TIP3    H229008   3.699   2.091   3.344
 9682TIP3   OH229009   5.783   3.588   5.782
 9682TIP3    H129010   5.873   3.607   5.753
 9682TIP3    H229011   5.779   3.492   5.785
 9683TIP3   OH229012   5.368   6.467   0.446
 9683TIP3    H129013   5.280   6.437   0.470
 9683TIP3    H229014   5.427   6.405   0.490
 9684TIP3   OH229015   1.909   4.856   0.911
 9684TIP3    H129016   1.875   4.936   0.953
 9684TIP3    H229017   1.918   4.879   0.819
 9685TIP3   OH229018   4.916   3.528   5.135
 9685TIP3    H129019   4.989   3.502   5.079
 9685TIP3    H229020   4.937   3.618   5.160
 9686TIP3   OH229021   5.619   3.570   0.799
 9686TIP3    H129022   5.576   3.650   0.770
 9686TIP3    H229023   5.649   3.589   0.887
 9687TIP3   OH229024   5.509   1.286   5.523
 9687TIP3    H129025   5.598   1.277   5.487
 9687TIP3    H229026   5.516   1.253   5.612
 9688TIP3   OH229027   2.346   4.258   5.702
 9688TIP3    H129028   2.296   4.275   5.622
 9688TIP3    H229029   2.281   4.263   5.772
 9689TIP3   OH229030   1.899   1.890   0.939
 9689TIP3    H129031   1.985   1.909   0.902
 9689TIP3    H229032   1.837   1.939   0.884
 9690TIP3   OH229033   1.504   6.075   2.018
 9690TIP3    H129034   1.424   6.100   1.972
 9690TIP3    H229035   1.522   5.985   1.989
 9691TIP3   OH229036   6.700   3.245   4.593
 9691TIP3    H129037   6.656   3.325   4.565
 9691TIP3    H229038   6.630   3.193   4.634
 9692TIP3   OH229039   3.248   1.639   2.720
 9692TIP3    H129040   3.245   1.646   2.816
 9692TIP3    H229041   3.168   1.683   2.691
 9693TIP3   OH229042   3.596   2.256   5.486
 9693TIP3    H129043   3.632   2.337   5.522
 9693TIP3    H229044   3.618   2.260   5.393
 9694TIP3   OH229045   4.890   1.611   4.677
 9694TIP3    H129046   4.927   1.680   4.732
 9694TIP3    H229047   4.946   1.535   4.691
 9695TIP3   OH229048   2.404   1.523   5.568
 9695TIP3    H129049   2.329   1.484   5.522
 9695TIP3    H229050   2.446   1.449   5.612
 9696TIP3   OH229051   1.523   0.603   5.727
 9696TIP3    H129052   1.490   0.533   5.672
 9696TIP3    H229053   1.527   0.680   5.670
 9697TIP3   OH229054   1.734   5.214   2.684
 9697TIP3    H129055   1.789   5.192   2.760
 9697TIP3    H229056   1.743   5.309   2.676
 9698TIP3   OH229057   2.569   4.623   5.723
 9698TIP3    H129058   2.526   4.580   5.649
 9698TIP3    H229059   2.639   4.562   5.748
 9699TIP3   OH229060   0.653   2.160   1.849
 9699TIP3    H129061   0.605   2.176   1.768
 9699TIP3    H229062   0.709   2.085   1.828
 9700TIP3   OH229063   1.471   4.803   3.350
 9700TIP3    H129064   1.566   4.790   3.354
 9700TIP3    H229065   1.436   4.744   3.418
 9701TIP3   OH229066   6.921   0.776   4.137
 9701TIP3    H129067   6.908   0.684   4.160
 9701TIP3    H229068   7.006   0.799   4.174
 9702TIP3   OH229069   3.880   3.237   4.420
 9702TIP3    H129070   3.943   3.220   4.350
 9702TIP3    H229071   3.878   3.156   4.470
 9703TIP3   OH229072   5.079   6.681   5.128
 9703TIP3    H129073   5.136   6.757   5.138
 9703TIP3    H229074   5.025   6.682   5.208
 9704TIP3   OH229075   5.664   2.261   5.700
 9704TIP3    H129076   5.611   2.341   5.688
 9704TIP3    H229077   5.698   2.269   5.789
 9705TIP3   OH229078   2.787   2.392   2.728
 9705TIP3    H129079   2.789   2.488   2.731
 9705TIP3    H229080   2.769   2.367   2.819
 9706TIP3   OH229081   4.505   3.121   4.272
 9706TIP3    H129082   4.418   3.146   4.238
 9706TIP3    H229083   4.564   3.189   4.239
 9707TIP3   OH229084   0.591   3.940   0.653
 9707TIP3    H129085   0.663   3.897   0.608
 9707TIP3    H229086   0.516   3.881   0.641
 9708TIP3   OH229087   3.947   5.018   2.165
 9708TIP3    H129088   3.912   4.994   2.250
 9708TIP3    H229089   3.874   5.005   2.104
 9709TIP3   OH229090   4.708   5.267   3.919
 9709TIP3    H129091   4.739   5.237   4.004
 9709TIP3    H229092   4.650   5.198   3.888
 9710TIP3   OH229093   6.922   6.289   4.209
 9710TIP3    H129094   6.957   6.314   4.123
 9710TIP3    H229095   6.827   6.294   4.198
 9711TIP3   OH229096   2.142   3.261   4.117
 9711TIP3    H129097   2.200   3.208   4.062
 9711TIP3    H229098   2.054   3.237   4.091
 9712TIP3   OH229099   6.482   1.246   3.719
 9712TIP3    H129100   6.422   1.234   3.645
 9712TIP3    H229101   6.569   1.238   3.681
 9713TIP3   OH229102   3.851   2.909   4.185
 9713TIP3    H129103   3.911   2.976   4.218
 9713TIP3    H229104   3.827   2.859   4.263
 9714TIP3   OH229105   4.965   4.439   5.171
 9714TIP3    H129106   4.921   4.503   5.115
 9714TIP3    H229107   4.914   4.439   5.252
 9715TIP3   OH229108   2.534   3.082   5.617
 9715TIP3    H129109   2.583   3.005   5.646
 9715TIP3    H229110   2.599   3.152   5.612
 9716TIP3   OH229111   4.479   3.617   4.919
 9716TIP3    H129112   4.389   3.649   4.906
 9716TIP3    H229113   4.491   3.551   4.851
 9717TIP3   OH229114   0.175   1.764   3.026
 9717TIP3    H129115   0.190   1.850   3.066
 9717TIP3    H229116   0.246   1.755   2.962
 9718TIP3   OH229117   1.166   2.992   5.682
 9718TIP3    H129118   1.102   3.042   5.631
 9718TIP3    H229119   1.207   3.057   5.739
 9719TIP3   OH229120   3.051   4.988   0.064
 9719TIP3    H129121   3.091   4.960  -0.018
 9719TIP3    H229122   2.973   5.036   0.038
 9720TIP3   OH229123   4.341   2.403   0.067
 9720TIP3    H129124   4.394   2.483   0.071
 9720TIP3    H229125   4.379   2.345   0.133
 9721TIP3   OH229126   2.815   1.150   3.639
 9721TIP3    H129127   2.753   1.210   3.596
 9721TIP3    H229128   2.810   1.174   3.732
 9722TIP3   OH229129   5.097   1.552   0.484
 9722TIP3    H129130   5.157   1.552   0.409
 9722TIP3    H229131   5.154   1.552   0.561
 9723TIP3   OH229132   5.545   1.351   0.256
 9723TIP3    H129133   5.603   1.275   0.256
 9723TIP3    H229134   5.557   1.390   0.169
 9724TIP3   OH229135   5.819   2.275   2.278
 9724TIP3    H129136   5.740   2.293   2.226
 9724TIP3    H229137   5.832   2.181   2.271
 9725TIP3   OH229138   2.933   2.549   5.119
 9725TIP3    H129139   2.864   2.574   5.181
 9725TIP3    H229140   2.949   2.628   5.068
 9726TIP3   OH229141   4.747   0.708   5.098
 9726TIP3    H129142   4.773   0.784   5.045
 9726TIP3    H229143   4.829   0.678   5.139
 9727TIP3   OH229144   3.481   2.978   4.810
 9727TIP3    H129145   3.448   2.953   4.896
 9727TIP3    H229146   3.403   3.005   4.762
 9728TIP3   OH229147   2.659   2.094   4.456
 9728TIP3    H129148   2.749   2.106   4.485
 9728TIP3    H229149   2.623   2.183   4.455
 9729TIP3   OH229150   0.977   3.693   1.157
 9729TIP3    H129151   0.973   3.600   1.135
 9729TIP3    H229152   1.026   3.697   1.239
 9730TIP3   OH229153   1.959   1.389   3.564
 9730TIP3    H129154   1.953   1.293   3.566
 9730TIP3    H229155   1.922   1.417   3.648
 9731TIP3   OH229156   3.515   4.469   5.783
 9731TIP3    H129157   3.571   4.542   5.808
 9731TIP3    H229158   3.428   4.493   5.816
 9732TIP3   OH229159   6.088   5.478   3.913
 9732TIP3    H129160   5.999   5.442   3.915
 9732TIP3    H229161   6.138   5.422   3.972
 9733TIP3   OH229162   6.176   1.359   0.485
 9733TIP3    H129163   6.120   1.434   0.502
 9733TIP3    H229164   6.265   1.394   0.487
 9734TIP3   OH229165   7.085   5.555   3.829
 9734TIP3    H129166   7.097   5.636   3.878
 9734TIP3    H229167   7.136   5.490   3.877
 9735TIP3   OH229168   3.711   1.684   5.366
 9735TIP3    H129169   3.656   1.729   5.301
 9735TIP3    H229170   3.654   1.674   5.442
 9736TIP3   OH229171   2.393   1.810   1.572
 9736TIP3    H129172   2.327   1.874   1.547
 9736TIP3    H229173   2.360   1.772   1.653
 9737TIP3   OH229174   4.356   0.850   3.887
 9737TIP3    H129175   4.389   0.804   3.809
 9737TIP3    H229176   4.261   0.841   3.881
 9738TIP3   OH229177   2.603   5.320   1.229
 9738TIP3    H129178   2.603   5.386   1.159
 9738TIP3    H229179   2.551   5.360   1.299
 9739TIP3   OH229180   3.737   3.503   5.680
 9739TIP3    H129181   3.751   3.452   5.600
 9739TIP3    H229182   3.692   3.582   5.650
 9740TIP3   OH229183   1.648   5.983   2.561
 9740TIP3    H129184   1.592   6.061   2.554
 9740TIP3    H229185   1.600   5.925   2.621
 9741TIP3   OH229186   0.782   2.587   4.710
 9741TIP3    H129187   0.798   2.646   4.784
 9741TIP3    H229188   0.855   2.526   4.711
 9742TIP3   OH229189   6.278   4.658   5.422
 9742TIP3    H129190   6.241   4.721   5.484
 9742TIP3    H229191   6.362   4.696   5.397
 9743TIP3   OH229192   0.299   0.699   3.786
 9743TIP3    H129193   0.205   0.699   3.805
 9743TIP3    H229194   0.327   0.609   3.803
 9744TIP3   OH229195   3.561   1.017   4.086
 9744TIP3    H129196   3.657   1.007   4.090
 9744TIP3    H229197   3.542   1.024   3.992
 9745TIP3   OH229198   1.660   6.243   5.795
 9745TIP3    H129199   1.647   6.336   5.814
 9745TIP3    H229200   1.682   6.205   5.880
 9746TIP3   OH229201   5.792   5.244   1.133
 9746TIP3    H129202   5.799   5.269   1.225
 9746TIP3    H229203   5.789   5.148   1.134
 9747TIP3   OH229204   7.110   5.451   4.410
 9747TIP3    H129205   7.069   5.404   4.337
 9747TIP3    H229206   7.044   5.450   4.479
 9748TIP3   OH229207   3.432   3.309   1.080
 9748TIP3    H129208   3.515   3.281   1.041
 9748TIP3    H229209   3.390   3.362   1.012
 9749TIP3   OH229210   5.072   1.702   1.962
 9749TIP3    H129211   5.036   1.686   1.874
 9749TIP3    H229212   5.021   1.776   1.995
   7.21059   6.79821   5.88741   0.00000   0.00000  -2.40353   0.00000  -2.40353  -3.39910
