Title
29212
    1ASP      N    1   3.286   3.947   5.176  0.0088 -0.0401  0.4184
    1ASP    HT1    2   3.192   3.906   5.193 -0.4331  1.0795  0.7940
    1ASP    HT2    3   3.281   4.051   5.170 -1.6181 -0.1930 -2.6982
    1ASP    HT3    4   3.344   3.920   5.259  2.6418  2.2950 -0.4805
    1ASP     CA    5   3.348   3.891   5.056 -0.3686 -0.3830  0.5176
    1ASP     HA    6   3.375   3.972   4.990 -0.0522 -2.4445 -2.0251
    1ASP     CB    7   3.469   3.803   5.092 -0.6160 -0.2061 -0.8362
    1ASP    HB1    8   3.506   3.751   5.000  1.3327  1.5135 -1.0770
    1ASP    HB2    9   3.446   3.733   5.175 -1.7386  1.3454  0.2005
    1ASP     CG   10   3.585   3.887   5.141 -0.5081  0.1723 -0.0699
    1ASP    OD1   11   3.687   3.829   5.175 -0.4341  0.3248 -0.6775
    1ASP    OD2   12   3.575   4.013   5.148 -1.1226  0.4744 -0.5727
    1ASP      C   13   3.247   3.809   4.980  0.1603 -0.3679  0.8058
    1ASP      O   14   3.174   3.865   4.901 -0.0004  0.8505 -0.2073
    2GLY      N   15   3.251   3.672   4.987  0.0917  0.1029  0.7843
    2GLY     HN   16   3.319   3.628   5.045  0.9480  1.4135  0.8123
    2GLY     CA   17   3.179   3.572   4.900 -0.6851 -0.0881  0.4048
    2GLY    HA1   18   3.075   3.578   4.928 -0.8703 -1.2758  0.0030
    2GLY    HA2   19   3.221   3.476   4.924  2.0691  1.4844  2.4733
    2GLY      C   20   3.176   3.585   4.747 -0.9238  0.5806  0.0118
    2GLY      O   21   3.268   3.641   4.686  0.0770 -0.4986 -0.0752
    3ASP      N   22   3.075   3.523   4.678  0.0855 -0.0244 -0.0426
    3ASP     HN   23   3.010   3.462   4.723 -1.3416 -0.3534 -2.3957
    3ASP     CA   24   3.061   3.527   4.533  0.0438 -0.4825  0.0737
    3ASP     HA   25   3.149   3.487   4.484  2.1698  0.9092  2.4888
    3ASP     CB   26   2.938   3.441   4.492  0.2511 -0.1876 -0.3663
    3ASP    HB1   27   2.913   3.454   4.385 -1.2165 -1.0931 -0.1604
    3ASP    HB2   28   2.848   3.486   4.539  1.6972  0.4955  1.9065
    3ASP     CG   29   2.939   3.302   4.543 -0.0431 -0.3812  0.7632
    3ASP    OD1   30   2.826   3.237   4.541 -0.0902 -0.1598 -0.3515
    3ASP    OD2   31   3.047   3.249   4.589  0.1255 -0.1823 -0.0725
    3ASP      C   32   3.036   3.668   4.471  0.0117 -0.1324 -0.0778
    3ASP      O   33   2.970   3.755   4.530 -0.1391  0.4846  0.2278
    4GLY      N   34   3.097   3.697   4.354  0.2881  0.1442 -0.1051
    4GLY     HN   35   3.154   3.636   4.299 -2.3105 -0.2781 -2.5485
    4GLY     CA   36   3.083   3.823   4.279 -0.0999 -0.2456  0.6312
    4GLY    HA1   37   3.156   3.808   4.201  1.7273  1.0076  2.0138
    4GLY    HA2   38   3.114   3.905   4.342  1.0703 -0.8981  0.9312
    4GLY      C   39   2.938   3.848   4.228  0.2360  0.1320 -0.4352
    4GLY      O   40   2.839   3.776   4.249  0.2669  0.4825 -0.0459
    5PRO      N   41   2.920   3.957   4.150 -0.1831 -0.0337 -0.2705
    5PRO     CD   42   3.012   4.079   4.143  0.3002 -0.0756 -0.7512
    5PRO    HD1   43   3.096   4.062   4.072 -0.5081 -0.5854 -1.6043
    5PRO    HD2   44   3.056   4.107   4.241 -0.5390  1.5326 -0.8035
    5PRO     CA   45   2.802   3.976   4.079  0.5635  0.1337  0.4189
    5PRO     HA   46   2.724   3.988   4.153 -0.4323  1.9059 -0.8594
    5PRO     CB   47   2.826   4.108   3.990  0.8380  0.6805  0.0723
    5PRO    HB1   48   2.734   4.165   3.967  1.2462  1.8040  1.0959
    5PRO    HB2   49   2.875   4.072   3.897 -0.5330  0.3502 -0.5501
    5PRO     CG   50   2.927   4.189   4.071  0.0865  0.2446  0.2428
    5PRO    HG1   51   2.987   4.254   4.004 -0.5929  1.4825  0.8080
    5PRO    HG2   52   2.873   4.255   4.142 -1.4637  1.1189 -1.6745
    5PRO      C   53   2.744   3.864   3.994 -0.6662  0.0728  0.4690
    5PRO      O   54   2.816   3.800   3.914  0.2227  0.3537  0.1480
    6GLY      N   55   2.616   3.828   4.010  0.8404  1.2795  0.3294
    6GLY     HN   56   2.565   3.871   4.084 -1.2823 -2.4038  1.2437
    6GLY     CA   57   2.544   3.756   3.907 -0.0763  0.4397 -0.0205
    6GLY    HA1   58   2.445   3.733   3.943 -1.0136  1.5162 -1.7858
    6GLY    HA2   59   2.601   3.667   3.885 -0.7912 -0.2144  0.7233
    6GLY      C   60   2.524   3.834   3.772 -0.2831  0.3664  0.2449
    6GLY      O   61   2.597   3.931   3.752 -0.4010  0.6409  0.4718
    7ASP      N   62   2.435   3.786   3.684 -0.3146 -0.1989  0.1867
    7ASP     HN   63   2.381   3.704   3.703 -1.1342  0.5712  1.2168
    7ASP     CA   64   2.421   3.831   3.540 -0.2587  0.5063 -0.4772
    7ASP     HA   65   2.519   3.815   3.497  0.2190  1.4078  0.2263
    7ASP     CB   66   2.316   3.753   3.449 -0.3857  0.3134  0.0829
    7ASP    HB1   67   2.325   3.777   3.341  2.7049 -0.4661  0.0658
    7ASP    HB2   68   2.218   3.773   3.498  0.5816  0.2825  2.1431
    7ASP     CG   69   2.340   3.602   3.458 -0.0774 -0.6579 -0.3533
    7ASP    OD1   70   2.453   3.552   3.440  0.3829 -0.2280  0.2110
    7ASP    OD2   71   2.232   3.535   3.477  0.0217 -0.6479  0.5516
    7ASP      C   72   2.377   3.982   3.533 -0.0285  0.3634  0.4732
    7ASP      O   73   2.312   4.033   3.627 -0.0214  0.5398  0.6378
    8PRO      N   74   2.411   4.059   3.427  0.3521 -1.0209 -0.4596
    8PRO     CD   75   2.515   4.030   3.331 -0.2827 -0.1663  0.4880
    8PRO    HD1   76   2.493   3.941   3.268 -3.5012  0.4205  0.6019
    8PRO    HD2   77   2.615   4.016   3.378  0.6861  0.3986 -1.3335
    8PRO     CA   78   2.346   4.194   3.402 -0.3917 -0.8425  0.1269
    8PRO     HA   79   2.396   4.276   3.452  0.8591 -0.9725 -0.8574
    8PRO     CB   80   2.374   4.215   3.256 -0.2090 -0.2213 -0.0339
    8PRO    HB1   81   2.383   4.323   3.229  1.7112 -0.8170 -2.0943
    8PRO    HB2   82   2.303   4.162   3.189  2.4567 -0.6991 -2.7173
    8PRO     CG   83   2.520   4.159   3.241 -0.4771  0.7172 -0.1064
    8PRO    HG1   84   2.539   4.133   3.135 -1.4655 -0.8979  0.0776
    8PRO    HG2   85   2.587   4.240   3.279 -0.8032  1.0224 -0.1745
    8PRO      C   86   2.204   4.211   3.452  0.1864  0.3983 -0.3675
    8PRO      O   87   2.122   4.134   3.405  0.0645 -0.0697  0.1634
    9GLY      N   88   2.180   4.304   3.547 -0.0979  0.1761 -0.3808
    9GLY     HN   89   2.254   4.357   3.588 -0.9048  0.5483  0.6367
    9GLY     CA   90   2.045   4.330   3.604 -0.0374 -0.4794 -0.7263
    9GLY    HA1   91   2.004   4.412   3.547 -1.4321 -0.5823  0.0741
    9GLY    HA2   92   2.067   4.370   3.702 -1.0409  1.1581 -1.1253
    9GLY      C   93   1.943   4.217   3.634  0.8491 -0.7777 -0.0010
    9GLY      O   94   1.978   4.106   3.670  0.8707  0.1068 -0.1547
   10ASP      N   95   1.814   4.246   3.610  0.3770  0.2036 -0.2069
   10ASP     HN   96   1.795   4.338   3.576 -1.3954  0.9101  2.3666
   10ASP     CA   97   1.692   4.170   3.644  0.5323  0.1039  0.8059
   10ASP     HA   98   1.723   4.085   3.703  0.2448 -2.3056 -2.2299
   10ASP     CB   99   1.580   4.255   3.717 -0.4244 -0.0228 -0.1781
   10ASP    HB1  100   1.487   4.196   3.708  1.7584 -3.7878 -0.2990
   10ASP    HB2  101   1.581   4.354   3.668 -1.5472 -0.2050 -0.5910
   10ASP     CG  102   1.622   4.277   3.856  0.2401  0.0539 -0.1192
   10ASP    OD1  103   1.733   4.283   3.907 -0.5325  0.0402  0.3138
   10ASP    OD2  104   1.537   4.316   3.937  1.1660  0.4229 -0.2331
   10ASP      C  105   1.646   4.111   3.508 -0.2560 -0.1651  0.1746
   10ASP      O  106   1.538   4.057   3.500 -0.4326  0.3026  0.0881
   11GLY      N  107   1.729   4.114   3.402 -0.4993 -0.2297  0.7076
   11GLY     HN  108   1.818   4.160   3.406  0.2600 -0.7853 -3.9378
   11GLY     CA  109   1.715   4.056   3.275  0.4771  0.1981 -0.4653
   11GLY    HA1  110   1.798   4.090   3.215  1.4415  0.8829  1.1916
   11GLY    HA2  111   1.615   4.077   3.242 -0.6675 -0.2276  2.4903
   11GLY      C  112   1.729   3.904   3.281  0.3191 -0.3571 -0.2838
   11GLY    OT1  113   1.839   3.858   3.317 -0.2148 -0.1565 -0.1724
   11GLY    OT2  114   1.646   3.826   3.233 -0.3203 -0.4425 -0.6360
   12LIT    LIT  115   3.841   3.854   3.805 -0.3921 -0.5319 -0.4575
   13LIT    LIT  116   4.583   6.559   0.477  0.2858 -0.1245 -0.1167
   14LIT    LIT  117   0.421   3.294   3.437 -0.6294  0.4340  0.9834
   15LIT    LIT  118   5.282   3.080   4.381  0.1185  0.3798 -0.2465
   16LIT    LIT  119   1.828   3.654   3.307 -0.0687 -0.7347  0.0222
   17LIT    LIT  120   2.103   1.609   0.187 -0.4568  0.0129 -0.9808
   18LIT    LIT  121   0.863   5.289   5.534  0.1126 -0.3046 -0.0966
   19LIT    LIT  122   6.344   4.716   0.702  0.1694  0.4131 -0.4541
   20LIT    LIT  123   4.583   0.264   0.611  0.6554  0.6321 -0.7069
   21LIT    LIT  124   1.537   0.803   1.497 -0.6725 -0.1906 -0.3759
   22LIT    LIT  125   1.901   0.848   1.138 -0.1185 -0.5832 -1.1030
   23LIT    LIT  126   6.377   2.136   3.260  0.7918 -0.9597 -1.1125
   24LIT    LIT  127   2.184   5.206   2.254  0.8821 -0.4801  0.4222
   25LIT    LIT  128   3.148   4.010   3.645  0.6760  0.1235  0.3368
   26LIT    LIT  129   1.626   4.359   4.103  0.8248 -0.3294  0.1641
   27LIT    LIT  130   3.029   6.284   2.563 -0.6400 -0.5778 -0.8486
   28LIT    LIT  131   4.563   1.409   0.377 -0.6825 -0.3389  0.2251
   29LIT    LIT  132   1.305   5.816   5.082 -0.0422  0.4919 -0.7241
   30LIT    LIT  133   5.530   1.876   4.389 -0.1497  0.3314 -1.0886
   31LIT    LIT  134   2.557   2.771   2.553 -0.0188 -0.7664 -0.9567
   32LIT    LIT  135   0.054   4.056   3.589  0.5219 -0.0723  0.8957
   33LIT    LIT  136   3.119   3.880   5.645 -0.4603 -0.3191  0.4224
   34LIT    LIT  137   3.833   5.041   4.821  0.4245 -0.8420 -0.0746
   35LIT    LIT  138   1.986   0.707   3.394  0.1674 -0.0521  0.2751
   36LIT    LIT  139   1.463   5.450   4.458  0.2661  0.3089 -0.9333
   37LIT    LIT  140   0.321   3.285   1.105  0.2790  0.0833 -0.2068
   38LIT    LIT  141   0.396   4.460   1.681  0.1140  0.4506  0.0335
   39LIT    LIT  142   3.840   3.871   5.079 -0.2855 -0.6550  0.1132
   40LIT    LIT  143   1.252   0.179   2.767  0.1251 -0.0686 -0.5236
   41LIT    LIT  144   3.012   4.188   0.804  0.0831  0.8780  0.3921
   42LIT    LIT  145   2.653   3.259   4.578 -0.6862  0.8260 -0.2423
   43CLA    CLA  146   2.323   6.605   4.757  0.3183 -0.4526 -0.0974
   44CLA    CLA  147   3.134   0.316   3.103 -0.0328 -0.0224 -0.3568
   45CLA    CLA  148   1.498   6.652   1.569 -0.2926  0.1375  0.2044
   46CLA    CLA  149   1.878   2.829   4.936 -0.2280 -0.3113 -0.6886
   47CLA    CLA  150   4.668   1.564   0.231 -0.1224  0.2106  0.2050
   48CLA    CLA  151   2.717   3.067   0.620 -0.4372  0.4336 -0.1859
   49CLA    CLA  152   5.161   1.578   4.279  0.1321 -0.0640 -0.0140
   50CLA    CLA  153   0.332   3.376   4.161 -0.0839  0.1245  0.3557
   51CLA    CLA  154   1.404   1.465   1.007 -0.0963  0.1066 -0.1290
   52CLA    CLA  155   3.972   6.045   2.722 -0.0714 -0.2638  0.3640
   53CLA    CLA  156   1.575   5.567   4.291 -0.5559 -0.4543  0.0069
   54CLA    CLA  157   2.158   2.622   3.204 -0.2228  0.2426 -0.0249
   55CLA    CLA  158   4.138   4.786   4.562 -0.2890  0.0888  0.0631
   56CLA    CLA  159   1.332   0.396   3.677  0.4917  0.2087  0.4057
   57CLA    CLA  160   3.686   3.094   3.381  0.1322  0.0145  0.2229
   58CLA    CLA  161   1.694   2.664   5.388  0.1644 -0.2035 -0.0118
   59CLA    CLA  162   1.946   1.623   0.358 -0.0257  0.1147 -0.2466
   60CLA    CLA  163   4.986   0.247   0.387 -0.1012  0.2286 -0.0706
   61CLA    CLA  164   2.435   0.844   2.190  0.1458 -0.2205 -0.1491
   62CLA    CLA  165   6.444   3.121   4.055  0.1066 -0.1531 -0.2836
   63CLA    CLA  166   2.998   3.820   5.214  0.1702  0.0645  0.4887
   64CLA    CLA  167   6.694   4.752   3.280  0.2366  0.1456  0.1666
   65CLA    CLA  168   6.403   6.425   5.082 -0.0312  0.0251  0.3091
   66CLA    CLA  169   6.744   3.452   0.620 -0.5014  0.2300 -0.1594
   67CLA    CLA  170   5.306   1.671   5.256  0.0578 -0.3734  0.4922
   68CLA    CLA  171   4.428   6.696   0.337 -0.0727  0.1429 -0.1069
   69CLA    CLA  172   6.779   4.197   1.371  0.4023 -0.0882  0.0002
   70TIP3   OH2  173   0.908   5.044   1.776 -0.2860  0.6335 -0.1711
   70TIP3    H1  174   0.940   4.959   1.806 -1.7970  0.0082 -0.2307
   70TIP3    H2  175   0.945   5.053   1.688  0.3761  0.3315  0.0681
   71TIP3   OH2  176   1.256   1.853   1.181 -0.2829  0.1692  0.0682
   71TIP3    H1  177   1.271   1.916   1.111  0.6287 -0.6302 -0.4826
   71TIP3    H2  178   1.165   1.866   1.206 -0.1464  1.6218 -0.0993
   72TIP3   OH2  179   4.426   0.957   2.094  0.0908  0.0362  0.3311
   72TIP3    H1  180   4.481   1.034   2.105  1.9981 -0.9890 -1.4207
   72TIP3    H2  181   4.483   0.892   2.053 -1.7479 -1.9600  0.7530
   73TIP3   OH2  182   6.004   4.765   3.815 -0.3516  0.2325  0.1006
   73TIP3    H1  183   6.080   4.725   3.773  0.1748  0.4607  0.8053
   73TIP3    H2  184   6.041   4.818   3.886 -0.9149  2.6989 -1.3093
   74TIP3   OH2  185   2.710   5.998   2.355  0.1247 -0.2767  0.2653
   74TIP3    H1  186   2.759   5.919   2.334  0.9646  0.2525  0.2111
   74TIP3    H2  187   2.655   6.014   2.278  0.5310 -0.3709 -0.0441
   75TIP3   OH2  188   3.050   5.156   5.901 -0.1189 -0.4152 -0.1629
   75TIP3    H1  189   3.116   5.091   5.877 -0.1887 -0.5687  0.0588
   75TIP3    H2  190   2.968   5.108   5.902 -0.0204 -0.5849  1.0935
   76TIP3   OH2  191   0.691   2.148   4.263  0.2552  0.1321 -0.6048
   76TIP3    H1  192   0.713   2.239   4.241  0.2828  0.1412 -0.5400
   76TIP3    H2  193   0.624   2.156   4.330  1.4664  0.1197  0.6610
   77TIP3   OH2  194   2.701   0.237   5.097  0.2312 -0.4913 -0.4879
   77TIP3    H1  195   2.658   0.237   5.182  0.1773 -1.8938 -0.4918
   77TIP3    H2  196   2.650   0.176   5.044  0.3516  0.2468 -1.4905
   78TIP3   OH2  197   4.993   0.767   1.429  0.4071 -0.2445  0.0015
   78TIP3    H1  198   5.070   0.786   1.483  1.0775 -0.6453 -0.7908
   78TIP3    H2  199   5.029   0.729   1.349 -0.6920 -1.6561  0.1436
   79TIP3   OH2  200   6.040   0.659   0.059  1.1838  0.0043 -0.5530
   79TIP3    H1  201   6.131   0.665   0.027  0.9108 -2.0542 -1.9281
   79TIP3    H2  202   6.041   0.705   0.142  3.4805  0.1518 -0.5950
   80TIP3   OH2  203   1.116   4.663   0.361 -0.2039 -0.0047 -0.1411
   80TIP3    H1  204   1.086   4.589   0.307 -1.3881 -0.0470  0.5525
   80TIP3    H2  205   1.169   4.622   0.429 -2.1256 -0.4415  1.1733
   81TIP3   OH2  206   2.889   3.371   1.039  0.1348 -0.4929  0.0237
   81TIP3    H1  207   2.978   3.337   1.043 -0.3999 -1.8853  0.7652
   81TIP3    H2  208   2.851   3.350   1.125 -0.7647  0.5173 -0.0966
   82TIP3   OH2  209   5.934   0.367   5.772 -0.2584  0.2232  0.4302
   82TIP3    H1  210   5.892   0.447   5.741 -1.0274  0.9230  3.0095
   82TIP3    H2  211   6.020   0.396   5.803  0.4736 -0.4464 -0.8750
   83TIP3   OH2  212   2.291   0.675   2.763 -0.0916 -0.0806 -0.3774
   83TIP3    H1  213   2.286   0.692   2.669 -1.7352 -1.2405 -0.5615
   83TIP3    H2  214   2.262   0.757   2.804 -0.8440 -0.0518 -0.9476
   84TIP3   OH2  215   5.389   2.464   3.164 -0.1317 -0.1803 -0.2338
   84TIP3    H1  216   5.354   2.375   3.170  0.5534 -0.4078  0.3888
   84TIP3    H2  217   5.428   2.468   3.077 -0.5884 -0.3215 -0.4522
   85TIP3   OH2  218   2.010   2.738   2.054 -0.2817  0.6009  0.1203
   85TIP3    H1  219   1.982   2.699   2.137  1.3389 -0.8092  0.0608
   85TIP3    H2  220   1.986   2.831   2.062  0.7761  0.7364  2.6216
   86TIP3   OH2  221   2.426   4.913   0.650  0.1248 -0.4634  0.0110
   86TIP3    H1  222   2.366   4.880   0.583 -0.4648 -2.1357  1.2865
   86TIP3    H2  223   2.512   4.912   0.607 -0.6183  1.7417 -1.7682
   87TIP3   OH2  224   6.858   1.412   3.750  0.5902 -0.0509 -0.0659
   87TIP3    H1  225   6.904   1.366   3.821  0.5234 -0.7057 -0.4379
   87TIP3    H2  226   6.827   1.493   3.790  2.8585  0.8639 -0.0506
   88TIP3   OH2  227   2.600   4.219   0.232 -0.4467 -0.0830  0.1046
   88TIP3    H1  228   2.506   4.207   0.247 -0.4045  0.3296  0.7102
   88TIP3    H2  229   2.634   4.130   0.219 -1.2068 -0.1327 -1.9233
   89TIP3   OH2  230   1.962   0.739   3.203 -0.2151  0.2416  0.2213
   89TIP3    H1  231   1.935   0.812   3.148  0.4130  0.6107  0.3982
   89TIP3    H2  232   1.956   0.663   3.145  1.1933  0.7219 -0.6241
   90TIP3   OH2  233   4.190   2.606   4.684  0.4364  0.1206  0.3386
   90TIP3    H1  234   4.213   2.536   4.745 -0.6841  0.1290  0.7998
   90TIP3    H2  235   4.235   2.683   4.718  0.5031 -0.0635  0.6686
   91TIP3   OH2  236   6.597   2.496   0.617 -0.2509  0.5643 -0.1288
   91TIP3    H1  237   6.634   2.494   0.529 -0.7233  0.0516 -0.3240
   91TIP3    H2  238   6.510   2.458   0.607 -0.1099  0.0032  0.6436
   92TIP3   OH2  239   0.295   0.071   3.377  0.2209  0.3829  0.0617
   92TIP3    H1  240   0.338   0.104   3.456 -1.8355 -0.2599  1.5355
   92TIP3    H2  241   0.253   0.147   3.338 -0.8446  0.2963  1.0076
   93TIP3   OH2  242   3.048   6.408   0.909  0.1425 -0.4816  0.5490
   93TIP3    H1  243   3.116   6.356   0.865  0.6007 -0.3419  1.0720
   93TIP3    H2  244   3.077   6.498   0.898 -2.6084  0.1317 -3.7571
   94TIP3   OH2  245   4.956   1.662   4.676  0.2351 -0.2043  0.5522
   94TIP3    H1  246   5.006   1.724   4.728  0.3505 -0.5171  0.8100
   94TIP3    H2  247   4.869   1.661   4.716  0.8262 -1.8204  1.8902
   95TIP3   OH2  248   5.246   2.852   5.812  0.2417 -0.1992 -0.0767
   95TIP3    H1  249   5.291   2.832   5.730 -1.1910  2.6118 -1.6554
   95TIP3    H2  250   5.159   2.880   5.786 -0.6788 -0.3902  2.5281
   96TIP3   OH2  251   0.056   1.421   4.376  0.3407 -0.0758 -0.1749
   96TIP3    H1  252   0.087   1.369   4.450  1.2493  1.8609  0.8912
   96TIP3    H2  253   0.124   1.487   4.363 -1.7776  2.3179  0.1094
   97TIP3   OH2  254   0.216   1.621   3.080 -0.0897 -0.2485 -0.0092
   97TIP3    H1  255   0.172   1.668   3.151  2.2881 -0.2574  1.5409
   97TIP3    H2  256   0.265   1.689   3.034  1.5130 -0.8108  0.8151
   98TIP3   OH2  257   0.950   6.144   4.664 -0.0382 -0.7287  0.0243
   98TIP3    H1  258   0.899   6.224   4.651 -0.6771 -1.0665  0.4129
   98TIP3    H2  259   1.019   6.149   4.598 -0.3380 -0.0719 -0.2487
   99TIP3   OH2  260   1.246   0.069   5.223 -0.0486  0.4241  0.0575
   99TIP3    H1  261   1.176   0.027   5.174  0.3335 -1.6090  1.1307
   99TIP3    H2  262   1.324   0.017   5.202  0.6760  1.2615  0.6198
  100TIP3   OH2  263   0.679   1.570   2.048  0.2466 -0.0504  0.7008
  100TIP3    H1  264   0.719   1.533   2.126  1.8765  1.0908  0.4442
  100TIP3    H2  265   0.725   1.652   2.033 -1.5127  0.8262 -0.2262
  101TIP3   OH2  266   4.375   6.056   5.228  1.0334 -0.0737  0.1558
  101TIP3    H1  267   4.300   6.060   5.169  1.9184 -1.9420 -1.1868
  101TIP3    H2  268   4.343   6.094   5.310 -0.8640  0.6669 -0.8599
  102TIP3   OH2  269   4.899   3.782   0.315 -0.2094  0.5173  0.6707
  102TIP3    H1  270   4.978   3.820   0.276 -0.8170 -0.3642 -1.5686
  102TIP3    H2  271   4.854   3.856   0.355 -0.1547  1.7497 -1.4309
  103TIP3   OH2  272   6.871   1.609   0.154  0.5360  0.8513  0.1296
  103TIP3    H1  273   6.831   1.597   0.240  0.4266  0.4454  0.0289
  103TIP3    H2  274   6.797   1.620   0.095  0.5645  0.1938 -0.0433
  104TIP3   OH2  275   3.104   3.982   3.030  0.5211  0.3175  0.2183
  104TIP3    H1  276   3.084   4.059   3.083 -1.4280  1.0059 -1.3592
  104TIP3    H2  277   3.088   3.907   3.087 -0.0307  1.0402  1.0255
  105TIP3   OH2  278   2.382   4.819   1.348 -0.7957 -0.4136  0.4158
  105TIP3    H1  279   2.377   4.871   1.267  1.9596 -0.6642 -0.0125
  105TIP3    H2  280   2.390   4.729   1.318 -1.2400 -0.6561  1.0181
  106TIP3   OH2  281   4.432   0.818   3.806  0.1388 -0.3838 -0.0130
  106TIP3    H1  282   4.365   0.886   3.794 -0.0692 -0.7432 -1.0285
  106TIP3    H2  283   4.397   0.742   3.760  1.6026 -0.3222 -1.3171
  107TIP3   OH2  284   3.821   1.594   0.959 -0.3812 -0.7450  0.2140
  107TIP3    H1  285   3.810   1.644   0.878 -0.9643 -2.8017 -1.0514
  107TIP3    H2  286   3.913   1.567   0.958  0.0196  0.4792  1.0604
  108TIP3   OH2  287   0.938   1.116   1.532 -0.3820 -0.2556  0.5185
  108TIP3    H1  288   0.908   1.026   1.543  0.4509 -0.7175 -0.7171
  108TIP3    H2  289   1.007   1.110   1.466 -1.0646  1.4338 -0.4121
  109TIP3   OH2  290   6.056   5.616   3.566 -0.4396  0.1176 -0.4906
  109TIP3    H1  291   6.082   5.706   3.586 -2.8930  0.9612 -0.6992
  109TIP3    H2  292   6.113   5.562   3.620  0.9626  1.7948 -0.2055
  110TIP3   OH2  293   5.526   4.693   5.200 -0.0936 -0.9065  0.3042
  110TIP3    H1  294   5.605   4.736   5.232 -0.3387  1.5890 -2.1165
  110TIP3    H2  295   5.459   4.716   5.265  0.3668  0.2027  0.4074
  111TIP3   OH2  296   0.092   4.405   1.960  0.4642 -0.2645  0.6652
  111TIP3    H1  297   0.108   4.332   2.019  0.1212 -0.5106  0.4500
  111TIP3    H2  298   0.003   4.393   1.928  0.1058  0.6849  1.2473
  112TIP3   OH2  299   6.142   6.077   5.161 -0.2591 -0.0710 -0.1135
  112TIP3    H1  300   6.146   6.132   5.239 -0.9794  0.2368 -0.2798
  112TIP3    H2  301   6.048   6.064   5.145 -0.1591  0.4450 -1.3035
  113TIP3   OH2  302   3.283   4.056   1.403  0.8699  0.0275  0.0568
  113TIP3    H1  303   3.283   4.020   1.314 -1.1264  0.3930 -0.1425
  113TIP3    H2  304   3.239   3.989   1.456  2.0917 -0.2117  0.8140
  114TIP3   OH2  305   1.505   5.038   5.610 -0.1254 -0.1219  0.0579
  114TIP3    H1  306   1.520   4.950   5.642  1.3973 -1.3041 -3.4739
  114TIP3    H2  307   1.416   5.035   5.574 -0.8873  0.4979  1.7587
  115TIP3   OH2  308   0.196   0.231   5.739 -0.1495  0.0388 -0.1842
  115TIP3    H1  309   0.277   0.276   5.713  1.4034 -2.7628 -0.6175
  115TIP3    H2  310   0.201   0.224   5.834  0.3170 -0.4157 -0.2370
  116TIP3   OH2  311   0.966   1.417   2.684 -0.1495  0.4654 -0.1472
  116TIP3    H1  312   0.887   1.469   2.669  0.8309  1.7607 -0.9968
  116TIP3    H2  313   1.033   1.459   2.630  0.9854 -0.9566  0.1056
  117TIP3   OH2  314   0.393   5.641   0.808  0.2819  0.2216 -0.0826
  117TIP3    H1  315   0.359   5.722   0.846 -0.7730 -1.2951  2.4528
  117TIP3    H2  316   0.352   5.636   0.722 -2.4851  0.6680  1.1246
  118TIP3   OH2  317   0.334   5.208   2.345  0.4711  0.2355  0.0201
  118TIP3    H1  318   0.295   5.196   2.431  1.3185  1.1916  0.5616
  118TIP3    H2  319   0.402   5.140   2.339  0.7226  0.4628  0.2979
  119TIP3   OH2  320   1.670   3.638   2.042 -0.0710  0.6000 -0.9197
  119TIP3    H1  321   1.613   3.683   1.980 -1.5751  1.6470  1.1150
  119TIP3    H2  322   1.683   3.701   2.113 -0.0330 -1.2102  0.7616
  120TIP3   OH2  323   6.554   2.753   1.607 -0.5141 -0.5860  0.0821
  120TIP3    H1  324   6.550   2.698   1.529  0.5454  0.6556 -0.9019
  120TIP3    H2  325   6.519   2.837   1.578 -0.4583 -0.2102  1.0599
  121TIP3   OH2  326   0.112   1.061   0.437  0.1485 -0.5284  0.0397
  121TIP3    H1  327   0.161   1.002   0.381  0.6427 -0.0780 -0.0052
  121TIP3    H2  328   0.176   1.126   0.466  0.1567 -1.2992  1.9128
  122TIP3   OH2  329   5.098   6.213   2.719 -0.0189  0.0286  0.6713
  122TIP3    H1  330   5.184   6.227   2.760  0.6856 -2.0870  0.0630
  122TIP3    H2  331   5.035   6.226   2.790  0.9846 -0.6529  1.7367
  123TIP3   OH2  332   5.148   2.377   4.392 -0.3094  0.2948  0.4794
  123TIP3    H1  333   5.208   2.441   4.430  1.1851 -1.6162  1.5333
  123TIP3    H2  334   5.076   2.371   4.456 -0.0477  0.3149  0.7783
  124TIP3   OH2  335   3.801   0.167   0.994  0.0329 -0.9193 -0.7710
  124TIP3    H1  336   3.827   0.083   0.956  1.1951 -1.4380  0.9996
  124TIP3    H2  337   3.867   0.183   1.062 -1.6813  0.1063  0.7435
  125TIP3   OH2  338   2.654   4.486   0.158  0.2843  0.5436 -0.4611
  125TIP3    H1  339   2.627   4.536   0.236  0.5330 -0.0166 -0.0058
  125TIP3    H2  340   2.637   4.395   0.182  0.1858  0.3840 -1.1417
  126TIP3   OH2  341   2.611   1.725   1.670  0.4249 -0.0992 -0.3256
  126TIP3    H1  342   2.602   1.682   1.585  0.1628  0.3366 -0.5207
  126TIP3    H2  343   2.702   1.754   1.674 -0.0782  1.8236 -1.4097
  127TIP3   OH2  344   6.367   5.621   0.410  0.0855  0.1462 -0.1529
  127TIP3    H1  345   6.370   5.612   0.315 -0.7937 -2.2254 -0.0229
  127TIP3    H2  346   6.450   5.584   0.441 -0.5126 -1.0972  0.0550
  128TIP3   OH2  347   6.498   6.076   1.067  0.3245  0.5832 -0.1834
  128TIP3    H1  348   6.465   6.001   1.018 -0.2701  0.1989  0.7754
  128TIP3    H2  349   6.515   6.041   1.155 -0.7763  1.7474  0.5285
  129TIP3   OH2  350   5.474   4.470   3.415 -0.5377  0.2672  0.9122
  129TIP3    H1  351   5.542   4.528   3.448 -0.2579 -0.2615  1.2823
  129TIP3    H2  352   5.394   4.499   3.458 -0.7083  1.4000 -0.1265
  130TIP3   OH2  353   1.802   3.534   4.009 -0.1397  0.0557 -0.1117
  130TIP3    H1  354   1.746   3.580   3.946 -0.4291 -0.1584 -0.0098
  130TIP3    H2  355   1.882   3.514   3.960 -0.6155 -0.6801 -0.6084
  131TIP3   OH2  356   3.825   2.036   1.424  0.0227 -0.4126  0.3218
  131TIP3    H1  357   3.896   2.071   1.369 -2.2444  2.4798 -1.0518
  131TIP3    H2  358   3.799   2.110   1.478 -2.2704 -1.2129  0.4040
  132TIP3   OH2  359   7.178   0.524   0.644 -0.2903  0.3001  0.0641
  132TIP3    H1  360   7.109   0.492   0.586 -0.4667 -0.1007  0.4908
  132TIP3    H2  361   7.180   0.619   0.629  0.8899  0.0195 -1.9240
  133TIP3   OH2  362   5.217   5.270   1.750 -0.0021  0.0616 -0.0876
  133TIP3    H1  363   5.277   5.227   1.811 -0.6824 -1.2573 -0.3069
  133TIP3    H2  364   5.151   5.203   1.731 -0.0610  0.5956 -1.9130
  134TIP3   OH2  365   5.376   0.886   5.055 -0.4124  0.1247  0.1161
  134TIP3    H1  366   5.443   0.953   5.065 -1.0933  1.6406 -3.5488
  134TIP3    H2  367   5.303   0.917   5.108 -0.6349  2.2951 -1.3431
  135TIP3   OH2  368   6.997   3.366   2.854 -0.3958  0.2972 -0.0133
  135TIP3    H1  369   6.997   3.390   2.761  1.2741 -0.4020 -0.2245
  135TIP3    H2  370   6.994   3.450   2.900 -0.1945  0.6906 -0.7009
  136TIP3   OH2  371   7.115   2.711   3.650 -0.1578 -0.2032 -0.0312
  136TIP3    H1  372   7.024   2.690   3.673 -0.9966  1.3230 -1.6555
  136TIP3    H2  373   7.132   2.794   3.694 -0.0821  0.2743 -0.9519
  137TIP3   OH2  374   6.254   3.406   2.563  0.8323  0.3986  0.2928
  137TIP3    H1  375   6.284   3.316   2.549  1.0689  0.4960  0.1626
  137TIP3    H2  376   6.187   3.419   2.496  2.0590  0.9071 -0.9003
  138TIP3   OH2  377   0.384   2.364   5.056 -0.2558 -0.1081 -0.2128
  138TIP3    H1  378   0.366   2.431   4.990  0.0292 -0.8091 -1.0280
  138TIP3    H2  379   0.351   2.283   5.017  1.6380 -0.8729 -0.3402
  139TIP3   OH2  380   0.992   3.319   1.840 -0.1925 -0.0590  0.3679
  139TIP3    H1  381   1.056   3.377   1.798 -0.5924  1.0203  1.1854
  139TIP3    H2  382   0.935   3.291   1.768  0.8319 -0.5574 -0.2684
  140TIP3   OH2  383   4.314   5.996   1.680 -0.2613 -0.2086  0.2672
  140TIP3    H1  384   4.355   6.065   1.628 -2.1943 -0.1268 -1.2517
  140TIP3    H2  385   4.346   6.011   1.769 -1.6817  3.5869  0.3276
  141TIP3   OH2  386   2.117   2.519   4.398  0.2286 -0.5522  0.5013
  141TIP3    H1  387   2.114   2.429   4.366  0.6888  0.2658 -1.9891
  141TIP3    H2  388   2.209   2.545   4.389 -0.0591  0.4587  0.3676
  142TIP3   OH2  389   3.308   4.072   3.233  0.4481  0.5718  0.5844
  142TIP3    H1  390   3.234   4.132   3.238  0.1120  0.2465 -0.3359
  142TIP3    H2  391   3.385   4.129   3.236  0.1443  0.9951  0.4583
  143TIP3   OH2  392   6.778   3.392   0.285 -0.4518  0.4383 -0.2083
  143TIP3    H1  393   6.847   3.457   0.268 -1.2552  1.4112  0.1233
  143TIP3    H2  394   6.769   3.393   0.380  1.8956 -2.7151  0.1986
  144TIP3   OH2  395   3.174   6.318   1.844 -0.2610  0.2231  0.1105
  144TIP3    H1  396   3.251   6.261   1.839 -0.8591 -0.6032  0.1133
  144TIP3    H2  397   3.183   6.378   1.771  0.4800  0.2526  0.2197
  145TIP3   OH2  398   2.980   2.300   0.533 -0.5317  0.3544  0.4455
  145TIP3    H1  399   2.962   2.223   0.480  1.6095  0.8512 -1.1325
  145TIP3    H2  400   2.938   2.372   0.487  0.7155  0.6709 -0.2602
  146TIP3   OH2  401   6.504   5.722   5.693  0.1574  0.0475 -0.3885
  146TIP3    H1  402   6.576   5.783   5.677 -0.3948  0.7828 -0.1781
  146TIP3    H2  403   6.510   5.703   5.787  0.5459 -0.5207 -0.5222
  147TIP3   OH2  404   4.762   3.176   4.658  0.1935  0.2995 -0.7252
  147TIP3    H1  405   4.691   3.233   4.627 -0.8638  0.4214  1.6657
  147TIP3    H2  406   4.788   3.126   4.581 -2.6709  0.0828 -1.6731
  148TIP3   OH2  407   6.475   2.321   3.217 -0.0139 -0.4161  0.1743
  148TIP3    H1  408   6.566   2.315   3.187  0.1718 -0.9443  0.8060
  148TIP3    H2  409   6.461   2.414   3.232 -0.2343 -0.0881 -1.8632
  149TIP3   OH2  410   5.001   1.536   0.333  0.5902  0.8920 -0.5971
  149TIP3    H1  411   5.022   1.596   0.405  1.6218 -1.8732  1.6141
  149TIP3    H2  412   4.905   1.532   0.333  0.5424  1.7436 -0.0960
  150TIP3   OH2  413   4.006   2.597   2.618  0.1515 -0.3710 -0.1688
  150TIP3    H1  414   4.096   2.570   2.599  0.2123  0.1755 -0.7018
  150TIP3    H2  415   4.014   2.666   2.683  0.2841  1.1473 -1.7240
  151TIP3   OH2  416   5.571   0.561   0.394  0.4499  0.1758 -0.7091
  151TIP3    H1  417   5.589   0.467   0.400 -0.1606  0.0257 -1.0717
  151TIP3    H2  418   5.577   0.580   0.300  2.1671  0.8422 -0.4940
  152TIP3   OH2  419   4.272   6.150   2.697  0.0810 -0.2957  0.0207
  152TIP3    H1  420   4.197   6.091   2.691  0.6616 -1.1070  0.6036
  152TIP3    H2  421   4.235   6.232   2.731 -0.4971 -0.7809  0.5824
  153TIP3   OH2  422   6.404   4.509   0.743 -0.0233 -0.2493 -0.0726
  153TIP3    H1  423   6.466   4.457   0.692 -1.2215 -1.3462 -0.4744
  153TIP3    H2  424   6.416   4.479   0.833  0.4980  0.0375 -0.0433
  154TIP3   OH2  425   6.102   5.303   3.486  0.4279 -0.6094 -0.0746
  154TIP3    H1  426   6.022   5.250   3.496 -0.5371  0.6388 -0.8961
  154TIP3    H2  427   6.091   5.346   3.401  1.6976  0.0578  0.0862
  155TIP3   OH2  428   0.264   5.925   2.073 -0.0682  0.0071  0.2839
  155TIP3    H1  429   0.305   5.904   2.157  0.9911 -0.5803 -0.3584
  155TIP3    H2  430   0.336   5.954   2.018 -0.3482 -1.7732 -1.1087
  156TIP3   OH2  431   6.866   2.786   3.308  0.4609 -0.4278  0.3036
  156TIP3    H1  432   6.884   2.862   3.253  0.4206 -1.3412 -1.0173
  156TIP3    H2  433   6.879   2.818   3.397  2.9457  0.4978 -0.3052
  157TIP3   OH2  434   4.792   3.682   3.941 -0.1210  0.1761 -0.0542
  157TIP3    H1  435   4.874   3.709   3.900 -0.0405  0.8636  0.5269
  157TIP3    H2  436   4.789   3.733   4.023 -1.2441  0.3512 -0.1901
  158TIP3   OH2  437   2.558   1.237   5.468 -0.3455  0.1357 -0.3297
  158TIP3    H1  438   2.530   1.309   5.413  0.3063 -0.5709 -1.6498
  158TIP3    H2  439   2.489   1.171   5.460  0.2642 -0.4283 -1.2677
  159TIP3   OH2  440   0.529   0.698   1.296 -0.2663 -0.2765 -0.6953
  159TIP3    H1  441   0.604   0.646   1.268  0.6318  0.9923 -0.7359
  159TIP3    H2  442   0.507   0.665   1.383 -0.6960 -1.7185 -1.3189
  160TIP3   OH2  443   0.542   1.894   1.700  0.1249 -0.0817 -0.0332
  160TIP3    H1  444   0.476   1.882   1.632  1.6609 -0.4942 -1.5051
  160TIP3    H2  445   0.492   1.902   1.781 -1.7774  0.7581 -1.2309
  161TIP3   OH2  446   1.704   1.089   1.541  0.4337  0.0747 -0.1456
  161TIP3    H1  447   1.777   1.139   1.505  0.2371  0.2986 -0.2338
  161TIP3    H2  448   1.638   1.154   1.562  0.3122 -0.1140  0.0656
  162TIP3   OH2  449   6.114   1.426   4.636  0.3638  0.8941  0.1180
  162TIP3    H1  450   6.148   1.358   4.579  0.3051  0.0536  1.0580
  162TIP3    H2  451   6.053   1.380   4.694  0.5311  1.6946  0.9449
  163TIP3   OH2  452   4.240   4.275   0.452 -0.4630 -0.0760 -0.3325
  163TIP3    H1  453   4.271   4.364   0.462 -0.5102  0.1288 -1.8040
  163TIP3    H2  454   4.193   4.275   0.368 -3.2083 -0.7065  1.0701
  164TIP3   OH2  455   4.152   0.936   5.833  0.7523  0.0836 -0.6036
  164TIP3    H1  456   4.199   0.929   5.916 -0.5171  0.1755  0.1571
  164TIP3    H2  457   4.139   0.845   5.805  0.2455  0.0090 -0.1409
  165TIP3   OH2  458   1.810   0.314   2.314 -0.3197 -0.7113 -0.2532
  165TIP3    H1  459   1.845   0.282   2.230  1.1653  0.9380 -0.3226
  165TIP3    H2  460   1.839   0.406   2.318 -2.3278 -0.0756  1.0207
  166TIP3   OH2  461   0.042   3.666   5.159 -0.3865  0.5006  0.1875
  166TIP3    H1  462   0.068   3.603   5.226  0.4009 -0.4971 -1.0102
  166TIP3    H2  463   0.043   3.751   5.204  0.5034 -0.0819  1.3213
  167TIP3   OH2  464   2.674   5.658   2.320  0.2139  0.1011 -0.2057
  167TIP3    H1  465   2.752   5.683   2.271  0.1270  1.1517  0.1595
  167TIP3    H2  466   2.703   5.657   2.412 -0.0283 -0.2145 -0.1304
  168TIP3   OH2  467   5.417   2.933   4.392  0.0624 -0.2685 -0.3514
  168TIP3    H1  468   5.469   2.943   4.313  2.3530 -0.4709  1.0197
  168TIP3    H2  469   5.410   2.838   4.405  0.1101 -0.2386 -0.0887
  169TIP3   OH2  470   5.819   2.052   1.342  0.4292 -0.0237  0.3668
  169TIP3    H1  471   5.843   1.975   1.393  1.9602  0.1415 -0.0692
  169TIP3    H2  472   5.733   2.078   1.377  0.5904 -1.0075  1.5577
  170TIP3   OH2  473   4.909   0.382   2.057  0.3577 -0.1815 -0.4953
  170TIP3    H1  474   4.999   0.413   2.047 -0.0179  1.0706 -0.1980
  170TIP3    H2  475   4.856   0.462   2.059 -0.7565 -0.8910 -0.5777
  171TIP3   OH2  476   6.063   2.795   5.144 -0.2647 -0.0135  0.0189
  171TIP3    H1  477   5.973   2.791   5.112 -0.2700 -0.2557  0.0605
  171TIP3    H2  478   6.117   2.804   5.066 -0.1420 -2.3422 -0.2474
  172TIP3   OH2  479   0.421   6.014   1.826 -0.1166  0.3397  0.6158
  172TIP3    H1  480   0.394   6.046   1.740  1.4354  1.2269  0.4315
  172TIP3    H2  481   0.388   6.080   1.887 -0.1573  0.3461  0.5874
  173TIP3   OH2  482   5.820   6.568   1.931  0.1372  0.1576 -0.1786
  173TIP3    H1  483   5.846   6.477   1.944  1.6397  0.3038 -1.7480
  173TIP3    H2  484   5.823   6.607   2.018 -2.0763 -1.6013  0.8059
  174TIP3   OH2  485   1.310   0.170   2.966  0.3868 -0.2625  0.5024
  174TIP3    H1  486   1.340   0.208   3.048 -1.0245  1.5289  0.2557
  174TIP3    H2  487   1.273   0.085   2.990  1.3331 -0.4169  1.4651
  175TIP3   OH2  488   2.371   0.370   3.064 -0.8677 -0.3433 -0.3993
  175TIP3    H1  489   2.404   0.303   3.003  0.7873 -0.0552  0.1080
  175TIP3    H2  490   2.343   0.321   3.141 -1.2639 -0.5748 -0.6899
  176TIP3   OH2  491   2.908   2.516   1.803  0.1783  0.3712  0.6914
  176TIP3    H1  492   2.827   2.549   1.765  0.5773  0.1213 -0.4247
  176TIP3    H2  493   2.880   2.464   1.878 -0.5792  1.5242  1.2320
  177TIP3   OH2  494   0.256   1.912   4.850 -0.2570 -0.5984  0.5624
  177TIP3    H1  495   0.253   1.888   4.757 -2.3830 -0.6386  0.6121
  177TIP3    H2  496   0.270   1.829   4.896  1.4091 -0.5066  0.2927
  178TIP3   OH2  497   0.946   5.833   3.346 -0.1304  0.5217  0.4169
  178TIP3    H1  498   0.984   5.870   3.267  1.0013  0.6011  0.9649
  178TIP3    H2  499   0.932   5.741   3.326 -1.7646  0.9473 -0.5310
  179TIP3   OH2  500   1.356   2.983   5.735  0.2732  0.3551  0.5128
  179TIP3    H1  501   1.323   2.913   5.791  0.3614  1.0737  1.4849
  179TIP3    H2  502   1.414   2.938   5.673 -0.6593 -0.5930  0.2957
  180TIP3   OH2  503   1.974   0.799   2.134  0.8767  0.9568  0.1467
  180TIP3    H1  504   1.884   0.790   2.102  0.3713  1.4154  1.3737
  180TIP3    H2  505   2.022   0.838   2.061  0.1810  0.2955 -0.6743
  181TIP3   OH2  506   7.128   6.488   0.510 -0.3385  0.4826 -0.5279
  181TIP3    H1  507   7.054   6.490   0.450 -1.4972 -1.7631  0.6851
  181TIP3    H2  508   7.115   6.565   0.566 -1.2897  0.5967 -0.8852
  182TIP3   OH2  509   0.498   4.890   3.147 -0.4386 -0.4735 -0.6510
  182TIP3    H1  510   0.514   4.942   3.069  1.5250  1.3005  0.7932
  182TIP3    H2  511   0.450   4.949   3.206  0.1772 -0.9373  0.3407
  183TIP3   OH2  512   6.641   5.615   3.598 -0.2058 -0.4609  0.1484
  183TIP3    H1  513   6.684   5.543   3.645 -0.8436 -1.3575 -0.6131
  183TIP3    H2  514   6.549   5.589   3.592 -0.7468  1.0789  1.0835
  184TIP3   OH2  515   6.496   3.098   1.056  0.0842  0.8909  0.0261
  184TIP3    H1  516   6.442   3.097   1.135  0.1654  2.6142  0.1382
  184TIP3    H2  517   6.434   3.114   0.985 -0.0800 -1.2597 -0.4038
  185TIP3   OH2  518   6.280   2.506   5.534  0.2878 -0.6808 -0.0816
  185TIP3    H1  519   6.221   2.545   5.470  0.6309 -0.9656 -0.5699
  185TIP3    H2  520   6.226   2.441   5.580 -0.1416 -0.0226  0.3825
  186TIP3   OH2  521   5.842   3.505   4.035  0.1513 -0.1168  0.3393
  186TIP3    H1  522   5.856   3.418   4.072  0.8135 -0.0527  0.2415
  186TIP3    H2  523   5.765   3.494   3.978  0.1336 -0.5977  0.4490
  187TIP3   OH2  524   3.868   4.702   4.181 -0.1802 -0.3459 -0.2878
  187TIP3    H1  525   3.831   4.790   4.188  0.4196  0.1036 -2.0977
  187TIP3    H2  526   3.796   4.644   4.204 -0.5009  0.6000  1.2354
  188TIP3   OH2  527   1.233   5.192   5.283 -0.2491  0.3668 -0.2110
  188TIP3    H1  528   1.285   5.114   5.307  1.1498  1.5220  0.7086
  188TIP3    H2  529   1.193   5.169   5.199  1.3342 -0.7953 -0.7048
  189TIP3   OH2  530   2.529   2.166   5.173 -0.9710 -0.4922 -0.4485
  189TIP3    H1  531   2.591   2.093   5.173  0.7595  0.8908 -0.5039
  189TIP3    H2  532   2.450   2.131   5.133 -0.0595 -2.2109 -0.8479
  190TIP3   OH2  533   2.421   6.442   2.621 -0.1263 -0.0986  0.4141
  190TIP3    H1  534   2.433   6.537   2.622 -0.4923 -0.0305 -0.5748
  190TIP3    H2  535   2.424   6.419   2.528  2.5550 -1.4009  0.7155
  191TIP3   OH2  536   5.261   3.229   0.322  0.2989  0.1117 -0.3943
  191TIP3    H1  537   5.186   3.287   0.312  0.6190  0.4051 -1.1196
  191TIP3    H2  538   5.330   3.269   0.269  0.3144 -1.2872 -1.4987
  192TIP3   OH2  539   0.946   1.759   0.784  0.0253  0.6238  0.7325
  192TIP3    H1  540   0.944   1.815   0.706 -1.4999  0.9761  0.9991
  192TIP3    H2  541   0.971   1.817   0.855 -1.7104  1.0534  1.0368
  193TIP3   OH2  542   0.021   2.416   3.842 -0.4396  0.3509 -0.5185
  193TIP3    H1  543   0.024   2.485   3.776  0.4238  0.2856 -0.5605
  193TIP3    H2  544   0.103   2.427   3.891  0.3941 -1.5023 -1.4086
  194TIP3   OH2  545   6.816   6.446   2.072  0.0394  0.3796 -0.4235
  194TIP3    H1  546   6.731   6.430   2.030  0.5957 -0.6462 -1.2193
  194TIP3    H2  547   6.869   6.484   2.002 -0.0660  2.0522  0.3707
  195TIP3   OH2  548   1.157   4.236   1.067 -0.0839 -0.0258  0.0294
  195TIP3    H1  549   1.072   4.281   1.070  0.2682  0.7658 -1.2379
  195TIP3    H2  550   1.215   4.296   1.020  0.7308 -1.2730 -0.6192
  196TIP3   OH2  551   0.687   4.255   5.697  0.0179  0.8781  0.0644
  196TIP3    H1  552   0.707   4.173   5.652  0.7587  0.9495  0.2562
  196TIP3    H2  553   0.604   4.238   5.741 -1.0598  1.0064 -1.8136
  197TIP3   OH2  554   6.185   4.635   1.254  0.1595  0.2002 -0.5247
  197TIP3    H1  555   6.217   4.602   1.338  0.0195  0.1290 -0.4996
  197TIP3    H2  556   6.262   4.673   1.212  0.1527  0.5719 -0.2042
  198TIP3   OH2  557   4.898   5.093   4.727 -0.2312 -0.8430 -0.4918
  198TIP3    H1  558   4.935   5.141   4.653 -0.9214  1.8228  0.7621
  198TIP3    H2  559   4.941   5.008   4.725  4.3578  1.1979 -0.4701
  199TIP3   OH2  560   5.499   0.416   5.749  0.1812  0.0736 -0.3170
  199TIP3    H1  561   5.577   0.461   5.717  0.5633  0.5483  1.1875
  199TIP3    H2  562   5.532   0.355   5.815 -0.6203 -0.4090 -0.3504
  200TIP3   OH2  563   5.161   1.958   3.856  0.3668 -0.3778  0.2862
  200TIP3    H1  564   5.211   1.980   3.934  0.9121  0.6654 -0.3364
  200TIP3    H2  565   5.136   1.866   3.868  1.7767 -0.6901  0.9529
  201TIP3   OH2  566   5.206   4.369   4.169 -0.3641  0.1226  0.4525
  201TIP3    H1  567   5.186   4.396   4.259  0.5563  0.3746  0.5972
  201TIP3    H2  568   5.280   4.308   4.178  0.8977  1.4809 -0.2350
  202TIP3   OH2  569   2.701   1.321   1.715  0.8093 -0.3982  0.0176
  202TIP3    H1  570   2.768   1.386   1.736  0.8361 -0.4685  0.1479
  202TIP3    H2  571   2.738   1.273   1.641  0.4441  0.2567 -0.6038
  203TIP3   OH2  572   6.495   2.107   2.380  0.8985  0.5179  0.4017
  203TIP3    H1  573   6.482   2.181   2.321  0.4904  1.9226  2.1649
  203TIP3    H2  574   6.498   2.146   2.468  1.6274 -1.4585  1.3256
  204TIP3   OH2  575   6.207   4.878   4.367 -0.2703  0.2303  0.0255
  204TIP3    H1  576   6.299   4.864   4.346  0.7294  1.0456  3.3256
  204TIP3    H2  577   6.171   4.789   4.377  0.6946 -0.0960  0.7045
  205TIP3   OH2  578   1.414   1.397   5.407 -0.0676  0.1283  0.4827
  205TIP3    H1  579   1.323   1.425   5.414  0.4177  1.9017  0.1192
  205TIP3    H2  580   1.462   1.475   5.380  1.1459 -1.4342 -2.4409
  206TIP3   OH2  581   1.643   6.327   4.483  0.1912  0.2729 -0.0036
  206TIP3    H1  582   1.698   6.351   4.408  2.7589  1.3134  2.0487
  206TIP3    H2  583   1.578   6.397   4.489  0.8200  0.9067 -0.4556
  207TIP3   OH2  584   6.726   0.347   1.312 -0.2555 -0.1731 -0.3174
  207TIP3    H1  585   6.681   0.327   1.394  0.8615  0.4438  0.4729
  207TIP3    H2  586   6.730   0.443   1.310 -0.6061 -0.1659 -1.2891
  208TIP3   OH2  587   5.573   1.139   0.943 -0.0153 -0.0909  0.3915
  208TIP3    H1  588   5.652   1.105   0.985  1.4596  0.1336 -1.9633
  208TIP3    H2  589   5.597   1.228   0.916  0.2029 -1.0295 -3.0867
  209TIP3   OH2  590   4.977   3.796   3.757  0.4915  0.4619 -0.4741
  209TIP3    H1  591   5.018   3.753   3.683  0.7291 -0.1324 -0.0012
  209TIP3    H2  592   5.007   3.887   3.751 -0.2102  0.6402 -1.6099
  210TIP3   OH2  593   6.477   2.175   4.708 -0.1309 -0.0841  0.1868
  210TIP3    H1  594   6.467   2.241   4.639 -2.1282  0.1122  0.6140
  210TIP3    H2  595   6.409   2.196   4.772  1.1739 -0.7406  1.8579
  211TIP3   OH2  596   3.316   4.301   4.118  0.3360  0.3168  0.5529
  211TIP3    H1  597   3.385   4.236   4.107  1.4958  1.7601 -1.3531
  211TIP3    H2  598   3.271   4.302   4.033 -1.4189  0.1251  1.4301
  212TIP3   OH2  599   0.933   4.927   5.657 -0.1513 -0.1672  0.0343
  212TIP3    H1  600   0.988   4.963   5.726 -1.0165  0.1864  0.5581
  212TIP3    H2  601   0.985   4.935   5.577  0.5275  0.1954  0.5083
  213TIP3   OH2  602   5.440   2.337   3.596 -0.3062 -0.4350 -0.1385
  213TIP3    H1  603   5.458   2.279   3.671 -1.3650  1.1139  1.3886
  213TIP3    H2  604   5.348   2.361   3.606 -0.2409  0.4827 -1.4865
  214TIP3   OH2  605   2.532   2.546   4.600  0.1612  0.4397  0.1118
  214TIP3    H1  606   2.537   2.637   4.572  0.3089 -0.1135 -1.8162
  214TIP3    H2  607   2.461   2.508   4.548  0.2354 -0.6048  0.7264
  215TIP3   OH2  608   5.511   1.315   0.346  0.9249  0.3660  0.3351
  215TIP3    H1  609   5.476   1.392   0.301  0.6544 -0.2521 -0.5300
  215TIP3    H2  610   5.582   1.285   0.290 -0.5122 -1.4262 -0.6124
  216TIP3   OH2  611   2.324   3.479   0.018  0.1343  0.4615  0.2136
  216TIP3    H1  612   2.322   3.431   0.101  0.2838  1.7927  1.0116
  216TIP3    H2  613   2.310   3.570   0.043 -0.3451  0.8200 -1.2901
  217TIP3   OH2  614   3.036   0.777   5.899 -0.2121 -0.2311 -0.5067
  217TIP3    H1  615   2.943   0.755   5.894  0.1299 -1.7266 -0.7536
  217TIP3    H2  616   3.081   0.693   5.892  1.1512  0.4049  0.2175
  218TIP3   OH2  617   3.397   3.796   5.414 -0.0313 -0.2677  0.0182
  218TIP3    H1  618   3.369   3.705   5.403 -1.0062 -0.0256  0.3992
  218TIP3    H2  619   3.483   3.789   5.455 -0.3335 -1.0239  0.5718
  219TIP3   OH2  620   1.059   4.823   0.989 -0.6201 -0.1999  0.2462
  219TIP3    H1  621   1.055   4.856   1.079 -2.8491  0.1041  0.0934
  219TIP3    H2  622   0.980   4.772   0.979 -0.5758  0.0420 -1.6560
  220TIP3   OH2  623   4.195   2.142   3.555  0.4095 -0.5086 -0.0246
  220TIP3    H1  624   4.186   2.174   3.465 -0.0506  1.3247  0.6293
  220TIP3    H2  625   4.270   2.083   3.552 -0.0759 -1.1020 -1.7556
  221TIP3   OH2  626   2.471   1.993   5.422  0.4111 -0.0085  0.5869
  221TIP3    H1  627   2.535   1.999   5.350  0.1289  1.3979  0.4227
  221TIP3    H2  628   2.439   2.082   5.433 -1.1376 -0.5846  1.0384
  222TIP3   OH2  629   6.239   3.587   3.257 -0.0323  0.0295 -0.3087
  222TIP3    H1  630   6.172   3.624   3.201  1.0873  1.3335 -0.8301
  222TIP3    H2  631   6.322   3.620   3.222  0.8294 -0.7285  0.9033
  223TIP3   OH2  632   5.183   3.792   5.579 -0.2691 -0.5616 -0.2243
  223TIP3    H1  633   5.218   3.857   5.518  0.2894 -1.4384 -0.8568
  223TIP3    H2  634   5.212   3.708   5.544  1.1593 -1.0510  1.9430
  224TIP3   OH2  635   6.846   2.769   1.897 -0.1348  0.4943  0.1173
  224TIP3    H1  636   6.932   2.805   1.920 -0.4936  2.1459 -0.9241
  224TIP3    H2  637   6.799   2.764   1.980  0.3274  1.4252  0.4471
  225TIP3   OH2  638   2.228   2.935   4.997 -0.0979  0.3605  0.1430
  225TIP3    H1  639   2.140   2.910   4.970 -0.3316  1.2251  0.0717
  225TIP3    H2  640   2.215   2.989   5.075  0.5710 -2.2953  2.2835
  226TIP3   OH2  641   5.208   2.714   4.786 -0.3329  0.0678 -0.2464
  226TIP3    H1  642   5.263   2.641   4.813  0.9050  1.0157 -0.1017
  226TIP3    H2  643   5.170   2.686   4.702  1.6018 -0.0369 -1.1430
  227TIP3   OH2  644   4.702   4.076   4.493  0.3271  0.7878 -0.3889
  227TIP3    H1  645   4.724   3.996   4.541 -1.0846 -0.6179 -1.9578
  227TIP3    H2  646   4.766   4.140   4.523  1.3740 -0.8659  1.0916
  228TIP3   OH2  647   2.457   2.871   3.360  0.5574  0.8150  0.2782
  228TIP3    H1  648   2.454   2.784   3.400  0.7902  0.4137 -0.5441
  228TIP3    H2  649   2.368   2.887   3.330  0.7665  0.3189 -0.6540
  229TIP3   OH2  650   3.414   2.502   2.777  0.1220 -0.7127 -0.4299
  229TIP3    H1  651   3.344   2.567   2.782  0.9911  0.1981  0.3013
  229TIP3    H2  652   3.413   2.459   2.862  0.3187 -0.8425 -0.4943
  230TIP3   OH2  653   1.504   6.125   2.946  0.5000  0.0781 -0.1374
  230TIP3    H1  654   1.517   6.211   2.984  0.4996  0.3660 -0.7722
  230TIP3    H2  655   1.464   6.073   3.016  0.5316  0.5791  0.2577
  231TIP3   OH2  656   6.249   2.668   1.773  0.1220  0.1126  0.1700
  231TIP3    H1  657   6.265   2.743   1.716 -1.4127  0.8511  0.6474
  231TIP3    H2  658   6.154   2.665   1.783 -0.0649 -2.9640 -1.2243
  232TIP3   OH2  659   3.764   4.370   1.974  0.2515 -0.3594  0.1809
  232TIP3    H1  660   3.789   4.443   1.917 -2.3715 -0.0615 -0.6967
  232TIP3    H2  661   3.794   4.292   1.927 -1.1986 -0.0713 -1.3117
  233TIP3   OH2  662   6.966   4.563   5.259  0.0690 -0.0349  0.2033
  233TIP3    H1  663   7.054   4.568   5.299 -1.0211  1.1421  2.6701
  233TIP3    H2  664   6.933   4.652   5.264 -0.9274 -0.2722 -1.6181
  234TIP3   OH2  665   0.955   3.053   5.622 -0.0846  0.4034  0.5617
  234TIP3    H1  666   1.031   2.997   5.635  0.0360  0.5286  0.3852
  234TIP3    H2  667   0.949   3.066   5.528  0.0395  0.8963  0.6174
  235TIP3   OH2  668   4.156   2.885   2.553 -0.5421 -0.0548  0.3096
  235TIP3    H1  669   4.085   2.875   2.490 -1.7180 -0.4714  1.6625
  235TIP3    H2  670   4.117   2.864   2.638  0.9323  0.7270  1.2306
  236TIP3   OH2  671   4.795   2.003   3.577  0.3846 -0.3650 -0.3838
  236TIP3    H1  672   4.736   1.992   3.652  1.1448 -1.1983  0.1126
  236TIP3    H2  673   4.763   1.939   3.513 -3.1378  3.3290 -2.7494
  237TIP3   OH2  674   1.491   0.191   1.820  0.7003 -0.2750 -0.2268
  237TIP3    H1  675   1.568   0.182   1.876 -0.3637  1.1992  1.5837
  237TIP3    H2  676   1.429   0.242   1.873 -1.8663 -2.1487 -1.2642
  238TIP3   OH2  677   6.063   3.626   0.139  0.2199 -0.0621 -0.0455
  238TIP3    H1  678   6.150   3.661   0.126 -0.1705  0.4126 -1.5459
  238TIP3    H2  679   6.005   3.702   0.140 -0.2251 -0.3940  0.5826
  239TIP3   OH2  680   4.773   2.311   1.959  0.3878 -0.4801  0.4331
  239TIP3    H1  681   4.772   2.401   1.925  0.5888 -0.6939 -0.1574
  239TIP3    H2  682   4.681   2.291   1.975  0.1777 -0.6943 -0.8947
  240TIP3   OH2  683   5.038   2.972   1.002 -0.8404  0.5621  0.5850
  240TIP3    H1  684   5.001   3.047   0.956 -0.6076  0.8534  0.8655
  240TIP3    H2  685   5.055   2.907   0.934 -2.0768  0.3333  0.4791
  241TIP3   OH2  686   0.582   4.476   1.647 -0.6077 -0.2273  0.2255
  241TIP3    H1  687   0.642   4.550   1.635 -0.8852 -0.2296 -1.2925
  241TIP3    H2  688   0.637   4.398   1.638 -0.9303 -0.2509 -2.1095
  242TIP3   OH2  689   0.710   3.214   0.916 -0.0921 -0.0042  0.2701
  242TIP3    H1  690   0.763   3.268   0.857 -0.9122  1.2089  0.6078
  242TIP3    H2  691   0.769   3.143   0.942  0.7507  0.2563 -0.8431
  243TIP3   OH2  692   6.865   4.805   1.645 -0.2150 -0.8237  0.1637
  243TIP3    H1  693   6.891   4.828   1.555  0.7119 -0.0186  0.6226
  243TIP3    H2  694   6.811   4.878   1.673  0.6507 -0.3999  0.7461
  244TIP3   OH2  695   2.401   5.946   3.528  0.3012 -0.6715 -0.0441
  244TIP3    H1  696   2.340   6.015   3.501  0.3462  0.0976  1.6736
  244TIP3    H2  697   2.487   5.979   3.501  0.3322  0.0344  0.8450
  245TIP3   OH2  698   1.254   0.736   5.203  0.1804  0.3485 -0.0920
  245TIP3    H1  699   1.185   0.792   5.238 -1.3899 -1.7033  0.2645
  245TIP3    H2  700   1.309   0.716   5.279 -0.2885 -0.0033  0.1615
  246TIP3   OH2  701   3.078   1.051   5.689 -0.0879  0.1659 -0.2697
  246TIP3    H1  702   3.042   1.139   5.702 -1.5490 -0.3730 -0.5278
  246TIP3    H2  703   3.003   0.992   5.696  1.0362 -1.1943  1.1067
  247TIP3   OH2  704   0.675   5.909   5.649  0.4054 -0.3325 -0.0143
  247TIP3    H1  705   0.769   5.909   5.666  0.4400  0.1581 -0.1910
  247TIP3    H2  706   0.664   5.972   5.577  0.0208 -0.8559 -0.4226
  248TIP3   OH2  707   2.147   2.501   2.599  0.2956 -0.4474 -0.3111
  248TIP3    H1  708   2.186   2.462   2.677  0.8127  0.1632 -0.2477
  248TIP3    H2  709   2.153   2.595   2.615 -1.6960 -0.3341 -0.0829
  249TIP3   OH2  710   0.390   1.152   1.815  0.2436 -0.0955  0.1107
  249TIP3    H1  711   0.355   1.103   1.889  1.5522 -1.4777 -0.1482
  249TIP3    H2  712   0.402   1.241   1.848 -0.6171 -0.3359  1.0903
  250TIP3   OH2  713   6.700   0.507   3.537  0.4656 -0.0876 -0.7189
  250TIP3    H1  714   6.608   0.530   3.550  0.5516  0.6162 -1.3166
  250TIP3    H2  715   6.743   0.533   3.618  0.3786  0.9257 -0.9833
  251TIP3   OH2  716   1.555   5.307   4.559 -0.2738  0.0563  0.1764
  251TIP3    H1  717   1.537   5.235   4.618 -0.2720  0.1487  0.2895
  251TIP3    H2  718   1.640   5.341   4.587 -1.5291  1.9427  1.9894
  252TIP3   OH2  719   2.007   1.254   0.568 -0.4879 -0.4966  0.2923
  252TIP3    H1  720   2.011   1.171   0.520 -0.3968  0.5688 -1.6361
  252TIP3    H2  721   2.087   1.300   0.543 -1.2708  0.8107  0.0804
  253TIP3   OH2  722   1.496   6.344   1.519  0.2841  0.4889 -0.1793
  253TIP3    H1  723   1.476   6.437   1.528 -1.1665  0.4622 -2.4067
  253TIP3    H2  724   1.591   6.341   1.506  0.4784  1.5459  0.8336
  254TIP3   OH2  725   1.065   3.500   2.925 -0.1050 -0.2404 -0.1416
  254TIP3    H1  726   1.004   3.489   2.852  0.0440  2.0822 -0.6837
  254TIP3    H2  727   1.127   3.566   2.896  2.4416 -2.1448  0.6044
  255TIP3   OH2  728   2.933   2.589   5.801 -0.4005  0.3598 -0.6659
  255TIP3    H1  729   2.844   2.599   5.768 -0.7928  2.2661  0.7986
  255TIP3    H2  730   2.959   2.677   5.829  1.0128 -0.5670  1.1913
  256TIP3   OH2  731   0.803   0.535   5.011  0.3460 -0.2135 -0.2932
  256TIP3    H1  732   0.867   0.501   4.949  1.8835  1.7037  0.1555
  256TIP3    H2  733   0.849   0.606   5.057 -2.2938  1.7162 -0.4204
  257TIP3   OH2  734   2.746   3.442   2.866 -0.1308  0.0180  0.9239
  257TIP3    H1  735   2.746   3.361   2.917  1.6396  0.2831  1.3904
  257TIP3    H2  736   2.816   3.495   2.904  1.3244  0.2195 -1.7832
  258TIP3   OH2  737   6.037   5.464   5.652  0.1007 -0.3897  0.4313
  258TIP3    H1  738   6.045   5.543   5.705 -2.3180  1.7035 -2.0444
  258TIP3    H2  739   6.127   5.438   5.634  0.9962  2.0445  1.0170
  259TIP3   OH2  740   5.060   0.126   2.597 -0.1918 -0.4918 -0.3344
  259TIP3    H1  741   5.053   0.217   2.624 -0.4259 -0.9359  1.2065
  259TIP3    H2  742   5.034   0.126   2.505  0.8816  1.1460 -0.6825
  260TIP3   OH2  743   2.027   0.894   1.280  0.6368  0.6564 -0.3379
  260TIP3    H1  744   1.991   0.892   1.369  1.5293 -0.5368  0.0277
  260TIP3    H2  745   2.122   0.900   1.293  0.8971 -1.0761 -1.1562
  261TIP3   OH2  746   5.040   0.399   2.644  0.0647 -0.6127  0.1233
  261TIP3    H1  747   5.101   0.464   2.679 -0.8002  1.2076 -1.5274
  261TIP3    H2  748   4.962   0.406   2.699 -0.7385  1.1859 -1.1439
  262TIP3   OH2  749   0.130   5.425   4.877 -0.0161  0.5359  0.1545
  262TIP3    H1  750   0.186   5.351   4.852 -0.3853  0.2079  0.2977
  262TIP3    H2  751   0.115   5.472   4.795  1.1346  1.0944  0.2359
  263TIP3   OH2  752   3.718   6.478   2.192  0.0471  0.3925  0.6995
  263TIP3    H1  753   3.813   6.479   2.203  0.2307  0.7133 -0.7787
  263TIP3    H2  754   3.703   6.419   2.118 -0.8121  1.2658  0.1589
  264TIP3   OH2  755   1.038   5.241   1.966  0.0319  0.1059  0.3220
  264TIP3    H1  756   1.073   5.170   2.019  0.8054 -0.2450 -0.6368
  264TIP3    H2  757   1.094   5.245   1.889 -1.5738  0.0187 -0.9157
  265TIP3   OH2  758   4.331   1.393   3.300 -0.2291  0.0166 -0.0071
  265TIP3    H1  759   4.353   1.310   3.344  0.5878 -0.0555 -0.5334
  265TIP3    H2  760   4.263   1.431   3.355  0.0113 -0.5824  0.7341
  266TIP3   OH2  761   6.221   2.061   0.856 -0.6226 -0.0482 -0.3253
  266TIP3    H1  762   6.211   2.013   0.938 -0.8369 -1.8025 -1.3311
  266TIP3    H2  763   6.314   2.080   0.850 -0.7401  1.0727  0.8056
  267TIP3   OH2  764   1.518   0.935   4.938 -0.7744 -0.1335  0.5458
  267TIP3    H1  765   1.612   0.938   4.922 -0.9556 -0.3756 -0.7090
  267TIP3    H2  766   1.502   0.844   4.964 -0.5968  0.0456  1.3124
  268TIP3   OH2  767   5.800   1.122   3.611 -0.0977 -0.0686 -0.0399
  268TIP3    H1  768   5.856   1.048   3.636 -2.8515 -2.1805  0.3973
  268TIP3    H2  769   5.747   1.138   3.689 -2.8062 -0.9023 -1.5670
  269TIP3   OH2  770   5.545   5.724   1.189 -0.2430  0.3285 -0.1225
  269TIP3    H1  771   5.591   5.674   1.122 -0.4065  1.3404 -0.9941
  269TIP3    H2  772   5.611   5.741   1.256  0.2720  0.5162 -0.6798
  270TIP3   OH2  773   3.615   3.878   5.640  0.4013  0.6778 -0.3366
  270TIP3    H1  774   3.694   3.903   5.688  0.9437 -0.4338 -0.6270
  270TIP3    H2  775   3.641   3.803   5.588 -1.7896 -2.4545  2.6224
  271TIP3   OH2  776   6.470   6.046   5.285  0.5135 -0.0136  0.0729
  271TIP3    H1  777   6.564   6.031   5.294  0.3716 -1.7864 -1.0032
  271TIP3    H2  778   6.454   6.052   5.191 -0.5032 -0.1250  0.2185
  272TIP3   OH2  779   6.315   6.601   4.528 -0.1210 -0.1386 -0.3439
  272TIP3    H1  780   6.223   6.609   4.501 -0.3191 -0.1952  0.3017
  272TIP3    H2  781   6.320   6.649   4.610  0.7145  0.9201 -0.9838
  273TIP3   OH2  782   1.966   3.037   5.155 -0.1757 -0.3524 -0.0200
  273TIP3    H1  783   1.949   2.964   5.095  1.9019 -1.7838  1.0368
  273TIP3    H2  784   1.933   3.006   5.239  0.8633 -0.1387  0.4700
  274TIP3   OH2  785   5.434   4.643   3.812  0.1901 -0.6582  0.8705
  274TIP3    H1  786   5.486   4.723   3.816 -0.0520 -0.4795  0.4567
  274TIP3    H2  787   5.358   4.665   3.758 -0.8615 -0.6038  2.3038
  275TIP3   OH2  788   4.495   0.207   3.587 -0.3719 -0.1475  0.1443
  275TIP3    H1  789   4.583   0.196   3.623 -0.1516 -0.2839 -0.4394
  275TIP3    H2  790   4.457   0.119   3.589 -0.1748 -0.2481 -0.4334
  276TIP3   OH2  791   2.815   3.228   0.362 -0.2665 -0.1351 -0.0926
  276TIP3    H1  792   2.789   3.188   0.445  0.6934 -0.8391 -0.1102
  276TIP3    H2  793   2.902   3.193   0.345 -0.8500 -0.8175 -1.9143
  277TIP3   OH2  794   2.778   0.299   1.235 -0.2449 -0.7330 -0.3877
  277TIP3    H1  795   2.787   0.359   1.309 -0.8620 -1.2418  0.1091
  277TIP3    H2  796   2.861   0.306   1.188 -0.0322 -0.0420  0.0722
  278TIP3   OH2  797   6.751   0.078   1.670  0.2442 -0.3215 -0.3249
  278TIP3    H1  798   6.766   0.146   1.736  1.0613 -0.1814 -0.6398
  278TIP3    H2  799   6.793  -0.000   1.706 -1.1127 -0.8201  0.2622
  279TIP3   OH2  800   1.687   1.627   2.374  0.4965  0.0092  0.3366
  279TIP3    H1  801   1.724   1.593   2.455 -0.2010 -0.8378  0.3147
  279TIP3    H2  802   1.763   1.661   2.326  1.2780 -1.6686  0.3022
  280TIP3   OH2  803   4.082   4.395   3.145  0.6238 -0.3144  0.3078
  280TIP3    H1  804   4.157   4.427   3.196 -0.0698  0.4601  0.8667
  280TIP3    H2  805   4.101   4.422   3.055  0.7035  0.4714  0.5540
  281TIP3   OH2  806   6.819   0.917   3.111 -0.2669  0.7215  0.2434
  281TIP3    H1  807   6.793   1.000   3.072 -4.3083  1.0835  3.0980
  281TIP3    H2  808   6.801   0.927   3.205  0.2870 -2.9733  0.9234
  282TIP3   OH2  809   3.129   1.020   5.422 -0.0216 -0.0646  0.2536
  282TIP3    H1  810   3.123   1.029   5.517 -1.8977 -1.1416  0.2905
  282TIP3    H2  811   3.161   1.105   5.392 -3.1180  1.7642  1.5979
  283TIP3   OH2  812   2.866   5.581   3.992 -0.3410 -0.1108 -0.0600
  283TIP3    H1  813   2.927   5.615   4.057  0.1272  1.9864 -1.4830
  283TIP3    H2  814   2.780   5.588   4.033  0.0672 -0.0845  0.8065
  284TIP3   OH2  815   6.835   0.237   4.974 -0.3619  0.2018  0.3446
  284TIP3    H1  816   6.893   0.311   4.956  0.3601 -0.4873 -0.2213
  284TIP3    H2  817   6.889   0.175   5.024  0.2492 -1.5300 -2.2381
  285TIP3   OH2  818   4.167   4.577   4.862  0.1311  0.1739  0.4937
  285TIP3    H1  819   4.180   4.622   4.945  1.2472  0.8506 -0.0295
  285TIP3    H2  820   4.144   4.647   4.801  1.0684 -0.0732 -0.1517
  286TIP3   OH2  821   4.397   3.753   2.042 -0.4939  0.1177 -0.1676
  286TIP3    H1  822   4.383   3.745   2.137  1.2968 -0.5484  0.0920
  286TIP3    H2  823   4.344   3.683   2.005  0.0766 -0.7066  0.5139
  287TIP3   OH2  824   0.651   6.503   4.436  0.2516  0.3109 -0.1752
  287TIP3    H1  825   0.742   6.502   4.406 -0.4169  1.2009 -2.4479
  287TIP3    H2  826   0.629   6.596   4.442 -0.6331  0.1051 -0.1123
  288TIP3   OH2  827   0.780   5.455   0.938  0.3433  0.0443 -0.3315
  288TIP3    H1  828   0.739   5.480   1.021 -0.2415 -3.0279  0.4300
  288TIP3    H2  829   0.740   5.513   0.873  1.2274  2.9289  1.4917
  289TIP3   OH2  830   0.725   2.875   2.919 -0.4834 -0.8163  0.8937
  289TIP3    H1  831   0.640   2.913   2.899 -0.2054 -0.7720 -0.2663
  289TIP3    H2  832   0.778   2.950   2.947 -1.0369 -0.9645  2.4255
  290TIP3   OH2  833   6.699   1.985   0.079 -0.2732  0.0032 -0.4963
  290TIP3    H1  834   6.648   2.016   0.004 -0.4529  1.4573  0.1929
  290TIP3    H2  835   6.747   2.062   0.110 -0.7608 -0.3666  1.3200
  291TIP3   OH2  836   2.986   4.786   4.461 -0.0803 -0.6418 -0.1738
  291TIP3    H1  837   2.946   4.837   4.532  0.5943  0.5060 -0.5983
  291TIP3    H2  838   3.077   4.814   4.459 -0.7011  1.7349 -3.4598
  292TIP3   OH2  839   1.745   1.119   5.177 -0.3760  0.3469  0.3987
  292TIP3    H1  840   1.818   1.115   5.115 -0.1972  1.4382  0.5076
  292TIP3    H2  841   1.710   1.030   5.179  2.5362 -0.9000  2.2882
  293TIP3   OH2  842   6.899   0.607   4.971 -0.3409  0.1540  0.0496
  293TIP3    H1  843   6.908   0.624   5.065 -1.4615 -1.5061  0.4882
  293TIP3    H2  844   6.971   0.547   4.951 -1.4813 -1.3791  0.3911
  294TIP3   OH2  845   3.071   5.839   5.828  0.5878 -0.5164 -0.0190
  294TIP3    H1  846   3.039   5.892   5.755  2.4781  0.5441 -0.1429
  294TIP3    H2  847   2.993   5.819   5.879 -0.5106  0.3545 -1.2861
  295TIP3   OH2  848   4.382   4.797   1.781 -0.7435 -0.0109  0.8402
  295TIP3    H1  849   4.348   4.849   1.708  0.4556  1.3420  1.2083
  295TIP3    H2  850   4.433   4.858   1.833  2.6641 -1.9779  0.1160
  296TIP3   OH2  851   6.633   2.680   4.252  0.2765  0.2779  1.0139
  296TIP3    H1  852   6.612   2.713   4.165  0.6087 -0.2564  0.7277
  296TIP3    H2  853   6.598   2.746   4.312 -0.3139  0.4424  0.4891
  297TIP3   OH2  854   0.171   3.245   0.990  0.4217  0.1982  0.3200
  297TIP3    H1  855   0.076   3.231   0.994  0.0524  2.1972 -0.4597
  297TIP3    H2  856   0.200   3.188   0.919 -0.1905 -0.3217  0.4684
  298TIP3   OH2  857   3.570   1.946   4.252  0.3637  0.1172  0.4325
  298TIP3    H1  858   3.652   1.910   4.219 -0.1401  0.3275 -1.1388
  298TIP3    H2  859   3.505   1.879   4.233 -0.2972  1.1117 -0.9975
  299TIP3   OH2  860   6.697   3.647   4.777  0.6773  0.4139 -0.7102
  299TIP3    H1  861   6.762   3.707   4.813  1.5555 -0.2467 -1.1785
  299TIP3    H2  862   6.710   3.566   4.826  0.9122 -0.0437 -1.5222
  300TIP3   OH2  863   0.283   3.963   3.801 -0.5654  0.0596  0.4963
  300TIP3    H1  864   0.188   3.971   3.811 -0.5603 -0.2538  0.7865
  300TIP3    H2  865   0.318   4.037   3.851 -0.6412 -0.0704  0.7443
  301TIP3   OH2  866   4.129   5.158   1.089  0.3182  0.4352  0.2851
  301TIP3    H1  867   4.129   5.073   1.132  1.1507  0.7478  0.9339
  301TIP3    H2  868   4.047   5.199   1.118  0.4222  0.2720  0.8175
  302TIP3   OH2  869   5.977   2.479   3.561  0.7717  0.5521 -0.2381
  302TIP3    H1  870   5.986   2.500   3.653 -0.5317  0.0806  0.0077
  302TIP3    H2  871   5.886   2.499   3.539  0.7959 -0.2441 -1.1725
  303TIP3   OH2  872   1.930   5.667   3.329  0.1959  0.1984 -0.6664
  303TIP3    H1  873   1.969   5.638   3.246  0.1038 -1.5398 -0.1567
  303TIP3    H2  874   1.927   5.587   3.382 -0.0488  1.2159  0.8966
  304TIP3   OH2  875   4.199   6.284   0.874 -0.1532  0.0019  0.3874
  304TIP3    H1  876   4.161   6.349   0.933 -0.2140  0.9145 -0.6196
  304TIP3    H2  877   4.292   6.281   0.898 -0.1056  0.6304  0.3059
  305TIP3   OH2  878   3.761   1.458   2.599 -0.2070  0.0925 -1.1055
  305TIP3    H1  879   3.682   1.415   2.631  0.1939 -0.1669 -0.4598
  305TIP3    H2  880   3.774   1.532   2.658  0.9604 -0.8273 -0.1728
  306TIP3   OH2  881   4.787   1.266   4.286  0.3152  0.3553  0.2993
  306TIP3    H1  882   4.856   1.208   4.315  0.4115  0.8119  0.9974
  306TIP3    H2  883   4.832   1.332   4.233  0.5909  1.2875  1.6573
  307TIP3   OH2  884   2.334   3.453   0.688  0.4449  0.4990  0.3998
  307TIP3    H1  885   2.325   3.376   0.633 -0.2640  0.7632  0.1446
  307TIP3    H2  886   2.251   3.461   0.733 -0.5708  2.6699 -1.6285
  308TIP3   OH2  887   3.580   5.475   3.052 -0.2656  0.3438  0.2594
  308TIP3    H1  888   3.565   5.479   2.957 -0.3077 -2.0757  0.1037
  308TIP3    H2  889   3.493   5.471   3.090 -0.2464 -0.5184  0.2433
  309TIP3   OH2  890   2.609   4.537   1.022  0.0709  0.1842 -0.5430
  309TIP3    H1  891   2.614   4.618   1.073 -0.7965 -0.2592  0.2854
  309TIP3    H2  892   2.671   4.478   1.064  1.3331  0.6587 -1.6623
  310TIP3   OH2  893   5.321   1.688   2.353 -0.0049  0.4869 -0.0334
  310TIP3    H1  894   5.397   1.634   2.331 -0.0217  1.0749 -1.7062
  310TIP3    H2  895   5.353   1.778   2.343 -0.3654  0.7825  1.3132
  311TIP3   OH2  896   0.432   4.303   5.770 -0.2376 -0.5474 -0.2861
  311TIP3    H1  897   0.403   4.376   5.825 -2.1382 -1.0407 -0.5500
  311TIP3    H2  898   0.423   4.226   5.827 -0.9651 -0.8978 -0.8522
  312TIP3   OH2  899   4.677   1.821   5.223 -0.1756 -0.6824  0.8204
  312TIP3    H1  900   4.624   1.829   5.144 -0.6512 -1.3214  1.0677
  312TIP3    H2  901   4.688   1.910   5.254  0.8769 -0.3081 -0.5202
  313TIP3   OH2  902   4.454   0.098   3.083  0.2476  0.0355  0.8756
  313TIP3    H1  903   4.480   0.161   3.150 -0.4335  0.7298  0.4968
  313TIP3    H2  904   4.481   0.013   3.118 -2.7894 -0.0449  3.4910
  314TIP3   OH2  905   2.795   0.244   4.450 -0.2733 -1.2000  0.1245
  314TIP3    H1  906   2.813   0.275   4.361 -0.5825 -2.1531 -0.2816
  314TIP3    H2  907   2.801   0.323   4.505 -0.9940 -0.4347 -0.8637
  315TIP3   OH2  908   0.653   6.115   5.196 -0.1971 -0.4600  0.1826
  315TIP3    H1  909   0.619   6.198   5.163  0.5875  0.3562  1.3575
  315TIP3    H2  910   0.667   6.130   5.290  1.6444 -1.3268  0.0916
  316TIP3   OH2  911   0.219   4.305   3.784 -0.0252 -0.4022 -0.1746
  316TIP3    H1  912   0.297   4.266   3.824  0.9750  2.2323  0.6702
  316TIP3    H2  913   0.254   4.365   3.718 -1.2410  1.3360  0.6827
  317TIP3   OH2  914   7.199   3.695   2.347 -0.1425 -0.4897  0.6317
  317TIP3    H1  915   7.254   3.752   2.292 -0.4586  0.1525  0.9682
  317TIP3    H2  916   7.119   3.746   2.360 -0.7432 -1.3355  0.3117
  318TIP3   OH2  917   0.323   5.554   5.367 -0.6923  0.1225  0.0225
  318TIP3    H1  918   0.270   5.615   5.418 -0.6418  1.1259 -1.0665
  318TIP3    H2  919   0.266   5.529   5.294 -0.7924 -1.3405  0.5764
  319TIP3   OH2  920   0.317   1.529   4.232  0.6085  0.1137 -0.5055
  319TIP3    H1  921   0.399   1.553   4.191  1.2710 -0.3044  0.5272
  319TIP3    H2  922   0.342   1.488   4.315 -0.6324 -0.0954 -0.2012
  320TIP3   OH2  923   2.321   2.294   2.738 -0.6006  0.3571 -0.0477
  320TIP3    H1  924   2.318   2.281   2.833 -0.5795 -1.5430 -0.2737
  320TIP3    H2  925   2.277   2.217   2.702 -0.6225  1.0559 -1.5941
  321TIP3   OH2  926   3.307   5.564   1.430 -0.7123  0.4622 -0.2444
  321TIP3    H1  927   3.401   5.577   1.416 -0.7267  1.7695  0.7320
  321TIP3    H2  928   3.293   5.471   1.411  1.0389 -0.1072  0.9865
  322TIP3   OH2  929   2.683   2.667   3.452  0.5862  0.4293 -0.5068
  322TIP3    H1  930   2.768   2.637   3.419  0.3897 -0.5625 -0.1413
  322TIP3    H2  931   2.621   2.643   3.383  0.5158  0.6092 -0.5069
  323TIP3   OH2  932   2.472   2.463   1.944  0.2967  0.2917  0.2444
  323TIP3    H1  933   2.467   2.463   2.040  1.5820  0.7315  0.3341
  323TIP3    H2  934   2.388   2.498   1.915 -0.1459  0.0516  1.2067
  324TIP3   OH2  935   6.207   2.054   1.373 -0.2188 -0.1044 -0.1564
  324TIP3    H1  936   6.256   2.067   1.292  0.0009  1.7688  0.2334
  324TIP3    H2  937   6.197   1.959   1.380  0.7059 -0.3596 -1.8047
  325TIP3   OH2  938   6.056   3.589   1.708  0.3677 -0.5458 -0.5835
  325TIP3    H1  939   6.129   3.565   1.651  1.1886  1.7204 -0.5913
  325TIP3    H2  940   6.030   3.676   1.678 -0.0809  0.1363  1.6007
  326TIP3   OH2  941   3.438   0.999   0.903  0.3503  0.0119  0.5399
  326TIP3    H1  942   3.424   0.969   0.992  1.1086  0.3954  0.7980
  326TIP3    H2  943   3.357   0.977   0.857 -0.2994  0.3917  1.4710
  327TIP3   OH2  944   0.945   2.625   2.569  0.2577  0.1691 -0.0258
  327TIP3    H1  945   0.957   2.532   2.552 -0.7329 -0.5185  2.6658
  327TIP3    H2  946   1.013   2.647   2.632 -0.5223  0.8582  0.6008
  328TIP3   OH2  947   4.443   3.755   4.061 -0.6407 -0.4968 -0.8234
  328TIP3    H1  948   4.514   3.798   4.109 -1.4128  0.0318 -0.1332
  328TIP3    H2  949   4.472   3.756   3.970  0.4555 -0.7334 -0.4859
  329TIP3   OH2  950   3.057   6.091   3.876 -0.1710  0.5575 -0.3482
  329TIP3    H1  951   2.989   6.154   3.899 -1.5603 -1.1875  0.5415
  329TIP3    H2  952   3.071   6.040   3.956  0.0265 -1.0398 -1.3568
  330TIP3   OH2  953   2.447   4.384   5.076  0.4466  0.7317 -0.0152
  330TIP3    H1  954   2.444   4.317   5.008 -0.5022  0.2599  0.4700
  330TIP3    H2  955   2.491   4.342   5.150  1.2396  1.1587 -0.2294
  331TIP3   OH2  956   3.517   3.359   1.684 -0.3490  0.1605  0.2608
  331TIP3    H1  957   3.427   3.388   1.699  0.3605  2.7886 -0.0936
  331TIP3    H2  958   3.537   3.390   1.595  1.0890  0.1256  0.5532
  332TIP3   OH2  959   3.050   5.450   0.686 -0.3305 -0.4472 -0.0478
  332TIP3    H1  960   3.028   5.412   0.600 -1.4320 -0.6307  0.2987
  332TIP3    H2  961   3.145   5.461   0.684  0.1586 -3.7496  0.0159
  333TIP3   OH2  962   3.670   3.610   0.652  0.3399  0.3780 -0.5526
  333TIP3    H1  963   3.645   3.519   0.666  0.3605  0.3958 -0.3922
  333TIP3    H2  964   3.701   3.640   0.738  0.6132  0.4497 -0.6751
  334TIP3   OH2  965   2.720   5.273   4.343 -0.1413 -0.4477 -0.0946
  334TIP3    H1  966   2.811   5.281   4.315  1.4390 -0.5050  4.1938
  334TIP3    H2  967   2.715   5.186   4.382 -2.9276 -1.5416 -2.5313
  335TIP3   OH2  968   1.755   4.973   1.004  0.5214 -0.9315 -0.0327
  335TIP3    H1  969   1.793   5.053   0.968  1.7938 -1.9048 -0.9602
  335TIP3    H2  970   1.681   4.954   0.947 -0.8600  0.4650  1.2146
  336TIP3   OH2  971   1.485   1.890   0.526 -0.2570  0.1745  0.4022
  336TIP3    H1  972   1.477   1.873   0.432 -1.7599  2.3226  0.0789
  336TIP3    H2  973   1.434   1.820   0.567 -1.3247  0.3872 -0.5153
  337TIP3   OH2  974   6.039   5.046   4.489 -0.0555  0.2926 -0.7076
  337TIP3    H1  975   6.107   4.988   4.454 -0.2274 -0.1386 -0.3375
  337TIP3    H2  976   6.087   5.116   4.533  0.1511 -0.2544 -0.0503
  338TIP3   OH2  977   5.158   6.038   1.061 -0.2546 -0.0280 -0.0077
  338TIP3    H1  978   5.108   5.962   1.031 -0.3222 -0.4800  1.1875
  338TIP3    H2  979   5.136   6.107   0.999 -2.5311 -0.1501  0.5799
  339TIP3   OH2  980   1.199   1.453   0.770  0.2665 -0.0557  0.2042
  339TIP3    H1  981   1.244   1.492   0.845  1.5276  0.0062 -0.5575
  339TIP3    H2  982   1.109   1.441   0.800  0.4482  1.0987  1.3129
  340TIP3   OH2  983   3.995   5.824   0.094  0.1557 -0.0941  0.2149
  340TIP3    H1  984   3.991   5.841   0.188 -0.9781  1.4580 -0.0788
  340TIP3    H2  985   4.080   5.860   0.068 -0.0432  0.5792  0.4616
  341TIP3   OH2  986   1.298   1.747   0.930 -0.6082  0.0933 -0.2908
  341TIP3    H1  987   1.348   1.668   0.954  0.6432  1.0409  0.3606
  341TIP3    H2  988   1.242   1.764   1.006 -0.4548  0.1513 -0.1895
  342TIP3   OH2  989   2.185   0.076   2.769 -0.1181  0.0530  0.5071
  342TIP3    H1  990   2.167   0.005   2.707  0.4799 -0.4776  0.9177
  342TIP3    H2  991   2.160   0.040   2.854  0.9217  0.0227  0.8237
  343TIP3   OH2  992   0.801   0.798   0.507 -0.1006  0.1686 -0.1722
  343TIP3    H1  993   0.814   0.808   0.412 -0.3202  0.0884 -0.2115
  343TIP3    H2  994   0.853   0.721   0.530 -0.6013 -0.2311 -0.3517
  344TIP3   OH2  995   3.345   3.188   5.681  0.1975  0.0809 -0.2652
  344TIP3    H1  996   3.356   3.094   5.664  0.0220  0.1597 -0.8089
  344TIP3    H2  997   3.253   3.205   5.662  0.4295  0.5379 -0.9986
  345TIP3   OH2  998   6.602   0.287   5.584 -0.3173  0.6489 -0.3770
  345TIP3    H1  999   6.688   0.270   5.622 -1.2213  0.6037  1.7762
  345TIP3    H2 1000   6.595   0.225   5.511  0.6012 -0.9232  0.8130
  346TIP3   OH2 1001   2.503   3.144   0.422 -0.0237 -0.3104  0.1478
  346TIP3    H1 1002   2.580   3.129   0.477  1.0589  0.7426 -0.9972
  346TIP3    H2 1003   2.429   3.137   0.481  0.9202 -1.6834  1.2388
  347TIP3   OH2 1004   6.011   3.720   4.633 -0.1267 -0.0495  0.4055
  347TIP3    H1 1005   5.923   3.687   4.650 -1.0508  1.9440 -0.1333
  347TIP3    H2 1006   6.042   3.670   4.558 -2.1350  1.2787 -1.4347
  348TIP3   OH2 1007   0.584   4.909   3.746  0.4052 -0.9777  0.3172
  348TIP3    H1 1008   0.605   4.817   3.729 -1.6721 -1.5057  0.2721
  348TIP3    H2 1009   0.593   4.919   3.841  0.2944 -1.3410  0.3686
  349TIP3   OH2 1010  -0.023   3.085   5.562  0.5300 -0.6865  0.6291
  349TIP3    H1 1011   0.024   3.035   5.629  4.0488 -1.1953 -1.9362
  349TIP3    H2 1012   0.035   3.158   5.542 -1.2978  0.5001 -0.5951
  350TIP3   OH2 1013   5.072   1.850   2.513 -0.6117  0.0190 -0.1391
  350TIP3    H1 1014   5.088   1.820   2.424 -0.0180  1.2909 -0.4781
  350TIP3    H2 1015   5.146   1.818   2.563 -0.9960 -0.7815 -0.0755
  351TIP3   OH2 1016   0.012   5.908   3.226  0.5672  0.5409 -0.4596
  351TIP3    H1 1017   0.084   5.955   3.268  1.8265 -1.4809 -0.2005
  351TIP3    H2 1018  -0.051   5.892   3.297  1.1596 -0.0402 -0.0546
  352TIP3   OH2 1019   6.991   6.045   3.731  0.2435  0.1195  0.1247
  352TIP3    H1 1020   6.897   6.035   3.748  0.2107 -0.5024 -0.3616
  352TIP3    H2 1021   7.034   5.999   3.802  0.1024 -3.1134 -1.7030
  353TIP3   OH2 1022   5.885   2.874   0.882  0.0076 -0.2691 -0.0394
  353TIP3    H1 1023   5.932   2.881   0.799 -0.1333  0.1358 -0.0898
  353TIP3    H2 1024   5.809   2.931   0.872 -0.0923 -0.3356  0.3122
  354TIP3   OH2 1025   5.583   3.800   5.043 -0.2344 -0.2884 -0.2840
  354TIP3    H1 1026   5.516   3.797   5.112  0.1836 -1.2007  0.0981
  354TIP3    H2 1027   5.557   3.732   4.981  0.4027 -0.7362 -0.0671
  355TIP3   OH2 1028   2.097   1.125   2.939 -0.6161 -0.3223 -0.3458
  355TIP3    H1 1029   2.074   1.150   2.850 -0.9846 -0.2043 -0.2181
  355TIP3    H2 1030   2.142   1.201   2.975 -0.4782 -0.3655 -0.4252
  356TIP3   OH2 1031   1.783   4.732   5.133 -0.1207 -0.1012 -0.2511
  356TIP3    H1 1032   1.800   4.687   5.216 -1.0731  1.3491  0.7861
  356TIP3    H2 1033   1.689   4.751   5.136  0.1099  1.2091 -1.0305
  357TIP3   OH2 1034   0.560   3.057   1.992  0.2671 -0.1808  0.3751
  357TIP3    H1 1035   0.634   3.117   1.988 -0.6250  0.9474 -0.0854
  357TIP3    H2 1036   0.552   3.033   2.084  2.0128 -1.4122  0.2414
  358TIP3   OH2 1037   2.764   2.201   3.375 -0.2750  0.4370  0.7626
  358TIP3    H1 1038   2.749   2.220   3.468  0.0324  1.2377  0.6587
  358TIP3    H2 1039   2.677   2.210   3.335 -0.0687  2.1774  0.6400
  359TIP3   OH2 1040   3.957   5.773   3.885 -0.4698  0.3744  0.3317
  359TIP3    H1 1041   3.900   5.710   3.928 -0.9114  1.0555  0.7726
  359TIP3    H2 1042   3.933   5.857   3.924  2.1808  0.4711  2.0064
  360TIP3   OH2 1043   1.441   1.413   1.981  0.5266  0.1995 -0.2477
  360TIP3    H1 1044   1.505   1.349   1.949  0.2485 -0.2057 -0.0118
  360TIP3    H2 1045   1.432   1.393   2.074  0.4961  0.6412 -0.1555
  361TIP3   OH2 1046   2.260   2.484   1.206 -0.3261  0.1163  0.5182
  361TIP3    H1 1047   2.267   2.392   1.234  0.0950 -0.0747 -0.1980
  361TIP3    H2 1048   2.217   2.528   1.279  0.4714 -0.4322  1.3348
  362TIP3   OH2 1049   5.174   2.386   3.563 -0.3619 -0.0462  0.1018
  362TIP3    H1 1050   5.125   2.309   3.535 -1.1740  0.3019  0.5216
  362TIP3    H2 1051   5.122   2.460   3.530 -1.6176  0.3974  2.8317
  363TIP3   OH2 1052   3.387   0.660   5.703  0.2855 -1.4480 -0.7085
  363TIP3    H1 1053   3.361   0.682   5.613  0.6407  0.9309 -0.2928
  363TIP3    H2 1054   3.311   0.685   5.756  1.1597  0.0190 -0.0897
  364TIP3   OH2 1055   1.795   5.069   1.956  0.2846  0.6357 -0.2521
  364TIP3    H1 1056   1.800   5.022   2.039  0.5659  0.0330 -0.6043
  364TIP3    H2 1057   1.863   5.029   1.902 -1.7158 -0.9315 -1.7558
  365TIP3   OH2 1058   6.967   1.613   3.568 -0.2978 -0.1138  0.0198
  365TIP3    H1 1059   6.916   1.545   3.611  1.2628 -0.6436  1.1240
  365TIP3    H2 1060   6.957   1.690   3.624  1.0151 -0.5531  0.9052
  366TIP3   OH2 1061   2.040   0.553   0.866 -0.0169 -0.1464  0.6727
  366TIP3    H1 1062   2.072   0.532   0.953 -0.2558  0.6766  0.9673
  366TIP3    H2 1063   2.117   0.587   0.820  0.0135 -0.1869  0.6934
  367TIP3   OH2 1064   0.259   0.237   2.395 -0.3975  0.0120  0.2614
  367TIP3    H1 1065   0.240   0.154   2.440  0.2268  1.0428  2.5649
  367TIP3    H2 1066   0.229   0.304   2.455  1.5465  1.5124 -0.3375
  368TIP3   OH2 1067   1.477   1.177   3.576 -0.0068  0.0030 -0.4249
  368TIP3    H1 1068   1.397   1.130   3.551 -1.9238  3.1430 -0.6486
  368TIP3    H2 1069   1.468   1.191   3.671  0.5077 -0.0231 -0.3715
  369TIP3   OH2 1070   6.496   1.699   2.299 -0.2070  0.4574 -0.2663
  369TIP3    H1 1071   6.469   1.783   2.335 -2.0174 -0.1140 -0.1925
  369TIP3    H2 1072   6.550   1.660   2.368  0.5375  1.4860 -0.2489
  370TIP3   OH2 1073   0.576   3.358   0.320  0.3376  0.6043  0.5606
  370TIP3    H1 1074   0.555   3.387   0.231 -1.1657  1.7071  1.2256
  370TIP3    H2 1075   0.549   3.266   0.323  0.7984  0.4384 -0.2376
  371TIP3   OH2 1076   3.534   5.781   0.238  0.3512 -0.1931 -0.2099
  371TIP3    H1 1077   3.452   5.789   0.190  0.4901 -1.0340 -0.6070
  371TIP3    H2 1078   3.508   5.785   0.330  0.1359  1.8689 -0.3270
  372TIP3   OH2 1079   5.295   6.691   3.799  0.2038  0.3885  0.6282
  372TIP3    H1 1080   5.337   6.772   3.831  0.2017 -0.0050  1.6704
  372TIP3    H2 1081   5.368   6.636   3.770  0.1349  1.2646 -1.3948
  373TIP3   OH2 1082   3.694   3.364   2.485  0.6944  0.0371 -0.2497
  373TIP3    H1 1083   3.655   3.411   2.412 -1.3766 -1.7671 -0.4156
  373TIP3    H2 1084   3.709   3.275   2.452  0.6787 -0.5371  1.1994
  374TIP3   OH2 1085   0.210   5.442   3.267  0.4004  0.1858  0.0326
  374TIP3    H1 1086   0.254   5.422   3.185  0.4468  0.5849 -0.0400
  374TIP3    H2 1087   0.277   5.431   3.334  0.1649 -0.9214  0.1070
  375TIP3   OH2 1088   5.498   3.045   3.666  0.1384 -0.1240  0.2267
  375TIP3    H1 1089   5.577   3.098   3.673  0.3949 -0.6733  2.0209
  375TIP3    H2 1090   5.458   3.072   3.583  1.2161  1.5141  0.2007
  376TIP3   OH2 1091   4.477   4.905   0.782 -0.1433 -0.9426  0.2541
  376TIP3    H1 1092   4.533   4.955   0.842  0.2727 -0.7970 -0.2499
  376TIP3    H2 1093   4.388   4.935   0.803 -0.2453 -2.4735  2.2914
  377TIP3   OH2 1094   5.042   4.757   5.872 -0.3945  0.4256  0.2134
  377TIP3    H1 1095   5.034   4.812   5.950  1.0418 -0.7114  1.2166
  377TIP3    H2 1096   5.135   4.757   5.852 -0.6035 -0.2332 -0.8189
  378TIP3   OH2 1097   6.665   1.897   2.421 -1.0317  0.0768 -0.0230
  378TIP3    H1 1098   6.717   1.897   2.341  0.2009 -0.9510  0.7276
  378TIP3    H2 1099   6.604   1.970   2.411 -0.2629  0.5541 -1.4713
  379TIP3   OH2 1100   1.463   5.952   5.597 -0.9213  0.3027  0.0598
  379TIP3    H1 1101   1.401   5.889   5.558  1.0952 -1.3031 -0.7685
  379TIP3    H2 1102   1.497   5.906   5.674  0.7592  0.2414 -0.6899
  380TIP3   OH2 1103   6.505   4.683   1.906 -0.4183 -0.7055  0.3283
  380TIP3    H1 1104   6.553   4.693   1.824  0.6604  0.6179  1.0711
  380TIP3    H2 1105   6.417   4.655   1.879 -0.2423  0.1725 -1.3069
  381TIP3   OH2 1106   5.593   6.234   1.804  0.4721 -0.8081 -0.1642
  381TIP3    H1 1107   5.687   6.221   1.817  0.5688 -0.4154 -0.4352
  381TIP3    H2 1108   5.554   6.211   1.888  0.9312  0.1814  0.3527
  382TIP3   OH2 1109   2.531   1.232   2.931  0.1592  0.0602 -0.1093
  382TIP3    H1 1110   2.611   1.276   2.903 -0.1342 -0.3236 -1.6544
  382TIP3    H2 1111   2.535   1.146   2.889 -0.9267 -0.0689  0.0223
  383TIP3   OH2 1112   3.280   5.146   1.094  0.2181 -0.3610 -0.2208
  383TIP3    H1 1113   3.257   5.218   1.035 -1.2691 -1.0300 -0.4942
  383TIP3    H2 1114   3.218   5.077   1.073  0.1236 -0.8884  1.6410
  384TIP3   OH2 1115   1.269   6.247   0.780 -0.3228 -0.0848 -0.3281
  384TIP3    H1 1116   1.252   6.165   0.828 -0.3157  0.2197  0.2086
  384TIP3    H2 1117   1.320   6.299   0.841  0.2085  0.0772 -0.9083
  385TIP3   OH2 1118   6.493   5.909   0.446 -0.6025  0.0336 -0.1275
  385TIP3    H1 1119   6.403   5.891   0.474 -0.8356 -1.1923 -1.5136
  385TIP3    H2 1120   6.491   5.897   0.351  0.8027  1.0390 -0.3117
  386TIP3   OH2 1121   2.583   3.289   4.759 -0.5177  0.3938 -0.3696
  386TIP3    H1 1122   2.544   3.241   4.832 -1.9251  0.9089 -0.7565
  386TIP3    H2 1123   2.618   3.369   4.799 -0.3249  0.1765 -0.0999
  387TIP3   OH2 1124   1.981   0.637   5.770 -0.7385  0.0723 -0.3449
  387TIP3    H1 1125   2.072   0.608   5.766 -0.0971  1.9615 -0.8229
  387TIP3    H2 1126   1.941   0.604   5.690 -0.3592 -0.3934 -0.3454
  388TIP3   OH2 1127   0.782   1.200   2.674  0.2826 -0.4183 -0.1694
  388TIP3    H1 1128   0.857   1.259   2.661 -0.4423  0.7550  0.7987
  388TIP3    H2 1129   0.721   1.224   2.604  0.5224 -0.9526 -0.5767
  389TIP3   OH2 1130   3.970   3.182   2.498 -0.6052  0.4911 -0.1393
  389TIP3    H1 1131   3.883   3.141   2.496 -0.9010  1.0822  0.4647
  389TIP3    H2 1132   3.992   3.186   2.591  0.0787  0.3377 -0.2923
  390TIP3   OH2 1133   2.858   5.758   2.095  0.0150 -0.4996 -0.2047
  390TIP3    H1 1134   2.857   5.804   2.012  0.2726  1.0428  0.5999
  390TIP3    H2 1135   2.849   5.665   2.072  0.2138 -0.1233 -1.9325
  391TIP3   OH2 1136   2.551   3.571   1.486  0.1859  0.1280  0.4641
  391TIP3    H1 1137   2.603   3.575   1.406 -1.5945  2.8875 -0.7156
  391TIP3    H2 1138   2.595   3.631   1.546 -0.8641  1.4886 -0.0855
  392TIP3   OH2 1139   6.753   2.130   2.715  0.0028 -0.4412  0.7396
  392TIP3    H1 1140   6.785   2.041   2.700  0.1930 -0.1503 -0.7368
  392TIP3    H2 1141   6.747   2.137   2.811  0.9918 -1.6805  0.9296
  393TIP3   OH2 1142   7.076   2.871   1.246 -0.0016  0.2921  0.1154
  393TIP3    H1 1143   6.990   2.887   1.206 -0.1342 -0.0429  0.2596
  393TIP3    H2 1144   7.130   2.945   1.218 -0.1854  0.2289 -0.4171
  394TIP3   OH2 1145   0.450   4.258   2.961  0.8387  0.4500  0.1441
  394TIP3    H1 1146   0.481   4.313   2.889  0.6470  0.4817  0.0839
  394TIP3    H2 1147   0.440   4.317   3.035 -0.4849  0.7250 -0.2386
  395TIP3   OH2 1148   5.326   1.789   1.965 -0.3079  0.1458  0.2069
  395TIP3    H1 1149   5.255   1.852   1.957 -0.5119 -0.0324  0.5710
  395TIP3    H2 1150   5.285   1.704   1.949 -0.0018  0.1162 -0.4383
  396TIP3   OH2 1151   2.560   3.089   4.574 -0.2196 -0.8383  0.1630
  396TIP3    H1 1152   2.570   2.994   4.582 -3.4424 -1.1258  4.3408
  396TIP3    H2 1153   2.475   3.101   4.532 -1.0040  0.0052  1.8600
  397TIP3   OH2 1154   4.300   3.325   2.409  0.8604 -0.5516  0.3184
  397TIP3    H1 1155   4.375   3.350   2.462 -0.8871  2.3336  1.6475
  397TIP3    H2 1156   4.231   3.307   2.473 -0.4870  0.1453 -0.8893
  398TIP3   OH2 1157   2.376   5.867   1.599 -0.0498  0.4631 -0.5142
  398TIP3    H1 1158   2.287   5.891   1.575 -0.5112 -0.4039  0.2567
  398TIP3    H2 1159   2.391   5.783   1.554 -0.6671 -0.8215  1.5450
  399TIP3   OH2 1160   4.533   6.614   5.202 -0.1071  0.0719  0.1239
  399TIP3    H1 1161   4.443   6.582   5.212  0.2526 -1.5746 -1.4140
  399TIP3    H2 1162   4.557   6.645   5.290 -1.3902 -1.5917  1.1330
  400TIP3   OH2 1163   3.440   1.157   3.936 -0.5486  0.0377  0.6661
  400TIP3    H1 1164   3.430   1.220   4.008 -0.6588 -0.5233  1.1445
  400TIP3    H2 1165   3.496   1.203   3.873 -1.7296  1.1414  0.3744
  401TIP3   OH2 1166   1.006   3.939   0.391 -0.0373  0.1413  0.8494
  401TIP3    H1 1167   1.015   3.854   0.349  2.3914  0.9275 -0.4135
  401TIP3    H2 1168   0.949   3.923   0.466 -0.7595 -2.2836 -0.1218
  402TIP3   OH2 1169   0.748   5.065   3.372  0.6423  0.9121 -0.2021
  402TIP3    H1 1170   0.696   5.121   3.430 -0.2545  1.5020 -1.5272
  402TIP3    H2 1171   0.831   5.112   3.362  0.6626  0.9885  0.2892
  403TIP3   OH2 1172   4.542   2.908   4.452 -0.2832  0.1967  0.0869
  403TIP3    H1 1173   4.583   2.826   4.477  0.4881  0.4880 -0.1806
  403TIP3    H2 1174   4.506   2.892   4.364  0.9684  0.5049 -0.5002
  404TIP3   OH2 1175   5.026   2.573   4.567  0.7011  0.4501 -0.5351
  404TIP3    H1 1176   4.953   2.514   4.547  1.2640 -0.3143 -0.4027
  404TIP3    H2 1177   5.048   2.613   4.483  0.7517 -0.0522 -0.7645
  405TIP3   OH2 1178   6.333   1.028   2.778 -0.7465  0.1752 -0.3283
  405TIP3    H1 1179   6.387   1.095   2.735 -1.5803  1.6081  0.7478
  405TIP3    H2 1180   6.248   1.071   2.790 -0.6007 -0.1398  2.6056
  406TIP3   OH2 1181   2.008   3.425   3.870  0.3985 -0.1838  0.0586
  406TIP3    H1 1182   2.040   3.490   3.807 -0.6802 -0.2784 -0.6082
  406TIP3    H2 1183   2.003   3.343   3.820  0.3620 -0.4525  0.4986
  407TIP3   OH2 1184   2.751   2.669   4.928 -0.0055 -0.0688  0.5662
  407TIP3    H1 1185   2.657   2.686   4.943  0.0815 -0.3897  1.5943
  407TIP3    H2 1186   2.795   2.742   4.972  0.2700 -0.9547  1.8045
  408TIP3   OH2 1187   3.095   6.206   0.598 -0.2419 -0.3829 -0.0168
  408TIP3    H1 1188   3.049   6.124   0.614  1.2836 -1.3777 -0.5045
  408TIP3    H2 1189   3.161   6.184   0.533  2.0206  0.5449  1.8052
  409TIP3   OH2 1190   5.042   3.667   2.671 -0.2920 -0.4229 -0.0664
  409TIP3    H1 1191   5.070   3.586   2.629 -0.5119  0.1845 -1.4600
  409TIP3    H2 1192   5.033   3.730   2.599 -0.3345  0.7869  0.9463
  410TIP3   OH2 1193   5.737   0.171   5.757  0.0450  0.0645  0.2921
  410TIP3    H1 1194   5.715   0.137   5.844  2.7696  0.6529  1.3117
  410TIP3    H2 1195   5.798   0.243   5.774  0.0967  0.6757 -2.1035
  411TIP3   OH2 1196   0.967   3.305   3.627 -0.2311 -0.4386 -0.3490
  411TIP3    H1 1197   1.025   3.376   3.655  1.1491 -1.3567 -0.7935
  411TIP3    H2 1198   0.901   3.348   3.573  0.1638  0.6047 -0.0251
  412TIP3   OH2 1199   5.384   6.105   4.522  0.0396 -0.4350 -0.2948
  412TIP3    H1 1200   5.423   6.192   4.522 -3.7756  1.4480  0.3848
  412TIP3    H2 1201   5.385   6.078   4.613 -1.2481  0.1843 -0.0755
  413TIP3   OH2 1202   2.740   5.049   3.557 -0.6872  0.3897 -0.5471
  413TIP3    H1 1203   2.730   4.986   3.485 -0.5970 -0.9317  0.5584
  413TIP3    H2 1204   2.816   5.018   3.606 -0.4542  1.5478 -0.1458
  414TIP3   OH2 1205   5.213   5.590   0.467  1.1386  0.1410 -0.3761
  414TIP3    H1 1206   5.156   5.627   0.400  1.6591  1.8498  0.0589
  414TIP3    H2 1207   5.158   5.586   0.546  0.8941 -0.6578 -0.5819
  415TIP3   OH2 1208   6.637   0.729   1.017  0.6410 -0.4232 -0.5849
  415TIP3    H1 1209   6.730   0.718   1.033  0.3776 -1.0033  0.6297
  415TIP3    H2 1210   6.624   0.824   1.013  1.2037 -0.3348 -0.2942
  416TIP3   OH2 1211   2.449   6.637   3.526 -0.2140  0.3266  0.1101
  416TIP3    H1 1212   2.432   6.545   3.546  0.4960 -0.1332 -1.2497
  416TIP3    H2 1213   2.543   6.642   3.509  0.0607  1.6624  1.7953
  417TIP3   OH2 1214   4.165   5.414   3.484 -0.0288  0.4945  0.1976
  417TIP3    H1 1215   4.180   5.492   3.430  0.5688  1.9469  2.3525
  417TIP3    H2 1216   4.189   5.441   3.572 -0.2615 -2.0227  1.0986
  418TIP3   OH2 1217   6.246   0.936   3.021  0.0124  0.2753  0.5990
  418TIP3    H1 1218   6.172   0.979   2.977 -0.9398 -1.4207  0.4345
  418TIP3    H2 1219   6.314   0.930   2.953  0.1790  1.5155  0.6402
  419TIP3   OH2 1220   1.737   6.546   2.519 -0.8602 -0.5875 -0.4236
  419TIP3    H1 1221   1.746   6.451   2.529 -0.4715 -0.4969  0.1684
  419TIP3    H2 1222   1.660   6.568   2.572 -0.7812 -0.5367 -0.3292
  420TIP3   OH2 1223   4.790   1.582   3.593  0.0572 -0.1959 -1.1114
  420TIP3    H1 1224   4.869   1.568   3.542  0.5754  1.9623 -0.9981
  420TIP3    H2 1225   4.759   1.668   3.566 -0.5575  0.3076  1.0078
  421TIP3   OH2 1226   1.401   2.542   0.838 -0.0539  0.0615  0.1225
  421TIP3    H1 1227   1.463   2.583   0.898 -0.9515 -1.2979  2.0852
  421TIP3    H2 1228   1.426   2.450   0.836 -1.1661 -0.2529 -0.1389
  422TIP3   OH2 1229   4.223   5.714   3.874  0.6332 -0.2216 -0.6094
  422TIP3    H1 1230   4.239   5.664   3.954  0.8962 -0.2284 -0.6664
  422TIP3    H2 1231   4.132   5.742   3.882  0.7058 -0.0882 -0.2329
  423TIP3   OH2 1232   5.247   6.406   2.541 -0.1861  0.2445  0.0491
  423TIP3    H1 1233   5.187   6.366   2.604 -0.2718 -1.6300 -1.1503
  423TIP3    H2 1234   5.234   6.500   2.552 -1.7947 -0.0768  1.2794
  424TIP3   OH2 1235   2.837   3.404   2.256  0.4338 -0.2986  0.6064
  424TIP3    H1 1236   2.883   3.341   2.201  0.7048  0.6212 -0.2583
  424TIP3    H2 1237   2.751   3.366   2.269  1.1517 -1.6512  1.5449
  425TIP3   OH2 1238   3.411   5.712   0.515  0.1431  0.7078  0.0201
  425TIP3    H1 1239   3.362   5.649   0.568  0.0481  1.1403  0.4594
  425TIP3    H2 1240   3.483   5.741   0.571  0.3067  0.8368 -0.2496
  426TIP3   OH2 1241   1.907   4.475   0.717 -0.1074 -0.6231 -0.1479
  426TIP3    H1 1242   1.967   4.427   0.661 -1.8622 -2.1219 -0.8450
  426TIP3    H2 1243   1.855   4.407   0.760 -0.5816  0.5868  1.2529
  427TIP3   OH2 1244   5.030   5.064   2.894 -0.0624  0.0342 -0.1360
  427TIP3    H1 1245   5.026   5.108   2.979  1.5276  1.9226 -0.9614
  427TIP3    H2 1246   4.957   5.101   2.844 -0.6306 -0.6349  0.1741
  428TIP3   OH2 1247   1.469   5.069   0.060 -0.0185  0.1010 -0.1404
  428TIP3    H1 1248   1.424   5.014  -0.005  0.4284  1.7393 -1.9368
  428TIP3    H2 1249   1.560   5.072   0.029  0.1171  1.2566  0.3263
  429TIP3   OH2 1250   3.525   2.011   3.731 -0.2931 -0.4408  0.1738
  429TIP3    H1 1251   3.534   2.087   3.673  1.0458  0.3975  1.4166
  429TIP3    H2 1252   3.437   2.019   3.767  0.0947  1.0009  0.8761
  430TIP3   OH2 1253   0.856   5.034   1.124 -0.3188 -0.0823  0.4523
  430TIP3    H1 1254   0.902   5.111   1.090  0.4292 -0.5823  0.3124
  430TIP3    H2 1255   0.812   4.997   1.047 -0.1041 -0.1924  0.3825
  431TIP3   OH2 1256   0.100   1.908   0.672 -0.0652  0.6142  0.5153
  431TIP3    H1 1257   0.117   1.952   0.756  2.9816 -1.8464  1.3632
  431TIP3    H2 1258   0.182   1.917   0.623 -1.2022  0.4727 -1.5018
  432TIP3   OH2 1259   4.251   5.583   4.117  0.1543  0.7247 -0.0467
  432TIP3    H1 1260   4.175   5.533   4.147  0.1203  1.0878  0.4792
  432TIP3    H2 1261   4.309   5.587   4.194  0.9451  0.0206 -0.5744
  433TIP3   OH2 1262   6.305   6.458   2.529  0.6535  0.3548 -0.1527
  433TIP3    H1 1263   6.334   6.546   2.553  2.6773  0.0293 -1.1960
  433TIP3    H2 1264   6.295   6.413   2.613  0.3141  1.3534  0.3627
  434TIP3   OH2 1265   5.686   3.764   0.777 -0.0372  0.5855  0.0771
  434TIP3    H1 1266   5.718   3.681   0.812 -0.9260  0.7291  1.3057
  434TIP3    H2 1267   5.614   3.740   0.718 -0.0565  0.4602  0.1526
  435TIP3   OH2 1268   6.756   6.571   4.206 -0.6909 -0.4093  0.6958
  435TIP3    H1 1269   6.803   6.519   4.271 -2.1975 -2.5902  0.1733
  435TIP3    H2 1270   6.776   6.529   4.123 -0.1988  1.2538 -0.0568
  436TIP3   OH2 1271   5.717   2.364   5.535 -0.1735 -0.2328 -0.2268
  436TIP3    H1 1272   5.741   2.288   5.587 -1.4130 -0.7150 -0.3136
  436TIP3    H2 1273   5.765   2.437   5.574 -1.3052 -0.5242  1.8206
  437TIP3   OH2 1274   4.279   4.446   4.527 -0.2792  0.2366 -0.5133
  437TIP3    H1 1275   4.334   4.475   4.454  0.3243  1.5984  0.4450
  437TIP3    H2 1276   4.211   4.513   4.534  1.2954  1.7698  1.9089
  438TIP3   OH2 1277   2.438   2.072   0.579  0.3864  1.1079  0.1323
  438TIP3    H1 1278   2.479   2.126   0.646  0.6417  0.4431  0.5168
  438TIP3    H2 1279   2.359   2.036   0.622  0.5878  0.6261  0.1095
  439TIP3   OH2 1280   0.580   6.644   0.331  0.0384  0.0472 -0.6784
  439TIP3    H1 1281   0.641   6.613   0.264 -0.5442  0.1024 -1.2438
  439TIP3    H2 1282   0.636   6.671   0.404  0.8269  1.6967 -1.8125
  440TIP3   OH2 1283   5.409   5.164   1.929  0.4210  0.0922 -0.0482
  440TIP3    H1 1284   5.436   5.075   1.906  0.7913 -0.0700  0.9830
  440TIP3    H2 1285   5.492   5.211   1.942  0.2224  0.4572 -0.1024
  441TIP3   OH2 1286   4.015   5.613   5.894  0.1498  0.6217 -0.4016
  441TIP3    H1 1287   4.086   5.678   5.894 -0.2383  1.0884  0.8260
  441TIP3    H2 1288   3.938   5.662   5.866  0.0144  0.5030 -0.2420
  442TIP3   OH2 1289   2.488   3.549   2.784 -0.1230  0.0805 -0.1478
  442TIP3    H1 1290   2.574   3.509   2.801 -0.3319 -0.8352 -1.1630
  442TIP3    H2 1291   2.426   3.494   2.831 -0.1644  0.8494  0.7389
  443TIP3   OH2 1292   1.160   0.251   2.433 -0.4264  0.4176  0.0348
  443TIP3    H1 1293   1.247   0.218   2.410 -1.4817 -2.7505  0.0995
  443TIP3    H2 1294   1.136   0.309   2.361  0.9400 -0.2966 -1.0311
  444TIP3   OH2 1295   4.086   4.087   3.166 -0.3557 -0.1032 -0.2704
  444TIP3    H1 1296   4.167   4.076   3.117  0.0723  0.2683  0.3461
  444TIP3    H2 1297   4.075   4.182   3.174 -1.4815 -0.1064 -1.3733
  445TIP3   OH2 1298   5.702   0.411   1.018  0.4910  0.5131  0.3117
  445TIP3    H1 1299   5.735   0.350   0.953  2.3590 -0.2283  1.8487
  445TIP3    H2 1300   5.696   0.495   0.973 -1.0472 -0.5153 -1.5390
  446TIP3   OH2 1301   4.067  -0.010   3.863 -0.7525 -0.1095  0.1067
  446TIP3    H1 1302   4.112   0.074   3.871  0.6431 -0.8946  1.1246
  446TIP3    H2 1303   4.006  -0.011   3.937  0.0092 -0.3950  0.7597
  447TIP3   OH2 1304   6.921   0.900   1.315  0.0031  0.1036 -0.9441
  447TIP3    H1 1305   7.006   0.903   1.359  0.3075  0.7154 -1.5408
  447TIP3    H2 1306   6.857   0.891   1.385  0.4922  0.7290 -0.4013
  448TIP3   OH2 1307   0.982   2.671   2.196 -0.2993  0.3915 -0.8958
  448TIP3    H1 1308   1.022   2.649   2.280 -1.3793  2.3009  0.2097
  448TIP3    H2 1309   1.023   2.613   2.133 -0.3056 -1.9379  1.1200
  449TIP3   OH2 1310   4.533   1.868   1.391  0.2646 -0.4783  0.2360
  449TIP3    H1 1311   4.609   1.852   1.335  0.0196 -0.6305 -0.0561
  449TIP3    H2 1312   4.465   1.809   1.358 -0.5808  0.9428 -0.7090
  450TIP3   OH2 1313   3.382   6.638   5.719 -0.0625 -0.0563  0.3121
  450TIP3    H1 1314   3.460   6.627   5.665  1.6844 -1.7886  2.9758
  450TIP3    H2 1315   3.390   6.727   5.755  0.5236 -0.1089  0.3171
  451TIP3   OH2 1316   3.065   6.256   5.724 -0.1141 -0.1415 -0.4216
  451TIP3    H1 1317   3.106   6.339   5.699 -1.9337  0.0731 -3.0635
  451TIP3    H2 1318   3.139   6.197   5.741  1.2344  1.4522 -0.4601
  452TIP3   OH2 1319   3.023   4.468   5.064 -0.1281  0.0692 -0.4578
  452TIP3    H1 1320   2.947   4.417   5.035  0.1821  0.3971 -1.9178
  452TIP3    H2 1321   2.993   4.514   5.142 -1.3732  0.0295 -0.8979
  453TIP3   OH2 1322   1.096   3.483   2.298  0.1167 -1.1379  0.1247
  453TIP3    H1 1323   1.143   3.406   2.330  0.0304 -0.9530  0.7023
  453TIP3    H2 1324   1.004   3.457   2.298  0.3070 -2.1930 -2.8804
  454TIP3   OH2 1325   4.329   4.065   1.453  0.6161  0.2774 -0.1690
  454TIP3    H1 1326   4.411   4.018   1.435  0.2800  0.0284 -1.1078
  454TIP3    H2 1327   4.312   4.115   1.374 -0.7481 -0.5953 -0.4690
  455TIP3   OH2 1328   0.468   3.426   5.178  0.0843 -0.0536 -0.6498
  455TIP3    H1 1329   0.389   3.404   5.128  0.9574 -0.2363 -2.0350
  455TIP3    H2 1330   0.444   3.502   5.230 -1.0244 -0.1493 -0.9950
  456TIP3   OH2 1331   1.721   2.644   4.741  0.0468  0.4955  0.8790
  456TIP3    H1 1332   1.775   2.617   4.667  0.1853  0.4846  0.9813
  456TIP3    H2 1333   1.781   2.694   4.797  0.0672  0.1113  1.2096
  457TIP3   OH2 1334   1.184   4.194   2.448  0.1632  0.0588  0.7635
  457TIP3    H1 1335   1.206   4.220   2.358  1.1747  0.0224  0.9872
  457TIP3    H2 1336   1.189   4.275   2.498  1.2731 -0.1847  1.0816
  458TIP3   OH2 1337   3.341   4.449   5.560  0.5579  0.3339 -0.1887
  458TIP3    H1 1338   3.291   4.434   5.479  0.6650  0.4463 -0.2773
  458TIP3    H2 1339   3.332   4.368   5.610 -0.5789  0.7129  0.2629
  459TIP3   OH2 1340   0.756   3.518   1.210  0.3424  0.2073  0.1711
  459TIP3    H1 1341   0.672   3.555   1.185  1.3223  0.7546 -2.6506
  459TIP3    H2 1342   0.755   3.520   1.306 -2.4597  1.0013  0.2172
  460TIP3   OH2 1343   1.435   1.923   3.399 -0.2550  0.2024 -0.2050
  460TIP3    H1 1344   1.451   1.938   3.493 -0.2194 -2.4286  0.2822
  460TIP3    H2 1345   1.519   1.891   3.366 -1.4860 -4.2132  0.2118
  461TIP3   OH2 1346   5.433   6.108   0.672 -0.3936  0.1827  0.0644
  461TIP3    H1 1347   5.414   6.141   0.585 -0.8033 -1.0711 -0.3472
  461TIP3    H2 1348   5.347   6.102   0.715 -0.0772  2.0949  1.0742
  462TIP3   OH2 1349   5.737   0.532   1.475 -0.0784 -0.2343  0.7035
  462TIP3    H1 1350   5.751   0.549   1.568 -0.7375  0.5780  0.6729
  462TIP3    H2 1351   5.682   0.605   1.446 -0.6870 -1.0018 -0.1054
  463TIP3   OH2 1352   4.210   3.711   4.944 -0.2482  0.0123 -0.3605
  463TIP3    H1 1353   4.268   3.736   5.016 -0.3976  0.3307 -0.3464
  463TIP3    H2 1354   4.216   3.784   4.882  0.0043 -0.3337 -0.7470
  464TIP3   OH2 1355   5.801   4.993   3.128  0.2590 -0.4052 -0.7511
  464TIP3    H1 1356   5.868   5.056   3.154  0.5099 -1.1744  0.5409
  464TIP3    H2 1357   5.794   4.933   3.202 -3.2901  0.7746  0.0809
  465TIP3   OH2 1358   6.033   0.566   2.402  0.0733  0.1169  0.0073
  465TIP3    H1 1359   5.958   0.585   2.346  1.7717  1.4801 -1.9532
  465TIP3    H2 1360   6.108   0.600   2.354  1.9920 -1.2657  1.8348
  466TIP3   OH2 1361   6.240   3.655   1.489 -0.2135  0.4409  0.0239
  466TIP3    H1 1362   6.203   3.588   1.431  0.4183  1.0732 -1.1589
  466TIP3    H2 1363   6.329   3.624   1.507 -0.7331 -0.2722  1.5524
  467TIP3   OH2 1364   4.383   5.880   4.469 -0.3118 -0.2318 -1.0184
  467TIP3    H1 1365   4.438   5.814   4.511  0.0502  0.1737 -0.8482
  467TIP3    H2 1366   4.433   5.962   4.477 -0.9916  0.1647 -0.7599
  468TIP3   OH2 1367   3.353   3.013   4.575 -0.4866  0.4027 -0.6868
  468TIP3    H1 1368   3.259   2.997   4.571 -0.0418 -2.6692 -1.5805
  468TIP3    H2 1369   3.392   2.935   4.536  2.4867  0.6398  1.4490
  469TIP3   OH2 1370   4.402   1.356   2.041  0.1921  0.0564  0.1458
  469TIP3    H1 1371   4.469   1.425   2.046  1.6944 -1.3457  0.0687
  469TIP3    H2 1372   4.409   1.323   1.952 -0.8886  0.1098  0.0190
  470TIP3   OH2 1373   4.890   6.479   2.184 -0.9548  0.0762  0.0089
  470TIP3    H1 1374   4.874   6.405   2.243  2.3014  0.0326  1.0703
  470TIP3    H2 1375   4.900   6.554   2.242  0.0289  0.4794 -0.6561
  471TIP3   OH2 1376   4.477   4.445   1.672  0.0578  0.2495 -0.4197
  471TIP3    H1 1377   4.481   4.390   1.593  1.8750 -2.0441  1.1230
  471TIP3    H2 1378   4.385   4.439   1.700  0.0443 -1.4472 -0.7102
  472TIP3   OH2 1379   1.076   5.346   3.763  0.1778  0.2163 -0.1529
  472TIP3    H1 1380   1.133   5.398   3.706  2.1847  0.2782  1.8222
  472TIP3    H2 1381   1.090   5.255   3.735 -1.1722  0.4325 -1.7030
  473TIP3   OH2 1382   5.496   4.454   5.454  0.5139  0.9565  0.0708
  473TIP3    H1 1383   5.489   4.384   5.519 -2.2516  2.1898  1.2646
  473TIP3    H2 1384   5.497   4.535   5.505  0.8123  1.8905 -1.3504
  474TIP3   OH2 1385   1.463   0.839   4.331 -0.0288  0.2870  0.6822
  474TIP3    H1 1386   1.446   0.796   4.248  0.6992  0.0608  0.6469
  474TIP3    H2 1387   1.376   0.856   4.367 -0.3597  0.8429 -0.3487
  475TIP3   OH2 1388   1.833   1.775   2.139 -0.3878 -0.0653 -0.3130
  475TIP3    H1 1389   1.910   1.734   2.179 -0.5416  0.6914  0.8123
  475TIP3    H2 1390   1.796   1.707   2.083  0.7252 -0.6562 -0.3659
  476TIP3   OH2 1391   1.788   3.556   5.612  0.0912 -0.3449  0.4423
  476TIP3    H1 1392   1.722   3.494   5.641 -0.9048  0.4718 -0.0127
  476TIP3    H2 1393   1.851   3.560   5.684 -0.4610 -0.9804  0.9677
  477TIP3   OH2 1394   6.415   3.601   2.480 -0.1425 -0.3309  0.2216
  477TIP3    H1 1395   6.504   3.578   2.504 -0.0108 -1.2399 -1.0120
  477TIP3    H2 1396   6.361   3.530   2.515 -0.2503 -0.3237  0.0747
  478TIP3   OH2 1397   3.025   2.934   2.358 -0.5536 -0.0351 -0.4015
  478TIP3    H1 1398   3.038   2.877   2.282 -2.6938 -0.3386 -0.5825
  478TIP3    H2 1399   3.024   2.875   2.433  0.2458  0.1281 -0.2479
  479TIP3   OH2 1400   4.607   2.284   5.627 -0.3100 -0.2969 -0.0145
  479TIP3    H1 1401   4.686   2.316   5.584  0.5977 -1.6996  0.5510
  479TIP3    H2 1402   4.535   2.322   5.576  0.7174 -0.7050 -1.8680
  480TIP3   OH2 1403   4.918   5.489   1.612 -0.0140  0.4066  0.2978
  480TIP3    H1 1404   4.851   5.461   1.549 -0.6595  0.9381  0.7439
  480TIP3    H2 1405   4.954   5.569   1.574  0.1748  0.2823  0.2083
  481TIP3   OH2 1406   2.952   4.929   4.214  0.0352  0.6170 -0.3639
  481TIP3    H1 1407   2.973   4.907   4.305  0.9379  0.5847 -0.5689
  481TIP3    H2 1408   2.927   4.846   4.174  0.1505  0.5406 -0.2778
  482TIP3   OH2 1409   4.455   2.272   4.001 -0.5300  0.2139 -0.8200
  482TIP3    H1 1410   4.490   2.231   4.080 -1.3431  0.2588 -0.4217
  482TIP3    H2 1411   4.532   2.297   3.950 -0.0091 -1.4316 -0.8871
  483TIP3   OH2 1412   1.688   3.784   2.626 -0.0526 -0.5882 -0.4412
  483TIP3    H1 1413   1.637   3.813   2.701  0.4669 -2.0094  0.5019
  483TIP3    H2 1414   1.623   3.757   2.561 -0.5522 -1.9546  0.5743
  484TIP3   OH2 1415   0.969   2.298   5.566 -0.0788  0.1582  0.5321
  484TIP3    H1 1416   0.904   2.350   5.518 -0.0985  1.3333  1.7850
  484TIP3    H2 1417   0.982   2.221   5.511 -3.0167 -0.4640  0.5252
  485TIP3   OH2 1418   3.344   0.964   5.174  0.6767 -0.1924 -0.2903
  485TIP3    H1 1419   3.303   0.968   5.088  0.7721 -0.8499 -0.3738
  485TIP3    H2 1420   3.329   1.050   5.212  1.8768  0.6038 -1.5168
  486TIP3   OH2 1421   3.205   5.779   4.953 -0.0503  0.9343 -0.5072
  486TIP3    H1 1422   3.129   5.723   4.966  0.9092  0.1552  2.3869
  486TIP3    H2 1423   3.267   5.725   4.905 -0.4397  0.7686 -0.8246
  487TIP3   OH2 1424   1.868   5.850   5.823  0.2094 -0.2392  0.1781
  487TIP3    H1 1425   1.796   5.912   5.834  0.6032  0.5641 -1.5413
  487TIP3    H2 1426   1.849   5.806   5.740  1.8975  0.2692 -0.4990
  488TIP3   OH2 1427   1.392   0.673   5.422  0.2786 -0.7673  0.1680
  488TIP3    H1 1428   1.366   0.599   5.477  0.0834 -0.1366  0.9461
  488TIP3    H2 1429   1.427   0.737   5.484  0.5096 -0.2404 -0.5047
  489TIP3   OH2 1430   7.072   2.640   0.241  0.4180  0.0051  0.4570
  489TIP3    H1 1431   7.091   2.549   0.262 -0.2539  0.6007  4.2566
  489TIP3    H2 1432   6.978   2.650   0.258  0.5083  1.4574  0.2391
  490TIP3   OH2 1433   6.987   0.608   2.345  0.5018  0.2536 -0.1392
  490TIP3    H1 1434   7.019   0.617   2.435  0.5272  0.4708 -0.1675
  490TIP3    H2 1435   7.010   0.519   2.319 -2.5800 -1.0613  1.2463
  491TIP3   OH2 1436   5.703   2.155   1.772  0.4423 -0.0997 -0.0854
  491TIP3    H1 1437   5.672   2.072   1.735  0.3642 -0.1357  0.0607
  491TIP3    H2 1438   5.716   2.212   1.696 -3.2886  1.0920 -0.0166
  492TIP3   OH2 1439   5.556   6.674   1.028  0.1957  0.2603 -0.5182
  492TIP3    H1 1440   5.649   6.677   1.053  0.5903  0.8393 -1.9488
  492TIP3    H2 1441   5.543   6.586   0.993  0.1351  0.0879 -0.0628
  493TIP3   OH2 1442   1.708   0.466   1.434 -0.3953  0.0248 -0.2725
  493TIP3    H1 1443   1.674   0.378   1.421 -1.5556  0.1769  1.3644
  493TIP3    H2 1444   1.739   0.466   1.525 -0.4874  1.3147 -0.2219
  494TIP3   OH2 1445   1.242   2.281   5.416  0.2123  0.5069  0.6185
  494TIP3    H1 1446   1.256   2.244   5.329 -1.1731  0.2533  0.4819
  494TIP3    H2 1447   1.219   2.206   5.471  1.2551  0.6346  1.2743
  495TIP3   OH2 1448   4.913   0.692   0.815  0.6592  0.0545 -0.0767
  495TIP3    H1 1449   4.912   0.721   0.724  0.4221  1.0310  0.2305
  495TIP3    H2 1450   4.968   0.613   0.814 -1.1454 -1.2548 -1.4244
  496TIP3   OH2 1451   4.931   2.534   5.141 -0.2477 -0.5095  0.1873
  496TIP3    H1 1452   4.999   2.595   5.170 -0.2174 -0.2198 -0.4620
  496TIP3    H2 1453   4.882   2.582   5.074 -1.0377 -0.7525  0.5831
  497TIP3   OH2 1454   3.416   6.765   5.149 -0.2501  0.0952  0.2740
  497TIP3    H1 1455   3.428   6.853   5.184 -0.5241  0.2403  0.0024
  497TIP3    H2 1456   3.350   6.774   5.080 -1.2148 -0.5191  1.0748
  498TIP3   OH2 1457   6.704   4.062   2.854 -0.3380 -0.5182  0.2278
  498TIP3    H1 1458   6.738   4.064   2.943  0.2370 -0.4913  0.0106
  498TIP3    H2 1459   6.634   4.127   2.854 -1.0975 -1.3059  0.9565
  499TIP3   OH2 1460   1.686   1.453   3.177  0.2489 -0.6329  0.2623
  499TIP3    H1 1461   1.647   1.459   3.090  0.1598 -0.3525  0.3186
  499TIP3    H2 1462   1.779   1.467   3.162 -0.0199  2.0163  0.4688
  500TIP3   OH2 1463   1.372   2.470   0.210  0.4446 -0.1605  0.2083
  500TIP3    H1 1464   1.384   2.476   0.305  1.9810 -1.7442  0.1828
  500TIP3    H2 1465   1.449   2.513   0.174 -1.3307  2.6752 -0.4532
  501TIP3   OH2 1466   3.593   3.043   4.730 -0.4359  0.1051 -0.0694
  501TIP3    H1 1467   3.683   3.073   4.741  0.5828 -2.6945  0.1704
  501TIP3    H2 1468   3.568   3.071   4.642  0.1257  2.0858  0.3520
  502TIP3   OH2 1469   6.279   0.259   5.051 -0.0407 -0.2385  0.0469
  502TIP3    H1 1470   6.375   0.254   5.050  0.0031  0.4584  0.0376
  502TIP3    H2 1471   6.260   0.314   5.127 -0.3738  0.6103 -0.6313
  503TIP3   OH2 1472   0.115   3.493   1.960 -0.3968  0.0874  0.0826
  503TIP3    H1 1473   0.147   3.435   2.029 -1.4604  0.0851  0.5929
  503TIP3    H2 1474   0.176   3.480   1.887 -0.0299 -0.8927  0.5544
  504TIP3   OH2 1475   0.626   0.416   1.263 -0.4241 -0.5329 -0.4144
  504TIP3    H1 1476   0.615   0.328   1.298  0.9335 -0.8938 -0.8080
  504TIP3    H2 1477   0.600   0.410   1.171 -0.9530 -0.3638 -0.2762
  505TIP3   OH2 1478   1.393   4.973   5.346  0.0306 -0.2451  0.0015
  505TIP3    H1 1479   1.464   5.033   5.364 -0.4164  0.8119 -1.6223
  505TIP3    H2 1480   1.435   4.894   5.313  0.4657  0.4728 -1.2113
  506TIP3   OH2 1481   5.667   6.724   1.405 -0.1913  0.1728  0.3339
  506TIP3    H1 1482   5.585   6.676   1.416 -0.4610 -0.0917 -2.2050
  506TIP3    H2 1483   5.640   6.811   1.376  0.4020 -0.0445 -0.9253
  507TIP3   OH2 1484   5.864   0.878   1.364 -0.6150  0.0992 -0.0366
  507TIP3    H1 1485   5.879   0.941   1.293  0.1398  0.5657  0.5244
  507TIP3    H2 1486   5.782   0.907   1.404  0.2176  1.3287  0.8320
  508TIP3   OH2 1487   2.273   3.860   0.367 -0.1965 -0.9325 -0.8688
  508TIP3    H1 1488   2.339   3.831   0.304 -1.1983 -0.3204 -2.2645
  508TIP3    H2 1489   2.201   3.893   0.312 -2.4858 -3.2541  0.4698
  509TIP3   OH2 1490   5.303   3.077   1.444  0.5771  0.4647 -0.0044
  509TIP3    H1 1491   5.391   3.068   1.407  0.6892  0.5546  0.2424
  509TIP3    H2 1492   5.261   3.142   1.388  0.1182 -0.7699 -1.1352
  510TIP3   OH2 1493   3.080   2.818   5.200 -0.5299 -0.2062  0.2732
  510TIP3    H1 1494   3.175   2.833   5.193 -0.4368 -0.9102 -0.1412
  510TIP3    H2 1495   3.066   2.800   5.293 -0.6408  2.1990  0.7922
  511TIP3   OH2 1496   1.249   3.938   4.153  0.3000 -0.2303 -0.1418
  511TIP3    H1 1497   1.217   3.910   4.067  0.5169 -0.6957 -0.0776
  511TIP3    H2 1498   1.323   3.996   4.133 -1.1907  1.6937 -0.3102
  512TIP3   OH2 1499   6.961   5.287   2.887  0.0953  0.2031 -0.0553
  512TIP3    H1 1500   6.934   5.379   2.893 -1.9781 -0.3995  0.8637
  512TIP3    H2 1501   7.055   5.291   2.870 -0.0020  2.4857 -0.4154
  513TIP3   OH2 1502   3.564   1.216   5.225 -0.3651 -0.5851 -0.0984
  513TIP3    H1 1503   3.480   1.258   5.243 -0.7317 -1.3138 -0.0745
  513TIP3    H2 1504   3.600   1.194   5.311  1.2258  2.2800  0.0853
  514TIP3   OH2 1505   6.109   4.675   0.149  0.6775  0.1163  0.0325
  514TIP3    H1 1506   6.133   4.583   0.142  1.6825  0.2371  1.5896
  514TIP3    H2 1507   6.055   4.680   0.227 -1.2617  0.5170 -1.2730
  515TIP3   OH2 1508   0.205   6.465   5.055  0.5955  0.5570  0.4084
  515TIP3    H1 1509   0.215   6.477   4.960 -0.5007 -1.2764  0.0107
  515TIP3    H2 1510   0.271   6.522   5.093  1.8913  0.4467 -1.5172
  516TIP3   OH2 1511   4.731   5.604   2.215 -0.2389 -0.8569 -0.4265
  516TIP3    H1 1512   4.745   5.513   2.244  0.1293 -0.5404  0.4511
  516TIP3    H2 1513   4.758   5.657   2.291  0.1005  0.0008 -1.1284
  517TIP3   OH2 1514   5.066   3.926   1.425 -0.0778 -0.1802  0.0279
  517TIP3    H1 1515   5.059   4.005   1.371  0.9372 -0.3983 -0.4536
  517TIP3    H2 1516   4.995   3.934   1.489 -0.6891  0.5635 -0.7205
  518TIP3   OH2 1517   3.598   6.828   4.512  0.5369 -0.1436 -0.3344
  518TIP3    H1 1518   3.570   6.850   4.423  1.9855 -1.7583 -1.2664
  518TIP3    H2 1519   3.576   6.735   4.521 -3.4432  0.8180  2.6290
  519TIP3   OH2 1520   6.830   4.109   0.721  0.4897 -0.6860 -0.6766
  519TIP3    H1 1521   6.917   4.077   0.698  1.0564  1.6754 -2.1435
  519TIP3    H2 1522   6.780   4.103   0.640  0.5099  1.5668 -0.9337
  520TIP3   OH2 1523   2.469   1.609   4.653  0.0640 -0.2566 -0.0863
  520TIP3    H1 1524   2.410   1.592   4.579 -0.9952 -0.2000  0.7258
  520TIP3    H2 1525   2.521   1.684   4.625  0.0086 -0.5274 -0.9571
  521TIP3   OH2 1526   6.812   5.417   1.273 -0.2593 -0.6793 -0.4617
  521TIP3    H1 1527   6.724   5.379   1.271 -0.3962 -0.3553 -0.6442
  521TIP3    H2 1528   6.830   5.431   1.366 -0.9746  0.5710 -0.4898
  522TIP3   OH2 1529   3.381   4.611   5.258 -0.4799  0.1554 -0.1052
  522TIP3    H1 1530   3.459   4.593   5.206  0.1274  1.5241  0.2932
  522TIP3    H2 1531   3.413   4.660   5.333 -1.9051  2.4439 -0.8699
  523TIP3   OH2 1532   0.226   2.658   1.487 -0.2275 -0.4842  0.8895
  523TIP3    H1 1533   0.308   2.660   1.537 -0.6391 -0.4090  1.5615
  523TIP3    H2 1534   0.165   2.610   1.542 -0.4480 -1.1576  0.0787
  524TIP3   OH2 1535   7.067   1.915   2.112  0.2623 -0.0739  0.3488
  524TIP3    H1 1536   7.018   1.935   2.033  1.1812 -0.3359 -0.3022
  524TIP3    H2 1537   7.047   1.986   2.173 -0.0982  0.3585 -0.2764
  525TIP3   OH2 1538   4.504   5.892   1.069 -0.3791 -0.2389 -0.1408
  525TIP3    H1 1539   4.484   5.908   1.161  0.2361  1.1373 -0.2338
  525TIP3    H2 1540   4.573   5.825   1.071 -0.7608 -0.6234  0.3678
  526TIP3   OH2 1541   6.354   4.604   4.670  0.3422  0.0462  0.2365
  526TIP3    H1 1542   6.393   4.582   4.585  0.8853  2.1132 -0.1251
  526TIP3    H2 1543   6.406   4.678   4.701 -2.4196  2.1179  0.3577
  527TIP3   OH2 1544   6.511   3.021   1.985  0.1657 -0.7754  0.1951
  527TIP3    H1 1545   6.512   3.069   1.902 -1.0532  0.8302  1.0514
  527TIP3    H2 1546   6.598   3.035   2.022  0.1717 -0.1033 -0.0529
  528TIP3   OH2 1547   3.704   2.324   2.530  0.2037 -0.1114  0.0299
  528TIP3    H1 1548   3.711   2.246   2.584  0.5747  1.9202  3.1219
  528TIP3    H2 1549   3.794   2.339   2.499  0.4271 -0.0785  0.6796
  529TIP3   OH2 1550   3.095   4.540   3.905  0.0886  0.0347  0.4501
  529TIP3    H1 1551   3.011   4.537   3.951 -0.5898  1.0121 -0.6591
  529TIP3    H2 1552   3.142   4.611   3.948 -1.1243  1.9549 -1.2048
  530TIP3   OH2 1553   5.933   4.899   1.320 -0.4943  0.1801  0.3949
  530TIP3    H1 1554   5.974   4.829   1.371  0.5687  1.0251  0.7321
  530TIP3    H2 1555   5.870   4.939   1.380 -0.3031  0.2259  0.5660
  531TIP3   OH2 1556   0.146   6.673   1.441 -0.1606  0.2809  0.0392
  531TIP3    H1 1557   0.127   6.587   1.405 -0.5143  0.7028 -0.8156
  531TIP3    H2 1558   0.224   6.660   1.495 -0.4628 -0.6517  0.2603
  532TIP3   OH2 1559   1.575   2.152   5.833 -0.0472 -0.2647 -0.2391
  532TIP3    H1 1560   1.508   2.209   5.872 -0.5905 -0.5875 -0.6740
  532TIP3    H2 1561   1.656   2.203   5.837 -0.1963 -0.0984  0.8404
  533TIP3   OH2 1562   6.581   4.321   0.634  0.6014 -0.4335  0.1038
  533TIP3    H1 1563   6.596   4.277   0.551  0.0959 -0.0459 -0.2019
  533TIP3    H2 1564   6.565   4.251   0.697  0.0276 -0.6942 -0.3293
  534TIP3   OH2 1565   6.320   4.210   4.212 -0.3216  0.0306 -0.2413
  534TIP3    H1 1566   6.301   4.121   4.184  1.2360 -0.5747  0.5190
  534TIP3    H2 1567   6.415   4.219   4.204 -0.3267  1.2648  0.6807
  535TIP3   OH2 1568   4.427   6.187   4.152  0.5246 -0.2673 -0.1588
  535TIP3    H1 1569   4.443   6.166   4.061  1.0551 -0.4837 -0.0186
  535TIP3    H2 1570   4.375   6.114   4.186 -1.5046  0.7831 -0.8044
  536TIP3   OH2 1571   4.034   2.815   2.806  0.0775 -0.9311  0.0740
  536TIP3    H1 1572   3.944   2.823   2.776  0.5804  3.0440 -0.9343
  536TIP3    H2 1573   4.030   2.834   2.900 -0.0350  1.1489 -0.3041
  537TIP3   OH2 1574   6.537   0.288   0.184  0.5591 -0.7980  0.0921
  537TIP3    H1 1575   6.534   0.192   0.183 -0.9682 -0.7781 -1.1466
  537TIP3    H2 1576   6.537   0.313   0.091 -2.3890  0.3891  0.2811
  538TIP3   OH2 1577   2.471   0.058   4.199 -0.4673 -0.1193 -0.5597
  538TIP3    H1 1578   2.549   0.104   4.230 -1.1219  1.0378 -0.5703
  538TIP3    H2 1579   2.424   0.123   4.147 -1.0380 -1.0507 -1.2300
  539TIP3   OH2 1580   4.721   3.903   0.725 -0.2046 -0.1778 -0.2343
  539TIP3    H1 1581   4.737   3.993   0.696  0.8005 -0.6112 -1.1014
  539TIP3    H2 1582   4.808   3.871   0.750 -0.4556 -1.0999 -0.5223
  540TIP3   OH2 1583   3.437   2.242   5.627  0.3660 -0.0651  0.3195
  540TIP3    H1 1584   3.347   2.208   5.626 -0.5561  2.0708  2.1993
  540TIP3    H2 1585   3.427   2.334   5.601  2.0394  0.1994  0.5402
  541TIP3   OH2 1586   1.002   2.806   0.563 -0.4198  0.1454 -0.0333
  541TIP3    H1 1587   1.034   2.727   0.520 -0.1307 -0.7150  1.6738
  541TIP3    H2 1588   1.015   2.875   0.499 -0.7999 -1.1958 -1.6252
  542TIP3   OH2 1589   2.467   6.064   4.409 -0.0775  0.5374 -0.1380
  542TIP3    H1 1590   2.470   6.021   4.494  0.7016  0.6015 -0.1203
  542TIP3    H2 1591   2.555   6.102   4.399 -0.7421  2.1553 -0.1238
  543TIP3   OH2 1592   3.864   3.539   4.196 -0.1064 -0.0850  0.1354
  543TIP3    H1 1593   3.823   3.469   4.246  0.0194  1.0604  1.9322
  543TIP3    H2 1594   3.958   3.525   4.205 -0.0789  0.3726  0.6199
  544TIP3   OH2 1595   5.137   4.886   1.293  0.4118  0.4053 -0.0104
  544TIP3    H1 1596   5.220   4.930   1.277  0.6430  0.2625  0.7273
  544TIP3    H2 1597   5.090   4.946   1.352  0.4948 -0.0564  0.5392
  545TIP3   OH2 1598   5.734   5.599   1.907 -0.3076  0.0119 -0.1779
  545TIP3    H1 1599   5.679   5.671   1.937  0.0148 -0.0839  0.6856
  545TIP3    H2 1600   5.723   5.598   1.812 -1.6968  0.0618 -0.0329
  546TIP3   OH2 1601   3.028   6.776   1.131 -0.1434  0.2628  0.7199
  546TIP3    H1 1602   3.051   6.868   1.124 -2.8364  1.0403  0.7796
  546TIP3    H2 1603   3.012   6.762   1.224  0.0553 -0.2117  0.6856
  547TIP3   OH2 1604   0.780   4.328   4.540 -0.0400  0.6346 -0.0943
  547TIP3    H1 1605   0.720   4.400   4.560 -1.8192 -0.4618 -1.2702
  547TIP3    H2 1606   0.750   4.256   4.596 -0.6615 -0.3108 -1.5986
  548TIP3   OH2 1607   5.725   3.760   3.509 -0.2006  0.7003  0.1901
  548TIP3    H1 1608   5.704   3.787   3.420 -0.1740  0.0227 -0.0314
  548TIP3    H2 1609   5.815   3.789   3.522 -0.0195  0.3300 -0.2014
  549TIP3   OH2 1610   5.702   2.316   3.974  0.2064 -0.8303  0.9427
  549TIP3    H1 1611   5.731   2.241   4.026 -0.1963  0.0002  2.4047
  549TIP3    H2 1612   5.634   2.358   4.027  0.0600  0.2752 -0.0710
  550TIP3   OH2 1613   1.629   0.267   2.940 -0.1466  0.0906 -0.2359
  550TIP3    H1 1614   1.641   0.361   2.944 -0.5212  0.0990  1.0260
  550TIP3    H2 1615   1.540   0.255   2.908 -0.6921  0.2184  1.1476
  551TIP3   OH2 1616   3.080   0.876   1.225 -0.5713  0.1202 -0.1944
  551TIP3    H1 1617   3.032   0.842   1.150 -0.0030  0.5127 -0.7477
  551TIP3    H2 1618   3.132   0.802   1.256 -0.9721 -0.1026 -0.0500
  552TIP3   OH2 1619   6.912   0.937   1.727 -0.2232 -0.4744 -0.0003
  552TIP3    H1 1620   6.940   0.913   1.815 -1.4846  2.5168  1.3718
  552TIP3    H2 1621   6.958   1.020   1.709 -2.3615  0.6221 -0.7578
  553TIP3   OH2 1622   1.749   3.773   2.945  0.3262  0.6375  0.5986
  553TIP3    H1 1623   1.736   3.691   2.897  1.0273 -0.0841  1.6087
  553TIP3    H2 1624   1.700   3.762   3.026 -1.7552  2.2814 -0.3163
  554TIP3   OH2 1625   5.312   1.011   2.389 -0.2741  0.5475 -0.5230
  554TIP3    H1 1626   5.365   1.090   2.395 -0.4536  0.5748  0.8100
  554TIP3    H2 1627   5.223   1.042   2.376 -0.0209  0.5006 -2.9893
  555TIP3   OH2 1628   0.401   6.638   2.346 -0.2198  0.0798  0.2051
  555TIP3    H1 1629   0.397   6.587   2.427  1.1913 -0.4108 -0.0167
  555TIP3    H2 1630   0.455   6.714   2.369 -0.7931  0.5444  0.0310
  556TIP3   OH2 1631   4.918   0.411   4.189  0.3683 -0.2481 -0.4754
  556TIP3    H1 1632   5.000   0.410   4.239 -1.0555 -0.5712  1.9883
  556TIP3    H2 1633   4.911   0.323   4.152 -0.0032 -1.0347  1.3578
  557TIP3   OH2 1634   4.217   5.021   0.810 -0.2792  0.0718  0.3276
  557TIP3    H1 1635   4.183   5.095   0.859  1.7165  0.6864  0.8707
  557TIP3    H2 1636   4.157   5.012   0.735 -0.9453  1.7704  0.6126
  558TIP3   OH2 1637   1.170   5.144   5.745  0.1883 -0.0548 -0.0917
  558TIP3    H1 1638   1.204   5.060   5.774  1.0926  0.9018  1.7937
  558TIP3    H2 1639   1.101   5.165   5.808  1.0586  1.3273  0.4420
  559TIP3   OH2 1640   5.383   1.913   1.192 -0.2159 -0.0260  0.2495
  559TIP3    H1 1641   5.376   1.888   1.100 -1.5293  0.8195  0.0847
  559TIP3    H2 1642   5.304   1.877   1.233 -0.1749  0.5019  0.8119
  560TIP3   OH2 1643   2.042   4.124   4.619 -0.0718  0.2513 -0.0682
  560TIP3    H1 1644   2.118   4.066   4.626 -1.1299 -1.0259  1.9779
  560TIP3    H2 1645   2.053   4.187   4.690 -0.2435  0.9371 -0.6396
  561TIP3   OH2 1646   1.835   5.564   2.298 -0.6903 -0.0536  0.3295
  561TIP3    H1 1647   1.836   5.468   2.307 -1.8219 -0.2180 -0.9586
  561TIP3    H2 1648   1.872   5.580   2.211  0.0733  0.7274  0.7901
  562TIP3   OH2 1649   6.837   3.384   3.892 -0.1052 -0.4783  0.1032
  562TIP3    H1 1650   6.861   3.474   3.914  0.2013 -0.7606  0.9735
  562TIP3    H2 1651   6.792   3.351   3.970 -1.6506 -0.5809 -0.7923
  563TIP3   OH2 1652   3.148   5.339   3.004 -0.1040  0.1357 -0.3132
  563TIP3    H1 1653   3.054   5.340   2.989 -0.1826  2.3419  0.0433
  563TIP3    H2 1654   3.186   5.364   2.920  0.1228  0.0609 -0.2339
  564TIP3   OH2 1655   5.364   0.379   4.132  0.1314  0.2979  0.3972
  564TIP3    H1 1656   5.327   0.357   4.217 -1.6257  0.9042 -0.1605
  564TIP3    H2 1657   5.304   0.339   4.068  0.8094  0.7528 -0.5523
  565TIP3   OH2 1658   1.226   1.060   3.508  0.0236 -0.0950  0.3622
  565TIP3    H1 1659   1.234   0.965   3.496  0.1320  0.0281 -0.6788
  565TIP3    H2 1660   1.145   1.071   3.556  0.2962 -0.7460  0.9996
  566TIP3   OH2 1661   3.758   4.198   1.439 -0.4145 -0.0434  0.0563
  566TIP3    H1 1662   3.663   4.207   1.433 -0.5014 -0.5119  0.5962
  566TIP3    H2 1663   3.782   4.251   1.515 -0.0489  1.2637 -0.9317
  567TIP3   OH2 1664   4.352   1.751   1.029  0.4495  0.8253  0.9390
  567TIP3    H1 1665   4.311   1.699   0.960 -2.1684  0.0577  2.8987
  567TIP3    H2 1666   4.285   1.813   1.056  1.4345  1.2097  2.6698
  568TIP3   OH2 1667   0.250   5.748   4.513 -0.0691  0.3260  0.1986
  568TIP3    H1 1668   0.283   5.837   4.510  1.4553 -0.1974  0.3138
  568TIP3    H2 1669   0.216   5.737   4.602  0.9723  0.3921  0.6130
  569TIP3   OH2 1670   5.939   3.578   2.933 -0.0677  0.0416  0.6391
  569TIP3    H1 1671   5.951   3.642   2.863 -1.8843 -0.0400  0.1849
  569TIP3    H2 1672   5.968   3.495   2.895  1.0060  0.3416  0.7635
  570TIP3   OH2 1673   4.898   5.229   4.103  0.5446 -0.0705 -0.4860
  570TIP3    H1 1674   4.841   5.284   4.049  1.0214 -2.5960 -3.9497
  570TIP3    H2 1675   4.842   5.157   4.131  0.5032  0.8302  1.9709
  571TIP3   OH2 1676   4.984   2.117   1.776  0.5699  0.5837 -0.0365
  571TIP3    H1 1677   4.991   2.194   1.720 -0.7978  1.3872  0.8472
  571TIP3    H2 1678   4.937   2.147   1.853  1.3287 -0.7911  1.0171
  572TIP3   OH2 1679   0.708   1.550   1.050 -0.1123  0.2077  0.4450
  572TIP3    H1 1680   0.789   1.600   1.050 -0.2429  0.4262  0.0552
  572TIP3    H2 1681   0.721   1.482   1.117  0.3857  0.2402  0.3838
  573TIP3   OH2 1682   5.161   3.578   4.691  0.4791  0.3778  0.2773
  573TIP3    H1 1683   5.132   3.580   4.782 -0.6305  2.3353 -0.0526
  573TIP3    H2 1684   5.146   3.488   4.663 -0.1202 -0.0072  1.7501
  574TIP3   OH2 1685   3.906   5.646   2.244 -0.5454 -1.0061 -0.5796
  574TIP3    H1 1686   3.815   5.659   2.273 -0.0281 -0.2690  0.8083
  574TIP3    H2 1687   3.948   5.601   2.317  0.8893  1.1794  0.0417
  575TIP3   OH2 1688   2.194   5.449   1.397 -0.1157 -0.0497  0.8395
  575TIP3    H1 1689   2.140   5.470   1.474 -2.6158 -1.4186 -0.4046
  575TIP3    H2 1690   2.266   5.397   1.433 -0.0604  1.0892  2.4867
  576TIP3   OH2 1691   2.063   6.103   0.871  0.1313  0.1480  0.3317
  576TIP3    H1 1692   2.139   6.046   0.885  1.1991  1.5896  0.6436
  576TIP3    H2 1693   2.002   6.050   0.820  0.4432 -1.7817  1.8266
  577TIP3   OH2 1694   6.280   2.465   2.526 -0.2058 -0.2132 -0.0113
  577TIP3    H1 1695   6.200   2.507   2.495 -0.3329 -0.1780  0.3614
  577TIP3    H2 1696   6.344   2.483   2.458  0.2730  2.2135  0.9809
  578TIP3   OH2 1697   4.309   0.968   0.937 -0.2444 -0.6085  0.2265
  578TIP3    H1 1698   4.326   1.013   0.854  1.0591  0.2651  0.9379
  578TIP3    H2 1699   4.227   1.005   0.969 -0.2753 -0.2860 -0.2176
  579TIP3   OH2 1700   1.872   6.755   2.710 -0.1431  0.1633  0.1245
  579TIP3    H1 1701   1.912   6.710   2.784 -0.7216 -0.6865 -0.0774
  579TIP3    H2 1702   1.868   6.689   2.640  0.6282  1.0153 -0.7628
  580TIP3   OH2 1703   1.868   5.410   1.836  0.3390  0.4376  0.1130
  580TIP3    H1 1704   1.846   5.346   1.904  0.7798 -0.1490 -0.2924
  580TIP3    H2 1705   1.943   5.457   1.871  0.6766  0.0170 -0.0347
  581TIP3   OH2 1706   0.552   6.434   0.894  0.0610  0.0356 -0.6395
  581TIP3    H1 1707   0.606   6.368   0.938  1.6081  0.7050 -1.4378
  581TIP3    H2 1708   0.507   6.386   0.825 -0.2333 -0.5103 -0.0754
  582TIP3   OH2 1709   1.116   5.150   5.043 -0.6767  0.1977  0.6642
  582TIP3    H1 1710   1.035   5.201   5.051  0.0820  1.5796 -0.0779
  582TIP3    H2 1711   1.087   5.066   5.006 -1.6069  1.3064 -1.3289
  583TIP3   OH2 1712   3.344   1.231   0.167 -0.1561 -0.1122  0.7643
  583TIP3    H1 1713   3.377   1.309   0.211 -0.8091  1.0792 -0.7664
  583TIP3    H2 1714   3.397   1.223   0.087 -1.5132  0.0675 -0.1892
  584TIP3   OH2 1715   1.985   5.886   4.814  0.3623  0.4881  0.2615
  584TIP3    H1 1716   2.038   5.881   4.894  2.7547 -0.1847 -1.2558
  584TIP3    H2 1717   2.018   5.964   4.770 -0.6275  0.6072 -0.2671
  585TIP3   OH2 1718   5.088   4.265   3.900 -0.5511 -0.3764  0.0581
  585TIP3    H1 1719   5.016   4.323   3.874  0.3372  0.7878  0.1289
  585TIP3    H2 1720   5.135   4.314   3.967  0.6010 -0.9123 -0.3395
  586TIP3   OH2 1721   1.612   3.409   4.538 -0.3609  0.3340  0.6427
  586TIP3    H1 1722   1.653   3.349   4.601 -1.5309  0.1013  1.2178
  586TIP3    H2 1723   1.563   3.470   4.592 -1.2597  0.2291 -0.0327
  587TIP3   OH2 1724   5.710   5.879   2.233 -0.3690  0.1537 -0.6121
  587TIP3    H1 1725   5.715   5.974   2.225  0.2179  0.2611  0.7509
  587TIP3    H2 1726   5.735   5.846   2.147  1.2893  1.2119 -0.5699
  588TIP3   OH2 1727   4.095   6.365   1.718 -0.9469 -0.3727 -0.2756
  588TIP3    H1 1728   4.101   6.329   1.630 -1.0209  1.4549 -1.0815
  588TIP3    H2 1729   4.066   6.455   1.705  0.4534  0.4111  1.5028
  589TIP3   OH2 1730   1.737   1.764   3.764 -0.3050 -0.4950 -0.4867
  589TIP3    H1 1731   1.662   1.726   3.810 -0.7615  0.6672 -0.2455
  589TIP3    H2 1732   1.760   1.699   3.697 -2.3043 -0.3270 -1.3801
  590TIP3   OH2 1733   5.994   6.084   3.894 -0.0072  0.0998  0.0999
  590TIP3    H1 1734   6.029   6.007   3.940  1.0155 -2.0124 -3.7273
  590TIP3    H2 1735   5.900   6.081   3.911  0.3026 -0.5898  1.9091
  591TIP3   OH2 1736   0.382   5.461   4.099 -0.5334 -0.3729 -0.4805
  591TIP3    H1 1737   0.345   5.523   4.162 -0.1387  0.7530 -1.3058
  591TIP3    H2 1738   0.320   5.389   4.097 -1.3669  0.3024  0.0361
  592TIP3   OH2 1739   5.862   1.562   2.016 -0.0766 -0.3385 -0.0517
  592TIP3    H1 1740   5.854   1.609   1.933  1.0255  1.0300  0.5715
  592TIP3    H2 1741   5.891   1.474   1.991  0.1589  0.0293 -1.1234
  593TIP3   OH2 1742   0.053   4.378   5.673  0.3123  0.2575  0.5036
  593TIP3    H1 1743   0.144   4.408   5.669  0.9453 -1.6474 -0.3149
  593TIP3    H2 1744   0.041   4.326   5.594 -1.9538  1.5625 -0.1281
  594TIP3   OH2 1745   1.608   6.100   1.025 -0.2321  0.1499 -0.3598
  594TIP3    H1 1746   1.634   6.038   1.093 -0.7145  0.0319 -0.2770
  594TIP3    H2 1747   1.521   6.129   1.052 -0.8113 -0.5541 -1.3789
  595TIP3   OH2 1748   4.294   5.572   3.671 -0.3080 -0.3862 -0.4907
  595TIP3    H1 1749   4.339   5.653   3.645  0.7960 -0.0672  2.0847
  595TIP3    H2 1750   4.242   5.597   3.747 -1.4597 -1.7377 -0.7982
  596TIP3   OH2 1751   0.285   0.634   1.734 -0.3694 -0.0519 -0.3536
  596TIP3    H1 1752   0.199   0.670   1.757 -0.2577  0.6862 -1.0632
  596TIP3    H2 1753   0.336   0.640   1.814 -0.5784  0.7198 -0.2747
  597TIP3   OH2 1754   5.166   2.292   2.559 -0.2121  0.0621  0.4736
  597TIP3    H1 1755   5.099   2.360   2.558 -0.0913  0.1944  1.0004
  597TIP3    H2 1756   5.196   2.286   2.469  0.2068  1.1441  0.5231
  598TIP3   OH2 1757   3.360   4.231   0.490 -0.2475 -0.5219 -1.3843
  598TIP3    H1 1758   3.399   4.145   0.473 -2.2634 -1.7423 -0.1966
  598TIP3    H2 1759   3.431   4.282   0.529  0.8755 -1.7688 -1.7130
  599TIP3   OH2 1760   1.890   1.670   3.439 -0.0630  0.3562  0.3223
  599TIP3    H1 1761   1.958   1.681   3.372 -1.5165  1.1073 -1.0688
  599TIP3    H2 1762   1.933   1.616   3.506  1.3078 -0.8471 -1.4052
  600TIP3   OH2 1763   4.296   5.197   5.564 -0.1663  0.6219  0.0345
  600TIP3    H1 1764   4.232   5.203   5.634  0.6594 -0.8824  0.9732
  600TIP3    H2 1765   4.278   5.113   5.522  0.5251  0.6605 -0.3522
  601TIP3   OH2 1766   4.440   4.707   3.106  0.4793  0.5444 -0.3132
  601TIP3    H1 1767   4.372   4.659   3.153 -0.1162  1.2674 -0.4170
  601TIP3    H2 1768   4.393   4.776   3.060  1.2203  0.6877 -0.8735
  602TIP3   OH2 1769   5.653   1.723   1.454  0.2806  0.5724 -0.0059
  602TIP3    H1 1770   5.576   1.667   1.457 -0.0914  1.0895  0.4369
  602TIP3    H2 1771   5.720   1.671   1.409 -0.1375 -0.1069  0.1496
  603TIP3   OH2 1772   0.865   4.145   3.582 -0.1838 -0.2147  0.1373
  603TIP3    H1 1773   0.849   4.239   3.586 -2.0623 -0.5352  1.9576
  603TIP3    H2 1774   0.895   4.130   3.492  0.9687  2.1989  0.0429
  604TIP3   OH2 1775   0.621   5.525   3.224 -0.2253 -0.2094  0.4025
  604TIP3    H1 1776   0.635   5.558   3.313  1.7026  0.0316  0.0706
  604TIP3    H2 1777   0.560   5.452   3.234 -0.1939 -0.0640  1.8935
  605TIP3   OH2 1778   3.280   5.664   1.004 -0.2777  0.1719  0.5179
  605TIP3    H1 1779   3.343   5.716   1.053 -1.4568  0.4855  1.7320
  605TIP3    H2 1780   3.315   5.575   1.008  0.6817  0.5179  0.1664
  606TIP3   OH2 1781   3.920   6.770   2.615 -0.5373  0.0254  0.3844
  606TIP3    H1 1782   3.883   6.753   2.701 -0.7325  0.6919  0.4410
  606TIP3    H2 1783   3.844   6.789   2.560 -0.4484 -0.7928 -0.0370
  607TIP3   OH2 1784   0.042   1.606   4.828  0.2101  0.2673 -0.4637
  607TIP3    H1 1785   0.050   1.561   4.912  0.8632 -1.9828 -1.6667
  607TIP3    H2 1786  -0.020   1.677   4.845 -1.4669 -1.5230  1.3703
  608TIP3   OH2 1787   4.872   1.977   4.674 -0.2162 -0.4407 -0.1211
  608TIP3    H1 1788   4.942   1.959   4.736  0.2422 -0.8382 -0.7418
  608TIP3    H2 1789   4.809   1.905   4.687 -0.6573  0.0625  0.6244
  609TIP3   OH2 1790   0.827   6.767   1.016 -0.1038 -0.1745 -0.3789
  609TIP3    H1 1791   0.877   6.739   0.940  0.7864  0.5416 -0.0672
  609TIP3    H2 1792   0.867   6.850   1.043 -0.7621 -0.1297  0.5269
  610TIP3   OH2 1793   1.566   4.772   4.849  0.1713 -0.4137  0.2666
  610TIP3    H1 1794   1.559   4.681   4.876  1.2547 -1.0344 -1.3389
  610TIP3    H2 1795   1.619   4.769   4.769  0.1803  1.6200  0.1348
  611TIP3   OH2 1796   6.896   6.709   3.336  0.4183  0.1870 -0.1653
  611TIP3    H1 1797   6.989   6.691   3.353  0.5053  1.5576  0.9397
  611TIP3    H2 1798   6.892   6.802   3.315 -0.6079 -0.0556 -1.1992
  612TIP3   OH2 1799   6.075   4.778   1.906 -0.2247  0.0493  0.7511
  612TIP3    H1 1800   6.006   4.811   1.849 -0.7175 -0.4026  1.0748
  612TIP3    H2 1801   6.143   4.845   1.903  0.7775 -0.9625 -2.1514
  613TIP3   OH2 1802   3.374   1.504   0.268  0.2220 -0.0690  0.2583
  613TIP3    H1 1803   3.281   1.488   0.250  0.7577 -1.8135 -1.3496
  613TIP3    H2 1804   3.397   1.578   0.212 -0.3640  0.9105  1.2858
  614TIP3   OH2 1805   5.411   1.502   3.881  0.0556  0.4651  0.9966
  614TIP3    H1 1806   5.386   1.410   3.877 -0.9511  0.7701 -0.6495
  614TIP3    H2 1807   5.506   1.501   3.897 -0.1711 -0.7960  2.5069
  615TIP3   OH2 1808   0.668   6.515   1.540  0.3030 -0.2028 -0.4875
  615TIP3    H1 1809   0.762   6.509   1.524  0.7672 -0.6043  1.9977
  615TIP3    H2 1810   0.631   6.440   1.493  1.6224 -1.7799  0.8562
  616TIP3   OH2 1811   2.266   4.206   4.308 -0.6335 -0.1848 -0.3320
  616TIP3    H1 1812   2.175   4.196   4.280 -0.5207  0.0088 -0.7775
  616TIP3    H2 1813   2.316   4.203   4.226 -0.2674  0.0533 -0.1166
  617TIP3   OH2 1814   2.429   2.896   3.749 -0.6523 -0.3477 -1.0530
  617TIP3    H1 1815   2.429   2.992   3.743 -1.2478 -0.1054  1.4719
  617TIP3    H2 1816   2.340   2.870   3.725 -2.0197  0.2658  2.6832
  618TIP3   OH2 1817   6.211   1.232   1.924  0.0330  0.0537  0.0007
  618TIP3    H1 1818   6.276   1.299   1.946 -2.0176  2.2971 -0.3507
  618TIP3    H2 1819   6.244   1.191   1.844  0.9935  1.1629 -0.1866
  619TIP3   OH2 1820   5.035   2.543   4.064  0.2816  0.0546 -0.0700
  619TIP3    H1 1821   5.009   2.527   3.973 -0.3874  0.0957  0.1081
  619TIP3    H2 1822   5.039   2.457   4.104 -0.4584  0.1005  0.1271
  620TIP3   OH2 1823   5.975   6.185   3.007  0.6679 -0.2764  0.6724
  620TIP3    H1 1824   5.968   6.092   2.988 -0.3991 -0.0685  0.0067
  620TIP3    H2 1825   5.917   6.199   3.082 -0.5979  0.1600 -0.3593
  621TIP3   OH2 1826   0.276   5.769   4.836 -0.2254  0.1398  0.0952
  621TIP3    H1 1827   0.237   5.751   4.921 -0.4709  1.8145  0.3544
  621TIP3    H2 1828   0.217   5.831   4.794 -0.2032 -0.7834 -1.3943
  622TIP3   OH2 1829   5.350   0.666   0.696  0.9846 -0.0289 -0.4969
  622TIP3    H1 1830   5.429   0.683   0.746  0.9193 -1.7759  0.2551
  622TIP3    H2 1831   5.288   0.734   0.724  2.1940  1.3978 -1.1508
  623TIP3   OH2 1832   4.320   5.552   1.974 -0.0177  0.1372 -0.2450
  623TIP3    H1 1833   4.270   5.525   2.051  0.4219 -0.8997 -0.3099
  623TIP3    H2 1834   4.258   5.606   1.924 -0.8871 -0.6327 -0.0348
  624TIP3   OH2 1835   4.816   4.165   5.434 -0.4485  0.7875 -0.1394
  624TIP3    H1 1836   4.771   4.188   5.352 -1.1366  1.7744  0.4886
  624TIP3    H2 1837   4.804   4.242   5.490  0.5688  0.3771  0.6621
  625TIP3   OH2 1838   0.179   3.964   4.221 -0.0657 -0.3663  0.0262
  625TIP3    H1 1839   0.100   3.963   4.166 -0.8068  0.0261  1.0512
  625TIP3    H2 1840   0.231   3.890   4.189  0.0625  0.5236 -1.9427
  626TIP3   OH2 1841   4.415   4.701   3.904  0.0193  0.0640 -0.6830
  626TIP3    H1 1842   4.467   4.633   3.945  1.0716  0.6448 -1.0012
  626TIP3    H2 1843   4.327   4.690   3.940 -0.0873 -2.0403 -1.4390
  627TIP3   OH2 1844   4.245   0.565   4.620  0.8041  0.2546 -0.4418
  627TIP3    H1 1845   4.206   0.591   4.704  2.2506  0.5450  0.1832
  627TIP3    H2 1846   4.339   0.569   4.636  1.1002 -1.8221 -1.4521
  628TIP3   OH2 1847   3.449   1.914   2.026  0.0015  0.1022 -0.2708
  628TIP3    H1 1848   3.540   1.891   2.009 -0.2954 -1.1061 -0.2778
  628TIP3    H2 1849   3.410   1.834   2.059 -1.0951  0.5785 -0.3858
  629TIP3   OH2 1850   4.540   2.620   4.805 -0.4549  0.3892 -0.0226
  629TIP3    H1 1851   4.603   2.685   4.834  0.4835  1.0208 -3.0501
  629TIP3    H2 1852   4.466   2.672   4.771 -0.6542 -0.1889 -0.4961
  630TIP3   OH2 1853   6.983   5.862   3.944 -0.3708 -0.2130 -0.6299
  630TIP3    H1 1854   7.028   5.779   3.955 -0.7075 -0.6034 -2.0976
  630TIP3    H2 1855   6.900   5.840   3.902 -0.7033  0.8125 -0.5551
  631TIP3   OH2 1856   4.385   3.390   4.247  0.5966 -0.0287 -0.2003
  631TIP3    H1 1857   4.434   3.308   4.254  1.9806  0.8470  0.8807
  631TIP3    H2 1858   4.432   3.451   4.304 -1.6857  0.9200  0.7766
  632TIP3   OH2 1859   2.602   3.685   2.109 -0.3779 -0.5087 -0.1447
  632TIP3    H1 1860   2.617   3.755   2.173  0.3221 -0.8981  0.1363
  632TIP3    H2 1861   2.546   3.622   2.155  0.6875 -1.1268  0.3662
  633TIP3   OH2 1862   1.819   4.101   0.439 -0.0714  0.1523  0.2905
  633TIP3    H1 1863   1.895   4.057   0.477  0.7638  0.7239 -0.6666
  633TIP3    H2 1864   1.755   4.103   0.510  0.5797 -0.8671  0.9379
  634TIP3   OH2 1865   1.819   1.414   4.701  0.2344  0.3705 -0.2646
  634TIP3    H1 1866   1.820   1.353   4.627  2.2383 -3.1616  2.3437
  634TIP3    H2 1867   1.911   1.441   4.711  0.4213 -0.8215  1.9580
  635TIP3   OH2 1868   7.004   6.131   5.456  0.1855  0.0924  0.1938
  635TIP3    H1 1869   7.017   6.045   5.415 -3.1067 -0.4731 -0.0168
  635TIP3    H2 1870   7.045   6.193   5.397  1.7975 -1.2367 -0.1624
  636TIP3   OH2 1871   4.500   1.271   1.789 -0.6848  0.2807 -0.0339
  636TIP3    H1 1872   4.429   1.293   1.729 -2.0354 -0.3091  1.2713
  636TIP3    H2 1873   4.504   1.175   1.786 -2.2045  0.0548  2.2621
  637TIP3   OH2 1874   2.365   4.100   5.586 -0.5021 -0.0812  0.6302
  637TIP3    H1 1875   2.407   4.153   5.653  0.3195  1.2944 -0.9113
  637TIP3    H2 1876   2.429   4.032   5.564  0.4650  1.1977 -0.7436
  638TIP3   OH2 1877   0.117   2.772   3.040  0.1492  0.1013 -0.2464
  638TIP3    H1 1878   0.089   2.681   3.035  0.8469 -0.0617 -1.5161
  638TIP3    H2 1879   0.207   2.767   3.074  0.4016  0.2686 -0.8844
  639TIP3   OH2 1880   0.096   6.710   2.689  0.2579 -0.0678 -0.6127
  639TIP3    H1 1881   0.165   6.765   2.651 -0.8117  2.1438  0.4271
  639TIP3    H2 1882   0.049   6.674   2.613  1.3418 -0.0256 -1.3279
  640TIP3   OH2 1883   5.217   5.945   2.392 -0.1316  0.0942 -0.2183
  640TIP3    H1 1884   5.155   5.968   2.461 -1.9557 -1.6934 -1.1598
  640TIP3    H2 1885   5.284   5.893   2.437 -1.0211 -0.6125  0.3535
  641TIP3   OH2 1886   3.818   3.663   5.817  0.3616 -0.2022 -0.5281
  641TIP3    H1 1887   3.739   3.610   5.826  0.9793 -0.9955  0.3687
  641TIP3    H2 1888   3.823   3.713   5.899 -0.1738  1.2076 -1.3283
  642TIP3   OH2 1889   4.513   3.131   5.304 -0.7694  0.6339  0.0292
  642TIP3    H1 1890   4.574   3.169   5.240 -0.3929  0.3001  0.1875
  642TIP3    H2 1891   4.539   3.171   5.387  0.4657 -0.8905  0.4282
  643TIP3   OH2 1892   3.173   4.407   0.393 -0.4036 -0.1901 -0.5527
  643TIP3    H1 1893   3.241   4.463   0.355 -0.9131 -0.5395 -2.0373
  643TIP3    H2 1894   3.211   4.319   0.392 -0.6345 -0.2875 -0.7829
  644TIP3   OH2 1895   1.386   6.490   0.482 -0.1870 -0.7973 -0.8367
  644TIP3    H1 1896   1.447   6.519   0.414  0.8988  0.9208  0.7861
  644TIP3    H2 1897   1.396   6.554   0.553 -3.0440 -1.1049 -0.0083
  645TIP3   OH2 1898   4.177   3.654   1.202  0.2047 -0.0135  0.6283
  645TIP3    H1 1899   4.177   3.734   1.149 -0.3381 -0.3112  0.1671
  645TIP3    H2 1900   4.086   3.643   1.229 -0.0373 -1.2779 -0.5751
  646TIP3   OH2 1901   5.281   6.310   1.431  0.3979  0.0410 -0.4208
  646TIP3    H1 1902   5.241   6.394   1.454  0.6033  0.2462 -0.8009
  646TIP3    H2 1903   5.355   6.333   1.376  0.0577 -0.4221 -1.0887
  647TIP3   OH2 1904   0.578   6.639   3.859 -0.2171 -0.2726 -0.0258
  647TIP3    H1 1905   0.544   6.571   3.917 -1.7623 -0.7674 -1.4543
  647TIP3    H2 1906   0.618   6.592   3.786  0.7085  0.3538  0.0569
  648TIP3   OH2 1907   3.586   0.739   4.760 -0.4857 -0.1329 -0.2781
  648TIP3    H1 1908   3.547   0.678   4.822  0.1242  0.8347  1.0914
  648TIP3    H2 1909   3.680   0.720   4.763 -0.3459  0.5592 -0.1864
  649TIP3   OH2 1910   6.744   6.203   3.457 -0.2491 -0.0877  0.0679
  649TIP3    H1 1911   6.770   6.111   3.462  0.1315 -0.0397 -0.7296
  649TIP3    H2 1912   6.760   6.227   3.365 -1.5603  0.4236 -0.0492
  650TIP3   OH2 1913   3.590   3.331   0.641 -0.6039 -0.3942 -0.3533
  650TIP3    H1 1914   3.681   3.328   0.672 -0.8632 -1.1409  0.3687
  650TIP3    H2 1915   3.566   3.239   0.629 -0.9154 -0.1686 -1.6139
  651TIP3   OH2 1916   6.913   3.619   4.020  0.6750  0.3733  0.6236
  651TIP3    H1 1917   6.979   3.679   4.056 -0.5294  0.4351  2.8875
  651TIP3    H2 1918   6.848   3.609   4.090  0.0236 -2.3754 -0.2294
  652TIP3   OH2 1919   1.597   0.307   3.478 -0.1295  0.1833  0.1138
  652TIP3    H1 1920   1.581   0.252   3.554  0.9416 -0.4634 -0.1121
  652TIP3    H2 1921   1.628   0.390   3.514 -1.5013  0.5745  0.4459
  653TIP3   OH2 1922   6.934   3.150   5.596  0.1878  0.1107 -0.4327
  653TIP3    H1 1923   6.915   3.138   5.689  2.0129 -1.1710 -0.1697
  653TIP3    H2 1924   7.029   3.164   5.593 -0.1577  2.7579 -1.9098
  654TIP3   OH2 1925   1.557   1.036   3.247 -0.4517 -0.3301 -0.4285
  654TIP3    H1 1926   1.625   1.085   3.201 -1.0594 -0.8977 -2.0393
  654TIP3    H2 1927   1.600   1.000   3.324  0.5678  0.8791 -0.4117
  655TIP3   OH2 1928   1.281   3.765   2.448  0.1735  0.1661 -0.7379
  655TIP3    H1 1929   1.198   3.808   2.472  0.0516 -0.1607 -0.5702
  655TIP3    H2 1930   1.263   3.672   2.458  0.8424  0.1304  0.1667
  656TIP3   OH2 1931   4.935   5.881   4.355 -0.4918  0.0317  0.6127
  656TIP3    H1 1932   5.010   5.940   4.360  0.0166 -0.5911  0.5585
  656TIP3    H2 1933   4.961   5.814   4.291 -0.8880 -0.4720  0.9669
  657TIP3   OH2 1934   6.258   6.729   4.756 -0.0821  0.2172 -0.7076
  657TIP3    H1 1935   6.279   6.789   4.827  0.7385  0.2616 -0.9777
  657TIP3    H2 1936   6.174   6.690   4.782  0.4858 -0.2213  0.5828
  658TIP3   OH2 1937   2.326   2.416   2.414  0.2569  0.4658  0.3598
  658TIP3    H1 1938   2.253   2.445   2.469 -0.5367  0.9733 -0.8970
  658TIP3    H2 1939   2.336   2.323   2.434  0.5598  0.8258  1.9591
  659TIP3   OH2 1940   4.358   3.728   0.881 -0.0925  0.3806  0.2404
  659TIP3    H1 1941   4.378   3.755   0.791 -0.1013 -0.5210 -0.0398
  659TIP3    H2 1942   4.267   3.754   0.895 -0.1917  0.2287 -0.1233
  660TIP3   OH2 1943   3.017   5.477   3.501 -0.1704  0.2242  0.3207
  660TIP3    H1 1944   3.008   5.391   3.460  0.4828 -0.8223  2.2303
  660TIP3    H2 1945   2.945   5.481   3.565  0.4585  0.6026  1.0294
  661TIP3   OH2 1946   4.088   3.609   2.511 -0.3899  0.3638 -0.3743
  661TIP3    H1 1947   4.004   3.581   2.547  0.1053 -0.1356  0.4337
  661TIP3    H2 1948   4.082   3.705   2.505 -0.1665  0.5685  1.9569
  662TIP3   OH2 1949   1.075   2.447   1.219 -0.2634  0.0606 -0.2736
  662TIP3    H1 1950   1.016   2.371   1.214 -0.7149  0.3780  0.2011
  662TIP3    H2 1951   1.161   2.410   1.201 -0.6191 -0.3780 -1.1844
  663TIP3   OH2 1952   5.728   5.455   3.016 -0.4371 -0.3813  0.6325
  663TIP3    H1 1953   5.793   5.456   2.946  0.8580 -0.7239  1.7742
  663TIP3    H2 1954   5.685   5.370   3.009  0.5199 -0.9048  0.9622
  664TIP3   OH2 1955   7.213   1.330   5.510 -0.4192 -0.7292  0.0138
  664TIP3    H1 1956   7.243   1.416   5.537 -0.3019 -0.5880 -0.5384
  664TIP3    H2 1957   7.184   1.287   5.590 -0.9304  0.0034  0.2259
  665TIP3   OH2 1958   0.381   0.942   0.636  0.3083  0.5974  0.8806
  665TIP3    H1 1959   0.315   1.010   0.626 -0.3149 -0.0103  0.7844
  665TIP3    H2 1960   0.451   0.968   0.576 -0.0078  1.0498  0.7022
  666TIP3   OH2 1961   0.813   5.190   5.683  0.3340 -0.4972 -0.8716
  666TIP3    H1 1962   0.785   5.099   5.689  2.7568 -1.3244 -0.8347
  666TIP3    H2 1963   0.786   5.229   5.765 -2.5385 -0.5628 -1.6929
  667TIP3   OH2 1964   5.995   5.619   5.403 -0.0989  0.0357 -0.6747
  667TIP3    H1 1965   5.988   5.581   5.491  0.5747 -0.3074 -0.7666
  667TIP3    H2 1966   5.942   5.698   5.407  1.1763  0.8754  0.5157
  668TIP3   OH2 1967   2.629   1.189   2.352  0.1285  0.4124 -0.1398
  668TIP3    H1 1968   2.598   1.135   2.424  0.1276  1.0005  0.3108
  668TIP3    H2 1969   2.720   1.163   2.339 -1.0979 -3.3566 -3.3118
  669TIP3   OH2 1970   2.533   4.582   5.851 -0.1747  0.0386  0.2661
  669TIP3    H1 1971   2.522   4.657   5.793 -1.7132 -0.1811  0.2107
  669TIP3    H2 1972   2.538   4.619   5.939 -1.8302  0.2125  0.3277
  670TIP3   OH2 1973   2.721   2.512   3.946  0.0814  0.6327 -0.1043
  670TIP3    H1 1974   2.774   2.581   3.984  1.2181 -0.2910  0.0257
  670TIP3    H2 1975   2.782   2.460   3.894 -0.7768 -0.1857 -0.3287
  671TIP3   OH2 1976   2.613   6.130   5.094 -0.7240 -0.1414 -0.0574
  671TIP3    H1 1977   2.652   6.214   5.117 -0.2994 -0.5156  0.6294
  671TIP3    H2 1978   2.525   6.134   5.130 -1.1036  0.4440 -1.0213
  672TIP3   OH2 1979   0.701   4.737   0.589 -0.2705 -0.2608  0.1420
  672TIP3    H1 1980   0.755   4.798   0.538  1.0783 -1.2586  0.3310
  672TIP3    H2 1981   0.613   4.774   0.583  0.2930  1.0523 -0.7463
  673TIP3   OH2 1982   4.899   2.894   4.381  0.1277 -0.1076  0.3737
  673TIP3    H1 1983   4.951   2.822   4.417 -0.0739 -1.0386 -1.1069
  673TIP3    H2 1984   4.809   2.860   4.379  0.3271 -0.6445 -2.2510
  674TIP3   OH2 1985   1.727   2.439   0.637  0.3596  0.0036 -0.6730
  674TIP3    H1 1986   1.677   2.498   0.694  1.4619  0.4297 -0.1070
  674TIP3    H2 1987   1.725   2.480   0.551 -0.9996 -0.4455 -0.8777
  675TIP3   OH2 1988   3.345   5.697   3.104 -0.2743  0.0195  0.2146
  675TIP3    H1 1989   3.253   5.720   3.113 -0.7242 -1.7653  0.3724
  675TIP3    H2 1990   3.370   5.728   3.017 -0.8255  1.1033  0.4289
  676TIP3   OH2 1991   2.816   3.037   1.258 -0.4088  0.5516 -0.0882
  676TIP3    H1 1992   2.749   3.106   1.264 -1.6303 -0.5260 -0.7646
  676TIP3    H2 1993   2.894   3.076   1.298 -0.6472  2.7928 -1.6208
  677TIP3   OH2 1994   0.157   5.812   1.252 -0.2767  0.1439  0.1464
  677TIP3    H1 1995   0.233   5.869   1.266  0.1842 -0.4408  0.0462
  677TIP3    H2 1996   0.117   5.845   1.171  0.2872  0.0097 -0.1926
  678TIP3   OH2 1997   0.208   2.709   4.646  0.3252 -0.6168  0.3557
  678TIP3    H1 1998   0.119   2.678   4.630  0.9490 -2.4609  0.2676
  678TIP3    H2 1999   0.250   2.705   4.560  0.6354 -0.1977  0.4859
  679TIP3   OH2 2000   3.177   6.540   3.300 -0.0369 -0.4662 -0.1373
  679TIP3    H1 2001   3.092   6.496   3.303 -1.2262  1.6061  3.7033
  679TIP3    H2 2002   3.236   6.483   3.350 -0.7933  0.6529  2.1868
  680TIP3   OH2 2003   2.037   2.448   1.604  0.3956 -0.0836  0.8141
  680TIP3    H1 2004   1.952   2.459   1.562  0.9772 -0.5755 -0.5494
  680TIP3    H2 2005   2.018   2.446   1.697 -1.2888 -1.8865  0.4863
  681TIP3   OH2 2006   1.311   4.151   3.930 -0.2684  0.0175  0.0321
  681TIP3    H1 2007   1.357   4.233   3.943 -0.6028 -0.0676  2.0032
  681TIP3    H2 2008   1.227   4.163   3.973 -0.4552 -1.2354  0.0571
  682TIP3   OH2 2009   0.782   5.511   2.139 -0.6885  0.1371 -0.2277
  682TIP3    H1 2010   0.727   5.504   2.060 -2.2656 -3.0137  0.9831
  682TIP3    H2 2011   0.721   5.541   2.207 -0.7359 -2.2996  0.8823
  683TIP3   OH2 2012   3.967   5.778   1.193  0.1708 -0.1323  0.6198
  683TIP3    H1 2013   3.964   5.813   1.282 -0.9526  0.7649  0.2509
  683TIP3    H2 2014   4.051   5.807   1.159  2.0264 -3.0315  2.3467
  684TIP3   OH2 2015   3.026   4.353   0.891  0.1026 -0.2759  0.0492
  684TIP3    H1 2016   2.954   4.401   0.932  0.2961  1.2712 -1.3226
  684TIP3    H2 2017   3.105   4.403   0.915  0.5616 -1.1277  0.3429
  685TIP3   OH2 2018   7.151   2.736   0.560  0.1893 -0.0593 -0.1109
  685TIP3    H1 2019   7.124   2.822   0.528  1.7047  1.5286  2.4990
  685TIP3    H2 2020   7.138   2.741   0.655  1.8397 -2.1010  0.2791
  686TIP3   OH2 2021   7.148   6.100   4.619  0.2840  0.0163 -0.0986
  686TIP3    H1 2022   7.055   6.122   4.630  1.2072  3.8322  1.9846
  686TIP3    H2 2023   7.166   6.120   4.527 -0.2568  3.1467  0.3593
  687TIP3   OH2 2024   3.990   3.232   0.953  0.4089  0.0034 -0.1716
  687TIP3    H1 2025   4.012   3.141   0.972  0.0911 -0.0143  0.1330
  687TIP3    H2 2026   4.071   3.270   0.920  0.5949 -0.3397 -0.1165
  688TIP3   OH2 2027   1.924   2.273   4.135  0.4025 -0.2064  0.8832
  688TIP3    H1 2028   1.890   2.251   4.048 -0.2009 -0.4796  1.1779
  688TIP3    H2 2029   1.957   2.362   4.126  0.1854 -0.1670  0.4180
  689TIP3   OH2 2030   5.815   1.512   1.357 -0.2754  0.2126  0.1190
  689TIP3    H1 2031   5.775   1.425   1.356  0.4107 -0.1495  1.4302
  689TIP3    H2 2032   5.871   1.511   1.435 -2.1980  2.7244  1.6535
  690TIP3   OH2 2033   6.837   5.380   5.289 -0.1804  0.3882 -0.0891
  690TIP3    H1 2034   6.750   5.416   5.273 -0.2385 -0.2738 -1.3978
  690TIP3    H2 2035   6.896   5.455   5.285 -0.5846  0.7102 -0.0778
  691TIP3   OH2 2036   6.638   5.954   1.751  0.7432  0.3807 -0.2961
  691TIP3    H1 2037   6.663   5.957   1.843 -0.1030  1.1317 -0.0717
  691TIP3    H2 2038   6.614   6.044   1.729 -1.3449 -0.1805 -0.5713
  692TIP3   OH2 2039   3.732   3.394   2.209 -0.0529 -0.2795 -0.3096
  692TIP3    H1 2040   3.821   3.367   2.235  0.7981  0.5221 -2.1894
  692TIP3    H2 2041   3.693   3.316   2.171  0.5873 -0.1548 -1.2521
  693TIP3   OH2 2042   6.969   0.609   4.535  0.5618 -0.3446 -0.1423
  693TIP3    H1 2043   6.945   0.643   4.622  2.1133 -1.3133  0.7237
  693TIP3    H2 2044   7.064   0.611   4.535  0.6276 -2.0753 -1.1102
  694TIP3   OH2 2045   0.784   0.554   0.779 -0.2302  0.7310  0.2828
  694TIP3    H1 2046   0.842   0.581   0.707  0.4946  0.7945  0.8733
  694TIP3    H2 2047   0.712   0.616   0.776 -0.7150  0.1595 -0.9825
  695TIP3   OH2 2048   5.633   0.764   5.545  0.1129 -0.3178 -0.1700
  695TIP3    H1 2049   5.543   0.741   5.522 -0.6204  0.8099  1.3718
  695TIP3    H2 2050   5.655   0.839   5.489 -0.3993  0.2258  0.3432
  696TIP3   OH2 2051   0.413   5.034   2.085 -0.0518 -0.3070 -0.3987
  696TIP3    H1 2052   0.363   4.982   2.148  0.2383  2.1887  2.0986
  696TIP3    H2 2053   0.353   5.104   2.060  1.3564  1.3983  0.8213
  697TIP3   OH2 2054   6.873   0.046   1.428 -0.0710 -0.4553 -0.1813
  697TIP3    H1 2055   6.807  -0.017   1.399  0.6595 -1.5492  0.4565
  697TIP3    H2 2056   6.834   0.088   1.505 -0.4135 -0.4140 -0.3799
  698TIP3   OH2 2057   7.061   5.539   1.217 -0.1871 -0.5323  0.1803
  698TIP3    H1 2058   6.986   5.493   1.255  0.9391 -1.1793  1.7542
  698TIP3    H2 2059   7.070   5.618   1.270  2.2350 -2.1092  2.3642
  699TIP3   OH2 2060   4.296   0.683   2.944  0.0850  0.0985  0.5014
  699TIP3    H1 2061   4.380   0.686   2.898 -0.1815 -0.4703 -0.0321
  699TIP3    H2 2062   4.234   0.727   2.886 -0.0226  0.3878  0.8280
  700TIP3   OH2 2063   3.041   3.086   1.399 -1.0800  0.0624 -0.0116
  700TIP3    H1 2064   3.038   3.112   1.491  1.2482 -0.1110  0.1790
  700TIP3    H2 2065   3.134   3.084   1.377 -1.5802  1.7333 -2.8606
  701TIP3   OH2 2066   6.917   1.023   4.267  0.5024 -0.2633 -0.0729
  701TIP3    H1 2067   6.955   1.108   4.244  0.2713 -0.2112 -0.2631
  701TIP3    H2 2068   6.981   0.959   4.236  0.2509 -0.1905 -0.7558
  702TIP3   OH2 2069   5.638   6.052   3.124  0.1630 -0.1200 -0.4915
  702TIP3    H1 2070   5.612   6.142   3.144  1.5596  0.4427 -1.1099
  702TIP3    H2 2071   5.590   6.031   3.044  0.6805  0.4808 -0.9657
  703TIP3   OH2 2072   2.917   1.398   5.241  0.0171 -0.7213 -0.0115
  703TIP3    H1 2073   2.984   1.459   5.273  1.5074 -1.9727 -0.6076
  703TIP3    H2 2074   2.834   1.438   5.265  0.8206  2.5907 -2.2075
  704TIP3   OH2 2075   3.716   4.313   5.810  0.5003 -0.6214  0.5997
  704TIP3    H1 2076   3.655   4.383   5.784 -0.8883 -2.1120 -0.3841
  704TIP3    H2 2077   3.718   4.255   5.734  3.0136 -0.7671  0.7109
  705TIP3   OH2 2078   0.452   0.665   4.069  0.0929 -0.2980 -0.1536
  705TIP3    H1 2079   0.490   0.752   4.079 -0.1033  0.1496 -2.7617
  705TIP3    H2 2080   0.366   0.672   4.111 -0.3323  1.1056 -1.1845
  706TIP3   OH2 2081   0.259   3.086   0.740  0.2656  0.1973  0.2716
  706TIP3    H1 2082   0.342   3.071   0.694 -0.2662  0.6206 -0.8829
  706TIP3    H2 2083   0.200   3.116   0.671 -0.0521  2.8569  1.5781
  707TIP3   OH2 2084   0.246   5.228   0.026 -0.1358 -0.6170  0.3376
  707TIP3    H1 2085   0.243   5.155  -0.036 -0.2308  1.0766 -1.7955
  707TIP3    H2 2086   0.241   5.187   0.112 -3.6591 -2.9869 -0.7580
  708TIP3   OH2 2087   4.000   6.618   1.664 -0.0136  0.4244  0.3960
  708TIP3    H1 2088   3.992   6.693   1.604 -1.9458  0.4304  0.5861
  708TIP3    H2 2089   4.017   6.658   1.749  0.4791  0.5478  0.2444
  709TIP3   OH2 2090   5.550   0.651   3.763  0.1551  0.0107  0.1651
  709TIP3    H1 2091   5.490   0.677   3.833 -1.0969  2.2589 -1.6090
  709TIP3    H2 2092   5.629   0.701   3.780  0.6434 -1.0216  1.0716
  710TIP3   OH2 2093   1.381   1.553   5.068  0.3673  0.2023 -0.1224
  710TIP3    H1 2094   1.443   1.483   5.086 -0.2378 -0.5158 -0.7615
  710TIP3    H2 2095   1.434   1.633   5.072  1.1816 -0.3276  0.0465
  711TIP3   OH2 2096   3.850   3.077   2.746  0.0505  0.0013  0.3792
  711TIP3    H1 2097   3.821   2.986   2.747  0.2424 -0.0582  1.4884
  711TIP3    H2 2098   3.775   3.127   2.777 -0.3235  0.3282 -0.9665
  712TIP3   OH2 2099   5.938   5.309   4.593  0.4846 -0.2243  0.0712
  712TIP3    H1 2100   5.991   5.388   4.585 -0.9049  0.6360 -1.2528
  712TIP3    H2 2101   5.855   5.340   4.629  0.5475 -1.4004  1.3130
  713TIP3   OH2 2102   2.418   5.805   2.294  0.3595  0.0344 -0.1965
  713TIP3    H1 2103   2.402   5.859   2.372 -0.4384  0.0668 -0.3802
  713TIP3    H2 2104   2.470   5.732   2.327  0.9895  0.6252  0.1583
  714TIP3   OH2 2105   5.231   4.293   1.392 -0.2196  0.0206  0.6354
  714TIP3    H1 2106   5.246   4.387   1.380 -1.1447  0.3056  1.5574
  714TIP3    H2 2107   5.168   4.288   1.463  0.6297 -1.3468  1.3386
  715TIP3   OH2 2108   0.540   2.791   1.891  0.4502 -0.0347  0.2614
  715TIP3    H1 2109   0.608   2.763   1.951 -1.0932  0.2477  2.2655
  715TIP3    H2 2110   0.541   2.887   1.896 -0.3119 -0.0333  0.6344
  716TIP3   OH2 2111   0.053   2.251   1.070  0.1035  0.2258 -0.1610
  716TIP3    H1 2112   0.083   2.303   0.996  2.4150  1.8800  1.7807
  716TIP3    H2 2113   0.014   2.314   1.130 -2.3851 -1.1715 -0.1739
  717TIP3   OH2 2114   0.563   1.416   3.412 -0.4999  0.1753 -0.6707
  717TIP3    H1 2115   0.510   1.401   3.491  0.0765 -0.9419 -0.4744
  717TIP3    H2 2116   0.563   1.331   3.367 -0.1596  0.5891 -1.4703
  718TIP3   OH2 2117   6.169   5.311   2.701 -0.0450 -0.4081 -0.4778
  718TIP3    H1 2118   6.108   5.379   2.675 -1.0236 -1.3771 -0.7803
  718TIP3    H2 2119   6.137   5.282   2.787 -0.8903 -1.8919 -1.2618
  719TIP3   OH2 2120   6.744   1.654   5.367 -0.1998  0.5713  0.6826
  719TIP3    H1 2121   6.667   1.698   5.332 -0.0403 -0.0482 -0.4795
  719TIP3    H2 2122   6.816   1.716   5.354 -0.3189  0.7462  0.8551
  720TIP3   OH2 2123   5.218   4.360   2.198 -0.6937 -0.6832  0.2105
  720TIP3    H1 2124   5.158   4.341   2.271 -1.1346 -0.5054 -0.1009
  720TIP3    H2 2125   5.238   4.454   2.208 -2.2306 -0.1913 -0.9573
  721TIP3   OH2 2126   4.754   0.618   4.113 -0.2131 -0.1198  0.0088
  721TIP3    H1 2127   4.807   0.541   4.134 -0.4823 -0.3776 -0.2563
  721TIP3    H2 2128   4.790   0.650   4.031 -0.8900 -0.6899 -0.5268
  722TIP3   OH2 2129   3.568   0.785   2.453  0.3616 -0.4094 -0.4054
  722TIP3    H1 2130   3.641   0.774   2.514  0.0340 -2.6772 -0.3504
  722TIP3    H2 2131   3.606   0.831   2.378  1.7728 -1.2482 -0.2296
  723TIP3   OH2 2132   4.817   0.113   0.906  0.7527  0.3518 -1.2662
  723TIP3    H1 2133   4.840   0.024   0.880  2.8583  0.0192  1.2843
  723TIP3    H2 2134   4.723   0.110   0.924  0.6991 -1.2368 -1.6749
  724TIP3   OH2 2135   4.646   6.031   5.714 -0.0128  0.1734 -0.2769
  724TIP3    H1 2136   4.670   6.096   5.781 -0.3883  0.2756 -0.2424
  724TIP3    H2 2137   4.552   6.018   5.726 -0.1149  0.3273 -0.9099
  725TIP3   OH2 2138   4.732   6.021   1.858  0.5539 -0.1516  0.4184
  725TIP3    H1 2139   4.818   5.990   1.886  2.3092  0.5846 -3.5383
  725TIP3    H2 2140   4.745   6.113   1.839 -1.4241  0.2113  0.6476
  726TIP3   OH2 2141   4.194   3.907   5.614  0.5303 -0.9872  0.3812
  726TIP3    H1 2142   4.114   3.857   5.631 -1.0045  1.0242 -0.5567
  726TIP3    H2 2143   4.226   3.931   5.702 -1.3762  0.3664  0.7532
  727TIP3   OH2 2144   1.381   3.362   2.843  0.2150 -0.4082  0.1483
  727TIP3    H1 2145   1.350   3.386   2.755  0.3442  1.4009  0.5630
  727TIP3    H2 2146   1.355   3.271   2.853 -2.4413  0.1789 -0.6495
  728TIP3   OH2 2147   6.577   5.833   2.453  0.4249  0.1227 -0.5045
  728TIP3    H1 2148   6.533   5.763   2.405 -0.0710  0.9477 -1.2630
  728TIP3    H2 2149   6.637   5.872   2.390  0.5111  0.5553 -0.1581
  729TIP3   OH2 2150   4.297   2.938   1.831 -0.2488  0.0350 -0.2007
  729TIP3    H1 2151   4.213   2.907   1.866 -0.0343 -0.0913  0.2153
  729TIP3    H2 2152   4.297   2.911   1.740 -1.5406  1.8057 -0.7782
  730TIP3   OH2 2153   0.054   4.887   3.424 -0.5359 -0.2885 -0.4909
  730TIP3    H1 2154  -0.011   4.934   3.371 -1.8864  0.4726  1.6957
  730TIP3    H2 2155   0.135   4.936   3.411 -1.9585  3.1806  2.0261
  731TIP3   OH2 2156   7.088   1.033   3.442  0.1776 -0.7027  0.5908
  731TIP3    H1 2157   7.090   1.114   3.493  0.4474 -0.8051  0.7425
  731TIP3    H2 2158   7.180   1.009   3.432  0.2411  0.1263 -1.2397
  732TIP3   OH2 2159   3.684   3.307   2.789  0.2825  0.0522  0.4872
  732TIP3    H1 2160   3.674   3.322   2.695  0.9281 -0.3731  0.3470
  732TIP3    H2 2161   3.752   3.367   2.816 -0.3859  0.6715  0.8272
  733TIP3   OH2 2162   1.297   2.971   1.520  0.1322  0.2105  0.2986
  733TIP3    H1 2163   1.267   2.935   1.436  0.4650  2.9605 -1.1260
  733TIP3    H2 2164   1.276   2.903   1.584 -2.5916 -0.9600 -1.6071
  734TIP3   OH2 2165   1.400   3.207   1.603 -0.1428 -0.8380  0.4397
  734TIP3    H1 2166   1.370   3.138   1.544 -1.2787 -0.3137  0.3894
  734TIP3    H2 2167   1.467   3.254   1.553 -1.3125 -0.1969 -0.5754
  735TIP3   OH2 2168   2.381   2.717   2.486 -0.9667 -0.1124  0.2104
  735TIP3    H1 2169   2.371   2.622   2.471 -0.9864 -0.2358  0.9775
  735TIP3    H2 2170   2.300   2.754   2.451  0.4029  0.0174 -3.1886
  736TIP3   OH2 2171   0.676   0.069   1.224 -0.3990  0.7277 -0.4605
  736TIP3    H1 2172   0.593   0.056   1.270 -0.3749  0.9138 -0.3630
  736TIP3    H2 2173   0.695  -0.016   1.185 -0.1210  0.4049  0.3685
  737TIP3   OH2 2174   4.481   3.752   4.783 -0.4941 -0.2899  0.0653
  737TIP3    H1 2175   4.415   3.816   4.809 -1.5853 -1.0769 -0.6898
  737TIP3    H2 2176   4.489   3.693   4.858 -1.1840 -0.6120 -0.1117
  738TIP3   OH2 2177   0.132   6.075   5.215  0.1304  0.0381  0.4542
  738TIP3    H1 2178   0.052   6.076   5.266 -0.2989 -1.7701 -0.1203
  738TIP3    H2 2179   0.190   6.014   5.260  1.4557  1.7126  1.1657
  739TIP3   OH2 2180   3.972   1.884   0.382 -0.1667 -0.3229 -0.2669
  739TIP3    H1 2181   3.898   1.825   0.396  0.2208 -0.6418  0.5261
  739TIP3    H2 2182   3.937   1.972   0.399 -0.5859 -0.3764 -0.8229
  740TIP3   OH2 2183   2.151   5.021   5.310 -0.0285 -0.0180 -0.1962
  740TIP3    H1 2184   2.206   4.974   5.373 -0.1607  0.4680  0.2967
  740TIP3    H2 2185   2.063   5.012   5.344  0.1082  1.8793  0.7835
  741TIP3   OH2 2186   0.878   0.816   4.342 -0.6120  0.1487  0.5504
  741TIP3    H1 2187   0.881   0.809   4.438 -0.8883 -1.6064  0.4586
  741TIP3    H2 2188   0.787   0.800   4.320 -0.5735  0.6841 -0.0082
  742TIP3   OH2 2189   2.036   4.767   0.826 -0.0318 -0.2518 -0.1102
  742TIP3    H1 2190   2.008   4.738   0.739  2.0095  0.8106 -1.1801
  742TIP3    H2 2191   2.091   4.843   0.810 -0.3579  0.5606  2.2061
  743TIP3   OH2 2192   2.780   1.010   5.420  0.9068  0.8108 -0.1424
  743TIP3    H1 2193   2.721   1.082   5.444  0.5165  0.8197 -1.0902
  743TIP3    H2 2194   2.864   1.035   5.459  0.7699  1.7805 -0.4263
  744TIP3   OH2 2195   4.746   2.066   4.394  0.8949  0.3595 -0.2780
  744TIP3    H1 2196   4.729   1.972   4.384  0.8473  0.4582 -1.1739
  744TIP3    H2 2197   4.717   2.086   4.483 -2.2461  0.2045 -1.1411
  745TIP3   OH2 2198   1.727   4.442   2.942 -0.2701 -0.1844 -0.4084
  745TIP3    H1 2199   1.644   4.407   2.975  0.0365 -0.3022  0.2547
  745TIP3    H2 2200   1.772   4.366   2.905  0.1042 -0.3845  0.4251
  746TIP3   OH2 2201   3.778   2.590   0.187 -0.1610 -0.0029  0.1080
  746TIP3    H1 2202   3.834   2.591   0.109 -0.9184  1.6630 -0.4758
  746TIP3    H2 2203   3.839   2.586   0.261  0.6105 -0.5783 -0.5439
  747TIP3   OH2 2204   4.672   3.877   4.145  0.2061 -0.6003 -0.1535
  747TIP3    H1 2205   4.729   3.954   4.141  0.0938 -0.5137 -0.0804
  747TIP3    H2 2206   4.651   3.867   4.238 -0.9933  0.1676 -0.3265
  748TIP3   OH2 2207   4.324   3.331   5.689 -0.4061 -0.3152  0.1370
  748TIP3    H1 2208   4.283   3.382   5.758  1.2086 -0.6428  1.3919
  748TIP3    H2 2209   4.325   3.241   5.723  1.3548 -0.3045  0.1693
  749TIP3   OH2 2210   7.016   2.100   5.597  0.1814  0.0886 -0.1961
  749TIP3    H1 2211   6.929   2.088   5.636  0.4892  0.6281  0.6666
  749TIP3    H2 2212   6.999   2.150   5.517 -0.3585 -0.2987 -0.3345
  750TIP3   OH2 2213   2.696   3.284   5.835 -0.0496 -0.1357  0.8888
  750TIP3    H1 2214   2.733   3.267   5.748 -1.6411  0.1790  0.1091
  750TIP3    H2 2215   2.727   3.211   5.889 -0.6719 -1.4711 -0.4752
  751TIP3   OH2 2216   5.831   4.278   4.442 -0.0434 -0.5003  0.3440
  751TIP3    H1 2217   5.829   4.259   4.348  1.3426 -0.6521  0.3212
  751TIP3    H2 2218   5.833   4.191   4.483  2.7182 -0.5343  0.3574
  752TIP3   OH2 2219   3.864   3.123   5.195  0.4969 -0.3544 -0.3466
  752TIP3    H1 2220   3.822   3.183   5.133  2.1950  1.7714  0.4191
  752TIP3    H2 2221   3.830   3.037   5.172 -2.6973  0.9616 -0.9823
  753TIP3   OH2 2222   0.412   2.691   0.738  0.2078  0.3570 -0.1825
  753TIP3    H1 2223   0.483   2.713   0.678 -0.7090  1.4438 -0.9098
  753TIP3    H2 2224   0.357   2.769   0.739 -1.5114 -0.8009 -0.4275
  754TIP3   OH2 2225   6.695   4.868   2.860 -0.5233 -0.0518  0.2187
  754TIP3    H1 2226   6.726   4.947   2.903  1.9849  0.3977 -2.0845
  754TIP3    H2 2227   6.610   4.891   2.824 -0.8755  0.8002  1.5506
  755TIP3   OH2 2228   0.111   3.109   5.869 -0.2924 -0.1923  0.3100
  755TIP3    H1 2229   0.165   3.162   5.810 -0.3487 -1.4913 -0.9690
  755TIP3    H2 2230   0.173   3.052   5.914 -0.5459 -1.8050 -1.2864
  756TIP3   OH2 2231   1.763   2.745   4.107 -0.0830 -0.5529 -0.5224
  756TIP3    H1 2232   1.691   2.777   4.162 -1.3307 -0.9940 -1.8108
  756TIP3    H2 2233   1.801   2.673   4.156  0.3251  0.4998  0.7524
  757TIP3   OH2 2234   2.120   4.266   2.233 -0.4030  0.9327  0.0908
  757TIP3    H1 2235   2.144   4.178   2.203  0.4178  1.9734 -2.5263
  757TIP3    H2 2236   2.053   4.295   2.172 -0.6855  2.1498  0.9414
  758TIP3   OH2 2237   1.109   0.948   0.572  0.2175  0.5617 -0.2230
  758TIP3    H1 2238   1.139   0.857   0.578 -0.2805  0.4423  0.5456
  758TIP3    H2 2239   1.120   0.970   0.479  1.2026  0.0218 -0.2470
  759TIP3   OH2 2240   2.671   0.237   3.333  0.1777  0.3051  0.6147
  759TIP3    H1 2241   2.699   0.326   3.316 -0.1526  0.5629  1.3772
  759TIP3    H2 2242   2.654   0.200   3.246 -3.5333  2.2359  0.3228
  760TIP3   OH2 2243   2.941   0.335   4.851  0.1423  0.2309 -0.9617
  760TIP3    H1 2244   2.923   0.241   4.857 -1.3329  0.4942 -0.9837
  760TIP3    H2 2245   2.894   0.363   4.772  2.0100  0.6918 -1.9914
  761TIP3   OH2 2246   6.179   1.269   5.230  0.1011 -0.4347  0.0382
  761TIP3    H1 2247   6.157   1.360   5.208  0.2516 -0.5572 -0.6371
  761TIP3    H2 2248   6.209   1.231   5.148  1.8105 -0.5688  0.6815
  762TIP3   OH2 2249   0.063   1.978   4.115  0.0982 -0.1471  0.0520
  762TIP3    H1 2250   0.082   2.069   4.090  0.6665 -0.1713  0.3802
  762TIP3    H2 2251   0.147   1.942   4.142 -0.3365 -0.3843  1.1625
  763TIP3   OH2 2252   2.116   1.213   2.690 -0.0517  0.0452 -0.0058
  763TIP3    H1 2253   2.065   1.284   2.651  1.0105  1.1920  0.6549
  763TIP3    H2 2254   2.204   1.226   2.657  0.1510 -1.0069  0.0931
  764TIP3   OH2 2255   3.453   4.825   0.465 -0.4431  0.0272 -0.1124
  764TIP3    H1 2256   3.390   4.879   0.513  0.7402  1.5109 -0.1394
  764TIP3    H2 2257   3.532   4.879   0.460  1.0922 -2.0258  0.5254
  765TIP3   OH2 2258   1.528   2.628   3.961 -0.0598 -0.8564 -0.0052
  765TIP3    H1 2259   1.563   2.694   4.021  3.0797 -1.2321 -1.2444
  765TIP3    H2 2260   1.580   2.549   3.980 -1.1008 -1.8616 -1.1663
  766TIP3   OH2 2261   3.485   0.058   4.885 -0.4832 -0.1378  0.4966
  766TIP3    H1 2262   3.510   0.107   4.806  0.7636 -0.1607  0.8571
  766TIP3    H2 2263   3.390   0.051   4.879 -0.6490  1.7562  0.1034
  767TIP3   OH2 2264   4.038   0.898   1.962 -0.4073  0.6875 -0.3325
  767TIP3    H1 2265   4.075   0.935   2.042 -0.2590  1.1511 -0.6102
  767TIP3    H2 2266   3.973   0.835   1.993 -0.3694  0.8782  0.1509
  768TIP3   OH2 2267   2.207   0.532   5.099 -0.1212 -0.1375  0.2884
  768TIP3    H1 2268   2.135   0.473   5.077  0.2327 -0.7564  0.7597
  768TIP3    H2 2269   2.282   0.474   5.114  0.8648  0.5615 -1.5596
  769TIP3   OH2 2270   3.837   0.341   3.529  0.0184  0.5099 -0.5447
  769TIP3    H1 2271   3.746   0.358   3.555 -0.1508 -0.5792 -0.3429
  769TIP3    H2 2272   3.867   0.423   3.489 -0.3853  1.5616  1.2171
  770TIP3   OH2 2273   1.996   2.555   3.460  0.1730 -0.3735 -0.0536
  770TIP3    H1 2274   2.040   2.595   3.385  1.5696 -0.3371  0.7329
  770TIP3    H2 2275   1.917   2.606   3.472  1.0582  1.0778 -0.1306
  771TIP3   OH2 2276   1.490   6.718   0.360 -0.0074 -0.1165  0.6492
  771TIP3    H1 2277   1.475   6.799   0.409  2.5503  0.7469  0.1486
  771TIP3    H2 2278   1.585   6.707   0.361 -0.1128 -1.7251 -1.4801
  772TIP3   OH2 2279   1.802   0.794   4.670  0.0312 -0.2875  0.0968
  772TIP3    H1 2280   1.738   0.834   4.612  0.7081  0.1497 -0.3736
  772TIP3    H2 2281   1.814   0.858   4.740 -0.8051 -0.8267  0.7522
  773TIP3   OH2 2282   3.565   5.891   2.196 -0.6238 -0.6057 -0.6402
  773TIP3    H1 2283   3.618   5.921   2.122  0.2458 -1.2925 -0.3175
  773TIP3    H2 2284   3.487   5.946   2.193  0.7671  1.5250 -0.2084
  774TIP3   OH2 2285   4.199   5.126   3.075 -1.0820  0.9453  0.2041
  774TIP3    H1 2286   4.258   5.199   3.095  2.2016 -0.9516 -1.5689
  774TIP3    H2 2287   4.194   5.076   3.156  0.8586  0.5511  0.1429
  775TIP3   OH2 2288   6.720   5.797   4.819 -0.3812 -0.3637 -0.0550
  775TIP3    H1 2289   6.712   5.891   4.835 -1.3092 -0.2730 -1.0006
  775TIP3    H2 2290   6.650   5.758   4.871 -1.1058 -0.3735 -1.0170
  776TIP3   OH2 2291   0.475   1.331   3.664  0.0977  0.4066  0.0086
  776TIP3    H1 2292   0.415   1.394   3.705 -0.6494  1.1410 -2.0726
  776TIP3    H2 2293   0.437   1.246   3.684  1.5516  0.4332  3.5486
  777TIP3   OH2 2294   6.234   2.539   4.209 -0.1746  0.6015 -0.3238
  777TIP3    H1 2295   6.287   2.481   4.263 -0.2239 -0.0123 -0.9207
  777TIP3    H2 2296   6.259   2.627   4.236  0.2287  0.3047  0.2764
  778TIP3   OH2 2297   3.906   2.418   3.111  0.4327  0.0381 -0.0456
  778TIP3    H1 2298   3.911   2.405   3.206  0.0212  0.8977  0.0966
  778TIP3    H2 2299   3.952   2.501   3.095 -1.0128  0.8041 -0.3781
  779TIP3   OH2 2300   6.355   2.419   5.087  0.0145  0.0363 -0.4326
  779TIP3    H1 2301   6.445   2.428   5.057 -0.4097  0.0819 -1.7616
  779TIP3    H2 2302   6.350   2.472   5.167  0.6072  1.8169 -1.5365
  780TIP3   OH2 2303   1.493   0.116   3.668  0.2953  0.4726  0.2510
  780TIP3    H1 2304   1.440   0.195   3.672  0.0956  0.3838 -0.4904
  780TIP3    H2 2305   1.434   0.049   3.633  0.4705 -0.0053  0.8373
  781TIP3   OH2 2306   3.390   4.332   3.497 -0.7621  0.6104  0.1327
  781TIP3    H1 2307   3.418   4.399   3.559 -0.3963  0.7357 -0.1698
  781TIP3    H2 2308   3.355   4.382   3.422 -1.2251  0.4601  0.2415
  782TIP3   OH2 2309   5.131   0.629   2.817 -0.2410  0.0497  0.2803
  782TIP3    H1 2310   5.107   0.669   2.734  0.4167  0.0571  0.0903
  782TIP3    H2 2311   5.194   0.690   2.856 -0.0160 -0.2952  0.4611
  783TIP3   OH2 2312   7.186   3.405   5.378 -0.1135  0.4183  0.0107
  783TIP3    H1 2313   7.227   3.416   5.463 -1.9717 -2.8961  1.5606
  783TIP3    H2 2314   7.237   3.337   5.335 -1.6207 -1.0564  0.4146
  784TIP3   OH2 2315   1.780   1.178   4.518 -0.1928  0.4114  0.1058
  784TIP3    H1 2316   1.697   1.159   4.561  0.8728  2.5369  3.4911
  784TIP3    H2 2317   1.802   1.097   4.472 -3.1790 -0.8409  0.6394
  785TIP3   OH2 2318   3.716   1.110   4.623 -0.0205 -0.1294  0.7772
  785TIP3    H1 2319   3.802   1.069   4.632 -0.3971 -0.8256  1.2998
  785TIP3    H2 2320   3.659   1.060   4.681 -1.6409 -2.1106 -2.2162
  786TIP3   OH2 2321   6.927   2.016   5.221 -0.2734  0.2581  0.1272
  786TIP3    H1 2322   6.835   2.003   5.200  0.0318  1.3799 -2.2855
  786TIP3    H2 2323   6.933   2.107   5.250 -0.1204 -0.2838  1.9451
  787TIP3   OH2 2324   3.014   4.038   5.650  0.9250  0.1832  0.9445
  787TIP3    H1 2325   2.944   4.043   5.715  2.3276  0.9542  2.4955
  787TIP3    H2 2326   2.996   4.109   5.589 -0.7477 -0.9247  0.0705
  788TIP3   OH2 2327   6.990   2.273   5.330 -0.0741 -0.3102  0.0613
  788TIP3    H1 2328   7.058   2.340   5.336  0.5285 -0.7712 -1.1085
  788TIP3    H2 2329   6.908   2.320   5.345  0.4899  0.2492  1.5302
  789TIP3   OH2 2330   2.546   0.410   3.753 -0.1786 -0.1714 -0.4573
  789TIP3    H1 2331   2.562   0.499   3.784 -0.3191 -0.3663  0.1878
  789TIP3    H2 2332   2.626   0.363   3.773 -0.9414 -0.7642  1.3580
  790TIP3   OH2 2333   3.963   6.544   3.856  0.3851 -0.2578 -0.7544
  790TIP3    H1 2334   4.013   6.610   3.904 -0.0521 -0.1335 -0.4716
  790TIP3    H2 2335   3.954   6.470   3.916  0.0232 -0.1869 -0.7191
  791TIP3   OH2 2336   0.321   2.190   1.228 -0.8913  0.1161 -0.1870
  791TIP3    H1 2337   0.301   2.098   1.211 -2.5665  0.4231  0.0112
  791TIP3    H2 2338   0.266   2.238   1.166  0.9331  0.9880 -1.2146
  792TIP3   OH2 2339   5.416   3.916   4.295  0.0122  0.2967 -0.3045
  792TIP3    H1 2340   5.366   3.983   4.341  1.1117  1.3492 -0.6062
  792TIP3    H2 2341   5.499   3.957   4.274 -0.2953 -0.2194 -2.9484
  793TIP3   OH2 2342   0.340   2.385   0.272 -0.3691 -0.2723 -0.3946
  793TIP3    H1 2343   0.330   2.447   0.344 -0.2307 -1.0272  0.2848
  793TIP3    H2 2344   0.335   2.299   0.313 -3.6389 -0.8215 -1.6824
  794TIP3   OH2 2345   2.488   2.851   0.593 -0.0376  0.0774  0.4231
  794TIP3    H1 2346   2.555   2.918   0.608 -0.0352  0.3152 -0.5753
  794TIP3    H2 2347   2.425   2.863   0.664  1.4173 -0.7309  1.9192
  795TIP3   OH2 2348   1.662   4.744   1.787 -0.2071  0.2029 -0.1368
  795TIP3    H1 2349   1.708   4.741   1.871  0.2976 -1.5996 -0.4277
  795TIP3    H2 2350   1.702   4.674   1.735 -1.2592  0.5543 -1.4933
  796TIP3   OH2 2351   4.524   2.652   0.721 -0.2499  0.3527  0.2615
  796TIP3    H1 2352   4.475   2.576   0.752 -0.7763  0.6583  0.1972
  796TIP3    H2 2353   4.510   2.719   0.788 -0.1085  0.5135  0.1303
  797TIP3   OH2 2354   2.890   6.458   4.144  0.3892 -0.4284 -0.7219
  797TIP3    H1 2355   2.854   6.545   4.157 -1.2815 -1.0064 -1.1910
  797TIP3    H2 2356   2.984   6.472   4.128  0.0963  1.2885 -1.0515
  798TIP3   OH2 2357   0.600   3.236   5.602 -0.7004 -0.4295 -0.3208
  798TIP3    H1 2358   0.611   3.176   5.528  0.1224 -0.5667 -0.0930
  798TIP3    H2 2359   0.640   3.190   5.676 -2.8328 -0.9674  0.5816
  799TIP3   OH2 2360   4.381   5.817   5.396  0.1440 -0.2228 -0.5095
  799TIP3    H1 2361   4.465   5.837   5.438 -0.8549  1.2515  0.9086
  799TIP3    H2 2362   4.378   5.875   5.320  0.4122 -0.3159 -0.5941
  800TIP3   OH2 2363   3.432   2.895   5.894 -0.3600 -0.0935 -0.0945
  800TIP3    H1 2364   3.516   2.913   5.851  0.1087 -0.0608  0.8106
  800TIP3    H2 2365   3.435   2.802   5.916 -1.0872 -0.3873 -1.1440
  801TIP3   OH2 2366   4.887   4.746   3.746 -0.1569 -0.0943  0.4806
  801TIP3    H1 2367   4.804   4.758   3.701 -0.3079 -0.8378  0.5505
  801TIP3    H2 2368   4.941   4.820   3.718  0.0466 -0.9735 -1.5635
  802TIP3   OH2 2369   1.451   1.174   4.310 -0.4649  0.1670  0.0397
  802TIP3    H1 2370   1.433   1.120   4.387  0.3284 -1.4962 -0.8613
  802TIP3    H2 2371   1.398   1.134   4.241 -0.0221  0.6789 -0.6059
  803TIP3   OH2 2372   5.527   5.261   5.737 -0.0549  0.2309  0.3214
  803TIP3    H1 2373   5.613   5.236   5.703 -1.2856 -0.7442 -2.4004
  803TIP3    H2 2374   5.471   5.185   5.719 -1.6761  1.1430  1.2635
  804TIP3   OH2 2375   2.909   3.597   0.042  0.0290  0.6493 -0.1047
  804TIP3    H1 2376   2.906   3.658  -0.033  0.9611 -0.5581 -1.1769
  804TIP3    H2 2377   2.821   3.559   0.046  0.3584 -0.3633 -1.5709
  805TIP3   OH2 2378   0.172   3.674   2.914  0.0111 -0.2565 -0.1432
  805TIP3    H1 2379   0.148   3.740   2.979  0.6345  0.6959 -0.8624
  805TIP3    H2 2380   0.239   3.716   2.861  0.9949 -1.7639 -0.1269
  806TIP3   OH2 2381   6.186   1.789   4.137 -1.4907 -0.2567  0.2420
  806TIP3    H1 2382   6.217   1.851   4.203 -0.4215 -1.2257  0.6805
  806TIP3    H2 2383   6.219   1.704   4.167  0.1299 -0.5797 -2.1675
  807TIP3   OH2 2384   2.363   4.320   2.908  0.3966 -0.2309 -0.8603
  807TIP3    H1 2385   2.325   4.234   2.889  0.5237 -0.9582  1.8281
  807TIP3    H2 2386   2.290   4.373   2.940  0.3398  0.6896 -2.3992
  808TIP3   OH2 2387   2.742   4.619   0.569  0.1301 -0.5029 -0.4815
  808TIP3    H1 2388   2.810   4.577   0.517  0.5265 -0.8097  0.2612
  808TIP3    H2 2389   2.743   4.571   0.652  0.6614  1.0236  0.4310
  809TIP3   OH2 2390   3.390   5.060   5.796 -0.5963  0.1278  0.7878
  809TIP3    H1 2391   3.399   5.074   5.891 -2.4214  0.1039  1.0004
  809TIP3    H2 2392   3.370   5.147   5.762 -1.0447 -0.0602  0.5735
  810TIP3   OH2 2393   3.102   1.996   5.104  0.6142 -1.0020  0.3468
  810TIP3    H1 2394   3.135   2.081   5.075  0.8635 -1.3544 -0.4186
  810TIP3    H2 2395   3.163   1.970   5.173 -0.1925  0.0028  1.4813
  811TIP3   OH2 2396   5.529   3.632   0.010 -0.4253  0.0788  0.3737
  811TIP3    H1 2397   5.537   3.634   0.105 -1.7401  1.6087  0.4968
  811TIP3    H2 2398   5.595   3.569  -0.018  1.2938  0.9800  2.1562
  812TIP3   OH2 2399   2.638   3.069   1.637 -0.0863  0.5815  0.1507
  812TIP3    H1 2400   2.576   3.086   1.565  0.8774 -0.6660 -1.0251
  812TIP3    H2 2401   2.649   2.974   1.637  0.0237  0.5649  1.9193
  813TIP3   OH2 2402   6.551   3.228   2.993  0.0484 -0.0049 -0.2260
  813TIP3    H1 2403   6.608   3.266   3.060 -0.9351 -0.3480  0.8359
  813TIP3    H2 2404   6.482   3.184   3.042 -0.8269 -0.0866 -1.4791
  814TIP3   OH2 2405   4.886   6.525   3.170 -0.0982  0.3203  0.2916
  814TIP3    H1 2406   4.979   6.538   3.188  0.4177  0.4242 -2.0315
  814TIP3    H2 2407   4.842   6.548   3.251  1.7837  2.1331  0.8970
  815TIP3   OH2 2408   2.320   5.971   1.196 -0.5292  0.0689 -0.2488
  815TIP3    H1 2409   2.362   6.022   1.265 -1.7080 -0.1213  0.6428
  815TIP3    H2 2410   2.228   5.966   1.223 -0.7294 -1.2431 -1.1005
  816TIP3   OH2 2411   2.112   0.030   5.754  0.2242  0.2523 -0.0821
  816TIP3    H1 2412   2.065   0.082   5.689 -1.6183  0.5382  1.4255
  816TIP3    H2 2413   2.159   0.094   5.807 -1.1841  0.3467  1.0996
  817TIP3   OH2 2414   7.171   3.012   3.702  0.1912  0.5316 -0.3059
  817TIP3    H1 2415   7.167   3.102   3.735  0.0028  0.0242  1.1577
  817TIP3    H2 2416   7.265   2.997   3.687  0.3446  0.6508  0.4557
  818TIP3   OH2 2417   3.474   5.652   5.699  0.3366 -0.2106 -0.1257
  818TIP3    H1 2418   3.436   5.695   5.776 -2.2624  0.1067 -1.4756
  818TIP3    H2 2419   3.522   5.722   5.654 -2.4080  0.9895 -1.3879
  819TIP3   OH2 2420   1.109   2.607   3.876 -0.5338 -0.1056 -0.5671
  819TIP3    H1 2421   1.099   2.641   3.964 -3.0652 -0.5872 -0.5964
  819TIP3    H2 2422   1.178   2.661   3.837 -0.5930  1.2786  1.1225
  820TIP3   OH2 2423   2.866   1.801   1.626  0.4801 -0.5576 -0.2160
  820TIP3    H1 2424   2.906   1.795   1.539 -0.3844  1.0847 -0.7863
  820TIP3    H2 2425   2.919   1.867   1.672  0.6673 -1.0958  0.3488
  821TIP3   OH2 2426   3.785   1.438   1.877  0.0243 -0.5299 -0.0614
  821TIP3    H1 2427   3.763   1.372   1.942  0.1891 -0.6455 -0.1211
  821TIP3    H2 2428   3.729   1.513   1.898 -0.3785 -0.7959 -0.1785
  822TIP3   OH2 2429   2.614   0.670   3.822 -0.8416 -0.0078 -0.4842
  822TIP3    H1 2430   2.543   0.735   3.830  0.2757  1.1268  0.6174
  822TIP3    H2 2431   2.666   0.682   3.901  1.5602  0.3759 -2.0357
  823TIP3   OH2 2432   1.107   6.628   5.741 -0.3164  0.0704  0.6086
  823TIP3    H1 2433   1.146   6.691   5.802 -0.4172 -0.8958  1.6986
  823TIP3    H2 2434   1.074   6.682   5.669 -0.5043  1.2835  1.5642
  824TIP3   OH2 2435   2.444   4.992   4.552  0.3179 -0.3128 -0.2350
  824TIP3    H1 2436   2.416   4.901   4.538  1.1147 -1.0975  2.5565
  824TIP3    H2 2437   2.534   4.994   4.522  0.5790 -0.7035  0.5095
  825TIP3   OH2 2438   4.349   6.171   1.235  0.4407  0.2097  0.5243
  825TIP3    H1 2439   4.432   6.157   1.282  0.0213  1.6537  1.7732
  825TIP3    H2 2440   4.374   6.171   1.143  2.0370  1.5889  0.8992
  826TIP3   OH2 2441   6.340   3.651   0.070 -0.3774  0.0450 -0.2327
  826TIP3    H1 2442   6.333   3.556   0.060 -0.8230  0.1057 -0.5811
  826TIP3    H2 2443   6.407   3.664   0.137  1.2844 -0.4666 -1.7146
  827TIP3   OH2 2444   2.440   0.193   3.593  0.1975  0.2048 -0.1323
  827TIP3    H1 2445   2.473   0.268   3.644  2.3907 -1.1207  0.5100
  827TIP3    H2 2446   2.516   0.136   3.582 -0.9504 -1.0062 -2.3443
  828TIP3   OH2 2447   0.870   4.691   4.579  0.2693 -0.4006 -0.0066
  828TIP3    H1 2448   0.938   4.752   4.608  0.6819 -1.7242  2.0065
  828TIP3    H2 2449   0.844   4.644   4.659 -0.6290 -2.2650 -1.3162
  829TIP3   OH2 2450   6.775   0.345   1.926 -0.3297 -0.5750 -0.7544
  829TIP3    H1 2451   6.734   0.263   1.953 -0.7761 -0.3342 -0.6922
  829TIP3    H2 2452   6.749   0.408   1.992  0.8944 -0.6121 -0.2097
  830TIP3   OH2 2453   2.797   1.176   0.756 -0.4964 -0.4950 -0.0812
  830TIP3    H1 2454   2.846   1.253   0.727 -0.7684 -0.5012 -0.5774
  830TIP3    H2 2455   2.840   1.149   0.837  1.6929 -1.7123 -1.5088
  831TIP3   OH2 2456   4.817   4.291   4.609 -0.0148 -0.0493  0.0826
  831TIP3    H1 2457   4.809   4.281   4.704  0.7569  1.1992  0.2878
  831TIP3    H2 2458   4.753   4.358   4.587 -0.9964 -1.1221 -0.4660
  832TIP3   OH2 2459   4.157   0.005   5.182  0.1796  0.2498  0.6599
  832TIP3    H1 2460   4.240  -0.039   5.199  0.7573  1.0763  0.0460
  832TIP3    H2 2461   4.138   0.053   5.263  0.5804  0.4873  0.6170
  833TIP3   OH2 2462   6.088   3.356   5.624  0.3033 -0.4001  0.1691
  833TIP3    H1 2463   6.121   3.366   5.713  1.7341 -0.6450 -0.3071
  833TIP3    H2 2464   6.050   3.268   5.622  0.0412 -0.2973  0.6028
  834TIP3   OH2 2465   4.042   3.926   4.223 -0.2403  0.2108  0.2720
  834TIP3    H1 2466   4.032   4.016   4.193  2.0053  0.7294  0.8198
  834TIP3    H2 2467   4.083   3.880   4.150  1.3910  0.4471  0.9705
  835TIP3   OH2 2468   0.403   0.342   4.788 -0.0701 -0.3993 -0.6531
  835TIP3    H1 2469   0.347   0.336   4.710  0.8040  1.4246 -1.4815
  835TIP3    H2 2470   0.356   0.291   4.854 -2.6186  0.8194 -1.3794
  836TIP3   OH2 2471   6.057   5.916   5.473  0.2415  0.1865  0.2996
  836TIP3    H1 2472   6.146   5.895   5.444  0.6457  1.3813  0.6342
  836TIP3    H2 2473   6.052   6.011   5.468 -1.0386  0.1297  0.2521
  837TIP3   OH2 2474   0.188   6.454   0.490 -0.5406 -0.5907  0.2202
  837TIP3    H1 2475   0.098   6.484   0.501 -0.2991  0.0651  0.4984
  837TIP3    H2 2476   0.237   6.533   0.467  0.0351 -0.8580  0.4984
  838TIP3   OH2 2477   5.692   2.307   0.184 -0.3620  0.3187 -0.3450
  838TIP3    H1 2478   5.779   2.295   0.223 -0.7333 -2.0253 -0.0850
  838TIP3    H2 2479   5.641   2.349   0.253  0.3070  0.9192 -0.1920
  839TIP3   OH2 2480   5.988   4.071   0.248  0.4400 -0.0711 -0.1176
  839TIP3    H1 2481   5.968   4.024   0.167 -0.3570 -0.4801  0.3034
  839TIP3    H2 2482   5.903   4.082   0.291  0.8819 -0.0639  0.7722
  840TIP3   OH2 2483   1.003   5.800   1.097  0.1641  0.5750  0.7659
  840TIP3    H1 2484   0.985   5.744   1.022 -0.1407  1.5274  0.1100
  840TIP3    H2 2485   1.097   5.820   1.091  0.6634 -1.1992  1.9598
  841TIP3   OH2 2486   5.743   3.690   4.707  0.6109 -0.0750  0.5319
  841TIP3    H1 2487   5.715   3.659   4.621  1.0594 -0.1361  0.4025
  841TIP3    H2 2488   5.738   3.613   4.764  0.7159 -0.1369  0.4582
  842TIP3   OH2 2489   2.728   6.703   5.152 -0.7896 -0.2281 -0.2476
  842TIP3    H1 2490   2.710   6.695   5.059 -0.7698  0.4640 -0.3146
  842TIP3    H2 2491   2.798   6.639   5.169 -0.5952 -0.1532 -0.7654
  843TIP3   OH2 2492   6.047   5.317   0.228  0.6945 -0.0050 -0.4807
  843TIP3    H1 2493   6.098   5.236   0.238  2.1114  0.8592 -0.3228
  843TIP3    H2 2494   6.081   5.374   0.297  1.3309  1.4887 -1.9654
  844TIP3   OH2 2495   3.534   4.339   2.336 -0.1943  0.0428 -0.3559
  844TIP3    H1 2496   3.565   4.421   2.297  1.1966 -0.3606 -0.1230
  844TIP3    H2 2497   3.576   4.270   2.286 -0.0867 -0.5094  0.4741
  845TIP3   OH2 2498   5.448   0.398   1.403  0.1186  0.5112 -0.1335
  845TIP3    H1 2499   5.400   0.364   1.478  0.8836  0.3998  0.3188
  845TIP3    H2 2500   5.530   0.432   1.440 -0.1688  1.8762 -0.7181
  846TIP3   OH2 2501   0.128   4.581   0.875  0.1912 -0.2967  0.0522
  846TIP3    H1 2502   0.061   4.550   0.936 -0.8943 -0.4571 -1.1781
  846TIP3    H2 2503   0.168   4.501   0.841  0.6853 -0.2131  0.4343
  847TIP3   OH2 2504   0.815   1.616   5.852  0.1026  0.0100 -0.0725
  847TIP3    H1 2505   0.778   1.528   5.854 -3.3465  1.1386 -3.0352
  847TIP3    H2 2506   0.777   1.661   5.927  2.1022 -0.9557  1.6203
  848TIP3   OH2 2507   3.705   3.072   2.367 -0.1753  0.1778 -0.1751
  848TIP3    H1 2508   3.631   3.037   2.415  1.1890 -2.1893  0.3558
  848TIP3    H2 2509   3.666   3.113   2.289 -2.0983  0.4372  0.8679
  849TIP3   OH2 2510   5.008   0.247   3.320 -1.0286 -0.1989 -0.0449
  849TIP3    H1 2511   5.034   0.182   3.255 -0.5528 -1.7044  1.5847
  849TIP3    H2 2512   5.032   0.331   3.281  3.2935 -1.2559 -0.1020
  850TIP3   OH2 2513   2.983   1.391   3.325 -0.1055  0.0775  0.3345
  850TIP3    H1 2514   2.936   1.342   3.257  0.6946 -0.8649  0.4405
  850TIP3    H2 2515   3.066   1.415   3.284  1.2123 -2.1423  1.5284
  851TIP3   OH2 2516   4.661   3.943   1.156 -0.4051  0.1507  0.1849
  851TIP3    H1 2517   4.725   3.983   1.098  1.2903 -1.9885  0.4241
  851TIP3    H2 2518   4.623   3.872   1.104 -2.0221  0.8758  0.3299
  852TIP3   OH2 2519   0.082   3.146   0.509  0.2776  0.2982 -0.1170
  852TIP3    H1 2520   0.016   3.204   0.548  0.1059  0.6013 -0.8503
  852TIP3    H2 2521   0.033   3.070   0.479  0.1664  0.7784 -1.1829
  853TIP3   OH2 2522   3.901   5.108   5.793  0.3079  0.4848  0.4040
  853TIP3    H1 2523   3.850   5.160   5.732  0.0332 -0.5228 -0.2606
  853TIP3    H2 2524   3.836   5.069   5.852  0.2138 -1.1857 -0.7421
  854TIP3   OH2 2525   4.729   3.732   4.414  0.0699  0.5888  0.1047
  854TIP3    H1 2526   4.648   3.685   4.394 -0.2710  1.1473  0.1793
  854TIP3    H2 2527   4.720   3.756   4.506  0.0419  1.2024 -0.0550
  855TIP3   OH2 2528   6.692   6.321   4.446 -0.0395 -0.0010 -0.8552
  855TIP3    H1 2529   6.691   6.405   4.493  0.7485  0.7867 -2.1925
  855TIP3    H2 2530   6.605   6.314   4.408 -0.4674 -0.3334  0.1415
  856TIP3   OH2 2531   2.527   5.932   5.730  0.5082 -0.3422 -0.3538
  856TIP3    H1 2532   2.566   6.008   5.772  0.0042 -1.4562  2.2731
  856TIP3    H2 2533   2.591   5.861   5.743  0.4935 -0.6613 -1.8233
  857TIP3   OH2 2534   0.619   5.434   1.171 -0.2505  0.1140  0.2566
  857TIP3    H1 2535   0.584   5.347   1.193  0.1602  0.3450  2.0321
  857TIP3    H2 2536   0.707   5.434   1.209  0.1714  0.9440 -0.6773
  858TIP3   OH2 2537   1.344   2.688   3.757  0.1524 -0.1020  0.3521
  858TIP3    H1 2538   1.411   2.673   3.824  2.2865 -1.2931 -1.9005
  858TIP3    H2 2539   1.333   2.783   3.756  0.3547 -0.0137  2.0759
  859TIP3   OH2 2540   6.796   5.803   4.226 -0.3421 -0.5558  0.4068
  859TIP3    H1 2541   6.888   5.821   4.210 -0.5024 -1.4042 -1.8309
  859TIP3    H2 2542   6.757   5.890   4.243  0.5926  0.0067 -0.2427
  860TIP3   OH2 2543   6.197   4.225   3.740  0.2228 -0.5245 -0.5268
  860TIP3    H1 2544   6.157   4.250   3.824  2.4967  0.1977  0.4171
  860TIP3    H2 2545   6.130   4.244   3.675 -0.9083  0.7729  0.9451
  861TIP3   OH2 2546   5.884   6.644   2.596 -0.2188  0.3981  0.4978
  861TIP3    H1 2547   5.923   6.577   2.540  1.6013 -0.0848  2.2195
  861TIP3    H2 2548   5.832   6.596   2.660 -1.7059  0.8918 -0.3140
  862TIP3   OH2 2549   3.280   4.518   3.308 -0.0918  0.5100 -0.1821
  862TIP3    H1 2550   3.354   4.578   3.310  0.8952 -0.5507 -2.0735
  862TIP3    H2 2551   3.220   4.557   3.245  0.1565 -0.0200 -0.7585
  863TIP3   OH2 2552   0.803   6.585   4.823 -0.4950  0.4063 -0.4730
  863TIP3    H1 2553   0.819   6.679   4.832 -0.9497  0.5295 -0.8735
  863TIP3    H2 2554   0.781   6.556   4.911  0.6537  0.4738 -0.1623
  864TIP3   OH2 2555   3.861   2.185   2.910  0.2035 -0.7249  0.4654
  864TIP3    H1 2556   3.953   2.211   2.902 -0.4060  2.4900  2.1721
  864TIP3    H2 2557   3.817   2.263   2.942 -3.0548 -2.3689  0.3938
  865TIP3   OH2 2558   3.817   3.914   4.886  0.7841  0.3716  0.4748
  865TIP3    H1 2559   3.793   4.006   4.877  1.4966  0.5440  0.2796
  865TIP3    H2 2560   3.864   3.893   4.805  1.4807  0.1199  0.9293
  866TIP3   OH2 2561   4.199   1.417   4.919  0.4019 -0.3291  0.3710
  866TIP3    H1 2562   4.269   1.447   4.861  0.2896  3.4634  1.8987
  866TIP3    H2 2563   4.244   1.368   4.988  1.4295  0.8557  0.5800
  867TIP3   OH2 2564   1.263   4.535   0.554  0.1430  0.1207 -0.1884
  867TIP3    H1 2565   1.252   4.443   0.576 -0.7991  0.4984  1.0068
  867TIP3    H2 2566   1.316   4.571   0.625 -2.0215  1.1156  1.0397
  868TIP3   OH2 2567   5.505   5.429   3.686  0.1176  0.4187  0.7173
  868TIP3    H1 2568   5.467   5.387   3.762 -0.6752  1.4793  0.9320
  868TIP3    H2 2569   5.431   5.450   3.630  0.5825  0.6811  0.1858
  869TIP3   OH2 2570   5.085   1.399   4.525 -0.6725 -0.3694 -0.6620
  869TIP3    H1 2571   5.002   1.424   4.566 -0.1549  1.1879 -0.5187
  869TIP3    H2 2572   5.098   1.464   4.456  0.7865 -0.1447 -0.2057
  870TIP3   OH2 2573   2.438   2.917   0.269  0.3035 -0.1143 -0.8111
  870TIP3    H1 2574   2.442   2.869   0.352 -0.3581 -0.7610 -1.1421
  870TIP3    H2 2575   2.456   3.008   0.293 -2.3709  0.1607  0.4418
  871TIP3   OH2 2576   5.173   5.109   2.268  0.7282 -0.5142 -0.5464
  871TIP3    H1 2577   5.228   5.183   2.244 -0.2668  0.3026 -0.3682
  871TIP3    H2 2578   5.233   5.035   2.276  2.0490  0.6883  1.2485
  872TIP3   OH2 2579   0.387   2.266   2.512  0.4581  0.4253 -0.5293
  872TIP3    H1 2580   0.428   2.307   2.436  0.2289  0.2963 -0.7258
  872TIP3    H2 2581   0.456   2.212   2.550  0.9426  1.4443  0.0847
  873TIP3   OH2 2582   3.346   1.774   3.036  0.1110 -0.2305  0.5071
  873TIP3    H1 2583   3.295   1.791   2.957  0.6404  1.6443  0.5181
  873TIP3    H2 2584   3.382   1.859   3.060 -1.8067 -0.2104  4.0341
  874TIP3   OH2 2585   6.338   5.892   4.166 -0.6770  0.4933  0.2211
  874TIP3    H1 2586   6.281   5.912   4.091 -0.2559  0.4761 -0.1118
  874TIP3    H2 2587   6.345   5.975   4.213 -0.9313  0.5090  0.2336
  875TIP3   OH2 2588   1.476   1.490   1.533 -0.2120  0.1079  0.3987
  875TIP3    H1 2589   1.571   1.502   1.538 -0.1713 -0.7771  3.5826
  875TIP3    H2 2590   1.444   1.570   1.491  1.8608  0.6373 -0.2930
  876TIP3   OH2 2591   2.471   1.954   0.900  0.0346 -0.1323  0.1424
  876TIP3    H1 2592   2.449   2.035   0.853  0.7421  0.3820  0.6816
  876TIP3    H2 2593   2.567   1.954   0.905  0.0062 -0.5989  0.8525
  877TIP3   OH2 2594   0.041   6.201   0.897  0.1337  0.0072 -0.2909
  877TIP3    H1 2595   0.081   6.288   0.907  2.1883 -0.9044 -0.0203
  877TIP3    H2 2596   0.071   6.170   0.812 -0.1159 -0.6469 -0.1479
  878TIP3   OH2 2597   0.933   5.882   0.120  0.0803  0.1936 -0.3296
  878TIP3    H1 2598   0.928   5.790   0.094  0.8264  0.2020 -0.5273
  878TIP3    H2 2599   1.009   5.887   0.179  1.0674  0.9704 -1.6145
  879TIP3   OH2 2600   4.494   5.380   5.590 -0.2186 -0.2795 -0.3754
  879TIP3    H1 2601   4.501   5.365   5.684 -0.0234 -1.3472 -0.5502
  879TIP3    H2 2602   4.437   5.310   5.558 -1.4478  0.8944 -0.8617
  880TIP3   OH2 2603   3.741   3.000   0.491  0.2120 -0.3093  0.2771
  880TIP3    H1 2604   3.817   2.946   0.511  1.0199  1.3664  2.0302
  880TIP3    H2 2605   3.682   2.987   0.565 -0.0542  0.3517  0.1920
  881TIP3   OH2 2606   4.087   3.927  -0.000  0.3513  0.4652 -0.5618
  881TIP3    H1 2607   4.042   4.011  -0.005 -0.9214 -0.1609 -0.1390
  881TIP3    H2 2608   4.144   3.934   0.077  0.2865  0.9514 -0.5593
  882TIP3   OH2 2609   4.491   4.976   4.740  0.3612  0.2189 -0.1052
  882TIP3    H1 2610   4.467   5.067   4.754  0.6193  0.3391 -0.4240
  882TIP3    H2 2611   4.469   4.959   4.648 -2.1732 -0.8132  0.5976
  883TIP3   OH2 2612   2.880   3.188   5.642 -0.3286 -0.1690  0.4536
  883TIP3    H1 2613   2.866   3.228   5.556 -0.0693  0.5408  0.7291
  883TIP3    H2 2614   2.912   3.100   5.623  0.4484  0.2358 -0.1910
  884TIP3   OH2 2615   2.669   2.390   5.065  0.4329  0.0898  0.5095
  884TIP3    H1 2616   2.622   2.315   5.101  2.3565 -1.2834  0.3250
  884TIP3    H2 2617   2.668   2.376   4.970  0.7412  0.3095  0.4704
  885TIP3   OH2 2618   5.204   2.972   0.274 -0.0894  0.2136 -0.6914
  885TIP3    H1 2619   5.218   3.063   0.302 -0.9803 -0.3263  1.7996
  885TIP3    H2 2620   5.242   2.968   0.186  0.0599  2.9560 -0.8536
  886TIP3   OH2 2621   2.962   3.503   1.866  0.1303  0.2034 -0.4544
  886TIP3    H1 2622   2.919   3.555   1.934  0.4665 -0.2957  0.1521
  886TIP3    H2 2623   2.893   3.444   1.833  0.1405 -0.0285 -0.0630
  887TIP3   OH2 2624   0.477   6.723   5.830  0.0567 -0.2688  0.2946
  887TIP3    H1 2625   0.389   6.733   5.794  0.0071 -1.0577  0.1730
  887TIP3    H2 2626   0.535   6.748   5.758 -0.0591 -0.9815 -0.0644
  888TIP3   OH2 2627   1.949   2.245   3.614  0.0465  0.0963 -0.1253
  888TIP3    H1 2628   1.908   2.235   3.700  1.0420  0.6363  0.4354
  888TIP3    H2 2629   1.905   2.320   3.575 -2.2144 -1.6541 -1.2161
  889TIP3   OH2 2630   2.027   6.707   5.217  0.6379 -0.4109 -0.1652
  889TIP3    H1 2631   2.036   6.646   5.143 -0.9851 -1.4514  0.4421
  889TIP3    H2 2632   2.030   6.793   5.176 -2.6896 -0.9303 -1.9223
  890TIP3   OH2 2633   4.011   1.836   4.469 -0.1931  0.8456 -0.1180
  890TIP3    H1 2634   3.973   1.874   4.548 -0.6057  0.4446 -0.1225
  890TIP3    H2 2635   3.936   1.808   4.417  0.1028  0.2663 -0.2371
  891TIP3   OH2 2636   0.544   0.619   3.189 -0.0522  0.8157 -0.5666
  891TIP3    H1 2637   0.588   0.634   3.272  0.9257  1.5041 -1.1819
  891TIP3    H2 2638   0.591   0.674   3.127  0.1519 -0.7450 -1.8700
  892TIP3   OH2 2639   1.026   4.845   1.291 -0.2039  0.0289 -0.0054
  892TIP3    H1 2640   1.055   4.908   1.356  1.8194  0.1410 -0.9138
  892TIP3    H2 2641   0.970   4.895   1.231 -0.4122  0.4118  0.5076
  893TIP3   OH2 2642   2.004   4.878   5.036  0.1625 -0.1082 -0.4089
  893TIP3    H1 2643   1.937   4.812   5.058  0.4597 -0.5896 -0.9070
  893TIP3    H2 2644   1.995   4.945   5.104  1.1653 -1.6084  1.3201
  894TIP3   OH2 2645   2.686   6.366   5.236 -0.2911  0.2779  0.7905
  894TIP3    H1 2646   2.672   6.284   5.283  0.1178  0.6737  1.6207
  894TIP3    H2 2647   2.755   6.411   5.285 -2.1699  2.2246  1.8559
  895TIP3   OH2 2648   5.362   0.589   3.964  0.6880  0.2588  0.8402
  895TIP3    H1 2649   5.362   0.512   4.020  0.5470  0.9407  1.8048
  895TIP3    H2 2650   5.305   0.566   3.891  0.7655 -0.5952  1.0435
  896TIP3   OH2 2651   6.525   1.571   5.533  0.5120 -0.3963  0.8570
  896TIP3    H1 2652   6.516   1.518   5.454  0.0881  0.4590  0.3279
  896TIP3    H2 2653   6.612   1.611   5.525 -0.1098  0.8655  0.0734
  897TIP3   OH2 2654   6.558   5.997   1.344 -0.3716  0.7243 -0.0945
  897TIP3    H1 2655   6.546   6.082   1.386  0.7797  1.9185 -2.0871
  897TIP3    H2 2656   6.647   5.971   1.366 -1.1046 -0.6640  1.5671
  898TIP3   OH2 2657   5.637   2.157  -0.020 -0.1823 -0.5117 -0.0586
  898TIP3    H1 2658   5.648   2.198   0.066 -1.1200  0.0052 -0.1712
  898TIP3    H2 2659   5.543   2.139  -0.026 -0.1907 -0.1735 -1.1398
  899TIP3   OH2 2660   5.200   3.811   3.130  0.0344  0.5293 -0.4472
  899TIP3    H1 2661   5.166   3.797   3.042 -0.2659 -0.1936 -0.2245
  899TIP3    H2 2662   5.146   3.881   3.166 -1.2794 -0.6085 -0.0922
  900TIP3   OH2 2663   6.803   2.366   3.677  0.0357  0.1028 -0.6161
  900TIP3    H1 2664   6.774   2.276   3.684 -1.8081  0.6625 -0.6633
  900TIP3    H2 2665   6.833   2.376   3.587 -0.0874 -0.3562 -0.7052
  901TIP3   OH2 2666   1.556   6.099   4.337 -0.5010  0.7027 -0.0692
  901TIP3    H1 2667   1.600   6.160   4.397  0.5075  0.0144 -0.0767
  901TIP3    H2 2668   1.531   6.025   4.393 -1.1069  0.8094 -0.1903
  902TIP3   OH2 2669   6.352   1.088   2.197 -0.3670 -0.4444 -0.1943
  902TIP3    H1 2670   6.259   1.110   2.207 -0.5329 -0.0848 -2.2292
  902TIP3    H2 2671   6.397   1.149   2.255 -1.2936  0.6490 -0.5909
  903TIP3   OH2 2672   3.761   3.345   5.063  0.5919 -0.1441  0.0275
  903TIP3    H1 2673   3.676   3.389   5.068  1.0041  0.6138  0.6603
  903TIP3    H2 2674   3.797   3.373   4.979  0.6938  0.4720  0.2641
  904TIP3   OH2 2675   3.361   6.332   3.310 -0.1480  0.0351 -0.0837
  904TIP3    H1 2676   3.370   6.285   3.393  0.0600 -0.0258 -0.1408
  904TIP3    H2 2677   3.450   6.362   3.289 -0.3971  1.1417  0.3550
  905TIP3   OH2 2678   4.443   0.709   3.405  0.0716 -0.7780 -0.5076
  905TIP3    H1 2679   4.513   0.766   3.438  0.7161 -1.9724  0.2820
  905TIP3    H2 2680   4.467   0.621   3.436 -0.8986 -1.4853 -1.6608
  906TIP3   OH2 2681   5.412   5.762   0.875 -0.1111  0.0503 -0.1293
  906TIP3    H1 2682   5.451   5.840   0.916  3.0861 -2.3487  1.9171
  906TIP3    H2 2683   5.364   5.719   0.945  1.8339 -1.9332  0.1052
  907TIP3   OH2 2684   5.797   2.824   1.252  0.3260  0.0854  0.7722
  907TIP3    H1 2685   5.773   2.917   1.254  0.4484  0.1897 -1.1424
  907TIP3    H2 2686   5.748   2.786   1.325 -1.9101  1.1638 -0.0655
  908TIP3   OH2 2687   2.624   0.750   2.408 -0.4727 -0.2981  0.2773
  908TIP3    H1 2688   2.599   0.775   2.319  3.9628  0.8100 -0.8983
  908TIP3    H2 2689   2.622   0.832   2.457  0.5743 -0.1817  0.1582
  909TIP3   OH2 2690   2.348   2.433   5.778  0.5135 -0.3002 -0.2626
  909TIP3    H1 2691   2.260   2.416   5.743  0.2639  1.5494 -0.6550
  909TIP3    H2 2692   2.339   2.416   5.872 -1.2793  3.0369  0.3200
  910TIP3   OH2 2693   1.409   3.390   4.140  0.2220  0.2346  0.3290
  910TIP3    H1 2694   1.372   3.368   4.055  0.7003  0.3898  0.0734
  910TIP3    H2 2695   1.388   3.483   4.153 -0.6895 -0.0333  0.8253
  911TIP3   OH2 2696   1.909   1.163   0.194 -0.5987  0.3937  0.0957
  911TIP3    H1 2697   1.876   1.243   0.235  1.1067  1.9842 -1.4267
  911TIP3    H2 2698   1.969   1.126   0.259 -1.3209  0.3925  0.7734
  912TIP3   OH2 2699   1.356   6.305   4.920  0.0190 -0.2865 -0.5814
  912TIP3    H1 2700   1.446   6.303   4.953  0.9006  2.9969 -2.4281
  912TIP3    H2 2701   1.358   6.250   4.842  0.1714 -0.8230 -0.2124
  913TIP3   OH2 2702   6.791   3.562   4.251  1.1021  0.0007 -0.3617
  913TIP3    H1 2703   6.720   3.622   4.274  2.1102  1.2997 -0.5297
  913TIP3    H2 2704   6.823   3.529   4.335  2.1013  1.5718 -0.0986
  914TIP3   OH2 2705   0.914   0.048   3.174  0.4012  0.2046  0.1749
  914TIP3    H1 2706   0.985   0.019   3.117 -0.7210 -0.6955 -0.8082
  914TIP3    H2 2707   0.881  -0.032   3.215 -0.8060  0.4326 -0.2988
  915TIP3   OH2 2708   2.434   0.982   4.241  0.4190  0.7607 -0.3622
  915TIP3    H1 2709   2.525   1.010   4.240  0.7648 -0.1418  1.6524
  915TIP3    H2 2710   2.402   1.004   4.328 -0.9950  0.1581 -0.6967
  916TIP3   OH2 2711   3.311   5.748   2.588 -0.2036  0.1742  0.5171
  916TIP3    H1 2712   3.354   5.715   2.509  0.2086  1.3937  0.2114
  916TIP3    H2 2713   3.383   5.771   2.646 -0.4930 -2.1343  1.9161
  917TIP3   OH2 2714   1.744   5.363   5.444 -0.3334 -0.2855 -0.5200
  917TIP3    H1 2715   1.749   5.429   5.513 -1.5668 -0.4192 -0.2792
  917TIP3    H2 2716   1.792   5.288   5.479  0.4508  0.2056 -0.4972
  918TIP3   OH2 2717   6.299   3.015   4.578 -0.0284 -0.3627  0.6758
  918TIP3    H1 2718   6.366   2.988   4.641  2.3243 -0.3745 -1.6753
  918TIP3    H2 2719   6.338   2.999   4.492 -2.1446  1.8478 -0.8363
  919TIP3   OH2 2720   6.887   3.445   5.530  0.1894  0.3840 -0.1366
  919TIP3    H1 2721   6.856   3.355   5.535 -0.4318  0.6522  1.0688
  919TIP3    H2 2722   6.979   3.440   5.554  0.3165 -0.0054 -0.6898
  920TIP3   OH2 2723   0.696   5.218   1.301  0.0419  0.0094  0.4987
  920TIP3    H1 2724   0.736   5.155   1.242  0.7746  1.9498 -1.2079
  920TIP3    H2 2725   0.769   5.257   1.348 -0.3216  0.0984  1.0012
  921TIP3   OH2 2726   4.833   6.379   3.688  0.4909 -0.4334  0.0283
  921TIP3    H1 2727   4.907   6.429   3.654 -0.7174  1.9886  0.7571
  921TIP3    H2 2728   4.757   6.435   3.673 -0.6556 -1.1230  2.7026
  922TIP3   OH2 2729   3.467   2.575   1.936  0.9642 -0.1385  0.3876
  922TIP3    H1 2730   3.463   2.670   1.951  0.4699 -0.1765  0.4992
  922TIP3    H2 2731   3.395   2.556   1.876  2.0420 -0.2120 -0.9389
  923TIP3   OH2 2732   0.906   2.245   1.166  0.1025 -1.0599  0.3352
  923TIP3    H1 2733   0.835   2.181   1.168 -1.7460  0.8664 -0.2950
  923TIP3    H2 2734   0.913   2.270   1.074 -0.2976  0.7374  0.7553
  924TIP3   OH2 2735   5.321   2.456   0.216  0.1431 -0.2023  0.8346
  924TIP3    H1 2736   5.382   2.529   0.223 -1.5307  1.3152  0.1930
  924TIP3    H2 2737   5.272   2.458   0.298 -0.0766 -0.4549  0.7096
  925TIP3   OH2 2738   5.848   5.957   4.319  0.2306  0.2423  0.3656
  925TIP3    H1 2739   5.890   6.043   4.321  0.5366  0.0815  0.9953
  925TIP3    H2 2740   5.767   5.968   4.369 -0.5573  0.5830 -0.9483
  926TIP3   OH2 2741   2.542   2.221   3.769 -0.0387  0.1951 -0.0666
  926TIP3    H1 2742   2.491   2.140   3.770  1.1516 -0.5650  0.5138
  926TIP3    H2 2743   2.566   2.235   3.861  1.5735  0.0277 -0.4468
  927TIP3   OH2 2744   0.952   4.410   1.139 -0.0405 -0.3881  0.1977
  927TIP3    H1 2745   0.870   4.386   1.096  0.8990 -1.0664 -1.2851
  927TIP3    H2 2746   0.925   4.435   1.228 -1.6008 -3.0604  0.6107
  928TIP3   OH2 2747   5.984   0.883   0.265  0.0104  0.3923 -0.0430
  928TIP3    H1 2748   5.890   0.896   0.252 -0.1162 -1.4196 -1.3839
  928TIP3    H2 2749   5.991   0.840   0.350 -0.4871 -0.2793 -0.3278
  929TIP3   OH2 2750   4.588   5.811   1.773  0.1746  0.1751 -0.5065
  929TIP3    H1 2751   4.575   5.806   1.868  0.1056 -0.6248 -0.5514
  929TIP3    H2 2752   4.650   5.883   1.761  0.4764  0.0401  0.1735
  930TIP3   OH2 2753   0.656   4.611   4.183 -0.3181 -0.4020  0.0088
  930TIP3    H1 2754   0.581   4.552   4.170 -0.9572 -0.2912  2.6519
  930TIP3    H2 2755   0.720   4.583   4.117 -1.5577 -2.4111 -0.4414
  931TIP3   OH2 2756   4.095   5.764   2.938  0.1749  0.4003 -0.3055
  931TIP3    H1 2757   4.176   5.814   2.947  0.8906 -0.9673  1.2428
  931TIP3    H2 2758   4.034   5.806   2.998  0.0173  0.8207 -0.7458
  932TIP3   OH2 2759   2.115   5.119   1.534 -0.0631 -0.4758 -0.1238
  932TIP3    H1 2760   2.045   5.061   1.564 -1.7297  1.2869 -0.4380
  932TIP3    H2 2761   2.073   5.177   1.471  1.7549  0.4964 -0.5045
  933TIP3   OH2 2762   1.386   1.785   4.602 -0.1451  0.0055 -0.4889
  933TIP3    H1 2763   1.449   1.766   4.533  0.6177  1.3149 -0.1995
  933TIP3    H2 2764   1.342   1.865   4.573 -1.4452 -0.6958 -0.5149
  934TIP3   OH2 2765   2.073   2.358   2.155  0.5105  0.5064  0.0437
  934TIP3    H1 2766   1.994   2.402   2.123 -0.2214 -0.1069  0.9356
  934TIP3    H2 2767   2.069   2.369   2.250 -0.4663 -2.5775  0.5034
  935TIP3   OH2 2768   6.527   5.343   2.263  0.4451 -0.6908  0.5071
  935TIP3    H1 2769   6.477   5.264   2.282  2.1614 -1.7950  0.5984
  935TIP3    H2 2770   6.606   5.312   2.219  1.2134  0.9600  0.6507
  936TIP3   OH2 2771   2.044   4.894   2.183  0.4441  0.4903 -0.5963
  936TIP3    H1 2772   2.132   4.859   2.171  0.7229  1.1470 -0.5173
  936TIP3    H2 2773   2.019   4.865   2.270  0.1196 -0.6640 -1.0579
  937TIP3   OH2 2774   7.146   3.653   0.579 -0.1541  0.5444  0.3152
  937TIP3    H1 2775   7.187   3.668   0.664 -0.9880 -0.0382  0.8337
  937TIP3    H2 2776   7.066   3.705   0.581 -1.0809 -0.8299  0.6086
  938TIP3   OH2 2777   5.910   5.120   4.782 -0.1367  0.0656 -0.9518
  938TIP3    H1 2778   5.946   5.172   4.710 -0.0795  0.1458 -0.8656
  938TIP3    H2 2779   5.852   5.056   4.740 -0.0433  0.0621 -1.0748
  939TIP3   OH2 2780   0.575   1.819   1.044  0.2494 -0.3509 -0.0179
  939TIP3    H1 2781   0.490   1.781   1.066  0.3426  0.2028  1.3649
  939TIP3    H2 2782   0.636   1.745   1.045  0.2393 -0.3681  1.5883
  940TIP3   OH2 2783   4.486   5.681   3.114 -0.5916  0.4261 -0.0352
  940TIP3    H1 2784   4.539   5.667   3.036 -1.4664  0.0111 -0.5770
  940TIP3    H2 2785   4.454   5.771   3.105 -0.8691  0.3054 -0.2735
  941TIP3   OH2 2786   6.986   6.348   2.505  0.0239 -0.7700  0.2197
  941TIP3    H1 2787   6.914   6.351   2.569 -0.2295  1.6730 -0.0969
  941TIP3    H2 2788   6.947   6.308   2.427 -0.9456  0.2811  0.1413
  942TIP3   OH2 2789   4.629   0.181   5.448 -0.7183 -0.5168 -0.8433
  942TIP3    H1 2790   4.642   0.211   5.538  0.3551  0.2602 -1.2451
  942TIP3    H2 2791   4.548   0.224   5.421 -0.6729 -0.1952 -0.4816
  943TIP3   OH2 2792   2.499   5.189   2.020 -0.5138  0.3710 -0.6834
  943TIP3    H1 2793   2.489   5.266   2.075  1.5852  0.5878 -0.5392
  943TIP3    H2 2794   2.529   5.223   1.936  3.3012 -0.3306  0.2000
  944TIP3   OH2 2795   2.348   1.307   3.715 -0.4226  0.3486  0.0019
  944TIP3    H1 2796   2.308   1.325   3.629  0.0784 -1.0950 -0.5672
  944TIP3    H2 2797   2.435   1.344   3.709 -0.2525 -0.0806 -0.2730
  945TIP3   OH2 2798   1.365   2.071   5.597  0.0088  0.2216 -0.0392
  945TIP3    H1 2799   1.395   1.981   5.612 -0.3274  0.2940  1.1041
  945TIP3    H2 2800   1.439   2.113   5.553  1.2988  0.1463  1.9287
  946TIP3   OH2 2801   7.176   0.862   2.950  0.0422  0.4270 -0.1720
  946TIP3    H1 2802   7.094   0.814   2.935 -2.3678  4.2607 -0.7234
  946TIP3    H2 2803   7.206   0.886   2.862  1.1905 -0.0167  0.0862
  947TIP3   OH2 2804   7.197   1.498   0.288  0.2414 -0.5979  0.2199
  947TIP3    H1 2805   7.145   1.441   0.231  0.0984 -0.7593  0.5119
  947TIP3    H2 2806   7.160   1.585   0.274 -0.2365 -0.7388  0.5675
  948TIP3   OH2 2807   0.691   3.421   1.509  0.3837  0.6160 -0.2053
  948TIP3    H1 2808   0.683   3.381   1.596 -1.2121  2.5996  0.6314
  948TIP3    H2 2809   0.706   3.347   1.450 -1.1154 -1.0857  1.4103
  949TIP3   OH2 2810   6.575   1.139   5.166  0.3638 -0.1070  0.0722
  949TIP3    H1 2811   6.661   1.162   5.133  0.3600  1.9030  1.3067
  949TIP3    H2 2812   6.514   1.169   5.098  0.5093  1.3513  0.5478
  950TIP3   OH2 2813   6.029   3.428   3.305  0.2857  0.1747 -0.0175
  950TIP3    H1 2814   6.109   3.478   3.288  0.9963 -0.2854  1.7609
  950TIP3    H2 2815   6.043   3.345   3.259  0.4311  0.4141 -0.4195
  951TIP3   OH2 2816   1.982   1.163   0.861  0.3693 -0.2491 -0.2171
  951TIP3    H1 2817   1.989   1.204   0.775  0.9726 -1.0261 -0.5403
  951TIP3    H2 2818   2.049   1.207   0.914  0.2242 -0.0057 -0.2335
  952TIP3   OH2 2819   5.921   6.412   5.649  0.0608 -0.3176 -0.3622
  952TIP3    H1 2820   5.963   6.494   5.675  0.0696 -0.4763  0.1359
  952TIP3    H2 2821   5.980   6.344   5.681 -0.2108 -0.5250 -0.2984
  953TIP3   OH2 2822   4.012   1.777   5.661  0.3254  0.1144  0.1682
  953TIP3    H1 2823   4.024   1.739   5.574 -0.2640 -0.3063  0.2591
  953TIP3    H2 2824   4.100   1.788   5.695  0.5658  0.3668 -0.5204
  954TIP3   OH2 2825   4.304   1.069   3.000 -0.2320  0.0185 -0.3313
  954TIP3    H1 2826   4.354   1.026   2.931 -1.1625 -0.7184 -0.5507
  954TIP3    H2 2827   4.285   1.000   3.063  0.5337  0.6655  0.6459
  955TIP3   OH2 2828   1.996   0.840   1.576 -0.0473  0.3821 -0.2972
  955TIP3    H1 2829   2.075   0.893   1.564  0.2361 -0.0691 -0.4647
  955TIP3    H2 2830   2.025   0.750   1.561 -0.9463  0.3487 -2.1766
  956TIP3   OH2 2831   1.374   1.759   2.028 -0.3034  0.1276 -0.2091
  956TIP3    H1 2832   1.387   1.728   2.117  1.0354 -0.4911 -0.5778
  956TIP3    H2 2833   1.451   1.727   1.981 -2.0848 -1.6039 -2.1385
  957TIP3   OH2 2834   2.760   2.434   2.027 -0.0979  0.0930  0.2598
  957TIP3    H1 2835   2.674   2.395   2.039 -0.8416  1.4153 -0.5038
  957TIP3    H2 2836   2.822   2.363   2.045 -1.3482 -1.1055 -0.0137
  958TIP3   OH2 2837   0.910   5.734   1.733 -0.1334  0.4143  0.4946
  958TIP3    H1 2838   0.937   5.779   1.653 -1.4480 -0.4571 -0.4868
  958TIP3    H2 2839   0.929   5.642   1.716  0.6672  0.3371  1.6803
  959TIP3   OH2 2840   2.908   5.872   1.593 -0.0556  0.2413 -0.1233
  959TIP3    H1 2841   2.922   5.786   1.552 -0.0318  0.5876 -0.8652
  959TIP3    H2 2842   2.920   5.935   1.521 -0.2675  0.8538  0.3676
  960TIP3   OH2 2843   6.049   2.094   5.799 -0.1206  0.0113  0.6599
  960TIP3    H1 2844   5.975   2.097   5.739  0.7885 -0.3055 -0.4983
  960TIP3    H2 2845   6.086   2.006   5.788  1.6813  0.8384 -0.3542
  961TIP3   OH2 2846   1.588   4.360   0.381  0.3290 -0.0862 -0.1312
  961TIP3    H1 2847   1.674   4.354   0.337  0.3473  1.7622 -0.4408
  961TIP3    H2 2848   1.528   4.383   0.310  0.2695  2.4391  0.6443
  962TIP3   OH2 2849   5.725   3.117   0.863  0.3394  0.2083 -0.0606
  962TIP3    H1 2850   5.797   3.132   0.802  1.1869 -2.6870  0.0558
  962TIP3    H2 2851   5.653   3.086   0.808 -0.3481  1.6148  0.0029
  963TIP3   OH2 2852   0.475   2.031   3.209 -0.1547  0.0900 -0.2197
  963TIP3    H1 2853   0.565   2.029   3.178 -0.8021 -1.5956 -2.1858
  963TIP3    H2 2854   0.482   2.039   3.304  2.0691 -0.5055 -0.2913
  964TIP3   OH2 2855   4.483   3.410   5.195  0.1012 -0.1741  0.1999
  964TIP3    H1 2856   4.410   3.415   5.258  0.6301  0.4565  0.7813
  964TIP3    H2 2857   4.562   3.411   5.249  0.5660  0.3591 -0.4689
  965TIP3   OH2 2858   3.778   4.215   0.820 -0.1119  0.4012  0.0026
  965TIP3    H1 2859   3.769   4.167   0.902  1.9157 -0.1534 -0.0623
  965TIP3    H2 2860   3.818   4.153   0.759  1.5360  1.7743 -0.4017
  966TIP3   OH2 2861   6.709   4.478   1.940 -0.4182 -0.1772 -0.1256
  966TIP3    H1 2862   6.671   4.564   1.961 -2.4980 -0.7037 -1.3808
  966TIP3    H2 2863   6.696   4.469   1.845 -0.0136 -1.7591 -0.0547
  967TIP3   OH2 2864   0.251   3.539   0.237 -0.4657  0.3440  0.0767
  967TIP3    H1 2865   0.216   3.527   0.149 -0.1793  0.4181 -0.0481
  967TIP3    H2 2866   0.181   3.585   0.284 -2.3493 -3.1523  1.0600
  968TIP3   OH2 2867   7.056   5.881   2.259  0.2066  0.1671  0.7472
  968TIP3    H1 2868   7.124   5.945   2.239 -0.4976  0.5029 -0.7268
  968TIP3    H2 2869   7.092   5.797   2.229  0.5098  0.1196  1.2382
  969TIP3   OH2 2870   1.265   3.951   4.818 -0.3082 -0.1686  0.0713
  969TIP3    H1 2871   1.304   3.894   4.884 -0.2251  0.9964  1.0584
  969TIP3    H2 2872   1.235   4.027   4.866 -3.1777 -0.6656 -0.7462
  970TIP3   OH2 2873   2.560   0.282   1.057  0.1482 -0.0844 -0.6562
  970TIP3    H1 2874   2.553   0.376   1.041  1.1542 -0.0588 -1.0474
  970TIP3    H2 2875   2.627   0.274   1.125 -0.5994 -0.4736  0.0461
  971TIP3   OH2 2876   4.840   5.557   1.960  0.0260  0.1176  0.2194
  971TIP3    H1 2877   4.884   5.628   1.914  1.5846 -0.5612  0.6084
  971TIP3    H2 2878   4.830   5.588   2.050 -0.0364  0.1603  0.1977
  972TIP3   OH2 2879   1.240   5.875   1.335 -0.6161  0.0650  0.4219
  972TIP3    H1 2880   1.283   5.801   1.376 -1.6255 -0.2805  0.8870
  972TIP3    H2 2881   1.267   5.951   1.387  1.1729  0.1854 -0.6253
  973TIP3   OH2 2882   4.190   1.597   3.856 -0.5752  0.0971 -0.1152
  973TIP3    H1 2883   4.134   1.668   3.887 -1.1793  0.1098 -1.1654
  973TIP3    H2 2884   4.224   1.556   3.935 -0.9431  0.9863  0.5200
  974TIP3   OH2 2885   0.747   1.101   1.210 -0.3718 -0.1210  0.4264
  974TIP3    H1 2886   0.782   1.015   1.236 -0.0610  0.4063  1.8691
  974TIP3    H2 2887   0.657   1.101   1.243 -0.2931  0.1845  0.6491
  975TIP3   OH2 2888   6.921   3.814   4.863  0.1753 -0.2611  0.4683
  975TIP3    H1 2889   6.966   3.877   4.919 -0.2158 -0.8840  1.5076
  975TIP3    H2 2890   6.968   3.732   4.876  0.1112 -0.4089 -0.1672
  976TIP3   OH2 2891   0.852   4.964   0.512 -0.1243  0.0573 -0.5129
  976TIP3    H1 2892   0.934   4.929   0.548 -0.1805  0.4559  0.0190
  976TIP3    H2 2893   0.869   4.975   0.419  0.0068 -1.0657 -0.6309
  977TIP3   OH2 2894   1.204   5.469   5.159  0.6130 -0.0949 -0.0507
  977TIP3    H1 2895   1.115   5.438   5.142 -0.3234  1.3144  1.7939
  977TIP3    H2 2896   1.244   5.399   5.211 -0.3250  0.2596  1.2273
  978TIP3   OH2 2897   3.971   5.737   5.015 -0.4513 -0.0171  0.8862
  978TIP3    H1 2898   3.968   5.659   5.071  1.8651 -1.7392 -1.1453
  978TIP3    H2 2899   3.905   5.721   4.948 -1.4157  0.8078  1.6132
  979TIP3   OH2 2900   4.732   6.602   3.379 -0.4556  0.3941 -0.4323
  979TIP3    H1 2901   4.686   6.596   3.463  0.4566  0.7657  0.1063
  979TIP3    H2 2902   4.803   6.664   3.396  0.2678 -0.2064 -1.2425
  980TIP3   OH2 2903   2.565   3.032   5.007 -0.1053  0.1964 -0.4920
  980TIP3    H1 2904   2.532   2.998   5.090 -1.4131  1.1278 -0.5941
  980TIP3    H2 2905   2.659   3.014   5.010 -0.3416 -1.0269  0.5702
  981TIP3   OH2 2906   4.689   0.061   4.888 -0.9475 -0.0618 -0.4322
  981TIP3    H1 2907   4.707  -0.031   4.869  3.0040  0.0041  1.7080
  981TIP3    H2 2908   4.690   0.104   4.803 -0.2659 -1.6824 -1.2910
  982TIP3   OH2 2909   6.936   6.497   1.551  0.2172  0.1662  0.0971
  982TIP3    H1 2910   6.964   6.586   1.571 -0.9622  0.1298  2.1888
  982TIP3    H2 2911   6.858   6.484   1.605 -0.2231 -1.7991 -0.9307
  983TIP3   OH2 2912   5.369   1.457   0.986  0.5422 -0.2662  0.4256
  983TIP3    H1 2913   5.431   1.424   0.921 -0.4250 -0.9908 -0.1450
  983TIP3    H2 2914   5.425   1.489   1.058  1.5637 -1.9884  0.4462
  984TIP3   OH2 2915   4.677   3.658   1.721 -0.4169  0.6209 -0.4156
  984TIP3    H1 2916   4.747   3.640   1.659 -1.3874 -0.5829 -1.2315
  984TIP3    H2 2917   4.654   3.571   1.756 -0.1205  1.2264  1.4069
  985TIP3   OH2 2918   3.974   3.601   0.789 -0.0690 -0.2707  0.1084
  985TIP3    H1 2919   4.056   3.553   0.780  0.9826  1.4656 -0.0328
  985TIP3    H2 2920   3.972   3.662   0.715 -1.2736  0.0227  0.3463
  986TIP3   OH2 2921   0.020   3.375   5.634 -0.0279 -0.0364 -0.4654
  986TIP3    H1 2922   0.092   3.357   5.695  0.3388  1.4206 -0.4229
  986TIP3    H2 2923  -0.045   3.420   5.687  0.1997  1.0509 -1.0808
  987TIP3   OH2 2924   1.384   5.333   0.190  0.1519  0.6217 -0.2204
  987TIP3    H1 2925   1.384   5.390   0.113 -0.4063  0.5476 -0.2735
  987TIP3    H2 2926   1.475   5.304   0.198  0.1142  0.2418 -1.1390
  988TIP3   OH2 2927   6.343   6.432   5.705 -0.6402  0.4218 -0.4367
  988TIP3    H1 2928   6.337   6.526   5.722  3.1723  0.6604  0.5916
  988TIP3    H2 2929   6.375   6.427   5.615  2.2914  0.4181  0.4939
  989TIP3   OH2 2930   0.820   1.116   1.806 -0.4865 -0.6847  0.1979
  989TIP3    H1 2931   0.901   1.125   1.756 -0.5394 -2.7645 -0.3533
  989TIP3    H2 2932   0.781   1.204   1.804  2.1329  0.6161  1.2327
  990TIP3   OH2 2933   0.358   1.957   0.579  0.6224 -0.1241  0.0970
  990TIP3    H1 2934   0.426   1.890   0.577  0.9678  0.1423  1.5162
  990TIP3    H2 2935   0.373   2.003   0.661 -1.5433 -0.3631  0.6892
  991TIP3   OH2 2936   6.983   2.049   1.298  0.1836  0.2196  0.1360
  991TIP3    H1 2937   6.946   2.136   1.287  0.2036  0.1164 -0.8145
  991TIP3    H2 2938   6.910   1.989   1.282  0.6588  0.0237 -1.4438
  992TIP3   OH2 2939   0.041   0.636   3.924 -0.3814  0.6700 -0.5182
  992TIP3    H1 2940   0.133   0.629   3.899 -0.2691  0.1214  0.0151
  992TIP3    H2 2941   0.025   0.557   3.975 -0.7691  1.4345  0.5669
  993TIP3   OH2 2942   2.285   1.583   2.483  0.2105  0.0886  0.0381
  993TIP3    H1 2943   2.361   1.550   2.531 -0.9355 -1.6428  0.7488
  993TIP3    H2 2944   2.321   1.615   2.400  1.8454  0.4188  0.8304
  994TIP3   OH2 2945   4.293   4.003   1.984  0.3092 -0.5987 -0.5202
  994TIP3    H1 2946   4.352   4.004   1.909  2.2092  1.1257  0.8873
  994TIP3    H2 2947   4.314   3.921   2.030  0.3207 -0.8484 -0.9635
  995TIP3   OH2 2948   0.228   5.699   5.558  0.3052  0.0032 -0.0641
  995TIP3    H1 2949   0.136   5.725   5.565 -0.2195 -1.4638 -0.9199
  995TIP3    H2 2950   0.245   5.651   5.639 -0.5660 -2.1216 -1.0666
  996TIP3   OH2 2951   2.641   5.881   5.296 -0.1242 -0.3140 -0.4799
  996TIP3    H1 2952   2.554   5.912   5.269 -0.2118  0.0665  0.2259
  996TIP3    H2 2953   2.691   5.961   5.311  0.5109 -0.5336 -1.3738
  997TIP3   OH2 2954   3.740   5.750   5.301 -0.0612 -0.4307 -0.4396
  997TIP3    H1 2955   3.782   5.732   5.386 -0.0346 -3.9390 -1.0449
  997TIP3    H2 2956   3.796   5.706   5.237 -2.2153 -1.3758 -1.7972
  998TIP3   OH2 2957   2.101   5.834   2.048  0.8994 -0.2679 -0.6557
  998TIP3    H1 2958   2.005   5.838   2.047  0.8750 -0.1793  0.3830
  998TIP3    H2 2959   2.122   5.804   2.136  1.8550  0.5510 -0.5901
  999TIP3   OH2 2960   4.301   6.426   4.399  0.1501 -0.1068 -0.2437
  999TIP3    H1 2961   4.260   6.512   4.391  1.5317  0.6086  0.1693
  999TIP3    H2 2962   4.276   6.381   4.317 -3.6197 -0.7517  1.0433
 1000TIP3   OH2 2963   4.788   6.484   0.933  0.7006  0.1380 -0.0735
 1000TIP3    H1 2964   4.720   6.551   0.928 -0.6945 -1.0166  1.8949
 1000TIP3    H2 2965   4.777   6.433   0.853 -2.0647 -1.1008  0.9336
 1001TIP3   OH2 2966   1.191   6.022   0.955  0.1323 -0.9129  0.1149
 1001TIP3    H1 2967   1.248   5.965   1.008  0.5311 -0.0740  0.6050
 1001TIP3    H2 2968   1.163   5.966   0.882  1.3028 -1.4472  0.0516
 1002TIP3   OH2 2969   3.742   3.022   3.084  0.0927  0.1650  0.2075
 1002TIP3    H1 2970   3.661   3.000   3.039 -0.3028  0.5538  0.7172
 1002TIP3    H2 2971   3.718   3.025   3.177  1.4483 -3.2206  0.8062
 1003TIP3   OH2 2972   3.682   5.272   3.921  0.1528 -0.6762  0.0784
 1003TIP3    H1 2973   3.754   5.212   3.900  0.0646 -0.4004 -1.1041
 1003TIP3    H2 2974   3.661   5.314   3.837 -2.4822 -1.9496  0.0042
 1004TIP3   OH2 2975   4.779   3.458   1.061  0.5672  0.0496  0.4085
 1004TIP3    H1 2976   4.710   3.422   1.117  0.6470 -1.1208 -0.2181
 1004TIP3    H2 2977   4.860   3.420   1.094  0.9725  1.5841  1.2701
 1005TIP3   OH2 2978   6.749   0.899   5.102  0.5482  0.0681 -0.3378
 1005TIP3    H1 2979   6.664   0.874   5.065  1.5587 -1.5193 -1.7534
 1005TIP3    H2 2980   6.799   0.933   5.029  1.2128  0.7972  0.4323
 1006TIP3   OH2 2981   4.179   4.630   1.886 -0.0200 -0.1626 -0.8488
 1006TIP3    H1 2982   4.247   4.679   1.839 -0.8136 -0.0139 -1.8649
 1006TIP3    H2 2983   4.175   4.671   1.972 -0.1625  1.0960 -1.4373
 1007TIP3   OH2 2984   5.302   3.021   0.018  0.0548  0.6062  0.3292
 1007TIP3    H1 2985   5.395   3.022   0.042  0.3713 -0.8517 -0.7003
 1007TIP3    H2 2986   5.281   3.113  -0.000  1.7012  0.7901 -0.8762
 1008TIP3   OH2 2987   3.536   4.632   0.659 -0.3133  0.1166 -0.0905
 1008TIP3    H1 2988   3.495   4.696   0.600  0.9066  0.4334 -0.6391
 1008TIP3    H2 2989   3.615   4.677   0.690 -0.0445 -0.7059  0.4304
 1009TIP3   OH2 2990   2.499   1.189   1.830  0.1585 -0.2801 -0.0012
 1009TIP3    H1 2991   2.570   1.244   1.794 -0.9810  1.2240 -0.0658
 1009TIP3    H2 2992   2.531   1.163   1.917  1.4509 -0.9897 -0.6592
 1010TIP3   OH2 2993   2.580   3.436   3.646 -0.7691  0.1328 -0.4156
 1010TIP3    H1 2994   2.539   3.467   3.727  0.9906  0.9683  0.2132
 1010TIP3    H2 2995   2.510   3.439   3.581 -2.1726 -0.3398  1.0127
 1011TIP3   OH2 2996   2.070   1.070   4.917  0.0576 -0.1744 -0.0775
 1011TIP3    H1 2997   2.115   1.006   4.862 -0.0273  0.0261 -0.3826
 1011TIP3    H2 2998   2.135   1.098   4.980  0.1504 -0.4219 -0.0643
 1012TIP3   OH2 2999   6.730   3.046   4.642  0.0361 -0.2199 -0.0453
 1012TIP3    H1 3000   6.793   3.116   4.625 -1.1398  0.9667  0.3274
 1012TIP3    H2 3001   6.678   3.077   4.716 -1.2940 -0.9460 -0.6424
 1013TIP3   OH2 3002   0.343   3.807   2.747 -0.6403  0.0791 -0.6244
 1013TIP3    H1 3003   0.397   3.760   2.683  1.3665 -0.8084  1.5977
 1013TIP3    H2 3004   0.295   3.872   2.695  1.8170  0.2467 -2.8766
 1014TIP3   OH2 3005   6.992   5.124   0.564 -0.5328  0.1224 -0.4259
 1014TIP3    H1 3006   6.934   5.157   0.495  0.6229  0.3409 -1.3156
 1014TIP3    H2 3007   7.038   5.201   0.596 -0.8483 -0.0243  0.4136
 1015TIP3   OH2 3008   3.113   5.668   4.051 -0.4262  0.0108  0.1530
 1015TIP3    H1 3009   3.119   5.753   4.094  1.1446  0.1380 -0.2439
 1015TIP3    H2 3010   3.088   5.688   3.961  0.2343  0.1076 -0.0203
 1016TIP3   OH2 3011   0.921   0.572   3.558 -0.2455 -0.3332 -0.1091
 1016TIP3    H1 3012   1.000   0.604   3.514 -0.6962  0.1659 -0.5725
 1016TIP3    H2 3013   0.915   0.480   3.535 -0.5590 -0.0443 -1.2412
 1017TIP3   OH2 3014   0.754   4.047   0.282 -0.1112 -0.7596 -0.2129
 1017TIP3    H1 3015   0.839   4.045   0.327 -0.6973  0.0539  1.0009
 1017TIP3    H2 3016   0.774   4.075   0.193  0.5682  3.2340  1.0260
 1018TIP3   OH2 3017   0.929   4.000   1.640  0.2371 -0.3136 -0.0205
 1018TIP3    H1 3018   1.009   3.950   1.655 -1.6936 -3.0980  2.0313
 1018TIP3    H2 3019   0.888   3.957   1.565 -1.1101 -1.4941  1.3315
 1019TIP3   OH2 3020   2.437   2.054   1.350 -0.2242 -0.3381 -0.3507
 1019TIP3    H1 3021   2.468   1.997   1.420  0.1414 -0.3434 -0.5142
 1019TIP3    H2 3022   2.458   2.142   1.379  0.6880 -0.3944 -0.8268
 1020TIP3   OH2 3023   1.426   3.572   1.883 -0.2637 -0.2496 -0.3313
 1020TIP3    H1 3024   1.474   3.654   1.879 -0.2347 -0.2948 -1.2117
 1020TIP3    H2 3025   1.383   3.573   1.968  1.7110 -0.4385  0.7425
 1021TIP3   OH2 3026   3.144   3.410   3.597  0.4716 -0.4913  0.9193
 1021TIP3    H1 3027   3.051   3.410   3.620 -0.1205 -0.8999 -1.2414
 1021TIP3    H2 3028   3.162   3.320   3.571  1.0369 -0.0939 -0.1337
 1022TIP3   OH2 3029   6.431   1.010   1.457  0.3851  0.0502  0.0574
 1022TIP3    H1 3030   6.491   0.955   1.507  0.8853  1.0324  0.5591
 1022TIP3    H2 3031   6.477   1.093   1.445 -0.0972  0.1558 -1.2555
 1023TIP3   OH2 3032   4.716   6.332   5.499 -0.4089 -0.0395 -0.2827
 1023TIP3    H1 3033   4.624   6.345   5.525 -0.2451 -0.2282  0.4201
 1023TIP3    H2 3034   4.765   6.342   5.581  0.0338 -1.6924 -0.3164
 1024TIP3   OH2 3035   1.344   2.664   3.440  0.0314  0.2017 -0.3254
 1024TIP3    H1 3036   1.419   2.625   3.486  0.4209  0.5727 -0.6415
 1024TIP3    H2 3037   1.269   2.611   3.468  0.4554 -0.3620 -0.2366
 1025TIP3   OH2 3038   2.220   4.558   0.807 -0.0611 -0.2460 -0.6596
 1025TIP3    H1 3039   2.136   4.601   0.822  0.2234  0.3040 -0.6208
 1025TIP3    H2 3040   2.281   4.603   0.864 -0.0291 -1.6634  0.4832
 1026TIP3   OH2 3041   2.759   5.390   0.130 -0.1746  0.4611  0.0308
 1026TIP3    H1 3042   2.688   5.363   0.188  0.5767 -0.9838  0.3270
 1026TIP3    H2 3043   2.788   5.309   0.088  0.9951  1.0863 -0.4147
 1027TIP3   OH2 3044   6.452   0.567   1.378  0.0837  0.1670  0.3221
 1027TIP3    H1 3045   6.374   0.576   1.324  0.7958 -3.0180 -1.4358
 1027TIP3    H2 3046   6.522   0.606   1.325  0.2900 -0.2100  0.3200
 1028TIP3   OH2 3047   5.090   4.080   0.624 -0.0789 -0.2591  0.1010
 1028TIP3    H1 3048   5.039   4.000   0.636  1.5709 -1.1655  1.5887
 1028TIP3    H2 3049   5.089   4.122   0.710  0.3755  0.5153 -0.2608
 1029TIP3   OH2 3050   3.134   0.883   0.745 -0.3701  1.0819  0.1657
 1029TIP3    H1 3051   3.185   0.841   0.676 -1.8663  0.2372 -0.4798
 1029TIP3    H2 3052   3.109   0.968   0.709  0.5545  1.5019  0.4878
 1030TIP3   OH2 3053   0.422   6.485   2.593  0.1679 -0.2506 -0.3750
 1030TIP3    H1 3054   0.485   6.416   2.575 -0.4671 -1.0717  0.4397
 1030TIP3    H2 3055   0.451   6.522   2.677  1.2393  1.3579 -1.4060
 1031TIP3   OH2 3056   2.028   2.933   4.640 -0.3512  0.7325 -0.2088
 1031TIP3    H1 3057   1.963   2.994   4.605  0.0358  1.0981 -0.3027
 1031TIP3    H2 3058   2.001   2.920   4.731 -0.7056  0.6709 -0.3201
 1032TIP3   OH2 3059   6.439   3.833   4.963 -0.0456  0.0697  0.0811
 1032TIP3    H1 3060   6.353   3.839   5.004  0.0520  0.5834  0.2147
 1032TIP3    H2 3061   6.440   3.746   4.923 -1.1209  0.5415 -1.0430
 1033TIP3   OH2 3062   6.549   5.578   2.024 -0.3621  0.8166  0.6803
 1033TIP3    H1 3063   6.513   5.612   1.942 -1.3900  0.4447  0.9606
 1033TIP3    H2 3064   6.501   5.497   2.040  0.5119  0.3817  1.1521
 1034TIP3   OH2 3065   1.787   0.094   1.262 -0.0515 -0.9069  0.3257
 1034TIP3    H1 3066   1.819   0.113   1.174 -1.1275  0.3210  0.1648
 1034TIP3    H2 3067   1.864   0.097   1.318  0.2875  1.1846 -0.1587
 1035TIP3   OH2 3068   2.462   5.647   1.456  0.0895 -0.2637 -0.4249
 1035TIP3    H1 3069   2.524   5.578   1.478 -0.9028 -0.6679  1.2766
 1035TIP3    H2 3070   2.474   5.662   1.362  3.0084 -0.0423 -0.0951
 1036TIP3   OH2 3071   5.649   2.412   1.385 -0.0130  0.5880 -0.0555
 1036TIP3    H1 3072   5.616   2.497   1.356 -0.5638 -0.3613 -2.4708
 1036TIP3    H2 3073   5.573   2.354   1.382  0.7234 -0.3999 -0.2424
 1037TIP3   OH2 3074   5.065   4.802   2.786 -0.1232  0.1383  0.0960
 1037TIP3    H1 3075   5.083   4.891   2.815 -1.7177  0.5054  0.0511
 1037TIP3    H2 3076   5.048   4.753   2.867  1.4396 -0.3245  0.1775
 1038TIP3   OH2 3077   5.042   1.583   5.771  0.4059  0.1715 -0.3337
 1038TIP3    H1 3078   5.011   1.640   5.701  0.1980 -0.0942 -0.4596
 1038TIP3    H2 3079   5.133   1.563   5.748  0.1780 -0.3485 -0.8179
 1039TIP3   OH2 3080   5.856   3.989   2.846 -0.0522 -0.3854  0.2300
 1039TIP3    H1 3081   5.861   3.998   2.941 -0.2414  2.4142  0.0651
 1039TIP3    H2 3082   5.895   3.904   2.827 -0.0130 -0.9981  2.7969
 1040TIP3   OH2 3083   6.515   1.888   4.613  0.2539  0.2169  0.1291
 1040TIP3    H1 3084   6.498   1.966   4.665  0.4281 -0.5636  1.4139
 1040TIP3    H2 3085   6.437   1.834   4.624  0.4608 -0.1315 -0.0944
 1041TIP3   OH2 3086   5.008   3.078   2.236 -0.0402  0.0636 -0.2829
 1041TIP3    H1 3087   5.070   3.151   2.228 -0.7434  0.8212  0.8222
 1041TIP3    H2 3088   5.030   3.019   2.164 -1.6370  3.0309 -3.5356
 1042TIP3   OH2 3089   5.889   4.504   1.491 -0.0341  0.0464 -0.0135
 1042TIP3    H1 3090   5.944   4.582   1.482  0.6172 -0.5450 -1.5281
 1042TIP3    H2 3091   5.858   4.507   1.582  1.3311  1.1616  0.4601
 1043TIP3   OH2 3092   3.140   0.037   3.938  0.0690  0.4814 -0.1546
 1043TIP3    H1 3093   3.120   0.075   4.024 -0.4474 -1.2577  0.5335
 1043TIP3    H2 3094   3.077  -0.034   3.928  1.6147 -0.8516 -0.9336
 1044TIP3   OH2 3095   1.672   2.286   1.442 -0.2456 -0.0626 -0.0341
 1044TIP3    H1 3096   1.663   2.191   1.452 -2.2127  0.0811 -0.1428
 1044TIP3    H2 3097   1.766   2.300   1.436  0.0692 -2.0604 -0.5364
 1045TIP3   OH2 3098   4.784   0.624   3.180 -0.5095  0.0362  0.0357
 1045TIP3    H1 3099   4.835   0.696   3.142  1.7985 -0.0848  2.5276
 1045TIP3    H2 3100   4.706   0.666   3.216 -0.0920  1.0058 -0.1525
 1046TIP3   OH2 3101   0.373   5.607   2.145  0.4099  0.4340 -0.3913
 1046TIP3    H1 3102   0.432   5.543   2.184  0.1454  1.1359  1.2845
 1046TIP3    H2 3103   0.423   5.689   2.144 -0.2715  0.8773  0.3926
 1047TIP3   OH2 3104   5.803   5.793   0.405 -0.5729  0.0552  0.3210
 1047TIP3    H1 3105   5.823   5.850   0.480 -0.3658  0.6279 -0.1566
 1047TIP3    H2 3106   5.874   5.811   0.343 -0.5612 -0.6608  0.1223
 1048TIP3   OH2 3107   1.348   0.225   4.732 -0.7241 -0.1313  0.5808
 1048TIP3    H1 3108   1.381   0.145   4.692  0.2259 -0.1991  1.4530
 1048TIP3    H2 3109   1.255   0.207   4.746 -1.3527  0.2626 -2.4026
 1049TIP3   OH2 3110   5.182   0.703   3.171  0.1429  0.2467  0.1387
 1049TIP3    H1 3111   5.248   0.730   3.235 -0.5346  0.5981  0.7102
 1049TIP3    H2 3112   5.214   0.736   3.087  1.5655 -1.0999  0.1030
 1050TIP3   OH2 3113   5.713   5.838   3.910  0.3181 -0.5094  0.4421
 1050TIP3    H1 3114   5.790   5.785   3.890  0.9549  0.0457  1.3167
 1050TIP3    H2 3115   5.699   5.825   4.004  0.0994  0.3571  0.5365
 1051TIP3   OH2 3116   2.366   2.828   4.776 -0.0114 -0.6325  0.0084
 1051TIP3    H1 3117   2.321   2.887   4.837  0.3532  0.5866 -0.8639
 1051TIP3    H2 3118   2.433   2.784   4.830  0.9029  1.0723  0.3299
 1052TIP3   OH2 3119   2.174   2.235   3.152  0.0502  0.1318 -0.2654
 1052TIP3    H1 3120   2.198   2.257   3.242 -0.7199  0.0345 -0.0280
 1052TIP3    H2 3121   2.084   2.265   3.143 -0.2044 -0.7150 -0.6998
 1053TIP3   OH2 3122   2.662   4.667   5.118 -0.1797  0.0400 -0.0689
 1053TIP3    H1 3123   2.612   4.603   5.067 -0.0475 -0.6709  0.6829
 1053TIP3    H2 3124   2.607   4.745   5.117 -0.7336 -0.3431 -0.2960
 1054TIP3   OH2 3125   5.267   1.912   3.338 -0.1339  0.2795 -0.0231
 1054TIP3    H1 3126   5.282   1.839   3.278 -0.3842  1.9275 -2.2119
 1054TIP3    H2 3127   5.192   1.959   3.301 -0.5495  1.1689  1.8150
 1055TIP3   OH2 3128   6.225   6.190   1.390  0.6251 -0.8499 -0.1266
 1055TIP3    H1 3129   6.318   6.178   1.411  0.3297 -0.7709  1.3354
 1055TIP3    H2 3130   6.218   6.280   1.360  0.4432  0.5951  3.6936
 1056TIP3   OH2 3131   1.033   4.337   4.828  0.6924 -0.1109 -0.0596
 1056TIP3    H1 3132   1.019   4.371   4.916 -0.9619  0.1124 -0.3805
 1056TIP3    H2 3133   1.057   4.245   4.841 -1.1855 -0.5549  0.6079
 1057TIP3   OH2 3134   6.404   5.102   5.624 -0.0548  0.2526 -0.3745
 1057TIP3    H1 3135   6.498   5.083   5.621  0.0779  0.3810  1.5111
 1057TIP3    H2 3136   6.367   5.031   5.677 -0.9673  0.4211 -0.7713
 1058TIP3   OH2 3137   6.729   0.838   0.553  0.5105 -0.1936 -0.2473
 1058TIP3    H1 3138   6.662   0.771   0.549 -0.9780  1.2733 -0.9018
 1058TIP3    H2 3139   6.752   0.844   0.646 -1.9031  0.7947  0.3533
 1059TIP3   OH2 3140   6.631   4.371   5.546 -0.2076 -0.4203  0.1642
 1059TIP3    H1 3141   6.575   4.392   5.471 -2.8629  0.5227  2.2641
 1059TIP3    H2 3142   6.618   4.277   5.560 -0.7894 -0.3223  0.2777
 1060TIP3   OH2 3143   2.870   3.056   3.538 -0.2090  0.0910 -0.3441
 1060TIP3    H1 3144   2.789   3.071   3.489  0.2569  1.0165 -0.8470
 1060TIP3    H2 3145   2.885   3.138   3.585  0.8309  0.1840 -0.8262
 1061TIP3   OH2 3146   1.725   4.911   4.619 -0.1010 -0.4976 -0.2168
 1061TIP3    H1 3147   1.803   4.942   4.572  0.8435 -0.5536  1.2659
 1061TIP3    H2 3148   1.682   4.852   4.557  0.9014 -0.2733 -1.1558
 1062TIP3   OH2 3149   3.669   2.044   0.841 -0.1999 -0.1750  0.2060
 1062TIP3    H1 3150   3.579   2.069   0.861 -0.0275  0.7596 -0.1182
 1062TIP3    H2 3151   3.688   2.090   0.759  0.5215 -0.4868  0.1966
 1063TIP3   OH2 3152   1.835   2.257   5.768 -0.5173  0.6143 -0.3078
 1063TIP3    H1 3153   1.909   2.234   5.711 -1.0583 -0.0498 -0.7492
 1063TIP3    H2 3154   1.864   2.231   5.855 -0.1840  0.4466 -0.4638
 1064TIP3   OH2 3155   3.445   2.330   2.116 -0.1295  0.4895  0.5850
 1064TIP3    H1 3156   3.394   2.259   2.077 -0.2666  0.9577 -0.1111
 1064TIP3    H2 3157   3.414   2.409   2.072  1.5738  0.7378 -0.2878
 1065TIP3   OH2 3158   2.561   0.552   2.589 -0.2383  0.0504  0.0373
 1065TIP3    H1 3159   2.589   0.625   2.534 -0.2736 -0.2716 -0.4214
 1065TIP3    H2 3160   2.642   0.505   2.609 -0.3614 -0.5307 -0.7749
 1066TIP3   OH2 3161   6.501  -0.009   3.882  0.0578 -0.3133 -0.4323
 1066TIP3    H1 3162   6.420   0.027   3.847 -0.5155  0.4227  1.5177
 1066TIP3    H2 3163   6.560   0.066   3.887  0.6515 -0.7167 -1.2273
 1067TIP3   OH2 3164   4.449   3.174   4.517  1.0078 -0.1068  0.1760
 1067TIP3    H1 3165   4.447   3.079   4.526  1.1817 -0.2021 -0.6582
 1067TIP3    H2 3166   4.471   3.189   4.425 -0.3122  0.7409 -0.0269
 1068TIP3   OH2 3167   3.206   3.230   0.721  0.0385 -0.3468  0.2966
 1068TIP3    H1 3168   3.249   3.196   0.643 -1.0325  1.2728 -1.0779
 1068TIP3    H2 3169   3.118   3.194   0.718 -0.5583  1.0666 -0.2459
 1069TIP3   OH2 3170   3.347   4.896   1.579 -0.1372  0.0226 -0.6306
 1069TIP3    H1 3171   3.357   4.801   1.566  0.2862  0.2241 -1.8650
 1069TIP3    H2 3172   3.436   4.930   1.572 -0.5021  0.7283 -2.1393
 1070TIP3   OH2 3173   1.781   2.570   1.546  0.1206  0.1827 -0.1292
 1070TIP3    H1 3174   1.804   2.658   1.576 -0.3384  0.6485 -1.1086
 1070TIP3    H2 3175   1.687   2.574   1.529 -0.1222 -0.8100  0.8266
 1071TIP3   OH2 3176   6.294   1.515   0.365 -0.0035 -0.1793 -0.0994
 1071TIP3    H1 3177   6.272   1.505   0.458 -2.8043  0.3576 -0.6275
 1071TIP3    H2 3178   6.329   1.604   0.359 -1.6020  0.5061  0.1920
 1072TIP3   OH2 3179   4.309   1.400   3.025  0.0995  0.3259  0.0133
 1072TIP3    H1 3180   4.227   1.352   3.028  0.7236 -0.8070 -0.2937
 1072TIP3    H2 3181   4.341   1.399   3.115  0.1628  0.0622 -0.0113
 1073TIP3   OH2 3182   5.335   0.915   3.354  0.6746 -0.1072  0.3028
 1073TIP3    H1 3183   5.394   0.871   3.416  0.4761  0.5856  1.0059
 1073TIP3    H2 3184   5.283   0.974   3.409 -0.2223 -0.2265 -0.3970
 1074TIP3   OH2 3185   4.441   6.066   1.910  0.4029  0.9667 -0.0203
 1074TIP3    H1 3186   4.520   6.028   1.870  0.1856  2.2118 -1.7646
 1074TIP3    H2 3187   4.468   6.154   1.936 -0.3186  1.2876 -0.3476
 1075TIP3   OH2 3188   5.137   4.247   0.121 -0.0560 -0.2585 -0.2473
 1075TIP3    H1 3189   5.068   4.313   0.112  1.1377  1.3235  1.4926
 1075TIP3    H2 3190   5.097   4.177   0.172 -1.0462 -0.4409 -1.2469
 1076TIP3   OH2 3191   7.145   0.368   0.119 -0.0190 -0.4108 -0.0368
 1076TIP3    H1 3192   7.052   0.373   0.096 -0.4254 -3.4635  0.5885
 1076TIP3    H2 3193   7.189   0.341   0.039 -0.0047 -1.2093  0.2367
 1077TIP3   OH2 3194   6.916   1.024   0.505 -0.0167  0.4207  0.2587
 1077TIP3    H1 3195   6.968   1.010   0.426 -0.4607  0.4283 -0.0403
 1077TIP3    H2 3196   6.841   0.965   0.495 -0.4888  1.0057  0.2943
 1078TIP3   OH2 3197   4.089   0.166   2.469 -0.0271 -0.2036 -0.4932
 1078TIP3    H1 3198   4.159   0.181   2.406 -0.3511  0.2637 -0.7454
 1078TIP3    H2 3199   4.048   0.084   2.440  0.4984 -0.5566 -0.2596
 1079TIP3   OH2 3200   0.084   0.281   2.143  0.2677  0.1661 -0.8271
 1079TIP3    H1 3201   0.103   0.188   2.157  0.9110  0.3312 -0.5650
 1079TIP3    H2 3202   0.166   0.326   2.164  0.6594  0.6129 -2.9857
 1080TIP3   OH2 3203   1.792   0.412   2.676  0.3568  0.1787 -0.1996
 1080TIP3    H1 3204   1.887   0.405   2.663  0.4296 -0.6671  0.7037
 1080TIP3    H2 3205   1.782   0.448   2.764 -0.1231 -2.4732  0.9375
 1081TIP3   OH2 3206   1.737   4.519   4.128  0.2450 -0.0345 -0.5934
 1081TIP3    H1 3207   1.769   4.530   4.217  0.6792 -0.9526 -0.6153
 1081TIP3    H2 3208   1.793   4.576   4.075 -0.5139  1.1026 -0.1999
 1082TIP3   OH2 3209   5.738   4.525   3.539 -0.9210 -0.0929  0.1926
 1082TIP3    H1 3210   5.756   4.609   3.581 -0.0532 -0.5276  0.7096
 1082TIP3    H2 3211   5.809   4.513   3.476 -2.2051  0.5544 -1.4691
 1083TIP3   OH2 3212   4.047   4.609   2.312 -0.1694 -0.2299 -0.3654
 1083TIP3    H1 3213   4.020   4.530   2.266 -0.6044  0.2893 -1.0349
 1083TIP3    H2 3214   4.056   4.675   2.243  1.2053  0.0562  0.0380
 1084TIP3   OH2 3215   6.621   5.497   4.388 -0.2772  0.2386 -0.9266
 1084TIP3    H1 3216   6.677   5.539   4.454 -0.2034 -0.5792 -0.4603
 1084TIP3    H2 3217   6.561   5.566   4.360  1.7665  1.5385 -2.3937
 1085TIP3   OH2 3218   6.709   1.531   4.593 -0.4083 -0.2803  0.3816
 1085TIP3    H1 3219   6.793   1.509   4.554 -0.9073  1.3996 -1.8715
 1085TIP3    H2 3220   6.645   1.485   4.539 -1.0164  0.2105  0.6627
 1086TIP3   OH2 3221   5.004   4.084   5.053  0.0050  0.2365  0.5044
 1086TIP3    H1 3222   5.008   4.179   5.048  1.6670  0.1396 -1.6707
 1086TIP3    H2 3223   5.094   4.056   5.069  0.4401 -0.9902 -3.0328
 1087TIP3   OH2 3224   6.534   0.637   0.464 -0.0754  0.3451 -0.4233
 1087TIP3    H1 3225   6.469   0.706   0.445  0.4794  1.6509  2.0143
 1087TIP3    H2 3226   6.597   0.644   0.393 -1.7230  0.1144 -1.9933
 1088TIP3   OH2 3227   0.160   4.712   3.591  0.3064 -0.1191  0.2890
 1088TIP3    H1 3228   0.104   4.761   3.531  0.7139  1.4935  1.1605
 1088TIP3    H2 3229   0.233   4.772   3.609  1.2678 -1.3928  0.7452
 1089TIP3   OH2 3230   1.408   6.557   0.142  0.1203 -0.3391 -0.1647
 1089TIP3    H1 3231   1.321   6.576   0.108 -1.0855 -1.2276  2.2497
 1089TIP3    H2 3232   1.420   6.619   0.214  0.1044 -2.2937  1.5926
 1090TIP3   OH2 3233   1.749   4.987   0.549 -0.4374 -0.4403 -0.2457
 1090TIP3    H1 3234   1.690   5.054   0.515  0.3446 -0.0216 -0.7887
 1090TIP3    H2 3235   1.708   4.904   0.524 -0.5256 -0.1499 -1.0858
 1091TIP3   OH2 3236   6.676   0.163   1.115 -0.3539 -0.3290  0.0216
 1091TIP3    H1 3237   6.580   0.169   1.109 -0.3230  0.9093  0.4952
 1091TIP3    H2 3238   6.699   0.222   1.187  0.7675 -0.6955 -0.0207
 1092TIP3   OH2 3239   6.874   2.776   4.971  0.2473  0.3013  0.3408
 1092TIP3    H1 3240   6.956   2.822   4.987  0.0483  0.5089  0.7625
 1092TIP3    H2 3241   6.828   2.830   4.907 -0.4027  1.1977  1.5318
 1093TIP3   OH2 3242   6.661   2.403   5.613  0.1883 -0.1203 -0.8130
 1093TIP3    H1 3243   6.743   2.386   5.567 -0.4540 -1.3269 -1.5736
 1093TIP3    H2 3244   6.604   2.440   5.546  0.0848  0.6292 -0.3109
 1094TIP3   OH2 3245   7.164   0.081   2.814  0.1269  0.2102 -0.1169
 1094TIP3    H1 3246   7.116   0.060   2.894 -0.9455  0.6315 -0.6262
 1094TIP3    H2 3247   7.209   0.163   2.834 -0.2575  0.3925  0.0113
 1095TIP3   OH2 3248   5.776   2.565   1.150  0.3231  0.2863  0.1027
 1095TIP3    H1 3249   5.793   2.659   1.160  1.1174  0.1242  0.3052
 1095TIP3    H2 3250   5.862   2.526   1.137  0.0348 -0.4651  0.3891
 1096TIP3   OH2 3251   4.864   0.127   4.100 -0.0258 -0.4771 -0.4342
 1096TIP3    H1 3252   4.824   0.046   4.069  0.8399 -1.2919  0.5260
 1096TIP3    H2 3253   4.894   0.107   4.189 -0.8214  1.2424  0.2740
 1097TIP3   OH2 3254   0.569   5.676   4.296 -0.1591 -0.2369 -0.4274
 1097TIP3    H1 3255   0.533   5.756   4.258  0.1895 -0.7359 -1.8757
 1097TIP3    H2 3256   0.647   5.704   4.344  0.1904  0.2600 -1.2650
 1098TIP3   OH2 3257   4.607   1.805   0.958 -0.2049  0.4012  0.4722
 1098TIP3    H1 3258   4.560   1.873   0.909  1.3915  0.1245 -1.6319
 1098TIP3    H2 3259   4.540   1.761   1.010 -1.6663  2.0878  0.1055
 1099TIP3   OH2 3260   6.674   4.531   4.526 -0.1449 -0.7259  0.1399
 1099TIP3    H1 3261   6.691   4.566   4.438  2.0974 -0.6868  0.5118
 1099TIP3    H2 3262   6.704   4.601   4.585  2.1210 -2.2272  0.8927
 1100TIP3   OH2 3263   5.658   5.002   5.613  0.5780 -0.1013 -0.0910
 1100TIP3    H1 3264   5.676   4.910   5.597  1.5846  0.0480  0.1250
 1100TIP3    H2 3265   5.735   5.048   5.580  1.0796  0.4786  1.7607
 1101TIP3   OH2 3266   3.088   3.504   0.574 -0.3152  0.1860 -0.2119
 1101TIP3    H1 3267   3.004   3.464   0.593 -0.0851  0.2142  0.9371
 1101TIP3    H2 3268   3.131   3.443   0.514 -1.9787  1.2081 -2.5851
 1102TIP3   OH2 3269   2.747   6.430   1.919 -0.2294  0.5426 -0.1755
 1102TIP3    H1 3270   2.784   6.344   1.937 -0.3507  0.6656  0.7140
 1102TIP3    H2 3271   2.745   6.436   1.823 -0.2578 -0.4500 -0.2472
 1103TIP3   OH2 3272   2.773   0.484   3.282  0.3180  0.2223  0.1303
 1103TIP3    H1 3273   2.718   0.554   3.246 -1.4936 -1.6047 -0.9038
 1103TIP3    H2 3274   2.862   0.519   3.279 -0.3644  2.0066 -1.5292
 1104TIP3   OH2 3275   6.986   5.708   0.302 -0.2005  0.4977 -0.3779
 1104TIP3    H1 3276   7.005   5.615   0.316  1.9926  0.7343 -1.4410
 1104TIP3    H2 3277   7.061   5.741   0.254 -0.8315  2.8998  0.1626
 1105TIP3   OH2 3278   1.968   2.993   3.369  0.7276 -0.1444  0.6295
 1105TIP3    H1 3279   1.926   2.986   3.283  1.2894  0.1216  0.3244
 1105TIP3    H2 3280   1.905   2.955   3.430 -0.9063  2.1149  0.5095
 1106TIP3   OH2 3281   5.704   5.348   1.741  0.0733 -0.2494 -0.1562
 1106TIP3    H1 3282   5.684   5.254   1.733  0.0262 -0.3566  1.0162
 1106TIP3    H2 3283   5.692   5.366   1.834  0.1348  0.9185 -0.3697
 1107TIP3   OH2 3284   4.085   2.979   1.008  0.1042 -0.2187  0.5732
 1107TIP3    H1 3285   4.142   2.947   0.940 -1.2715  0.7261 -1.1066
 1107TIP3    H2 3286   4.142   3.027   1.068  1.1511  0.1739 -0.7146
 1108TIP3   OH2 3287   0.361   0.645   0.541  0.1981  0.8091  0.1827
 1108TIP3    H1 3288   0.295   0.577   0.554  0.0888  0.6397 -1.1606
 1108TIP3    H2 3289   0.323   0.723   0.582 -1.1821  0.9071 -1.2118
 1109TIP3   OH2 3290   1.182   3.495   1.544 -0.1693  0.2563  0.0844
 1109TIP3    H1 3291   1.141   3.488   1.630  2.7962 -2.1432  1.5167
 1109TIP3    H2 3292   1.198   3.589   1.533  0.5623  0.5586  2.8446
 1110TIP3   OH2 3293   1.551   0.435   2.055  0.5709 -0.9447 -0.0366
 1110TIP3    H1 3294   1.618   0.368   2.061  0.4271 -1.3682 -2.2517
 1110TIP3    H2 3295   1.581   0.505   2.113  2.4422 -1.5143 -0.2669
 1111TIP3   OH2 3296   2.075   4.578   1.986  0.0868 -0.0452  0.0153
 1111TIP3    H1 3297   2.168   4.553   1.985  0.8999  2.6454  0.6535
 1111TIP3    H2 3298   2.029   4.495   1.996  2.4773 -1.3880  0.9026
 1112TIP3   OH2 3299   2.908   4.485   0.417  0.2210  0.0939 -0.0065
 1112TIP3    H1 3300   2.882   4.398   0.388  0.4128  0.1703 -0.4075
 1112TIP3    H2 3301   3.002   4.477   0.434  0.6873  0.7612 -2.0736
 1113TIP3   OH2 3302   5.002   2.223   1.338 -0.6377 -0.4660  0.1365
 1113TIP3    H1 3303   4.928   2.217   1.398 -0.0381  0.6598  1.0468
 1113TIP3    H2 3304   4.993   2.310   1.298 -0.0885 -0.5185 -0.1142
 1114TIP3   OH2 3305   5.020   5.198   0.807 -0.1245  0.3331 -0.2256
 1114TIP3    H1 3306   5.105   5.235   0.783 -0.6423  2.1614  0.5561
 1114TIP3    H2 3307   5.037   5.150   0.888  0.4390 -0.5990 -0.8824
 1115TIP3   OH2 3308   3.202   0.585   4.522 -0.2208 -0.3449 -0.4343
 1115TIP3    H1 3309   3.214   0.519   4.453  0.9100  0.8101 -1.3856
 1115TIP3    H2 3310   3.286   0.587   4.567  0.8106  2.3546 -2.2094
 1116TIP3   OH2 3311   2.545   4.092   2.533 -0.3441  0.2726 -0.6303
 1116TIP3    H1 3312   2.633   4.117   2.507 -0.4219  1.0483 -0.2097
 1116TIP3    H2 3313   2.491   4.108   2.456  0.0307 -1.2072 -1.2302
 1117TIP3   OH2 3314   5.021   2.490   3.771  0.3135  0.1548  0.0443
 1117TIP3    H1 3315   5.006   2.396   3.767 -0.8826  0.2881  0.7795
 1117TIP3    H2 3316   5.116   2.500   3.765  0.5101 -1.1327  0.7282
 1118TIP3   OH2 3317   5.183   4.036   3.493  0.1018 -0.0118  0.2888
 1118TIP3    H1 3318   5.188   4.071   3.404  1.2559 -0.9583 -0.0604
 1118TIP3    H2 3319   5.209   3.944   3.484  1.0796  0.0791  1.7044
 1119TIP3   OH2 3320   5.182   5.356   2.616 -0.3957  0.1015 -0.9478
 1119TIP3    H1 3321   5.245   5.371   2.546  0.4122  0.3947 -0.1722
 1119TIP3    H2 3322   5.197   5.265   2.642  0.1361  0.3560 -0.3512
 1120TIP3   OH2 3323   1.832   0.072   2.868  0.1980 -0.1844  0.2774
 1120TIP3    H1 3324   1.775   0.148   2.853  0.3072 -0.0556  0.5147
 1120TIP3    H2 3325   1.904   0.106   2.921 -0.5812 -0.7876  1.8099
 1121TIP3   OH2 3326   3.641   0.960   1.982  0.4662  0.9455 -0.5923
 1121TIP3    H1 3327   3.676   0.872   1.965  0.6885  0.9753 -0.3124
 1121TIP3    H2 3328   3.548   0.946   2.000  0.4176  0.8142 -0.9451
 1122TIP3   OH2 3329   6.336   5.334   1.424  0.4143  1.0400 -0.0754
 1122TIP3    H1 3330   6.324   5.359   1.333  0.5884  1.2823 -0.0313
 1122TIP3    H2 3331   6.247   5.318   1.457  0.3275  1.3041 -0.1841
 1123TIP3   OH2 3332   1.314   4.793   3.554  0.1369 -0.0081 -0.6872
 1123TIP3    H1 3333   1.275   4.776   3.468 -0.0314  1.7822 -0.9901
 1123TIP3    H2 3334   1.247   4.764   3.616 -1.4353  2.2301 -1.1997
 1124TIP3   OH2 3335   4.350   2.337   5.480 -0.7554  0.3093 -0.8875
 1124TIP3    H1 3336   4.380   2.356   5.391  1.4449 -1.5043 -0.6326
 1124TIP3    H2 3337   4.305   2.253   5.473 -0.3261  0.0173 -0.2701
 1125TIP3   OH2 3338   4.735   5.518   3.209  0.2982  0.2566 -0.3177
 1125TIP3    H1 3339   4.742   5.614   3.200  0.1532  0.1696 -1.5045
 1125TIP3    H2 3340   4.674   5.492   3.141  0.5671 -0.7298 -0.1954
 1126TIP3   OH2 3341   3.519   5.143   3.006 -0.0313 -0.0436 -0.2878
 1126TIP3    H1 3342   3.566   5.206   3.061 -0.3533  0.8144 -0.9576
 1126TIP3    H2 3343   3.434   5.133   3.049 -0.2818  0.6235 -0.6120
 1127TIP3   OH2 3344   0.901   5.582   3.232 -0.2053  0.2454  0.4074
 1127TIP3    H1 3345   0.944   5.515   3.179  0.6019  0.4274  0.8131
 1127TIP3    H2 3346   0.809   5.556   3.234  0.2796 -1.5406  1.5884
 1128TIP3   OH2 3347   1.303   5.815   1.073 -0.3331 -0.3939  0.1396
 1128TIP3    H1 3348   1.306   5.837   1.165  0.9731 -1.0614  0.2846
 1128TIP3    H2 3349   1.385   5.768   1.057 -1.3358 -1.8833 -0.9374
 1129TIP3   OH2 3350   5.205   4.041   5.434  0.0398 -0.5406  0.1361
 1129TIP3    H1 3351   5.122   4.036   5.386 -0.4622  3.6492  0.1189
 1129TIP3    H2 3352   5.182   4.087   5.515  1.9593 -1.6379  1.3616
 1130TIP3   OH2 3353   2.373   2.262   4.512  0.3781 -0.1088 -0.2439
 1130TIP3    H1 3354   2.315   2.303   4.577  1.0578  1.0303 -0.3288
 1130TIP3    H2 3355   2.347   2.170   4.512 -1.7827  0.4361 -0.6492
 1131TIP3   OH2 3356   0.888   4.436   3.312  0.3979 -0.1980  0.0668
 1131TIP3    H1 3357   0.962   4.496   3.300 -1.5305  1.8155 -3.0897
 1131TIP3    H2 3358   0.923   4.350   3.290  1.8277  0.7375 -1.5718
 1132TIP3   OH2 3359   7.085   3.042   5.323 -0.0969 -0.5679  0.5570
 1132TIP3    H1 3360   7.005   3.092   5.334 -0.7401 -1.8835  2.3576
 1132TIP3    H2 3361   7.134   3.055   5.404  1.5087  0.1151 -0.4514
 1133TIP3   OH2 3362   6.375   4.803   0.070 -0.2945 -0.4602 -0.2039
 1133TIP3    H1 3363   6.302   4.742   0.081  0.0156 -0.7666  0.1515
 1133TIP3    H2 3364   6.453   4.749   0.076  0.0039  0.0690  0.7880
 1134TIP3   OH2 3365   1.730   1.028   0.773  0.1977 -0.1297  0.3295
 1134TIP3    H1 3366   1.807   1.081   0.795  0.2776 -0.0735 -0.0832
 1134TIP3    H2 3367   1.682   1.020   0.856  0.8918 -0.5653  0.7042
 1135TIP3   OH2 3368   1.840   6.281   0.707  0.4716 -0.2188  0.4429
 1135TIP3    H1 3369   1.887   6.342   0.650  0.7946  0.1262  1.0728
 1135TIP3    H2 3370   1.860   6.195   0.670  0.8348 -0.0101  0.1424
 1136TIP3   OH2 3371   1.063   3.460   5.214 -0.3872 -0.3848 -0.5912
 1136TIP3    H1 3372   1.039   3.410   5.291 -0.2425 -0.9311 -0.8998
 1136TIP3    H2 3373   1.056   3.552   5.242  1.6430 -0.5511  0.6952
 1137TIP3   OH2 3374   5.582   6.094   4.750  0.8168  0.1687 -0.0732
 1137TIP3    H1 3375   5.584   6.162   4.683 -1.4259  1.6572  1.2436
 1137TIP3    H2 3376   5.672   6.062   4.754  1.5234  1.6589 -2.1169
 1138TIP3   OH2 3377   4.781   4.342   1.611 -0.1111  0.3526  0.0474
 1138TIP3    H1 3378   4.770   4.433   1.639 -2.5175 -0.0400  0.5093
 1138TIP3    H2 3379   4.770   4.346   1.516  1.4584  0.7301 -0.1547
 1139TIP3   OH2 3380   5.679   6.728   3.996 -0.7111 -0.0897 -0.0860
 1139TIP3    H1 3381   5.705   6.819   3.981 -2.7848  0.2259 -2.2542
 1139TIP3    H2 3382   5.675   6.720   4.092 -2.0310  2.6095  0.1782
 1140TIP3   OH2 3383   4.225   5.517   4.599 -0.3824  0.4398 -0.6230
 1140TIP3    H1 3384   4.317   5.492   4.598 -0.6529 -0.5832 -1.3613
 1140TIP3    H2 3385   4.212   5.558   4.684  0.6044 -0.0096 -0.2479
 1141TIP3   OH2 3386   5.715   3.582   3.101  0.2113  0.1444  0.4837
 1141TIP3    H1 3387   5.797   3.558   3.058 -0.2571  1.8085 -1.4841
 1141TIP3    H2 3388   5.662   3.622   3.032 -1.4855  0.9468  2.1462
 1142TIP3   OH2 3389   4.644   2.708   3.677 -0.8683 -0.2712 -0.4127
 1142TIP3    H1 3390   4.715   2.750   3.628  0.4379 -0.9728  0.8204
 1142TIP3    H2 3391   4.679   2.696   3.765 -2.6066 -0.4477  0.2948
 1143TIP3   OH2 3392   3.710   6.250   2.030 -0.1257 -1.0529 -0.1693
 1143TIP3    H1 3393   3.751   6.164   2.024 -1.5792 -1.7595 -0.5814
 1143TIP3    H2 3394   3.712   6.284   1.941  2.2555  0.2690  0.3293
 1144TIP3   OH2 3395   5.997   1.777   2.587  0.5318 -0.1780 -0.2553
 1144TIP3    H1 3396   5.990   1.686   2.617  2.7405  0.0485  1.1811
 1144TIP3    H2 3397   5.953   1.828   2.654  1.5754 -0.0188  0.3319
 1145TIP3   OH2 3398   4.800   1.324   4.707 -0.2116  0.0489 -0.2949
 1145TIP3    H1 3399   4.812   1.238   4.747 -2.5996  0.1939  0.9033
 1145TIP3    H2 3400   4.751   1.308   4.627  0.8409  0.1780 -0.9937
 1146TIP3   OH2 3401   0.410   1.212   5.810  0.4176  0.0593  0.5159
 1146TIP3    H1 3402   0.318   1.232   5.827  0.2711 -1.6952  2.0335
 1146TIP3    H2 3403   0.427   1.250   5.723 -1.6264  0.6667  0.3349
 1147TIP3   OH2 3404   2.830   0.121   0.483  0.4727  0.0463 -0.0329
 1147TIP3    H1 3405   2.805   0.032   0.459 -3.6364  0.9111  0.2213
 1147TIP3    H2 3406   2.838   0.119   0.579  2.1595 -0.3417 -0.1523
 1148TIP3   OH2 3407   2.698   1.119   3.518  0.2372 -0.2730 -0.0044
 1148TIP3    H1 3408   2.621   1.090   3.470  0.5651  2.0588 -2.1376
 1148TIP3    H2 3409   2.729   1.040   3.563 -3.5421 -1.2142  1.3289
 1149TIP3   OH2 3410   0.433   3.377   3.599 -0.6587 -0.6145 -0.3290
 1149TIP3    H1 3411   0.513   3.403   3.646 -0.3131 -2.4243  0.1753
 1149TIP3    H2 3412   0.362   3.418   3.649 -0.2348 -1.7245  1.2982
 1150TIP3   OH2 3413   4.534   5.896   2.442 -0.1122 -0.0022  0.2244
 1150TIP3    H1 3414   4.531   5.989   2.464  1.9057 -0.0177  0.7942
 1150TIP3    H2 3415   4.510   5.893   2.349  0.7470  1.2371 -0.0723
 1151TIP3   OH2 3416   2.283   1.206   1.648 -0.0185  0.3296  0.4769
 1151TIP3    H1 3417   2.328   1.281   1.610 -0.6032  0.6538  0.4183
 1151TIP3    H2 3418   2.330   1.188   1.730 -0.2001  1.0941  0.7584
 1152TIP3   OH2 3419   6.399   5.341   5.818  0.0087 -0.3789 -0.0529
 1152TIP3    H1 3420   6.449   5.260   5.813 -1.7152 -1.5697  0.9843
 1152TIP3    H2 3421   6.457   5.407   5.781  1.2840 -2.1578 -1.4177
 1153TIP3   OH2 3422   1.429   1.614   4.232  0.2719  0.4471  0.0793
 1153TIP3    H1 3423   1.427   1.545   4.298  0.6225 -1.0925 -1.4226
 1153TIP3    H2 3424   1.345   1.608   4.188  0.7814  0.0880 -0.8853
 1154TIP3   OH2 3425   6.335   3.141   3.351 -0.2321  0.3894 -0.2183
 1154TIP3    H1 3426   6.303   3.141   3.440  0.2699 -1.4239  0.0023
 1154TIP3    H2 3427   6.427   3.114   3.358 -0.1620  0.2864 -1.2738
 1155TIP3   OH2 3428   5.712   1.170   1.898 -0.4391  0.0266  0.2031
 1155TIP3    H1 3429   5.708   1.244   1.837 -1.0399  0.8281  1.1677
 1155TIP3    H2 3430   5.788   1.188   1.953 -1.8962  1.2201  1.9537
 1156TIP3   OH2 3431   4.969   5.830   3.458 -0.1477  0.2020  0.1591
 1156TIP3    H1 3432   5.017   5.888   3.518 -0.2238 -0.1328  0.5529
 1156TIP3    H2 3433   5.026   5.822   3.382  0.4046 -0.1393  0.5948
 1157TIP3   OH2 3434   5.071   5.141   4.473 -0.1368 -0.1950  0.6108
 1157TIP3    H1 3435   5.028   5.068   4.428 -1.3250  0.3158  0.8551
 1157TIP3    H2 3436   5.138   5.100   4.527 -1.4279 -1.2482  1.4937
 1158TIP3   OH2 3437   5.005   4.932   3.987  0.0632  0.6353 -0.1046
 1158TIP3    H1 3438   5.014   4.856   4.045  0.5376  0.0176 -0.9757
 1158TIP3    H2 3439   5.081   4.928   3.929 -1.7467 -0.3080 -2.5749
 1159TIP3   OH2 3440   3.871   5.362   4.891  0.0180  0.5559  0.6154
 1159TIP3    H1 3441   3.955   5.332   4.926 -0.2552 -0.1982  0.6505
 1159TIP3    H2 3442   3.805   5.314   4.941 -0.3896 -0.0449 -0.4577
 1160TIP3   OH2 3443   6.031   3.759   2.746 -0.0236  0.0587 -0.0266
 1160TIP3    H1 3444   6.125   3.777   2.752  0.4302 -1.4487 -1.7109
 1160TIP3    H2 3445   6.019   3.725   2.657 -1.8856 -1.3307  0.6982
 1161TIP3   OH2 3446   1.540   5.800   1.691  0.4471 -0.0641 -0.0771
 1161TIP3    H1 3447   1.464   5.759   1.650 -0.1572  1.1532 -0.2059
 1161TIP3    H2 3448   1.602   5.813   1.619  0.8654 -1.2115  0.0575
 1162TIP3   OH2 3449   6.838   0.329   5.697 -0.4348 -0.2897 -0.1370
 1162TIP3    H1 3450   6.901   0.393   5.730 -0.5209 -1.3319  2.2490
 1162TIP3    H2 3451   6.888   0.247   5.692 -0.8580 -0.5060 -1.1570
 1163TIP3   OH2 3452   3.712   5.645   3.964 -0.0406  0.1488  0.1610
 1163TIP3    H1 3453   3.655   5.569   3.976 -1.0620  1.0815  1.5696
 1163TIP3    H2 3454   3.733   5.674   4.053  3.0100 -0.3705 -0.3027
 1164TIP3   OH2 3455   2.018   1.244   1.559 -0.1907 -0.5954 -0.2805
 1164TIP3    H1 3456   2.087   1.254   1.624 -0.1584  0.0454 -0.4031
 1164TIP3    H2 3457   2.016   1.329   1.514 -0.6805 -0.7991 -0.6452
 1165TIP3   OH2 3458   6.998   4.738   3.736  0.1593  0.0553  0.3967
 1165TIP3    H1 3459   6.990   4.709   3.645 -0.7497  1.0368  0.1356
 1165TIP3    H2 3460   6.913   4.777   3.756  0.0154 -0.9912  1.9892
 1166TIP3   OH2 3461   4.600   6.069   3.428 -0.4308 -0.2672 -0.0570
 1166TIP3    H1 3462   4.662   6.138   3.406 -0.0032 -0.8943 -0.8458
 1166TIP3    H2 3463   4.640   5.988   3.394 -0.2280 -1.1396  2.0773
 1167TIP3   OH2 3464   2.902   0.482   0.421 -0.3296 -0.1150 -0.3341
 1167TIP3    H1 3465   2.840   0.428   0.470 -0.5456  0.6802  0.2996
 1167TIP3    H2 3466   2.865   0.485   0.332  0.7038 -2.5558 -0.9162
 1168TIP3   OH2 3467   2.211   0.813   5.046  0.3835  0.1186 -0.5425
 1168TIP3    H1 3468   2.203   0.819   4.951 -0.8137  0.2994 -0.4505
 1168TIP3    H2 3469   2.219   0.719   5.063 -1.5255 -0.1331 -0.7253
 1169TIP3   OH2 3470   6.544   1.923   4.971 -0.0128  0.4494 -0.1607
 1169TIP3    H1 3471   6.533   1.828   4.966  0.0330  0.4172  0.3492
 1169TIP3    H2 3472   6.466   1.958   4.927 -1.2933  0.1903  1.7541
 1170TIP3   OH2 3473   5.908   4.617   2.719 -0.6372 -0.4121 -0.4776
 1170TIP3    H1 3474   5.913   4.609   2.814 -0.1212 -1.9120 -0.6075
 1170TIP3    H2 3475   5.814   4.614   2.700 -0.8759  1.7356  0.0783
 1171TIP3   OH2 3476   6.367   2.064   1.152 -0.4819 -0.2419 -0.0468
 1171TIP3    H1 3477   6.291   2.009   1.131 -1.0402  0.9594 -1.3289
 1171TIP3    H2 3478   6.428   2.051   1.080  0.9959 -1.9075  1.4257
 1172TIP3   OH2 3479   1.000   2.030   5.089 -0.2318 -0.4136 -0.6696
 1172TIP3    H1 3480   0.931   2.074   5.040 -0.5277  1.0440  0.9490
 1172TIP3    H2 3481   1.079   2.041   5.035 -1.1741 -2.0650 -2.5142
 1173TIP3   OH2 3482   3.776   1.307   5.713  0.2011  0.0584 -0.6739
 1173TIP3    H1 3483   3.831   1.240   5.754  1.2652  0.5850 -1.1893
 1173TIP3    H2 3484   3.700   1.315   5.771  1.2092  0.1210  0.6987
 1174TIP3   OH2 3485   4.527   4.259   4.755  0.4708  0.8064 -0.5934
 1174TIP3    H1 3486   4.483   4.217   4.681  3.0694 -0.2385 -1.6389
 1174TIP3    H2 3487   4.485   4.345   4.761 -2.2150 -0.3756 -0.9679
 1175TIP3   OH2 3488   0.806   5.993   1.114  0.6255 -0.1314  0.1711
 1175TIP3    H1 3489   0.724   5.949   1.089  0.2151  1.3274 -1.2569
 1175TIP3    H2 3490   0.873   5.925   1.104 -0.4507 -1.6229  2.2565
 1176TIP3   OH2 3491   6.943   1.358   4.486  0.1466 -0.1123 -0.0056
 1176TIP3    H1 3492   7.022   1.396   4.526  0.0042  0.2362 -0.0463
 1176TIP3    H2 3493   6.957   1.370   4.392  0.3072 -0.5810 -0.0447
 1177TIP3   OH2 3494   2.517   2.085   0.302  0.1882 -0.3749 -0.3753
 1177TIP3    H1 3495   2.427   2.068   0.330  0.5745 -1.6809  0.1390
 1177TIP3    H2 3496   2.571   2.048   0.371  1.1427  0.7803 -0.4644
 1178TIP3   OH2 3497   1.863   3.436   4.881 -0.3100  0.2070  0.1227
 1178TIP3    H1 3498   1.887   3.528   4.889 -0.5008  0.4717 -1.8984
 1178TIP3    H2 3499   1.846   3.408   4.971 -2.3967  2.7264  0.6107
 1179TIP3   OH2 3500   6.597   0.211   3.155 -0.1427  0.0686  0.4081
 1179TIP3    H1 3501   6.650   0.269   3.101  0.1884  0.0385  0.7007
 1179TIP3    H2 3502   6.622   0.232   3.245  1.3270 -1.7855  0.4830
 1180TIP3   OH2 3503   2.975   4.869   5.390  0.2395  0.1025 -0.1439
 1180TIP3    H1 3504   2.895   4.893   5.342  0.3027 -0.4585 -0.5358
 1180TIP3    H2 3505   2.988   4.777   5.370  0.8871  0.1448  0.0738
 1181TIP3   OH2 3506   2.409   3.448   5.543  0.6992  0.0677 -0.1773
 1181TIP3    H1 3507   2.433   3.438   5.635  1.8819  0.4340 -0.4290
 1181TIP3    H2 3508   2.409   3.358   5.509 -1.1585 -0.2271  0.4825
 1182TIP3   OH2 3509   2.722   4.463   0.792 -0.3105 -0.7971  0.8947
 1182TIP3    H1 3510   2.709   4.368   0.785  0.7854 -0.9627  0.9924
 1182TIP3    H2 3511   2.674   4.488   0.872 -0.9419 -1.1911  0.6504
 1183TIP3   OH2 3512   2.396   6.000   0.062  0.2200 -0.2765 -0.0634
 1183TIP3    H1 3513   2.376   6.038   0.147 -0.9607  1.3208 -1.0006
 1183TIP3    H2 3514   2.491   6.009   0.054  0.2661  0.1004  0.8389
 1184TIP3   OH2 3515   2.249   1.372   3.460  0.5411 -0.1702  0.2036
 1184TIP3    H1 3516   2.247   1.467   3.456  3.8378 -0.0321 -2.6246
 1184TIP3    H2 3517   2.160   1.344   3.438  0.1827  2.2648 -1.7855
 1185TIP3   OH2 3518   4.697   3.852   4.650 -0.0375 -0.6420 -0.0155
 1185TIP3    H1 3519   4.736   3.855   4.737 -0.4398 -0.6924  0.1719
 1185TIP3    H2 3520   4.608   3.819   4.665 -0.5054  0.4358 -0.2969
 1186TIP3   OH2 3521   2.983   4.224   1.210 -0.8647  0.1224  0.0542
 1186TIP3    H1 3522   3.047   4.265   1.269 -1.7714 -0.4461  1.4939
 1186TIP3    H2 3523   2.998   4.130   1.222 -1.6107 -0.0058  0.0172
 1187TIP3   OH2 3524   3.191   3.552   5.275  0.0062 -0.4142 -0.0028
 1187TIP3    H1 3525   3.125   3.615   5.245 -0.4166 -1.5227 -1.4853
 1187TIP3    H2 3526   3.141   3.473   5.294  0.5333 -0.3641  1.8501
 1188TIP3   OH2 3527   4.062   6.600   1.951  0.1478  0.1516  0.6786
 1188TIP3    H1 3528   4.059   6.661   2.025 -0.8578 -0.2002  0.9383
 1188TIP3    H2 3529   4.136   6.542   1.971  1.1561  1.2848  0.4029
 1189TIP3   OH2 3530   4.697   4.778   4.627  0.2744 -0.6251  0.2595
 1189TIP3    H1 3531   4.784   4.786   4.665 -0.2550  0.3336  1.3642
 1189TIP3    H2 3532   4.638   4.801   4.699 -0.7963  0.6956 -0.9835
 1190TIP3   OH2 3533   6.532   2.992   1.445 -0.2971 -0.4251  0.2778
 1190TIP3    H1 3534   6.607   3.052   1.450 -0.2685 -0.5501  3.0189
 1190TIP3    H2 3535   6.456   3.049   1.439 -0.0998 -0.2594 -0.9102
 1191TIP3   OH2 3536   4.049   4.291   3.431 -0.4453  0.3821  0.8130
 1191TIP3    H1 3537   4.012   4.342   3.359 -0.9576  1.1987  1.6333
 1191TIP3    H2 3538   4.143   4.291   3.415 -0.6573 -0.8532 -0.7500
 1192TIP3   OH2 3539   6.387   4.762   1.057 -0.4110 -0.4184 -1.0218
 1192TIP3    H1 3540   6.402   4.856   1.047 -0.2359 -0.4326 -0.8875
 1192TIP3    H2 3541   6.471   4.722   1.036  0.3159 -0.4022  1.5089
 1193TIP3   OH2 3542   4.684   0.953   1.592  0.7624 -0.4745  0.4270
 1193TIP3    H1 3543   4.592   0.972   1.609  0.7776  0.2935 -0.2568
 1193TIP3    H2 3544   4.729   1.034   1.615  1.1527 -0.5234 -0.1594
 1194TIP3   OH2 3545   6.842   5.679   4.480 -0.4200 -0.1686  0.5976
 1194TIP3    H1 3546   6.842   5.749   4.545 -1.2473 -2.0680  2.7599
 1194TIP3    H2 3547   6.817   5.722   4.398 -2.8209  1.7590  2.2073
 1195TIP3   OH2 3548   5.088   0.743   2.581  0.0784 -0.2965 -0.2152
 1195TIP3    H1 3549   5.068   0.709   2.494  0.3088  2.6779 -1.5637
 1195TIP3    H2 3550   5.007   0.787   2.609  0.1018 -0.9535  0.9747
 1196TIP3   OH2 3551   3.963   0.579   0.722 -0.3248 -0.3599 -0.5557
 1196TIP3    H1 3552   3.977   0.569   0.628 -1.7033 -0.4238 -0.7839
 1196TIP3    H2 3553   4.049   0.568   0.761  0.4796  0.7958 -1.9017
 1197TIP3   OH2 3554   2.729   0.592   0.180 -0.3471  0.1117 -0.0994
 1197TIP3    H1 3555   2.786   0.665   0.156  0.2125  0.5212  2.1975
 1197TIP3    H2 3556   2.723   0.538   0.101  0.6012  1.7407 -1.3415
 1198TIP3   OH2 3557   0.531   4.882   5.226  0.3022  0.2835 -0.2859
 1198TIP3    H1 3558   0.493   4.866   5.140 -1.2592 -0.2829  0.4717
 1198TIP3    H2 3559   0.562   4.796   5.255 -0.1753  0.2542  0.1595
 1199TIP3   OH2 3560   5.837   0.652   3.166 -0.4066 -0.4433  0.0585
 1199TIP3    H1 3561   5.847   0.612   3.252  2.1049  0.7538  0.4077
 1199TIP3    H2 3562   5.813   0.742   3.184  0.1448 -0.1812 -0.4957
 1200TIP3   OH2 3563   5.557   1.537   2.283 -0.9153  0.0437  0.2336
 1200TIP3    H1 3564   5.565   1.521   2.189  1.5297 -0.6465  0.4886
 1200TIP3    H2 3565   5.636   1.585   2.306 -2.4325  2.0446  1.6446
 1201TIP3   OH2 3566   6.064   5.027   0.181  0.1192 -0.1294  0.9833
 1201TIP3    H1 3567   6.081   4.946   0.230  2.7024 -0.7503 -0.7541
 1201TIP3    H2 3568   6.120   5.022   0.104 -0.7356  2.6795  0.0223
 1202TIP3   OH2 3569   3.993   1.963   5.108 -0.4263  0.6823  0.0979
 1202TIP3    H1 3570   3.980   1.902   5.180  1.5389  0.2677  0.1688
 1202TIP3    H2 3571   4.051   2.031   5.144 -0.7057  1.3338 -0.6471
 1203TIP3   OH2 3572   2.808   3.939   3.569 -0.0029  0.1654  0.1305
 1203TIP3    H1 3573   2.787   4.031   3.552 -0.2710  0.4446  1.7939
 1203TIP3    H2 3574   2.739   3.909   3.628 -0.3711 -1.3617 -1.0210
 1204TIP3   OH2 3575   3.950   5.841   4.594  0.6458 -0.3064 -0.3511
 1204TIP3    H1 3576   3.986   5.839   4.505 -0.4070  0.0682 -0.8072
 1204TIP3    H2 3577   3.949   5.749   4.621 -0.3818 -0.6061 -1.3157
 1205TIP3   OH2 3578   5.123   5.464   4.113  0.0374 -0.1789 -0.3749
 1205TIP3    H1 3579   5.158   5.375   4.103  1.1645  0.4360 -2.4282
 1205TIP3    H2 3580   5.029   5.455   4.102 -0.1768 -1.4112  1.8892
 1206TIP3   OH2 3581   4.860   1.973   3.097  0.5566 -0.0419 -0.4127
 1206TIP3    H1 3582   4.936   1.921   3.070  0.0501 -0.8999 -0.2465
 1206TIP3    H2 3583   4.821   2.003   3.015  1.0104  0.3084 -0.5018
 1207TIP3   OH2 3584   1.998   5.471   4.817  0.3668  0.5897 -0.1761
 1207TIP3    H1 3585   1.958   5.399   4.769 -1.2847  0.0210  1.8947
 1207TIP3    H2 3586   1.931   5.538   4.822  0.5807  0.7430  1.0455
 1208TIP3   OH2 3587   0.682   2.563   2.347  0.0062 -0.0959 -0.2909
 1208TIP3    H1 3588   0.647   2.487   2.301  0.4400  0.7926 -2.2263
 1208TIP3    H2 3589   0.759   2.530   2.392 -0.3944 -1.0087 -0.2503
 1209TIP3   OH2 3590   3.483   2.132   0.599  0.7048 -0.0287 -0.0151
 1209TIP3    H1 3591   3.438   2.128   0.684  0.0852  0.8780 -0.2895
 1209TIP3    H2 3592   3.571   2.163   0.620  1.4976 -2.4668  0.6101
 1210TIP3   OH2 3593   3.888   2.588   1.932 -0.3077  0.4279  0.4005
 1210TIP3    H1 3594   3.941   2.539   1.995 -0.7985 -0.6630  0.0014
 1210TIP3    H2 3595   3.841   2.652   1.985 -0.4879 -0.2776  1.1175
 1211TIP3   OH2 3596   4.173   3.362   1.252 -0.5294 -0.4896  0.2745
 1211TIP3    H1 3597   4.180   3.454   1.228  1.8061 -1.0525 -1.6232
 1211TIP3    H2 3598   4.228   3.353   1.330  1.5662 -0.6938 -1.1490
 1212TIP3   OH2 3599   6.392   5.475   0.711  0.7162 -0.1913  0.7321
 1212TIP3    H1 3600   6.437   5.497   0.630  0.4829  1.1353  0.9297
 1212TIP3    H2 3601   6.460   5.482   0.778  0.0144  3.5055  1.2727
 1213TIP3   OH2 3602   3.857   3.111   4.733  0.2542 -0.7064  0.3680
 1213TIP3    H1 3603   3.891   3.189   4.777 -0.9988 -0.1113  0.3384
 1213TIP3    H2 3604   3.932   3.076   4.685  0.9462  0.2420  0.7223
 1214TIP3   OH2 3605   3.862   6.183   5.187 -0.5333 -0.2768 -0.1972
 1214TIP3    H1 3606   3.931   6.126   5.154 -0.6194 -0.3355 -0.2763
 1214TIP3    H2 3607   3.781   6.143   5.156 -0.6989 -1.0447  1.1570
 1215TIP3   OH2 3608   5.014   5.793   1.033 -0.5228  0.0146  0.1042
 1215TIP3    H1 3609   4.982   5.707   1.005  0.9824  0.1044 -2.0878
 1215TIP3    H2 3610   5.106   5.779   1.052 -0.1321  1.2168 -0.8085
 1216TIP3   OH2 3611   5.030   2.480   1.204 -0.0320 -0.2552 -0.5430
 1216TIP3    H1 3612   5.094   2.493   1.274 -1.0619 -0.7430  0.4950
 1216TIP3    H2 3613   4.963   2.546   1.220 -0.4287 -0.5654 -0.9100
 1217TIP3   OH2 3614   5.596   3.115   1.436 -0.4686  0.0274  0.4875
 1217TIP3    H1 3615   5.591   3.204   1.471 -0.9652 -0.5887  2.0664
 1217TIP3    H2 3616   5.630   3.126   1.347  0.7805  1.6773  1.1184
 1218TIP3   OH2 3617   4.222   6.097   4.998  0.2025 -0.0884 -0.0194
 1218TIP3    H1 3618   4.152   6.065   5.054  1.9053 -0.5247  1.9990
 1218TIP3    H2 3619   4.186   6.093   4.909 -2.1527 -0.6286  0.8889
 1219TIP3   OH2 3620   6.229   0.925   5.745 -0.1583  0.4822 -0.1961
 1219TIP3    H1 3621   6.274   0.896   5.665 -0.9368 -0.2317 -0.3853
 1219TIP3    H2 3622   6.296   0.974   5.793  0.6463 -0.0337 -0.7579
 1220TIP3   OH2 3623   3.897   3.974   1.421 -0.3203 -0.5268  0.3739
 1220TIP3    H1 3624   3.850   4.057   1.436 -1.7980 -1.4249  0.9461
 1220TIP3    H2 3625   3.870   3.947   1.333 -0.5090 -0.8101  0.5175
 1221TIP3   OH2 3626   2.338   1.754   2.747  0.3855 -0.1476  0.2006
 1221TIP3    H1 3627   2.341   1.843   2.711 -0.1799 -0.6684 -1.1682
 1221TIP3    H2 3628   2.421   1.714   2.722  1.2944  0.4141  2.0694
 1222TIP3   OH2 3629   7.055   3.850   3.790  0.1472  0.4326  0.4334
 1222TIP3    H1 3630   6.983   3.898   3.749  0.6487 -0.1286 -1.1508
 1222TIP3    H2 3631   7.039   3.758   3.769  1.5776  0.3449 -0.3887
 1223TIP3   OH2 3632   2.626   2.883   0.053 -0.0125  0.6441  0.4594
 1223TIP3    H1 3633   2.644   2.976   0.049 -1.2451  0.9389  1.2833
 1223TIP3    H2 3634   2.564   2.873   0.125  0.5807 -0.8940  0.7924
 1224TIP3   OH2 3635   1.438   6.704   4.296 -0.9793  0.1646  0.3783
 1224TIP3    H1 3636   1.426   6.781   4.351  0.1099  0.1246  0.6949
 1224TIP3    H2 3637   1.400   6.727   4.212 -1.2211  0.8181  0.6641
 1225TIP3   OH2 3638   3.874   5.132   3.787 -0.3834  0.3825  0.5304
 1225TIP3    H1 3639   3.827   5.143   3.704  2.0995  1.1191 -0.8732
 1225TIP3    H2 3640   3.846   5.046   3.819 -2.3395  0.6141 -0.3859
 1226TIP3   OH2 3641   3.124   4.895   5.776  0.1748 -0.4664 -0.0321
 1226TIP3    H1 3642   3.196   4.868   5.834  0.3727  0.2169  0.0456
 1226TIP3    H2 3643   3.147   4.858   5.691  1.4617  1.0594 -0.4034
 1227TIP3   OH2 3644   2.341   2.906   5.510  0.1366 -0.2770 -0.7741
 1227TIP3    H1 3645   2.411   2.874   5.567  0.5433  0.9646 -0.5297
 1227TIP3    H2 3646   2.309   2.829   5.465  1.3294 -0.9502 -0.5053
 1228TIP3   OH2 3647   3.459   6.265   2.154 -0.6688 -0.4235 -0.3283
 1228TIP3    H1 3648   3.553   6.253   2.144 -0.4600  0.9392 -0.1419
 1228TIP3    H2 3649   3.425   6.176   2.169  0.9723 -0.6600  2.9953
 1229TIP3   OH2 3650   5.461   2.198   1.241  0.5037 -0.1232 -0.0530
 1229TIP3    H1 3651   5.495   2.146   1.314  1.6961 -0.2873 -0.6964
 1229TIP3    H2 3652   5.414   2.134   1.187  1.2072 -0.3849 -0.3771
 1230TIP3   OH2 3653   1.981   0.916   0.967  0.0701  0.0618 -0.1412
 1230TIP3    H1 3654   1.973   1.008   0.941 -1.6641 -0.4127 -1.4809
 1230TIP3    H2 3655   2.075   0.899   0.966  0.3678  1.5464 -0.8522
 1231TIP3   OH2 3656   0.921   1.714   2.930 -0.2148 -0.2503  0.3589
 1231TIP3    H1 3657   0.950   1.778   2.996  0.3063 -0.9705  0.8445
 1231TIP3    H2 3658   0.897   1.636   2.980  1.1182 -1.1561 -0.3428
 1232TIP3   OH2 3659   1.745   1.023   5.888  0.7019 -0.2884  0.4008
 1232TIP3    H1 3660   1.738   0.930   5.870 -0.5943 -0.4483  1.5997
 1232TIP3    H2 3661   1.742   1.065   5.802 -1.2648 -1.2287 -0.0302
 1233TIP3   OH2 3662   2.245   2.097   0.359 -0.3406 -0.1818  0.4132
 1233TIP3    H1 3663   2.157   2.064   0.345  0.4323 -1.8763 -0.8353
 1233TIP3    H2 3664   2.265   2.074   0.450 -1.4806  1.0139  0.9808
 1234TIP3   OH2 3665   0.512   1.302   0.231  0.2203 -0.1034 -0.5802
 1234TIP3    H1 3666   0.471   1.367   0.288 -0.4791 -0.0586 -1.1157
 1234TIP3    H2 3667   0.513   1.222   0.283 -0.3833 -0.0567 -0.4903
 1235TIP3   OH2 3668   7.057   5.037   4.342  0.0750 -0.2417  0.1864
 1235TIP3    H1 3669   7.099   5.123   4.349  0.1695 -0.2369 -0.3987
 1235TIP3    H2 3670   6.978   5.054   4.291  0.1696 -0.5278 -0.0553
 1236TIP3   OH2 3671   1.533   5.919   3.678 -0.1703 -0.3380  0.2653
 1236TIP3    H1 3672   1.550   5.959   3.763  0.2279 -0.4587  0.2432
 1236TIP3    H2 3673   1.510   5.993   3.621  1.2301 -0.0469  0.0524
 1237TIP3   OH2 3674   1.985   4.672   4.060 -0.0985  0.0026 -0.7371
 1237TIP3    H1 3675   1.935   4.754   4.053  1.9906  1.2517 -1.8956
 1237TIP3    H2 3676   2.006   4.649   3.969  2.7577  0.4338 -0.2739
 1238TIP3   OH2 3677   5.848   6.436   1.520  0.4734 -0.0002  0.1691
 1238TIP3    H1 3678   5.917   6.468   1.579  0.1206 -1.1464  1.2378
 1238TIP3    H2 3679   5.768   6.475   1.554  0.2868 -0.5632  0.3931
 1239TIP3   OH2 3680   6.660   1.507   2.453  0.0194  0.1899 -0.2338
 1239TIP3    H1 3681   6.685   1.416   2.465 -0.4149  0.1324  0.2749
 1239TIP3    H2 3682   6.722   1.557   2.507 -1.2013  0.0150  1.4071
 1240TIP3   OH2 3683   1.054   5.711   2.839  0.4351  0.3412 -0.0767
 1240TIP3    H1 3684   0.989   5.640   2.844  0.9770 -0.3375 -1.8315
 1240TIP3    H2 3685   1.002   5.789   2.819  0.0207  0.0474 -0.1844
 1241TIP3   OH2 3686   6.492   1.461   3.259 -0.4834  0.4693  0.4599
 1241TIP3    H1 3687   6.457   1.414   3.183 -0.0047 -0.3404  0.7279
 1241TIP3    H2 3688   6.582   1.484   3.233 -0.4834  0.6129  0.5908
 1242TIP3   OH2 3689   4.635   2.907   5.520 -0.1296 -0.3022  0.6748
 1242TIP3    H1 3690   4.566   2.848   5.490  0.0984 -0.5507  0.6320
 1242TIP3    H2 3691   4.690   2.921   5.443 -0.3357  0.1840  0.6164
 1243TIP3   OH2 3692   7.096   3.871   3.275  0.0480 -0.4406 -0.7665
 1243TIP3    H1 3693   7.042   3.904   3.204 -1.3684  1.6515  1.1421
 1243TIP3    H2 3694   7.075   3.778   3.281 -0.7289 -0.3816 -2.2394
 1244TIP3   OH2 3695   2.816   3.510   0.321 -0.1067  0.6262 -0.4701
 1244TIP3    H1 3696   2.751   3.533   0.387 -0.6572 -1.4582 -0.1849
 1244TIP3    H2 3697   2.835   3.417   0.338  1.2508  0.5752 -1.9743
 1245TIP3   OH2 3698   6.691   5.674   0.283  1.0340 -0.1256 -0.3245
 1245TIP3    H1 3699   6.708   5.666   0.377 -0.0567  0.7032 -0.0445
 1245TIP3    H2 3700   6.774   5.705   0.247  1.9318 -1.8688  0.1132
 1246TIP3   OH2 3701   4.767   4.010   0.411 -0.5214 -0.2225 -0.2319
 1246TIP3    H1 3702   4.681   3.979   0.384 -1.2363  0.7659  0.8179
 1246TIP3    H2 3703   4.749   4.079   0.475  1.0458  0.4924 -0.5144
 1247TIP3   OH2 3704   5.622   5.209   3.012 -0.3917  0.1569  0.4178
 1247TIP3    H1 3705   5.536   5.178   3.039 -0.7173 -0.4033 -1.1416
 1247TIP3    H2 3706   5.675   5.129   3.004 -0.3457  0.2764 -0.6394
 1248TIP3   OH2 3707   7.097   0.198   3.647 -0.1443 -0.2939 -0.4378
 1248TIP3    H1 3708   7.003   0.184   3.661 -0.0544 -0.9955 -0.5316
 1248TIP3    H2 3709   7.109   0.292   3.663 -0.5876 -0.4681  1.0710
 1249TIP3   OH2 3710   0.604   6.314   2.294  0.1775  0.3927  0.0892
 1249TIP3    H1 3711   0.642   6.270   2.371 -2.2840 -0.2032  1.0739
 1249TIP3    H2 3712   0.614   6.407   2.312  2.2489  0.3018 -0.3223
 1250TIP3   OH2 3713   3.112   1.508   2.788  0.4521  0.0127 -0.5103
 1250TIP3    H1 3714   3.142   1.587   2.834  1.2000  1.6882 -3.5975
 1250TIP3    H2 3715   3.189   1.479   2.738 -0.6860 -0.8509 -1.8297
 1251TIP3   OH2 3716   5.989   1.848   3.712  0.8387 -0.2244  0.4249
 1251TIP3    H1 3717   6.039   1.818   3.636  0.4395 -2.7518  1.0677
 1251TIP3    H2 3718   5.917   1.898   3.674  2.4112  1.3567 -0.6352
 1252TIP3   OH2 3719   3.984   0.854   0.232  0.1574 -0.1614 -0.7877
 1252TIP3    H1 3720   3.972   0.827   0.141 -0.9376 -1.8583 -0.1975
 1252TIP3    H2 3721   3.914   0.918   0.248 -1.4187 -1.8862 -0.4322
 1253TIP3   OH2 3722   6.376   6.438   1.592  0.0421 -0.5925  0.1096
 1253TIP3    H1 3723   6.376   6.449   1.687  0.1012 -1.3385  0.2052
 1253TIP3    H2 3724   6.332   6.516   1.559 -2.8012 -1.7316  0.9383
 1254TIP3   OH2 3725   4.975   2.021   5.372  0.1232 -0.4116 -0.0225
 1254TIP3    H1 3726   4.884   2.049   5.365 -0.5551 -2.4502 -0.1865
 1254TIP3    H2 3727   5.006   2.061   5.453 -0.5001  1.3356 -0.6047
 1255TIP3   OH2 3728   3.834   3.611   3.110  0.2511  0.5704 -0.1612
 1255TIP3    H1 3729   3.891   3.623   3.186  1.3254  2.0070 -1.1451
 1255TIP3    H2 3730   3.749   3.645   3.138 -0.6790 -2.7917  1.7778
 1256TIP3   OH2 3731   6.398   1.432   4.720  0.1202  0.0845  0.4291
 1256TIP3    H1 3732   6.317   1.464   4.682 -0.3349 -1.6587 -0.1850
 1256TIP3    H2 3733   6.440   1.382   4.650  0.4943 -1.0861  1.4380
 1257TIP3   OH2 3734   5.015   1.795   5.590  0.0564  0.2673 -0.5262
 1257TIP3    H1 3735   5.097   1.845   5.592 -0.5029  1.1862  0.0507
 1257TIP3    H2 3736   5.006   1.767   5.499  1.3837 -0.4951 -0.4485
 1258TIP3   OH2 3737   0.918   2.077   5.387 -0.2341  0.1896  1.1510
 1258TIP3    H1 3738   0.836   2.028   5.385 -0.0100 -0.1707 -0.8392
 1258TIP3    H2 3739   0.949   2.077   5.297  1.3260  1.4154  1.6318
 1259TIP3   OH2 3740   5.155   3.025   4.246 -0.0916 -0.3203 -0.2504
 1259TIP3    H1 3741   5.114   3.090   4.189  0.0251  0.2491  0.3028
 1259TIP3    H2 3742   5.107   2.944   4.229 -1.1508  0.2266  0.0363
 1260TIP3   OH2 3743   4.999   4.592   0.464 -0.1050 -0.0033 -0.2234
 1260TIP3    H1 3744   5.044   4.637   0.535 -0.5686 -0.1130  0.1413
 1260TIP3    H2 3745   5.068   4.543   0.419  0.2585  0.4074 -0.1117
 1261TIP3   OH2 3746   1.396   0.816   3.173  0.4160 -0.5004 -0.0065
 1261TIP3    H1 3747   1.356   0.830   3.087  0.8336 -0.4752 -0.1979
 1261TIP3    H2 3748   1.460   0.887   3.181  1.8766 -1.7077 -0.5769
 1262TIP3   OH2 3749   6.788   0.765   1.529 -0.2565 -0.3607  0.2461
 1262TIP3    H1 3750   6.711   0.743   1.582  1.2066 -1.1407  2.1415
 1262TIP3    H2 3751   6.845   0.813   1.589  1.1217 -0.5768 -0.8507
 1263TIP3   OH2 3752   6.178   4.565   2.078  0.4041 -0.2004  0.5561
 1263TIP3    H1 3753   6.167   4.644   2.025  1.1883  0.6632  1.6361
 1263TIP3    H2 3754   6.260   4.527   2.048  0.3316 -0.2714  0.4487
 1264TIP3   OH2 3755   2.435   3.875   1.993  0.3686  0.1804 -0.1211
 1264TIP3    H1 3756   2.461   3.816   2.064 -1.2284 -0.6072 -0.1410
 1264TIP3    H2 3757   2.504   3.941   1.990  1.2644 -0.6538  1.1258
 1265TIP3   OH2 3758   1.515   6.362   3.030  0.1170 -0.0418 -0.1780
 1265TIP3    H1 3759   1.433   6.412   3.034  0.9950  1.3786  1.8324
 1265TIP3    H2 3760   1.571   6.412   2.970  1.2429  2.0111  2.3482
 1266TIP3   OH2 3761   6.800   5.534   2.891 -0.2215  0.2271  0.4422
 1266TIP3    H1 3762   6.787   5.604   2.955 -0.1835 -0.6139  1.3879
 1266TIP3    H2 3763   6.714   5.494   2.881 -0.6287  1.4249 -1.3564
 1267TIP3   OH2 3764   4.324   1.983   0.375  0.2642  0.1756  0.2906
 1267TIP3    H1 3765   4.278   2.013   0.453 -1.7792 -0.8883 -0.4184
 1267TIP3    H2 3766   4.272   1.908   0.345  1.4782  0.0396 -1.6008
 1268TIP3   OH2 3767   5.424   4.811   3.248 -0.2126 -0.1767  0.1691
 1268TIP3    H1 3768   5.400   4.898   3.216 -0.7261 -0.2340  0.3859
 1268TIP3    H2 3769   5.516   4.801   3.224  0.0792  0.7542  0.8584
 1269TIP3   OH2 3770   2.768   0.829   2.106 -0.2189 -0.0336  0.0174
 1269TIP3    H1 3771   2.781   0.892   2.035  0.5358 -0.6505 -0.4109
 1269TIP3    H2 3772   2.674   0.827   2.119 -0.2205  1.6979  0.5221
 1270TIP3   OH2 3773   2.380   0.700   1.519 -0.1277  0.3309  0.3117
 1270TIP3    H1 3774   2.362   0.790   1.492 -0.5130  0.0016 -0.5493
 1270TIP3    H2 3775   2.424   0.710   1.603 -0.2458  1.3224  0.2787
 1271TIP3   OH2 3776   5.843   3.962   4.701  0.0206 -0.2530 -0.2471
 1271TIP3    H1 3777   5.935   3.936   4.703  0.3159  0.5196 -1.9667
 1271TIP3    H2 3778   5.794   3.880   4.710  0.8769 -0.7215  0.2213
 1272TIP3   OH2 3779   2.191   5.363   2.809 -0.1817 -0.0782 -0.1222
 1272TIP3    H1 3780   2.220   5.306   2.738 -1.9389 -2.4170  0.8789
 1272TIP3    H2 3781   2.238   5.331   2.886 -0.5416  0.4151  0.3055
 1273TIP3   OH2 3782   5.025   5.135   0.505 -0.4505 -0.5148 -0.0181
 1273TIP3    H1 3783   5.031   5.083   0.586  1.7900 -0.6601 -0.2215
 1273TIP3    H2 3784   5.010   5.224   0.536 -0.4413 -0.6946  0.5270
 1274TIP3   OH2 3785   5.522   6.309   1.278  0.0451  0.2253 -0.3832
 1274TIP3    H1 3786   5.468   6.236   1.246  0.0217  0.6333 -1.3370
 1274TIP3    H2 3787   5.611   6.285   1.252 -0.0066  0.6791 -1.0126
 1275TIP3   OH2 3788   4.439   2.361   0.532 -0.7146 -0.7244 -0.6850
 1275TIP3    H1 3789   4.368   2.422   0.552  1.1493  1.3278  0.0068
 1275TIP3    H2 3790   4.481   2.345   0.616 -1.4067 -3.4175 -0.7583
 1276TIP3   OH2 3791   1.123   2.773   1.853  0.0192 -0.3107  0.1810
 1276TIP3    H1 3792   1.096   2.850   1.903 -1.7666 -0.9026  0.1917
 1276TIP3    H2 3793   1.083   2.785   1.767 -0.5240 -1.3375  0.2716
 1277TIP3   OH2 3794   2.078   5.564   1.954  0.3181 -0.1791 -0.2743
 1277TIP3    H1 3795   2.143   5.574   1.884  0.7878 -0.3708  0.1338
 1277TIP3    H2 3796   2.109   5.620   2.025 -0.1043 -0.0664 -0.1778
 1278TIP3   OH2 3797   7.050   2.736   4.030 -0.0880 -0.4958 -0.7630
 1278TIP3    H1 3798   6.960   2.754   4.054  0.3808 -0.1379  0.7941
 1278TIP3    H2 3799   7.081   2.817   3.990 -0.0895 -0.2073 -0.1789
 1279TIP3   OH2 3800   6.517   3.676   1.486 -0.2366 -0.3316  0.3855
 1279TIP3    H1 3801   6.589   3.695   1.425  0.4932  2.0279  1.8302
 1279TIP3    H2 3802   6.559   3.671   1.571 -1.8187  2.2364  1.4384
 1280TIP3   OH2 3803   6.171   1.839   0.249  0.2246  0.4567 -0.8120
 1280TIP3    H1 3804   6.091   1.840   0.303  0.6412 -0.7858 -0.1326
 1280TIP3    H2 3805   6.237   1.882   0.304  0.4160  0.0399 -0.7134
 1281TIP3   OH2 3806   6.780   5.696   2.093  0.0782  0.1656  0.5571
 1281TIP3    H1 3807   6.752   5.754   2.164 -2.2750 -1.6478  1.2340
 1281TIP3    H2 3808   6.699   5.653   2.064  1.4533 -1.4296 -1.1367
 1282TIP3   OH2 3809   5.149   1.568   2.689  0.0037  0.5580 -0.0750
 1282TIP3    H1 3810   5.104   1.574   2.606  1.2863  2.9113 -0.6924
 1282TIP3    H2 3811   5.114   1.640   2.741  2.7183  2.3056 -0.4918
 1283TIP3   OH2 3812   3.433   3.807   1.367 -0.2194 -0.2373 -0.0609
 1283TIP3    H1 3813   3.350   3.819   1.413 -0.9199  4.0342 -1.9666
 1283TIP3    H2 3814   3.418   3.730   1.312 -1.9031 -1.1394  1.5360
 1284TIP3   OH2 3815   2.544   1.940   2.229 -0.1588 -0.1064 -0.1030
 1284TIP3    H1 3816   2.576   2.000   2.297 -2.9938 -0.1738  1.4604
 1284TIP3    H2 3817   2.581   1.855   2.252 -0.7183 -0.0354  1.1535
 1285TIP3   OH2 3818   3.091   5.160   1.769 -0.4293 -0.0687  0.2693
 1285TIP3    H1 3819   3.074   5.253   1.785  1.7436  0.3777  0.3108
 1285TIP3    H2 3820   3.109   5.123   1.855  0.5365 -0.1073  0.0563
 1286TIP3   OH2 3821   0.411   3.559   1.532  1.0839  0.1739 -0.0676
 1286TIP3    H1 3822   0.381   3.507   1.607  0.7244 -1.0549 -1.0393
 1286TIP3    H2 3823   0.503   3.534   1.522  1.7752  1.9928  1.2961
 1287TIP3   OH2 3824   6.766   1.492   3.217 -0.3979  0.2607  0.0728
 1287TIP3    H1 3825   6.805   1.424   3.271 -0.3676  0.8368  0.7854
 1287TIP3    H2 3826   6.812   1.573   3.241 -1.0308  0.6921 -0.1189
 1288TIP3   OH2 3827   0.616   2.144   2.587 -0.3767 -0.4047  0.0257
 1288TIP3    H1 3828   0.639   2.180   2.673 -1.1273 -1.3277  0.6324
 1288TIP3    H2 3829   0.694   2.093   2.561 -0.3391 -0.5429  0.3989
 1289TIP3   OH2 3830   2.242   3.427   0.317  0.7672 -0.1822 -0.0379
 1289TIP3    H1 3831   2.206   3.487   0.382 -0.3885  0.2153 -1.0106
 1289TIP3    H2 3832   2.225   3.340   0.353 -1.7239 -0.0400 -0.6733
 1290TIP3   OH2 3833   0.531   5.345   5.297 -0.2084  0.2905 -0.5040
 1290TIP3    H1 3834   0.467   5.273   5.297 -0.1455  0.2261 -1.0446
 1290TIP3    H2 3835   0.478   5.424   5.288 -0.3327  0.3830  0.8195
 1291TIP3   OH2 3836   7.072   0.645   1.732 -0.4164  0.2557 -0.4801
 1291TIP3    H1 3837   7.075   0.741   1.725 -0.3792  0.3512  0.6875
 1291TIP3    H2 3838   7.126   0.615   1.659 -2.4096  1.0353 -2.4051
 1292TIP3   OH2 3839   0.006   6.738   3.378 -0.0103 -0.0959  0.3627
 1292TIP3    H1 3840   0.069   6.740   3.449  0.9300 -0.8892 -0.4259
 1292TIP3    H2 3841  -0.024   6.828   3.370  1.5854  0.4499  0.2644
 1293TIP3   OH2 3842   3.547   0.477   2.384  0.7110  0.1240  0.2073
 1293TIP3    H1 3843   3.577   0.386   2.379  0.5228  0.0499  0.3922
 1293TIP3    H2 3844   3.579   0.508   2.469 -0.4287 -0.2179  0.7922
 1294TIP3   OH2 3845   3.470   4.887   4.489 -0.0750  1.1093  0.0115
 1294TIP3    H1 3846   3.488   4.810   4.434  1.8464  2.2000 -0.9528
 1294TIP3    H2 3847   3.486   4.856   4.578 -1.2077 -0.1160 -0.1731
 1295TIP3   OH2 3848   5.593   1.122   2.124 -0.0331 -0.3630 -0.2778
 1295TIP3    H1 3849   5.639   1.043   2.152 -1.4834 -1.4884 -0.9703
 1295TIP3    H2 3850   5.643   1.152   2.048  0.8026 -0.3221  0.2701
 1296TIP3   OH2 3851   2.777   2.255   3.637 -0.6385  0.6796  0.1887
 1296TIP3    H1 3852   2.825   2.284   3.715  0.2731  1.5332 -0.6739
 1296TIP3    H2 3853   2.693   2.224   3.672  0.1440  0.0498  1.6216
 1297TIP3   OH2 3854   1.700   0.827   1.589  0.2267  0.4102  0.0258
 1297TIP3    H1 3855   1.713   0.921   1.576 -1.2137  0.4440 -1.5196
 1297TIP3    H2 3856   1.788   0.790   1.579  1.0793  1.6818  2.1471
 1298TIP3   OH2 3857   7.009   5.737   4.809  0.6407  0.3359  0.0073
 1298TIP3    H1 3858   7.038   5.819   4.849  0.3366 -0.3983  1.8544
 1298TIP3    H2 3859   6.916   5.752   4.790  0.2193  0.0178  1.6165
 1299TIP3   OH2 3860   1.060   1.020   2.316 -0.3953  0.0460 -0.5119
 1299TIP3    H1 3861   1.016   1.073   2.249 -1.6490 -0.6786 -0.2953
 1299TIP3    H2 3862   0.995   0.955   2.341  1.2717 -1.9734 -1.1629
 1300TIP3   OH2 3863   1.512   4.079   0.080 -0.0697 -0.7359  0.2479
 1300TIP3    H1 3864   1.579   4.043   0.138  0.0946 -3.6233 -1.5255
 1300TIP3    H2 3865   1.561   4.130   0.016 -0.1776  1.7140  1.9727
 1301TIP3   OH2 3866   5.875   2.690   5.562 -0.0753 -0.8038 -0.0147
 1301TIP3    H1 3867   5.925   2.727   5.636  1.0733 -0.6783 -0.8335
 1301TIP3    H2 3868   5.787   2.726   5.574  0.2547 -0.2504  0.9323
 1302TIP3   OH2 3869   0.402   5.696   1.801 -0.5414 -0.0265  0.4555
 1302TIP3    H1 3870   0.486   5.686   1.756 -0.2953 -0.6593  1.0587
 1302TIP3    H2 3871   0.380   5.789   1.789  0.2355  0.1426  0.2870
 1303TIP3   OH2 3872   3.313   0.098   3.425  0.0041 -0.3527  0.1749
 1303TIP3    H1 3873   3.407   0.114   3.433 -0.2132  0.6018  1.1635
 1303TIP3    H2 3874   3.282   0.090   3.515 -0.9548 -0.0967 -0.1152
 1304TIP3   OH2 3875   3.827   0.032   2.666 -0.1012  0.2995  0.3621
 1304TIP3    H1 3876   3.902  -0.026   2.680 -1.2214 -0.8391  2.0808
 1304TIP3    H2 3877   3.845   0.107   2.723  0.2284  0.5488 -0.0618
 1305TIP3   OH2 3878   0.534   3.017   5.407  0.0896  0.7025  0.0910
 1305TIP3    H1 3879   0.447   2.977   5.411  0.5067 -0.4589 -1.3769
 1305TIP3    H2 3880   0.549   3.034   5.314  0.9210  2.0924  0.4542
 1306TIP3   OH2 3881   5.965   4.786   5.093 -0.2123 -0.2179 -0.6152
 1306TIP3    H1 3882   5.889   4.805   5.038  0.2273  1.2736 -0.7753
 1306TIP3    H2 3883   6.039   4.821   5.044  0.1653  1.4062  0.9786
 1307TIP3   OH2 3884   7.160   2.481   5.278 -0.0202  0.1259  0.2939
 1307TIP3    H1 3885   7.151   2.554   5.216  0.9630  1.4154  1.6208
 1307TIP3    H2 3886   7.253   2.461   5.279  0.3072  1.4648  2.7914
 1308TIP3   OH2 3887   3.633   6.699   3.638  0.0154  0.0748 -0.3415
 1308TIP3    H1 3888   3.649   6.623   3.695 -0.8004  0.3568  0.2737
 1308TIP3    H2 3889   3.701   6.693   3.571  1.1465 -0.1458  0.7858
 1309TIP3   OH2 3890   6.506   4.803   0.747 -0.0087  0.1524 -0.4521
 1309TIP3    H1 3891   6.572   4.822   0.680  0.4494 -0.2894 -0.1373
 1309TIP3    H2 3892   6.557   4.775   0.823 -0.5825 -0.5472 -0.3168
 1310TIP3   OH2 3893   4.073   4.129   2.566 -0.2895 -0.0982  0.2118
 1310TIP3    H1 3894   4.029   4.206   2.530  0.0883 -0.6961 -1.6569
 1310TIP3    H2 3895   4.126   4.162   2.638 -1.1170  1.1744  0.2606
 1311TIP3   OH2 3896   1.326   5.374   0.647 -0.1943  0.1295  0.3288
 1311TIP3    H1 3897   1.376   5.314   0.592 -0.1149  0.1773  0.3474
 1311TIP3    H2 3898   1.237   5.371   0.613 -1.0152 -2.5580  2.3514
 1312TIP3   OH2 3899   6.038   0.092   1.343 -0.5185  0.3233 -0.0768
 1312TIP3    H1 3900   5.961   0.132   1.384 -1.3730 -1.8807  0.5843
 1312TIP3    H2 3901   6.106   0.159   1.350 -1.7382  1.4927  1.3761
 1313TIP3   OH2 3902   4.766   0.319   0.602  0.1351  0.8010  0.2970
 1313TIP3    H1 3903   4.812   0.317   0.686 -0.1926 -0.6898  0.4591
 1313TIP3    H2 3904   4.835   0.339   0.538  0.8697 -0.4732  0.6460
 1314TIP3   OH2 3905   5.398   4.107   3.841 -0.2741 -0.1002  0.2325
 1314TIP3    H1 3906   5.480   4.077   3.803 -0.2750  0.0133  0.1386
 1314TIP3    H2 3907   5.374   4.183   3.788 -1.8966 -1.7592 -1.5797
 1315TIP3   OH2 3908   7.144   5.141   5.405 -0.1202  0.0691 -0.1103
 1315TIP3    H1 3909   7.222   5.088   5.387 -1.0099 -0.5309 -2.4266
 1315TIP3    H2 3910   7.146   5.211   5.340 -0.9336  0.7439  0.5593
 1316TIP3   OH2 3911   0.494   6.825   0.078  1.0126 -0.2369  0.2153
 1316TIP3    H1 3912   0.541   6.756   0.125  0.3973 -0.7594  0.0716
 1316TIP3    H2 3913   0.501   6.800  -0.014  1.1450  0.1201  0.1263
 1317TIP3   OH2 3914   1.748   3.516   1.070  0.6162  0.0493  0.8410
 1317TIP3    H1 3915   1.708   3.592   1.029  2.7945  0.9935  0.3241
 1317TIP3    H2 3916   1.733   3.445   1.007  2.0500  1.0049 -0.6760
 1318TIP3   OH2 3917   0.575   4.530   4.549  0.7316  0.4414  0.0630
 1318TIP3    H1 3918   0.584   4.594   4.620 -1.9025 -0.2484  1.1374
 1318TIP3    H2 3919   0.563   4.583   4.470  0.1404  1.2834  0.7009
 1319TIP3   OH2 3920   6.425   0.577   2.996  0.2649  0.0961  0.9703
 1319TIP3    H1 3921   6.414   0.517   2.922  1.5607  1.9404 -0.8286
 1319TIP3    H2 3922   6.513   0.560   3.027  0.2293  0.2790  1.1710
 1320TIP3   OH2 3923   1.831   3.548   2.475 -0.5185 -0.4162  0.1229
 1320TIP3    H1 3924   1.773   3.586   2.409  0.9449 -0.3294 -1.1582
 1320TIP3    H2 3925   1.841   3.618   2.540 -0.1947  0.3630 -0.7334
 1321TIP3   OH2 3926   3.234   3.952   0.375  0.3422 -0.3397 -0.2371
 1321TIP3    H1 3927   3.323   3.946   0.409  0.5516  0.9205 -0.5045
 1321TIP3    H2 3928   3.187   3.878   0.415  0.9170  0.2923  1.7107
 1322TIP3   OH2 3929   3.864   3.876   1.702  0.3214  0.0700 -0.6480
 1322TIP3    H1 3930   3.778   3.883   1.659 -0.1783 -1.1564  0.0895
 1322TIP3    H2 3931   3.926   3.902   1.634 -0.6372  1.2813 -1.1061
 1323TIP3   OH2 3932   2.084   6.466   1.197  0.0704 -0.2679 -0.0492
 1323TIP3    H1 3933   2.091   6.411   1.275 -1.2832 -1.3242 -0.6349
 1323TIP3    H2 3934   2.163   6.446   1.147 -0.0740 -1.1523  0.0686
 1324TIP3   OH2 3935   1.814   2.520   5.791  0.5867  0.3267 -0.5091
 1324TIP3    H1 3936   1.829   2.428   5.770  1.5631  0.7974 -1.9374
 1324TIP3    H2 3937   1.845   2.529   5.882 -0.9321 -1.0557  0.2062
 1325TIP3   OH2 3938   0.119   4.346   1.449  0.3758 -0.8740 -0.7841
 1325TIP3    H1 3939   0.039   4.394   1.474  1.3092  0.5748 -0.4443
 1325TIP3    H2 3940   0.087   4.271   1.399 -1.1754  0.0818 -1.3119
 1326TIP3   OH2 3941   6.605   4.632   0.105 -0.2980 -0.1271 -0.0401
 1326TIP3    H1 3942   6.681   4.686   0.126  0.9627 -1.6726 -0.4792
 1326TIP3    H2 3943   6.608   4.622   0.010 -0.5958 -0.8549  0.0246
 1327TIP3   OH2 3944   3.106   6.030   1.958  0.5352  0.4954  0.4520
 1327TIP3    H1 3945   3.032   5.973   1.981  1.0993 -0.2045  0.5862
 1327TIP3    H2 3946   3.070   6.118   1.960 -0.3354  0.1515  0.3620
 1328TIP3   OH2 3947   0.634   4.012   3.821  0.1046  0.0928  0.5109
 1328TIP3    H1 3948   0.724   4.041   3.839 -0.2702  0.9249  1.1119
 1328TIP3    H2 3949   0.638   3.916   3.830  0.8466  0.1495  0.9182
 1329TIP3   OH2 3950   4.908   5.359   5.449 -0.7169  0.2583 -0.4058
 1329TIP3    H1 3951   4.847   5.362   5.523 -1.0290  2.2428 -0.6819
 1329TIP3    H2 3952   4.989   5.324   5.486 -1.1846  0.2566  0.6485
 1330TIP3   OH2 3953   4.977   2.194   3.508  0.1201  0.5187  0.8375
 1330TIP3    H1 3954   4.916   2.247   3.456  1.0829 -0.2994 -1.2231
 1330TIP3    H2 3955   4.927   2.115   3.530  0.3958 -0.1679 -0.8761
 1331TIP3   OH2 3956   1.038   2.703   4.570  0.2716  0.4486 -0.4177
 1331TIP3    H1 3957   1.016   2.640   4.639  1.0054  1.4948  0.8139
 1331TIP3    H2 3958   0.965   2.764   4.569 -1.0152 -0.9922 -2.4175
 1332TIP3   OH2 3959   6.957   3.091   1.607  0.1752  0.1407 -0.0727
 1332TIP3    H1 3960   6.888   3.025   1.612 -0.1692  0.5680  1.4162
 1332TIP3    H2 3961   7.009   3.077   1.686  3.1560 -1.5583 -2.1744
 1333TIP3   OH2 3962   6.241   2.930   1.468  0.4437 -0.2633  0.4068
 1333TIP3    H1 3963   6.223   2.848   1.422 -0.3370  0.5380 -0.7478
 1333TIP3    H2 3964   6.183   2.927   1.545  0.1857 -0.6460  0.2038
 1334TIP3   OH2 3965   1.579   4.084   0.975  0.7067 -0.3341 -0.3706
 1334TIP3    H1 3966   1.501   4.027   0.976  1.1287 -0.9212  0.1665
 1334TIP3    H2 3967   1.652   4.024   0.991  1.2711  0.2188 -0.8330
 1335TIP3   OH2 3968   2.854   0.817   0.082  0.5928 -0.1249  0.1756
 1335TIP3    H1 3969   2.881   0.906   0.102 -0.4006 -0.1063  1.6288
 1335TIP3    H2 3970   2.928   0.779   0.035  1.3353  1.2287  0.2175
 1336TIP3   OH2 3971   1.930   2.800   3.666  0.2530 -0.0551  0.2251
 1336TIP3    H1 3972   1.884   2.718   3.682  0.6277 -0.0129  1.7443
 1336TIP3    H2 3973   1.860   2.864   3.651 -0.0363 -0.6512 -1.1262
 1337TIP3   OH2 3974   6.598   6.246   2.644  0.7071  0.6133 -0.0931
 1337TIP3    H1 3975   6.677   6.198   2.619 -0.4648 -1.4441 -0.1011
 1337TIP3    H2 3976   6.527   6.200   2.600 -0.5835  1.9507  0.5078
 1338TIP3   OH2 3977   3.521   0.965   0.087  0.1541 -0.0515 -0.4653
 1338TIP3    H1 3978   3.562   1.042   0.048 -0.5545  1.3388  1.3816
 1338TIP3    H2 3979   3.577   0.945   0.162  1.6260 -2.8114 -2.1364
 1339TIP3   OH2 3980   4.077   0.316   4.938  0.0231  0.2162 -0.2643
 1339TIP3    H1 3981   4.008   0.345   4.997 -0.3007 -0.6302 -0.2024
 1339TIP3    H2 3982   4.155   0.311   4.993 -0.1194  0.1093 -0.0681
 1340TIP3   OH2 3983   4.217   5.114   5.310 -0.1763  0.3702  0.0875
 1340TIP3    H1 3984   4.283   5.097   5.244  0.2550  1.0541  0.3358
 1340TIP3    H2 3985   4.242   5.197   5.349 -0.7332  0.2473  0.7361
 1341TIP3   OH2 3986   6.306   5.836   1.941 -0.3604 -0.2333  0.0432
 1341TIP3    H1 3987   6.322   5.840   1.846  0.0905  0.2779  0.1385
 1341TIP3    H2 3988   6.251   5.759   1.952  2.5647 -2.5675 -0.2356
 1342TIP3   OH2 3989   5.241   3.739   4.987 -0.7700 -0.3975 -0.7207
 1342TIP3    H1 3990   5.266   3.827   5.015 -2.3204 -0.0400 -0.3664
 1342TIP3    H2 3991   5.272   3.733   4.897 -2.0997  1.1512 -1.3206
 1343TIP3   OH2 3992   1.591   4.577   5.296  0.7551 -0.3350 -0.0988
 1343TIP3    H1 3993   1.619   4.661   5.332 -1.1481 -0.4315  1.8278
 1343TIP3    H2 3994   1.638   4.512   5.349  0.6710 -0.4741 -0.1961
 1344TIP3   OH2 3995   1.998   1.278   3.425  0.0597 -0.0562  0.2647
 1344TIP3    H1 3996   1.907   1.306   3.415  0.0822 -0.1279 -0.1758
 1344TIP3    H2 3997   2.022   1.246   3.338  0.4816 -0.1118  0.4024
 1345TIP3   OH2 3998   3.804   6.687   1.279 -0.0086 -0.0580  0.0960
 1345TIP3    H1 3999   3.779   6.602   1.316  1.6432 -0.6419 -0.0254
 1345TIP3    H2 4000   3.733   6.746   1.305 -0.8785 -1.3243  0.7363
 1346TIP3   OH2 4001   1.609   1.839   2.793  0.0109 -0.1316  0.1335
 1346TIP3    H1 4002   1.587   1.820   2.701  0.5876  1.2236 -0.3158
 1346TIP3    H2 4003   1.624   1.934   2.794 -1.3942  0.1164  1.9399
 1347TIP3   OH2 4004   0.424   4.551   0.070  0.2621  1.1440  0.4729
 1347TIP3    H1 4005   0.425   4.508   0.156  0.8676  0.9077  0.3504
 1347TIP3    H2 4006   0.507   4.599   0.067  1.6830 -1.1815 -1.1380
 1348TIP3   OH2 4007   6.509   4.997   1.535 -0.1668 -0.2443  0.0912
 1348TIP3    H1 4008   6.422   5.036   1.529 -1.0371 -1.8186  1.3957
 1348TIP3    H2 4009   6.518   4.946   1.455 -0.5512 -0.2508  0.0506
 1349TIP3   OH2 4010   1.242   0.405   3.169  0.7643  0.2492  0.0288
 1349TIP3    H1 4011   1.195   0.438   3.093  1.0617  0.1874 -0.1848
 1349TIP3    H2 4012   1.203   0.451   3.243 -0.8335 -1.0524  0.0673
 1350TIP3   OH2 4013   3.579   0.413   3.540  0.7456 -0.1507 -0.2207
 1350TIP3    H1 4014   3.599   0.499   3.502  0.5833 -1.3516 -3.3046
 1350TIP3    H2 4015   3.494   0.390   3.504  0.6210 -1.4981  0.8616
 1351TIP3   OH2 4016   5.628   1.449   2.871  0.1335 -0.4113 -0.3891
 1351TIP3    H1 4017   5.569   1.379   2.900  0.2648 -1.0520 -1.6283
 1351TIP3    H2 4018   5.633   1.439   2.776  2.8934 -0.9103 -0.2792
 1352TIP3   OH2 4019   3.308   3.873   5.743  0.2218  0.1524  0.6941
 1352TIP3    H1 4020   3.391   3.909   5.711  0.8882 -2.4651 -0.8056
 1352TIP3    H2 4021   3.332   3.824   5.821 -0.0379 -0.0702  0.6332
 1353TIP3   OH2 4022   3.402   3.058   0.248  0.0670  0.2339  0.0638
 1353TIP3    H1 4023   3.497   3.064   0.260 -0.1166  0.9755  1.5003
 1353TIP3    H2 4024   3.387   3.082   0.157  1.1834  1.3018  0.1298
 1354TIP3   OH2 4025   0.426   2.884   0.325 -0.0614  0.1607 -0.1257
 1354TIP3    H1 4026   0.416   2.909   0.233  1.2142  0.9994 -0.0570
 1354TIP3    H2 4027   0.338   2.856   0.352 -0.5363  0.2965 -1.4791
 1355TIP3   OH2 4028   2.188   0.099   4.739  0.6091  0.0683 -0.0801
 1355TIP3    H1 4029   2.243   0.071   4.812 -0.8792 -1.6428  0.4516
 1355TIP3    H2 4030   2.233   0.067   4.661  0.5511 -0.9975  0.3173
 1356TIP3   OH2 4031   2.310   3.337   1.036  0.2101 -0.4092 -0.0596
 1356TIP3    H1 4032   2.327   3.289   0.955  2.1719 -0.3798  0.2853
 1356TIP3    H2 4033   2.392   3.331   1.085 -0.3814  1.0113  1.1792
 1357TIP3   OH2 4034   3.349   1.863   4.589  0.1065 -0.8720 -0.0896
 1357TIP3    H1 4035   3.394   1.819   4.517  0.7325  0.0405 -0.2802
 1357TIP3    H2 4036   3.420   1.901   4.642 -0.3317 -1.6959  1.1391
 1358TIP3   OH2 4037   0.056   1.699   2.130 -0.1212 -0.1565 -0.2178
 1358TIP3    H1 4038  -0.022   1.754   2.117  0.1273 -0.3507 -3.2813
 1358TIP3    H2 4039   0.021   1.615   2.160 -0.8355  0.5069  0.8903
 1359TIP3   OH2 4040   1.385   3.117   5.125  0.1630  0.2632  0.1795
 1359TIP3    H1 4041   1.426   3.155   5.203  0.1611 -0.6054  0.6204
 1359TIP3    H2 4042   1.403   3.023   5.132 -0.6256  0.0561 -0.3997
 1360TIP3   OH2 4043   2.683   1.326   4.852  0.4419 -0.0982 -0.2275
 1360TIP3    H1 4044   2.692   1.422   4.850 -2.8446  0.4043  1.3873
 1360TIP3    H2 4045   2.683   1.300   4.760 -1.0682  1.8368 -0.8679
 1361TIP3   OH2 4046   1.217   6.525   4.853  0.2150  0.0274  0.0263
 1361TIP3    H1 4047   1.275   6.452   4.875  1.9477  0.5882 -2.2745
 1361TIP3    H2 4048   1.185   6.505   4.765 -0.8441  1.1146  0.1346
 1362TIP3   OH2 4049   1.736   2.606   3.767  0.1612  0.2210 -0.3287
 1362TIP3    H1 4050   1.807   2.553   3.803 -1.4554 -1.5306  0.4693
 1362TIP3    H2 4051   1.692   2.643   3.844  0.8124  2.2201 -0.8476
 1363TIP3   OH2 4052   6.495   1.299   1.600  0.1660  0.8567 -0.3089
 1363TIP3    H1 4053   6.568   1.277   1.542  0.1439 -1.9453  0.5520
 1363TIP3    H2 4054   6.433   1.344   1.544  0.6591 -0.6782 -2.2143
 1364TIP3   OH2 4055   4.943   6.605   5.630  0.3304 -0.1122  0.1833
 1364TIP3    H1 4056   4.935   6.527   5.685  0.2876 -0.1041  0.1885
 1364TIP3    H2 4057   4.904   6.579   5.546  1.1195 -0.3849 -0.1102
 1365TIP3   OH2 4058   3.983   1.411   3.242 -0.1850  0.1667 -0.3858
 1365TIP3    H1 4059   3.993   1.500   3.278 -0.0277  0.2365 -0.5987
 1365TIP3    H2 4060   4.004   1.353   3.315 -0.2368  0.3072 -0.2601
 1366TIP3   OH2 4061   2.923   4.969   3.034 -0.0520 -0.2725 -0.6349
 1366TIP3    H1 4062   2.950   4.971   3.126 -0.8997  1.6122 -0.3696
 1366TIP3    H2 4063   2.846   4.912   3.033 -0.7794  0.6425  0.0999
 1367TIP3   OH2 4064   6.286   3.212   1.612 -0.5480  0.1876  0.3022
 1367TIP3    H1 4065   6.222   3.176   1.550 -1.1369  0.5238  0.7148
 1367TIP3    H2 4066   6.280   3.155   1.688  0.8594 -0.8143 -0.2846
 1368TIP3   OH2 4067   2.791   3.916   0.585  0.2652  0.2369  0.0100
 1368TIP3    H1 4068   2.752   3.861   0.653  0.7756  0.4275  0.4703
 1368TIP3    H2 4069   2.857   3.861   0.544 -1.8022 -0.7705 -2.1384
 1369TIP3   OH2 4070   4.800   3.414   2.182  0.3356  0.2445 -0.0659
 1369TIP3    H1 4071   4.837   3.385   2.266 -0.4244  1.5282  0.7335
 1369TIP3    H2 4072   4.778   3.332   2.137 -0.1073 -0.4675  1.3743
 1370TIP3   OH2 4073   3.612   2.668   0.777 -0.0113 -0.1680  0.3109
 1370TIP3    H1 4074   3.560   2.698   0.703 -2.6684  2.2602  2.8873
 1370TIP3    H2 4075   3.596   2.573   0.781 -1.8259  0.0437 -0.7862
 1371TIP3   OH2 4076   2.990   2.793   1.447 -0.4384  0.5273 -0.2294
 1371TIP3    H1 4077   2.958   2.855   1.382 -4.2350  0.9649  1.7988
 1371TIP3    H2 4078   3.059   2.840   1.494 -0.0053  1.4117 -1.6984
 1372TIP3   OH2 4079   4.236   2.974   4.422 -0.4806 -0.5608 -0.1016
 1372TIP3    H1 4080   4.294   2.964   4.347 -1.7741  0.3337 -1.2575
 1372TIP3    H2 4081   4.180   2.896   4.420 -1.6457  0.2709 -1.1153
 1373TIP3   OH2 4082   0.118   2.471   3.273 -0.6707  0.4958 -0.5411
 1373TIP3    H1 4083   0.065   2.497   3.348 -0.4930 -2.4810  0.7565
 1373TIP3    H2 4084   0.203   2.514   3.287 -0.8494  0.4894  0.6453
 1374TIP3   OH2 4085   0.700   6.763   1.649  0.7837 -0.4224 -0.0042
 1374TIP3    H1 4086   0.664   6.685   1.606  0.6879 -0.3958  0.0285
 1374TIP3    H2 4087   0.714   6.737   1.740  1.2344 -0.5606 -0.1102
 1375TIP3   OH2 4088   5.014   4.436   2.913 -0.0687  0.8348  0.6473
 1375TIP3    H1 4089   4.924   4.442   2.945 -0.6192  1.3353 -0.9015
 1375TIP3    H2 4090   5.059   4.512   2.952  0.4691 -0.7972  3.5466
 1376TIP3   OH2 4091   5.161   6.309   4.714 -0.2719 -0.1294  0.2510
 1376TIP3    H1 4092   5.162   6.224   4.757 -0.5436 -0.1259  0.2665
 1376TIP3    H2 4093   5.071   6.319   4.681  0.1415 -0.4760 -1.0255
 1377TIP3   OH2 4094   0.674   1.154   3.936  0.4507  0.5442  0.5802
 1377TIP3    H1 4095   0.579   1.148   3.925  0.6234 -0.1314 -0.6547
 1377TIP3    H2 4096   0.685   1.201   4.019 -0.9565  2.2713 -0.1397
 1378TIP3   OH2 4097   3.165   0.571   2.339  0.0231 -0.0147 -0.4671
 1378TIP3    H1 4098   3.122   0.516   2.273  0.1087  0.9452 -1.3609
 1378TIP3    H2 4099   3.106   0.569   2.414 -0.3297 -0.7379 -0.7544
 1379TIP3   OH2 4100   5.254   4.753   5.441 -0.3829 -0.0004  0.3626
 1379TIP3    H1 4101   5.332   4.756   5.496 -0.7757 -1.8907  1.0984
 1379TIP3    H2 4102   5.187   4.798   5.492 -0.0257  0.8686  0.0964
 1380TIP3   OH2 4103   6.908   1.569   5.564  0.0850 -0.5564  0.1595
 1380TIP3    H1 4104   6.924   1.480   5.534  1.0194 -0.2467 -0.2867
 1380TIP3    H2 4105   6.860   1.611   5.493  0.7787 -0.3319 -0.1834
 1381TIP3   OH2 4106   1.371   3.122   4.242 -0.1131 -0.1291  0.1510
 1381TIP3    H1 4107   1.357   3.135   4.336 -0.9103  0.0267  0.0183
 1381TIP3    H2 4108   1.398   3.208   4.210 -2.2096  0.4712 -0.1618
 1382TIP3   OH2 4109   0.412   1.544   4.489 -0.0072 -0.7175  0.7790
 1382TIP3    H1 4110   0.503   1.517   4.475 -0.5284 -1.9053 -0.5105
 1382TIP3    H2 4111   0.410   1.572   4.581  1.4654 -1.4904  1.0859
 1383TIP3   OH2 4112   2.740   5.274   4.855 -0.2449 -0.4329 -0.3944
 1383TIP3    H1 4113   2.725   5.344   4.919  0.3111  0.3847 -1.1332
 1383TIP3    H2 4114   2.669   5.211   4.872 -1.0283  0.5187  0.0044
 1384TIP3   OH2 4115   1.654   4.306   0.837 -0.0013 -0.3829 -0.4159
 1384TIP3    H1 4116   1.626   4.230   0.889 -0.2653 -0.7720 -1.1136
 1384TIP3    H2 4117   1.661   4.377   0.901 -3.4041 -0.0188 -0.2355
 1385TIP3   OH2 4118   1.686   3.768   5.800  0.2129 -0.8007 -0.9892
 1385TIP3    H1 4119   1.682   3.862   5.815  0.3419 -1.0961  1.1471
 1385TIP3    H2 4120   1.722   3.759   5.711  2.3700  1.1329 -0.3923
 1386TIP3   OH2 4121   6.804   0.892   4.609  0.0648  0.4074  0.6747
 1386TIP3    H1 4122   6.769   0.979   4.593 -1.0151 -0.3728 -1.7600
 1386TIP3    H2 4123   6.899   0.905   4.617 -0.0953  1.7978  0.5604
 1387TIP3   OH2 4124   0.548   1.551   3.040  0.0513 -0.0047  0.2108
 1387TIP3    H1 4125   0.498   1.574   3.119  0.3239 -0.1151  0.4147
 1387TIP3    H2 4126   0.514   1.611   2.973 -3.0838 -2.4803 -0.6685
 1388TIP3   OH2 4127   2.635   4.192   0.829 -0.2367  0.2910  0.8556
 1388TIP3    H1 4128   2.723   4.176   0.794 -0.1510  0.9156  0.7751
 1388TIP3    H2 4129   2.611   4.110   0.871  0.3172  0.0574  0.7277
 1389TIP3   OH2 4130   1.729   4.341   1.883 -0.1528  0.1045 -0.3965
 1389TIP3    H1 4131   1.704   4.288   1.807 -0.2539  1.3680 -1.2870
 1389TIP3    H2 4132   1.771   4.418   1.845 -0.0692  0.6927  0.8493
 1390TIP3   OH2 4133   6.134   2.507   3.326  0.4296 -0.2774  0.1894
 1390TIP3    H1 4134   6.083   2.514   3.407  0.4098 -1.4723  0.3056
 1390TIP3    H2 4135   6.076   2.541   3.258  0.2631  0.2895  0.6085
 1391TIP3   OH2 4136   5.731   6.245   0.958  0.1271  0.3998  0.3638
 1391TIP3    H1 4137   5.768   6.294   1.031  0.7535  0.0740  0.2745
 1391TIP3    H2 4138   5.719   6.156   0.992  0.7282  0.1654 -0.0191
 1392TIP3   OH2 4139   1.026   5.292   4.376 -0.2603 -0.1162  0.1629
 1392TIP3    H1 4140   0.946   5.241   4.371 -0.8712  0.9463 -1.5290
 1392TIP3    H2 4141   1.081   5.258   4.305  0.1657  0.1982  0.3359
 1393TIP3   OH2 4142   6.707   6.381   2.909 -0.0725 -0.1518 -0.0860
 1393TIP3    H1 4143   6.801   6.373   2.894  0.0320  1.0740 -0.2036
 1393TIP3    H2 4144   6.670   6.301   2.873  0.8016 -0.0406 -1.2776
 1394TIP3   OH2 4145   5.023   2.477   4.833 -0.3731 -0.0175  0.2823
 1394TIP3    H1 4146   5.034   2.510   4.744  1.0896  0.9014  0.7752
 1394TIP3    H2 4147   4.933   2.443   4.835 -1.9928  3.7078 -0.3737
 1395TIP3   OH2 4148   0.281   4.587   1.610 -0.1681  0.0621  0.2650
 1395TIP3    H1 4149   0.294   4.682   1.604 -0.6097  0.0774 -0.5827
 1395TIP3    H2 4150   0.189   4.574   1.586 -0.4120 -0.4867  1.4301
 1396TIP3   OH2 4151   4.325   5.409   3.158 -0.1169  0.3287  0.5668
 1396TIP3    H1 4152   4.356   5.446   3.241  1.5634  1.5001 -0.5263
 1396TIP3    H2 4153   4.261   5.472   3.125 -0.6007 -0.0164  0.8169
 1397TIP3   OH2 4154   1.943   2.350   1.301 -0.2735  0.5867  0.5994
 1397TIP3    H1 4155   1.937   2.445   1.292 -0.5505  0.4888 -0.2898
 1397TIP3    H2 4156   2.023   2.326   1.253 -1.0675  0.2008 -0.5662
 1398TIP3   OH2 4157   7.086   3.967   1.458  0.4007 -0.0266 -0.6391
 1398TIP3    H1 4158   7.011   3.953   1.400  0.2259 -1.8748 -0.0300
 1398TIP3    H2 4159   7.055   3.938   1.544  1.2490  0.9323  0.0126
 1399TIP3   OH2 4160   0.003   4.565   5.340  0.3025  0.5100  0.0765
 1399TIP3    H1 4161   0.058   4.492   5.313  1.0783  0.7256  0.9964
 1399TIP3    H2 4162   0.058   4.642   5.325  0.2094  0.7385  0.8575
 1400TIP3   OH2 4163   7.122   6.716   3.771 -0.3402 -0.3810 -0.5336
 1400TIP3    H1 4164   7.056   6.671   3.719 -1.9588  1.8376 -0.5728
 1400TIP3    H2 4165   7.156   6.784   3.713  1.0265 -0.6330 -0.0641
 1401TIP3   OH2 4166   2.009   5.782   0.876  0.4135  0.7035 -0.7430
 1401TIP3    H1 4167   2.009   5.725   0.799 -2.0387 -0.3186 -0.0695
 1401TIP3    H2 4168   2.101   5.809   0.885  1.7351 -3.0234 -1.1984
 1402TIP3   OH2 4169   1.955   3.474   5.849 -0.7689 -0.4773  0.0506
 1402TIP3    H1 4170   1.908   3.431   5.920 -0.4673 -1.0777 -0.1130
 1402TIP3    H2 4171   2.009   3.406   5.811 -0.6791 -0.0779 -0.5479
 1403TIP3   OH2 4172   1.071   1.328   1.653 -0.4395  0.2685 -0.3656
 1403TIP3    H1 4173   1.043   1.262   1.589 -0.1394 -0.7151  0.4867
 1403TIP3    H2 4174   1.085   1.407   1.601 -2.0608  0.0429 -1.2373
 1404TIP3   OH2 4175   6.040   3.501   1.342 -0.2437  0.4958 -0.7637
 1404TIP3    H1 4176   5.986   3.491   1.264 -0.5343 -2.4798 -0.2833
 1404TIP3    H2 4177   6.019   3.425   1.396  4.4971 -1.0755 -0.6488
 1405TIP3   OH2 4178   4.793   2.695   2.336  0.1738 -0.6892  0.3464
 1405TIP3    H1 4179   4.858   2.625   2.345  0.7941 -0.0316  1.1768
 1405TIP3    H2 4180   4.835   2.772   2.375 -0.4888  0.1550 -0.5420
 1406TIP3   OH2 4181   6.136   2.047   2.296  0.1917 -0.5970  0.2247
 1406TIP3    H1 4182   6.130   2.006   2.209 -1.0562  0.7530 -0.3761
 1406TIP3    H2 4183   6.045   2.059   2.323  0.5218 -2.6456  2.5917
 1407TIP3   OH2 4184   1.522   2.008   5.196 -0.2429 -0.1657  0.6428
 1407TIP3    H1 4185   1.550   2.044   5.112  2.8459 -0.3170  1.5011
 1407TIP3    H2 4186   1.519   1.914   5.182 -0.4172 -0.1454  0.5359
 1408TIP3   OH2 4187   0.934   1.144   3.359 -0.3103  0.2623  0.2089
 1408TIP3    H1 4188   0.994   1.210   3.393 -0.2025 -0.3126  1.1476
 1408TIP3    H2 4189   0.942   1.152   3.264 -0.4170  1.6993  0.2989
 1409TIP3   OH2 4190   7.038   1.948   2.448  0.0621  0.0837 -0.1300
 1409TIP3    H1 4191   6.990   1.968   2.529  0.7411  0.8610  0.0928
 1409TIP3    H2 4192   7.024   1.855   2.435 -0.8120  0.1250  0.3873
 1410TIP3   OH2 4193   4.683   6.622   3.662  0.1915 -0.0084  0.2268
 1410TIP3    H1 4194   4.746   6.688   3.631 -0.8451  0.6165 -0.6222
 1410TIP3    H2 4195   4.604   6.672   3.682 -0.5271 -0.9594 -0.1872
 1411TIP3   OH2 4196   5.142   6.283   0.142  0.1466  0.3461  0.1288
 1411TIP3    H1 4197   5.131   6.188   0.131  1.6662 -0.1709  2.3068
 1411TIP3    H2 4198   5.233   6.299   0.117  0.1390  1.0708  0.5576
 1412TIP3   OH2 4199   6.709   2.794   3.577 -0.2849 -0.6240 -0.3708
 1412TIP3    H1 4200   6.761   2.717   3.598 -0.3834 -0.7063 -0.4257
 1412TIP3    H2 4201   6.704   2.843   3.659 -0.5081 -0.8472 -0.2501
 1413TIP3   OH2 4202   0.617   2.467   4.514  0.3592 -0.0435 -0.2219
 1413TIP3    H1 4203   0.567   2.501   4.587  0.3514 -2.6277  1.0899
 1413TIP3    H2 4204   0.563   2.486   4.437 -0.0093  2.0097  0.4877
 1414TIP3   OH2 4205   1.776   6.331   1.527 -0.6033  0.1496  0.0601
 1414TIP3    H1 4206   1.792   6.423   1.506 -0.9326  0.0797 -0.5250
 1414TIP3    H2 4207   1.789   6.325   1.621 -1.2731  0.9493  0.2160
 1415TIP3   OH2 4208   3.403   6.383   3.908  0.0645  0.0705  0.0801
 1415TIP3    H1 4209   3.409   6.440   3.984  2.7968 -1.2727  1.0101
 1415TIP3    H2 4210   3.489   6.389   3.866 -0.4149 -1.4354 -1.2344
 1416TIP3   OH2 4211   5.509   4.722   4.237 -1.0775  0.5504 -0.5949
 1416TIP3    H1 4212   5.425   4.696   4.200 -1.0304  0.9965 -1.0214
 1416TIP3    H2 4213   5.522   4.812   4.208  0.2580 -0.0022 -1.8136
 1417TIP3   OH2 4214   2.075   1.768   2.853  0.2505 -0.0208 -0.3022
 1417TIP3    H1 4215   2.141   1.788   2.787 -0.9767  1.4338 -1.1700
 1417TIP3    H2 4216   2.030   1.852   2.868 -0.4294 -0.6352  1.3504
 1418TIP3   OH2 4217   1.659   5.073   5.265  0.0498 -0.7035  0.1344
 1418TIP3    H1 4218   1.630   4.988   5.231  0.3781 -1.0153  0.6326
 1418TIP3    H2 4219   1.740   5.092   5.217 -0.8916  0.1276 -1.1958
 1419TIP3   OH2 4220   5.974   0.126   0.756 -0.0429 -0.5368 -0.4245
 1419TIP3    H1 4221   5.957   0.167   0.671  1.0253  1.0685  0.1067
 1419TIP3    H2 4222   6.063   0.093   0.750  0.2339  0.0752  0.2599
 1420TIP3   OH2 4223   3.882   6.358   3.245  0.3889  0.0503  0.3479
 1420TIP3    H1 4224   3.966   6.395   3.270  0.3844  0.1772  0.1749
 1420TIP3    H2 4225   3.899   6.264   3.237  0.5167  0.0783  0.2932
 1421TIP3   OH2 4226   2.347   5.081   0.117 -0.1831  0.2214 -0.0846
 1421TIP3    H1 4227   2.385   5.165   0.093 -0.0109  0.0685 -0.3587
 1421TIP3    H2 4228   2.321   5.042   0.033  2.2964 -1.2256 -0.2773
 1422TIP3   OH2 4229   2.143   3.798   5.652 -0.1272 -0.0767 -0.2156
 1422TIP3    H1 4230   2.239   3.800   5.655 -0.1642  0.7410  1.6529
 1422TIP3    H2 4231   2.119   3.880   5.609 -0.0053  0.4635  0.7276
 1423TIP3   OH2 4232   0.074   5.379   1.510 -0.0833  0.4961 -0.3248
 1423TIP3    H1 4233   0.020   5.423   1.576  1.3555 -0.6618  1.7424
 1423TIP3    H2 4234   0.130   5.448   1.475 -0.2528  0.9839  0.3390
 1424TIP3   OH2 4235   3.348   3.785   3.954  0.0137 -0.3543  0.1389
 1424TIP3    H1 4236   3.252   3.792   3.956  0.0225 -0.0924  2.1668
 1424TIP3    H2 4237   3.366   3.729   3.879 -1.7503 -0.5132 -0.2171
 1425TIP3   OH2 4238   5.379   6.666   0.574  0.8837 -0.1021  0.0223
 1425TIP3    H1 4239   5.422   6.709   0.648 -0.5793  0.1500  0.7705
 1425TIP3    H2 4240   5.448   6.656   0.508  1.8524  1.0918  0.8142
 1426TIP3   OH2 4241   2.952   2.008   3.372 -0.1458  0.0176 -0.0628
 1426TIP3    H1 4242   2.924   1.919   3.354 -1.8974  0.1473  1.7077
 1426TIP3    H2 4243   2.871   2.057   3.386  0.8175  1.5635  0.4289
 1427TIP3   OH2 4244   6.743   6.105   5.309 -0.0234 -0.6677 -0.5505
 1427TIP3    H1 4245   6.740   6.201   5.319 -1.6936 -0.6833 -0.4966
 1427TIP3    H2 4246   6.827   6.079   5.347  1.4750  0.9612 -2.5565
 1428TIP3   OH2 4247   3.212   0.340   1.852 -0.5119 -0.4154  0.0916
 1428TIP3    H1 4248   3.292   0.308   1.811 -0.1659  0.3963  0.1072
 1428TIP3    H2 4249   3.235   0.352   1.944 -0.0974  1.4579 -0.2061
 1429TIP3   OH2 4250   0.752   4.413   5.074 -0.5447 -0.0970  0.0915
 1429TIP3    H1 4251   0.806   4.418   5.152  0.7653  0.0825 -0.7935
 1429TIP3    H2 4252   0.740   4.320   5.059 -1.7777 -0.1358  1.1221
 1430TIP3   OH2 4253   0.123   3.924   0.974 -0.0043 -0.1942  0.0290
 1430TIP3    H1 4254   0.186   3.915   1.046 -0.1192  1.2689  0.3472
 1430TIP3    H2 4255   0.059   3.988   1.006 -0.1208  0.4036 -1.3238
 1431TIP3   OH2 4256   0.572   0.308   4.081 -0.1482  0.1247  0.1325
 1431TIP3    H1 4257   0.655   0.340   4.115  0.3888 -1.2147  0.1703
 1431TIP3    H2 4258   0.505   0.353   4.133  0.5464  1.1730  0.1438
 1432TIP3   OH2 4259   5.488   0.075   5.633 -0.1631  0.1870 -0.0607
 1432TIP3    H1 4260   5.569   0.121   5.657 -0.4073  0.9250 -0.5964
 1432TIP3    H2 4261   5.447   0.133   5.568 -1.3298  0.0295  0.5211
 1433TIP3   OH2 4262   5.182   2.178   4.920 -0.3346  0.1712 -0.1202
 1433TIP3    H1 4263   5.097   2.222   4.924 -1.1699 -1.4393  0.8383
 1433TIP3    H2 4264   5.182   2.134   4.835  0.5621  2.0290 -1.1451
 1434TIP3   OH2 4265   5.508   6.498   5.210  0.3404  0.6264 -0.2200
 1434TIP3    H1 4266   5.427   6.535   5.175 -0.3160 -2.4442 -2.2703
 1434TIP3    H2 4267   5.483   6.458   5.292  0.0911  0.8066 -0.2068
 1435TIP3   OH2 4268   6.777   2.302   2.092  0.3948  0.3473  0.1763
 1435TIP3    H1 4269   6.795   2.392   2.119  0.1585  0.0724  1.2942
 1435TIP3    H2 4270   6.715   2.269   2.158  1.3306 -0.9939  0.4235
 1436TIP3   OH2 4271   3.149   0.915   4.958 -0.3392 -0.5587  0.4211
 1436TIP3    H1 4272   3.128   0.854   5.028 -2.3441  0.3370  0.6660
 1436TIP3    H2 4273   3.105   0.880   4.881 -0.3399 -0.1567  0.2336
 1437TIP3   OH2 4274   7.111   4.978   2.123  0.2041  0.0535  0.7433
 1437TIP3    H1 4275   7.109   4.991   2.028 -0.7057 -0.4317  0.6884
 1437TIP3    H2 4276   7.152   4.892   2.134 -0.8897 -0.4832  0.7148
 1438TIP3   OH2 4277   5.260   1.481   5.658  0.6619  0.9879 -0.1178
 1438TIP3    H1 4278   5.330   1.468   5.722  1.6384  1.1249 -1.1371
 1438TIP3    H2 4279   5.238   1.392   5.627 -0.3113  0.8508  0.8960
 1439TIP3   OH2 4280   1.493   5.019   3.575  0.0971  0.1161 -0.4868
 1439TIP3    H1 4281   1.473   5.112   3.592 -0.2271 -0.3044  1.7816
 1439TIP3    H2 4282   1.407   4.976   3.574  0.2874 -0.2588 -0.8565
 1440TIP3   OH2 4283   0.938   6.156   2.231  0.5631 -0.2312  0.4251
 1440TIP3    H1 4284   0.915   6.064   2.219  1.1143 -0.2798 -0.3548
 1440TIP3    H2 4285   0.993   6.177   2.156  2.3527  0.0907  1.7345
 1441TIP3   OH2 4286   3.843   4.867   1.899 -0.3217 -0.0780  0.4738
 1441TIP3    H1 4287   3.826   4.948   1.947 -3.7006 -0.1570 -0.3629
 1441TIP3    H2 4288   3.789   4.802   1.943  1.5742 -1.7118  0.5021
 1442TIP3   OH2 4289   4.138   0.233   3.538  0.1166 -0.5117 -0.8140
 1442TIP3    H1 4290   4.047   0.264   3.536  0.4159  0.3428 -2.9765
 1442TIP3    H2 4291   4.168   0.255   3.627 -1.0407  1.4430 -0.8495
 1443TIP3   OH2 4292   0.651   2.838   0.915  0.6689 -0.0584  0.4334
 1443TIP3    H1 4293   0.574   2.798   0.957  0.7216 -0.1988  0.3962
 1443TIP3    H2 4294   0.636   2.828   0.822  0.7727 -0.1604  0.4278
 1444TIP3   OH2 4295   6.724   3.298   4.113  0.1495 -0.0811  0.6292
 1444TIP3    H1 4296   6.663   3.247   4.164 -2.4711  0.2318 -1.9379
 1444TIP3    H2 4297   6.748   3.372   4.169  0.1204 -1.4917  2.5565
 1445TIP3   OH2 4298   3.523   2.845   4.405  0.0735  0.3132 -0.0682
 1445TIP3    H1 4299   3.615   2.835   4.380  0.6635  1.3495  1.5613
 1445TIP3    H2 4300   3.485   2.758   4.391  2.0064 -0.9644  1.9629
 1446TIP3   OH2 4301   6.508   1.397   0.494  0.4586  0.0971  0.2089
 1446TIP3    H1 4302   6.445   1.440   0.435  0.8834  0.8838  0.3212
 1446TIP3    H2 4303   6.587   1.387   0.441  0.8570  0.8462  0.6459
 1447TIP3   OH2 4304   6.370   6.648   3.288  0.4889 -0.3131  0.3501
 1447TIP3    H1 4305   6.437   6.691   3.341  0.3525  0.7597 -0.2937
 1447TIP3    H2 4306   6.324   6.590   3.348  0.9635  0.1420  1.1701
 1448TIP3   OH2 4307   1.688   4.494   2.659  0.2517  0.3332 -0.4528
 1448TIP3    H1 4308   1.657   4.580   2.687 -0.9793 -0.2463  0.0121
 1448TIP3    H2 4309   1.746   4.466   2.730  1.4621  1.1813 -1.0691
 1449TIP3   OH2 4310   0.985   2.103   2.485  0.1269  0.4698 -0.2442
 1449TIP3    H1 4311   0.901   2.059   2.492  0.7423 -0.5427  1.5430
 1449TIP3    H2 4312   1.050   2.034   2.493  1.1585  1.1923 -1.9307
 1450TIP3   OH2 4313   6.110   4.581   5.645  0.1497  0.0007 -0.0197
 1450TIP3    H1 4314   6.126   4.572   5.738 -1.7975  1.3461  0.5158
 1450TIP3    H2 4315   6.068   4.499   5.619 -0.1674 -0.0085  0.5099
 1451TIP3   OH2 4316   1.166   5.646   4.488  0.3606 -0.6214 -0.2253
 1451TIP3    H1 4317   1.105   5.715   4.462  2.3939  1.3130 -0.1628
 1451TIP3    H2 4318   1.153   5.637   4.583  1.2672  0.9977  0.0903
 1452TIP3   OH2 4319   3.267   1.399   5.057 -0.0364  0.0611 -0.3942
 1452TIP3    H1 4320   3.267   1.467   4.990  2.6207  1.1084  0.5210
 1452TIP3    H2 4321   3.277   1.317   5.009  1.1250  0.7229 -1.3425
 1453TIP3   OH2 4322   1.314   5.192   1.571  0.2016  0.3328  0.1243
 1453TIP3    H1 4323   1.370   5.262   1.606 -1.2157  1.6077 -0.0460
 1453TIP3    H2 4324   1.358   5.165   1.490 -0.0841  2.2751 -0.7424
 1454TIP3   OH2 4325   0.620   3.076   0.286  0.2462  0.2057  0.3542
 1454TIP3    H1 4326   0.562   3.000   0.279  1.2197 -0.5873  0.6695
 1454TIP3    H2 4327   0.702   3.048   0.245  0.0412  1.7277 -1.2020
 1455TIP3   OH2 4328   0.685   3.830   2.897 -0.0403 -0.2910 -0.3936
 1455TIP3    H1 4329   0.729   3.831   2.812  0.7619 -0.2661  0.0119
 1455TIP3    H2 4330   0.603   3.783   2.882  0.7198 -1.4834 -0.8772
 1456TIP3   OH2 4331   4.668   4.517   1.154  0.3394  0.1724 -0.1988
 1456TIP3    H1 4332   4.660   4.483   1.065 -1.8167 -1.2892  0.4685
 1456TIP3    H2 4333   4.621   4.601   1.152  1.0108  0.5452 -0.6114
 1457TIP3   OH2 4334   0.802   3.085   0.636 -0.1211 -0.2628 -0.7733
 1457TIP3    H1 4335   0.841   3.171   0.652  0.4784 -0.4888 -0.9982
 1457TIP3    H2 4336   0.875   3.029   0.612 -0.7717 -0.3045 -2.8142
 1458TIP3   OH2 4337   1.134   0.856   4.616 -0.3320 -0.4327  0.0102
 1458TIP3    H1 4338   1.200   0.882   4.682  0.8998 -0.9679 -0.9720
 1458TIP3    H2 4339   1.120   0.936   4.565  0.2983 -0.5646 -0.3818
 1459TIP3   OH2 4340   2.840   1.531   2.061  0.5771  0.0497 -0.0693
 1459TIP3    H1 4341   2.863   1.449   2.106 -0.7141 -0.5949 -0.5208
 1459TIP3    H2 4342   2.843   1.509   1.968  1.3868  0.8588 -0.2452
 1460TIP3   OH2 4343   4.608   1.924   3.186  0.2570 -0.5996 -0.3060
 1460TIP3    H1 4344   4.702   1.935   3.173  0.4629 -0.2893  1.2725
 1460TIP3    H2 4345   4.580   2.004   3.231 -0.6625 -0.8974 -0.3298
 1461TIP3   OH2 4346   1.475   1.307   1.283 -0.4195 -0.1331 -0.1506
 1461TIP3    H1 4347   1.456   1.353   1.201  1.3206  1.7878  0.4265
 1461TIP3    H2 4348   1.461   1.373   1.351 -1.1426 -1.4841  1.0580
 1462TIP3   OH2 4349   2.963   6.272   2.004 -0.3969 -0.1852  0.2198
 1462TIP3    H1 4350   2.994   6.249   2.091  0.2923  1.1687  0.3633
 1462TIP3    H2 4351   3.042   6.298   1.956 -1.0975  2.2247  0.2309
 1463TIP3   OH2 4352   4.972   1.770   2.792  0.4046  0.3567  0.3309
 1463TIP3    H1 4353   4.904   1.709   2.820  1.4079 -0.9058  0.0899
 1463TIP3    H2 4354   4.924   1.843   2.754 -0.8560  0.2598  1.6615
 1464TIP3   OH2 4355   3.594   1.220   0.887  0.1454 -0.0281  0.0085
 1464TIP3    H1 4356   3.531   1.147   0.888 -0.4289  0.4618  0.7340
 1464TIP3    H2 4357   3.627   1.224   0.977 -0.3641  1.0436  0.1677
 1465TIP3   OH2 4358   6.034   2.756   5.788  0.1235  0.6548 -0.0657
 1465TIP3    H1 4359   6.011   2.822   5.853 -0.4244 -0.7217  1.1927
 1465TIP3    H2 4360   6.061   2.680   5.839 -0.4406 -0.5174 -1.4412
 1466TIP3   OH2 4361   6.695   4.192   3.120 -0.0617  0.2247 -0.9172
 1466TIP3    H1 4362   6.620   4.246   3.145 -0.6882 -1.7062  1.7850
 1466TIP3    H2 4363   6.751   4.191   3.197  2.5386  1.1145 -2.6734
 1467TIP3   OH2 4364   0.076   1.952   2.391  0.0340  0.6249 -0.3989
 1467TIP3    H1 4365  -0.014   1.959   2.424  0.3027 -1.0603  0.7851
 1467TIP3    H2 4366   0.084   1.861   2.362  1.2577  0.8487 -0.8078
 1468TIP3   OH2 4367   2.837   1.623   4.832  0.6742 -0.1766 -0.5832
 1468TIP3    H1 4368   2.913   1.661   4.877  2.6793 -4.6645  0.4013
 1468TIP3    H2 4369   2.764   1.643   4.890  1.4018  2.4214 -0.4252
 1469TIP3   OH2 4370   1.635   2.255   3.492 -0.1198  0.6061 -0.0937
 1469TIP3    H1 4371   1.629   2.304   3.574  2.3519  1.4903 -0.3719
 1469TIP3    H2 4372   1.641   2.163   3.520  0.3802  0.8757  0.7099
 1470TIP3   OH2 4373   1.214   0.480   5.105 -0.3179 -0.7723  0.0892
 1470TIP3    H1 4374   1.211   0.566   5.146 -0.5570 -1.6409  1.9931
 1470TIP3    H2 4375   1.173   0.421   5.169  0.1388 -2.3643 -1.0152
 1471TIP3   OH2 4376   6.338   4.886   3.635  0.1236  0.1979 -0.1552
 1471TIP3    H1 4377   6.348   4.964   3.581 -0.2620  0.3989  0.0560
 1471TIP3    H2 4378   6.418   4.836   3.621  0.0926  0.3215 -0.7871
 1472TIP3   OH2 4379   0.964   1.147   4.261  0.2543  0.2784 -0.3156
 1472TIP3    H1 4380   0.971   1.054   4.237  1.2328  0.5180 -1.0276
 1472TIP3    H2 4381   0.919   1.188   4.187 -0.1096  0.3900 -0.0356
 1473TIP3   OH2 4382   4.858   4.067   4.070  0.1182 -0.4277  0.0209
 1473TIP3    H1 4383   4.901   4.083   3.986 -0.9076  1.0692 -0.2588
 1473TIP3    H2 4384   4.922   4.096   4.135 -0.0764  0.9608 -0.3625
 1474TIP3   OH2 4385   2.242   3.338   5.233  0.2421 -0.0272 -0.0903
 1474TIP3    H1 4386   2.157   3.365   5.198 -0.6942 -1.0969  1.2446
 1474TIP3    H2 4387   2.233   3.243   5.247  2.4147 -0.6228 -1.9632
 1475TIP3   OH2 4388   5.002   1.114   4.438 -0.6116  0.0677 -0.2297
 1475TIP3    H1 4389   5.060   1.059   4.490  1.7523  0.4575 -2.3002
 1475TIP3    H2 4390   5.032   1.203   4.455 -0.1455  0.2316 -1.8402
 1476TIP3   OH2 4391   1.636   3.316   5.180  0.4434  0.4577 -0.3986
 1476TIP3    H1 4392   1.651   3.410   5.193 -1.0365  0.5279  1.2237
 1476TIP3    H2 4393   1.576   3.292   5.250  0.9545 -1.7671 -0.6582
 1477TIP3   OH2 4394   5.612   2.464   0.399 -0.1378 -0.1891 -0.1852
 1477TIP3    H1 4395   5.558   2.542   0.391 -2.5038 -1.5421  1.3534
 1477TIP3    H2 4396   5.611   2.442   0.492 -0.0563 -2.3343 -0.6161
 1478TIP3   OH2 4397   6.102   2.023   1.900 -0.5008 -0.2736 -0.4203
 1478TIP3    H1 4398   6.052   1.947   1.930 -0.2715  0.2919  1.5246
 1478TIP3    H2 4399   6.041   2.096   1.908  0.6348  0.5146  2.4939
 1479TIP3   OH2 4400   1.662   2.586   1.866 -0.3341 -0.0755 -0.2541
 1479TIP3    H1 4401   1.600   2.658   1.865 -0.6069 -0.2464  1.3245
 1479TIP3    H2 4402   1.734   2.616   1.810 -0.4290  1.4303  0.3749
 1480TIP3   OH2 4403   4.652   4.832   3.973  0.6687 -0.4970 -0.5114
 1480TIP3    H1 4404   4.560   4.819   3.949 -0.0918 -1.5518  2.4113
 1480TIP3    H2 4405   4.696   4.753   3.942  0.0275 -1.1843  0.2715
 1481TIP3   OH2 4406   3.330   6.338   4.321  0.5118  0.3549  0.1937
 1481TIP3    H1 4407   3.339   6.349   4.226  2.5866 -0.0049  0.2848
 1481TIP3    H2 4408   3.310   6.425   4.354 -2.0548  0.1807 -0.6766
 1482TIP3   OH2 4409   7.111   1.290   2.668  0.5206  0.0943 -0.9091
 1482TIP3    H1 4410   7.036   1.233   2.688 -0.0190  1.1019  0.0397
 1482TIP3    H2 4411   7.147   1.314   2.753  1.4038  0.3265 -1.3293
 1483TIP3   OH2 4412   4.615   2.111   5.830  0.1744 -0.3298 -0.0729
 1483TIP3    H1 4413   4.703   2.074   5.822  0.3447  0.2506 -1.0221
 1483TIP3    H2 4414   4.617   2.190   5.776 -0.1972  1.0635  1.8319
 1484TIP3   OH2 4415   3.089   4.759   0.653  0.5085 -0.4809 -0.4788
 1484TIP3    H1 4416   3.147   4.684   0.643 -1.0228 -1.8065  0.0701
 1484TIP3    H2 4417   3.018   4.727   0.709  0.4250  1.7561  0.8159
 1485TIP3   OH2 4418   0.167   5.608   0.327 -0.5786  0.6915  0.0086
 1485TIP3    H1 4419   0.248   5.623   0.279  0.0790 -2.1650  0.0510
 1485TIP3    H2 4420   0.098   5.639   0.268  0.3664 -0.0834 -1.5679
 1486TIP3   OH2 4421   4.760   3.879   2.563  0.1819  0.9904  0.5581
 1486TIP3    H1 4422   4.805   3.916   2.639  0.0860  1.5399  0.3489
 1486TIP3    H2 4423   4.830   3.846   2.507  0.2954  1.3418  0.4919
 1487TIP3   OH2 4424   5.462   0.132   2.944  0.1293  0.3496  0.3117
 1487TIP3    H1 4425   5.488   0.124   3.036 -0.8602  1.9714  0.7872
 1487TIP3    H2 4426   5.367   0.145   2.948  0.0566  0.2892 -0.9641
 1488TIP3   OH2 4427   4.539   0.452   3.944 -0.2791  0.1444 -0.2002
 1488TIP3    H1 4428   4.619   0.428   3.897 -0.3626 -1.3755  0.3755
 1488TIP3    H2 4429   4.560   0.536   3.984  0.9282 -0.0626 -0.3429
 1489TIP3   OH2 4430   5.384   3.119   0.982  0.8680  0.4236 -0.2464
 1489TIP3    H1 4431   5.316   3.092   0.921  0.4221  0.8295  0.0643
 1489TIP3    H2 4432   5.429   3.038   1.007  0.5305  0.1642 -0.4903
 1490TIP3   OH2 4433   4.686   1.569   2.166  0.1896 -0.6939  0.0146
 1490TIP3    H1 4434   4.709   1.548   2.256 -0.5144 -4.4160 -0.4901
 1490TIP3    H2 4435   4.608   1.625   2.173  0.6954 -0.1599  1.6856
 1491TIP3   OH2 4436   6.465   4.302   1.619  0.2848  0.1133  0.1424
 1491TIP3    H1 4437   6.418   4.259   1.547 -1.5035  0.6857  0.9053
 1491TIP3    H2 4438   6.408   4.291   1.695  1.0396  1.4889  0.9495
 1492TIP3   OH2 4439   6.414   6.317   0.148 -0.6468  0.4371 -0.1306
 1492TIP3    H1 4440   6.402   6.259   0.074 -2.5820  0.8219 -0.1718
 1492TIP3    H2 4441   6.395   6.405   0.114  2.3014  1.1909 -0.0980
 1493TIP3   OH2 4442   2.422   6.740   2.277  0.0005 -0.2698 -0.1025
 1493TIP3    H1 4443   2.453   6.797   2.207 -3.6672  0.1126 -1.5928
 1493TIP3    H2 4444   2.400   6.658   2.234 -0.1400 -0.8622  1.0498
 1494TIP3   OH2 4445   3.788   5.822   3.456  0.1892  0.2256 -0.3083
 1494TIP3    H1 4446   3.727   5.760   3.415  0.0213  0.1912 -0.0131
 1494TIP3    H2 4447   3.841   5.768   3.516 -0.1823  0.4116  0.1997
 1495TIP3   OH2 4448   6.389   0.504   2.386 -0.5046  0.5070 -0.1195
 1495TIP3    H1 4449   6.422   0.486   2.474 -0.1184 -0.6885 -0.4929
 1495TIP3    H2 4450   6.370   0.418   2.349 -2.2820  1.0569 -0.6083
 1496TIP3   OH2 4451   0.817   2.271   2.152 -0.0373 -0.1113 -0.0511
 1496TIP3    H1 4452   0.830   2.177   2.163 -1.1150 -0.2192  0.3922
 1496TIP3    H2 4453   0.895   2.310   2.191 -0.5470 -0.7576  1.7000
 1497TIP3   OH2 4454   5.600   5.619   0.103  0.4126  0.0148 -0.4011
 1497TIP3    H1 4455   5.517   5.609   0.149 -0.1392 -0.8573 -1.5197
 1497TIP3    H2 4456   5.578   5.603   0.011  1.7186  0.3309 -0.7894
 1498TIP3   OH2 4457   4.185   3.113   0.667 -0.1159 -0.0171  1.0914
 1498TIP3    H1 4458   4.097   3.148   0.660 -1.0313 -2.4179 -1.1687
 1498TIP3    H2 4459   4.211   3.093   0.577  1.3231 -2.4843  1.9300
 1499TIP3   OH2 4460   5.828   1.424   0.298 -0.7248  0.0889 -0.6112
 1499TIP3    H1 4461   5.889   1.427   0.372  0.7599  0.8806 -1.8335
 1499TIP3    H2 4462   5.794   1.334   0.300  0.3112 -0.3114  0.2170
 1500TIP3   OH2 4463   4.408   5.099   5.123 -0.0054 -0.3317 -0.2249
 1500TIP3    H1 4464   4.425   5.050   5.043 -1.0611  1.2540 -1.5002
 1500TIP3    H2 4465   4.422   5.190   5.098 -1.8629  0.3275  0.9379
 1501TIP3   OH2 4466   2.923   3.353   1.313  1.2368  0.0607  0.0719
 1501TIP3    H1 4467   2.997   3.292   1.308  2.3625  1.2791  0.9008
 1501TIP3    H2 4468   2.898   3.352   1.406 -0.7727 -1.3771 -0.4074
 1502TIP3   OH2 4469   2.837   4.443   3.701 -0.5933 -0.2275  0.4817
 1502TIP3    H1 4470   2.885   4.469   3.780  0.2673 -0.8744  0.1812
 1502TIP3    H2 4471   2.801   4.357   3.722 -2.3105  0.5714  0.9837
 1503TIP3   OH2 4472   6.133   0.409   3.901 -0.0518  0.3290 -0.2863
 1503TIP3    H1 4473   6.155   0.427   3.810 -0.6224  0.5349 -0.3848
 1503TIP3    H2 4474   6.214   0.424   3.949  0.4806 -0.6100 -0.8661
 1504TIP3   OH2 4475   0.187   3.559   0.864 -0.4371  0.5136 -0.2585
 1504TIP3    H1 4476   0.152   3.474   0.887  2.3877 -0.3310  1.3709
 1504TIP3    H2 4477   0.116   3.621   0.883 -1.8432 -1.2496  0.4519
 1505TIP3   OH2 4478   1.123   2.281   4.198  0.2017 -0.2433 -0.3083
 1505TIP3    H1 4479   1.032   2.310   4.193  0.0726 -0.4683  0.5479
 1505TIP3    H2 4480   1.168   2.328   4.128 -0.9914 -1.7384 -2.1801
 1506TIP3   OH2 4481   4.895   4.976   3.171 -0.3085 -0.2129  0.4738
 1506TIP3    H1 4482   4.846   4.920   3.111  3.0954 -1.8558 -1.0869
 1506TIP3    H2 4483   4.880   5.065   3.139 -0.5501 -0.8543 -1.2957
 1507TIP3   OH2 4484   1.620   3.331   2.589 -0.2447  0.4751  0.4400
 1507TIP3    H1 4485   1.693   3.377   2.548 -0.7585  0.8198 -0.1036
 1507TIP3    H2 4486   1.660   3.279   2.659  0.3355  1.8684  1.1700
 1508TIP3   OH2 4487   0.501   0.374   5.748 -0.0097  0.2721 -0.4235
 1508TIP3    H1 4488   0.511   0.356   5.655 -2.1229  1.1833 -0.8800
 1508TIP3    H2 4489   0.479   0.467   5.752 -0.2614  0.1693  0.9562
 1509TIP3   OH2 4490   4.398   5.119   1.084  0.3994  0.0192 -0.2449
 1509TIP3    H1 4491   4.460   5.066   1.033  1.3766  0.1829  0.7275
 1509TIP3    H2 4492   4.317   5.117   1.033 -0.0716 -3.5383  0.3552
 1510TIP3   OH2 4493   1.661   1.329   4.266  0.2591 -0.1295  0.0890
 1510TIP3    H1 4494   1.721   1.307   4.336 -0.6475  1.4856  1.4410
 1510TIP3    H2 4495   1.581   1.280   4.286 -0.2775  0.9585  0.6632
 1511TIP3   OH2 4496   0.267   2.566   5.629 -0.5025  0.1583  0.2001
 1511TIP3    H1 4497   0.299   2.477   5.642  0.3180  0.4256  0.1123
 1511TIP3    H2 4498   0.345   2.616   5.602 -0.6180  1.2124  1.6720
 1512TIP3   OH2 4499   4.117   0.324   4.659 -0.3853 -0.5217  0.0386
 1512TIP3    H1 4500   4.116   0.327   4.755 -1.4325  0.7592  0.0216
 1512TIP3    H2 4501   4.170   0.399   4.633  1.2822 -1.7892 -0.4191
 1513TIP3   OH2 4502   1.184   5.475   1.780  0.5067 -0.0156 -0.1149
 1513TIP3    H1 4503   1.271   5.440   1.762  0.2271 -0.4532 -0.6803
 1513TIP3    H2 4504   1.197   5.569   1.788  0.7651  0.1785 -2.2053
 1514TIP3   OH2 4505   5.771   3.808   3.240  0.6878 -0.9497 -0.4940
 1514TIP3    H1 4506   5.741   3.726   3.201  1.3151 -0.7144 -1.5022
 1514TIP3    H2 4507   5.866   3.797   3.247  0.5767 -1.0649  1.1790
 1515TIP3   OH2 4508   1.647   1.672   4.829  0.2720 -0.0035 -0.1999
 1515TIP3    H1 4509   1.692   1.608   4.773  0.1465 -0.2927  0.0302
 1515TIP3    H2 4510   1.693   1.754   4.813  0.1900 -0.0692 -0.7865
 1516TIP3   OH2 4511   4.915   1.514   0.623  0.2429 -0.0468  0.2971
 1516TIP3    H1 4512   5.007   1.501   0.602  0.2483  1.3122 -0.6189
 1516TIP3    H2 4513   4.911   1.599   0.667 -0.5620 -0.1230  0.4030
 1517TIP3   OH2 4514   1.896   2.334   0.017 -0.0158  0.1210  0.5612
 1517TIP3    H1 4515   1.960   2.341   0.088  1.7772 -1.7938 -0.7408
 1517TIP3    H2 4516   1.927   2.395  -0.049 -0.0507 -0.1375  0.3032
 1518TIP3   OH2 4517   5.476   0.468   5.349  0.7476  0.0501 -1.0371
 1518TIP3    H1 4518   5.463   0.505   5.261 -0.3832 -1.3342 -1.4862
 1518TIP3    H2 4519   5.422   0.522   5.406  1.1315  0.6814 -1.2598
 1519TIP3   OH2 4520   1.445   5.820   4.443 -1.0465  0.0305  0.4508
 1519TIP3    H1 4521   1.484   5.749   4.392  0.9442  2.2346 -1.3135
 1519TIP3    H2 4522   1.405   5.776   4.518  0.2572 -2.9034 -0.4185
 1520TIP3   OH2 4523   4.899   0.387   2.902 -0.2233  0.0568 -0.7931
 1520TIP3    H1 4524   4.982   0.387   2.948 -0.3819  1.5299 -0.4671
 1520TIP3    H2 4525   4.856   0.305   2.929  0.1107  0.4053  0.8775
 1521TIP3   OH2 4526   0.813   6.037   2.594  0.1510 -0.1536 -0.2709
 1521TIP3    H1 4527   0.884   6.078   2.644 -0.4087  0.0582  0.3655
 1521TIP3    H2 4528   0.852   5.958   2.556 -0.0634 -1.7677  2.6458
 1522TIP3   OH2 4529   1.854   4.033   2.934  0.7014 -0.1286 -0.1723
 1522TIP3    H1 4530   1.838   3.940   2.950 -0.3352  0.1387  0.4449
 1522TIP3    H2 4531   1.782   4.077   2.979  0.1286  0.8748 -1.9773
 1523TIP3   OH2 4532   3.507   1.097   1.696  0.1239 -0.3349  0.4334
 1523TIP3    H1 4533   3.470   1.009   1.685  0.1415 -0.7454  2.8905
 1523TIP3    H2 4534   3.593   1.082   1.736 -0.1195  0.7942  1.4390
 1524TIP3   OH2 4535   3.047   3.327   5.307 -0.2850  0.4651  0.4354
 1524TIP3    H1 4536   2.964   3.373   5.298 -1.1144 -1.0422  0.0609
 1524TIP3    H2 4537   3.053   3.306   5.400 -0.1752  0.8373  0.5130
 1525TIP3   OH2 4538   3.810   3.453   5.350  0.5984 -0.8105  0.1660
 1525TIP3    H1 4539   3.900   3.446   5.383  0.7067  2.3453  0.8482
 1525TIP3    H2 4540   3.817   3.431   5.257  2.5797  1.4863 -0.3363
 1526TIP3   OH2 4541   6.439   5.657   2.915 -0.1419 -0.2123  0.0790
 1526TIP3    H1 4542   6.445   5.562   2.926 -0.8867 -0.2109  0.5759
 1526TIP3    H2 4543   6.511   5.679   2.856  0.6300 -0.9600  0.7139
 1527TIP3   OH2 4544   0.459   2.168   5.278  0.1414  0.0382 -0.0750
 1527TIP3    H1 4545   0.481   2.225   5.352  4.6644 -1.9166  0.3973
 1527TIP3    H2 4546   0.440   2.229   5.206  0.3736  2.0632  1.4888
 1528TIP3   OH2 4547   6.732   6.376   5.346  0.4638 -0.0676 -0.3405
 1528TIP3    H1 4548   6.676   6.454   5.345 -0.1465 -0.4850 -2.2624
 1528TIP3    H2 4549   6.791   6.390   5.420 -1.4382  0.9022  1.0716
 1529TIP3   OH2 4550   2.056   0.075   2.427 -0.2419  0.2331  0.1128
 1529TIP3    H1 4551   2.051  -0.007   2.476 -0.3673 -0.3373 -0.8169
 1529TIP3    H2 4552   2.141   0.112   2.451 -0.6914  0.4349  1.4448
 1530TIP3   OH2 4553   3.734   4.205   4.218  0.1142  0.0451 -0.9703
 1530TIP3    H1 4554   3.820   4.192   4.178  0.2819  2.9307 -1.7207
 1530TIP3    H2 4555   3.732   4.297   4.242 -1.9795 -0.4447  1.0376
 1531TIP3   OH2 4556   1.062   5.458   5.777 -0.6312  0.2991  0.6863
 1531TIP3    H1 4557   0.982   5.497   5.813 -0.9637  0.6277 -0.3538
 1531TIP3    H2 4558   1.102   5.411   5.850 -2.3767 -0.8420  0.9658
 1532TIP3   OH2 4559   5.791   1.978   3.927 -0.0378  0.5385  0.4387
 1532TIP3    H1 4560   5.859   2.026   3.880  0.7297 -1.9163 -1.1605
 1532TIP3    H2 4561   5.825   1.970   4.016  0.4225  1.7045  0.3917
 1533TIP3   OH2 4562   0.054   1.571   5.607  0.0853  0.5109 -0.5672
 1533TIP3    H1 4563   0.136   1.566   5.656 -0.4051 -0.7652  0.1666
 1533TIP3    H2 4564  -0.013   1.589   5.673 -0.8585 -3.0552 -0.3524
 1534TIP3   OH2 4565   1.978   4.770   4.466  0.8060 -0.0079 -0.0865
 1534TIP3    H1 4566   2.000   4.723   4.547 -3.0377  0.1390  1.2729
 1534TIP3    H2 4567   1.894   4.733   4.440  0.3792  2.2360 -2.1924
 1535TIP3   OH2 4568   5.225   6.689   2.610 -0.4991  0.3423 -0.2390
 1535TIP3    H1 4569   5.202   6.700   2.702 -0.6886 -1.3145 -0.0459
 1535TIP3    H2 4570   5.314   6.725   2.602  0.3613 -1.3281  1.0968
 1536TIP3   OH2 4571   4.325   0.175   1.619  0.5865  0.6674 -0.6376
 1536TIP3    H1 4572   4.400   0.126   1.585 -0.4774 -1.1090 -0.5396
 1536TIP3    H2 4573   4.307   0.133   1.704  0.8087  2.5079  0.3752
 1537TIP3   OH2 4574   5.918   0.352   1.188 -0.5134 -0.8872  0.1516
 1537TIP3    H1 4575   5.864   0.280   1.221 -1.4446 -0.9323 -1.3503
 1537TIP3    H2 4576   5.854   0.413   1.150  0.3656  0.0687  0.1763
 1538TIP3   OH2 4577   4.868   6.324   1.144 -0.1292 -0.0870 -0.2198
 1538TIP3    H1 4578   4.822   6.371   1.074 -0.8177 -1.4858 -0.7457
 1538TIP3    H2 4579   4.798   6.293   1.202  0.3977  0.5766  0.7941
 1539TIP3   OH2 4580   2.273   1.656   3.048 -0.4617 -0.3789  0.3318
 1539TIP3    H1 4581   2.241   1.680   2.961  1.6656 -0.1156 -0.4447
 1539TIP3    H2 4582   2.351   1.603   3.031  1.6460  1.9067  1.9701
 1540TIP3   OH2 4583   6.482   3.578   2.737  0.3752  0.0423  0.7302
 1540TIP3    H1 4584   6.403   3.557   2.788 -0.6726  1.3453 -0.2721
 1540TIP3    H2 4585   6.516   3.658   2.777  1.1658 -0.4651  1.0997
 1541TIP3   OH2 4586   5.240   0.807   4.848 -0.5187 -0.2686 -0.0142
 1541TIP3    H1 4587   5.278   0.819   4.935 -1.4965 -1.3993  0.6043
 1541TIP3    H2 4588   5.147   0.789   4.865 -0.8447  0.0563 -1.3318
 1542TIP3   OH2 4589   2.708   0.979   4.811 -0.3202  0.1572 -0.0420
 1542TIP3    H1 4590   2.791   1.022   4.830  1.0550 -1.9502 -0.9940
 1542TIP3    H2 4591   2.644   1.051   4.809  1.3238  1.7611  1.3148
 1543TIP3   OH2 4592   0.129   0.973   3.407  0.4319  0.1983 -0.2973
 1543TIP3    H1 4593   0.188   1.047   3.393 -0.2620  0.9017  0.4183
 1543TIP3    H2 4594   0.188   0.898   3.416  1.6128  1.3225  3.8417
 1544TIP3   OH2 4595   5.896   1.526   3.379 -0.4615  0.1978 -0.0145
 1544TIP3    H1 4596   5.822   1.505   3.436  0.3633  0.7846  1.3071
 1544TIP3    H2 4597   5.870   1.492   3.293 -2.5030  0.8680  0.2804
 1545TIP3   OH2 4598   3.083   1.535   1.042 -0.2264 -0.3980  0.1454
 1545TIP3    H1 4599   3.033   1.546   0.961 -1.1250  0.6126  0.8195
 1545TIP3    H2 4600   3.162   1.587   1.028 -1.3952  1.6108  0.7400
 1546TIP3   OH2 4601   4.102   5.529   3.074 -0.3780  0.1452  0.3819
 1546TIP3    H1 4602   4.061   5.557   3.156 -0.4710  0.7979  0.1228
 1546TIP3    H2 4603   4.112   5.610   3.024 -0.7834 -0.3089 -0.4547
 1547TIP3   OH2 4604   6.534   4.413   1.281 -0.1904 -0.4939  0.1263
 1547TIP3    H1 4605   6.593   4.341   1.303 -0.2135 -0.4217  0.4335
 1547TIP3    H2 4606   6.567   4.487   1.331 -0.5471 -0.4554  0.3117
 1548TIP3   OH2 4607   1.548   5.129   1.891  0.2332 -0.0953  0.1905
 1548TIP3    H1 4608   1.641   5.109   1.901  0.1758 -0.9916 -0.8537
 1548TIP3    H2 4609   1.511   5.115   1.978  0.4574 -3.4227 -0.1287
 1549TIP3   OH2 4610   3.536   4.453   3.723 -0.4846 -0.1769  0.0424
 1549TIP3    H1 4611   3.577   4.381   3.771 -1.7625 -2.8361 -2.5440
 1549TIP3    H2 4612   3.608   4.491   3.672 -0.1218 -0.9287 -0.0321
 1550TIP3   OH2 4613   1.595   4.441   0.021  0.3584  0.2342  0.1581
 1550TIP3    H1 4614   1.687   4.435   0.048  0.7308 -0.6171 -1.1935
 1550TIP3    H2 4615   1.596   4.506  -0.050  0.0850 -0.4796 -0.5049
 1551TIP3   OH2 4616   6.589   0.583   5.245  0.2533 -0.2807 -0.2523
 1551TIP3    H1 4617   6.520   0.517   5.255 -0.2789  0.5048  1.8817
 1551TIP3    H2 4618   6.554   0.644   5.180 -0.4892 -0.6006 -0.1635
 1552TIP3   OH2 4619   4.038   3.121   2.024 -0.2258  0.5134 -0.6597
 1552TIP3    H1 4620   4.018   3.191   2.086  0.2515 -0.4231  0.6012
 1552TIP3    H2 4621   4.115   3.153   1.976 -0.8723  1.4363 -1.1070
 1553TIP3   OH2 4622   3.199   5.833   1.570  0.0952  0.1555  0.2932
 1553TIP3    H1 4623   3.251   5.869   1.642 -1.0085  0.1692  1.1118
 1553TIP3    H2 4624   3.108   5.844   1.599 -0.3460 -0.4155 -0.8356
 1554TIP3   OH2 4625   3.657   1.711   3.967  0.1142  0.2421 -0.1791
 1554TIP3    H1 4626   3.699   1.794   3.992 -0.3467  0.1137  1.1246
 1554TIP3    H2 4627   3.625   1.726   3.878  0.9294  1.1109 -0.3491
 1555TIP3   OH2 4628   3.685   1.211   3.409 -0.0115 -0.2923  0.2095
 1555TIP3    H1 4629   3.742   1.271   3.456  1.5729 -0.5788 -1.2387
 1555TIP3    H2 4630   3.619   1.267   3.368  1.0058  0.4254 -0.5123
 1556TIP3   OH2 4631   2.833   4.460   3.343  0.3629  0.5391 -0.8148
 1556TIP3    H1 4632   2.738   4.469   3.353  0.0860 -1.6052 -0.9846
 1556TIP3    H2 4633   2.845   4.418   3.258  1.2508 -1.6488  0.3148
 1557TIP3   OH2 4634   1.550   4.894   2.283  0.0413 -0.8730 -0.2912
 1557TIP3    H1 4635   1.490   4.951   2.234 -0.8597  0.4286  2.1478
 1557TIP3    H2 4636   1.520   4.805   2.264 -1.8253 -0.3074 -0.2006
 1558TIP3   OH2 4637   2.617   3.070   3.429  0.3437 -0.0261 -0.5205
 1558TIP3    H1 4638   2.560   2.996   3.406  1.3790 -0.3683 -2.0869
 1558TIP3    H2 4639   2.592   3.140   3.369  0.8308  0.1834 -0.4831
 1559TIP3   OH2 4640   4.786   5.088   0.818  0.7675 -0.1037  0.3516
 1559TIP3    H1 4641   4.875   5.124   0.810  1.0582 -1.0113 -0.9124
 1559TIP3    H2 4642   4.781   5.023   0.748 -1.6035  1.3666 -0.9654
 1560TIP3   OH2 4643   5.263   6.406   0.593  0.2380  0.0005 -0.0793
 1560TIP3    H1 4644   5.286   6.497   0.613 -0.4545 -0.0638  1.1381
 1560TIP3    H2 4645   5.222   6.409   0.507 -0.3877  0.9457  0.2398
 1561TIP3   OH2 4646   1.810   0.987   2.598 -0.3230 -0.1741 -0.0902
 1561TIP3    H1 4647   1.857   1.070   2.595  1.7343 -1.2354  1.0409
 1561TIP3    H2 4648   1.874   0.922   2.571 -1.4265 -1.5720  0.5285
 1562TIP3   OH2 4649   4.164   3.131   4.906 -0.6837 -0.3896  0.3526
 1562TIP3    H1 4650   4.250   3.148   4.944  0.4894 -1.8752 -1.4909
 1562TIP3    H2 4651   4.128   3.219   4.890  0.9962  0.2840  0.0658
 1563TIP3   OH2 4652   0.529   5.660   3.465 -0.1064  0.2618 -0.0990
 1563TIP3    H1 4653   0.463   5.720   3.500  0.0462  0.3271  0.0754
 1563TIP3    H2 4654   0.526   5.585   3.524 -0.6287 -0.1161 -0.5821
 1564TIP3   OH2 4655   3.661   6.745   0.322 -0.1723 -0.0226  0.2821
 1564TIP3    H1 4656   3.630   6.709   0.405  0.9712 -3.0561 -0.4941
 1564TIP3    H2 4657   3.596   6.716   0.258  0.1477  0.3332 -0.2125
 1565TIP3   OH2 4658   3.940   1.059   3.348  0.1150 -0.1408 -0.0849
 1565TIP3    H1 4659   3.912   1.004   3.275  1.9532  1.1056 -1.8225
 1565TIP3    H2 4660   3.874   1.128   3.352  0.6561  0.4749 -1.4201
 1566TIP3   OH2 4661   3.322   1.294   1.729 -0.1839 -0.3013 -0.8855
 1566TIP3    H1 4662   3.414   1.270   1.723  0.4505  1.5364  0.4966
 1566TIP3    H2 4663   3.323   1.386   1.754 -2.3701 -0.6874  0.9159
 1567TIP3   OH2 4664   6.543   3.886   5.656  0.3629 -0.1721 -0.1478
 1567TIP3    H1 4665   6.597   3.813   5.627  1.3301  0.2483  0.5428
 1567TIP3    H2 4666   6.532   3.941   5.578  0.6732 -0.4128 -0.3627
 1568TIP3   OH2 4667   4.988   2.211   3.773 -0.2104 -0.1992 -0.4885
 1568TIP3    H1 4668   4.973   2.210   3.678  0.9383  1.7881 -0.7522
 1568TIP3    H2 4669   5.059   2.148   3.787  0.8253  0.7600 -1.2354
 1569TIP3   OH2 4670   3.311   6.475   2.019 -0.2661 -0.9276  0.2717
 1569TIP3    H1 4671   3.379   6.409   2.033  0.0847 -0.6029  0.1165
 1569TIP3    H2 4672   3.248   6.433   1.962  1.3920 -0.2008 -2.2731
 1570TIP3   OH2 4673   3.221   2.356   0.095  0.2034  0.0043 -0.0625
 1570TIP3    H1 4674   3.288   2.410   0.054 -0.6835  0.8916 -0.3666
 1570TIP3    H2 4675   3.141   2.374   0.046 -0.4918 -0.2564  0.9335
 1571TIP3   OH2 4676   5.158   5.668   4.893  0.0222  0.3319 -0.7503
 1571TIP3    H1 4677   5.102   5.745   4.904  0.0353  0.3906 -1.0880
 1571TIP3    H2 4678   5.101   5.593   4.912  0.1459  0.4440  0.1030
 1572TIP3   OH2 4679   5.452   0.810   0.334 -0.5619 -0.0323  0.0853
 1572TIP3    H1 4680   5.465   0.727   0.380  0.2360 -0.3114 -0.6136
 1572TIP3    H2 4681   5.361   0.806   0.303 -0.9773 -0.0082  1.2674
 1573TIP3   OH2 4682   5.493   2.583   5.125  0.2741 -0.1815 -0.3828
 1573TIP3    H1 4683   5.583   2.555   5.109  0.2234 -0.5139 -0.0988
 1573TIP3    H2 4684   5.439   2.520   5.076  0.2335  0.7409 -1.5580
 1574TIP3   OH2 4685   5.592   5.171   3.556 -0.2126  0.1627  0.1939
 1574TIP3    H1 4686   5.566   5.215   3.475 -0.6276  1.2554  0.9064
 1574TIP3    H2 4687   5.577   5.235   3.625 -0.5370 -0.9863  1.2409
 1575TIP3   OH2 4688   0.446   5.647   1.127 -0.6680  0.2656 -0.0839
 1575TIP3    H1 4689   0.397   5.646   1.210  1.9969  0.2866  1.6242
 1575TIP3    H2 4690   0.504   5.571   1.134  1.5862  1.8455 -0.6037
 1576TIP3   OH2 4691   0.810   2.643   3.352  0.1927 -0.3640  0.4999
 1576TIP3    H1 4692   0.893   2.623   3.394  0.6078 -1.1569 -0.6394
 1576TIP3    H2 4693   0.765   2.559   3.346 -0.9110  0.1270  1.5142
 1577TIP3   OH2 4694   1.234   2.944   3.821  0.2781 -0.0669  0.4644
 1577TIP3    H1 4695   1.291   3.019   3.840  0.1001 -0.1808  1.5102
 1577TIP3    H2 4696   1.146   2.975   3.839  0.1760 -0.4333  0.6104
 1578TIP3   OH2 4697   1.015   2.983   4.590 -0.2136 -0.4474 -0.3427
 1578TIP3    H1 4698   1.051   2.995   4.678 -2.0927 -0.6446  0.4817
 1578TIP3    H2 4699   1.068   2.913   4.552  0.6953 -0.2775  0.5655
 1579TIP3   OH2 4700   2.964   1.093   4.350 -0.5655 -0.6432 -0.1477
 1579TIP3    H1 4701   2.959   1.076   4.444  0.4229 -2.3171 -0.3509
 1579TIP3    H2 4702   3.056   1.111   4.333 -1.0663  1.9751 -0.4941
 1580TIP3   OH2 4703   3.800   5.458   1.868 -0.0921  0.6706 -0.4061
 1580TIP3    H1 4704   3.855   5.532   1.841  0.1438  0.2808 -1.0213
 1580TIP3    H2 4705   3.840   5.426   1.949  0.2848  0.7160 -0.5718
 1581TIP3   OH2 4706   0.572   3.116   1.675  0.1449  0.4986  0.8129
 1581TIP3    H1 4707   0.493   3.130   1.728  0.5999  0.7757  1.4333
 1581TIP3    H2 4708   0.629   3.190   1.697  0.2518  0.7374 -0.2389
 1582TIP3   OH2 4709   6.242   6.277   3.246 -0.0133  0.2338 -0.1980
 1582TIP3    H1 4710   6.270   6.297   3.157 -0.0779 -0.5967 -0.4177
 1582TIP3    H2 4711   6.287   6.195   3.267 -0.9679 -0.2385  0.0618
 1583TIP3   OH2 4712   4.857   3.094   5.595 -0.2766  0.7077 -0.2017
 1583TIP3    H1 4713   4.774   3.046   5.591 -0.1355  0.5334 -1.4941
 1583TIP3    H2 4714   4.835   3.184   5.571 -0.0001  0.5157 -1.2124
 1584TIP3   OH2 4715   2.364  -0.023   2.296  0.4528 -0.8497  0.0220
 1584TIP3    H1 4716   2.299  -0.001   2.230 -1.7891 -4.1464  0.8873
 1584TIP3    H2 4717   2.344   0.036   2.369 -0.3843 -0.6148 -0.3816
 1585TIP3   OH2 4718   3.705   5.326   0.647 -0.2036 -0.3255 -0.0508
 1585TIP3    H1 4719   3.717   5.413   0.608  0.8634 -1.2186 -1.8710
 1585TIP3    H2 4720   3.618   5.298   0.617 -0.1307 -0.2878 -0.2980
 1586TIP3   OH2 4721   3.555   0.386   4.477  0.0040  1.3259  0.0183
 1586TIP3    H1 4722   3.485   0.359   4.418  0.1961  0.3227  0.2221
 1586TIP3    H2 4723   3.613   0.439   4.423 -0.2439  1.0940 -0.4834
 1587TIP3   OH2 4724   3.088   5.974   4.797  0.2925 -0.2212  0.3303
 1587TIP3    H1 4725   3.018   5.983   4.862 -0.6334  1.1149 -0.7749
 1587TIP3    H2 4726   3.157   5.926   4.842 -0.0013  1.2999  2.5496
 1588TIP3   OH2 4727   0.281   6.301   5.757 -0.2953  0.1773  0.3595
 1588TIP3    H1 4728   0.375   6.303   5.777  0.2667 -1.1200 -1.7815
 1588TIP3    H2 4729   0.269   6.367   5.689 -0.0134 -2.3184 -2.3356
 1589TIP3   OH2 4730   5.781   1.269   2.373 -0.3457  0.0619  0.3421
 1589TIP3    H1 4731   5.864   1.308   2.345  1.1764 -2.0346  1.6661
 1589TIP3    H2 4732   5.777   1.185   2.329 -1.8923  0.1963  0.1600
 1590TIP3   OH2 4733   6.376   2.811   1.021  0.0817 -0.6839 -0.2963
 1590TIP3    H1 4734   6.440   2.835   1.089  0.9810 -0.3222 -1.2465
 1590TIP3    H2 4735   6.328   2.892   1.004 -1.3101 -1.1597  1.0606
 1591TIP3   OH2 4736   5.684   2.098   0.845  0.0666 -0.1881 -0.6198
 1591TIP3    H1 4737   5.589   2.108   0.838 -0.1481 -1.1325  0.5715
 1591TIP3    H2 4738   5.700   2.008   0.817  0.4681 -0.3887  0.2259
 1592TIP3   OH2 4739   3.360   6.403   2.363 -0.1179 -0.0610  0.6300
 1592TIP3    H1 4740   3.443   6.396   2.410 -0.6500  1.3662  1.8533
 1592TIP3    H2 4741   3.381   6.373   2.274  2.2459  2.1902  0.2899
 1593TIP3   OH2 4742   7.043   5.786   5.859  0.4682 -0.0004 -0.1957
 1593TIP3    H1 4743   7.125   5.820   5.822 -0.6072  0.6672 -2.0783
 1593TIP3    H2 4744   7.021   5.711   5.804 -1.3080  1.1611 -1.1300
 1594TIP3   OH2 4745   0.858   3.284   3.193 -0.0920 -0.6791  0.1031
 1594TIP3    H1 4746   0.800   3.214   3.224  0.8037 -1.7871 -0.6560
 1594TIP3    H2 4747   0.919   3.299   3.266  2.3823 -3.6868 -1.1060
 1595TIP3   OH2 4748   0.598   3.380   4.635 -0.1881 -0.0311  0.6694
 1595TIP3    H1 4749   0.532   3.338   4.581 -1.2495  0.0530  1.8389
 1595TIP3    H2 4750   0.669   3.317   4.640  0.1877  0.1977 -1.2529
 1596TIP3   OH2 4751   0.649   4.760   1.183 -0.3635  1.0033 -0.1640
 1596TIP3    H1 4752   0.651   4.789   1.274 -1.5619  2.0212 -0.4357
 1596TIP3    H2 4753   0.593   4.824   1.139  1.1520  1.2080 -1.8655
 1597TIP3   OH2 4754   1.956   3.297   3.482  0.3920  0.2052 -0.1053
 1597TIP3    H1 4755   1.882   3.241   3.455  2.4335 -2.0822 -1.3219
 1597TIP3    H2 4756   1.983   3.260   3.566  0.3172  0.8974  0.2265
 1598TIP3   OH2 4757   6.030   0.482   0.436  0.5892 -0.7003 -0.1428
 1598TIP3    H1 4758   6.125   0.495   0.427  0.4272 -0.3949 -1.7112
 1598TIP3    H2 4759   5.995   0.568   0.455  0.3725 -0.2056 -2.4287
 1599TIP3   OH2 4760   4.968   1.983   1.177  0.4343 -0.4544  0.1289
 1599TIP3    H1 4761   4.958   2.065   1.226  0.1028  0.3028 -1.1794
 1599TIP3    H2 4762   5.031   1.933   1.229  0.1863  0.3592  1.2791
 1600TIP3   OH2 4763   6.781   5.398   4.195 -0.2067  0.0903 -0.6741
 1600TIP3    H1 4764   6.718   5.406   4.267 -1.7267 -1.0754 -1.7897
 1600TIP3    H2 4765   6.748   5.457   4.128 -0.6729 -1.1813 -1.6082
 1601TIP3   OH2 4766   6.513   4.924   3.926  0.0240  0.3163 -0.3934
 1601TIP3    H1 4767   6.420   4.929   3.903 -0.1140  0.5578  0.1864
 1601TIP3    H2 4768   6.530   5.008   3.969  0.7079  0.5972 -1.1975
 1602TIP3   OH2 4769   0.527   0.668   3.652  0.0490 -0.1439 -0.2805
 1602TIP3    H1 4770   0.576   0.660   3.570  0.2508 -1.9198 -0.0321
 1602TIP3    H2 4771   0.584   0.630   3.719 -0.3848  0.6683  0.5849
 1603TIP3   OH2 4772   6.272   1.628   3.758  0.0378 -0.1878  0.2322
 1603TIP3    H1 4773   6.281   1.717   3.792 -1.1719 -0.0946  0.3294
 1603TIP3    H2 4774   6.293   1.636   3.665 -1.9133  0.5905 -0.1895
 1604TIP3   OH2 4775   6.814   2.576   0.250  0.4024  0.0781  0.0052
 1604TIP3    H1 4776   6.748   2.580   0.180  0.2950 -0.6060  0.0554
 1604TIP3    H2 4777   6.807   2.486   0.284  0.1290  0.5382  1.2170
 1605TIP3   OH2 4778   6.277   3.165   5.785  0.7956  0.1155 -0.2063
 1605TIP3    H1 4779   6.282   3.160   5.880 -2.7193 -0.0610  0.0787
 1605TIP3    H2 4780   6.276   3.074   5.756 -3.9489 -0.1632  0.2001
 1606TIP3   OH2 4781   4.972   0.768   3.021  0.3350 -0.5265 -0.4151
 1606TIP3    H1 4782   5.051   0.757   3.074  1.1168  3.7157 -0.3434
 1606TIP3    H2 4783   4.995   0.734   2.935  2.1826  0.2915 -0.2924
 1607TIP3   OH2 4784   4.759   5.698   2.476 -0.3187  0.0930  0.6602
 1607TIP3    H1 4785   4.682   5.643   2.457 -1.0068  0.6868  1.6347
 1607TIP3    H2 4786   4.723   5.786   2.485  0.6399  0.5530  0.0794
 1608TIP3   OH2 4787   5.588   3.460   3.559  0.4248 -0.2701 -0.1409
 1608TIP3    H1 4788   5.622   3.429   3.475 -0.3226 -0.8894 -0.2260
 1608TIP3    H2 4789   5.659   3.512   3.596  0.6833  0.2140 -1.2688
 1609TIP3   OH2 4790   4.805   4.438   3.570  0.4052  0.0840  0.1674
 1609TIP3    H1 4791   4.825   4.457   3.479 -2.4378  0.6129 -0.4644
 1609TIP3    H2 4792   4.722   4.391   3.567  0.9389 -1.1484  2.4439
 1610TIP3   OH2 4793   6.007   3.723   3.161 -0.1997  0.6746  0.2815
 1610TIP3    H1 4794   5.996   3.670   3.083 -2.0167  0.9622  0.3101
 1610TIP3    H2 4795   6.000   3.814   3.131 -0.7405  0.7937  0.7472
 1611TIP3   OH2 4796   5.546   4.205   0.970 -0.7084 -0.1941  0.6310
 1611TIP3    H1 4797   5.630   4.246   0.946 -0.5730  0.6849  2.4478
 1611TIP3    H2 4798   5.542   4.213   1.065 -2.1360 -1.6835  0.7309
 1612TIP3   OH2 4799   4.684   3.078   3.804  0.2296 -0.3580 -0.3073
 1612TIP3    H1 4800   4.774   3.058   3.779  0.0137 -2.1732  0.2160
 1612TIP3    H2 4801   4.664   3.160   3.758  1.5641 -0.8293 -1.8327
 1613TIP3   OH2 4802   4.431   6.361   5.527  0.0692  0.0469  0.0805
 1613TIP3    H1 4803   4.367   6.317   5.471  1.1545 -2.3836  0.6272
 1613TIP3    H2 4804   4.396   6.353   5.615  0.3367  0.1968  0.2002
 1614TIP3   OH2 4805   4.487   4.071   3.736 -0.6584  0.0568 -0.3461
 1614TIP3    H1 4806   4.400   4.094   3.767 -0.5139  1.9325 -1.1947
 1614TIP3    H2 4807   4.497   3.979   3.758 -3.8872 -0.9751 -2.5850
 1615TIP3   OH2 4808   3.563   6.345   2.942 -0.2505 -0.2057  0.4960
 1615TIP3    H1 4809   3.559   6.258   2.983  1.7070 -0.2577  0.6338
 1615TIP3    H2 4810   3.580   6.328   2.850  3.9901 -0.0399  1.0601
 1616TIP3   OH2 4811   6.737   2.650   1.326  0.1254  0.4056  0.0373
 1616TIP3    H1 4812   6.751   2.639   1.232  0.5229 -0.3052  0.1652
 1616TIP3    H2 4813   6.826   2.662   1.362  0.0290  0.1232  0.3808
 1617TIP3   OH2 4814   3.072   0.137   0.278 -0.3487  0.2602 -0.2735
 1617TIP3    H1 4815   3.019   0.163   0.354 -2.3236 -1.2235 -1.0489
 1617TIP3    H2 4816   3.007   0.111   0.212  1.3570 -0.1426 -1.8626
 1618TIP3   OH2 4817   6.467   3.457   5.166 -0.2316 -0.2260  0.1715
 1618TIP3    H1 4818   6.410   3.472   5.241  0.5079  1.7658  0.4099
 1618TIP3    H2 4819   6.416   3.404   5.106 -1.9961  0.7282  0.7677
 1619TIP3   OH2 4820   6.685   3.663   2.300  0.5503  0.0297 -0.2444
 1619TIP3    H1 4821   6.668   3.584   2.352 -0.6838  0.3729 -0.1203
 1619TIP3    H2 4822   6.781   3.670   2.300  0.6448 -0.9572  0.5051
 1620TIP3   OH2 4823   5.020   0.119   4.350  0.2325 -0.0480 -0.4084
 1620TIP3    H1 4824   5.004   0.090   4.440  0.6717  1.2252  0.1051
 1620TIP3    H2 4825   5.091   0.183   4.358 -1.4535  2.0587 -1.2936
 1621TIP3   OH2 4826   4.711   4.829   1.846  0.3308 -0.9788  0.2717
 1621TIP3    H1 4827   4.662   4.796   1.771 -1.4605 -1.7082  1.6956
 1621TIP3    H2 4828   4.697   4.924   1.844 -0.7927 -1.1293  0.3960
 1622TIP3   OH2 4829   5.398   2.999   1.932 -0.0052 -0.1887  0.3900
 1622TIP3    H1 4830   5.407   3.062   2.003  0.8984 -0.0940  0.2092
 1622TIP3    H2 4831   5.476   3.013   1.877 -1.9756  1.6230 -2.1878
 1623TIP3   OH2 4832   0.168   5.433   5.185  0.0652  0.4330  0.5446
 1623TIP3    H1 4833   0.097   5.400   5.130  0.1752 -0.5645  0.9826
 1623TIP3    H2 4834   0.241   5.447   5.124 -0.2711  0.7469  0.2126
 1624TIP3   OH2 4835   7.033   1.968   1.801 -0.5811  0.0420  0.1575
 1624TIP3    H1 4836   7.001   1.922   1.724 -0.2538 -2.1604  1.2517
 1624TIP3    H2 4837   6.954   2.006   1.841 -0.6894  1.6137 -1.4465
 1625TIP3   OH2 4838   5.740   5.323   4.225  0.8834 -0.1465  0.3409
 1625TIP3    H1 4839   5.748   5.239   4.270  1.6442  0.5561  1.5816
 1625TIP3    H2 4840   5.820   5.370   4.249  0.8635  0.6212 -1.0169
 1626TIP3   OH2 4841   0.600   1.255   2.482  0.4992  0.0452 -0.0323
 1626TIP3    H1 4842   0.568   1.169   2.454 -0.2075  0.2371  0.1537
 1626TIP3    H2 4843   0.539   1.317   2.441  2.2117  0.5919 -1.8843
 1627TIP3   OH2 4844   2.553   0.196   5.608  0.4249 -0.0207  0.5270
 1627TIP3    H1 4845   2.575   0.289   5.612  1.1024 -0.2182  2.1976
 1627TIP3    H2 4846   2.457   0.194   5.616  0.2144  0.5866 -1.3906
 1628TIP3   OH2 4847   3.058   2.494   1.567  0.9605  0.2027 -0.2741
 1628TIP3    H1 4848   3.026   2.556   1.502 -0.2336 -2.5240 -2.5112
 1628TIP3    H2 4849   3.002   2.508   1.643 -1.1453  0.1414 -1.7051
 1629TIP3   OH2 4850   2.857   1.184   1.380  0.1246 -0.5246  0.2036
 1629TIP3    H1 4851   2.941   1.221   1.407  0.3372 -1.0080  0.2084
 1629TIP3    H2 4852   2.860   1.093   1.407  0.6780 -1.2553 -2.1182
 1630TIP3   OH2 4853   6.861   0.655   5.248  0.0830 -0.0961  0.4354
 1630TIP3    H1 4854   6.857   0.740   5.205 -1.4299 -0.1091  0.4948
 1630TIP3    H2 4855   6.770   0.625   5.251  0.5144 -1.4411  0.9621
 1631TIP3   OH2 4856   6.663   3.865   4.111  0.2488  0.2931  0.2657
 1631TIP3    H1 4857   6.663   3.924   4.186  0.5472  2.2322 -1.1824
 1631TIP3    H2 4858   6.600   3.797   4.134  0.8519  0.4053  2.5411
 1632TIP3   OH2 4859   6.834   2.000   5.838 -0.0537  0.1830  0.3102
 1632TIP3    H1 4860   6.822   1.991   5.932  0.8330  0.7972  0.4969
 1632TIP3    H2 4861   6.833   1.911   5.804  1.0772 -0.1444  1.0956
 1633TIP3   OH2 4862   0.156   6.030   1.087 -0.4447 -0.1232  0.4261
 1633TIP3    H1 4863   0.227   6.094   1.090 -0.4945  0.0461 -0.9708
 1633TIP3    H2 4864   0.084   6.078   1.044 -1.0087 -0.6515  0.7666
 1634TIP3   OH2 4865   6.020   2.626   2.433  0.3446 -0.0293  0.1208
 1634TIP3    H1 4866   6.000   2.558   2.369 -1.1155  0.6392 -0.1731
 1634TIP3    H2 4867   6.080   2.684   2.387  0.7562 -0.5381  0.0032
 1635TIP3   OH2 4868   2.356   2.590   0.970  0.1826  0.0602  0.9176
 1635TIP3    H1 4869   2.409   2.665   0.997  1.5566 -0.8830  0.9506
 1635TIP3    H2 4870   2.313   2.560   1.050  0.1261  0.4219  1.0225
 1636TIP3   OH2 4871   2.020   4.086   4.207  0.3122  0.2542  0.7203
 1636TIP3    H1 4872   2.026   3.999   4.247  2.4063 -0.1156 -0.2321
 1636TIP3    H2 4873   2.006   4.069   4.114 -1.7744  1.0436  0.8353
 1637TIP3   OH2 4874   6.890   2.531   2.451 -0.3922 -0.0125 -0.2105
 1637TIP3    H1 4875   6.954   2.602   2.459  0.6652 -1.0673  1.4559
 1637TIP3    H2 4876   6.901   2.481   2.532 -0.1311 -2.8646 -1.8825
 1638TIP3   OH2 4877   4.509   0.682   3.132 -0.0494 -0.2192 -0.3538
 1638TIP3    H1 4878   4.469   0.661   3.217  1.7092 -2.3498  0.0418
 1638TIP3    H2 4879   4.437   0.680   3.070 -1.0256 -1.0510  0.7623
 1639TIP3   OH2 4880   2.995   1.619   5.062  0.6229 -0.0232 -0.3515
 1639TIP3    H1 4881   2.962   1.538   5.101  0.4397 -0.8425 -2.1311
 1639TIP3    H2 4882   3.087   1.601   5.042 -0.0632 -0.8314 -3.2166
 1640TIP3   OH2 4883   4.060   4.106   4.907  0.2564  0.0935 -0.9763
 1640TIP3    H1 4884   4.100   4.102   4.821  0.7147  0.4236 -0.7818
 1640TIP3    H2 4885   4.007   4.185   4.906  0.2167  0.0670 -0.9767
 1641TIP3   OH2 4886   1.043   2.983   5.209 -0.0212  0.0952 -0.1775
 1641TIP3    H1 4887   1.115   3.015   5.263 -1.0833  0.9567  0.7934
 1641TIP3    H2 4888   1.085   2.937   5.137  1.5039  1.0864  0.0427
 1642TIP3   OH2 4889   0.108   0.625   1.007  0.0850  0.5899  0.2157
 1642TIP3    H1 4890   0.170   0.565   1.048  0.8236  0.3097 -1.2847
 1642TIP3    H2 4891   0.087   0.688   1.077  2.8265  1.3173  0.4890
 1643TIP3   OH2 4892   3.287   0.592   4.904 -0.3660 -0.3575  0.1581
 1643TIP3    H1 4893   3.343   0.555   4.836 -1.7720 -1.7209 -0.3193
 1643TIP3    H2 4894   3.221   0.643   4.857 -1.2112 -1.1212  0.4721
 1644TIP3   OH2 4895   1.431   5.948   3.180 -0.5769  0.0143  0.3474
 1644TIP3    H1 4896   1.520   5.912   3.178  0.1356  1.7224 -0.6803
 1644TIP3    H2 4897   1.391   5.907   3.256  0.8350 -1.3817  0.3940
 1645TIP3   OH2 4898   2.501   4.202   5.802 -0.5094 -0.4725  0.0667
 1645TIP3    H1 4899   2.563   4.129   5.796  0.2577 -0.0264  1.9588
 1645TIP3    H2 4900   2.524   4.247   5.883 -4.2745 -1.1722  1.7339
 1646TIP3   OH2 4901   3.185   1.575   2.453 -0.6131  0.4577 -0.6476
 1646TIP3    H1 4902   3.234   1.535   2.381  0.3450 -1.4240  0.9524
 1646TIP3    H2 4903   3.242   1.645   2.484  1.2050 -1.6254  1.1087
 1647TIP3   OH2 4904   7.095   6.251   3.160 -0.1917 -0.4990  0.3434
 1647TIP3    H1 4905   7.140   6.208   3.232 -1.5977 -1.6242  0.5752
 1647TIP3    H2 4906   7.002   6.248   3.183 -0.4046  2.4263  0.2357
 1648TIP3   OH2 4907   2.683   3.355   3.996 -0.1459  0.1728  0.3716
 1648TIP3    H1 4908   2.701   3.277   3.944 -0.1566  0.0048  0.6163
 1648TIP3    H2 4909   2.588   3.358   4.003 -0.2707  1.3043 -1.2915
 1649TIP3   OH2 4910   1.476   3.031   4.781 -0.0584 -0.0871 -0.2413
 1649TIP3    H1 4911   1.543   3.097   4.795  0.3328 -0.1091 -1.8307
 1649TIP3    H2 4912   1.507   2.954   4.829 -1.1490  1.2001  2.7040
 1650TIP3   OH2 4913   7.101   1.129   5.352  0.1973  0.2595 -0.0966
 1650TIP3    H1 4914   7.093   1.144   5.258  0.5427  0.6394 -0.0676
 1650TIP3    H2 4915   7.137   1.211   5.387  0.3050  0.0365  0.3307
 1651TIP3   OH2 4916   7.112   2.958   0.402 -0.6151  0.3541 -0.0222
 1651TIP3    H1 4917   7.109   2.898   0.328  0.7017  0.1912  0.0346
 1651TIP3    H2 4918   7.068   3.038   0.371  0.1630  0.3879 -1.0770
 1652TIP3   OH2 4919   4.185   0.261   1.395 -0.2844 -0.4747  0.3050
 1652TIP3    H1 4920   4.255   0.248   1.459  0.4939 -2.3054 -0.8497
 1652TIP3    H2 4921   4.230   0.292   1.316 -0.8872 -0.7979 -0.1749
 1653TIP3   OH2 4922   5.012   6.295   3.006  0.1618  0.9150 -0.0092
 1653TIP3    H1 4923   4.970   6.365   3.057  2.5489  1.2851  1.6186
 1653TIP3    H2 4924   4.998   6.216   3.057 -0.3616  0.6543 -0.5513
 1654TIP3   OH2 4925   4.156   6.809   0.214  0.2816 -0.4611  0.2183
 1654TIP3    H1 4926   4.087   6.743   0.223  0.8974 -0.9650  1.4388
 1654TIP3    H2 4927   4.233   6.768   0.253  1.1201  0.3400 -0.5544
 1655TIP3   OH2 4928   6.685   6.731   5.061 -0.1381 -0.2328  0.5129
 1655TIP3    H1 4929   6.652   6.667   5.124 -1.3013 -1.7690 -1.5206
 1655TIP3    H2 4930   6.644   6.813   5.086 -1.0331 -0.9259  1.3992
 1656TIP3   OH2 4931   1.916   2.387   2.505  0.1213 -0.1970  0.3832
 1656TIP3    H1 4932   1.990   2.437   2.540  0.3500  0.0656 -0.4406
 1656TIP3    H2 4933   1.845   2.401   2.568  0.4149  0.5424  0.5582
 1657TIP3   OH2 4934   3.176   2.249   5.018 -0.1760  0.4398  0.1310
 1657TIP3    H1 4935   3.121   2.327   5.024  0.1400  0.7777 -1.1198
 1657TIP3    H2 4936   3.251   2.269   5.073  0.4113  1.4767 -0.9989
 1658TIP3   OH2 4937   6.465   1.836   0.827  0.1600  0.1373 -0.0908
 1658TIP3    H1 4938   6.544   1.796   0.791 -0.0006  0.6189 -1.0212
 1658TIP3    H2 4939   6.484   1.930   0.829  0.1799  0.1185  1.1584
 1659TIP3   OH2 4940   3.039   5.694   2.855  0.0159  0.0639 -0.0678
 1659TIP3    H1 4941   2.984   5.615   2.848  1.0378 -0.7588  0.9268
 1659TIP3    H2 4942   3.077   5.690   2.942  1.2396  0.9052 -0.5354
 1660TIP3   OH2 4943   0.788   2.264   4.629  0.4724  1.1515 -0.5393
 1660TIP3    H1 4944   0.821   2.346   4.667 -1.0028  1.7496 -0.4646
 1660TIP3    H2 4945   0.715   2.292   4.573 -0.9367 -0.2059  0.5358
 1661TIP3   OH2 4946   4.279   4.341   2.709  0.2188  0.3845 -0.2232
 1661TIP3    H1 4947   4.320   4.265   2.669 -0.8691 -0.9983  1.1685
 1661TIP3    H2 4948   4.275   4.406   2.639 -0.5194 -1.4848 -2.0141
 1662TIP3   OH2 4949   6.157   1.068   2.483 -0.0088 -0.6848  0.0614
 1662TIP3    H1 4950   6.105   1.008   2.537  1.0752 -0.5231  1.3275
 1662TIP3    H2 4951   6.168   1.146   2.537  0.5104 -0.2298 -0.6810
 1663TIP3   OH2 4952   1.084   4.187   1.336 -0.0784 -0.0489  0.2613
 1663TIP3    H1 4953   0.989   4.175   1.342 -0.7150  3.7080  0.2260
 1663TIP3    H2 4954   1.100   4.204   1.243  0.4976  0.1294  0.3887
 1664TIP3   OH2 4955   5.680   4.217   2.564 -0.5729 -0.8123  0.8130
 1664TIP3    H1 4956   5.684   4.242   2.657  0.9586  0.3212  0.4858
 1664TIP3    H2 4957   5.772   4.207   2.539 -0.7995  1.5417 -1.2521
 1665TIP3   OH2 4958   6.887   4.044   0.302  0.3532 -0.3050  0.2134
 1665TIP3    H1 4959   6.964   4.009   0.256  0.6804  1.8205 -0.9885
 1665TIP3    H2 4960   6.922   4.113   0.357 -0.7101  0.9444 -0.6265
 1666TIP3   OH2 4961   1.588   4.731   3.496  0.2368  0.4523  0.4245
 1666TIP3    H1 4962   1.522   4.783   3.542  0.9928  1.2831  0.5883
 1666TIP3    H2 4963   1.570   4.747   3.403  0.0462  0.4734  0.4653
 1667TIP3   OH2 4964   1.519   6.399   3.968 -0.4524 -0.3398 -0.0403
 1667TIP3    H1 4965   1.502   6.335   4.037 -0.7916  0.0652  0.2502
 1667TIP3    H2 4966   1.557   6.475   4.013  1.0750 -0.7660 -0.5217
 1668TIP3   OH2 4967   0.450   3.054   2.270  0.4923 -0.4070 -0.0915
 1668TIP3    H1 4968   0.405   3.045   2.354  0.7833  0.3791  0.1590
 1668TIP3    H2 4969   0.505   2.977   2.263  0.6584 -0.3518  0.5653
 1669TIP3   OH2 4970   3.307   6.137   5.891 -0.2249 -0.2327  0.3588
 1669TIP3    H1 4971   3.376   6.076   5.918  1.0580  1.7634  1.9021
 1669TIP3    H2 4972   3.319   6.146   5.796 -0.6899 -2.5769  0.0138
 1670TIP3   OH2 4973   0.869   1.568   0.449 -0.1430 -0.3302 -0.3989
 1670TIP3    H1 4974   0.958   1.532   0.449  0.3174  0.7486 -0.7670
 1670TIP3    H2 4975   0.864   1.619   0.530 -0.1206  0.2971 -0.7837
 1671TIP3   OH2 4976   7.153   6.796   5.500 -0.2386  0.1286 -0.5775
 1671TIP3    H1 4977   7.076   6.843   5.466 -0.5941  0.4645  0.6182
 1671TIP3    H2 4978   7.122   6.756   5.582  1.2197  1.5262  0.7366
 1672TIP3   OH2 4979   5.937   1.888   4.153  0.3990 -0.1596  0.1229
 1672TIP3    H1 4980   6.020   1.846   4.135 -0.0932 -0.2618 -2.1628
 1672TIP3    H2 4981   5.940   1.909   4.247  2.5066 -1.1448  0.3144
 1673TIP3   OH2 4982   6.126   5.639   1.819 -0.3427 -0.5887  0.5190
 1673TIP3    H1 4983   6.066   5.657   1.746 -0.2399 -0.4923  0.4577
 1673TIP3    H2 4984   6.089   5.562   1.862  0.1908 -1.3252 -0.2939
 1674TIP3   OH2 4985   0.818   1.946   4.133  0.4168  0.3519  0.2325
 1674TIP3    H1 4986   0.776   2.016   4.182  1.7853 -0.0139  2.0480
 1674TIP3    H2 4987   0.865   1.895   4.199 -0.3414 -2.1703 -1.0307
 1675TIP3   OH2 4988   3.581   1.823   0.351  0.0998 -0.3943 -0.3445
 1675TIP3    H1 4989   3.572   1.917   0.337 -1.6191 -0.5627 -0.5760
 1675TIP3    H2 4990   3.562   1.784   0.265  1.3114 -0.9400 -0.3807
 1676TIP3   OH2 4991   2.707   6.590   1.452  0.5265 -0.0884 -0.0615
 1676TIP3    H1 4992   2.726   6.500   1.427  1.1191  0.5391 -2.0107
 1676TIP3    H2 4993   2.616   6.604   1.427 -0.1998 -0.6759  2.0161
 1677TIP3   OH2 4994   2.317   0.297   0.535 -0.4306  0.3953 -0.4912
 1677TIP3    H1 4995   2.411   0.285   0.517 -0.2866  0.0650  0.4250
 1677TIP3    H2 4996   2.292   0.218   0.583 -1.3393  0.1751 -1.2882
 1678TIP3   OH2 4997   1.017   2.932   2.767 -0.0834  0.2534 -0.2716
 1678TIP3    H1 4998   1.096   2.985   2.782  0.9522 -1.1592 -0.5336
 1678TIP3    H2 4999   1.019   2.866   2.836  0.2646 -1.2367 -1.6500
 1679TIP3   OH2 5000   7.025   5.889   5.337  0.6288  0.0798 -0.0568
 1679TIP3    H1 5001   7.102   5.835   5.318  1.1880  0.8297  0.0418
 1679TIP3    H2 5002   6.953   5.827   5.339  0.9338 -0.3974 -1.9857
 1680TIP3   OH2 5003   3.014   4.252   5.470  0.0610 -0.1600  0.2905
 1680TIP3    H1 5004   2.938   4.292   5.427 -0.4665 -1.8790 -0.4939
 1680TIP3    H2 5005   3.089   4.284   5.421 -0.1043  1.7068  1.1807
 1681TIP3   OH2 5006   1.628   4.799   1.358 -0.2786 -0.1068  0.3163
 1681TIP3    H1 5007   1.580   4.794   1.440 -0.3828 -2.7213  0.1838
 1681TIP3    H2 5008   1.627   4.709   1.324  0.8529  0.6422 -1.9141
 1682TIP3   OH2 5009   1.710   2.003   0.894 -0.0827 -0.5070  0.5116
 1682TIP3    H1 5010   1.654   2.028   0.820 -1.6462 -0.1968  1.7371
 1682TIP3    H2 5011   1.794   1.982   0.854 -0.1043  2.0043 -1.1386
 1683TIP3   OH2 5012   6.835   1.941   3.428  0.3771 -0.0142 -0.4550
 1683TIP3    H1 5013   6.772   1.869   3.415 -1.0806  1.4106 -1.6644
 1683TIP3    H2 5014   6.809   1.980   3.511 -0.0380  0.2649 -0.7121
 1684TIP3   OH2 5015   1.476   3.483   3.319 -0.3859  0.0205  0.1326
 1684TIP3    H1 5016   1.532   3.444   3.386 -1.1836 -1.1662  0.1518
 1684TIP3    H2 5017   1.495   3.577   3.323  0.5372 -0.1851  1.1082
 1685TIP3   OH2 5018   4.140   5.000   2.301 -0.2285  0.0123  0.1045
 1685TIP3    H1 5019   4.168   5.001   2.392  0.0193  1.3037  0.0408
 1685TIP3    H2 5020   4.214   4.960   2.254 -1.0282 -2.2099  0.6235
 1686TIP3   OH2 5021   6.537   0.539   1.993  0.1064 -0.0266 -0.4585
 1686TIP3    H1 5022   6.568   0.586   2.070  0.5053 -0.5731 -0.2795
 1686TIP3    H2 5023   6.476   0.599   1.951  1.1304  0.9273 -0.6192
 1687TIP3   OH2 5024   0.749   5.708   5.413 -0.1220 -0.6867  0.2536
 1687TIP3    H1 5025   0.664   5.703   5.457 -0.0721  0.7928  0.5939
 1687TIP3    H2 5026   0.802   5.762   5.471 -0.0129  1.2500 -1.5263
 1688TIP3   OH2 5027   2.524   6.691   2.520 -0.4514  0.0749  0.5813
 1688TIP3    H1 5028   2.493   6.715   2.433 -2.2202  0.9041  1.3985
 1688TIP3    H2 5029   2.511   6.769   2.573 -1.0453 -0.9476  2.0007
 1689TIP3   OH2 5030   6.204   1.388   2.614 -0.3913 -0.1330  0.3029
 1689TIP3    H1 5031   6.208   1.462   2.674 -1.2019  0.4536 -0.3510
 1689TIP3    H2 5032   6.111   1.366   2.608 -0.1084 -1.7501  1.1185
 1690TIP3   OH2 5033   2.574   1.417   3.623  0.5044 -0.5840  0.1034
 1690TIP3    H1 5034   2.655   1.368   3.638  0.9386  0.1938  0.3883
 1690TIP3    H2 5035   2.578   1.442   3.530  0.8731 -0.0679  0.2534
 1691TIP3   OH2 5036   5.689   6.305   3.792  0.4605 -0.2628 -0.1739
 1691TIP3    H1 5037   5.624   6.373   3.806  0.4117 -0.5032  0.8085
 1691TIP3    H2 5038   5.673   6.241   3.861  1.3575 -0.6147 -0.2727
 1692TIP3   OH2 5039   3.776   0.194   3.041  0.2631  0.2462 -0.5605
 1692TIP3    H1 5040   3.735   0.133   3.101  0.6788  0.5548  0.0475
 1692TIP3    H2 5041   3.806   0.266   3.096 -1.8502  1.9240 -1.4629
 1693TIP3   OH2 5042   3.447   4.047   2.384  0.3404 -0.5300  0.7478
 1693TIP3    H1 5043   3.420   4.042   2.475  2.1834 -2.4970  1.2646
 1693TIP3    H2 5044   3.536   4.082   2.386 -0.0438  0.6234 -0.4364
 1694TIP3   OH2 5045   4.574   4.855   5.779 -0.2875 -0.5321  0.3273
 1694TIP3    H1 5046   4.658   4.877   5.818  0.7186 -2.2824 -0.6886
 1694TIP3    H2 5047   4.571   4.759   5.783 -2.5379 -0.4857  0.9125
 1695TIP3   OH2 5048   4.527   0.388   0.765  0.4953 -0.5990  0.4009
 1695TIP3    H1 5049   4.473   0.387   0.844 -1.1762  2.1115 -0.5839
 1695TIP3    H2 5050   4.592   0.456   0.781  0.1269 -0.0115 -0.5182
 1696TIP3   OH2 5051   2.303   0.718   0.285 -0.4588 -0.4960  0.2474
 1696TIP3    H1 5052   2.286   0.802   0.328 -2.6793  0.6250 -2.4625
 1696TIP3    H2 5053   2.391   0.693   0.313 -0.9105  1.1224  3.5874
 1697TIP3   OH2 5054   6.324   3.372  -0.003  0.1350  0.0659 -0.2102
 1697TIP3    H1 5055   6.262   3.345   0.064 -0.1944 -0.4738 -0.7223
 1697TIP3    H2 5056   6.408   3.333   0.025 -0.3762 -1.7851 -1.0659
 1698TIP3   OH2 5057   7.052   4.547   2.086 -0.4078 -0.3355  0.5542
 1698TIP3    H1 5058   6.981   4.602   2.121 -0.3488 -0.1830  0.4317
 1698TIP3    H2 5059   7.026   4.458   2.111 -1.0019 -0.3554 -0.0931
 1699TIP3   OH2 5060   1.233   0.667   0.562  0.2464 -0.2093 -0.7103
 1699TIP3    H1 5061   1.295   0.728   0.522  1.9731 -0.4115  1.4831
 1699TIP3    H2 5062   1.287   0.595   0.593 -1.2528 -0.9680  0.2437
 1700TIP3   OH2 5063   2.967   4.566   5.560 -0.4253  0.0755 -0.6475
 1700TIP3    H1 5064   2.936   4.552   5.471 -1.4993 -1.8413 -0.0528
 1700TIP3    H2 5065   2.971   4.478   5.598  0.9424  0.7441  0.9069
 1701TIP3   OH2 5066   1.810   6.515   0.568 -0.0532 -0.3096 -0.0791
 1701TIP3    H1 5067   1.727   6.504   0.613 -0.5321  1.0497 -0.5795
 1701TIP3    H2 5068   1.792   6.487   0.478  0.8837 -2.9686  0.4583
 1702TIP3   OH2 5069   4.872   5.643   2.843  0.2806 -0.4692 -1.0738
 1702TIP3    H1 5070   4.930   5.612   2.773  1.8568  1.2358 -0.6013
 1702TIP3    H2 5071   4.874   5.738   2.836 -0.3440 -0.2856  0.6650
 1703TIP3   OH2 5072   2.023   1.207   1.248  0.0130  0.0068  0.4052
 1703TIP3    H1 5073   1.961   1.156   1.300  0.1225 -0.3587  0.1838
 1703TIP3    H2 5074   2.096   1.226   1.308  0.5575 -1.1807  0.1518
 1704TIP3   OH2 5075   0.386   2.521   1.783  0.1301 -0.4441 -0.0567
 1704TIP3    H1 5076   0.296   2.527   1.816  0.6680  0.7165  1.2979
 1704TIP3    H2 5077   0.431   2.468   1.848  0.6535 -0.1655 -0.1885
 1705TIP3   OH2 5078   4.467   3.689   1.286 -0.0275 -0.6436  0.0685
 1705TIP3    H1 5079   4.549   3.671   1.239 -1.3936 -1.3435 -2.2022
 1705TIP3    H2 5080   4.400   3.644   1.236 -1.6114 -1.9228  3.0761
 1706TIP3   OH2 5081   0.387   4.832   1.546  0.1195 -0.1905  0.0291
 1706TIP3    H1 5082   0.344   4.850   1.463  1.0003 -0.5009 -0.5146
 1706TIP3    H2 5083   0.481   4.843   1.527  0.4647 -1.9598  0.5267
 1707TIP3   OH2 5084   4.404   3.671   5.607  0.1794 -0.4002  0.0950
 1707TIP3    H1 5085   4.368   3.710   5.686 -1.0983 -0.8139 -0.2637
 1707TIP3    H2 5086   4.465   3.737   5.573 -3.2718  2.2731 -1.5385
 1708TIP3   OH2 5087   2.765   6.319   1.389  0.1436 -0.2508 -0.1149
 1708TIP3    H1 5088   2.828   6.263   1.344 -0.8560 -1.8555  0.4150
 1708TIP3    H2 5089   2.697   6.337   1.324  1.0122  1.3510 -0.6380
 1709TIP3   OH2 5090   3.186   5.901   2.361 -0.2017  0.3783  0.2301
 1709TIP3    H1 5091   3.146   5.814   2.369  1.1379 -0.2425  0.4467
 1709TIP3    H2 5092   3.278   5.888   2.387  0.3809  1.5739 -1.1095
 1710TIP3   OH2 5093   2.979   5.333   5.247  0.1326  0.1190 -0.5369
 1710TIP3    H1 5094   2.891   5.354   5.279 -0.1913 -1.4424 -0.3616
 1710TIP3    H2 5095   2.979   5.238   5.235  1.5770  0.1744 -1.2136
 1711TIP3   OH2 5096   2.677   2.755   3.723 -0.1610  0.0003  0.2853
 1711TIP3    H1 5097   2.597   2.808   3.725  0.1305  0.4339  0.8259
 1711TIP3    H2 5098   2.673   2.709   3.639 -0.8891  0.1524  0.2273
 1712TIP3   OH2 5099   1.733   1.820   0.671  0.0427 -0.3763  0.2682
 1712TIP3    H1 5100   1.665   1.858   0.615  0.6618 -1.8270 -1.5807
 1712TIP3    H2 5101   1.688   1.752   0.721  0.2837 -2.3492 -2.0159
 1713TIP3   OH2 5102   0.409   1.514   0.410  0.1537  0.3544 -0.2316
 1713TIP3    H1 5103   0.442   1.557   0.489  1.5898  2.2265 -1.7267
 1713TIP3    H2 5104   0.403   1.585   0.346  1.9224 -1.5251 -2.6626
 1714TIP3   OH2 5105   2.004   1.590   3.680  1.0777 -0.4974 -0.4848
 1714TIP3    H1 5106   2.038   1.630   3.760  0.9571 -0.9785 -0.1953
 1714TIP3    H2 5107   2.020   1.497   3.690  2.1120 -0.4609 -1.5243
 1715TIP3   OH2 5108   6.870   4.135   5.211 -0.1125  0.0075 -0.4138
 1715TIP3    H1 5109   6.852   4.210   5.267  1.3032  0.2542 -0.2537
 1715TIP3    H2 5110   6.825   4.155   5.129 -2.7713 -0.6696  0.7890
 1716TIP3   OH2 5111   1.284   6.488   3.025  0.2254 -0.5321 -0.3995
 1716TIP3    H1 5112   1.233   6.535   3.091  0.6436  0.5371 -0.8228
 1716TIP3    H2 5113   1.218   6.437   2.977 -0.5841  1.2382 -1.2897
 1717TIP3   OH2 5114   4.211   0.405   0.839  0.0402 -0.1623  0.6594
 1717TIP3    H1 5115   4.179   0.346   0.771  1.6341 -2.3382  1.6642
 1717TIP3    H2 5116   4.142   0.406   0.905  0.1719 -1.2956  0.8251
 1718TIP3   OH2 5117   2.085   3.727   5.901  0.1120  0.9972 -0.5520
 1718TIP3    H1 5118   2.031   3.647   5.908 -1.8480  2.3383  0.5766
 1718TIP3    H2 5119   2.108   3.731   5.808  0.1719 -0.8070 -0.6656
 1719TIP3   OH2 5120   6.992   1.934   0.086 -0.4359 -0.4198  0.1703
 1719TIP3    H1 5121   6.906   1.933   0.046 -0.7865  0.4163  0.8909
 1719TIP3    H2 5122   7.033   2.014   0.055  0.1734 -0.9190 -0.3417
 1720TIP3   OH2 5123   2.731   4.354   1.157  0.3697  0.3548  0.1708
 1720TIP3    H1 5124   2.802   4.292   1.174 -1.3130 -1.4201  1.1779
 1720TIP3    H2 5125   2.651   4.303   1.169 -1.1113  2.4792 -0.0428
 1721TIP3   OH2 5126   5.255   2.526   0.821 -0.0618  0.6168 -0.3672
 1721TIP3    H1 5127   5.203   2.531   0.901  0.7327  1.4549  0.1181
 1721TIP3    H2 5128   5.214   2.590   0.762 -1.5410 -1.0318 -1.2001
 1722TIP3   OH2 5129   3.098   4.240   3.236  0.4821  0.6526 -0.0456
 1722TIP3    H1 5130   3.032   4.281   3.181  0.8779  0.3799 -0.7280
 1722TIP3    H2 5131   3.092   4.287   3.320 -1.7155 -0.4578  0.4916
 1723TIP3   OH2 5132   0.706   6.418   0.592 -0.1813  0.0081 -0.4652
 1723TIP3    H1 5133   0.765   6.385   0.524  0.0189  2.6729 -1.7185
 1723TIP3    H2 5134   0.622   6.377   0.572 -0.1556  0.8089 -2.4563
 1724TIP3   OH2 5135   5.204   5.612   3.865 -0.6066 -0.5701 -0.3922
 1724TIP3    H1 5136   5.170   5.566   3.942  0.0380  1.5799  1.2863
 1724TIP3    H2 5137   5.296   5.629   3.886 -1.4882  4.3362  0.7877
 1725TIP3   OH2 5138   5.172   5.880   5.754 -0.1926 -0.1989 -0.3367
 1725TIP3    H1 5139   5.173   5.975   5.746 -0.2541 -0.1129  0.5210
 1725TIP3    H2 5140   5.099   5.862   5.813  1.0678 -0.5966  1.2008
 1726TIP3   OH2 5141   0.851   5.593   4.154 -0.4109  0.6160  0.1687
 1726TIP3    H1 5142   0.761   5.572   4.128 -0.0919  1.8832 -2.2664
 1726TIP3    H2 5143   0.904   5.527   4.109  0.0292  1.7036 -0.9759
 1727TIP3   OH2 5144   3.502   5.029   0.994 -0.0427  0.2186 -0.3845
 1727TIP3    H1 5145   3.428   5.075   1.034 -0.5679  0.0968 -1.1936
 1727TIP3    H2 5146   3.547   5.096   0.944  0.7868  0.4369  0.6123
 1728TIP3   OH2 5147   5.130   0.107   1.916  0.1019  0.3255  0.8536
 1728TIP3    H1 5148   5.224   0.125   1.911  0.4227 -1.3307  0.3658
 1728TIP3    H2 5149   5.114   0.043   1.846 -1.2527 -0.0026  1.4268
 1729TIP3   OH2 5150   4.647   1.251   5.193 -0.1047  0.2602 -0.0607
 1729TIP3    H1 5151   4.698   1.180   5.156 -0.3038 -0.0167  0.1904
 1729TIP3    H2 5152   4.588   1.208   5.255 -1.3446  0.4485 -1.0740
 1730TIP3   OH2 5153   2.828   0.022   2.784  0.3594  0.4662  0.0155
 1730TIP3    H1 5154   2.810   0.001   2.692  0.2757  0.8513 -0.0567
 1730TIP3    H2 5155   2.791   0.109   2.797  0.9304  0.6790  0.2443
 1731TIP3   OH2 5156   5.371   4.468   1.824  0.7199  0.7871 -0.0703
 1731TIP3    H1 5157   5.368   4.382   1.868  0.4345  1.1426  0.6227
 1731TIP3    H2 5158   5.280   4.498   1.825  0.0999 -0.5277 -3.6694
 1732TIP3   OH2 5159   0.198   2.349   5.259 -0.2444  0.1347 -0.2051
 1732TIP3    H1 5160   0.168   2.258   5.256 -0.8184  0.3398 -1.0182
 1732TIP3    H2 5161   0.268   2.353   5.193 -0.9624  0.5288 -0.9610
 1733TIP3   OH2 5162   2.293   1.038   4.027 -0.3227 -0.1505 -0.1280
 1733TIP3    H1 5163   2.335   1.020   4.111  0.0504  0.6558 -0.1342
 1733TIP3    H2 5164   2.357   1.010   3.962 -1.0466 -1.8126 -0.1778
 1734TIP3   OH2 5165   4.818   5.011   0.376 -0.7830 -0.0075 -0.2020
 1734TIP3    H1 5166   4.813   4.952   0.451  1.8219 -0.9657 -0.6719
 1734TIP3    H2 5167   4.908   5.044   0.378 -0.6567 -0.0076 -2.8256
 1735TIP3   OH2 5168   1.245   0.547   5.650 -0.2131 -0.3686  0.0188
 1735TIP3    H1 5169   1.160   0.546   5.606 -1.3029  0.1474  2.0088
 1735TIP3    H2 5170   1.260   0.456   5.673 -0.6857 -0.3352  0.4802
 1736TIP3   OH2 5171   5.759   3.158   3.738  0.5606 -0.3039  0.3170
 1736TIP3    H1 5172   5.736   3.238   3.785 -0.8955 -0.0856 -0.6970
 1736TIP3    H2 5173   5.808   3.188   3.662 -0.2410 -0.3249 -0.2223
 1737TIP3   OH2 5174   3.769   4.528   1.084  0.1601 -0.4970 -0.4219
 1737TIP3    H1 5175   3.807   4.498   1.002  0.2454  0.2230 -0.6516
 1737TIP3    H2 5176   3.678   4.550   1.063  0.4256  0.5391 -0.5396
 1738TIP3   OH2 5177   4.669   3.501   5.360  0.4042  0.1056 -0.9839
 1738TIP3    H1 5178   4.723   3.498   5.281  1.1915  1.8015 -0.5368
 1738TIP3    H2 5179   4.666   3.593   5.385  2.6966 -0.6161  2.6826
 1739TIP3   OH2 5180   1.888   6.122   3.242  0.8497 -0.0361  0.0651
 1739TIP3    H1 5181   1.829   6.120   3.166 -1.0696 -0.8695  1.5055
 1739TIP3    H2 5182   1.894   6.214   3.265 -0.6294  0.0097  0.3862
 1740TIP3   OH2 5183   3.818   3.444   0.975  0.3783  0.2124 -0.2104
 1740TIP3    H1 5184   3.872   3.501   0.920  0.2527 -0.0777 -0.6386
 1740TIP3    H2 5185   3.862   3.359   0.973 -0.7247 -0.3689 -1.5653
 1741TIP3   OH2 5186   5.388   3.593   5.456 -0.1574  0.1747 -0.0399
 1741TIP3    H1 5187   5.421   3.514   5.411  0.5791  0.8064 -0.6405
 1741TIP3    H2 5188   5.466   3.629   5.499 -0.2231  1.2577 -0.8093
 1742TIP3   OH2 5189   4.550   3.017   1.909  0.3511  0.0639 -0.4547
 1742TIP3    H1 5190   4.488   2.966   1.859  1.0669 -2.8167  1.3704
 1742TIP3    H2 5191   4.504   3.037   1.991 -0.0415  2.8021 -1.2484
 1743TIP3   OH2 5192   6.848   2.786   0.461  0.8766 -0.6283  0.5004
 1743TIP3    H1 5193   6.818   2.828   0.541 -0.5972 -1.9796  0.6997
 1743TIP3    H2 5194   6.817   2.842   0.390 -0.6534 -1.0825  0.7778
 1744TIP3   OH2 5195   4.513   1.648   1.590 -0.2546  0.3916 -0.2603
 1744TIP3    H1 5196   4.490   1.586   1.521 -0.1579  0.3748 -0.2776
 1744TIP3    H2 5197   4.522   1.732   1.544 -0.5465  0.4488 -0.2108
 1745TIP3   OH2 5198   2.066   0.295   2.661 -0.1394  0.6795  0.4003
 1745TIP3    H1 5199   2.120   0.233   2.711  2.4941  2.0422 -0.5449
 1745TIP3    H2 5200   2.013   0.240   2.604 -0.7044 -0.7767  2.2075
 1746TIP3   OH2 5201   5.189   2.928   3.650  0.0229  0.0341 -0.0475
 1746TIP3    H1 5202   5.279   2.897   3.658  0.5120  1.0887 -1.1549
 1746TIP3    H2 5203   5.140   2.851   3.619  0.7618 -0.2614 -0.5056
 1747TIP3   OH2 5204   5.846   6.298   3.197 -0.5210  0.4132  0.1435
 1747TIP3    H1 5205   5.786   6.328   3.266 -1.0766  1.2108 -0.6478
 1747TIP3    H2 5206   5.874   6.379   3.153 -0.6453 -0.1041 -0.9256
 1748TIP3   OH2 5207   4.521   3.432   4.897  0.0982 -0.0496  0.1150
 1748TIP3    H1 5208   4.532   3.432   4.992  0.1485  1.7546  0.1564
 1748TIP3    H2 5209   4.609   3.453   4.863 -0.3650  1.5509 -0.1862
 1749TIP3   OH2 5210   6.174   1.891   1.074 -0.3054 -0.4220 -0.2387
 1749TIP3    H1 5211   6.182   1.815   1.131  0.1188 -0.7325 -0.6981
 1749TIP3    H2 5212   6.079   1.905   1.065 -0.3854  0.6039  1.7758
 1750TIP3   OH2 5213   4.700   3.043   1.061 -0.0395 -0.0314 -0.1072
 1750TIP3    H1 5214   4.632   3.078   1.117 -0.9039 -1.3469 -0.3009
 1750TIP3    H2 5215   4.747   3.120   1.030 -0.3630  0.7986  1.3572
 1751TIP3   OH2 5216   0.652   5.969   3.068 -0.3136 -0.1416 -0.0150
 1751TIP3    H1 5217   0.611   6.004   2.990 -1.0709 -1.2666 -0.1434
 1751TIP3    H2 5218   0.581   5.927   3.116 -0.0976  1.4984  1.8643
 1752TIP3   OH2 5219   4.223   3.535   1.512  0.0653  0.3195 -0.4658
 1752TIP3    H1 5220   4.238   3.560   1.603 -0.4033 -0.7280 -0.0799
 1752TIP3    H2 5221   4.272   3.599   1.461  1.1782  0.3216  0.5505
 1753TIP3   OH2 5222   1.711   3.832   2.207  0.0069  0.1672  0.3083
 1753TIP3    H1 5223   1.639   3.881   2.168  1.0878  0.0553 -1.9517
 1753TIP3    H2 5224   1.739   3.886   2.281 -0.2601  1.8828 -0.7803
 1754TIP3   OH2 5225   0.193   2.998   1.290 -0.2194  0.1540 -0.2632
 1754TIP3    H1 5226   0.255   3.003   1.218 -0.6527 -4.0989 -1.2386
 1754TIP3    H2 5227   0.247   2.999   1.369  0.8192 -0.2685 -0.9475
 1755TIP3   OH2 5228   6.464   2.770   0.594 -0.3581  0.2474 -0.4726
 1755TIP3    H1 5229   6.524   2.700   0.568 -0.7188  0.1121 -0.9524
 1755TIP3    H2 5230   6.519   2.848   0.600 -0.1827  0.1843 -1.2037
 1756TIP3   OH2 5231   0.868   4.443   5.317 -0.0602  0.1651  0.3214
 1756TIP3    H1 5232   0.905   4.371   5.368  0.0510 -0.0225 -0.0285
 1756TIP3    H2 5233   0.929   4.515   5.330  0.7900 -0.3374 -0.7878
 1757TIP3   OH2 5234   0.964   4.652   5.100  0.5648 -0.1151 -0.1959
 1757TIP3    H1 5235   0.981   4.648   5.194  0.7283 -0.0288 -0.2205
 1757TIP3    H2 5236   1.051   4.658   5.061  0.4571  1.5239 -0.2637
 1758TIP3   OH2 5237   3.803   0.960   0.898  0.3357 -0.0282 -0.2385
 1758TIP3    H1 5238   3.719   1.005   0.896  0.6954  0.6590 -0.0927
 1758TIP3    H2 5239   3.785   0.874   0.859 -0.9230 -0.7445  1.7653
 1759TIP3   OH2 5240   5.518   5.676   2.275  0.0573  0.2839  0.1551
 1759TIP3    H1 5241   5.567   5.748   2.235 -1.4536  1.1732 -0.1777
 1759TIP3    H2 5242   5.515   5.697   2.368  2.1983 -0.9592  0.5723
 1760TIP3   OH2 5243   4.844   4.988   4.423 -0.0658  0.0245 -0.2734
 1760TIP3    H1 5244   4.830   4.937   4.503 -5.2494  2.6332  0.9430
 1760TIP3    H2 5245   4.784   4.950   4.359  0.2282  1.0812 -1.2236
 1761TIP3   OH2 5246   3.201   2.387   4.252 -0.4471  0.6496  0.2142
 1761TIP3    H1 5247   3.187   2.479   4.230 -0.6249  0.7373  0.6799
 1761TIP3    H2 5248   3.132   2.368   4.316  0.4516  0.5739  1.1707
 1762TIP3   OH2 5249   5.203   1.153   1.369 -0.2451 -0.1114  0.0276
 1762TIP3    H1 5250   5.118   1.160   1.412 -0.6423 -0.9495 -0.5958
 1762TIP3    H2 5251   5.186   1.100   1.291  1.1992 -2.0283  0.9255
 1763TIP3   OH2 5252   6.465   6.541   3.074 -0.0725 -0.1331  0.5672
 1763TIP3    H1 5253   6.414   6.579   3.146 -2.4122 -0.9468 -0.5577
 1763TIP3    H2 5254   6.458   6.446   3.087  0.2053 -0.2742 -0.2456
 1764TIP3   OH2 5255   1.312   4.033   1.303  0.6802 -0.1231  0.0739
 1764TIP3    H1 5256   1.305   3.973   1.229  0.4581  0.1899 -0.1603
 1764TIP3    H2 5257   1.225   4.071   1.311  0.4933 -0.6935  0.9540
 1765TIP3   OH2 5258   6.910   1.255   3.288  0.6321 -0.1957 -0.0643
 1765TIP3    H1 5259   7.004   1.242   3.293  0.7538  0.3125 -0.7964
 1765TIP3    H2 5260   6.881   1.259   3.379  1.9206  3.6539  0.3683
 1766TIP3   OH2 5261   2.462   5.784   0.727 -0.3930  0.0116 -0.1701
 1766TIP3    H1 5262   2.421   5.726   0.663 -1.3362  1.3016 -0.7952
 1766TIP3    H2 5263   2.463   5.870   0.684  0.0801  0.6600  1.0766
 1767TIP3   OH2 5264   6.639   3.631   3.699 -0.1418 -0.0656  0.0449
 1767TIP3    H1 5265   6.606   3.574   3.768  1.1270  0.2727  0.9692
 1767TIP3    H2 5266   6.684   3.702   3.746  0.1576  0.5353 -1.1140
 1768TIP3   OH2 5267   5.193   1.219   5.605  0.3510  0.3242  0.7248
 1768TIP3    H1 5268   5.267   1.168   5.572 -1.6263 -0.2708 -3.4573
 1768TIP3    H2 5269   5.153   1.164   5.672  0.2402 -2.2531 -1.3102
 1769TIP3   OH2 5270   0.539   1.705   3.897  0.2210 -0.6258  0.5196
 1769TIP3    H1 5271   0.630   1.695   3.869  0.3665  1.2515  0.2056
 1769TIP3    H2 5272   0.527   1.800   3.908 -1.8498 -0.7718  0.0032
 1770TIP3   OH2 5273   0.588   1.177   0.837 -0.6378  0.5048  0.2882
 1770TIP3    H1 5274   0.539   1.137   0.909 -2.5689  2.0653 -0.0645
 1770TIP3    H2 5275   0.611   1.104   0.780  0.7741 -0.7551  2.3217
 1771TIP3   OH2 5276   4.945   4.313   3.196 -0.1246  0.6785  0.3225
 1771TIP3    H1 5277   4.934   4.305   3.101  1.4949 -0.4979  0.1838
 1771TIP3    H2 5278   5.030   4.355   3.206  0.7712 -1.2622  1.2285
 1772TIP3   OH2 5279   3.642   1.023   2.813  0.3894 -0.7282 -0.3745
 1772TIP3    H1 5280   3.641   0.984   2.900  4.4875 -0.4515 -0.0029
 1772TIP3    H2 5281   3.572   1.089   2.815 -3.5350 -4.4675  0.5771
 1773TIP3   OH2 5282   2.667   1.122   4.349 -0.6409 -0.0179  0.0850
 1773TIP3    H1 5283   2.758   1.151   4.340 -0.4453 -1.0299 -1.6018
 1773TIP3    H2 5284   2.616   1.189   4.303 -0.7274  0.3888  0.7653
 1774TIP3   OH2 5285   6.633   5.283   0.932  0.5219 -0.2009  0.2370
 1774TIP3    H1 5286   6.544   5.295   0.966  0.1480  1.4862 -1.1857
 1774TIP3    H2 5287   6.655   5.367   0.892  2.9188 -0.4773  0.8498
 1775TIP3   OH2 5288   2.058   5.581   5.264 -0.1229  0.4315 -0.4833
 1775TIP3    H1 5289   2.106   5.598   5.184 -0.1662 -0.2706 -0.6644
 1775TIP3    H2 5290   2.081   5.654   5.322  0.0441  0.8478 -1.0615
 1776TIP3   OH2 5291   4.751   2.210   1.442  0.1033 -0.0573 -0.4603
 1776TIP3    H1 5292   4.677   2.185   1.387  0.4067 -0.2234 -0.7916
 1776TIP3    H2 5293   4.722   2.191   1.531  0.2720 -1.4665 -0.6883
 1777TIP3   OH2 5294   0.242   4.030   1.801  0.6895  0.7245 -0.6029
 1777TIP3    H1 5295   0.238   3.935   1.795 -0.6010  0.4960  2.2853
 1777TIP3    H2 5296   0.155   4.060   1.774 -0.2679  0.6967  2.1482
 1778TIP3   OH2 5297   6.771   2.087   3.710  0.4264 -0.6603  0.1305
 1778TIP3    H1 5298   6.682   2.056   3.691  0.7115 -1.7063  0.4085
 1778TIP3    H2 5299   6.769   2.108   3.804  0.4233 -0.5088  0.0965
 1779TIP3   OH2 5300   6.287   5.273   4.932  0.5108 -0.3345 -0.1485
 1779TIP3    H1 5301   6.308   5.191   4.886 -3.0249 -2.0114  0.8297
 1779TIP3    H2 5302   6.348   5.275   5.006  0.3644 -2.4555  0.1115
 1780TIP3   OH2 5303   0.819   3.428   2.298 -0.6412  0.3966 -0.0019
 1780TIP3    H1 5304   0.797   3.341   2.331 -0.8940  0.4557 -0.0197
 1780TIP3    H2 5305   0.786   3.489   2.364  1.0592  0.4225  0.8956
 1781TIP3   OH2 5306   6.598   0.435   2.576 -0.5491 -0.1958 -0.2980
 1781TIP3    H1 5307   6.533   0.410   2.642  1.1600  0.4492  1.7306
 1781TIP3    H2 5308   6.641   0.512   2.613  0.8570 -0.1467 -1.9310
 1782TIP3   OH2 5309   3.295   5.266   5.000  0.1172 -0.0339 -0.4349
 1782TIP3    H1 5310   3.320   5.345   5.048  2.1606 -0.4641 -0.6862
 1782TIP3    H2 5311   3.291   5.293   4.909  1.1768 -0.2589 -0.5651
 1783TIP3   OH2 5312   6.392   4.085   1.171  0.5918  0.5634  0.2083
 1783TIP3    H1 5313   6.305   4.121   1.158 -0.0470 -1.4497 -1.7622
 1783TIP3    H2 5314   6.398   4.071   1.266 -1.5183  0.0869  0.3191
 1784TIP3   OH2 5315   1.538   2.909   1.325 -0.3876 -0.2845 -0.7604
 1784TIP3    H1 5316   1.445   2.889   1.339 -0.8315  0.7424 -2.0199
 1784TIP3    H2 5317   1.549   2.998   1.358  0.2243 -0.4904 -0.3865
 1785TIP3   OH2 5318   4.388   2.957   3.132  0.0923 -0.0742  0.0469
 1785TIP3    H1 5319   4.357   3.022   3.070 -0.8008 -0.8612 -0.3700
 1785TIP3    H2 5320   4.413   3.007   3.210 -1.7694  0.6683  0.2137
 1786TIP3   OH2 5321   2.377   5.392   3.050  0.4413 -0.0261  0.5896
 1786TIP3    H1 5322   2.342   5.471   3.090 -0.5933 -0.6696  1.0012
 1786TIP3    H2 5323   2.334   5.320   3.097  1.5028 -0.8407  0.3605
 1787TIP3   OH2 5324   2.583   4.523   3.367 -0.2953 -0.3501 -0.2484
 1787TIP3    H1 5325   2.597   4.586   3.296  0.9984 -1.4790 -1.0477
 1787TIP3    H2 5326   2.488   4.510   3.368 -0.5017  1.0491 -0.5597
 1788TIP3   OH2 5327   2.536   4.613   0.384  0.2322  0.4360 -0.0293
 1788TIP3    H1 5328   2.471   4.559   0.428  0.3762  1.2867  1.2954
 1788TIP3    H2 5329   2.610   4.617   0.445  0.7539  1.0476 -0.6702
 1789TIP3   OH2 5330   0.146   1.008   5.479  0.1971 -0.1200  0.7625
 1789TIP3    H1 5331   0.151   0.919   5.443 -0.2639 -0.1625  0.7940
 1789TIP3    H2 5332   0.063   1.042   5.445 -0.0712 -0.0311  1.5051
 1790TIP3   OH2 5333   1.059   6.301   5.823  0.2598  0.2331 -0.5326
 1790TIP3    H1 5334   1.042   6.395   5.814 -0.1404  0.2722  0.4867
 1790TIP3    H2 5335   1.152   6.291   5.800  0.1024  0.7547 -1.4167
 1791TIP3   OH2 5336   2.413   1.781   0.443  0.1203  0.0991 -0.5780
 1791TIP3    H1 5337   2.443   1.705   0.493 -0.2170  1.2502  1.4863
 1791TIP3    H2 5338   2.453   1.856   0.487 -1.4451  1.2828 -1.0786
 1792TIP3   OH2 5339   1.281   5.990   1.703  0.5336  0.5892 -0.3238
 1792TIP3    H1 5340   1.338   6.005   1.628  0.3479  1.0046 -0.3864
 1792TIP3    H2 5341   1.329   6.025   1.778  0.6206  0.3857 -0.2851
 1793TIP3   OH2 5342   2.942   6.487   5.346  0.3088  0.8227  0.0877
 1793TIP3    H1 5343   2.979   6.564   5.389 -2.3426  1.4596  1.4486
 1793TIP3    H2 5344   2.936   6.512   5.253 -0.8990  2.5182  0.5562
 1794TIP3   OH2 5345   0.459   3.612   2.907 -0.0610 -0.4960 -0.0265
 1794TIP3    H1 5346   0.417   3.696   2.889  0.4397  0.1564  1.6514
 1794TIP3    H2 5347   0.437   3.557   2.832 -2.2143  0.4385 -0.1369
 1795TIP3   OH2 5348   2.654   1.678   2.293  0.0088  0.3632 -0.2841
 1795TIP3    H1 5349   2.727   1.638   2.246  0.4229 -1.0245  1.4392
 1795TIP3    H2 5350   2.596   1.605   2.314 -1.6939  1.3886 -1.2412
 1796TIP3   OH2 5351   0.403   0.739   2.300 -0.2381  0.0545 -0.1893
 1796TIP3    H1 5352   0.311   0.742   2.274  0.0841  0.4735 -1.3820
 1796TIP3    H2 5353   0.401   0.719   2.393 -1.4730 -2.5071 -0.6783
 1797TIP3   OH2 5354   3.825   5.636   1.484  0.6290  0.3392 -0.1247
 1797TIP3    H1 5355   3.751   5.625   1.544  0.6161  0.2897 -0.1499
 1797TIP3    H2 5356   3.865   5.550   1.479 -0.7148 -0.2503 -1.9301
 1798TIP3   OH2 5357   1.250   3.322   4.754 -0.0106  0.4900 -0.2221
 1798TIP3    H1 5358   1.203   3.310   4.837  1.2183  0.5105  0.5072
 1798TIP3    H2 5359   1.339   3.346   4.780  0.3742  0.5995 -1.5563
 1799TIP3   OH2 5360   0.943   1.667   1.115 -0.1853  0.0789  0.3330
 1799TIP3    H1 5361   0.984   1.596   1.163  0.9732 -0.0263 -0.7712
 1799TIP3    H2 5362   0.971   1.746   1.160  0.6302 -0.0352  0.0350
 1800TIP3   OH2 5363   0.079   3.911   5.323  0.4793 -0.0669 -0.0731
 1800TIP3    H1 5364   0.159   3.903   5.375  0.2497 -1.0888  0.1572
 1800TIP3    H2 5365   0.068   4.005   5.309  1.9194  0.0667 -0.4297
 1801TIP3   OH2 5366   0.696   3.400   1.808  0.0518  0.5101 -0.3738
 1801TIP3    H1 5367   0.733   3.483   1.837  2.2130 -0.7679  0.7736
 1801TIP3    H2 5368   0.756   3.333   1.842 -1.0411 -1.4812 -2.0945
 1802TIP3   OH2 5369   2.275   3.618   3.093  0.3073 -0.4582 -0.3159
 1802TIP3    H1 5370   2.273   3.523   3.085 -0.9143 -0.3765 -1.3541
 1802TIP3    H2 5371   2.341   3.636   3.160  0.0109 -2.0686  0.4394
 1803TIP3   OH2 5372   7.194   0.348   2.888 -0.5346  0.1248  0.3979
 1803TIP3    H1 5373   7.176   0.368   2.979 -0.8969  0.5418  0.2407
 1803TIP3    H2 5374   7.203   0.434   2.846  0.2871 -0.0599  0.1638
 1804TIP3   OH2 5375   4.410   1.730   5.588  0.6214  0.0184 -0.4033
 1804TIP3    H1 5376   4.355   1.734   5.510  0.4983  0.7906 -0.2871
 1804TIP3    H2 5377   4.454   1.815   5.591 -0.2001  0.4318  0.9608
 1805TIP3   OH2 5378   1.311   2.828   2.352  0.1342 -0.4126  0.0388
 1805TIP3    H1 5379   1.329   2.887   2.279  0.5027 -0.2379  0.2697
 1805TIP3    H2 5380   1.232   2.862   2.393  0.9621  0.5895  0.8568
 1806TIP3   OH2 5381   1.296   5.886   2.687  0.3560 -0.3766 -0.2570
 1806TIP3    H1 5382   1.263   5.888   2.597 -0.6900 -1.2535  0.0908
 1806TIP3    H2 5383   1.249   5.956   2.731 -1.6924 -2.0786  0.4195
 1807TIP3   OH2 5384   2.910   6.762   4.672 -0.3180  0.9522 -0.1910
 1807TIP3    H1 5385   2.917   6.668   4.655  0.4276  0.6116  1.7210
 1807TIP3    H2 5386   2.955   6.803   4.598 -1.8568 -0.0808 -1.7803
 1808TIP3   OH2 5387   2.568   5.123   5.169 -0.8108  0.2732  0.4172
 1808TIP3    H1 5388   2.475   5.105   5.159 -0.4590 -0.9981 -1.0997
 1808TIP3    H2 5389   2.604   5.112   5.080  0.6726  1.4496  0.8224
 1809TIP3   OH2 5390   6.894   5.240   1.053 -0.3196  0.1647  0.0143
 1809TIP3    H1 5391   6.888   5.309   1.119  0.7752  0.1295  0.1736
 1809TIP3    H2 5392   6.803   5.218   1.033 -0.7563 -0.9801  2.7230
 1810TIP3   OH2 5393   3.007   2.467   4.987 -0.3231 -0.3374  0.0723
 1810TIP3    H1 5394   3.049   2.541   4.942 -0.2707 -0.9431 -0.9229
 1810TIP3    H2 5395   2.939   2.439   4.927  0.6124 -2.0224 -0.2725
 1811TIP3   OH2 5396   2.761   0.526   1.499 -0.1622  0.2725  0.1706
 1811TIP3    H1 5397   2.761   0.529   1.595 -0.2599 -2.1953  0.2915
 1811TIP3    H2 5398   2.837   0.472   1.477 -1.0732 -0.5590 -1.0570
 1812TIP3   OH2 5399   6.259   3.450   5.344  0.6480  0.0336  0.3076
 1812TIP3    H1 5400   6.312   3.513   5.391 -0.6843 -0.7820  3.0947
 1812TIP3    H2 5401   6.169   3.469   5.371 -0.3409  0.0383 -2.6198
 1813TIP3   OH2 5402   2.303   6.109   2.079  0.2149 -0.6920 -0.4214
 1813TIP3    H1 5403   2.378   6.050   2.085  1.6145  0.8804 -1.4134
 1813TIP3    H2 5404   2.308   6.162   2.159 -0.6431 -1.4600  0.1501
 1814TIP3   OH2 5405   2.515   0.396   1.684  0.0186  0.0053  0.2145
 1814TIP3    H1 5406   2.566   0.322   1.652  0.1330 -0.7041  1.9349
 1814TIP3    H2 5407   2.581   0.461   1.710  0.0142 -0.1805  0.7193
 1815TIP3   OH2 5408   5.611   4.844   0.186 -0.1093  0.0863  0.2856
 1815TIP3    H1 5409   5.583   4.936   0.187 -1.7207 -0.2824 -2.0120
 1815TIP3    H2 5410   5.554   4.801   0.250 -0.7186  0.3794 -0.0485
 1816TIP3   OH2 5411   2.876   2.476   3.311  0.2582  0.0871 -0.1662
 1816TIP3    H1 5412   2.852   2.394   3.353 -0.8213 -0.1464 -1.1908
 1816TIP3    H2 5413   2.963   2.459   3.274 -0.3472 -0.9480 -1.1933
 1817TIP3   OH2 5414   4.007   5.042   4.435  0.3430 -0.1112  0.3964
 1817TIP3    H1 5415   4.074   5.108   4.417 -0.8746  0.5504 -2.2384
 1817TIP3    H2 5416   4.055   4.959   4.436  1.2347  0.2926 -1.8561
 1818TIP3   OH2 5417   1.444   5.338   5.458 -0.5934 -0.6801 -0.0521
 1818TIP3    H1 5418   1.536   5.360   5.475 -1.1116  1.0552  0.6718
 1818TIP3    H2 5419   1.439   5.330   5.362  0.2495 -0.5589 -0.1160
 1819TIP3   OH2 5420   3.492   2.644   5.545  0.3580  0.0173 -0.6544
 1819TIP3    H1 5421   3.421   2.612   5.489  0.3712 -1.0470 -0.0797
 1819TIP3    H2 5422   3.471   2.737   5.558 -1.4517 -0.4701  0.2308
 1820TIP3   OH2 5423   3.241   3.978   1.781 -0.4536  0.2264  0.1032
 1820TIP3    H1 5424   3.318   4.033   1.796 -1.3370  1.8861 -1.2092
 1820TIP3    H2 5425   3.217   3.947   1.868  1.0021  0.6000  0.6726
 1821TIP3   OH2 5426   5.441   5.203   1.500 -0.4400  0.1608  0.1688
 1821TIP3    H1 5427   5.521   5.155   1.523  0.5148  1.1248 -0.9908
 1821TIP3    H2 5428   5.414   5.245   1.581  0.6380  0.3774  0.4400
 1822TIP3   OH2 5429   4.765   5.254   1.122  0.3993 -0.5607 -0.2649
 1822TIP3    H1 5430   4.680   5.211   1.134  0.0767  0.3214  0.7849
 1822TIP3    H2 5431   4.749   5.320   1.055  0.1953 -0.2667  0.0677
 1823TIP3   OH2 5432   3.810   2.915   3.593 -0.3445 -0.1286  0.3170
 1823TIP3    H1 5433   3.770   2.984   3.540 -0.0059 -1.3227 -1.5963
 1823TIP3    H2 5434   3.777   2.833   3.555  1.6637 -1.0839  0.5022
 1824TIP3   OH2 5435   2.861   3.545   5.270  0.8197  0.0691  0.0934
 1824TIP3    H1 5436   2.890   3.631   5.241 -1.8925  1.0624  0.0912
 1824TIP3    H2 5437   2.777   3.561   5.313 -0.6971 -2.7613 -1.5100
 1825TIP3   OH2 5438   6.856   1.983   3.150 -0.7776 -0.3736 -0.1622
 1825TIP3    H1 5439   6.777   1.929   3.154 -0.6846 -0.5167 -0.2293
 1825TIP3    H2 5440   6.879   1.998   3.242 -1.2698  0.2473 -0.1421
 1826TIP3   OH2 5441   5.899   4.519   4.837 -0.8333  0.0405  0.2410
 1826TIP3    H1 5442   5.993   4.526   4.857 -0.5218 -0.2618 -1.0052
 1826TIP3    H2 5443   5.865   4.607   4.853 -0.0563  0.5104 -0.5273
 1827TIP3   OH2 5444   1.743   5.436   1.172 -0.2557  0.1408 -0.6408
 1827TIP3    H1 5445   1.719   5.467   1.085  1.2003 -2.0623 -1.9252
 1827TIP3    H2 5446   1.835   5.409   1.164 -0.6075 -1.8769  1.0230
 1828TIP3   OH2 5447   1.539   6.056   4.813  0.0250  0.2746  0.0267
 1828TIP3    H1 5448   1.453   6.068   4.772 -0.0809  0.6847  0.3527
 1828TIP3    H2 5449   1.520   6.012   4.896  0.3831 -1.9800 -1.0110
 1829TIP3   OH2 5450   0.068   4.732   5.630  0.6668 -0.1669 -0.9832
 1829TIP3    H1 5451  -0.001   4.705   5.691  0.3496  0.7088 -0.9339
 1829TIP3    H2 5452   0.089   4.653   5.580  1.6072 -1.1547  0.8860
 1830TIP3   OH2 5453   1.411   5.427   4.901 -0.2927  0.3008  0.3111
 1830TIP3    H1 5454   1.480   5.361   4.904 -1.0132 -0.4476  1.4829
 1830TIP3    H2 5455   1.410   5.465   4.989 -1.0528  0.6383  0.1669
 1831TIP3   OH2 5456   0.943   5.434   3.521  0.6075 -0.2412 -0.5833
 1831TIP3    H1 5457   0.896   5.517   3.522  3.2987  1.3929 -0.5438
 1831TIP3    H2 5458   0.943   5.405   3.613 -1.6183 -1.1388 -0.8136
 1832TIP3   OH2 5459   3.541   6.302   2.604 -0.4579 -0.1346 -0.6259
 1832TIP3    H1 5460   3.547   6.221   2.655  1.5973  0.4739  0.2101
 1832TIP3    H2 5461   3.626   6.345   2.617 -0.5064  0.9121 -3.1343
 1833TIP3   OH2 5462   0.156   6.745   2.981  0.4292  0.3874 -0.0889
 1833TIP3    H1 5463   0.097   6.720   3.052  1.1703  0.1988  0.4758
 1833TIP3    H2 5464   0.127   6.693   2.906  0.5753 -0.5370  0.4845
 1834TIP3   OH2 5465   1.950   5.068   4.563  0.4484  0.0988 -0.5663
 1834TIP3    H1 5466   2.018   5.024   4.612 -1.2212 -1.8602  0.1497
 1834TIP3    H2 5467   1.980   5.067   4.472  2.2212  1.0941 -0.0239
 1835TIP3   OH2 5468   6.350   5.233   0.263 -0.0570  0.9518  0.2475
 1835TIP3    H1 5469   6.342   5.320   0.222 -0.1803  1.2570  0.9140
 1835TIP3    H2 5470   6.420   5.191   0.214  0.0314  1.4431 -0.0612
 1836TIP3   OH2 5471   5.633   2.733   3.198 -0.0532  0.0846  0.1244
 1836TIP3    H1 5472   5.669   2.780   3.273 -1.5721  0.2838  0.7619
 1836TIP3    H2 5473   5.563   2.789   3.166  0.6818  0.0829 -1.5763
 1837TIP3   OH2 5474   0.726   0.049   3.367  0.1116  0.0176  0.1442
 1837TIP3    H1 5475   0.666   0.068   3.295  0.9459 -1.3081 -0.9684
 1837TIP3    H2 5476   0.813   0.070   3.332  0.5653 -0.9703  0.6380
 1838TIP3   OH2 5477   2.516   5.482   2.183  0.7393  0.6452  0.4232
 1838TIP3    H1 5478   2.577   5.547   2.218 -0.3720  2.1109 -0.2573
 1838TIP3    H2 5479   2.496   5.513   2.095 -0.7618  0.0499  0.5252
 1839TIP3   OH2 5480   4.589   2.435   3.004 -0.4931 -0.0567  0.4490
 1839TIP3    H1 5481   4.529   2.371   2.966 -0.6667 -0.0606  0.7310
 1839TIP3    H2 5482   4.670   2.386   3.018 -0.3225  0.0284 -0.2244
 1840TIP3   OH2 5483   4.436   6.646   2.086  0.1889  0.7648 -0.5264
 1840TIP3    H1 5484   4.480   6.705   2.148  3.3439 -0.3335 -1.5404
 1840TIP3    H2 5485   4.438   6.693   2.003 -1.9822  1.2817 -0.3417
 1841TIP3   OH2 5486   0.499   5.166   4.902 -0.0276  0.1873 -0.2834
 1841TIP3    H1 5487   0.493   5.228   4.975  0.5860  0.7484 -0.6973
 1841TIP3    H2 5488   0.591   5.168   4.876 -0.1065 -0.5144 -0.6408
 1842TIP3   OH2 5489   0.326   0.611   0.152  0.1086  0.4755 -0.1544
 1842TIP3    H1 5490   0.412   0.613   0.111  0.3569  0.6251  0.3591
 1842TIP3    H2 5491   0.320   0.524   0.192  0.2144  0.6265  0.1986
 1843TIP3   OH2 5492   6.414   6.724   1.552  0.0735  0.1969  0.2802
 1843TIP3    H1 5493   6.351   6.724   1.481 -0.4698  2.1164  0.6866
 1843TIP3    H2 5494   6.361   6.716   1.631  0.7118 -2.6207  0.5408
 1844TIP3   OH2 5495   4.740   0.928   4.022  0.0722  0.3605 -0.2706
 1844TIP3    H1 5496   4.684   0.961   4.092  1.6653  1.8720  0.3700
 1844TIP3    H2 5497   4.810   0.881   4.067 -0.1935 -0.7802 -1.0090
 1845TIP3   OH2 5498   6.056   5.464   3.103  0.0520  0.2328  0.2739
 1845TIP3    H1 5499   5.967   5.429   3.095  0.3173 -0.1547 -1.3760
 1845TIP3    H2 5500   6.111   5.387   3.115  0.3220  0.3168 -0.3602
 1846TIP3   OH2 5501   2.272   6.133   3.803  0.1737  0.1824  0.4160
 1846TIP3    H1 5502   2.249   6.146   3.710  0.2852 -1.0337  0.2002
 1846TIP3    H2 5503   2.192   6.155   3.850 -0.2607 -0.3228 -0.0644
 1847TIP3   OH2 5504   1.640   1.902   1.126  0.4231 -0.0310  0.1892
 1847TIP3    H1 5505   1.686   1.822   1.101  1.0871  0.7573 -1.1995
 1847TIP3    H2 5506   1.641   1.956   1.047 -1.2482  0.7827  0.6926
 1848TIP3   OH2 5507   0.936   0.178   1.102  0.0453 -0.2858  0.6675
 1848TIP3    H1 5508   1.001   0.123   1.060 -0.5111 -0.0714 -0.5284
 1848TIP3    H2 5509   0.879   0.117   1.149  0.1981 -0.6110  0.4325
 1849TIP3   OH2 5510   3.593   5.995   3.254  0.2964  0.2060  0.2748
 1849TIP3    H1 5511   3.669   6.030   3.301 -1.3216  2.1565  1.6349
 1849TIP3    H2 5512   3.595   5.901   3.270  0.1133  0.6948  4.0046
 1850TIP3   OH2 5513   3.901   0.137   4.742 -0.1514 -0.2701 -0.1328
 1850TIP3    H1 5514   3.848   0.190   4.801 -1.4464 -0.7569 -0.8413
 1850TIP3    H2 5515   3.983   0.186   4.734 -0.6863  0.7767  0.5379
 1851TIP3   OH2 5516   5.940   1.385   0.666  0.1313 -0.3968 -0.5827
 1851TIP3    H1 5517   5.855   1.362   0.628 -0.6000 -1.3253  1.4721
 1851TIP3    H2 5518   5.991   1.305   0.661  0.4190 -0.2142 -0.5917
 1852TIP3   OH2 5519   2.038   0.516   3.384  0.2834  0.0107 -0.1837
 1852TIP3    H1 5520   2.127   0.483   3.372  0.0964 -0.6476  0.2205
 1852TIP3    H2 5521   1.987   0.440   3.412 -0.0343  0.7194  1.2957
 1853TIP3   OH2 5522   0.656   1.958   5.445 -0.3227  0.0696 -0.0588
 1853TIP3    H1 5523   0.683   1.950   5.537 -0.6377 -2.4107 -0.1031
 1853TIP3    H2 5524   0.564   1.986   5.450  0.2372  1.9799  0.2760
 1854TIP3   OH2 5525   6.495   2.370   1.620  0.0738 -0.1732  0.3019
 1854TIP3    H1 5526   6.509   2.391   1.712 -0.9064 -2.6283  1.0827
 1854TIP3    H2 5527   6.406   2.403   1.602  0.5340  0.9524 -0.0196
 1855TIP3   OH2 5528   6.560   5.079   0.057 -0.2979  0.0237 -0.4846
 1855TIP3    H1 5529   6.596   5.165   0.038 -0.7661 -0.1157 -2.0988
 1855TIP3    H2 5530   6.581   5.026  -0.020 -1.0073 -0.9952 -0.0053
 1856TIP3   OH2 5531   1.082   6.639   5.060  0.0752 -0.3408 -0.1676
 1856TIP3    H1 5532   1.084   6.580   4.984  0.4954 -0.0962 -0.3506
 1856TIP3    H2 5533   1.127   6.718   5.030 -0.4259  0.0508  0.0966
 1857TIP3   OH2 5534   3.669   1.739   2.605 -0.7477  0.6560  0.0837
 1857TIP3    H1 5535   3.668   1.826   2.644  1.1921  0.1968  1.2838
 1857TIP3    H2 5536   3.749   1.698   2.638 -0.4715 -0.8229 -2.1628
 1858TIP3   OH2 5537   6.366   6.186   3.954 -0.3167  0.2133  0.7100
 1858TIP3    H1 5538   6.370   6.272   3.912 -1.9538  0.1613  0.3882
 1858TIP3    H2 5539   6.297   6.195   4.019 -2.0495 -1.4289 -0.7811
 1859TIP3   OH2 5540   3.363   4.558   2.007 -0.1020 -0.4110 -0.2880
 1859TIP3    H1 5541   3.362   4.654   2.016  1.8892 -0.5432  2.3367
 1859TIP3    H2 5542   3.276   4.531   2.038  0.1858  0.4467  1.3841
 1860TIP3   OH2 5543   4.153   6.014   4.019 -0.1789  0.2399  0.1717
 1860TIP3    H1 5544   4.196   5.964   3.950  1.4270  1.5911  0.1110
 1860TIP3    H2 5545   4.199   5.990   4.099 -2.3091 -1.6470  0.9382
 1861TIP3   OH2 5546   2.885   6.218   2.455 -0.2372  0.1431  0.1959
 1861TIP3    H1 5547   2.828   6.286   2.420 -0.1825  0.7186  1.1827
 1861TIP3    H2 5548   2.845   6.136   2.428 -0.1603  0.5603 -1.2387
 1862TIP3   OH2 5549   6.277   3.041   1.187 -0.3200  0.4159  0.1638
 1862TIP3    H1 5550   6.268   3.051   1.281 -0.7807 -2.6537  0.5333
 1862TIP3    H2 5551   6.202   2.988   1.161  1.1966 -1.0564 -1.4746
 1863TIP3   OH2 5552   3.783   2.754   3.324  0.1046  0.6683  0.0406
 1863TIP3    H1 5553   3.851   2.815   3.298  0.2018  1.0453  1.1290
 1863TIP3    H2 5554   3.744   2.724   3.242  0.9824  1.1281 -0.5500
 1864TIP3   OH2 5555   5.891   1.954   2.389 -0.3031 -0.6041  0.3329
 1864TIP3    H1 5556   5.864   1.908   2.310 -0.9485 -0.3274  0.3908
 1864TIP3    H2 5557   5.927   1.885   2.445  2.3606 -0.5093 -1.0901
 1865TIP3   OH2 5558   1.946   2.604   2.306 -0.0654 -0.1466 -0.1519
 1865TIP3    H1 5559   1.907   2.674   2.359  1.4166  1.4027 -1.0334
 1865TIP3    H2 5560   1.890   2.528   2.323 -0.5975  0.6971  2.3608
 1866TIP3   OH2 5561   1.876   6.017   5.385 -0.4994 -0.1323  0.0753
 1866TIP3    H1 5562   1.904   6.084   5.322  0.8508 -1.4968 -0.8464
 1866TIP3    H2 5563   1.938   6.025   5.458  2.5807 -3.0470 -1.8944
 1867TIP3   OH2 5564   2.645   0.208   2.121  0.6345  0.3885 -0.0974
 1867TIP3    H1 5565   2.626   0.114   2.118 -0.3957  0.5362  0.9474
 1867TIP3    H2 5566   2.691   0.226   2.039  1.6268 -1.1790  0.0622
 1868TIP3   OH2 5567   5.555   4.412   0.477 -0.0352 -0.3631  0.0955
 1868TIP3    H1 5568   5.548   4.380   0.387 -0.7340  1.1651 -0.4160
 1868TIP3    H2 5569   5.510   4.345   0.529  0.7628 -1.4881 -0.6128
 1869TIP3   OH2 5570   5.068   3.636   3.543 -0.4040  0.3405 -0.1950
 1869TIP3    H1 5571   5.037   3.629   3.453 -0.8676  2.1891 -0.2218
 1869TIP3    H2 5572   5.151   3.589   3.544 -1.4017 -1.5155 -1.0406
 1870TIP3   OH2 5573   4.314   0.166   4.231  0.7137  0.3829 -0.0857
 1870TIP3    H1 5574   4.245   0.105   4.256  2.7546 -2.3440 -0.6812
 1870TIP3    H2 5575   4.314   0.232   4.300 -0.4342 -1.2619  1.5881
 1871TIP3   OH2 5576   4.937   1.017   3.464  0.1162  0.2548  0.3843
 1871TIP3    H1 5577   4.881   1.090   3.489 -1.4518  0.1766 -2.5397
 1871TIP3    H2 5578   5.026   1.051   3.475 -0.5629  2.5272 -0.5299
 1872TIP3   OH2 5579   0.093   6.093   2.900  0.4164  0.0965  0.8777
 1872TIP3    H1 5580   0.097   6.187   2.913  0.9999  0.0366  1.1852
 1872TIP3    H2 5581   0.026   6.080   2.833  1.5526  0.8755 -0.4800
 1873TIP3   OH2 5582   4.441   5.932   2.740  0.1076  0.2992  0.1891
 1873TIP3    H1 5583   4.422   6.022   2.714  1.0606  0.2825 -0.6211
 1873TIP3    H2 5584   4.428   5.881   2.660 -0.3122 -0.2796  0.6159
 1874TIP3   OH2 5585   2.048   6.444   5.648 -0.3203  0.3737 -0.8406
 1874TIP3    H1 5586   2.074   6.458   5.556  0.1729  0.5628 -0.6781
 1874TIP3    H2 5587   1.969   6.497   5.659  0.6094  1.7828 -0.6823
 1875TIP3   OH2 5588   1.452   3.977   4.559  0.5092  0.3613 -0.5321
 1875TIP3    H1 5589   1.400   3.900   4.582 -0.5740  1.0599 -0.5516
 1875TIP3    H2 5590   1.520   3.944   4.501  0.7801 -0.7609  0.3735
 1876TIP3   OH2 5591   1.948   3.421   0.370 -0.0422 -0.1911  0.6551
 1876TIP3    H1 5592   1.983   3.479   0.437 -0.6591  0.2019  0.6411
 1876TIP3    H2 5593   1.910   3.348   0.419  1.5453 -1.0842  0.6496
 1877TIP3   OH2 5594   4.431   2.905   0.057 -0.2418 -0.3553 -0.0953
 1877TIP3    H1 5595   4.495   2.834   0.067  0.5261  0.2863 -0.3991
 1877TIP3    H2 5596   4.349   2.860   0.037 -0.1675 -1.2585  1.4526
 1878TIP3   OH2 5597   0.749   1.987   4.499 -0.2222 -0.6252 -0.2645
 1878TIP3    H1 5598   0.740   2.037   4.418 -0.9550 -2.7859 -1.5924
 1878TIP3    H2 5599   0.844   1.986   4.515 -0.0598 -0.2355 -1.1255
 1879TIP3   OH2 5600   2.866   5.135   0.039  0.3875 -0.4654 -0.1883
 1879TIP3    H1 5601   2.879   5.063   0.101  1.9731 -0.8990 -0.9531
 1879TIP3    H2 5602   2.941   5.192   0.054  0.9619 -0.7296 -1.8748
 1880TIP3   OH2 5603   2.044   1.205   5.281 -0.3397 -0.4747 -0.0726
 1880TIP3    H1 5604   2.055   1.147   5.356  1.2179 -1.1117 -0.7463
 1880TIP3    H2 5605   2.120   1.186   5.225 -0.4964  1.2724 -0.9423
 1881TIP3   OH2 5606   4.101   0.500   3.685 -0.0735  0.2818  0.1636
 1881TIP3    H1 5607   4.120   0.566   3.618  0.9593 -0.9902 -0.8461
 1881TIP3    H2 5608   4.185   0.483   3.727  0.1650 -1.9035 -1.0501
 1882TIP3   OH2 5609   0.873   5.391   0.362  0.3611  0.2994  0.3435
 1882TIP3    H1 5610   0.967   5.380   0.353  0.5721 -0.9535  3.1207
 1882TIP3    H2 5611   0.847   5.329   0.429 -2.4828  0.6309 -0.2870
 1883TIP3   OH2 5612   2.738   3.976   4.839  0.0003  0.6649 -0.1100
 1883TIP3    H1 5613   2.717   4.062   4.800  0.2425 -0.2113 -2.3464
 1883TIP3    H2 5614   2.739   3.916   4.764  4.0241 -0.5508  0.6879
 1884TIP3   OH2 5615   3.159   2.990   5.649  0.6224 -0.3606 -0.1170
 1884TIP3    H1 5616   3.136   2.995   5.742  1.6982 -0.3294  0.1643
 1884TIP3    H2 5617   3.082   2.952   5.607 -0.0455  0.0256  0.7173
 1885TIP3   OH2 5618   7.060   0.408   4.920 -0.2885  0.3951 -0.1197
 1885TIP3    H1 5619   7.122   0.465   4.965 -1.0850  0.1175  1.4063
 1885TIP3    H2 5620   7.112   0.333   4.892  0.3384  0.8430 -0.1671
 1886TIP3   OH2 5621   4.920   5.989   5.650  0.0788  0.4452  0.1120
 1886TIP3    H1 5622   4.828   6.009   5.633 -1.0661 -3.0314  1.2740
 1886TIP3    H2 5623   4.922   5.960   5.741  2.2611  0.0538 -0.0101
 1887TIP3   OH2 5624   2.680   5.591   0.697 -0.1035  0.0972 -0.3397
 1887TIP3    H1 5625   2.625   5.665   0.725  0.8576  1.4118 -1.7677
 1887TIP3    H2 5626   2.755   5.632   0.654  0.7334 -1.7236 -0.7001
 1888TIP3   OH2 5627   0.001   0.086   5.286  0.3790  0.0152 -0.1951
 1888TIP3    H1 5628   0.064   0.098   5.357 -2.5473  0.5366  2.5596
 1888TIP3    H2 5629  -0.033   0.173   5.269  0.3867 -0.2466 -1.6682
 1889TIP3   OH2 5630   6.368   4.511   0.262 -0.1884 -0.3778 -0.1176
 1889TIP3    H1 5631   6.429   4.562   0.210  1.2505 -3.1272 -1.3510
 1889TIP3    H2 5632   6.298   4.488   0.201 -1.5640  1.1833  0.7946
 1890TIP3   OH2 5633   4.637   1.594   1.823  0.2331 -0.0866 -0.7644
 1890TIP3    H1 5634   4.594   1.511   1.841  0.1961 -0.1103 -0.9591
 1890TIP3    H2 5635   4.613   1.615   1.733  1.3558 -0.5397 -1.1846
 1891TIP3   OH2 5636   3.263   1.785   5.196 -0.1411 -0.3469  0.3171
 1891TIP3    H1 5637   3.240   1.778   5.103 -1.2643  0.7809  0.4804
 1891TIP3    H2 5638   3.228   1.705   5.236  0.5522 -0.9495 -0.2535
 1892TIP3   OH2 5639   1.425   6.466   5.386  0.2310  0.1842  0.2061
 1892TIP3    H1 5640   1.510   6.421   5.386  1.6262  2.6232 -0.6526
 1892TIP3    H2 5641   1.432   6.529   5.458 -1.1390 -0.0205  0.5413
 1893TIP3   OH2 5642   2.765   5.418   0.975  0.3520 -0.1863 -0.0901
 1893TIP3    H1 5643   2.677   5.453   0.965  0.0107 -1.2559 -1.0708
 1893TIP3    H2 5644   2.821   5.481   0.930 -0.1107 -0.2541 -0.7906
 1894TIP3   OH2 5645   3.145   3.120   3.497  0.4727  0.6821 -0.6937
 1894TIP3    H1 5646   3.153   3.115   3.402  0.7085  0.7498 -0.6768
 1894TIP3    H2 5647   3.068   3.066   3.517 -0.2897  1.6105 -1.0341
 1895TIP3   OH2 5648   5.360   2.853   1.573  0.3246 -0.0598  0.4301
 1895TIP3    H1 5649   5.343   2.945   1.553  0.5500  0.3022  1.8103
 1895TIP3    H2 5650   5.304   2.805   1.513  0.7725  0.9513 -0.8629
 1896TIP3   OH2 5651   1.696   3.175   2.807  0.4593  0.3079  0.4039
 1896TIP3    H1 5652   1.644   3.149   2.883 -0.6255  1.2068  0.0052
 1896TIP3    H2 5653   1.758   3.240   2.840  0.0958  0.5783  0.5655
 1897TIP3   OH2 5654   3.814   6.460   0.452  0.0866  0.0787 -0.4029
 1897TIP3    H1 5655   3.904   6.427   0.455  0.6095  1.4251 -0.6402
 1897TIP3    H2 5656   3.765   6.399   0.508  1.0435 -0.9263 -0.6062
 1898TIP3   OH2 5657   2.231   1.811   3.785 -0.9449 -0.2481  0.2638
 1898TIP3    H1 5658   2.268   1.723   3.790 -1.6317 -0.4689  2.3673
 1898TIP3    H2 5659   2.186   1.812   3.700  0.9937 -1.0920 -0.8433
 1899TIP3   OH2 5660   4.377   2.408   2.494 -0.5998  0.2908  0.1093
 1899TIP3    H1 5661   4.331   2.365   2.422  2.2730 -0.9151 -1.1666
 1899TIP3    H2 5662   4.458   2.440   2.455 -0.1114  1.9557  2.2952
 1900TIP3   OH2 5663   3.555   5.024   2.236 -0.1966 -0.1989  0.1061
 1900TIP3    H1 5664   3.637   5.062   2.267 -0.6311  1.1728 -0.3670
 1900TIP3    H2 5665   3.503   5.099   2.208 -2.0817 -0.9136  1.4445
 1901TIP3   OH2 5666   1.611   3.388   2.193 -0.2181 -0.2022 -0.5709
 1901TIP3    H1 5667   1.516   3.395   2.203 -0.1641  1.0461 -0.7852
 1901TIP3    H2 5668   1.633   3.451   2.125  0.8059 -0.2647 -0.3186
 1902TIP3   OH2 5669   6.986   5.992   1.370  0.5204  0.0487 -0.7841
 1902TIP3    H1 5670   6.971   6.002   1.464 -1.1888 -0.4205 -0.9779
 1902TIP3    H2 5671   6.919   5.931   1.341  0.1970  1.1618 -2.5404
 1903TIP3   OH2 5672   6.731   1.109   5.622  0.3002 -0.1876  0.0523
 1903TIP3    H1 5673   6.747   1.026   5.576 -0.9832  0.2615 -1.2600
 1903TIP3    H2 5674   6.695   1.167   5.555  0.2918  1.1521  1.1775
 1904TIP3   OH2 5675   1.243   3.102   2.759 -0.4823 -0.4480 -0.2776
 1904TIP3    H1 5676   1.314   3.060   2.808  0.6244  0.8531 -0.6983
 1904TIP3    H2 5677   1.264   3.085   2.667 -0.7046 -0.0274 -0.4061
 1905TIP3   OH2 5678   0.327   3.848   1.154  0.2853 -0.1314  0.1346
 1905TIP3    H1 5679   0.338   3.920   1.216  1.4108 -0.1955  0.0315
 1905TIP3    H2 5680   0.413   3.837   1.115  0.4731 -2.3237  1.0187
 1906TIP3   OH2 5681   1.613   1.612   0.812  0.2654  0.0223 -0.3144
 1906TIP3    H1 5682   1.559   1.582   0.886 -1.7158  1.3495 -1.1406
 1906TIP3    H2 5683   1.667   1.536   0.790 -0.3874 -0.9833  1.3387
 1907TIP3   OH2 5684   0.781   4.620   4.896  0.1179 -0.3155  0.0351
 1907TIP3    H1 5685   0.864   4.642   4.938 -0.9574  1.0773  1.5378
 1907TIP3    H2 5686   0.748   4.546   4.947 -0.2710  0.1098  0.4007
 1908TIP3   OH2 5687   2.543   3.661   5.123 -0.9749  0.1991 -0.4548
 1908TIP3    H1 5688   2.629   3.670   5.082 -0.8990 -0.3912 -0.4237
 1908TIP3    H2 5689   2.504   3.748   5.113  0.0380  0.7914  0.4770
 1909TIP3   OH2 5690   4.709   0.812   1.322  0.0630 -0.2599 -0.3385
 1909TIP3    H1 5691   4.772   0.781   1.256  0.6345  0.8456 -0.3419
 1909TIP3    H2 5692   4.763   0.857   1.387 -0.6679  0.2189 -0.0512
 1910TIP3   OH2 5693   4.531   2.915   2.842 -0.5173  0.1329  0.4517
 1910TIP3    H1 5694   4.622   2.933   2.866  0.7098  1.5303 -4.2255
 1910TIP3    H2 5695   4.480   2.976   2.896  1.4652  0.8390  1.6441
 1911TIP3   OH2 5696   7.097   5.526   4.457 -0.0254 -0.1911  0.7590
 1911TIP3    H1 5697   7.027   5.583   4.488 -0.9811 -1.5520  1.1972
 1911TIP3    H2 5698   7.072   5.505   4.366  0.7164  0.6615  0.3446
 1912TIP3   OH2 5699   2.886   1.670   0.492 -0.1638  0.1073  0.2975
 1912TIP3    H1 5700   2.964   1.712   0.455 -0.4834 -0.1493 -0.7018
 1912TIP3    H2 5701   2.838   1.741   0.533 -0.0504  0.4950 -0.2304
 1913TIP3   OH2 5702   7.117   2.889   0.138  0.0423 -0.1331 -0.1347
 1913TIP3    H1 5703   7.070   2.806   0.145 -0.2156  0.0935  1.0616
 1913TIP3    H2 5704   7.099   2.919   0.049  2.6995 -2.8516 -1.7746
 1914TIP3   OH2 5705   6.209   2.069   5.081 -0.2877 -0.0134  0.7157
 1914TIP3    H1 5706   6.137   2.094   5.139  0.2661  1.8150  0.6704
 1914TIP3    H2 5707   6.287   2.081   5.134  0.1916  1.2016 -0.2425
 1915TIP3   OH2 5708   5.365   5.930   2.124 -0.0099 -0.1916  0.0286
 1915TIP3    H1 5709   5.327   5.844   2.106 -2.5963  0.7736  0.3949
 1915TIP3    H2 5710   5.354   5.942   2.219  0.3612  0.5248 -0.0076
 1916TIP3   OH2 5711   0.218   5.772   4.181  0.1861  0.5031 -0.4164
 1916TIP3    H1 5712   0.239   5.737   4.268 -0.1726  0.4007 -0.3729
 1916TIP3    H2 5713   0.289   5.834   4.163  0.4070  0.3244 -0.1665
 1917TIP3   OH2 5714   1.036   6.208   3.998  0.4064 -0.3622 -0.0015
 1917TIP3    H1 5715   1.047   6.123   4.041 -2.5342 -1.8253 -1.8231
 1917TIP3    H2 5716   1.071   6.194   3.910  1.2254  0.8150  0.1210
 1918TIP3   OH2 5717   6.698   4.548   0.447  0.1336 -0.7194  0.3088
 1918TIP3    H1 5718   6.761   4.481   0.421  0.8005  0.1610 -0.4255
 1918TIP3    H2 5719   6.662   4.581   0.365  0.0313  0.0104  0.6348
 1919TIP3   OH2 5720   6.109   4.396   4.251  0.2649  0.3339 -0.1145
 1919TIP3    H1 5721   6.184   4.353   4.209 -0.7467  0.3205 -2.0439
 1919TIP3    H2 5722   6.035   4.337   4.234 -0.4051  0.8832  0.7826
 1920TIP3   OH2 5723   7.026   5.673   2.627  0.2468 -0.0094 -0.3443
 1920TIP3    H1 5724   6.936   5.662   2.595  0.2810  1.1933 -0.8988
 1920TIP3    H2 5725   7.054   5.584   2.650 -0.8804 -0.4784 -0.6987
 1921TIP3   OH2 5726   0.863   3.670   0.804 -0.5998 -0.0647 -0.1376
 1921TIP3    H1 5727   0.794   3.609   0.831  0.9620 -2.5247 -1.3173
 1921TIP3    H2 5728   0.929   3.614   0.764  0.8968  2.4883 -1.4617
 1922TIP3   OH2 5729   2.159   5.661   2.258 -0.2403 -0.4758 -0.3705
 1922TIP3    H1 5730   2.099   5.685   2.328 -0.3664 -0.3616 -0.5178
 1922TIP3    H2 5731   2.244   5.697   2.286 -0.5466  0.6460 -0.8636
 1923TIP3   OH2 5732   1.726   5.541   5.818  0.2325  0.4933 -0.4675
 1923TIP3    H1 5733   1.705   5.505   5.732  0.6127 -1.8219  0.3208
 1923TIP3    H2 5734   1.643   5.538   5.866 -0.1809  2.6031 -0.9659
 1924TIP3   OH2 5735   6.890   3.005   4.341 -0.8023  0.4924  0.0041
 1924TIP3    H1 5736   6.962   3.037   4.286 -0.8012 -0.7641 -0.7499
 1924TIP3    H2 5737   6.910   3.039   4.428  2.4394 -2.3880  0.5669
 1925TIP3   OH2 5738   3.905   3.649   3.506  0.2040 -0.0272  0.2307
 1925TIP3    H1 5739   3.883   3.573   3.560  0.0897 -1.3926 -1.6284
 1925TIP3    H2 5740   3.821   3.690   3.487  0.0360 -0.6421 -0.4089
 1926TIP3   OH2 5741   4.617   0.864   5.081  0.5798  0.6532  0.1775
 1926TIP3    H1 5742   4.696   0.881   5.133  0.6591 -0.4444  0.4446
 1926TIP3    H2 5743   4.544   0.877   5.142  0.6816 -0.8321  0.6429
 1927TIP3   OH2 5744   4.601   5.509   0.533 -0.3301 -0.3584 -0.2719
 1927TIP3    H1 5745   4.656   5.432   0.518  0.4297 -0.6840  3.1595
 1927TIP3    H2 5746   4.659   5.584   0.521  0.3149 -0.6077  1.0616
 1928TIP3   OH2 5747   2.371   5.459   4.370 -0.1579 -0.4847  0.3300
 1928TIP3    H1 5748   2.336   5.534   4.322  0.6191  0.3890  1.0867
 1928TIP3    H2 5749   2.295   5.421   4.414 -0.6035 -0.3190 -0.2737
 1929TIP3   OH2 5750   4.431   2.901   3.764 -0.6550 -0.6324  0.7032
 1929TIP3    H1 5751   4.456   2.808   3.764 -0.8062 -0.7367 -1.6208
 1929TIP3    H2 5752   4.512   2.948   3.783 -0.6441 -1.2317  2.2139
 1930TIP3   OH2 5753   2.121   5.064   2.809  0.1093  0.2066  0.0592
 1930TIP3    H1 5754   2.195   5.114   2.776  1.2833 -1.7374 -0.4490
 1930TIP3    H2 5755   2.059   5.062   2.735  0.2428  0.5447 -0.0616
 1931TIP3   OH2 5756   0.141   4.035   1.468  0.3970  0.3852  0.2709
 1931TIP3    H1 5757   0.049   4.012   1.456  0.8518 -0.2907 -2.4525
 1931TIP3    H2 5758   0.181   3.957   1.506  0.1420  0.1099 -0.0277
 1932TIP3   OH2 5759   2.931   1.169   4.883  0.2785  0.2446 -0.2251
 1932TIP3    H1 5760   2.986   1.149   4.959  0.2535 -0.0980 -0.2956
 1932TIP3    H2 5761   2.854   1.212   4.920  0.6124  0.7716 -0.1286
 1933TIP3   OH2 5762   3.416   4.517   4.221  0.3252 -0.4347 -0.0442
 1933TIP3    H1 5763   3.375   4.432   4.202 -0.1461 -0.4163  0.8290
 1933TIP3    H2 5764   3.437   4.553   4.135 -1.0476 -0.6780 -0.5095
 1934TIP3   OH2 5765   5.433   2.790   3.740 -0.0609  0.1362 -0.2085
 1934TIP3    H1 5766   5.498   2.729   3.707 -0.7718  0.0177 -1.4855
 1934TIP3    H2 5767   5.467   2.877   3.717  0.9018  0.2536  1.5190
 1935TIP3   OH2 5768   2.557   0.201   0.428  0.3819  0.3694  0.0950
 1935TIP3    H1 5769   2.509   0.147   0.366  0.0454  3.5933 -2.7693
 1935TIP3    H2 5770   2.647   0.201   0.395  0.3615  1.5133 -0.0035
 1936TIP3   OH2 5771   0.767   4.788   3.482  0.0038 -0.2272  0.4539
 1936TIP3    H1 5772   0.694   4.744   3.524 -2.1691 -0.1526 -2.8592
 1936TIP3    H2 5773   0.737   4.877   3.467  0.0717 -0.5366 -2.1589
 1937TIP3   OH2 5774   6.106   2.858   3.901  0.3879  0.3736 -0.2838
 1937TIP3    H1 5775   6.164   2.859   3.824  0.8835 -1.4867  0.0007
 1937TIP3    H2 5776   6.116   2.769   3.936 -0.3520  0.9763  1.5429
 1938TIP3   OH2 5777   3.359   6.118   0.475 -0.1566 -0.1107 -0.2799
 1938TIP3    H1 5778   3.345   6.040   0.528 -1.3725  0.1670 -0.1408
 1938TIP3    H2 5779   3.405   6.088   0.397 -1.3929 -1.1347 -0.6422
 1939TIP3   OH2 5780   0.656   2.949   1.284  0.5185  0.7922  0.1145
 1939TIP3    H1 5781   0.712   2.882   1.245  1.5621  1.0474  1.1432
 1939TIP3    H2 5782   0.619   2.908   1.362 -0.4283  0.7576 -0.3403
 1940TIP3   OH2 5783   3.061   6.770   4.440  0.4122 -0.2757 -0.0666
 1940TIP3    H1 5784   3.015   6.782   4.356 -0.1778 -0.1423  0.2650
 1940TIP3    H2 5785   3.107   6.687   4.431 -1.6925 -1.5686  0.3654
 1941TIP3   OH2 5786   0.664   5.872   1.416 -0.0106 -0.3225 -0.0393
 1941TIP3    H1 5787   0.729   5.828   1.361  0.1352 -0.2746  0.0947
 1941TIP3    H2 5788   0.697   5.961   1.425 -0.9294  0.1717 -1.3310
 1942TIP3   OH2 5789   5.667   5.607   0.973 -0.0854 -0.9019 -0.4198
 1942TIP3    H1 5790   5.676   5.649   0.887  0.3052  0.6350  0.3366
 1942TIP3    H2 5791   5.592   5.548   0.963 -0.4142 -0.3148 -1.6361
 1943TIP3   OH2 5792   6.645   0.864   1.938 -0.5046  0.6413  0.0857
 1943TIP3    H1 5793   6.616   0.950   1.966 -0.0364  0.6993  0.3984
 1943TIP3    H2 5794   6.679   0.823   2.017  1.1512  0.9343 -0.4414
 1944TIP3   OH2 5795   4.075   2.636   1.711 -0.1941  0.1443 -0.1907
 1944TIP3    H1 5796   3.980   2.625   1.720 -0.4539  0.3274 -2.1955
 1944TIP3    H2 5797   4.102   2.679   1.792 -1.0037 -4.0917  2.6676
 1945TIP3   OH2 5798   1.886   1.789   4.573  0.5363 -0.4559 -0.5706
 1945TIP3    H1 5799   1.977   1.802   4.548  0.5590 -0.5981 -0.5612
 1945TIP3    H2 5800   1.870   1.853   4.642  0.5001 -0.1211 -0.8804
 1946TIP3   OH2 5801   1.297   6.136   4.724  0.0092  0.3838 -0.5993
 1946TIP3    H1 5802   1.284   6.135   4.629  1.2673 -1.7534 -0.8190
 1946TIP3    H2 5803   1.212   6.112   4.761 -0.4399  1.0621 -1.1700
 1947TIP3   OH2 5804   5.200   1.382   3.617  0.7171 -0.5645  0.4092
 1947TIP3    H1 5805   5.288   1.355   3.593  1.4462 -0.3833  2.6350
 1947TIP3    H2 5806   5.176   1.323   3.689  0.0834  1.0213  1.5559
 1948TIP3   OH2 5807   1.160   0.587   2.540  0.5910  0.6284 -0.4269
 1948TIP3    H1 5808   1.186   0.561   2.629 -0.5906  0.8227  0.0059
 1948TIP3    H2 5809   1.193   0.676   2.530 -0.2116  1.0196  0.2592
 1949TIP3   OH2 5810   6.035   2.923   1.134 -0.0286  0.3247 -0.1891
 1949TIP3    H1 5811   6.020   2.944   1.041  0.4602  0.2400 -0.2875
 1949TIP3    H2 5812   5.947   2.903   1.167 -0.0906 -0.7329 -0.9093
 1950TIP3   OH2 5813   4.507   1.625   0.614 -0.2582  0.4367 -0.0002
 1950TIP3    H1 5814   4.557   1.706   0.601 -0.1521  0.6273  1.4317
 1950TIP3    H2 5815   4.573   1.556   0.612 -0.4574  0.2393 -2.2030
 1951TIP3   OH2 5816   1.817   4.491   5.767 -0.6976 -0.2155 -0.2597
 1951TIP3    H1 5817   1.773   4.444   5.838 -1.5279  1.7987  0.6433
 1951TIP3    H2 5818   1.884   4.544   5.811  0.0598 -0.3621 -1.2070
 1952TIP3   OH2 5819   6.209   4.053   4.003 -0.1121  0.1625  0.1359
 1952TIP3    H1 5820   6.156   4.000   4.063 -3.7898  2.1864 -1.0712
 1952TIP3    H2 5821   6.195   4.143   4.032  0.8479  0.9380 -1.6940
 1953TIP3   OH2 5822   2.454   5.534   1.926  0.1123 -0.0735  0.0503
 1953TIP3    H1 5823   2.500   5.610   1.889 -0.3894  0.1457 -0.1360
 1953TIP3    H2 5824   2.422   5.486   1.849  0.3420 -0.4268  0.1705
 1954TIP3   OH2 5825   0.378   3.450   2.688  0.2865 -0.5351  0.1069
 1954TIP3    H1 5826   0.388   3.425   2.596  0.0994 -1.8067  0.4193
 1954TIP3    H2 5827   0.283   3.464   2.698  0.3491 -0.0356  0.0219
 1955TIP3   OH2 5828   0.650   1.179   2.190  0.2465 -0.0993  0.5492
 1955TIP3    H1 5829   0.744   1.169   2.176 -0.0116 -0.0199 -1.5394
 1955TIP3    H2 5830   0.640   1.270   2.219  0.6736  0.6002 -1.3023
 1956TIP3   OH2 5831   5.865   6.038   5.084 -0.1889  0.0590  0.0439
 1956TIP3    H1 5832   5.832   5.983   5.013  1.6561 -1.1282  0.0611
 1956TIP3    H2 5833   5.822   6.005   5.163  1.4159 -1.9043  0.1623
 1957TIP3   OH2 5834   4.700   6.400   4.787  0.0978 -0.4757  0.2739
 1957TIP3    H1 5835   4.630   6.335   4.790 -0.9152  0.5463 -0.4326
 1957TIP3    H2 5836   4.749   6.387   4.869 -0.5784 -1.5581  0.5209
 1958TIP3   OH2 5837   3.012   2.651   4.345  0.4403  0.6676 -0.1153
 1958TIP3    H1 5838   3.043   2.618   4.430  1.4474  0.6365 -0.4816
 1958TIP3    H2 5839   3.043   2.741   4.342  0.0298  0.8052 -0.2733
 1959TIP3   OH2 5840   6.127   1.588   5.335  0.3956  0.3624 -0.9024
 1959TIP3    H1 5841   6.182   1.638   5.275  0.6665  0.6051 -0.4566
 1959TIP3    H2 5842   6.047   1.571   5.286 -0.2609  2.3683 -0.6240
 1960TIP3   OH2 5843   5.142   1.790   1.297 -0.1142  0.4311  0.2584
 1960TIP3    H1 5844   5.170   1.705   1.264  0.0058  0.9770 -1.0778
 1960TIP3    H2 5845   5.135   1.777   1.392  0.3417 -0.9325  0.1291
 1961TIP3   OH2 5846   3.950   0.152   4.140  0.3464  0.6561 -0.4634
 1961TIP3    H1 5847   3.987   0.228   4.093 -0.0687  1.9541  1.2079
 1961TIP3    H2 5848   3.864   0.182   4.170  0.1913 -0.4779  0.2765
 1962TIP3   OH2 5849   4.954   4.500   1.223 -0.0201  0.0740  0.0343
 1962TIP3    H1 5850   4.904   4.562   1.277  0.9528 -0.0702  1.1196
 1962TIP3    H2 5851   4.895   4.480   1.150 -1.4035  0.2141  1.0696
 1963TIP3   OH2 5852   5.678   0.880   3.278  0.5336  0.2572 -1.1333
 1963TIP3    H1 5853   5.669   0.889   3.373  1.0617 -0.9197 -0.9583
 1963TIP3    H2 5854   5.749   0.940   3.255  1.5679 -0.7170 -0.5291
 1964TIP3   OH2 5855   6.502   2.325   2.201 -0.2794 -0.0267 -0.5165
 1964TIP3    H1 5856   6.462   2.397   2.249 -0.2509 -0.4685  0.1782
 1964TIP3    H2 5857   6.515   2.359   2.113 -0.8375  0.6078 -0.3575
 1965TIP3   OH2 5858   1.089   4.150   1.810 -0.3017 -0.0779  0.8117
 1965TIP3    H1 5859   1.045   4.230   1.841 -1.2786  0.4318 -1.6831
 1965TIP3    H2 5860   1.037   4.121   1.736  3.1586  0.2094 -2.0078
 1966TIP3   OH2 5861   4.067   4.312   0.919 -0.0447  0.2751 -0.2708
 1966TIP3    H1 5862   4.156   4.349   0.914 -0.1503  0.5045 -0.4542
 1966TIP3    H2 5863   4.057   4.262   0.838  0.2811 -0.5761  0.2023
 1967TIP3   OH2 5864   6.427   2.129   4.339  0.1077 -0.4395 -0.2254
 1967TIP3    H1 5865   6.401   2.220   4.351  0.0881 -0.6199  1.3323
 1967TIP3    H2 5866   6.505   2.119   4.394 -0.2217 -1.4889  0.0775
 1968TIP3   OH2 5867   1.441   0.122   4.367  0.0428  0.4228  0.3905
 1968TIP3    H1 5868   1.443   0.216   4.381  0.0182  0.4585  0.1536
 1968TIP3    H2 5869   1.511   0.088   4.424  1.2868  0.7649 -0.8835
 1969TIP3   OH2 5870   1.768   0.203   3.752  0.3168  0.1301 -0.4316
 1969TIP3    H1 5871   1.811   0.138   3.808  0.3016  0.1817 -0.3598
 1969TIP3    H2 5872   1.677   0.173   3.746  0.1362  0.5379  0.1938
 1970TIP3   OH2 5873   6.784   2.961   0.244 -0.0081  0.1888  0.0613
 1970TIP3    H1 5874   6.855   3.025   0.241  0.5555 -0.3937  0.7787
 1970TIP3    H2 5875   6.801   2.903   0.169 -0.2354  0.5726 -0.2909
 1971TIP3   OH2 5876   1.350   2.322   1.930 -0.1205 -0.0490  0.2025
 1971TIP3    H1 5877   1.380   2.250   1.986 -0.9323 -1.3609 -0.9900
 1971TIP3    H2 5878   1.255   2.309   1.923  0.0382 -0.2627 -1.9299
 1972TIP3   OH2 5879   6.723   0.080   4.492 -0.3119  0.3290  0.3793
 1972TIP3    H1 5880   6.684  -0.005   4.511 -1.1115  0.4890 -0.4781
 1972TIP3    H2 5881   6.763   0.107   4.575 -1.0458 -0.3595  0.9771
 1973TIP3   OH2 5882   6.003   2.135   1.633  0.2928 -0.5738  0.7137
 1973TIP3    H1 5883   5.966   2.221   1.655 -0.5531 -1.1991  1.8682
 1973TIP3    H2 5884   6.071   2.154   1.569 -0.5334  0.8662  0.2061
 1974TIP3   OH2 5885   1.759   5.661   1.362  0.5592  0.9549  0.2525
 1974TIP3    H1 5886   1.817   5.660   1.286 -0.7894  0.6025 -0.8135
 1974TIP3    H2 5887   1.800   5.722   1.423  1.4548  1.5746 -0.9342
 1975TIP3   OH2 5888   2.262   6.516   2.904  0.4864 -0.0317  0.2597
 1975TIP3    H1 5889   2.235   6.454   2.836  2.4678 -2.3457  1.4317
 1975TIP3    H2 5890   2.210   6.595   2.886 -2.0561 -1.9107 -1.4381
 1976TIP3   OH2 5891   5.200   6.669   5.777 -0.2378  0.1537  0.5946
 1976TIP3    H1 5892   5.118   6.651   5.730  1.9798 -3.6897 -2.3837
 1976TIP3    H2 5893   5.180   6.651   5.868 -3.3582  2.4255  0.5354
 1977TIP3   OH2 5894   3.919   1.173   5.290 -0.1534  0.0627  0.0882
 1977TIP3    H1 5895   3.896   1.168   5.383  0.8435  1.2969  0.4443
 1977TIP3    H2 5896   3.936   1.083   5.264  1.8252 -0.1375  1.7731
 1978TIP3   OH2 5897   2.135   0.617   0.075 -0.8015 -0.1945 -0.0368
 1978TIP3    H1 5898   2.190   0.650   0.146 -0.5428 -0.2386 -0.2121
 1978TIP3    H2 5899   2.189   0.550   0.032 -0.9695 -0.1975 -0.2488
 1979TIP3   OH2 5900   4.141   4.726   0.070  0.2751  0.7647 -0.1344
 1979TIP3    H1 5901   4.200   4.795   0.038 -1.3183  1.3029 -2.1077
 1979TIP3    H2 5902   4.179   4.645   0.037  0.1811  1.0674 -1.0087
 1980TIP3   OH2 5903   0.553   4.455   3.167 -0.7218 -0.6540 -0.3608
 1980TIP3    H1 5904   0.603   4.386   3.209 -1.6810 -0.1973  1.6338
 1980TIP3    H2 5905   0.588   4.536   3.203 -2.4691 -0.3069  0.6420
 1981TIP3   OH2 5906   5.433   5.470   1.933  0.8423  0.2049  0.3687
 1981TIP3    H1 5907   5.453   5.561   1.912 -0.4550  0.4200 -0.0047
 1981TIP3    H2 5908   5.470   5.420   1.859 -0.3646  0.6318 -0.5451
 1982TIP3   OH2 5909   3.498   5.613   3.509 -0.3685 -0.0275 -0.3401
 1982TIP3    H1 5910   3.507   5.661   3.427  0.7318  1.2856  0.5074
 1982TIP3    H2 5911   3.490   5.680   3.576 -0.1650 -1.0453  0.7480
 1983TIP3   OH2 5912   3.225   2.265   1.075  0.0504  0.3818 -0.4676
 1983TIP3    H1 5913   3.162   2.196   1.054  0.5241 -0.3665  0.4819
 1983TIP3    H2 5914   3.236   2.260   1.170  2.7333 -0.6376 -0.7375
 1984TIP3   OH2 5915   0.180   5.083   1.486  0.1897  0.1322  0.0320
 1984TIP3    H1 5916   0.226   5.062   1.566  0.5862  0.7026 -0.0414
 1984TIP3    H2 5917   0.144   5.170   1.501 -2.8336 -1.1440  0.9677
 1985TIP3   OH2 5918   3.649   4.078   2.059  0.2165  0.0414 -0.1294
 1985TIP3    H1 5919   3.554   4.081   2.073  0.1746  1.7359 -0.5637
 1985TIP3    H2 5920   3.661   4.112   1.970  1.2417 -0.2154 -0.0963
 1986TIP3   OH2 5921   6.805   2.645   1.061  0.2473 -0.3123 -0.1144
 1986TIP3    H1 5922   6.726   2.604   1.027 -0.0302 -0.3417  0.5507
 1986TIP3    H2 5923   6.875   2.582   1.042 -0.1945 -1.1788  1.0283
 1987TIP3   OH2 5924   5.555   6.808   5.724 -0.4412  0.4028  0.5851
 1987TIP3    H1 5925   5.584   6.720   5.696  1.1809  0.9331  0.4560
 1987TIP3    H2 5926   5.496   6.836   5.655  0.0511 -0.0841 -0.0564
 1988TIP3   OH2 5927   2.542   4.913   2.032  0.4537 -0.0894  0.3113
 1988TIP3    H1 5928   2.518   5.005   2.025 -0.0906 -0.2619 -0.1687
 1988TIP3    H2 5929   2.601   4.909   2.107  1.0023  0.7504 -0.0600
 1989TIP3   OH2 5930   5.745   5.394   3.339 -0.5541 -0.3121 -0.5216
 1989TIP3    H1 5931   5.726   5.407   3.247 -2.5877 -1.3160 -0.3103
 1989TIP3    H2 5932   5.719   5.476   3.382 -1.1194 -0.4028 -0.6780
 1990TIP3   OH2 5933   1.283   5.446   4.392  0.0393 -0.4479  0.6515
 1990TIP3    H1 5934   1.226   5.523   4.395  0.2008 -0.2571 -0.5094
 1990TIP3    H2 5935   1.230   5.377   4.353  0.5191 -0.3288 -0.2400
 1991TIP3   OH2 5936   5.840   3.325   0.358  0.4609 -0.0386 -0.4820
 1991TIP3    H1 5937   5.763   3.375   0.332  0.6809 -0.1780 -1.4326
 1991TIP3    H2 5938   5.806   3.239   0.381  0.2166  0.2082  0.1192
 1992TIP3   OH2 5939   4.700   6.453   0.375 -0.5717 -1.2212  0.2411
 1992TIP3    H1 5940   4.775   6.398   0.400  0.9790  0.6040 -0.1663
 1992TIP3    H2 5941   4.684   6.432   0.284 -0.7626 -1.8567  0.4202
 1993TIP3   OH2 5942   0.739   2.821   4.904 -0.3939  0.3801 -0.4245
 1993TIP3    H1 5943   0.745   2.766   4.983  3.7397 -0.1429 -0.8601
 1993TIP3    H2 5944   0.783   2.902   4.929  0.1681  0.5544 -1.9194
 1994TIP3   OH2 5945   0.668   0.599   3.876 -0.3381  0.8391 -0.4356
 1994TIP3    H1 5946   0.604   0.643   3.933 -0.4859 -1.6166  1.4590
 1994TIP3    H2 5947   0.743   0.584   3.933  0.0202 -0.5714 -1.2452
 1995TIP3   OH2 5948   4.946   1.127   1.823 -0.0413  0.0596  0.2412
 1995TIP3    H1 5949   4.928   1.126   1.917  0.8798  0.0996  0.4329
 1995TIP3    H2 5950   4.981   1.040   1.804 -0.6600 -0.1104 -0.1655
 1996TIP3   OH2 5951   1.268   1.594   1.738  0.2991  0.1388 -0.1169
 1996TIP3    H1 5952   1.354   1.610   1.778  0.1250  1.2992 -0.1661
 1996TIP3    H2 5953   1.285   1.531   1.668  0.7410 -1.3134  1.2373
 1997TIP3   OH2 5954   1.182   6.832   2.550  0.2890  0.3006  0.8265
 1997TIP3    H1 5955   1.160   6.741   2.569  0.1408  0.4126  1.1893
 1997TIP3    H2 5956   1.274   6.841   2.577  0.5746  0.0332 -0.0039
 1998TIP3   OH2 5957   4.986   0.553   0.383  0.3855 -0.0664  0.2555
 1998TIP3    H1 5958   4.895   0.569   0.407  0.1112 -1.9296  0.6239
 1998TIP3    H2 5959   4.995   0.458   0.384  2.2705  0.0602 -0.0433
 1999TIP3   OH2 5960   5.172   0.905   5.488 -0.5125 -0.8947 -0.6228
 1999TIP3    H1 5961   5.142   0.819   5.516  1.3161 -1.0939  0.8969
 1999TIP3    H2 5962   5.151   0.963   5.562 -0.4992 -0.3074 -1.0698
 2000TIP3   OH2 5963   5.151   2.037   1.533  0.0379 -0.0609 -0.1239
 2000TIP3    H1 5964   5.084   2.052   1.601 -0.0100  0.8114 -0.3483
 2000TIP3    H2 5965   5.102   2.001   1.459  0.1692 -1.4976  0.4673
 2001TIP3   OH2 5966   2.989   5.213   0.959  0.2506  0.6235 -0.4966
 2001TIP3    H1 5967   2.929   5.267   0.907 -2.4546 -0.5374  1.2048
 2001TIP3    H2 5968   2.946   5.204   1.044  2.1608 -1.5501  0.3512
 2002TIP3   OH2 5969   4.691   3.107   1.684 -0.0528 -0.3724  0.4266
 2002TIP3    H1 5970   4.737   3.184   1.718 -2.5013  1.3384  0.1969
 2002TIP3    H2 5971   4.642   3.073   1.758 -0.0526 -0.8561  0.2078
 2003TIP3   OH2 5972   0.332   5.115   3.133  0.5221  0.0030  0.3486
 2003TIP3    H1 5973   0.262   5.112   3.068  1.0161  1.0485 -0.2473
 2003TIP3    H2 5974   0.292   5.077   3.212 -0.5551  0.1111 -0.1202
 2004TIP3   OH2 5975   2.146   6.355   0.810  0.2978  0.1016  0.6072
 2004TIP3    H1 5976   2.100   6.275   0.836 -1.3208  0.7810 -0.0200
 2004TIP3    H2 5977   2.169   6.341   0.718  1.6624 -0.3561  1.0012
 2005TIP3   OH2 5978   4.904   3.178   4.376  0.4832  0.6110  0.3426
 2005TIP3    H1 5979   4.900   3.213   4.288  4.1899 -0.3026 -0.3475
 2005TIP3    H2 5980   4.926   3.085   4.365 -1.4376 -0.1555  2.2257
 2006TIP3   OH2 5981   2.682   1.678   0.767  0.0885  0.2180 -0.2081
 2006TIP3    H1 5982   2.609   1.664   0.828  0.0813 -2.0180 -0.6229
 2006TIP3    H2 5983   2.647   1.655   0.681  1.4251 -1.7009 -0.3085
 2007TIP3   OH2 5984   5.233   0.694   0.039  0.2685 -0.0320  0.1743
 2007TIP3    H1 5985   5.223   0.738   0.123 -0.9406  0.0062  0.0207
 2007TIP3    H2 5986   5.296   0.623   0.056  0.7964  0.5941  0.8551
 2008TIP3   OH2 5987   4.623   5.522   2.917 -0.4120  0.4405  0.0089
 2008TIP3    H1 5988   4.697   5.576   2.890 -0.9550  0.9299 -0.5379
 2008TIP3    H2 5989   4.581   5.495   2.835 -0.2331 -0.7176  0.2711
 2009TIP3   OH2 5990   3.479   1.645   2.420  0.6287  0.2546 -0.1116
 2009TIP3    H1 5991   3.415   1.716   2.421 -0.4916 -0.7006  1.4408
 2009TIP3    H2 5992   3.550   1.676   2.477 -0.5723 -0.3851  1.8638
 2010TIP3   OH2 5993   5.286   6.688   5.212  0.1598  0.1758 -0.2117
 2010TIP3    H1 5994   5.260   6.766   5.260  0.4550  1.3265 -1.8479
 2010TIP3    H2 5995   5.264   6.707   5.121  1.1104 -1.2739 -0.7861
 2011TIP3   OH2 5996   4.220   1.132   1.656 -0.0505 -0.0050  0.3993
 2011TIP3    H1 5997   4.179   1.138   1.743 -1.5105  1.0077 -0.3053
 2011TIP3    H2 5998   4.187   1.209   1.610 -0.1094 -1.0585 -1.3923
 2012TIP3   OH2 5999   0.416   2.762   3.800  0.8362 -0.2107 -0.7524
 2012TIP3    H1 6000   0.489   2.721   3.754  0.3433 -0.6469 -1.1562
 2012TIP3    H2 6001   0.367   2.689   3.839 -0.1608 -0.0492 -1.6472
 2013TIP3   OH2 6002   3.998   5.936   0.357  0.6772  0.1133  0.4973
 2013TIP3    H1 6003   4.071   5.951   0.417 -0.2299  0.7549  1.4732
 2013TIP3    H2 6004   3.920   5.960   0.407 -0.1304  0.4827 -0.8717
 2014TIP3   OH2 6005   2.258   4.515   3.372  0.1128 -0.5436  0.0180
 2014TIP3    H1 6006   2.222   4.471   3.295 -1.2375  0.3238  0.1240
 2014TIP3    H2 6007   2.182   4.552   3.417  1.0243  0.3081  0.9270
 2015TIP3   OH2 6008   2.324   3.562   3.819  0.3077 -0.8914 -0.5370
 2015TIP3    H1 6009   2.234   3.589   3.803  0.3909 -0.4202 -0.2260
 2015TIP3    H2 6010   2.322   3.467   3.815 -0.5048 -0.9553  1.0601
 2016TIP3   OH2 6011   5.478   5.902   0.128  0.4315 -0.0576  0.4473
 2016TIP3    H1 6012   5.429   5.919   0.048  0.5685 -0.8148  0.1862
 2016TIP3    H2 6013   5.528   5.822   0.108  0.8964  0.0660  1.0931
 2017TIP3   OH2 6014   4.218   6.524   2.459 -0.1485 -0.3948 -0.0910
 2017TIP3    H1 6015   4.153   6.465   2.494  0.3672 -0.6574  0.4391
 2017TIP3    H2 6016   4.251   6.480   2.380  0.2861 -0.8497  0.3424
 2018TIP3   OH2 6017   2.839   4.235   0.376  0.6454 -0.1217  0.3961
 2018TIP3    H1 6018   2.749   4.215   0.351  0.5908  0.4147  0.1418
 2018TIP3    H2 6019   2.883   4.150   0.377  0.3891 -0.2803 -0.4914
 2019TIP3   OH2 6020   2.051   5.652   3.963  0.0393 -0.2550 -0.0575
 2019TIP3    H1 6021   2.042   5.730   4.017  3.7182  0.0791  0.3428
 2019TIP3    H2 6022   2.144   5.650   3.938  0.1918 -4.5142  0.0196
 2020TIP3   OH2 6023   4.686   2.606   5.370 -0.0850  0.0177 -0.0891
 2020TIP3    H1 6024   4.736   2.533   5.407 -1.0131 -1.1617 -1.0793
 2020TIP3    H2 6025   4.747   2.647   5.308  0.8281  0.8248  1.2959
 2021TIP3   OH2 6026   5.030   0.133   5.281  0.0382 -0.0059 -0.0350
 2021TIP3    H1 6027   5.096   0.078   5.239  1.0472  1.1227  0.0026
 2021TIP3    H2 6028   4.947   0.099   5.249  0.6646 -0.9597 -0.7193
 2022TIP3   OH2 6029   5.375   6.509   3.017  0.6776  0.3223 -0.1597
 2022TIP3    H1 6030   5.317   6.530   3.090 -0.0989 -0.0187 -0.6679
 2022TIP3    H2 6031   5.455   6.558   3.035 -0.4037  2.2483 -0.3548
 2023TIP3   OH2 6032   4.523   3.183   0.535 -0.2422  0.4385 -0.1083
 2023TIP3    H1 6033   4.485   3.270   0.539 -0.4943  0.3561 -0.5939
 2023TIP3    H2 6034   4.473   3.138   0.467  1.1313  0.5474 -1.2453
 2024TIP3   OH2 6035   0.041   3.140   1.710  0.1171  0.0183 -0.2903
 2024TIP3    H1 6036   0.088   3.068   1.668  0.3044  0.6573 -1.2122
 2024TIP3    H2 6037  -0.013   3.098   1.777  0.3358 -0.9588 -0.7080
 2025TIP3   OH2 6038   0.720   3.537   0.460 -0.0557 -0.2527  0.3587
 2025TIP3    H1 6039   0.684   3.472   0.400 -0.3671  1.0560 -0.9357
 2025TIP3    H2 6040   0.658   3.610   0.456  0.3914  0.2166  1.6088
 2026TIP3   OH2 6041   1.117   4.704   2.719  0.6595 -0.6144  0.1433
 2026TIP3    H1 6042   1.070   4.741   2.793  0.2396  0.0984 -0.4745
 2026TIP3    H2 6043   1.049   4.679   2.657  0.9278 -2.3515  0.4929
 2027TIP3   OH2 6044   2.286   1.271   1.330  0.1483 -0.1992 -0.0048
 2027TIP3    H1 6045   2.341   1.194   1.346 -0.6991 -0.8992 -0.3584
 2027TIP3    H2 6046   2.304   1.328   1.405  0.1189 -1.1451  0.7576
 2028TIP3   OH2 6047   6.926   1.495   1.913  0.1685  0.4439 -0.0490
 2028TIP3    H1 6048   6.870   1.494   1.990  2.2621  1.3795  1.5801
 2028TIP3    H2 6049   6.907   1.412   1.868 -1.8827  0.3875  0.8367
 2029TIP3   OH2 6050   6.807   4.513   0.708 -0.5338 -0.4030 -0.0847
 2029TIP3    H1 6051   6.723   4.490   0.670 -1.3582 -0.0469  1.4456
 2029TIP3    H2 6052   6.814   4.459   0.787 -0.3119  1.0624  0.9406
 2030TIP3   OH2 6053   6.808   5.181   1.553  0.2583  0.1704  0.3639
 2030TIP3    H1 6054   6.849   5.264   1.530  1.3905 -0.2603  0.7769
 2030TIP3    H2 6055   6.878   5.129   1.592 -0.7343 -0.5026  1.3181
 2031TIP3   OH2 6056   5.898   2.457   3.849  0.1690  0.5888 -0.0350
 2031TIP3    H1 6057   5.890   2.544   3.889  1.2502  0.9139 -0.4940
 2031TIP3    H2 6058   5.823   2.408   3.883 -0.8098  1.8885 -0.2405
 2032TIP3   OH2 6059   6.369   3.424   0.318  0.1700 -0.1611 -0.5706
 2032TIP3    H1 6060   6.422   3.488   0.271 -1.2865  2.0942  0.6681
 2032TIP3    H2 6061   6.415   3.410   0.400  0.0553 -0.0527 -0.4880
 2033TIP3   OH2 6062   4.790   0.134   4.643 -0.2057 -0.0698 -0.5815
 2033TIP3    H1 6063   4.706   0.159   4.604  0.3923  0.4906 -1.5485
 2033TIP3    H2 6064   4.807   0.046   4.609 -0.2615 -0.0617 -0.6292
 2034TIP3   OH2 6065   3.804   0.523   1.531  0.2637 -0.0239  0.2474
 2034TIP3    H1 6066   3.836   0.568   1.609  0.1122 -2.1500  1.6053
 2034TIP3    H2 6067   3.710   0.537   1.532  0.0866 -1.0860  1.2169
 2035TIP3   OH2 6068   1.214   3.945   3.303  0.6058 -0.2440 -0.3672
 2035TIP3    H1 6069   1.278   3.878   3.329 -1.0315 -2.2759 -1.2996
 2035TIP3    H2 6070   1.233   3.962   3.211  1.0222  0.6306 -0.1330
 2036TIP3   OH2 6071   2.024   0.124   1.433 -0.1496  0.1727 -0.4671
 2036TIP3    H1 6072   2.003   0.039   1.471  0.0038  0.4789  0.3085
 2036TIP3    H2 6073   2.033   0.182   1.507 -0.6751  0.9746 -1.0126
 2037TIP3   OH2 6074   5.499   6.512   1.445  0.3061  0.1596 -0.3590
 2037TIP3    H1 6075   5.516   6.429   1.399  0.8565  0.4506 -0.6826
 2037TIP3    H2 6076   5.547   6.505   1.527 -0.8061 -0.4273  0.2697
 2038TIP3   OH2 6077   5.748   5.072   0.948  0.5448  0.4080 -0.2087
 2038TIP3    H1 6078   5.833   5.094   0.986  0.3180  0.0985  0.4982
 2038TIP3    H2 6079   5.760   4.984   0.912  0.3628  0.1172  0.4262
 2039TIP3   OH2 6080   4.603   4.988   1.002 -0.3574 -0.1045  0.0475
 2039TIP3    H1 6081   4.681   5.036   0.974 -0.6420  0.8479  0.8447
 2039TIP3    H2 6082   4.630   4.942   1.082 -0.7520  0.6775  0.6442
 2040TIP3   OH2 6083   0.679   2.670   4.068  0.2193  0.6193  0.2912
 2040TIP3    H1 6084   0.731   2.696   3.992 -3.6391  1.1881 -2.4337
 2040TIP3    H2 6085   0.642   2.752   4.100 -0.2569  0.0779  1.1461
 2041TIP3   OH2 6086   5.259   2.177   4.643 -0.5731 -0.5379  0.4175
 2041TIP3    H1 6087   5.182   2.158   4.589 -0.0860 -1.0347 -0.1133
 2041TIP3    H2 6088   5.243   2.266   4.677 -1.0353 -0.3462 -0.2809
 2042TIP3   OH2 6089   0.824   4.732   1.918 -0.4684  0.2704  0.0793
 2042TIP3    H1 6090   0.913   4.766   1.915 -0.0922 -0.7620 -1.6932
 2042TIP3    H2 6091   0.792   4.756   2.005  1.3203  1.1736  0.5269
 2043TIP3   OH2 6092   7.110   1.613   4.092  0.1114  0.5442 -0.1986
 2043TIP3    H1 6093   7.079   1.523   4.101  0.7612  0.3684  0.3268
 2043TIP3    H2 6094   7.050   1.665   4.145 -1.5505  0.7410 -2.1172
 2044TIP3   OH2 6095   2.833   5.193   5.616 -0.0793 -0.2858  0.2240
 2044TIP3    H1 6096   2.836   5.286   5.637  0.0330  0.2063 -1.7434
 2044TIP3    H2 6097   2.922   5.171   5.589 -0.2798 -0.7828 -0.0545
 2045TIP3   OH2 6098   1.957   0.295   4.502  0.7129 -0.1381 -0.5500
 2045TIP3    H1 6099   1.886   0.239   4.471 -3.9228  3.7097  1.8726
 2045TIP3    H2 6100   1.964   0.364   4.436 -0.6567  1.5390  0.9598
 2046TIP3   OH2 6101   5.531   3.283   3.239 -0.7656 -0.0111 -0.3348
 2046TIP3    H1 6102   5.482   3.330   3.171 -1.9256  0.9305  1.1121
 2046TIP3    H2 6103   5.620   3.318   3.232 -1.1993  1.1017 -0.4664
 2047TIP3   OH2 6104   1.894   0.117   0.023  0.0928  0.4541  0.1191
 2047TIP3    H1 6105   1.928   0.139   0.110 -0.4863 -0.5411  0.6139
 2047TIP3    H2 6106   1.802   0.142   0.026 -0.0125  0.0894 -0.0882
 2048TIP3   OH2 6107   3.405   2.899   5.565  0.2666 -0.1276  0.2300
 2048TIP3    H1 6108   3.415   2.952   5.486 -1.2353  1.0127  0.7640
 2048TIP3    H2 6109   3.314   2.912   5.592  0.1897 -2.0069  1.0971
 2049TIP3   OH2 6110   4.417   4.783   2.496 -0.2678  0.1532  0.1856
 2049TIP3    H1 6111   4.429   4.803   2.403  1.7967 -2.3819 -0.2139
 2049TIP3    H2 6112   4.495   4.819   2.538 -0.6259  0.2742  0.7494
 2050TIP3   OH2 6113   3.188   5.129   3.363  0.0363  0.2907 -0.2123
 2050TIP3    H1 6114   3.138   5.048   3.371  1.4953 -0.7428 -0.9928
 2050TIP3    H2 6115   3.127   5.191   3.322 -0.8798 -0.6197 -0.2722
 2051TIP3   OH2 6116   2.807   4.054   5.105  0.1241  0.0785  0.1669
 2051TIP3    H1 6117   2.878   3.995   5.131 -0.7122 -1.4546 -0.8725
 2051TIP3    H2 6118   2.769   4.014   5.027 -0.6873  1.8572 -0.4184
 2052TIP3   OH2 6119   2.558   0.595   1.336 -0.1221  0.3860  0.4904
 2052TIP3    H1 6120   2.629   0.569   1.395  0.1105  1.5229  0.7257
 2052TIP3    H2 6121   2.499   0.646   1.391  0.3574  1.9006 -0.3476
 2053TIP3   OH2 6122   0.022   6.426   3.515  0.6426  0.1971 -0.0675
 2053TIP3    H1 6123   0.006   6.334   3.533 -0.2172  0.4636  0.5871
 2053TIP3    H2 6124   0.107   6.444   3.556  1.1470 -0.4535 -0.7907
 2054TIP3   OH2 6125   4.621   2.754   3.146  0.4388 -0.0096  0.0100
 2054TIP3    H1 6126   4.661   2.806   3.076  0.2804 -0.2361 -0.2498
 2054TIP3    H2 6127   4.527   2.768   3.135  0.3686 -0.6989 -0.3410
 2055TIP3   OH2 6128   5.764   4.756   3.701  0.2570  0.8881  0.1751
 2055TIP3    H1 6129   5.690   4.767   3.760 -1.6563 -0.3161 -1.8179
 2055TIP3    H2 6130   5.841   4.768   3.756 -1.3458 -0.8126  3.0449
 2056TIP3   OH2 6131   2.402   2.246   3.000  0.1869 -0.3164  0.1279
 2056TIP3    H1 6132   2.338   2.269   3.067  0.3914  0.3629  0.0998
 2056TIP3    H2 6133   2.486   2.247   3.045  0.3698  0.5034 -0.2022
 2057TIP3   OH2 6134   1.833   6.362   4.284 -0.2256 -0.7654 -0.6868
 2057TIP3    H1 6135   1.877   6.431   4.334  1.1555 -2.1917  0.1845
 2057TIP3    H2 6136   1.905   6.306   4.254 -1.1692 -0.8684 -2.8935
 2058TIP3   OH2 6137   5.998   4.582   2.994  0.4944  0.4057  0.0661
 2058TIP3    H1 6138   6.048   4.622   3.065 -0.4695 -1.1745  1.7209
 2058TIP3    H2 6139   5.999   4.489   3.014 -0.5254  0.0166 -1.5502
 2059TIP3   OH2 6140   2.335   3.564   1.908 -0.0626  0.7695  0.0009
 2059TIP3    H1 6141   2.337   3.628   1.979 -0.3231  1.3958 -0.5540
 2059TIP3    H2 6142   2.246   3.568   1.874 -0.9345 -1.7637  1.6237
 2060TIP3   OH2 6143   6.427   0.044   4.749 -0.0850 -0.0754  0.2618
 2060TIP3    H1 6144   6.376   0.118   4.781  0.7794  1.6965 -2.2258
 2060TIP3    H2 6145   6.428   0.054   4.654  2.0055 -1.9735  0.0020
 2061TIP3   OH2 6146   0.762   1.676   3.685 -0.3045  0.2799  0.0594
 2061TIP3    H1 6147   0.766   1.587   3.719 -0.0178  0.5000  0.6184
 2061TIP3    H2 6148   0.725   1.667   3.597  0.8054 -0.5202 -0.3495
 2062TIP3   OH2 6149   6.617   5.414   0.223  0.6271  0.1245  0.1377
 2062TIP3    H1 6150   6.652   5.503   0.222  1.3761 -0.1698 -0.1867
 2062TIP3    H2 6151   6.553   5.412   0.152 -0.2098  0.7231  0.8612
 2063TIP3   OH2 6152   3.974   4.946   3.437  0.4268  0.0669 -0.0071
 2063TIP3    H1 6153   4.028   5.010   3.391  1.2236  0.6713  1.7030
 2063TIP3    H2 6154   3.905   4.998   3.479 -0.0564 -0.4198 -0.1841
 2064TIP3   OH2 6155   3.587   5.962   0.035 -0.3448  0.2767  0.3780
 2064TIP3    H1 6156   3.518   5.920  -0.017  0.9567 -0.5049 -0.7843
 2064TIP3    H2 6157   3.662   5.903   0.027  1.1409  2.1390 -0.1978
 2065TIP3   OH2 6158   0.509   2.290   5.523 -0.0801 -0.3725  0.1095
 2065TIP3    H1 6159   0.489   2.259   5.611  2.0301 -0.2729  0.6773
 2065TIP3    H2 6160   0.605   2.289   5.518 -0.0968  1.1336 -1.6464
 2066TIP3   OH2 6161   5.419   1.505   2.559 -0.1811  0.6562 -0.0210
 2066TIP3    H1 6162   5.445   1.593   2.532 -0.6363  0.7937 -0.0186
 2066TIP3    H2 6163   5.349   1.519   2.623  0.0341  0.3013  0.2939
 2067TIP3   OH2 6164   6.960   1.407   2.400  0.0996  0.1295  0.6413
 2067TIP3    H1 6165   6.910   1.350   2.341 -1.4692  0.6440  1.4070
 2067TIP3    H2 6166   7.004   1.347   2.460 -0.4552 -0.3173  0.6096
 2068TIP3   OH2 6167   2.322   5.187   4.729  0.4352 -0.5924 -0.3690
 2068TIP3    H1 6168   2.254   5.144   4.780  0.5618  0.3473  0.6224
 2068TIP3    H2 6169   2.362   5.117   4.677  0.5204 -1.6399  1.0627
 2069TIP3   OH2 6170   4.609   3.101   1.430  0.0069  0.6566 -0.1436
 2069TIP3    H1 6171   4.627   3.089   1.523 -0.7179  1.9561  0.1982
 2069TIP3    H2 6172   4.609   3.013   1.393 -2.5767 -0.1918  1.6341
 2070TIP3   OH2 6173   6.897   4.327   3.465 -0.2911  0.7901  0.3812
 2070TIP3    H1 6174   6.884   4.235   3.441 -0.3701  0.9207 -0.0888
 2070TIP3    H2 6175   6.977   4.352   3.419  1.1656  0.2583  2.5015
 2071TIP3   OH2 6176   2.523   3.047   3.975 -0.5063  0.0255  0.1811
 2071TIP3    H1 6177   2.499   3.116   3.913 -0.4339 -0.4042 -0.3371
 2071TIP3    H2 6178   2.510   2.966   3.926  2.0690 -0.2465 -0.1994
 2072TIP3   OH2 6179   2.337   6.164   2.983  0.2358  0.5461 -0.4354
 2072TIP3    H1 6180   2.301   6.229   3.042  2.0753 -0.3561  1.8234
 2072TIP3    H2 6181   2.268   6.098   2.975 -0.0789  0.7225  0.6904
 2073TIP3   OH2 6182   6.573   4.741   3.582  0.0384  0.0337  0.5197
 2073TIP3    H1 6183   6.570   4.745   3.487 -1.3256 -0.2900  0.5334
 2073TIP3    H2 6184   6.533   4.656   3.604 -1.5870  0.9863  1.4398
 2074TIP3   OH2 6185   3.015   2.549   5.470  0.2396  0.3051  0.0510
 2074TIP3    H1 6186   2.940   2.502   5.433  1.8495 -0.7041 -2.1740
 2074TIP3    H2 6187   2.999   2.549   5.564 -1.0861 -2.5308 -0.0695
 2075TIP3   OH2 6188   6.101   5.142   2.924 -0.2273  0.0963 -0.2241
 2075TIP3    H1 6189   6.102   5.048   2.905  0.1632 -0.0541  0.5087
 2075TIP3    H2 6190   6.028   5.153   2.985  0.3056  0.1202  0.4141
 2076TIP3   OH2 6191   5.155   0.132   2.900 -0.0962 -0.0368 -0.4612
 2076TIP3    H1 6192   5.167   0.140   2.805  0.7462 -0.2330 -0.3742
 2076TIP3    H2 6193   5.149   0.223   2.930 -0.6978  0.0250 -0.7288
 2077TIP3   OH2 6194   5.665   6.514   5.605 -0.1641  0.5803  0.1109
 2077TIP3    H1 6195   5.625   6.449   5.547 -1.0739  2.6903 -1.7812
 2077TIP3    H2 6196   5.758   6.491   5.606 -0.5390 -1.0826  0.0109
 2078TIP3   OH2 6197   5.075   0.101   3.569 -0.4127 -0.9196  0.4269
 2078TIP3    H1 6198   5.124   0.153   3.505  1.8678 -0.8919  2.0494
 2078TIP3    H2 6199   5.060   0.017   3.525  0.9008 -0.8278 -0.2699
 2079TIP3   OH2 6200   2.061   5.013   1.125  0.8619 -0.3819 -0.0028
 2079TIP3    H1 6201   2.026   5.034   1.038 -1.0617  0.3197  0.8963
 2079TIP3    H2 6202   1.999   5.051   1.186 -0.0676 -4.2299  1.7634
 2080TIP3   OH2 6203   3.823   2.125   1.094 -0.4323 -0.8724 -0.5822
 2080TIP3    H1 6204   3.748   2.113   1.036 -0.6238 -1.9471 -0.1285
 2080TIP3    H2 6205   3.858   2.211   1.070 -1.9950 -0.1999 -0.5846
 2081TIP3   OH2 6206   0.605   0.379   5.012  0.5407 -0.1401 -0.1402
 2081TIP3    H1 6207   0.582   0.377   4.919 -0.0561  1.6285 -0.0612
 2081TIP3    H2 6208   0.689   0.425   5.016  0.3940  0.1071  0.2166
 2082TIP3   OH2 6209   3.926   6.187   1.836  0.6456 -0.3832 -0.0111
 2082TIP3    H1 6210   3.964   6.187   1.924  1.4355  2.9080 -0.2285
 2082TIP3    H2 6211   3.964   6.264   1.794 -1.1074 -0.8351 -2.6377
 2083TIP3   OH2 6212   0.216   0.078   0.782  0.3665  0.0362 -0.4317
 2083TIP3    H1 6213   0.290   0.108   0.730  0.4498  2.2906  0.8622
 2083TIP3    H2 6214   0.139   0.117   0.741  0.3860  1.4084  0.7333
 2084TIP3   OH2 6215   3.808   0.438   0.407 -0.2088 -0.3171  0.2590
 2084TIP3    H1 6216   3.838   0.361   0.455 -0.4848 -0.0437  0.8913
 2084TIP3    H2 6217   3.887   0.492   0.397 -0.2518 -0.1073  0.9436
 2085TIP3   OH2 6218   0.200   3.428   5.833 -0.2764  0.8705 -0.5331
 2085TIP3    H1 6219   0.149   3.422   5.914 -0.3415 -0.1710 -0.6465
 2085TIP3    H2 6220   0.284   3.389   5.855  0.3714  2.2318 -0.4594
 2086TIP3   OH2 6221   1.940   0.513   1.309  0.0597 -0.3289  0.1269
 2086TIP3    H1 6222   1.870   0.480   1.364 -0.2219  1.3210  0.8024
 2086TIP3    H2 6223   2.011   0.535   1.370  0.2541  0.2402 -0.2921
 2087TIP3   OH2 6224   2.259   2.095   0.010 -0.2522  0.0639  0.3714
 2087TIP3    H1 6225   2.201   2.019   0.018 -0.4179  0.3037  1.5970
 2087TIP3    H2 6226   2.296   2.106   0.097  2.7834 -0.9255 -0.6538
 2088TIP3   OH2 6227   1.943   0.387   5.068  0.2534 -0.2383 -0.1903
 2088TIP3    H1 6228   1.864   0.378   5.122  1.8731 -0.4118  2.2680
 2088TIP3    H2 6229   1.916   0.446   4.997 -2.0851 -0.3013  0.5460
 2089TIP3   OH2 6230   3.261   2.853   3.092 -0.0213  0.1025 -0.4579
 2089TIP3    H1 6231   3.167   2.840   3.086 -0.6000  3.9236 -2.4812
 2089TIP3    H2 6232   3.278   2.935   3.046  4.3191 -0.3082 -0.0666
 2090TIP3   OH2 6233   6.190   3.698   3.514  0.3981  0.0922 -0.1927
 2090TIP3    H1 6234   6.167   3.685   3.422 -0.6393  0.8202 -0.0650
 2090TIP3    H2 6235   6.279   3.732   3.512  0.5860 -0.4168 -0.8898
 2091TIP3   OH2 6236   6.538   1.467   3.897 -0.3607 -0.0435 -0.0052
 2091TIP3    H1 6237   6.539   1.432   3.808  0.3489 -0.9238  0.3263
 2091TIP3    H2 6238   6.450   1.448   3.929 -0.7858  0.7266 -0.6723
 2092TIP3   OH2 6239   5.567   3.932   3.677 -0.4474 -0.4809  0.0292
 2092TIP3    H1 6240   5.476   3.902   3.670 -0.4449 -0.3592 -0.5834
 2092TIP3    H2 6241   5.619   3.859   3.643 -0.3712 -0.2160 -0.4271
 2093TIP3   OH2 6242   3.810   1.045   1.797 -0.4984 -0.1334  0.1036
 2093TIP3    H1 6243   3.769   0.992   1.865  0.6800  0.0564  0.9991
 2093TIP3    H2 6244   3.817   1.132   1.836 -2.1396  0.6483 -1.2363
 2094TIP3   OH2 6245   4.092   2.799   1.940  0.0142  0.0271 -0.1860
 2094TIP3    H1 6246   4.001   2.827   1.932  0.2322  0.9026  0.2464
 2094TIP3    H2 6247   4.105   2.789   2.034  1.0311  2.3387 -0.0011
 2095TIP3   OH2 6248   1.106   5.568   0.148 -0.1868 -0.1187  0.7214
 2095TIP3    H1 6249   1.161   5.563   0.071 -0.3983  0.9495  0.4832
 2095TIP3    H2 6250   1.026   5.611   0.118 -0.5242 -0.2531  1.3984
 2096TIP3   OH2 6251   1.707   4.953   3.798  0.3519 -0.2363 -0.0537
 2096TIP3    H1 6252   1.665   4.973   3.714  1.2970  1.4950 -0.1447
 2096TIP3    H2 6253   1.694   5.032   3.851  2.5608 -0.0578  0.2802
 2097TIP3   OH2 6254   1.371   1.521   3.197 -0.1644  0.0826 -0.8782
 2097TIP3    H1 6255   1.286   1.560   3.181  0.5341  1.1861 -2.1320
 2097TIP3    H2 6256   1.432   1.575   3.147  1.4777  0.2042  1.1000
 2098TIP3   OH2 6257   0.213   0.262   3.237  0.3396 -0.5754 -0.1198
 2098TIP3    H1 6258   0.242   0.350   3.260  0.0342 -0.9668  1.9370
 2098TIP3    H2 6259   0.122   0.272   3.209 -0.2097 -0.3873  1.6155
 2099TIP3   OH2 6260   5.532   3.479   4.423  0.1882  0.8407  0.5196
 2099TIP3    H1 6261   5.615   3.526   4.422  1.2951 -1.0616 -0.1472
 2099TIP3    H2 6262   5.474   3.531   4.367  0.7183  2.4703  1.4115
 2100TIP3   OH2 6263   6.955   4.191   4.867 -0.0399  0.4201 -0.3128
 2100TIP3    H1 6264   6.940   4.266   4.924 -1.1693 -0.6523  0.8679
 2100TIP3    H2 6265   7.050   4.187   4.858  0.0861  1.3788  0.4301
 2101TIP3   OH2 6266   2.689   2.273   4.086 -0.4359 -0.1754  0.4295
 2101TIP3    H1 6267   2.781   2.255   4.103 -0.5787  0.1809  1.6848
 2101TIP3    H2 6268   2.686   2.365   4.061 -0.5181 -0.0130  1.0250
 2102TIP3   OH2 6269   4.032   2.279   5.889  0.3875  0.8561 -0.2495
 2102TIP3    H1 6270   3.999   2.333   5.817 -0.9604 -0.6843 -0.8347
 2102TIP3    H2 6271   4.048   2.342   5.960 -1.3646  2.0087 -0.8073
 2103TIP3   OH2 6272   3.824   5.337   0.283  0.0307 -0.0696 -0.7938
 2103TIP3    H1 6273   3.869   5.406   0.332 -0.7918  0.1508 -0.3312
 2103TIP3    H2 6274   3.845   5.354   0.192 -1.7045  1.9614 -0.8777
 2104TIP3   OH2 6275   4.385   6.593   2.665 -0.4557  0.5469 -0.8984
 2104TIP3    H1 6276   4.325   6.573   2.593 -1.2331  0.0474 -0.1275
 2104TIP3    H2 6277   4.473   6.586   2.626 -0.8285 -0.5922 -1.5857
 2105TIP3   OH2 6278   0.331   2.770   4.873  0.3105  0.0120  0.4612
 2105TIP3    H1 6279   0.416   2.735   4.845 -0.0251 -1.7659  1.5285
 2105TIP3    H2 6280   0.274   2.758   4.797  0.8578  0.7304 -0.0814
 2106TIP3   OH2 6281   4.720   5.808   3.377  0.5233 -0.2870  0.0110
 2106TIP3    H1 6282   4.798   5.838   3.424 -0.4458 -0.3971  1.7759
 2106TIP3    H2 6283   4.750   5.794   3.287  1.8596  2.4058 -0.0502
 2107TIP3   OH2 6284   1.280   2.069   4.605 -0.4821  1.1474 -0.3040
 2107TIP3    H1 6285   1.289   2.110   4.519 -1.3003  0.2502 -0.8276
 2107TIP3    H2 6286   1.325   2.129   4.665  2.6416  0.4295 -1.7069
 2108TIP3   OH2 6287   1.395   4.373   0.949  0.0622 -0.1380 -0.0966
 2108TIP3    H1 6288   1.478   4.420   0.952  0.3296 -0.5703  3.5534
 2108TIP3    H2 6289   1.334   4.434   0.907  1.2958  1.8807  0.8997
 2109TIP3   OH2 6290   0.056   0.005   3.542 -0.2255 -0.3067 -0.0620
 2109TIP3    H1 6291   0.004   0.077   3.577 -0.2773 -1.5422  2.7329
 2109TIP3    H2 6292   0.115   0.046   3.479  1.1641  2.6459  2.8441
 2110TIP3   OH2 6293   3.060   1.555   0.203 -0.5198  0.6258 -0.0372
 2110TIP3    H1 6294   3.102   1.596   0.278  0.5538 -0.2663 -0.1181
 2110TIP3    H2 6295   3.032   1.628   0.148 -0.1173  1.2663  0.5968
 2111TIP3   OH2 6296   5.182   0.827   2.038 -0.5586 -0.0737  0.0979
 2111TIP3    H1 6297   5.207   0.917   2.016  0.4359 -0.0634  1.1705
 2111TIP3    H2 6298   5.155   0.789   1.955  0.5954  0.7158 -0.6763
 2112TIP3   OH2 6299   0.302   6.256   0.672 -0.1461 -0.1179 -0.2612
 2112TIP3    H1 6300   0.371   6.227   0.612  1.4737  0.6070  1.1522
 2112TIP3    H2 6301   0.260   6.329   0.627 -0.1069 -0.6752 -1.2206
 2113TIP3   OH2 6302   3.182   4.658   3.693 -1.0473 -0.1803  0.2802
 2113TIP3    H1 6303   3.131   4.609   3.758 -0.7301  0.3480  0.9400
 2113TIP3    H2 6304   3.265   4.676   3.736 -0.3111 -0.9563 -0.7536
 2114TIP3   OH2 6305   5.759   3.436   3.327 -0.6173 -0.7959 -0.3321
 2114TIP3    H1 6306   5.743   3.504   3.261 -2.3031 -0.4941  0.3267
 2114TIP3    H2 6307   5.854   3.423   3.326  0.3936  4.0840  1.8941
 2115TIP3   OH2 6308   0.951   5.270   1.027 -0.6011 -0.1895 -0.0024
 2115TIP3    H1 6309   1.027   5.314   0.988  0.3910 -0.3300  1.7178
 2115TIP3    H2 6310   0.876   5.317   0.990  0.3805  1.8843  0.4681
 2116TIP3   OH2 6311   5.619   1.646   5.752 -0.1275  0.3552 -0.7326
 2116TIP3    H1 6312   5.548   1.664   5.691  1.2956  1.0516 -2.2540
 2116TIP3    H2 6313   5.576   1.607   5.828 -2.4448  3.0653 -0.4902
 2117TIP3   OH2 6314   5.850   3.995   1.948 -0.6308  0.5995  0.0048
 2117TIP3    H1 6315   5.892   3.943   1.879  1.8918  1.7723  0.5255
 2117TIP3    H2 6316   5.757   3.993   1.927 -0.2985 -1.7055 -1.5888
 2118TIP3   OH2 6317   6.319   4.952   0.329 -0.3486  0.2234  0.1764
 2118TIP3    H1 6318   6.317   5.047   0.330  1.2204  0.3371 -1.7591
 2118TIP3    H2 6319   6.356   4.929   0.243 -0.4113 -2.1147  0.6988
 2119TIP3   OH2 6320   0.447   3.683   4.775 -0.0613  0.3017 -0.7025
 2119TIP3    H1 6321   0.537   3.660   4.799 -0.2411  0.8091  0.5882
 2119TIP3    H2 6322   0.397   3.602   4.786  0.2225  0.0434 -1.3243
 2120TIP3   OH2 6323   0.935   1.949   0.199 -0.3630 -0.3949 -0.2354
 2120TIP3    H1 6324   0.959   1.861   0.170  0.6060  0.0747 -0.9086
 2120TIP3    H2 6325   0.965   1.954   0.290  2.6723  0.3234 -1.1684
 2121TIP3   OH2 6326   4.896   3.888   1.795  0.0517 -0.4754  0.2942
 2121TIP3    H1 6327   4.839   3.951   1.750  1.4617 -0.9679 -2.3228
 2121TIP3    H2 6328   4.837   3.818   1.822 -0.6815 -0.8749 -2.1708
 2122TIP3   OH2 6329   2.088   1.015   5.480  0.4228 -0.1935 -0.7992
 2122TIP3    H1 6330   2.114   0.943   5.537 -0.2920 -0.0668 -0.2998
 2122TIP3    H2 6331   2.048   0.973   5.405  0.0121 -0.3244 -0.5109
 2123TIP3   OH2 6332   5.619   6.151   2.315 -0.1115 -0.5362 -0.5761
 2123TIP3    H1 6333   5.638   6.125   2.405  2.1138 -0.4996 -0.9856
 2123TIP3    H2 6334   5.537   6.200   2.322 -0.1303 -0.7429  1.3870
 2124TIP3   OH2 6335   1.115   0.304   5.658  0.1748  0.5155  0.1690
 2124TIP3    H1 6336   1.132   0.250   5.581  0.0745  0.2065  0.3576
 2124TIP3    H2 6337   1.024   0.333   5.648  0.1105  0.3469  0.2417
 2125TIP3   OH2 6338   4.368   0.246   2.648  0.0499  0.0589 -0.8763
 2125TIP3    H1 6339   4.310   0.273   2.719 -0.1661  0.9071 -1.3539
 2125TIP3    H2 6340   4.353   0.152   2.638  0.1581 -0.0848  0.2562
 2126TIP3   OH2 6341   4.167   2.262   0.052 -0.7885 -0.0356  0.1297
 2126TIP3    H1 6342   4.223   2.184   0.053 -1.0836 -0.2573 -0.5328
 2126TIP3    H2 6343   4.218   2.328   0.100 -0.5749 -0.6564  0.7712
 2127TIP3   OH2 6344   0.489   6.289   0.200 -0.0184 -0.0846  0.2904
 2127TIP3    H1 6345   0.469   6.290   0.106 -1.2475 -1.8976  0.4759
 2127TIP3    H2 6346   0.579   6.321   0.206 -0.5293  1.7927 -1.3104
 2128TIP3   OH2 6347   2.814   0.296   5.492  0.1536  0.5925 -0.0298
 2128TIP3    H1 6348   2.804   0.257   5.579 -2.7259 -2.9927 -1.6930
 2128TIP3    H2 6349   2.738   0.354   5.483 -0.7352 -0.6600 -0.8260
 2129TIP3   OH2 6350   5.333  -0.005   4.198  0.3931 -0.0921 -0.0464
 2129TIP3    H1 6351   5.304   0.078   4.161  1.0182 -0.6881 -1.9913
 2129TIP3    H2 6352   5.254  -0.057   4.207  0.2460 -0.0039 -0.7734
 2130TIP3   OH2 6353   2.507   2.862   5.222  0.8773 -0.1160 -0.2248
 2130TIP3    H1 6354   2.523   2.798   5.152  1.4957 -1.5316  1.1513
 2130TIP3    H2 6355   2.416   2.847   5.248  1.1059 -0.6602  0.2874
 2131TIP3   OH2 6356   2.067   5.178   0.243 -0.1210  0.3339 -0.1357
 2131TIP3    H1 6357   2.032   5.133   0.320 -0.8059  0.9892 -0.0597
 2131TIP3    H2 6358   2.148   5.131   0.223  0.0062  0.0910  0.9113
 2132TIP3   OH2 6359   4.459   2.734   5.437 -0.0533 -0.3576 -0.4219
 2132TIP3    H1 6360   4.375   2.689   5.427 -0.4527  0.5034 -1.2031
 2132TIP3    H2 6361   4.522   2.677   5.394 -0.4646 -0.4260 -0.9557
 2133TIP3   OH2 6362   5.393   6.406   3.373 -0.4543 -0.6480  0.1228
 2133TIP3    H1 6363   5.374   6.326   3.420  0.8532  0.0242  1.9024
 2133TIP3    H2 6364   5.337   6.472   3.413  1.3158  0.1214  1.4586
 2134TIP3   OH2 6365   7.024   1.042   5.615  0.4541 -0.1638  0.2784
 2134TIP3    H1 6366   7.059   0.982   5.549  1.4096  0.4655  0.1898
 2134TIP3    H2 6367   6.964   1.099   5.566  1.1821  0.3197 -0.0638
 2135TIP3   OH2 6368   3.032   3.785   5.795 -0.2060  0.0097 -0.0011
 2135TIP3    H1 6369   3.047   3.829   5.879 -2.2753  0.9612 -0.0904
 2135TIP3    H2 6370   2.969   3.716   5.815 -1.0827  0.5450 -0.8417
 2136TIP3   OH2 6371   4.500   6.087   3.887 -0.6941 -0.8513 -0.4653
 2136TIP3    H1 6372   4.479   5.995   3.875 -1.3235 -0.7448 -0.2338
 2136TIP3    H2 6373   4.592   6.095   3.862 -0.0397 -1.9208  1.4494
 2137TIP3   OH2 6374   5.004   5.532   0.938  0.3043  0.3607  0.3539
 2137TIP3    H1 6375   4.933   5.476   0.970  0.6284  0.9237  2.1901
 2137TIP3    H2 6376   5.081   5.502   0.985  1.9895 -1.9126 -3.3997
 2138TIP3   OH2 6377   2.948   2.124   5.349  0.1062 -0.2920  0.3503
 2138TIP3    H1 6378   2.920   2.036   5.325 -0.3992 -0.3720  1.1914
 2138TIP3    H2 6379   2.870   2.179   5.339 -0.8073 -0.7327  3.8284
 2139TIP3   OH2 6380   5.259   5.722   1.109 -0.0207  0.3669 -0.5149
 2139TIP3    H1 6381   5.229   5.635   1.134 -1.3703  0.9062 -0.1451
 2139TIP3    H2 6382   5.321   5.747   1.178 -2.6633  1.2805  1.6899
 2140TIP3   OH2 6383   4.951   4.597   4.892 -0.4186  0.0919  0.3012
 2140TIP3    H1 6384   4.931   4.626   4.981  1.1218  0.5488  0.5224
 2140TIP3    H2 6385   5.019   4.531   4.902  1.0108  1.3693 -0.6105
 2141TIP3   OH2 6386   5.794   0.351   2.801 -0.1383 -0.2269 -0.8029
 2141TIP3    H1 6387   5.715   0.312   2.764 -0.9868  0.8190 -0.1562
 2141TIP3    H2 6388   5.774   0.444   2.809  1.3095  0.1259 -0.9886
 2142TIP3   OH2 6389   6.135   6.323   2.858  0.1576  0.1663 -0.0734
 2142TIP3    H1 6390   6.097   6.271   2.928  1.8246  0.4078  1.0669
 2142TIP3    H2 6391   6.095   6.288   2.778  2.0493 -3.7824  0.4657
 2143TIP3   OH2 6392   2.828   5.493   3.672  0.1568  0.0309 -0.1117
 2143TIP3    H1 6393   2.768   5.462   3.604  1.1824 -1.3300 -0.4425
 2143TIP3    H2 6394   2.771   5.529   3.740 -1.0522 -1.2198 -0.4118
 2144TIP3   OH2 6395   1.134   1.102   2.992 -0.7947  0.1059 -0.1782
 2144TIP3    H1 6396   1.218   1.124   3.032 -0.0677  0.0518 -1.5880
 2144TIP3    H2 6397   1.086   1.185   2.990 -0.8121  0.1280  0.6787
 2145TIP3   OH2 6398   2.027   3.523   1.160  0.2834 -0.2005 -0.1357
 2145TIP3    H1 6399   2.057   3.433   1.172  1.1049 -0.0868 -1.2156
 2145TIP3    H2 6400   1.936   3.516   1.133  0.2849 -0.6891 -0.0130
 2146TIP3   OH2 6401   0.917   1.150   2.088  0.4803  0.0074  0.3761
 2146TIP3    H1 6402   0.987   1.211   2.069 -1.0091  1.7501  0.2062
 2146TIP3    H2 6403   0.864   1.148   2.008  0.6086 -1.7341  0.2819
 2147TIP3   OH2 6404   0.242   0.855   5.687  0.0042  0.4055 -0.6150
 2147TIP3    H1 6405   0.200   0.933   5.650 -1.9071 -0.0639  0.3960
 2147TIP3    H2 6406   0.311   0.890   5.743  1.1914  1.2094 -2.5021
 2148TIP3   OH2 6407   2.354   0.196   3.325 -0.1110  0.1336 -0.3780
 2148TIP3    H1 6408   2.397   0.219   3.407  1.6052 -1.4538 -0.7594
 2148TIP3    H2 6409   2.260   0.194   3.347  0.2057  1.0148  1.1905
 2149TIP3   OH2 6410   1.614   3.731   0.917  0.3328  0.0462  0.4539
 2149TIP3    H1 6411   1.659   3.760   0.838  0.0449  0.6955  0.5246
 2149TIP3    H2 6412   1.522   3.727   0.892  0.4195 -1.3229  0.2966
 2150TIP3   OH2 6413   1.393   3.698   4.189  0.4329  0.1152  0.3464
 2150TIP3    H1 6414   1.340   3.777   4.183  1.6741  1.0215  0.9285
 2150TIP3    H2 6415   1.446   3.710   4.268  1.0656 -1.0358  0.1264
 2151TIP3   OH2 6416   3.282   2.130   2.051  0.2222  0.6968  0.0437
 2151TIP3    H1 6417   3.345   2.059   2.040 -0.4091 -0.0439  1.0320
 2151TIP3    H2 6418   3.250   2.119   2.140 -0.1518  2.0192  0.0847
 2152TIP3   OH2 6419   2.063   1.752   1.482 -0.4011 -0.3097  0.3009
 2152TIP3    H1 6420   1.967   1.757   1.482 -0.4801 -1.1158 -1.1851
 2152TIP3    H2 6421   2.091   1.826   1.535 -1.8159  1.8048 -1.7203
 2153TIP3   OH2 6422   1.697   1.544   2.897  0.0645 -0.1179 -0.0712
 2153TIP3    H1 6423   1.793   1.544   2.895  0.2265  0.7559  2.8716
 2153TIP3    H2 6424   1.674   1.628   2.935 -1.9078 -0.3105 -0.7356
 2154TIP3   OH2 6425   7.079   0.465   3.748  0.1991  0.2547 -0.6275
 2154TIP3    H1 6426   7.148   0.504   3.801 -1.0096 -1.8671  2.8317
 2154TIP3    H2 6427   7.012   0.533   3.742  1.0555  1.0992 -0.9409
 2155TIP3   OH2 6428   2.145   5.959   5.301  0.2119  0.1026  0.4200
 2155TIP3    H1 6429   2.229   5.923   5.273  0.4512  0.4846  0.6363
 2155TIP3    H2 6430   2.114   6.011   5.227 -0.0113 -0.3292  0.2039
 2156TIP3   OH2 6431   3.699   2.696   5.736 -0.0950  0.1150  0.0438
 2156TIP3    H1 6432   3.656   2.661   5.658  1.7344  0.5860 -1.2414
 2156TIP3    H2 6433   3.721   2.618   5.787  0.7137 -0.3958 -1.0359
 2157TIP3   OH2 6434   1.049   0.443   4.870  0.3364  0.1350 -0.6932
 2157TIP3    H1 6435   1.065   0.499   4.794  0.3320  1.6708  0.3854
 2157TIP3    H2 6436   1.103   0.481   4.939 -0.9151 -0.2158  0.5212
 2158TIP3   OH2 6437   4.200   6.538   0.519  0.0318  0.2973 -0.6527
 2158TIP3    H1 6438   4.118   6.575   0.487 -1.0947 -1.1019  0.4802
 2158TIP3    H2 6439   4.263   6.556   0.450 -1.5585  0.1740 -2.1973
 2159TIP3   OH2 6440   4.122   5.594   0.612  0.7801  0.3707 -0.1140
 2159TIP3    H1 6441   4.152   5.653   0.681 -1.1495  0.3689  0.7794
 2159TIP3    H2 6442   4.181   5.518   0.620  1.5258  0.9890  0.5439
 2160TIP3   OH2 6443   5.941   5.670   3.868 -0.4810  0.1731 -0.0928
 2160TIP3    H1 6444   5.963   5.604   3.934  1.9572  1.0265  0.0415
 2160TIP3    H2 6445   5.905   5.620   3.795  1.2099 -1.3260  0.0507
 2161TIP3   OH2 6446   2.047   4.951   1.873  0.1727  0.0162  0.8039
 2161TIP3    H1 6447   2.126   4.950   1.820 -1.2467 -1.1204 -1.4421
 2161TIP3    H2 6448   2.020   4.860   1.877 -2.5990  0.6367 -1.1020
 2162TIP3   OH2 6449   2.388   5.715   5.284 -0.3066  0.1923  0.1821
 2162TIP3    H1 6450   2.394   5.740   5.191  0.6524  0.0923  0.2052
 2162TIP3    H2 6451   2.385   5.620   5.283 -1.3387  0.2107  0.2185
 2163TIP3   OH2 6452   4.999   3.345   5.482 -0.0852 -0.6434 -0.4787
 2163TIP3    H1 6453   5.086   3.321   5.513 -0.2304  1.0096  1.4157
 2163TIP3    H2 6454   4.956   3.383   5.558 -1.4880  1.1040 -2.0323
 2164TIP3   OH2 6455   5.817   1.959   2.708  0.3219  0.0196  0.4980
 2164TIP3    H1 6456   5.842   2.049   2.687  0.7000  0.2448  1.8314
 2164TIP3    H2 6457   5.752   1.936   2.642  0.8372  0.9755 -0.3646
 2165TIP3   OH2 6458   6.559   2.818   1.217  0.1241 -0.1541  0.0498
 2165TIP3    H1 6459   6.526   2.871   1.290 -2.7379 -2.4333  0.6278
 2165TIP3    H2 6460   6.628   2.764   1.256 -0.8654 -0.8145  0.9348
 2166TIP3   OH2 6461   7.216   5.712   5.252  0.3714  0.3589  0.0007
 2166TIP3    H1 6462   7.201   5.662   5.171  2.0347  1.7214 -1.2160
 2166TIP3    H2 6463   7.178   5.658   5.321 -1.0501 -0.8816 -1.6767
 2167TIP3   OH2 6464   6.213   3.726   1.900 -0.1134 -0.4288  0.7576
 2167TIP3    H1 6465   6.143   3.688   1.846 -0.4530 -2.6445  2.6413
 2167TIP3    H2 6466   6.291   3.676   1.876 -0.0242 -0.6454  1.5064
 2168TIP3   OH2 6467   2.412   5.091   3.906 -0.5060 -0.4111  0.5325
 2168TIP3    H1 6468   2.470   5.145   3.959  1.0873 -2.0012  0.4865
 2168TIP3    H2 6469   2.375   5.028   3.968  0.7685 -1.7839 -0.0455
 2169TIP3   OH2 6470   2.043   4.876   3.066  0.0628  0.1154  0.3364
 2169TIP3    H1 6471   1.972   4.813   3.054  0.7164 -0.3611 -1.2831
 2169TIP3    H2 6472   2.008   4.958   3.033 -0.9083  0.7645  2.7547
 2170TIP3   OH2 6473   4.661   1.701   2.616  0.2445 -0.6891  0.5815
 2170TIP3    H1 6474   4.716   1.644   2.563 -1.5002 -1.9352  0.0262
 2170TIP3    H2 6475   4.717   1.775   2.637  1.7538 -1.3246 -0.9456
 2171TIP3   OH2 6476   6.567   3.018   3.469  0.8757 -0.0655  0.1080
 2171TIP3    H1 6477   6.639   2.956   3.480  0.9184  0.0880  0.7701
 2171TIP3    H2 6478   6.603   3.101   3.498  1.4821  0.7546 -2.7452
 2172TIP3   OH2 6479   3.750   0.941   3.188 -0.7505 -0.4663 -0.2147
 2172TIP3    H1 6480   3.699   0.926   3.267 -0.1224 -2.0123 -0.0562
 2172TIP3    H2 6481   3.740   0.860   3.138 -0.7844  0.3174 -1.5240
 2173TIP3   OH2 6482   0.168   0.418   0.785  0.0297 -0.0884  0.2279
 2173TIP3    H1 6483   0.150   0.353   0.853  1.3647 -0.7592 -0.0101
 2173TIP3    H2 6484   0.084   0.460   0.768 -1.4713 -3.3601 -1.2962
 2174TIP3   OH2 6485   3.162   2.164   0.701  0.2192  0.1894 -0.6132
 2174TIP3    H1 6486   3.086   2.210   0.665  0.1613  0.7446  0.1852
 2174TIP3    H2 6487   3.124   2.102   0.764  0.4327  0.8607  0.2070
 2175TIP3   OH2 6488   0.077   1.122   5.070 -0.2048  0.3170 -0.0338
 2175TIP3    H1 6489   0.156   1.166   5.103 -0.6790  1.1170  0.0497
 2175TIP3    H2 6490   0.005   1.177   5.098 -0.7177  0.2433 -1.1616
 2176TIP3   OH2 6491   4.739   2.318   3.848 -0.9052 -0.2751 -0.2663
 2176TIP3    H1 6492   4.699   2.304   3.762 -0.1259 -0.0616 -0.6709
 2176TIP3    H2 6493   4.822   2.270   3.844 -1.1107 -0.7217  0.5640
 2177TIP3   OH2 6494   3.039   3.783   2.227 -0.6254 -0.5770 -0.3720
 2177TIP3    H1 6495   3.097   3.707   2.231 -1.0014 -0.8305  0.8740
 2177TIP3    H2 6496   3.004   3.791   2.316  0.1723  1.6494 -0.1785
 2178TIP3   OH2 6497   5.763   4.305   1.278 -0.2836  0.7966 -0.1158
 2178TIP3    H1 6498   5.790   4.345   1.360  0.2240 -1.6613  1.0008
 2178TIP3    H2 6499   5.826   4.337   1.214  0.1001  1.7217  0.6963
 2179TIP3   OH2 6500   6.460   4.953   3.223 -0.2926 -0.6995  0.0140
 2179TIP3    H1 6501   6.410   4.901   3.160 -0.8449  1.3735 -1.3497
 2179TIP3    H2 6502   6.528   4.893   3.254 -0.9700 -2.2774 -1.3612
 2180TIP3   OH2 6503   5.289   2.446   0.560 -0.0831 -0.2813  0.1076
 2180TIP3    H1 6504   5.271   2.472   0.650 -0.0639  1.7151 -0.4151
 2180TIP3    H2 6505   5.377   2.409   0.563  0.0776  0.1306  0.8535
 2181TIP3   OH2 6506   6.904   4.082   3.654 -0.0546  0.1018 -0.2907
 2181TIP3    H1 6507   6.856   4.158   3.622  1.1517  0.9803 -0.1275
 2181TIP3    H2 6508   6.965   4.118   3.719 -0.0812 -1.1467  0.4733
 2182TIP3   OH2 6509   0.304   3.107   2.512  0.0148  0.1459 -0.1680
 2182TIP3    H1 6510   0.303   3.019   2.549  1.5881 -0.0724 -0.5583
 2182TIP3    H2 6511   0.270   3.163   2.581  0.3151 -0.6045  0.6069
 2183TIP3   OH2 6512   0.211   3.756   1.813  0.4922 -0.4022  0.5103
 2183TIP3    H1 6513   0.177   3.717   1.893 -1.4680 -0.9135 -0.5041
 2183TIP3    H2 6514   0.212   3.684   1.750 -1.1160  0.6383 -0.7953
 2184TIP3   OH2 6515   3.582   1.660   5.148  0.2714  0.0874 -0.1108
 2184TIP3    H1 6516   3.502   1.676   5.198  0.4988 -0.9547  0.6131
 2184TIP3    H2 6517   3.596   1.566   5.154  1.9612  0.3460  0.4153
 2185TIP3   OH2 6518   6.066   6.476   2.413 -0.4867  0.1841  0.0250
 2185TIP3    H1 6519   6.073   6.481   2.318 -0.3293  0.6528  0.0601
 2185TIP3    H2 6520   6.157   6.472   2.443 -0.5329  0.2141  0.1668
 2186TIP3   OH2 6521   3.623   1.603   4.699 -0.7281 -0.0669  0.1118
 2186TIP3    H1 6522   3.711   1.619   4.734 -0.6582 -2.0577  1.0076
 2186TIP3    H2 6523   3.626   1.635   4.609  0.5128  1.0395  0.5171
 2187TIP3   OH2 6524   2.822   0.919   3.640  0.0107  0.1295 -0.1290
 2187TIP3    H1 6525   2.917   0.913   3.633  0.1151  0.6003  0.7058
 2187TIP3    H2 6526   2.800   0.876   3.722 -0.5263 -0.1857 -0.4289
 2188TIP3   OH2 6527   5.866   4.382   0.091 -0.0902  0.3777  0.0388
 2188TIP3    H1 6528   5.831   4.293   0.090 -0.3280  0.4155  1.6989
 2188TIP3    H2 6529   5.788   4.437   0.081 -0.0202  0.4101 -0.3307
 2189TIP3   OH2 6530   1.030   6.490   3.798 -0.1922 -0.9266 -0.3908
 2189TIP3    H1 6531   0.972   6.450   3.863  0.0681 -2.3950 -1.0271
 2189TIP3    H2 6532   1.005   6.449   3.715  0.0101  0.3424 -1.1001
 2190TIP3   OH2 6533   7.118   5.298   5.135 -0.3272  0.1416  0.1933
 2190TIP3    H1 6534   7.148   5.217   5.093 -1.5127  0.3618 -1.1691
 2190TIP3    H2 6535   7.078   5.348   5.064 -1.5309  0.9803  1.4096
 2191TIP3   OH2 6536   0.273   1.067   2.484 -0.0479 -0.3876 -0.1594
 2191TIP3    H1 6537   0.330   1.037   2.554  0.6741 -1.0714 -1.0082
 2191TIP3    H2 6538   0.187   1.080   2.525  0.6031  0.2464  1.0443
 2192TIP3   OH2 6539   3.608   0.107   5.603 -0.3341  0.3885  0.1276
 2192TIP3    H1 6540   3.521   0.094   5.640 -0.4046  1.5647  0.4102
 2192TIP3    H2 6541   3.594   0.169   5.531  0.3186  0.8737  0.4159
 2193TIP3   OH2 6542   6.682   2.347   0.829 -0.7138  0.6842  0.0792
 2193TIP3    H1 6543   6.646   2.409   0.892 -0.3582  0.5147  0.4563
 2193TIP3    H2 6544   6.674   2.392   0.745  0.7701  1.8382  0.4952
 2194TIP3   OH2 6545   5.746   6.036   2.575  0.4475  0.3744 -0.2779
 2194TIP3    H1 6546   5.755   5.945   2.549  0.2489 -0.0559  1.0976
 2194TIP3    H2 6547   5.831   6.076   2.553  1.4171 -0.7259  1.3016
 2195TIP3   OH2 6548   3.866   1.538   1.640 -0.1919 -0.4324  0.5615
 2195TIP3    H1 6549   3.791   1.507   1.588  1.0187 -1.7510 -0.5002
 2195TIP3    H2 6550   3.852   1.499   1.726 -0.8411 -0.4958  0.4373
 2196TIP3   OH2 6551   5.972   2.502   0.580  0.7223  0.0520  0.5937
 2196TIP3    H1 6552   5.876   2.508   0.584  0.7527  1.6021 -0.3608
 2196TIP3    H2 6553   5.996   2.458   0.662 -0.8251 -0.8257  0.6213
 2197TIP3   OH2 6554   5.055   6.511   4.866  0.1799  0.3700 -0.7603
 2197TIP3    H1 6555   4.988   6.477   4.926  1.9540 -0.3801  0.9122
 2197TIP3    H2 6556   5.096   6.433   4.828  0.4761  0.7932 -1.3244
 2198TIP3   OH2 6557   7.059   4.131   5.464  0.2795 -0.3118 -0.8870
 2198TIP3    H1 6558   6.996   4.080   5.515  1.0740  1.8881  2.6691
 2198TIP3    H2 6559   7.021   4.219   5.459  1.8423  0.4046 -0.9901
 2199TIP3   OH2 6560   5.280   4.353   5.287  0.0255 -0.0099 -0.0346
 2199TIP3    H1 6561   5.291   4.260   5.266 -0.1563 -0.3725  1.3590
 2199TIP3    H2 6562   5.365   4.380   5.322 -0.1167  0.1721  0.1730
 2200TIP3   OH2 6563   4.227   1.003   3.418  0.5921  0.2119  0.1334
 2200TIP3    H1 6564   4.196   0.921   3.380 -0.5933  0.5865  0.2693
 2200TIP3    H2 6565   4.157   1.066   3.400 -0.6605  0.1545  3.9558
 2201TIP3   OH2 6566   1.202   1.915   4.351  0.0630  0.2537  0.1514
 2201TIP3    H1 6567   1.129   1.864   4.316  0.9627 -2.1887  1.5746
 2201TIP3    H2 6568   1.171   1.947   4.436 -0.0592  1.0195 -0.1764
 2202TIP3   OH2 6569   2.434   0.300   1.307 -0.6452  0.0722 -0.5078
 2202TIP3    H1 6570   2.465   0.286   1.217 -0.6544 -0.8718 -0.3724
 2202TIP3    H2 6571   2.385   0.221   1.329 -0.9362  0.4398  0.2137
 2203TIP3   OH2 6572   1.628   5.941   0.791  0.0046  0.9069 -0.1527
 2203TIP3    H1 6573   1.645   6.008   0.857  2.2059  0.5094 -0.2284
 2203TIP3    H2 6574   1.590   5.868   0.840 -2.0034  1.9907 -0.0026
 2204TIP3   OH2 6575   6.233   1.113   1.294  0.3450  0.5383 -0.4588
 2204TIP3    H1 6576   6.199   1.038   1.245  0.3879  0.5292 -0.4745
 2204TIP3    H2 6577   6.291   1.075   1.359  0.4531  0.5667 -0.5392
 2205TIP3   OH2 6578   1.203   0.088   2.153  0.9423  0.3032  0.2855
 2205TIP3    H1 6579   1.161   0.114   2.071 -1.9142 -2.2509  0.7483
 2205TIP3    H2 6580   1.225   0.170   2.196  0.1626  1.7341 -1.8834
 2206TIP3   OH2 6581   3.443   3.480   5.330 -0.4303  0.3673  0.3289
 2206TIP3    H1 6582   3.466   3.431   5.251  0.2843  1.1418  0.0375
 2206TIP3    H2 6583   3.348   3.493   5.324 -0.6518 -1.0638  0.4771
 2207TIP3   OH2 6584   6.919   6.119   4.159  0.0069 -0.2793 -0.2670
 2207TIP3    H1 6585   6.824   6.125   4.149  0.2193  2.1357 -1.8719
 2207TIP3    H2 6586   6.944   6.043   4.107 -0.8019  1.2772 -3.1996
 2208TIP3   OH2 6587   2.609   1.101   5.717  0.2703  0.6669  0.6008
 2208TIP3    H1 6588   2.646   1.153   5.646  0.1968 -0.3086 -0.1591
 2208TIP3    H2 6589   2.514   1.108   5.704  0.2380  0.9980  0.9850
 2209TIP3   OH2 6590   5.716   4.107   3.254 -0.7380 -0.1957  0.4278
 2209TIP3    H1 6591   5.718   4.130   3.347  0.6629 -0.5981  0.5222
 2209TIP3    H2 6592   5.750   4.018   3.251  0.5672  0.3055 -0.5858
 2210TIP3   OH2 6593   5.167   6.137   2.210 -0.6352  0.2488 -0.2120
 2210TIP3    H1 6594   5.230   6.206   2.228 -0.2344  0.3724 -1.9610
 2210TIP3    H2 6595   5.180   6.073   2.281  0.1930  1.1170  0.4299
 2211TIP3   OH2 6596   3.047   2.325   4.496  0.0954 -0.1966  0.2145
 2211TIP3    H1 6597   2.981   2.257   4.480  1.4345 -2.4988  3.5228
 2211TIP3    H2 6598   3.006   2.383   4.559 -0.1442  0.7345 -0.7663
 2212TIP3   OH2 6599   6.199   1.555   0.617 -0.1103  0.5995 -0.4339
 2212TIP3    H1 6600   6.110   1.530   0.644 -1.0303  1.0611 -2.8317
 2212TIP3    H2 6601   6.196   1.650   0.611 -0.0796  0.4996 -2.4277
 2213TIP3   OH2 6602   6.393   0.888   0.475 -0.3351 -0.3214  0.5098
 2213TIP3    H1 6603   6.396   0.968   0.528 -0.7504  0.4510 -0.5746
 2213TIP3    H2 6604   6.383   0.920   0.385 -0.5250 -1.6022  0.0532
 2214TIP3   OH2 6605   6.774   5.247   2.088  0.7953 -0.2667  0.2176
 2214TIP3    H1 6606   6.714   5.265   2.015  1.2841  1.2229  0.1593
 2214TIP3    H2 6607   6.842   5.313   2.080  2.1596 -1.5668  0.6323
 2215TIP3   OH2 6608   4.476   6.796   3.707  0.0861  0.0889 -0.0564
 2215TIP3    H1 6609   4.404   6.784   3.646 -0.0484  0.1276  0.0935
 2215TIP3    H2 6610   4.434   6.819   3.790 -0.0903 -4.1546  1.2763
 2216TIP3   OH2 6611   6.491   1.119   3.233 -0.3190  0.3912  0.2937
 2216TIP3    H1 6612   6.419   1.161   3.186 -0.3417  0.1896  0.1485
 2216TIP3    H2 6613   6.450   1.050   3.284 -0.3980  1.0849  1.1981
 2217TIP3   OH2 6614   2.565   0.107   4.631  0.0889 -0.2186 -0.6849
 2217TIP3    H1 6615   2.610   0.153   4.561  0.4018 -2.0904 -1.8009
 2217TIP3    H2 6616   2.537   0.175   4.691  1.3763  1.2966 -1.7259
 2218TIP3   OH2 6617   0.736   4.884   4.259 -0.2626 -0.6614 -0.5838
 2218TIP3    H1 6618   0.826   4.850   4.253 -0.2755 -1.2526  1.7881
 2218TIP3    H2 6619   0.681   4.811   4.231 -0.0898 -0.9689 -0.1245
 2219TIP3   OH2 6620   5.271   4.304   3.702  0.3080 -0.0161  0.2139
 2219TIP3    H1 6621   5.210   4.351   3.645  0.3577 -1.2321 -0.8873
 2219TIP3    H2 6622   5.218   4.275   3.775  0.6684  3.4927  2.0823
 2220TIP3   OH2 6623   2.839   4.824   1.783 -1.1556 -0.0571 -0.3493
 2220TIP3    H1 6624   2.868   4.868   1.863 -1.6266  0.2233 -0.3257
 2220TIP3    H2 6625   2.867   4.883   1.712 -0.1878 -0.6043 -0.4438
 2221TIP3   OH2 6626   3.014   2.105   1.273 -0.0745 -0.1751  0.0015
 2221TIP3    H1 6627   2.941   2.165   1.260  0.6488  0.2502 -2.5717
 2221TIP3    H2 6628   3.063   2.142   1.346 -0.1653  1.8964 -0.9217
 2222TIP3   OH2 6629   5.518   4.012   5.370 -0.0187 -0.1030  0.2662
 2222TIP3    H1 6630   5.456   4.083   5.387 -1.1094 -0.3803 -2.1365
 2222TIP3    H2 6631   5.603   4.056   5.363 -0.7192  1.0941 -1.5206
 2223TIP3   OH2 6632   6.945   2.880   2.283 -0.9275 -0.1331 -0.2573
 2223TIP3    H1 6633   6.966   2.809   2.344  1.3053  0.0634 -0.7056
 2223TIP3    H2 6634   6.865   2.919   2.319 -1.7515 -2.3349  0.4405
 2224TIP3   OH2 6635   2.368   0.642   3.115 -0.0102  0.0309 -1.0931
 2224TIP3    H1 6636   2.366   0.697   3.037  0.5150 -0.7815 -1.7008
 2224TIP3    H2 6637   2.383   0.553   3.081  2.8402 -0.0219  0.0540
 2225TIP3   OH2 6638   0.981   2.181   0.513  0.0384  0.5127  0.3564
 2225TIP3    H1 6639   0.929   2.212   0.439  0.8846 -0.1235 -0.5459
 2225TIP3    H2 6640   0.922   2.185   0.588 -1.1320  0.3045 -0.5238
 2226TIP3   OH2 6641   4.131   2.637   0.384 -0.2012  0.0145  0.2508
 2226TIP3    H1 6642   4.036   2.634   0.397  0.1787 -1.0390  4.4092
 2226TIP3    H2 6643   4.166   2.581   0.453  3.4865 -0.1479 -1.5231
 2227TIP3   OH2 6644   3.034   5.833   3.583  0.6290 -0.6166 -0.2483
 2227TIP3    H1 6645   2.950   5.828   3.539 -0.0420 -0.8807  1.0031
 2227TIP3    H2 6646   3.046   5.746   3.621  0.7769 -0.1684  0.7705
 2228TIP3   OH2 6647   2.624   4.669   1.917 -0.1275  0.1702  0.4546
 2228TIP3    H1 6648   2.711   4.690   1.881  0.2505 -1.1428  0.5696
 2228TIP3    H2 6649   2.602   4.745   1.971  1.9676 -0.3957  2.2338
 2229TIP3   OH2 6650   3.094   0.442   5.596 -0.4623  0.4600 -0.7760
 2229TIP3    H1 6651   3.104   0.532   5.627  0.4217  0.1727 -0.1993
 2229TIP3    H2 6652   3.112   0.447   5.502  1.0789  0.6595 -0.4899
 2230TIP3   OH2 6653   3.540   5.498   2.044  0.1684 -0.5220 -0.5824
 2230TIP3    H1 6654   3.534   5.407   2.073 -0.6746 -0.3679 -0.2460
 2230TIP3    H2 6655   3.582   5.494   1.958 -0.9988 -1.3480 -1.1361
 2231TIP3   OH2 6656   1.161   0.497   3.437 -0.7630  0.1372  0.0493
 2231TIP3    H1 6657   1.129   0.410   3.411 -0.0335  0.1097 -0.8122
 2231TIP3    H2 6658   1.221   0.479   3.510 -0.7442 -0.0686 -0.0135
 2232TIP3   OH2 6659   4.920   5.915   2.835  0.3970 -0.6682  0.1026
 2232TIP3    H1 6660   4.913   5.931   2.740 -0.7228 -1.4512  0.0271
 2232TIP3    H2 6661   5.013   5.903   2.851  0.4749 -2.4197 -1.2645
 2233TIP3   OH2 6662   6.022   2.061   0.554  0.2194  0.0589  0.2599
 2233TIP3    H1 6663   5.978   2.107   0.482  2.4563  0.0785 -1.1934
 2233TIP3    H2 6664   6.115   2.075   0.538  0.8270 -0.7941  2.6386
 2234TIP3   OH2 6665   6.801   1.226   1.852  0.8080  0.0010 -0.1843
 2234TIP3    H1 6666   6.852   1.162   1.902  1.0331  1.3311  1.4004
 2234TIP3    H2 6667   6.713   1.220   1.890 -0.1259 -1.7362 -2.3759
 2235TIP3   OH2 6668   1.954   0.751   2.522  0.4466 -0.4141  0.5826
 2235TIP3    H1 6669   2.018   0.820   2.542  0.3944 -0.3150  0.4093
 2235TIP3    H2 6670   2.001   0.670   2.539  0.1930 -0.3322  1.7805
 2236TIP3   OH2 6671   5.013   5.652   2.268  0.1721  0.3386 -0.6677
 2236TIP3    H1 6672   5.104   5.659   2.240 -0.3823  0.3790 -2.6244
 2236TIP3    H2 6673   4.992   5.739   2.305  0.3573  1.0221 -2.1106
 2237TIP3   OH2 6674   4.360   4.981   4.455  0.0087 -0.4226  0.1166
 2237TIP3    H1 6675   4.364   4.950   4.365  0.3364 -0.8806  0.2839
 2237TIP3    H2 6676   4.318   4.909   4.503 -0.1896 -0.1696  0.3209
 2238TIP3   OH2 6677   1.299   2.462   4.047  0.1003  0.0539 -0.1759
 2238TIP3    H1 6678   1.227   2.520   4.071  0.9756  0.6156  1.2079
 2238TIP3    H2 6679   1.372   2.522   4.030  0.7099 -0.5896  0.1655
 2239TIP3   OH2 6680   3.046   0.195   4.118 -0.1451  0.1130 -0.2479
 2239TIP3    H1 6681   3.104   0.260   4.081 -0.1394 -1.3863 -3.1530
 2239TIP3    H2 6682   2.979   0.245   4.165  2.0296  1.9544  1.0276
 2240TIP3   OH2 6683   7.072   2.317   1.647 -0.2762 -0.0526 -0.3199
 2240TIP3    H1 6684   7.028   2.297   1.563  0.3854 -1.2680 -0.3898
 2240TIP3    H2 6685   7.000   2.334   1.707 -0.7661  0.8938 -1.1383
 2241TIP3   OH2 6686   1.582   2.142   4.951  0.0132  0.4452 -0.0980
 2241TIP3    H1 6687   1.591   2.095   4.868 -0.1489 -0.0048  0.1359
 2241TIP3    H2 6688   1.617   2.229   4.933 -1.0304  0.7100 -0.9620
 2242TIP3   OH2 6689   6.337   5.982   5.527  0.2247  0.0232  0.0817
 2242TIP3    H1 6690   6.387   6.042   5.582  1.4812  0.5167 -1.5143
 2242TIP3    H2 6691   6.368   6.000   5.438  0.4395 -2.7802 -0.5093
 2243TIP3   OH2 6692   6.712   1.180   3.092  0.1692 -0.4002 -0.2832
 2243TIP3    H1 6693   6.638   1.187   3.152  1.5559  1.3736  1.3054
 2243TIP3    H2 6694   6.787   1.216   3.140  1.5031  0.4371 -2.7829
 2244TIP3   OH2 6695   2.098   4.515   4.281  0.4510  0.6174 -0.0699
 2244TIP3    H1 6696   2.091   4.540   4.189  0.0667 -1.8917 -0.8113
 2244TIP3    H2 6697   2.012   4.535   4.318  0.8109  2.2432 -0.0446
 2245TIP3   OH2 6698   5.466   6.641   4.886 -0.1316 -0.5033  0.1028
 2245TIP3    H1 6699   5.469   6.710   4.820 -1.3314 -0.5531 -0.0168
 2245TIP3    H2 6700   5.437   6.563   4.839 -1.4073 -0.4417  0.7547
 2246TIP3   OH2 6701   1.667   5.346   4.904 -0.1167 -0.3611  0.0338
 2246TIP3    H1 6702   1.734   5.345   4.972 -0.1726 -1.3204  0.1002
 2246TIP3    H2 6703   1.711   5.315   4.826 -0.6348 -1.7628  0.2621
 2247TIP3   OH2 6704   5.071   5.936   1.663  0.0939 -0.0639  0.0384
 2247TIP3    H1 6705   5.074   6.028   1.690  0.1680  0.5886 -2.0184
 2247TIP3    H2 6706   5.134   5.931   1.591  0.2480 -1.7892  0.2737
 2248TIP3   OH2 6707   1.945   4.175   5.735  0.2946  0.2049  0.4413
 2248TIP3    H1 6708   1.895   4.246   5.695  0.3931 -0.0867 -0.2077
 2248TIP3    H2 6709   2.024   4.217   5.769 -0.2238  0.6140  1.1729
 2249TIP3   OH2 6710   3.635   6.785   2.585  0.4310 -0.8324  0.5320
 2249TIP3    H1 6711   3.552   6.811   2.625  0.0475  0.5741 -1.0512
 2249TIP3    H2 6712   3.611   6.750   2.500  1.4916  0.3159 -0.2697
 2250TIP3   OH2 6713   2.744   2.827   1.739  0.0475 -0.3780  0.2712
 2250TIP3    H1 6714   2.716   2.873   1.818 -2.3585 -0.2886 -0.5744
 2250TIP3    H2 6715   2.692   2.746   1.738  0.8766 -0.9317 -0.6530
 2251TIP3   OH2 6716   5.459   1.972   2.162 -0.4427  0.0967 -0.3304
 2251TIP3    H1 6717   5.497   2.038   2.105  4.3438 -1.6403  0.4035
 2251TIP3    H2 6718   5.423   1.907   2.102  0.4474  0.4441 -1.2711
 2252TIP3   OH2 6719   5.533   1.851   0.030 -0.4179 -0.6706 -0.6712
 2252TIP3    H1 6720   5.480   1.928   0.010 -0.2117  0.0119  1.1616
 2252TIP3    H2 6721   5.471   1.790   0.071  0.0454 -0.0559  1.0456
 2253TIP3   OH2 6722   4.303   3.808   2.320 -0.0218  0.1926  0.6656
 2253TIP3    H1 6723   4.216   3.815   2.359 -1.0338  0.6969 -1.5538
 2253TIP3    H2 6724   4.341   3.896   2.330 -0.9112  0.7768 -0.8193
 2254TIP3   OH2 6725   3.486   0.792   2.760  0.2249  0.2542 -0.0958
 2254TIP3    H1 6726   3.489   0.754   2.673  0.1366 -1.4634  0.6048
 2254TIP3    H2 6727   3.546   0.866   2.756  2.2370 -1.3187 -0.9317
 2255TIP3   OH2 6728   4.627   5.144   4.144  0.2811 -0.3541 -0.7072
 2255TIP3    H1 6729   4.578   5.210   4.094 -1.4501 -1.2567 -0.2933
 2255TIP3    H2 6730   4.603   5.061   4.103  1.7035 -0.8153 -0.6326
 2256TIP3   OH2 6731   4.272   6.343   1.916  0.7158  0.0011 -0.1464
 2256TIP3    H1 6732   4.346   6.326   1.859  0.0874  0.9389 -1.3046
 2256TIP3    H2 6733   4.199   6.358   1.856 -0.2252 -0.0981  0.9429
 2257TIP3   OH2 6734   4.109   1.811   3.615 -0.1872 -0.2104  0.1357
 2257TIP3    H1 6735   4.068   1.883   3.663  0.8985 -0.0631  0.8914
 2257TIP3    H2 6736   4.191   1.796   3.662  0.7141 -0.3530 -1.4404
 2258TIP3   OH2 6737   3.050   6.231   5.334  0.4724 -0.6445 -0.3958
 2258TIP3    H1 6738   3.126   6.249   5.390  0.1420  1.0808 -0.4358
 2258TIP3    H2 6739   3.003   6.314   5.330 -2.6483 -2.1773  1.3841
 2259TIP3   OH2 6740   1.534   6.770   0.858  0.2518 -0.1094 -0.0679
 2259TIP3    H1 6741   1.567   6.702   0.916 -0.4555  0.8498  1.5113
 2259TIP3    H2 6742   1.457   6.730   0.816 -0.7815  0.0210  1.6279
 2260TIP3   OH2 6743   0.724   4.495   0.156 -0.7979 -0.3276 -0.3470
 2260TIP3    H1 6744   0.757   4.580   0.183  1.5177 -1.9476  2.5843
 2260TIP3    H2 6745   0.641   4.485   0.204  1.1229 -1.3545  3.1290
 2261TIP3   OH2 6746   3.704   6.717   1.620 -0.6483 -0.4109  0.6397
 2261TIP3    H1 6747   3.681   6.691   1.710 -1.6367  0.4540  0.6649
 2261TIP3    H2 6748   3.729   6.635   1.577 -1.5454 -1.0667  1.3141
 2262TIP3   OH2 6749   5.290   1.858   5.024 -0.6874 -0.2277  0.3405
 2262TIP3    H1 6750   5.289   1.788   5.089 -0.4610 -1.0098 -0.4665
 2262TIP3    H2 6751   5.239   1.928   5.063 -1.7957 -1.2297  0.7775
 2263TIP3   OH2 6752   2.637   6.296   3.213  0.1524  0.1859 -0.3236
 2263TIP3    H1 6753   2.614   6.249   3.293 -0.8496 -0.9359 -1.2483
 2263TIP3    H2 6754   2.596   6.247   3.142  1.5818  0.7514 -1.6206
 2264TIP3   OH2 6755   2.749   0.759   4.654  0.0790  0.1900  0.2011
 2264TIP3    H1 6756   2.744   0.845   4.697  1.6345  1.1241 -1.3298
 2264TIP3    H2 6757   2.708   0.773   4.569  0.3471 -0.5953 -0.0658
 2265TIP3   OH2 6758   1.286   2.350   3.489 -0.4124 -0.0978 -0.0636
 2265TIP3    H1 6759   1.376   2.356   3.519 -1.1707  1.4383  2.1567
 2265TIP3    H2 6760   1.256   2.265   3.523 -0.0446 -0.2692 -0.1561
 2266TIP3   OH2 6761   3.186   2.889   4.326  0.1710 -0.0264  0.3865
 2266TIP3    H1 6762   3.186   2.878   4.421  0.1241  0.3004  0.4251
 2266TIP3    H2 6763   3.130   2.965   4.311  0.4824  0.1508  0.1207
 2267TIP3   OH2 6764   6.413   3.123   0.583  0.0356 -0.2327  0.4268
 2267TIP3    H1 6765   6.430   3.214   0.557  0.0236  0.5230  2.7692
 2267TIP3    H2 6766   6.495   3.077   0.567 -0.2766 -0.1141 -1.7830
 2268TIP3   OH2 6767   5.053   1.175   0.698  0.4707  0.4091 -0.2428
 2268TIP3    H1 6768   4.970   1.128   0.708  0.9746 -0.1536  1.7080
 2268TIP3    H2 6769   5.049   1.245   0.763  0.5475  1.9340 -1.7959
 2269TIP3   OH2 6770   4.992   0.468   1.139 -0.0026  0.1888  0.0092
 2269TIP3    H1 6771   5.069   0.444   1.086  0.1292  0.2450  0.1741
 2269TIP3    H2 6772   5.003   0.419   1.220 -0.7325 -0.6910 -0.4073
 2270TIP3   OH2 6773   0.158   0.579   2.240  0.5572  0.2499 -0.3088
 2270TIP3    H1 6774   0.134   0.527   2.163 -0.3270 -0.4302  0.4078
 2270TIP3    H2 6775   0.235   0.534   2.275  0.1703 -0.2213 -0.0502
 2271TIP3   OH2 6776   6.359   5.066   0.866  0.3863 -0.2038  0.2533
 2271TIP3    H1 6777   6.447   5.041   0.838  0.6458 -0.0930  0.9648
 2271TIP3    H2 6778   6.336   5.141   0.811  1.9578  1.7341  2.1292
 2272TIP3   OH2 6779   5.944   3.320   1.793 -0.0500  0.0450 -0.4269
 2272TIP3    H1 6780   6.024   3.338   1.842 -1.5181  2.4088  1.3660
 2272TIP3    H2 6781   5.908   3.406   1.773 -3.2630 -0.8148  0.8785
 2273TIP3   OH2 6782   2.471   2.319   1.401 -0.2522 -0.2632 -0.1254
 2273TIP3    H1 6783   2.503   2.394   1.351 -1.0866 -0.2941 -0.7271
 2273TIP3    H2 6784   2.489   2.342   1.493  2.0225 -0.5475 -0.4510
 2274TIP3   OH2 6785   3.388   1.275   0.560 -0.0135 -0.2003  0.1929
 2274TIP3    H1 6786   3.327   1.346   0.537 -1.8249 -1.1567  1.7676
 2274TIP3    H2 6787   3.458   1.319   0.609 -0.7405  0.6214  0.5370
 2275TIP3   OH2 6788   0.953   6.761   5.552  0.2745  0.4829  0.3189
 2275TIP3    H1 6789   0.953   6.704   5.475 -0.1496 -0.5946  1.0940
 2275TIP3    H2 6790   0.899   6.836   5.526 -2.1066 -1.0895  0.3755
 2276TIP3   OH2 6791   2.314   6.499   0.587  0.2191  0.1747  0.7041
 2276TIP3    H1 6792   2.318   6.507   0.492  0.3962  3.6967  0.9086
 2276TIP3    H2 6793   2.228   6.534   0.610  0.6864  0.5550  1.9326
 2277TIP3   OH2 6794   6.911   1.477   5.241 -0.0726  0.0280  0.0493
 2277TIP3    H1 6795   6.858   1.414   5.193  0.6664 -1.3352  0.9564
 2277TIP3    H2 6796   6.848   1.532   5.288 -0.7296  0.1766 -0.9741
 2278TIP3   OH2 6797   5.192   4.997   0.960  0.5191  0.2563  0.2225
 2278TIP3    H1 6798   5.282   4.980   0.930  0.2843  0.2258 -0.4850
 2278TIP3    H2 6799   5.201   5.066   1.025  1.0345  0.4384 -0.0345
 2279TIP3   OH2 6800   4.617   1.240   3.036  0.3994  0.0847  1.0193
 2279TIP3    H1 6801   4.569   1.210   2.959  0.4650  0.4814  0.8216
 2279TIP3    H2 6802   4.605   1.335   3.037  1.6060  0.2557  0.6674
 2280TIP3   OH2 6803   2.191   3.950   2.632  0.2714  0.0810  0.2499
 2280TIP3    H1 6804   2.204   3.962   2.538 -0.1842  2.7529  0.4241
 2280TIP3    H2 6805   2.095   3.949   2.643  0.2206 -3.1425  0.4974
 2281TIP3   OH2 6806   1.808   1.079   2.092 -0.2301  0.5486  0.5871
 2281TIP3    H1 6807   1.856   1.034   2.162 -0.7979 -1.0700 -0.0349
 2281TIP3    H2 6808   1.877   1.118   2.038  0.3468 -0.5909  0.4681
 2282TIP3   OH2 6809   1.772   3.011   3.960 -0.2908 -0.5181 -0.0596
 2282TIP3    H1 6810   1.814   3.061   4.030 -2.2894  2.3301 -0.7073
 2282TIP3    H2 6811   1.746   2.929   4.002  0.6584  0.1107  1.9025
 2283TIP3   OH2 6812   1.105   5.617   1.500  0.8508 -0.0617 -0.3907
 2283TIP3    H1 6813   1.107   5.569   1.417  0.7389  0.6942 -0.8397
 2283TIP3    H2 6814   1.061   5.557   1.560 -0.3122 -0.0993 -1.2284
 2284TIP3   OH2 6815   2.729   2.301   5.345  0.5718 -0.0478 -0.0548
 2284TIP3    H1 6816   2.772   2.378   5.308  1.4608 -0.7631 -0.5793
 2284TIP3    H2 6817   2.646   2.294   5.297 -0.4219  1.6297  1.3056
 2285TIP3   OH2 6818   3.207   2.112   3.352  0.8921 -0.0896 -0.0909
 2285TIP3    H1 6819   3.126   2.062   3.356  0.4052  0.7405  0.6360
 2285TIP3    H2 6820   3.228   2.132   3.444  1.7126  0.0345 -0.2918
 2286TIP3   OH2 6821   6.603   2.564   5.033 -0.0832 -0.3086 -0.7201
 2286TIP3    H1 6822   6.594   2.658   5.049 -1.1162 -0.6078  0.6053
 2286TIP3    H2 6823   6.677   2.538   5.087 -1.2601 -0.6556  0.7666
 2287TIP3   OH2 6824   6.468   4.211   3.735 -0.0465  0.1542 -0.9004
 2287TIP3    H1 6825   6.374   4.209   3.718 -0.6997  1.3626  1.9550
 2287TIP3    H2 6826   6.478   4.171   3.821  1.9847  0.6033 -0.8644
 2288TIP3   OH2 6827   1.896   1.705   5.849  0.7045 -0.4257  0.3173
 2288TIP3    H1 6828   1.975   1.757   5.836  0.9237 -0.7414  0.3603
 2288TIP3    H2 6829   1.841   1.758   5.906  0.9579 -0.2782  0.4266
 2289TIP3   OH2 6830   5.430   4.316   2.763 -0.9425 -0.5863 -0.0539
 2289TIP3    H1 6831   5.375   4.390   2.738 -1.1463 -0.9577 -0.7404
 2289TIP3    H2 6832   5.434   4.319   2.859 -1.9842 -0.4323 -0.0089
 2290TIP3   OH2 6833   1.178   0.773   1.284 -0.1204 -0.0926 -0.3301
 2290TIP3    H1 6834   1.273   0.786   1.284 -0.2217  0.6873 -0.1156
 2290TIP3    H2 6835   1.155   0.766   1.377 -0.0724 -1.9133 -0.4236
 2291TIP3   OH2 6836   5.699   5.749   4.169 -0.0638 -0.3217 -0.0211
 2291TIP3    H1 6837   5.722   5.827   4.219 -0.7816 -0.2119  0.1500
 2291TIP3    H2 6838   5.713   5.677   4.230 -0.4205 -0.2324  0.1721
 2292TIP3   OH2 6839   0.889   6.275   5.509 -0.1471 -0.1513 -0.1916
 2292TIP3    H1 6840   0.976   6.271   5.548 -0.3335  2.7557  0.7901
 2292TIP3    H2 6841   0.905   6.302   5.418  0.0356 -1.7060 -0.6412
 2293TIP3   OH2 6842   6.961   1.316   4.890  0.3759  0.0540 -0.5641
 2293TIP3    H1 6843   6.911   1.397   4.896  1.2190  0.5011  0.9494
 2293TIP3    H2 6844   7.024   1.332   4.820  1.6648  1.4067  0.8318
 2294TIP3   OH2 6845   4.280   1.069   3.822 -0.3172  0.2718 -0.6737
 2294TIP3    H1 6846   4.359   1.108   3.783 -0.2912  0.1217 -0.7722
 2294TIP3    H2 6847   4.280   1.100   3.913 -0.6786  1.0766 -0.9426
 2295TIP3   OH2 6848   1.732   1.328   2.242 -0.2797  0.0158 -0.6609
 2295TIP3    H1 6849   1.816   1.291   2.270  0.7146  0.4990 -2.8090
 2295TIP3    H2 6850   1.669   1.296   2.307  1.9529  2.1324  2.8718
 2296TIP3   OH2 6851   2.224   2.024   2.960  0.5453 -0.2430 -0.3591
 2296TIP3    H1 6852   2.313   2.015   2.926  0.5171 -1.8895 -0.0875
 2296TIP3    H2 6853   2.225   2.106   3.009  1.6517  0.2225 -1.1277
 2297TIP3   OH2 6854   0.617   6.613   2.125 -0.2709  0.5676 -0.3601
 2297TIP3    H1 6855   0.651   6.592   2.212  1.5922 -0.9589 -1.3762
 2297TIP3    H2 6856   0.522   6.597   2.132 -0.1997  0.6637  1.4101
 2298TIP3   OH2 6857   1.699   1.525   2.064 -0.1992  0.5863 -0.0569
 2298TIP3    H1 6858   1.606   1.511   2.045  0.2882  0.2756 -2.6207
 2298TIP3    H2 6859   1.725   1.449   2.115 -1.0539 -0.0908 -0.5944
 2299TIP3   OH2 6860   4.376   3.418   0.262 -0.1203 -0.6120 -0.0951
 2299TIP3    H1 6861   4.381   3.409   0.358  0.0164 -3.2166 -0.2906
 2299TIP3    H2 6862   4.458   3.381   0.230 -0.1672  0.2459 -1.2606
 2300TIP3   OH2 6863   3.234   1.428   3.212  0.3565  0.7902  0.3252
 2300TIP3    H1 6864   3.292   1.355   3.231 -2.1594 -0.9768  1.6908
 2300TIP3    H2 6865   3.267   1.500   3.266  2.3158  0.4483 -0.3367
 2301TIP3   OH2 6866   0.009   0.556   1.520  0.5022 -0.1541  0.3699
 2301TIP3    H1 6867  -0.030   0.469   1.524  1.2933 -0.4673  2.4669
 2301TIP3    H2 6868   0.103   0.540   1.520  0.9638  0.5514 -4.9792
 2302TIP3   OH2 6869   4.948   6.475   5.397  0.3696 -0.2348  0.1691
 2302TIP3    H1 6870   4.877   6.422   5.432  1.1790 -0.3824  1.6485
 2302TIP3    H2 6871   5.012   6.412   5.366  0.7365 -0.1256  0.6913
 2303TIP3   OH2 6872   0.689   3.572   4.806 -0.0307  0.0518 -0.1763
 2303TIP3    H1 6873   0.781   3.589   4.786  0.5992 -0.6831  1.8421
 2303TIP3    H2 6874   0.658   3.521   4.731  1.9138 -1.7741  0.1333
 2304TIP3   OH2 6875   3.479   1.222   1.463 -0.2492  0.1843 -0.2621
 2304TIP3    H1 6876   3.479   1.174   1.545 -0.1123  2.0327  0.8747
 2304TIP3    H2 6877   3.426   1.169   1.404  0.0970 -1.4548  0.8275
 2305TIP3   OH2 6878   5.260   5.965   1.420  0.2350  0.0452  0.2248
 2305TIP3    H1 6879   5.237   5.964   1.327  0.1716 -0.9365  0.2420
 2305TIP3    H2 6880   5.297   6.052   1.435 -0.9027  0.6657 -0.4346
 2306TIP3   OH2 6881   6.812   3.947   4.642 -0.4940  0.0566  0.0490
 2306TIP3    H1 6882   6.892   3.937   4.590 -0.3600 -0.2621  0.3144
 2306TIP3    H2 6883   6.837   3.921   4.731 -0.7005  0.6797  0.2935
 2307TIP3   OH2 6884   6.138   4.200   1.187 -0.4922 -0.0881  0.4111
 2307TIP3    H1 6885   6.083   4.272   1.155  0.2587  0.6911  0.8328
 2307TIP3    H2 6886   6.076   4.130   1.209 -1.2308  0.4161 -0.0431
 2308TIP3   OH2 6887   1.610   5.832   4.117  0.2378  0.1629  0.0611
 2308TIP3    H1 6888   1.610   5.755   4.175  0.2328  0.0113 -0.1400
 2308TIP3    H2 6889   1.691   5.878   4.139  0.4072 -0.0774 -0.0512
 2309TIP3   OH2 6890   7.186   6.251   0.617 -0.5442 -0.2914 -0.1865
 2309TIP3    H1 6891   7.097   6.264   0.649 -0.8970  0.1528 -1.2707
 2309TIP3    H2 6892   7.202   6.328   0.562  0.7512 -0.0480  0.4907
 2310TIP3   OH2 6893   7.047   5.281   2.386 -0.6408 -0.0363 -0.2455
 2310TIP3    H1 6894   7.113   5.252   2.323 -1.4672 -2.5455 -0.0754
 2310TIP3    H2 6895   6.974   5.311   2.332  0.1732  1.7318 -0.4272
 2311TIP3   OH2 6896   6.374   2.407   2.964 -0.2628 -0.0248  0.4728
 2311TIP3    H1 6897   6.368   2.358   2.882 -0.5562  2.0126 -0.8105
 2311TIP3    H2 6898   6.353   2.343   3.032  0.1079 -1.8205 -1.0097
 2312TIP3   OH2 6899   5.442   3.332   0.155 -0.2861 -0.0476  0.2760
 2312TIP3    H1 6900   5.524   3.286   0.135 -1.2343 -1.5836 -0.1842
 2312TIP3    H2 6901   5.401   3.346   0.070 -1.4654 -1.1405  0.6509
 2313TIP3   OH2 6902   6.064   6.235   2.623 -0.3690 -0.1755  0.3719
 2313TIP3    H1 6903   6.150   6.236   2.584 -0.3982  2.2140  0.1952
 2313TIP3    H2 6904   6.005   6.268   2.555 -1.2023 -0.5444  0.8870
 2314TIP3   OH2 6905   4.935   0.662   2.346 -0.3661 -0.0334  0.0474
 2314TIP3    H1 6906   4.879   0.587   2.362 -0.5718  0.0917 -0.0915
 2314TIP3    H2 6907   5.020   0.624   2.322 -0.5425 -0.2232 -0.2874
 2315TIP3   OH2 6908   1.850   6.416   1.773  0.3407 -0.4243  0.3079
 2315TIP3    H1 6909   1.847   6.504   1.812  2.3195 -0.6132  1.0077
 2315TIP3    H2 6910   1.816   6.359   1.842  0.0655 -0.3381  0.2477
 2316TIP3   OH2 6911   2.226   4.265   5.402 -0.1231  0.2148 -0.3323
 2316TIP3    H1 6912   2.271   4.191   5.443 -0.6846  0.2803  0.4273
 2316TIP3    H2 6913   2.290   4.336   5.405 -0.3261  0.3643  0.9252
 2317TIP3   OH2 6914   0.239   1.369   2.983  0.2518  0.0331 -0.5113
 2317TIP3    H1 6915   0.212   1.452   3.023  0.1718 -0.5174  0.6226
 2317TIP3    H2 6916   0.161   1.339   2.937 -0.3528 -0.3612  0.7246
 2318TIP3   OH2 6917   5.259   0.369   2.088 -0.1851  0.6440  0.1876
 2318TIP3    H1 6918   5.228   0.415   2.010  1.3317 -1.1366 -1.5761
 2318TIP3    H2 6919   5.354   0.377   2.084  0.0430 -1.3135  0.5894
 2319TIP3   OH2 6920   4.546   5.421   1.983  0.1737  0.7143 -0.1518
 2319TIP3    H1 6921   4.465   5.454   1.945 -0.5213 -0.0099  0.6645
 2319TIP3    H2 6922   4.615   5.472   1.940 -0.7449  1.8017 -0.3823
 2320TIP3   OH2 6923   2.633   5.101   3.227 -0.2853  0.4500  0.3582
 2320TIP3    H1 6924   2.566   5.048   3.270 -0.9537 -1.7155 -2.9672
 2320TIP3    H2 6925   2.713   5.051   3.237 -0.1452  0.6686  0.3294
 2321TIP3   OH2 6926   4.489   2.250   1.891  0.1262 -0.0471 -0.2476
 2321TIP3    H1 6927   4.421   2.310   1.860 -0.8494 -2.0472 -2.2890
 2321TIP3    H2 6928   4.450   2.208   1.968 -0.8388 -0.8236 -1.1161
 2322TIP3   OH2 6929   5.827   2.094   5.624  1.4785 -0.0332 -0.0850
 2322TIP3    H1 6930   5.834   2.015   5.570  2.1435 -0.4196  0.5430
 2322TIP3    H2 6931   5.744   2.085   5.669 -0.2397  1.3901 -2.6842
 2323TIP3   OH2 6932   5.649   1.353   2.615 -0.4562  0.3353  0.6047
 2323TIP3    H1 6933   5.556   1.352   2.592 -0.4788  0.8084  0.6640
 2323TIP3    H2 6934   5.695   1.362   2.532 -0.4758  0.3774  0.5982
 2324TIP3   OH2 6935   4.221   0.226   3.862  0.3278  0.0030  0.2067
 2324TIP3    H1 6936   4.162   0.274   3.920  1.5045  2.9782 -0.8390
 2324TIP3    H2 6937   4.306   0.228   3.907  0.5206 -0.6530 -0.1158
 2325TIP3   OH2 6938   6.031   5.547   0.094 -0.1860  0.4487 -0.4410
 2325TIP3    H1 6939   6.111   5.591   0.124 -0.6574  1.0013  0.0309
 2325TIP3    H2 6940   6.050   5.454   0.105  0.6809  0.5366 -1.0747
 2326TIP3   OH2 6941   0.617   1.516   4.892  0.3442 -0.1005 -0.5626
 2326TIP3    H1 6942   0.669   1.485   4.967  1.9700  0.7995 -1.2618
 2326TIP3    H2 6943   0.586   1.603   4.919 -1.4615 -0.9214  0.1292
 2327TIP3   OH2 6944   4.818   0.738   2.595  0.1662 -0.5370 -0.0960
 2327TIP3    H1 6945   4.783   0.735   2.506  0.4453  0.7739 -0.2648
 2327TIP3    H2 6946   4.793   0.654   2.633  0.2276 -1.2029 -1.4727
 2328TIP3   OH2 6947   6.556   3.324   4.852 -0.2879 -0.5058  0.7238
 2328TIP3    H1 6948   6.601   3.393   4.900  1.2814 -0.7050 -0.3611
 2328TIP3    H2 6949   6.598   3.323   4.766 -0.3726 -2.6740  0.6418
 2329TIP3   OH2 6950   6.032   3.114   5.197  0.1240  0.3200  0.0369
 2329TIP3    H1 6951   6.031   3.019   5.183  3.7247  0.2194 -0.3804
 2329TIP3    H2 6952   6.117   3.132   5.235 -0.9299  3.3187  1.2865
 2330TIP3   OH2 6953   4.157   2.809   0.019 -0.1419  0.2650 -0.3933
 2330TIP3    H1 6954   4.114   2.726   0.040  1.5418 -0.8923 -1.2635
 2330TIP3    H2 6955   4.103   2.846  -0.051 -0.4107 -0.5600 -0.6452
 2331TIP3   OH2 6956   1.324   0.109   1.414 -0.0443  0.2243 -0.1029
 2331TIP3    H1 6957   1.252   0.053   1.442  0.9527  0.1514  2.5758
 2331TIP3    H2 6958   1.282   0.192   1.390 -1.0898 -0.0669  0.6464
 2332TIP3   OH2 6959   1.538   5.637   0.431  0.1008  0.1348  0.1224
 2332TIP3    H1 6960   1.472   5.569   0.446  1.6282 -1.4246  0.0037
 2332TIP3    H2 6961   1.543   5.644   0.336 -1.1581  1.5911  0.1179
 2333TIP3   OH2 6962   3.531   6.107   1.338  0.3938  0.5344 -0.0744
 2333TIP3    H1 6963   3.594   6.152   1.281  2.0453  0.3394  1.4870
 2333TIP3    H2 6964   3.572   6.022   1.357 -0.9744 -0.1537 -0.0400
 2334TIP3   OH2 6965   4.932   0.270   4.817  0.0628  0.2968  0.2269
 2334TIP3    H1 6966   4.905   0.205   4.753  0.4558  1.1252 -0.7949
 2334TIP3    H2 6967   4.850   0.303   4.854 -0.1366 -1.1371  1.1629
 2335TIP3   OH2 6968   6.095   2.939   3.529  0.1386 -0.3270 -0.2506
 2335TIP3    H1 6969   6.180   2.967   3.565 -0.9407  0.8438  1.5404
 2335TIP3    H2 6970   6.118   2.880   3.458  2.4742  0.4435 -0.2332
 2336TIP3   OH2 6971   5.233   6.744   2.316 -0.3778  0.2478  0.2722
 2336TIP3    H1 6972   5.142   6.771   2.303 -0.3401  0.4980  0.5253
 2336TIP3    H2 6973   5.257   6.700   2.234 -0.6531  0.3840  0.1189
 2337TIP3   OH2 6974   2.038   1.035   0.399  0.5449  0.0520  0.2819
 2337TIP3    H1 6975   2.123   1.006   0.432  0.8955 -0.0453 -0.6661
 2337TIP3    H2 6976   1.991   0.954   0.379  1.3709  0.0649 -1.9829
 2338TIP3   OH2 6977   3.278   4.455   0.975  0.4181 -0.1239  0.2002
 2338TIP3    H1 6978   3.301   4.386   1.037  1.2206  0.7302  0.8764
 2338TIP3    H2 6979   3.359   4.475   0.928  0.3479  0.7596  0.4285
 2339TIP3   OH2 6980   0.754   5.528   4.960 -0.2786 -0.0615  0.0658
 2339TIP3    H1 6981   0.718   5.544   5.047  1.9166  1.5345  0.7595
 2339TIP3    H2 6982   0.692   5.570   4.900 -0.8719  0.4170  0.9929
 2340TIP3   OH2 6983   1.929   6.146   4.498 -0.1892 -0.1274 -0.2674
 2340TIP3    H1 6984   1.882   6.217   4.452 -0.4227 -1.7942 -2.7983
 2340TIP3    H2 6985   1.861   6.100   4.546 -0.9309 -1.4133 -2.4336
 2341TIP3   OH2 6986   5.617   2.713   5.634  0.3916  0.2684  0.2086
 2341TIP3    H1 6987   5.605   2.635   5.580 -0.2898 -0.7163  1.7380
 2341TIP3    H2 6988   5.537   2.764   5.620 -0.1899 -0.4213  0.9759
 2342TIP3   OH2 6989   2.364   3.576   4.585 -0.2335 -0.5050  0.2969
 2342TIP3    H1 6990   2.311   3.622   4.650  0.9969  0.7236  0.4771
 2342TIP3    H2 6991   2.366   3.636   4.510  2.6565  0.5288  1.0887
 2343TIP3   OH2 6992   1.958   3.810   2.008 -0.2218  0.0263 -0.3927
 2343TIP3    H1 6993   1.965   3.882   1.945  1.4879  0.9471  0.7385
 2343TIP3    H2 6994   1.887   3.837   2.067  0.4693  0.8825  0.0812
 2344TIP3   OH2 6995   1.936   3.028   2.366 -0.0208 -0.1713  0.3263
 2344TIP3    H1 6996   1.881   3.012   2.289 -0.6210 -1.0105  0.9114
 2344TIP3    H2 6997   1.924   3.122   2.384  0.2413  0.0691 -0.6694
 2345TIP3   OH2 6998   4.318   3.203   0.894 -0.0656 -0.1950 -0.2606
 2345TIP3    H1 6999   4.401   3.156   0.880 -0.1356 -1.5666  2.9906
 2345TIP3    H2 7000   4.262   3.175   0.821  1.0707 -2.4492 -0.3570
 2346TIP3   OH2 7001   0.723   3.039   5.790 -0.0595 -0.3130  0.4292
 2346TIP3    H1 7002   0.816   3.050   5.774  0.2523  0.2155  2.3563
 2346TIP3    H2 7003   0.717   3.016   5.883 -1.6984 -2.7879 -0.1875
 2347TIP3   OH2 7004   6.607   0.180   2.070 -0.0187 -0.1810  0.2590
 2347TIP3    H1 7005   6.616   0.113   2.137  1.2964  1.2983  1.6467
 2347TIP3    H2 7006   6.529   0.230   2.096 -0.6556 -0.7779 -0.4473
 2348TIP3   OH2 7007   3.885   6.213   4.677 -0.5012  0.1452 -0.1059
 2348TIP3    H1 7008   3.808   6.182   4.629 -0.7792  0.8428 -0.1062
 2348TIP3    H2 7009   3.928   6.273   4.617 -0.8004  0.9577  0.4811
 2349TIP3   OH2 7010   6.555   6.395   3.577  0.1982 -0.3991 -0.1522
 2349TIP3    H1 7011   6.599   6.479   3.589  0.9038 -0.8812  0.7861
 2349TIP3    H2 7012   6.607   6.350   3.510 -0.3652  0.0236 -0.8866
 2350TIP3   OH2 7013   6.947   5.992   3.015  0.0406  0.2819  0.3089
 2350TIP3    H1 7014   6.953   5.993   3.111  1.6312  0.3554  0.2370
 2350TIP3    H2 7015   6.966   6.082   2.989 -1.0441  0.4155 -0.0676
 2351TIP3   OH2 7016   6.141   6.257   3.727 -0.3163 -0.5309 -0.3936
 2351TIP3    H1 7017   6.235   6.240   3.716 -0.2127  0.6548 -1.7286
 2351TIP3    H2 7018   6.110   6.188   3.785  1.2704 -1.2922 -0.4101
 2352TIP3   OH2 7019   2.552   0.741   2.854 -0.2123 -0.2635  0.2196
 2352TIP3    H1 7020   2.640   0.704   2.862  0.6161  1.1814 -1.4884
 2352TIP3    H2 7021   2.499   0.668   2.824  0.5328 -1.0178  0.6874
 2353TIP3   OH2 7022   5.067   2.750   0.378  0.0357 -0.3745  0.0020
 2353TIP3    H1 7023   4.999   2.723   0.317  0.2285 -0.6297 -0.1011
 2353TIP3    H2 7024   5.108   2.826   0.337 -0.5239  0.0983  0.3036
 2354TIP3   OH2 7025   5.569   5.342   2.468  0.3194 -0.6162  0.2233
 2354TIP3    H1 7026   5.483   5.383   2.462  1.0336  1.1059  1.0299
 2354TIP3    H2 7027   5.570   5.300   2.554  0.5773  0.0738  0.5577
 2355TIP3   OH2 7028   5.537   5.329   2.753 -0.1366  0.3084  0.3535
 2355TIP3    H1 7029   5.563   5.279   2.830  0.8872 -1.7977 -1.2493
 2355TIP3    H2 7030   5.451   5.364   2.775 -0.1942 -0.8423  2.1790
 2356TIP3   OH2 7031   0.127   0.768   5.332 -0.2646 -0.0108  0.0353
 2356TIP3    H1 7032   0.161   0.691   5.287  0.5245  0.7645 -0.7307
 2356TIP3    H2 7033   0.036   0.746   5.352 -0.7110 -0.3129 -2.1344
 2357TIP3   OH2 7034   0.187   1.359   1.771 -0.6112  0.1601 -0.7981
 2357TIP3    H1 7035   0.128   1.425   1.733  0.7875  0.7782 -1.9783
 2357TIP3    H2 7036   0.273   1.380   1.735  0.5191 -0.2448  1.4863
 2358TIP3   OH2 7037   6.223   3.919   5.144  0.1698 -0.4172  0.2115
 2358TIP3    H1 7038   6.165   3.847   5.169  1.3506 -1.0933  1.1315
 2358TIP3    H2 7039   6.164   3.991   5.119 -1.0299 -1.4021  0.1455
 2359TIP3   OH2 7040   5.606   2.393   1.054 -0.1039  0.0328 -0.2018
 2359TIP3    H1 7041   5.661   2.447   1.111 -0.5195  1.0250 -0.7173
 2359TIP3    H2 7042   5.576   2.322   1.110  1.0570 -0.0788  0.2942
 2360TIP3   OH2 7043   7.092   3.388   4.108  0.5809 -0.2485  0.3741
 2360TIP3    H1 7044   7.007   3.418   4.078  0.4372  1.2414  2.0755
 2360TIP3    H2 7045   7.154   3.424   4.045  0.2104  1.8832  1.1312
 2361TIP3   OH2 7046   1.330   6.353   3.640  0.5851  0.4121  0.3436
 2361TIP3    H1 7047   1.280   6.372   3.561  0.3988 -0.2082  0.3090
 2361TIP3    H2 7048   1.343   6.439   3.681 -1.2103  0.5106  0.7758
 2362TIP3   OH2 7049   7.098   1.444   0.761  0.8355  0.5842 -0.4479
 2362TIP3    H1 7050   7.167   1.444   0.695  2.2370  5.8121  0.5605
 2362TIP3    H2 7051   7.142   1.424   0.843  0.3892  0.3554 -0.2567
 2363TIP3   OH2 7052   4.434   4.390   0.672 -0.4984 -0.7281 -0.0559
 2363TIP3    H1 7053   4.378   4.439   0.732 -0.9767 -0.6066 -0.5999
 2363TIP3    H2 7054   4.443   4.447   0.595 -0.4248 -1.1653 -0.3737
 2364TIP3   OH2 7055   1.731   0.602   2.408  0.2174 -0.4035 -0.2990
 2364TIP3    H1 7056   1.791   0.672   2.433 -0.6127  0.5082 -0.8299
 2364TIP3    H2 7057   1.746   0.534   2.474  1.0141  0.2653  0.2351
 2365TIP3   OH2 7058   3.570   6.067   0.294 -0.3047 -0.1767 -0.6120
 2365TIP3    H1 7059   3.658   6.058   0.330 -0.5398  1.0324  0.3235
 2365TIP3    H2 7060   3.564   5.999   0.227  0.7723 -1.3466  0.4362
 2366TIP3   OH2 7061   6.940   2.316   0.734 -0.3755  0.2459 -0.9018
 2366TIP3    H1 7062   6.861   2.307   0.787  0.5262  0.2709  0.5179
 2366TIP3    H2 7063   6.923   2.392   0.678 -2.2074 -1.0759 -2.2640
 2367TIP3   OH2 7064   5.433   0.414   4.939 -0.3842  0.2094 -0.5571
 2367TIP3    H1 7065   5.370   0.342   4.935  0.0853 -0.1577 -2.0180
 2367TIP3    H2 7066   5.422   0.461   4.857 -0.1291  1.3472  0.0343
 2368TIP3   OH2 7067   6.947   2.502   4.895 -0.9726 -0.0898 -0.7854
 2368TIP3    H1 7068   6.888   2.452   4.951 -1.8688  1.1128 -0.6208
 2368TIP3    H2 7069   6.940   2.592   4.927  1.8788 -0.0693  0.0146
 2369TIP3   OH2 7070   1.628   1.943   4.503  0.2651 -0.2706  0.3011
 2369TIP3    H1 7071   1.630   1.940   4.407  0.4921  3.0088  0.1179
 2369TIP3    H2 7072   1.719   1.931   4.529  0.9547  2.9035 -0.2267
 2370TIP3   OH2 7073   4.246   3.490   0.802  0.1654  0.3270  0.2730
 2370TIP3    H1 7074   4.242   3.454   0.713  0.2875  1.9243 -0.4052
 2370TIP3    H2 7075   4.320   3.550   0.800 -0.5505  1.2629  1.1128
 2371TIP3   OH2 7076   2.109   3.271   5.648 -0.0744  0.1042  0.5002
 2371TIP3    H1 7077   2.167   3.301   5.718 -0.5036  0.4605  0.7071
 2371TIP3    H2 7078   2.125   3.176   5.643  0.4076  0.1722  0.6582
 2372TIP3   OH2 7079   1.856   0.761   3.818 -0.7305 -0.2426  0.1046
 2372TIP3    H1 7080   1.892   0.850   3.819 -0.1738 -0.4631  0.4274
 2372TIP3    H2 7081   1.796   0.758   3.891  0.5942 -0.6531  1.2254
 2373TIP3   OH2 7082   6.847   2.572   2.172 -0.1628  0.1555  0.0032
 2373TIP3    H1 7083   6.848   2.555   2.266 -3.5841 -1.0378 -0.0288
 2373TIP3    H2 7084   6.784   2.643   2.161 -0.4443 -0.2800 -1.4224
 2374TIP3   OH2 7085   4.485   2.006   5.554 -0.5167  0.1786  0.3075
 2374TIP3    H1 7086   4.505   2.064   5.628 -1.6896  1.5825 -0.4345
 2374TIP3    H2 7087   4.401   2.036   5.522  0.3208  0.1270 -2.1148
 2375TIP3   OH2 7088   5.757   2.632   3.462  0.2814  0.6586 -0.3130
 2375TIP3    H1 7089   5.775   2.705   3.404  0.0407  0.1598 -1.0214
 2375TIP3    H2 7090   5.701   2.574   3.411 -0.5228  0.5560  0.6570
 2376TIP3   OH2 7091   4.622   2.706   3.965  0.2741  0.8493 -0.0386
 2376TIP3    H1 7092   4.696   2.691   4.023  0.2595  0.3347 -0.1450
 2376TIP3    H2 7093   4.549   2.658   4.005  0.8212 -1.5522 -1.6581
 2377TIP3   OH2 7094   3.003   5.361   0.432  0.4824  0.4485 -1.3888
 2377TIP3    H1 7095   2.907   5.352   0.433  0.5723 -0.5119 -1.2792
 2377TIP3    H2 7096   3.019   5.436   0.374 -0.4493  2.2069  0.4970
 2378TIP3   OH2 7097   2.876   3.362   0.773 -0.3343 -0.0981  0.0678
 2378TIP3    H1 7098   2.818   3.293   0.740  1.1175 -1.0574 -0.5488
 2378TIP3    H2 7099   2.860   3.363   0.868  1.4168 -3.1097  0.5196
 2379TIP3   OH2 7100   4.378   0.171   5.821 -0.0871  0.1179  0.3905
 2379TIP3    H1 7101   4.385   0.082   5.787 -0.9001 -0.2460  1.1525
 2379TIP3    H2 7102   4.294   0.203   5.789 -0.0842  0.3854  0.6416
 2380TIP3   OH2 7103   1.564   5.803   2.705 -0.1588  0.0471 -0.3977
 2380TIP3    H1 7104   1.469   5.812   2.715 -0.0417  0.8503  0.0667
 2380TIP3    H2 7105   1.592   5.758   2.785 -0.1728 -0.4653 -0.6716
 2381TIP3   OH2 7106   2.383   5.730   4.997  0.4963 -0.2301  0.5067
 2381TIP3    H1 7107   2.450   5.727   4.930  0.9297 -0.9399  0.9651
 2381TIP3    H2 7108   2.341   5.644   4.995 -1.1493  0.5508 -0.5075
 2382TIP3   OH2 7109   2.080   5.396   3.854  0.4243  0.6455 -0.3400
 2382TIP3    H1 7110   2.053   5.483   3.881 -1.3796 -0.2185  0.8516
 2382TIP3    H2 7111   2.174   5.392   3.875  0.1982  1.7679  1.0027
 2383TIP3   OH2 7112   3.252   1.900   1.749  0.1528  0.4256 -0.0469
 2383TIP3    H1 7113   3.181   1.965   1.753  0.1705  0.6827 -2.5704
 2383TIP3    H2 7114   3.321   1.937   1.804 -0.2944  1.9632 -0.4660
 2384TIP3   OH2 7115   0.461   1.061   1.055  0.1504  0.0538 -0.7950
 2384TIP3    H1 7116   0.429   0.975   1.085  0.3935 -0.3693 -1.7165
 2384TIP3    H2 7117   0.418   1.124   1.114 -0.5430 -0.6532 -0.5176
 2385TIP3   OH2 7118   2.454   2.789   2.091 -0.7520 -0.8181 -0.1329
 2385TIP3    H1 7119   2.454   2.694   2.101 -0.3178 -0.9852 -1.5344
 2385TIP3    H2 7120   2.422   2.805   2.002 -0.3917  0.3199 -0.0845
 2386TIP3   OH2 7121   5.841   0.064   3.665  0.2853  0.2154 -0.2264
 2386TIP3    H1 7122   5.903  -0.008   3.660  0.0909  0.1074 -1.3235
 2386TIP3    H2 7123   5.880   0.126   3.726  0.3295 -0.9273  0.9257
 2387TIP3   OH2 7124   4.077   3.897   2.433  0.2683 -0.1188  0.2193
 2387TIP3    H1 7125   4.081   3.965   2.500  2.6101  2.0063 -1.8453
 2387TIP3    H2 7126   4.007   3.925   2.374 -0.3124 -0.7822  0.5830
 2388TIP3   OH2 7127   6.223   1.638   1.222  0.1093  0.1071 -0.1140
 2388TIP3    H1 7128   6.128   1.625   1.217  0.0314  0.8468 -0.9477
 2388TIP3    H2 7129   6.259   1.550   1.226 -0.6594 -0.1671  1.7101
 2389TIP3   OH2 7130   2.091   5.757   5.499  0.0525 -0.7353 -0.1087
 2389TIP3    H1 7131   2.118   5.832   5.446  0.8547 -1.4187 -0.7071
 2389TIP3    H2 7132   1.995   5.760   5.498  0.0661  0.7405  0.5770
 2390TIP3   OH2 7133   2.622   1.541   0.175  0.3589 -0.2713 -0.0348
 2390TIP3    H1 7134   2.653   1.476   0.238 -0.7878 -1.0761 -0.2660
 2390TIP3    H2 7135   2.633   1.625   0.220  0.0695 -0.7887  1.0295
 2391TIP3   OH2 7136   1.147   3.824   5.832 -0.3301  0.0168  0.8829
 2391TIP3    H1 7137   1.167   3.881   5.906  0.8480 -1.5559  1.8563
 2391TIP3    H2 7138   1.229   3.779   5.813 -1.3652 -1.9248  0.6968
 2392TIP3   OH2 7139   5.962   6.766   3.047 -0.3720 -0.5877 -0.3258
 2392TIP3    H1 7140   5.941   6.692   2.990 -0.8212 -1.1834  0.5780
 2392TIP3    H2 7141   5.966   6.728   3.135 -0.8149  0.5022  0.1839
 2393TIP3   OH2 7142   4.704   6.584   1.382 -0.1592 -0.0784 -0.1864
 2393TIP3    H1 7143   4.730   6.658   1.436  0.4138 -0.6510  0.3508
 2393TIP3    H2 7144   4.779   6.567   1.325 -0.5379  0.1593 -0.7627
 2394TIP3   OH2 7145   6.909   3.244   4.525  0.3004 -0.8010 -0.1445
 2394TIP3    H1 7146   7.001   3.271   4.520 -0.0571  0.6744  0.7752
 2394TIP3    H2 7147   6.862   3.321   4.556 -1.2568 -1.5531 -0.4991
 2395TIP3   OH2 7148   6.747   6.498   2.589 -0.2428  0.2967 -0.7858
 2395TIP3    H1 7149   6.698   6.416   2.596  0.3840  0.0023  0.4503
 2395TIP3    H2 7150   6.682   6.566   2.602 -0.3502 -0.0977  1.0723
 2396TIP3   OH2 7151   4.519   5.808   0.663 -0.4047 -0.0905 -0.5096
 2396TIP3    H1 7152   4.610   5.787   0.639 -0.3719 -0.0149 -0.4534
 2396TIP3    H2 7153   4.498   5.886   0.612 -0.0874  0.5055  0.2490
 2397TIP3   OH2 7154   0.935   3.739   1.975 -0.3407  0.3744 -0.0836
 2397TIP3    H1 7155   0.979   3.750   2.060  0.0482 -1.6080  0.0217
 2397TIP3    H2 7156   0.882   3.818   1.965 -1.4985  0.0722  2.6919
 2398TIP3   OH2 7157   1.268   4.814   2.421 -0.1399 -0.0170 -0.1081
 2398TIP3    H1 7158   1.295   4.750   2.356 -0.8859 -0.5228  0.0588
 2398TIP3    H2 7159   1.175   4.830   2.402  0.1152  1.2701 -0.3510
 2399TIP3   OH2 7160   5.616   6.107   0.224 -0.0405  0.6198  0.1227
 2399TIP3    H1 7161   5.690   6.094   0.164 -2.1978 -0.1921 -2.5699
 2399TIP3    H2 7162   5.549   6.046   0.194 -2.2982  2.1484  1.6556
 2400TIP3   OH2 7163   3.327   5.529   5.078 -0.3341  0.3910  0.0065
 2400TIP3    H1 7164   3.236   5.557   5.075 -0.2348  0.6529 -0.8844
 2400TIP3    H2 7165   3.363   5.554   4.992  0.6234  0.4650  0.4164
 2401TIP3   OH2 7166   1.701   4.540   2.363 -0.2173  0.6822  0.6167
 2401TIP3    H1 7167   1.710   4.628   2.399 -0.9441  0.1933  2.0916
 2401TIP3    H2 7168   1.695   4.483   2.440 -0.8813 -0.5319 -0.2901
 2402TIP3   OH2 7169   3.813   4.002   5.839  0.5493  0.6462 -0.1114
 2402TIP3    H1 7170   3.848   4.084   5.874  0.3908  0.2544  1.0035
 2402TIP3    H2 7171   3.801   3.946   5.915  0.6886 -0.4409 -0.8570
 2403TIP3   OH2 7172   0.176   3.264   0.276 -0.1839 -0.1758  0.2626
 2403TIP3    H1 7173   0.157   3.234   0.365 -0.9207  1.0673  0.5375
 2403TIP3    H2 7174   0.237   3.337   0.287 -0.1385 -0.1241 -0.2767
 2404TIP3   OH2 7175   5.440   3.419   3.005  0.2510 -0.0379 -0.0131
 2404TIP3    H1 7176   5.480   3.420   2.918  1.6264  0.7487  0.6008
 2404TIP3    H2 7177   5.467   3.501   3.045  0.3060 -0.7352  1.4579
 2405TIP3   OH2 7178   2.432   6.625   1.671  0.1866  0.4650 -0.0162
 2405TIP3    H1 7179   2.409   6.604   1.581  0.3706 -1.1413  0.2650
 2405TIP3    H2 7180   2.507   6.684   1.665  0.6068 -0.1362 -0.9239
 2406TIP3   OH2 7181   3.639   0.456   4.850 -0.4554 -0.9427 -0.5790
 2406TIP3    H1 7182   3.660   0.375   4.897 -0.4947 -1.7245 -1.8774
 2406TIP3    H2 7183   3.724   0.498   4.835 -0.4755 -0.4749  0.5344
 2407TIP3   OH2 7184   3.404   2.271   4.135  0.4046 -0.4902 -0.3349
 2407TIP3    H1 7185   3.334   2.324   4.172 -0.2060  0.2258 -2.4079
 2407TIP3    H2 7186   3.361   2.191   4.106  1.0619 -1.5179  1.3401
 2408TIP3   OH2 7187   4.403   2.322   2.774 -0.2848 -0.3256  0.1864
 2408TIP3    H1 7188   4.424   2.337   2.682 -0.6982 -0.5789  0.0542
 2408TIP3    H2 7189   4.380   2.409   2.808 -2.5548 -0.5775 -0.5533
 2409TIP3   OH2 7190   0.639   6.218   3.174 -0.0109  0.2481  0.0260
 2409TIP3    H1 7191   0.697   6.152   3.137  0.3291  0.9495 -0.7246
 2409TIP3    H2 7192   0.552   6.196   3.139  0.1879  0.4817 -0.6263
 2410TIP3   OH2 7193   7.191   3.128   1.223  0.4758 -0.2507  0.6587
 2410TIP3    H1 7194   7.152   3.176   1.296 -0.4491 -0.6606  0.4511
 2410TIP3    H2 7195   7.272   3.092   1.258  1.9388  2.5356  0.4581
 2411TIP3   OH2 7196   0.437   2.183   0.033  0.3710  0.2425 -0.1565
 2411TIP3    H1 7197   0.492   2.120  -0.013 -1.8790 -1.3055 -0.8633
 2411TIP3    H2 7198   0.445   2.160   0.125 -1.1790 -1.7898 -0.4783
 2412TIP3   OH2 7199   3.752   4.096   3.255  0.2605 -0.5489 -0.4164
 2412TIP3    H1 7200   3.697   4.040   3.200  0.2818 -0.8839 -0.1006
 2412TIP3    H2 7201   3.820   4.037   3.288  0.3886 -0.2954 -0.2258
 2413TIP3   OH2 7202   1.453   0.419   0.165 -0.0164  0.0113 -0.6298
 2413TIP3    H1 7203   1.528   0.468   0.200 -0.3515 -0.4798  0.8213
 2413TIP3    H2 7204   1.434   0.353   0.231 -1.0995 -0.5391 -1.4559
 2414TIP3   OH2 7205   7.075   2.292   2.031  0.4061 -0.5603 -0.0426
 2414TIP3    H1 7206   7.016   2.312   1.958 -0.6091  2.0106  1.3477
 2414TIP3    H2 7207   7.016   2.274   2.105  1.3422  0.8058  1.0693
 2415TIP3   OH2 7208   2.001   1.547   0.869 -0.0275  0.3329 -0.6739
 2415TIP3    H1 7209   1.983   1.528   0.776 -1.5859 -0.1305 -0.3176
 2415TIP3    H2 7210   1.939   1.491   0.916 -0.7735  2.1340  0.5820
 2416TIP3   OH2 7211   1.254   5.542   3.134  0.0734 -0.2629  0.2234
 2416TIP3    H1 7212   1.314   5.468   3.137 -0.0950 -0.4320 -0.4044
 2416TIP3    H2 7213   1.280   5.590   3.055  0.1334  0.3027  0.5845
 2417TIP3   OH2 7214   2.259   2.761   0.766 -0.9978 -0.2120 -0.0400
 2417TIP3    H1 7215   2.170   2.781   0.793  0.1261  1.4040  3.0115
 2417TIP3    H2 7216   2.283   2.683   0.816 -1.4238 -2.2550 -2.8032
 2418TIP3   OH2 7217   1.214   4.679   4.099  0.3798 -0.1220  0.3871
 2418TIP3    H1 7218   1.267   4.690   4.020 -0.4165 -0.9338 -0.2798
 2418TIP3    H2 7219   1.165   4.598   4.084  0.5987 -0.5672  1.9412
 2419TIP3   OH2 7220   5.915   4.076   0.580  0.1856  0.0615 -0.2630
 2419TIP3    H1 7221   5.902   4.167   0.608 -1.0287  0.3039 -1.5404
 2419TIP3    H2 7222   6.008   4.060   0.594  0.1571  1.0387  1.2918
 2420TIP3   OH2 7223   0.700   0.850   4.723  0.1900 -0.1323  0.7771
 2420TIP3    H1 7224   0.635   0.915   4.749  1.4224  1.0932  0.9281
 2420TIP3    H2 7225   0.768   0.901   4.679  0.7059 -1.4708 -0.0107
 2421TIP3   OH2 7226   7.074   2.824   2.050  0.4800  0.3063  0.1274
 2421TIP3    H1 7227   7.041   2.850   2.136 -2.4804 -0.1060 -0.7717
 2421TIP3    H2 7228   7.103   2.733   2.062 -1.5953 -0.3699  0.3637
 2422TIP3   OH2 7229   5.540   5.951   4.983  0.6245  0.1242  0.1979
 2422TIP3    H1 7230   5.538   5.959   4.887  0.5612 -2.4230 -0.0803
 2422TIP3    H2 7231   5.511   5.861   5.000  0.6172  0.5304  2.6254
 2423TIP3   OH2 7232   5.503   6.275   3.165  0.6519 -0.6814 -0.4375
 2423TIP3    H1 7233   5.455   6.306   3.242 -1.1891 -1.1309 -1.3416
 2423TIP3    H2 7234   5.484   6.340   3.098 -0.5031 -1.9644 -1.4126
 2424TIP3   OH2 7235   1.560   2.761   5.810 -0.0599 -0.4116 -0.0412
 2424TIP3    H1 7236   1.609   2.779   5.890 -0.9444  1.2162  0.1684
 2424TIP3    H2 7237   1.469   2.759   5.838 -0.4726  1.2385 -1.1389
 2425TIP3   OH2 7238   1.737   6.402   3.621 -0.1630 -0.0296  0.5801
 2425TIP3    H1 7239   1.722   6.309   3.637 -1.7996 -0.1666 -1.4195
 2425TIP3    H2 7240   1.802   6.404   3.551 -0.0213  0.3551  0.7178
 2426TIP3   OH2 7241   0.544   2.801   2.246  0.8231 -0.4954  0.5607
 2426TIP3    H1 7242   0.468   2.772   2.195 -0.0099  0.0270  1.4494
 2426TIP3    H2 7243   0.592   2.721   2.265  0.8601 -0.7625 -0.5684
 2427TIP3   OH2 7244   0.132   5.208   3.634 -0.0088 -0.1335 -0.0532
 2427TIP3    H1 7245   0.148   5.114   3.635  0.8559  0.0048  0.8005
 2427TIP3    H2 7246   0.042   5.218   3.665  0.3408 -0.6137  1.1477
 2428TIP3   OH2 7247   3.843   2.257   4.153  0.4575  0.5606  0.1341
 2428TIP3    H1 7248   3.751   2.244   4.174  0.6043  0.7462  0.9575
 2428TIP3    H2 7249   3.855   2.352   4.151  0.0921  0.6186 -2.5988
 2429TIP3   OH2 7250   1.907   4.094   3.958  0.1676 -0.3880 -0.2656
 2429TIP3    H1 7251   1.948   4.074   3.874  0.1459 -1.4358 -0.0340
 2429TIP3    H2 7252   1.851   4.170   3.940  0.2701 -0.5205 -1.1605
 2430TIP3   OH2 7253   6.894   0.392   2.648  0.0717 -0.1737  0.0337
 2430TIP3    H1 7254   6.923   0.327   2.583 -1.4016 -1.3450  0.5055
 2430TIP3    H2 7255   6.834   0.344   2.705  0.6077  1.0731  1.7227
 2431TIP3   OH2 7256   6.848   0.657   3.736 -0.5320 -0.0680  0.2608
 2431TIP3    H1 7257   6.830   0.735   3.683  2.0310  0.1617 -0.4438
 2431TIP3    H2 7258   6.788   0.664   3.810 -2.4624  0.9449 -1.3007
 2432TIP3   OH2 7259   3.435   1.209   4.343 -0.3019 -0.2940 -0.7571
 2432TIP3    H1 7260   3.369   1.146   4.316 -0.5686  0.0739 -0.9646
 2432TIP3    H2 7261   3.423   1.218   4.438 -0.9900  0.2661 -0.8867
 2433TIP3   OH2 7262   6.295   2.068   0.037  0.0839  0.5153  0.1427
 2433TIP3    H1 7263   6.235   2.080   0.111  1.3427  1.1267  1.0912
 2433TIP3    H2 7264   6.244   2.017  -0.026 -1.2702  0.6026  1.1097
 2434TIP3   OH2 7265   4.680   2.127   0.196 -0.3401  0.2883  0.2479
 2434TIP3    H1 7266   4.701   2.093   0.109  1.7012  0.4024  0.6311
 2434TIP3    H2 7267   4.664   2.049   0.249 -0.2409  0.1421  0.0654
 2435TIP3   OH2 7268   2.598   3.596   5.406 -0.0098 -0.0588 -0.8397
 2435TIP3    H1 7269   2.543   3.526   5.441 -0.4000  0.6840  0.0890
 2435TIP3    H2 7270   2.558   3.618   5.322  0.3631 -1.2126 -1.3271
 2436TIP3   OH2 7271   3.777   3.019   1.953  0.2174 -0.1196  0.0918
 2436TIP3    H1 7272   3.860   3.055   1.984 -0.4029  0.0868  1.5856
 2436TIP3    H2 7273   3.788   3.012   1.858  1.9473 -0.1416  0.2634
 2437TIP3   OH2 7274   5.187   0.903   1.577  0.0565 -0.4793  0.1437
 2437TIP3    H1 7275   5.270   0.870   1.543 -0.6649 -0.6279 -1.5884
 2437TIP3    H2 7276   5.187   0.996   1.556  0.0726 -0.3384  0.7582
 2438TIP3   OH2 7277   4.204   1.604   2.248 -0.3687  0.1028  0.1035
 2438TIP3    H1 7278   4.197   1.589   2.343  0.6470 -0.3514  0.1126
 2438TIP3    H2 7279   4.162   1.527   2.209  2.0672 -1.3457  0.1810
 2439TIP3   OH2 7280   0.263   5.972   1.592 -0.2609  0.4430 -0.4431
 2439TIP3    H1 7281   0.305   5.929   1.517 -0.8704  0.5349 -0.8437
 2439TIP3    H2 7282   0.187   5.917   1.612  0.8345 -0.5493  1.2162
 2440TIP3   OH2 7283   2.511   4.513   4.644  0.3061 -0.7643 -0.3761
 2440TIP3    H1 7284   2.588   4.479   4.598  0.6269 -1.5132  0.6794
 2440TIP3    H2 7285   2.460   4.435   4.666  0.2036 -0.4330  0.6024
 2441TIP3   OH2 7286   3.951   5.587   3.306  0.2274  0.2141 -0.4413
 2441TIP3    H1 7287   3.881   5.521   3.308  0.0693  0.3867 -0.0141
 2441TIP3    H2 7288   3.982   5.590   3.397  0.9396 -0.0159 -0.6725
 2442TIP3   OH2 7289   5.245   3.712   0.338  0.3624 -0.4463  0.6242
 2442TIP3    H1 7290   5.194   3.688   0.415  1.3924  2.7851  2.5029
 2442TIP3    H2 7291   5.237   3.807   0.332  1.1930 -0.4606 -2.6878
 2443TIP3   OH2 7292   5.618   3.803   0.265  0.1703  0.3930  0.3574
 2443TIP3    H1 7293   5.573   3.721   0.287 -1.5611  1.4404  0.8654
 2443TIP3    H2 7294   5.675   3.820   0.341  0.2259 -0.1092  0.4345
 2444TIP3   OH2 7295   1.462   0.829   0.956 -0.0084 -0.0797 -0.3810
 2444TIP3    H1 7296   1.422   0.743   0.947 -0.8879  0.3738 -1.0560
 2444TIP3    H2 7297   1.403   0.888   0.908  1.6518  0.5747 -1.7630
 2445TIP3   OH2 7298   4.343   3.388   4.684 -0.0721  0.4243  0.2018
 2445TIP3    H1 7299   4.367   3.311   4.632 -1.1503 -0.5376  1.0689
 2445TIP3    H2 7300   4.415   3.399   4.747  0.2704  0.3724 -0.1782
 2446TIP3   OH2 7301   4.706   1.742   4.762 -0.1451 -0.2592 -0.5453
 2446TIP3    H1 7302   4.622   1.784   4.779  0.4609  0.7616  0.0074
 2446TIP3    H2 7303   4.703   1.661   4.814 -0.9289 -0.4090 -0.8268
 2447TIP3   OH2 7304   1.769   4.280   2.498 -0.3040  0.0071 -0.6046
 2447TIP3    H1 7305   1.861   4.280   2.522 -0.2111 -0.9921 -0.9138
 2447TIP3    H2 7306   1.730   4.349   2.552  0.5719  0.2774 -0.2978
 2448TIP3   OH2 7307   3.528   3.409   4.556 -0.2946 -0.3857 -0.3558
 2448TIP3    H1 7308   3.443   3.395   4.515 -1.7907 -0.1237  2.4192
 2448TIP3    H2 7309   3.568   3.322   4.557 -1.3908 -0.9048  0.0317
 2449TIP3   OH2 7310   2.065   3.441   4.702  0.1653  0.4798  0.5129
 2449TIP3    H1 7311   1.993   3.413   4.758 -1.2807  0.3893 -1.2892
 2449TIP3    H2 7312   2.130   3.371   4.708 -0.5600 -0.1582  0.9859
 2450TIP3   OH2 7313   5.312   5.785   4.477  0.3433 -0.2330  0.2751
 2450TIP3    H1 7314   5.324   5.808   4.385 -1.7997 -1.3950 -0.3602
 2450TIP3    H2 7315   5.252   5.711   4.475  1.3290 -1.1752  2.5676
 2451TIP3   OH2 7316   2.880   1.724   1.149 -0.1842  0.1853  0.0191
 2451TIP3    H1 7317   2.952   1.663   1.159 -0.2440  0.2469  0.9561
 2451TIP3    H2 7318   2.886   1.780   1.227 -2.5532 -1.2259  1.3510
 2452TIP3   OH2 7319   7.117   1.859   3.941  0.3295  0.0526  0.0453
 2452TIP3    H1 7320   7.115   1.771   3.978 -0.7779  0.4401  0.9512
 2452TIP3    H2 7321   7.163   1.912   4.007 -0.0302  0.3803  0.0351
 2453TIP3   OH2 7322   6.895   2.450   4.299  0.3721 -0.3156  0.1893
 2453TIP3    H1 7323   6.950   2.454   4.221 -0.7947  0.8447 -0.6108
 2453TIP3    H2 7324   6.808   2.432   4.266 -0.1739  0.3616  1.1971
 2454TIP3   OH2 7325   1.898   1.086   4.120  0.3714 -0.3400  0.2616
 2454TIP3    H1 7326   1.835   1.156   4.105 -0.5866 -1.3831 -0.8262
 2454TIP3    H2 7327   1.910   1.044   4.035  1.1224 -1.3301  0.8155
 2455TIP3   OH2 7328   0.231   3.172   3.723 -0.2057 -0.5986  0.2658
 2455TIP3    H1 7329   0.307   3.207   3.768  0.4650 -1.2912 -0.2960
 2455TIP3    H2 7330   0.264   3.096   3.676 -1.2114 -0.8068 -0.1333
 2456TIP3   OH2 7331   5.081   4.209   0.864  0.0988 -0.0504 -0.2333
 2456TIP3    H1 7332   5.061   4.297   0.833 -1.3449 -0.2951 -0.0762
 2456TIP3    H2 7333   5.130   4.222   0.945 -1.8155  0.6721  0.8866
 2457TIP3   OH2 7334   5.184   4.637   2.009  0.1569  0.2950  0.0570
 2457TIP3    H1 7335   5.137   4.646   2.092  0.1838  3.2863 -0.1682
 2457TIP3    H2 7336   5.241   4.713   2.005  1.0839 -0.4312 -2.1759
 2458TIP3   OH2 7337   2.065   3.116   4.128  0.2516  0.0273 -0.4201
 2458TIP3    H1 7338   1.973   3.137   4.149  0.7155  2.1548 -0.3301
 2458TIP3    H2 7339   2.088   3.047   4.191 -1.4327 -0.9956 -0.8484
 2459TIP3   OH2 7340   1.597   0.253   2.571 -0.4748 -0.4947 -0.6744
 2459TIP3    H1 7341   1.653   0.197   2.516  2.0207  1.7225 -0.5923
 2459TIP3    H2 7342   1.658   0.309   2.618 -2.7505  0.6573  1.1078
 2460TIP3   OH2 7343   2.670   5.792   4.281  0.1237 -0.3915  0.9676
 2460TIP3    H1 7344   2.695   5.701   4.264  1.5337  0.2114 -0.4373
 2460TIP3    H2 7345   2.634   5.823   4.198 -2.5340 -0.2769  2.0564
 2461TIP3   OH2 7346   0.513   5.668   5.546  0.0882 -0.1385  0.0820
 2461TIP3    H1 7347   0.470   5.678   5.631 -0.6656  0.1593 -0.3164
 2461TIP3    H2 7348   0.446   5.629   5.490 -0.3049  1.9429 -1.0256
 2462TIP3   OH2 7349   3.437   5.701   4.074 -0.9371  0.1699 -0.2751
 2462TIP3    H1 7350   3.449   5.777   4.017 -1.7948  0.7820  0.3279
 2462TIP3    H2 7351   3.370   5.728   4.136 -1.8072 -1.3392 -0.4999
 2463TIP3   OH2 7352   3.278   3.715   2.692 -0.0140  0.1337  0.1674
 2463TIP3    H1 7353   3.210   3.654   2.663  0.7735 -1.1583  0.9170
 2463TIP3    H2 7354   3.360   3.666   2.681  0.8263  1.6470 -0.7191
 2464TIP3   OH2 7355   4.894   1.746   5.000 -0.0403  0.2020 -0.0162
 2464TIP3    H1 7356   4.865   1.659   5.027 -1.2292  0.3551 -0.7551
 2464TIP3    H2 7357   4.835   1.806   5.045  1.6064  0.7469  1.5691
 2465TIP3   OH2 7358   5.928   3.124   2.095 -0.4347 -0.3416  0.3785
 2465TIP3    H1 7359   5.948   3.216   2.077 -2.1079  0.8253  3.7511
 2465TIP3    H2 7360   5.847   3.108   2.046  0.2543 -0.3065 -0.8202
 2466TIP3   OH2 7361   3.428   6.119   2.772  0.1709 -0.7993  0.0079
 2466TIP3    H1 7362   3.370   6.185   2.810  3.3171  1.6157  1.0662
 2466TIP3    H2 7363   3.467   6.076   2.847 -0.6224 -2.8727 -0.6904
 2467TIP3   OH2 7364   4.332   0.889   1.224  0.2754 -0.0637 -0.1280
 2467TIP3    H1 7365   4.313   0.956   1.290 -0.3201  0.7075 -1.0557
 2467TIP3    H2 7366   4.380   0.936   1.155  0.3718 -0.7195 -0.5215
 2468TIP3   OH2 7367   2.334   4.952   1.780 -0.0944  0.2977  0.6258
 2468TIP3    H1 7368   2.398   4.923   1.715 -0.3374 -3.5119  1.8535
 2468TIP3    H2 7369   2.382   5.011   1.837  1.7311 -0.7020  0.1958
 2469TIP3   OH2 7370   5.083   2.282   4.142  0.2006 -0.6615 -0.4928
 2469TIP3    H1 7371   5.023   2.208   4.143 -0.3919 -0.2037  0.8553
 2469TIP3    H2 7372   5.123   2.282   4.229 -1.2245  1.6823  0.2617
 2470TIP3   OH2 7373   2.409   2.361   4.254  0.0913 -0.1416  0.0668
 2470TIP3    H1 7374   2.388   2.319   4.337 -0.7618  0.0990 -0.0207
 2470TIP3    H2 7375   2.383   2.452   4.266  0.0934 -0.0751 -0.4185
 2471TIP3   OH2 7376   4.499   2.532   4.346  0.2980 -0.8224 -0.6117
 2471TIP3    H1 7377   4.483   2.548   4.254  0.2525  2.1334 -0.1777
 2471TIP3    H2 7378   4.422   2.482   4.376 -0.2129 -0.8443 -1.9238
 2472TIP3   OH2 7379   4.050   6.773   5.875 -0.4023  0.4058 -0.0517
 2472TIP3    H1 7380   4.105   6.829   5.929  0.3662 -1.3128  1.0428
 2472TIP3    H2 7381   4.112   6.727   5.818 -0.7846 -0.7761  0.4545
 2473TIP3   OH2 7382   1.418   6.707   5.533 -0.0104  0.1110  0.4055
 2473TIP3    H1 7383   1.355   6.724   5.604 -0.3408 -0.8090  0.3419
 2473TIP3    H2 7384   1.385   6.759   5.459 -0.5947 -0.2083  0.4315
 2474TIP3   OH2 7385   1.815   5.943   0.047 -0.4150  0.7250  0.2300
 2474TIP3    H1 7386   1.836   5.872   0.107  1.1811  0.5346 -0.5104
 2474TIP3    H2 7387   1.751   5.905  -0.014  0.7459 -0.2499 -0.4244
 2475TIP3   OH2 7388   0.582   4.144   3.556  0.0865  0.2061 -0.0042
 2475TIP3    H1 7389   0.581   4.077   3.489  1.3159  0.3967 -0.2308
 2475TIP3    H2 7390   0.635   4.108   3.627  0.0442  0.6039  0.2378
 2476TIP3   OH2 7391   6.698   2.657   3.928  0.5123 -0.0621  0.4173
 2476TIP3    H1 7392   6.612   2.634   3.892  0.3783 -2.2027  1.9123
 2476TIP3    H2 7393   6.688   2.747   3.959 -0.5599  0.4123 -1.1620
 2477TIP3   OH2 7394   0.272   6.408   1.014 -0.1757  0.2400 -0.2525
 2477TIP3    H1 7395   0.193   6.446   0.976  0.5348  0.2506 -1.8397
 2477TIP3    H2 7396   0.343   6.444   0.961  0.7831 -0.8050  0.2699
 2478TIP3   OH2 7397   5.548   2.454   3.374  0.0169  0.0502 -0.1027
 2478TIP3    H1 7398   5.491   2.450   3.297  0.8617  0.5877 -0.7865
 2478TIP3    H2 7399   5.503   2.404   3.441 -0.4882 -0.8940 -1.1263
 2479TIP3   OH2 7400   3.206   5.950   5.438  0.0282  0.4645  0.0582
 2479TIP3    H1 7401   3.239   5.866   5.468  0.6657  0.3204 -1.0069
 2479TIP3    H2 7402   3.221   5.950   5.343  0.8252  2.0953  0.1372
 2480TIP3   OH2 7403   1.460   4.623   0.282 -0.7963 -0.0584  0.2321
 2480TIP3    H1 7404   1.394   4.634   0.213 -0.3972 -1.9974 -0.5315
 2480TIP3    H2 7405   1.430   4.547   0.332 -1.1270  1.3858  2.3144
 2481TIP3   OH2 7406   4.874   0.988   0.847  0.5216  0.1171 -0.2022
 2481TIP3    H1 7407   4.892   0.907   0.800  3.5751  0.2711  0.4751
 2481TIP3    H2 7408   4.779   0.991   0.856  0.2808 -3.1417 -0.6333
 2482TIP3   OH2 7409   5.593   2.438   1.745 -0.3737  0.2028 -0.3033
 2482TIP3    H1 7410   5.534   2.416   1.673 -0.3718 -2.9000  0.4921
 2482TIP3    H2 7411   5.675   2.392   1.724 -0.1133 -0.0993  1.2584
 2483TIP3   OH2 7412   1.332   0.777   2.005  0.6862  1.1411 -0.7064
 2483TIP3    H1 7413   1.311   0.801   2.095  0.3986  1.6423 -0.9066
 2483TIP3    H2 7414   1.314   0.855   1.954 -1.5885  0.1268 -1.5911
 2484TIP3   OH2 7415   5.531   6.108   2.735  0.5074  0.1532  0.2305
 2484TIP3    H1 7416   5.534   6.203   2.724 -0.6986  0.1625 -0.1427
 2484TIP3    H2 7417   5.606   6.076   2.685  1.1679  0.9294  0.7054
 2485TIP3   OH2 7418   1.949   5.185   3.665  0.0297  0.0003  0.0407
 2485TIP3    H1 7419   1.874   5.138   3.703  0.0693 -0.4518 -0.4221
 2485TIP3    H2 7420   2.003   5.208   3.740  0.3634 -1.3278  0.2385
 2486TIP3   OH2 7421   7.164   0.847   4.102  0.4853 -0.1883  0.0169
 2486TIP3    H1 7422   7.204   0.778   4.049  0.6709  0.1014 -0.2235
 2486TIP3    H2 7423   7.108   0.801   4.164 -0.6965 -0.4834 -1.2261
 2487TIP3   OH2 7424   3.525   3.061   1.780  0.1357 -0.3909 -0.4902
 2487TIP3    H1 7425   3.558   3.148   1.759 -2.0161  0.3010 -1.1906
 2487TIP3    H2 7426   3.513   3.019   1.695 -1.1589 -0.4493 -0.2943
 2488TIP3   OH2 7427   5.105   1.074   3.075 -0.2543 -0.0500  0.3552
 2488TIP3    H1 7428   5.022   1.096   3.033 -0.3656 -1.8726 -0.4658
 2488TIP3    H2 7429   5.106   1.127   3.155 -1.8983  0.4838  0.0636
 2489TIP3   OH2 7430   3.366   2.684   3.299 -0.2305 -0.0967  0.2461
 2489TIP3    H1 7431   3.329   2.736   3.227 -0.1900 -0.8545 -0.3332
 2489TIP3    H2 7432   3.443   2.734   3.328 -0.2972  0.2556 -0.1776
 2490TIP3   OH2 7433   4.851   5.244   3.168  0.4341  0.1938 -0.3713
 2490TIP3    H1 7434   4.761   5.268   3.187  0.5168  1.4553 -1.3903
 2490TIP3    H2 7435   4.903   5.320   3.197  1.1549 -0.4459  0.0601
 2491TIP3   OH2 7436   2.038   1.310   3.739 -0.1705 -0.6461  0.9406
 2491TIP3    H1 7437   2.127   1.302   3.773 -0.4787  0.0813  1.9687
 2491TIP3    H2 7438   2.038   1.257   3.660  0.9827 -1.2201  1.2995
 2492TIP3   OH2 7439   3.799   4.753   1.606 -0.8469 -0.4003  0.0868
 2492TIP3    H1 7440   3.830   4.780   1.692 -0.5817 -1.5469  0.3652
 2492TIP3    H2 7441   3.754   4.670   1.622 -1.5012 -0.2232 -0.7627
 2493TIP3   OH2 7442   1.455   0.349   5.343 -0.3447 -0.6122  0.0056
 2493TIP3    H1 7443   1.363   0.334   5.321 -0.2635 -2.3055  0.6180
 2493TIP3    H2 7444   1.504   0.299   5.277  0.1625  0.6149 -0.5658
 2494TIP3   OH2 7445   0.452   4.370   3.627  0.0748 -0.1646 -0.1440
 2494TIP3    H1 7446   0.516   4.397   3.693  1.0548  1.0535 -1.5522
 2494TIP3    H2 7447   0.486   4.287   3.594 -0.6285 -0.9887  1.1043
 2495TIP3   OH2 7448   1.320   1.793   5.736 -0.1966  0.4280  0.2390
 2495TIP3    H1 7449   1.248   1.798   5.673 -1.1956  1.1017  1.4022
 2495TIP3    H2 7450   1.342   1.700   5.741 -1.5608  0.1074  0.4934
 2496TIP3   OH2 7451   1.996   5.661   0.619  0.0415  0.2100 -0.1381
 2496TIP3    H1 7452   1.940   5.712   0.560  0.5990  1.0956  0.0787
 2496TIP3    H2 7453   1.947   5.579   0.633 -0.8575  0.6599 -0.5220
 2497TIP3   OH2 7454   2.463   0.399   2.156  0.2430  0.2605  0.0182
 2497TIP3    H1 7455   2.545   0.445   2.140 -0.3070  0.6207 -2.0854
 2497TIP3    H2 7456   2.489   0.309   2.175  1.1168  0.2247 -1.2619
 2498TIP3   OH2 7457   5.582   5.038   4.721  0.4909 -0.1219 -0.1987
 2498TIP3    H1 7458   5.549   4.959   4.765 -2.0544  0.8150 -0.2980
 2498TIP3    H2 7459   5.580   5.105   4.789  1.4699  0.1568 -0.4378
 2499TIP3   OH2 7460   6.173   6.072   2.038  0.2192  0.2313  0.3320
 2499TIP3    H1 7461   6.183   6.090   1.944  0.4698  0.7956  0.4629
 2499TIP3    H2 7462   6.224   5.992   2.052  1.0416  0.7155  0.1765
 2500TIP3   OH2 7463   6.432   2.499   3.837  0.5548 -0.0066 -0.1665
 2500TIP3    H1 7464   6.359   2.496   3.899  0.9734 -1.2185  0.2878
 2500TIP3    H2 7465   6.431   2.589   3.803  0.1521  0.6097  1.3916
 2501TIP3   OH2 7466   0.748   2.667   2.023 -0.3153 -0.1085 -0.5808
 2501TIP3    H1 7467   0.765   2.578   1.994 -0.6108 -0.3926  0.0899
 2501TIP3    H2 7468   0.821   2.688   2.081 -1.3406 -0.7495  1.0321
 2502TIP3   OH2 7469   6.361   6.461   1.875  0.0338  0.2099 -0.2158
 2502TIP3    H1 7470   6.398   6.415   1.951 -0.2562 -1.5403 -1.0716
 2502TIP3    H2 7471   6.376   6.553   1.893  0.1336 -0.1669  1.8826
 2503TIP3   OH2 7472   3.109   1.287   0.005 -0.0382 -0.1511  0.0595
 2503TIP3    H1 7473   3.203   1.267   0.007  0.4626  1.7979 -0.9342
 2503TIP3    H2 7474   3.067   1.209   0.040  1.7705 -2.1425 -1.8687
 2504TIP3   OH2 7475   4.812   3.311   2.877  0.1587  0.0739  0.6228
 2504TIP3    H1 7476   4.790   3.368   2.804  3.2361  0.6322 -0.0070
 2504TIP3    H2 7477   4.833   3.226   2.837  0.0705 -0.1627  1.0629
 2505TIP3   OH2 7478   0.874   5.903   2.173 -0.2667 -0.4764 -0.6070
 2505TIP3    H1 7479   0.870   5.865   2.085 -1.1802 -1.0326 -0.3333
 2505TIP3    H2 7480   0.823   5.843   2.228  0.1368 -0.0369  0.2718
 2506TIP3   OH2 7481   7.013   2.276   3.038 -0.4008 -0.3958  0.9866
 2506TIP3    H1 7482   7.051   2.225   2.966  0.4623  1.2973  0.2072
 2506TIP3    H2 7483   7.020   2.217   3.114  0.1225 -1.6225  0.0364
 2507TIP3   OH2 7484   6.376   0.706   3.479  0.2863  0.5180 -0.0915
 2507TIP3    H1 7485   6.299   0.667   3.437  1.0542  0.0915 -1.1518
 2507TIP3    H2 7486   6.446   0.642   3.465  1.0979  1.3855 -0.1133
 2508TIP3   OH2 7487   3.964   0.652   0.455 -0.3247 -0.3800  0.4363
 2508TIP3    H1 7488   3.933   0.731   0.499 -1.8429 -0.3380 -0.6263
 2508TIP3    H2 7489   4.009   0.685   0.377 -0.2923 -0.5378  0.3891
 2509TIP3   OH2 7490   7.237   4.627   1.524 -0.7737 -0.5027  0.0981
 2509TIP3    H1 7491   7.209   4.709   1.484 -0.5134  0.1380  1.1717
 2509TIP3    H2 7492   7.162   4.599   1.576  0.1130  0.6661  2.1351
 2510TIP3   OH2 7493   1.697   0.556   0.660  0.0309  1.0183 -0.6898
 2510TIP3    H1 7494   1.701   0.650   0.677  1.9286  0.7833  0.4109
 2510TIP3    H2 7495   1.621   0.526   0.710  1.1121  1.5515  1.3864
 2511TIP3   OH2 7496   6.916   3.628   1.752  0.3518  0.3939 -0.3828
 2511TIP3    H1 7497   6.989   3.606   1.811  0.9289  2.0234 -0.4451
 2511TIP3    H2 7498   6.953   3.621   1.664  0.3631  0.9486 -0.4254
 2512TIP3   OH2 7499   2.956   5.015   1.563  0.3755 -0.9062  0.1660
 2512TIP3    H1 7500   3.039   5.009   1.515  0.5819  1.0348  0.1949
 2512TIP3    H2 7501   2.979   5.058   1.645 -0.5532 -0.9869  0.4758
 2513TIP3   OH2 7502   0.575   2.324   1.243 -0.2388 -0.5326  0.2259
 2513TIP3    H1 7503   0.599   2.284   1.159  0.4846 -2.3613  1.2425
 2513TIP3    H2 7504   0.486   2.292   1.260 -1.2178  1.4893 -0.7512
 2514TIP3   OH2 7505   4.185   2.865   3.928  0.3171  0.7045  0.2706
 2514TIP3    H1 7506   4.250   2.914   3.978  0.3114 -0.3157  1.3267
 2514TIP3    H2 7507   4.157   2.925   3.859 -0.4627  2.5865  2.1356
 2515TIP3   OH2 7508   6.787   3.139   1.921 -0.0833  0.5781 -0.2444
 2515TIP3    H1 7509   6.723   3.111   1.856  1.1358  0.9419 -1.6735
 2515TIP3    H2 7510   6.787   3.235   1.915 -0.7370  0.6823  1.1056
 2516TIP3   OH2 7511   6.995   5.102   0.276  0.0149  0.8695 -0.5244
 2516TIP3    H1 7512   6.925   5.160   0.306 -1.3090 -0.7016 -0.4245
 2516TIP3    H2 7513   6.997   5.114   0.181  0.1739  1.5241 -0.4402
 2517TIP3   OH2 7514   6.338   0.680   1.881  0.7995  0.6649  0.1477
 2517TIP3    H1 7515   6.319   0.625   1.805  1.5671 -0.7696  0.9603
 2517TIP3    H2 7516   6.288   0.760   1.865 -0.7714 -0.4502 -0.8094
 2518TIP3   OH2 7517   1.452   2.748   4.889 -0.1448 -0.5357  0.6641
 2518TIP3    H1 7518   1.408   2.815   4.941  0.4292 -0.2706  0.8189
 2518TIP3    H2 7519   1.529   2.724   4.941  0.0085 -0.8357  0.3041
 2519TIP3   OH2 7520   0.844   2.424   0.270 -0.3889  0.1658  1.1547
 2519TIP3    H1 7521   0.784   2.488   0.231 -0.3561 -1.0041 -0.9364
 2519TIP3    H2 7522   0.788   2.366   0.320 -1.0779 -0.8200 -0.6521
 2520TIP3   OH2 7523   4.229   4.749   5.119 -0.0131 -0.9340  0.8174
 2520TIP3    H1 7524   4.317   4.771   5.150  0.2217 -0.7176  0.0152
 2520TIP3    H2 7525   4.226   4.783   5.030 -1.2081 -0.1883  1.1170
 2521TIP3   OH2 7526   5.904   4.825   2.178 -0.0719  0.2627  0.1928
 2521TIP3    H1 7527   5.820   4.788   2.151 -1.0612  1.8295  0.9552
 2521TIP3    H2 7528   5.965   4.750   2.177 -1.2475 -0.7405 -1.1877
 2522TIP3   OH2 7529   1.547   6.127   2.672  0.1340 -0.4617  0.4579
 2522TIP3    H1 7530   1.523   6.121   2.764  1.3686 -3.0178  0.6934
 2522TIP3    H2 7531   1.549   6.036   2.642  3.0042  0.0337 -1.1901
 2523TIP3   OH2 7532   6.365   0.512   2.711  0.3184 -0.1978 -0.0734
 2523TIP3    H1 7533   6.299   0.467   2.658 -0.8964  0.4121  0.8812
 2523TIP3    H2 7534   6.346   0.605   2.698  0.1696 -0.0330  1.1990
 2524TIP3   OH2 7535   4.048   2.139   0.798  0.3387 -0.4944 -0.0666
 2524TIP3    H1 7536   4.026   2.051   0.828 -0.0539 -0.4841 -0.3191
 2524TIP3    H2 7537   4.061   2.189   0.879  2.4096 -1.2170  0.1160
 2525TIP3   OH2 7538   1.161   1.473   3.938  0.0141  0.1252  0.0005
 2525TIP3    H1 7539   1.211   1.543   3.897  1.4533 -2.2597 -2.6493
 2525TIP3    H2 7540   1.185   1.477   4.031  1.8850  1.6385 -0.4887
 2526TIP3   OH2 7541   4.712   4.674   2.059  0.1549 -0.0000 -0.0987
 2526TIP3    H1 7542   4.785   4.702   2.114 -0.7249 -0.0530  1.1477
 2526TIP3    H2 7543   4.705   4.742   1.992 -0.6385  1.7185  1.6368
 2527TIP3   OH2 7544   1.509   6.164   0.070  0.2281  0.1145 -0.3135
 2527TIP3    H1 7545   1.450   6.227   0.112  0.0317 -0.0482 -0.3433
 2527TIP3    H2 7546   1.564   6.217   0.013  0.4006  0.3201  0.0432
 2528TIP3   OH2 7547   1.202   1.510   1.463  0.0196 -0.0671 -0.2307
 2528TIP3    H1 7548   1.169   1.484   1.377 -0.2986  0.0119 -0.1356
 2528TIP3    H2 7549   1.243   1.595   1.449  1.8983 -1.0035 -0.7339
 2529TIP3   OH2 7550   5.376   3.401   2.476  0.2952 -0.6161 -0.6269
 2529TIP3    H1 7551   5.427   3.476   2.446 -1.2774  0.7941  0.1009
 2529TIP3    H2 7552   5.383   3.404   2.572 -2.3681  0.5840 -0.3893
 2530TIP3   OH2 7553   0.204   3.780   2.078  0.1214 -0.5814  0.1452
 2530TIP3    H1 7554   0.277   3.842   2.083 -0.2617 -0.1196 -0.0138
 2530TIP3    H2 7555   0.242   3.697   2.107 -0.0207  0.2736  3.0627
 2531TIP3   OH2 7556   4.787   5.785   4.585  0.3830 -0.1744  0.0098
 2531TIP3    H1 7557   4.838   5.821   4.513 -1.0600  1.4535 -0.2753
 2531TIP3    H2 7558   4.808   5.841   4.660 -1.0957  0.6957 -0.1758
 2532TIP3   OH2 7559   5.933   6.301   4.076  0.2784 -0.0176  0.3060
 2532TIP3    H1 7560   5.973   6.368   4.020  1.0768 -0.0573  0.8121
 2532TIP3    H2 7561   5.897   6.236   4.015  0.3389  0.3935 -0.1685
 2533TIP3   OH2 7562   3.204   0.059   4.798 -0.3762 -0.1058 -0.0606
 2533TIP3    H1 7563   3.179   0.120   4.867  1.5694  0.0289  0.6162
 2533TIP3    H2 7564   3.123   0.039   4.752 -1.1932  2.4441  0.1150
 2534TIP3   OH2 7565   5.064   0.607   1.920  0.0838  0.3702 -0.3018
 2534TIP3    H1 7566   4.994   0.638   1.977  0.5878  0.4753  0.2683
 2534TIP3    H2 7567   5.019   0.564   1.847 -0.5601 -0.7980  0.7504
 2535TIP3   OH2 7568   4.052   5.660   4.394  0.2119  0.0308  0.0459
 2535TIP3    H1 7569   4.116   5.634   4.460  0.6569 -0.5586 -0.6042
 2535TIP3    H2 7570   4.017   5.577   4.359 -1.0309  0.3348  0.4935
 2536TIP3   OH2 7571   6.994   0.694   3.129 -0.4507  0.2512 -1.0112
 2536TIP3    H1 7572   6.979   0.788   3.129  1.6459  0.6350 -0.7193
 2536TIP3    H2 7573   6.950   0.663   3.208 -1.4164  0.9121 -1.2677
 2537TIP3   OH2 7574   7.084   3.521   2.626  0.1402  0.0308  0.5711
 2537TIP3    H1 7575   7.006   3.571   2.652  0.2105  1.1008 -1.1116
 2537TIP3    H2 7576   7.073   3.506   2.532  1.7645 -0.1801  0.3823
 2538TIP3   OH2 7577   3.310   1.064   0.392  0.9706  0.1968 -0.1702
 2538TIP3    H1 7578   3.364   1.117   0.452  1.3098  1.3409 -1.4247
 2538TIP3    H2 7579   3.312   1.113   0.310 -3.3734  1.2209  0.0912
 2539TIP3   OH2 7580   2.332   4.572   1.895 -0.6249 -0.3700 -1.0159
 2539TIP3    H1 7581   2.423   4.586   1.921 -0.8610  1.9303 -1.1938
 2539TIP3    H2 7582   2.337   4.550   1.802 -0.1685 -2.2057 -0.5851
 2540TIP3   OH2 7583   1.914   4.539   5.308 -0.5869  0.3050 -0.0958
 2540TIP3    H1 7584   1.945   4.464   5.257 -1.2260  0.3797 -0.6064
 2540TIP3    H2 7585   1.930   4.514   5.399  0.6339  0.2025 -0.3278
 2541TIP3   OH2 7586   3.099   4.566   4.611 -0.1500  0.3500  0.1558
 2541TIP3    H1 7587   3.075   4.645   4.659  1.5236  0.8485  0.2493
 2541TIP3    H2 7588   3.088   4.495   4.675 -1.6551  0.4855  0.0716
 2542TIP3   OH2 7589   2.159   4.867   3.401 -0.7790 -0.4940  0.3414
 2542TIP3    H1 7590   2.142   4.790   3.454 -0.6888 -1.6874 -1.2798
 2542TIP3    H2 7591   2.174   4.833   3.312 -0.2124  1.3368 -0.3295
 2543TIP3   OH2 7592   3.831   3.355   3.974  0.0334 -0.3610 -0.5172
 2543TIP3    H1 7593   3.894   3.393   4.034 -1.2559 -2.0603  2.0951
 2543TIP3    H2 7594   3.749   3.401   3.993 -0.8119 -2.1744  0.4189
 2544TIP3   OH2 7595   0.064   3.092   3.331 -0.4174 -0.1748  0.4971
 2544TIP3    H1 7596  -0.003   3.049   3.384  1.1429 -0.3184  2.5012
 2544TIP3    H2 7597   0.133   3.027   3.322  0.9197  1.0358  1.4623
 2545TIP3   OH2 7598   0.596   6.046   3.654 -0.0071  0.1204  0.5267
 2545TIP3    H1 7599   0.521   5.990   3.672  0.0411  0.4312  1.7837
 2545TIP3    H2 7600   0.644   6.001   3.584 -1.1164 -0.2983  0.0136
 2546TIP3   OH2 7601   2.321   4.998   5.549  0.2024 -0.0433 -0.6286
 2546TIP3    H1 7602   2.414   5.014   5.534  0.4428 -1.5660 -0.8902
 2546TIP3    H2 7603   2.315   4.980   5.642  0.1363  0.1648 -0.5904
 2547TIP3   OH2 7604   5.438   3.209   2.103  0.6653 -0.2294 -0.0148
 2547TIP3    H1 7605   5.465   3.279   2.045 -0.1237 -0.0981 -0.2385
 2547TIP3    H2 7606   5.349   3.233   2.130 -0.1206 -1.7284 -1.0654
 2548TIP3   OH2 7607   1.573   2.486   5.610  0.1606  0.0022 -0.4022
 2548TIP3    H1 7608   1.609   2.541   5.680 -1.2299 -0.3862  0.6715
 2548TIP3    H2 7609   1.608   2.523   5.530  2.2766  0.1195  0.5127
 2549TIP3   OH2 7610   6.507   4.815   4.780  0.3380  0.0192 -0.2590
 2549TIP3    H1 7611   6.556   4.750   4.831 -1.2344 -1.8891 -1.0449
 2549TIP3    H2 7612   6.572   4.882   4.758  1.9861 -1.1458  0.7906
 2550TIP3   OH2 7613   3.738   6.418   3.556 -0.3962 -0.5228 -0.2372
 2550TIP3    H1 7614   3.828   6.448   3.562 -0.8298  0.7946  0.0636
 2550TIP3    H2 7615   3.706   6.455   3.473 -1.0051  0.0589  0.2447
 2551TIP3   OH2 7616   4.726   0.575   5.146  0.2733 -0.2522  0.0830
 2551TIP3    H1 7617   4.756   0.487   5.168 -0.2491 -0.4113  0.1689
 2551TIP3    H2 7618   4.703   0.614   5.230 -1.4185 -0.7472 -0.1259
 2552TIP3   OH2 7619   0.755   3.668   0.126 -0.1920 -0.4566 -0.5884
 2552TIP3    H1 7620   0.796   3.581   0.121 -0.6107 -0.8540  1.8480
 2552TIP3    H2 7621   0.671   3.653   0.168 -0.2388  1.1452 -0.0524
 2553TIP3   OH2 7622   3.824   6.378   4.041  0.0146  0.1849  0.5707
 2553TIP3    H1 7623   3.882   6.328   4.099 -0.0300  0.2213  0.6469
 2553TIP3    H2 7624   3.742   6.329   4.043  0.3726 -0.4920 -0.4058
 2554TIP3   OH2 7625   4.182   4.256   4.702 -0.3000 -0.2220 -0.4303
 2554TIP3    H1 7626   4.225   4.319   4.646 -1.2015  2.1307  1.3619
 2554TIP3    H2 7627   4.230   4.260   4.785 -1.2448 -0.8374  0.1729
 2555TIP3   OH2 7628   1.159   6.118   3.141 -0.1393 -0.3955  0.0307
 2555TIP3    H1 7629   1.101   6.044   3.123  0.7198 -1.7967  2.6323
 2555TIP3    H2 7630   1.242   6.094   3.099 -1.0524  1.3263 -3.1390
 2556TIP3   OH2 7631   6.543   0.234   4.182  0.0599  0.5341  0.5416
 2556TIP3    H1 7632   6.608   0.166   4.170  0.6423  1.2524 -0.5762
 2556TIP3    H2 7633   6.549   0.257   4.274 -0.7839 -1.5107  1.1638
 2557TIP3   OH2 7634   2.034   0.919   1.911 -0.2255 -0.2894 -0.0708
 2557TIP3    H1 7635   2.119   0.959   1.890  0.2335 -1.2349 -0.0543
 2557TIP3    H2 7636   2.026   0.846   1.849 -1.9678  0.9850 -1.4725
 2558TIP3   OH2 7637   5.507   4.496   1.179  0.2528 -0.1596 -0.2050
 2558TIP3    H1 7638   5.568   4.446   1.233 -1.3983 -2.5129 -0.3728
 2558TIP3    H2 7639   5.432   4.438   1.168 -2.0310  2.5645 -0.0714
 2559TIP3   OH2 7640   1.668   2.481   2.770 -0.3211  0.1785 -0.1451
 2559TIP3    H1 7641   1.610   2.408   2.747  0.8975 -0.3260 -1.8653
 2559TIP3    H2 7642   1.747   2.439   2.803 -0.2656  0.8007  0.5401
 2560TIP3   OH2 7643   4.413   3.185   5.011 -0.6280  0.6505 -0.2081
 2560TIP3    H1 7644   4.495   3.148   5.045 -0.7322 -0.4036 -1.0610
 2560TIP3    H2 7645   4.385   3.246   5.079 -1.3866 -2.1476  2.2137
 2561TIP3   OH2 7646   6.949   1.881   3.717 -0.0214 -0.2391  0.1096
 2561TIP3    H1 7647   7.008   1.893   3.792 -0.2608 -0.4647  0.3337
 2561TIP3    H2 7648   6.894   1.959   3.717  0.2586 -0.0405 -0.0833
 2562TIP3   OH2 7649   4.567   1.093   4.927  0.2111 -0.0998  0.0554
 2562TIP3    H1 7650   4.501   1.147   4.970 -0.4879  0.6615 -1.8928
 2562TIP3    H2 7651   4.552   1.005   4.961 -0.9715  0.2988  0.5890
 2563TIP3   OH2 7652   2.071   1.234   5.885  0.0743 -0.2198 -0.7068
 2563TIP3    H1 7653   2.069   1.245   5.790  2.6284  1.0181 -0.7151
 2563TIP3    H2 7654   2.044   1.319   5.920 -0.8202 -0.6577 -0.3155
 2564TIP3   OH2 7655   1.997   1.618   0.023 -0.1880  0.4135 -0.0084
 2564TIP3    H1 7656   1.901   1.615   0.022 -0.3063 -0.4847  3.2588
 2564TIP3    H2 7657   2.024   1.549  -0.038 -1.6362 -0.1129 -0.0859
 2565TIP3   OH2 7658   4.901   5.743   3.762 -0.2599 -0.6034 -0.3319
 2565TIP3    H1 7659   4.915   5.799   3.686 -0.9641 -0.5157 -0.4065
 2565TIP3    H2 7660   4.973   5.764   3.821 -1.0375  1.1373  0.0806
 2566TIP3   OH2 7661   5.341   6.749   5.557  0.0487 -0.7181  0.6628
 2566TIP3    H1 7662   5.289   6.714   5.630  2.1997 -3.4511  1.0633
 2566TIP3    H2 7663   5.356   6.673   5.500  0.2309  0.8787 -1.5527
 2567TIP3   OH2 7664   0.332   3.781   4.027  0.3069  0.5404  0.7115
 2567TIP3    H1 7665   0.420   3.748   4.044  0.2722  0.2682  0.3740
 2567TIP3    H2 7666   0.328   3.791   3.931  0.1019  0.9174  0.7559
 2568TIP3   OH2 7667   5.880   0.372   3.117  0.1964  0.5460 -0.0669
 2568TIP3    H1 7668   5.892   0.463   3.142 -1.5792  1.5543 -2.5030
 2568TIP3    H2 7669   5.846   0.375   3.027  1.2295 -2.5683 -0.7122
 2569TIP3   OH2 7670   3.608   1.652   1.959 -0.3573  0.7335 -0.2037
 2569TIP3    H1 7671   3.536   1.640   2.021 -0.4945  1.5150 -0.1953
 2569TIP3    H2 7672   3.664   1.718   2.000  0.7469 -0.3587  0.1075
 2570TIP3   OH2 7673   6.610   0.750   5.478  0.7533 -0.3560 -0.0337
 2570TIP3    H1 7674   6.620   0.672   5.424  1.4995 -0.7890  0.7160
 2570TIP3    H2 7675   6.665   0.816   5.436  0.0849 -0.2077 -0.6947
 2571TIP3   OH2 7676   6.978   4.675   4.167  0.0712 -0.0146 -0.0609
 2571TIP3    H1 7677   7.002   4.666   4.259  0.4133  0.3033 -0.1151
 2571TIP3    H2 7678   6.984   4.768   4.149 -0.6812  0.0085 -0.2298
 2572TIP3   OH2 7679   4.723   3.133   2.502  0.4085  0.1059  0.2765
 2572TIP3    H1 7680   4.785   3.198   2.470 -0.6512  1.0576  0.0627
 2572TIP3    H2 7681   4.652   3.185   2.541 -2.1662 -0.6902 -2.8922
 2573TIP3   OH2 7682   1.205   5.013   2.888 -0.2485  0.6655 -0.4373
 2573TIP3    H1 7683   1.237   4.987   2.802 -1.6980 -0.7675 -0.6035
 2573TIP3    H2 7684   1.283   5.037   2.938  0.7912 -0.2998 -1.5581
 2574TIP3   OH2 7685   5.925   5.359   2.201  0.3074 -0.2338 -0.3017
 2574TIP3    H1 7686   5.851   5.415   2.225  0.2877 -0.7238  0.8300
 2574TIP3    H2 7687   5.925   5.290   2.267  2.4813  0.3980  0.4169
 2575TIP3   OH2 7688   6.284   4.148   3.234  0.0493 -0.2093 -0.6545
 2575TIP3    H1 7689   6.307   4.235   3.268 -3.6587  0.5267  0.4090
 2575TIP3    H2 7690   6.269   4.095   3.312 -2.4642 -0.3241 -1.1359
 2576TIP3   OH2 7691   0.846   4.451   1.833 -0.4476  0.4666  0.4622
 2576TIP3    H1 7692   0.890   4.459   1.748 -0.8662  0.3184  0.2253
 2576TIP3    H2 7693   0.820   4.540   1.856 -3.3046  0.2003 -1.1937
 2577TIP3   OH2 7694   0.723   5.354   2.982  0.2127  0.4819  0.3228
 2577TIP3    H1 7695   0.699   5.265   3.004 -0.3108  1.1444  2.6959
 2577TIP3    H2 7696   0.706   5.404   3.062 -0.4403  2.8823 -1.2127
 2578TIP3   OH2 7697   4.199   6.072   4.441 -0.2612  0.6799 -0.4706
 2578TIP3    H1 7698   4.261   6.000   4.432  0.0380  1.2054 -3.3308
 2578TIP3    H2 7699   4.117   6.038   4.404 -0.0060  1.8641 -2.2378
 2579TIP3   OH2 7700   2.744   4.184   2.340  0.3945 -0.5126 -0.0054
 2579TIP3    H1 7701   2.830   4.162   2.375  0.4317 -0.3696 -0.0042
 2579TIP3    H2 7702   2.727   4.118   2.273  0.1589 -1.0155  0.5367
 2580TIP3   OH2 7703   1.876   5.059   2.943 -0.1903  0.7091  0.1287
 2580TIP3    H1 7704   1.961   5.078   2.903 -0.8703  0.3397 -1.5913
 2580TIP3    H2 7705   1.822   5.031   2.870 -2.0327  1.6827  1.0602
 2581TIP3   OH2 7706   1.227   4.916   0.815  0.1993 -0.3845  0.7133
 2581TIP3    H1 7707   1.183   4.858   0.752  0.5062 -1.0720  1.1200
 2581TIP3    H2 7708   1.169   4.917   0.891 -0.3520  0.7389  0.2989
 2582TIP3   OH2 7709   2.582   6.203   2.155  0.4499 -0.2422 -0.5503
 2582TIP3    H1 7710   2.661   6.157   2.126  0.9812  0.1906  0.1859
 2582TIP3    H2 7711   2.531   6.214   2.075  1.0092 -0.7622 -0.9966
 2583TIP3   OH2 7712   2.842   2.135   5.895  0.5690  0.7951 -0.5130
 2583TIP3    H1 7713   2.855   2.187   5.816  2.0792 -0.5159 -1.1624
 2583TIP3    H2 7714   2.804   2.053   5.864 -2.2866  1.5946  0.5536
 2584TIP3   OH2 7715   1.437   6.129   1.923  0.0243  0.3486  0.1083
 2584TIP3    H1 7716   1.437   6.045   1.969 -0.1421 -0.1433 -0.7707
 2584TIP3    H2 7717   1.487   6.188   1.980  1.8572 -0.8628 -0.1692
 2585TIP3   OH2 7718   3.637   4.247   1.108  0.2807  0.4265 -0.2593
 2585TIP3    H1 7719   3.694   4.170   1.104  0.0534  0.2923 -1.4987
 2585TIP3    H2 7720   3.695   4.319   1.129  0.8685  0.2397 -1.1934
 2586TIP3   OH2 7721   0.837   0.581   1.232 -0.6070  0.0418 -0.1930
 2586TIP3    H1 7722   0.759   0.531   1.256 -0.8359 -0.7227 -2.3359
 2586TIP3    H2 7723   0.867   0.541   1.150  0.4811  2.0354 -0.8284
 2587TIP3   OH2 7724   4.728   4.321   1.343  0.1581 -0.7197 -0.0688
 2587TIP3    H1 7725   4.637   4.297   1.362 -0.1374  1.0692  0.9810
 2587TIP3    H2 7726   4.720   4.391   1.278  0.7212  0.1716  0.8091
 2588TIP3   OH2 7727   0.490   4.164   0.924 -0.0216  0.4099 -0.0988
 2588TIP3    H1 7728   0.450   4.169   0.837  1.4986  1.6917 -0.7760
 2588TIP3    H2 7729   0.518   4.254   0.942  0.7644 -0.0694  1.1808
 2589TIP3   OH2 7730   2.819   2.990   4.402 -0.3319 -0.2782 -0.4650
 2589TIP3    H1 7731   2.799   3.077   4.436  1.8539  1.3859 -3.0206
 2589TIP3    H2 7732   2.776   2.987   4.316  0.0544 -1.5205 -0.6400
 2590TIP3   OH2 7733   3.628   4.810   2.403  0.2781  0.0728  0.0350
 2590TIP3    H1 7734   3.720   4.827   2.383  0.2480  2.0882  1.3185
 2590TIP3    H2 7735   3.580   4.879   2.356 -0.1697  1.7018  2.6762
 2591TIP3   OH2 7736   5.170   0.499   3.785 -0.1540 -0.0913 -0.3037
 2591TIP3    H1 7737   5.144   0.408   3.790  0.9142 -0.3812  0.6967
 2591TIP3    H2 7738   5.152   0.526   3.695 -0.0329 -1.4298 -0.7412
 2592TIP3   OH2 7739   1.510   1.242   1.659 -0.0073  0.3472 -0.4586
 2592TIP3    H1 7740   1.554   1.266   1.741  0.4802 -0.9748 -0.2965
 2592TIP3    H2 7741   1.473   1.324   1.626 -1.0890  0.7703  1.5968
 2593TIP3   OH2 7742   5.717   5.416   4.697  0.1534  0.1985  0.1972
 2593TIP3    H1 7743   5.640   5.427   4.642 -0.3282 -0.8444  0.6425
 2593TIP3    H2 7744   5.697   5.464   4.777  0.3833  0.7530 -0.0711
 2594TIP3   OH2 7745   5.776   0.657   2.905  1.0193 -0.1192 -0.1300
 2594TIP3    H1 7746   5.686   0.633   2.885  0.9595  0.8365 -1.1423
 2594TIP3    H2 7747   5.777   0.673   2.999  0.1830 -0.3195 -0.0832
 2595TIP3   OH2 7748   2.928   4.640   2.603  0.0982  0.0516  0.2885
 2595TIP3    H1 7749   3.012   4.596   2.605  0.7899  1.3415  2.0204
 2595TIP3    H2 7750   2.865   4.573   2.629  0.6059 -0.8176 -0.6321
 2596TIP3   OH2 7751   0.932   1.781   5.166  0.1544 -0.2088  1.0156
 2596TIP3    H1 7752   1.007   1.723   5.152  0.6097  0.7067 -0.5587
 2596TIP3    H2 7753   0.968   1.869   5.162 -1.0508  0.2590 -0.2264
 2597TIP3   OH2 7754   6.322   0.780   2.681  0.8826  0.3496  0.9338
 2597TIP3    H1 7755   6.315   0.861   2.731  0.1574  0.6126  0.4192
 2597TIP3    H2 7756   6.319   0.807   2.589 -1.0379 -0.3651  0.7475
 2598TIP3   OH2 7757   1.498   0.299   3.226 -0.0868  0.4545  0.1657
 2598TIP3    H1 7758   1.406   0.326   3.231 -0.3901 -0.3210 -0.9272
 2598TIP3    H2 7759   1.527   0.299   3.317 -1.3758  0.0718  0.6085
 2599TIP3   OH2 7760   5.230   4.405   0.635 -0.2794  0.0250 -0.1096
 2599TIP3    H1 7761   5.173   4.425   0.710 -1.1999 -2.6000 -0.0104
 2599TIP3    H2 7762   5.300   4.352   0.673 -0.5989 -1.0877 -1.0320
 2600TIP3   OH2 7763   1.540   0.228   1.538 -0.1389  0.2154  0.2471
 2600TIP3    H1 7764   1.566   0.201   1.626 -0.8580  1.3610  0.8316
 2600TIP3    H2 7765   1.483   0.157   1.508  0.0940 -0.1776  0.7049
 2601TIP3   OH2 7766   4.307   4.268   4.958  0.1540  0.3155  0.0158
 2601TIP3    H1 7767   4.248   4.339   4.986  1.2940  0.5498  1.9895
 2601TIP3    H2 7768   4.309   4.207   5.031  2.1417  0.1809 -0.0852
 2602TIP3   OH2 7769   6.374   3.494   1.839  0.1155 -0.5520  0.1423
 2602TIP3    H1 7770   6.439   3.503   1.909  0.2658 -1.0643  0.0709
 2602TIP3    H2 7771   6.426   3.480   1.760  0.1655  3.7826 -0.8110
 2603TIP3   OH2 7772   5.263   2.451   4.991 -0.2036 -0.0573 -0.2408
 2603TIP3    H1 7773   5.255   2.362   5.025  1.7556 -0.4554 -0.6884
 2603TIP3    H2 7774   5.173   2.480   4.977 -0.9123 -1.4760  1.1242
 2604TIP3   OH2 7775   4.236   6.808   3.561  0.3123 -0.3610  0.0908
 2604TIP3    H1 7776   4.254   6.738   3.498 -0.1083  1.0694 -1.6873
 2604TIP3    H2 7777   4.148   6.790   3.592 -0.4808  0.2726 -1.6671
 2605TIP3   OH2 7778   2.673   3.760   1.668  0.2948 -0.2016 -0.0955
 2605TIP3    H1 7779   2.657   3.701   1.742 -0.3061  0.8656  0.6666
 2605TIP3    H2 7780   2.745   3.720   1.620  1.3378 -0.4687  1.5972
 2606TIP3   OH2 7781   4.884   2.735   0.164  0.1036  0.2740 -0.0490
 2606TIP3    H1 7782   4.923   2.667   0.110  0.5914 -0.1628  0.8331
 2606TIP3    H2 7783   4.793   2.741   0.134  0.5344  0.5285 -1.3709
 2607TIP3   OH2 7784   4.569   0.492   3.518  0.3485  0.4768  0.3871
 2607TIP3    H1 7785   4.642   0.536   3.561 -2.0923  2.4555  2.8404
 2607TIP3    H2 7786   4.576   0.400   3.546  2.7529  0.1883 -0.8599
 2608TIP3   OH2 7787   3.447   4.660   1.504  0.2649 -0.0255 -0.6119
 2608TIP3    H1 7788   3.412   4.586   1.455  1.3259 -1.0787  0.1886
 2608TIP3    H2 7789   3.519   4.624   1.556  0.3855  1.4280  0.2999
 2609TIP3   OH2 7790   1.935   1.231   2.441 -0.0365  0.4348  0.0960
 2609TIP3    H1 7791   1.864   1.294   2.452  0.5192  1.3764 -1.3483
 2609TIP3    H2 7792   2.002   1.280   2.393  0.9245 -0.9025  0.0384
 2610TIP3   OH2 7793   1.784   2.835   1.521  0.6139  0.2617  0.2254
 2610TIP3    H1 7794   1.694   2.820   1.493  0.8909 -1.2071  0.0431
 2610TIP3    H2 7795   1.777   2.892   1.598 -0.6131 -1.2854  1.3235
 2611TIP3   OH2 7796   6.774   5.831   1.405 -0.2223  0.2930  0.4549
 2611TIP3    H1 7797   6.736   5.785   1.480 -1.0036 -1.4431 -0.9345
 2611TIP3    H2 7798   6.742   5.783   1.329  2.0641  0.8630 -0.9384
 2612TIP3   OH2 7799   6.135   0.293   3.636 -0.1708 -0.5021  0.3930
 2612TIP3    H1 7800   6.146   0.312   3.543 -0.2798  0.1471  0.5034
 2612TIP3    H2 7801   6.040   0.291   3.649 -0.2145 -2.9488  0.0488
 2613TIP3   OH2 7802   3.878   5.785   3.123 -0.8414 -0.2608  0.0548
 2613TIP3    H1 7803   3.832   5.850   3.177 -1.3791  0.6301 -1.4208
 2613TIP3    H2 7804   3.919   5.726   3.186 -1.9493  0.3852  1.4293
 2614TIP3   OH2 7805   0.212   6.738   2.145 -0.2412  0.0340  0.1127
 2614TIP3    H1 7806   0.287   6.717   2.200  0.4160 -0.5311 -0.9787
 2614TIP3    H2 7807   0.138   6.696   2.188  0.3486 -0.8261  0.3028
 2615TIP3   OH2 7808   2.318   2.266   5.471 -0.3518 -0.0981  0.1965
 2615TIP3    H1 7809   2.280   2.321   5.538  1.8808  1.1836  0.5263
 2615TIP3    H2 7810   2.301   2.312   5.389  0.9631  0.8374  0.4103
 2616TIP3   OH2 7811   2.058   2.879   1.531  0.0492  0.2677 -0.2471
 2616TIP3    H1 7812   1.963   2.873   1.530  0.0872 -0.4695 -0.2694
 2616TIP3    H2 7813   2.077   2.972   1.540 -0.6650  0.4948 -1.0321
 2617TIP3   OH2 7814   1.175   3.026   4.826  0.1531  0.0062 -0.0157
 2617TIP3    H1 7815   1.144   3.080   4.899 -0.2554 -1.0213  0.5798
 2617TIP3    H2 7816   1.268   3.050   4.818  0.1598  0.2772  0.7057
 2618TIP3   OH2 7817   3.331   2.240   3.816 -0.0349  0.9618 -0.0944
 2618TIP3    H1 7818   3.360   2.270   3.730 -1.8651  1.8179 -0.4556
 2618TIP3    H2 7819   3.297   2.319   3.858 -0.5629  0.2666  0.8206
 2619TIP3   OH2 7820   4.978   3.215   0.323  0.2482 -0.4355  0.7387
 2619TIP3    H1 7821   4.976   3.147   0.256  0.9799  0.2716 -0.0181
 2619TIP3    H2 7822   4.903   3.195   0.379 -0.7969 -0.6486 -0.6738
 2620TIP3   OH2 7823   5.918   0.712   0.506 -0.1540 -0.2543 -0.0758
 2620TIP3    H1 7824   5.828   0.746   0.512 -0.8726 -2.1215  0.2333
 2620TIP3    H2 7825   5.963   0.752   0.581 -1.2583 -0.7897  0.9037
 2621TIP3   OH2 7826   6.205   3.406   4.908  0.0079 -0.4282  0.2531
 2621TIP3    H1 7827   6.192   3.501   4.905  1.0006 -0.2434  1.1875
 2621TIP3    H2 7828   6.125   3.372   4.950 -0.3568 -0.0139 -0.0968
 2622TIP3   OH2 7829   5.652   1.445   3.517 -0.1859 -0.1802  0.0274
 2622TIP3    H1 7830   5.591   1.510   3.551 -1.3521 -1.4988  0.5899
 2622TIP3    H2 7831   5.596   1.381   3.473  0.3921 -2.8982  2.8657
 2623TIP3   OH2 7832   4.997   2.586   5.847 -0.1286  0.0416  0.4267
 2623TIP3    H1 7833   4.977   2.600   5.940  0.3996  1.3685  0.3510
 2623TIP3    H2 7834   4.930   2.637   5.800  0.8662  1.1128  0.1246
 2624TIP3   OH2 7835   7.139   0.724   1.331  0.6526  0.2390  0.0097
 2624TIP3    H1 7836   7.224   0.751   1.296 -0.2589  1.5437 -1.3694
 2624TIP3    H2 7837   7.157   0.692   1.419  2.2758  2.6357  0.6229
 2625TIP3   OH2 7838   2.590   0.458   5.555  0.1113 -0.1502 -0.1973
 2625TIP3    H1 7839   2.619   0.520   5.622  0.7901 -0.5138 -0.1499
 2625TIP3    H2 7840   2.547   0.513   5.489 -0.0098  0.2798  0.2293
 2626TIP3   OH2 7841   2.224   6.338   1.422  0.5367  0.3711  0.4041
 2626TIP3    H1 7842   2.214   6.364   1.513 -0.4142  0.4773  0.2797
 2626TIP3    H2 7843   2.304   6.286   1.420  1.0012  1.0525  1.1471
 2627TIP3   OH2 7844   4.319   4.232   3.350 -0.1205 -0.6649 -0.8524
 2627TIP3    H1 7845   4.297   4.147   3.310  0.5437 -2.4886  2.3301
 2627TIP3    H2 7846   4.361   4.209   3.432  0.8436  2.8296 -0.2347
 2628TIP3   OH2 7847   0.437   3.256   4.442 -0.1680  0.3158 -0.0960
 2628TIP3    H1 7848   0.441   3.160   4.435  1.3090  0.3185  0.3538
 2628TIP3    H2 7849   0.413   3.285   4.354 -1.1283 -0.4735 -0.1164
 2629TIP3   OH2 7850   6.373   5.485   3.653 -0.5083  0.3015  0.3660
 2629TIP3    H1 7851   6.317   5.413   3.683 -1.5726  1.7032  1.8801
 2629TIP3    H2 7852   6.348   5.560   3.706  1.3329  1.5594 -0.4120
 2630TIP3   OH2 7853   0.265   0.862   0.320  0.0943  0.1753  0.0456
 2630TIP3    H1 7854   0.262   0.782   0.267 -0.2948 -0.1585  0.5562
 2630TIP3    H2 7855   0.353   0.864   0.357  0.6148  0.7882 -1.1624
 2631TIP3   OH2 7856   4.907   3.593   1.522  0.5219  0.0043 -0.3408
 2631TIP3    H1 7857   4.992   3.559   1.493  0.8649  1.8297 -1.6439
 2631TIP3    H2 7858   4.861   3.617   1.442 -1.1235 -0.6476  0.3632
 2632TIP3   OH2 7859   6.703   0.265   3.407  0.0157 -0.1811  0.4889
 2632TIP3    H1 7860   6.701   0.348   3.455 -0.6251 -0.3264  0.7201
 2632TIP3    H2 7861   6.669   0.200   3.469 -0.9393 -0.3541 -0.1934
 2633TIP3   OH2 7862   2.230   2.965   4.283 -0.1114  0.4848  0.0928
 2633TIP3    H1 7863   2.307   3.008   4.247  1.2133 -1.5725  0.2757
 2633TIP3    H2 7864   2.228   2.991   4.375  2.4585 -2.0128  0.9934
 2634TIP3   OH2 7865   3.698   3.786   2.801 -0.7447  0.0901  0.4829
 2634TIP3    H1 7866   3.717   3.797   2.894  0.3834 -0.0177  0.2744
 2634TIP3    H2 7867   3.755   3.848   2.757 -0.7319 -0.3890 -0.1864
 2635TIP3   OH2 7868   1.489   6.672   3.170 -0.6604 -0.1547  0.1000
 2635TIP3    H1 7869   1.427   6.608   3.136 -0.1124 -1.6718  1.7928
 2635TIP3    H2 7870   1.494   6.654   3.264  0.4027  1.6278  0.4447
 2636TIP3   OH2 7871   6.427   2.043   3.106  0.2620 -0.2906 -0.2555
 2636TIP3    H1 7872   6.481   1.964   3.120  2.7974  1.3122 -0.3401
 2636TIP3    H2 7873   6.413   2.044   3.011  0.1600 -0.6584 -0.2486
 2637TIP3   OH2 7874   2.473   3.158   3.707  0.1181  0.8351 -0.0522
 2637TIP3    H1 7875   2.514   3.137   3.623  0.3463  1.6628 -0.1562
 2637TIP3    H2 7876   2.417   3.233   3.689  0.4675  1.2713  0.6046
 2638TIP3   OH2 7877   6.853   5.953   0.234 -0.0795 -0.4382 -0.1636
 2638TIP3    H1 7878   6.843   6.008   0.311  2.6482  2.9958 -1.9579
 2638TIP3    H2 7879   6.918   5.888   0.260 -0.3953 -0.3610  0.8781
 2639TIP3   OH2 7880   3.155   1.897   5.567 -0.4000 -0.4076  0.4771
 2639TIP3    H1 7881   3.148   1.986   5.533  1.4561 -0.3733  0.1191
 2639TIP3    H2 7882   3.243   1.892   5.604 -0.6132 -1.9843  0.8291
 2640TIP3   OH2 7883   0.663   1.133   4.416 -0.1394 -0.1014  0.3270
 2640TIP3    H1 7884   0.654   1.200   4.483 -0.6729 -0.5727  0.7317
 2640TIP3    H2 7885   0.688   1.181   4.337 -0.8835  0.6201  0.5241
 2641TIP3   OH2 7886   6.694   3.878   1.993  0.4117  0.3901 -0.1408
 2641TIP3    H1 7887   6.636   3.863   2.068  0.8153  1.4200  0.4109
 2641TIP3    H2 7888   6.647   3.941   1.939  0.0954 -0.3979 -0.8001
 2642TIP3   OH2 7889   0.168   5.047   0.915  0.1312  0.2357  0.1811
 2642TIP3    H1 7890   0.135   5.126   0.871  0.4054  0.0856 -0.2892
 2642TIP3    H2 7891   0.211   5.081   0.994  1.8055  0.7179 -0.9020
 2643TIP3   OH2 7892   3.303   0.725   2.541 -0.3597  0.5098 -0.5552
 2643TIP3    H1 7893   3.374   0.673   2.504  1.1912  1.2548  1.2317
 2643TIP3    H2 7894   3.224   0.688   2.501  0.9874 -0.3545 -2.5875
 2644TIP3   OH2 7895   4.166   1.718   0.288  0.3319 -0.2165  0.0503
 2644TIP3    H1 7896   4.099   1.782   0.313  0.3622 -1.0910  2.7395
 2644TIP3    H2 7897   4.122   1.661   0.224 -0.6375  0.7331 -0.1560
 2645TIP3   OH2 7898   2.960   4.687   5.849 -0.0095 -0.7621 -0.5776
 2645TIP3    H1 7899   2.919   4.690   5.936 -0.5614 -0.2903 -0.8520
 2645TIP3    H2 7900   3.007   4.770   5.841 -1.4355 -0.0038 -1.4346
 2646TIP3   OH2 7901   4.982   4.967   3.605 -0.0437 -0.7819 -0.1544
 2646TIP3    H1 7902   5.045   4.976   3.534 -0.2629 -0.1963 -0.2843
 2646TIP3    H2 7903   4.903   5.011   3.573 -0.2200 -0.7134  0.3607
 2647TIP3   OH2 7904   3.574   6.687   2.336  0.4489  0.3639 -0.0958
 2647TIP3    H1 7905   3.490   6.643   2.331  0.5506  0.0100  1.0845
 2647TIP3    H2 7906   3.638   6.619   2.313  0.5287  0.1569  0.7076
 2648TIP3   OH2 7907   3.640   1.290   1.133 -0.0589  0.5938  0.1534
 2648TIP3    H1 7908   3.675   1.379   1.129  1.1604  0.0953 -1.5522
 2648TIP3    H2 7909   3.672   1.255   1.216 -1.0593  1.9057  1.1300
 2649TIP3   OH2 7910   6.434   2.202   5.601  0.4213  0.9346 -0.4317
 2649TIP3    H1 7911   6.410   2.113   5.579  3.2146 -0.4626  1.5312
 2649TIP3    H2 7912   6.356   2.239   5.643 -1.3680  0.1272 -2.8435
 2650TIP3   OH2 7913   5.971   2.437   4.200 -0.2057 -0.1561 -0.3226
 2650TIP3    H1 7914   6.049   2.486   4.226 -0.6058 -0.6104  1.9582
 2650TIP3    H2 7915   6.004   2.354   4.167  0.3062 -0.1929  0.2679
 2651TIP3   OH2 7916   3.385   1.472   4.739 -0.0361  0.3637 -0.3781
 2651TIP3    H1 7917   3.478   1.493   4.750  0.0019  0.7369 -1.2817
 2651TIP3    H2 7918   3.340   1.555   4.754 -0.2165  0.2128 -0.0754
 2652TIP3   OH2 7919   2.507   4.369   2.685 -0.1310  0.1855 -0.6374
 2652TIP3    H1 7920   2.458   4.346   2.763 -1.5608  0.4881 -1.4107
 2652TIP3    H2 7921   2.468   4.317   2.615  0.0327  1.0937 -1.4403
 2653TIP3   OH2 7922   1.593   0.562   0.356  0.3684  0.1215  0.2455
 2653TIP3    H1 7923   1.501   0.578   0.378  0.0771 -0.9187 -0.1689
 2653TIP3    H2 7924   1.641   0.586   0.435 -0.1625  1.5425  0.1631
 2654TIP3   OH2 7925   0.035   6.331   4.163  0.1159  0.3037  0.6273
 2654TIP3    H1 7926  -0.021   6.371   4.097  0.6873 -0.3952 -0.3124
 2654TIP3    H2 7927   0.079   6.404   4.206 -1.2743  0.8449  1.1885
 2655TIP3   OH2 7928   2.605   0.015   4.939 -0.7706 -0.4906  0.1796
 2655TIP3    H1 7929   2.575  -0.071   4.910 -3.2912  0.4464 -0.2065
 2655TIP3    H2 7930   2.557   0.078   4.885  0.5375  1.1949  0.8658
 2656TIP3   OH2 7931   0.162   0.255   4.592 -0.2286  0.6153  0.3971
 2656TIP3    H1 7932   0.097   0.240   4.662 -0.4306  1.4251  0.3968
 2656TIP3    H2 7933   0.208   0.171   4.584 -1.3252 -0.0088  0.3479
 2657TIP3   OH2 7934   0.277   1.958   3.034  0.4504  0.5634 -0.2048
 2657TIP3    H1 7935   0.325   1.978   3.114  0.4341 -2.4527  0.6740
 2657TIP3    H2 7936   0.343   1.922   2.975  0.1020  0.9893 -0.8786
 2658TIP3   OH2 7937   3.353   3.587   1.235 -0.7968  0.2392 -0.1498
 2658TIP3    H1 7938   3.334   3.572   1.142 -0.0136  1.6121 -0.5552
 2658TIP3    H2 7939   3.269   3.606   1.275 -1.2117 -0.8670 -0.4570
 2659TIP3   OH2 7940   6.653   1.224   2.823 -0.6259 -0.6216 -0.2393
 2659TIP3    H1 7941   6.726   1.287   2.821 -0.6239 -0.5488  1.1169
 2659TIP3    H2 7942   6.650   1.194   2.914 -2.0906 -0.8596 -0.3373
 2660TIP3   OH2 7943   2.460   6.130   0.360  0.2669 -0.1845 -0.6017
 2660TIP3    H1 7944   2.490   6.221   0.371  1.0158 -0.4278 -0.5956
 2660TIP3    H2 7945   2.422   6.108   0.445  3.3303 -1.0547  0.6830
 2661TIP3   OH2 7946   2.767   5.784   0.477 -0.6063  0.4188  0.1773
 2661TIP3    H1 7947   2.695   5.806   0.419  0.5406  1.2529 -0.9952
 2661TIP3    H2 7948   2.763   5.850   0.546 -1.2665  0.1442  0.4083
 2662TIP3   OH2 7949   2.591   1.608   3.931 -0.9202 -0.3905  0.2559
 2662TIP3    H1 7950   2.629   1.646   4.010 -1.6810 -1.2183  1.0479
 2662TIP3    H2 7951   2.665   1.572   3.883 -0.3737  0.7091  0.2521
 2663TIP3   OH2 7952   1.318   0.801   5.688  0.5087 -0.6364 -0.0596
 2663TIP3    H1 7953   1.241   0.840   5.646  0.5255  0.1124  0.5702
 2663TIP3    H2 7954   1.299   0.707   5.690 -0.0753 -0.5374 -0.5426
 2664TIP3   OH2 7955   4.030   1.647   3.013  0.1885 -0.6543  0.1544
 2664TIP3    H1 7956   4.001   1.631   3.103  0.4980  0.0998  0.4001
 2664TIP3    H2 7957   4.039   1.560   2.974 -0.2853 -0.9726  0.7427
 2665TIP3   OH2 7958   5.253   6.004   5.463  0.2036  0.3213 -0.7077
 2665TIP3    H1 7959   5.323   6.032   5.404 -0.1191  1.6347 -0.5042
 2665TIP3    H2 7960   5.262   6.061   5.540 -0.4083 -0.2375 -0.2032
 2666TIP3   OH2 7961   3.626   0.241   5.027  0.0174  0.6014  0.9746
 2666TIP3    H1 7962   3.553   0.277   5.077 -0.5368  1.3829 -0.3439
 2666TIP3    H2 7963   3.595   0.156   4.997 -0.8160  1.3956 -0.5079
 2667TIP3   OH2 7964   1.149   4.579   1.871 -0.1616 -0.0384 -0.0509
 2667TIP3    H1 7965   1.102   4.562   1.952 -0.8103  0.1328 -0.3882
 2667TIP3    H2 7966   1.217   4.512   1.868 -0.6801 -0.5834  0.2062
 2668TIP3   OH2 7967   1.443   3.162   2.501 -0.4387 -0.4545 -0.1407
 2668TIP3    H1 7968   1.513   3.226   2.511 -0.4201 -0.5523  0.3903
 2668TIP3    H2 7969   1.488   3.077   2.497 -0.5191 -0.5068  0.0585
 2669TIP3   OH2 7970   1.512   6.239   0.459  0.1409 -0.0503 -0.0481
 2669TIP3    H1 7971   1.547   6.306   0.517  0.6233  0.7126 -1.1791
 2669TIP3    H2 7972   1.437   6.280   0.416  0.8249  0.0154 -1.2252
 2670TIP3   OH2 7973   4.364   2.053   2.737  0.2778  0.0356 -0.4394
 2670TIP3    H1 7974   4.391   2.019   2.822 -2.2672 -0.7801  0.1245
 2670TIP3    H2 7975   4.372   2.148   2.745 -0.5315  0.0074  0.9748
 2671TIP3   OH2 7976   6.940   4.545   3.209  0.3135 -0.7439 -0.7620
 2671TIP3    H1 7977   6.871   4.611   3.216  1.5671  0.4518  3.0255
 2671TIP3    H2 7978   7.020   4.596   3.197  1.0946 -1.6451  0.3666
 2672TIP3   OH2 7979   2.619   1.471   5.610  0.1538  0.3981  0.6556
 2672TIP3    H1 7980   2.633   1.377   5.617  0.7444  0.4738  0.4694
 2672TIP3    H2 7981   2.536   1.486   5.656 -1.7397 -0.6837 -2.1089
 2673TIP3   OH2 7982   0.307   3.506   3.799 -0.2437 -0.6084  0.0394
 2673TIP3    H1 7983   0.356   3.514   3.880  0.4377 -0.0334 -0.4136
 2673TIP3    H2 7984   0.312   3.593   3.759 -1.0671 -0.7177 -0.3400
 2674TIP3   OH2 7985   0.499   6.108   4.051  0.2199  0.0150  0.0606
 2674TIP3    H1 7986   0.536   6.183   4.097  1.1354  0.0521 -0.6932
 2674TIP3    H2 7987   0.573   6.069   4.005 -0.2500 -1.3355  0.4014
 2675TIP3   OH2 7988   5.645   1.400   4.729  0.7641  0.6760 -0.4640
 2675TIP3    H1 7989   5.689   1.324   4.690  1.5195 -0.9704  3.1785
 2675TIP3    H2 7990   5.553   1.391   4.703  0.7915 -1.6852  0.0282
 2676TIP3   OH2 7991   4.140   6.405   2.826  0.2431 -0.2425 -0.3554
 2676TIP3    H1 7992   4.180   6.482   2.785  1.7888 -0.6714  0.2610
 2676TIP3    H2 7993   4.062   6.439   2.869  1.0093  1.0564  0.1068
 2677TIP3   OH2 7994   6.500   1.917   3.893 -0.0170  0.0742  0.2550
 2677TIP3    H1 7995   6.411   1.881   3.894 -0.0985  0.2584 -0.0511
 2677TIP3    H2 7996   6.534   1.901   3.981  0.1887 -1.3310 -0.0633
 2678TIP3   OH2 7997   6.188   2.352   1.726  0.0747  0.2196 -0.5372
 2678TIP3    H1 7998   6.147   2.438   1.711  0.9785  0.5110 -1.5246
 2678TIP3    H2 7999   6.186   2.311   1.640  1.7928  0.2322 -0.6077
 2679TIP3   OH2 8000   5.166   1.980   0.272 -0.5386  0.1640  0.1159
 2679TIP3    H1 8001   5.072   1.980   0.290 -0.5623 -1.1267  0.1072
 2679TIP3    H2 8002   5.203   2.044   0.333 -1.3003 -0.0493  0.8077
 2680TIP3   OH2 8003   0.906   6.651   3.357 -0.3380  0.2017 -0.2664
 2680TIP3    H1 8004   0.962   6.611   3.422  1.2269  0.2603 -1.5104
 2680TIP3    H2 8005   0.915   6.745   3.372  0.3173  0.2272 -0.7793
 2681TIP3   OH2 8006   5.992   6.175   1.613 -0.0085  0.0683 -0.3318
 2681TIP3    H1 8007   5.981   6.238   1.543 -0.9711  0.1991 -0.0793
 2681TIP3    H2 8008   6.035   6.223   1.684 -0.6521  0.4165 -0.1759
 2682TIP3   OH2 8009   1.044   2.871   1.234 -0.6826  0.0347  0.3786
 2682TIP3    H1 8010   1.090   2.907   1.158 -1.3648 -0.1160 -0.1164
 2682TIP3    H2 8011   0.984   2.807   1.197  0.4568 -1.5870  1.2339
 2683TIP3   OH2 8012   4.752   6.601   4.447  0.4037  0.3266 -0.4197
 2683TIP3    H1 8013   4.815   6.661   4.408  0.2486  0.6655 -0.1487
 2683TIP3    H2 8014   4.718   6.647   4.523  1.7000 -0.8419  0.9357
 2684TIP3   OH2 8015   2.001   6.125   3.664 -0.1444  0.0207  0.2655
 2684TIP3    H1 8016   1.959   6.115   3.750 -0.2321 -0.8222  0.1337
 2684TIP3    H2 8017   1.935   6.095   3.602  0.0685  0.2327 -0.0627
 2685TIP3   OH2 8018   1.661   0.600   4.372 -0.2016 -0.2057 -0.3157
 2685TIP3    H1 8019   1.656   0.569   4.462 -0.3109 -0.2823 -0.3487
 2685TIP3    H2 8020   1.621   0.687   4.374 -1.1086 -0.6113 -0.4822
 2686TIP3   OH2 8021   0.418   4.794   4.203  0.6297 -0.2579 -0.1154
 2686TIP3    H1 8022   0.325   4.783   4.180  0.6123  0.9475 -0.7202
 2686TIP3    H2 8023   0.443   4.710   4.241 -0.4878 -0.8971 -0.7142
 2687TIP3   OH2 8024   2.989   5.955   0.673  0.6356  0.0763 -0.3540
 2687TIP3    H1 8025   3.010   5.907   0.753  2.7757  0.3633 -0.6924
 2687TIP3    H2 8026   2.984   5.887   0.605 -0.0522 -0.0443 -0.1889
 2688TIP3   OH2 8027   4.998   3.684   4.398  0.2047 -0.3618  0.2172
 2688TIP3    H1 8028   5.030   3.755   4.455 -0.0890  0.0009 -0.0668
 2688TIP3    H2 8029   4.903   3.691   4.403  0.1448 -1.6079  1.2702
 2689TIP3   OH2 8030   6.663   5.185   4.512  0.5224  0.0538  0.0553
 2689TIP3    H1 8031   6.687   5.249   4.445  0.6032 -0.6910 -0.6397
 2689TIP3    H2 8032   6.572   5.162   4.492  0.3594  0.2598  0.5535
 2690TIP3   OH2 8033   2.579   1.596   4.972 -0.4529  0.2663  0.0998
 2690TIP3    H1 8034   2.504   1.540   4.953  0.0088 -0.2917 -0.0879
 2690TIP3    H2 8035   2.548   1.685   4.953 -1.9471  0.3748  2.5729
 2691TIP3   OH2 8036   3.558   3.079   0.962 -0.0882 -0.0722 -0.6724
 2691TIP3    H1 8037   3.501   3.150   0.930 -0.2319 -0.6911 -1.8239
 2691TIP3    H2 8038   3.605   3.119   1.035 -0.2777  1.1806 -1.1934
 2692TIP3   OH2 8039   1.538   0.797   0.063 -0.7287  0.1483 -0.7321
 2692TIP3    H1 8040   1.466   0.859   0.051 -1.8016 -0.1031  3.0286
 2692TIP3    H2 8041   1.600   0.843   0.119 -1.6778 -2.0649  2.3953
 2693TIP3   OH2 8042   3.681   2.399   1.896 -0.2766 -0.4161 -0.3993
 2693TIP3    H1 8043   3.604   2.454   1.893 -0.8711 -1.2381 -0.5651
 2693TIP3    H2 8044   3.755   2.460   1.899 -0.8551  0.3859 -1.8069
 2694TIP3   OH2 8045   3.397   2.087   2.731  0.5664 -0.1524 -0.2842
 2694TIP3    H1 8046   3.368   2.130   2.812 -0.2604  2.1400 -1.7089
 2694TIP3    H2 8047   3.316   2.059   2.689  1.0328 -1.9691 -0.0416
 2695TIP3   OH2 8048   1.313   1.755   0.238 -0.3226 -0.2128 -0.2484
 2695TIP3    H1 8049   1.386   1.816   0.250  0.5475 -1.1049 -0.7840
 2695TIP3    H2 8050   1.263   1.761   0.319  1.8406 -1.5038  1.3020
 2696TIP3   OH2 8051   5.876   2.304   1.238 -0.6095 -0.4356  0.5676
 2696TIP3    H1 8052   5.880   2.212   1.264  0.9175  0.1238  2.6111
 2696TIP3    H2 8053   5.813   2.344   1.298  0.5470  0.2808  1.3513
 2697TIP3   OH2 8054   6.292   1.438   1.474 -0.1342 -0.0952 -0.5061
 2697TIP3    H1 8055   6.360   1.504   1.461  0.0280 -0.3401 -0.9207
 2697TIP3    H2 8056   6.302   1.379   1.400  1.0253 -1.7240  0.8670
 2698TIP3   OH2 8057   1.663   6.306   5.329 -0.2536  0.0952 -0.4145
 2698TIP3    H1 8058   1.628   6.329   5.243  0.6919  1.4092 -0.4738
 2698TIP3    H2 8059   1.753   6.278   5.312 -0.4662 -0.8942  0.0173
 2699TIP3   OH2 8060   4.030   0.380   3.986 -0.5339  0.3437  0.3507
 2699TIP3    H1 8061   4.095   0.426   4.040  1.3644 -1.5866 -0.1260
 2699TIP3    H2 8062   4.002   0.445   3.922  1.7060  1.0414 -0.0296
 2700TIP3   OH2 8063   0.329   1.487   5.381 -0.5287  0.3841  0.2024
 2700TIP3    H1 8064   0.339   1.440   5.464 -0.3578 -0.3207 -0.2107
 2700TIP3    H2 8065   0.399   1.453   5.325 -0.6332  0.8634 -0.2304
 2701TIP3   OH2 8066   0.881   0.557   2.531  0.3443 -0.3344  0.4006
 2701TIP3    H1 8067   0.871   0.578   2.624 -1.5440  0.9574 -0.0311
 2701TIP3    H2 8068   0.975   0.543   2.520  1.1180  2.6887  1.9117
 2702TIP3   OH2 8069   6.570   3.747   1.039  0.0383 -0.3218  0.3176
 2702TIP3    H1 8070   6.629   3.819   1.018 -1.7499  1.4473  1.0651
 2702TIP3    H2 8071   6.577   3.687   0.964  0.3091  1.4742 -1.1496
 2703TIP3   OH2 8072   3.329   0.993   3.719 -0.0065 -0.4021  0.7730
 2703TIP3    H1 8073   3.320   1.038   3.803  0.9800  0.4463  0.4431
 2703TIP3    H2 8074   3.423   0.987   3.704 -0.1587 -0.9801 -0.0482
 2704TIP3   OH2 8075   3.038   0.394   2.607 -0.0686  0.2276  0.1676
 2704TIP3    H1 8076   3.053   0.334   2.680 -0.8541 -1.9538 -1.3374
 2704TIP3    H2 8077   3.122   0.436   2.593  0.9109 -1.5043  0.5076
 2705TIP3   OH2 8078   0.632   0.612   4.806  0.1256  0.5871  0.4254
 2705TIP3    H1 8079   0.672   0.689   4.767  2.6297 -0.4291  0.8123
 2705TIP3    H2 8080   0.689   0.590   4.880  0.1589 -2.2265 -0.3134
 2706TIP3   OH2 8081   5.610   1.635   5.198 -0.3036 -0.6426 -0.0405
 2706TIP3    H1 8082   5.587   1.613   5.108 -1.4921 -2.1551  0.5998
 2706TIP3    H2 8083   5.526   1.643   5.244  0.2672  0.4005  0.8851
 2707TIP3   OH2 8084   0.131   2.743   1.199  0.7718 -0.0943 -0.2808
 2707TIP3    H1 8085   0.125   2.838   1.213 -1.4243 -0.4723  2.2743
 2707TIP3    H2 8086   0.178   2.711   1.276  0.8258 -1.1559 -0.7442
 2708TIP3   OH2 8087   6.642   6.662   1.952 -0.0288 -0.6306  0.3694
 2708TIP3    H1 8088   6.738   6.661   1.945 -0.0318 -0.4279  0.2932
 2708TIP3    H2 8089   6.624   6.721   2.026 -0.1642  1.0766 -0.9589
 2709TIP3   OH2 8090   3.877   3.616   2.151  0.2265  0.0049 -0.0544
 2709TIP3    H1 8091   3.823   3.542   2.177  0.4159  0.0780  0.5677
 2709TIP3    H2 8092   3.817   3.678   2.110 -0.2240  0.2185  0.8968
 2710TIP3   OH2 8093   4.632   3.716   0.333  0.4444 -0.5119  0.9125
 2710TIP3    H1 8094   4.710   3.769   0.321  0.8172 -1.1781  0.3105
 2710TIP3    H2 8095   4.629   3.698   0.427  1.3704 -0.9983  0.8618
 2711TIP3   OH2 8096   3.168   6.539   4.138 -0.1394  0.4851  0.0716
 2711TIP3    H1 8097   3.180   6.601   4.065  1.3145  1.3133  0.9615
 2711TIP3    H2 8098   3.242   6.557   4.196 -1.0590 -0.4184  1.5690
 2712TIP3   OH2 8099   2.468   3.081   1.871 -0.0499 -0.1351  0.3835
 2712TIP3    H1 8100   2.490   3.062   1.779  0.9596 -2.1058  0.9648
 2712TIP3    H2 8101   2.373   3.069   1.875 -0.4613  2.1530 -0.8210
 2713TIP3   OH2 8102   5.588   0.706   2.125 -0.7152 -0.0268  0.3292
 2713TIP3    H1 8103   5.509   0.740   2.167  0.0530  0.9418  1.0270
 2713TIP3    H2 8104   5.566   0.701   2.032 -0.9755  2.0695  0.2457
 2714TIP3   OH2 8105   6.243   1.820   2.435 -0.6585  0.2049  0.4045
 2714TIP3    H1 8106   6.240   1.873   2.355 -0.1608  1.6366  1.2937
 2714TIP3    H2 8107   6.152   1.815   2.464 -0.8304 -0.2429 -0.1877
 2715TIP3   OH2 8108   7.024   4.050   3.075 -0.0842  0.4824 -0.3378
 2715TIP3    H1 8109   7.035   4.140   3.105  3.3975 -0.1375  0.7538
 2715TIP3    H2 8110   7.094   4.037   3.011 -0.1877 -1.5626 -0.1024
 2716TIP3   OH2 8111   2.452   1.738   2.016  0.0386 -0.2118 -0.6466
 2716TIP3    H1 8112   2.479   1.705   2.101  1.3172  0.2387 -0.8569
 2716TIP3    H2 8113   2.455   1.661   1.959  1.2581 -0.1211 -0.7360
 2717TIP3   OH2 8114   2.410   1.976   4.458 -0.2217  0.1731  0.0658
 2717TIP3    H1 8115   2.501   1.978   4.429 -0.5956  0.9039 -1.1556
 2717TIP3    H2 8116   2.360   1.954   4.379 -1.1557  0.4477  0.5602
 2718TIP3   OH2 8117   4.122   1.199   0.329  0.7657  0.0243  0.5657
 2718TIP3    H1 8118   4.158   1.287   0.336  0.1154  0.4575 -1.1134
 2718TIP3    H2 8119   4.191   1.148   0.286  1.3632 -0.4583  2.0364
 2719TIP3   OH2 8120   5.937   3.267   1.049  0.7140  0.1506 -0.3938
 2719TIP3    H1 8121   5.931   3.359   1.073 -1.9543  0.5872 -2.2450
 2719TIP3    H2 8122   5.944   3.267   0.953  3.0055 -1.5772 -0.3101
 2720TIP3   OH2 8123   3.809   0.889   3.543  0.4843 -0.2553 -0.7449
 2720TIP3    H1 8124   3.870   0.935   3.485  0.7266 -0.9964 -1.0920
 2720TIP3    H2 8125   3.756   0.958   3.582  0.6137  0.2867 -1.5151
 2721TIP3   OH2 8126   6.384   1.929   2.837 -0.7413  0.3850  0.1473
 2721TIP3    H1 8127   6.290   1.914   2.831 -0.9035  1.3967  0.0294
 2721TIP3    H2 8128   6.411   1.949   2.747 -0.3325 -0.3221  0.1027
 2722TIP3   OH2 8129   6.250   5.959   0.565 -0.2410  0.5671 -0.1032
 2722TIP3    H1 8130   6.265   6.054   0.566  0.3128  0.5127 -1.4045
 2722TIP3    H2 8131   6.157   5.949   0.586 -0.0601  1.3083  1.2234
 2723TIP3   OH2 8132   2.248   4.748   2.836  0.1459  0.5396  0.4356
 2723TIP3    H1 8133   2.166   4.784   2.870  1.0391  3.0268  0.1819
 2723TIP3    H2 8134   2.250   4.774   2.744  1.1503  0.3607  0.3963
 2724TIP3   OH2 8135   1.797   2.913   5.710  0.4073 -0.4298  0.1907
 2724TIP3    H1 8136   1.708   2.884   5.730 -0.4426  1.8530  0.0237
 2724TIP3    H2 8137   1.834   2.843   5.656 -1.5115 -1.1616 -0.2428
 2725TIP3   OH2 8138   5.582   4.010   1.902 -0.0813 -0.0702 -0.0044
 2725TIP3    H1 8139   5.557   4.021   1.993  1.3183  0.3802  0.3463
 2725TIP3    H2 8140   5.536   3.931   1.874 -0.3260 -0.3574  1.1552
 2726TIP3   OH2 8141   3.589   3.266   3.136 -0.5024  0.3414  0.3205
 2726TIP3    H1 8142   3.671   3.305   3.107 -0.7930  0.2439 -0.6572
 2726TIP3    H2 8143   3.615   3.209   3.209  0.3700 -0.0348 -0.2616
 2727TIP3   OH2 8144   6.922   6.633   1.895  0.0824  0.4217 -0.0243
 2727TIP3    H1 8145   7.002   6.585   1.874  0.1417 -0.4519  1.9748
 2727TIP3    H2 8146   6.953   6.721   1.918 -0.0658  1.7480 -4.1412
 2728TIP3   OH2 8147   4.009   5.312   2.660  0.0523  0.3157 -0.1905
 2728TIP3    H1 8148   4.066   5.340   2.732  1.9966  0.7630 -1.8034
 2728TIP3    H2 8149   4.049   5.231   2.628 -1.8601 -0.8982  0.3686
 2729TIP3   OH2 8150   6.725   3.003   3.092  0.6024  0.2244 -0.0498
 2729TIP3    H1 8151   6.705   3.065   3.162  2.5865  0.9795 -0.0786
 2729TIP3    H2 8152   6.678   3.036   3.016  0.6424  0.9940  0.2518
 2730TIP3   OH2 8153   5.012   6.260   4.389 -0.5833 -0.4296  0.1171
 2730TIP3    H1 8154   4.957   6.299   4.322 -0.1144 -0.5136 -0.3228
 2730TIP3    H2 8155   5.005   6.319   4.464 -0.2020  0.2871 -0.4026
 2731TIP3   OH2 8156   3.514   3.487   1.417 -0.1699 -0.0538 -0.5305
 2731TIP3    H1 8157   3.458   3.532   1.354 -1.2751 -0.3415  0.2136
 2731TIP3    H2 8158   3.583   3.550   1.437 -0.3314  0.3917 -1.3008
 2732TIP3   OH2 8159   0.994   6.752   2.774  0.6238 -0.4001 -0.4500
 2732TIP3    H1 8160   1.062   6.703   2.727  1.4073 -1.4377  1.6358
 2732TIP3    H2 8161   0.930   6.686   2.800  0.4821  0.0474  0.3836
 2733TIP3   OH2 8162   6.190   1.277   0.286  0.2220  0.2939 -0.5985
 2733TIP3    H1 8163   6.239   1.359   0.293  1.5711 -0.6287  1.8216
 2733TIP3    H2 8164   6.257   1.210   0.267 -0.6952 -0.4390 -1.3769
 2734TIP3   OH2 8165   5.860   6.388   0.767 -0.5554  0.5306 -0.3828
 2734TIP3    H1 8166   5.923   6.441   0.817 -0.5223 -0.7208  0.9681
 2734TIP3    H2 8167   5.826   6.325   0.830 -0.6272 -1.0398 -1.9010
 2735TIP3   OH2 8168   4.530   3.709   2.562  0.3207  0.6743 -0.2019
 2735TIP3    H1 8169   4.621   3.739   2.552  0.4385 -0.0765 -1.6398
 2735TIP3    H2 8170   4.480   3.763   2.501 -0.1065  0.6788  0.1486
 2736TIP3   OH2 8171   0.667   1.011   0.616  0.1661 -0.1577  0.4946
 2736TIP3    H1 8172   0.735   0.944   0.607  2.0018  1.3357  2.4325
 2736TIP3    H2 8173   0.705   1.089   0.575 -0.8030  0.4534  0.7365
 2737TIP3   OH2 8174   2.691   2.299   0.253  0.0520 -0.5513  0.0528
 2737TIP3    H1 8175   2.616   2.248   0.283  0.0088 -0.3944  0.2141
 2737TIP3    H2 8176   2.742   2.238   0.200 -0.4780 -0.5044 -0.5264
 2738TIP3   OH2 8177   4.402   5.571   3.344  0.5002  0.4758 -0.7545
 2738TIP3    H1 8178   4.418   5.638   3.411 -3.1975  1.6715 -0.7966
 2738TIP3    H2 8179   4.442   5.607   3.265  1.4554  0.9994 -0.0555
 2739TIP3   OH2 8180   2.868   0.319   2.390  0.0449  0.2860  0.0390
 2739TIP3    H1 8181   2.916   0.361   2.461 -0.0811  1.1387 -0.3672
 2739TIP3    H2 8182   2.918   0.240   2.371  1.5819  1.3713 -0.6762
 2740TIP3   OH2 8183   3.651   6.206   4.242 -0.1768 -0.4353  0.4707
 2740TIP3    H1 8184   3.743   6.183   4.234 -0.1686 -1.0581  1.9696
 2740TIP3    H2 8185   3.650   6.285   4.298 -0.5345 -0.3062  0.2865
 2741TIP3   OH2 8186   6.242   3.138   2.493  0.3672 -0.0595 -0.0304
 2741TIP3    H1 8187   6.230   3.046   2.515 -0.6108 -0.2329 -1.1762
 2741TIP3    H2 8188   6.160   3.180   2.519  0.1836  0.1790 -0.9491
 2742TIP3   OH2 8189   3.506   1.509   5.854  0.3495  0.1769  0.1194
 2742TIP3    H1 8190   3.528   1.522   5.946 -1.2850 -0.4312  0.6285
 2742TIP3    H2 8191   3.508   1.414   5.843  0.4412  0.2434 -0.4560
 2743TIP3   OH2 8192   3.107   4.724   4.830 -0.1270 -0.4425  0.5709
 2743TIP3    H1 8193   3.152   4.804   4.802 -0.0116  0.4417  3.0096
 2743TIP3    H2 8194   3.175   4.673   4.875 -0.5534 -1.2049  0.3649
 2744TIP3   OH2 8195   0.734   4.316   0.683 -0.1867 -0.3159 -0.4068
 2744TIP3    H1 8196   0.678   4.316   0.761  0.5666 -0.0257  0.1513
 2744TIP3    H2 8197   0.797   4.387   0.699  0.9509 -1.2621 -0.5631
 2745TIP3   OH2 8198   4.115   3.876   1.085  0.5223  0.7196 -0.3333
 2745TIP3    H1 8199   4.120   3.965   1.118  0.8186  0.6356 -0.1460
 2745TIP3    H2 8200   4.119   3.885   0.990  0.5813  0.9041 -0.3136
 2746TIP3   OH2 8201   3.594   0.481   3.249  0.1245 -0.0748 -0.2972
 2746TIP3    H1 8202   3.561   0.404   3.203  1.4942 -1.1700  0.4689
 2746TIP3    H2 8203   3.522   0.507   3.307  0.4715 -2.3414  1.2738
 2747TIP3   OH2 8204   0.610   4.518   2.752 -0.2222 -0.2191  0.5943
 2747TIP3    H1 8205   0.572   4.606   2.752 -0.9782 -0.5355  1.0049
 2747TIP3    H2 8206   0.676   4.521   2.683 -0.1897  0.6868  0.6454
 2748TIP3   OH2 8207   3.721   4.458   0.108  0.6295  0.5078  0.0502
 2748TIP3    H1 8208   3.748   4.400   0.037 -2.1796 -0.7468 -0.1206
 2748TIP3    H2 8209   3.735   4.546   0.073  2.1986 -0.0444 -0.8210
 2749TIP3   OH2 8210   0.527   6.411   1.340 -0.1441 -0.3898 -0.4448
 2749TIP3    H1 8211   0.539   6.461   1.260 -1.4052 -0.1171 -0.4723
 2749TIP3    H2 8212   0.464   6.342   1.318  0.7626 -1.3615 -0.1251
 2750TIP3   OH2 8213   3.347   6.337   5.118 -0.5749 -0.1297  0.2631
 2750TIP3    H1 8214   3.261   6.295   5.114 -1.6040  1.7563  1.4465
 2750TIP3    H2 8215   3.361   6.354   5.212 -0.8682  3.3542 -0.2002
 2751TIP3   OH2 8216   5.374   2.004   3.714  0.0166  0.3654  0.0812
 2751TIP3    H1 8217   5.281   2.004   3.739 -0.3209  0.1248 -1.1370
 2751TIP3    H2 8218   5.414   2.070   3.770 -0.5847 -0.6011  1.7256
 2752TIP3   OH2 8219   3.990   2.082   5.529  0.2634 -0.3728  0.0540
 2752TIP3    H1 8220   3.907   2.037   5.544  0.1867 -0.6236 -1.0338
 2752TIP3    H2 8221   3.980   2.123   5.443  1.0688  0.0531  0.1505
 2753TIP3   OH2 8222   4.887   1.705   1.953 -0.3435  0.9280 -0.2141
 2753TIP3    H1 8223   4.862   1.699   1.861  1.0589 -1.3333 -0.5382
 2753TIP3    H2 8224   4.815   1.664   2.000  0.4170 -1.0674 -0.6818
 2754TIP3   OH2 8225   5.919   4.107   3.622  0.0126  0.2238  0.3129
 2754TIP3    H1 8226   5.888   4.063   3.701  1.1629  0.3946  0.8883
 2754TIP3    H2 8227   5.851   4.172   3.602 -0.2179  0.2906  1.2567
 2755TIP3   OH2 8228   5.692   2.821   0.149  0.2554  0.1598  0.3371
 2755TIP3    H1 8229   5.743   2.825   0.068  0.0088  0.2807  0.1829
 2755TIP3    H2 8230   5.755   2.799   0.217  0.4580  0.0073  0.1022
 2756TIP3   OH2 8231   2.959   0.777   5.346 -0.6534  0.2850  0.2052
 2756TIP3    H1 8232   2.997   0.864   5.360  0.0695 -0.2095  1.4520
 2756TIP3    H2 8233   3.016   0.736   5.281 -0.2945  0.3165  0.4978
 2757TIP3   OH2 8234   2.467   1.394   5.245 -0.2358  0.2683  0.0419
 2757TIP3    H1 8235   2.502   1.335   5.178  0.7801  0.1613  0.6389
 2757TIP3    H2 8236   2.402   1.447   5.199 -2.3808 -2.3420 -0.2186
 2758TIP3   OH2 8237   3.227   2.642   4.149  0.0936  0.1311  0.1705
 2758TIP3    H1 8238   3.218   2.702   4.075  2.7334  1.5126  0.8598
 2758TIP3    H2 8239   3.219   2.698   4.226 -0.1046 -0.8706  0.8928
 2759TIP3   OH2 8240   0.044   1.695   4.526 -0.0897  0.1512  0.1780
 2759TIP3    H1 8241   0.013   1.617   4.573  0.4734 -0.9585 -1.2029
 2759TIP3    H2 8242  -0.034   1.749   4.515 -0.5930 -0.4433  0.7315
 2760TIP3   OH2 8243   2.455   1.328   0.901 -0.1687 -1.1173 -0.6207
 2760TIP3    H1 8244   2.371   1.295   0.932 -0.3496 -0.3058 -0.2288
 2760TIP3    H2 8245   2.520   1.286   0.956 -0.3836 -0.9831 -0.2635
 2761TIP3   OH2 8246   0.375   0.612   4.942  0.2926 -0.1075 -0.3189
 2761TIP3    H1 8247   0.420   0.648   5.018 -1.0112 -0.2525  0.5564
 2761TIP3    H2 8248   0.438   0.552   4.902  1.8858  1.8107 -0.8140
 2762TIP3   OH2 8249   0.067   1.625   2.810  0.3343 -0.2772  1.0986
 2762TIP3    H1 8250   0.138   1.590   2.863  1.3037  1.2725  0.8950
 2762TIP3    H2 8251   0.073   1.720   2.822 -0.4543  0.0097 -0.4763
 2763TIP3   OH2 8252   0.756   1.590   2.639 -0.6843  0.2348 -0.2228
 2763TIP3    H1 8253   0.757   1.624   2.549 -1.2757 -0.6291 -0.5747
 2763TIP3    H2 8254   0.755   1.667   2.694  0.2277  0.7920 -0.9473
 2764TIP3   OH2 8255   3.375   2.698   3.664 -0.2908 -0.1776  0.8486
 2764TIP3    H1 8256   3.418   2.736   3.587 -0.8233  0.2583  0.7519
 2764TIP3    H2 8257   3.444   2.688   3.729 -0.0274  0.4322  0.6664
 2765TIP3   OH2 8258   5.026   0.868   1.787  0.1837  0.2994 -0.1475
 2765TIP3    H1 8259   5.072   0.889   1.706 -2.1569  0.4885 -1.5346
 2765TIP3    H2 8260   4.991   0.781   1.772 -1.3862  0.8555  0.0548
 2766TIP3   OH2 8261   0.636   0.367   5.489 -0.3866  0.2163  0.5344
 2766TIP3    H1 8262   0.649   0.459   5.466 -0.0739  0.1528  0.4569
 2766TIP3    H2 8263   0.662   0.318   5.411  0.8269 -0.0038  1.0505
 2767TIP3   OH2 8264   0.405   6.046   5.538 -1.0003 -0.2852 -0.1239
 2767TIP3    H1 8265   0.488   5.998   5.541 -0.6181  0.3599 -0.3353
 2767TIP3    H2 8266   0.429   6.135   5.515 -1.6478  0.1617  0.8554
 2768TIP3   OH2 8267   1.218   0.220   4.046 -1.0751  0.0892  0.1264
 2768TIP3    H1 8268   1.154   0.239   4.115 -1.5562 -2.1564  0.3768
 2768TIP3    H2 8269   1.220   0.125   4.040 -1.1453  0.1808 -3.1008
 2769TIP3   OH2 8270   4.082   6.067   4.779  0.0370 -0.2349  0.7004
 2769TIP3    H1 8271   4.024   6.107   4.715  0.4563  1.8714  1.5520
 2769TIP3    H2 8272   4.082   5.974   4.757 -2.7433 -0.1521 -0.0210
 2770TIP3   OH2 8273   1.342   0.078   3.259 -0.7916 -0.7039 -0.0961
 2770TIP3    H1 8274   1.370  -0.006   3.223  0.5270 -0.0448 -0.6964
 2770TIP3    H2 8275   1.411   0.139   3.232 -1.3492  0.4211  0.9547
 2771TIP3   OH2 8276   1.671   6.595   1.015  0.1149  0.7970 -0.1206
 2771TIP3    H1 8277   1.709   6.510   0.992  0.6887  1.1448 -0.4979
 2771TIP3    H2 8278   1.684   6.602   1.109 -1.3554 -0.2109  0.1896
 2772TIP3   OH2 8279   5.882   6.244   4.404  0.3178  0.1324 -0.6103
 2772TIP3    H1 8280   5.882   6.245   4.499 -0.1480  0.2572 -0.6077
 2772TIP3    H2 8281   5.927   6.325   4.379 -0.7053  0.7585 -0.4848
 2773TIP3   OH2 8282   6.965   0.668   1.115  0.0535  0.2083 -0.3025
 2773TIP3    H1 8283   7.007   0.687   1.031 -0.2826  1.9034 -0.1360
 2773TIP3    H2 8284   7.021   0.710   1.180 -0.0041 -0.5766  0.2628
 2774TIP3   OH2 8285   5.650   3.373   0.711 -0.0310  0.3174 -0.5422
 2774TIP3    H1 8286   5.613   3.375   0.799  1.9283 -0.0029  0.3644
 2774TIP3    H2 8287   5.576   3.355   0.653 -1.2305 -0.3846  1.1365
 2775TIP3   OH2 8288   2.459   2.194   1.814 -0.1183 -0.3502 -0.6318
 2775TIP3    H1 8289   2.462   2.278   1.860  1.3866 -1.3398  1.2188
 2775TIP3    H2 8290   2.373   2.157   1.837 -0.9130  0.7627 -1.7033
 2776TIP3   OH2 8291   7.050   3.034   1.863  1.2140 -0.1709 -0.0270
 2776TIP3    H1 8292   6.969   3.057   1.907  0.3854 -1.0802 -1.0015
 2776TIP3    H2 8293   7.090   2.968   1.920  1.9890  1.2505  1.1409
 2777TIP3   OH2 8294   5.877   3.156   5.426 -0.2236  0.5390 -1.0474
 2777TIP3    H1 8295   5.946   3.147   5.360  0.9664  0.6465  0.1317
 2777TIP3    H2 8296   5.916   3.121   5.506 -1.9950 -0.5301 -0.6183
 2778TIP3   OH2 8297   4.441   6.452   0.867  0.0356 -0.3753  0.1313
 2778TIP3    H1 8298   4.363   6.507   0.855 -0.6948 -1.5464 -0.6720
 2778TIP3    H2 8299   4.470   6.472   0.956  0.1932  1.7878 -0.3417
 2779TIP3   OH2 8300   3.326   1.504   1.472  0.3098 -0.0724 -0.4192
 2779TIP3    H1 8301   3.334   1.410   1.456  1.2842  0.3027 -2.4581
 2779TIP3    H2 8302   3.368   1.517   1.557 -0.6169 -1.5587  0.3202
 2780TIP3   OH2 8303   0.464   2.750   1.618 -0.1569  0.0861  0.1649
 2780TIP3    H1 8304   0.541   2.806   1.625 -0.3078  0.4564 -0.9618
 2780TIP3    H2 8305   0.461   2.702   1.701  0.9131  0.5367  0.4731
 2781TIP3   OH2 8306   6.177   3.146   4.790  0.0514  0.1708 -0.5076
 2781TIP3    H1 8307   6.231   3.167   4.714  3.1900 -0.4012  1.3798
 2781TIP3    H2 8308   6.183   3.224   4.846  2.4270 -1.2671  1.4794
 2782TIP3   OH2 8309   0.756   3.905   0.694 -0.1775 -0.0552  0.2722
 2782TIP3    H1 8310   0.810   3.830   0.720 -1.6419 -0.7582  1.4003
 2782TIP3    H2 8311   0.681   3.902   0.752 -0.1869  2.4401  0.5081
 2783TIP3   OH2 8312   6.151   1.066   0.923  0.2465  0.2509  0.3250
 2783TIP3    H1 8313   6.242   1.094   0.920  0.6676 -1.0844  0.1748
 2783TIP3    H2 8314   6.146   1.010   1.000 -0.2768 -0.2551 -0.0722
 2784TIP3   OH2 8315   1.883   4.935   4.001 -0.0451  0.3682 -0.2719
 2784TIP3    H1 8316   1.824   4.916   3.928  0.1255  0.1389 -0.3515
 2784TIP3    H2 8317   1.955   4.984   3.960 -0.5240  1.2823 -0.0562
 2785TIP3   OH2 8318   0.168   5.461   2.460 -0.0809 -0.5707 -0.2923
 2785TIP3    H1 8319   0.214   5.385   2.495  0.8266 -0.1452 -0.5065
 2785TIP3    H2 8320   0.162   5.445   2.366  1.6852  0.3591 -0.6257
 2786TIP3   OH2 8321   6.074   4.325   3.961  0.2017  0.3628 -0.2009
 2786TIP3    H1 8322   6.003   4.295   4.019  0.7213  1.1653  0.8908
 2786TIP3    H2 8323   6.061   4.419   3.955  0.7705  0.4203 -0.5575
 2787TIP3   OH2 8324   0.492   2.208   3.816  0.2508 -0.2364 -0.2954
 2787TIP3    H1 8325   0.504   2.283   3.875  0.6817 -2.1044  2.1979
 2787TIP3    H2 8326   0.581   2.182   3.793  0.2648 -1.4064  0.9175
 2788TIP3   OH2 8327   6.206   3.080   1.830 -0.0702 -0.4837  0.1466
 2788TIP3    H1 8328   6.269   3.081   1.903 -1.5687  0.2985  1.4969
 2788TIP3    H2 8329   6.171   3.169   1.828  0.4192 -0.2833 -2.0352
 2789TIP3   OH2 8330   5.378   5.286   0.097 -0.0317  0.0782 -0.3341
 2789TIP3    H1 8331   5.389   5.365   0.044 -1.1630  0.1783 -0.4642
 2789TIP3    H2 8332   5.299   5.303   0.148 -0.8239 -1.3191 -1.0282
 2790TIP3   OH2 8333   4.540   6.190   4.889  0.2982 -1.0074 -0.0902
 2790TIP3    H1 8334   4.487   6.130   4.836 -1.3041  0.2064  0.0421
 2790TIP3    H2 8335   4.587   6.134   4.950  1.7658 -2.4022 -2.3706
 2791TIP3   OH2 8336   5.913   1.874   1.579  0.4407 -0.8146  0.7524
 2791TIP3    H1 8337   5.998   1.848   1.544 -0.0588  0.5359 -1.6736
 2791TIP3    H2 8338   5.932   1.951   1.633  0.6663  0.5699 -1.1681
 2792TIP3   OH2 8339   1.114   1.402   5.430 -0.3548  0.3916 -0.3342
 2792TIP3    H1 8340   1.039   1.433   5.378  0.3114  2.6654 -0.0437
 2792TIP3    H2 8341   1.101   1.441   5.516  0.5963 -0.0804  0.0304
 2793TIP3   OH2 8342   2.095   1.980   4.479  0.1735  0.3609 -0.9956
 2793TIP3    H1 8343   2.138   1.917   4.422  0.0303 -0.3343 -0.3430
 2793TIP3    H2 8344   2.032   2.024   4.422 -0.7707 -1.1123 -1.1444
 2794TIP3   OH2 8345   0.722   5.303   2.382 -0.3354 -0.7526  0.2809
 2794TIP3    H1 8346   0.771   5.254   2.316  0.4778 -0.6342  0.7755
 2794TIP3    H2 8347   0.790   5.342   2.438 -0.9459  0.9571 -0.1087
 2795TIP3   OH2 8348   1.815   5.419   5.146  0.1753  0.8113  0.2743
 2795TIP3    H1 8349   1.801   5.442   5.238 -1.7469  0.2402  0.1792
 2795TIP3    H2 8350   1.895   5.465   5.121  0.3919  1.4689  2.0571
 2796TIP3   OH2 8351   0.691   2.951   4.200 -0.1969  0.0769 -0.5780
 2796TIP3    H1 8352   0.762   3.006   4.231  0.1672 -0.7750  0.1482
 2796TIP3    H2 8353   0.662   2.992   4.118  1.9731 -0.2618 -1.5751
 2797TIP3   OH2 8354   5.769   2.941   4.494  0.6806  0.2392 -0.4348
 2797TIP3    H1 8355   5.850   2.916   4.539 -0.0132  1.2960  1.5503
 2797TIP3    H2 8356   5.705   2.876   4.523  0.7355 -0.4447 -1.7971
 2798TIP3   OH2 8357   5.865   6.672   2.189 -0.9318  0.5257 -0.3897
 2798TIP3    H1 8358   5.806   6.712   2.253 -1.8139 -0.6161 -0.4548
 2798TIP3    H2 8359   5.931   6.739   2.172 -0.6120  0.8329  1.7663
 2799TIP3   OH2 8360   5.756   2.201   4.459  0.9010  0.3090  0.2367
 2799TIP3    H1 8361   5.668   2.165   4.463 -0.0564  2.5467  3.4203
 2799TIP3    H2 8362   5.814   2.125   4.463 -0.8973 -1.0849  1.0407
 2800TIP3   OH2 8363   4.449   2.853   1.314  0.9926  0.4902 -0.0082
 2800TIP3    H1 8364   4.422   2.820   1.400  2.3636 -1.3805 -0.2036
 2800TIP3    H2 8365   4.383   2.918   1.291 -2.3833 -2.5476  0.2016
 2801TIP3   OH2 8366   4.983   1.188   1.539 -0.3077 -0.2396 -0.5603
 2801TIP3    H1 8367   4.963   1.171   1.630  1.1102  1.0012  0.0394
 2801TIP3    H2 8368   4.902   1.224   1.503 -0.3262  1.1501  0.7644
 2802TIP3   OH2 8369   1.400   1.657   2.288 -0.1376  0.0114  0.0538
 2802TIP3    H1 8370   1.366   1.652   2.377 -0.2027  0.3014  0.0479
 2802TIP3    H2 8371   1.489   1.622   2.294 -0.6520 -1.3360 -0.0520
 2803TIP3   OH2 8372   4.722   5.521   4.383  0.3297 -0.3721  0.6663
 2803TIP3    H1 8373   4.719   5.425   4.381 -0.4556 -0.3327 -0.7228
 2803TIP3    H2 8374   4.661   5.545   4.452 -1.8109 -0.8066 -1.0006
 2804TIP3   OH2 8375   4.124   2.294   2.326 -0.1392  0.6818 -0.0350
 2804TIP3    H1 8376   4.140   2.202   2.302  2.2286  1.2424 -0.8508
 2804TIP3    H2 8377   4.071   2.288   2.405 -0.7743 -1.3743 -0.5365
 2805TIP3   OH2 8378   2.490   6.113   0.699  0.0869 -0.0155  0.3813
 2805TIP3    H1 8379   2.407   6.117   0.653  0.4177  0.4553 -0.1854
 2805TIP3    H2 8380   2.469   6.137   0.789 -0.8886 -2.7427  0.9813
 2806TIP3   OH2 8381   3.340   2.174   1.333  0.2910 -0.4264  0.2412
 2806TIP3    H1 8382   3.391   2.094   1.341 -1.3240 -1.3075  2.4470
 2806TIP3    H2 8383   3.365   2.227   1.408 -0.7428 -0.1281  0.3951
 2807TIP3   OH2 8384   3.972   1.478   5.553 -0.1368  0.3860  0.2485
 2807TIP3    H1 8385   4.039   1.510   5.614 -0.9918  0.6696  1.0532
 2807TIP3    H2 8386   3.919   1.418   5.605 -1.0386  0.8265 -0.1532
 2808TIP3   OH2 8387   1.256   0.756   3.404  0.2773 -0.1950  0.3850
 2808TIP3    H1 8388   1.225   0.666   3.413 -0.0078 -0.0231  1.2091
 2808TIP3    H2 8389   1.331   0.750   3.344  0.3005 -0.9832  0.4854
 2809TIP3   OH2 8390   2.977   3.112   2.876 -0.1362 -0.3560  0.0746
 2809TIP3    H1 8391   2.994   3.068   2.959 -0.4555 -1.9731 -0.6822
 2809TIP3    H2 8392   2.886   3.142   2.882 -0.4789 -1.3195 -0.0194
 2810TIP3   OH2 8393   6.974   1.131   2.040  0.1872 -0.3257  0.5200
 2810TIP3    H1 8394   6.989   1.067   2.109  0.1168 -1.7725 -0.7489
 2810TIP3    H2 8395   7.060   1.173   2.027  0.1972 -0.0337  1.4640
 2811TIP3   OH2 8396   2.645   6.071   4.831  0.2531  0.5218 -0.1007
 2811TIP3    H1 8397   2.639   6.080   4.926  1.8354  1.3498 -0.0513
 2811TIP3    H2 8398   2.699   5.993   4.818 -0.6655 -0.0969 -0.3628
 2812TIP3   OH2 8399   3.336   3.328   0.935  0.0872 -0.5048 -0.1591
 2812TIP3    H1 8400   3.307   3.299   0.848  0.2835 -1.1572 -0.0165
 2812TIP3    H2 8401   3.270   3.294   0.995 -0.6327  0.8732 -0.1429
 2813TIP3   OH2 8402   2.541   6.674   0.940  0.0325 -0.0848 -0.0783
 2813TIP3    H1 8403   2.607   6.736   0.969  2.5937 -2.2610 -0.8522
 2813TIP3    H2 8404   2.574   6.641   0.857 -2.5704 -0.5897 -1.0052
 2814TIP3   OH2 8405   4.873   6.082   4.575  0.3733 -0.0791  0.4798
 2814TIP3    H1 8406   4.950   6.025   4.569  0.7354  0.4776 -0.4068
 2814TIP3    H2 8407   4.890   6.151   4.510 -0.2329  0.8234  1.2684
 2815TIP3   OH2 8408   2.096   4.911   4.274 -0.2090 -0.0863  0.0396
 2815TIP3    H1 8409   2.065   4.856   4.346  0.5903 -0.4087  0.1466
 2815TIP3    H2 8410   2.031   4.899   4.205 -2.5570  2.3707  1.6115
 2816TIP3   OH2 8411   4.794   5.126   5.664 -0.0658  0.5525 -0.2852
 2816TIP3    H1 8412   4.785   5.076   5.745  1.0246 -1.9148 -1.5582
 2816TIP3    H2 8413   4.887   5.144   5.657 -0.2047  1.1044 -0.7929
 2817TIP3   OH2 8414   3.068   3.742   3.187  0.3718 -0.4883  0.4520
 2817TIP3    H1 8415   2.996   3.750   3.249  0.4969  0.5455  0.4906
 2817TIP3    H2 8416   3.127   3.678   3.226  0.1925 -0.2370  1.1476
 2818TIP3   OH2 8417   4.883   0.608   0.005  0.6619  0.2448 -0.0119
 2818TIP3    H1 8418   4.830   0.531  -0.013 -0.9807  1.1309  0.7870
 2818TIP3    H2 8419   4.951   0.578   0.066  0.2232 -0.6121  0.0580
 2819TIP3   OH2 8420   6.502   6.347   4.224 -0.3429 -0.5535  0.2824
 2819TIP3    H1 8421   6.561   6.421   4.214 -1.0291 -0.0349 -0.0101
 2819TIP3    H2 8422   6.421   6.374   4.181 -0.5714 -1.5141  0.0689
 2820TIP3   OH2 8423   4.229   5.982   0.155 -0.3039  0.1029 -0.5447
 2820TIP3    H1 8424   4.142   6.023   0.155 -0.4164 -0.1257 -0.2770
 2820TIP3    H2 8425   4.254   5.980   0.248  0.6431  1.5167 -0.7476
 2821TIP3   OH2 8426   6.812   0.905   3.402  0.5128 -0.2547  0.0010
 2821TIP3    H1 8427   6.852   0.992   3.411  0.7379 -0.2768 -0.7529
 2821TIP3    H2 8428   6.809   0.871   3.492 -1.0034  1.1427  0.5094
 2822TIP3   OH2 8429   2.639   5.315   1.831  0.1647  0.2499  0.0117
 2822TIP3    H1 8430   2.658   5.271   1.748  1.7573 -1.1532  1.0305
 2822TIP3    H2 8431   2.688   5.397   1.827  0.1268  0.2489 -0.4788
 2823TIP3   OH2 8432   3.952   3.413   2.957  0.5223 -0.3990 -0.1180
 2823TIP3    H1 8433   3.913   3.487   3.003 -0.7858 -1.0741 -0.1107
 2823TIP3    H2 8434   3.948   3.340   3.019 -0.8262 -1.1926 -1.0840
 2824TIP3   OH2 8435   6.812   5.895   0.987 -0.2454  0.1961 -0.5167
 2824TIP3    H1 8436   6.857   5.978   1.002  0.7557 -0.4557  0.2487
 2824TIP3    H2 8437   6.877   5.841   0.942 -0.5279 -0.5010 -0.1109
 2825TIP3   OH2 8438   4.153   2.285   4.153 -0.7175 -0.2789 -0.0161
 2825TIP3    H1 8439   4.179   2.307   4.064 -1.4100 -2.6028 -0.8690
 2825TIP3    H2 8440   4.088   2.216   4.142 -1.5691  0.0799  2.2794
 2826TIP3   OH2 8441   1.037   1.907   3.091  0.2008  0.4229 -0.1822
 2826TIP3    H1 8442   1.003   1.977   3.035  2.7294  0.8730 -1.3148
 2826TIP3    H2 8443   1.088   1.953   3.157 -0.3220 -0.2648  0.7162
 2827TIP3   OH2 8444   4.807   1.461   5.131  0.1271  0.0503  0.0998
 2827TIP3    H1 8445   4.884   1.445   5.185  0.5323  1.2211 -0.1124
 2827TIP3    H2 8446   4.735   1.420   5.180  1.0070 -2.0149 -0.2301
 2828TIP3   OH2 8447   1.859   0.673   3.538 -0.6824 -0.5181  0.3474
 2828TIP3    H1 8448   1.782   0.616   3.543 -0.5903 -0.5679  1.5798
 2828TIP3    H2 8449   1.860   0.718   3.622  0.6970 -0.5971  0.3955
 2829TIP3   OH2 8450   0.756   0.663   1.732 -0.2336 -0.0537  0.1594
 2829TIP3    H1 8451   0.728   0.679   1.822 -2.2721 -0.1802 -0.3913
 2829TIP3    H2 8452   0.799   0.578   1.735 -1.3889 -0.6352  0.8311
 2830TIP3   OH2 8453   3.543   4.911   2.843 -0.0212 -0.8412  0.2841
 2830TIP3    H1 8454   3.514   4.993   2.883 -1.3497 -0.7688 -0.7405
 2830TIP3    H2 8455   3.571   4.857   2.916 -2.8071 -0.8894  1.4239
 2831TIP3   OH2 8456   1.030   5.437   4.012 -0.7663 -0.5700 -0.1168
 2831TIP3    H1 8457   1.025   5.409   3.921 -0.6859 -2.4105  0.4087
 2831TIP3    H2 8458   1.123   5.434   4.032 -0.8974 -1.5229  0.4015
 2832TIP3   OH2 8459   6.733   6.474   0.772 -0.0495  0.2700  0.3548
 2832TIP3    H1 8460   6.668   6.405   0.759  0.0562  0.4839 -1.5502
 2832TIP3    H2 8461   6.754   6.504   0.684  2.1908  0.6316  0.9567
 2833TIP3   OH2 8462   4.649   5.012   0.161  0.2081  0.5144 -0.1205
 2833TIP3    H1 8463   4.707   5.026   0.086 -0.4002  0.3938 -0.6138
 2833TIP3    H2 8464   4.708   5.009   0.236  1.0131 -1.1543 -0.7714
 2834TIP3   OH2 8465   2.362   5.252   5.704 -0.3635  0.0142 -0.0928
 2834TIP3    H1 8466   2.355   5.244   5.609  0.2572 -0.6357 -0.0922
 2834TIP3    H2 8467   2.272   5.243   5.736 -0.6227  0.6324 -0.6397
 2835TIP3   OH2 8468   3.934   6.175   4.191  0.0720 -0.2909  0.0456
 2835TIP3    H1 8469   4.020   6.204   4.159 -0.3610 -0.7831 -1.6887
 2835TIP3    H2 8470   3.954   6.102   4.250  0.8371 -1.7747 -1.9093
 2836TIP3   OH2 8471   2.038   2.072   4.777  0.2499  0.4066 -0.3411
 2836TIP3    H1 8472   2.012   2.108   4.692 -0.5260 -0.6810 -0.5925
 2836TIP3    H2 8473   2.133   2.074   4.776  0.2512  0.2550 -1.3097
 2837TIP3   OH2 8474   6.531   6.180   2.323 -0.1519  0.5364 -0.1433
 2837TIP3    H1 8475   6.438   6.201   2.318 -0.4617 -0.7953 -0.3814
 2837TIP3    H2 8476   6.536   6.107   2.385  0.7047  0.4221 -0.3307
 2838TIP3   OH2 8477   3.588   3.142   4.452 -0.3804  0.4750 -0.0291
 2838TIP3    H1 8478   3.642   3.154   4.374 -0.1974  0.6298  0.1184
 2838TIP3    H2 8479   3.524   3.076   4.428 -0.3339  0.5348 -0.3155
 2839TIP3   OH2 8480   3.106   0.466   3.517 -0.2276  0.1257  0.4157
 2839TIP3    H1 8481   3.088   0.393   3.576  0.5501 -1.0882 -0.7690
 2839TIP3    H2 8482   3.030   0.469   3.459 -0.4328  0.5155  0.7020
 2840TIP3   OH2 8483   6.029   2.918   4.594 -0.3878 -0.1864 -0.4520
 2840TIP3    H1 8484   6.083   2.849   4.556  0.6296 -0.4829  1.3818
 2840TIP3    H2 8485   6.092   2.981   4.628 -1.1342 -0.4862  1.6524
 2841TIP3   OH2 8486   3.053   3.840   3.672  0.1423  0.3585  0.7397
 2841TIP3    H1 8487   3.064   3.756   3.716  2.1172  0.3759  0.3550
 2841TIP3    H2 8488   2.961   3.840   3.645  0.4430 -2.4067 -0.6896
 2842TIP3   OH2 8489   0.249   1.036   0.867  0.0494  0.3140  0.0489
 2842TIP3    H1 8490   0.303   1.084   0.930  0.4822  0.1994 -0.2302
 2842TIP3    H2 8491   0.307   0.969   0.831 -0.4079 -0.1011  0.0684
 2843TIP3   OH2 8492   1.534   3.102   3.462 -0.2112  0.2887  0.1608
 2843TIP3    H1 8493   1.559   3.025   3.411  3.1067  2.5318 -2.0331
 2843TIP3    H2 8494   1.439   3.104   3.459 -0.2874 -1.0556 -4.0256
 2844TIP3   OH2 8495   4.351   4.352   5.583  0.5765 -0.4907 -0.1795
 2844TIP3    H1 8496   4.307   4.396   5.657  1.2009 -0.2595  0.0606
 2844TIP3    H2 8497   4.422   4.303   5.624  0.5494 -0.8564 -0.5693
 2845TIP3   OH2 8498   1.720   1.618   0.025 -0.9059  0.0015  0.6040
 2845TIP3    H1 8499   1.633   1.621  -0.015 -0.8796 -0.4732  0.5069
 2845TIP3    H2 8500   1.704   1.609   0.118 -0.9599 -0.3913  0.5575
 2846TIP3   OH2 8501   1.014   3.979   3.732 -0.0434  0.0045 -0.1433
 2846TIP3    H1 8502   1.101   4.004   3.699 -0.0265  0.0762 -0.0451
 2846TIP3    H2 8503   0.953   4.030   3.680 -0.0657 -0.6119 -0.7354
 2847TIP3   OH2 8504   3.746   1.592   4.428  0.3362  0.7448  0.4969
 2847TIP3    H1 8505   3.713   1.503   4.442 -1.0446  1.1951  0.2774
 2847TIP3    H2 8506   3.841   1.584   4.434  0.1976 -0.6018  1.3078
 2848TIP3   OH2 8507   3.096   6.689   5.457  0.0209 -0.7940 -0.3018
 2848TIP3    H1 8508   3.173   6.740   5.432  0.2833 -0.8607  0.3520
 2848TIP3    H2 8509   3.042   6.750   5.507 -0.7176 -0.5279 -1.3840
 2849TIP3   OH2 8510   5.864   4.409   2.052 -0.2757 -0.4799 -0.2593
 2849TIP3    H1 8511   5.816   4.476   2.101 -2.6694 -1.0768 -1.6546
 2849TIP3    H2 8512   5.929   4.376   2.115  0.4948  2.5441  0.7247
 2850TIP3   OH2 8513   6.762   3.474   4.989  0.4670 -0.1655 -0.1508
 2850TIP3    H1 8514   6.744   3.508   5.076  0.2284  1.6265 -0.8408
 2850TIP3    H2 8515   6.851   3.440   4.993  0.7362  0.6100  0.5990
 2851TIP3   OH2 8516   1.074   3.772   1.733 -0.2873 -0.2080  0.2280
 2851TIP3    H1 8517   1.037   3.692   1.697  0.8661 -0.8178  0.3607
 2851TIP3    H2 8518   1.023   3.788   1.813 -0.5464 -0.7914  0.1834
 2852TIP3   OH2 8519   6.838   0.617   3.332  0.4505 -0.1603 -0.0199
 2852TIP3    H1 8520   6.816   0.555   3.402  1.6212 -0.6830 -0.0906
 2852TIP3    H2 8521   6.825   0.703   3.372 -2.9298 -0.3150 -0.4387
 2853TIP3   OH2 8522   0.542   3.877   2.160  0.4030 -0.4572  0.1106
 2853TIP3    H1 8523   0.632   3.880   2.127  0.8949 -1.1926  1.3067
 2853TIP3    H2 8524   0.508   3.793   2.130  0.3587 -0.4902  0.2507
 2854TIP3   OH2 8525   4.785   2.710   5.700  0.3674  0.3087 -0.5344
 2854TIP3    H1 8526   4.788   2.783   5.638 -1.0417 -0.5694 -1.6716
 2854TIP3    H2 8527   4.745   2.638   5.652 -0.2675 -0.5772  1.2260
 2855TIP3   OH2 8528   4.317   3.465   5.445  0.4814  0.3258  0.2472
 2855TIP3    H1 8529   4.341   3.554   5.472 -0.3911  0.7858 -0.4565
 2855TIP3    H2 8530   4.324   3.413   5.525 -2.0127  1.6308  1.4327
 2856TIP3   OH2 8531   2.133   4.756   3.821  0.4099 -0.1278 -0.5319
 2856TIP3    H1 8532   2.215   4.720   3.787  0.5142  0.1222 -0.5442
 2856TIP3    H2 8533   2.157   4.840   3.859  0.3684 -0.5774  0.5155
 2857TIP3   OH2 8534   0.312   4.670   3.265 -0.0029 -0.2642  0.2859
 2857TIP3    H1 8535   0.233   4.623   3.291  0.2742 -0.2439  1.2044
 2857TIP3    H2 8536   0.377   4.601   3.250  0.7131 -0.1772  2.6807
 2858TIP3   OH2 8537   4.992   1.066   2.598  0.6286 -0.1522 -0.6431
 2858TIP3    H1 8538   5.064   1.122   2.627 -0.1715  0.6898 -0.2142
 2858TIP3    H2 8539   5.012   1.048   2.506  1.1092  0.5388 -0.6853
 2859TIP3   OH2 8540   3.166   3.433   2.905 -0.1956 -0.0995  0.4935
 2859TIP3    H1 8541   3.136   3.387   2.826 -0.5513  0.5463  0.2418
 2859TIP3    H2 8542   3.259   3.412   2.911  0.0633  0.6150 -0.6565
 2860TIP3   OH2 8543   2.600   1.891   5.163 -0.0648  0.5552  0.2366
 2860TIP3    H1 8544   2.694   1.874   5.159 -0.2187 -0.3390  0.3604
 2860TIP3    H2 8545   2.570   1.879   5.073 -0.8130 -3.7766  0.8522
 2861TIP3   OH2 8546   2.705   6.675   5.718  0.4768 -0.1492  0.5880
 2861TIP3    H1 8547   2.622   6.713   5.689 -0.1964 -2.3603 -0.5221
 2861TIP3    H2 8548   2.768   6.746   5.708 -0.5756  0.5258 -2.1007
 2862TIP3   OH2 8549   3.117   6.149   1.376 -0.0898 -0.1582  0.2590
 2862TIP3    H1 8550   3.113   6.226   1.319 -0.1159 -0.0070  0.4615
 2862TIP3    H2 8551   3.199   6.160   1.424 -0.5274  0.2131  0.9381
 2863TIP3   OH2 8552   3.579   3.708   3.150  0.2724 -0.2492  0.0937
 2863TIP3    H1 8553   3.508   3.643   3.150 -0.6741  0.7485 -0.1104
 2863TIP3    H2 8554   3.544   3.781   3.099  1.6328  0.0940 -0.3914
 2864TIP3   OH2 8555   0.344   2.021   4.214  0.3624 -0.4743  0.1548
 2864TIP3    H1 8556   0.352   2.074   4.293  1.9640 -2.1489  1.2082
 2864TIP3    H2 8557   0.305   1.939   4.244  0.9105 -1.1051 -0.8113
 2865TIP3   OH2 8558   0.086   4.909   3.062 -0.2899 -0.4830  0.0984
 2865TIP3    H1 8559   0.043   4.981   3.107  0.5481  1.6993 -2.2930
 2865TIP3    H2 8560   0.018   4.871   3.007 -0.5074 -0.8676  0.6341
 2866TIP3   OH2 8561   0.367   5.016   4.397  0.3618  0.0138 -0.4901
 2866TIP3    H1 8562   0.284   5.010   4.350  0.1374  1.0262 -0.2293
 2866TIP3    H2 8563   0.431   4.978   4.336  0.1624  1.7365 -1.8577
 2867TIP3   OH2 8564   0.442   4.214   4.893 -0.7007 -0.2962  0.6822
 2867TIP3    H1 8565   0.375   4.146   4.903 -1.5461  0.5925  1.2632
 2867TIP3    H2 8566   0.438   4.264   4.975  0.8354 -0.3443  0.8209
 2868TIP3   OH2 8567   3.712   6.529   5.380 -0.1268 -0.1695 -0.1035
 2868TIP3    H1 8568   3.703   6.449   5.432  0.1435  0.2454  0.5914
 2868TIP3    H2 8569   3.666   6.596   5.432  1.7587  0.6744  0.5670
 2869TIP3   OH2 8570   0.859   2.353   5.189  0.3315  0.3245 -0.5808
 2869TIP3    H1 8571   0.942   2.387   5.155  0.3830  0.4019 -0.3792
 2869TIP3    H2 8572   0.819   2.308   5.114  1.1638 -0.8411 -0.3575
 2870TIP3   OH2 8573   5.452   0.230   1.120 -0.0057 -0.1231  0.6520
 2870TIP3    H1 8574   5.464   0.260   1.210  0.5455 -0.3110  0.6384
 2870TIP3    H2 8575   5.518   0.277   1.070 -1.1584  1.0038  0.1130
 2871TIP3   OH2 8576   1.352   4.617   5.681 -0.1105  0.3432 -0.1478
 2871TIP3    H1 8577   1.328   4.526   5.665  1.7904 -0.4187  1.0741
 2871TIP3    H2 8578   1.282   4.651   5.738 -1.1413 -0.1337 -1.0892
 2872TIP3   OH2 8579   5.871   6.337   0.309 -1.1268  0.4639  0.3128
 2872TIP3    H1 8580   5.918   6.254   0.302  0.4743  1.3125  0.4739
 2872TIP3    H2 8581   5.843   6.356   0.219 -1.0383  0.0188  0.1852
 2873TIP3   OH2 8582   0.508   4.425   2.148 -0.4492 -0.1086  0.1937
 2873TIP3    H1 8583   0.595   4.384   2.147 -0.7962 -0.9189  1.2734
 2873TIP3    H2 8584   0.526   4.518   2.165  0.1987 -0.3251  0.7404
 2874TIP3   OH2 8585   4.485   5.022   1.902  0.3667  0.2493  0.0591
 2874TIP3    H1 8586   4.561   5.054   1.950  1.1232 -0.8281 -0.3651
 2874TIP3    H2 8587   4.467   5.091   1.837  3.2263 -0.9207 -2.2067
 2875TIP3   OH2 8588   1.512   2.056   3.830 -0.1620 -0.2188 -0.4243
 2875TIP3    H1 8589   1.443   1.995   3.857 -0.3137  0.2261  0.2077
 2875TIP3    H2 8590   1.468   2.140   3.821  0.2022 -0.0373 -0.5296
 2876TIP3   OH2 8591   6.338   0.333   5.341  0.6318 -0.4685  0.0330
 2876TIP3    H1 8592   6.256   0.298   5.305 -0.4999  0.4713  1.6172
 2876TIP3    H2 8593   6.403   0.264   5.323 -0.2691 -0.8456 -2.0521
 2877TIP3   OH2 8594   1.464   5.066   2.967  0.3714  0.0547  0.0879
 2877TIP3    H1 8595   1.472   5.124   3.042 -1.4963 -0.4261  0.7095
 2877TIP3    H2 8596   1.508   4.985   2.995 -1.3386 -0.5510  1.1874
 2878TIP3   OH2 8597   0.394   3.428   0.504  0.1505 -0.5890 -0.5595
 2878TIP3    H1 8598   0.437   3.423   0.419  1.1843 -1.3025 -0.0303
 2878TIP3    H2 8599   0.433   3.356   0.554 -0.4266 -0.1799  0.5112
 2879TIP3   OH2 8600   4.199   0.555   1.400  0.1448 -0.3345 -0.4788
 2879TIP3    H1 8601   4.152   0.477   1.431 -0.3489  0.0447 -0.2574
 2879TIP3    H2 8602   4.275   0.561   1.458  0.1947 -0.6621 -0.5061
 2880TIP3   OH2 8603   3.928   4.549   1.824  0.0691 -0.2991 -0.4619
 2880TIP3    H1 8604   3.896   4.602   1.898 -1.0496 -0.2296 -0.9756
 2880TIP3    H2 8605   4.022   4.567   1.821  0.0453  0.1074  0.6138
 2881TIP3   OH2 8606   5.693   5.529   5.549  0.1706  0.0677 -0.3222
 2881TIP3    H1 8607   5.749   5.549   5.623 -0.8271 -1.3126  0.8524
 2881TIP3    H2 8608   5.669   5.615   5.514 -0.2774  0.8066  1.6749
 2882TIP3   OH2 8609   5.851   3.530   0.804  0.0268  0.1388  0.4494
 2882TIP3    H1 8610   5.916   3.563   0.743  1.1792 -0.7747  1.1305
 2882TIP3    H2 8611   5.794   3.474   0.751 -0.0169  0.6905 -0.0941
 2883TIP3   OH2 8612   4.328   0.023   1.858 -0.3058 -0.1865  0.1055
 2883TIP3    H1 8613   4.238  -0.010   1.857 -0.9477  1.4769  0.0395
 2883TIP3    H2 8614   4.322   0.108   1.901  0.8485  0.9561 -1.8524
 2884TIP3   OH2 8615   3.559   2.874   1.279 -0.3478 -0.4686 -0.6933
 2884TIP3    H1 8616   3.649   2.898   1.256 -0.4072  0.9047  0.3654
 2884TIP3    H2 8617   3.523   2.835   1.199  0.7258  0.3433 -1.6066
 2885TIP3   OH2 8618   3.216   6.540   0.480  0.0657 -0.0670 -0.3023
 2885TIP3    H1 8619   3.233   6.634   0.492 -0.6014 -0.0214  0.3933
 2885TIP3    H2 8620   3.122   6.531   0.496  0.3338 -1.0395  0.9273
 2886TIP3   OH2 8621   2.709   1.333   2.616 -0.0043  0.2208  0.1370
 2886TIP3    H1 8622   2.744   1.324   2.527 -1.0666  0.0590 -0.2731
 2886TIP3    H2 8623   2.787   1.334   2.672  0.7596  1.5760 -0.8825
 2887TIP3   OH2 8624   4.075   2.408   2.834 -0.3476  0.2358 -0.6923
 2887TIP3    H1 8625   4.074   2.448   2.921 -1.6267 -1.2721  0.0477
 2887TIP3    H2 8626   4.143   2.456   2.786  0.1536  1.3320  1.0174
 2888TIP3   OH2 8627   3.000   4.386   4.413  0.3531 -0.1031 -0.7026
 2888TIP3    H1 8628   3.027   4.460   4.466  1.8624 -1.3906  0.4516
 2888TIP3    H2 8629   3.080   4.335   4.400 -0.4531 -1.0916 -2.2025
 2889TIP3   OH2 8630   0.750   0.921   0.969 -0.1370  0.6189  0.4381
 2889TIP3    H1 8631   0.747   1.008   1.007  0.3042  0.7515  0.1685
 2889TIP3    H2 8632   0.827   0.921   0.913 -0.2317  0.1125  0.2988
 2890TIP3   OH2 8633   6.408   2.840   2.545  0.6233  0.7424  0.6499
 2890TIP3    H1 8634   6.349   2.783   2.594  1.2652 -0.5747 -0.0573
 2890TIP3    H2 8635   6.486   2.846   2.600  0.3837  1.3216  0.9320
 2891TIP3   OH2 8636   1.466   2.461   5.054  0.1907  0.5496 -0.1524
 2891TIP3    H1 8637   1.523   2.523   5.100  0.8689 -1.5793  2.1014
 2891TIP3    H2 8638   1.509   2.447   4.970  1.8583  0.6402  0.6335
 2892TIP3   OH2 8639   1.632   2.134   4.122  0.0906  0.0804  0.4434
 2892TIP3    H1 8640   1.543   2.134   4.157  0.1540 -1.3583  0.6663
 2892TIP3    H2 8641   1.667   2.047   4.143  1.4654  0.5239  0.1404
 2893TIP3   OH2 8642   0.410   0.164   1.307 -0.2410 -0.2787 -0.1401
 2893TIP3    H1 8643   0.333   0.117   1.275  0.5807 -1.4442 -0.5103
 2893TIP3    H2 8644   0.375   0.232   1.365 -1.5846 -0.1424 -1.0671
 2894TIP3   OH2 8645   2.815   5.390   2.519 -0.2821 -0.1626  0.3434
 2894TIP3    H1 8646   2.870   5.317   2.547 -2.5156 -0.7722  3.8651
 2894TIP3    H2 8647   2.865   5.468   2.540 -0.0074 -0.7055  1.8192
 2895TIP3   OH2 8648   2.554   1.067   3.176  0.5973  0.1439 -0.6101
 2895TIP3    H1 8649   2.506   1.100   3.252  0.6884  0.7253 -0.8021
 2895TIP3    H2 8650   2.552   1.139   3.113  0.7986 -0.2188 -1.0374
 2896TIP3   OH2 8651   6.854   0.613   5.571 -0.0621 -0.1053 -0.9130
 2896TIP3    H1 8652   6.776   0.669   5.571  0.0263  0.0199 -0.4732
 2896TIP3    H2 8653   6.822   0.527   5.598  0.2439  0.3698  1.0498
 2897TIP3   OH2 8654   6.850   5.636   3.434  0.5646 -0.6352  0.4572
 2897TIP3    H1 8655   6.769   5.608   3.478  0.3403  0.3145  0.6758
 2897TIP3    H2 8656   6.886   5.556   3.398 -0.5080 -1.0735  0.3118
 2898TIP3   OH2 8657   2.334   4.617   5.159  0.2573 -0.0703 -1.1211
 2898TIP3    H1 8658   2.311   4.598   5.250  0.4659 -2.0462 -1.4304
 2898TIP3    H2 8659   2.393   4.546   5.134  1.7020  1.4334 -2.2647
 2899TIP3   OH2 8660   4.089   5.272   3.736  0.2173 -0.0430 -0.0956
 2899TIP3    H1 8661   4.020   5.225   3.783  1.6548 -1.3967  0.7292
 2899TIP3    H2 8662   4.059   5.272   3.645 -0.9435 -0.4450  0.2639
 2900TIP3   OH2 8663   1.494   3.231   1.320 -0.3376  0.1328  0.4295
 2900TIP3    H1 8664   1.408   3.273   1.308 -1.1023 -1.2587  0.8251
 2900TIP3    H2 8665   1.553   3.304   1.341 -1.2972  1.1914 -0.3786
 2901TIP3   OH2 8666   5.076   0.197   2.326 -0.0031 -0.0289  0.5710
 2901TIP3    H1 8667   5.032   0.160   2.249  3.3278 -1.5945 -0.7972
 2901TIP3    H2 8668   5.074   0.292   2.312 -0.3325 -0.2331 -0.9349
 2902TIP3   OH2 8669   6.943   6.284   0.732 -0.9011  0.3658 -0.0223
 2902TIP3    H1 8670   6.921   6.253   0.820  0.7712  0.8659  0.6159
 2902TIP3    H2 8671   6.936   6.379   0.738 -0.5318  0.4170 -0.3372
 2903TIP3   OH2 8672   5.136   0.957   4.607 -0.5248 -0.0984 -0.1252
 2903TIP3    H1 8673   5.085   0.974   4.686 -2.7057 -0.2749 -1.4209
 2903TIP3    H2 8674   5.146   0.862   4.606 -2.3094 -0.3188 -1.0600
 2904TIP3   OH2 8675   4.262   1.732   0.691 -0.5973  0.2292 -0.1292
 2904TIP3    H1 8676   4.249   1.818   0.650 -0.7676  0.5731  0.6267
 2904TIP3    H2 8677   4.355   1.714   0.680 -0.6663  0.2520 -0.7836
 2905TIP3   OH2 8678   1.606   1.992   1.657  0.0717 -0.2937 -0.0630
 2905TIP3    H1 8679   1.614   1.991   1.562  1.2939 -1.3327  0.0041
 2905TIP3    H2 8680   1.650   2.072   1.684 -0.8439  0.3314 -0.3925
 2906TIP3   OH2 8681   5.253   2.806   1.823  0.4578  0.2945  0.4286
 2906TIP3    H1 8682   5.308   2.867   1.872 -1.5798  1.9350  0.8011
 2906TIP3    H2 8683   5.302   2.789   1.742  0.9275  2.7381  0.1433
 2907TIP3   OH2 8684   4.712   6.238   1.329  0.1464  0.0216 -0.1460
 2907TIP3    H1 8685   4.688   6.320   1.372  1.3857  0.6160 -0.5358
 2907TIP3    H2 8686   4.658   6.172   1.372  0.1643  0.8318  1.1853
 2908TIP3   OH2 8687   3.064   3.619   1.301 -0.0316  0.3161 -0.4276
 2908TIP3    H1 8688   3.014   3.542   1.274 -0.3838  0.3209  0.2154
 2908TIP3    H2 8689   3.014   3.657   1.372  0.8475  0.3632  0.1771
 2909TIP3   OH2 8690   3.333   5.942   1.805 -0.2090 -0.4385 -0.1155
 2909TIP3    H1 8691   3.281   5.955   1.885  1.8857 -1.2820  1.4587
 2909TIP3    H2 8692   3.372   6.027   1.788  2.3924 -1.0598  2.0903
 2910TIP3   OH2 8693   4.638   0.639   0.819 -0.1026  0.4113 -0.6308
 2910TIP3    H1 8694   4.731   0.659   0.835  0.5311 -1.6273 -1.4766
 2910TIP3    H2 8695   4.622   0.673   0.731  0.1288 -0.1096 -0.8775
 2911TIP3   OH2 8696   6.961   3.172   0.366 -0.0915 -0.3572 -0.3620
 2911TIP3    H1 8697   6.892   3.212   0.313  1.0147 -1.0241 -2.4185
 2911TIP3    H2 8698   7.005   3.246   0.408  0.7378  0.5388 -2.6271
 2912TIP3   OH2 8699   3.914   5.375   1.469  0.3449  0.2095 -0.4959
 2912TIP3    H1 8700   3.997   5.340   1.435  0.0618  0.1172 -1.0966
 2912TIP3    H2 8701   3.847   5.319   1.431  0.0437 -0.3005  0.7283
 2913TIP3   OH2 8702   1.542   2.662   1.517 -0.0920  0.2809 -0.4561
 2913TIP3    H1 8703   1.509   2.747   1.487 -1.1312 -0.5829 -1.9132
 2913TIP3    H2 8704   1.493   2.644   1.597 -0.5360  0.6563 -0.6371
 2914TIP3   OH2 8705   6.042   3.754   5.244 -0.6170  0.7606 -0.1758
 2914TIP3    H1 8706   5.985   3.700   5.190  0.7713 -0.5863 -0.3826
 2914TIP3    H2 8707   6.052   3.705   5.326 -0.8013  1.6192  0.3758
 2915TIP3   OH2 8708   5.108   5.766   4.155 -0.1222 -0.2384 -0.1008
 2915TIP3    H1 8709   5.201   5.790   4.155 -0.2292  0.5945 -3.1010
 2915TIP3    H2 8710   5.107   5.672   4.142  0.2974 -0.3560  0.6823
 2916TIP3   OH2 8711   4.730   3.428   0.435 -0.1840  0.0278 -0.0018
 2916TIP3    H1 8712   4.756   3.508   0.391 -0.3937  0.8756  1.3516
 2916TIP3    H2 8713   4.638   3.415   0.412  0.0199 -0.1820 -0.7196
 2917TIP3   OH2 8714   4.588   1.248   0.750  0.3630  0.0665  0.4848
 2917TIP3    H1 8715   4.540   1.265   0.831  2.3281  1.8129  1.3659
 2917TIP3    H2 8716   4.618   1.157   0.759 -0.8984 -0.3253  0.9039
 2918TIP3   OH2 8717   4.647   5.637   1.160 -0.4863  0.0364 -0.1469
 2918TIP3    H1 8718   4.595   5.558   1.147 -0.5321  0.4233 -2.8624
 2918TIP3    H2 8719   4.737   5.610   1.145 -0.0622 -0.1293  2.2516
 2919TIP3   OH2 8720   5.743   0.770   4.466  0.8460 -0.3723 -0.3995
 2919TIP3    H1 8721   5.796   0.839   4.427  0.7876 -0.8761 -1.3790
 2919TIP3    H2 8722   5.802   0.727   4.528  1.0607  0.1598 -0.2223
 2920TIP3   OH2 8723   0.162   4.856   5.019  0.1441  0.5356  0.2438
 2920TIP3    H1 8724   0.240   4.879   4.968 -0.7514  0.1232 -1.3791
 2920TIP3    H2 8725   0.161   4.760   5.018  0.3923  0.4939  1.5368
 2921TIP3   OH2 8726   0.771   6.307   0.200 -0.4316 -0.3402 -0.7422
 2921TIP3    H1 8727   0.792   6.260   0.119  1.2087 -0.7386 -0.1320
 2921TIP3    H2 8728   0.830   6.268   0.265 -0.9143  0.7618  0.3742
 2922TIP3   OH2 8729   1.151   5.862   4.680  0.4153  0.3404 -0.6311
 2922TIP3    H1 8730   1.161   5.888   4.589  0.6636  0.2505 -0.6308
 2922TIP3    H2 8731   1.057   5.859   4.694  0.2759 -2.2813 -1.6518
 2923TIP3   OH2 8732   7.121   6.466   1.856 -0.1546  0.4608 -0.0191
 2923TIP3    H1 8733   7.200   6.503   1.816 -0.4589  0.6353 -0.4643
 2923TIP3    H2 8734   7.118   6.375   1.824  1.3929 -0.4566  2.2329
 2924TIP3   OH2 8735   6.391   0.252   5.759 -0.1870 -0.1727 -0.1244
 2924TIP3    H1 8736   6.454   0.266   5.689 -0.5335  0.4425 -0.3221
 2924TIP3    H2 8737   6.376   0.157   5.760  2.1920 -0.6173  1.2086
 2925TIP3   OH2 8738   6.289   6.295   2.182  0.2396  0.3869  0.7834
 2925TIP3    H1 8739   6.248   6.380   2.166  0.4184  0.3201 -0.0868
 2925TIP3    H2 8740   6.264   6.242   2.106  1.4411  0.1723  0.5114
 2926TIP3   OH2 8741   0.664   4.829   1.449 -0.0809  0.4345 -0.2894
 2926TIP3    H1 8742   0.677   4.906   1.504 -1.1107  0.0662  0.5140
 2926TIP3    H2 8743   0.716   4.761   1.490  2.7709  1.2085 -2.3311
 2927TIP3   OH2 8744   0.650   3.593   5.076 -0.2041  0.5002  0.1360
 2927TIP3    H1 8745   0.580   3.529   5.088 -1.1623  1.3645 -0.6630
 2927TIP3    H2 8746   0.691   3.569   4.993  0.9662 -0.4457  0.9490
 2928TIP3   OH2 8747   1.348   1.558   4.725 -0.1265  0.6556 -0.0314
 2928TIP3    H1 8748   1.333   1.587   4.815 -1.3763  0.5795 -0.2036
 2928TIP3    H2 8749   1.364   1.639   4.677  1.0842  0.6620  0.3269
 2929TIP3   OH2 8750   3.603   3.912   1.612 -0.0126 -1.0369  0.4357
 2929TIP3    H1 8751   3.593   4.001   1.644  1.7471 -0.5558 -0.2509
 2929TIP3    H2 8752   3.531   3.899   1.551 -0.2388 -0.0507  0.4908
 2930TIP3   OH2 8753   4.197   2.325   5.016  0.2221 -0.3689 -0.4634
 2930TIP3    H1 8754   4.128   2.356   4.957  1.9587  0.4320 -2.1962
 2930TIP3    H2 8755   4.227   2.404   5.061 -1.0250 -0.9573  1.5471
 2931TIP3   OH2 8756   6.647   6.115   4.098 -0.0950  0.1170  0.1322
 2931TIP3    H1 8757   6.593   6.153   4.167 -1.2534  1.0166 -1.1924
 2931TIP3    H2 8758   6.593   6.123   4.019  0.8641 -1.5425 -0.7607
 2932TIP3   OH2 8759   3.607   0.212   5.335 -0.0881 -0.2046  0.0300
 2932TIP3    H1 8760   3.653   0.139   5.296 -0.1458 -0.6910  0.8376
 2932TIP3    H2 8761   3.515   0.197   5.314 -0.3041 -1.3074  1.6194
 2933TIP3   OH2 8762   2.909   6.303   4.365  0.2448  0.0236 -0.1430
 2933TIP3    H1 8763   2.938   6.224   4.320  0.7906 -0.0324  0.2920
 2933TIP3    H2 8764   2.896   6.367   4.296  1.7877  0.1607 -0.3418
 2934TIP3   OH2 8765   1.034   6.267   0.634  0.5349  0.1622  0.0201
 2934TIP3    H1 8766   0.978   6.291   0.708  1.3317  2.1973  0.0197
 2934TIP3    H2 8767   1.118   6.244   0.674  0.8895  1.0194 -0.2081
 2935TIP3   OH2 8768   2.792   1.896   0.932 -0.4240 -0.1601  0.1333
 2935TIP3    H1 8769   2.752   1.837   0.868 -0.8854 -0.7434  0.9431
 2935TIP3    H2 8770   2.813   1.839   1.007 -0.2202  0.5720  0.6437
 2936TIP3   OH2 8771   1.178   2.557   2.024  0.0459 -0.3474  0.1566
 2936TIP3    H1 8772   1.158   2.628   1.963 -1.9285 -1.4323 -0.5373
 2936TIP3    H2 8773   1.204   2.484   1.968  2.4354 -0.1597  0.8774
 2937TIP3   OH2 8774   3.541   0.214   3.758 -0.0417  0.2270 -0.2303
 2937TIP3    H1 8775   3.542   0.124   3.725  1.5776  0.0633  0.1888
 2937TIP3    H2 8776   3.541   0.269   3.680  0.2887 -0.1369 -0.4868
 2938TIP3   OH2 8777   4.936   6.633   0.702  0.0321  0.3391 -0.4893
 2938TIP3    H1 8778   4.955   6.719   0.740  0.0588  0.0138  0.2429
 2938TIP3    H2 8779   5.007   6.619   0.639  0.0730  0.8158 -0.5526
 2939TIP3   OH2 8780   4.703   0.779   0.153 -0.2046 -0.3570  0.0720
 2939TIP3    H1 8781   4.764   0.714   0.119  0.4853 -0.7121  1.8826
 2939TIP3    H2 8782   4.758   0.853   0.179 -0.7985  0.2584 -0.3883
 2940TIP3   OH2 8783   3.299   1.874   2.462  0.4381  0.3797 -0.1573
 2940TIP3    H1 8784   3.234   1.906   2.524 -0.5687  0.9658 -1.4532
 2940TIP3    H2 8785   3.325   1.953   2.413  0.4479 -0.2185 -1.1355
 2941TIP3   OH2 8786   2.973   6.466   0.158  0.2071  0.1273  0.0100
 2941TIP3    H1 8787   2.920   6.533   0.201  1.7723  0.6918  1.1621
 2941TIP3    H2 8788   2.919   6.387   0.160 -0.0973  0.3367  2.3424
 2942TIP3   OH2 8789   0.313   5.273   4.448  0.6186 -0.4223 -0.3461
 2942TIP3    H1 8790   0.324   5.178   4.445  2.8541 -0.2051 -1.3021
 2942TIP3    H2 8791   0.322   5.296   4.540 -1.8532 -1.2541  0.1777
 2943TIP3   OH2 8792   4.867   4.416   5.557  0.0372 -0.2441 -0.3066
 2943TIP3    H1 8793   4.850   4.469   5.635 -3.5565 -0.2024 -0.9711
 2943TIP3    H2 8794   4.949   4.452   5.522  0.2002  1.7087  1.7941
 2944TIP3   OH2 8795   1.180   0.294   5.930 -0.0373  0.0732 -0.2400
 2944TIP3    H1 8796   1.260   0.305   5.878 -0.9502 -2.0644 -2.2751
 2944TIP3    H2 8797   1.113   0.272   5.865 -0.8769 -4.6517  1.8567
 2945TIP3   OH2 8798   4.338   1.905   3.085 -0.0152 -0.1004 -0.0418
 2945TIP3    H1 8799   4.369   1.992   3.107  0.0811 -0.1940  0.1984
 2945TIP3    H2 8800   4.407   1.846   3.115 -1.0605 -0.4331  1.9584
 2946TIP3   OH2 8801   6.286   4.220   2.707  0.3509 -0.2896 -0.0384
 2946TIP3    H1 8802   6.205   4.203   2.659  0.6556  0.4642 -0.8472
 2946TIP3    H2 8803   6.307   4.311   2.687  1.7696 -0.6799 -0.4202
 2947TIP3   OH2 8804   2.171   4.415   4.538 -0.3429 -0.1216  0.2827
 2947TIP3    H1 8805   2.132   4.327   4.543  1.3749 -0.9942 -0.6397
 2947TIP3    H2 8806   2.184   4.431   4.445  2.5722 -0.4652  0.5294
 2948TIP3   OH2 8807   5.532   0.236   3.870 -0.3530 -0.3007 -0.1596
 2948TIP3    H1 8808   5.475   0.283   3.808  0.4006  1.8075  0.6356
 2948TIP3    H2 8809   5.559   0.303   3.933  1.7034 -1.5880  0.4391
 2949TIP3   OH2 8810   2.241   2.070   1.897  0.1788  0.2049 -0.6749
 2949TIP3    H1 8811   2.203   1.986   1.874  0.0119  0.3609 -0.9792
 2949TIP3    H2 8812   2.192   2.134   1.845  0.7111  0.4306 -0.9112
 2950TIP3   OH2 8813   6.278   2.290   1.458 -0.3927 -0.3506 -0.4886
 2950TIP3    H1 8814   6.277   2.194   1.460  2.0016 -0.4092  0.5699
 2950TIP3    H2 8815   6.270   2.311   1.365 -0.5988 -1.5743 -0.7745
 2951TIP3   OH2 8816   4.851   5.360   2.899  0.2400  0.4217 -0.1524
 2951TIP3    H1 8817   4.796   5.333   2.972  1.8808  0.3651  1.1341
 2951TIP3    H2 8818   4.846   5.455   2.899 -1.6104  0.3774 -1.5180
 2952TIP3   OH2 8819   1.918   3.319   5.141 -0.3151 -0.2343  0.3809
 2952TIP3    H1 8820   1.825   3.311   5.164 -1.2079  0.4240 -2.5996
 2952TIP3    H2 8821   1.948   3.228   5.132 -0.8665 -0.4507  0.6494
 2953TIP3   OH2 8822   5.025   2.686   1.507 -0.3545 -0.1702  0.2349
 2953TIP3    H1 8823   4.974   2.760   1.541  0.0803  0.1560  0.1810
 2953TIP3    H2 8824   5.051   2.637   1.585 -0.6165 -0.2466  0.2733
 2954TIP3   OH2 8825   3.104   2.201   1.521  0.0589  0.0182 -0.2342
 2954TIP3    H1 8826   3.107   2.277   1.579  1.7665  1.8396 -2.5044
 2954TIP3    H2 8827   3.195   2.188   1.493 -0.5762 -1.1424 -1.9527
 2955TIP3   OH2 8828   1.271  -0.021   3.520  0.4731 -0.0610  0.2142
 2955TIP3    H1 8829   1.193   0.007   3.568  0.5882  0.1912  0.2539
 2955TIP3    H2 8830   1.263   0.023   3.435  0.6230  0.0446  0.2552
 2956TIP3   OH2 8831   0.905   4.303   5.850 -0.1977 -0.0306  0.3156
 2956TIP3    H1 8832   0.942   4.214   5.853  0.7242  0.3578  2.5742
 2956TIP3    H2 8833   0.823   4.293   5.801  0.7129 -1.7840 -0.9598
 2957TIP3   OH2 8834   2.272   0.958   0.019 -0.4651  0.2207 -0.1324
 2957TIP3    H1 8835   2.343   0.894   0.027 -0.1390  0.6446  0.4021
 2957TIP3    H2 8836   2.194   0.911   0.048  0.1411  0.7259  2.6610
 2958TIP3   OH2 8837   6.471   1.631   2.998  0.1473 -0.0361  0.5452
 2958TIP3    H1 8838   6.469   1.668   2.910  0.0181 -0.4699  0.3674
 2958TIP3    H2 8839   6.489   1.538   2.985 -0.5993 -0.2395  0.9324
 2959TIP3   OH2 8840   4.303   4.759   0.504  1.0509 -0.1349 -0.1005
 2959TIP3    H1 8841   4.243   4.760   0.579  1.2946 -0.9662  0.1182
 2959TIP3    H2 8842   4.355   4.838   0.514 -1.1309  1.5779 -1.2578
 2960TIP3   OH2 8843   7.139   6.396   5.683  0.0577 -0.1351  0.4957
 2960TIP3    H1 8844   7.139   6.338   5.607 -0.2207 -1.1965  1.2817
 2960TIP3    H2 8845   7.125   6.338   5.758 -0.0824  0.9316  1.3269
 2961TIP3   OH2 8846   3.946   0.638   2.945 -0.4258 -0.1273 -0.4208
 2961TIP3    H1 8847   3.863   0.653   2.990  0.5039  2.2230  0.6701
 2961TIP3    H2 8848   4.001   0.593   3.009 -0.5937 -1.0363 -0.8944
 2962TIP3   OH2 8849   0.258   2.103   0.335  0.0501  0.1522  0.4018
 2962TIP3    H1 8850   0.165   2.105   0.358 -0.0339  0.1286  0.0605
 2962TIP3    H2 8851   0.301   2.066   0.413 -0.4330 -1.7205 -0.1730
 2963TIP3   OH2 8852   1.129   5.529   0.925 -0.4922 -0.2160 -0.2301
 2963TIP3    H1 8853   1.192   5.598   0.907 -1.6586  0.9288 -0.0635
 2963TIP3    H2 8854   1.047   5.560   0.886 -0.8312 -1.9478 -0.9818
 2964TIP3   OH2 8855   3.965   5.021   2.690 -0.3548  0.2066 -0.0924
 2964TIP3    H1 8856   3.896   4.961   2.663  0.0817 -0.7976  0.9594
 2964TIP3    H2 8857   3.919   5.091   2.736 -0.7829  0.2221 -0.5322
 2965TIP3   OH2 8858   2.617   4.176   3.682 -0.3765 -0.1630 -0.4832
 2965TIP3    H1 8859   2.618   4.089   3.722  1.7869 -0.8723 -1.8547
 2965TIP3    H2 8860   2.532   4.213   3.705 -1.6128 -2.8795 -0.3258
 2966TIP3   OH2 8861   0.166   4.291   0.864  0.3662 -0.2302 -0.2294
 2966TIP3    H1 8862   0.070   4.292   0.870  0.3379  1.5003 -0.5032
 2966TIP3    H2 8863   0.196   4.305   0.954  0.2665  2.6951 -0.5678
 2967TIP3   OH2 8864   2.925   3.999   1.757  0.5900  0.5852 -0.6189
 2967TIP3    H1 8865   2.995   3.934   1.758  0.0844 -0.0003 -1.6555
 2967TIP3    H2 8866   2.900   4.006   1.665  0.5582  2.1751 -0.5173
 2968TIP3   OH2 8867   4.723   5.507   5.632  0.5502  0.3040 -0.2575
 2968TIP3    H1 8868   4.722   5.503   5.728 -0.3049  0.4989 -0.2486
 2968TIP3    H2 8869   4.637   5.475   5.606 -0.1736  2.5361 -0.8495
 2969TIP3   OH2 8870   6.047   4.263   1.522  0.3970  0.2870 -0.1559
 2969TIP3    H1 8871   6.126   4.310   1.496  0.3593  0.6490  0.3618
 2969TIP3    H2 8872   5.980   4.331   1.530  0.0126 -0.0268 -0.6673
 2970TIP3   OH2 8873   6.860   2.229   0.031 -0.0206 -0.9086  0.1264
 2970TIP3    H1 8874   6.917   2.289   0.081  0.1233 -0.1315 -0.9335
 2970TIP3    H2 8875   6.794   2.286  -0.008 -0.0848 -1.4876 -0.6338
 2971TIP3   OH2 8876   5.056   1.870   4.840 -0.1829 -0.9531  0.1184
 2971TIP3    H1 8877   4.992   1.827   4.897 -1.9524  2.5375  1.0805
 2971TIP3    H2 8878   5.130   1.889   4.898 -0.2774 -0.9523  0.2411
 2972TIP3   OH2 8879   0.656   5.696   0.859  0.2942  0.1169  0.4131
 2972TIP3    H1 8880   0.662   5.791   0.875  0.2752  0.0673  0.7255
 2972TIP3    H2 8881   0.562   5.679   0.852  0.3300  0.2758 -0.6319
 2973TIP3   OH2 8882   0.269   1.822   3.838 -0.1288  0.4205  0.2317
 2973TIP3    H1 8883   0.319   1.887   3.887 -0.0747  1.1845 -0.8067
 2973TIP3    H2 8884   0.221   1.774   3.905  1.5519  0.0259  1.2138
 2974TIP3   OH2 8885   4.030   6.385   3.571  0.0080  0.1532 -0.0354
 2974TIP3    H1 8886   4.037   6.375   3.666 -0.8410  3.8141  0.5650
 2974TIP3    H2 8887   4.100   6.330   3.535  1.0310 -0.5064  2.7426
 2975TIP3   OH2 8888   6.753   0.720   2.451 -0.8597  0.6127  0.0839
 2975TIP3    H1 8889   6.706   0.715   2.534  0.8150  1.2035  1.1092
 2975TIP3    H2 8890   6.830   0.665   2.464 -1.1800 -0.3065 -1.5474
 2976TIP3   OH2 8891   2.675   0.166   3.072 -0.3297 -0.0973  0.5389
 2976TIP3    H1 8892   2.586   0.197   3.056 -0.2241  0.5972  1.2161
 2976TIP3    H2 8893   2.673   0.073   3.049 -0.7640  0.3080 -1.1682
 2977TIP3   OH2 8894   1.113   2.487   0.719 -0.2702  0.2540  0.2937
 2977TIP3    H1 8895   1.162   2.516   0.796 -1.3652 -2.3956  2.1750
 2977TIP3    H2 8896   1.164   2.414   0.684 -1.7970 -1.3031  1.1432
 2978TIP3   OH2 8897   5.156   6.597   1.791  0.1946  0.3448 -0.2167
 2978TIP3    H1 8898   5.246   6.601   1.759  0.7169  1.6626  1.2412
 2978TIP3    H2 8899   5.102   6.613   1.714  1.2307 -0.0160 -1.0397
 2979TIP3   OH2 8900   4.579   0.867   1.078  0.1499 -0.1993  0.0053
 2979TIP3    H1 8901   4.662   0.848   1.121  0.6169  1.4139 -0.0843
 2979TIP3    H2 8902   4.512   0.828   1.135  0.9895 -3.0748 -0.8292
 2980TIP3   OH2 8903   2.727   2.589   3.117  0.3272 -0.4518 -0.3068
 2980TIP3    H1 8904   2.752   2.545   3.198 -1.0590 -1.2641 -0.2946
 2980TIP3    H2 8905   2.790   2.660   3.108  1.0867 -0.9353  0.9787
 2981TIP3   OH2 8906   4.744   4.951   4.908  0.2416  0.3547  0.0351
 2981TIP3    H1 8907   4.746   5.015   4.836 -0.7817  1.0376  0.5874
 2981TIP3    H2 8908   4.798   4.990   4.976  0.2032  0.2901  0.1016
 2982TIP3   OH2 8909   5.007   2.337   5.350  0.2566 -0.4466  0.1732
 2982TIP3    H1 8910   5.102   2.344   5.356  0.2368  0.0660 -0.0120
 2982TIP3    H2 8911   4.982   2.403   5.284 -0.3816  0.6995  1.4986
 2983TIP3   OH2 8912   4.423   4.632   5.515  0.3801 -0.0138 -0.0643
 2983TIP3    H1 8913   4.332   4.655   5.495  0.7015  2.0605  0.5539
 2983TIP3    H2 8914   4.416   4.553   5.569 -1.2733  1.3819  1.9595
 2984TIP3   OH2 8915   6.063   2.667   1.358  0.4876 -0.4409  0.2881
 2984TIP3    H1 8916   6.038   2.757   1.335 -0.4772 -0.4497  1.2625
 2984TIP3    H2 8917   6.057   2.619   1.276 -0.0338  0.1619 -0.0358
 2985TIP3   OH2 8918   0.187   1.749   1.788  0.0361  0.5080  0.2178
 2985TIP3    H1 8919   0.095   1.744   1.815  0.1519  0.1429  0.5445
 2985TIP3    H2 8920   0.237   1.730   1.867  0.3939  0.6644  0.0302
 2986TIP3   OH2 8921   3.566   2.750   2.859 -0.0938  0.4161 -0.2396
 2986TIP3    H1 8922   3.488   2.736   2.913  0.3006  1.3621  0.6142
 2986TIP3    H2 8923   3.564   2.844   2.838  1.4536  0.7448  0.8664
 2987TIP3   OH2 8924   2.197   4.776   1.623  0.2900  0.2088  0.5527
 2987TIP3    H1 8925   2.182   4.818   1.538 -1.2679  1.2672  1.3125
 2987TIP3    H2 8926   2.221   4.848   1.682  0.0845 -0.3293  1.3129
 2988TIP3   OH2 8927   0.808   5.739   2.998  0.6883 -0.4505  0.3052
 2988TIP3    H1 8928   0.805   5.646   2.976 -0.3054 -0.0643 -1.3794
 2988TIP3    H2 8929   0.736   5.751   3.060  0.8382 -0.7817  0.5521
 2989TIP3   OH2 8930   6.359   4.697   5.627  0.1327 -0.4896 -0.5800
 2989TIP3    H1 8931   6.270   4.663   5.614  0.3147 -1.1661 -0.1127
 2989TIP3    H2 8932   6.399   4.694   5.541  0.5129 -2.5697 -0.3823
 2990TIP3   OH2 8933   4.021   5.024   0.269 -0.2560  0.3442  0.0895
 2990TIP3    H1 8934   4.049   5.072   0.346  2.5043  0.0684 -0.5987
 2990TIP3    H2 8935   4.035   4.932   0.292  0.4208  0.2497 -0.6374
 2991TIP3   OH2 8936   6.473   0.304   1.467 -0.3479 -0.6284 -0.6186
 2991TIP3    H1 8937   6.473   0.393   1.432  1.5133 -0.6926 -0.9270
 2991TIP3    H2 8938   6.463   0.316   1.561  1.7083  0.0937 -0.4367
 2992TIP3   OH2 8939   2.107   4.618   4.995 -0.1586 -0.1748 -0.9374
 2992TIP3    H1 8940   2.190   4.606   5.041 -1.5027 -1.8964  1.2325
 2992TIP3    H2 8941   2.085   4.710   5.009  0.5965 -0.0983 -0.1596
 2993TIP3   OH2 8942   6.466   4.465   3.608 -0.4788 -0.6010  0.2321
 2993TIP3    H1 8943   6.536   4.400   3.615 -1.1449 -1.2541  1.2893
 2993TIP3    H2 8944   6.422   4.462   3.694  0.6390  2.6452  1.0652
 2994TIP3   OH2 8945   0.920   2.413   4.018 -0.5440  0.1926  0.5233
 2994TIP3    H1 8946   0.927   2.335   3.963 -1.0830  1.4633 -1.4397
 2994TIP3    H2 8947   0.826   2.428   4.027 -0.4923 -0.3980  2.4622
 2995TIP3   OH2 8948   6.122   6.309   1.818 -0.2214  0.5408  0.1189
 2995TIP3    H1 8949   6.101   6.391   1.775  2.3176  0.1444 -2.1320
 2995TIP3    H2 8950   6.207   6.324   1.860 -0.1022 -0.6720  0.3737
 2996TIP3   OH2 8951   2.275   3.323   2.484 -0.4943  0.0000  0.1508
 2996TIP3    H1 8952   2.214   3.370   2.541  0.1994  0.2056  0.7387
 2996TIP3    H2 8953   2.355   3.374   2.486  0.4314 -1.4077  1.1751
 2997TIP3   OH2 8954   0.543   3.731   0.497 -0.0754  0.3127 -0.1049
 2997TIP3    H1 8955   0.454   3.703   0.518 -0.5829 -0.2867 -2.7294
 2997TIP3    H2 8956   0.537   3.826   0.489 -0.4489  0.2883 -0.1394
 2998TIP3   OH2 8957   0.293   3.472   4.830  0.1595 -0.0006 -0.3508
 2998TIP3    H1 8958   0.315   3.381   4.848 -1.9671 -0.5898 -0.4487
 2998TIP3    H2 8959   0.274   3.510   4.916 -0.0452  0.0317 -0.4093
 2999TIP3   OH2 8960   6.655   5.888   3.498  0.7000 -0.4683  0.0772
 2999TIP3    H1 8961   6.667   5.797   3.470  1.5695 -0.4962  0.5058
 2999TIP3    H2 8962   6.564   5.894   3.525 -0.0526 -0.5970 -2.1961
 3000TIP3   OH2 8963   1.371   5.703   3.757 -0.0089 -0.3354 -0.2382
 3000TIP3    H1 8964   1.371   5.739   3.846 -0.4894  1.7324 -1.0332
 3000TIP3    H2 8965   1.429   5.760   3.707  0.9286 -1.9624 -1.1175
 3001TIP3   OH2 8966   1.316   1.849   5.337  0.7524 -0.1448 -0.7710
 3001TIP3    H1 8967   1.388   1.908   5.358  0.9543 -0.9019  0.8159
 3001TIP3    H2 8968   1.357   1.763   5.328  0.1015 -0.5213 -0.2433
 3002TIP3   OH2 8969   5.286   4.956   0.302 -0.1886 -0.4767 -0.3276
 3002TIP3    H1 8970   5.224   4.991   0.238 -2.5402 -0.4305  1.8208
 3002TIP3    H2 8971   5.302   4.866   0.274 -0.8617 -0.3407 -1.1912
 3003TIP3   OH2 8972   0.350   5.824   3.576  0.0707 -0.2230 -0.5986
 3003TIP3    H1 8973   0.285   5.842   3.644  0.4687  0.7182 -0.4601
 3003TIP3    H2 8974   0.321   5.875   3.500 -1.2080 -2.4182 -1.6798
 3004TIP3   OH2 8975   6.167   5.684   5.771  0.5353 -0.0949  0.0702
 3004TIP3    H1 8976   6.217   5.730   5.704 -0.2640  1.5182  0.5083
 3004TIP3    H2 8977   6.091   5.741   5.787 -0.1215 -1.2263  1.1933
 3005TIP3   OH2 8978   7.026   3.207   0.962  0.1362  0.0849 -0.4296
 3005TIP3    H1 8979   7.049   3.210   1.055  1.9631  0.7026 -0.8773
 3005TIP3    H2 8980   7.054   3.291   0.927  1.6888 -1.0278 -2.0197
 3006TIP3   OH2 8981   3.416   6.207   1.757  0.2117  0.1472 -0.4200
 3006TIP3    H1 8982   3.481   6.276   1.771 -1.2612  1.3133  1.2246
 3006TIP3    H2 8983   3.390   6.217   1.665  2.5230 -0.5778 -1.2190
 3007TIP3   OH2 8984   3.656   5.430   2.786 -0.8614  0.5008  0.1813
 3007TIP3    H1 8985   3.653   5.496   2.717 -1.8899  0.5037  0.2192
 3007TIP3    H2 8986   3.746   5.434   2.819 -1.0458  2.2476  0.5501
 3008TIP3   OH2 8987   6.556   2.561   4.762 -0.1329  0.4924 -0.2639
 3008TIP3    H1 8988   6.593   2.551   4.850 -0.0734  0.5752 -0.2796
 3008TIP3    H2 8989   6.632   2.568   4.705 -0.1677  1.4270 -0.2090
 3009TIP3   OH2 8990   5.966   1.190   0.417 -0.0845 -0.1241 -0.3583
 3009TIP3    H1 8991   5.958   1.138   0.337 -0.0306  1.9280 -1.7839
 3009TIP3    H2 8992   6.051   1.234   0.408 -0.4434  0.7522  0.4229
 3010TIP3   OH2 8993   0.079   6.171   4.911  0.1730  0.0610 -0.2745
 3010TIP3    H1 8994   0.131   6.222   4.849  0.8025 -1.0262 -0.6549
 3010TIP3    H2 8995   0.110   6.200   4.997  0.8762 -0.0468 -0.4909
 3011TIP3   OH2 8996   6.060   2.610   2.855 -0.2573 -0.0668  0.3915
 3011TIP3    H1 8997   5.993   2.551   2.890 -0.0645 -0.4494  0.1248
 3011TIP3    H2 8998   6.013   2.667   2.795 -0.9703  1.8837  2.6660
 3012TIP3   OH2 8999   0.218   0.839   4.881 -0.6639 -0.1468  0.1198
 3012TIP3    H1 9000   0.171   0.828   4.963 -0.2237 -0.9605  0.2805
 3012TIP3    H2 9001   0.279   0.765   4.879  0.7862  0.9902  0.0515
 3013TIP3   OH2 9002   0.138   1.901   1.399  0.0652 -0.2584  0.0717
 3013TIP3    H1 9003   0.089   1.982   1.412 -0.7222 -0.6417 -0.4355
 3013TIP3    H2 9004   0.074   1.832   1.413  0.8747 -0.8272  1.1184
 3014TIP3   OH2 9005   5.640   2.587   2.968  0.6769  0.4059  0.4764
 3014TIP3    H1 9006   5.700   2.632   2.908  1.6497 -0.6462  0.6262
 3014TIP3    H2 9007   5.649   2.634   3.051  0.3992  0.9803  0.1899
 3015TIP3   OH2 9008   3.085   0.258   3.695 -0.2104 -0.0181  0.5008
 3015TIP3    H1 9009   3.135   0.185   3.660  0.0815  0.6210 -0.4487
 3015TIP3    H2 9010   3.134   0.286   3.772  0.2332 -0.1573  0.2688
 3016TIP3   OH2 9011   2.649   6.349   0.366 -0.6983 -0.0040 -0.0790
 3016TIP3    H1 9012   2.700   6.282   0.411  1.1565  1.4246  0.0684
 3016TIP3    H2 9013   2.666   6.334   0.273 -1.6036 -0.7175 -0.1398
 3017TIP3   OH2 9014   1.243   6.557   2.604 -0.6399  0.8282 -0.0622
 3017TIP3    H1 9015   1.282   6.469   2.605  0.6266  1.3581  0.9499
 3017TIP3    H2 9016   1.311   6.613   2.642 -1.3237  2.2992 -0.9251
 3018TIP3   OH2 9017   0.071   0.188   4.837  0.2755  0.3339  0.0180
 3018TIP3    H1 9018   0.032   0.102   4.850  3.0872 -0.9742  0.4662
 3018TIP3    H2 9019   0.148   0.189   4.895 -0.1148  3.4906  0.6755
 3019TIP3   OH2 9020   2.570   5.100   2.433 -0.3453  0.1537  0.1413
 3019TIP3    H1 9021   2.572   5.178   2.489  1.4969  0.4342 -0.2713
 3019TIP3    H2 9022   2.602   5.131   2.348  1.6502 -1.2764  0.3120
 3020TIP3   OH2 9023   3.438   2.346   2.384  0.1133 -0.6991  0.9954
 3020TIP3    H1 9024   3.459   2.323   2.294 -1.8160  0.6420  0.1393
 3020TIP3    H2 9025   3.522   2.367   2.424  0.9892 -1.1919 -0.5050
 3021TIP3   OH2 9026   4.004   3.280   2.253  0.0660  0.0627  0.3624
 3021TIP3    H1 9027   3.999   3.237   2.339  1.2069  0.3550  0.5912
 3021TIP3    H2 9028   4.088   3.326   2.255 -0.8884  1.8626 -0.1003
 3022TIP3   OH2 9029   0.296   1.840   4.591 -0.0798  0.3303  0.6830
 3022TIP3    H1 9030   0.214   1.794   4.573  0.9856 -1.6573  0.6443
 3022TIP3    H2 9031   0.360   1.800   4.533  1.5637 -0.2588  2.7579
 3023TIP3   OH2 9032   3.880   4.879   2.299  0.1205  0.7554  0.0279
 3023TIP3    H1 9033   3.969   4.884   2.264  0.0258  0.6844 -0.2277
 3023TIP3    H2 9034   3.835   4.954   2.259  0.1064  0.8749  0.2697
 3024TIP3   OH2 9035   3.137   1.933   0.124  0.0431 -0.1886  0.3889
 3024TIP3    H1 9036   3.095   1.907   0.042 -1.5342  2.3634  0.2932
 3024TIP3    H2 9037   3.183   2.014   0.103 -0.0230  0.2742  1.8985
 3025TIP3   OH2 9038   6.467   2.413   3.564  0.0143 -0.3609  0.0664
 3025TIP3    H1 9039   6.413   2.491   3.574  1.6680  0.9552 -0.7205
 3025TIP3    H2 9040   6.557   2.445   3.574  0.6825 -2.4506  1.3043
 3026TIP3   OH2 9041   1.043   3.591   0.199  0.5774  0.3968  0.1230
 3026TIP3    H1 9042   1.048   3.496   0.185  1.6063  0.6823 -1.7734
 3026TIP3    H2 9043   0.993   3.600   0.280 -0.6406 -1.7218 -0.3008
 3027TIP3   OH2 9044   3.782   2.418   4.697  0.2216  0.1785  0.4665
 3027TIP3    H1 9045   3.812   2.354   4.632 -0.0131 -0.8786  1.3723
 3027TIP3    H2 9046   3.688   2.401   4.707 -0.3212  2.0790 -0.8116
 3028TIP3   OH2 9047   1.959   4.342   2.030 -0.3659 -0.0843  0.8352
 3028TIP3    H1 9048   1.868   4.324   2.006 -1.2147  1.9372  2.2210
 3028TIP3    H2 9049   2.011   4.303   1.960 -2.3030 -1.1088 -0.1019
 3029TIP3   OH2 9050   5.012   1.107   1.049  0.2666  0.3044 -0.7454
 3029TIP3    H1 9051   4.999   1.075   0.959 -0.5060 -0.6311 -0.3235
 3029TIP3    H2 9052   4.956   1.184   1.055  0.3077  0.3610 -1.0641
 3030TIP3   OH2 9053   1.723   3.022   1.709  0.6637 -0.4857 -0.1528
 3030TIP3    H1 9054   1.778   3.100   1.720 -0.7050  0.5939 -0.6900
 3030TIP3    H2 9055   1.643   3.043   1.757  0.1828 -1.4812 -0.5056
 3031TIP3   OH2 9056   6.649   1.100   0.777  0.2181 -0.0051 -0.0074
 3031TIP3    H1 9057   6.705   1.027   0.805  0.5406  0.5869  0.9467
 3031TIP3    H2 9058   6.710   1.171   0.758 -0.1483  0.3581  0.1530
 3032TIP3   OH2 9059   1.032   0.711   1.511 -0.4285  0.5088 -0.9663
 3032TIP3    H1 9060   0.949   0.664   1.524 -0.0235  0.0194  0.0155
 3032TIP3    H2 9061   1.057   0.739   1.599  1.3987 -1.0255 -0.9273
 3033TIP3   OH2 9062   0.699   6.150   1.398 -0.2497  0.0982  0.5602
 3033TIP3    H1 9063   0.691   6.184   1.487 -0.4885  0.4612  0.4007
 3033TIP3    H2 9064   0.667   6.220   1.342  1.3285  0.4694  0.0816
 3034TIP3   OH2 9065   1.437   5.288   3.674 -0.0178  0.1802 -0.2608
 3034TIP3    H1 9066   1.516   5.321   3.715  0.9093 -0.0722 -1.7661
 3034TIP3    H2 9067   1.380   5.365   3.665 -0.1807  0.2593  1.3041
 3035TIP3   OH2 9068   0.389   6.620   3.100 -0.2404  0.0164 -0.0840
 3035TIP3    H1 9069   0.317   6.675   3.069  0.4112  0.5609 -0.6482
 3035TIP3    H2 9070   0.414   6.657   3.184 -0.2673  0.1476 -0.1340
 3036TIP3   OH2 9071   3.853   0.394   5.097  0.3071  0.1757 -0.2747
 3036TIP3    H1 9072   3.781   0.333   5.085  0.0534  0.6420 -1.1596
 3036TIP3    H2 9073   3.892   0.368   5.181 -0.7262 -0.2319  0.0981
 3037TIP3   OH2 9074   5.590  -0.008   3.728  0.4820 -0.0179  0.2644
 3037TIP3    H1 9075   5.665   0.001   3.669  1.1740  2.3414  1.3733
 3037TIP3    H2 9076   5.572   0.081   3.757 -0.1468 -0.9905  3.1919
 3038TIP3   OH2 9077   0.900   4.003   3.316  0.0125  0.0917 -0.2206
 3038TIP3    H1 9078   0.978   4.026   3.266 -1.2809  2.6713 -1.2441
 3038TIP3    H2 9079   0.871   3.921   3.277  1.5707 -0.3304 -0.5714
 3039TIP3   OH2 9080   4.294   1.750   5.321 -0.7178  0.4023 -0.2140
 3039TIP3    H1 9081   4.260   1.715   5.239 -0.4269  1.3873 -0.7691
 3039TIP3    H2 9082   4.314   1.842   5.302  0.8124  0.2479  0.5065
 3040TIP3   OH2 9083   1.332   5.355   1.297 -0.0021 -0.0287  0.6918
 3040TIP3    H1 9084   1.403   5.410   1.330 -0.2844  1.3790 -0.9130
 3040TIP3    H2 9085   1.374   5.298   1.232 -0.2535  0.5187  0.0414
 3041TIP3   OH2 9086   6.370   3.319   5.580 -0.8909 -0.1782 -0.4372
 3041TIP3    H1 9087   6.357   3.258   5.653  0.0391 -0.3636 -0.4080
 3041TIP3    H2 9088   6.282   3.336   5.546 -1.5206  1.1396  1.7047
 3042TIP3   OH2 9089   5.602   3.731   2.917  0.0527 -0.9931  0.7318
 3042TIP3    H1 9090   5.527   3.684   2.880  0.0850 -1.7158  1.5390
 3042TIP3    H2 9091   5.581   3.823   2.904 -0.0706 -1.2142 -0.7813
 3043TIP3   OH2 9092   7.167   2.532   5.664 -0.3088 -0.5501  0.2477
 3043TIP3    H1 9093   7.224   2.477   5.609 -0.8987 -1.2681  0.3459
 3043TIP3    H2 9094   7.208   2.531   5.750  1.0010  1.1352 -0.3022
 3044TIP3   OH2 9095   2.345   1.514   0.743  0.3286  0.1183  0.2439
 3044TIP3    H1 9096   2.310   1.575   0.807 -0.2556  0.5155 -0.4421
 3044TIP3    H2 9097   2.395   1.451   0.794  0.2336  0.6817  1.0413
 3045TIP3   OH2 9098   4.876   6.660   5.163  0.2387  0.5202 -0.2424
 3045TIP3    H1 9099   4.843   6.742   5.201 -1.3533 -0.2068 -0.0002
 3045TIP3    H2 9100   4.884   6.601   5.237 -3.0135 -0.9539 -0.8887
 3046TIP3   OH2 9101   4.550   5.281   0.741 -0.1129  0.0855 -0.2393
 3046TIP3    H1 9102   4.613   5.208   0.746 -0.9808 -0.6168  2.2596
 3046TIP3    H2 9103   4.598   5.355   0.777  0.1717  0.2826 -1.0124
 3047TIP3   OH2 9104   6.430   2.405   5.801  0.3836  0.7166 -0.3666
 3047TIP3    H1 9105   6.364   2.450   5.749 -2.0043 -2.9489 -0.8888
 3047TIP3    H2 9106   6.472   2.344   5.739  0.1714 -1.0276  1.1075
 3048TIP3   OH2 9107   5.887   0.227   3.902 -0.0924  0.1961  0.0449
 3048TIP3    H1 9108   5.854   0.204   3.989  1.1013 -0.6615  0.2932
 3048TIP3    H2 9109   5.974   0.263   3.918  0.7357 -1.3121 -0.8836
 3049TIP3   OH2 9110   2.564   0.241   2.429  0.3293 -0.1758  0.0702
 3049TIP3    H1 9111   2.601   0.245   2.341 -0.0766  1.2329 -0.0476
 3049TIP3    H2 9112   2.597   0.318   2.473 -0.2661 -0.3488  0.8438
 3050TIP3   OH2 9113   2.421   6.179   0.977  0.1535  0.0047  0.6140
 3050TIP3    H1 9114   2.374   6.262   0.984  1.0692  0.5833  0.1647
 3050TIP3    H2 9115   2.381   6.122   1.044 -0.3525  0.8672  1.0581
 3051TIP3   OH2 9116   7.106   1.782   0.543 -0.4300 -0.5169  0.0482
 3051TIP3    H1 9117   7.185   1.821   0.581 -1.1668  0.9350  0.1372
 3051TIP3    H2 9118   7.119   1.788   0.449  0.1721 -1.5827  0.0471
 3052TIP3   OH2 9119   6.599   4.650   3.007  0.3031 -0.0560 -0.3970
 3052TIP3    H1 9120   6.653   4.663   3.085  1.4507 -2.0256 -0.7769
 3052TIP3    H2 9121   6.641   4.704   2.940 -0.3504  1.1916  0.1555
 3053TIP3   OH2 9122   6.239   5.855   1.641  0.1191  0.3023 -0.4332
 3053TIP3    H1 9123   6.317   5.846   1.585  1.5138 -2.3480  1.7203
 3053TIP3    H2 9124   6.197   5.770   1.638 -1.2985  0.9388  0.4262
 3054TIP3   OH2 9125   3.920   4.995   4.986 -0.1295  0.1317  0.2195
 3054TIP3    H1 9126   3.943   4.903   4.982  0.6712  0.3395 -0.1046
 3054TIP3    H2 9127   3.870   5.004   5.068 -1.5986 -0.8728 -0.5243
 3055TIP3   OH2 9128   4.961   1.380   0.863 -0.3273 -0.4435 -0.0928
 3055TIP3    H1 9129   4.885   1.402   0.918 -0.4796  0.4640 -0.6437
 3055TIP3    H2 9130   4.942   1.422   0.779  0.2814 -1.1366 -0.5870
 3056TIP3   OH2 9131   6.194   2.881   4.888  0.0456  0.1903  0.2831
 3056TIP3    H1 9132   6.275   2.864   4.841  1.3041  0.9478  2.0311
 3056TIP3    H2 9133   6.180   2.976   4.879  0.5497  0.4307  1.7010
 3057TIP3   OH2 9134   6.400   4.168   0.793 -0.0594 -0.0366 -0.1446
 3057TIP3    H1 9135   6.311   4.148   0.766 -0.3534  1.2238 -0.1734
 3057TIP3    H2 9136   6.447   4.085   0.787 -0.6629 -0.2684 -2.3580
 3058TIP3   OH2 9137   4.028   6.346   0.638  0.2605 -0.1131  0.6674
 3058TIP3    H1 9138   4.069   6.325   0.723 -0.9659  0.0621  1.3207
 3058TIP3    H2 9139   4.092   6.402   0.594  0.4590  0.7162  1.9523
 3059TIP3   OH2 9140   6.445   0.126   0.484  0.2403  0.4955 -0.0175
 3059TIP3    H1 9141   6.477   0.168   0.563  0.0452 -0.3968  0.5551
 3059TIP3    H2 9142   6.501   0.160   0.414  2.4504 -0.9619  0.9247
 3060TIP3   OH2 9143   6.201   5.774   2.449 -0.4148  0.6848 -0.1371
 3060TIP3    H1 9144   6.225   5.821   2.369  1.0684  0.4800  0.1547
 3060TIP3    H2 9145   6.262   5.700   2.452 -1.1366  0.1103  0.6530
 3061TIP3   OH2 9146   0.610   5.802   2.269  0.1856 -0.3832 -0.1318
 3061TIP3    H1 9147   0.532   5.851   2.294  0.5440  0.5116 -0.7386
 3061TIP3    H2 9148   0.605   5.794   2.174  0.6770 -0.6019 -0.1440
 3062TIP3   OH2 9149   2.902   1.388   0.591 -0.1388 -0.2497  0.0999
 3062TIP3    H1 9150   2.940   1.364   0.506  1.6789  0.2577  0.7316
 3062TIP3    H2 9151   2.868   1.477   0.577  0.1181 -0.1809 -0.1025
 3063TIP3   OH2 9152   2.737   1.924   0.508  0.0922 -0.2056  0.6494
 3063TIP3    H1 9153   2.713   1.965   0.591  0.3047 -1.2012  1.2162
 3063TIP3    H2 9154   2.819   1.966   0.483  0.3183 -0.2938  1.2287
 3064TIP3   OH2 9155   5.633   5.775   5.492 -0.1326 -0.1211  0.8000
 3064TIP3    H1 9156   5.680   5.858   5.494 -0.6651  0.1727  1.3609
 3064TIP3    H2 9157   5.555   5.790   5.545  0.1760 -1.2173  1.6277
 3065TIP3   OH2 9158   6.560   2.264   2.582  0.8469  0.0560  0.3904
 3065TIP3    H1 9159   6.627   2.232   2.643 -1.4451 -2.2393  1.9015
 3065TIP3    H2 9160   6.485   2.286   2.638  0.0593  1.9359 -1.2863
 3066TIP3   OH2 9161   4.421   2.195   3.031  0.1659  0.6225 -0.3543
 3066TIP3    H1 9162   4.350   2.201   2.967  1.0900  0.8350 -1.3816
 3066TIP3    H2 9163   4.397   2.259   3.099 -2.1858 -1.4783  0.9570
 3067TIP3   OH2 9164   1.408   2.470   1.701 -0.3404  0.1978  0.1564
 3067TIP3    H1 9165   1.388   2.434   1.787  2.2988 -2.3247 -0.1530
 3067TIP3    H2 9166   1.348   2.426   1.641 -0.2795 -0.1645  0.3638
 3068TIP3   OH2 9167   5.737   3.651   2.678 -0.1477  0.1509 -0.2761
 3068TIP3    H1 9168   5.732   3.695   2.763  2.5951  1.0324 -0.4829
 3068TIP3    H2 9169   5.774   3.717   2.619  2.6473 -1.8425 -0.9644
 3069TIP3   OH2 9170   5.172   5.205   1.454 -0.0622 -0.2861  0.1983
 3069TIP3    H1 9171   5.258   5.167   1.469  0.6580  1.3351  0.4042
 3069TIP3    H2 9172   5.181   5.296   1.482 -1.3321  0.3804 -1.3806
 3070TIP3   OH2 9173   3.608   5.744   0.739  0.1528  0.6120  0.2941
 3070TIP3    H1 9174   3.653   5.685   0.800 -1.8567 -0.6684  0.6127
 3070TIP3    H2 9175   3.573   5.813   0.794  0.8307  1.0693  0.1701
 3071TIP3   OH2 9176   4.852   2.829   1.913  0.4728  0.2333  0.4815
 3071TIP3    H1 9177   4.781   2.806   1.972  2.2910 -0.3920  2.5665
 3071TIP3    H2 9178   4.913   2.878   1.968  1.8161  0.4448 -1.1323
 3072TIP3   OH2 9179   0.995   2.160   1.438  0.3932  0.5969 -0.4110
 3072TIP3    H1 9180   1.067   2.215   1.469  0.4004  0.9063 -0.9592
 3072TIP3    H2 9181   0.939   2.219   1.388 -0.9206  0.6478  1.0119
 3073TIP3   OH2 9182   7.075   2.190   3.818 -0.3287 -0.0462  0.2286
 3073TIP3    H1 9183   7.108   2.276   3.844 -2.5041  1.3518 -1.2723
 3073TIP3    H2 9184   7.000   2.175   3.874 -0.3388 -0.6859  0.0495
 3074TIP3   OH2 9185   6.744   5.564   1.788 -0.0024 -0.2417 -0.3851
 3074TIP3    H1 9186   6.754   5.486   1.843  0.1648 -0.2744 -0.4631
 3074TIP3    H2 9187   6.650   5.568   1.769 -0.1681  0.1547  0.4684
 3075TIP3   OH2 9188   5.559   2.939   5.069 -0.2879 -0.1688  0.0864
 3075TIP3    H1 9189   5.507   2.990   5.007  1.0354  0.9934 -0.0955
 3075TIP3    H2 9190   5.495   2.904   5.131 -1.2895  1.1959 -0.1500
 3076TIP3   OH2 9191   3.596   5.898   5.630 -0.0495 -0.0481  0.5143
 3076TIP3    H1 9192   3.633   5.943   5.554  2.2393 -0.9491  1.0343
 3076TIP3    H2 9193   3.606   5.960   5.702 -0.4628  0.0649  0.4800
 3077TIP3   OH2 9194   1.381   4.704   1.066  0.3220 -0.1366 -0.2116
 3077TIP3    H1 9195   1.358   4.795   1.082  3.0523  0.4313  1.0018
 3077TIP3    H2 9196   1.302   4.655   1.090 -0.7176  1.7845  0.5163
 3078TIP3   OH2 9197   5.467   0.983   3.979  0.9730 -0.6576  0.2797
 3078TIP3    H1 9198   5.535   0.915   3.982 -0.8279 -2.5196  1.6723
 3078TIP3    H2 9199   5.454   1.008   4.071  1.0898  1.1081 -0.1452
 3079TIP3   OH2 9200   6.544   6.308   2.036  0.1716  0.0730 -0.0560
 3079TIP3    H1 9201   6.598   6.242   1.992 -0.2883  0.8473 -1.8666
 3079TIP3    H2 9202   6.527   6.271   2.122  2.6718 -0.7008  0.2055
 3080TIP3   OH2 9203   4.991   3.169   4.087 -0.1315 -0.2386 -0.0485
 3080TIP3    H1 9204   5.010   3.147   3.995 -2.4509 -0.9854 -0.4030
 3080TIP3    H2 9205   4.955   3.257   4.083  1.7150  0.5860  0.4463
 3081TIP3   OH2 9206   4.351   2.375   3.648  0.3386  0.0462  0.0011
 3081TIP3    H1 9207   4.303   2.306   3.602  1.6517  0.1855 -1.7225
 3081TIP3    H2 9208   4.439   2.373   3.609  1.2991  0.7726  1.9732
 3082TIP3   OH2 9209   3.574   2.367   0.195 -0.0343  0.0807 -0.3241
 3082TIP3    H1 9210   3.565   2.384   0.102 -0.8342  1.5154 -0.0179
 3082TIP3    H2 9211   3.647   2.422   0.223 -0.6179  0.6606  0.1095
 3083TIP3   OH2 9212   4.160   6.334   3.188 -0.5367 -0.0834  0.2479
 3083TIP3    H1 9213   4.204   6.411   3.151  0.5995 -1.1476 -0.6891
 3083TIP3    H2 9214   4.159   6.270   3.117  1.2036 -2.0030  1.8206
 3084TIP3   OH2 9215   6.861   2.333   0.353  0.3296  0.7214  0.4317
 3084TIP3    H1 9216   6.906   2.252   0.330  1.5253  0.7802  2.4081
 3084TIP3    H2 9217   6.919   2.376   0.415  0.3783  3.7695 -1.5041
 3085TIP3   OH2 9218   4.937   0.121   2.104 -0.2252  0.2945  0.3700
 3085TIP3    H1 9219   4.907   0.210   2.087 -3.1108 -0.3666  1.3110
 3085TIP3    H2 9220   5.006   0.105   2.039 -1.2571  2.3975 -1.3685
 3086TIP3   OH2 9221   1.337   5.804   4.097 -0.1401 -0.3982 -0.0220
 3086TIP3    H1 9222   1.314   5.713   4.083 -0.3486 -0.2967 -0.3442
 3086TIP3    H2 9223   1.432   5.805   4.104 -0.1879 -0.7502  0.7896
 3087TIP3   OH2 9224   4.724   3.653   3.118 -0.9589  0.0093 -0.0527
 3087TIP3    H1 9225   4.760   3.611   3.040  0.1428  0.8987 -0.0418
 3087TIP3    H2 9226   4.684   3.733   3.086 -1.3939 -0.1115  0.1732
 3088TIP3   OH2 9227   3.291   6.373   5.408  0.1616  0.1660 -0.1452
 3088TIP3    H1 9228   3.385   6.387   5.417  0.6748 -0.5800 -3.2470
 3088TIP3    H2 9229   3.252   6.420   5.482  2.9589  0.2353  1.3900
 3089TIP3   OH2 9230   1.803   1.678   1.034 -0.8097  0.4032  0.2114
 3089TIP3    H1 9231   1.741   1.669   0.962  0.8544 -1.4297 -1.0745
 3089TIP3    H2 9232   1.863   1.747   1.006 -0.0786 -0.4067 -0.2490
 3090TIP3   OH2 9233   2.979   4.904   1.998 -0.1033  0.1223  0.6888
 3090TIP3    H1 9234   2.916   4.904   2.070 -0.4750 -0.0576  0.3625
 3090TIP3    H2 9235   3.059   4.941   2.037 -0.6321  1.0848  0.9098
 3091TIP3   OH2 9236   1.726   5.239   0.378 -0.2450  0.0425 -0.1386
 3091TIP3    H1 9237   1.750   5.259   0.288 -1.6469  0.6758 -0.4013
 3091TIP3    H2 9238   1.764   5.309   0.430 -1.1381  0.8225 -0.5015
 3092TIP3   OH2 9239   2.084   3.242   1.170  0.1102  0.3331  0.0148
 3092TIP3    H1 9240   2.168   3.270   1.134 -0.5422  0.3615 -1.5418
 3092TIP3    H2 9241   2.060   3.164   1.119 -1.6542  1.3772 -0.8418
 3093TIP3   OH2 9242   5.188   4.708   1.079 -0.3456 -0.0916  0.3582
 3093TIP3    H1 9243   5.276   4.735   1.053 -0.7290 -1.3905 -2.7217
 3093TIP3    H2 9244   5.151   4.785   1.121  1.1108  1.6622 -1.3838
 3094TIP3   OH2 9245   2.776   5.655   5.326  0.4596  0.2855 -0.4869
 3094TIP3    H1 9246   2.718   5.729   5.304  2.2055  1.4471 -1.4099
 3094TIP3    H2 9247   2.827   5.687   5.401 -1.1727 -1.3643  1.4517
 3095TIP3   OH2 9248   1.360   5.807   3.403  0.3108 -0.1897  0.2222
 3095TIP3    H1 9249   1.443   5.776   3.439  0.1153 -0.1849  0.6750
 3095TIP3    H2 9250   1.306   5.728   3.396  0.5178 -0.2774 -0.5405
 3096TIP3   OH2 9251   5.474   5.445   4.542 -0.2253  0.4483 -0.1957
 3096TIP3    H1 9252   5.422   5.406   4.472 -2.0838  1.3205  0.6332
 3096TIP3    H2 9253   5.415   5.506   4.585  0.4923 -0.8054  2.8196
 3097TIP3   OH2 9254   1.975   3.542   1.796  0.6942  0.3360 -0.1763
 3097TIP3    H1 9255   2.036   3.496   1.853 -0.2943 -0.5520  0.2187
 3097TIP3    H2 9256   1.894   3.491   1.803  0.6295  0.0124 -2.6271
 3098TIP3   OH2 9257   4.311   2.576   5.099  0.2805 -0.0280  0.5168
 3098TIP3    H1 9258   4.265   2.584   5.182 -0.2183 -2.3624  0.5349
 3098TIP3    H2 9259   4.293   2.658   5.054  0.7928  1.4230  2.7796
 3099TIP3   OH2 9260   0.342   5.290   3.467 -0.4895  0.1094  0.0665
 3099TIP3    H1 9261   0.274   5.258   3.527  0.2777 -0.7213  0.5154
 3099TIP3    H2 9262   0.424   5.259   3.505  0.0879  0.4557 -0.8745
 3100TIP3   OH2 9263   7.021   1.671   2.425 -0.3635 -0.7595  0.0771
 3100TIP3    H1 9264   6.968   1.591   2.423  1.2376 -1.9345  1.3307
 3100TIP3    H2 9265   7.110   1.640   2.440  0.3782  1.2617  0.1545
 3101TIP3   OH2 9266   6.077   5.515   4.058  0.1886  0.2309  0.5069
 3101TIP3    H1 9267   6.018   5.511   4.133  0.7104 -1.2270  0.8678
 3101TIP3    H2 9268   6.158   5.552   4.093  1.3643 -2.9132  1.3683
 3102TIP3   OH2 9269   2.926   4.045   0.915  0.5509 -0.3465  0.1589
 3102TIP3    H1 9270   2.855   4.031   0.977  0.4265 -1.3401 -0.1887
 3102TIP3    H2 9271   2.971   3.961   0.910  1.1686  0.0003 -0.3498
 3103TIP3   OH2 9272   4.881   4.043   1.046 -0.1783  0.4407 -0.4923
 3103TIP3    H1 9273   4.953   4.057   0.984  1.1143  1.2609  1.1108
 3103TIP3    H2 9274   4.913   4.079   1.129 -1.1186 -2.1799  1.1427
 3104TIP3   OH2 9275   0.615   0.757   0.802  0.1477  0.1859  0.3440
 3104TIP3    H1 9276   0.581   0.797   0.722 -1.7933 -0.7201  0.6736
 3104TIP3    H2 9277   0.663   0.828   0.846  0.4025  0.9603 -1.1038
 3105TIP3   OH2 9278   5.267   2.560   5.744  0.1643 -0.1403 -0.3411
 3105TIP3    H1 9279   5.185   2.515   5.766  0.6133 -1.0551 -0.5093
 3105TIP3    H2 9280   5.253   2.650   5.774 -1.3090 -0.0003 -1.3178
 3106TIP3   OH2 9281   4.976   4.175   2.224 -0.3001  0.5993  0.0345
 3106TIP3    H1 9282   4.954   4.255   2.177 -0.9869  0.6461  0.4190
 3106TIP3    H2 9283   4.924   4.179   2.304 -0.8631 -0.5278 -0.2426
 3107TIP3   OH2 9284   2.477   2.729   1.570  0.5774 -0.5994 -0.2417
 3107TIP3    H1 9285   2.401   2.705   1.519 -1.3310  0.8634  1.7095
 3107TIP3    H2 9286   2.529   2.785   1.512  0.4802 -2.0350 -1.7602
 3108TIP3   OH2 9287   1.262   0.719   0.179 -0.3386  0.3391  0.3070
 3108TIP3    H1 9288   1.341   0.726   0.233  0.0939 -1.6428  0.0155
 3108TIP3    H2 9289   1.291   0.738   0.090 -0.1517 -0.4391  0.1923
 3109TIP3   OH2 9290   2.897   6.825   2.623  0.7441 -0.1179 -0.2728
 3109TIP3    H1 9291   2.892   6.730   2.620  1.8555 -0.2688  1.3408
 3109TIP3    H2 9292   2.811   6.855   2.593 -0.1115 -1.6558  0.5281
 3110TIP3   OH2 9293   6.599   0.831   4.402  0.9535 -0.7156 -0.4408
 3110TIP3    H1 9294   6.675   0.837   4.460  1.9483 -1.2869 -1.6327
 3110TIP3    H2 9295   6.624   0.880   4.324 -0.3190 -0.0481 -0.4633
 3111TIP3   OH2 9296   2.723   4.766   2.944  0.6579 -0.4465  0.1198
 3111TIP3    H1 9297   2.681   4.687   2.908  0.5386 -0.3817  0.1173
 3111TIP3    H2 9298   2.747   4.817   2.867  0.2670 -0.2379  0.1338
 3112TIP3   OH2 9299   6.558   5.105   5.003  0.1907  0.0004 -0.4117
 3112TIP3    H1 9300   6.554   5.139   4.914  0.0317 -0.6227 -0.6447
 3112TIP3    H2 9301   6.651   5.111   5.026  0.1233  0.8980 -0.3214
 3113TIP3   OH2 9302   0.093   1.485   0.522  0.5734  0.1131 -0.2419
 3113TIP3    H1 9303   0.121   1.569   0.559  1.3570 -0.2997  0.1426
 3113TIP3    H2 9304   0.048   1.508   0.441  2.3684  0.8147 -1.0954
 3114TIP3   OH2 9305   6.212   1.960   3.580 -0.9520  0.1159  0.3832
 3114TIP3    H1 9306   6.197   2.051   3.555 -0.9476  0.3642  1.2642
 3114TIP3    H2 9307   6.159   1.947   3.658  1.7225  0.4519  2.4331
 3115TIP3   OH2 9308   5.838   0.255   4.564 -0.2765  0.2543 -0.0853
 3115TIP3    H1 9309   5.913   0.197   4.552  0.4629  1.1289  0.1914
 3115TIP3    H2 9310   5.833   0.270   4.658 -1.5053 -0.6784  0.0307
 3116TIP3   OH2 9311   0.369   3.342   5.481  0.4764  0.2189  0.2465
 3116TIP3    H1 9312   0.391   3.424   5.438 -0.9521  1.9647  2.5827
 3116TIP3    H2 9313   0.451   3.315   5.523  0.4749  1.7907  1.3866
 3117TIP3   OH2 9314   6.634   3.008   0.626  0.1138  0.1104 -1.0921
 3117TIP3    H1 9315   6.697   3.078   0.614 -0.4913  0.6703 -1.0389
 3117TIP3    H2 9316   6.652   2.974   0.714 -0.4160  1.0538 -0.5999
 3118TIP3   OH2 9317   5.251   6.456   4.379  0.2423 -0.1762  0.5129
 3118TIP3    H1 9318   5.215   6.369   4.364 -0.2204  0.1465 -0.2868
 3118TIP3    H2 9319   5.248   6.499   4.294 -1.4471  1.3460  1.2668
 3119TIP3   OH2 9320   3.034   4.174   3.608  0.5105  0.0383 -0.0273
 3119TIP3    H1 9321   2.954   4.151   3.561  0.9823 -0.9567 -0.3697
 3119TIP3    H2 9322   3.053   4.264   3.580 -0.1783  0.0796 -0.3784
 3120TIP3   OH2 9323   5.137   5.231   3.125  0.0947  0.1173  0.2932
 3120TIP3    H1 9324   5.211   5.292   3.121  0.6886 -0.3738  2.3536
 3120TIP3    H2 9325   5.081   5.266   3.194 -1.2084  0.0319 -0.6878
 3121TIP3   OH2 9326   3.847   0.975   1.540  0.0304  0.3598  0.0741
 3121TIP3    H1 9327   3.833   1.012   1.627  1.7951  0.8803  0.1577
 3121TIP3    H2 9328   3.922   0.918   1.549  0.4868  0.7136 -1.1904
 3122TIP3   OH2 9329   3.402   4.436   4.577 -0.5975 -0.3197  0.9413
 3122TIP3    H1 9330   3.379   4.343   4.576  0.5681 -0.6350 -0.9281
 3122TIP3    H2 9331   3.320   4.481   4.599 -2.0217 -1.6151 -1.3656
 3123TIP3   OH2 9332   0.168   5.230   5.694 -0.5023 -0.6025 -0.0166
 3123TIP3    H1 9333   0.170   5.198   5.784  0.6191 -2.2665 -0.5775
 3123TIP3    H2 9334   0.183   5.152   5.640  1.5892  0.7295 -1.5284
 3124TIP3   OH2 9335   2.443   3.151   1.461 -0.2358 -0.4992  0.2005
 3124TIP3    H1 9336   2.359   3.150   1.507  0.0764 -1.1192  0.7889
 3124TIP3    H2 9337   2.429   3.098   1.383 -0.8801  0.8748 -0.6497
 3125TIP3   OH2 9338   5.411   1.061   5.544  0.2292  0.7060 -0.4046
 3125TIP3    H1 9339   5.433   0.999   5.614  0.7976  1.5263  0.1639
 3125TIP3    H2 9340   5.495   1.083   5.503 -0.2881 -1.3411 -2.7638
 3126TIP3   OH2 9341   2.693   4.910   0.561 -0.3242  0.6793  0.6153
 3126TIP3    H1 9342   2.739   4.920   0.478 -1.2362  0.4281  0.0684
 3126TIP3    H2 9343   2.693   4.815   0.578 -0.9415  0.6371  0.4223
 3127TIP3   OH2 9344   1.456   0.351   5.827  0.2337 -0.1302 -0.2527
 3127TIP3    H1 9345   1.477   0.365   5.735 -3.2092  2.1160 -0.8807
 3127TIP3    H2 9346   1.500   0.423   5.873  2.0818 -1.3390  0.0224
 3128TIP3   OH2 9347   0.831   0.853   1.274  0.0439  0.5279 -0.1425
 3128TIP3    H1 9348   0.843   0.765   1.240 -0.6469 -0.1282  1.2315
 3128TIP3    H2 9349   0.795   0.840   1.362  0.6109  2.1587  0.3641
 3129TIP3   OH2 9350   5.890   1.613   4.815 -0.3732 -0.5852 -0.5119
 3129TIP3    H1 9351   5.814   1.562   4.786 -1.4842 -0.1093  1.3731
 3129TIP3    H2 9352   5.865   1.646   4.901  0.5761  2.5233 -1.2904
 3130TIP3   OH2 9353   2.175   5.912   0.353  0.4327 -0.1295  0.7237
 3130TIP3    H1 9354   2.089   5.950   0.368  0.9154  2.0207 -1.4194
 3130TIP3    H2 9355   2.164   5.856   0.276  0.3640 -2.3419  2.2255
 3131TIP3   OH2 9356   3.815   2.731   3.798 -0.6839  0.2752 -0.2040
 3131TIP3    H1 9357   3.842   2.807   3.746 -2.1292 -0.7392 -2.5874
 3131TIP3    H2 9358   3.720   2.737   3.800 -0.8390 -1.5737 -0.6308
 3132TIP3   OH2 9359   0.521   4.376   5.378  0.1818  0.2112  0.4999
 3132TIP3    H1 9360   0.555   4.465   5.390 -0.2374  0.3402  0.7553
 3132TIP3    H2 9361   0.459   4.364   5.449  0.7184 -0.5350  0.8580
 3133TIP3   OH2 9362   3.753   3.958   3.954  0.0460  0.3927  0.1722
 3133TIP3    H1 9363   3.730   3.918   4.038 -1.9138  2.4350  0.7126
 3133TIP3    H2 9364   3.773   4.049   3.976 -1.7444  1.3078 -1.6691
 3134TIP3   OH2 9365   2.385   2.621   4.371 -0.3896  0.3528 -0.3453
 3134TIP3    H1 9366   2.456   2.622   4.306  0.2735  0.6128  0.3647
 3134TIP3    H2 9367   2.391   2.706   4.414 -0.5424  0.0199  0.3458
 3135TIP3   OH2 9368   2.877   4.673   0.877 -0.0375 -0.2349  0.4975
 3135TIP3    H1 9369   2.817   4.614   0.831 -0.2791  1.0644 -0.9240
 3135TIP3    H2 9370   2.827   4.754   0.890  0.5141 -0.0689  1.7885
 3136TIP3   OH2 9371   0.398   4.170   4.513 -0.0063  0.2023 -0.4122
 3136TIP3    H1 9372   0.384   4.077   4.529  1.8848 -0.0760 -0.2466
 3136TIP3    H2 9373   0.485   4.189   4.549 -0.8025  2.2966  0.6298
 3137TIP3   OH2 9374   3.859   1.360   3.584 -0.3525  0.9473 -0.0480
 3137TIP3    H1 9375   3.947   1.323   3.599 -0.4202 -0.1077 -1.8707
 3137TIP3    H2 9376   3.871   1.454   3.594  0.3276  0.6666  2.5451
 3138TIP3   OH2 9377   2.507   5.339   0.259 -0.3418 -0.3904 -0.2889
 3138TIP3    H1 9378   2.441   5.281   0.297  1.3441 -1.1852  1.5982
 3138TIP3    H2 9379   2.544   5.386   0.334  1.8307 -0.6054 -1.1614
 3139TIP3   OH2 9380   5.234   2.934   3.263  0.2702 -0.6560  0.0618
 3139TIP3    H1 9381   5.328   2.939   3.244  0.2471 -1.2508 -0.2413
 3139TIP3    H2 9382   5.222   2.990   3.340  1.0975 -1.5814  0.8881
 3140TIP3   OH2 9383   6.591   5.539   3.227 -0.3088  0.4492 -0.2040
 3140TIP3    H1 9384   6.653   5.612   3.217  0.8010 -0.6017 -1.4655
 3140TIP3    H2 9385   6.627   5.470   3.170 -1.4903 -0.9632  0.7052
 3141TIP3   OH2 9386   4.667   0.988   3.714  0.3746  0.9352  0.2764
 3141TIP3    H1 9387   4.614   0.914   3.743 -0.2835  0.5019 -1.8950
 3141TIP3    H2 9388   4.608   1.063   3.720  1.0895  1.3857  2.6317
 3142TIP3   OH2 9389   3.120   3.243   4.847  0.5493 -0.6539 -0.0092
 3142TIP3    H1 9390   3.099   3.250   4.754  1.0737 -0.3002 -0.1066
 3142TIP3    H2 9391   3.213   3.222   4.849  1.0781  1.4606  0.4393
 3143TIP3   OH2 9392   0.028   5.819   2.721 -0.6443  0.0346  0.6440
 3143TIP3    H1 9393   0.064   5.790   2.805 -0.7389  1.1318  1.0808
 3143TIP3    H2 9394  -0.052   5.769   2.710 -0.3168 -0.5558  0.9135
 3144TIP3   OH2 9395   2.971   6.231   2.998  0.1592 -0.2672 -0.4372
 3144TIP3    H1 9396   3.062   6.218   3.027 -0.3621 -1.9631  0.5760
 3144TIP3    H2 9397   2.925   6.260   3.077 -0.2537  0.2905 -0.8765
 3145TIP3   OH2 9398   6.777   0.936   5.367 -0.4078 -0.3163 -0.2123
 3145TIP3    H1 9399   6.722   0.930   5.289 -0.4659  0.9928 -0.2892
 3145TIP3    H2 9400   6.859   0.973   5.335 -0.7694  1.1541  0.4781
 3146TIP3   OH2 9401   0.231   6.264   0.290  0.2207  0.0808  0.6922
 3146TIP3    H1 9402   0.321   6.270   0.260 -0.0206 -1.4821 -0.4282
 3146TIP3    H2 9403   0.223   6.334   0.355  1.7764  1.2790 -0.3192
 3147TIP3   OH2 9404   0.296   3.910   5.530 -0.0039 -0.1636  0.3626
 3147TIP3    H1 9405   0.289   3.862   5.612  0.3377 -0.4349  0.2349
 3147TIP3    H2 9406   0.270   4.000   5.552 -1.0522 -0.4893  0.5123
 3148TIP3   OH2 9407   2.184   0.143   3.903 -1.3474 -0.4245  0.4404
 3148TIP3    H1 9408   2.236   0.064   3.889 -1.5829 -0.7935  1.5445
 3148TIP3    H2 9409   2.238   0.198   3.959 -1.9594 -0.6451  1.2735
 3149TIP3   OH2 9410   4.602   1.591   3.061 -0.5283 -0.3138 -0.4412
 3149TIP3    H1 9411   4.516   1.554   3.043 -0.5147 -0.2741 -0.5914
 3149TIP3    H2 9412   4.589   1.686   3.058 -0.7102 -0.2927  0.6457
 3150TIP3   OH2 9413   0.270   1.713   1.046 -0.2951  0.3227  0.1783
 3150TIP3    H1 9414   0.309   1.712   1.133 -1.2741 -2.0844  0.6668
 3150TIP3    H2 9415   0.178   1.692   1.060 -0.5818  0.3412 -1.4043
 3151TIP3   OH2 9416   0.090   0.346   1.786 -0.0936 -0.0206  0.2338
 3151TIP3    H1 9417   0.174   0.306   1.810 -0.6554 -0.8481  0.9096
 3151TIP3    H2 9418   0.085   0.337   1.691  0.3374 -0.4730  0.2495
 3152TIP3   OH2 9419   6.821   1.307   5.785 -0.3193 -0.0538  0.5569
 3152TIP3    H1 9420   6.783   1.235   5.735  1.5006  0.6981 -2.1641
 3152TIP3    H2 9421   6.885   1.266   5.842  0.4881 -0.6682 -0.7490
 3153TIP3   OH2 9422   0.231   6.551   3.654  0.3184  0.0495 -0.1708
 3153TIP3    H1 9423   0.327   6.558   3.659  0.4261  0.9283 -2.4820
 3153TIP3    H2 9424   0.200   6.640   3.670 -0.1240 -0.1695  0.2229
 3154TIP3   OH2 9425   3.828   0.069   4.483  0.4594 -0.1704 -0.5152
 3154TIP3    H1 9426   3.848   0.146   4.430  0.7209  0.5882  0.6546
 3154TIP3    H2 9427   3.860   0.091   4.571 -0.9323 -0.9675  0.2195
 3155TIP3   OH2 9428   3.120   5.905   0.388  0.6201  0.0449 -0.2910
 3155TIP3    H1 9429   3.082   5.818   0.377 -2.7052  1.5679 -2.4095
 3155TIP3    H2 9430   3.177   5.917   0.312  0.3912  0.0268 -0.4655
 3156TIP3   OH2 9431   5.939   0.830   2.001 -0.6118  0.1040  0.0231
 3156TIP3    H1 9432   5.951   0.747   1.955 -1.4860 -0.8071  1.3540
 3156TIP3    H2 9433   6.021   0.877   1.988  1.3895 -2.4709  2.1659
 3157TIP3   OH2 9434   4.654   2.244   2.546  0.2265 -0.0853 -0.8851
 3157TIP3    H1 9435   4.651   2.335   2.576  1.6092 -0.5654  0.8992
 3157TIP3    H2 9436   4.654   2.192   2.627  1.2874 -1.5975 -1.7995
 3158TIP3   OH2 9437   0.486   1.016   2.932  0.2942 -0.0420 -0.3724
 3158TIP3    H1 9438   0.579   1.019   2.911  0.1882 -0.8275 -0.9798
 3158TIP3    H2 9439   0.467   1.102   2.969  1.5616 -0.3135  1.0450
 3159TIP3   OH2 9440   3.204   4.404   5.321  0.5067 -0.1057 -0.1629
 3159TIP3    H1 9441   3.220   4.351   5.243 -0.5193  1.5533 -1.5759
 3159TIP3    H2 9442   3.260   4.481   5.309  1.1522 -0.3070  1.3136
 3160TIP3   OH2 9443   6.030   6.576   0.870  0.2772  0.2334  0.3666
 3160TIP3    H1 9444   6.123   6.563   0.886  0.3234 -0.8861 -0.6170
 3160TIP3    H2 9445   6.025   6.612   0.781 -0.1911  1.1188  0.7432
 3161TIP3   OH2 9446   1.095   2.605   1.439  0.3309 -0.1749  0.8953
 3161TIP3    H1 9447   1.026   2.579   1.501  1.6227 -0.8445  2.1357
 3161TIP3    H2 9448   1.065   2.573   1.354 -1.4431  0.6467  1.1893
 3162TIP3   OH2 9449   2.244   4.100   1.838  0.1570  0.3205 -0.2584
 3162TIP3    H1 9450   2.271   4.191   1.845 -2.6037  1.3078 -1.2605
 3162TIP3    H2 9451   2.314   4.058   1.788  1.1502  2.0287 -0.3632
 3163TIP3   OH2 9452   3.073   0.648   0.864  0.2684  0.4183  0.1936
 3163TIP3    H1 9453   3.016   0.640   0.787  0.0715  1.6445  0.1964
 3163TIP3    H2 9454   3.115   0.733   0.854  3.2561 -1.0216 -0.5680
 3164TIP3   OH2 9455   5.934   0.603   4.119 -0.5587  0.1281  0.1233
 3164TIP3    H1 9456   5.963   0.569   4.034  0.1014  0.2677  0.2839
 3164TIP3    H2 9457   5.947   0.530   4.180 -2.4133 -0.4649 -0.1383
 3165TIP3   OH2 9458   2.883   1.650   3.983 -0.5126 -0.6692 -0.5222
 3165TIP3    H1 9459   2.929   1.732   3.962 -0.6644  0.0943  1.8173
 3165TIP3    H2 9460   2.895   1.595   3.906  2.0081  0.5100 -1.0532
 3166TIP3   OH2 9461   0.846   2.901   0.210 -0.2187 -0.0394 -0.3984
 3166TIP3    H1 9462   0.859   2.814   0.247 -2.3555  0.3913  1.5363
 3166TIP3    H2 9463   0.850   2.887   0.115  0.9901 -1.9505 -0.1125
 3167TIP3   OH2 9464   5.360   5.047   4.266 -0.0741  0.2369  0.3376
 3167TIP3    H1 9465   5.337   4.960   4.297  0.3618  0.2827  0.8013
 3167TIP3    H2 9466   5.425   5.079   4.328 -0.5755  1.0902  0.4444
 3168TIP3   OH2 9467   4.615   1.253   4.501  0.2728 -0.4890 -0.1934
 3168TIP3    H1 9468   4.564   1.180   4.466 -0.4589 -0.4768  0.7994
 3168TIP3    H2 9469   4.679   1.273   4.432  1.5956 -3.1179  0.1431
 3169TIP3   OH2 9470   4.093   3.656   3.274  0.7254  0.6167 -0.6791
 3169TIP3    H1 9471   4.096   3.625   3.364 -1.2163  0.0484 -0.7614
 3169TIP3    H2 9472   4.152   3.597   3.227 -1.3262 -1.7989 -0.4537
 3170TIP3   OH2 9473   0.192   6.366   2.463 -0.6117 -0.0863 -0.2972
 3170TIP3    H1 9474   0.236   6.428   2.522  0.3529  0.9738 -2.0454
 3170TIP3    H2 9475   0.100   6.391   2.466 -0.3134  1.0859 -0.5474
 3171TIP3   OH2 9476   0.561   1.531   1.445 -0.7233 -0.2467 -0.7424
 3171TIP3    H1 9477   0.606   1.601   1.493 -0.9468 -0.1519 -0.6721
 3171TIP3    H2 9478   0.630   1.467   1.427 -0.0995  0.8115 -2.3829
 3172TIP3   OH2 9479   1.093   6.453   0.404  0.2599 -0.3750 -0.3896
 3172TIP3    H1 9480   1.188   6.456   0.395  0.1839  1.3327 -0.9445
 3172TIP3    H2 9481   1.078   6.392   0.477  1.6269 -2.4595 -1.7535
 3173TIP3   OH2 9482   5.363   0.420   3.300 -0.6788 -0.1378  0.2590
 3173TIP3    H1 9483   5.435   0.480   3.282  0.3301 -0.9258  1.4676
 3173TIP3    H2 9484   5.321   0.455   3.378 -0.1748 -0.8837  0.8856
 3174TIP3   OH2 9485   1.206   6.768   0.105  0.2685 -0.2020 -0.4268
 3174TIP3    H1 9486   1.171   6.832   0.167  1.0684  0.4017 -0.5803
 3174TIP3    H2 9487   1.281   6.812   0.065 -0.1847 -0.6002 -1.7706
 3175TIP3   OH2 9488   7.013   6.521   3.605  0.1304 -0.6385  0.0388
 3175TIP3    H1 9489   7.104   6.496   3.590  0.3074 -0.1368  0.2373
 3175TIP3    H2 9490   6.963   6.470   3.542  0.5018 -1.2735  0.2539
 3176TIP3   OH2 9491   0.533   1.830   2.360  0.4277  0.3374  0.3537
 3176TIP3    H1 9492   0.504   1.915   2.326  0.1131  0.3883  0.7345
 3176TIP3    H2 9493   0.457   1.772   2.348  1.1282 -0.2873 -1.2555
 3177TIP3   OH2 9494   0.778   4.800   2.183  0.8060  0.0443 -0.3419
 3177TIP3    H1 9495   0.686   4.796   2.156  0.5156 -0.4932  0.6716
 3177TIP3    H2 9496   0.778   4.854   2.262  1.5266  0.9388 -0.9274
 3178TIP3   OH2 9497   3.618   5.924   1.727 -0.0851 -0.3461  0.1494
 3178TIP3    H1 9498   3.599   5.898   1.637  1.6899 -0.6633 -0.1827
 3178TIP3    H2 9499   3.541   5.897   1.777 -0.8831 -0.6293 -1.1865
 3179TIP3   OH2 9500   4.045   5.446   4.258  0.4540 -0.0770  0.3343
 3179TIP3    H1 9501   4.069   5.380   4.323 -0.3594  1.1663  1.9832
 3179TIP3    H2 9502   4.037   5.398   4.176 -0.2607 -2.0560  1.4943
 3180TIP3   OH2 9503   0.202   4.524   2.817 -0.3500  0.3767 -0.4990
 3180TIP3    H1 9504   0.133   4.550   2.878  0.3749  1.0680  0.0391
 3180TIP3    H2 9505   0.275   4.583   2.836 -0.0361  0.4630 -1.8944
 3181TIP3   OH2 9506   2.342   4.724   4.570 -0.7785  0.0978  0.6847
 3181TIP3    H1 9507   2.260   4.678   4.548 -0.1618 -1.4599  1.4688
 3181TIP3    H2 9508   2.399   4.655   4.605  0.6090  1.2928  0.8558
 3182TIP3   OH2 9509   4.484   4.996   0.500  0.8240 -0.4646  0.1533
 3182TIP3    H1 9510   4.466   5.072   0.445  1.8039  0.1730  0.6849
 3182TIP3    H2 9511   4.501   5.033   0.587  0.8040 -1.3353  0.5390
 3183TIP3   OH2 9512   3.307   4.981   0.220  0.2790 -0.2458  0.0811
 3183TIP3    H1 9513   3.369   4.963   0.150  0.8392  0.4022  0.4003
 3183TIP3    H2 9514   3.351   4.954   0.300  0.0482 -0.0261  0.2864
 3184TIP3   OH2 9515   0.495   3.629   0.239  0.4973 -0.1413 -0.4347
 3184TIP3    H1 9516   0.496   3.713   0.286 -0.1469  0.2499 -1.1083
 3184TIP3    H2 9517   0.404   3.602   0.240  0.7184 -0.9154 -0.1123
 3185TIP3   OH2 9518   5.514   0.301   2.197  0.2468 -0.0195 -0.0155
 3185TIP3    H1 9519   5.568   0.368   2.237 -0.3017 -1.0862  2.7085
 3185TIP3    H2 9520   5.484   0.247   2.270 -0.0385 -2.7270 -1.9822
 3186TIP3   OH2 9521   0.282   4.813   0.933 -0.6111  0.8803 -0.2016
 3186TIP3    H1 9522   0.248   4.891   0.887 -0.3659  0.2461 -1.5070
 3186TIP3    H2 9523   0.217   4.745   0.916 -1.5149  1.0906  2.0626
 3187TIP3   OH2 9524   3.690   6.208   0.019 -0.0353 -0.1131 -0.1956
 3187TIP3    H1 9525   3.644   6.125   0.022 -3.2846  1.4446 -1.5188
 3187TIP3    H2 9526   3.666   6.252   0.100 -1.0174  0.7224 -0.9052
 3188TIP3   OH2 9527   1.796   5.753   0.466 -0.0295  0.0890  0.5189
 3188TIP3    H1 9528   1.723   5.690   0.462  0.0440  0.0571 -0.4769
 3188TIP3    H2 9529   1.753   5.837   0.480 -0.3277  0.1611 -0.7083
 3189TIP3   OH2 9530   5.588   0.739   1.357  0.4850  0.4017 -0.1116
 3189TIP3    H1 9531   5.515   0.755   1.417  1.3356  0.9785  0.7977
 3189TIP3    H2 9532   5.546   0.726   1.272 -0.6982  0.3509  0.4576
 3190TIP3   OH2 9533   1.850   4.750   2.033 -0.1403  0.7291 -0.2994
 3190TIP3    H1 9534   1.907   4.795   2.094  2.0187  1.4288 -2.6884
 3190TIP3    H2 9535   1.893   4.666   2.017 -1.7802 -0.3592  0.6381
 3191TIP3   OH2 9536   6.063   3.594   0.645  0.2919 -0.0704  0.1945
 3191TIP3    H1 9537   6.092   3.610   0.556 -0.7909 -0.0103 -0.1696
 3191TIP3    H2 9538   6.122   3.645   0.700  0.7222  0.2051 -0.5214
 3192TIP3   OH2 9539   3.071   1.177   3.795 -0.3175 -0.1445  0.7431
 3192TIP3    H1 9540   2.987   1.221   3.808 -1.5590 -2.0533 -0.4489
 3192TIP3    H2 9541   3.097   1.200   3.706 -0.1787 -0.5248  0.6836
 3193TIP3   OH2 9542   6.907   5.577   3.850 -0.5532  0.8231 -0.3462
 3193TIP3    H1 9543   6.814   5.562   3.831 -0.6483  2.9182 -2.0029
 3193TIP3    H2 9544   6.940   5.492   3.879 -2.8938 -0.0684 -0.0794
 3194TIP3   OH2 9545   4.137   2.943   0.332  0.1860  0.3113  0.0727
 3194TIP3    H1 9546   4.079   2.880   0.376  1.0791 -0.6005 -0.0150
 3194TIP3    H2 9547   4.176   2.893   0.260  0.4199  1.1647 -0.4073
 3195TIP3   OH2 9548   5.207   0.542   3.497 -0.4305  0.3851  0.1792
 3195TIP3    H1 9549   5.144   0.537   3.426  0.6231  1.0286 -0.8365
 3195TIP3    H2 9550   5.191   0.627   3.538 -2.0287 -0.5903  1.7211
 3196TIP3   OH2 9551   0.906   6.501   4.357 -0.0549  0.7039 -0.0690
 3196TIP3    H1 9552   0.912   6.458   4.272 -1.7510  1.4397 -0.5885
 3196TIP3    H2 9553   0.942   6.588   4.343  0.2369  0.6144  0.1222
 3197TIP3   OH2 9554   1.355   2.861   0.215 -0.4776  0.5228 -0.1285
 3197TIP3    H1 9555   1.336   2.833   0.304 -0.4378  1.1931  0.0933
 3197TIP3    H2 9556   1.339   2.783   0.162 -3.5290  0.9088  0.0493
 3198TIP3   OH2 9557   2.512   1.438   2.312  0.4946  0.4030  0.2454
 3198TIP3    H1 9558   2.426   1.402   2.335  0.4822  0.8709  0.9573
 3198TIP3    H2 9559   2.566   1.360   2.297 -0.1647  0.1071 -0.6685
 3199TIP3   OH2 9560   6.464   2.572  -0.015 -0.1841 -0.6644 -0.2376
 3199TIP3    H1 9561   6.458   2.584   0.080  2.0819 -0.7221 -0.0382
 3199TIP3    H2 9562   6.443   2.658  -0.052  0.5122 -0.2052  0.4116
 3200TIP3   OH2 9563   0.160   3.179   4.334  0.1528  0.1086  0.0320
 3200TIP3    H1 9564   0.200   3.094   4.317 -0.5100 -0.0779 -0.6981
 3200TIP3    H2 9565   0.209   3.240   4.279 -0.8918 -0.2151 -1.3199
 3201TIP3   OH2 9566   2.344   0.970   1.903  0.8117  0.5447 -0.1984
 3201TIP3    H1 9567   2.394   1.048   1.878 -1.3976  2.5078  1.0429
 3201TIP3    H2 9568   2.383   0.943   1.986  1.5641  0.3426 -0.6112
 3202TIP3   OH2 9569   1.693   6.710   5.567 -0.7254 -0.3575  0.0434
 3202TIP3    H1 9570   1.692   6.616   5.584 -0.3194 -0.6642 -1.5187
 3202TIP3    H2 9571   1.601   6.737   5.575 -1.1819 -1.3025 -1.5622
 3203TIP3   OH2 9572   0.777   3.794   3.562  0.2887  0.1208 -0.3870
 3203TIP3    H1 9573   0.770   3.766   3.653  2.4429  2.0833  0.4973
 3203TIP3    H2 9574   0.689   3.823   3.539 -0.2608 -0.2206  1.1435
 3204TIP3   OH2 9575   3.447   1.407   4.099 -0.0342 -0.0514  0.3346
 3204TIP3    H1 9576   3.535   1.436   4.076 -0.1214 -1.1181 -1.5052
 3204TIP3    H2 9577   3.458   1.364   4.184  1.3885 -0.8483 -0.2119
 3205TIP3   OH2 9578   1.998   2.372   0.702  0.1534 -0.0574  0.1768
 3205TIP3    H1 9579   1.908   2.401   0.685  0.6178  1.1029 -0.4221
 3205TIP3    H2 9580   2.010   2.383   0.796  0.4441  2.2051 -0.0702
 3206TIP3   OH2 9581   1.165   1.554   2.009  0.3987 -0.1612 -0.7500
 3206TIP3    H1 9582   1.172   1.562   1.914  1.4683  0.1111 -0.6657
 3206TIP3    H2 9583   1.237   1.607   2.043  0.7280 -1.1445  0.1701
 3207TIP3   OH2 9584   0.220   0.717   2.544  0.5727  0.1449  0.3052
 3207TIP3    H1 9585   0.307   0.695   2.578 -0.2900 -2.2802  1.1563
 3207TIP3    H2 9586   0.159   0.669   2.600 -1.3385  1.5360 -0.4626
 3208TIP3   OH2 9587   6.742   0.219   2.841 -0.1252 -0.5714 -0.3093
 3208TIP3    H1 9588   6.650   0.235   2.861 -0.2336 -0.4886 -0.8543
 3208TIP3    H2 9589   6.790   0.259   2.913 -0.4629  0.6653 -0.7546
 3209TIP3   OH2 9590   3.963   5.007   5.440  0.1780  0.1844 -0.0015
 3209TIP3    H1 9591   4.017   4.929   5.425  0.6436  0.3272  0.8678
 3209TIP3    H2 9592   4.020   5.080   5.418  0.5456  0.3569  1.4872
 3210TIP3   OH2 9593   3.267   6.675   0.215  0.4441  0.0912  0.4522
 3210TIP3    H1 9594   3.266   6.634   0.302  0.2102 -0.0222  0.3971
 3210TIP3    H2 9595   3.299   6.606   0.157  1.2094  0.3655  0.5453
 3211TIP3   OH2 9596   7.132   0.009   1.513  0.0518  0.0898 -0.0578
 3211TIP3    H1 9597   7.125   0.104   1.517  1.0663  0.3774 -2.9471
 3211TIP3    H2 9598   7.051  -0.019   1.471  0.1125 -0.2659  0.0549
 3212TIP3   OH2 9599   6.050   0.097   5.889 -0.2825  0.1429 -0.3506
 3212TIP3    H1 9600   6.077   0.134   5.804 -0.9729  1.5416  0.0020
 3212TIP3    H2 9601   5.980   0.156   5.919 -2.7409 -2.4429 -0.5421
 3213TIP3   OH2 9602   0.932   3.265   2.538  0.2957 -0.7118 -0.1230
 3213TIP3    H1 9603   0.929   3.238   2.630  0.3407 -2.0223 -0.4847
 3213TIP3    H2 9604   0.847   3.240   2.503  0.2349 -0.1084 -0.4144
 3214TIP3   OH2 9605   0.476   5.445   0.485  0.4089 -0.0866  0.1599
 3214TIP3    H1 9606   0.408   5.392   0.446 -0.2970 -0.8585  2.2984
 3214TIP3    H2 9607   0.519   5.387   0.548  0.0930  1.6065  2.0410
 3215TIP3   OH2 9608   5.118   2.011   5.150 -0.1301 -0.1725  0.1703
 3215TIP3    H1 9609   5.044   2.046   5.100 -1.2442 -2.1749  0.3211
 3215TIP3    H2 9610   5.092   2.022   5.241  0.7166  1.0082  0.2933
 3216TIP3   OH2 9611   6.686   0.940   2.768 -0.1397  0.1855  0.3313
 3216TIP3    H1 9612   6.659   0.907   2.854 -0.9622 -0.8527 -0.2997
 3216TIP3    H2 9613   6.673   1.034   2.774 -0.6260  0.0777  1.2006
 3217TIP3   OH2 9614   5.182   6.042   4.344 -0.5570 -0.2049  0.2048
 3217TIP3    H1 9615   5.247   6.040   4.414 -1.0925  1.2767  0.7973
 3217TIP3    H2 9616   5.129   6.120   4.364 -1.1597 -0.1646 -1.4567
 3218TIP3   OH2 9617   5.367   6.075   3.403  0.8357  0.2226 -0.3747
 3218TIP3    H1 9618   5.456   6.043   3.420  0.9215  1.1147  1.0491
 3218TIP3    H2 9619   5.322   6.063   3.486 -1.0976 -2.3068 -1.6604
 3219TIP3   OH2 9620   1.424   3.895   3.104  0.0629  0.1817 -0.1697
 3219TIP3    H1 9621   1.382   3.810   3.111  0.6322 -0.2070 -1.2565
 3219TIP3    H2 9622   1.511   3.883   3.144  0.2463  0.1711 -0.5644
 3220TIP3   OH2 9623   4.106   6.005   0.907  0.1152 -0.0156 -0.0666
 3220TIP3    H1 9624   4.142   5.939   0.966 -0.5132 -0.1510  0.1679
 3220TIP3    H2 9625   4.180   6.064   0.889  0.8138 -1.0533 -0.6803
 3221TIP3   OH2 9626   5.181   3.428   3.109  0.1874  0.2017  0.2436
 3221TIP3    H1 9627   5.271   3.419   3.078  0.0342  1.4519 -0.6620
 3221TIP3    H2 9628   5.128   3.387   3.040 -0.0846  1.9945 -0.6785
 3222TIP3   OH2 9629   5.667   0.651   0.857  0.2152 -0.6882 -0.1388
 3222TIP3    H1 9630   5.685   0.599   0.778  1.1002  0.6164 -0.8151
 3222TIP3    H2 9631   5.706   0.736   0.840  1.3458 -0.6830  2.1502
 3223TIP3   OH2 9632   1.081   0.515   0.215  0.0841  0.3314  0.1153
 3223TIP3    H1 9633   1.142   0.589   0.218  0.1682  0.2374  1.0458
 3223TIP3    H2 9634   1.097   0.468   0.297  0.0384 -0.7240 -0.4734
 3224TIP3   OH2 9635   6.915   3.924   1.680  0.0070 -0.3980 -0.1369
 3224TIP3    H1 9636   6.876   3.845   1.715 -1.0228  1.0828  2.3499
 3224TIP3    H2 9637   6.841   3.976   1.648  0.1183  1.1629  1.9029
 3225TIP3   OH2 9638   1.733   3.839   5.287  0.3018 -0.1608  0.4796
 3225TIP3    H1 9639   1.781   3.858   5.368  0.3553  0.8766  0.2213
 3225TIP3    H2 9640   1.647   3.879   5.301  0.1803 -0.3222  0.1831
 3226TIP3   OH2 9641   6.224   2.243   2.036 -0.1352 -1.0734  0.2850
 3226TIP3    H1 9642   6.227   2.148   2.044 -1.8558 -1.0793  1.5866
 3226TIP3    H2 9643   6.217   2.260   1.942 -1.1596 -2.3085  0.1182
 3227TIP3   OH2 9644   3.843   4.246   3.886 -0.2216  0.1155 -0.2812
 3227TIP3    H1 9645   3.924   4.284   3.851  0.0921 -0.1031  0.1888
 3227TIP3    H2 9646   3.790   4.321   3.912  0.5332  0.2457  0.9621
 3228TIP3   OH2 9647   6.218   2.580   4.861  1.2097  0.3211 -0.0984
 3228TIP3    H1 9648   6.233   2.537   4.945 -0.0582 -0.9532 -0.4845
 3228TIP3    H2 9649   6.242   2.671   4.876  3.9261 -0.4328  0.7853
 3229TIP3   OH2 9650   1.669   1.267   1.886 -0.2357 -0.0996 -0.3145
 3229TIP3    H1 9651   1.717   1.194   1.849 -1.1300 -0.1576 -1.4149
 3229TIP3    H2 9652   1.723   1.297   1.959  0.5638 -1.2930 -0.3922
 3230TIP3   OH2 9653   1.109   5.916   0.336 -0.6802 -0.3964  0.3785
 3230TIP3    H1 9654   1.107   5.965   0.418 -1.8293  2.3229 -1.1607
 3230TIP3    H2 9655   1.203   5.907   0.316 -0.2799  4.2892 -0.8789
 3231TIP3   OH2 9656   6.099   6.692   4.379 -0.1794  0.0615 -0.2113
 3231TIP3    H1 9657   6.136   6.774   4.411  1.7491 -1.1696  0.9134
 3231TIP3    H2 9658   6.074   6.711   4.288  1.0636  1.6361 -0.2647
 3232TIP3   OH2 9659   1.889   0.525   0.171 -0.0322  0.8273  0.3506
 3232TIP3    H1 9660   1.887   0.554   0.262  1.2957 -0.0184  0.6814
 3232TIP3    H2 9661   1.968   0.565   0.134 -0.3840  0.9018 -0.3413
 3233TIP3   OH2 9662   5.317   5.340   4.335  0.1876  0.0559  0.1193
 3233TIP3    H1 9663   5.302   5.246   4.326  0.1829  0.0064  0.6128
 3233TIP3    H2 9664   5.229   5.378   4.335  0.2121  0.1509 -0.9250
 3234TIP3   OH2 9665   0.393   0.797   1.087  0.1734  1.2201  0.5124
 3234TIP3    H1 9666   0.432   0.767   1.004  2.8475  1.0826  1.6959
 3234TIP3    H2 9667   0.436   0.743   1.153 -0.0363  2.9890  2.1670
 3235TIP3   OH2 9668   5.427   5.784   5.667 -0.1990  0.0012 -0.1169
 3235TIP3    H1 9669   5.432   5.703   5.718  0.0092  0.4802  0.6448
 3235TIP3    H2 9670   5.333   5.797   5.652 -0.2073 -0.6155 -0.6419
 3236TIP3   OH2 9671   1.366   3.001   2.146 -0.3043 -0.2646 -0.3791
 3236TIP3    H1 9672   1.296   3.052   2.105  0.6544  0.8683 -0.6188
 3236TIP3    H2 9673   1.418   3.065   2.194 -0.0508 -1.2558  0.7121
 3237TIP3   OH2 9674   4.596   3.962   3.186 -0.1041 -0.0028  0.0299
 3237TIP3    H1 9675   4.589   3.881   3.236 -0.1622 -0.6674 -1.0209
 3237TIP3    H2 9676   4.678   4.002   3.216 -0.1743 -0.3410  0.6958
 3238TIP3   OH2 9677   2.317   0.172   2.506  0.2271  0.3600  0.2132
 3238TIP3    H1 9678   2.401   0.197   2.468  1.1430 -1.1962  1.0964
 3238TIP3    H2 9679   2.308   0.229   2.583  1.1404 -0.3146  0.8543
 3239TIP3   OH2 9680   3.370   3.452   2.160  0.0957  0.1116 -0.0413
 3239TIP3    H1 9681   3.362   3.488   2.072 -0.3016 -0.7175 -0.3570
 3239TIP3    H2 9682   3.371   3.357   2.147  0.1266 -0.0149  0.8380
 3240TIP3   OH2 9683   0.976   5.944   3.073  0.8104  0.1543 -0.0232
 3240TIP3    H1 9684   0.953   5.856   3.044  2.2144  0.5449 -2.5932
 3240TIP3    H2 9685   0.904   5.999   3.044  0.7508  0.0929  0.0090
 3241TIP3   OH2 9686   0.955   3.858   0.108 -0.2517  0.3286  0.1822
 3241TIP3    H1 9687   0.873   3.810   0.122 -0.3599  0.2904 -0.5361
 3241TIP3    H2 9688   1.017   3.791   0.079 -0.5936  0.7035 -1.5232
 3242TIP3   OH2 9689   5.134   3.230   1.890 -0.0978 -0.2012 -0.1686
 3242TIP3    H1 9690   5.111   3.214   1.798 -0.1012 -2.7691  0.2078
 3242TIP3    H2 9691   5.153   3.143   1.925 -1.7336  0.4947  2.7291
 3243TIP3   OH2 9692   5.033   0.856   5.191  0.3235 -0.0753  0.2377
 3243TIP3    H1 9693   5.042   0.761   5.193  0.0369 -0.0980  1.0024
 3243TIP3    H2 9694   5.072   0.886   5.273 -0.2189  0.3976  0.3333
 3244TIP3   OH2 9695   4.587   4.072   4.935  0.0495 -0.4775  0.2284
 3244TIP3    H1 9696   4.563   4.149   4.884  0.4806  0.0859  0.8365
 3244TIP3    H2 9697   4.613   4.007   4.871  1.1219  0.4017 -0.2760
 3245TIP3   OH2 9698   5.431   0.506   0.139  0.1197 -0.1427 -0.1331
 3245TIP3    H1 9699   5.492   0.450   0.091  0.9280  1.6934 -1.3900
 3245TIP3    H2 9700   5.387   0.448   0.201  3.2024 -1.5405  0.9115
 3246TIP3   OH2 9701   1.318   6.663   0.676  0.2318  0.2730 -0.0998
 3246TIP3    H1 9702   1.314   6.754   0.645  0.0517 -0.4138 -2.2480
 3246TIP3    H2 9703   1.228   6.642   0.699  0.4910  1.0471  1.8620
 3247TIP3   OH2 9704   4.955   5.978   2.002  0.0025 -0.7549 -0.4439
 3247TIP3    H1 9705   4.989   5.895   1.968  0.4303 -0.5598 -0.4946
 3247TIP3    H2 9706   5.030   6.037   2.003 -0.2315 -0.4559 -0.1127
 3248TIP3   OH2 9707   4.712   1.306   2.101  0.2821  0.2522 -0.0658
 3248TIP3    H1 9708   4.650   1.282   2.170  0.6589 -1.6292 -0.3221
 3248TIP3    H2 9709   4.722   1.401   2.110 -1.5460  0.4064  0.8655
 3249TIP3   OH2 9710   5.446   0.202   3.417 -0.2233 -0.4013 -0.5493
 3249TIP3    H1 9711   5.481   0.248   3.493  0.6259 -1.6039 -0.1749
 3249TIP3    H2 9712   5.414   0.271   3.359 -4.3494  0.5179  2.4110
 3250TIP3   OH2 9713   3.004   2.976   4.045 -0.2460  0.3631  0.1506
 3250TIP3    H1 9714   3.093   2.961   4.011 -0.5513  0.0029 -0.5221
 3250TIP3    H2 9715   3.017   3.007   4.134  0.5538  0.1105  0.1298
 3251TIP3   OH2 9716   0.254   6.446   2.207 -0.1060 -0.8091 -0.3659
 3251TIP3    H1 9717   0.319   6.508   2.240  1.1392 -1.4783 -1.4507
 3251TIP3    H2 9718   0.209   6.414   2.285 -1.2702  1.8989  0.2090
 3252TIP3   OH2 9719   5.660   6.510   1.709  0.1119 -0.7460 -0.2944
 3252TIP3    H1 9720   5.710   6.534   1.787  0.6091  0.3349 -0.9224
 3252TIP3    H2 9721   5.630   6.421   1.727  0.9891 -0.8651  0.7388
 3253TIP3   OH2 9722   3.890   1.299   1.416  0.2667  0.4608  0.0059
 3253TIP3    H1 9723   3.972   1.315   1.463  0.4361  1.9684 -0.7699
 3253TIP3    H2 9724   3.823   1.345   1.467 -0.1699 -0.9139  0.7398
 3254TIP3   OH2 9725   1.767   0.086   2.439 -0.0700 -0.3184 -0.1356
 3254TIP3    H1 9726   1.785   0.173   2.404  0.1812  0.0563  0.8913
 3254TIP3    H2 9727   1.851   0.039   2.433  0.4059  0.2643  1.3639
 3255TIP3   OH2 9728   6.531   0.511   3.771  0.1245 -1.2640 -0.0340
 3255TIP3    H1 9729   6.625   0.496   3.784  0.8763  3.0653  1.1729
 3255TIP3    H2 9730   6.491   0.490   3.855  1.0177  1.9639  1.3579
 3256TIP3   OH2 9731   2.849   4.505   4.013  0.6153 -0.5077  0.4475
 3256TIP3    H1 9732   2.845   4.562   4.090  0.3195 -0.5507  0.4646
 3256TIP3    H2 9733   2.784   4.437   4.029 -1.1278  0.7463 -0.8405
 3257TIP3   OH2 9734   0.115   5.687   1.690 -0.1083 -0.2213 -0.1083
 3257TIP3    H1 9735   0.193   5.650   1.650 -1.4512 -2.5715 -0.7059
 3257TIP3    H2 9736   0.129   5.675   1.784  1.5026  2.1348  0.0418
 3258TIP3   OH2 9737   4.044   1.413   2.875 -0.2151 -0.5711  0.3495
 3258TIP3    H1 9738   4.114   1.349   2.866  2.1098  1.8625  0.0868
 3258TIP3    H2 9739   4.039   1.455   2.789 -2.2964 -0.9018  0.2566
 3259TIP3   OH2 9740   2.606   4.801   4.708 -0.3778  0.3317 -0.2759
 3259TIP3    H1 9741   2.547   4.790   4.633 -0.5073  0.2019 -0.1571
 3259TIP3    H2 9742   2.605   4.716   4.752 -0.4272  0.4535 -0.0381
 3260TIP3   OH2 9743   6.044   2.257   2.901 -0.2389 -0.2267  0.1704
 3260TIP3    H1 9744   6.101   2.184   2.927  0.7851  0.0533 -1.1548
 3260TIP3    H2 9745   6.078   2.332   2.950  0.2489 -0.1587 -0.2612
 3261TIP3   OH2 9746   4.182   6.014   2.274 -0.3875  0.0865  0.3940
 3261TIP3    H1 9747   4.276   6.001   2.261 -0.3721 -0.6331  1.1264
 3261TIP3    H2 9748   4.162   5.963   2.353 -1.3287  0.5013  0.4336
 3262TIP3   OH2 9749   0.903   4.946   2.877 -0.2980  0.5226  0.5616
 3262TIP3    H1 9750   0.860   4.946   2.963 -0.1033  0.8445  0.6613
 3262TIP3    H2 9751   0.994   4.965   2.895  0.4033 -2.4053  0.5670
 3263TIP3   OH2 9752   4.387   4.536   0.358  0.3484  0.2242  0.1333
 3263TIP3    H1 9753   4.340   4.611   0.396  1.0757  0.6024  0.3081
 3263TIP3    H2 9754   4.470   4.572   0.328  1.0173 -0.6301  0.8648
 3264TIP3   OH2 9755   2.761   4.306   5.013  0.0020 -0.1006  0.7675
 3264TIP3    H1 9756   2.766   4.214   5.038  1.6388  0.2800  2.0152
 3264TIP3    H2 9757   2.730   4.305   4.923  2.2648 -2.0306 -0.0770
 3265TIP3   OH2 9758   3.548   2.802   3.466  0.0851 -0.2019  0.0558
 3265TIP3    H1 9759   3.531   2.893   3.489 -0.5540 -0.2206 -0.3125
 3265TIP3    H2 9760   3.631   2.804   3.419 -0.7163  0.4249 -1.3792
 3266TIP3   OH2 9761   1.986   3.845   3.543 -0.3194  0.1848 -0.2325
 3266TIP3    H1 9762   1.922   3.847   3.473  0.9147  2.5829 -1.3878
 3266TIP3    H2 9763   2.014   3.935   3.553  0.8316 -0.3569  2.1887
 3267TIP3   OH2 9764   2.751   0.641   4.074  0.2707 -0.1446 -0.0173
 3267TIP3    H1 9765   2.799   0.703   4.129 -0.6167  0.2085  0.3749
 3267TIP3    H2 9766   2.819   0.598   4.022  1.4993 -2.2682  3.0574
 3268TIP3   OH2 9767   0.467   3.040   5.037 -0.7640  0.2660  0.3578
 3268TIP3    H1 9768   0.514   2.957   5.028 -0.8325  0.1676  0.8360
 3268TIP3    H2 9769   0.375   3.016   5.030 -0.7834  0.3007  0.4907
 3269TIP3   OH2 9770   4.304   3.798   0.632  0.1844 -0.3917  0.2643
 3269TIP3    H1 9771   4.329   3.884   0.598 -0.5084 -0.1472  0.3539
 3269TIP3    H2 9772   4.260   3.755   0.558 -0.5047 -0.2132  0.5615
 3270TIP3   OH2 9773   1.585   0.585   3.598  0.6816 -0.3843  0.3342
 3270TIP3    H1 9774   1.550   0.635   3.525  0.9414  0.8147  0.9979
 3270TIP3    H2 9775   1.510   0.534   3.631  0.2980 -0.0859 -0.0742
 3271TIP3   OH2 9776   0.346   6.782   1.147  0.1596  0.0420 -0.1140
 3271TIP3    H1 9777   0.437   6.752   1.151 -0.5505 -2.1930  1.6877
 3271TIP3    H2 9778   0.331   6.824   1.232 -0.8356 -0.8835  0.1970
 3272TIP3   OH2 9779   2.956   1.300   2.212 -0.6047  0.4000  0.2007
 3272TIP3    H1 9780   2.992   1.212   2.205 -3.1982 -0.8825  1.5225
 3272TIP3    H2 9781   2.936   1.310   2.306 -2.2307  1.5403 -0.2283
 3273TIP3   OH2 9782   1.505   3.547   4.743 -0.1077 -0.0906  0.0620
 3273TIP3    H1 9783   1.500   3.470   4.799  2.7064 -0.3242  0.1544
 3273TIP3    H2 9784   1.553   3.611   4.795  0.6016  0.4696 -1.2401
 3274TIP3   OH2 9785   6.044   4.139   2.081 -0.5346 -0.0490 -0.0480
 3274TIP3    H1 9786   5.972   4.106   2.028 -0.7311 -0.0690  0.2324
 3274TIP3    H2 9787   6.122   4.095   2.045 -0.7504 -0.5748  0.1145
 3275TIP3   OH2 9788   1.498   5.668   0.126 -0.0404 -0.6030 -0.3620
 3275TIP3    H1 9789   1.537   5.732   0.067 -2.0437  0.4352 -0.6490
 3275TIP3    H2 9790   1.514   5.583   0.085  1.5877 -0.2024 -0.5942
 3276TIP3   OH2 9791   5.024   1.035   0.451 -0.1118  0.2216 -0.1075
 3276TIP3    H1 9792   5.043   1.096   0.522 -1.9335  2.9558 -1.7683
 3276TIP3    H2 9793   5.106   1.028   0.402  0.1206  1.4451  0.0782
 3277TIP3   OH2 9794   4.065   4.761   2.545 -0.0625  0.1848 -0.0594
 3277TIP3    H1 9795   4.054   4.708   2.467 -1.6096  1.2308 -0.5987
 3277TIP3    H2 9796   3.990   4.822   2.544 -1.0342 -0.7677  3.0317
 3278TIP3   OH2 9797   1.199   4.348   1.529 -0.7481 -0.1458 -0.0222
 3278TIP3    H1 9798   1.276   4.371   1.478 -0.0996 -0.8361  0.6348
 3278TIP3    H2 9799   1.153   4.282   1.477 -0.0511 -0.9005  0.3065
 3279TIP3   OH2 9800   2.811   1.192   3.010  0.3671  0.9838  0.4340
 3279TIP3    H1 9801   2.775   1.104   3.021 -0.2636  1.2995  1.0047
 3279TIP3    H2 9802   2.874   1.201   3.082  3.2954 -0.3480 -1.7682
 3280TIP3   OH2 9803   2.250   6.646   0.041  0.4288 -0.0228 -0.5968
 3280TIP3    H1 9804   2.299   6.727   0.057 -1.2904  0.8023  0.8357
 3280TIP3    H2 9805   2.317   6.579   0.029  1.9493  1.0212  1.4578
 3281TIP3   OH2 9806   4.765   0.510   2.714 -0.0937 -0.5458 -0.0816
 3281TIP3    H1 9807   4.789   0.483   2.802  1.1379 -0.6633 -0.4287
 3281TIP3    H2 9808   4.759   0.428   2.664 -0.5877 -0.4675 -0.1587
 3282TIP3   OH2 9809   5.863   5.339   2.753 -0.2006 -0.4438  0.0355
 3282TIP3    H1 9810   5.910   5.408   2.706 -1.9997  0.1269 -1.0532
 3282TIP3    H2 9811   5.771   5.355   2.731 -0.8345 -1.9766  1.4205
 3283TIP3   OH2 9812   4.003   4.174   4.118  0.0426 -0.5097  0.3795
 3283TIP3    H1 9813   4.052   4.237   4.170 -2.1576  1.9373 -0.2470
 3283TIP3    H2 9814   4.002   4.211   4.029  3.2639 -4.2790 -1.5774
 3284TIP3   OH2 9815   6.847   3.099   5.841  0.0874  0.5114  0.0055
 3284TIP3    H1 9816   6.918   3.141   5.889  0.2348  0.6549 -0.3393
 3284TIP3    H2 9817   6.829   3.018   5.890  0.7992  0.2396 -0.1681
 3285TIP3   OH2 9818   2.589   6.079   3.077 -0.2056  0.3574 -0.1171
 3285TIP3    H1 9819   2.495   6.084   3.091 -0.2577 -0.2519 -0.2188
 3285TIP3    H2 9820   2.599   6.058   2.984  0.0633  1.4862 -0.3562
 3286TIP3   OH2 9821   0.313   2.468   4.117 -0.4844 -0.3689 -0.1077
 3286TIP3    H1 9822   0.303   2.393   4.058  0.1294 -0.1300 -0.5269
 3286TIP3    H2 9823   0.237   2.523   4.099 -0.3177 -0.3149 -0.6567
 3287TIP3   OH2 9824   0.440   3.010   5.751 -0.7220  0.0382 -0.0322
 3287TIP3    H1 9825   0.523   3.057   5.762 -1.8070  2.6810 -1.9447
 3287TIP3    H2 9826   0.465   2.927   5.709  1.0334  0.0924  0.7943
 3288TIP3   OH2 9827   4.774   1.481   1.583 -0.7861 -0.1552  0.1066
 3288TIP3    H1 9828   4.795   1.416   1.516 -0.0264  0.3794 -0.1898
 3288TIP3    H2 9829   4.771   1.431   1.664  1.6052 -0.3240  0.1666
 3289TIP3   OH2 9830   3.812   1.722   1.381 -0.6493  0.4317 -0.1296
 3289TIP3    H1 9831   3.817   1.800   1.326 -0.3098  0.4519 -0.0672
 3289TIP3    H2 9832   3.897   1.717   1.425  0.4237 -1.5356 -2.2054
 3290TIP3   OH2 9833   4.278   2.899   0.823 -0.2109 -0.5176  0.4065
 3290TIP3    H1 9834   4.349   2.952   0.859  1.0452 -1.4418 -0.6482
 3290TIP3    H2 9835   4.241   2.953   0.753  1.9240 -1.4431 -1.5626
 3291TIP3   OH2 9836   2.566   1.478   3.320  0.4633  0.2635 -0.1179
 3291TIP3    H1 9837   2.499   1.543   3.300  1.6906  1.5278 -0.2663
 3291TIP3    H2 9838   2.647   1.514   3.284  1.1699 -1.4181 -0.3191
 3292TIP3   OH2 9839   5.451   3.705   3.241  0.1962  0.3231 -0.2363
 3292TIP3    H1 9840   5.373   3.747   3.203  1.1926  2.2756 -0.2633
 3292TIP3    H2 9841   5.514   3.777   3.250  1.7447 -1.0746  0.4589
 3293TIP3   OH2 9842   4.745   4.216   5.169 -0.0711 -0.5550  0.3662
 3293TIP3    H1 9843   4.748   4.160   5.091  0.5962  0.6224 -0.4838
 3293TIP3    H2 9844   4.723   4.303   5.135 -2.9396 -0.5700  1.8515
 3294TIP3   OH2 9845   1.951   5.791   4.413  0.4306  0.0020 -0.6085
 3294TIP3    H1 9846   2.001   5.741   4.477  1.1715  2.1709  0.5957
 3294TIP3    H2 9847   1.899   5.852   4.465 -1.1366 -0.0858 -1.9808
 3295TIP3   OH2 9848   6.365   5.584   5.498  0.1464  0.1897 -0.3243
 3295TIP3    H1 9849   6.342   5.492   5.511 -0.7668  0.5103  0.4060
 3295TIP3    H2 9850   6.376   5.618   5.587 -2.6321  1.5376 -0.3915
 3296TIP3   OH2 9851   3.220   0.660   3.693 -0.7752  0.0451  0.1095
 3296TIP3    H1 9852   3.316   0.660   3.686 -0.8810  0.2876 -1.6825
 3296TIP3    H2 9853   3.192   0.589   3.636 -1.6567 -0.5700  1.2591
 3297TIP3   OH2 9854   1.251   4.522   4.358  0.1024  0.2581 -0.1627
 3297TIP3    H1 9855   1.193   4.482   4.422 -1.2762  0.3625 -1.2770
 3297TIP3    H2 9856   1.296   4.592   4.405  1.5411 -1.6566  1.4633
 3298TIP3   OH2 9857   4.840   2.357   4.496  0.3141  0.5087  0.5499
 3298TIP3    H1 9858   4.762   2.378   4.547 -1.3875 -2.2045 -0.7171
 3298TIP3    H2 9859   4.821   2.273   4.455  3.5703  0.1526 -0.5841
 3299TIP3   OH2 9860   0.895   3.786   3.131 -0.1980 -0.0438 -0.1838
 3299TIP3    H1 9861   0.809   3.761   3.095 -0.9683  0.6431  1.0999
 3299TIP3    H2 9862   0.932   3.703   3.163 -0.3319 -0.3615 -0.8341
 3300TIP3   OH2 9863   0.552   3.713   3.177 -0.1567  0.0484 -0.1044
 3300TIP3    H1 9864   0.626   3.652   3.179 -0.6773 -0.6568 -1.3868
 3300TIP3    H2 9865   0.514   3.702   3.090 -1.1982  1.0956  0.1968
 3301TIP3   OH2 9866   3.479   2.529   4.080 -0.1390  0.2902  0.0008
 3301TIP3    H1 9867   3.475   2.437   4.106  1.9631  0.2620  0.4105
 3301TIP3    H2 9868   3.390   2.562   4.093 -0.7645 -1.4952  0.5123
 3302TIP3   OH2 9869   3.152   3.469   0.106 -0.0292 -0.6391 -0.4648
 3302TIP3    H1 9870   3.070   3.514   0.123 -0.1150 -1.1442  0.5213
 3302TIP3    H2 9871   3.146   3.440   0.015 -0.2692  0.6977 -0.8956
 3303TIP3   OH2 9872   3.453   1.346   2.477 -0.1193  0.1108 -0.0303
 3303TIP3    H1 9873   3.453   1.435   2.441  0.4462 -0.3351 -1.1809
 3303TIP3    H2 9874   3.445   1.359   2.572  2.8047  1.5368  0.1428
 3304TIP3   OH2 9875   6.423   2.573   2.301  0.4683  0.1658 -0.2222
 3304TIP3    H1 9876   6.501   2.610   2.341  0.8203  0.4649 -1.1529
 3304TIP3    H2 9877   6.372   2.649   2.273  1.2589  0.0077 -2.2707
 3305TIP3   OH2 9878   3.831   5.031   1.180 -0.1803 -0.3824  0.0733
 3305TIP3    H1 9879   3.837   5.079   1.262  1.8940 -1.8018  0.8323
 3305TIP3    H2 9880   3.738   5.010   1.171 -1.2078  3.4002 -0.2004
 3306TIP3   OH2 9881   5.041   5.413   5.806  0.3269 -0.6206 -0.1796
 3306TIP3    H1 9882   5.019   5.497   5.766  1.8258 -0.3134 -0.4374
 3306TIP3    H2 9883   5.069   5.359   5.732 -1.4963 -1.6847 -0.1398
 3307TIP3   OH2 9884   3.375   6.087   4.439  0.2759 -0.5493 -0.1663
 3307TIP3    H1 9885   3.348   6.172   4.404 -1.9066 -0.9522  0.3333
 3307TIP3    H2 9886   3.466   6.077   4.413  0.0689  1.1683 -1.7286
 3308TIP3   OH2 9887   4.520   5.539   2.415 -0.2046  0.5240 -0.5454
 3308TIP3    H1 9888   4.493   5.474   2.351  0.2902 -1.4376  1.1381
 3308TIP3    H2 9889   4.454   5.608   2.408 -0.8655 -0.2236 -2.2497
 3309TIP3   OH2 9890   1.040   3.120   3.402 -0.3686  1.0654  0.3830
 3309TIP3    H1 9891   1.024   3.185   3.470  0.1734  0.8789  0.6976
 3309TIP3    H2 9892   0.972   3.054   3.414  0.2121  0.6194  1.2681
 3310TIP3   OH2 9893   2.293   6.777   1.252  0.4399 -0.0056 -0.5334
 3310TIP3    H1 9894   2.361   6.822   1.201  0.4095  0.8894  0.1928
 3310TIP3    H2 9895   2.213   6.826   1.234 -0.1945 -1.4512 -1.9033
 3311TIP3   OH2 9896   4.064   6.270   2.499 -0.5767 -0.0280 -0.0504
 3311TIP3    H1 9897   4.021   6.218   2.566  0.1227  0.1623  0.5629
 3311TIP3    H2 9898   4.096   6.206   2.436 -0.4731 -0.2762  0.2524
 3312TIP3   OH2 9899   3.745   0.293   2.808 -0.5989  0.2089 -0.4501
 3312TIP3    H1 9900   3.804   0.368   2.803  1.5234 -1.3696 -0.8862
 3312TIP3    H2 9901   3.752   0.262   2.898  0.2609 -0.7016 -0.8049
 3313TIP3   OH2 9902   5.992   1.520   4.051  0.1901  0.3302 -0.0280
 3313TIP3    H1 9903   6.035   1.472   3.980 -1.0086  0.9424 -1.2371
 3313TIP3    H2 9904   5.949   1.594   4.007 -1.6311  0.0471  1.1472
 3314TIP3   OH2 9905   7.157   1.848   3.226 -0.0610  0.0805 -0.2356
 3314TIP3    H1 9906   7.228   1.798   3.267  0.8056  1.3417 -0.1374
 3314TIP3    H2 9907   7.130   1.911   3.294 -2.2445 -1.2678  0.2254
 3315TIP3   OH2 9908   1.889   6.196   2.871  0.0970 -0.5570 -0.4040
 3315TIP3    H1 9909   1.898   6.149   2.788  0.4592 -0.6290 -0.3251
 3315TIP3    H2 9910   1.904   6.129   2.938  1.0892 -0.2391 -0.2946
 3316TIP3   OH2 9911   6.035   1.834   5.020  0.3316  0.0478  0.2544
 3316TIP3    H1 9912   6.002   1.849   4.931 -0.7851  0.8064  0.7766
 3316TIP3    H2 9913   6.079   1.916   5.042 -0.0990  0.1574  0.7029
 3317TIP3   OH2 9914   2.627   5.598   3.196 -0.3165 -0.3375 -0.2143
 3317TIP3    H1 9915   2.594   5.644   3.273  2.5409  0.8500  0.4507
 3317TIP3    H2 9916   2.598   5.508   3.207 -0.8123  0.0172  1.7493
 3318TIP3   OH2 9917   5.368   5.398   3.117 -0.0207 -0.2769  0.0402
 3318TIP3    H1 9918   5.344   5.418   3.026  1.5121 -0.5391 -0.4425
 3318TIP3    H2 9919   5.416   5.475   3.146  0.4661 -0.6586  0.2557
 3319TIP3   OH2 9920   0.712   0.546   4.298 -0.4263 -0.1815 -0.5958
 3319TIP3    H1 9921   0.661   0.625   4.313 -0.6879 -0.4845  0.1238
 3319TIP3    H2 9922   0.678   0.482   4.361  0.2774 -0.6383 -0.6659
 3320TIP3   OH2 9923   2.075   3.549   2.070 -0.6909  0.3432 -0.2830
 3320TIP3    H1 9924   2.004   3.604   2.036  0.2681  1.7185 -0.1208
 3320TIP3    H2 9925   2.106   3.594   2.148 -0.4066 -0.8653  0.3321
 3321TIP3   OH2 9926   4.818   3.462   4.778  0.1099 -0.2474  0.3806
 3321TIP3    H1 9927   4.888   3.478   4.842 -0.6805 -0.8492  1.4426
 3321TIP3    H2 9928   4.860   3.411   4.709  1.3161  1.5633 -0.3102
 3322TIP3   OH2 9929   5.709   3.366   5.016 -0.1914  0.1594  0.0056
 3322TIP3    H1 9930   5.665   3.317   5.086 -1.8682  1.2924 -0.1935
 3322TIP3    H2 9931   5.643   3.427   4.984  0.0667 -1.1005 -3.4205
 3323TIP3   OH2 9932   6.554   2.526   0.992 -0.5258  0.3398 -0.2584
 3323TIP3    H1 9933   6.508   2.488   1.066  1.5631  2.2436  2.2292
 3323TIP3    H2 9934   6.504   2.605   0.971  0.3287  1.2704  1.0374
 3324TIP3   OH2 9935   4.314   0.303   2.911  0.2383  0.7632 -0.0090
 3324TIP3    H1 9936   4.228   0.286   2.950  0.9929  0.0583  1.4270
 3324TIP3    H2 9937   4.371   0.235   2.947  1.8907  2.4395  0.7415
 3325TIP3   OH2 9938   4.708   1.190   3.278 -0.5269 -0.1080 -0.7237
 3325TIP3    H1 9939   4.654   1.215   3.203  0.2393  0.1104 -1.2164
 3325TIP3    H2 9940   4.744   1.105   3.254 -1.2547 -0.6069 -0.0666
 3326TIP3   OH2 9941   6.249   1.643   5.597 -0.2312 -0.3835  0.0588
 3326TIP3    H1 9942   6.198   1.602   5.528  1.3324 -0.7440 -0.9365
 3326TIP3    H2 9943   6.337   1.652   5.560  0.1458  1.3659  1.2437
 3327TIP3   OH2 9944   2.486   5.410   5.192  0.4502  0.0611 -0.3055
 3327TIP3    H1 9945   2.404   5.383   5.233  0.3428 -0.4100 -0.8082
 3327TIP3    H2 9946   2.482   5.373   5.103  1.5877 -0.7308 -0.0554
 3328TIP3   OH2 9947   3.825   1.216   0.272  0.2345 -0.2040  0.0005
 3328TIP3    H1 9948   3.752   1.277   0.287  0.6898  0.5908 -0.9223
 3328TIP3    H2 9949   3.903   1.266   0.295  0.7803  0.3023 -2.6792
 3329TIP3   OH2 9950   7.083   1.358   4.206 -0.3430  0.5500 -0.4353
 3329TIP3    H1 9951   7.108   1.266   4.198 -2.4558 -0.2809  1.4280
 3329TIP3    H2 9952   7.149   1.397   4.263 -0.1577 -0.1255 -0.1817
 3330TIP3   OH2 9953   1.641   4.983   1.641  0.1483 -0.0985  0.3314
 3330TIP3    H1 9954   1.645   4.915   1.707 -1.2278 -0.0510  0.4722
 3330TIP3    H2 9955   1.627   5.064   1.690 -0.8325 -0.0581  0.0062
 3331TIP3   OH2 9956   4.959   4.165   1.286  0.5694  0.6386  0.3211
 3331TIP3    H1 9957   5.019   4.231   1.251  2.6356 -0.3284  1.8225
 3331TIP3    H2 9958   4.880   4.214   1.309  1.1600  2.1603 -0.7399
 3332TIP3   OH2 9959   2.109   1.975   3.271  0.3489 -0.5837  0.1288
 3332TIP3    H1 9960   2.016   1.987   3.290  0.4468  0.3125  0.0889
 3332TIP3    H2 9961   2.128   2.040   3.203  0.6755 -1.7386 -0.9295
 3333TIP3   OH2 9962   3.218   4.047   3.832 -0.1359  0.1906 -0.0906
 3333TIP3    H1 9963   3.260   4.029   3.916  1.5361  0.5119 -0.8131
 3333TIP3    H2 9964   3.222   4.143   3.824 -0.8201  0.2050 -0.2769
 3334TIP3   OH2 9965   0.837   6.549   5.741  0.0751 -0.2042 -0.3516
 3334TIP3    H1 9966   0.792   6.559   5.657  0.2847 -1.6296 -0.6557
 3334TIP3    H2 9967   0.924   6.518   5.718  0.3201 -0.0622  0.3695
 3335TIP3   OH2 9968   2.489   3.867   2.940  0.3744 -0.8890 -0.0028
 3335TIP3    H1 9969   2.484   3.771   2.940  2.4797 -1.1083  2.3151
 3335TIP3    H2 9970   2.580   3.886   2.963 -0.5422  1.6169  2.0671
 3336TIP3   OH2 9971   5.334   5.355   4.814 -0.1414 -0.3386  0.2091
 3336TIP3    H1 9972   5.308   5.425   4.754  0.6895 -0.9552 -0.9142
 3336TIP3    H2 9973   5.426   5.339   4.793 -0.5878 -2.5055 -0.3329
 3337TIP3   OH2 9974   0.570   5.476   5.831 -0.4159 -0.1118  0.6615
 3337TIP3    H1 9975   0.510   5.408   5.801 -1.9991  1.2118  0.7109
 3337TIP3    H2 9976   0.521   5.558   5.822  1.0463  0.9211  1.6040
 3338TIP3   OH2 9977   2.188   2.856   3.612  0.2902  0.1944  0.0988
 3338TIP3    H1 9978   2.184   2.790   3.542  1.7294 -0.5943  0.7123
 3338TIP3    H2 9979   2.103   2.850   3.655 -0.2206 -0.0582 -0.9043
 3339TIP3   OH2 9980   1.109   2.383   5.055  0.9180 -0.2590 -0.1645
 3339TIP3    H1 9981   1.122   2.467   5.099  0.3845  0.1637 -0.7965
 3339TIP3    H2 9982   1.161   2.321   5.106  0.2020  0.1825  1.1520
 3340TIP3   OH2 9983   0.790   2.596   2.935  0.4972 -0.3621 -0.4851
 3340TIP3    H1 9984   0.883   2.609   2.950  0.3034  1.4351 -0.5531
 3340TIP3    H2 9985   0.756   2.684   2.920 -1.2633 -0.9428 -0.1789
 3341TIP3   OH2 9986   6.552   5.163   0.446 -0.2400  0.1332 -0.1060
 3341TIP3    H1 9987   6.565   5.151   0.540  0.2258 -0.8429 -0.2836
 3341TIP3    H2 9988   6.478   5.223   0.440 -0.4996 -0.0650  0.8837
 3342TIP3   OH2 9989   3.279   1.510   0.726  0.3733 -0.2745  0.1090
 3342TIP3    H1 9990   3.260   1.423   0.762 -0.3844 -0.6488 -1.1279
 3342TIP3    H2 9991   3.313   1.560   0.800 -0.4940 -1.2105  1.1804
 3343TIP3   OH2 9992   5.526   3.479   2.254 -0.4526 -0.0116 -0.4639
 3343TIP3    H1 9993   5.543   3.439   2.168 -0.2580  1.0826 -0.9542
 3343TIP3    H2 9994   5.463   3.549   2.235 -0.8560 -0.1336  0.3898
 3344TIP3   OH2 9995   3.825   6.156   0.545 -0.0149 -1.0543  0.7160
 3344TIP3    H1 9996   3.766   6.194   0.610  1.2418  0.1175  1.2109
 3344TIP3    H2 9997   3.911   6.193   0.565  0.9397 -2.7749  0.0763
 3345TIP3   OH2 9998   3.168   4.166   2.814  0.2313  0.3907 -0.7948
 3345TIP3    H1 9999   3.229   4.226   2.857  2.7708 -1.4884 -1.5303
 3345TIP3    H210000   3.124   4.121   2.886  0.7952  0.7253 -0.2322
 3346TIP3   OH210001   6.355   6.754   2.605  0.0281 -0.1862 -0.5406
 3346TIP3    H110002   6.375   6.732   2.697 -2.1504  1.1207  0.3145
 3346TIP3    H210003   6.438   6.787   2.570  0.8813 -0.6024  0.9900
 3347TIP3   OH210004   2.512   5.274   5.427  0.6701 -0.4532  0.0379
 3347TIP3    H110005   2.541   5.191   5.464 -0.2566 -0.8528 -0.1126
 3347TIP3    H210006   2.515   5.260   5.332  2.5988  0.4169 -0.0911
 3348TIP3   OH210007   5.705   2.478   4.535 -0.2395 -0.1064 -0.5043
 3348TIP3    H110008   5.790   2.507   4.569 -1.4917  0.8419  2.0628
 3348TIP3    H210009   5.711   2.382   4.535  0.1238 -0.1315  1.7855
 3349TIP3   OH210010   5.461   0.659   1.057 -0.0544 -0.7412  0.6550
 3349TIP3    H110011   5.520   0.628   0.989 -0.2309 -3.2754  1.5146
 3349TIP3    H210012   5.437   0.748   1.031  2.6197 -0.3157 -0.6861
 3350TIP3   OH210013   5.530   6.667   3.553  0.1231  0.4361  0.3578
 3350TIP3    H110014   5.545   6.754   3.517  0.3678  0.2045 -0.1112
 3350TIP3    H210015   5.599   6.657   3.619  0.7057  0.2241 -0.2693
 3351TIP3   OH210016   5.306   5.345   2.143  0.0123  0.1345  0.9882
 3351TIP3    H110017   5.327   5.405   2.072 -1.8751 -0.0206  0.2345
 3351TIP3    H210018   5.358   5.267   2.124 -1.7647 -0.6067 -1.3393
 3352TIP3   OH210019   5.826   0.423   3.698  0.2675 -0.0816  0.5079
 3352TIP3    H110020   5.810   0.362   3.627  2.3225 -0.2990  0.1857
 3352TIP3    H210021   5.788   0.381   3.775 -2.2132  0.2682 -0.4135
 3353TIP3   OH210022   5.752   0.791   3.826 -0.2571  0.0171 -0.0849
 3353TIP3    H110023   5.730   0.765   3.915 -0.2204  0.2595 -0.0029
 3353TIP3    H210024   5.845   0.811   3.828  0.0138 -1.1477 -0.4698
 3354TIP3   OH210025   5.696   5.990   0.630 -0.6842  0.1368  0.1620
 3354TIP3    H110026   5.646   5.936   0.569 -0.8726 -0.0394  0.4720
 3354TIP3    H210027   5.636   6.061   0.654  0.2364  1.6938 -1.8551
 3355TIP3   OH210028   2.282   1.219   2.316  0.7720 -0.5192 -0.0855
 3355TIP3    H110029   2.219   1.277   2.272 -0.1555 -1.2743  0.2227
 3355TIP3    H210030   2.246   1.131   2.305  1.5113 -0.9118  0.5427
 3356TIP3   OH210031   1.262   4.094   0.777 -0.0672  0.1457 -0.2579
 3356TIP3    H110032   1.327   4.152   0.738 -0.6644  1.6356  0.8492
 3356TIP3    H210033   1.179   4.142   0.770 -0.5105 -0.3638  1.0826
 3357TIP3   OH210034   2.637   3.572   1.873  0.1190  0.0899 -0.0336
 3357TIP3    H110035   2.558   3.531   1.836  0.2480  1.0420 -1.4284
 3357TIP3    H210036   2.605   3.616   1.953 -0.1500 -2.0314  1.1123
 3358TIP3   OH210037   3.790   3.792   4.191 -0.0800  0.1280  0.2485
 3358TIP3    H110038   3.868   3.835   4.226 -0.5304  1.2677 -0.1091
 3358TIP3    H210039   3.813   3.699   4.191  0.5845  0.2516  1.8886
 3359TIP3   OH210040   5.593   2.759   4.776  0.0148 -0.1272 -0.2345
 3359TIP3    H110041   5.550   2.759   4.862  1.0846  0.3402  0.3108
 3359TIP3    H210042   5.603   2.852   4.754  0.3264 -0.2381 -0.5734
 3360TIP3   OH210043   4.417   1.613   4.766  0.2996  0.5009 -0.0892
 3360TIP3    H110044   4.490   1.578   4.816 -0.7119 -0.0862  1.0250
 3360TIP3    H210045   4.373   1.674   4.826 -2.2106 -1.8218  0.6300
 3361TIP3   OH210046   1.991   2.268   5.083 -0.1988 -0.4972  0.4030
 3361TIP3    H110047   1.928   2.330   5.046  0.0069  0.1094  1.0499
 3361TIP3    H210048   2.022   2.217   5.008 -2.3154 -1.6143  0.2040
 3362TIP3   OH210049   7.014   6.696   5.157  0.5510 -0.4850 -0.2016
 3362TIP3    H110050   7.105   6.693   5.189  0.9315 -0.6623 -1.2558
 3362TIP3    H210051   7.003   6.613   5.111 -0.6425 -1.1195  1.1809
 3363TIP3   OH210052   0.130   4.372   3.227 -0.3144 -0.4723  0.3258
 3363TIP3    H110053   0.214   4.326   3.218  0.6549  1.2568  0.0649
 3363TIP3    H210054   0.133   4.410   3.314 -0.1755  0.7769 -0.2006
 3364TIP3   OH210055   6.216   0.455   5.815  0.1412 -0.3959  0.8962
 3364TIP3    H110056   6.255   0.518   5.875  2.4867 -0.3394 -0.5786
 3364TIP3    H210057   6.281   0.385   5.808  0.5855  0.1958 -2.4652
 3365TIP3   OH210058   7.141   3.253   3.811 -0.1710 -0.2541 -0.0864
 3365TIP3    H110059   7.228   3.280   3.840  0.1017  0.2905 -1.3455
 3365TIP3    H210060   7.088   3.333   3.814 -0.0168 -0.0712 -1.4493
 3366TIP3   OH210061   2.455   0.269   0.101 -0.3666 -0.6201 -0.6814
 3366TIP3    H110062   2.409   0.209   0.160 -0.0797  0.1115  0.3102
 3366TIP3    H210063   2.546   0.269   0.133 -0.5214  0.9117 -0.1847
 3367TIP3   OH210064   3.172   5.424   1.178  0.5711 -0.3201 -0.1502
 3367TIP3    H110065   3.127   5.506   1.193  1.3326  0.0197  0.3448
 3367TIP3    H210066   3.128   5.361   1.235  0.2988 -0.1455 -0.1673
 3368TIP3   OH210067   4.033   3.679   5.659  0.0245 -0.1457  0.0661
 3368TIP3    H110068   4.056   3.586   5.661  0.8606  0.0517  1.7732
 3368TIP3    H210069   3.967   3.690   5.728  0.8094  0.7088  0.7151
 3369TIP3   OH210070   3.565   0.134   2.160 -0.4262  0.5470  0.5328
 3369TIP3    H110071   3.530   0.078   2.091  2.5848  1.8255 -2.2934
 3369TIP3    H210072   3.621   0.076   2.211  1.0891  0.4718 -1.1293
 3370TIP3   OH210073   5.773   5.306   0.479 -0.1704 -0.3977 -0.0627
 3370TIP3    H110074   5.833   5.374   0.509 -1.0000  0.5015 -0.3896
 3370TIP3    H210075   5.779   5.309   0.383 -0.4431 -0.5552 -0.0873
 3371TIP3   OH210076   6.466   0.405   4.404  0.2080  0.6972  0.1544
 3371TIP3    H110077   6.469   0.465   4.330 -0.3665  0.7070  0.1355
 3371TIP3    H210078   6.550   0.417   4.448  2.5928 -2.5120 -2.9558
 3372TIP3   OH210079   0.471   0.947   4.514  0.2738 -0.3710  0.1838
 3372TIP3    H110080   0.504   1.008   4.449  1.4056 -1.6406 -0.4937
 3372TIP3    H210081   0.485   0.991   4.598  1.6448  0.0785 -0.2418
 3373TIP3   OH210082   6.786   1.742   2.622  0.3534  0.2127  0.8873
 3373TIP3    H110083   6.844   1.804   2.666  2.0125 -0.3107 -0.4823
 3373TIP3    H210084   6.753   1.790   2.546 -0.1322  0.1245  1.0354
 3374TIP3   OH210085   3.821   6.335   0.992 -0.2930  0.6633  0.1996
 3374TIP3    H110086   3.772   6.357   0.913 -0.0765 -1.2142 -0.4827
 3374TIP3    H210087   3.899   6.391   0.988  0.6236 -0.6651 -1.8797
 3375TIP3   OH210088   3.274   5.121   3.101  0.0003  0.0913  0.2196
 3375TIP3    H110089   3.260   5.091   3.191 -0.1351  0.7224  0.4086
 3375TIP3    H210090   3.216   5.196   3.091  1.2700  1.0942  0.1681
 3376TIP3   OH210091   6.276   2.439   0.548  0.1264 -0.1429 -0.1286
 3376TIP3    H110092   6.245   2.484   0.626 -0.9403  0.3073 -0.7912
 3376TIP3    H210093   6.230   2.355   0.548 -0.2437  0.0600 -0.5308
 3377TIP3   OH210094   1.023   3.915   2.942 -0.8941  0.1275  0.7050
 3377TIP3    H110095   1.097   3.855   2.932 -0.5529  0.3235  1.9041
 3377TIP3    H210096   0.962   3.868   2.999 -1.0662  0.5215  0.8470
 3378TIP3   OH210097   4.908   6.768   4.305  0.3829 -0.4127  0.3914
 3378TIP3    H110098   4.876   6.841   4.252 -2.6635  0.4832  3.1912
 3378TIP3    H210099   4.975   6.806   4.362  1.7536 -0.8158 -0.8681
 3379TIP3   OH210100   1.539   3.661   2.406 -0.3567 -0.2841  0.6677
 3379TIP3    H110101   1.531   3.579   2.357 -1.1598  0.0113  0.2808
 3379TIP3    H210102   1.456   3.706   2.391  0.9857  1.7636 -1.2427
 3380TIP3   OH210103   0.969   2.239   0.904  0.6739  0.0744  0.1774
 3380TIP3    H110104   0.994   2.324   0.869  2.0417 -0.5912 -0.5198
 3380TIP3    H210105   0.885   2.220   0.862  1.3725  0.1478 -1.3013
 3381TIP3   OH210106   5.908   0.937   5.540  0.5536  0.1111 -0.5339
 3381TIP3    H110107   5.910   0.915   5.633 -1.0210 -1.8191 -0.8775
 3381TIP3    H210108   5.994   0.976   5.522  1.1610 -0.1643  1.5522
 3382TIP3   OH210109   4.216   6.600   4.049 -0.2975 -0.2877  0.2318
 3382TIP3    H110110   4.203   6.690   4.020  0.7641  0.5454  2.1798
 3382TIP3    H210111   4.275   6.562   3.983  0.9257  1.0980  0.4889
 3383TIP3   OH210112   4.557   5.139   1.353 -0.0628  0.1486 -0.3230
 3383TIP3    H110113   4.491   5.205   1.331 -0.4666  0.0826  0.6164
 3383TIP3    H210114   4.581   5.158   1.444  1.0200 -0.0029 -0.5598
 3384TIP3   OH210115   4.761   2.575   0.530 -0.3006  0.0291  0.2697
 3384TIP3    H110116   4.755   2.665   0.497 -2.0781 -0.4143 -0.7208
 3384TIP3    H210117   4.675   2.557   0.568 -0.0540 -1.3525  0.2191
 3385TIP3   OH210118   6.130   1.401   3.838 -0.0742  0.2642 -0.0633
 3385TIP3    H110119   6.054   1.389   3.781  0.3267  0.4650 -0.6508
 3385TIP3    H210120   6.182   1.470   3.796 -0.6037  1.6369  1.4366
 3386TIP3   OH210121   2.300   3.744   4.834 -0.4705 -0.1279  0.3264
 3386TIP3    H110122   2.263   3.666   4.874 -0.3140  0.0952  0.9107
 3386TIP3    H210123   2.356   3.782   4.901 -1.1831  0.9358  0.3443
 3387TIP3   OH210124   7.004   1.817   4.578  0.6898  0.2138 -0.0194
 3387TIP3    H110125   6.921   1.865   4.579 -1.4247 -3.1406 -0.6289
 3387TIP3    H210126   7.045   1.843   4.496 -1.6115 -0.7538 -1.6013
 3388TIP3   OH210127   7.064   0.749   0.875  0.0716 -0.5345 -0.3801
 3388TIP3    H110128   7.095   0.839   0.872 -0.5469 -0.3445 -1.7429
 3388TIP3    H210129   7.143   0.696   0.888  0.5918  0.1273 -0.8143
 3389TIP3   OH210130   6.824   2.530   2.908 -0.4036 -0.6788  0.2810
 3389TIP3    H110131   6.851   2.620   2.894  1.5583 -0.9682  1.8111
 3389TIP3    H210132   6.728   2.533   2.909 -0.7051  0.4805 -4.9070
 3390TIP3   OH210133   4.192   2.762   3.428 -0.1113 -0.0477 -0.2808
 3390TIP3    H110134   4.141   2.712   3.491 -0.7560  2.2918  1.1699
 3390TIP3    H210135   4.282   2.728   3.437 -0.5573 -1.0674  0.4612
 3391TIP3   OH210136   0.012   0.713   4.608  0.1037  0.2190  0.0480
 3391TIP3    H110137   0.087   0.773   4.604  1.3705 -1.3114 -0.7111
 3391TIP3    H210138   0.048   0.629   4.578 -1.9792 -0.5345 -0.5099
 3392TIP3   OH210139   6.497   2.480   1.947 -0.6584 -0.1868  0.0773
 3392TIP3    H110140   6.580   2.509   1.910  0.0274 -1.5978  0.4448
 3392TIP3    H210141   6.447   2.561   1.960  1.2906  0.8864  1.4627
 3393TIP3   OH210142   1.839   4.105   4.890 -0.2690  0.3361  0.5107
 3393TIP3    H110143   1.819   4.092   4.983 -1.5145  1.3448  0.4077
 3393TIP3    H210144   1.759   4.081   4.844 -0.4368  1.9631 -0.1163
 3394TIP3   OH210145   3.217   1.705   3.282  0.1458  0.0928  0.3285
 3394TIP3    H110146   3.231   1.747   3.197 -0.8113  0.2722  0.2448
 3394TIP3    H210147   3.126   1.724   3.303 -0.7993 -3.0655 -0.3552
 3395TIP3   OH210148   0.642   5.756   1.696  0.7074  0.4208 -0.0622
 3395TIP3    H110149   0.658   5.770   1.603  0.1094  0.1558 -0.2089
 3395TIP3    H210150   0.729   5.734   1.732  0.6068 -1.8716 -1.0066
 3396TIP3   OH210151   5.191   3.871   1.047 -0.4126 -0.0741 -0.0949
 3396TIP3    H110152   5.104   3.857   1.083  0.0504 -0.7463  0.7831
 3396TIP3    H210153   5.240   3.791   1.069  0.8437  0.8746  0.6956
 3397TIP3   OH210154   3.056   1.114   0.633 -0.5562 -0.3305 -0.4081
 3397TIP3    H110155   3.132   1.135   0.579  0.8454 -0.9082  1.2437
 3397TIP3    H210156   3.031   1.198   0.671 -0.7771 -0.1333 -0.9742
 3398TIP3   OH210157   2.585   5.063   5.617  0.1471  0.4159  0.4952
 3398TIP3    H110158   2.663   5.118   5.619  0.3533  0.1309  0.4372
 3398TIP3    H210159   2.616   4.977   5.645  0.6294 -0.6259 -2.7961
 3399TIP3   OH210160   4.193   1.154   1.931  0.1073 -0.3482 -0.1020
 3399TIP3    H110161   4.228   1.193   2.011  1.7684  0.6941 -1.2821
 3399TIP3    H210162   4.203   1.060   1.943  0.7999 -0.1809  0.7121
 3400TIP3   OH210163   3.764   1.295   4.800 -0.3327  0.2421 -0.3662
 3400TIP3    H110164   3.758   1.246   4.719 -0.8925  1.5269 -1.1323
 3400TIP3    H210165   3.699   1.255   4.858 -0.3418 -0.2970 -0.7444
 3401TIP3   OH210166   5.030   3.452   5.226  0.1638 -0.2382 -0.1622
 3401TIP3    H110167   5.011   3.539   5.261 -0.4205 -0.7944  0.9553
 3401TIP3    H210168   5.041   3.397   5.303 -1.4405 -1.5724 -0.8252
 3402TIP3   OH210169   5.463   4.758   4.516  0.4024  0.3407  0.6272
 3402TIP3    H110170   5.491   4.849   4.505  0.6166  0.2074  0.0215
 3402TIP3    H210171   5.470   4.720   4.428  0.5267 -0.3178  0.9142
 3403TIP3   OH210172   0.129   4.056   3.131 -0.0596 -0.0014 -0.5443
 3403TIP3    H110173   0.148   3.964   3.148 -1.0193  0.0935  1.3232
 3403TIP3    H210174   0.122   4.062   3.036  3.8406 -1.0276 -1.0671
 3404TIP3   OH210175   3.513   4.270   3.210 -0.6440 -0.4427 -0.5043
 3404TIP3    H110176   3.527   4.296   3.301 -0.8189 -0.6143 -0.4272
 3404TIP3    H210177   3.600   4.247   3.178 -0.6508 -0.8704 -0.2266
 3405TIP3   OH210178   1.442   6.063   1.461 -0.0016 -0.2936 -0.5453
 3405TIP3    H110179   1.530   6.034   1.437  0.1572 -0.2915  0.0374
 3405TIP3    H210180   1.449   6.159   1.466  0.0075 -0.3076 -0.3080
 3406TIP3   OH210181   4.873   0.765   1.106  0.1430 -0.5585  0.4283
 3406TIP3    H110182   4.895   0.792   1.016 -0.6387 -0.4650  0.2578
 3406TIP3    H210183   4.934   0.694   1.125  0.5849 -0.3091 -0.0285
 3407TIP3   OH210184   6.477   4.710   5.376  0.1265  0.2148  0.4136
 3407TIP3    H110185   6.509   4.794   5.341 -1.3896  0.5229 -0.3611
 3407TIP3    H210186   6.512   4.644   5.315 -2.4294  0.7427 -1.8538
 3408TIP3   OH210187   2.405   6.136   4.037 -0.1249  0.7392 -0.0447
 3408TIP3    H110188   2.359   6.132   3.954 -0.2897  0.1833  0.0704
 3408TIP3    H210189   2.358   6.075   4.094  0.9270 -0.0833 -0.0183
 3409TIP3   OH210190   4.574   3.285   1.176  0.1670  0.7383  0.3099
 3409TIP3    H110191   4.494   3.332   1.152 -0.6521  1.3612  3.7920
 3409TIP3    H210192   4.591   3.310   1.266  3.5589 -0.4997  0.1521
 3410TIP3   OH210193   0.121   0.063   5.526 -0.0274  0.1192 -0.6762
 3410TIP3    H110194   0.124  -0.023   5.566 -0.6057  0.2079 -0.4278
 3410TIP3    H210195   0.109   0.123   5.599  0.1830  0.3959 -0.8657
 3411TIP3   OH210196   2.913   5.988   5.298 -0.2862  0.0644  0.0041
 3411TIP3    H110197   2.960   5.950   5.372 -1.3090 -0.9851  0.1478
 3411TIP3    H210198   2.912   6.083   5.315 -0.5695 -0.1735  1.3741
 3412TIP3   OH210199   5.972   2.333   2.388  0.3239  0.1782 -0.4313
 3412TIP3    H110200   6.027   2.267   2.346 -0.8477 -1.4288  0.4750
 3412TIP3    H210201   5.920   2.370   2.316  1.5904  0.7904 -1.0802
 3413TIP3   OH210202   3.238   1.656   1.872 -0.0764  0.2684  0.1387
 3413TIP3    H110203   3.253   1.748   1.851  0.2483  0.5258  1.4309
 3413TIP3    H210204   3.156   1.655   1.921 -0.0955 -0.1419  0.1070
 3414TIP3   OH210205   1.060   5.232   2.863  0.2884 -0.0531  0.2485
 3414TIP3    H110206   1.109   5.150   2.869 -0.8552 -0.7867 -0.1737
 3414TIP3    H210207   1.127   5.301   2.867  1.2805 -1.0073  0.3461
 3415TIP3   OH210208   3.895   2.529   0.446 -0.7336 -0.0912  0.3651
 3415TIP3    H110209   3.925   2.453   0.494  1.0915  0.0734 -0.4199
 3415TIP3    H210210   3.805   2.543   0.476 -0.6640 -1.7523  1.4676
 3416TIP3   OH210211   6.286   0.326   0.727  0.0441  0.2322  0.3063
 3416TIP3    H110212   6.248   0.396   0.781 -0.0023 -0.1461  0.7668
 3416TIP3    H210213   6.362   0.296   0.776  1.2412  1.2981 -0.8284
 3417TIP3   OH210214   6.049   1.767   3.095 -0.6105  0.2669 -0.7417
 3417TIP3    H110215   5.978   1.716   3.056 -0.2730 -1.3351  0.5997
 3417TIP3    H210216   6.006   1.823   3.159 -0.7272 -0.4931 -0.1342
 3418TIP3   OH210217   1.442   4.016   1.541 -0.2678 -0.8835 -0.7105
 3418TIP3    H110218   1.390   4.041   1.465  1.4185  1.8073 -1.1071
 3418TIP3    H210219   1.406   4.068   1.613  0.2357 -0.9474 -0.4035
 3419TIP3   OH210220   3.308   3.191   2.022  0.4358 -0.1319 -0.0912
 3419TIP3    H110221   3.274   3.115   1.973  1.8850  0.4311 -2.1078
 3419TIP3    H210222   3.274   3.267   1.974 -0.0261  0.5007  1.2049
 3420TIP3   OH210223   0.851   3.410   0.081 -0.4670  0.0028  0.1452
 3420TIP3    H110224   0.869   3.352   0.155 -0.7967  0.2732  0.4442
 3420TIP3    H210225   0.763   3.385   0.052 -0.0913 -0.5150 -0.5459
 3421TIP3   OH210226   2.460   2.739   5.710  0.0262 -0.3702  0.1427
 3421TIP3    H110227   2.430   2.649   5.697  0.3829 -0.3910 -0.6154
 3421TIP3    H210228   2.465   2.750   5.805  1.4661 -1.6497  0.2413
 3422TIP3   OH210229   6.521   5.215   3.947  0.2091  0.0937  0.6659
 3422TIP3    H110230   6.431   5.227   3.917  0.3770 -1.4758 -0.5839
 3422TIP3    H210231   6.515   5.220   4.043 -1.1178  0.5095  0.5800
 3423TIP3   OH210232   3.599   2.061   5.273  0.3161  0.3035 -0.4535
 3423TIP3    H110233   3.566   2.041   5.185  1.4368 -0.2373 -0.7673
 3423TIP3    H210234   3.643   1.981   5.301  1.8744  1.1670 -0.3157
 3424TIP3   OH210235   4.127   1.580   0.878  0.1812 -0.7951 -0.0960
 3424TIP3    H110236   4.136   1.488   0.853 -1.3794 -0.0309 -4.3333
 3424TIP3    H210237   4.172   1.628   0.809  0.8064  1.7428  1.8991
 3425TIP3   OH210238   0.176   0.433   0.515  0.6018 -0.0082  0.1017
 3425TIP3    H110239   0.172   0.413   0.609  0.0538  3.2473  0.9178
 3425TIP3    H210240   0.086   0.457   0.492  0.5545 -1.5625 -1.5207
 3426TIP3   OH210241   2.335   6.140   5.073 -0.7561  0.2943  0.2008
 3426TIP3    H110242   2.355   6.201   5.001  0.7178  0.3171  0.5979
 3426TIP3    H210243   2.286   6.193   5.136 -0.6604  0.7054 -0.0631
 3427TIP3   OH210244   2.645   6.797   4.605  0.7366  0.2340 -0.2402
 3427TIP3    H110245   2.599   6.774   4.686  0.5668 -0.9686 -0.6507
 3427TIP3    H210246   2.733   6.763   4.616  0.4596 -0.7460 -0.8967
 3428TIP3   OH210247   3.229   5.437   5.366 -0.1559 -0.3670  0.4137
 3428TIP3    H110248   3.144   5.398   5.348 -1.6023  1.8190  2.0356
 3428TIP3    H210249   3.239   5.504   5.299  0.0793 -0.2968  0.5176
 3429TIP3   OH210250   6.730   2.130   0.524 -0.0660  0.2057  0.1457
 3429TIP3    H110251   6.772   2.183   0.456 -0.1776  0.0145 -0.0752
 3429TIP3    H210252   6.804   2.091   0.572  0.0144  0.6769  0.4012
 3430TIP3   OH210253   3.429   1.739   4.106  0.2435 -0.0619 -0.3297
 3430TIP3    H110254   3.497   1.717   4.043  0.8618  1.2150 -0.1554
 3430TIP3    H210255   3.360   1.780   4.054  0.3781  0.2057 -0.3037
 3431TIP3   OH210256   4.273   6.444   2.182  0.5307 -0.4043 -0.5411
 3431TIP3    H110257   4.276   6.407   2.094  2.1787 -0.8826 -0.3056
 3431TIP3    H210258   4.322   6.526   2.176 -0.2718  0.1090 -0.2980
 3432TIP3   OH210259   4.780   5.053   3.851  0.2061  0.0199 -0.2485
 3432TIP3    H110260   4.868   5.060   3.888 -0.5648 -0.6291  1.8447
 3432TIP3    H210261   4.741   4.979   3.897 -1.7006  0.7789 -0.5874
 3433TIP3   OH210262   6.692   3.457   2.455  0.7561 -0.0364 -0.2605
 3433TIP3    H110263   6.787   3.461   2.441  1.3284  0.9667  3.1396
 3433TIP3    H210264   6.676   3.370   2.491 -0.1286 -1.1780 -3.0846
 3434TIP3   OH210265   2.025   6.146   2.135  1.1141 -0.2251  0.6175
 3434TIP3    H110266   2.101   6.108   2.092  2.4535  3.1018 -0.3378
 3434TIP3    H210267   2.055   6.233   2.162 -1.9125  0.5997  1.6722
 3435TIP3   OH210268   6.696   0.610   3.083 -0.2210  0.2620 -0.1686
 3435TIP3    H110269   6.692   0.700   3.051 -0.4848  0.5529  0.6349
 3435TIP3    H210270   6.712   0.619   3.177  2.3191 -0.5753 -0.4317
 3436TIP3   OH210271   1.519   5.341   1.694  0.2829 -0.6080  0.0251
 3436TIP3    H110272   1.585   5.404   1.725  0.5886 -0.7424 -0.3446
 3436TIP3    H210273   1.518   5.273   1.761  0.4565 -0.5588  0.0780
 3437TIP3   OH210274   1.413   5.301   2.481 -0.5657 -0.2909  0.1503
 3437TIP3    H110275   1.431   5.246   2.557  2.0461 -0.3343 -0.3811
 3437TIP3    H210276   1.387   5.385   2.519  0.5031 -0.3679  1.1471
 3438TIP3   OH210277   2.140   0.540   0.518 -0.0868 -0.1512 -0.3351
 3438TIP3    H110278   2.173   0.582   0.438  0.3601  0.1863  0.0183
 3438TIP3    H210279   2.193   0.461   0.527 -0.6994 -0.6220 -0.8177
 3439TIP3   OH210280   2.623   6.658   4.850 -0.2502  0.0609 -0.1780
 3439TIP3    H110281   2.657   6.569   4.835 -2.0526 -0.4136 -1.7807
 3439TIP3    H210282   2.530   6.651   4.832 -0.8234  1.8641  1.7063
 3440TIP3   OH210283   6.242   3.054   0.789 -0.1032 -0.0626 -0.0428
 3440TIP3    H110284   6.183   2.994   0.745 -1.0703 -0.1078  1.2786
 3440TIP3    H210285   6.306   3.078   0.721 -1.6897  0.1029 -1.5516
 3441TIP3   OH210286   3.524   3.052   0.653 -0.9945  0.2871  0.1001
 3441TIP3    H110287   3.453   3.017   0.599 -1.5577  0.4591  0.7095
 3441TIP3    H210288   3.517   3.004   0.736 -1.6809  1.6839  0.8979
 3442TIP3   OH210289   3.893   1.683   2.748  0.1736  0.7408 -0.0545
 3442TIP3    H110290   3.963   1.740   2.781  0.4996 -0.2958  1.1038
 3442TIP3    H210291   3.843   1.660   2.826 -1.1757  1.0455 -0.7954
 3443TIP3   OH210292   3.406   0.882   4.014 -0.6694 -0.8084  0.6250
 3443TIP3    H110293   3.487   0.832   4.009  0.3614  0.8123  0.5107
 3443TIP3    H210294   3.431   0.972   3.993 -2.6218 -0.3758 -0.1164
 3444TIP3   OH210295   4.493   4.739   1.184 -0.2762  0.4661 -0.0363
 3444TIP3    H110296   4.471   4.675   1.251 -0.0418  0.9954  0.5489
 3444TIP3    H210297   4.425   4.728   1.117 -0.7403  0.2108  0.4732
 3445TIP3   OH210298   6.795   0.384   3.894  0.2420 -0.0426 -0.4449
 3445TIP3    H110299   6.815   0.297   3.930  2.0525  0.4034 -0.2965
 3445TIP3    H210300   6.876   0.413   3.853 -0.3455  1.5697 -0.5454
 3446TIP3   OH210301   5.178   1.567   0.638 -0.2221  0.0132 -0.5587
 3446TIP3    H110302   5.157   1.657   0.613  1.7663  0.2957 -1.3639
 3446TIP3    H210303   5.233   1.575   0.716  0.9917 -0.3999 -1.3384
 3447TIP3   OH210304   2.568   3.545   3.206  0.2068 -0.2687  0.0183
 3447TIP3    H110305   2.658   3.551   3.239  0.0446 -1.1491  0.6662
 3447TIP3    H210306   2.514   3.554   3.284 -0.2719  0.0959 -0.3500
 3448TIP3   OH210307   4.928   3.302   1.679  0.3342  0.4576 -0.1799
 3448TIP3    H110308   4.923   3.345   1.594 -1.9774 -2.5322 -1.7545
 3448TIP3    H210309   4.999   3.238   1.670 -1.1761 -1.2254 -0.6639
 3449TIP3   OH210310   3.996   5.710   3.611  0.1083  0.2308  0.3119
 3449TIP3    H110311   3.958   5.731   3.696 -0.4129 -0.9130  0.3759
 3449TIP3    H210312   4.075   5.764   3.605  1.7383 -1.6979  2.7240
 3450TIP3   OH210313   3.425   3.425   2.935 -0.4261 -0.4320  0.1294
 3450TIP3    H110314   3.451   3.476   2.859  0.3568 -0.6404  0.2448
 3450TIP3    H210315   3.508   3.394   2.972 -0.8107 -0.5444  0.9140
 3451TIP3   OH210316   4.566   4.880   5.508  0.5024  0.3008  0.1265
 3451TIP3    H110317   4.514   4.800   5.512 -0.7510  0.8995 -2.1161
 3451TIP3    H210318   4.578   4.906   5.599 -4.0017  0.6408  0.8334
 3452TIP3   OH210319   0.219   1.002   3.859  0.7019 -0.0493  0.0122
 3452TIP3    H110320   0.146   0.945   3.836 -0.9881  2.1408 -0.3583
 3452TIP3    H210321   0.259   1.024   3.775 -2.3241  3.8512 -0.7121
 3453TIP3   OH210322   0.484   4.025   3.089 -0.1994 -0.2555  0.6530
 3453TIP3    H110323   0.479   4.111   3.047 -1.7415 -1.2213 -1.3257
 3453TIP3    H210324   0.577   4.002   3.084 -0.0727  0.3955 -0.7909
 3454TIP3   OH210325   7.119   2.188   2.815 -0.1136 -0.7819  0.2482
 3454TIP3    H110326   7.174   2.164   2.740 -0.0455 -2.4125  0.7825
 3454TIP3    H210327   7.116   2.109   2.869 -2.3199 -0.4830  0.6417
 3455TIP3   OH210328   6.140   5.423   0.474 -0.3484  0.1844 -0.4473
 3455TIP3    H110329   6.067   5.474   0.509 -1.7728  0.4167 -3.4313
 3455TIP3    H210330   6.210   5.487   0.460 -0.8719  0.6616 -0.9080
 3456TIP3   OH210331   2.538   3.084   2.856 -0.0536  0.5069  0.5842
 3456TIP3    H110332   2.463   3.096   2.799  1.1358 -1.1854 -1.4692
 3456TIP3    H210333   2.572   3.173   2.870 -1.6415  1.1625  0.5389
 3457TIP3   OH210334   3.985   4.137   5.380  0.2429  0.0321  0.0697
 3457TIP3    H110335   4.080   4.130   5.383  0.4013  0.7597 -1.7288
 3457TIP3    H210336   3.958   4.149   5.471  1.7083 -1.7056  0.7901
 3458TIP3   OH210337   0.151   1.559   0.798  0.1022 -0.1196 -0.2797
 3458TIP3    H110338   0.212   1.595   0.863  0.3746 -2.3841  0.8314
 3458TIP3    H210339   0.167   1.465   0.800 -3.1025 -0.7953 -0.2580
 3459TIP3   OH210340   3.789   0.710   1.997 -0.3981 -0.2543  0.2640
 3459TIP3    H110341   3.785   0.637   2.059 -0.7384  0.1693  0.7431
 3459TIP3    H210342   3.809   0.668   1.913  0.8628 -0.7498  0.7883
 3460TIP3   OH210343   2.263   2.809   4.073  0.4183 -0.0749 -0.4921
 3460TIP3    H110344   2.236   2.862   4.148  0.9159 -0.4496 -0.0406
 3460TIP3    H210345   2.351   2.779   4.095 -0.2901 -2.0910 -0.1853
 3461TIP3   OH210346   6.776   5.923   2.818 -0.1071 -0.3087  0.0505
 3461TIP3    H110347   6.859   5.875   2.823  0.2266  0.3918  1.6260
 3461TIP3    H210348   6.746   5.929   2.908 -1.4293  0.2425 -0.4021
 3462TIP3   OH210349   3.916   0.084   1.897  0.0530  0.0192  0.3248
 3462TIP3    H110350   3.823   0.061   1.900  0.0553 -0.0297  0.0191
 3462TIP3    H210351   3.924   0.157   1.958 -0.2292  0.1701  0.1830
 3463TIP3   OH210352   4.480   2.682   3.445 -0.2143 -0.0839  0.1910
 3463TIP3    H110353   4.530   2.762   3.428  1.3626 -1.0824 -0.0364
 3463TIP3    H210354   4.489   2.669   3.539 -1.6512  0.7244  0.4745
 3464TIP3   OH210355   3.166   2.989   1.898  0.3412  0.3680 -0.5449
 3464TIP3    H110356   3.146   2.916   1.840  0.3734 -1.9793  2.1853
 3464TIP3    H210357   3.081   3.019   1.930  0.4361 -0.7229  0.8263
 3465TIP3   OH210358   0.464   4.489   5.080  0.3430 -0.1383  0.1554
 3465TIP3    H110359   0.466   4.468   5.173 -1.2980 -1.1943  0.0057
 3465TIP3    H210360   0.553   4.515   5.058  0.8472 -0.3030  1.9213
 3466TIP3   OH210361   3.915   5.569   4.712 -0.6596 -0.1854  0.0581
 3466TIP3    H110362   3.888   5.493   4.764  1.8719 -1.1142  0.1770
 3466TIP3    H210363   3.986   5.535   4.657  1.0101  2.2190  0.5758
 3467TIP3   OH210364   6.540   5.395   2.900 -0.3107 -0.3121 -0.3373
 3467TIP3    H110365   6.522   5.346   2.980  0.3884  0.9275  0.6166
 3467TIP3    H210366   6.543   5.329   2.831 -0.7433 -1.4277  0.6787
 3468TIP3   OH210367   5.554   1.482   1.192 -0.4578 -0.5573 -0.1388
 3468TIP3    H110368   5.614   1.415   1.226  0.3544  0.6253  0.8679
 3468TIP3    H210369   5.611   1.544   1.145 -1.3358 -1.1278 -2.0352
 3469TIP3   OH210370   3.039   2.679   0.477  0.4885 -0.5288 -0.1010
 3469TIP3    H110371   2.946   2.700   0.485  0.6208  0.5988 -1.1836
 3469TIP3    H210372   3.060   2.632   0.557 -0.6435  0.5974  0.9062
 3470TIP3   OH210373   5.440   5.734   2.543 -0.1927 -0.2575 -0.4865
 3470TIP3    H110374   5.484   5.679   2.607 -0.6726 -1.4628 -1.1681
 3470TIP3    H210375   5.399   5.803   2.596  0.8151 -0.2564  0.3309
 3471TIP3   OH210376   2.044   3.593   3.655  0.3483  0.7676 -0.0807
 3471TIP3    H110377   1.991   3.665   3.622 -1.1210 -0.5778 -0.7665
 3471TIP3    H210378   2.085   3.554   3.578  0.3612  0.2805  0.1612
 3472TIP3   OH210379   1.386   2.400   5.807 -0.2971  0.2154  0.1198
 3472TIP3    H110380   1.453   2.397   5.876  0.7383  1.9928 -0.7464
 3472TIP3    H210381   1.433   2.429   5.729 -2.1776  2.0970 -0.3883
 3473TIP3   OH210382   4.451   4.334   1.438  0.0778 -0.5663 -0.2927
 3473TIP3    H110383   4.437   4.387   1.359 -0.6609 -0.6342 -0.2190
 3473TIP3    H210384   4.372   4.279   1.444  0.5624 -1.2476 -0.0367
 3474TIP3   OH210385   4.531   6.450   4.125  0.3196  0.3470  0.0675
 3474TIP3    H110386   4.494   6.362   4.116 -0.0911  0.4692  0.4675
 3474TIP3    H210387   4.566   6.451   4.214  0.0756  0.6754  0.1617
 3475TIP3   OH210388   1.149   1.022   0.314 -0.5119 -0.2187 -0.3124
 3475TIP3    H110389   1.236   1.019   0.275 -0.4407  0.0211 -0.1757
 3475TIP3    H210390   1.123   1.114   0.307 -0.0614  0.0422  1.1614
 3476TIP3   OH210391   4.451   3.973   0.302  0.6250  0.1138 -0.5884
 3476TIP3    H110392   4.443   4.014   0.388 -0.5284  0.7175 -0.9719
 3476TIP3    H210393   4.489   4.041   0.246  0.8018 -0.0783 -0.7035
 3477TIP3   OH210394   0.928   1.443   4.088  0.0560 -0.0034  0.0765
 3477TIP3    H110395   1.001   1.423   4.030 -0.1712  1.3629 -0.7323
 3477TIP3    H210396   0.914   1.537   4.078 -3.1370 -0.5019 -1.3889
 3478TIP3   OH210397   3.752   5.382   4.178  0.0582  0.3562  0.3024
 3478TIP3    H110398   3.658   5.399   4.188  0.1698  0.9741  0.3172
 3478TIP3    H210399   3.760   5.340   4.092 -0.0651  1.6873 -0.3841
 3479TIP3   OH210400   0.012   3.050   2.467 -0.6520  0.1178  0.2226
 3479TIP3    H110401   0.025   3.107   2.543 -0.4191 -1.9891  1.8650
 3479TIP3    H210402   0.098   3.043   2.427 -0.4156 -0.0419  0.7491
 3480TIP3   OH210403   6.572   2.595   2.991 -0.4984 -0.6358  0.3829
 3480TIP3    H110404   6.586   2.602   3.086 -0.3938  1.0301  0.2721
 3480TIP3    H210405   6.490   2.547   2.983 -0.3425 -1.0788  1.3156
 3481TIP3   OH210406   2.342   5.799   5.849  0.3205  0.3846  0.5416
 3481TIP3    H110407   2.388   5.853   5.785 -1.8767 -0.3177 -1.8048
 3481TIP3    H210408   2.281   5.858   5.892 -1.2501  0.0980 -1.1856
 3482TIP3   OH210409   4.201   3.209   0.385 -0.3042 -0.3462  0.4473
 3482TIP3    H110410   4.223   3.247   0.300  0.9562 -0.5648  0.6474
 3482TIP3    H210411   4.191   3.115   0.367 -1.6735 -0.1886  0.2674
 3483TIP3   OH210412   2.739   5.035   4.479 -0.0781 -0.0600  0.0691
 3483TIP3    H110413   2.788   5.030   4.561  1.8905  0.7107 -1.0228
 3483TIP3    H210414   2.741   4.946   4.445 -0.9323 -0.3932  0.8207
 3484TIP3   OH210415   0.823   2.913   3.265 -0.5885  0.2156  0.3444
 3484TIP3    H110416   0.780   2.942   3.345 -1.0388 -1.3023  0.6812
 3484TIP3    H210417   0.838   2.819   3.277  0.6592  0.2265 -0.7571
 3485TIP3   OH210418   5.121   3.837   2.114 -0.2989 -0.0426  0.4078
 3485TIP3    H110419   5.044   3.784   2.092  1.1726 -1.3254 -2.2068
 3485TIP3    H210420   5.127   3.901   2.044  2.7396 -2.0845 -1.4181
 3486TIP3   OH210421   2.963   1.848   1.374  0.5452  0.6121 -0.7198
 3486TIP3    H110422   2.981   1.934   1.336  1.0167  0.9299  0.1920
 3486TIP3    H210423   3.050   1.812   1.396  0.2589  1.2804  1.8198
 3487TIP3   OH210424   7.144   5.447   0.993  0.5214  0.3745  0.1490
 3487TIP3    H110425   7.113   5.475   1.079 -0.7162 -0.2027 -0.0905
 3487TIP3    H210426   7.215   5.508   0.972  0.4900  0.8445  1.3448
 3488TIP3   OH210427   0.967  -0.009   4.706  0.0296  0.2507  0.8999
 3488TIP3    H110428   1.051  -0.048   4.682 -0.3475  0.1113 -0.2431
 3488TIP3    H210429   0.990   0.058   4.771  0.7399 -1.4439  2.4982
 3489TIP3   OH210430   5.192   4.781   5.169 -0.2915  0.4514 -0.1977
 3489TIP3    H110431   5.207   4.692   5.136 -0.2543  0.4022 -0.0466
 3489TIP3    H210432   5.213   4.776   5.262  0.7640  0.8790 -0.3971
 3490TIP3   OH210433   2.970   1.751   1.974  0.3467 -0.6200 -0.2172
 3490TIP3    H110434   2.892   1.807   1.972  1.9959  1.8763  1.0656
 3490TIP3    H210435   2.947   1.680   2.035 -0.3340  1.0680  1.5739
 3491TIP3   OH210436   6.734   3.494   5.750 -0.2420  0.4235  0.2133
 3491TIP3    H110437   6.759   3.481   5.658  1.7263  0.3067  0.7281
 3491TIP3    H210438   6.734   3.590   5.761  0.8986  0.4176  0.4124
 3492TIP3   OH210439   4.903   5.317   1.815  0.0612 -0.1156  0.1957
 3492TIP3    H110440   4.915   5.383   1.883 -3.5436  1.1715 -0.2091
 3492TIP3    H210441   4.902   5.367   1.734 -2.9189 -0.4696 -0.1009
 3493TIP3   OH210442   3.645   6.613   5.135 -0.1204 -0.3314 -0.0769
 3493TIP3    H110443   3.554   6.643   5.138  0.1103  0.2919  1.1657
 3493TIP3    H210444   3.661   6.575   5.221  0.6854 -0.7964 -0.4194
 3494TIP3   OH210445   1.866   1.397   3.950 -0.7039  0.0379  0.1291
 3494TIP3    H110446   1.879   1.484   3.988  1.0946 -0.5687  1.0703
 3494TIP3    H210447   1.923   1.396   3.873 -0.9848 -0.1996 -0.0773
 3495TIP3   OH210448   2.484   3.478   2.439 -0.0903  0.1790 -0.1907
 3495TIP3    H110449   2.536   3.422   2.382 -1.1901  0.8892 -1.9915
 3495TIP3    H210450   2.532   3.480   2.522 -1.2270 -5.4592  1.0147
 3496TIP3   OH210451   0.869   4.010   5.329 -0.3452 -0.2028 -0.0941
 3496TIP3    H110452   0.812   3.959   5.272  0.0985 -0.5983 -0.1853
 3496TIP3    H210453   0.816   4.026   5.407 -0.2159 -1.4816  0.2721
 3497TIP3   OH210454   3.989   2.056   3.706 -0.2624 -1.0821 -0.7167
 3497TIP3    H110455   3.963   2.143   3.736  0.4882 -0.9115 -0.5369
 3497TIP3    H210456   4.040   2.073   3.626 -3.0033 -1.5751 -2.7198
 3498TIP3   OH210457   2.593   2.595   0.697 -0.1232 -0.2866  0.8235
 3498TIP3    H110458   2.546   2.667   0.737  0.0704 -0.8916  2.1914
 3498TIP3    H210459   2.649   2.636   0.631 -3.0015  0.3931 -1.4154
 3499TIP3   OH210460   1.808   0.180   3.333  0.3313 -0.1965 -0.1998
 3499TIP3    H110461   1.712   0.191   3.332  0.3870  0.5187  0.7593
 3499TIP3    H210462   1.840   0.256   3.381  1.4660  0.0612 -1.3183
 3500TIP3   OH210463   0.898   2.553   1.645 -0.3125  0.6400  0.0361
 3500TIP3    H110464   0.829   2.589   1.589 -0.0701  0.8762 -0.1138
 3500TIP3    H210465   0.851   2.511   1.717 -0.6999 -0.8396 -1.0094
 3501TIP3   OH210466   2.914   3.392   1.571  0.0374  0.0196  0.0887
 3501TIP3    H110467   2.986   3.341   1.609 -1.2443 -0.8250  1.4543
 3501TIP3    H210468   2.847   3.392   1.639 -0.7090  2.0111 -0.6070
 3502TIP3   OH210469   4.059   0.848   1.681  0.0006  0.1135 -0.0816
 3502TIP3    H110470   4.131   0.786   1.675  1.3148  1.5295  0.2347
 3502TIP3    H210471   4.077   0.897   1.762 -2.3942 -0.7409  1.0684
 3503TIP3   OH210472   0.728   6.059   1.988 -0.1492  0.0295  0.6508
 3503TIP3    H110473   0.751   6.049   2.080 -1.3009  0.6348  1.0275
 3503TIP3    H210474   0.657   6.124   1.988  0.5329  0.8343 -0.7590
 3504TIP3   OH210475   1.113   0.572   3.000 -0.1284 -0.1560 -0.0402
 3504TIP3    H110476   1.029   0.545   3.038 -0.7713  1.2592 -0.3646
 3504TIP3    H210477   1.115   0.667   3.013  0.6663  0.0614 -1.5115
 3505TIP3   OH210478   5.951   0.483   5.416  0.2005  0.7017 -0.2668
 3505TIP3    H110479   5.934   0.505   5.508  0.0879  0.5623 -0.2551
 3505TIP3    H210480   5.884   0.531   5.367  0.2621  0.7775 -0.2763
 3506TIP3   OH210481   4.394   2.355   2.175  0.2880  0.1305 -0.0007
 3506TIP3    H110482   4.356   2.443   2.177 -0.7960 -0.2797 -1.0989
 3506TIP3    H210483   4.326   2.300   2.137  1.4392 -0.9383 -0.6169
 3507TIP3   OH210484   3.666   6.157   3.653  0.3794 -0.0500  0.3833
 3507TIP3    H110485   3.693   6.245   3.629  0.0971  0.4975  1.9756
 3507TIP3    H210486   3.740   6.102   3.630  0.6348  0.6236 -0.4385
 3508TIP3   OH210487   3.208   3.338   0.379 -0.5076  0.1190 -0.1742
 3508TIP3    H110488   3.191   3.362   0.288  0.7214 -0.2016 -0.5163
 3508TIP3    H210489   3.299   3.308   0.378 -0.2281  0.8838  1.3265
 3509TIP3   OH210490   2.082   3.752   1.279  0.6832  0.5416  0.2941
 3509TIP3    H110491   2.092   3.662   1.249 -0.0459  0.0860  1.3776
 3509TIP3    H210492   2.154   3.764   1.342  0.8934  0.7865  0.0121
 3510TIP3   OH210493   6.420   2.200   4.054 -0.3641 -0.2403  0.2455
 3510TIP3    H110494   6.457   2.112   4.061 -0.5342 -0.4350 -1.0568
 3510TIP3    H210495   6.478   2.255   4.106  1.3985 -0.6533 -1.1906
 3511TIP3   OH210496   1.792   3.843   3.717 -0.4702  0.6925 -0.4317
 3511TIP3    H110497   1.867   3.866   3.663 -0.0251  1.4122  0.4545
 3511TIP3    H210498   1.830   3.806   3.797 -0.9911  2.0285  0.4755
 3512TIP3   OH210499   0.434   2.432   1.469  0.5417  0.3836 -0.1078
 3512TIP3    H110500   0.527   2.411   1.473  0.0944 -2.1213 -1.1632
 3512TIP3    H210501   0.411   2.458   1.558  1.7980 -1.1023  0.6962
 3513TIP3   OH210502   4.393   3.989   3.495 -0.0332 -0.1344  0.5208
 3513TIP3    H110503   4.449   3.916   3.467  1.3145  1.9083 -2.6759
 3513TIP3    H210504   4.441   4.029   3.568  0.5181 -0.8949  0.5909
 3514TIP3   OH210505   3.808   1.925   0.122 -0.3499 -0.0582  0.0398
 3514TIP3    H110506   3.848   1.943   0.037 -0.4163  2.8435  0.5086
 3514TIP3    H210507   3.879   1.938   0.185 -1.2449  2.2956  0.6731
 3515TIP3   OH210508   4.036   2.147   2.020 -0.3935 -0.2207 -0.1373
 3515TIP3    H110509   4.091   2.181   1.950  0.3890 -0.4637  0.3488
 3515TIP3    H210510   4.092   2.084   2.067 -1.6105 -1.7563 -0.6634
 3516TIP3   OH210511   3.780   2.773   2.096 -0.2514 -0.0196  0.6450
 3516TIP3    H110512   3.755   2.860   2.064 -0.6775 -0.1207  0.6983
 3516TIP3    H210513   3.709   2.748   2.155  0.2265 -0.0952  1.1975
 3517TIP3   OH210514   5.902   6.289   4.697 -0.2140  0.0333  0.2322
 3517TIP3    H110515   5.847   6.314   4.772  1.0547 -2.0368  1.9824
 3517TIP3    H210516   5.992   6.295   4.730  0.4091 -0.4930 -1.2858
 3518TIP3   OH210517   0.045   2.010   3.777 -0.1590  0.8782 -0.0871
 3518TIP3    H110518   0.026   1.936   3.836 -0.8734  1.5332  0.5396
 3518TIP3    H210519  -0.033   2.065   3.783  0.1679  1.4505 -0.9154
 3519TIP3   OH210520   4.395   4.660   1.507  0.1628  0.4602  0.0638
 3519TIP3    H110521   4.394   4.588   1.570 -2.5112  0.2166 -0.1336
 3519TIP3    H210522   4.410   4.739   1.559 -2.9917  0.3907  1.3031
 3520TIP3   OH210523   1.051   5.436   2.179  0.1556  0.2182  0.2591
 3520TIP3    H110524   1.130   5.394   2.143 -0.3357  0.0834 -0.7025
 3520TIP3    H210525   1.014   5.485   2.105  0.5067  2.0732  1.2474
 3521TIP3   OH210526   6.660   0.911   4.170  0.2892  0.6393 -0.6229
 3521TIP3    H110527   6.618   0.982   4.122  1.3337  1.4305 -0.4055
 3521TIP3    H210528   6.745   0.946   4.195 -0.2156  0.2765  1.8645
 3522TIP3   OH210529   2.498   2.270   3.268  0.1926 -0.3631 -0.1144
 3522TIP3    H110530   2.466   2.219   3.343  1.6489 -0.4642  0.4635
 3522TIP3    H210531   2.465   2.359   3.284 -2.5041 -1.0545 -1.2089
 3523TIP3   OH210532   5.586   2.668   3.983 -0.5471 -0.2775  0.0784
 3523TIP3    H110533   5.678   2.693   3.983 -0.3014 -1.0198  1.8359
 3523TIP3    H210534   5.562   2.663   3.891  0.8461  1.0433 -0.3983
 3524TIP3   OH210535   0.800   6.543   2.846 -0.0524 -0.3020 -0.3396
 3524TIP3    H110536   0.737   6.584   2.787  1.6631  2.3878 -0.4739
 3524TIP3    H210537   0.752   6.531   2.928 -0.8638  1.3930 -0.5249
 3525TIP3   OH210538   2.424   3.770   0.151 -0.0081  0.4733 -0.3999
 3525TIP3    H110539   2.450   3.822   0.075 -1.1184 -0.0852 -1.1850
 3525TIP3    H210540   2.497   3.709   0.164 -0.2697 -0.1307 -1.6828
 3526TIP3   OH210541   4.910   1.706   1.628 -0.3520  0.6417 -0.4335
 3526TIP3    H110542   4.858   1.782   1.656 -0.3913 -0.3612  2.5226
 3526TIP3    H210543   4.845   1.639   1.608 -0.3270  0.0332  1.3163
 3527TIP3   OH210544   2.092   4.389   3.179 -0.5573  0.3502 -0.2368
 3527TIP3    H110545   2.078   4.426   3.092 -0.7194  0.2209 -0.2650
 3527TIP3    H210546   2.095   4.295   3.165 -2.7356  0.1721  0.1753
 3528TIP3   OH210547   1.855   3.229   1.838 -0.1055 -0.5054  0.7219
 3528TIP3    H110548   1.911   3.275   1.901 -0.1559  0.1305  0.3059
 3528TIP3    H210549   1.777   3.285   1.830  0.2948 -0.1164 -0.5826
 3529TIP3   OH210550   0.533   2.341   2.230  0.0098 -0.4741 -0.3483
 3529TIP3    H110551   0.483   2.330   2.149  1.6645 -0.7339 -1.3815
 3529TIP3    H210552   0.617   2.298   2.213  1.2188  1.3167  0.6995
 3530TIP3   OH210553   4.861   2.667   2.769  0.1758 -0.6009 -0.3969
 3530TIP3    H110554   4.855   2.666   2.865 -0.3200  0.6797 -0.3905
 3530TIP3    H210555   4.823   2.751   2.744  1.1546 -0.5149 -1.6691
 3531TIP3   OH210556   5.503   6.081   5.691  0.4814 -0.3252 -0.2649
 3531TIP3    H110557   5.459   6.001   5.720  1.3857 -2.0596 -3.1455
 3531TIP3    H210558   5.472   6.149   5.750 -0.5570 -2.7205  2.1916
 3532TIP3   OH210559   1.059   1.371   3.444  0.2482  0.1807 -0.2583
 3532TIP3    H110560   1.152   1.390   3.438  0.3618 -0.3197 -0.1173
 3532TIP3    H210561   1.040   1.369   3.537 -0.4805  2.9817 -0.2780
 3533TIP3   OH210562   1.111   0.177   4.834 -0.1926  0.0793  0.3268
 3533TIP3    H110563   1.094   0.271   4.824 -0.4990  0.1718  1.5068
 3533TIP3    H210564   1.093   0.160   4.927  0.0715 -1.1044  0.1705
 3534TIP3   OH210565   5.804   2.423   2.163  0.1861 -0.1956 -0.4982
 3534TIP3    H110566   5.892   2.443   2.133  0.6567  0.6446  1.2938
 3534TIP3    H210567   5.754   2.503   2.148  0.1828 -0.0892  0.0620
 3535TIP3   OH210568   0.078   3.719   1.519 -0.1211  0.3472  0.3669
 3535TIP3    H110569   0.102   3.668   1.442 -1.3545 -2.2516  1.5710
 3535TIP3    H210570   0.157   3.768   1.541  0.2451  1.2760 -2.5201
 3536TIP3   OH210571   1.100   0.227   3.777  0.7403 -0.0619  0.0502
 3536TIP3    H110572   1.124   0.236   3.869 -2.7213  1.4352  0.9457
 3536TIP3    H210573   1.162   0.283   3.730  1.5145  0.4685  1.6327
 3537TIP3   OH210574   2.447   1.216   3.361 -0.0854 -0.1591  0.3275
 3537TIP3    H110575   2.377   1.262   3.407 -1.5052 -1.1846 -0.6957
 3537TIP3    H210576   2.509   1.284   3.336  0.5411  0.5008  3.2831
 3538TIP3   OH210577   4.791   2.204   4.832  0.8821  0.2325 -0.1513
 3538TIP3    H110578   4.814   2.124   4.785  0.3468 -0.0914  0.1244
 3538TIP3    H210579   4.715   2.238   4.784 -0.6257 -0.9026  1.3119
 3539TIP3   OH210580   4.120   0.155   2.160  0.0716  0.1511 -0.4481
 3539TIP3    H110581   4.037   0.199   2.144  0.7055  1.0181 -1.5204
 3539TIP3    H210582   4.099   0.084   2.221 -1.7104 -0.5688 -1.8211
 3540TIP3   OH210583   0.334   1.933   5.350 -0.3732 -0.1056  0.1222
 3540TIP3    H110584   0.361   1.864   5.290  1.9389 -1.2151  2.2781
 3540TIP3    H210585   0.385   2.010   5.324 -0.3306 -0.2216 -0.1315
 3541TIP3   OH210586   1.809   2.425   4.973  0.3206  0.9691 -1.0962
 3541TIP3    H110587   1.742   2.417   4.904 -2.2644 -0.8258  1.4112
 3541TIP3    H210588   1.786   2.506   5.018 -0.3594  0.2215 -0.0747
 3542TIP3   OH210589   2.080   0.353   4.745 -0.8011  0.1131  0.1922
 3542TIP3    H110590   2.132   0.277   4.771  0.4204  0.4205 -1.2200
 3542TIP3    H210591   2.038   0.326   4.663  0.1113  1.1088 -0.6422
 3543TIP3   OH210592   1.109   6.360   0.058 -0.1052  0.6936 -0.0021
 3543TIP3    H110593   1.027   6.321   0.027  0.2261  0.5548 -0.7066
 3543TIP3    H210594   1.094   6.455   0.053  0.4503  0.7117 -2.0159
 3544TIP3   OH210595   6.117   6.240   5.754  0.2606  0.7674 -0.3436
 3544TIP3    H110596   6.154   6.152   5.751 -0.7412  0.2422  1.3251
 3544TIP3    H210597   6.193   6.298   5.752  0.9427 -0.1258 -1.2509
 3545TIP3   OH210598   0.611   4.494   0.468  0.1008  0.2612  0.3449
 3545TIP3    H110599   0.647   4.412   0.502  1.8184  0.3532 -1.1375
 3545TIP3    H210600   0.652   4.562   0.521  1.1546  0.2943 -0.4781
 3546TIP3   OH210601   5.306   0.211   0.413 -0.2933 -0.3695 -0.2605
 3546TIP3    H110602   5.215   0.210   0.384 -0.1917  1.0142 -0.7309
 3546TIP3    H210603   5.311   0.285   0.474  0.6758  0.1026 -0.8760
 3547TIP3   OH210604   0.084   5.739   1.967 -0.4221 -0.6434  0.1266
 3547TIP3    H110605   0.168   5.769   2.003  0.0198 -2.1064  0.3706
 3547TIP3    H210606   0.046   5.686   2.036 -0.0165 -2.6975 -1.1445
 3548TIP3   OH210607   0.099   1.892   2.850 -0.2927 -0.6570  0.1682
 3548TIP3    H110608   0.096   1.966   2.790 -2.2537 -1.1594 -0.4508
 3548TIP3    H210609   0.144   1.925   2.928  0.0340  0.7665 -0.5977
 3549TIP3   OH210610   6.981   0.120   2.098  0.8637  0.8009 -0.4039
 3549TIP3    H110611   6.970   0.207   2.137  1.4636  1.1102 -0.9016
 3549TIP3    H210612   7.029   0.136   2.017  0.6614  0.0399 -0.6838
 3550TIP3   OH210613   6.221   1.633   2.781 -0.3963  0.2180 -0.0527
 3550TIP3    H110614   6.308   1.662   2.754  0.1683 -1.9834 -0.8239
 3550TIP3    H210615   6.161   1.693   2.737  0.6815  0.1048 -1.7916
 3551TIP3   OH210616   4.731   4.599   0.135  0.3577  0.1704 -0.0762
 3551TIP3    H110617   4.644   4.592   0.097  0.4673 -1.4581 -0.0740
 3551TIP3    H210618   4.716   4.635   0.223 -0.2576  0.2980 -0.2282
 3552TIP3   OH210619   0.795   5.489   0.624 -0.4186  0.5630  0.3059
 3552TIP3    H110620   0.785   5.438   0.544 -0.9658  2.3363 -0.8118
 3552TIP3    H210621   0.791   5.424   0.695 -1.4980 -0.8755 -1.0138
 3553TIP3   OH210622   2.196   3.766   0.763 -0.3599  0.3173  0.1742
 3553TIP3    H110623   2.185   3.856   0.793 -0.6424  1.0620 -1.9919
 3553TIP3    H210624   2.198   3.714   0.843 -1.5921  2.0949  1.4411
 3554TIP3   OH210625   3.472   2.419   3.028 -0.5477 -0.0515 -0.1892
 3554TIP3    H110626   3.556   2.378   3.008 -1.2884 -1.5421 -0.3871
 3554TIP3    H210627   3.494   2.507   3.058  1.0304 -0.1585 -0.9492
 3555TIP3   OH210628   1.406   5.057   3.956 -0.2381 -0.1566 -0.0857
 3555TIP3    H110629   1.473   5.125   3.955 -0.2791 -0.0800  1.0912
 3555TIP3    H210630   1.353   5.075   3.878  1.5755 -0.7353 -1.5163
 3556TIP3   OH210631   5.731   1.979   4.938 -0.2418  0.3328  0.0315
 3556TIP3    H110632   5.795   1.966   4.868 -0.5506  2.3495 -0.6936
 3556TIP3    H210633   5.655   1.927   4.912 -0.0602  0.4353 -0.7332
 3557TIP3   OH210634   1.809   5.682   4.809  0.6693 -0.1393 -0.0646
 3557TIP3    H110635   1.752   5.695   4.884  0.3744 -0.9125 -0.1474
 3557TIP3    H210636   1.861   5.763   4.804  1.6176 -0.5766  1.7533
 3558TIP3   OH210637   5.809   3.065   3.066  0.1919 -0.0723 -0.0898
 3558TIP3    H110638   5.720   3.033   3.079  0.5227 -0.6386  0.9220
 3558TIP3    H210639   5.807   3.108   2.981 -0.1786 -3.2965 -1.8993
 3559TIP3   OH210640   2.543   6.394   0.714  0.5857  0.0838  0.0229
 3559TIP3    H110641   2.544   6.300   0.699  1.6881  0.0286  0.3159
 3559TIP3    H210642   2.457   6.423   0.685 -0.5631 -1.3084  1.8245
 3560TIP3   OH210643   1.026   6.694   0.827  0.6015 -0.6681 -0.0549
 3560TIP3    H110644   1.006   6.776   0.783  1.0805 -1.4848 -1.8981
 3560TIP3    H210645   1.092   6.717   0.893 -0.6660  0.7139  0.7655
 3561TIP3   OH210646   3.730   0.718   0.114 -0.3115  0.1056  0.0292
 3561TIP3    H110647   3.783   0.753   0.043 -2.1200 -0.5446 -1.7467
 3561TIP3    H210648   3.731   0.786   0.182  1.1590  0.9034 -0.7601
 3562TIP3   OH210649   3.207   3.438   4.218 -0.1158  0.3918  0.2230
 3562TIP3    H110650   3.139   3.427   4.151 -0.8394  2.1922  0.5830
 3562TIP3    H210651   3.280   3.479   4.172  1.3173 -2.6304 -0.4358
 3563TIP3   OH210652   1.352   4.826   2.699 -0.1477  0.0129  0.5053
 3563TIP3    H110653   1.288   4.764   2.734 -0.4183 -0.2446 -0.3944
 3563TIP3    H210654   1.315   4.852   2.614  0.0458  1.2793  0.7992
 3564TIP3   OH210655   6.399   2.744   2.034  0.6408  0.0124 -0.3614
 3564TIP3    H110656   6.335   2.724   1.965 -0.7147  0.6784  0.6442
 3564TIP3    H210657   6.406   2.840   2.032 -0.1768  0.1299  1.0301
 3565TIP3   OH210658   3.534   1.772   4.911 -0.7801  0.7927  0.3753
 3565TIP3    H110659   3.549   1.735   4.998 -1.9041 -0.2747  0.1495
 3565TIP3    H210660   3.558   1.701   4.851  0.4733  1.6880 -0.2214
 3566TIP3   OH210661   5.273   5.888   0.628 -0.0789  0.2690  0.4877
 3566TIP3    H110662   5.360   5.926   0.619 -0.6707  1.4874 -0.4027
 3566TIP3    H210663   5.277   5.836   0.709  1.4303  0.3768  0.4979
 3567TIP3   OH210664   6.950   6.671   2.603  0.3649 -0.1315 -0.0902
 3567TIP3    H110665   7.032   6.622   2.594  0.3490 -0.4083  1.1510
 3567TIP3    H210666   6.882   6.604   2.607  0.2096  0.0466  0.2533
 3568TIP3   OH210667   5.494   3.410   1.929 -0.2592  0.0547 -0.1923
 3568TIP3    H110668   5.552   3.348   1.886  0.7724  2.2799 -2.3220
 3568TIP3    H210669   5.425   3.427   1.864 -1.0398  0.4357  0.7073
 3569TIP3   OH210670  -0.007   3.307   4.531  0.4575 -0.6504 -0.7537
 3569TIP3    H110671  -0.006   3.393   4.489  2.3930  0.3263  1.0967
 3569TIP3    H210672   0.050   3.253   4.477 -0.6924 -0.7968 -1.8736
 3570TIP3   OH210673   4.326   4.102   5.187  0.0158  0.0944  0.6007
 3570TIP3    H110674   4.393   4.034   5.187 -0.7487 -0.6729  0.4850
 3570TIP3    H210675   4.289   4.100   5.275 -0.7827 -0.4352  0.2702
 3571TIP3   OH210676   3.322   1.149   2.313  0.1229  0.7658 -0.5146
 3571TIP3    H110677   3.254   1.103   2.362 -0.4150  0.7802 -1.2246
 3571TIP3    H210678   3.346   1.223   2.369 -0.7379  0.9898 -0.4296
 3572TIP3   OH210679   6.264   5.933   0.194 -0.2563 -0.3488 -0.2240
 3572TIP3    H110680   6.351   5.943   0.157 -1.0805  0.7800 -1.9458
 3572TIP3    H210681   6.204   5.955   0.123 -2.0806 -4.2382 -0.1658
 3573TIP3   OH210682   6.559   1.459   0.051  0.5226  0.3609  0.2292
 3573TIP3    H110683   6.509   1.471  -0.030  1.8815 -0.0606 -0.7095
 3573TIP3    H210684   6.595   1.546   0.069 -0.5566  0.6811  0.9438
 3574TIP3   OH210685   5.610   4.903   2.370 -0.1558  0.1022  0.7011
 3574TIP3    H110686   5.693   4.859   2.353  0.1755  1.5325 -2.1902
 3574TIP3    H210687   5.544   4.834   2.366  0.7782 -0.8898  1.9336
 3575TIP3   OH210688   4.642   1.801   4.389 -0.3986 -0.1757 -0.1965
 3575TIP3    H110689   4.731   1.767   4.403  0.2139  1.4395  0.0650
 3575TIP3    H210690   4.622   1.777   4.298  1.6422  2.1215 -1.3964
 3576TIP3   OH210691   6.997   0.148   0.270 -0.0583 -0.1087  0.1435
 3576TIP3    H110692   6.943   0.186   0.201 -0.3303  1.4433  1.1429
 3576TIP3    H210693   6.951   0.068   0.295 -0.3087 -0.3383 -1.0086
 3577TIP3   OH210694   3.511   2.066   1.754  0.1828  0.0821  0.5925
 3577TIP3    H110695   3.577   1.999   1.735  0.8518  0.9698 -0.3427
 3577TIP3    H210696   3.546   2.113   1.830  0.3954  0.2426  0.3973
 3578TIP3   OH210697   4.064   0.238   2.731 -0.2733  0.1720 -0.4656
 3578TIP3    H110698   4.073   0.223   2.637  0.3998 -0.7368 -0.2719
 3578TIP3    H210699   4.071   0.151   2.770  0.9918  0.6993  0.5357
 3579TIP3   OH210700   0.011   0.778   0.561 -0.0899 -0.2267  0.4397
 3579TIP3    H110701   0.029   0.812   0.473  0.6049 -0.1577  0.6046
 3579TIP3    H210702   0.014   0.856   0.618 -0.0220 -0.3473  0.6005
 3580TIP3   OH210703   4.773   0.255   2.610 -0.1528 -0.1615 -0.1477
 3580TIP3    H110704   4.732   0.222   2.530  0.6636 -0.9908 -0.2418
 3580TIP3    H210705   4.788   0.177   2.664  2.2595 -0.0879 -0.5725
 3581TIP3   OH210706   0.157   1.306   5.266 -0.3714  0.2343  0.6083
 3581TIP3    H110707   0.147   1.285   5.359  1.3831 -0.8761  0.6014
 3581TIP3    H210708   0.223   1.375   5.264 -3.2613  3.2500  0.3521
 3582TIP3   OH210709   6.836   6.094   2.572  0.1605  0.2162 -0.8890
 3582TIP3    H110710   6.907   6.049   2.527  0.3975  1.0152 -1.3348
 3582TIP3    H210711   6.821   6.042   2.651  1.0687 -0.1042 -0.9109
 3583TIP3   OH210712   1.678   6.577   1.320 -0.0607 -0.1969 -0.5567
 3583TIP3    H110713   1.613   6.627   1.371 -0.9547 -0.6413 -1.2302
 3583TIP3    H210714   1.636   6.492   1.306  0.8377 -0.6243 -0.6789
 3584TIP3   OH210715   3.781   4.007   0.627  0.2227  0.3215 -0.1951
 3584TIP3    H110716   3.832   3.987   0.548 -1.0171  2.1537 -1.5489
 3584TIP3    H210717   3.818   3.950   0.694  2.3475 -0.2268 -1.7095
 3585TIP3   OH210718   6.749   1.274   0.092  0.3793  0.8246  0.5769
 3585TIP3    H110719   6.738   1.273   0.187 -0.7688 -0.9690  0.4701
 3585TIP3    H210720   6.686   1.339   0.060 -0.3668  0.2901  0.9415
 3586TIP3   OH210721   3.013   0.683   2.535  0.0529  0.1648  0.1425
 3586TIP3    H110722   2.956   0.743   2.488 -2.6560 -0.0858  2.8027
 3586TIP3    H210723   3.016   0.718   2.624  0.8088 -2.0332  1.0471
 3587TIP3   OH210724   3.729   2.544   4.201  0.0961 -0.0418 -0.2789
 3587TIP3    H110725   3.724   2.622   4.257  1.0453  1.4491 -2.1688
 3587TIP3    H210726   3.643   2.539   4.160  0.6502  1.3235 -1.7298
 3588TIP3   OH210727   1.607   0.477   4.123  0.0805 -0.4120  0.0357
 3588TIP3    H110728   1.516   0.504   4.127  0.6638  1.7490  0.0252
 3588TIP3    H210729   1.640   0.488   4.212  0.2691 -1.5030  0.1154
 3589TIP3   OH210730   2.577   5.883   0.316  0.3162  0.0768  0.0705
 3589TIP3    H110731   2.535   5.968   0.324  1.6279  1.0643 -2.5099
 3589TIP3    H210732   2.511   5.827   0.274  0.1619  0.4018 -0.1220
 3590TIP3   OH210733   5.385   3.114   3.912 -0.0840 -0.4814  0.2003
 3590TIP3    H110734   5.311   3.139   3.857 -0.6657 -1.3477  0.5700
 3590TIP3    H210735   5.452   3.084   3.851 -0.6189 -1.1700 -0.0528
 3591TIP3   OH210736   4.388   2.948   2.416 -0.0807  0.1363  0.2443
 3591TIP3    H110737   4.393   3.038   2.450  0.2182 -0.8286  3.0083
 3591TIP3    H210738   4.305   2.915   2.449  0.4790 -1.0547  0.5124
 3592TIP3   OH210739   4.268   0.714   2.140 -0.3005 -0.2590  0.3403
 3592TIP3    H110740   4.227   0.657   2.204  1.1965  0.0633  1.6466
 3592TIP3    H210741   4.269   0.800   2.182  0.1409  0.0899 -0.3677
 3593TIP3   OH210742   3.754   5.146   2.413 -0.0289 -0.0636 -0.0709
 3593TIP3    H110743   3.820   5.199   2.368  0.3624 -0.3909  0.1029
 3593TIP3    H210744   3.789   5.138   2.502 -0.5937  0.2438  0.1826
 3594TIP3   OH210745   6.803   1.992   4.602  0.2391 -0.3576  0.4396
 3594TIP3    H110746   6.710   1.983   4.625  0.3404  0.5641  1.2914
 3594TIP3    H210747   6.805   2.065   4.540  0.4625  0.0015  0.8713
 3595TIP3   OH210748   0.228   4.733   5.285  0.2505 -0.0409  0.5056
 3595TIP3    H110749   0.306   4.680   5.298  1.3006  1.0065 -1.2369
 3595TIP3    H210750   0.210   4.728   5.191  0.2850  2.5013  0.3051
 3596TIP3   OH210751   2.842   1.446   4.611  0.0366  0.2500 -0.0313
 3596TIP3    H110752   2.845   1.507   4.685 -0.3228 -0.9399  0.9942
 3596TIP3    H210753   2.933   1.430   4.589  0.1584  0.0888  0.5955
 3597TIP3   OH210754   1.705   6.385   0.059 -0.0194  0.4223 -0.1501
 3597TIP3    H110755   1.696   6.454  -0.007  1.6562  0.2417 -0.6238
 3597TIP3    H210756   1.782   6.335   0.030 -0.2961 -0.7090  1.0131
 3598TIP3   OH210757   6.935   3.928   2.149 -0.1654 -0.1115  0.0206
 3598TIP3    H110758   7.013   3.894   2.104 -0.2307 -0.8252  0.4477
 3598TIP3    H210759   6.869   3.936   2.080  0.1585  0.1130 -0.2666
 3599TIP3   OH210760   7.182   5.583   5.001 -0.1591  0.0656  0.1268
 3599TIP3    H110761   7.226   5.514   4.951  1.0585 -0.1198  1.3880
 3599TIP3    H210762   7.135   5.634   4.935 -0.0478 -1.2039 -0.9794
 3600TIP3   OH210763   2.301   1.126   5.736 -0.1072 -0.1501  0.1662
 3600TIP3    H110764   2.239   1.062   5.771 -0.3492 -0.1563 -0.2677
 3600TIP3    H210765   2.304   1.108   5.642  2.5585 -1.8929  0.4846
 3601TIP3   OH210766   5.463   6.545   2.348 -0.2114  0.6286 -0.1278
 3601TIP3    H110767   5.374   6.575   2.365 -0.2026  0.6485 -0.1187
 3601TIP3    H210768   5.508   6.622   2.313  0.1653  0.9843  1.1033
 3602TIP3   OH210769   5.796   2.014   3.583 -0.0133 -0.0587  0.0596
 3602TIP3    H110770   5.819   2.015   3.491  0.2474 -1.4187  0.0901
 3602TIP3    H210771   5.711   1.971   3.587 -1.1212  2.0215  0.2648
 3603TIP3   OH210772   0.593   3.037   2.569 -0.1007 -0.1135  0.1788
 3603TIP3    H110773   0.653   3.077   2.633  3.0150  0.1633 -2.6602
 3603TIP3    H210774   0.612   2.944   2.573  0.3212 -0.0589 -0.5537
 3604TIP3   OH210775   4.568   0.169   2.080  0.5750 -0.1937 -0.1929
 3604TIP3    H110776   4.632   0.165   2.009  1.0185 -0.1663  0.2091
 3604TIP3    H210777   4.488   0.200   2.037  0.9128  0.0899 -0.6294
 3605TIP3   OH210778   5.165   5.235   0.271  1.2756 -0.5791 -0.4076
 3605TIP3    H110779   5.114   5.157   0.248 -2.3561  1.5298 -0.1282
 3605TIP3    H210780   5.175   5.231   0.366  1.2173 -0.7385 -0.4079
 3606TIP3   OH210781   4.310   0.598   0.513 -0.4742  0.1814  0.4079
 3606TIP3    H110782   4.217   0.616   0.503 -0.4067  0.2748 -0.0572
 3606TIP3    H210783   4.315   0.503   0.524 -0.6186  0.1746  0.4116
 3607TIP3   OH210784   2.700   6.333   1.660  0.2091  0.1254 -0.0895
 3607TIP3    H110785   2.677   6.240   1.661 -0.0031  0.1711 -0.8593
 3607TIP3    H210786   2.718   6.354   1.569  1.1354  0.6346  0.1838
 3608TIP3   OH210787   1.851   5.645   2.894 -0.6403 -0.0492  0.0964
 3608TIP3    H110788   1.848   5.610   2.805  2.6097 -1.5177  0.4437
 3608TIP3    H210789   1.766   5.621   2.931 -1.4761 -0.7825 -2.1112
 3609TIP3   OH210790   3.588   2.398   0.841 -0.0191 -0.0320  0.5447
 3609TIP3    H110791   3.610   2.428   0.929  0.0255  1.5805  0.0084
 3609TIP3    H210792   3.510   2.343   0.854  1.7800 -2.4368  1.9324
 3610TIP3   OH210793   6.110   3.196   1.374  0.2808  0.0438 -0.2919
 3610TIP3    H110794   6.016   3.187   1.390  0.3608 -2.3996 -0.8100
 3610TIP3    H210795   6.123   3.166   1.284  1.5983 -0.1545 -0.0697
 3611TIP3   OH210796   2.557   1.544   0.555 -0.6863 -0.0947 -0.2651
 3611TIP3    H110797   2.499   1.501   0.618  1.2921 -0.0239  1.7645
 3611TIP3    H210798   2.588   1.474   0.498 -1.2003 -0.4795 -0.0719
 3612TIP3   OH210799   0.987   3.312   4.357  0.5759  0.4621 -0.0468
 3612TIP3    H110800   0.935   3.232   4.363  0.1809  0.7370  0.3143
 3612TIP3    H210801   1.004   3.323   4.264  2.3589 -1.1250  0.0339
 3613TIP3   OH210802   6.529   3.445   3.897 -0.7044 -0.4199 -0.2224
 3613TIP3    H110803   6.536   3.366   3.951 -0.0909 -0.0854  0.1939
 3613TIP3    H210804   6.486   3.509   3.955  1.2059  0.3805  0.3899
 3614TIP3   OH210805   1.090   5.240   2.399  0.1388  0.0411  0.0365
 3614TIP3    H110806   1.054   5.296   2.329 -0.4774 -0.6500 -0.2087
 3614TIP3    H210807   1.180   5.272   2.410  0.2681  0.1381 -1.1061
 3615TIP3   OH210808   2.461   5.258   4.204  0.1430 -0.1981 -0.6951
 3615TIP3    H110809   2.556   5.249   4.210  0.0407 -1.5362 -0.8098
 3615TIP3    H210810   2.439   5.327   4.267  1.4598  2.3794 -2.8421
 3616TIP3   OH210811   1.544   4.490   1.622 -0.7046  0.3550  0.1829
 3616TIP3    H110812   1.534   4.574   1.578  0.6399  0.5279  0.1496
 3616TIP3    H210813   1.537   4.425   1.552 -2.3201  0.3798  0.2922
 3617TIP3   OH210814   7.066   1.556   5.793 -0.2820 -0.0538 -0.6090
 3617TIP3    H110815   7.037   1.476   5.836 -1.0403 -0.0711 -1.1338
 3617TIP3    H210816   7.011   1.563   5.715 -0.6638  1.3139 -0.2504
 3618TIP3   OH210817   1.101   4.197   0.393 -0.3486  0.7221  0.0489
 3618TIP3    H110818   1.174   4.182   0.333  0.2267  4.4656 -0.4488
 3618TIP3    H210819   1.066   4.110   0.411  2.5214 -0.9809 -1.8266
 3619TIP3   OH210820   5.325   4.872   5.797  0.3107 -0.3826 -0.6547
 3619TIP3    H110821   5.326   4.937   5.867  0.1087 -0.0761 -0.9369
 3619TIP3    H210822   5.376   4.798   5.832  0.0951 -0.2875 -0.1330
 3620TIP3   OH210823   4.171   1.078   5.589  0.1288 -0.2981  0.1256
 3620TIP3    H110824   4.185   1.038   5.674 -0.1825  0.4586  0.5474
 3620TIP3    H210825   4.101   1.026   5.549 -0.4176 -0.0610  0.7495
 3621TIP3   OH210826   3.411   4.834   2.107 -0.3370 -0.4881 -0.1166
 3621TIP3    H110827   3.329   4.877   2.081  0.4876  0.2681 -1.5641
 3621TIP3    H210828   3.469   4.905   2.131  0.6277 -0.8666 -1.2734
 3622TIP3   OH210829   4.318   4.896   3.335  0.1050  0.0084  0.2402
 3622TIP3    H110830   4.366   4.889   3.252  1.3072 -0.9315  0.9803
 3622TIP3    H210831   4.380   4.938   3.395  1.1185 -3.4959  1.9426
 3623TIP3   OH210832   1.888   3.130   4.496 -0.3762 -0.0053  0.7291
 3623TIP3    H110833   1.838   3.179   4.562  0.2115  2.1852 -0.3661
 3623TIP3    H210834   1.834   3.136   4.417  1.2934  2.0417 -0.3657
 3624TIP3   OH210835   0.613   6.441   3.349 -0.1097 -0.4187  0.4536
 3624TIP3    H110836   0.518   6.451   3.355 -0.2382 -0.0239 -1.4484
 3624TIP3    H210837   0.629   6.421   3.256  1.6198 -1.0578  0.8508
 3625TIP3   OH210838   7.023   5.096   1.301 -0.1797  0.4638 -0.4419
 3625TIP3    H110839   6.993   5.136   1.219 -0.5397  1.0122 -0.0510
 3625TIP3    H210840   6.946   5.049   1.334 -0.4109  1.2413  0.1777
 3626TIP3   OH210841   1.157   2.498   2.763  0.1560 -0.2195  0.0827
 3626TIP3    H110842   1.221   2.542   2.707 -1.5073  0.1817 -1.5807
 3626TIP3    H210843   1.144   2.413   2.722 -0.2357 -0.3627  0.4998
 3627TIP3   OH210844   5.485   4.242   5.107 -0.0142  0.3034  0.2780
 3627TIP3    H110845   5.532   4.209   5.030 -2.0246  0.4437 -1.0799
 3627TIP3    H210846   5.553   4.282   5.160  2.1684 -3.4041  0.6683
 3628TIP3   OH210847   6.595   4.236   4.177 -0.3691  0.2565  0.1711
 3628TIP3    H110848   6.611   4.300   4.109  1.5698 -0.1975  0.1275
 3628TIP3    H210849   6.667   4.248   4.239 -0.8392 -0.8206  0.9767
 3629TIP3   OH210850   3.460   3.414   5.635 -0.6660 -0.7159  0.2116
 3629TIP3    H110851   3.413   3.331   5.632 -1.0777 -0.4774 -1.1908
 3629TIP3    H210852   3.445   3.452   5.548 -1.1910  1.2046  1.0786
 3630TIP3   OH210853   5.029   4.848   5.596 -0.5732 -0.1742 -0.1585
 3630TIP3    H110854   4.992   4.824   5.681 -1.4933  1.2962 -0.1077
 3630TIP3    H210855   4.964   4.819   5.532 -0.3155 -0.4427 -0.3028
 3631TIP3   OH210856   5.602   4.971   4.447  0.4571 -0.0607 -0.3780
 3631TIP3    H110857   5.683   4.972   4.395 -0.1140 -0.1419 -1.2789
 3631TIP3    H210858   5.627   5.014   4.529  1.4704 -0.2643 -0.5571
 3632TIP3   OH210859   4.940   5.634   0.356  0.4139 -0.2480 -0.2848
 3632TIP3    H110860   4.986   5.708   0.316  1.9694 -1.1171 -0.1329
 3632TIP3    H210861   4.940   5.566   0.289 -0.4087 -0.3660 -0.1765
 3633TIP3   OH210862   1.622   2.768   0.301  0.3485  0.3013 -0.3082
 3633TIP3    H110863   1.533   2.789   0.273 -0.4588 -2.8417 -0.4339
 3633TIP3    H210864   1.639   2.829   0.373 -1.0904  2.2824 -1.5204
 3634TIP3   OH210865   5.998   0.647   1.419  0.4953  0.5308 -0.1602
 3634TIP3    H110866   5.945   0.725   1.402  0.8880  1.3263  2.0079
 3634TIP3    H210867   5.935   0.581   1.449  0.5657  1.2390  1.6745
 3635TIP3   OH210868   0.993   4.948   2.371  0.3640  0.2531  0.2480
 3635TIP3    H110869   0.972   4.916   2.459  2.0865  1.3608  1.1176
 3635TIP3    H210870   1.036   5.032   2.385  1.5422  0.0308 -1.5811
 3636TIP3   OH210871   0.212   5.851   5.323 -0.2445 -0.0309 -0.0304
 3636TIP3    H110872   0.228   5.813   5.409  1.2009  1.2811  0.3164
 3636TIP3    H210873   0.140   5.799   5.287  1.1499 -2.6103  0.6899
 3637TIP3   OH210874   2.496   0.980   0.968 -0.0701  0.5700  0.3892
 3637TIP3    H110875   2.541   1.036   1.031  1.2301 -0.7316  0.6811
 3637TIP3    H210876   2.566   0.947   0.911 -1.1572  1.3634 -1.4893
 3638TIP3   OH210877   5.286   5.499   5.509 -0.1714  0.1772  0.3390
 3638TIP3    H110878   5.215   5.438   5.492 -0.6937  1.0108 -0.5805
 3638TIP3    H210879   5.251   5.584   5.482  0.0520  1.1249  2.7804
 3639TIP3   OH210880   5.703   3.665   1.203  0.2515  0.3667  0.0222
 3639TIP3    H110881   5.694   3.570   1.211  0.4815  0.3331 -0.1110
 3639TIP3    H210882   5.740   3.693   1.286  0.0631  0.3550  0.1098
 3640TIP3   OH210883   5.285   4.259   1.964 -0.3036 -0.1920  0.2611
 3640TIP3    H110884   5.219   4.194   1.942 -3.1994  2.1484  1.3738
 3640TIP3    H210885   5.250   4.305   2.040  1.1817  3.1329 -0.8579
 3641TIP3   OH210886   0.030   4.983   1.817 -0.0793 -0.5798 -0.5949
 3641TIP3    H110887  -0.031   4.911   1.833  1.1090 -1.4736  0.0499
 3641TIP3    H210888   0.106   4.942   1.777  1.5938 -0.1008  1.8620
 3642TIP3   OH210889   0.209   4.135   5.686 -0.0886 -0.6676  0.1768
 3642TIP3    H110890   0.236   4.227   5.684 -0.8614 -0.4076 -2.7059
 3642TIP3    H210891   0.159   4.127   5.768 -0.7992  1.7183  0.0653
 3643TIP3   OH210892   0.174   5.011   0.471 -0.2356 -0.9003 -0.0641
 3643TIP3    H110893   0.150   5.018   0.563 -0.3347 -0.1660 -0.1455
 3643TIP3    H210894   0.117   4.942   0.436 -0.5304 -0.8445  0.3096
 3644TIP3   OH210895   7.051   3.509   1.286 -0.2050  0.0622  0.4586
 3644TIP3    H110896   7.094   3.440   1.336 -0.5288  1.7223  3.2300
 3644TIP3    H210897   7.024   3.573   1.352 -1.3047  2.0952 -1.8170
 3645TIP3   OH210898   3.235   3.124   3.227 -0.0056  0.3225  0.3100
 3645TIP3    H110899   3.211   3.036   3.197 -1.8542  0.6683  0.6491
 3645TIP3    H210900   3.265   3.168   3.147 -0.3277 -0.2177 -0.1238
 3646TIP3   OH210901   2.521   2.535   5.477  0.0271 -0.7670 -0.2701
 3646TIP3    H110902   2.600   2.532   5.423 -0.1764  0.9106 -0.7081
 3646TIP3    H210903   2.530   2.460   5.536  2.6401  0.1640  0.6502
 3647TIP3   OH210904   2.413   4.833   5.794  0.1071 -0.5220  0.3083
 3647TIP3    H110905   2.464   4.898   5.842  2.5358 -1.8080 -0.3762
 3647TIP3    H210906   2.322   4.850   5.819  0.7007  2.6623  0.6800
 3648TIP3   OH210907   3.656   0.646   5.571 -0.3035 -0.3153  0.2175
 3648TIP3    H110908   3.671   0.552   5.581 -1.6602 -0.7499 -1.4425
 3648TIP3    H210909   3.575   0.662   5.619  1.0240  0.4717  2.3236
 3649TIP3   OH210910   2.596   0.511   0.853  0.3253 -0.0710 -0.2502
 3649TIP3    H110911   2.665   0.445   0.862  0.3504 -0.3547 -2.1129
 3649TIP3    H210912   2.644   0.593   0.841  0.3022  0.0429  0.3853
 3650TIP3   OH210913   2.891   1.478   1.541  0.1062 -0.0427  0.0158
 3650TIP3    H110914   2.811   1.464   1.490  1.4372 -2.2089 -1.6840
 3650TIP3    H210915   2.957   1.501   1.475  1.1696  0.5364  1.2372
 3651TIP3   OH210916   3.108   0.718   5.617  0.1958  0.2825 -0.1866
 3651TIP3    H110917   3.037   0.706   5.554 -0.3475 -0.2417  0.5130
 3651TIP3    H210918   3.079   0.790   5.673  0.4357  0.3966 -0.2065
 3652TIP3   OH210919   6.185   1.002   5.315  0.3074  1.0290  0.1523
 3652TIP3    H110920   6.155   1.004   5.406 -0.3921  0.9903 -0.0748
 3652TIP3    H210921   6.164   1.089   5.281 -0.2510  0.7472 -0.2304
 3653TIP3   OH210922   2.903   3.104   4.959  0.1107  0.6479  0.3026
 3653TIP3    H110923   2.985   3.151   4.949 -0.5296  1.4584 -1.6870
 3653TIP3    H210924   2.841   3.171   4.989  0.2048 -0.0342  2.1467
 3654TIP3   OH210925   4.688   3.769   5.420  0.5246 -0.4320 -0.4173
 3654TIP3    H110926   4.607   3.812   5.448  0.7248 -0.8053  0.7910
 3654TIP3    H210927   4.717   3.819   5.344 -0.1294  0.5305 -0.0455
 3655TIP3   OH210928   0.096   2.785   5.527 -0.2342 -0.2667  0.6340
 3655TIP3    H110929   0.102   2.695   5.559  2.2081 -1.3457 -2.4264
 3655TIP3    H210930   0.010   2.790   5.485 -0.0746 -1.4530  0.1384
 3656TIP3   OH210931   4.287   6.499   5.231 -0.0606 -0.3475  0.1435
 3656TIP3    H110932   4.207   6.522   5.185 -0.1759 -0.5115  0.2591
 3656TIP3    H210933   4.336   6.444   5.170  0.2565  0.2693 -0.1675
 3657TIP3   OH210934   0.981   2.256   3.467  0.5138  0.1308 -0.0152
 3657TIP3    H110935   1.033   2.298   3.535 -0.3679 -0.3133  0.9600
 3657TIP3    H210936   0.998   2.163   3.477 -2.0970 -0.2655  1.8266
 3658TIP3   OH210937   2.261   6.403   1.717 -0.6435 -0.0171  0.3838
 3658TIP3    H110938   2.195   6.463   1.753  0.1801  0.9637  0.3093
 3658TIP3    H210939   2.342   6.454   1.717 -0.2906 -0.5122 -1.3956
 3659TIP3   OH210940   3.938   2.499   5.206  0.4647 -0.1593 -0.7000
 3659TIP3    H110941   3.966   2.575   5.156  1.1623 -0.1921 -0.3768
 3659TIP3    H210942   3.845   2.514   5.224  0.2562 -0.0427 -1.7925
 3660TIP3   OH210943   6.789   5.939   2.287  0.4078  0.0657  0.2250
 3660TIP3    H110944   6.781   6.018   2.339  1.7275  0.1033  0.3925
 3660TIP3    H210945   6.883   5.929   2.271  0.1784 -0.8956 -0.6702
 3661TIP3   OH210946   3.395   6.190   3.571  0.8090 -0.1483  0.0009
 3661TIP3    H110947   3.345   6.115   3.604  0.0106  1.0353  1.6141
 3661TIP3    H210948   3.481   6.183   3.612  0.8227 -0.3048 -0.0538
 3662TIP3   OH210949   2.855   4.171   2.628 -0.2997 -0.3397 -0.1595
 3662TIP3    H110950   2.785   4.127   2.677  0.0148 -1.7547 -0.9346
 3662TIP3    H210951   2.925   4.106   2.621  0.4760  0.5288 -0.7341
 3663TIP3   OH210952   0.421   1.408   2.353  0.2247  0.7980  0.1735
 3663TIP3    H110953   0.339   1.389   2.307  0.3399  0.1405  0.2302
 3663TIP3    H210954   0.417   1.502   2.370 -0.4065  0.8194 -0.0420
 3664TIP3   OH210955   3.259   1.445   2.229 -0.1479 -0.0358 -0.3059
 3664TIP3    H110956   3.168   1.422   2.211  0.3260 -1.0918 -1.5251
 3664TIP3    H210957   3.304   1.360   2.238  0.4235  0.4501  2.0214
 3665TIP3   OH210958   6.130   0.616   3.298  0.3501  0.3878  0.0693
 3665TIP3    H110959   6.128   0.598   3.204 -0.5854 -0.2668  0.1964
 3665TIP3    H210960   6.109   0.532   3.339 -0.1014  0.8601  0.8317
 3666TIP3   OH210961   4.345   2.560   1.142 -0.1221  0.1449 -0.2263
 3666TIP3    H110962   4.405   2.486   1.135  2.0584  1.8789 -0.8840
 3666TIP3    H210963   4.390   2.622   1.199 -1.7131  1.1700 -0.0172
 3667TIP3   OH210964   0.844   0.610   0.276 -0.2532  0.1741 -0.5566
 3667TIP3    H110965   0.866   0.693   0.235  0.9233  0.9776  1.5346
 3667TIP3    H210966   0.927   0.561   0.276 -0.7428 -0.6819 -1.0404
 3668TIP3   OH210967   7.135   5.757   1.363  0.1920  0.1982  0.3381
 3668TIP3    H110968   7.221   5.796   1.346  1.0265 -0.4107  2.8387
 3668TIP3    H210969   7.073   5.829   1.350  1.4199  1.6127  1.9026
 3669TIP3   OH210970   1.285   1.917   5.070  0.0931  0.0540  0.5438
 3669TIP3    H110971   1.376   1.894   5.056  0.4317  1.3884  0.4535
 3669TIP3    H210972   1.272   1.911   5.165  0.7090  1.3649  0.7249
 3670TIP3   OH210973   6.758   0.623   1.303 -0.2374  0.2463 -0.0735
 3670TIP3    H110974   6.782   0.680   1.376 -1.0636  0.4623  0.0340
 3670TIP3    H210975   6.807   0.657   1.228 -0.9718  1.3076 -0.0854
 3671TIP3   OH210976   1.259   0.834   2.270 -0.1999 -0.1788 -0.2687
 3671TIP3    H110977   1.334   0.885   2.301 -0.1120  0.1757 -1.0398
 3671TIP3    H210978   1.184   0.892   2.284 -0.2958 -0.3984  0.1726
 3672TIP3   OH210979   4.015   5.208   3.313 -0.6752 -0.1792  0.4775
 3672TIP3    H110980   4.093   5.264   3.324  1.2411 -2.1699 -1.7755
 3672TIP3    H210981   3.954   5.263   3.264  0.4100  0.5790 -0.0850
 3673TIP3   OH210982   3.579   0.466   0.603  0.2164 -0.3577  0.1414
 3673TIP3    H110983   3.641   0.453   0.674  1.3195 -0.3716 -0.8002
 3673TIP3    H210984   3.632   0.464   0.523 -0.7568  1.1467 -0.6111
 3674TIP3   OH210985   1.678   3.719   0.372 -0.1919  0.1521  0.0832
 3674TIP3    H110986   1.592   3.687   0.398 -0.2005 -0.1777 -0.3507
 3674TIP3    H210987   1.661   3.804   0.332 -0.0652  1.2821  2.2376
 3675TIP3   OH210988   3.138   6.510   3.808 -0.2971  0.2969  0.1505
 3675TIP3    H110989   3.163   6.599   3.829  0.4803  0.2018 -0.3457
 3675TIP3    H210990   3.200   6.455   3.856  0.6108  0.0641 -1.2289
 3676TIP3   OH210991   5.477   4.304   0.738  0.5938  0.0084 -0.0702
 3676TIP3    H110992   5.481   4.260   0.823 -1.4506 -0.3431 -0.0973
 3676TIP3    H210993   5.486   4.397   0.758  0.6506 -0.1106  0.4682
 3677TIP3   OH210994   0.683   2.894   1.568 -0.4234  0.5205  0.6844
 3677TIP3    H110995   0.664   2.958   1.637  0.2833  0.4710  0.9281
 3677TIP3    H210996   0.778   2.887   1.567 -0.4546  0.1325  0.0503
 3678TIP3   OH210997   3.805   0.760   1.140  0.3821  0.2416 -0.5468
 3678TIP3    H110998   3.799   0.808   1.058  0.4201  2.4699  0.6896
 3678TIP3    H210999   3.894   0.776   1.172 -0.3865  1.5086  1.1075
 3679TIP3   OH211000   7.142   2.334   4.802  0.1399  0.1792 -0.7735
 3679TIP3    H111001   7.156   2.264   4.866  1.5292  0.6777 -0.4912
 3679TIP3    H211002   7.064   2.379   4.832 -0.1032 -0.5437 -0.3016
 3680TIP3   OH211003   4.065   4.115   2.136 -0.7454  0.5306  0.4607
 3680TIP3    H111004   4.001   4.061   2.090  0.0872 -0.3561  0.3135
 3680TIP3    H211005   4.143   4.111   2.080 -0.9348  2.6407 -0.0251
 3681TIP3   OH211006   2.559   4.180   5.266  0.4358 -0.2103 -0.0018
 3681TIP3    H111007   2.624   4.121   5.228  1.3536 -0.2576  1.5601
 3681TIP3    H211008   2.506   4.123   5.323  0.5324  0.2366  0.5472
 3682TIP3   OH211009   5.831   0.358   4.816  0.3474  0.1340 -0.0509
 3682TIP3    H111010   5.804   0.316   4.898  0.2640 -0.0610 -0.1775
 3682TIP3    H211011   5.894   0.425   4.843 -0.4366  0.7561  0.2724
 3683TIP3   OH211012   4.360   2.103   3.803 -0.5037 -0.4224 -0.0025
 3683TIP3    H111013   4.362   2.169   3.872  1.0945  1.3054 -1.6116
 3683TIP3    H211014   4.297   2.136   3.739 -0.3042 -0.8885 -0.4483
 3684TIP3   OH211015   6.549   0.341   5.034 -0.7132  0.1762 -0.0263
 3684TIP3    H111016   6.644   0.331   5.022 -0.4301  1.3288  1.0225
 3684TIP3    H211017   6.524   0.413   4.977 -0.7625  0.5301  0.4311
 3685TIP3   OH211018   6.082   3.019   2.821  0.2251 -0.0360 -0.9950
 3685TIP3    H111019   6.000   3.065   2.802 -1.7607 -2.1923  1.3599
 3685TIP3    H211020   6.097   2.964   2.744  0.3979  1.5283 -2.1227
 3686TIP3   OH211021   1.715   4.130   5.172 -0.4252  0.0393  0.3082
 3686TIP3    H111022   1.750   4.041   5.182 -0.0170  0.0801 -0.6460
 3686TIP3    H211023   1.673   4.149   5.256 -1.1390 -1.3177  0.2765
 3687TIP3   OH211024   0.296   0.538   3.230  0.0038  0.1066 -0.2191
 3687TIP3    H111025   0.234   0.604   3.201  1.1214  0.5353 -1.7515
 3687TIP3    H211026   0.381   0.568   3.196  0.7862 -1.2929  0.4128
 3688TIP3   OH211027   3.993   3.744   3.854 -0.2055  0.0232  0.3196
 3688TIP3    H111028   4.070   3.727   3.800 -1.0989  0.4891 -1.1640
 3688TIP3    H211029   4.017   3.713   3.941  1.6671  0.1994 -0.0989
 3689TIP3   OH211030   1.845   3.305   2.354 -0.5507  0.4465 -0.2888
 3689TIP3    H111031   1.865   3.395   2.379 -0.1558  0.0707  0.7903
 3689TIP3    H211032   1.763   3.311   2.306 -0.3947  1.4127 -0.4506
 3690TIP3   OH211033   5.976   3.996   1.482  0.0137 -0.1410  0.1664
 3690TIP3    H111034   5.895   4.001   1.432 -0.1862 -0.5857  0.4392
 3690TIP3    H211035   6.000   4.088   1.498  1.2618  0.1104 -2.5734
 3691TIP3   OH211036   3.722   6.740   2.829 -0.0120 -0.3062  0.0990
 3691TIP3    H111037   3.653   6.686   2.867 -0.7690  1.2626  1.0691
 3691TIP3    H211038   3.697   6.752   2.737  0.6505 -2.2823 -0.3858
 3692TIP3   OH211039   2.954   6.728   1.378  0.0274  0.2211  0.2436
 3692TIP3    H111040   2.864   6.724   1.411 -0.1422  2.1329  0.1025
 3692TIP3    H211041   3.009   6.711   1.454 -0.4203  1.8399  0.9637
 3693TIP3   OH211042   0.941   5.325   5.118  0.1089  0.1178  0.1942
 3693TIP3    H111043   0.913   5.399   5.171  1.6841  0.1859  0.9697
 3693TIP3    H211044   0.867   5.309   5.059 -0.7012  1.5817  0.7601
 3694TIP3   OH211045   3.546   0.586   1.589  0.1368 -0.1042 -0.0072
 3694TIP3    H111046   3.491   0.531   1.533  0.3610 -0.1763 -0.1576
 3694TIP3    H211047   3.497   0.593   1.671 -1.3352  1.9169 -0.9647
 3695TIP3   OH211048   3.177   0.985   2.508 -0.4159 -0.3498 -0.0252
 3695TIP3    H111049   3.231   0.906   2.501 -0.3795 -0.4947  1.5185
 3695TIP3    H211050   3.181   1.008   2.601 -0.7980  1.2198 -0.3776
 3696TIP3   OH211051   7.046   5.935   2.522  0.1723 -0.3746  0.0064
 3696TIP3    H111052   7.074   5.927   2.431 -0.5759 -0.9470 -0.1822
 3696TIP3    H211053   7.052   5.847   2.557 -0.3159 -0.3061  0.2738
 3697TIP3   OH211054   2.722   3.487   2.588  0.5687 -0.3969  0.2642
 3697TIP3    H111055   2.718   3.467   2.682 -0.9881 -0.4233  0.2189
 3697TIP3    H211056   2.729   3.582   2.584 -1.8364 -0.1415  0.4417
 3698TIP3   OH211057   3.567   4.542   5.723 -0.3971  0.2026  0.0101
 3698TIP3    H111058   3.563   4.636   5.739 -1.6623  0.4593 -1.5909
 3698TIP3    H211059   3.498   4.525   5.659 -0.1584 -1.8144  0.2163
 3699TIP3   OH211060   3.426   6.190   0.998  0.0971 -0.4107  0.5554
 3699TIP3    H111061   3.446   6.281   1.021 -1.0986  0.2311 -0.7960
 3699TIP3    H211062   3.392   6.195   0.908  0.7053 -2.2916  0.1814
 3700TIP3   OH211063   3.226   3.386   1.879 -0.1380 -0.2434  0.8849
 3700TIP3    H111064   3.137   3.413   1.858 -0.3611 -1.4456  0.1829
 3700TIP3    H211065   3.274   3.468   1.891 -1.2353  0.4208  0.8494
 3701TIP3   OH211066   2.239   5.661   4.243 -0.0366 -0.2572  0.5623
 3701TIP3    H111067   2.273   5.687   4.157  1.7616 -1.0037  1.0072
 3701TIP3    H211068   2.161   5.715   4.255  1.2524  1.9349 -0.3172
 3702TIP3   OH211069   3.507   0.820   4.482  0.9442 -0.4339  0.3049
 3702TIP3    H111070   3.428   0.873   4.494  0.3602 -0.7783 -1.7331
 3702TIP3    H211071   3.518   0.775   4.566 -0.0655  0.8729  1.1816
 3703TIP3   OH211072   5.931   2.617   3.155 -0.9461  0.1357 -0.5495
 3703TIP3    H111073   5.841   2.591   3.175 -0.9509  1.7353  1.9157
 3703TIP3    H211074   5.922   2.684   3.087 -1.4138 -1.0480 -1.7110
 3704TIP3   OH211075   1.667   0.091   5.228  0.2356  0.0654 -0.4683
 3704TIP3    H111076   1.723   0.165   5.252 -0.8479  0.9130 -0.4972
 3704TIP3    H211077   1.643   0.051   5.311 -1.2385  1.3098 -0.2545
 3705TIP3   OH211078   4.464   5.840   3.823  0.0807  0.7291  0.0487
 3705TIP3    H111079   4.377   5.800   3.826  0.0271  0.5190 -2.5110
 3705TIP3    H211080   4.520   5.777   3.869 -0.4216 -1.2247 -1.8445
 3706TIP3   OH211081   6.797   0.063   4.764 -0.4687 -0.0431 -0.1738
 3706TIP3    H111082   6.715   0.077   4.812 -0.9687 -1.8726 -0.4149
 3706TIP3    H211083   6.861   0.042   4.832 -0.0475  1.8233  0.0576
 3707TIP3   OH211084   6.513   1.257   4.238 -0.2942 -0.2067  0.3591
 3707TIP3    H111085   6.596   1.267   4.192 -0.2648  1.2796  0.6816
 3707TIP3    H211086   6.448   1.242   4.169  0.0125  0.2100 -0.0239
 3708TIP3   OH211087   6.190   2.604   3.947 -0.1761 -0.1466 -0.3214
 3708TIP3    H111088   6.145   2.532   3.902  1.1189 -0.4341 -1.1854
 3708TIP3    H211089   6.194   2.575   4.039 -0.0393 -0.9845 -0.5864
 3709TIP3   OH211090   0.232   6.369   3.133 -0.4202  0.5102  0.4393
 3709TIP3    H111091   0.293   6.440   3.115 -0.3856  0.1531 -0.9361
 3709TIP3    H211092   0.149   6.413   3.150 -0.3925  0.8872 -0.3811
 3710TIP3   OH211093   4.683   6.696   5.461  0.2341  0.1171  0.3391
 3710TIP3    H111094   4.630   6.753   5.517  2.3760  0.4805  2.1850
 3710TIP3    H211095   4.762   6.748   5.444  0.2899 -0.6048 -1.8186
 3711TIP3   OH211096   5.665   6.610   3.314 -0.0922  0.2189  0.1087
 3711TIP3    H111097   5.684   6.526   3.356 -1.3393 -1.2907 -2.1465
 3711TIP3    H211098   5.597   6.649   3.369  2.3109  1.1502  2.7089
 3712TIP3   OH211099   5.792   0.902   2.729  0.1341 -0.0865 -0.2109
 3712TIP3    H111100   5.770   0.842   2.800 -1.0373  0.9959  0.3784
 3712TIP3    H211101   5.885   0.887   2.712  0.1544 -1.1571  0.7720
 3713TIP3   OH211102   6.269   4.020   3.492  0.0280  0.2245 -0.0480
 3713TIP3    H111103   6.213   3.987   3.562  0.7688  3.3627  2.2386
 3713TIP3    H211104   6.357   4.016   3.528  0.7033 -0.0377 -1.6543
 3714TIP3   OH211105   0.577   6.022   4.551 -0.0393  0.4527 -0.0752
 3714TIP3    H111106   0.572   5.939   4.598 -0.5587  0.0922 -0.7466
 3714TIP3    H211107   0.487   6.040   4.525  0.5818 -1.1909 -4.0115
 3715TIP3   OH211108   1.698   5.171   3.458  0.2023  0.2667 -1.1751
 3715TIP3    H111109   1.635   5.108   3.492 -1.2110  1.3653 -1.6726
 3715TIP3    H211110   1.772   5.118   3.429  1.1237 -0.8445  2.5898
 3716TIP3   OH211111   5.766   5.731   3.161  0.0490 -0.4177 -0.6846
 3716TIP3    H111112   5.855   5.720   3.193 -0.6092 -0.9989  1.0737
 3716TIP3    H211113   5.756   5.661   3.096  1.1512  0.2565 -1.6202
 3717TIP3   OH211114   2.758   3.694   0.734 -0.2867  0.1140 -0.2058
 3717TIP3    H111115   2.692   3.679   0.801 -2.0090 -0.4483 -1.9465
 3717TIP3    H211116   2.840   3.668   0.775 -1.2901 -0.3110  1.6217
 3718TIP3   OH211117   0.841   1.477   3.335 -0.1822  0.2318 -0.2940
 3718TIP3    H111118   0.756   1.445   3.367  0.2278  0.2087  0.8128
 3718TIP3    H211119   0.906   1.424   3.383  0.4665  0.7877 -0.5464
 3719TIP3   OH211120   2.623   2.580   1.737 -0.2189 -0.1970  0.4855
 3719TIP3    H111121   2.593   2.536   1.817  0.3397 -1.0602  0.2312
 3719TIP3    H211122   2.542   2.600   1.689 -0.4539 -2.5636 -0.2211
 3720TIP3   OH211123   1.208   1.383   4.198 -1.0670 -0.0654 -0.3015
 3720TIP3    H111124   1.198   1.288   4.191 -1.4000 -0.2245  1.7761
 3720TIP3    H211125   1.265   1.396   4.273  0.6911  1.3679 -1.7852
 3721TIP3   OH211126   5.871   1.626   1.727 -0.0295  0.2756 -0.2065
 3721TIP3    H111127   5.950   1.589   1.687  1.2216  1.3106  1.1984
 3721TIP3    H211128   5.856   1.707   1.679  0.0734  0.3537 -0.1044
 3722TIP3   OH211129   0.361   1.075   3.652 -0.0380  0.1079  0.1742
 3722TIP3    H111130   0.319   1.067   3.566 -0.9782 -0.1379  0.6544
 3722TIP3    H211131   0.450   1.043   3.637 -0.0818  0.3805 -0.7840
 3723TIP3   OH211132   0.334   5.000   4.020  0.3265 -0.2120 -0.1380
 3723TIP3    H111133   0.268   4.974   4.084 -0.7986  1.2929 -0.6289
 3723TIP3    H211134   0.413   4.953   4.046 -0.6606 -1.2576  1.0771
 3724TIP3   OH211135   1.230   2.271   1.584 -0.8049  0.0979  0.0562
 3724TIP3    H111136   1.264   2.185   1.610 -1.3667 -0.5188 -1.1703
 3724TIP3    H211137   1.214   2.316   1.667  2.5258  0.2746  0.7575
 3725TIP3   OH211138   6.986   4.526   1.585  0.0629  0.5969 -0.2049
 3725TIP3    H111139   6.961   4.450   1.638 -0.7938 -0.0845 -1.5106
 3725TIP3    H211140   6.963   4.602   1.638 -0.0825 -0.0575  0.6878
 3726TIP3   OH211141   3.895   4.357   1.642 -0.3039  0.3826 -0.2400
 3726TIP3    H111142   3.926   4.416   1.711  1.6820 -0.2304 -0.5588
 3726TIP3    H211143   3.971   4.302   1.621 -1.2149 -0.2537 -2.0623
 3727TIP3   OH211144   2.327   5.076   3.024  0.2061 -0.2265 -0.0828
 3727TIP3    H111145   2.413   5.079   2.984  0.2205 -2.7434 -0.4173
 3727TIP3    H211146   2.270   5.040   2.956 -0.7873  0.0131  0.5997
 3728TIP3   OH211147   4.701   2.667   4.462 -0.3400 -0.1011  1.2734
 3728TIP3    H111148   4.713   2.604   4.532  1.3502 -2.2076 -0.7399
 3728TIP3    H211149   4.631   2.629   4.408 -0.1963  0.4045  0.7206
 3729TIP3   OH211150   0.177   5.441   2.162  0.7336 -0.4692  0.5166
 3729TIP3    H111151   0.238   5.514   2.146  1.2834 -0.9911  0.1824
 3729TIP3    H211152   0.188   5.384   2.086 -1.7722  0.4775 -0.6650
 3730TIP3   OH211153   4.468   1.193   3.427 -0.3109  0.3411 -0.3229
 3730TIP3    H111154   4.427   1.106   3.428 -0.6414  0.4857  0.7819
 3730TIP3    H211155   4.537   1.187   3.361 -1.7191 -0.0927 -1.8386
 3731TIP3   OH211156   1.344   4.622   5.385  0.2802  0.4254 -0.6128
 3731TIP3    H111157   1.425   4.590   5.348 -0.2226  0.5253 -1.8641
 3731TIP3    H211158   1.354   4.612   5.480  1.0772 -1.1142 -0.8348
 3732TIP3   OH211159   5.020   0.525   3.295  0.3254 -0.3855 -0.0355
 3732TIP3    H111160   4.935   0.547   3.257  0.8789  0.0558 -1.0694
 3732TIP3    H211161   5.083   0.570   3.239  1.2536 -0.9133  0.5658
 3733TIP3   OH211162   6.469   4.100   1.441  0.2305  0.2471  0.1789
 3733TIP3    H111163   6.562   4.096   1.461  0.1400 -1.1967  0.4335
 3733TIP3    H211164   6.436   4.013   1.463 -1.4877  1.1945  1.5914
 3734TIP3   OH211165   5.089   5.035   3.348  0.4698 -0.3563  0.4351
 3734TIP3    H111166   5.125   5.083   3.274  1.4325 -1.3936  0.1934
 3734TIP3    H211167   4.994   5.042   3.338  0.5754  1.5828  0.5040
 3735TIP3   OH211168   5.369   1.380   5.210  0.2759  0.0368  0.2206
 3735TIP3    H111169   5.281   1.348   5.191 -0.2784  1.5936  0.0675
 3735TIP3    H211170   5.359   1.474   5.224  1.8069  0.1350  0.9378
 3736TIP3   OH211171   2.489   3.451   5.800 -0.0449  0.0263 -0.6038
 3736TIP3    H111172   2.448   3.459   5.886 -0.0195  1.3269 -0.6968
 3736TIP3    H211173   2.553   3.381   5.811 -0.0876  0.1240  0.4197
 3737TIP3   OH211174   0.070   2.962   4.555  0.6448  0.2075 -0.3745
 3737TIP3    H111175   0.072   2.981   4.649 -0.6851 -0.6059 -0.1417
 3737TIP3    H211176   0.152   2.917   4.537  1.4150  1.3712  0.1570
 3738TIP3   OH211177   3.134   3.195   1.111  0.0177  0.1300  0.0741
 3738TIP3    H111178   3.201   3.169   1.174  0.0130 -1.1786 -0.4203
 3738TIP3    H211179   3.102   3.112   1.075 -0.6154  0.8092 -0.9824
 3739TIP3   OH211180   7.053   3.706   5.589 -0.7906 -0.4600  0.8393
 3739TIP3    H111181   6.999   3.727   5.513  1.3012 -1.0500 -0.9092
 3739TIP3    H211182   7.103   3.786   5.606 -0.5903 -0.6130  0.9797
 3740TIP3   OH211183   0.235   0.558   5.162 -0.3660 -0.3794 -0.4195
 3740TIP3    H111184   0.300   0.497   5.197 -1.1575 -0.9717  0.0767
 3740TIP3    H211185   0.260   0.571   5.071  0.4651 -0.5660 -0.2228
 3741TIP3   OH211186   3.559   2.640   4.716 -0.1147 -0.3649 -0.5357
 3741TIP3    H111187   3.648   2.637   4.681 -1.1955 -0.1691 -3.6371
 3741TIP3    H211188   3.536   2.733   4.716  0.0870 -0.2768  1.5650
 3742TIP3   OH211189   1.529   0.769   5.859 -0.1997 -0.2957 -0.1235
 3742TIP3    H111190   1.611   0.777   5.810 -0.1383  0.4824  0.0881
 3742TIP3    H211191   1.461   0.777   5.793 -0.1065 -1.8046 -0.4165
 3743TIP3   OH211192   3.412   0.663   3.007 -0.4978 -0.6480 -0.3690
 3743TIP3    H111193   3.428   0.726   2.937  2.3766 -2.5503 -1.6351
 3743TIP3    H211194   3.365   0.591   2.964 -2.5162 -0.0634  0.7363
 3744TIP3   OH211195   3.894   2.056   4.628  0.1880 -0.1842  0.0824
 3744TIP3    H111196   3.871   2.127   4.569  0.9382 -0.1980 -0.2374
 3744TIP3    H211197   3.817   2.045   4.684 -0.1524  0.4835 -0.2479
 3745TIP3   OH211198   1.223   4.477   2.610 -0.3031  0.4386  0.3727
 3745TIP3    H111199   1.234   4.572   2.602 -1.3845  0.6274  0.8466
 3745TIP3    H211200   1.149   4.468   2.670 -1.6898 -0.6648 -1.3983
 3746TIP3   OH211201   6.330   1.084   1.731  0.6706  0.1214  0.4163
 3746TIP3    H111202   6.305   1.079   1.639 -3.2687  1.3401  1.2489
 3746TIP3    H211203   6.422   1.058   1.732  0.3719 -1.8422 -3.5808
 3747TIP3   OH211204   3.793   2.484   2.843 -0.6064 -0.1480 -0.1809
 3747TIP3    H111205   3.883   2.457   2.828 -0.2554  0.9163 -0.0936
 3747TIP3    H211206   3.755   2.493   2.756 -0.3425  0.3169 -0.2475
 3748TIP3   OH211207   3.367   2.256   1.620  0.2193  0.5461 -0.1939
 3748TIP3    H111208   3.417   2.184   1.658  0.7642  0.3200 -1.2898
 3748TIP3    H211209   3.433   2.320   1.592 -0.2704  1.6365  1.0405
 3749TIP3   OH211210   3.810   5.821   0.568  0.1037  0.1980  0.3683
 3749TIP3    H111211   3.820   5.902   0.618 -1.9764  0.7842 -0.0437
 3749TIP3    H211212   3.740   5.775   0.613  0.3774 -0.7617 -0.1739
 3750TIP3   OH211213   4.689   6.539   2.008  0.0618  0.2214 -0.1304
 3750TIP3    H111214   4.646   6.574   2.086 -0.6349 -1.1325  0.1368
 3750TIP3    H211215   4.780   6.525   2.035 -0.3408 -0.9236  0.7004
 3751TIP3   OH211216   2.135   3.383   4.139 -0.3899 -0.0162  0.4080
 3751TIP3    H111217   2.123   3.294   4.173  2.5786 -0.6084  0.1624
 3751TIP3    H211218   2.103   3.378   4.048 -0.8230 -0.6436  0.5871
 3752TIP3   OH211219   1.409   1.065   0.256 -0.0698 -0.1453 -0.1210
 3752TIP3    H111220   1.497   1.069   0.218  0.3265  1.7792  0.8976
 3752TIP3    H211221   1.360   1.133   0.211 -0.7870 -0.6030 -0.0449
 3753TIP3   OH211222   1.933   3.901   2.666  0.0420  0.6210 -0.0301
 3753TIP3    H111223   1.912   3.936   2.753  1.4173 -1.3512  1.1648
 3753TIP3    H211224   1.857   3.849   2.642  0.4604 -0.4898  0.9544
 3754TIP3   OH211225   0.225   0.034   1.164 -0.0647  0.2967  0.7488
 3754TIP3    H111226   0.154  -0.027   1.143 -0.5695  1.2683 -0.4947
 3754TIP3    H211227   0.302  -0.006   1.123 -0.3482  0.3606  0.1306
 3755TIP3   OH211228   2.636   0.214   1.480 -0.7102  0.1088 -0.1182
 3755TIP3    H111229   2.701   0.182   1.418 -1.6772 -1.9802 -0.1356
 3755TIP3    H211230   2.574   0.263   1.425 -0.5279 -0.0836 -0.5017
 3756TIP3   OH211231   6.324   3.318   3.114 -0.2532  0.2825 -0.2731
 3756TIP3    H111232   6.267   3.242   3.114 -0.7807  0.6335 -1.6468
 3756TIP3    H211233   6.373   3.312   3.195 -3.0499  0.5649  1.5795
 3757TIP3   OH211234   7.103   0.966   0.313 -0.2137  0.1964  0.2859
 3757TIP3    H111235   7.188   1.005   0.331  0.0699  0.0498 -0.6556
 3757TIP3    H211236   7.084   0.991   0.222 -2.0604  1.8673  1.0394
 3758TIP3   OH211237   6.461   5.711   4.933 -0.2047 -0.6040 -0.8082
 3758TIP3    H111238   6.395   5.764   4.977 -1.9691 -1.7841 -1.9145
 3758TIP3    H211239   6.429   5.621   4.940  2.3054 -1.5302  0.3344
 3759TIP3   OH211240   5.547   0.955   5.757 -0.4653  0.2051 -0.5005
 3759TIP3    H111241   5.539   0.941   5.852 -2.6281 -1.7370 -0.8653
 3759TIP3    H211242   5.591   0.876   5.725  1.1354  1.2798 -1.0621
 3760TIP3   OH211243   2.112   1.504   4.710 -0.5230 -0.1596  0.2939
 3760TIP3    H111244   2.122   1.507   4.615  3.7570 -0.2805  0.5199
 3760TIP3    H211245   2.106   1.596   4.737 -1.4257 -0.1140 -0.0212
 3761TIP3   OH211246   6.009   3.078   5.643 -0.3463 -0.0281  0.6470
 3761TIP3    H111247   5.990   3.106   5.732 -1.0974  0.8710  0.2238
 3761TIP3    H211248   6.080   3.015   5.652 -0.8102 -0.3923  1.9298
 3762TIP3   OH211249   6.451   1.152   5.689 -0.5448 -0.6334  0.3252
 3762TIP3    H111250   6.420   1.170   5.600  0.6234 -1.4922 -0.2865
 3762TIP3    H211251   6.547   1.154   5.682 -0.3796 -2.9862  1.0336
 3763TIP3   OH211252   3.548   3.020   5.023 -0.6610 -0.5898 -0.1324
 3763TIP3    H111253   3.608   2.971   5.080 -1.2612 -1.2450 -0.0464
 3763TIP3    H211254   3.589   3.017   4.937  0.2007  0.3096  0.2280
 3764TIP3   OH211255   6.603   0.703   2.667 -0.9375  0.2174 -0.4553
 3764TIP3    H111256   6.509   0.702   2.683 -0.8154  3.2499  0.9596
 3764TIP3    H211257   6.633   0.788   2.699  2.4796 -1.0471  0.1344
 3765TIP3   OH211258   2.103   5.301   3.163  0.4693 -0.1028  0.3044
 3765TIP3    H111259   2.019   5.268   3.133  0.9465  0.1019 -1.3657
 3765TIP3    H211260   2.110   5.271   3.253 -1.8025  0.7137  0.8075
 3766TIP3   OH211261   1.723   2.058   5.582  0.3752  0.1006  0.3963
 3766TIP3    H111262   1.679   2.056   5.667 -2.6171 -2.2714 -1.0230
 3766TIP3    H211263   1.683   2.131   5.536 -0.7538 -0.8227 -0.1662
 3767TIP3   OH211264   3.816   6.134   2.282  0.0634  0.4292 -0.2858
 3767TIP3    H111265   3.800   6.150   2.189  0.0363 -0.2058 -0.3972
 3767TIP3    H211266   3.831   6.220   2.319  0.3120  0.6692 -0.9279
 3768TIP3   OH211267   1.308   3.757   1.537  0.4938  0.0228  0.1242
 3768TIP3    H111268   1.249   3.761   1.612 -0.0549 -0.8887 -0.2428
 3768TIP3    H211269   1.379   3.817   1.559  0.4261 -0.3472  1.4399
 3769TIP3   OH211270   2.164   4.028   0.857 -0.2857  0.1466 -0.0324
 3769TIP3    H111271   2.173   4.123   0.853 -1.9607  0.3496  0.2453
 3769TIP3    H211272   2.158   4.009   0.950 -1.0239 -0.1085 -0.1308
 3770TIP3   OH211273   5.608   5.905   1.496 -0.2361 -0.2200  0.1744
 3770TIP3    H111274   5.533   5.935   1.548 -0.6924 -2.4657  0.9164
 3770TIP3    H211275   5.651   5.986   1.469 -1.3572  1.0960  2.0208
 3771TIP3   OH211276   4.852   3.223   1.418  0.1323  0.2683 -0.2594
 3771TIP3    H111277   4.913   3.173   1.473 -0.0531 -0.5862 -0.8081
 3771TIP3    H211278   4.769   3.176   1.426  0.3481 -0.5254 -2.0861
 3772TIP3   OH211279   5.050   6.484   3.534 -0.6073  0.3156 -0.1330
 3772TIP3    H111280   5.111   6.410   3.543  0.1164  0.8895 -0.2533
 3772TIP3    H211281   5.103   6.561   3.550 -1.2839  0.8381 -0.3583
 3773TIP3   OH211282   6.733   0.444   4.441 -0.1256 -0.1164 -0.2063
 3773TIP3    H111283   6.761   0.523   4.487 -1.9435 -0.7013  2.1162
 3773TIP3    H211284   6.789   0.374   4.477 -0.4316 -0.3186 -0.1193
 3774TIP3   OH211285   0.326   3.449   3.073 -0.0932  0.0632  0.2200
 3774TIP3    H111286   0.393   3.506   3.033  0.8362 -1.0233  0.1678
 3774TIP3    H211287   0.243   3.493   3.055  0.6467  1.8576  0.9592
 3775TIP3   OH211288   1.298   2.949   3.427  0.4883 -0.1102  0.5218
 3775TIP3    H111289   1.209   2.950   3.463 -0.2330  0.6331 -1.1751
 3775TIP3    H211290   1.325   2.857   3.433 -0.2757 -0.2999  1.2923
 3776TIP3   OH211291   4.689   5.804   4.873  0.1273  0.1712  0.2212
 3776TIP3    H111292   4.704   5.860   4.950 -1.2803 -0.5060  1.0200
 3776TIP3    H211293   4.606   5.834   4.837  0.8770  0.6347 -1.2216
 3777TIP3   OH211294   2.666   3.291   5.369 -0.2626 -0.4825  0.2008
 3777TIP3    H111295   2.604   3.262   5.436  0.4560 -1.5017  0.4385
 3777TIP3    H211296   2.611   3.324   5.298 -1.0406  0.6491  1.2914
 3778TIP3   OH211297   5.198   6.164   5.737 -0.3211  0.1716 -0.6390
 3778TIP3    H111298   5.225   6.255   5.727  1.1744 -0.2008 -0.2809
 3778TIP3    H211299   5.127   6.167   5.802  1.7510  0.8373  1.7830
 3779TIP3   OH211300   2.932   4.660   3.571 -0.6384  0.4515 -1.0343
 3779TIP3    H111301   2.901   4.571   3.588 -1.5197  0.8538 -0.4936
 3779TIP3    H211302   3.027   4.652   3.570 -0.7075 -0.5782 -1.4658
 3780TIP3   OH211303   6.112   2.207   4.135  0.2679 -0.1980 -0.3974
 3780TIP3    H111304   6.057   2.159   4.073 -0.6299  0.3789 -0.0688
 3780TIP3    H211305   6.202   2.188   4.107  0.0403 -3.3080  0.6171
 3781TIP3   OH211306   5.329   2.367   5.303 -0.5875 -0.5329 -0.1190
 3781TIP3    H111307   5.349   2.314   5.226 -0.8150  0.6890 -1.0499
 3781TIP3    H211308   5.393   2.339   5.369  0.6473 -0.5094 -1.2632
 3782TIP3   OH211309   6.705   0.698   3.971  0.5523  0.4343 -0.2889
 3782TIP3    H111310   6.674   0.771   4.024 -1.9247 -0.0551 -0.9372
 3782TIP3    H211311   6.739   0.635   4.034  0.2533  1.0381  0.4835
 3783TIP3   OH211312   6.618   4.926   5.595 -0.1797 -0.1169 -0.0962
 3783TIP3    H111313   6.578   4.853   5.549  0.2548 -0.1814 -0.3733
 3783TIP3    H211314   6.696   4.889   5.637 -0.6425 -0.0969  0.8205
 3784TIP3   OH211315   0.620   5.050   2.263  0.1362  0.4058 -0.7956
 3784TIP3    H111316   0.691   5.097   2.218 -0.6633  1.0329 -1.4384
 3784TIP3    H211317   0.559   5.026   2.193 -0.1042 -0.4700 -0.3001
 3785TIP3   OH211318   2.409   1.414   1.543 -0.3597 -0.3491 -0.6776
 3785TIP3    H111319   2.385   1.498   1.503  1.0513 -0.8634 -2.7475
 3785TIP3    H211320   2.504   1.414   1.546 -0.2150 -2.5489 -2.4092
 3786TIP3   OH211321   4.586   5.071   2.901 -0.7448 -0.3063 -0.4447
 3786TIP3    H111322   4.516   5.015   2.867 -0.0511 -0.6755 -1.3020
 3786TIP3    H211323   4.664   5.042   2.854 -0.2780  1.0554 -0.5466
 3787TIP3   OH211324   2.737   1.686   4.463  0.5779  0.3084 -0.2325
 3787TIP3    H111325   2.746   1.737   4.543 -0.0681 -1.5432  1.0925
 3787TIP3    H211326   2.744   1.595   4.492  2.2781 -0.4029 -2.5585
 3788TIP3   OH211327   2.510   5.606   2.642  0.4030  0.9120 -0.4477
 3788TIP3    H111328   2.531   5.696   2.617  1.1921  0.7825 -0.2923
 3788TIP3    H211329   2.514   5.607   2.738  0.1783  0.7674 -0.4369
 3789TIP3   OH211330   6.047   5.866   4.027  0.1639 -0.2610  0.4328
 3789TIP3    H111331   6.014   5.797   3.970  0.0156 -0.0912  0.3119
 3789TIP3    H211332   6.031   5.834   4.116 -3.0391  1.0201  0.4475
 3790TIP3   OH211333   1.455   2.860   5.160  0.1903 -0.2585 -0.4051
 3790TIP3    H111334   1.394   2.791   5.186  1.4234 -1.4171 -0.4557
 3790TIP3    H211335   1.526   2.854   5.225 -0.5729  2.2795  0.7682
 3791TIP3   OH211336   0.991   1.958   0.971 -0.0566  0.7913 -0.0699
 3791TIP3    H111337   0.951   1.939   1.055  1.1134 -1.0803  0.1195
 3791TIP3    H211338   0.964   2.048   0.951 -1.2755  0.8724  1.7402
 3792TIP3   OH211339   5.624   1.903   1.668 -0.6423  0.1031  0.1688
 3792TIP3    H111340   5.667   1.866   1.591 -0.1302  1.9560 -0.4746
 3792TIP3    H211341   5.530   1.895   1.650 -0.5393 -0.4963 -0.1276
 3793TIP3   OH211342   1.550   1.773   5.065 -0.0930  0.1054 -0.2182
 3793TIP3    H111343   1.628   1.748   5.115  0.0089  1.3870  0.3086
 3793TIP3    H211344   1.569   1.746   4.975  0.5445 -0.4613  0.0771
 3794TIP3   OH211345   2.900   1.120   1.039 -0.1326 -0.0894 -0.3449
 3794TIP3    H111346   2.913   1.025   1.042  0.7905 -0.3328 -5.0297
 3794TIP3    H211347   2.977   1.156   1.084  0.7499 -1.5533 -0.6240
 3795TIP3   OH211348   2.576   4.690   3.166 -0.7732 -0.6367 -0.2487
 3795TIP3    H111349   2.486   4.715   3.188 -0.4288 -0.0865  0.5699
 3795TIP3    H211350   2.597   4.743   3.089 -0.9313 -0.2890 -0.0551
 3796TIP3   OH211351   1.528   2.747   4.599 -0.0521 -0.1295 -0.3355
 3796TIP3    H111352   1.470   2.807   4.645 -0.1898 -0.2369 -0.3674
 3796TIP3    H211353   1.582   2.708   4.667 -0.1623 -0.1872 -0.2807
 3797TIP3   OH211354   0.605   3.000   4.697 -0.3530  0.0934  0.4675
 3797TIP3    H111355   0.626   2.942   4.770  0.6039 -1.1811 -0.7531
 3797TIP3    H211356   0.678   3.062   4.694  0.0239 -0.3605  0.1138
 3798TIP3   OH211357   4.544   1.161   2.763 -0.3261  0.3246  0.3151
 3798TIP3    H111358   4.608   1.097   2.733 -0.2757  0.5005  0.0350
 3798TIP3    H211359   4.467   1.109   2.788  0.6482 -0.0779  2.6949
 3799TIP3   OH211360   6.702   1.382   5.059  0.0721 -0.3100 -0.1375
 3799TIP3    H111361   6.636   1.334   5.010  2.1193 -2.0225 -1.3786
 3799TIP3    H211362   6.722   1.458   5.004 -2.3865  1.5557  1.3229
 3800TIP3   OH211363   6.789   1.556   4.871  0.0394 -0.4574  0.5762
 3800TIP3    H111364   6.854   1.626   4.881 -0.3619 -0.1210  0.9070
 3800TIP3    H211365   6.765   1.557   4.778  0.5157 -0.5955  0.4505
 3801TIP3   OH211366   6.759   5.126   2.984  0.3722 -0.2842  0.5372
 3801TIP3    H111367   6.832   5.172   2.942  0.8153 -0.5721  0.9850
 3801TIP3    H211368   6.753   5.164   3.071  0.3093 -0.6097  0.6779
 3802TIP3   OH211369   3.630   3.290   5.475 -0.1240  0.1221  0.0376
 3802TIP3    H111370   3.665   3.355   5.414  1.6262 -0.1007  0.7700
 3802TIP3    H211371   3.619   3.338   5.557 -0.8341 -0.0061  0.0270
 3803TIP3   OH211372   5.092   0.137   5.566 -0.7453  0.3137 -0.1768
 3803TIP3    H111373   5.064   0.130   5.475 -0.3221  2.1038 -0.4927
 3803TIP3    H211374   5.113   0.230   5.577  0.7454 -0.1494  1.2979
 3804TIP3   OH211375   3.182   6.384   3.558 -0.0729 -0.1017 -0.1136
 3804TIP3    H111376   3.202   6.446   3.628 -1.0304 -0.2745  0.3324
 3804TIP3    H211377   3.244   6.313   3.571  1.2313  0.8681 -0.8032
 3805TIP3   OH211378   4.134   2.458   1.282  0.2228 -0.1259 -0.1617
 3805TIP3    H111379   4.206   2.502   1.237 -1.6508  2.2690 -0.9754
 3805TIP3    H211380   4.169   2.439   1.370  2.0215  0.4029 -0.7274
 3806TIP3   OH211381   3.110   5.110   3.959  1.0076  0.2747  0.4243
 3806TIP3    H111382   3.162   5.109   3.879 -1.0186  0.4534 -0.9888
 3806TIP3    H211383   3.032   5.160   3.936  0.1640 -0.0144  2.4068
 3807TIP3   OH211384   3.143   2.435   2.180 -0.3105 -0.0257  0.0909
 3807TIP3    H111385   3.123   2.408   2.090 -1.2939 -1.3331  0.6751
 3807TIP3    H211386   3.219   2.384   2.205  0.5419  1.0147 -0.2820
 3808TIP3   OH211387   5.744   6.431   5.873  0.0798 -0.0164  0.8691
 3808TIP3    H111388   5.698   6.511   5.847  0.0766  0.3538  1.9340
 3808TIP3    H211389   5.814   6.421   5.809 -1.3616 -0.4984 -0.6831
 3809TIP3   OH211390   0.993   5.703   5.002 -0.0185  0.1769 -0.4362
 3809TIP3    H111391   1.014   5.656   4.921 -2.1762  0.2539 -1.0908
 3809TIP3    H211392   0.944   5.780   4.973 -0.9699  0.1182  0.9319
 3810TIP3   OH211393   5.229   4.663   3.377  0.5716  0.4280  0.0219
 3810TIP3    H111394   5.285   4.726   3.332  0.4138  0.2133 -0.4791
 3810TIP3    H211395   5.144   4.671   3.332  0.6988 -0.5274 -0.3931
 3811TIP3   OH211396   5.922   1.933   1.018 -0.0820 -0.0862 -0.2948
 3811TIP3    H111397   5.892   2.024   1.011  0.8991  0.2948  0.3394
 3811TIP3    H211398   5.880   1.900   1.097 -2.3207 -0.9570 -1.7392
 3812TIP3   OH211399   4.664   4.217   0.579  0.5000 -0.4195  0.5676
 3812TIP3    H111400   4.574   4.220   0.610  0.1131 -3.1669 -0.0522
 3812TIP3    H211401   4.701   4.302   0.604 -2.6927  1.4893 -0.6042
 3813TIP3   OH211402   2.636   4.207   4.342  0.1008 -0.1641 -0.0490
 3813TIP3    H111403   2.694   4.140   4.378 -0.2102 -1.8446 -2.4997
 3813TIP3    H211404   2.554   4.162   4.325 -0.7511  1.3121 -0.0614
 3814TIP3   OH211405   0.497   1.666   3.299 -1.0106 -0.9440  0.0611
 3814TIP3    H111406   0.498   1.574   3.326 -1.0990 -0.7057  0.8723
 3814TIP3    H211407   0.558   1.710   3.358 -2.8295 -0.0310  1.3507
 3815TIP3   OH211408   4.712   3.846   5.863  0.2850 -0.6311 -0.1217
 3815TIP3    H111409   4.764   3.869   5.786  2.4911  1.3174  1.8104
 3815TIP3    H211410   4.751   3.765   5.896 -0.3119 -1.1648 -0.6857
 3816TIP3   OH211411   6.683   6.063   1.991  0.2822 -0.2130 -0.5818
 3816TIP3    H111412   6.772   6.099   1.990 -0.0409  0.8030  1.2325
 3816TIP3    H211413   6.678   6.015   2.074 -0.4191 -1.4975 -1.3494
 3817TIP3   OH211414   6.310   4.223   5.569 -0.1263  0.4212 -0.4193
 3817TIP3    H111415   6.291   4.144   5.519 -0.2727 -0.8186  1.4814
 3817TIP3    H211416   6.349   4.283   5.505 -1.5721 -0.5256 -2.2822
 3818TIP3   OH211417   7.241   2.169   0.452 -0.2656  0.7031  0.2400
 3818TIP3    H111418   7.165   2.123   0.416 -1.6696  2.0748  1.3077
 3818TIP3    H211419   7.233   2.157   0.547  2.0329 -0.8385  0.3285
 3819TIP3   OH211420   2.056   3.572   0.563 -0.2158 -0.8135  0.4015
 3819TIP3    H111421   2.120   3.620   0.615 -1.0891  1.0912 -0.2058
 3819TIP3    H211422   1.974   3.620   0.574 -0.6363 -0.8321 -1.9620
 3820TIP3   OH211423   4.154   5.024   2.021 -0.2089 -0.1129  0.6483
 3820TIP3    H111424   4.129   5.108   2.060 -1.2128  0.3269 -0.8363
 3820TIP3    H211425   4.215   5.048   1.952  1.0312 -0.8147  1.4738
 3821TIP3   OH211426   3.501   3.676   4.180 -0.3150  0.3482 -0.1368
 3821TIP3    H111427   3.567   3.737   4.148  1.0117 -0.1721  1.4881
 3821TIP3    H211428   3.418   3.723   4.169  0.4049  1.3847 -1.3586
 3822TIP3   OH211429   3.298   6.708   4.885 -0.1894 -0.5959  0.2035
 3822TIP3    H111430   3.296   6.752   4.799 -1.2703  0.2746  0.6359
 3822TIP3    H211431   3.333   6.621   4.867 -0.0709 -0.3088 -1.0703
 3823TIP3   OH211432   5.802   0.526   3.416 -0.1732 -0.0445  0.3754
 3823TIP3    H111433   5.805   0.561   3.505  1.8850  0.9965 -0.0474
 3823TIP3    H211434   5.771   0.436   3.428 -0.9493  0.3906  2.0113
 3824TIP3   OH211435   4.712   1.777   0.024  0.0916 -0.5073  0.2242
 3824TIP3    H111436   4.689   1.722  -0.050  0.4587  0.0886 -0.3444
 3824TIP3    H211437   4.732   1.716   0.094  0.0629 -1.0860 -0.2662
 3825TIP3   OH211438   1.748   0.559   2.893 -0.3607 -0.1086 -0.3255
 3825TIP3    H111439   1.721   0.643   2.856 -2.1443 -1.0427 -1.3116
 3825TIP3    H211440   1.720   0.563   2.985  2.2670  1.4474  0.5239
 3826TIP3   OH211441   1.208   3.758   0.743  0.1064  0.2099 -0.1836
 3826TIP3    H111442   1.218   3.741   0.837  0.1050 -2.0804 -0.5309
 3826TIP3    H211443   1.276   3.822   0.722 -0.1493  1.0699  1.4250
 3827TIP3   OH211444   6.732   4.430   2.781 -0.0679 -0.4913 -0.2396
 3827TIP3    H111445   6.770   4.393   2.701 -0.9098  1.7672 -1.7900
 3827TIP3    H211446   6.664   4.368   2.806 -1.0156 -0.4144 -2.3678
 3828TIP3   OH211447   2.103   4.149   3.036  0.0814 -0.4719  0.1962
 3828TIP3    H111448   2.173   4.127   2.973 -0.6123 -0.2078 -0.6887
 3828TIP3    H211449   2.094   4.070   3.089 -1.3194 -1.8645 -1.9475
 3829TIP3   OH211450   4.639   0.256   4.219  0.3377 -0.2331 -0.0528
 3829TIP3    H111451   4.599   0.187   4.271  2.8916  0.9926  4.0281
 3829TIP3    H211452   4.725   0.222   4.195  0.8922  0.8285  0.3663
 3830TIP3   OH211453   4.376   6.182   3.034 -0.4660 -0.1949  0.7395
 3830TIP3    H111454   4.365   6.245   2.963  2.1127 -1.2547 -0.7442
 3830TIP3    H211455   4.457   6.210   3.078 -0.0343 -1.6623  0.9285
 3831TIP3   OH211456   5.939   0.244   0.505  0.2159  0.2136  0.1074
 3831TIP3    H111457   5.941   0.332   0.466 -0.8114 -0.8896 -2.6510
 3831TIP3    H211458   6.028   0.210   0.492  0.6795  0.8402  1.3723
 3832TIP3   OH211459   0.912   5.477   4.535 -0.0259 -0.7912 -0.0662
 3832TIP3    H111460   0.876   5.545   4.478  0.2078 -0.3961  0.2583
 3832TIP3    H211461   0.960   5.419   4.476  0.4742 -0.2104 -0.2322
 3833TIP3   OH211462   7.003   0.733   0.214  0.4002  0.3467 -0.4341
 3833TIP3    H111463   7.041   0.799   0.272  0.1761 -0.3395  0.5345
 3833TIP3    H211464   7.068   0.662   0.212 -0.4528 -0.5140  0.6446
 3834TIP3   OH211465   5.830   3.817   0.505 -0.0670  0.3666  0.0624
 3834TIP3    H111466   5.870   3.903   0.519 -2.0391  1.3643 -0.1383
 3834TIP3    H211467   5.809   3.786   0.593 -0.9838  0.9177  0.0456
 3835TIP3   OH211468   4.203   5.873   0.699 -0.3855  0.1359 -0.4083
 3835TIP3    H111469   4.227   5.803   0.759  1.7807  0.6422 -0.5746
 3835TIP3    H211470   4.181   5.947   0.755 -2.2385 -0.4880 -0.2412
 3836TIP3   OH211471   0.134   2.354   2.583  0.0332  0.0640  0.3106
 3836TIP3    H111472   0.230   2.357   2.582  0.0303  2.8116  0.3951
 3836TIP3    H211473   0.109   2.393   2.667 -1.1698 -0.1548  0.0791
 3837TIP3   OH211474   6.411   5.530   1.779 -0.2964 -0.0467  0.2475
 3837TIP3    H111475   6.403   5.506   1.686  1.6220 -0.2705  0.1019
 3837TIP3    H211476   6.323   5.557   1.804 -1.0814 -0.9486 -1.3676
 3838TIP3   OH211477   0.311   0.754   3.462 -0.2256  0.4405 -0.1497
 3838TIP3    H111478   0.384   0.732   3.519  0.3440  1.7676 -0.3201
 3838TIP3    H211479   0.351   0.801   3.389 -0.6970 -2.6250 -2.5859
 3839TIP3   OH211480   6.917   1.767   4.238  0.2913  0.5333  0.8223
 3839TIP3    H111481   6.888   1.675   4.233  0.0325  0.6679 -1.1140
 3839TIP3    H211482   6.840   1.817   4.213  1.4772  1.0185 -2.3079
 3840TIP3   OH211483   6.784   5.734   5.323  0.1190  0.0550 -0.4399
 3840TIP3    H111484   6.695   5.734   5.289  0.2140 -0.7736 -0.7094
 3840TIP3    H211485   6.831   5.672   5.268  0.5143 -0.5896  0.5827
 3841TIP3   OH211486   3.359   4.081   3.598 -0.4119 -0.0927 -0.0205
 3841TIP3    H111487   3.379   4.165   3.557 -0.2919 -0.1006  0.0195
 3841TIP3    H211488   3.422   4.075   3.670  1.6505 -1.5642 -1.7966
 3842TIP3   OH211489   0.803   5.216   2.139  0.0247 -0.1836  0.2806
 3842TIP3    H111490   0.799   5.311   2.132 -2.0733 -0.2072  0.4953
 3842TIP3    H211491   0.882   5.191   2.090 -0.0880  1.5657 -0.8576
 3843TIP3   OH211492   4.002   5.460   5.597 -0.3046  0.1129 -0.4265
 3843TIP3    H111493   4.080   5.443   5.651 -0.0676 -0.1263 -0.8373
 3843TIP3    H211494   3.929   5.450   5.657 -0.1988 -2.4318 -0.6124
 3844TIP3   OH211495   6.784   0.535   4.197  0.0394 -0.0630  0.3407
 3844TIP3    H111496   6.760   0.458   4.145 -0.7414  1.1696 -1.2301
 3844TIP3    H211497   6.750   0.517   4.284 -1.2139 -1.0050 -0.3088
 3845TIP3   OH211498   2.863   1.385   2.824  0.6619 -0.0527 -0.4262
 3845TIP3    H111499   2.845   1.317   2.889 -1.6792  0.3945 -0.5177
 3845TIP3    H211500   2.956   1.404   2.834  0.7033 -1.1032  1.6981
 3846TIP3   OH211501   5.927   5.914   2.994 -0.2406 -0.0880 -0.0565
 3846TIP3    H111502   5.835   5.917   3.022 -0.4684  0.1893 -0.7860
 3846TIP3    H211503   5.943   5.822   2.975 -0.3217 -0.1627  0.2421
 3847TIP3   OH211504   1.052   5.050   0.051 -0.6035 -0.1263  0.0693
 3847TIP3    H111505   1.144   5.023   0.051 -0.6188 -0.2609  1.2957
 3847TIP3    H211506   1.024   5.039  -0.039 -0.0824 -2.5008  0.1181
 3848TIP3   OH211507   1.880   2.109   0.588  0.7708 -0.3516  0.1878
 3848TIP3    H111508   1.863   2.037   0.649 -0.6456 -0.7847 -0.6671
 3848TIP3    H211509   1.808   2.171   0.604  0.5146 -0.3564 -0.8538
 3849TIP3   OH211510   3.061   2.451   2.799 -0.4065 -0.8787  0.5884
 3849TIP3    H111511   3.009   2.373   2.819 -2.1486 -0.2656 -1.2347
 3849TIP3    H211512   3.121   2.460   2.874 -1.3096 -2.9753  1.6413
 3850TIP3   OH211513   7.078   2.932   5.083  0.0713 -0.1737  0.2033
 3850TIP3    H111514   7.100   2.958   5.173 -0.9222  1.6563 -0.0225
 3850TIP3    H211515   7.116   3.001   5.028 -0.0701 -0.8037 -0.7132
 3851TIP3   OH211516   5.786   2.556   5.099 -0.1833  0.0960 -0.1881
 3851TIP3    H111517   5.796   2.648   5.073  1.8534  0.5114  1.8210
 3851TIP3    H211518   5.851   2.509   5.047  0.0979  0.0879  0.1705
 3852TIP3   OH211519   4.368   0.018   0.346 -0.3795 -0.2808  0.2539
 3852TIP3    H111520   4.347   0.026   0.253 -1.6607  0.2153  0.5722
 3852TIP3    H211521   4.461   0.042   0.351 -0.4259  0.1852 -0.8185
 3853TIP3   OH211522   5.162   3.475   4.363  0.1799 -0.0453 -0.3274
 3853TIP3    H111523   5.226   3.491   4.294 -1.1594  1.3456 -1.3283
 3853TIP3    H211524   5.124   3.561   4.381 -1.4259 -0.8128  0.1872
 3854TIP3   OH211525   0.231   6.007   3.384  0.6581 -0.5160 -0.2597
 3854TIP3    H111526   0.322   6.037   3.376  1.0168 -1.7432 -1.1763
 3854TIP3    H211527   0.199   6.048   3.464  2.1791 -0.4414  0.3549
 3855TIP3   OH211528   5.398   0.028   0.709  0.0068 -0.8068  0.2035
 3855TIP3    H111529   5.459   0.096   0.679 -0.5788 -0.6798 -0.7372
 3855TIP3    H211530   5.311   0.066   0.697 -0.2997 -1.4202  0.4265
 3856TIP3   OH211531   3.721   2.328   1.310 -0.0275 -0.1833 -0.8020
 3856TIP3    H111532   3.747   2.303   1.398  0.2192 -1.1956 -1.1539
 3856TIP3    H211533   3.767   2.267   1.252 -1.5109 -0.6536 -1.5502
 3857TIP3   OH211534   3.674   5.238   1.369 -0.3919 -0.2444 -0.0989
 3857TIP3    H111535   3.611   5.292   1.321  0.6912  1.1925  0.0287
 3857TIP3    H211536   3.621   5.190   1.432 -1.5360 -0.2766 -1.0385
 3858TIP3   OH211537   4.816   2.885   5.325  0.4918 -0.2681 -0.0578
 3858TIP3    H111538   4.863   2.925   5.252  0.3204 -0.2529 -0.1614
 3858TIP3    H211539   4.881   2.829   5.368  0.4264 -0.7992 -0.6267
 3859TIP3   OH211540   7.061   3.039   0.761 -0.9320 -0.6499  0.0211
 3859TIP3    H111541   7.060   3.087   0.844 -0.1060 -1.0576  0.2714
 3859TIP3    H211542   6.979   3.065   0.718 -0.8420  0.4359  0.4585
 3860TIP3   OH211543   3.020   4.856   3.886 -0.2212 -0.4654 -0.5001
 3860TIP3    H111544   3.041   4.804   3.964 -1.6084  1.0855  1.0103
 3860TIP3    H211545   3.057   4.943   3.905 -1.8200  0.3376 -0.8777
 3861TIP3   OH211546   3.120   1.261   1.496 -0.4609  0.1664  0.1815
 3861TIP3    H111547   3.184   1.260   1.567 -1.8745  0.7422  1.4969
 3861TIP3    H211548   3.103   1.354   1.480 -3.5743  0.1018  2.3347
 3862TIP3   OH211549   5.934   4.073   5.784  0.1364  0.5795  0.0529
 3862TIP3    H111550   5.876   4.039   5.852  1.0875  1.1147  1.1549
 3862TIP3    H211551   5.996   4.130   5.831 -0.2749  2.3944 -1.4786
 3863TIP3   OH211552   4.976   2.752   4.965  0.0160  0.0305 -0.0325
 3863TIP3    H111553   5.038   2.733   4.895 -0.4312 -0.9881 -0.1518
 3863TIP3    H211554   5.032   2.764   5.043  0.5118  1.2053 -0.5440
 3864TIP3   OH211555   5.466   4.275   4.519  0.4405 -0.3598 -0.2021
 3864TIP3    H111556   5.548   4.297   4.473  0.3514  0.0240 -0.1793
 3864TIP3    H211557   5.446   4.353   4.571 -0.3327 -0.1692 -0.7682
 3865TIP3   OH211558   2.694   2.951   1.982  0.0352  0.1828  0.4682
 3865TIP3    H111559   2.611   2.994   1.960  0.0853  0.1690  0.2562
 3865TIP3    H211560   2.670   2.887   2.049  0.1289  1.2602  1.5755
 3866TIP3   OH211561   2.625  -0.005   0.920  0.0161  0.2588  0.0099
 3866TIP3    H111562   2.694  -0.019   0.984  0.0792 -0.4250 -0.1972
 3866TIP3    H211563   2.569   0.061   0.959  0.8293  0.8764  0.1437
 3867TIP3   OH211564   7.151   1.015   1.427 -0.0341 -0.0650  0.5139
 3867TIP3    H111565   7.090   1.062   1.484 -1.1415  0.1309 -0.7953
 3867TIP3    H211566   7.237   1.033   1.464 -0.6841  0.4721  1.8144
 3868TIP3   OH211567   2.662   1.883   3.290 -0.2583 -0.1837  0.4871
 3868TIP3    H111568   2.680   1.808   3.233 -1.7714 -0.3341  0.1619
 3868TIP3    H211569   2.659   1.958   3.231  1.1192  0.1563  0.7958
 3869TIP3   OH211570   3.038   0.974   3.040  0.1719  0.3137  0.0827
 3869TIP3    H111571   3.043   0.951   3.132  0.4697  2.2614  0.5963
 3869TIP3    H211572   2.946   0.959   3.016  0.1995 -0.6431  0.5475
 3870TIP3   OH211573   2.509   3.366   0.268  0.4084 -0.4991 -0.2440
 3870TIP3    H111574   2.422   3.404   0.279  0.2741 -0.3094 -1.6874
 3870TIP3    H211575   2.511   3.292   0.329 -1.5981 -1.8383 -1.6585
 3871TIP3   OH211576   6.451   4.398   0.995 -0.0112 -0.0912 -0.1832
 3871TIP3    H111577   6.506   4.336   0.949 -1.2301 -0.4494 -1.2263
 3871TIP3    H211578   6.468   4.382   1.088  0.1266 -1.5782 -0.4478
 3872TIP3   OH211579   3.135   5.855   0.894  0.2322 -0.3727  0.4298
 3872TIP3    H111580   3.203   5.789   0.911  1.9830  1.3131  0.3611
 3872TIP3    H211581   3.165   5.932   0.942 -0.6785  0.9955 -1.1080
 3873TIP3   OH211582   1.501   1.085   2.058  0.4324 -0.4280 -1.0290
 3873TIP3    H111583   1.578   1.102   2.003  1.1741  0.5655  0.2737
 3873TIP3    H211584   1.529   1.015   2.117  0.4868  0.2071 -0.2892
 3874TIP3   OH211585   0.285   1.171   2.203  0.1606 -0.2258 -0.1952
 3874TIP3    H111586   0.282   1.266   2.190 -1.3546  0.1859  2.4953
 3874TIP3    H211587   0.307   1.160   2.295  1.8872 -2.5809 -0.7897
 3875TIP3   OH211588   5.323   6.283   2.859  0.2346 -0.4713 -0.3791
 3875TIP3    H111589   5.336   6.361   2.913 -0.8368 -0.5420  0.0029
 3875TIP3    H211590   5.309   6.212   2.921 -0.5464 -0.6419 -0.7320
 3876TIP3   OH211591   5.497   0.639   2.888 -0.2537 -0.1260 -0.3979
 3876TIP3    H111592   5.453   0.713   2.848  2.0023  0.4875 -1.9419
 3876TIP3    H211593   5.536   0.591   2.815  1.2661 -0.8305  0.8004
 3877TIP3   OH211594   4.427   1.700   2.829 -0.1508  0.0713 -0.2212
 3877TIP3    H111595   4.496   1.738   2.774  0.5598  1.8919  1.7813
 3877TIP3    H211596   4.439   1.605   2.819  0.7784  0.3295 -2.1270
 3878TIP3   OH211597   4.955   3.787   2.407  0.1165  0.0643  0.1394
 3878TIP3    H111598   5.024   3.809   2.345  0.0179 -0.5593 -0.2044
 3878TIP3    H211599   4.884   3.753   2.352 -0.7553  1.3753  0.4154
 3879TIP3   OH211600   0.357   4.799   2.497 -0.5207 -0.6418  0.0239
 3879TIP3    H111601   0.428   4.741   2.470  2.1293  2.7803 -1.0586
 3879TIP3    H211602   0.377   4.822   2.587 -0.9221 -0.5550  0.0920
 3880TIP3   OH211603   4.206   6.749   2.814 -0.4206  0.0100 -0.3597
 3880TIP3    H111604   4.275   6.691   2.780  0.8128  0.2919  1.5420
 3880TIP3    H211605   4.226   6.834   2.775  1.0225  0.3460  1.0066
 3881TIP3   OH211606   1.963   6.050   0.443 -0.1163 -0.3175  0.1818
 3881TIP3    H111607   1.930   6.031   0.531 -1.5082  0.8877 -0.0409
 3881TIP3    H211608   1.888   6.086   0.396  0.4684 -1.3723 -1.6777
 3882TIP3   OH211609   6.094   3.385   2.331 -0.2522 -0.2060 -0.2688
 3882TIP3    H111610   6.022   3.446   2.314  1.4325  1.7638 -0.6452
 3882TIP3    H211611   6.156   3.400   2.259  2.1653  0.7525  1.8709
 3883TIP3   OH211612   0.537   1.859   4.413 -0.9570 -0.2089  0.0187
 3883TIP3    H111613   0.505   1.949   4.400  0.1048  0.1621 -0.0846
 3883TIP3    H211614   0.609   1.868   4.475 -0.4609 -0.9288 -0.4424
 3884TIP3   OH211615   2.929   3.233   3.258  0.0972  0.1314 -0.0975
 3884TIP3    H111616   2.846   3.277   3.278 -1.2577 -0.5638 -3.5004
 3884TIP3    H211617   2.994   3.303   3.263 -0.8373  0.9478  1.5364
 3885TIP3   OH211618   5.173   0.768   0.338 -0.6794  0.4027 -0.3508
 3885TIP3    H111619   5.146   0.837   0.398 -1.1042 -0.0450 -0.0278
 3885TIP3    H211620   5.111   0.696   0.352 -0.2993 -0.0162 -0.7456
 3886TIP3   OH211621   2.876   0.090   0.744  0.6392  0.6057  0.0502
 3886TIP3    H111622   2.935   0.026   0.783 -0.6229 -0.3142  0.5351
 3886TIP3    H211623   2.790   0.069   0.781  0.1688  2.5829  0.2122
 3887TIP3   OH211624   1.558   2.573   1.061 -0.1037  0.3818 -0.1214
 3887TIP3    H111625   1.652   2.561   1.047 -0.2373 -0.9406  0.0305
 3887TIP3    H211626   1.538   2.520   1.138 -0.9480  0.7943 -0.0484
 3888TIP3   OH211627   5.597   5.225   4.928 -0.1055  0.3986  0.1974
 3888TIP3    H111628   5.647   5.297   4.968 -0.5253 -0.0007  1.4918
 3888TIP3    H211629   5.605   5.153   4.989 -1.3372 -0.0306 -0.1095
 3889TIP3   OH211630   3.421   0.456   1.091  0.4605 -0.2553  0.2775
 3889TIP3    H111631   3.495   0.446   1.150  2.2189 -0.4583 -1.8575
 3889TIP3    H211632   3.429   0.545   1.057 -0.8979  0.0857  0.7628
 3890TIP3   OH211633   3.113   1.257   1.149 -0.3612 -0.2879 -0.1319
 3890TIP3    H111634   3.206   1.280   1.146 -0.5407  0.6499  1.1184
 3890TIP3    H211635   3.067   1.339   1.134 -0.9908 -0.0803  2.5194
 3891TIP3   OH211636   7.039   2.615   4.455 -0.2687 -0.4676  0.2747
 3891TIP3    H111637   6.996   2.568   4.384  0.6236  0.3851 -0.8771
 3891TIP3    H211638   7.096   2.678   4.411 -1.1175  1.4255  1.7493
 3892TIP3   OH211639   3.385   4.293   2.971  0.2311 -0.1283 -0.4990
 3892TIP3    H111640   3.346   4.380   2.974  0.1176 -0.2054  0.6728
 3892TIP3    H211641   3.428   4.283   3.056  2.7191 -0.1105 -1.6807
 3893TIP3   OH211642   0.791   4.684   1.643  0.6199  0.2214  0.1595
 3893TIP3    H111643   0.882   4.703   1.620  0.6646  0.7232  0.7089
 3893TIP3    H211644   0.783   4.712   1.735 -0.0880  0.1878  0.1163
 3894TIP3   OH211645   2.238   1.290   4.348 -0.0359 -0.4560 -0.3526
 3894TIP3    H111646   2.218   1.290   4.254 -1.0948 -0.4066 -0.1352
 3894TIP3    H211647   2.285   1.208   4.362 -0.8051 -0.9804 -0.7443
 3895TIP3   OH211648   4.792   4.296   4.879  0.0241  0.4452 -0.0253
 3895TIP3    H111649   4.842   4.370   4.914  0.6458 -0.1325  0.3274
 3895TIP3    H211650   4.711   4.296   4.929 -0.8289  2.0528 -1.3362
 3896TIP3   OH211651   6.260   5.466   2.116  0.2814 -0.2679  0.3627
 3896TIP3    H111652   6.264   5.386   2.063  0.9332 -0.0564  0.0882
 3896TIP3    H211653   6.268   5.435   2.207  3.5589 -0.3498  0.1744
 3897TIP3   OH211654   2.908   6.684   0.321  0.1445 -0.5565  0.3210
 3897TIP3    H111655   2.961   6.764   0.319  3.7567 -2.6963  0.3670
 3897TIP3    H211656   2.925   6.646   0.407 -2.5519 -0.8151  0.8100
 3898TIP3   OH211657   1.261   2.141   2.935 -0.4402 -0.1689 -0.1238
 3898TIP3    H111658   1.279   2.087   3.012 -0.5139  0.6046  0.4450
 3898TIP3    H211659   1.185   2.194   2.959 -0.0915  0.5173 -0.4984
 3899TIP3   OH211660   2.838   1.264   5.550  0.0796  0.0896  0.4653
 3899TIP3    H111661   2.827   1.343   5.497  2.7500  0.1866 -0.0777
 3899TIP3    H211662   2.918   1.280   5.600  0.5544 -2.1563  0.5097
 3900TIP3   OH211663   1.317   3.724   2.098  0.2834 -0.4443 -0.2175
 3900TIP3    H111664   1.313   3.806   2.048 -0.0576 -0.1379  0.3015
 3900TIP3    H211665   1.240   3.727   2.155  1.4577 -0.0710  1.4119
 3901TIP3   OH211666   5.325   3.828   3.656 -0.0762 -0.1543  0.1537
 3901TIP3    H111667   5.269   3.802   3.729  1.7236 -3.2134  0.6190
 3901TIP3    H211668   5.328   3.751   3.599  1.6528  0.7680 -1.1223
 3902TIP3   OH211669   6.544   6.607   0.078  0.0850 -0.2560  0.0420
 3902TIP3    H111670   6.612   6.561   0.030 -0.9068  0.0324 -1.7014
 3902TIP3    H211671   6.591   6.658   0.144  1.6899  0.9841 -1.9720
 3903TIP3   OH211672   6.988   5.462   3.246  0.5757 -0.4258 -0.2396
 3903TIP3    H111673   7.028   5.527   3.188  1.2170  0.4479  1.1412
 3903TIP3    H211674   7.057   5.438   3.308  0.7483 -3.3559 -1.3735
 3904TIP3   OH211675   2.544   2.757   1.127  0.2787 -0.1172  0.0520
 3904TIP3    H111676   2.595   2.692   1.175 -2.3738 -3.0704 -0.8619
 3904TIP3    H211677   2.609   2.809   1.080  2.5121 -2.4686  0.3784
 3905TIP3   OH211678   6.766   1.368   0.886 -0.1222  0.4262 -0.0610
 3905TIP3    H111679   6.692   1.417   0.849 -1.5176 -1.1625  0.5273
 3905TIP3    H211680   6.815   1.339   0.809 -1.4843 -0.5431 -0.6136
 3906TIP3   OH211681   6.038   2.917   1.677 -0.6951  1.0769 -0.0475
 3906TIP3    H111682   6.105   2.972   1.719 -0.5752  2.7689 -2.2431
 3906TIP3    H211683   5.967   2.978   1.656 -1.9413 -0.2492  0.1945
 3907TIP3   OH211684   2.268   6.063   0.570 -0.3950  0.1151 -0.0304
 3907TIP3    H111685   2.214   6.001   0.520 -1.0636 -0.7123  1.6702
 3907TIP3    H211686   2.226   6.148   0.556 -1.4711 -0.3457  0.3348
 3908TIP3   OH211687   6.994   0.935   3.683  0.4419 -0.2840  0.2394
 3908TIP3    H111688   7.018   0.935   3.590 -2.9673 -0.1377 -0.7594
 3908TIP3    H211689   7.074   0.908   3.728  2.3743  0.1482 -2.6588
 3909TIP3   OH211690   0.493   0.061   4.282 -1.2204 -0.5165 -0.1290
 3909TIP3    H111691   0.464  -0.019   4.238  1.1068 -1.1362 -0.6687
 3909TIP3    H211692   0.513   0.122   4.211 -1.2787 -0.0825  0.2193
 3910TIP3   OH211693   6.307   5.232   0.616  0.3741 -0.3579  0.1120
 3910TIP3    H111694   6.214   5.244   0.638  1.0229 -1.7720  4.6513
 3910TIP3    H211695   6.349   5.312   0.644  0.8817 -1.0763  1.5091
 3911TIP3   OH211696   1.900   1.452   5.148 -0.1231 -0.6991 -0.0649
 3911TIP3    H111697   1.925   1.364   5.176 -1.3124 -1.0343  0.0181
 3911TIP3    H211698   1.945   1.465   5.064  0.8612 -0.9799  0.4118
 3912TIP3   OH211699   2.362   2.015   2.636 -0.3825  0.2561 -0.3717
 3912TIP3    H111700   2.457   2.004   2.639 -0.2907  0.7448 -1.1273
 3912TIP3    H211701   2.348   2.082   2.569 -1.3038 -0.4280 -0.8944
 3913TIP3   OH211702   2.489   1.077   0.320 -0.6178  0.2833 -0.1926
 3913TIP3    H111703   2.531   1.039   0.243 -2.5895 -0.4988 -0.9464
 3913TIP3    H211704   2.561   1.101   0.378  0.8458 -0.5828 -1.5970
 3914TIP3   OH211705   6.382   2.791   0.275  0.1454  0.3681 -0.2835
 3914TIP3    H111706   6.310   2.827   0.326  1.2518 -0.2799  1.8603
 3914TIP3    H211707   6.448   2.861   0.275  0.5146  0.0197 -0.0392
 3915TIP3   OH211708   4.413   4.883   0.067 -0.6131  0.7491  0.5018
 3915TIP3    H111709   4.366   4.958   0.030  1.0291  1.3585 -0.4454
 3915TIP3    H211710   4.495   4.920   0.101  1.0445 -0.7779 -1.5647
 3916TIP3   OH211711   5.735   3.523   1.624 -0.1408  0.3504 -0.1161
 3916TIP3    H111712   5.724   3.569   1.707 -1.4319 -0.4457  0.1830
 3916TIP3    H211713   5.710   3.588   1.558  1.6760  1.2534  0.0191
 3917TIP3   OH211714   3.534   3.205   1.349 -0.0695  0.0557  0.0118
 3917TIP3    H111715   3.584   3.209   1.268 -0.7081  0.0050 -0.3963
 3917TIP3    H211716   3.543   3.292   1.387  0.3206  0.0483 -0.0629
 3918TIP3   OH211717   5.458   2.243   5.518  0.4503  0.2100  0.0742
 3918TIP3    H111718   5.553   2.241   5.528  0.7145 -0.8776 -2.0787
 3918TIP3    H211719   5.436   2.157   5.481 -1.3514  0.5079  0.3726
 3919TIP3   OH211720   4.929   5.100   1.378  0.7022 -0.5660 -0.0125
 3919TIP3    H111721   4.882   5.110   1.461  1.6763 -0.3410  0.5265
 3919TIP3    H211722   5.016   5.137   1.395 -0.1580  2.8957 -2.1745
 3920TIP3   OH211723   4.506   2.588   1.574  0.7318 -0.0657 -0.1450
 3920TIP3    H111724   4.467   2.675   1.574  1.5659  0.3281 -1.2627
 3920TIP3    H211725   4.468   2.545   1.651  0.6071  1.4133  0.6583
 3921TIP3   OH211726   5.906   5.940   2.026  0.4271  0.0742 -0.1586
 3921TIP3    H111727   5.996   5.973   2.018  0.4702 -0.4164 -2.5215
 3921TIP3    H211728   5.892   5.889   1.946 -1.3348 -1.4666  1.0456
 3922TIP3   OH211729   1.600   4.089   2.983 -0.0817 -0.3767 -0.0387
 3922TIP3    H111730   1.534   4.021   2.999  0.4293 -0.7896  0.3472
 3922TIP3    H211731   1.564   4.167   3.026 -1.3186 -0.0123 -1.6551
 3923TIP3   OH211732   6.531   2.240   0.207 -0.0969  0.3280 -0.1016
 3923TIP3    H111733   6.555   2.332   0.214 -1.6451  0.6964  0.6963
 3923TIP3    H211734   6.485   2.232   0.124 -2.3832  0.9064  1.0233
 3924TIP3   OH211735   5.799   3.004   2.638 -0.0839  0.0313 -0.5450
 3924TIP3    H111736   5.746   3.061   2.694  0.4121  0.5648 -0.6151
 3924TIP3    H211737   5.757   3.009   2.553 -0.2825 -0.0337 -0.4520
 3925TIP3   OH211738   4.051   4.113   4.450 -0.3487  0.1518  0.2054
 3925TIP3    H111739   4.042   4.203   4.419  0.4056  0.0814 -0.2510
 3925TIP3    H211740   4.053   4.060   4.371  1.1226 -0.0734  0.3648
 3926TIP3   OH211741   1.233   5.185   4.211  0.2474  0.6236 -0.0889
 3926TIP3    H111742   1.266   5.176   4.122 -0.3816  1.6419 -0.4412
 3926TIP3    H211743   1.293   5.133   4.264 -0.0126 -0.9228 -1.2363
 3927TIP3   OH211744   1.361   5.829   0.327  0.3023 -0.3090 -0.1406
 3927TIP3    H111745   1.420   5.812   0.400  2.2698  2.0294 -1.0432
 3927TIP3    H211746   1.384   5.764   0.261 -1.8870 -2.8229  1.3651
 3928TIP3   OH211747   1.598   3.840   4.898  0.4646 -0.1244  0.0265
 3928TIP3    H111748   1.518   3.845   4.950  0.3422  0.3923 -0.2070
 3928TIP3    H211749   1.601   3.922   4.849  0.0800 -0.9605 -1.4909
 3929TIP3   OH211750   3.580   2.468   3.314  0.3093  0.1454  0.0788
 3929TIP3    H111751   3.511   2.529   3.342  0.4094  0.4294 -0.2811
 3929TIP3    H211752   3.646   2.524   3.272  0.3769 -0.2173 -0.3044
 3930TIP3   OH211753   5.416   3.222   4.316 -0.2394  0.3171 -0.6659
 3930TIP3    H111754   5.486   3.231   4.251 -0.0613  1.8927 -0.3012
 3930TIP3    H211755   5.440   3.282   4.386 -0.2361 -1.6197  1.0703
 3931TIP3   OH211756   1.775   1.367   0.292  0.2291 -0.2607  0.3060
 3931TIP3    H111757   1.802   1.459   0.297  1.0441 -0.4046 -1.1207
 3931TIP3    H211758   1.682   1.369   0.313  0.3899  0.7807  1.0437
 3932TIP3   OH211759   0.276   4.514   1.280  0.1932 -0.4519  0.4531
 3932TIP3    H111760   0.265   4.609   1.287  2.1697 -0.2410  1.4589
 3932TIP3    H211761   0.247   4.481   1.365  2.9714 -0.2902  1.5712
 3933TIP3   OH211762   4.927   4.741   2.206  0.1027  0.3892  0.8686
 3933TIP3    H111763   5.000   4.717   2.262 -2.6930 -0.6022  4.4012
 3933TIP3    H211764   4.881   4.810   2.254 -1.1458  1.2584 -1.4023
 3934TIP3   OH211765   3.109   6.203   4.191 -0.3341 -0.2488 -0.1932
 3934TIP3    H111766   3.110   6.277   4.131 -0.1951 -0.7198 -0.7769
 3934TIP3    H211767   3.161   6.232   4.266 -1.7354  0.8841  0.3856
 3935TIP3   OH211768   4.132   6.646   3.327  0.0975 -0.2891  0.2063
 3935TIP3    H111769   4.195   6.578   3.301 -0.0401 -0.6260  0.7357
 3935TIP3    H211770   4.101   6.682   3.244 -2.9770 -3.7342 -0.4361
 3936TIP3   OH211771   1.533   1.810   2.529  0.7648 -0.2228 -0.1338
 3936TIP3    H111772   1.571   1.895   2.507  0.0332 -0.3640 -2.1092
 3936TIP3    H211773   1.554   1.754   2.455 -1.8316 -0.7538 -0.5717
 3937TIP3   OH211774   4.363   5.572   5.047  0.7242  0.1447 -0.1873
 3937TIP3    H111775   4.346   5.489   5.091  0.4202  0.1470 -0.3017
 3937TIP3    H211776   4.456   5.589   5.064  0.6647  0.0314  0.2545
 3938TIP3   OH211777   6.574   0.253   0.692  0.1413  0.0842 -0.1974
 3938TIP3    H111778   6.585   0.327   0.753  0.7100 -1.1499  1.2712
 3938TIP3    H211779   6.657   0.206   0.697 -1.0540 -2.0531  0.8533
 3939TIP3   OH211780   3.612   1.757   0.063 -0.2003  0.0700 -0.4391
 3939TIP3    H111781   3.567   1.770  -0.021 -0.8594  0.3206 -0.0610
 3939TIP3    H211782   3.668   1.834   0.072  2.3854 -1.4759 -2.1483
 3940TIP3   OH211783   1.090   2.979   2.467  0.4195 -0.4378  0.1710
 3940TIP3    H111784   1.006   2.958   2.426  0.8606 -2.3976  0.1546
 3940TIP3    H211785   1.076   2.965   2.560  1.0018 -1.9869  0.0605
 3941TIP3   OH211786   0.716   2.224   0.426 -0.0231  0.6761 -0.1252
 3941TIP3    H111787   0.683   2.183   0.346 -0.8182  0.4900  0.2967
 3941TIP3    H211788   0.638   2.244   0.477  0.4263  1.5746  0.2342
 3942TIP3   OH211789   1.441   1.281   4.804 -0.6296 -0.0605  0.1785
 3942TIP3    H111790   1.388   1.243   4.874  0.6297  0.9413  1.7467
 3942TIP3    H211791   1.425   1.375   4.809  0.3579  0.1414 -0.0961
 3943TIP3   OH211792   5.018   2.842   4.074 -0.8084 -0.1631  0.3458
 3943TIP3    H111793   5.110   2.853   4.054 -0.8639 -0.8085 -0.3128
 3943TIP3    H211794   5.010   2.750   4.101 -1.2751 -0.1533  0.2632
 3944TIP3   OH211795   5.019   4.707   4.131  0.1577 -0.0446  0.1457
 3944TIP3    H111796   4.959   4.632   4.127  0.6846 -0.4090 -1.8976
 3944TIP3    H211797   5.106   4.668   4.127  0.4377  0.6511 -2.1932
 3945TIP3   OH211798   1.319   3.546   3.089  0.8043 -0.1879  0.0423
 3945TIP3    H111799   1.316   3.468   3.034  1.9109 -0.1788 -0.0643
 3945TIP3    H211800   1.354   3.515   3.173 -0.3576 -0.1040  0.5717
 3946TIP3   OH211801   4.652   2.034   4.115  0.3379  0.2393  0.8539
 3946TIP3    H111802   4.731   1.981   4.122  0.1966 -0.0821  0.0802
 3946TIP3    H211803   4.680   2.122   4.143  1.4569  0.5774 -1.1376
 3947TIP3   OH211804   2.444   0.762   4.033 -0.0119 -0.0923  0.6963
 3947TIP3    H111805   2.494   0.703   4.089 -0.5995 -0.2288  1.0760
 3947TIP3    H211806   2.431   0.841   4.086  1.8917  0.9477 -0.2446
 3948TIP3   OH211807   2.116   0.568   2.999 -0.2624 -0.0436 -0.5466
 3948TIP3    H111808   2.154   0.591   2.914  1.7585  0.1649  0.3494
 3948TIP3    H211809   2.187   0.582   3.061 -1.6513 -0.3261  1.1766
 3949TIP3   OH211810   3.205   4.967   2.390  0.0003  0.4274  0.3659
 3949TIP3    H111811   3.225   5.032   2.457 -0.5955  1.6315 -0.5733
 3949TIP3    H211812   3.250   4.888   2.419 -0.2396  0.9025  2.1573
 3950TIP3   OH211813   4.389   2.138   0.793 -0.7024  0.3058 -0.0398
 3950TIP3    H111814   4.333   2.075   0.749 -1.0933  1.6062 -1.4520
 3950TIP3    H211815   4.469   2.140   0.741 -0.3116  0.3196  0.5401
 3951TIP3   OH211816   4.127   0.877   0.671  0.1784 -0.3226  0.5416
 3951TIP3    H111817   4.208   0.909   0.631 -1.5450  1.4807 -1.8531
 3951TIP3    H211818   4.155   0.833   0.751  3.3874  1.4783  0.5842
 3952TIP3   OH211819   6.524   0.105   5.405 -0.4962 -0.4467  0.5166
 3952TIP3    H111820   6.590   0.047   5.366  0.3846  0.9277 -0.1313
 3952TIP3    H211821   6.466   0.047   5.453  1.0699 -1.7323  0.9322
 3953TIP3   OH211822   5.806   5.112   0.663 -0.2601  0.0517 -0.7273
 3953TIP3    H111823   5.756   5.151   0.734 -0.2793 -1.0458 -0.1265
 3953TIP3    H211824   5.798   5.175   0.591 -0.0853  1.2692  0.2806
 3954TIP3   OH211825   4.123   0.270   3.121 -0.4560 -0.0742  0.1005
 3954TIP3    H111826   4.150   0.195   3.173  0.0187  0.4590  0.6458
 3954TIP3    H211827   4.037   0.294   3.156 -0.4560 -0.1541  0.1549
 3955TIP3   OH211828   4.623   2.250   3.612  0.3785 -0.1735 -0.4934
 3955TIP3    H111829   4.660   2.229   3.526  0.2236 -0.2690 -0.5386
 3955TIP3    H211830   4.632   2.170   3.663 -1.5124 -0.8502 -1.1226
 3956TIP3   OH211831   3.069   2.799   0.217 -0.4607  0.2797  0.3342
 3956TIP3    H111832   3.163   2.801   0.197 -0.5905  1.9205 -0.2667
 3956TIP3    H211833   3.063   2.748   0.298  1.0544  0.8057  0.8202
 3957TIP3   OH211834   6.816   2.510   5.182  0.1614  0.0942 -0.4105
 3957TIP3    H111835   6.910   2.496   5.198 -0.2644 -1.7169  0.8591
 3957TIP3    H211836   6.773   2.448   5.240 -1.7878 -0.9669 -2.8139
 3958TIP3   OH211837   2.201   0.082   2.055  0.2975 -0.0744  0.0532
 3958TIP3    H111838   2.110   0.111   2.056  0.0222 -0.9018  1.0967
 3958TIP3    H211839   2.250   0.158   2.025 -0.7326  0.3816 -0.5464
 3959TIP3   OH211840   5.757   1.063   0.574 -0.1416 -0.6298 -0.2932
 3959TIP3    H111841   5.789   0.991   0.628 -0.7477 -2.2057 -1.8999
 3959TIP3    H211842   5.836   1.111   0.549  0.3493 -1.1049  0.3069
 3960TIP3   OH211843   1.020   5.660   2.008  0.2138  0.1257 -0.2545
 3960TIP3    H111844   1.003   5.698   1.921 -1.2331 -2.3404 -1.1626
 3960TIP3    H211845   0.934   5.628   2.037  0.7563  0.4961  1.9203
 3961TIP3   OH211846   2.235   1.749   0.235 -0.0904 -0.2344 -0.5166
 3961TIP3    H111847   2.266   1.771   0.323 -3.8474  0.9557  0.6711
 3961TIP3    H211848   2.282   1.810   0.177 -1.8494  3.2918  1.4579
 3962TIP3   OH211849   1.357   2.140   1.360 -0.2934 -0.2660 -0.7473
 3962TIP3    H111850   1.297   2.164   1.431 -1.0538 -0.6876 -1.2308
 3962TIP3    H211851   1.336   2.202   1.289 -1.2098 -1.3416 -1.4515
 3963TIP3   OH211852   6.410   6.042   2.829 -0.2785  0.6781  0.1623
 3963TIP3    H111853   6.454   6.049   2.744 -0.3440 -1.5417 -0.1247
 3963TIP3    H211854   6.317   6.035   2.807 -0.8363  4.2635  0.7147
 3964TIP3   OH211855   5.727   4.740   3.250  0.2530 -0.4904 -0.5662
 3964TIP3    H111856   5.685   4.781   3.327 -0.4623  0.0063 -1.2069
 3964TIP3    H211857   5.788   4.677   3.288  0.7432  0.5404  0.4506
 3965TIP3   OH211858   5.808   0.093   0.173  0.0949 -0.1512  0.0886
 3965TIP3    H111859   5.771   0.013   0.209  2.7426 -1.3340  0.4093
 3965TIP3    H211860   5.785   0.091   0.080  0.5247 -1.5265  0.0015
 3966TIP3   OH211861   5.790   3.417   4.730 -0.2087 -0.5576 -0.4867
 3966TIP3    H111862   5.767   3.340   4.678 -3.6075 -0.6071  0.7724
 3966TIP3    H211863   5.810   3.382   4.817 -0.3766 -0.1356 -0.2747
 3967TIP3   OH211864   1.639   1.737   3.354  0.0558  0.5786 -0.0045
 3967TIP3    H111865   1.728   1.714   3.383  0.5680  1.7338 -0.6125
 3967TIP3    H211866   1.637   1.712   3.262 -0.1202  0.9370 -0.0977
 3968TIP3   OH211867   3.231   5.415   2.295  0.2160 -0.1670  0.0703
 3968TIP3    H111868   3.309   5.416   2.352 -0.9806  0.3774  1.7951
 3968TIP3    H211869   3.159   5.438   2.354 -1.5335 -2.3603 -1.0476
 3969TIP3   OH211870   2.296   2.826   0.047  0.0558  0.4623  0.2240
 3969TIP3    H111871   2.209   2.865   0.038  0.1532  1.2072  2.0540
 3969TIP3    H211872   2.329   2.861   0.129  1.4695 -1.0242  0.3328
 3970TIP3   OH211873   4.105   5.276   5.052 -0.3945  0.2673  0.0999
 3970TIP3    H111874   4.141   5.325   5.126  1.0879  0.6897 -0.8428
 3970TIP3    H211875   4.021   5.242   5.083 -0.0674  0.9064  1.7665
 3971TIP3   OH211876   0.015   3.534   4.383 -0.0286  0.4129  0.2081
 3971TIP3    H111877  -0.005   3.514   4.292  0.0234  0.0083  0.2833
 3971TIP3    H211878   0.107   3.509   4.393  0.5850  2.3426 -0.1632
 3972TIP3   OH211879   1.720   3.877   4.091  0.0088  0.1449 -0.2202
 3972TIP3    H111880   1.765   3.795   4.113  0.8709  0.8886  0.9459
 3972TIP3    H211881   1.784   3.926   4.038  0.3848  0.9674  0.9543
 3973TIP3   OH211882   4.498   3.920   5.530 -0.0012  0.2668 -0.4709
 3973TIP3    H111883   4.404   3.933   5.514 -0.1135 -0.7503 -0.7135
 3973TIP3    H211884   4.524   3.997   5.580 -1.4773 -0.4920  1.6001
 3974TIP3   OH211885   2.703   1.403   0.388 -0.3148  0.1743 -0.0075
 3974TIP3    H111886   2.791   1.404   0.351  0.3340  0.1168  1.4464
 3974TIP3    H211887   2.697   1.318   0.432 -0.5794  0.7196  1.0433
 3975TIP3   OH211888   6.792   1.506   1.449  0.0308  0.2528  0.1850
 3975TIP3    H111889   6.841   1.452   1.388 -0.2191 -1.0324  1.0821
 3975TIP3    H211890   6.744   1.567   1.394  1.2430  0.3660 -0.7956
 3976TIP3   OH211891   5.512   6.794   2.901  0.3281  0.3233 -0.0793
 3976TIP3    H111892   5.560   6.821   2.823 -0.6168  0.1635 -0.7396
 3976TIP3    H211893   5.552   6.710   2.926  1.2450  0.8252  0.1681
 3977TIP3   OH211894   4.484   0.736   4.060  0.6757 -0.4472  0.4104
 3977TIP3    H111895   4.482   0.783   3.977  1.4170 -1.6928 -0.3382
 3977TIP3    H211896   4.572   0.752   4.095  0.2068  0.4932  1.2483
 3978TIP3   OH211897   1.841   2.446   2.045  0.3777 -0.0179 -0.2270
 3978TIP3    H111898   1.793   2.512   1.995 -1.4558 -0.3103  1.0793
 3978TIP3    H211899   1.856   2.375   1.982  1.0515  0.9649 -1.2290
 3979TIP3   OH211900   1.337   2.503   4.701  0.2087  0.9058 -0.8148
 3979TIP3    H111901   1.383   2.586   4.707  0.4578  0.8971 -2.2728
 3979TIP3    H211902   1.336   2.482   4.608 -1.8200  0.3778 -0.7248
 3980TIP3   OH211903   6.370   2.851   3.379 -0.0109 -0.9293 -0.0784
 3980TIP3    H111904   6.448   2.900   3.406 -0.6425 -0.8068  1.6366
 3980TIP3    H211905   6.316   2.914   3.332 -0.6051 -0.0494  1.7114
 3981TIP3   OH211906   1.260   6.337   1.861 -0.6324  0.6627 -0.4369
 3981TIP3    H111907   1.174   6.332   1.903  0.1389  0.0711  1.1596
 3981TIP3    H211908   1.306   6.259   1.892  0.5633  1.1015 -1.0539
 3982TIP3   OH211909   5.385   4.173   2.546 -0.2863 -0.4804 -0.3051
 3982TIP3    H111910   5.472   4.155   2.509 -0.1986 -1.5676  0.3934
 3982TIP3    H211911   5.402   4.223   2.626 -0.2846 -0.9012 -0.0402
 3983TIP3   OH211912   6.363   6.711   5.392  0.2854 -0.2988 -0.5187
 3983TIP3    H111913   6.325   6.774   5.453  0.4730  0.0775 -0.7793
 3983TIP3    H211914   6.307   6.634   5.398  0.3435 -0.2932  0.1765
 3984TIP3   OH211915   5.570   6.108   2.057 -0.1168  0.2658  0.1941
 3984TIP3    H111916   5.583   6.153   2.141 -2.7967  1.2298  0.1970
 3984TIP3    H211917   5.495   6.052   2.071 -0.9045  0.7811 -1.6587
 3985TIP3   OH211918   5.390   2.259   2.870  0.4014 -0.1382 -0.4642
 3985TIP3    H111919   5.481   2.272   2.897  0.8641 -1.2755 -1.4242
 3985TIP3    H211920   5.391   2.270   2.775 -0.5475  0.2581 -0.4383
 3986TIP3   OH211921   0.881   3.149   1.660 -0.0759 -0.0695 -0.3628
 3986TIP3    H111922   0.871   3.146   1.565  2.2311  2.0812 -0.7841
 3986TIP3    H211923   0.948   3.083   1.679  0.1968  0.1909 -0.3994
 3987TIP3   OH211924   4.425   0.949   1.693  0.1625  0.2535 -0.1734
 3987TIP3    H111925   4.391   0.876   1.745 -0.9211  0.0697 -1.1124
 3987TIP3    H211926   4.349   1.005   1.678  0.5034  0.4088 -1.3850
 3988TIP3   OH211927   0.341   3.458   1.787  0.3887  0.6678 -0.0893
 3988TIP3    H111928   0.364   3.367   1.811 -1.0071  0.5116  0.7403
 3988TIP3    H211929   0.398   3.511   1.843  0.0774  0.2973  0.5945
 3989TIP3   OH211930   4.318   5.686   2.651  0.6119  0.2579  0.4503
 3989TIP3    H111931   4.285   5.701   2.740 -0.1387  1.1561  0.0483
 3989TIP3    H211932   4.395   5.632   2.662  0.0795 -0.2921  1.5925
 3990TIP3   OH211933   5.275   6.667   3.472  0.3608 -0.1398 -0.1185
 3990TIP3    H111934   5.227   6.750   3.472  1.1525  0.3238 -0.0534
 3990TIP3    H211935   5.365   6.691   3.495  0.6547 -0.9850 -0.3536
 3991TIP3   OH211936   0.442   3.313   5.865  0.2420 -0.6025 -0.1973
 3991TIP3    H111937   0.508   3.347   5.926 -0.6310  1.5837 -0.3924
 3991TIP3    H211938   0.491   3.297   5.784  0.7605 -0.0414 -0.0046
 3992TIP3   OH211939   6.301   4.775   2.524 -0.0780  0.6631 -0.4420
 3992TIP3    H111940   6.383   4.749   2.566  0.0120  1.3071 -0.2005
 3992TIP3    H211941   6.276   4.700   2.470  0.0769  0.0118  0.3629
 3993TIP3   OH211942   4.104   2.166   1.666 -0.2462 -0.1782  0.8495
 3993TIP3    H111943   4.023   2.139   1.709  0.8752 -2.6462  1.5748
 3993TIP3    H211944   4.151   2.084   1.649  1.1273  1.0123 -1.5750
 3994TIP3   OH211945   6.662   2.624   3.250  0.0972  0.1260 -0.2449
 3994TIP3    H111946   6.736   2.680   3.270  0.2430 -0.2050  0.1750
 3994TIP3    H211947   6.587   2.667   3.292  0.2986 -0.2514  0.5275
 3995TIP3   OH211948   2.686   6.385   4.807 -0.1698  0.1971  0.0573
 3995TIP3    H111949   2.780   6.367   4.804 -0.2124 -0.0463  0.1728
 3995TIP3    H211950   2.647   6.317   4.752 -0.2032  0.8106 -0.6914
 3996TIP3   OH211951   2.022   2.014   2.141  0.2219  0.0951 -0.3957
 3996TIP3    H111952   2.023   1.947   2.073 -1.1605  0.3701 -0.7006
 3996TIP3    H211953   2.006   2.096   2.095 -0.9308  0.2619  0.2574
 3997TIP3   OH211954   3.509   6.494   0.032  0.5406 -0.5017  0.0635
 3997TIP3    H111955   3.470   6.412   0.001 -1.9075  0.2297  0.9824
 3997TIP3    H211956   3.562   6.468   0.107  0.1701 -1.3085  0.0538
 3998TIP3   OH211957   1.634   5.440   2.676 -0.1792  0.5006 -0.1239
 3998TIP3    H111958   1.628   5.380   2.751 -2.1687 -0.3253 -0.8832
 3998TIP3    H211959   1.570   5.509   2.696 -1.7652 -0.4498 -1.6129
 3999TIP3   OH211960   6.668   4.959   0.289 -0.1803  0.0908 -0.0541
 3999TIP3    H111961   6.650   4.983   0.198  1.5670 -1.4009 -0.8631
 3999TIP3    H211962   6.631   5.031   0.341  5.4947  5.4847 -2.1481
 4000TIP3   OH211963   3.319   1.678   0.959 -0.6325  0.0543 -0.5959
 4000TIP3    H111964   3.365   1.677   1.043  0.1457 -1.5760 -1.0016
 4000TIP3    H211965   3.311   1.771   0.938  2.9161  0.5105 -0.6680
 4001TIP3   OH211966   0.105   1.347   2.490  0.0297 -0.4217 -0.3555
 4001TIP3    H111967   0.040   1.304   2.545 -0.6359 -1.4693 -1.8961
 4001TIP3    H211968   0.134   1.279   2.428  2.7389 -0.0510  0.3671
 4002TIP3   OH211969   1.250   5.742   1.833 -0.3009 -0.4963 -0.0251
 4002TIP3    H111970   1.276   5.779   1.917  1.2641 -1.3855 -0.0829
 4002TIP3    H211971   1.230   5.818   1.778  1.3745  0.2137  0.3113
 4003TIP3   OH211972   2.429   0.183   2.893 -0.3328  0.1561 -0.2946
 4003TIP3    H111973   2.364   0.159   2.826 -1.4184 -1.0397  1.1214
 4003TIP3    H211974   2.471   0.101   2.916 -0.8673  0.2991  1.3575
 4004TIP3   OH211975   5.110   1.905   2.977  0.4244  0.0091  0.4664
 4004TIP3    H111976   5.099   1.828   2.921 -1.0245 -0.0243  0.7605
 4004TIP3    H211977   5.205   1.913   2.989  0.7542 -0.2509 -1.6077
 4005TIP3   OH211978   4.800   4.740   5.498 -0.7303 -0.1994 -0.1164
 4005TIP3    H111979   4.727   4.800   5.482 -0.1347  0.8596  0.9614
 4005TIP3    H211980   4.786   4.708   5.587 -0.7255 -1.2216 -0.4784
 4006TIP3   OH211981   5.578   3.059   0.095 -0.4264 -0.1172  0.7499
 4006TIP3    H111982   5.591   2.964   0.095  2.1548  0.1459 -0.4624
 4006TIP3    H211983   5.599   3.086   0.005  0.5808  1.7705  1.4921
 4007TIP3   OH211984   1.268   2.046   3.190  0.0555  0.3985  0.0234
 4007TIP3    H111985   1.218   2.102   3.250 -0.7762 -2.0254  1.7315
 4007TIP3    H211986   1.344   2.017   3.240  0.0308 -0.6517 -0.5180
 4008TIP3   OH211987   1.164   1.894   2.222  0.1809 -0.2347  0.5517
 4008TIP3    H111988   1.207   1.965   2.175 -0.6453  0.0583  0.2281
 4008TIP3    H211989   1.188   1.907   2.314  0.6382  0.0220  0.3959
 4009TIP3   OH211990   7.101   1.054   0.057  0.2488 -0.0234 -0.0639
 4009TIP3    H111991   7.065   0.995  -0.010 -0.5317  1.4880 -1.0292
 4009TIP3    H211992   7.195   1.060   0.035  0.1686 -0.2299 -0.4839
 4010TIP3   OH211993   1.219   3.505   3.490  0.0667 -0.6422  0.4330
 4010TIP3    H111994   1.144   3.544   3.444 -0.5912 -2.8105 -0.4822
 4010TIP3    H211995   1.286   3.573   3.487 -1.8014  1.3739  1.2469
 4011TIP3   OH211996   0.839   3.172   5.341  0.4137  0.3134 -0.8326
 4011TIP3    H111997   0.887   3.091   5.325  0.0812 -0.2794  1.0295
 4011TIP3    H211998   0.767   3.170   5.277  0.5004 -0.7878 -0.9123
 4012TIP3   OH211999   6.148   0.075   5.242 -0.5741 -0.1664  0.1003
 4012TIP3    H112000   6.130   0.014   5.170  0.0071  1.0161 -1.0715
 4012TIP3    H212001   6.067   0.125   5.251 -0.0165  0.9992 -1.0669
 4013TIP3   OH212002   0.070   2.497   0.590 -0.1341 -0.3279 -0.0861
 4013TIP3    H112003   0.097   2.505   0.498  0.4443  1.8976  0.2190
 4013TIP3    H212004   0.011   2.571   0.604  0.0768 -0.4266  1.4397
 4014TIP3   OH212005   5.313   0.871   2.622 -0.0899  0.2319  0.0436
 4014TIP3    H112006   5.337   0.874   2.529 -0.2815 -0.7259 -0.0514
 4014TIP3    H212007   5.227   0.829   2.623 -0.2290  0.5229  0.6330
 4015TIP3   OH212008   1.908   0.822   0.291  0.1882 -0.3105 -0.1341
 4015TIP3    H112009   1.834   0.883   0.290 -0.9595 -1.6117  0.6642
 4015TIP3    H212010   1.880   0.752   0.351  1.8779 -1.0886 -0.1949
 4016TIP3   OH212011   5.983   3.594   2.024 -0.1438 -0.1525  0.7547
 4016TIP3    H112012   6.057   3.648   1.996  0.5487 -1.9615 -1.1592
 4016TIP3    H212013   6.013   3.504   2.012 -1.7592 -0.9914  2.4688
 4017TIP3   OH212014   1.616   1.503   3.688 -0.3269 -0.4082 -0.1256
 4017TIP3    H112015   1.694   1.461   3.653 -1.0689 -1.9794 -0.0076
 4017TIP3    H212016   1.602   1.461   3.773 -1.1089  0.0865  0.0006
 4018TIP3   OH212017   0.323   4.903   4.638  0.0524  0.8338 -0.1480
 4018TIP3    H112018   0.335   4.926   4.546 -1.2942 -1.9941 -1.1696
 4018TIP3    H212019   0.398   4.847   4.659 -0.6411 -0.1334 -0.1758
 4019TIP3   OH212020   6.206   5.573   4.335  0.0197  0.2150 -0.0342
 4019TIP3    H112021   6.291   5.616   4.327  0.0969  0.8135  2.7710
 4019TIP3    H212022   6.219   5.486   4.298  1.3275  0.8778 -1.2368
 4020TIP3   OH212023   1.507   0.989   2.344  0.1658 -0.1646  0.6673
 4020TIP3    H112024   1.517   1.024   2.432 -1.3291  0.2190  0.7132
 4020TIP3    H212025   1.568   0.915   2.341  1.2667  0.6710  1.5295
 4021TIP3   OH212026   7.183   6.564   2.469 -0.3582 -0.2935 -0.1642
 4021TIP3    H112027   7.106   6.508   2.460 -2.0176  1.5414  1.6068
 4021TIP3    H212028   7.173   6.630   2.400  0.4485 -0.8725 -0.8609
 4022TIP3   OH212029   1.984   5.184   0.895  0.1703 -0.1267  0.6398
 4022TIP3    H112030   2.049   5.183   0.825 -1.3128 -1.6581 -0.8186
 4022TIP3    H212031   2.018   5.246   0.959  1.8337  0.9654 -1.2015
 4023TIP3   OH212032   6.711   0.974   0.225  0.3152  0.5299  0.1587
 4023TIP3    H112033   6.746   0.888   0.202  0.0508  0.0511  1.4716
 4023TIP3    H212034   6.628   0.979   0.178 -0.1571 -0.3710  0.8552
 4024TIP3   OH212035   1.466   5.941   5.076 -0.5742  0.2588  0.5695
 4024TIP3    H112036   1.562   5.936   5.076 -0.4856  1.4446  1.3238
 4024TIP3    H212037   1.447   6.026   5.117 -1.9262  0.6708 -0.8428
 4025TIP3   OH212038   1.614   2.385   4.791  0.1264 -0.2281 -0.2373
 4025TIP3    H112039   1.637   2.338   4.711  1.5550 -1.4680  0.8218
 4025TIP3    H212040   1.636   2.476   4.773  2.3837 -0.7737 -0.6269
 4026TIP3   OH212041   6.519   0.850   2.978 -0.1765  0.5446  0.5679
 4026TIP3    H112042   6.548   0.868   3.067 -0.9455 -0.9228  1.1347
 4026TIP3    H212043   6.462   0.773   2.985  0.6243 -0.2886 -1.3383
 4027TIP3   OH212044   6.668   2.417   4.141 -0.2964  0.0660  0.5912
 4027TIP3    H112045   6.628   2.496   4.180  1.8774  2.7200 -2.1122
 4027TIP3    H212046   6.640   2.419   4.050  0.2716 -2.0417  0.3309
 4028TIP3   OH212047   3.425   5.452   0.055 -0.2242  0.9388 -0.2443
 4028TIP3    H112048   3.500   5.481   0.003  0.5401 -1.0290 -0.3316
 4028TIP3    H212049   3.437   5.494   0.140  1.2717  0.2957 -0.1033
 4029TIP3   OH212050   0.115   2.664   0.204  0.1171  0.0404 -0.4711
 4029TIP3    H112051   0.020   2.664   0.220  0.2297 -0.4316  0.2190
 4029TIP3    H212052   0.144   2.578   0.234  0.7862  0.2277 -0.5816
 4030TIP3   OH212053   4.378   1.876   2.416  0.3641 -0.5996 -0.1809
 4030TIP3    H112054   4.412   1.929   2.488 -0.0365 -2.1478  1.2093
 4030TIP3    H212055   4.386   1.786   2.447 -1.3887 -1.2172 -1.4009
 4031TIP3   OH212056   4.664   2.887   3.393 -0.1750 -0.4374  0.2046
 4031TIP3    H112057   4.670   2.836   3.312 -2.5288  2.1967 -1.8260
 4031TIP3    H212058   4.750   2.928   3.401  0.1640 -0.8933 -0.8816
 4032TIP3   OH212059   6.503   6.302   4.781  0.3413  0.3576  0.0824
 4032TIP3    H112060   6.485   6.302   4.875 -0.3745 -0.0617 -0.0495
 4032TIP3    H212061   6.497   6.211   4.755 -0.1913  0.5548 -0.5051
 4033TIP3   OH212062   5.925   3.242   4.143  0.0263  0.0947  0.3403
 4033TIP3    H112063   6.008   3.210   4.108 -0.1622  1.6698 -1.7663
 4033TIP3    H212064   5.868   3.166   4.144  0.1442 -0.1774 -2.6916
 4034TIP3   OH212065   6.225   5.657   5.268  0.3020  0.4134  0.4653
 4034TIP3    H112066   6.141   5.628   5.304  0.3864 -0.5315 -0.0567
 4034TIP3    H212067   6.290   5.624   5.329  0.3188  0.9478  0.7461
 4035TIP3   OH212068   1.199   4.128   5.020  0.4032 -0.6761  0.3090
 4035TIP3    H112069   1.195   4.223   5.033  1.4439 -0.1763 -2.4174
 4035TIP3    H212070   1.160   4.091   5.100 -0.6986  2.0311  1.1233
 4036TIP3   OH212071   0.320   2.275   2.840 -0.0304 -0.3852  0.0130
 4036TIP3    H112072   0.333   2.369   2.828 -0.3770  0.0436  2.5084
 4036TIP3    H212073   0.253   2.268   2.907 -1.5995 -2.4835 -1.6182
 4037TIP3   OH212074   1.361   3.673   4.548 -0.6198 -0.3312 -0.1861
 4037TIP3    H112075   1.420   3.650   4.621 -0.5725  0.1989 -0.0547
 4037TIP3    H212076   1.321   3.589   4.523 -0.4082 -0.5692  0.2483
 4038TIP3   OH212077   2.805   6.331   5.628 -0.5508  0.1108 -0.5181
 4038TIP3    H112078   2.836   6.382   5.553 -1.5675  0.4848 -0.6988
 4038TIP3    H212079   2.884   6.293   5.666  0.1468  1.2382 -0.8139
 4039TIP3   OH212080   1.529   5.673   2.268 -0.2050  0.6131  0.1515
 4039TIP3    H112081   1.548   5.584   2.239  2.0935  1.6322 -1.7772
 4039TIP3    H212082   1.605   5.699   2.319 -1.7057  0.8917  2.4103
 4040TIP3   OH212083   1.554   2.030   0.229  0.5436 -0.4665  0.1649
 4040TIP3    H112084   1.578   2.068   0.145 -0.3902  0.6645  0.3860
 4040TIP3    H212085   1.623   1.967   0.247  0.1118 -1.6667 -2.0344
 4041TIP3   OH212086   5.834   6.676   3.744 -0.3732  0.0734  0.1085
 4041TIP3    H112087   5.886   6.597   3.742 -0.0092  0.3034 -1.7067
 4041TIP3    H212088   5.811   6.689   3.836  0.8732 -1.2559  0.6279
 4042TIP3   OH212089   1.773   5.291   4.194 -0.0807 -0.5044 -0.2322
 4042TIP3    H112090   1.715   5.366   4.207 -0.5325  0.0191 -3.9807
 4042TIP3    H212091   1.861   5.327   4.196 -0.2865  0.1782 -1.7382
 4043TIP3   OH212092   6.180   1.550   0.107  0.2025 -0.4808 -0.1300
 4043TIP3    H112093   6.160   1.644   0.111  1.4125 -0.1875 -0.6834
 4043TIP3    H212094   6.239   1.534   0.181  0.3732 -0.7085 -0.3149
 4044TIP3   OH212095   1.438   0.230   0.533 -0.0935  0.1482  0.0054
 4044TIP3    H112096   1.416   0.310   0.581  0.4506  0.5744 -0.4420
 4044TIP3    H212097   1.411   0.159   0.592 -1.0838  0.6458  0.1778
 4045TIP3   OH212098   4.831   3.894   4.902  0.0187  0.3654 -0.3119
 4045TIP3    H112099   4.903   3.886   4.840 -0.3831  0.4463 -0.7937
 4045TIP3    H212100   4.868   3.944   4.975  0.4761  0.3233 -0.5113
 4046TIP3   OH212101   2.155   1.073   3.256  0.5450 -0.1916 -0.2265
 4046TIP3    H112102   2.086   1.022   3.213 -1.7012  0.9242  1.8376
 4046TIP3    H212103   2.223   1.009   3.277 -1.9048 -2.3687  1.7605
 4047TIP3   OH212104   0.566   2.246   3.029  0.3630 -0.8358 -0.7184
 4047TIP3    H112105   0.510   2.246   2.951 -0.2778  1.5872 -0.3530
 4047TIP3    H212106   0.512   2.206   3.097 -0.0148 -0.7309 -0.9522
 4048TIP3   OH212107   0.541   6.140   2.841 -0.3501 -0.1062 -0.0419
 4048TIP3    H112108   0.503   6.059   2.806 -2.3741  0.7830 -0.0122
 4048TIP3    H212109   0.487   6.162   2.916  0.1671  1.2868 -0.0463
 4049TIP3   OH212110   4.752   4.125   3.383  0.1313 -0.2860 -0.8261
 4049TIP3    H112111   4.679   4.160   3.435  0.3203 -1.5851  0.3717
 4049TIP3    H212112   4.796   4.202   3.348 -0.1531  0.6271  0.7668
 4050TIP3   OH212113   3.279   2.619   0.826 -0.5165  0.4636  0.1522
 4050TIP3    H112114   3.350   2.565   0.790 -0.5203 -0.8656  1.9837
 4050TIP3    H212115   3.259   2.682   0.757  0.6579 -0.8128 -1.4235
 4051TIP3   OH212116   1.826   3.690   0.623 -0.1970 -0.2678  0.7010
 4051TIP3    H112117   1.787   3.764   0.670  0.3525  0.7242 -0.3392
 4051TIP3    H212118   1.778   3.687   0.541 -0.5855 -1.4426  0.9613
 4052TIP3   OH212119   4.062   3.724   4.471  0.3037  1.0385 -0.2000
 4052TIP3    H112120   4.097   3.776   4.399  1.2454 -1.3184 -1.5681
 4052TIP3    H212121   4.139   3.688   4.516 -0.3033  1.1531  0.9851
 4053TIP3   OH212122   7.032   0.623   2.610 -0.1316 -0.1730  0.4704
 4053TIP3    H112123   7.023   0.663   2.696 -1.8254 -1.4232  0.9431
 4053TIP3    H212124   6.999   0.534   2.621 -0.3051 -0.4022 -1.4453
 4054TIP3   OH212125   0.606   5.607   4.739  0.5202  0.1473 -0.1993
 4054TIP3    H112126   0.587   5.698   4.718  0.2655 -0.2174 -1.6501
 4054TIP3    H212127   0.627   5.566   4.655  3.1362 -0.5844  0.6956
 4055TIP3   OH212128   5.281   5.041   3.580 -0.4974 -0.0765 -0.5391
 4055TIP3    H112129   5.359   5.096   3.575 -0.3303 -0.1119  1.0576
 4055TIP3    H212130   5.219   5.081   3.520  0.2987  0.7062 -0.8617
 4056TIP3   OH212131   2.846   2.539   5.238  0.1587  0.2885  0.1606
 4056TIP3    H112132   2.937   2.519   5.215 -0.1499  0.4986 -1.3527
 4056TIP3    H212133   2.803   2.553   5.154 -1.0534  1.1774  0.9026
 4057TIP3   OH212134   0.738   0.570   2.295 -0.4223 -0.0561  0.0459
 4057TIP3    H112135   0.663   0.520   2.326  0.2052 -1.2869 -0.3540
 4057TIP3    H212136   0.796   0.575   2.371 -0.5204  0.1530  0.1090
 4058TIP3   OH212137   1.405   1.099   5.578  0.4950 -0.1376 -0.2842
 4058TIP3    H112138   1.326   1.109   5.632  1.1031 -0.6881  0.7448
 4058TIP3    H212139   1.450   1.183   5.586  0.1751  0.0632 -0.5995
 4059TIP3   OH212140   1.908   1.155   1.835 -0.4346 -0.1693 -0.0768
 4059TIP3    H112141   1.944   1.066   1.836  1.9312  0.7218  0.7452
 4059TIP3    H212142   1.920   1.184   1.744 -1.5931 -0.8052 -0.4482
 4060TIP3   OH212143   2.533   3.044   0.896  0.0860 -0.3582  0.1408
 4060TIP3    H112144   2.619   3.004   0.905 -0.3680 -1.1114  1.3397
 4060TIP3    H212145   2.539   3.097   0.816  1.6635 -0.3551  0.2384
 4061TIP3   OH212146   2.040   5.447   0.251  0.6890  0.3550  0.3181
 4061TIP3    H112147   2.054   5.354   0.265  0.5502 -0.0239 -1.7448
 4061TIP3    H212148   2.115   5.490   0.294  0.6558 -0.6571  1.4367
 4062TIP3   OH212149   0.895   5.914   4.811 -0.2716 -0.8223 -0.0082
 4062TIP3    H112150   0.878   5.994   4.761  0.1521  0.4501  1.7779
 4062TIP3    H212151   0.815   5.900   4.861  0.7919  0.4728  2.2088
 4063TIP3   OH212152   5.544   0.816   4.807  0.1659 -0.4253 -0.5223
 4063TIP3    H112153   5.563   0.742   4.749 -1.3137 -0.7753 -0.6002
 4063TIP3    H212154   5.448   0.815   4.815  0.1469  1.3411 -0.3369
 4064TIP3   OH212155   4.602   4.426   5.050  0.6388  0.4322 -0.4383
 4064TIP3    H112156   4.611   4.519   5.029  0.4637  0.8403  1.1338
 4064TIP3    H212157   4.527   4.397   4.998 -0.6528  1.7195  0.6070
 4065TIP3   OH212158   0.980   6.469   1.569  0.1874  0.0601 -0.1489
 4065TIP3    H112159   0.966   6.378   1.597 -0.7792  0.1756 -0.2035
 4065TIP3    H212160   1.055   6.465   1.510 -0.1821 -0.8034 -0.5903
 4066TIP3   OH212161   2.283   4.879   4.023  0.4262 -0.6084  0.0824
 4066TIP3    H112162   2.333   4.799   4.010 -0.9801 -1.4893 -0.1525
 4066TIP3    H212163   2.231   4.863   4.102 -0.4569 -0.2560 -0.4011
 4067TIP3   OH212164   3.894   0.687   4.216 -0.0393  0.2467  0.2294
 4067TIP3    H112165   3.950   0.640   4.277  0.2065  1.1467  0.7173
 4067TIP3    H212166   3.855   0.758   4.268 -1.4864 -0.2324 -0.1461
 4068TIP3   OH212167   4.552   4.283   3.570 -0.7776  0.4797  0.1699
 4068TIP3    H112168   4.489   4.351   3.593  0.6659  2.1677 -0.6245
 4068TIP3    H212169   4.530   4.210   3.628 -3.2292  1.0898  0.1328
 4069TIP3   OH212170   2.690   0.768   5.120  0.0659  0.0001  0.2163
 4069TIP3    H112171   2.634   0.771   5.043  1.3083 -1.7915 -0.8411
 4069TIP3    H212172   2.718   0.858   5.134  0.2356  0.2823 -1.7626
 4070TIP3   OH212173   3.256   5.373   3.817 -0.3064 -0.0332  0.2276
 4070TIP3    H112174   3.194   5.309   3.782 -1.7290  1.3790  0.0451
 4070TIP3    H212175   3.230   5.384   3.909 -1.6002  1.9190 -0.3033
 4071TIP3   OH212176   0.298   5.277   0.366  0.1046  0.7868 -0.2176
 4071TIP3    H112177   0.210   5.263   0.332 -0.3948 -0.2885  1.4510
 4071TIP3    H212178   0.324   5.192   0.402  1.3549  1.4021  0.3946
 4072TIP3   OH212179   6.812   2.925   1.146  0.0499  0.2339 -0.1736
 4072TIP3    H112180   6.823   2.843   1.097  1.5975 -0.1381  0.7442
 4072TIP3    H212181   6.717   2.935   1.154 -0.1793 -1.3843 -0.4368
 4073TIP3   OH212182   4.053   6.349   1.447 -0.0738 -0.1902  0.4969
 4073TIP3    H112183   4.090   6.407   1.381  0.2375 -1.1214 -0.1672
 4073TIP3    H212184   4.016   6.276   1.397  0.4685 -1.0837  1.3657
 4074TIP3   OH212185   3.903   2.298   0.105 -0.1363 -0.0635  0.6832
 4074TIP3    H112186   3.985   2.263   0.072 -0.1820 -0.6586  1.1662
 4074TIP3    H212187   3.839   2.281   0.036  0.3123  1.1999 -0.0668
 4075TIP3   OH212188   4.902   3.498   3.711  0.1433 -0.1246 -0.0358
 4075TIP3    H112189   4.877   3.569   3.770 -1.4216 -0.5275 -0.1833
 4075TIP3    H212190   4.962   3.539   3.648  1.4917  0.4025  1.5222
 4076TIP3   OH212191   1.375   3.836   5.064 -0.4702  0.2688 -0.6039
 4076TIP3    H112192   1.363   3.900   5.134 -0.6711 -0.3205 -0.0951
 4076TIP3    H212193   1.312   3.767   5.084 -1.0311  0.4185 -1.7515
 4077TIP3   OH212194   5.446   4.915   0.825  0.0171 -0.2615 -0.0328
 4077TIP3    H112195   5.442   4.848   0.893 -1.1185 -0.2512 -0.0803
 4077TIP3    H212196   5.431   4.868   0.744 -0.9096  0.0550 -0.0554
 4078TIP3   OH212197   5.012   0.521   4.756  0.3484  0.7205 -0.4764
 4078TIP3    H112198   4.986   0.441   4.803 -0.2052  1.6994  0.9509
 4078TIP3    H212199   4.968   0.514   4.671  0.8115 -0.7703 -0.6246
 4079TIP3   OH212200   2.642   4.771   4.405  0.4272  0.3686 -0.0775
 4079TIP3    H112201   2.622   4.774   4.312 -0.1308 -0.1509  0.0230
 4079TIP3    H212202   2.688   4.688   4.417 -0.7313 -0.2368  0.3395
 4080TIP3   OH212203   5.590   1.477   2.010 -0.1026  0.4691 -0.2803
 4080TIP3    H112204   5.684   1.479   1.988  0.1304 -0.4924  0.5907
 4080TIP3    H212205   5.547   1.496   1.927  0.8707  2.1017 -0.4701
 4081TIP3   OH212206   0.789   1.818   5.636 -0.5670  0.2095  0.2637
 4081TIP3    H112207   0.799   1.770   5.553 -0.5759  1.0668 -0.2402
 4081TIP3    H212208   0.815   1.754   5.703  2.3730  0.3542 -0.5588
 4082TIP3   OH212209   1.122   1.843   5.525 -0.3539  0.5889  0.3008
 4082TIP3    H112210   1.186   1.860   5.456  0.6918 -0.1559  1.0603
 4082TIP3    H212211   1.059   1.915   5.517  1.9967  2.8874  1.1945
 4083TIP3   OH212212   1.730   4.091   4.452 -1.0088 -0.5167  0.2700
 4083TIP3    H112213   1.701   3.999   4.453 -0.3423 -0.7753 -1.3135
 4083TIP3    H212214   1.818   4.088   4.489 -0.3937 -0.7705 -1.1569
 4084TIP3   OH212215   4.240   6.633   5.718 -0.1099  0.4103 -0.4218
 4084TIP3    H112216   4.183   6.585   5.658 -0.7278  1.4620 -0.6912
 4084TIP3    H212217   4.257   6.716   5.674  2.9730 -0.4764 -1.1044
 4085TIP3   OH212218   6.966   3.474   5.230 -0.8324 -0.2676  0.2378
 4085TIP3    H112219   6.900   3.518   5.283 -0.5585  0.3472  0.0739
 4085TIP3    H212220   7.042   3.466   5.288 -0.1036  1.5027 -0.4036
 4086TIP3   OH212221   0.751   1.909   1.415 -0.9528  0.4625  0.3805
 4086TIP3    H112222   0.669   1.933   1.371 -0.5059 -0.9441 -1.3163
 4086TIP3    H212223   0.730   1.831   1.465 -0.3379 -0.9247 -1.4033
 4087TIP3   OH212224   6.537   5.294   1.631  0.0639  0.1288 -0.0136
 4087TIP3    H112225   6.475   5.308   1.560  0.5680 -0.0799 -0.5022
 4087TIP3    H212226   6.618   5.266   1.588  0.6390  0.8303  0.5756
 4088TIP3   OH212227   7.062   3.942   5.071  0.1407 -0.3917  0.0060
 4088TIP3    H112228   7.141   3.909   5.114  0.5986 -1.7007 -1.7774
 4088TIP3    H212229   7.065   4.037   5.086  2.5024 -0.2950 -0.7143
 4089TIP3   OH212230   3.466   0.269   3.112 -0.3596  0.3155 -0.6635
 4089TIP3    H112231   3.468   0.247   3.019  0.2638  0.6198 -0.7271
 4089TIP3    H212232   3.372   0.272   3.133 -0.5005 -1.2073 -0.9191
 4090TIP3   OH212233   4.437   4.520   3.558  0.2101 -0.4224 -0.0410
 4090TIP3    H112234   4.496   4.523   3.483  2.9563  0.4666  1.9906
 4090TIP3    H212235   4.434   4.611   3.589  1.1815 -1.1510  2.3441
 4091TIP3   OH212236   5.893   1.422   5.217  0.0033  0.2730  0.1778
 4091TIP3    H112237   5.880   1.334   5.181 -0.6905  0.5141 -0.1675
 4091TIP3    H212238   5.872   1.481   5.144 -1.2932  0.7653  0.9325
 4092TIP3   OH212239   1.026   1.625   2.314 -0.0728  0.8480 -0.4411
 4092TIP3    H112240   0.952   1.670   2.355  0.1823  1.5761 -0.7706
 4092TIP3    H212241   1.072   1.693   2.265  0.8277  0.4059 -0.2273
 4093TIP3   OH212242   4.639   2.529   2.559 -0.0687 -0.2619  0.0458
 4093TIP3    H112243   4.585   2.604   2.584  0.8001  0.5556 -0.4850
 4093TIP3    H212244   4.706   2.566   2.501  1.3886 -1.1584  1.1152
 4094TIP3   OH212245   0.404   1.279   1.340  0.2094 -0.3883  0.1490
 4094TIP3    H112246   0.426   1.369   1.362  1.7717 -0.3261 -1.4596
 4094TIP3    H212247   0.474   1.227   1.379 -0.4957 -0.8970  0.7686
 4095TIP3   OH212248   1.185   5.249   4.788  0.6715  0.1258 -0.2386
 4095TIP3    H112249   1.250   5.316   4.807 -2.0239  2.6204  0.8724
 4095TIP3    H212250   1.178   5.198   4.868 -0.1906  1.1993  0.3857
 4096TIP3   OH212251   3.269   2.517   5.317  0.4984  0.1133  0.5201
 4096TIP3    H112252   3.184   2.504   5.359 -1.0676  0.9468 -2.1888
 4096TIP3    H212253   3.290   2.432   5.278 -0.1771  0.4487 -0.6150
 4097TIP3   OH212254   6.427   1.676   4.901  0.3323  0.5209  0.5563
 4097TIP3    H112255   6.448   1.664   4.808 -0.0757  1.6559  0.2967
 4097TIP3    H212256   6.380   1.596   4.926 -2.3441  1.4436 -1.0752
 4098TIP3   OH212257   6.356   3.412   4.685  0.6742 -0.3108 -0.1269
 4098TIP3    H112258   6.429   3.350   4.676 -0.2872 -1.5064  0.0426
 4098TIP3    H212259   6.333   3.408   4.777 -1.8223 -2.6632 -0.6929
 4099TIP3   OH212260   0.494   6.205   2.053 -0.1257 -0.2015 -0.5528
 4099TIP3    H112261   0.408   6.242   2.033  0.5388  1.2050 -0.9261
 4099TIP3    H212262   0.512   6.235   2.143  0.5534  0.6941 -0.9706
 4100TIP3   OH212263   5.386   1.026   3.092 -0.0496  0.4531  0.7041
 4100TIP3    H112264   5.296   1.057   3.083  0.3347  1.1123 -1.4435
 4100TIP3    H212265   5.389   0.986   3.180 -2.1378  1.2800  1.2151
 4101TIP3   OH212266   6.404   5.874   3.091 -0.0974 -0.1570  0.6071
 4101TIP3    H112267   6.380   5.785   3.062 -0.8181  0.1124  0.3518
 4101TIP3    H212268   6.402   5.926   3.011  0.6720  0.0290  0.6994
 4102TIP3   OH212269   5.410   0.604   5.119  0.1428 -0.5240 -0.2476
 4102TIP3    H112270   5.410   0.693   5.085 -1.2038 -0.4629 -0.1354
 4102TIP3    H212271   5.417   0.548   5.042 -1.7007 -0.3613 -0.5577
 4103TIP3   OH212272   0.631   2.776   3.519  0.3012 -0.0118 -0.2116
 4103TIP3    H112273   0.680   2.728   3.451  2.1398 -0.0356  1.0559
 4103TIP3    H212274   0.615   2.711   3.587  2.5839  0.9740  1.4093
 4104TIP3   OH212275   3.003   0.021   1.368 -0.4044  0.4601  0.3007
 4104TIP3    H112276   2.998   0.044   1.461 -0.8415 -0.3939  0.4899
 4104TIP3    H212277   3.036   0.101   1.326 -0.8576  1.0792  1.0923
 4105TIP3   OH212278   2.481   6.779   0.506 -0.0298  0.1739  0.0711
 4105TIP3    H112279   2.528   6.712   0.457 -0.5051 -1.6072  1.8844
 4105TIP3    H212280   2.509   6.862   0.467  1.3336 -1.0119 -1.6330
 4106TIP3   OH212281   6.130   4.393   0.152 -0.8555  0.3457 -0.2697
 4106TIP3    H112282   6.183   4.352   0.084  0.1581 -1.5447  1.5675
 4106TIP3    H212283   6.040   4.370   0.129 -0.6406  0.6707 -1.5238
 4107TIP3   OH212284   7.058   6.677   4.207  0.3038 -0.0874  0.1992
 4107TIP3    H112285   7.117   6.747   4.177 -0.6522  0.7810  0.3070
 4107TIP3    H212286   6.989   6.722   4.255  0.1692 -1.2020  1.0997
 4108TIP3   OH212287   2.021   3.812   4.356 -0.3020  0.4705 -0.0642
 4108TIP3    H112288   1.994   3.720   4.351  2.6131 -0.3900 -1.8233
 4108TIP3    H212289   1.983   3.843   4.439 -1.2431 -2.3330  0.6581
 4109TIP3   OH212290   5.869   3.203   5.848 -0.2118  0.1133 -0.4027
 4109TIP3    H112291   5.797   3.253   5.810 -2.0200 -0.8564  1.5614
 4109TIP3    H212292   5.902   3.258   5.919 -0.5130 -0.3459  0.1089
 4110TIP3   OH212293   3.912   2.630   4.564  0.4181 -0.1145 -0.0772
 4110TIP3    H112294   3.875   2.549   4.599  0.5471  0.4961  1.5730
 4110TIP3    H212295   3.991   2.644   4.616  1.2361  0.2893 -1.3770
 4111TIP3   OH212296   4.649   1.120   1.207 -0.0907  1.1443  0.6287
 4111TIP3    H112297   4.568   1.161   1.238 -0.2098  2.2919 -1.0160
 4111TIP3    H212298   4.621   1.034   1.174 -0.4664  1.1187  1.0096
 4112TIP3   OH212299   6.401   2.397   4.366 -0.4270 -0.3788 -0.1345
 4112TIP3    H112300   6.490   2.433   4.370 -0.9722  1.1140 -0.7814
 4112TIP3    H212301   6.366   2.410   4.454 -0.8718  1.4474 -0.5366
 4113TIP3   OH212302   3.713   2.069   2.685 -0.1132  0.1271 -0.2418
 4113TIP3    H112303   3.619   2.078   2.700  0.0396  0.5456  0.5551
 4113TIP3    H212304   3.753   2.100   2.766  0.6667 -2.2480  0.3687
 4114TIP3   OH212305   3.636   0.672   3.480 -0.4884  0.0715  0.2253
 4114TIP3    H112306   3.588   0.723   3.415 -0.5979  0.2688  0.4575
 4114TIP3    H212307   3.687   0.737   3.529  2.1538 -0.3322 -1.7193
 4115TIP3   OH212308   0.601   6.198   4.760  0.1959 -0.3739  0.1736
 4115TIP3    H112309   0.654   6.267   4.720 -0.0960  0.4497  1.1549
 4115TIP3    H212310   0.627   6.118   4.715  0.7849  0.3285 -0.7623
 4116TIP3   OH212311   5.583   5.353   0.928  0.0305  0.5770  0.0267
 4116TIP3    H112312   5.569   5.283   0.865  1.5787  0.5057 -0.2914
 4116TIP3    H212313   5.622   5.310   1.004  0.1064  0.9612  0.2107
 4117TIP3   OH212314   4.576   3.236   2.707 -0.5401 -0.0806 -0.0416
 4117TIP3    H112315   4.522   3.315   2.708  1.5386  1.5066 -2.0413
 4117TIP3    H212316   4.514   3.165   2.691 -2.1849  1.4918 -1.0208
 4118TIP3   OH212317   5.684   5.285   2.014 -0.0841  0.0628  0.8876
 4118TIP3    H112318   5.763   5.230   2.010 -0.1307 -0.0527  1.4755
 4118TIP3    H212319   5.700   5.344   2.088 -1.2155 -1.0218  2.0529
 4119TIP3   OH212320   0.514   3.551   3.985 -0.2975  0.4157 -0.6013
 4119TIP3    H112321   0.578   3.594   4.041 -1.5816  1.4000  0.1611
 4119TIP3    H212322   0.468   3.491   4.043 -0.3304 -0.0044 -1.0570
 4120TIP3   OH212323   3.370   1.618   2.710  0.1688  0.2548 -0.3929
 4120TIP3    H112324   3.422   1.553   2.757 -0.3640  0.9460  1.2483
 4120TIP3    H212325   3.434   1.682   2.679  0.4152  0.6413  0.8520
 4121TIP3   OH212326   1.191   5.981   5.139 -0.7388  0.0643 -0.5321
 4121TIP3    H112327   1.187   6.048   5.072 -2.3494  0.0152 -0.5195
 4121TIP3    H212328   1.188   6.029   5.222  2.2483  0.1950 -0.3904
 4122TIP3   OH212329   6.868   2.355   1.803 -0.0903  0.2629  0.1389
 4122TIP3    H112330   6.825   2.428   1.760  0.0700  0.6200  0.5766
 4122TIP3    H212331   6.838   2.359   1.894 -1.4708 -1.2746 -0.1949
 4123TIP3   OH212332   4.226   1.209   4.520 -0.4873 -0.1968 -0.5150
 4123TIP3    H112333   4.145   1.245   4.482 -0.5288 -0.7965 -1.0233
 4123TIP3    H212334   4.284   1.284   4.528 -1.6865  0.5999  1.5259
 4124TIP3   OH212335   3.123   2.029   2.616 -0.2589  0.4644  0.3115
 4124TIP3    H112336   3.070   2.098   2.575  1.1580 -0.5303 -3.6340
 4124TIP3    H212337   3.080   1.948   2.591  1.9388 -0.2770 -1.3994
 4125TIP3   OH212338   4.087   2.009   2.664  0.3019 -0.1044  0.2126
 4125TIP3    H112339   4.079   1.923   2.706 -1.4961 -0.6811 -1.1489
 4125TIP3    H212340   4.181   2.027   2.662  0.5885 -1.1174  2.2735
 4126TIP3   OH212341   4.883   4.134   5.763 -0.4641  0.0283 -0.7649
 4126TIP3    H112342   4.908   4.151   5.672 -2.4760 -1.2031 -1.6242
 4126TIP3    H212343   4.846   4.045   5.762 -1.1669  0.2405  1.1126
 4127TIP3   OH212344   2.116   0.535   2.518 -0.2211 -0.1084  0.7116
 4127TIP3    H112345   2.156   0.467   2.572  1.0736  0.2911  0.3002
 4127TIP3    H212346   2.190   0.584   2.483 -0.9488 -0.7028 -1.9128
 4128TIP3   OH212347   3.669   0.237   2.420  0.0178  0.4952  0.4938
 4128TIP3    H112348   3.655   0.150   2.458  4.2351 -1.0753 -0.9343
 4128TIP3    H212349   3.723   0.283   2.485 -0.9850  1.5418  0.6090
 4129TIP3   OH212350   0.934   2.307   3.217 -0.2740 -0.3840  0.6593
 4129TIP3    H112351   0.995   2.381   3.219 -3.6770  2.6528  2.9797
 4129TIP3    H212352   0.937   2.271   3.306  0.5849 -2.5196 -0.1678
 4130TIP3   OH212353   5.082   5.342   3.773  0.5117 -0.1605 -0.2575
 4130TIP3    H112354   5.116   5.310   3.690  0.8372  0.4751 -0.3754
 4130TIP3    H212355   5.008   5.398   3.749 -0.9497 -1.8802  0.0172
 4131TIP3   OH212356   5.153   0.768   3.643 -0.4207 -0.4599 -0.2169
 4131TIP3    H112357   5.225   0.817   3.681  0.1547 -1.9539  0.6978
 4131TIP3    H212358   5.076   0.823   3.656  0.2057  0.2023  0.7369
 4132TIP3   OH212359   6.695   3.939   0.036  0.3706 -0.1270  0.3364
 4132TIP3    H112360   6.778   3.987   0.043 -0.1874  0.9354 -0.1788
 4132TIP3    H212361   6.641   3.974   0.107  0.1274 -0.3535  0.2657
 4133TIP3   OH212362   4.196   4.549   3.757 -0.1431 -0.3942  0.3364
 4133TIP3    H112363   4.166   4.584   3.674 -1.4866  0.4387  1.1317
 4133TIP3    H212364   4.291   4.540   3.747 -0.2120  0.2108 -1.0786
 4134TIP3   OH212365   4.545   1.930   0.581 -0.8060  0.3947 -0.0042
 4134TIP3    H112366   4.554   1.934   0.486 -1.4545  0.6146 -0.0628
 4134TIP3    H212367   4.601   2.000   0.614 -0.0854 -0.0837 -0.1811
 4135TIP3   OH212368   4.393   1.643   1.303  0.0215 -0.7568  0.2786
 4135TIP3    H112369   4.373   1.645   1.210  1.1089  0.5373  0.0417
 4135TIP3    H212370   4.308   1.655   1.346 -0.4017 -0.6764 -0.5541
 4136TIP3   OH212371   0.128   1.653   0.038  0.0335 -0.5448  0.0552
 4136TIP3    H112372   0.091   1.694  -0.041  1.3795 -0.0075 -0.3170
 4136TIP3    H212373   0.125   1.722   0.104  1.5233 -0.0843 -0.3360
 4137TIP3   OH212374   3.309   5.307   4.720 -0.3397  0.1043 -0.3449
 4137TIP3    H112375   3.323   5.389   4.672  0.9204 -0.6564 -1.3010
 4137TIP3    H212376   3.252   5.255   4.663  1.3720 -0.9062 -1.2066
 4138TIP3   OH212377   2.646   1.979   2.603 -0.0749 -0.0514 -0.2491
 4138TIP3    H112378   2.700   1.900   2.601 -0.9957 -0.6913 -0.3238
 4138TIP3    H212379   2.677   2.027   2.680  0.3287 -0.6078 -0.0564
 4139TIP3   OH212380   3.634   5.698   4.756 -0.1925 -0.1937  0.3770
 4139TIP3    H112381   3.704   5.640   4.726 -0.1199  0.1763 -0.1940
 4139TIP3    H212382   3.652   5.782   4.713  0.3495  0.5999  2.0878
 4140TIP3   OH212383   0.033   5.175   2.276 -0.1547 -0.3816  0.3912
 4140TIP3    H112384   0.122   5.180   2.243 -1.2158  0.7797 -2.5991
 4140TIP3    H212385  -0.010   5.110   2.221 -1.3923 -0.2573  1.1644
 4141TIP3   OH212386   3.090   5.082   5.528 -0.1357 -0.2590 -0.3398
 4141TIP3    H112387   3.067   5.003   5.478  1.0913  0.0021 -1.3571
 4141TIP3    H212388   3.150   5.051   5.595  0.0482 -0.2491 -0.4993
 4142TIP3   OH212389   1.392   6.537   4.567 -0.0406  0.0786  0.4767
 4142TIP3    H112390   1.296   6.537   4.569 -0.0565  1.9684  1.6854
 4142TIP3    H212391   1.415   6.596   4.495  0.1692  1.4304  1.6163
 4143TIP3   OH212392   2.903   3.104   5.343 -0.2395 -0.2268 -0.5777
 4143TIP3    H112393   2.825   3.159   5.340 -1.5864 -2.0317 -0.5494
 4143TIP3    H212394   2.969   3.153   5.294 -0.6456  2.3741  1.2683
 4144TIP3   OH212395   4.632   4.513   3.942  0.4222  0.1500  0.0880
 4144TIP3    H112396   4.703   4.479   3.887  0.0325 -0.8364  0.1754
 4144TIP3    H212397   4.602   4.437   3.992 -1.8297  0.1239 -1.1928
 4145TIP3   OH212398   3.413   3.865   3.381  0.5904  0.2413  0.3399
 4145TIP3    H112399   3.357   3.928   3.336  0.9428  0.6887  0.5295
 4145TIP3    H212400   3.455   3.915   3.450  1.3098 -0.0745  0.1343
 4146TIP3   OH212401   3.925   5.940   1.652  0.0424 -0.7844 -0.2220
 4146TIP3    H112402   3.834   5.943   1.624 -0.4353  0.9621  1.2938
 4146TIP3    H212403   3.928   5.995   1.730  2.1263 -1.9345  0.6136
 4147TIP3   OH212404   2.390   5.044   3.415  0.0499  0.0971  0.4095
 4147TIP3    H112405   2.459   5.015   3.475 -1.0398  1.1530  2.2901
 4147TIP3    H212406   2.316   4.987   3.434 -0.6198  1.0635  0.8304
 4148TIP3   OH212407   7.072   3.864   0.209  0.3960 -0.5847 -0.1524
 4148TIP3    H112408   7.138   3.804   0.242  0.4263 -0.7642 -0.5357
 4148TIP3    H212409   7.101   3.886   0.120 -0.6097 -1.5132 -0.7421
 4149TIP3   OH212410   0.213   2.280   3.107 -1.0174 -0.2848  0.1190
 4149TIP3    H112411   0.200   2.328   3.188  0.8015  0.4286  0.0339
 4149TIP3    H212412   0.211   2.188   3.132  0.0367 -0.0637  1.0863
 4150TIP3   OH212413   1.039   4.716   3.024  0.1453  0.1190 -0.0481
 4150TIP3    H112414   0.984   4.638   3.016  2.5798 -1.8634  1.0561
 4150TIP3    H212415   0.979   4.785   3.053 -2.6134 -0.5423 -3.4310
 4151TIP3   OH212416   0.567   0.249   1.010  0.0264  0.8325 -0.0785
 4151TIP3    H112417   0.577   0.209   1.096  1.8078  1.6341  0.1438
 4151TIP3    H212418   0.566   0.175   0.949 -1.3445  0.2527  0.6016
 4152TIP3   OH212419   1.310   3.657   0.266  0.1885  0.3449 -0.4575
 4152TIP3    H112420   1.343   3.671   0.177 -0.8649 -0.8508 -1.0864
 4152TIP3    H212421   1.226   3.611   0.253 -0.4360  0.9657  1.1285
 4153TIP3   OH212422   0.090   5.452   3.893  0.6247  0.0498  0.5942
 4153TIP3    H112423   0.169   5.438   3.840  1.4342 -0.0278  1.7865
 4153TIP3    H212424   0.107   5.404   3.974 -1.2831 -1.1790  0.3018
 4154TIP3   OH212425   5.017   6.135   1.314  0.3875  0.4968 -0.1118
 4154TIP3    H112426   4.939   6.176   1.277 -0.5899 -0.9674  0.2610
 4154TIP3    H212427   5.090   6.174   1.266 -0.5918  1.5792 -0.7620
 4155TIP3   OH212428   2.826   4.802   1.319  0.1671 -0.1307  0.4176
 4155TIP3    H112429   2.820   4.887   1.275 -0.4968 -1.0523 -1.3772
 4155TIP3    H212430   2.920   4.791   1.336  0.4368  0.3226 -0.6919
 4156TIP3   OH212431   4.333   5.893   2.984  0.1856  0.2135  0.3429
 4156TIP3    H112432   4.322   5.983   3.014  0.5250 -0.0397  1.2649
 4156TIP3    H212433   4.395   5.900   2.911 -0.5237  0.8185 -0.2211
 4157TIP3   OH212434   5.048   1.087   2.326 -0.2630  0.7767  0.2283
 4157TIP3    H112435   4.981   1.023   2.305 -0.3866  0.2451  2.1296
 4157TIP3    H212436   5.029   1.162   2.269 -1.1945 -0.1612 -0.7189
 4158TIP3   OH212437   5.085   1.323   2.187  0.0645 -0.2909  1.0188
 4158TIP3    H112438   5.152   1.338   2.121 -0.7811 -1.9483 -0.2830
 4158TIP3    H212439   5.034   1.404   2.188  0.4172 -0.0390  0.0284
 4159TIP3   OH212440   6.434   0.134   1.751 -0.3896 -0.9025  0.2808
 4159TIP3    H112441   6.436   0.116   1.845 -2.0425 -1.3947  0.2576
 4159TIP3    H212442   6.524   0.119   1.721  1.0583  2.5081  2.3243
 4160TIP3   OH212443   6.061   3.891   4.296  0.8982  0.0836 -0.1128
 4160TIP3    H112444   6.131   3.864   4.355  0.2258  0.0770  0.6994
 4160TIP3    H212445   6.006   3.813   4.287  0.7989  0.1918 -0.4628
 4161TIP3   OH212446   3.310   5.879   3.403  0.2548  0.1729  0.0045
 4161TIP3    H112447   3.372   5.940   3.363  0.1254  0.2679 -0.0531
 4161TIP3    H212448   3.339   5.872   3.494  0.5132  0.0050 -0.0887
 4162TIP3   OH212449   3.388   5.797   3.666 -0.3009 -0.3128 -0.5519
 4162TIP3    H112450   3.444   5.794   3.744 -0.1749  0.0734 -0.6257
 4162TIP3    H212451   3.344   5.882   3.672 -0.3251 -0.3042 -0.8788
 4163TIP3   OH212452   7.116   4.271   0.791  0.0649 -0.1396 -0.5594
 4163TIP3    H112453   7.089   4.328   0.719 -0.9147 -0.3519 -0.3773
 4163TIP3    H212454   7.081   4.185   0.767 -3.5733  0.4376  1.8077
 4164TIP3   OH212455   2.454   6.376   3.555 -0.2127 -0.3065 -0.2868
 4164TIP3    H112456   2.404   6.358   3.635 -1.0881  2.5366 -0.0843
 4164TIP3    H212457   2.545   6.360   3.580 -0.2706  2.1382  1.9211
 4165TIP3   OH212458   7.081   1.993   3.005 -0.6521  0.6173  0.4465
 4165TIP3    H112459   7.126   1.921   3.049 -0.1970  0.0848 -0.8385
 4165TIP3    H212460   7.006   2.012   3.061  0.1665  0.3063  1.6941
 4166TIP3   OH212461   4.720   5.462   0.925 -0.7175  0.1122  0.1689
 4166TIP3    H112462   4.632   5.460   0.963 -0.4697  0.6967  0.8115
 4166TIP3    H212463   4.725   5.547   0.881 -1.0811 -0.6636 -1.4120
 4167TIP3   OH212464   0.891   0.187   3.941  0.1411  0.3620 -0.3029
 4167TIP3    H112465   0.875   0.264   3.997  1.2071  0.0996  0.4128
 4167TIP3    H212466   0.974   0.207   3.897 -0.3800  0.2934 -1.3375
 4168TIP3   OH212467   0.466   0.176   3.592  0.5084  0.1291  0.8689
 4168TIP3    H112468   0.496   0.199   3.680 -1.0723  0.3573  1.3884
 4168TIP3    H212469   0.509   0.240   3.535 -0.4314  1.6547  1.8010
 4169TIP3   OH212470   6.407   6.323   1.201  0.0457  0.4061  0.4081
 4169TIP3    H112471   6.501   6.337   1.211 -0.1211  0.4879  2.3556
 4169TIP3    H212472   6.399   6.231   1.174  0.7128  0.6924 -0.7935
 4170TIP3   OH212473   5.566   2.726   1.451 -0.2745 -0.1159  0.3942
 4170TIP3    H112474   5.539   2.723   1.359 -1.5565  0.4024  0.7254
 4170TIP3    H212475   5.490   2.763   1.497  0.4798 -0.0138  1.6102
 4171TIP3   OH212476   5.585   6.265   5.478  0.5105  0.0560 -0.2718
 4171TIP3    H112477   5.585   6.184   5.528  1.6961  1.9011  3.0296
 4171TIP3    H212478   5.493   6.293   5.478  0.1727 -1.0154 -1.0170
 4172TIP3   OH212479   4.186   3.529   2.756  0.0433 -0.2869 -0.4329
 4172TIP3    H112480   4.113   3.556   2.812 -0.9226 -1.1362 -1.2557
 4172TIP3    H212481   4.165   3.567   2.671  0.6057 -0.4866 -0.6606
 4173TIP3   OH212482   0.088   2.093   2.645 -0.1742 -0.0632  0.4345
 4173TIP3    H112483   0.113   2.185   2.632 -2.2507  0.4219 -0.6032
 4173TIP3    H212484   0.095   2.055   2.558 -0.0448 -0.6996  0.7227
 4174TIP3   OH212485   2.744   2.902   1.008  0.0670 -0.0023  0.1210
 4174TIP3    H112486   2.798   2.849   0.949 -0.6751  0.1789 -0.7425
 4174TIP3    H212487   2.802   2.923   1.081  0.2263 -2.5309  0.8281
 4175TIP3   OH212488   1.018   0.854   1.981 -0.4020 -0.5022  0.5052
 4175TIP3    H112489   1.085   0.921   1.985 -0.0662 -0.7922 -0.1715
 4175TIP3    H212490   0.940   0.896   2.018 -0.4261  0.5348 -0.6572
 4176TIP3   OH212491   5.962   1.638   1.165  0.1980 -0.2804  0.0234
 4176TIP3    H112492   5.909   1.681   1.098  1.7928 -0.9980 -1.7899
 4176TIP3    H212493   5.899   1.599   1.225 -1.5712 -3.7577 -3.6569
 4177TIP3   OH212494   1.677   1.060   0.499  0.2583  0.8299  0.0927
 4177TIP3    H112495   1.687   1.048   0.594 -0.5491  1.1260  0.2266
 4177TIP3    H212496   1.582   1.066   0.486  0.3211  0.0295 -0.8380
 4178TIP3   OH212497   5.662   0.274   4.164  0.1179 -0.0753 -0.1275
 4178TIP3    H112498   5.667   0.346   4.227  1.2241  0.2273 -0.5348
 4178TIP3    H212499   5.583   0.294   4.113  0.2425  0.6957 -0.0416
 4179TIP3   OH212500   1.772   3.554   3.160 -0.1245  0.0910 -0.3079
 4179TIP3    H112501   1.814   3.498   3.094 -0.5304  1.6776 -2.0260
 4179TIP3    H212502   1.680   3.530   3.156 -0.0069 -0.4891  0.4077
 4180TIP3   OH212503   4.664   2.475   5.856  0.1102 -0.0266 -0.1327
 4180TIP3    H112504   4.574   2.453   5.834 -0.5631  1.5056  0.9138
 4180TIP3    H212505   4.679   2.561   5.815  0.4314  0.6146  1.2577
 4181TIP3   OH212506   1.491   0.089   4.079  0.0009  0.0107  0.3653
 4181TIP3    H112507   1.471   0.100   4.172 -1.6764 -2.7913  0.4456
 4181TIP3    H212508   1.472   0.174   4.040 -2.1104  0.4389  2.1612
 4182TIP3   OH212509   4.441   6.614   4.606 -0.1685  0.1333 -0.0583
 4182TIP3    H112510   4.411   6.552   4.540 -0.9440  0.1584  0.2645
 4182TIP3    H212511   4.384   6.599   4.681 -0.2545  1.1241  0.0816
 4183TIP3   OH212512   6.619   3.377   1.315 -0.1787  0.6654  0.2595
 4183TIP3    H112513   6.670   3.351   1.239 -1.3415 -0.9975 -0.0046
 4183TIP3    H212514   6.530   3.389   1.282 -0.5511  0.6812  1.2248
 4184TIP3   OH212515   1.469   1.003   1.159 -0.7612  0.6101 -0.1600
 4184TIP3    H112516   1.430   1.090   1.142 -3.4167 -0.1134  1.5290
 4184TIP3    H212517   1.468   0.960   1.074 -0.5091  1.8093 -0.8046
 4185TIP3   OH212518   5.527   1.451   4.394  0.3037 -0.5080  0.7590
 4185TIP3    H112519   5.487   1.531   4.429  0.0195 -0.0973 -0.4808
 4185TIP3    H212520   5.466   1.421   4.327  1.3261 -0.7361 -0.0902
 4186TIP3   OH212521   5.848   2.840   3.674  0.7757  0.5831  0.2481
 4186TIP3    H112522   5.934   2.871   3.647  1.5206 -0.6814  1.0697
 4186TIP3    H212523   5.823   2.776   3.607  0.8851  0.2858  0.4906
 4187TIP3   OH212524   3.325   2.952   5.164  0.4754 -0.0972 -0.2657
 4187TIP3    H112525   3.267   3.027   5.150  0.4708 -0.2148 -0.9288
 4187TIP3    H212526   3.400   2.968   5.107 -0.2372 -1.3411 -1.6158
 4188TIP3   OH212527   3.403   4.326   0.110 -0.0416 -0.0068 -0.2012
 4188TIP3    H112528   3.454   4.388   0.162 -1.4075  0.8431  0.2031
 4188TIP3    H212529   3.318   4.370   0.099 -0.5608 -1.2098 -1.1263
 4189TIP3   OH212530   6.244   5.641   3.832  0.6924 -0.5744 -0.1909
 4189TIP3    H112531   6.158   5.673   3.860  1.1425  0.8988 -0.3916
 4189TIP3    H212532   6.273   5.585   3.904 -0.6702 -1.6047 -0.3913
 4190TIP3   OH212533   1.061   4.414   4.502  0.4725 -0.2819 -0.5831
 4190TIP3    H112534   0.998   4.370   4.560  0.3927 -1.8815 -1.8311
 4190TIP3    H212535   1.006   4.456   4.436  0.4663  2.7136  1.1232
 4191TIP3   OH212536   5.252   0.608   1.331  0.3059 -0.0749 -0.2267
 4191TIP3    H112537   5.318   0.541   1.347  0.9581 -0.0644 -2.4420
 4191TIP3    H212538   5.194   0.569   1.265  0.1516  1.1804 -0.8649
 4192TIP3   OH212539   5.406   4.939   1.669 -0.2328  0.3397 -0.3833
 4192TIP3    H112540   5.311   4.948   1.674 -0.4006 -0.7063 -1.1555
 4192TIP3    H212541   5.419   4.868   1.606  1.0519  0.2358 -0.0224
 4193TIP3   OH212542   0.623   4.128   5.301 -0.1294 -0.0456 -0.0532
 4193TIP3    H112543   0.669   4.137   5.218 -1.2120 -0.6057 -0.7463
 4193TIP3    H212544   0.581   4.213   5.315  0.0183  0.0359 -0.1087
 4194TIP3   OH212545   6.229   2.385   0.918 -0.2431  0.1901  0.3066
 4194TIP3    H112546   6.278   2.442   0.860 -1.3034  1.9256  1.0285
 4194TIP3    H212547   6.168   2.339   0.861  0.1342  0.3027 -0.1962
 4195TIP3   OH212548   1.676   2.011   2.368 -0.8374  0.5396  0.2971
 4195TIP3    H112549   1.677   2.030   2.275  2.1246  1.6837  0.4521
 4195TIP3    H212550   1.650   2.093   2.410 -0.5207  0.5281  0.5230
 4196TIP3   OH212551   7.002   2.171   2.288  0.0596  1.1961  0.2700
 4196TIP3    H112552   6.916   2.209   2.309  0.5426  2.5346 -0.1038
 4196TIP3    H212553   7.018   2.109   2.359  0.1461  3.1630  2.0610
 4197TIP3   OH212554   4.601   1.651   3.820  0.4165 -0.8745  0.0053
 4197TIP3    H112555   4.677   1.628   3.766  0.0304 -1.7452 -0.1883
 4197TIP3    H212556   4.635   1.650   3.910  1.1164  0.8113 -0.2048
 4198TIP3   OH212557   0.262   2.954   5.333  0.2692 -0.9019  0.5807
 4198TIP3    H112558   0.203   2.926   5.403 -0.1852 -1.3497  0.0206
 4198TIP3    H212559   0.227   2.914   5.254  0.9146 -0.5874  0.1268
 4199TIP3   OH212560   1.472   4.080   2.723  0.2051  0.2574 -0.0831
 4199TIP3    H112561   1.472   4.170   2.689  0.4805  0.3808  0.2284
 4199TIP3    H212562   1.521   4.086   2.805 -0.6046  0.0051  0.4338
 4200TIP3   OH212563   5.417   0.178   5.374  0.2861  0.1098  0.1968
 4200TIP3    H112564   5.450   0.263   5.344  0.3327  0.2670  0.6834
 4200TIP3    H212565   5.356   0.151   5.306 -0.2353  0.8471  0.3574
 4201TIP3   OH212566   0.702   4.215   3.278  0.6987 -0.5005  0.4009
 4201TIP3    H112567   0.717   4.265   3.359  2.9372 -0.3281 -0.0673
 4201TIP3    H212568   0.706   4.124   3.306  0.1857 -0.4496  0.6670
 4202TIP3   OH212569   1.956   4.689   2.742  0.0276  0.3454 -0.8706
 4202TIP3    H112570   2.002   4.766   2.706  2.0158  0.2447  1.1573
 4202TIP3    H212571   2.000   4.614   2.702 -0.9808  0.2513 -1.8102
 4203TIP3   OH212572   0.342   2.174   1.838  0.1246 -0.0400 -0.3167
 4203TIP3    H112573   0.343   2.167   1.743  1.1739 -1.1714 -0.2435
 4203TIP3    H212574   0.250   2.160   1.862  0.0537 -0.9605 -1.0910
 4204TIP3   OH212575   1.750   6.743   0.143 -0.5593 -0.5737 -0.3459
 4204TIP3    H112576   1.723   6.705   0.060  0.4939  0.4872 -1.2079
 4204TIP3    H212577   1.844   6.757   0.134 -0.3467 -0.7817  1.1779
 4205TIP3   OH212578   1.745   1.540   1.654 -0.0337  0.4469  0.2503
 4205TIP3    H112579   1.758   1.634   1.637 -2.1422  0.6890 -0.2942
 4205TIP3    H212580   1.833   1.502   1.644  1.1160  2.5157  1.7514
 4206TIP3   OH212581   1.950   2.288   0.301 -0.0848 -0.0687 -0.2192
 4206TIP3    H112582   1.894   2.229   0.352 -1.1244 -0.1355 -1.4079
 4206TIP3    H212583   2.020   2.312   0.362 -0.7601 -0.9060  0.9323
 4207TIP3   OH212584   0.948   2.999   3.044 -0.0531  0.1390  0.4706
 4207TIP3    H112585   1.036   2.963   3.056  0.4776  1.6521  1.2854
 4207TIP3    H212586   0.900   2.970   3.122 -0.4834 -1.1750 -0.2471
 4208TIP3   OH212587   5.172   4.303   1.121  0.4915 -0.1169 -0.2101
 4208TIP3    H112588   5.256   4.274   1.155  0.5177  0.1086 -0.0876
 4208TIP3    H212589   5.141   4.368   1.183 -0.5283 -1.3523  0.6276
 4209TIP3   OH212590   5.491   3.631   1.435 -0.1113  0.1817  0.3950
 4209TIP3    H112591   5.499   3.644   1.340  0.4835 -1.2571  0.2279
 4209TIP3    H212592   5.457   3.715   1.468 -0.6018  0.6068 -1.1159
 4210TIP3   OH212593   4.978   5.875   1.305  0.3003  0.3360  0.0116
 4210TIP3    H112594   4.992   5.968   1.322  2.3996 -0.1069  0.9688
 4210TIP3    H212595   4.958   5.871   1.211  0.2668  1.7356 -0.0625
 4211TIP3   OH212596   3.587   4.128   0.233  0.1912 -0.3179  0.3571
 4211TIP3    H112597   3.561   4.048   0.187  0.1423 -0.8314  1.2656
 4211TIP3    H212598   3.544   4.198   0.184 -0.9738 -0.9628  0.4114
 4212TIP3   OH212599   6.555   4.391   2.418  0.0630  0.2230  0.2630
 4212TIP3    H112600   6.616   4.412   2.489  0.1772  0.2870  0.1470
 4212TIP3    H212601   6.468   4.405   2.455 -0.0727 -3.1286  1.5727
 4213TIP3   OH212602   5.855   3.835   0.052  0.5794  0.3149 -0.0764
 4213TIP3    H112603   5.825   3.919   0.016 -0.0198 -0.8156 -2.3521
 4213TIP3    H212604   5.790   3.813   0.119  0.3838  1.3408  0.0853
 4214TIP3   OH212605   3.212   1.083   1.890  0.2932 -0.1897 -0.0136
 4214TIP3    H112606   3.165   1.017   1.839  1.5654 -0.7643 -0.4627
 4214TIP3    H212607   3.234   1.151   1.826  2.2547 -1.1026 -0.3573
 4215TIP3   OH212608   5.026   3.711   5.298 -0.3299 -0.0843  0.0427
 4215TIP3    H112609   5.111   3.750   5.276 -0.1635  0.0244  0.8506
 4215TIP3    H212610   4.967   3.785   5.307 -0.3493 -0.1136  0.1603
 4216TIP3   OH212611   2.962   0.057   2.336  0.9126 -0.4435 -0.1202
 4216TIP3    H112612   2.996   0.067   2.247  0.6909  0.0205 -0.1581
 4216TIP3    H212613   3.040   0.042   2.390  0.9371 -2.0955 -0.5680
 4217TIP3   OH212614   4.772   0.235   3.830 -0.3331 -0.6165 -0.0527
 4217TIP3    H112615   4.744   0.163   3.773  2.5566 -1.6971 -0.2780
 4217TIP3    H212616   4.776   0.196   3.917  2.2593 -1.1376 -0.3361
 4218TIP3   OH212617   4.657   3.215   3.443 -0.2705  0.4178 -0.5355
 4218TIP3    H112618   4.596   3.144   3.463 -0.4290  0.5841 -0.4381
 4218TIP3    H212619   4.624   3.253   3.362 -1.4870  1.8454  0.5821
 4219TIP3   OH212620   3.779   6.278   2.754 -0.2184 -0.3887  0.1042
 4219TIP3    H112621   3.830   6.337   2.811 -0.5035 -0.8680  0.8779
 4219TIP3    H212622   3.839   6.205   2.737 -0.0505 -0.1362 -0.4220
 4220TIP3   OH212623   3.281   0.442   0.567 -0.5047  0.4126  0.7180
 4220TIP3    H112624   3.375   0.437   0.546 -0.8185 -0.8750 -0.5464
 4220TIP3    H212625   3.279   0.441   0.663  0.7494 -1.0063  0.7802
 4221TIP3   OH212626   3.771   4.999   5.214  0.3256 -0.3485  0.9867
 4221TIP3    H112627   3.800   4.955   5.293 -0.2160  1.2766  2.1456
 4221TIP3    H212628   3.676   5.009   5.225  0.3964  0.8412  0.6350
 4222TIP3   OH212629   3.075   1.870   2.866  0.6214 -0.1718 -0.2094
 4222TIP3    H112630   3.002   1.818   2.832 -0.0546 -0.2697  1.3517
 4222TIP3    H212631   3.077   1.947   2.809 -1.2404  0.2326  0.2244
 4223TIP3   OH212632   4.517   2.762   2.611  0.4871 -0.2547  0.0980
 4223TIP3    H112633   4.546   2.807   2.691  1.7326 -0.7324 -0.0579
 4223TIP3    H212634   4.484   2.832   2.555  0.2097  0.1687  0.7778
 4224TIP3   OH212635   0.552   4.485   1.318 -0.3870 -0.3952  1.0890
 4224TIP3    H112636   0.470   4.495   1.269 -0.4437  0.4094  1.3297
 4224TIP3    H212637   0.570   4.573   1.351  0.0638 -0.7737  1.8549
 4225TIP3   OH212638   1.222   4.214   3.428  0.5311 -0.1732  0.3544
 4225TIP3    H112639   1.188   4.125   3.422  0.3177 -0.0555 -0.3828
 4225TIP3    H212640   1.174   4.262   3.360  0.9828  0.3923  0.4275
 4226TIP3   OH212641   2.837   4.607   4.848  0.2384  0.4828  0.4308
 4226TIP3    H112642   2.917   4.657   4.862  0.9647 -0.9060  1.5866
 4226TIP3    H212643   2.781   4.629   4.923 -0.0014  0.6144  0.2137
 4227TIP3   OH212644   1.770   3.550   0.186  0.7904 -0.0093  0.1772
 4227TIP3    H112645   1.832   3.498   0.237  0.6188  0.6015  1.0241
 4227TIP3    H212646   1.722   3.601   0.251 -0.9214 -0.7920 -0.4259
 4228TIP3   OH212647   0.947   4.112   0.798  0.0408  0.2260 -0.2680
 4228TIP3    H112648   0.952   4.033   0.851  1.7564 -1.8258 -3.2075
 4228TIP3    H212649   0.871   4.098   0.741 -0.8478  1.6863  0.4915
 4229TIP3   OH212650   3.487   4.299   2.028  0.4032  0.4452 -0.1868
 4229TIP3    H112651   3.445   4.373   2.072  0.4415 -0.3591  1.2642
 4229TIP3    H212652   3.577   4.328   2.012  0.7806  0.3086  1.5094
 4230TIP3   OH212653   1.306   5.019   1.798 -0.7559  0.7729  0.1621
 4230TIP3    H112654   1.281   5.083   1.731 -0.8027  0.1669 -0.4105
 4230TIP3    H212655   1.400   5.033   1.811 -0.4597  0.0056 -1.0180
 4231TIP3   OH212656   2.258   3.601   5.205 -0.1668  0.1779 -0.2390
 4231TIP3    H112657   2.249   3.514   5.246 -0.6054  0.2435 -0.1929
 4231TIP3    H212658   2.348   3.603   5.173  0.2353  0.1853  0.8596
 4232TIP3   OH212659   6.199   4.713   0.854  0.1644 -0.0022  0.1980
 4232TIP3    H112660   6.149   4.631   0.850 -1.8233  1.0098  1.9708
 4232TIP3    H212661   6.232   4.717   0.943  0.6047  0.9326  0.0038
 4233TIP3   OH212662   6.376   4.645   3.343 -0.2835  0.1101  0.3501
 4233TIP3    H112663   6.458   4.664   3.296 -0.6208 -0.6238 -0.5769
 4233TIP3    H212664   6.307   4.665   3.279 -0.7967 -0.1081  0.8307
 4234TIP3   OH212665   6.018   5.658   3.295 -0.3524 -0.0465  0.1202
 4234TIP3    H112666   6.067   5.606   3.232  0.6537  1.0552 -0.0459
 4234TIP3    H212667   6.059   5.639   3.379 -1.4724 -1.2530  0.4160
 4235TIP3   OH212668   5.714   2.798   5.887 -0.2899 -0.0142 -0.1240
 4235TIP3    H112669   5.679   2.823   5.802  1.3058  0.4367 -0.6851
 4235TIP3    H212670   5.745   2.708   5.875  1.1363  0.4988 -0.4347
 4236TIP3   OH212671   3.488   5.746   1.176 -0.5418  0.2246  0.3376
 4236TIP3    H112672   3.534   5.673   1.135 -0.1224  0.0251  1.1244
 4236TIP3    H212673   3.499   5.819   1.115  0.0550 -0.0669  0.0874
 4237TIP3   OH212674   5.192   2.700   2.629  0.0753  0.2627 -0.3807
 4237TIP3    H112675   5.161   2.612   2.604 -0.9399  0.1930  1.0329
 4237TIP3    H212676   5.199   2.697   2.724  2.9036  0.8279 -0.4719
 4238TIP3   OH212677   6.723   0.532   0.033 -0.1258 -0.5174  0.3863
 4238TIP3    H112678   6.763   0.445   0.033 -0.6871 -0.7968  1.3060
 4238TIP3    H212679   6.721   0.558  -0.059 -1.4129 -2.1806 -0.1221
 4239TIP3   OH212680   3.693   2.452   5.868 -0.6246  0.0885 -0.2169
 4239TIP3    H112681   3.701   2.402   5.787  0.8544 -0.5662  0.3099
 4239TIP3    H212682   3.599   2.450   5.887 -0.8599 -0.6788 -1.3227
 4240TIP3   OH212683   6.709   5.969   5.732 -0.2762  0.4169  0.9188
 4240TIP3    H112684   6.751   6.055   5.725  1.3198 -0.3763  0.1682
 4240TIP3    H212685   6.724   5.943   5.823  1.5261 -0.1189  0.5191
 4241TIP3   OH212686   0.585   0.778   4.354  0.2250  0.0550  0.4026
 4241TIP3    H112687   0.577   0.821   4.269 -0.5304 -1.8521 -0.5567
 4241TIP3    H212688   0.538   0.835   4.415  0.1413  1.0743 -0.6012
 4242TIP3   OH212689   4.378   2.264   0.287  0.3293  0.1231 -0.0677
 4242TIP3    H112690   4.365   2.173   0.260 -1.3308  0.0416  0.8075
 4242TIP3    H212691   4.389   2.259   0.382  2.6430  0.6674 -0.2609
 4243TIP3   OH212692   3.406   4.787   4.931 -0.3513 -0.2306 -0.5844
 4243TIP3    H112693   3.411   4.809   5.024 -2.3360 -0.0604 -0.4726
 4243TIP3    H212694   3.338   4.845   4.897  0.0408 -0.5975 -2.0629
 4244TIP3   OH212695   4.042   2.197   1.367  0.7029  0.0485  0.3603
 4244TIP3    H112696   4.043   2.193   1.463 -1.3168  1.3887  0.4982
 4244TIP3    H212697   4.054   2.289   1.347  0.8524 -0.1885 -0.6682
 4245TIP3   OH212698   4.398   4.041   1.084  0.3739 -0.6069 -0.4444
 4245TIP3    H112699   4.471   4.016   1.141 -0.5965 -0.9689  0.6867
 4245TIP3    H212700   4.353   4.110   1.132  0.6232  0.4450 -1.6732
 4246TIP3   OH212701   2.973   0.011   4.540  0.0449 -0.5718  0.2983
 4246TIP3    H112702   2.899   0.071   4.532  0.9468  0.5726  0.3795
 4246TIP3    H212703   3.007   0.003   4.451  1.6986  1.3774  0.6874
 4247TIP3   OH212704   2.652   0.385   4.083 -0.1817  0.0311  0.4873
 4247TIP3    H112705   2.666   0.479   4.072 -0.9459 -0.0113 -0.9897
 4247TIP3    H212706   2.617   0.377   4.172 -0.3371  1.1544  0.5475
 4248TIP3   OH212707   3.985   2.287   0.567  0.1724  0.0860  0.1674
 4248TIP3    H112708   4.001   2.228   0.641 -2.0988  0.6546  1.2118
 4248TIP3    H212709   3.978   2.229   0.491 -0.9821 -0.9228  1.0076
 4249TIP3   OH212710   4.987   1.756   5.321 -0.3350 -0.1407  0.2407
 4249TIP3    H112711   4.985   1.850   5.306 -1.0941 -0.2350 -0.2869
 4249TIP3    H212712   5.067   1.726   5.276 -0.3510  0.1777 -0.0037
 4250TIP3   OH212713   4.231   4.851   4.851  0.8219 -0.1503 -0.3002
 4250TIP3    H112714   4.181   4.839   4.770 -0.5211  0.4331  0.4156
 4250TIP3    H212715   4.312   4.894   4.822  0.1766  0.4393 -1.2890
 4251TIP3   OH212716   5.805   6.305   1.246  0.7704 -0.3188  0.3677
 4251TIP3    H112717   5.883   6.281   1.195  0.2372 -0.3353 -0.4521
 4251TIP3    H212718   5.829   6.388   1.288  1.3885 -0.5467  0.4849
 4252TIP3   OH212719   1.168   6.733   3.714 -0.2597  0.2415 -0.1914
 4252TIP3    H112720   1.116   6.655   3.733 -1.0802  1.0788  1.1789
 4252TIP3    H212721   1.254   6.714   3.752 -1.4614  1.3114  3.5754
 4253TIP3   OH212722   4.092   5.002   4.035 -0.3939 -0.7093  0.7327
 4253TIP3    H112723   4.102   4.925   3.980  1.1728  1.1389 -1.7648
 4253TIP3    H212724   4.180   5.039   4.042 -1.5196  2.8839 -1.4314
 4254TIP3   OH212725   1.798   0.963   4.899 -0.3549  0.2544  0.0264
 4254TIP3    H112726   1.893   0.974   4.908  0.3526 -2.7225 -1.9765
 4254TIP3    H212727   1.765   1.051   4.883  2.1295  1.3467  0.4200
 4255TIP3   OH212728   3.876   6.058   3.222  0.0664 -0.0715 -0.6913
 4255TIP3    H112729   3.961   6.046   3.265 -0.2604 -1.7061 -0.4643
 4255TIP3    H212730   3.895   6.047   3.129 -0.0073 -1.2125 -0.5834
 4256TIP3   OH212731   1.380   4.218   4.469 -0.3069 -0.2279 -0.2900
 4256TIP3    H112732   1.294   4.211   4.428 -0.8816  1.7279  0.4735
 4256TIP3    H212733   1.381   4.146   4.533 -3.5118  2.3888  3.2204
 4257TIP3   OH212734   2.345   4.205   0.319 -0.5003  0.1673 -0.1760
 4257TIP3    H112735   2.359   4.281   0.376 -1.8086 -0.3248  0.8614
 4257TIP3    H212736   2.267   4.162   0.355 -0.7860 -0.7289 -1.7634
 4258TIP3   OH212737   5.520   0.664   2.422 -0.2957  0.1212 -0.0112
 4258TIP3    H112738   5.595   0.723   2.414 -1.5360  1.9204  0.9282
 4258TIP3    H212739   5.467   0.682   2.345 -0.1985 -0.5242 -0.2348
 4259TIP3   OH212740   2.077   0.634   1.868  0.2205 -0.5816  0.1481
 4259TIP3    H112741   2.127   0.631   1.950 -0.4324  0.9366  0.6357
 4259TIP3    H212742   2.140   0.608   1.801  0.8940 -1.4149  1.0701
 4260TIP3   OH212743   1.331   3.477   2.569  0.4776 -0.0567 -0.2812
 4260TIP3    H112744   1.317   3.407   2.506  1.5403  0.1421 -0.7625
 4260TIP3    H212745   1.426   3.485   2.575  0.3767  1.1306  0.0024
 4261TIP3   OH212746   1.645   3.269   3.801 -0.3556 -0.0838 -0.3279
 4261TIP3    H112747   1.641   3.336   3.868 -0.1998 -1.4005  1.0457
 4261TIP3    H212748   1.711   3.207   3.832 -0.0619 -0.5890 -1.8443
 4262TIP3   OH212749   4.330   0.423   4.392 -0.1879  0.4152 -0.1790
 4262TIP3    H112750   4.421   0.448   4.381 -0.3579  1.3855  0.4698
 4262TIP3    H212751   4.298   0.480   4.462 -0.1037 -2.8741  2.8257
 4263TIP3   OH212752   1.975   0.083   0.516 -0.2490 -0.3454 -0.0013
 4263TIP3    H112753   2.023   0.108   0.595 -0.9260 -1.4361  0.7840
 4263TIP3    H212754   1.925   0.161   0.492  1.1911  0.5234 -0.3300
 4264TIP3   OH212755   5.433   3.568   4.023  0.2007 -0.4798  0.1722
 4264TIP3    H112756   5.346   3.537   3.996 -0.4550 -0.8358  2.4284
 4264TIP3    H212757   5.429   3.663   4.010 -0.6236 -0.4647  0.4231
 4265TIP3   OH212758   3.161   0.114   2.148 -0.6482  0.1270 -0.4121
 4265TIP3    H112759   3.147   0.207   2.128  1.0984  0.0677 -2.1580
 4265TIP3    H212760   3.251   0.111   2.183 -0.9635 -0.8327  0.3570
 4266TIP3   OH212761   0.158   1.262   4.554  0.0981  0.5024  0.7642
 4266TIP3    H112762   0.232   1.231   4.606 -0.1538 -0.4351  0.5826
 4266TIP3    H212763   0.105   1.183   4.537 -0.7083  1.0780  0.5217
 4267TIP3   OH212764   6.789   3.894   3.507  0.0882 -0.5854 -0.6420
 4267TIP3    H112765   6.699   3.917   3.531  0.1567  1.0463 -1.7675
 4267TIP3    H212766   6.843   3.954   3.559  0.4811 -0.8069 -0.7864
 4268TIP3   OH212767   4.965   2.756   3.643  0.0753 -0.0755 -0.0732
 4268TIP3    H112768   4.966   2.685   3.579  1.9975 -0.2836  0.1225
 4268TIP3    H212769   4.950   2.712   3.727  0.3282 -0.1332 -0.0587
 4269TIP3   OH212770   1.476   4.388   1.969 -0.4166 -0.3624 -0.8126
 4269TIP3    H112771   1.556   4.365   1.922 -1.1235  0.5971 -2.5981
 4269TIP3    H212772   1.503   4.451   2.035  0.3387 -0.3134 -1.1614
 4270TIP3   OH212773   2.828   5.633   0.192 -0.3114  0.2353 -0.0524
 4270TIP3    H112774   2.740   5.667   0.204 -0.9535 -0.9031 -1.2763
 4270TIP3    H212775   2.815   5.541   0.168  1.1269  0.4377 -1.8253
 4271TIP3   OH212776   6.496   1.731   0.350  0.4945 -0.1210  0.5452
 4271TIP3    H112777   6.563   1.714   0.284  0.6757 -0.1633  0.7408
 4271TIP3    H212778   6.491   1.827   0.355 -0.8993 -0.0729 -0.9377
 4272TIP3   OH212779   2.821   2.126   0.076  0.3181 -0.0378 -0.1331
 4272TIP3    H112780   2.879   2.144   0.002  1.1020 -0.0744  0.4620
 4272TIP3    H212781   2.755   2.066   0.040  1.6381 -1.3742 -0.4124
 4273TIP3   OH212782   0.391   2.403   3.447  0.2938  0.1270  0.3191
 4273TIP3    H112783   0.448   2.328   3.467  1.2170  1.1872  1.8793
 4273TIP3    H212784   0.305   2.375   3.478  0.4516 -0.6049  0.1307
 4274TIP3   OH212785   3.088   4.648   2.068 -0.5062  0.2093 -0.2689
 4274TIP3    H112786   3.148   4.681   2.135  0.1653  1.4886 -1.4330
 4274TIP3    H212787   3.020   4.602   2.117 -0.7480  2.1759  1.4052
 4275TIP3   OH212788   5.793   3.903   0.972  0.1663 -0.2960  0.1446
 4275TIP3    H112789   5.739   3.859   0.907 -0.3588 -0.7200  0.8643
 4275TIP3    H212790   5.874   3.924   0.925 -0.7407  0.6776 -1.0436
 4276TIP3   OH212791   6.329   1.906   1.783  0.2595 -1.0508  0.2017
 4276TIP3    H112792   6.354   1.968   1.714 -0.3004 -1.9919 -0.8802
 4276TIP3    H212793   6.264   1.953   1.835 -0.5949 -0.9109 -0.9534
 4277TIP3   OH212794   6.567   3.171   1.751  0.1843  0.4577 -0.7781
 4277TIP3    H112795   6.528   3.258   1.742 -1.5012 -0.1462  0.2423
 4277TIP3    H212796   6.614   3.157   1.669 -0.4433  1.8694 -1.4137
 4278TIP3   OH212797   3.768   3.319   0.189  0.0099 -0.1802 -0.0070
 4278TIP3    H112798   3.684   3.305   0.233  0.8764 -0.0958  1.8015
 4278TIP3    H212799   3.789   3.235   0.148  0.4108 -1.1732  2.0965
 4279TIP3   OH212800   2.068   5.212   2.408 -0.3521 -0.0016  0.2796
 4279TIP3    H112801   2.135   5.209   2.477  0.5087  1.4089 -0.4501
 4279TIP3    H212802   1.985   5.221   2.455  0.2702  1.5104  1.1383
 4280TIP3   OH212803   5.663   4.920   2.646  0.1994 -0.3666  0.4142
 4280TIP3    H112804   5.661   4.913   2.551 -0.8268  0.1608  0.3792
 4280TIP3    H212805   5.741   4.972   2.665 -0.4597  0.9238 -0.2635
 4281TIP3   OH212806   0.732   2.511   1.383  0.5012 -0.9324 -0.0718
 4281TIP3    H112807   0.717   2.446   1.314  3.2219  1.0110 -2.7662
 4281TIP3    H212808   0.682   2.587   1.356  2.6179  0.3001 -0.7387
 4282TIP3   OH212809   2.052   6.712   2.163  0.1775 -0.8134 -0.4818
 4282TIP3    H112810   2.089   6.667   2.239  0.9784 -0.3699 -0.6051
 4282TIP3    H212811   2.083   6.802   2.171 -0.0069 -0.6861 -1.1673
 4283TIP3   OH212812   6.020   1.179   1.458  0.2685  0.0502  0.4484
 4283TIP3    H112813   6.098   1.133   1.428 -0.4752 -2.0585  1.5225
 4283TIP3    H212814   5.992   1.130   1.535 -1.0478  1.9052  1.2316
 4284TIP3   OH212815   3.195   1.890   0.604  1.0175  0.0058 -0.0521
 4284TIP3    H112816   3.209   1.984   0.610  0.9248  0.0096  0.1044
 4284TIP3    H212817   3.249   1.854   0.675  2.9808 -0.2499 -1.5789
 4285TIP3   OH212818   2.050   6.576   0.938  0.2367 -0.5191 -0.2131
 4285TIP3    H112819   2.055   6.488   0.902  1.9482 -0.3641 -0.4449
 4285TIP3    H212820   2.070   6.566   1.031  0.0237 -0.4189 -0.1551
 4286TIP3   OH212821   4.060   5.503   1.233  0.4339 -0.7477 -0.4302
 4286TIP3    H112822   4.126   5.513   1.301 -0.4648 -0.3639  0.4007
 4286TIP3    H212823   4.004   5.580   1.242 -0.6221 -1.4761 -0.5700
 4287TIP3   OH212824   1.021   3.666   1.327  0.2445 -0.3500  0.4461
 4287TIP3    H112825   0.975   3.696   1.249  0.5977 -0.4387  0.2012
 4287TIP3    H212826   1.069   3.588   1.299  1.8513  0.6511  0.2494
 4288TIP3   OH212827   2.915   2.221   2.005  0.3909  0.0140  0.5085
 4288TIP3    H112828   2.845   2.177   1.956  1.2294 -2.1572  1.1347
 4288TIP3    H212829   2.986   2.231   1.942  0.5751 -0.5245  0.6226
 4289TIP3   OH212830   5.545   4.094   0.562 -0.4332 -0.4176  0.3363
 4289TIP3    H112831   5.509   4.147   0.634 -1.8504  0.0758 -0.6846
 4289TIP3    H212832   5.528   4.003   0.588  1.5862 -0.4124  1.8818
 4290TIP3   OH212833   0.669   3.513   2.501  0.1464 -0.3275  0.2971
 4290TIP3    H112834   0.581   3.480   2.483  0.5641 -1.3081 -0.0209
 4290TIP3    H212835   0.693   3.474   2.585  0.2399  0.0304  0.4404
 4291TIP3   OH212836   0.663   2.596   0.159  0.0040 -0.2903 -0.0095
 4291TIP3    H112837   0.573   2.582   0.128 -0.1046  0.2381  0.0474
 4291TIP3    H212838   0.707   2.640   0.086 -0.1931  0.7608  0.4939
 4292TIP3   OH212839   4.836   2.423   5.538  0.5774 -0.6666  0.0150
 4292TIP3    H112840   4.907   2.388   5.485  2.3128  0.0079  1.7390
 4292TIP3    H212841   4.866   2.411   5.628 -0.2712  2.0410  0.7614
 4293TIP3   OH212842   0.196   2.955   1.874  0.1950 -0.4014  0.3525
 4293TIP3    H112843   0.186   2.918   1.786 -1.1694  0.2298  0.2194
 4293TIP3    H212844   0.247   2.889   1.921  2.0997 -0.1779 -1.2389
 4294TIP3   OH212845   6.619   2.945   4.401 -0.2756 -0.3938 -0.1282
 4294TIP3    H112846   6.645   2.989   4.482  0.7981 -0.1094 -0.6066
 4294TIP3    H212847   6.698   2.945   4.347 -0.7852 -1.1985 -0.9057
 4295TIP3   OH212848   2.875   4.624   5.287 -0.6225  0.0311  0.0653
 4295TIP3    H112849   2.811   4.678   5.239 -1.4502 -0.1363  0.9355
 4295TIP3    H212850   2.845   4.535   5.273 -0.4270 -0.0675  0.2798
 4296TIP3   OH212851   5.292   2.585   3.897 -0.9401  0.8220 -0.0930
 4296TIP3    H112852   5.262   2.624   3.979 -0.1638  1.2821 -0.0229
 4296TIP3    H212853   5.293   2.657   3.835  3.0361  1.6583  0.6781
 4297TIP3   OH212854   4.988   6.804   1.909 -0.3740 -0.1003  0.4489
 4297TIP3    H112855   5.037   6.735   1.864 -1.4749 -1.1419  0.7773
 4297TIP3    H212856   5.048   6.878   1.912  1.1642 -1.3014  0.8023
 4298TIP3   OH212857   5.151   3.835   2.866 -0.2685 -0.1984  0.1473
 4298TIP3    H112858   5.164   3.920   2.824  1.4107 -1.2215 -1.5378
 4298TIP3    H212859   5.112   3.780   2.798  0.6562 -1.3508  0.5147
 4299TIP3   OH212860   6.257   1.943   3.311  0.0839 -0.1105  0.2604
 4299TIP3    H112861   6.256   1.858   3.268  1.1773  0.0955 -0.2024
 4299TIP3    H212862   6.221   1.927   3.398 -0.4484 -0.8824 -0.0901
 4300TIP3   OH212863   3.656   6.617   5.665 -0.2050 -0.0663  0.0414
 4300TIP3    H112864   3.680   6.709   5.672 -1.2271  0.3817 -1.6822
 4300TIP3    H212865   3.708   6.573   5.733  0.9593  1.6315  0.3098
 4301TIP3   OH212866   6.337   2.275   2.734 -0.2466 -0.1085 -0.2264
 4301TIP3    H112867   6.298   2.191   2.711  2.4116 -1.4672 -0.1438
 4301TIP3    H212868   6.310   2.334   2.664 -3.1853 -0.5892  0.3438
 4302TIP3   OH212869   0.058   0.901   2.045 -0.1092 -0.4456  0.0598
 4302TIP3    H112870   0.061   0.877   2.138 -0.3677  0.1852  0.2306
 4302TIP3    H212871  -0.031   0.880   2.018 -0.1557 -0.2368  0.0551
 4303TIP3   OH212872   2.011   4.800   5.423 -0.2022  0.0627  0.2081
 4303TIP3    H112873   1.961   4.726   5.388 -0.6191  0.0990  0.7109
 4303TIP3    H212874   2.092   4.761   5.456 -0.0401 -0.0445 -0.3164
 4304TIP3   OH212875   6.169   1.907   5.420  0.1992  0.0497  0.4110
 4304TIP3    H112876   6.154   1.995   5.385  0.2034 -0.1567 -0.1048
 4304TIP3    H212877   6.099   1.895   5.484 -0.7683 -0.1936 -0.6591
 4305TIP3   OH212878   1.729   2.599   3.428  0.4613 -0.3012  0.2458
 4305TIP3    H112879   1.666   2.534   3.459 -0.7149 -0.0666 -1.5247
 4305TIP3    H212880   1.764   2.562   3.347 -0.0681  1.1304 -0.6785
 4306TIP3   OH212881   0.535   1.874   5.721 -0.1820 -0.1461  0.0483
 4306TIP3    H112882   0.487   1.799   5.755 -1.2065 -0.2826 -1.5921
 4306TIP3    H212883   0.626   1.845   5.718 -0.6267 -1.5153 -1.0083
 4307TIP3   OH212884   1.336   0.380   4.372 -0.1490  0.0840 -0.0130
 4307TIP3    H112885   1.317   0.418   4.458 -1.1110  0.2904 -0.3028
 4307TIP3    H212886   1.252   0.345   4.342 -0.1951  1.3564 -1.5101
 4308TIP3   OH212887   5.050   1.843   0.551 -0.0323 -0.0395  0.2397
 4308TIP3    H112888   5.001   1.885   0.622 -1.5144 -0.3818 -0.5379
 4308TIP3    H212889   4.999   1.862   0.472  0.8025 -0.8897 -0.5318
 4309TIP3   OH212890   3.919   2.384   3.413  0.1192 -0.0408 -0.1474
 4309TIP3    H112891   3.856   2.315   3.433  0.4045 -0.0754  0.6909
 4309TIP3    H212892   3.897   2.455   3.474  1.5593 -0.4727  0.9391
 4310TIP3   OH212893   2.018   4.291   5.176 -0.6518 -0.1458 -0.1089
 4310TIP3    H112894   2.106   4.281   5.213 -0.3445 -0.1882 -0.8465
 4310TIP3    H212895   1.971   4.213   5.205 -1.7129  1.6388  3.6647
 4311TIP3   OH212896   1.424   6.641   3.442 -0.3518  0.6467 -0.3258
 4311TIP3    H112897   1.484   6.625   3.515  0.2877  2.4158 -0.4204
 4311TIP3    H212898   1.390   6.729   3.457 -2.1666  0.0930 -0.8452
 4312TIP3   OH212899   1.031   3.344   5.451  0.4033  0.5985 -0.1173
 4312TIP3    H112900   0.985   3.389   5.521  0.2172  0.0809  0.0965
 4312TIP3    H212901   0.976   3.268   5.430  0.3333  0.8705 -0.9868
 4313TIP3   OH212902   1.055   6.743   1.993  0.4242 -0.0456  0.0988
 4313TIP3    H112903   1.009   6.669   1.955  0.1895 -0.1370  0.5589
 4313TIP3    H212904   1.096   6.787   1.918 -2.9102  1.8432 -0.8049
 4314TIP3   OH212905   0.280   6.267   1.478 -0.2376 -0.3663 -0.1132
 4314TIP3    H112906   0.279   6.176   1.507 -2.9197  0.1127  1.6725
 4314TIP3    H212907   0.339   6.311   1.539 -1.6955 -0.3413  1.3471
 4315TIP3   OH212908   0.473   0.411   3.435  0.3720  0.7762  0.9797
 4315TIP3    H112909   0.402   0.464   3.472 -1.2482 -0.8828  0.4036
 4315TIP3    H212910   0.486   0.447   3.347 -1.5811 -0.4424  0.1175
 4316TIP3   OH212911   6.804   6.251   3.198 -0.2379 -0.1481 -0.3783
 4316TIP3    H112912   6.787   6.345   3.190  0.7900  0.1629  0.8848
 4316TIP3    H212913   6.755   6.212   3.125 -1.2519  1.2861 -0.5041
 4317TIP3   OH212914   4.558   3.430   5.767 -0.1771  0.1498  0.2597
 4317TIP3    H112915   4.570   3.518   5.804 -0.0663  0.5363 -0.6712
 4317TIP3    H212916   4.465   3.425   5.745 -0.1344  0.1320  0.0778
 4318TIP3   OH212917   1.766   6.049   4.140  0.6058  0.5168  0.4763
 4318TIP3    H112918   1.761   6.135   4.098 -1.9700  0.0619 -0.3145
 4318TIP3    H212919   1.721   6.061   4.223 -0.4942 -0.2372  0.0048
 4319TIP3   OH212920   2.885   0.270   5.767  0.4230 -0.2156 -0.2133
 4319TIP3    H112921   2.813   0.252   5.828  0.1345  0.9331 -0.1913
 4319TIP3    H212922   2.964   0.248   5.815  0.1119 -1.0202 -0.0615
 4320TIP3   OH212923   4.972   3.025   3.814  0.5939  0.5298 -0.1259
 4320TIP3    H112924   5.050   3.010   3.761  1.4534  1.4419  0.8242
 4320TIP3    H212925   4.969   2.950   3.873  1.6542  1.1985  0.8387
 4321TIP3   OH212926   4.518   4.599   5.847 -0.0163  0.5800  0.4376
 4321TIP3    H112927   4.531   4.505   5.834 -0.0974  0.5267  0.7273
 4321TIP3    H212928   4.478   4.605   5.934 -0.3126  0.8606  0.2800
 4322TIP3   OH212929   3.105   3.853   0.777 -0.0177 -0.5400  0.5804
 4322TIP3    H112930   3.197   3.852   0.754 -0.5637  0.0825 -1.8592
 4322TIP3    H212931   3.085   3.761   0.799  1.5149 -0.3977  3.0428
 4323TIP3   OH212932   0.998   6.753   1.575  0.2975 -0.2630  0.8491
 4323TIP3    H112933   0.904   6.773   1.582  0.2395  0.3877 -1.1607
 4323TIP3    H212934   1.001   6.662   1.545  0.2984 -0.2001  0.6576
 4324TIP3   OH212935   0.179   0.255   1.533 -0.2481  0.0342 -0.2504
 4324TIP3    H112936   0.139   0.298   1.457  0.7111  1.3853 -0.0469
 4324TIP3    H212937   0.269   0.288   1.534  0.8779 -2.7517 -0.5929
 4325TIP3   OH212938   2.177   3.104   3.511 -0.1634  0.1860 -0.0533
 4325TIP3    H112939   2.206   3.018   3.540  0.7057  0.9376  1.4377
 4325TIP3    H212940   2.100   3.087   3.457  0.4699 -1.5639 -0.4453
 4326TIP3   OH212941   2.599   0.707   5.692  0.2272  0.1486 -0.4369
 4326TIP3    H112942   2.597   0.685   5.785  0.8388  0.4064 -0.3581
 4326TIP3    H212943   2.689   0.735   5.676 -0.2533  1.5519 -0.7790
 4327TIP3   OH212944   2.941   3.153   2.204  0.0523 -0.0754  0.7256
 4327TIP3    H112945   2.940   3.088   2.134  0.8201 -1.0795  1.5999
 4327TIP3    H212946   2.944   3.101   2.285  0.9707  1.0295  1.4466
 4328TIP3   OH212947   0.610   6.223   2.563 -0.6690 -0.0670  0.3530
 4328TIP3    H112948   0.620   6.230   2.658 -0.9557 -1.6736  0.5404
 4328TIP3    H212949   0.687   6.173   2.535 -1.8969 -1.9495  0.1415
 4329TIP3   OH212950   5.600   3.026   5.478 -0.0529 -0.2004 -0.0684
 4329TIP3    H112951   5.641   2.964   5.418  1.0784  0.7916 -0.3658
 4329TIP3    H212952   5.666   3.094   5.491 -0.6287  0.0817  1.5818
 4330TIP3   OH212953   0.474   5.898   5.223 -0.3806 -0.1193 -0.0076
 4330TIP3    H112954   0.497   5.986   5.250 -2.3062  1.2597 -2.4711
 4330TIP3    H212955   0.383   5.888   5.248 -0.5691 -0.8938 -0.9435
 4331TIP3   OH212956   5.754   2.867   0.609 -0.2199 -0.4577 -0.2673
 4331TIP3    H112957   5.727   2.829   0.525  0.1370  1.1449 -1.1706
 4331TIP3    H212958   5.679   2.854   0.667  0.0515 -2.8254 -0.3783
 4332TIP3   OH212959   0.629   5.744   3.833  0.4057  0.3017  0.0061
 4332TIP3    H112960   0.536   5.762   3.819  0.0853 -1.3492 -0.1298
 4332TIP3    H212961   0.662   5.720   3.746  0.4395 -1.2640  0.4326
 4333TIP3   OH212962   6.588   4.619   2.226  0.1671 -0.1815  0.2158
 4333TIP3    H112963   6.556   4.543   2.274  0.1771 -0.7812 -0.7086
 4333TIP3    H212964   6.512   4.676   2.217  0.0719 -0.2480  0.5846
 4334TIP3   OH212965   7.155   2.170   5.036 -0.6253 -0.2066  0.0765
 4334TIP3    H112966   7.118   2.083   5.020 -2.3132  0.6172 -0.8158
 4334TIP3    H212967   7.171   2.173   5.130 -1.1130 -1.2803  0.2016
 4335TIP3   OH212968   0.467   5.066   0.765  0.0370  0.0641 -0.1025
 4335TIP3    H112969   0.518   5.137   0.727 -0.2861  0.6571  0.5534
 4335TIP3    H212970   0.406   5.110   0.825  0.4348 -0.8364  0.9883
 4336TIP3   OH212971   1.095   6.563   3.183 -0.3046  0.0017  0.1138
 4336TIP3    H112972   1.052   6.480   3.161 -0.6428  0.2880 -0.3007
 4336TIP3    H212973   1.029   6.612   3.231 -0.0200 -0.0672  0.5774
 4337TIP3   OH212974   2.667   4.217   4.721 -0.3857 -0.3073 -0.3032
 4337TIP3    H112975   2.612   4.238   4.646  0.3261  2.0577 -0.2526
 4337TIP3    H212976   2.747   4.268   4.707  1.0303 -2.1534  0.5871
 4338TIP3   OH212977   6.423   5.062   1.139  0.5139  0.1866  0.2294
 4338TIP3    H112978   6.410   5.105   1.054  2.6135  0.1754 -0.1522
 4338TIP3    H212979   6.336   5.064   1.180 -0.4751  0.5201 -1.7437
 4339TIP3   OH212980   1.588   4.752   0.475 -0.2607  0.0715 -0.9124
 4339TIP3    H112981   1.531   4.697   0.422 -0.8637 -0.7585  0.5417
 4339TIP3    H212982   1.531   4.787   0.543 -0.1058  3.2092 -2.2178
 4340TIP3   OH212983   0.924   3.731   1.065 -0.0435 -0.3064  0.3268
 4340TIP3    H112984   0.950   3.677   0.990  1.8945 -1.2880  1.6042
 4340TIP3    H212985   0.940   3.821   1.036 -0.4052 -0.5859 -0.8117
 4341TIP3   OH212986   1.179   6.216   4.447  0.0944  0.1107 -0.3825
 4341TIP3    H112987   1.204   6.129   4.416 -2.4614 -0.6740 -0.4634
 4341TIP3    H212988   1.171   6.268   4.368 -0.8175 -0.2942 -0.5653
 4342TIP3   OH212989   1.776   1.162   3.132  0.1637 -0.2772 -0.6085
 4342TIP3    H112990   1.770   1.175   3.037 -0.3852 -0.2840 -0.5778
 4342TIP3    H212991   1.786   1.250   3.168 -1.4268 -0.0807 -0.5540
 4343TIP3   OH212992   2.935   5.861   4.296 -0.4143 -0.9425  0.3458
 4343TIP3    H112993   2.944   5.778   4.343 -1.2254 -1.2903 -0.0908
 4343TIP3    H212994   2.842   5.869   4.278 -0.5148  0.6117  1.3240
 4344TIP3   OH212995   2.397   1.402   5.739 -0.1422  0.1715  0.1519
 4344TIP3    H112996   2.352   1.445   5.666  0.3619  2.2317  0.9660
 4344TIP3    H212997   2.352   1.319   5.750 -0.9111  0.2791 -1.8200
 4345TIP3   OH212998   0.474   1.717   5.221  0.0549  0.2299  0.3325
 4345TIP3    H112999   0.508   1.651   5.281  0.4200  0.3918  0.3044
 4345TIP3    H213000   0.551   1.751   5.176  0.0146  1.3930  1.0726
 4346TIP3   OH213001  -0.037   5.035   4.947 -0.0301  0.0958  0.5738
 4346TIP3    H113002   0.021   5.097   4.904 -0.0768  0.5430  1.1537
 4346TIP3    H213003   0.020   4.965   4.977  0.0662  0.0208  0.2235
 4347TIP3   OH213004   2.818   0.612   5.514  0.0473 -0.5469  0.3846
 4347TIP3    H113005   2.868   0.538   5.480  0.2451 -0.7089  1.0180
 4347TIP3    H213006   2.858   0.689   5.473 -0.8231 -0.8452 -1.0944
 4348TIP3   OH213007   2.255   1.905   2.243 -0.1514  0.0035  0.2954
 4348TIP3    H113008   2.346   1.930   2.227 -0.2992  0.2874 -0.1062
 4348TIP3    H213009   2.204   1.976   2.204 -0.5374  0.2054  1.1315
 4349TIP3   OH213010   2.803   5.171   0.681  0.1587  0.2103 -0.2393
 4349TIP3    H113011   2.792   5.080   0.656  1.6598  0.0052 -0.2703
 4349TIP3    H213012   2.892   5.193   0.651  0.0519  1.4899  0.3176
 4350TIP3   OH213013   7.040   6.224   4.996  0.2789 -0.2721 -0.8143
 4350TIP3    H113014   6.980   6.244   4.924 -0.3670 -0.6770 -0.3964
 4350TIP3    H213015   7.122   6.199   4.953 -0.3888 -1.4550 -1.4333
 4351TIP3   OH213016   5.942   1.901   0.083  0.0073 -0.2020 -0.8300
 4351TIP3    H113017   5.877   1.911   0.153 -1.2397  1.0436 -2.1074
 4351TIP3    H213018   6.026   1.896   0.129 -0.8947 -1.0729  0.8207
 4352TIP3   OH213019   5.102   4.564   1.736  0.0198 -0.4127 -0.7374
 4352TIP3    H113020   5.080   4.628   1.669 -0.8630  0.0454 -0.0381
 4352TIP3    H213021   5.110   4.616   1.816  4.8951 -0.2980 -1.0147
 4353TIP3   OH213022   5.431   1.559   1.524 -0.1452 -0.0028 -0.1067
 4353TIP3    H113023   5.430   1.465   1.543 -0.7062  0.3742  1.9517
 4353TIP3    H213024   5.367   1.571   1.454 -0.8524 -1.0161  0.3573
 4354TIP3   OH213025   4.876   2.005   5.800  0.1937 -0.8034  0.2761
 4354TIP3    H113026   4.876   1.943   5.726  2.1656  0.0134 -0.4806
 4354TIP3    H213027   4.926   1.961   5.868 -0.5711 -1.0537  0.6830
 4355TIP3   OH213028   1.537   5.501   1.405  0.6101 -0.1412 -0.4964
 4355TIP3    H113029   1.621   5.539   1.379  1.1293 -0.0800  1.1273
 4355TIP3    H213030   1.559   5.442   1.477 -0.7844  0.3097  0.3400
 4356TIP3   OH213031   2.264   6.455   3.816 -0.0630  0.3253 -0.7828
 4356TIP3    H113032   2.243   6.548   3.828  0.6671  0.4689 -0.5567
 4356TIP3    H213033   2.222   6.432   3.733 -2.8799  0.0366  0.6043
 4357TIP3   OH213034   5.224   4.485   4.408 -0.1253  0.5369  0.1043
 4357TIP3    H113035   5.283   4.557   4.389  0.6098  0.7583  2.8029
 4357TIP3    H213036   5.162   4.520   4.472 -0.8149 -0.7386  0.1780
 4358TIP3   OH213037   4.227   3.378   0.027  0.4948  0.9830  0.1515
 4358TIP3    H113038   4.268   3.397   0.111  0.3501 -0.2757  0.5260
 4358TIP3    H213039   4.153   3.439   0.022 -0.0704  0.4337  1.3861
 4359TIP3   OH213040   7.165   0.857   5.011  0.7342  0.1644  0.1788
 4359TIP3    H113041   7.204   0.944   5.014  1.2498 -0.0565  3.2557
 4359TIP3    H213042   7.078   0.871   4.974 -0.5486  2.6952  3.5736
 4360TIP3   OH213043   0.219   5.573   1.364 -0.1565 -0.7232  0.3720
 4360TIP3    H113044   0.305   5.601   1.394  0.0144  0.1916 -0.8894
 4360TIP3    H213045   0.184   5.648   1.317 -0.4931 -1.9738 -1.4952
 4361TIP3   OH213046   1.698   6.756   4.233 -0.2424  0.5874  0.4446
 4361TIP3    H113047   1.652   6.830   4.194 -0.1738 -0.7725 -2.4493
 4361TIP3    H213048   1.629   6.701   4.270 -0.6906  0.1929 -0.9235
 4362TIP3   OH213049   5.648   5.965   3.381  0.1551 -0.7181 -0.4801
 4362TIP3    H113050   5.728   6.001   3.418  1.0761 -2.5884 -0.5114
 4362TIP3    H213051   5.641   6.005   3.294  2.1741 -1.9315 -1.2801
 4363TIP3   OH213052   4.976   2.447   0.679  0.5800 -0.2049  0.0414
 4363TIP3    H113053   5.026   2.422   0.601 -1.7585 -3.1670 -0.7290
 4363TIP3    H213054   4.895   2.485   0.645  0.1658 -0.1251  1.0684
 4364TIP3   OH213055   5.032   3.493   0.348 -0.2986  0.0482  0.3316
 4364TIP3    H113056   4.965   3.553   0.314  2.0834  2.8234  0.2231
 4364TIP3    H213057   5.005   3.407   0.315 -2.1489  1.4936 -2.3099
 4365TIP3   OH213058   7.038   4.751   5.456  0.1002  0.0023 -0.0995
 4365TIP3    H113059   7.120   4.713   5.487  0.7366 -0.7193 -2.4683
 4365TIP3    H213060   6.976   4.678   5.455  0.5274 -0.3737 -1.9241
 4366TIP3   OH213061   1.929   1.881   4.057 -0.0660 -0.3472  0.1863
 4366TIP3    H113062   2.011   1.911   4.098  0.1508 -1.8009  0.8490
 4366TIP3    H213063   1.926   1.929   3.974  1.2482  0.0494  0.3367
 4367TIP3   OH213064   4.449   4.011   0.824 -0.1792  0.0551  0.2072
 4367TIP3    H113065   4.534   3.968   0.824 -0.1466  0.1189  0.2304
 4367TIP3    H213066   4.432   4.031   0.916 -0.4955 -0.4986  0.2695
 4368TIP3   OH213067   0.502   5.364   2.229 -0.2304 -0.2807  0.9110
 4368TIP3    H113068   0.576   5.338   2.284  0.3465 -1.5158 -0.3579
 4368TIP3    H213069   0.430   5.306   2.256  0.2982 -1.4928 -0.1352
 4369TIP3   OH213070   4.769   2.927   2.948  0.4675  0.5092 -0.0306
 4369TIP3    H113071   4.803   2.983   2.878 -0.3884 -0.1964 -1.0417
 4369TIP3    H213072   4.843   2.913   3.006  1.0060  1.7074 -0.4063
 4370TIP3   OH213073   7.072   4.416   0.081  0.0212 -0.0292 -0.1112
 4370TIP3    H113074   7.061   4.322   0.069 -1.2022 -0.1836  1.8739
 4370TIP3    H213075   7.133   4.425   0.154  1.6162  0.7847 -1.4656
 4371TIP3   OH213076   0.759   3.656   4.150  0.0007 -0.1253 -0.0677
 4371TIP3    H113077   0.773   3.749   4.167  3.1856 -0.4195 -0.4937
 4371TIP3    H213078   0.774   3.614   4.235  1.0151 -0.4094 -0.3736
 4372TIP3   OH213079   7.209   1.059   2.521 -0.1500  0.2549  0.8210
 4372TIP3    H113080   7.212   1.047   2.426  2.4314  0.2359  0.8436
 4372TIP3    H213081   7.116   1.050   2.543 -1.2082  2.6123 -1.9624
 4373TIP3   OH213082   2.965   4.921   3.633  0.2952  0.1529  0.2956
 4373TIP3    H113083   2.994   4.898   3.721  1.5099  0.7663  0.0762
 4373TIP3    H213084   2.956   4.837   3.589 -0.6166 -0.1774  1.0792
 4374TIP3   OH213085   6.361   4.466   3.896 -0.3764  0.1729 -0.6623
 4374TIP3    H113086   6.312   4.540   3.931  0.2354 -0.1394  0.9603
 4374TIP3    H213087   6.301   4.391   3.906  0.4155 -0.2469  1.5126
 4375TIP3   OH213088   1.111   4.098   5.717  0.4169 -0.3096  0.3542
 4375TIP3    H113089   1.068   4.014   5.705  0.7759 -0.2188 -2.0624
 4375TIP3    H213090   1.152   4.092   5.803 -0.3993 -2.2127  0.6566
 4376TIP3   OH213091   3.822   2.269   4.476 -0.2500  0.0534 -0.3455
 4376TIP3    H113092   3.878   2.291   4.401 -0.8721  1.2476 -0.4896
 4376TIP3    H213093   3.742   2.234   4.436  0.7371 -2.7195 -0.1194
 4377TIP3   OH213094   0.959   0.738   5.163 -0.2626 -0.1850 -0.0174
 4377TIP3    H113095   0.929   0.799   5.096  0.5781 -0.3392 -0.5437
 4377TIP3    H213096   0.941   0.784   5.246 -0.1820  0.5253 -0.3818
 4378TIP3   OH213097   5.990   4.251   4.792 -0.2754 -0.1426  0.0640
 4378TIP3    H113098   5.916   4.197   4.764  0.3535 -0.8182 -0.3500
 4378TIP3    H213099   5.951   4.335   4.814 -1.0246 -0.0908 -1.3175
 4379TIP3   OH213100   5.004   2.068   2.650 -0.2361 -0.4204  0.5017
 4379TIP3    H113101   5.048   2.134   2.597 -0.3665 -0.5286  0.2602
 4379TIP3    H213102   5.033   1.984   2.615  0.1192 -0.4987  0.9623
 4380TIP3   OH213103   1.841   5.971   3.887 -0.3822 -0.2198  0.0970
 4380TIP3    H113104   1.750   6.001   3.897 -0.3900 -0.4694  0.8284
 4380TIP3    H213105   1.874   5.965   3.976  0.7660  1.0750 -0.1941
 4381TIP3   OH213106   1.616   0.142   0.324 -0.1688  0.3358 -0.4086
 4381TIP3    H113107   1.691   0.194   0.352  1.3188 -1.1707 -1.4401
 4381TIP3    H213108   1.548   0.160   0.390  1.0747  1.7216  0.5496
 4382TIP3   OH213109   2.403   2.638   3.552 -0.1661 -0.0649  0.2420
 4382TIP3    H113110   2.383   2.711   3.612 -2.9853 -1.4179  1.0910
 4382TIP3    H213111   2.452   2.576   3.606  0.4435  0.2624  0.0827
 4383TIP3   OH213112   4.228   2.593   5.353 -0.5302  0.0874  0.4581
 4383TIP3    H113113   4.136   2.618   5.365 -1.0401 -1.8771  1.0689
 4383TIP3    H213114   4.244   2.528   5.422  1.0476 -0.2535 -0.1961
 4384TIP3   OH213115   1.034   4.543  -0.007 -0.1252 -0.2145  0.4010
 4384TIP3    H113116   1.052   4.471  -0.067 -1.4329 -0.3573  0.1679
 4384TIP3    H213117   1.021   4.501   0.078  0.2268 -0.1404  0.4956
 4385TIP3   OH213118   7.001   3.028   3.469  0.1115  0.5700  0.0057
 4385TIP3    H113119   6.998   3.122   3.451 -0.1582  0.5896  0.1509
 4385TIP3    H213120   7.045   3.022   3.554 -1.5095  0.6962  0.9029
 4386TIP3   OH213121   0.677   6.323   3.865 -0.6808  0.0550  0.5880
 4386TIP3    H113122   0.750   6.284   3.817  0.6569  2.7155  0.2943
 4386TIP3    H213123   0.605   6.327   3.802  1.1400  3.8218 -1.5775
 4387TIP3   OH213124   5.197   6.578   1.422 -0.5820 -0.4038 -0.7281
 4387TIP3    H113125   5.163   6.665   1.443  0.6648  0.1011 -0.6974
 4387TIP3    H213126   5.292   6.587   1.430 -0.4511 -1.8929 -0.2693
 4388TIP3   OH213127   5.391   3.120   3.397 -0.4124 -0.0001 -0.1906
 4388TIP3    H113128   5.443   3.167   3.332 -0.5382  0.1213 -0.2030
 4388TIP3    H213129   5.322   3.181   3.421 -0.7838 -0.3099 -0.4684
 4389TIP3   OH213130   6.178   4.524   4.871 -0.0143 -0.6396  0.8158
 4389TIP3    H113131   6.232   4.548   4.796 -1.6186 -1.1846 -0.5715
 4389TIP3    H213132   6.219   4.445   4.906  1.6089  0.4439  1.4945
 4390TIP3   OH213133   6.730   6.800   3.829 -0.4241  0.3679  0.0725
 4390TIP3    H113134   6.719   6.710   3.801  1.0973  0.3011 -0.4276
 4390TIP3    H213135   6.806   6.798   3.888 -0.1528  1.3484 -0.2089
 4391TIP3   OH213136   0.804   6.813   3.650 -0.0518  0.0713 -0.2282
 4391TIP3    H113137   0.783   6.724   3.621 -0.0473  0.0170 -0.0654
 4391TIP3    H213138   0.805   6.808   3.746  0.2962  0.1659 -0.2235
 4392TIP3   OH213139   5.645   4.871   3.470  0.1926  0.1238  0.4508
 4392TIP3    H113140   5.557   4.901   3.492  0.5786  0.6884  1.2840
 4392TIP3    H213141   5.682   4.843   3.554  0.8112 -0.1030  0.1084
 4393TIP3   OH213142   2.629   4.337   2.971 -0.2315  0.4067  0.3101
 4393TIP3    H113143   2.660   4.264   2.917  0.2136  0.4965  0.4462
 4393TIP3    H213144   2.533   4.334   2.961 -0.1857  0.1170 -0.0864
 4394TIP3   OH213145   0.134   1.406   3.610 -0.1370  0.3570 -0.2961
 4394TIP3    H113146   0.205   1.437   3.667 -0.0676  0.1306 -0.2573
 4394TIP3    H213147   0.100   1.485   3.569 -0.0162  0.4938 -0.1352
 4395TIP3   OH213148   1.915   2.440   3.916  0.2455 -0.1031 -0.4561
 4395TIP3    H113149   1.996   2.437   3.866 -0.0677  0.2714 -1.0057
 4395TIP3    H213150   1.877   2.353   3.907  0.0304  0.0562 -1.1600
 4396TIP3   OH213151   4.214   5.857   3.544  0.0194  0.0423 -0.1874
 4396TIP3    H113152   4.307   5.840   3.534 -0.1639 -1.8428  0.8556
 4396TIP3    H213153   4.210   5.934   3.600  0.9934 -1.0023  1.3971
 4397TIP3   OH213154   5.801   0.955   2.220  0.7923  0.1884  0.8172
 4397TIP3    H113155   5.869   0.920   2.163 -0.9934 -2.8607  0.3215
 4397TIP3    H213156   5.783   0.884   2.282 -0.0283  1.9580  2.7343
 4398TIP3   OH213157   4.851   4.496   1.893  0.0062 -0.5870  0.0758
 4398TIP3    H113158   4.854   4.533   1.804 -0.3663 -0.4396  0.1236
 4398TIP3    H213159   4.779   4.543   1.936 -1.1173 -2.0105 -0.1579
 4399TIP3   OH213160   0.323   4.982   1.768 -0.3799  0.4330  0.4499
 4399TIP3    H113161   0.353   4.911   1.711 -1.1380  1.0462 -0.7548
 4399TIP3    H213162   0.345   4.953   1.857 -0.6210 -1.2682 -0.0158
 4400TIP3   OH213163   0.820   2.839   3.910 -0.1567  0.5853 -0.0521
 4400TIP3    H113164   0.815   2.829   3.815 -0.7050 -0.2971  0.0643
 4400TIP3    H213165   0.914   2.844   3.929 -0.0625  2.2476 -0.7718
 4401TIP3   OH213166   0.531   5.966   0.454  0.1145 -0.2333  0.1986
 4401TIP3    H113167   0.571   5.895   0.505  0.4840 -1.1758 -1.3462
 4401TIP3    H213168   0.549   5.944   0.363 -0.5347  1.4055 -0.3691
 4402TIP3   OH213169   0.675   6.240   1.655 -0.0173  0.1128 -0.3348
 4402TIP3    H113170   0.669   6.327   1.694  0.9915 -0.2792  0.7414
 4402TIP3    H213171   0.628   6.182   1.715 -0.5529 -0.1165 -0.9627
 4403TIP3   OH213172   5.477   2.987   3.038 -0.0047  0.3252 -0.2876
 4403TIP3    H113173   5.470   2.955   2.949  2.0965  2.3689 -1.3045
 4403TIP3    H213174   5.495   3.081   3.028  6.1876 -0.1559  1.8623
 4404TIP3   OH213175   5.953   1.188   4.692 -0.2630 -0.0266 -0.1299
 4404TIP3    H113176   5.882   1.198   4.629 -0.3157  1.7447  0.1758
 4404TIP3    H213177   6.006   1.116   4.656 -0.1524  1.0717 -2.3474
 4405TIP3   OH213178   4.079   4.191   0.684  0.0122 -0.3716  0.1410
 4405TIP3    H113179   3.999   4.230   0.649 -0.2984  0.6431  1.8979
 4405TIP3    H213180   4.143   4.201   0.614 -0.2214  2.7966  0.2412
 4406TIP3   OH213181   5.449   0.465   4.539 -0.1978 -0.3406  0.4385
 4406TIP3    H113182   5.387   0.526   4.579  0.7868  0.6804  0.4447
 4406TIP3    H213183   5.520   0.457   4.602  0.1444 -0.7235  0.0108
 4407TIP3   OH213184   2.901   0.833   1.034  0.3681  0.5413 -0.5611
 4407TIP3    H113185   2.820   0.787   1.058  1.0106 -0.3735 -0.1346
 4407TIP3    H213186   2.948   0.772   0.978  1.9612 -0.0088  1.2579
 4408TIP3   OH213187   3.518   0.844   3.317  0.5763  0.1319 -0.8361
 4408TIP3    H113188   3.432   0.824   3.280  0.2719  0.3604 -0.2518
 4408TIP3    H213189   3.502   0.915   3.378  1.2070  0.2729 -0.8289
 4409TIP3   OH213190   3.924   3.880   3.283 -0.5743  0.5688 -0.0843
 4409TIP3    H113191   3.977   3.948   3.241  0.7877 -0.1430  0.4153
 4409TIP3    H213192   3.986   3.809   3.301 -2.1877 -1.4202 -1.8308
 4410TIP3   OH213193   2.349   5.244   1.503 -0.0564 -0.8089  0.1611
 4410TIP3    H113194   2.267   5.195   1.508  0.2917 -1.3000  1.3004
 4410TIP3    H213195   2.416   5.183   1.534  0.5754 -0.0461  0.3471
 4411TIP3   OH213196   4.148   0.791   5.444  0.4494  0.1388 -0.5459
 4411TIP3    H113197   4.164   0.751   5.530 -1.0192  0.3533 -0.1549
 4411TIP3    H213198   4.220   0.759   5.389  0.4981 -1.3160  0.3248
 4412TIP3   OH213199   7.196   4.537   2.986 -0.2506  0.2155 -0.0883
 4412TIP3    H113200   7.117   4.589   2.967 -2.0163 -1.5148  1.9553
 4412TIP3    H213201   7.218   4.561   3.077  0.5810 -0.5413 -0.0867
 4413TIP3   OH213202   1.076   1.530   5.661 -0.4307  0.3127 -0.1003
 4413TIP3    H113203   1.109   1.620   5.660 -2.6596  1.1836 -1.3645
 4413TIP3    H213204   1.003   1.532   5.723  0.2527 -0.9847  0.8183
 4414TIP3   OH213205   2.961   4.973   0.868  0.3712  0.0522 -0.0417
 4414TIP3    H113206   2.960   5.066   0.846 -1.8233 -0.3451 -1.9631
 4414TIP3    H213207   2.988   4.929   0.787 -1.2213 -1.1090  0.0111
 4415TIP3   OH213208   5.601   4.470   0.032 -0.3812 -0.1929  0.2747
 4415TIP3    H113209   5.562   4.557   0.038 -0.7957 -0.3634  0.1676
 4415TIP3    H213210   5.549   4.426  -0.036 -0.4290 -0.6501  0.6006
 4416TIP3   OH213211   0.908   4.616   0.765 -0.5401  0.4881  0.0528
 4416TIP3    H113212   0.830   4.636   0.713 -0.6484 -1.0962 -0.4501
 4416TIP3    H213213   0.880   4.627   0.856 -0.5843  2.4647 -0.1628
 4417TIP3   OH213214   5.285   1.004   5.269  0.1127 -0.5326 -0.2642
 4417TIP3    H113215   5.246   0.970   5.350 -0.2892  0.2461 -0.1201
 4417TIP3    H213216   5.377   0.979   5.275  0.1485 -0.2516  0.5803
 4418TIP3   OH213217   4.718   0.279   5.207  0.4646 -0.3264  0.2705
 4418TIP3    H113218   4.699   0.246   5.295 -0.0442 -0.6235  0.0505
 4418TIP3    H213219   4.789   0.224   5.175  0.2308 -0.6174  0.2546
 4419TIP3   OH213220   2.562   5.337   2.582  0.2801  0.1341  0.2425
 4419TIP3    H113221   2.651   5.352   2.552  0.2696 -1.4763 -0.7102
 4419TIP3    H213222   2.532   5.422   2.614  1.2777  1.2991 -1.7427
 4420TIP3   OH213223   4.796   1.294   1.363 -0.0193  0.2926  0.1662
 4420TIP3    H113224   4.846   1.340   1.295 -0.2703 -1.6418 -1.4294
 4420TIP3    H213225   4.742   1.232   1.314 -1.2204 -0.2541  2.0889
 4421TIP3   OH213226   1.208   0.868   3.931 -0.3465 -0.6466 -0.0623
 4421TIP3    H113227   1.246   0.821   3.857  0.4110 -1.2710  0.6929
 4421TIP3    H213228   1.163   0.943   3.892  0.4148 -0.7136 -1.1146
 4422TIP3   OH213229   2.728   1.690   2.554  0.0704  0.4710 -0.0493
 4422TIP3    H113230   2.655   1.632   2.574 -0.6636  1.6265  0.7248
 4422TIP3    H213231   2.729   1.695   2.458 -0.6519  0.1947 -0.0759
 4423TIP3   OH213232   2.722   6.461   2.453 -0.3008 -0.3799 -0.2982
 4423TIP3    H113233   2.742   6.454   2.546  3.4269  0.2225 -0.8924
 4423TIP3    H213234   2.695   6.552   2.441 -1.8494 -0.7339  0.2899
 4424TIP3   OH213235   4.082   5.343   1.748  0.0511 -0.6312 -0.2893
 4424TIP3    H113236   4.027   5.343   1.826 -0.4569  0.1540 -0.6358
 4424TIP3    H213237   4.023   5.369   1.677  0.2396 -2.3682 -1.1418
 4425TIP3   OH213238   6.244   1.842   0.644  0.1305 -0.4366 -0.0577
 4425TIP3    H113239   6.325   1.803   0.677 -0.2811 -0.1585  1.3355
 4425TIP3    H213240   6.235   1.923   0.693 -0.7164 -0.2016 -0.5931
 4426TIP3   OH213241   5.612   5.950   4.453 -0.9063 -0.3348 -0.0895
 4426TIP3    H113242   5.544   6.005   4.492 -0.7593  0.0865 -0.4126
 4426TIP3    H213243   5.619   5.875   4.511 -2.0896 -0.6959 -0.3932
 4427TIP3   OH213244   2.561   4.402   5.610 -0.4733 -0.5630  0.4639
 4427TIP3    H113245   2.645   4.360   5.625 -1.4960 -2.9773 -0.0576
 4427TIP3    H213246   2.524   4.415   5.698 -1.2480 -3.3479  0.6396
 4428TIP3   OH213247   6.517   4.249   2.856  0.3903 -0.1325 -0.1304
 4428TIP3    H113248   6.435   4.231   2.810  0.4796  0.5709 -0.5825
 4428TIP3    H213249   6.490   4.297   2.934  0.3729  0.2328 -0.3555
 4429TIP3   OH213250   2.478   3.630   1.118  0.4840 -0.0021  0.2087
 4429TIP3    H113251   2.473   3.547   1.165  1.8758  0.3176  0.9911
 4429TIP3    H213252   2.458   3.696   1.184  2.5665  0.4571  0.4465
 4430TIP3   OH213253   6.602   3.152   5.749 -0.4858  0.0805  0.3908
 4430TIP3    H113254   6.697   3.142   5.758 -0.6430 -1.0543  0.9395
 4430TIP3    H213255   6.581   3.112   5.664 -0.6780 -1.2743  1.0522
 4431TIP3   OH213256   2.434   3.908   1.717 -0.5088 -1.0398 -0.1101
 4431TIP3    H113257   2.433   3.911   1.812  0.2381 -1.7657 -0.0674
 4431TIP3    H213258   2.525   3.886   1.695  0.8084  4.0111 -1.1294
 4432TIP3   OH213259   1.885   5.141   5.118 -0.1111 -0.2580 -0.1161
 4432TIP3    H113260   1.901   5.235   5.111  1.4230 -0.6170 -2.0146
 4432TIP3    H213261   1.859   5.114   5.030  0.8640 -1.8293  0.0412
 4433TIP3   OH213262   6.959   4.676   3.465  0.3670  0.5948  0.5870
 4433TIP3    H113263   6.892   4.716   3.410  1.4806  0.9639 -0.5370
 4433TIP3    H213264   6.964   4.585   3.436 -0.6551  0.1503  1.6893
 4434TIP3   OH213265   1.840   4.710   1.020 -0.3859 -0.1242 -0.0568
 4434TIP3    H113266   1.907   4.743   0.961 -0.0953 -0.1453  0.2569
 4434TIP3    H213267   1.788   4.787   1.043 -0.1322 -0.0058  0.1308
 4435TIP3   OH213268   1.501   5.585   4.616  0.1192  0.4660 -0.1828
 4435TIP3    H113269   1.475   5.609   4.705  1.5497 -0.1670  0.4407
 4435TIP3    H213270   1.593   5.610   4.611  0.5250 -1.0336 -0.9017
 4436TIP3   OH213271   6.857   2.810   5.339 -0.2038  0.3580  0.5328
 4436TIP3    H113272   6.771   2.851   5.343  0.3202  1.4772  1.0351
 4436TIP3    H213273   6.860   2.768   5.254 -1.4602 -0.2094  0.7502
 4437TIP3   OH213274   1.854   0.510   1.965 -0.1083  0.1657 -0.1744
 4437TIP3    H113275   1.935   0.559   1.953 -1.0174  1.5513 -0.8379
 4437TIP3    H213276   1.786   0.576   1.976 -1.1366 -0.9643  0.5829
 4438TIP3   OH213277   5.226   3.833   2.553 -0.1612 -0.3935 -0.1260
 4438TIP3    H113278   5.227   3.908   2.494  0.1253 -0.9614 -0.8583
 4438TIP3    H213279   5.301   3.780   2.526  0.2963 -0.3866  1.1175
 4439TIP3   OH213280   1.619   1.686   0.292  0.0244 -0.0649  0.2774
 4439TIP3    H113281   1.689   1.664   0.354 -0.9032  0.5205  1.5864
 4439TIP3    H213282   1.550   1.623   0.310  0.0112 -0.3378 -0.6759
 4440TIP3   OH213283   3.679   1.652   2.914  0.0478 -0.2546 -0.2402
 4440TIP3    H113284   3.607   1.594   2.939 -0.6069  0.7387  0.2334
 4440TIP3    H213285   3.654   1.738   2.948 -0.1722  0.8684 -3.0082
 4441TIP3   OH213286   2.118   0.282   4.227 -0.7517  0.0858  0.2747
 4441TIP3    H113287   2.067   0.357   4.256  0.7939  2.2670 -2.2215
 4441TIP3    H213288   2.068   0.244   4.155 -0.6205 -0.0825  0.2691
 4442TIP3   OH213289   0.419   3.092   3.457  0.2323 -0.0769 -0.4518
 4442TIP3    H113290   0.355   3.023   3.480  1.0961 -0.6765  0.2263
 4442TIP3    H213291   0.481   3.048   3.399  1.1651 -0.0723  0.5147
 4443TIP3   OH213292   0.058   5.459   5.613  0.1908 -0.0682 -0.4877
 4443TIP3    H113293   0.101   5.380   5.645  1.3666  0.6067 -0.3184
 4443TIP3    H213294  -0.011   5.476   5.678 -1.0692 -1.7444 -1.3236
 4444TIP3   OH213295   7.202   1.666   1.148 -0.1574  0.6077  0.3621
 4444TIP3    H113296   7.181   1.745   1.098  1.1081  1.9090  1.7587
 4444TIP3    H213297   7.170   1.594   1.094  0.2826  1.9650 -1.8504
 4445TIP3   OH213298   2.875   5.227   2.931 -0.1075  0.6044 -0.6249
 4445TIP3    H113299   2.901   5.138   2.954 -1.1961  0.4939  0.3046
 4445TIP3    H213300   2.779   5.224   2.928 -0.1162  1.2898 -2.5691
 4446TIP3   OH213301   7.177   2.176   0.751 -0.3535 -0.5591 -0.1506
 4446TIP3    H113302   7.112   2.246   0.755  0.9145  0.6798 -0.5026
 4446TIP3    H213303   7.165   2.128   0.833 -1.4007 -0.0875 -0.0112
 4447TIP3   OH213304   6.491   2.813   4.058  0.4548  0.5394  0.2202
 4447TIP3    H113305   6.503   2.907   4.071  0.8023  0.6343 -0.7023
 4447TIP3    H213306   6.421   2.807   3.993  0.3040  0.1522  0.4133
 4448TIP3   OH213307   6.143   5.996   2.783 -0.2538  0.0386 -0.0346
 4448TIP3    H113308   6.090   6.073   2.765 -0.0079  0.5188  1.2352
 4448TIP3    H213309   6.087   5.939   2.835  0.6228  0.8079  1.8314
 4449TIP3   OH213310   1.294   3.994   1.022 -0.2162  0.3573  0.5493
 4449TIP3    H113311   1.290   4.001   0.926  0.1213  0.1638  0.5219
 4449TIP3    H213312   1.264   4.079   1.053 -1.0901  0.1631  0.2850
 4450TIP3   OH213313   1.391   5.864   2.030 -0.0089  0.0562 -0.0230
 4450TIP3    H113314   1.401   5.830   2.118 -2.6626 -1.3247 -0.1618
 4450TIP3    H213315   1.451   5.812   1.977  2.3762  1.5835  1.0112
 4451TIP3   OH213316   7.151   6.054   0.429 -0.3657 -0.0507  0.0155
 4451TIP3    H113317   7.184   6.115   0.496  0.6831  0.5065 -0.9671
 4451TIP3    H213318   7.125   6.111   0.357 -2.7311 -0.5539  0.4077
 4452TIP3   OH213319   0.023   1.203   3.873  0.3207 -0.4159 -0.4559
 4452TIP3    H113320   0.025   1.268   3.802  0.2890  1.0252  0.8017
 4452TIP3    H213321   0.103   1.152   3.860  0.4438 -0.0237 -1.3798
 4453TIP3   OH213322   2.878   3.692   2.036  0.6882 -0.3926  0.0487
 4453TIP3    H113323   2.906   3.694   2.127  1.3641 -1.7875 -0.1012
 4453TIP3    H213324   2.783   3.706   2.040  0.8253  0.3636  0.8942
 4454TIP3   OH213325   4.830   1.133   4.898  0.0712  0.0576 -0.3499
 4454TIP3    H113326   4.737   1.115   4.909  0.4476 -1.7204  0.2386
 4454TIP3    H213327   4.868   1.117   4.984  1.0279  0.0053 -0.7702
 4455TIP3   OH213328   6.552   5.557   4.701  0.5959  0.3512  0.1031
 4455TIP3    H113329   6.557   5.642   4.658 -0.4788 -0.0357 -0.8286
 4455TIP3    H213330   6.458   5.540   4.711  0.7613 -1.2195 -0.7375
 4456TIP3   OH213331   6.669   0.717   4.823  0.5639  0.2781  0.3697
 4456TIP3    H113332   6.701   0.787   4.767  0.1201 -0.4948 -0.8821
 4456TIP3    H213333   6.749   0.678   4.859  1.0035 -0.5109 -1.3461
 4457TIP3   OH213334   1.114   5.516   1.228  0.0039  0.4003 -0.1543
 4457TIP3    H113335   1.193   5.468   1.252 -0.8962 -0.5064  1.1741
 4457TIP3    H213336   1.117   5.521   1.132  0.9813 -0.8296 -0.2203
 4458TIP3   OH213337   6.508   1.748   4.329 -0.3748 -0.1762  0.3132
 4458TIP3    H113338   6.423   1.791   4.336  0.1985  1.0647 -0.0928
 4458TIP3    H213339   6.539   1.742   4.419 -0.7683 -0.3759  0.4372
 4459TIP3   OH213340   4.805   5.849   5.167 -0.6363 -0.9728 -0.0577
 4459TIP3    H113341   4.855   5.872   5.246  0.0619  0.0686 -0.7758
 4459TIP3    H213342   4.750   5.925   5.150 -0.1383 -0.8198 -1.0588
 4460TIP3   OH213343   0.605   5.307   4.277 -0.5407 -0.6556  0.4932
 4460TIP3    H113344   0.512   5.328   4.272 -0.4283  0.1113  1.4733
 4460TIP3    H213345   0.639   5.329   4.190 -1.0938  0.0013  0.4368
 4461TIP3   OH213346   0.026   3.881   2.604  0.2811  0.2283  0.0934
 4461TIP3    H113347  -0.050   3.827   2.582 -0.2164  1.2323 -0.7362
 4461TIP3    H213348   0.051   3.923   2.522  3.1506 -1.7420 -0.1811
 4462TIP3   OH213349   5.347   6.369   5.405  0.1198  0.2687 -0.0292
 4462TIP3    H113350   5.270   6.390   5.352 -1.4532 -1.9624  1.2054
 4462TIP3    H213351   5.316   6.376   5.495  1.3726 -0.6108  0.4893
 4463TIP3   OH213352   0.121   4.073   0.214 -0.1160  0.3602 -0.2074
 4463TIP3    H113353   0.143   4.038   0.301 -2.8709 -1.7277 -0.1864
 4463TIP3    H213354   0.201   4.063   0.163  1.0533 -0.0766  1.6040
 4464TIP3   OH213355   2.741   0.002   4.340  0.1440  0.4878  0.6045
 4464TIP3    H113356   2.738   0.003   4.244  1.2036 -0.9389  0.5235
 4464TIP3    H213357   2.756   0.093   4.365  0.1023  0.8415 -0.5933
 4465TIP3   OH213358   2.720   6.134   4.470  0.1525  0.1042  0.4321
 4465TIP3    H113359   2.787   6.084   4.515  0.4521  0.2979  0.2065
 4465TIP3    H213360   2.766   6.210   4.435 -0.0619 -0.0688 -0.2459
 4466TIP3   OH213361   4.613   5.534   1.730  0.2152 -0.1992 -0.2054
 4466TIP3    H113362   4.705   5.520   1.752  0.5250 -0.9983 -1.8634
 4466TIP3    H213363   4.601   5.628   1.738  1.6154  0.1282 -1.4646
 4467TIP3   OH213364   1.231   4.399   2.922 -0.1159  1.0126 -0.5001
 4467TIP3    H113365   1.172   4.324   2.934  2.9005 -1.5955 -0.6990
 4467TIP3    H213366   1.287   4.374   2.849  1.9924  2.7971  0.4051
 4468TIP3   OH213367   7.191   1.074   0.923 -0.1806  0.3578 -0.0268
 4468TIP3    H113368   7.166   1.063   0.831  1.6020 -0.0272 -0.4864
 4468TIP3    H213369   7.282   1.046   0.928 -0.5516 -0.7244  2.0916
 4469TIP3   OH213370   5.888   1.062   3.223 -0.1225  1.0131 -0.3369
 4469TIP3    H113371   5.959   1.051   3.287 -0.2600  0.0097 -0.3321
 4469TIP3    H213372   5.932   1.093   3.143  0.0377  2.3711  0.2475
 4470TIP3   OH213373   2.311   6.773   1.849  0.4776  0.0141  0.2452
 4470TIP3    H113374   2.383   6.724   1.809  0.8577  0.5438  0.2582
 4470TIP3    H213375   2.233   6.744   1.803  0.5392 -1.3813  0.9708
 4471TIP3   OH213376   1.471   3.665   5.314 -0.5797  0.1128  0.1228
 4471TIP3    H113377   1.490   3.759   5.314  1.1154 -0.2014  1.1599
 4471TIP3    H213378   1.378   3.660   5.339 -0.6053  1.4933  0.3834
 4472TIP3   OH213379   4.756   4.388   2.986  0.5088 -0.4642  0.0296
 4472TIP3    H113380   4.691   4.432   3.040  1.4196  1.1310 -0.1075
 4472TIP3    H213381   4.708   4.318   2.942 -0.6447 -0.6420  1.4903
 4473TIP3   OH213382   1.459   4.303   3.065 -0.0342 -0.0476 -0.2517
 4473TIP3    H113383   1.368   4.299   3.035 -1.6124  0.5223  3.8657
 4473TIP3    H213384   1.454   4.340   3.153  4.3424  0.8548 -0.1436
 4474TIP3   OH213385   3.478   5.230   2.049  0.7946  0.0531 -0.2310
 4474TIP3    H113386   3.389   5.263   2.043  1.2347  1.2726 -0.1731
 4474TIP3    H213387   3.482   5.161   1.982 -0.0257  0.3620 -0.6112
 4475TIP3   OH213388   3.155   2.533   2.427  0.1565  0.3489 -0.0774
 4475TIP3    H113389   3.135   2.502   2.339  1.4833  2.2342 -1.1110
 4475TIP3    H213390   3.203   2.461   2.468  0.5118 -0.1246 -1.3014
 4476TIP3   OH213391   5.735   2.180   0.565 -0.1644  0.1628 -0.4773
 4476TIP3    H113392   5.741   2.167   0.660 -1.5879  1.6151 -0.1365
 4476TIP3    H213393   5.650   2.142   0.542 -0.9285  1.9451 -0.7224
 4477TIP3   OH213394   4.751   0.993   2.713  0.2109 -0.2527  0.1397
 4477TIP3    H113395   4.825   1.042   2.676  0.9422  0.4901  2.3979
 4477TIP3    H213396   4.775   0.901   2.703  0.5914 -0.0662 -0.7479
 4478TIP3   OH213397   4.948   2.571   0.915  0.9436  0.6533  0.0480
 4478TIP3    H113398   4.970   2.546   0.825  0.5433  1.3068 -0.2352
 4478TIP3    H213399   4.905   2.656   0.907 -0.7625 -0.1038  0.6687
 4479TIP3   OH213400   6.161   0.875   1.171  0.1937  0.6277 -0.4462
 4479TIP3    H113401   6.155   0.811   1.242  1.3273  1.8666  0.8509
 4479TIP3    H213402   6.219   0.834   1.107  0.6148  0.1892  0.1929
 4480TIP3   OH213403   0.192   2.891   5.063 -0.2098  0.6715  0.6155
 4480TIP3    H113404   0.103   2.900   5.029  0.4209  3.0658 -0.7046
 4480TIP3    H213405   0.238   2.841   4.996 -0.4821 -0.3295  1.1661
 4481TIP3   OH213406   0.691   2.555   5.741 -0.0796  0.0668 -0.6485
 4481TIP3    H113407   0.761   2.574   5.679 -2.3022 -1.2772 -3.8254
 4481TIP3    H213408   0.697   2.461   5.758  0.7220  0.4703  1.5904
 4482TIP3   OH213409   5.054   4.048   3.738  0.1754  0.1651 -0.1800
 4482TIP3    H113410   5.117   4.058   3.667 -1.2065  0.5216 -1.3966
 4482TIP3    H213411   5.061   4.130   3.787 -0.7105  1.0506 -1.4800
 4483TIP3   OH213412   5.988   3.668   3.765 -0.5767  0.2921  0.1706
 4483TIP3    H113413   6.037   3.697   3.688  1.7970 -1.5712  0.8539
 4483TIP3    H213414   5.936   3.593   3.734  0.4531 -0.5193  0.3621
 4484TIP3   OH213415   6.301   0.497   5.569  0.0551 -0.2157  0.0905
 4484TIP3    H113416   6.282   0.412   5.529 -1.1460 -0.1512  0.4858
 4484TIP3    H213417   6.250   0.497   5.650 -0.5985  1.1912 -0.2928
 4485TIP3   OH213418   0.080   3.396   3.582  0.5299  0.0853 -0.0704
 4485TIP3    H113419   0.137   3.337   3.633 -0.2956  0.5775  1.5033
 4485TIP3    H213420   0.006   3.341   3.556  0.5606  0.0255 -0.0320
 4486TIP3   OH213421   4.298   2.084   5.090  0.1690 -0.2566  0.1010
 4486TIP3    H113422   4.274   2.172   5.058  1.2225  0.5156  1.3379
 4486TIP3    H213423   4.345   2.044   5.017 -1.4893 -0.3563 -0.9828
 4487TIP3   OH213424   1.386   0.692   4.961  0.7430 -0.1431 -0.0317
 4487TIP3    H113425   1.391   0.597   4.963  0.5804 -0.1502  1.9906
 4487TIP3    H213426   1.319   0.714   5.026  1.3398  1.3712  0.1175
 4488TIP3   OH213427   0.732   1.381   3.731  0.0381  0.3187  0.1067
 4488TIP3    H113428   0.695   1.347   3.812  0.2489 -2.3117 -0.8012
 4488TIP3    H213429   0.664   1.368   3.666  1.1438 -1.0392 -0.8319
 4489TIP3   OH213430   6.697   1.208   0.374 -0.3019  0.0336 -0.2184
 4489TIP3    H113431   6.751   1.235   0.448 -0.3599  1.0156 -0.5250
 4489TIP3    H213432   6.702   1.112   0.375  0.5980  0.0735  0.3740
 4490TIP3   OH213433   3.609   0.876   5.174 -0.5604 -0.1314 -0.5321
 4490TIP3    H113434   3.528   0.919   5.150  0.0172  1.0155 -0.5112
 4490TIP3    H213435   3.670   0.898   5.104 -0.2636 -0.9994 -0.5637
 4491TIP3   OH213436   5.752   2.500   0.862  0.2521  0.4636  1.0169
 4491TIP3    H113437   5.722   2.437   0.928  1.0310  0.1375  1.0592
 4491TIP3    H213438   5.768   2.580   0.912  1.0487  0.1540  1.2608
 4492TIP3   OH213439   1.120   3.919   5.232  0.4091 -0.1963 -0.2270
 4492TIP3    H113440   1.040   3.950   5.275  0.7936  0.3400  0.1055
 4492TIP3    H213441   1.151   3.848   5.288  0.1178 -0.4718 -0.4090
 4493TIP3   OH213442   5.196   0.944   1.182 -0.2773  0.5210  0.4232
 4493TIP3    H113443   5.123   0.978   1.131 -1.6290 -1.2698  1.0658
 4493TIP3    H213444   5.248   0.893   1.120 -0.9058 -0.1610  0.4529
 4494TIP3   OH213445   3.467   3.926   0.120 -0.1455 -0.7834 -0.2714
 4494TIP3    H113446   3.525   3.858   0.085  0.2151 -1.6645  1.8900
 4494TIP3    H213447   3.386   3.879   0.141 -0.9551  0.0540 -1.3747
 4495TIP3   OH213448   4.534   3.025   0.841 -0.1139  0.0132  0.7691
 4495TIP3    H113449   4.594   2.989   0.907  0.2385  0.4072  0.6700
 4495TIP3    H213450   4.578   3.007   0.758 -0.4118 -0.2123  0.6604
 4496TIP3   OH213451   5.296   1.676   3.201 -0.7323 -0.5962  0.3041
 4496TIP3    H113452   5.346   1.678   3.119  0.7256 -1.5027  1.1450
 4496TIP3    H213453   5.271   1.585   3.211  0.2872 -0.7597  1.5504
 4497TIP3   OH213454   0.385   2.937   0.074 -0.5519  0.2500  0.4019
 4497TIP3    H113455   0.289   2.947   0.076 -0.6024 -0.1829  0.1558
 4497TIP3    H213456   0.412   2.981  -0.006 -0.7294 -1.1406 -0.4484
 4498TIP3   OH213457   0.566   3.325   3.277 -0.3829  0.2438  0.1036
 4498TIP3    H113458   0.560   3.232   3.255 -0.2230 -0.1248  1.5423
 4498TIP3    H213459   0.624   3.362   3.210  0.6718 -0.9647  0.3135
 4499TIP3   OH213460   0.521   5.863   4.758 -0.7269 -0.1417 -0.2125
 4499TIP3    H113461   0.433   5.826   4.773 -1.2116  0.9319 -0.2945
 4499TIP3    H213462   0.548   5.895   4.843 -0.1599 -0.9691 -0.0706
 4500TIP3   OH213463   2.065   1.695   2.297  0.0135 -0.1556 -0.0013
 4500TIP3    H113464   2.120   1.765   2.261  0.8219 -0.3844  0.7411
 4500TIP3    H213465   2.036   1.728   2.382 -0.2624 -0.4021  0.0041
 4501TIP3   OH213466   1.214   1.905   1.872  0.5424  0.0947 -0.1538
 4501TIP3    H113467   1.274   1.851   1.923 -1.3576 -0.8811  1.1530
 4501TIP3    H213468   1.167   1.957   1.938 -0.9762 -0.1495 -1.0158
 4502TIP3   OH213469   1.668   4.143   1.706  0.3616  0.2418  0.6183
 4502TIP3    H113470   1.720   4.118   1.630  1.3412  0.9561  1.0309
 4502TIP3    H213471   1.582   4.166   1.669  1.2343  1.9496 -0.4879
 4503TIP3   OH213472   1.845   0.332   0.781 -0.1934 -0.7575  0.3937
 4503TIP3    H113473   1.912   0.273   0.748 -0.9355  0.0187 -2.8188
 4503TIP3    H213474   1.893   0.411   0.805  0.3468 -1.2593  1.0025
 4504TIP3   OH213475   5.576   0.528   2.673 -0.2901  0.0301  0.3904
 4504TIP3    H113476   5.510   0.460   2.660  0.5338 -0.9059  0.9841
 4504TIP3    H213477   5.586   0.568   2.587  0.2179 -1.5442 -0.3181
 4505TIP3   OH213478   6.232   3.998   1.964 -0.1763  0.0186 -0.2653
 4505TIP3    H113479   6.317   4.001   2.007 -0.8820 -2.3481  1.5182
 4505TIP3    H213480   6.228   3.911   1.924 -1.2195  0.6340 -1.5797
 4506TIP3   OH213481   2.320   0.523   3.369 -0.1120 -0.0734 -0.3658
 4506TIP3    H113482   2.340   0.558   3.282  0.6616 -1.3127 -0.6997
 4506TIP3    H213483   2.399   0.537   3.420 -1.2784  2.6973  0.8739
 4507TIP3   OH213484   1.030   5.872   3.616 -0.0385  0.4065 -0.5809
 4507TIP3    H113485   1.074   5.806   3.563  0.1758  1.7123 -2.0918
 4507TIP3    H213486   0.969   5.914   3.556  0.2241  1.9446  0.1971
 4508TIP3   OH213487   4.687   3.933   5.173 -0.3838 -0.3448  0.2554
 4508TIP3    H113488   4.695   4.028   5.183  0.5148 -0.2192 -1.3014
 4508TIP3    H213489   4.639   3.921   5.092 -0.3385 -1.2215  0.3507
 4509TIP3   OH213490   1.228   4.518   4.699  0.1948 -0.3976 -0.0706
 4509TIP3    H113491   1.168   4.480   4.634  0.9415 -0.3196 -0.8153
 4509TIP3    H213492   1.208   4.471   4.780 -2.0429  0.7836  0.1390
 4510TIP3   OH213493  -0.007   4.301   4.530 -0.0086  0.3185 -0.2143
 4510TIP3    H113494   0.007   4.207   4.530  1.5993  0.4587  2.1396
 4510TIP3    H213495   0.047   4.334   4.459 -0.2864 -0.4887 -0.8099
 4511TIP3   OH213496   2.600   1.702   1.353 -0.1767  0.3473 -0.9123
 4511TIP3    H113497   2.541   1.705   1.278  0.2143 -0.9804 -1.2940
 4511TIP3    H213498   2.685   1.729   1.318 -0.2754  1.0509 -0.6321
 4512TIP3   OH213499   3.540   5.177   5.097 -0.4316  0.4085  0.4376
 4512TIP3    H113500   3.451   5.212   5.094 -1.3591 -1.6682  1.1812
 4512TIP3    H213501   3.531   5.094   5.144  2.2503  1.1242  2.4859
 4513TIP3   OH213502   4.246   0.510   4.086 -0.2972 -0.4315 -0.0469
 4513TIP3    H113503   4.287   0.481   4.167 -1.1831 -0.0106  0.5569
 4513TIP3    H213504   4.319   0.542   4.033  0.2397 -0.3216  0.7407
 4514TIP3   OH213505   6.094   3.365   2.815 -0.1713 -0.1098 -0.1036
 4514TIP3    H113506   6.153   3.435   2.843  1.5004 -1.2932 -0.5022
 4514TIP3    H213507   6.119   3.349   2.724 -0.8651 -0.9015 -0.1596
 4515TIP3   OH213508   0.608   0.497   4.558 -0.9196 -0.2498 -0.1453
 4515TIP3    H113509   0.563   0.570   4.515  0.6004  0.5236 -0.4791
 4515TIP3    H213510   0.601   0.517   4.652 -0.4566  0.3753 -0.2385
 4516TIP3   OH213511   0.640   2.418   3.227  0.2659 -0.4237  0.8622
 4516TIP3    H113512   0.559   2.454   3.189  0.0659  0.0441  1.6991
 4516TIP3    H213513   0.698   2.406   3.152  0.6483  2.4585  0.5715
 4517TIP3   OH213514   3.521   2.487   1.565  0.7845 -0.4838 -0.1761
 4517TIP3    H113515   3.595   2.515   1.619  0.3355  3.3219 -1.2107
 4517TIP3    H213516   3.558   2.475   1.478  0.2687  1.6740 -0.7519
 4518TIP3   OH213517   6.450   5.288   5.173  0.4315 -0.1647  0.7549
 4518TIP3    H113518   6.506   5.223   5.132  0.5917 -1.1297  2.4152
 4518TIP3    H213519   6.390   5.237   5.228 -0.4679  1.0020  0.9077
 4519TIP3   OH213520   3.385   3.341   3.318 -0.1309 -0.3977  0.2290
 4519TIP3    H113521   3.335   3.260   3.314  0.1325 -0.5921  0.7196
 4519TIP3    H213522   3.455   3.329   3.254 -0.4693 -0.2883 -0.1686
 4520TIP3   OH213523   4.339   4.085   3.062  0.5611  0.6926  0.0570
 4520TIP3    H113524   4.407   4.037   3.110 -1.0542 -0.9787  0.7774
 4520TIP3    H213525   4.365   4.078   2.970  2.1761  1.4739  0.4105
 4521TIP3   OH213526   0.870   6.307   4.983  0.5888 -0.2165  0.4622
 4521TIP3    H113527   0.781   6.333   5.007  0.5823 -1.2404  1.6599
 4521TIP3    H213528   0.862   6.276   4.893  0.0345  1.0827  0.0487
 4522TIP3   OH213529   4.498   6.389   3.848  0.4291 -0.4616  0.1174
 4522TIP3    H113530   4.582   6.345   3.830  0.7970 -0.1143  0.9335
 4522TIP3    H213531   4.515   6.440   3.927 -0.6110 -0.5204  0.3859
 4523TIP3   OH213532   3.428   6.758   2.766  0.2892  0.0173  0.3261
 4523TIP3    H113533   3.480   6.715   2.834  1.7114  0.2613 -0.5789
 4523TIP3    H213534   3.349   6.703   2.759  0.0431  0.0623  2.2271
 4524TIP3   OH213535   5.380   5.926   1.842 -0.1331  0.4076  0.2726
 4524TIP3    H113536   5.361   5.982   1.917 -0.5958 -0.2884  0.6837
 4524TIP3    H213537   5.388   5.986   1.768 -2.4976  0.8966  0.3370
 4525TIP3   OH213538   6.570   3.688   4.311 -0.5406 -0.1294 -0.0974
 4525TIP3    H113539   6.595   3.753   4.377  0.0462 -0.7250  0.2844
 4525TIP3    H213540   6.521   3.622   4.360  2.0116 -1.8633  0.2862
 4526TIP3   OH213541   7.176   0.464   3.377 -0.6521 -0.3853 -0.1415
 4526TIP3    H113542   7.102   0.403   3.378 -0.1000 -1.1066 -0.9606
 4526TIP3    H213543   7.192   0.480   3.284  0.2202 -0.2583  0.0213
 4527TIP3   OH213544   5.887   1.082   1.179  0.2572 -0.1527 -0.2935
 4527TIP3    H113545   5.978   1.111   1.187 -0.3416  1.3105  2.0014
 4527TIP3    H213546   5.847   1.146   1.121 -0.1248  1.4808  1.6610
 4528TIP3   OH213547   1.680   4.774   5.458  0.0322 -0.3746  0.1975
 4528TIP3    H113548   1.676   4.740   5.547 -0.5170  1.9502  1.1358
 4528TIP3    H213549   1.717   4.862   5.468  1.7942 -0.7555 -2.1086
 4529TIP3   OH213550   4.206   5.430   0.994 -0.1890 -0.8820  0.3318
 4529TIP3    H113551   4.158   5.445   1.075 -1.6569 -1.4508 -0.3923
 4529TIP3    H213552   4.175   5.345   0.963  0.6130 -0.8452 -0.6420
 4530TIP3   OH213553   1.007   3.595   3.709 -0.4296 -0.1139  0.8246
 4530TIP3    H113554   1.086   3.646   3.728 -0.0035 -0.2401 -0.4811
 4530TIP3    H213555   0.973   3.635   3.629 -1.6925 -0.0782  1.3637
 4531TIP3   OH213556   7.021   0.230   2.411 -0.4766  0.4517 -0.1677
 4531TIP3    H113557   7.044   0.259   2.322  0.8125  0.0588  0.0245
 4531TIP3    H213558   6.925   0.234   2.413 -0.6287 -0.8377 -2.0390
 4532TIP3   OH213559   1.880   2.906   5.377 -0.0315 -1.0097  0.6809
 4532TIP3    H113560   1.843   2.818   5.383 -2.1156 -0.1357  1.6544
 4532TIP3    H213561   1.836   2.955   5.446  1.2202  0.7633  0.2874
 4533TIP3   OH213562   6.600   5.097   0.718  0.1063  0.6410  0.0977
 4533TIP3    H113563   6.611   5.160   0.790 -1.3680  0.3235  0.6286
 4533TIP3    H213564   6.671   5.034   0.732  0.7591  1.4066  0.3700
 4534TIP3   OH213565   1.447   3.744   3.392 -0.6142  0.5241  0.3360
 4534TIP3    H113566   1.486   3.732   3.478 -0.4140 -0.1162  0.1630
 4534TIP3    H213567   1.519   3.774   3.337 -0.1680 -1.3000 -0.1410
 4535TIP3   OH213568   0.468   1.660   1.882  0.0127  0.4203  0.2446
 4535TIP3    H113569   0.549   1.634   1.925 -1.7772 -2.7793  2.0583
 4535TIP3    H213570   0.422   1.714   1.946 -0.0954  0.7166 -0.0745
 4536TIP3   OH213571   2.200   5.520   5.024  0.1069 -0.8283 -1.1209
 4536TIP3    H113572   2.201   5.436   5.071 -0.1405 -0.3155 -0.1807
 4536TIP3    H213573   2.141   5.505   4.950  1.1498 -1.9062 -1.7778
 4537TIP3   OH213574   0.558   0.354   3.058 -0.3022 -0.4830 -0.2727
 4537TIP3    H113575   0.560   0.441   3.097  0.2902 -0.5301 -0.1941
 4537TIP3    H213576   0.468   0.344   3.028 -0.6910 -0.3157  0.7794
 4538TIP3   OH213577   4.155   1.619   5.131  0.2482  0.2915 -0.5345
 4538TIP3    H113578   4.128   1.555   5.197  1.6948  0.1805 -0.0329
 4538TIP3    H213579   4.126   1.581   5.048  0.2899 -0.5881 -0.1620
 4539TIP3   OH213580   1.970   6.239   0.041 -0.0632  0.3442  0.3069
 4539TIP3    H113581   1.954   6.190   0.122 -2.6521 -2.0154 -1.4562
 4539TIP3    H213582   2.047   6.197   0.002 -0.0502  0.1263  0.5639
 4540TIP3   OH213583   6.460   1.911   1.377 -0.1003  0.1658  0.0804
 4540TIP3    H113584   6.445   1.945   1.465  1.3200 -0.5049  0.6098
 4540TIP3    H213585   6.425   1.978   1.318 -1.7216  0.2957  1.1417
 4541TIP3   OH213586   5.971   5.694   4.257 -0.2340 -0.5842 -0.1931
 4541TIP3    H113587   5.905   5.698   4.326  1.1658  1.0421  1.1550
 4541TIP3    H213588   6.054   5.702   4.303  0.7179  2.2500 -2.1274
 4542TIP3   OH213589   4.085   5.936   1.427  0.1289 -0.0335 -0.5352
 4542TIP3    H113590   4.018   5.959   1.492  0.6160  2.5133 -0.8321
 4542TIP3    H213591   4.163   5.917   1.479  0.8493  3.1183 -0.2422
 4543TIP3   OH213592   0.445   0.293   2.658  0.4251 -0.0641 -0.0463
 4543TIP3    H113593   0.436   0.263   2.749 -1.9197 -0.8553 -0.4544
 4543TIP3    H213594   0.362   0.337   2.639  1.1181  0.6535 -1.6277
 4544TIP3   OH213595   6.091   4.907   4.900 -0.2703  0.2403 -0.2626
 4544TIP3    H113596   6.102   4.823   4.857 -0.5103  0.4397 -0.7267
 4544TIP3    H213597   6.039   4.959   4.838  0.8364  1.1095 -0.4946
 4545TIP3   OH213598   0.859   2.231   3.811  0.3006  0.0016 -0.0040
 4545TIP3    H113599   0.817   2.188   3.736 -1.3935 -1.7152  1.7905
 4545TIP3    H213600   0.893   2.159   3.864  0.2961  1.0639  1.5094
 4546TIP3   OH213601   2.184   3.323   1.501 -0.2159  0.3193  0.2133
 4546TIP3    H113602   2.205   3.412   1.527  0.2003  0.3252 -0.1283
 4546TIP3    H213603   2.167   3.329   1.407 -1.6530  0.2930  0.4457
 4547TIP3   OH213604   1.451   5.001   4.206 -0.2816  0.4667 -0.3621
 4547TIP3    H113605   1.546   5.014   4.205  0.1787 -2.2738 -0.5015
 4547TIP3    H213606   1.424   5.016   4.116  0.3153 -0.3170 -0.6846
 4548TIP3   OH213607   1.686   2.272   4.563  0.2624 -0.7060 -0.2785
 4548TIP3    H113608   1.650   2.310   4.483  1.9628 -2.3829 -1.9586
 4548TIP3    H213609   1.653   2.182   4.564  0.4722 -0.7829  0.7758
 4549TIP3   OH213610   0.620   6.785   4.273 -0.2828  0.7098 -0.0402
 4549TIP3    H113611   0.610   6.705   4.221  0.4441  0.2596  0.4851
 4549TIP3    H213612   0.598   6.856   4.213 -1.7598  0.0834 -0.2813
 4550TIP3   OH213613   6.272   3.517   2.933  0.1830 -0.0319  0.2773
 4550TIP3    H113614   6.306   3.590   2.984 -2.5380 -0.2527  2.6888
 4550TIP3    H213615   6.295   3.439   2.984 -1.5995 -0.3526  0.6653
 4551TIP3   OH213616   6.371   3.839   0.421  0.1939 -0.1371  0.0422
 4551TIP3    H113617   6.313   3.763   0.411  1.4803 -1.0372 -0.9417
 4551TIP3    H213618   6.443   3.807   0.475  1.6065 -0.1871 -1.7742
 4552TIP3   OH213619   2.305   6.328   0.078  0.3828  0.2909 -1.0717
 4552TIP3    H113620   2.267   6.290  -0.001 -0.5737  0.5296 -0.7330
 4552TIP3    H213621   2.385   6.371   0.047  0.4243 -0.2678 -1.7783
 4553TIP3   OH213622   4.273   4.288   2.351  0.0948 -0.0265  0.8018
 4553TIP3    H113623   4.200   4.270   2.292 -0.7705  0.6514  1.6251
 4553TIP3    H213624   4.243   4.362   2.404  2.1608  1.6002 -0.1641
 4554TIP3   OH213625   0.810   1.940   2.620 -0.4626 -0.2280 -0.6603
 4554TIP3    H113626   0.743   1.898   2.674 -0.4509  2.3177  1.5656
 4554TIP3    H213627   0.893   1.908   2.655 -0.4820 -0.6583 -1.0079
 4555TIP3   OH213628   0.074   0.889   2.718 -0.6531  0.3781 -0.3519
 4555TIP3    H113629   0.162   0.886   2.681  0.4260  0.9485  2.0020
 4555TIP3    H213630   0.028   0.954   2.665  0.3106  0.0951 -1.5957
 4556TIP3   OH213631   0.360   2.626   3.265 -0.3417  0.3823  0.5835
 4556TIP3    H113632   0.405   2.605   3.183 -0.9498  0.3094  0.2692
 4556TIP3    H213633   0.393   2.560   3.327 -0.3261  0.0717  0.2470
 4557TIP3   OH213634   2.023   4.292   1.744  0.4672  0.2886  0.5181
 4557TIP3    H113635   2.088   4.350   1.705  0.1444  0.9549  0.9347
 4557TIP3    H213636   1.990   4.240   1.671  0.7671  0.6324  0.1312
 4558TIP3   OH213637   1.320   1.729   2.704 -0.4769  0.7409  0.0840
 4558TIP3    H113638   1.339   1.716   2.796  0.9553  0.8749 -0.1743
 4558TIP3    H213639   1.405   1.749   2.664 -0.7369 -1.0946 -1.5644
 4559TIP3   OH213640   3.989   6.166   2.997 -0.4626  0.0224  0.3426
 4559TIP3    H113641   3.940   6.241   2.962 -0.0051 -0.4372 -1.3692
 4559TIP3    H213642   4.013   6.115   2.920  0.7128 -0.9955  1.3433
 4560TIP3   OH213643   4.632   0.792   1.867  0.2765  0.3135 -0.0467
 4560TIP3    H113644   4.653   0.859   1.932  0.3266  0.7697 -0.5270
 4560TIP3    H213645   4.628   0.840   1.784 -1.2366  0.0215 -0.1857
 4561TIP3   OH213646   3.773   0.095   1.439 -0.1745 -0.9880 -0.0110
 4561TIP3    H113647   3.832   0.021   1.451  2.0276  0.5023 -1.0612
 4561TIP3    H213648   3.789   0.151   1.516 -0.2571 -0.5931 -0.2790
 4562TIP3   OH213649   0.306   6.040   4.454  0.1390 -0.7261 -0.1341
 4562TIP3    H113650   0.281   6.113   4.510  3.6422  2.2048 -1.9919
 4562TIP3    H213651   0.230   6.025   4.398 -1.5860 -0.3798  1.9954
 4563TIP3   OH213652   1.621   5.571   1.827  0.2014 -0.1205  0.3520
 4563TIP3    H113653   1.717   5.560   1.824  0.2746  0.5318  0.1732
 4563TIP3    H213654   1.605   5.654   1.783 -0.5264 -0.6353 -0.3934
 4564TIP3   OH213655   4.266   3.655   3.743 -0.2649  0.4147 -0.3475
 4564TIP3    H113656   4.282   3.563   3.723  1.0681  1.0871 -2.7245
 4564TIP3    H213657   4.350   3.689   3.773 -0.5963  0.9977 -0.0368
 4565TIP3   OH213658   4.622   2.505   1.350 -0.0091 -0.5043  0.1023
 4565TIP3    H113659   4.627   2.413   1.375  0.1022  0.1797  2.8378
 4565TIP3    H213660   4.592   2.550   1.429  2.2863  2.1270 -0.4030
 4566TIP3   OH213661   1.035   3.831   3.967  0.0054 -0.2974 -0.0617
 4566TIP3    H113662   1.013   3.882   3.889 -1.7045 -0.7271  0.1121
 4566TIP3    H213663   0.986   3.872   4.038 -0.1883 -1.2556  0.3692
 4567TIP3   OH213664   3.458   3.397   5.058  0.6145 -0.0805  0.3734
 4567TIP3    H113665   3.492   3.420   4.972 -1.4386  0.0966 -0.4476
 4567TIP3    H213666   3.423   3.308   5.047 -0.5229  0.3037  0.7259
 4568TIP3   OH213667   1.725   4.026   1.938 -0.0011  0.5331 -0.7395
 4568TIP3    H113668   1.709   4.104   1.884 -2.0960 -0.3448 -1.4750
 4568TIP3    H213669   1.659   4.031   2.006  0.2385 -0.2999 -0.4423
 4569TIP3   OH213670   6.105   4.984   0.904 -0.1008  0.3363 -0.3688
 4569TIP3    H113671   6.127   4.891   0.893 -0.1437 -0.1185  2.6148
 4569TIP3    H213672   6.189   5.028   0.908  0.0095  0.0594  0.6026
 4570TIP3   OH213673   3.684   4.532   4.289 -0.3528  0.3555  0.6481
 4570TIP3    H113674   3.593   4.507   4.274  0.3845 -1.4948 -1.0820
 4570TIP3    H213675   3.704   4.498   4.376 -0.6108 -1.4552  0.0310
 4571TIP3   OH213676   1.800   4.566   4.418  0.2054  0.2812 -0.2804
 4571TIP3    H113677   1.719   4.611   4.443 -0.0996 -0.6695  0.5175
 4571TIP3    H213678   1.824   4.516   4.496  0.2559 -1.3058 -1.2749
 4572TIP3   OH213679   0.802   0.067   2.663  0.4579  0.0164 -0.6348
 4572TIP3    H113680   0.877   0.017   2.630  0.7337  1.2861 -2.0490
 4572TIP3    H213681   0.759   0.099   2.584 -1.6522 -0.7298  0.1353
 4573TIP3   OH213682   3.859   5.008   0.875 -0.1526  1.1509 -0.5058
 4573TIP3    H113683   3.923   4.940   0.854  1.1269  2.2432 -0.2197
 4573TIP3    H213684   3.864   5.017   0.970 -0.5263  1.4587 -0.5153
 4574TIP3   OH213685   5.975   0.922   3.666 -0.0604  0.5376  0.5566
 4574TIP3    H113686   5.959   0.841   3.616 -2.4184  2.5525 -2.3311
 4574TIP3    H213687   6.062   0.950   3.638  1.0922 -1.2427  2.1243
 4575TIP3   OH213688   0.587   3.994   0.489 -0.1903  0.2830 -0.3458
 4575TIP3    H113689   0.644   4.034   0.423  0.9429 -2.6087 -1.3042
 4575TIP3    H213690   0.646   3.971   0.561 -1.2074  2.2543  1.2140
 4576TIP3   OH213691   1.593   0.872   5.211  0.3642 -0.4666  0.1504
 4576TIP3    H113692   1.511   0.865   5.162  0.0490  2.0913  0.1522
 4576TIP3    H213693   1.566   0.864   5.303  0.2567 -0.6767  0.0995
 4577TIP3   OH213694   4.605   4.126   2.874  0.2117  0.2514  0.2861
 4577TIP3    H113695   4.567   4.055   2.823 -2.5837  1.9739 -0.2694
 4577TIP3    H213696   4.586   4.104   2.965 -2.0598  0.9168  0.0367
 4578TIP3   OH213697   4.453   3.903   4.390  0.0198  0.0396 -0.6020
 4578TIP3    H113698   4.528   3.962   4.390  0.3152 -0.2847  1.3647
 4578TIP3    H213699   4.402   3.930   4.466 -1.1287 -0.6647 -1.1058
 4579TIP3   OH213700   0.220   1.449   2.176  0.2479  0.0580 -0.1715
 4579TIP3    H113701   0.241   1.498   2.097  1.0164  0.6034  0.3607
 4579TIP3    H213702   0.125   1.457   2.184  0.3622  1.6039 -0.0285
 4580TIP3   OH213703   5.255   5.456   3.589  0.1264 -0.3149 -0.0029
 4580TIP3    H113704   5.213   5.485   3.670 -1.4777  1.0431 -1.2558
 4580TIP3    H213705   5.190   5.402   3.545  1.1595 -1.4441 -0.1916
 4581TIP3   OH213706   1.859   6.600   3.816 -0.2960 -0.6382  0.0864
 4581TIP3    H113707   1.823   6.535   3.756  2.0874 -1.1631 -0.9152
 4581TIP3    H213708   1.800   6.599   3.891 -1.9400 -1.8288 -1.1439
 4582TIP3   OH213709   3.885   4.859   0.537  0.1461 -0.8388  0.0319
 4582TIP3    H113710   3.852   4.945   0.563 -1.3474 -1.4410  0.2070
 4582TIP3    H213711   3.853   4.847   0.448  0.0817 -1.3434  0.1218
 4583TIP3   OH213712   1.929   0.869   4.290  0.7259 -0.4248 -0.3981
 4583TIP3    H113713   1.857   0.832   4.239 -1.0596  0.3109  1.4536
 4583TIP3    H213714   1.953   0.949   4.243 -1.0136  0.3461 -0.0395
 4584TIP3   OH213715   5.894   5.094   2.095  0.0029 -0.5374 -0.3376
 4584TIP3    H113716   5.937   5.164   2.144 -0.6894  0.6514 -1.3515
 4584TIP3    H213717   5.884   5.023   2.158  0.7634  0.2551  0.7193
 4585TIP3   OH213718   0.705   6.596   0.096 -0.7373  0.5970  0.5373
 4585TIP3    H113719   0.765   6.635   0.032 -0.2353  0.7266  1.0889
 4585TIP3    H213720   0.755   6.526   0.138 -1.4870 -0.3751 -0.1230
 4586TIP3   OH213721   3.363   0.188   1.098  0.7984  0.3970 -0.1272
 4586TIP3    H113722   3.405   0.166   1.181 -0.2073  2.8457  1.1742
 4586TIP3    H213723   3.390   0.279   1.081 -0.0851  0.3897 -1.7762
 4587TIP3   OH213724   3.005   3.623   2.654  0.1684 -0.1204 -0.5149
 4587TIP3    H113725   2.977   3.535   2.628  0.2850 -0.7637  1.3669
 4587TIP3    H213726   2.944   3.647   2.723  0.8701  0.7895 -0.2040
 4588TIP3   OH213727   6.683   3.021   2.301 -0.3092 -0.3014 -0.3236
 4588TIP3    H113728   6.600   3.059   2.326 -0.5542  0.0251 -1.5511
 4588TIP3    H213729   6.749   3.084   2.330 -0.6469  0.5621 -1.3596
 4589TIP3   OH213730   5.219   1.407   3.154  0.6489 -0.0264  0.2076
 4589TIP3    H113731   5.170   1.426   3.074  2.9705 -0.1398 -1.3516
 4589TIP3    H213732   5.160   1.354   3.207 -2.0742  2.5605 -0.0296
 4590TIP3   OH213733   1.365   0.422   1.616  0.7379  0.0934 -0.2052
 4590TIP3    H113734   1.414   0.459   1.690  0.4446  1.7319 -0.7880
 4590TIP3    H213735   1.423   0.355   1.581  0.2846 -1.7854  2.3596
 4591TIP3   OH213736   2.408   5.884   3.802 -0.3235 -0.0390  0.0387
 4591TIP3    H113737   2.362   5.964   3.828 -0.2598  0.3266 -0.9265
 4591TIP3    H213738   2.432   5.899   3.711  1.4197 -0.3569  0.4098
 4592TIP3   OH213739   3.899   0.661   5.120  0.0280 -0.6206  0.1350
 4592TIP3    H113740   3.872   0.571   5.107  3.0571 -1.7464  0.8760
 4592TIP3    H213741   3.894   0.675   5.214 -0.6676  0.0962  0.0024
 4593TIP3   OH213742   2.857   0.535   4.568  0.0916 -0.0279 -0.1942
 4593TIP3    H113743   2.824   0.622   4.595  0.0266 -0.2434  0.4417
 4593TIP3    H213744   2.877   0.545   4.475  1.4388  1.0817  0.1833
 4594TIP3   OH213745   2.033   0.873   5.254  0.5039  0.8539 -0.0711
 4594TIP3    H113746   2.115   0.851   5.210  0.6738 -1.5101  1.2884
 4594TIP3    H213747   1.966   0.824   5.206  0.6386 -1.4271  1.9317
 4595TIP3   OH213748   7.174   2.486   3.057 -0.4099  0.0104  0.1854
 4595TIP3    H113749   7.244   2.441   3.105 -1.0861 -0.8719  0.3804
 4595TIP3    H213750   7.102   2.423   3.056 -1.1366  0.8268 -0.1813
 4596TIP3   OH213751   3.248   6.745   2.086 -0.2827 -0.0381  0.7745
 4596TIP3    H113752   3.173   6.733   2.145 -1.1026 -0.3519 -0.2842
 4596TIP3    H213753   3.284   6.657   2.076  1.0532  0.2958  2.2800
 4597TIP3   OH213754   6.689   3.380   2.804 -0.7609  0.0383 -0.8596
 4597TIP3    H113755   6.620   3.440   2.778  0.2625  1.2207 -0.9393
 4597TIP3    H213756   6.655   3.337   2.882 -0.1500  3.4044  1.4697
 4598TIP3   OH213757   1.039   3.749   3.471 -0.1027 -0.2809  0.0025
 4598TIP3    H113758   1.103   3.816   3.448 -0.7452  0.3540  0.0499
 4598TIP3    H213759   0.957   3.797   3.484 -0.1725 -0.8371  1.8837
 4599TIP3   OH213760   2.369   1.353   4.740  0.6351 -0.0430 -0.9227
 4599TIP3    H113761   2.285   1.389   4.710  0.1766 -0.2437  0.0967
 4599TIP3    H213762   2.429   1.428   4.737 -0.1373  0.6674  0.4994
 4600TIP3   OH213763   1.770   1.965   5.320  0.1940  0.2203 -0.0745
 4600TIP3    H113764   1.706   2.028   5.287 -0.6760 -0.4923  0.2206
 4600TIP3    H213765   1.748   1.955   5.413  1.2110  0.5312  0.2087
 4601TIP3   OH213766   1.530   2.851   1.925 -0.1924  0.3492 -0.2192
 4601TIP3    H113767   1.476   2.809   1.858 -1.1667 -0.3188  0.9594
 4601TIP3    H213768   1.470   2.869   1.997  1.2624 -1.0981  1.4486
 4602TIP3   OH213769   5.186   3.810   5.875 -0.1930  0.2186  0.0379
 4602TIP3    H113770   5.138   3.768   5.803 -0.1180 -0.5714  0.4326
 4602TIP3    H213771   5.269   3.836   5.837 -0.3388  0.2270 -0.2763
 4603TIP3   OH213772   1.465   3.533   0.469  0.1758 -0.1649  0.7966
 4603TIP3    H113773   1.400   3.572   0.410  2.6246 -0.0154 -2.0725
 4603TIP3    H213774   1.441   3.440   0.471  0.3698 -0.3141 -1.1094
 4604TIP3   OH213775   3.349   3.623   1.934 -0.1463 -0.2827 -0.5145
 4604TIP3    H113776   3.412   3.648   1.867  0.7136  1.5872  0.8909
 4604TIP3    H213777   3.323   3.706   1.974 -0.9070 -1.3075  1.2158
 4605TIP3   OH213778   1.206   3.182   2.017  0.1696  0.0444 -0.3589
 4605TIP3    H113779   1.150   3.251   2.053  1.7230  0.7360  0.8502
 4605TIP3    H213780   1.233   3.214   1.931  1.4046  1.3015  0.4545
 4606TIP3   OH213781   1.098   0.574   4.630 -0.1334  0.1704 -0.3385
 4606TIP3    H113782   1.187   0.549   4.655 -0.0146  1.8404  1.1383
 4606TIP3    H213783   1.095   0.669   4.641 -1.6754  0.3581 -1.8561
 4607TIP3   OH213784   3.179   0.308   0.082 -0.1998 -0.2489 -0.2128
 4607TIP3    H113785   3.136   0.241   0.137  3.5738 -2.0247  0.9490
 4607TIP3    H213786   3.208   0.374   0.145 -0.2334  0.3103 -0.7872
 4608TIP3   OH213787   1.024   2.542   0.441 -0.3253 -0.1559 -0.1136
 4608TIP3    H113788   0.985   2.491   0.370  1.3302  0.7617 -1.7692
 4608TIP3    H213789   1.073   2.477   0.492  0.6880 -0.4656 -1.4209
 4609TIP3   OH213790   1.040   5.558   4.768  0.7407  0.1769 -0.5919
 4609TIP3    H113791   0.967   5.546   4.707 -0.4253 -0.4493  0.8557
 4609TIP3    H213792   1.066   5.469   4.793  1.5915  0.4107 -0.6231
 4610TIP3   OH213793   2.710   0.587   1.773  0.1896  0.7424  0.2735
 4610TIP3    H113794   2.639   0.650   1.786 -1.9457 -1.6863  1.2834
 4610TIP3    H213795   2.766   0.598   1.851 -0.4651  1.0119  0.7148
 4611TIP3   OH213796   3.859   3.560   4.599 -0.4429 -0.1672  0.5033
 4611TIP3    H113797   3.791   3.563   4.533 -0.5938 -1.1871  0.5965
 4611TIP3    H213798   3.933   3.607   4.560 -0.3159 -1.2635 -0.6536
 4612TIP3   OH213799   6.542   3.872   4.644  0.7304 -0.0816  0.0435
 4612TIP3    H113800   6.630   3.907   4.634  1.0038 -0.7023  0.2661
 4612TIP3    H213801   6.553   3.792   4.695 -0.2036  1.0340  2.1124
 4613TIP3   OH213802   3.425   2.169   0.926 -0.3970  0.3989 -0.4409
 4613TIP3    H113803   3.364   2.220   0.979 -1.7938 -0.5018 -1.1185
 4613TIP3    H213804   3.460   2.104   0.986 -2.3484 -0.9399 -0.6563
 4614TIP3   OH213805   1.728   4.998   4.213  0.0673 -0.7944 -0.6239
 4614TIP3    H113806   1.797   4.987   4.149  0.7062  0.9523 -0.2833
 4614TIP3    H213807   1.732   5.090   4.239 -0.9871 -1.1394  0.9921
 4615TIP3   OH213808   7.183   0.329   5.503  0.5791  0.1188 -0.8441
 4615TIP3    H113809   7.132   0.366   5.575 -0.9790 -0.3853 -1.6529
 4615TIP3    H213810   7.271   0.364   5.516  0.0058  1.1458  0.5058
 4616TIP3   OH213811   2.085   4.038   5.546 -0.0815 -0.4920 -0.6264
 4616TIP3    H113812   2.177   4.064   5.551 -0.3246  0.5002 -1.1138
 4616TIP3    H213813   2.041   4.092   5.612 -0.5256  0.0130 -1.3281
 4617TIP3   OH213814   1.958   3.993   1.805  0.2469  0.2072 -0.1016
 4617TIP3    H113815   1.873   4.035   1.819  0.2068  0.1128 -0.0576
 4617TIP3    H213816   2.019   4.065   1.791  0.3652  0.3183  0.9700
 4618TIP3   OH213817   4.224   1.622   1.955  0.5567  0.8674 -0.7491
 4618TIP3    H113818   4.200   1.531   1.971  1.8018  0.7458  0.6151
 4618TIP3    H213819   4.244   1.658   2.042  2.7067  1.6542 -1.4889
 4619TIP3   OH213820   3.259   1.692   4.916  0.2214 -1.1826  0.0326
 4619TIP3    H113821   3.206   1.699   4.836 -0.9080 -0.7224  0.7942
 4619TIP3    H213822   3.336   1.747   4.899 -1.0055  0.6051  0.0310
 4620TIP3   OH213823   0.536   1.009   2.380 -0.5253 -0.9512 -0.0007
 4620TIP3    H113824   0.564   1.056   2.301 -0.9291 -1.4371 -0.4451
 4620TIP3    H213825   0.450   0.975   2.357 -0.2421 -1.9016  0.3073
 4621TIP3   OH213826   4.563   1.803   5.912  0.1820  0.2985  0.5549
 4621TIP3    H113827   4.585   1.893   5.935  2.1233 -0.4490  1.9197
 4621TIP3    H213828   4.592   1.794   5.821  2.3322  0.4171  1.1661
 4622TIP3   OH213829   5.314   6.434   5.684 -0.3774  0.4809 -0.1304
 4622TIP3    H113830   5.283   6.500   5.747  0.4660  0.4498  0.3268
 4622TIP3    H213831   5.382   6.387   5.731 -1.4147 -1.1771 -0.2238
 4623TIP3   OH213832   5.417   2.311   5.776 -0.0274 -0.1354  0.4723
 4623TIP3    H113833   5.343   2.368   5.798 -0.2325 -0.4815  0.6814
 4623TIP3    H213834   5.408   2.296   5.682  0.4695  0.8042  0.2601
 4624TIP3   OH213835   6.439   2.127   5.248 -0.0570  0.3653 -0.1943
 4624TIP3    H113836   6.511   2.117   5.311 -0.6417 -0.6509  0.3411
 4624TIP3    H213837   6.453   2.213   5.208  1.7545 -0.0206 -0.4814
 4625TIP3   OH213838   5.970   5.430   1.920 -0.4623  0.4996 -0.1719
 4625TIP3    H113839   5.893   5.487   1.921 -0.5587  0.3708 -0.2567
 4625TIP3    H213840   5.981   5.403   2.011 -0.9874 -0.1125 -0.2844
 4626TIP3   OH213841   5.676   5.928   5.267 -0.0208  0.2384  0.0064
 4626TIP3    H113842   5.687   5.836   5.292  0.3606  0.0457 -0.8404
 4626TIP3    H213843   5.624   5.925   5.186 -2.4704  0.9078  1.4268
 4627TIP3   OH213844   2.063   1.484   2.637  0.0976  0.0378 -0.3170
 4627TIP3    H113845   2.141   1.500   2.583  0.0230  0.5003 -0.2907
 4627TIP3    H213846   1.993   1.532   2.593 -0.6630 -2.0407 -1.5191
 4628TIP3   OH213847   0.000   4.209   4.924  0.4006  0.0119  0.5836
 4628TIP3    H113848   0.002   4.212   5.020 -1.1867  1.1738  0.6132
 4628TIP3    H213849   0.047   4.288   4.897 -0.2703  0.3670  0.4409
 4629TIP3   OH213850   5.190   3.111   4.550 -0.6760  0.1407  0.5424
 4629TIP3    H113851   5.182   3.065   4.634 -0.7193  1.7140  1.4278
 4629TIP3    H213852   5.115   3.169   4.546 -1.1720 -0.5447 -1.0377
 4630TIP3   OH213853   2.153   4.016   2.111  0.1544  0.1583 -0.3407
 4630TIP3    H113854   2.140   3.925   2.084 -1.3914  0.4450 -0.6791
 4630TIP3    H213855   2.187   4.060   2.033  2.3518 -0.3795  0.2346
 4631TIP3   OH213856   0.205   3.850   4.813  0.0543 -0.2481 -0.0554
 4631TIP3    H113857   0.177   3.796   4.739  0.7655 -0.6278 -0.0549
 4631TIP3    H213858   0.301   3.843   4.813  0.1873  1.1357 -0.1569
 4632TIP3   OH213859   6.286   5.267   4.601 -0.1572  0.1197  0.0353
 4632TIP3    H113860   6.314   5.213   4.675 -0.7959  0.8211  0.8039
 4632TIP3    H213861   6.261   5.350   4.640 -0.9858  0.3313 -0.9091
 4633TIP3   OH213862   2.683   3.977   0.297 -0.8295  0.4037 -0.3704
 4633TIP3    H113863   2.692   3.930   0.380  0.0308  1.1375 -0.0326
 4633TIP3    H213864   2.711   3.914   0.231 -1.1097 -0.0434 -0.0695
 4634TIP3   OH213865   5.163   6.422   3.848  0.1631  0.0841 -0.0867
 4634TIP3    H113866   5.185   6.513   3.829 -1.4211  0.2192 -1.5121
 4634TIP3    H213867   5.136   6.386   3.764 -1.8065 -0.9266  0.9175
 4635TIP3   OH213868   1.665   1.032   0.224 -0.1222 -0.4529 -0.2095
 4635TIP3    H113869   1.729   1.095   0.191 -1.0586  1.2174  1.0463
 4635TIP3    H213870   1.670   1.039   0.319  0.4184 -3.0212  0.0334
 4636TIP3   OH213871   6.050   0.128   2.252 -0.4354  0.6400 -0.7045
 4636TIP3    H113872   6.024   0.041   2.279 -1.0213  1.0631  0.1209
 4636TIP3    H213873   5.978   0.185   2.280  0.2749  1.4891 -0.5497
 4637TIP3   OH213874   3.855   4.470   0.826 -0.7118  0.1204  0.1759
 4637TIP3    H113875   3.800   4.394   0.807  0.8037 -0.8203 -0.6888
 4637TIP3    H213876   3.938   4.433   0.855 -0.1131  1.4665  0.2796
 4638TIP3   OH213877   3.168   2.488   3.602  0.3887 -0.3128  0.2643
 4638TIP3    H113878   3.200   2.565   3.648  0.3200 -0.8980  1.3297
 4638TIP3    H213879   3.075   2.506   3.585  0.6889  0.3931 -0.7168
 4639TIP3   OH213880   3.212   3.834   1.542  0.0605  0.3799  0.4318
 4639TIP3    H113881   3.221   3.894   1.617  0.6381 -0.1294  0.7757
 4639TIP3    H213882   3.131   3.786   1.559 -0.9710  1.7514 -0.3570
 4640TIP3   OH213883   2.139   5.270   1.793 -0.6951 -0.4808 -0.0890
 4640TIP3    H113884   2.158   5.210   1.721  0.3341  0.0133 -0.2576
 4640TIP3    H213885   2.140   5.356   1.753  0.5091 -0.1505  0.6030
 4641TIP3   OH213886   0.249   5.006   0.205 -0.5686 -0.2965 -0.2120
 4641TIP3    H113887   0.220   5.035   0.291 -0.1803  0.2007 -0.2382
 4641TIP3    H213888   0.171   5.012   0.150 -0.6808 -0.0417 -0.0308
 4642TIP3   OH213889   3.696   1.561   1.205  0.3119 -0.5189  0.5839
 4642TIP3    H113890   3.735   1.568   1.117 -0.6076 -0.0041  0.2030
 4642TIP3    H213891   3.750   1.618   1.259 -1.5297  2.5703 -0.5517
 4643TIP3   OH213892   6.881   3.464   3.621 -0.4401  0.4583 -0.5955
 4643TIP3    H113893   6.823   3.536   3.595 -0.3782  0.3601 -1.0222
 4643TIP3    H213894   6.838   3.424   3.697 -0.5575  0.8426 -0.4607
 4644TIP3   OH213895   4.529   3.540   3.561 -0.4319 -0.4308  0.5086
 4644TIP3    H113896   4.587   3.466   3.539 -1.1021 -0.6128 -0.7712
 4644TIP3    H213897   4.448   3.498   3.592  0.0772 -0.1788  2.2937
 4645TIP3   OH213898   6.543   1.310   4.519 -0.0411  0.6354  0.1118
 4645TIP3    H113899   6.623   1.263   4.545  1.4177  2.4749 -0.8104
 4645TIP3    H213900   6.520   1.273   4.434 -1.6811 -1.6160  1.4396
 4646TIP3   OH213901   1.753   0.305   4.770  0.6713  0.4722 -0.3824
 4646TIP3    H113902   1.703   0.236   4.726 -0.9692  2.1821 -1.3430
 4646TIP3    H213903   1.844   0.286   4.747  0.3420 -1.6817 -0.1108
 4647TIP3   OH213904   3.105   4.939   1.096  0.1631 -0.1628 -0.6890
 4647TIP3    H113905   3.105   4.844   1.110 -0.2425 -0.2387 -1.2063
 4647TIP3    H213906   3.047   4.953   1.022  0.7751  0.4256 -1.0728
 4648TIP3   OH213907   2.199   4.966   5.832 -1.0544 -0.0919 -0.3364
 4648TIP3    H113908   2.118   4.984   5.783 -1.4987 -1.8289 -0.3160
 4648TIP3    H213909   2.178   4.990   5.922 -1.4338 -0.1823 -0.3964
 4649TIP3   OH213910   0.301   0.189   4.999  0.2908  0.0457  0.6890
 4649TIP3    H113911   0.330   0.099   5.012  3.0531  0.7928  0.3643
 4649TIP3    H213912   0.289   0.224   5.087  1.3755 -0.0281  0.8717
 4650TIP3   OH213913   2.735   0.115   4.106  0.2554  0.1385  0.1157
 4650TIP3    H113914   2.733   0.207   4.080 -2.2584  0.2883  0.5590
 4650TIP3    H213915   2.756   0.068   4.025 -1.0514  0.9716 -0.7490
 4651TIP3   OH213916   1.150   1.357   4.658 -0.0612  0.0107 -0.0776
 4651TIP3    H113917   1.159   1.313   4.742 -0.7003 -0.1772 -0.1032
 4651TIP3    H213918   1.173   1.449   4.676  0.3818 -0.1441  0.1671
 4652TIP3   OH213919   1.324   5.356   2.198  0.8320 -0.1723  0.2725
 4652TIP3    H113920   1.371   5.361   2.281 -0.2793  2.8674  0.8552
 4652TIP3    H213921   1.387   5.386   2.132  0.8325  0.2724  0.4758
 4653TIP3   OH213922   0.919   1.914   0.542  0.1707  0.2281  0.3961
 4653TIP3    H113923   0.934   2.001   0.505  0.3493 -0.6426 -1.7037
 4653TIP3    H213924   0.828   1.894   0.521  0.1331 -0.1102  0.8564
 4654TIP3   OH213925   3.969   3.624   1.653  0.1715  0.2755 -0.0374
 4654TIP3    H113926   3.960   3.701   1.709  1.5823 -0.5880  1.4631
 4654TIP3    H213927   4.046   3.643   1.599  0.1781  0.1495 -0.0721
 4655TIP3   OH213928   1.177   3.405   0.911 -0.2512 -0.2991  0.3755
 4655TIP3    H113929   1.121   3.387   0.986  2.1068 -0.3453  2.2381
 4655TIP3    H213930   1.203   3.496   0.921  2.1513 -0.9953  1.1753
 4656TIP3   OH213931   3.953   2.359   1.079  0.1083 -0.7639  0.5385
 4656TIP3    H113932   3.906   2.430   1.037 -0.3873 -1.2998  0.1698
 4656TIP3    H213933   4.005   2.401   1.148 -1.6061 -0.2542  1.5707
 4657TIP3   OH213934   2.973   6.570   2.274  0.1228 -0.1219 -0.0487
 4657TIP3    H113935   2.930   6.524   2.202 -0.0774 -0.0069 -0.0027
 4657TIP3    H213936   2.918   6.647   2.290 -0.2442 -0.5462  0.7351
 4658TIP3   OH213937   0.232   6.569   4.739 -0.5271  0.4344 -0.0318
 4658TIP3    H113938   0.152   6.527   4.708 -0.9674  2.0972 -1.2780
 4658TIP3    H213939   0.296   6.554   4.670 -0.3077  0.7202  0.1069
 4659TIP3   OH213940   2.667   6.651   0.671 -0.6034 -0.2076 -0.7792
 4659TIP3    H113941   2.685   6.559   0.688 -0.8320 -0.2484 -0.7541
 4659TIP3    H213942   2.606   6.651   0.597  0.4428 -0.0286 -1.6742
 4660TIP3   OH213943   6.038   1.731   3.475  0.1803  0.2107  0.1165
 4660TIP3    H113944   5.983   1.661   3.438  1.1884  0.0172 -1.0755
 4660TIP3    H213945   6.018   1.808   3.421  1.1578  0.1059 -0.4132
 4661TIP3   OH213946   4.954   2.998   0.139  0.0122  0.0750 -0.0514
 4661TIP3    H113947   5.037   2.964   0.104 -0.8038 -0.9067 -1.1369
 4661TIP3    H213948   4.900   2.919   0.150 -1.1914  0.8056 -0.5531
 4662TIP3   OH213949   5.902   6.262   3.615 -0.1611 -0.6181  0.1579
 4662TIP3    H113950   5.982   6.267   3.667 -0.2959 -0.3587  0.3493
 4662TIP3    H213951   5.833   6.244   3.679 -0.2560 -0.8449 -0.0052
 4663TIP3   OH213952   6.962   4.820   4.472  0.4511 -0.0288  0.4200
 4663TIP3    H113953   7.004   4.903   4.448 -2.0764  1.2301 -0.0031
 4663TIP3    H213954   7.025   4.753   4.445  1.5388  1.6472 -1.5505
 4664TIP3   OH213955   4.013   2.715   5.056  0.4036  0.4558  0.7870
 4664TIP3    H113956   3.980   2.799   5.023  1.9343  0.4159 -1.0306
 4664TIP3    H213957   4.107   2.719   5.041  0.8583 -0.6354  2.9824
 4665TIP3   OH213958   4.528   0.748   2.648  0.2355  0.4206  0.0704
 4665TIP3    H113959   4.597   0.750   2.714  1.7257  0.0363 -1.4145
 4665TIP3    H213960   4.517   0.655   2.627 -1.9836  0.2903  1.4748
 4666TIP3   OH213961   5.202   4.429   3.186  0.1023 -0.3777 -0.2493
 4666TIP3    H113962   5.244   4.440   3.271 -1.0749  1.0188  0.1903
 4666TIP3    H213963   5.273   4.438   3.122  0.5017  2.0938  0.4572
 4667TIP3   OH213964   6.445   6.249   2.995  0.5428 -0.3544  0.2028
 4667TIP3    H113965   6.510   6.306   2.954 -1.5140  0.9940 -1.4141
 4667TIP3    H213966   6.433   6.177   2.932  0.4356 -0.5626  0.4614
 4668TIP3   OH213967   4.668   2.256   0.425 -0.2830 -0.4548  0.1243
 4668TIP3    H113968   4.596   2.316   0.443  0.8863  0.5988  1.5347
 4668TIP3    H213969   4.658   2.233   0.332 -2.7114 -0.7798  0.4196
 4669TIP3   OH213970   5.957   5.655   1.086 -0.1378 -0.3741 -0.1327
 4669TIP3    H113971   5.881   5.598   1.073 -0.4571 -0.1208  0.5410
 4669TIP3    H213972   5.958   5.713   1.010  0.5099 -1.6212 -1.1078
 4670TIP3   OH213973   5.531   4.318   0.239 -0.0788 -0.4691  0.3659
 4670TIP3    H113974   5.557   4.398   0.193  1.4027  0.0956  2.0683
 4670TIP3    H213975   5.534   4.250   0.172  0.4186  0.5720 -0.7150
 4671TIP3   OH213976   5.279   0.440   1.088 -0.2020  0.6631 -0.1464
 4671TIP3    H113977   5.350   0.503   1.103  0.9381 -0.4948 -0.5223
 4671TIP3    H213978   5.320   0.355   1.099 -1.5916 -0.0384 -0.2091
 4672TIP3   OH213979   2.614   4.354   4.110 -0.4977  0.0941  0.0960
 4672TIP3    H113980   2.620   4.299   4.188 -0.4387  0.4423  0.3404
 4672TIP3    H213981   2.520   4.368   4.098 -0.4788  2.5337  1.9012
 4673TIP3   OH213982   2.010   2.544   0.252  0.0496 -0.4852  0.0367
 4673TIP3    H113983   1.971   2.459   0.271  1.6494 -1.2671  0.0167
 4673TIP3    H213984   2.079   2.525   0.188  0.2560  0.8668 -0.1680
 4674TIP3   OH213985   3.444   0.370   5.522 -0.3789  0.0514  0.5279
 4674TIP3    H113986   3.405   0.456   5.508 -0.9723 -0.5412 -1.8369
 4674TIP3    H213987   3.485   0.348   5.439  0.0055 -1.8374  1.1604
 4675TIP3   OH213988   3.554   2.781   0.258  0.0026 -0.0216 -0.1658
 4675TIP3    H113989   3.609   2.708   0.229  1.1809 -0.1447  2.1303
 4675TIP3    H213990   3.606   2.859   0.239 -1.5109  0.3893 -3.1844
 4676TIP3   OH213991   7.138   1.540   3.227  0.1456 -0.1299  0.1060
 4676TIP3    H113992   7.080   1.472   3.193  1.2945 -0.7847 -0.6146
 4676TIP3    H213993   7.109   1.620   3.183  0.7961 -0.7380 -1.5203
 4677TIP3   OH213994   6.579   5.450   0.491  0.0596 -0.4545 -0.5382
 4677TIP3    H113995   6.662   5.415   0.523 -0.1917 -0.5672  0.0097
 4677TIP3    H213996   6.591   5.459   0.397  1.5134  1.7244 -0.2200
 4678TIP3   OH213997   0.931   3.037   4.334 -0.2494 -0.5835  0.0503
 4678TIP3    H113998   0.941   2.944   4.315 -2.6154 -0.7211 -0.8561
 4678TIP3    H213999   0.946   3.044   4.428  0.8639 -1.6912 -0.0165
 4679TIP3   OH214000   2.901   4.875   2.488  0.0699 -0.1500  0.4284
 4679TIP3    H114001   2.932   4.792   2.524  0.6387  0.7401  2.1047
 4679TIP3    H214002   2.981   4.923   2.465  0.1067  1.8560  4.0673
 4680TIP3   OH214003   4.146   3.427   4.864 -0.4496  0.0486  0.7455
 4680TIP3    H114004   4.214   3.411   4.799 -0.9268 -2.5961  0.7756
 4680TIP3    H214005   4.165   3.514   4.898  0.3081  1.2008 -2.3010
 4681TIP3   OH214006   1.604   2.604   0.081  0.6393 -0.3356 -0.3128
 4681TIP3    H114007   1.690   2.580   0.047  1.4943  1.0030  0.8236
 4681TIP3    H214008   1.620   2.676   0.141 -1.6100  1.9353 -2.2130
 4682TIP3   OH214009   2.463   0.637   4.330 -0.7757  0.1097  0.2630
 4682TIP3    H114010   2.497   0.548   4.319  0.5830  0.2828  2.4678
 4682TIP3    H214011   2.367   0.627   4.329 -0.6790 -1.0528 -1.4641
 4683TIP3   OH214012   7.091   4.809   2.910  1.0529  0.8814 -0.2894
 4683TIP3    H114013   7.048   4.753   2.845  1.2090  2.8363 -2.1917
 4683TIP3    H214014   7.019   4.845   2.962  0.8766 -0.2097  0.2597
 4684TIP3   OH214015   1.038   1.375   2.940  0.1457  0.6553 -0.0884
 4684TIP3    H114016   0.978   1.417   3.002  0.5373  1.7293 -0.4168
 4684TIP3    H214017   0.991   1.378   2.856 -0.3576 -0.7365  0.1172
 4685TIP3   OH214018   1.364   4.671   0.769 -0.6065  0.0815  0.3703
 4685TIP3    H114019   1.356   4.765   0.787  1.1100  0.5561 -1.0514
 4685TIP3    H214020   1.333   4.629   0.849  0.4273  1.8963  1.8287
 4686TIP3   OH214021   3.254   0.090   4.508 -0.1195 -0.1383 -0.0758
 4686TIP3    H114022   3.264   0.106   4.601  1.1258  1.0504 -0.3861
 4686TIP3    H214023   3.164   0.057   4.499 -0.2690 -0.2322  1.5146
 4687TIP3   OH214024   1.020   0.067   3.572  0.0981  0.4683 -0.6610
 4687TIP3    H114025   1.008  -0.017   3.616  2.2470 -0.2914 -1.3844
 4687TIP3    H214026   1.012   0.132   3.642 -1.0390 -0.3521  0.0116
 4688TIP3   OH214027   7.037   3.911   4.479 -0.1600 -0.2579  0.3224
 4688TIP3    H114028   7.115   3.927   4.532  0.7136  0.2895 -1.0790
 4688TIP3    H214029   7.048   3.968   4.403 -2.3141  0.4111  0.4637
 4689TIP3   OH214030   5.697   1.795   2.207 -0.2044 -0.0403 -0.2247
 4689TIP3    H114031   5.758   1.752   2.147 -0.4123 -1.7107  0.7239
 4689TIP3    H214032   5.616   1.803   2.157  0.0054 -0.1939 -0.5981
 4690TIP3   OH214033   4.301   3.974   4.882 -0.3759 -0.8575 -0.1099
 4690TIP3    H114034   4.234   4.041   4.892 -0.0529 -0.4573 -0.5519
 4690TIP3    H214035   4.363   3.991   4.952 -1.0126 -1.5729  0.6418
 4691TIP3   OH214036   5.629   5.854   1.946 -0.0151  0.2899 -0.2884
 4691TIP3    H114037   5.640   5.940   1.986 -0.9017  0.5739 -0.6274
 4691TIP3    H214038   5.540   5.856   1.909 -0.3661 -1.0578  0.4242
 4692TIP3   OH214039   0.667   5.731   0.534 -0.0169  0.3075  0.6468
 4692TIP3    H114040   0.679   5.652   0.587 -0.0209  1.9577  3.2979
 4692TIP3    H214041   0.676   5.701   0.443 -1.6185 -2.9676  1.4467
 4693TIP3   OH214042   3.093   2.118   3.942  0.6991 -0.0827  0.0230
 4693TIP3    H114043   3.115   2.112   4.035 -2.8006  0.5432  1.0429
 4693TIP3    H214044   3.172   2.152   3.900  1.9408  0.9222  2.9614
 4694TIP3   OH214045   2.199   2.518   0.545 -0.9099  0.1511  0.5375
 4694TIP3    H114046   2.125   2.460   0.564 -0.8708  0.3679  1.4292
 4694TIP3    H214047   2.255   2.511   0.623  0.1965 -0.2880 -0.2723
 4695TIP3   OH214048   4.365   5.280   3.763  0.0658  0.3316  0.5044
 4695TIP3    H114049   4.399   5.369   3.760  0.8330  0.3139  3.9710
 4695TIP3    H214050   4.270   5.291   3.762  0.1505  1.1094  0.1105
 4696TIP3   OH214051   2.113   0.207   5.144 -0.1007 -0.6904  0.2371
 4696TIP3    H114052   2.042   0.257   5.104 -0.6129 -0.9444  0.8225
 4696TIP3    H214053   2.103   0.118   5.109 -0.4807 -0.8856  0.8249
 4697TIP3   OH214054   1.409   6.557   1.847  0.3429  0.0266 -0.8096
 4697TIP3    H114055   1.451   6.571   1.762 -1.4361 -0.2641 -1.7984
 4697TIP3    H214056   1.358   6.477   1.835 -1.8261  1.2450 -0.2847
 4698TIP3   OH214057   4.163   1.981   0.597  0.0098  0.2388 -0.3669
 4698TIP3    H114058   4.134   2.015   0.681 -0.2270 -1.4848  0.2995
 4698TIP3    H214059   4.084   1.941   0.559  0.6037 -1.0270 -0.3313
 4699TIP3   OH214060   1.137   4.492   0.865 -0.4236 -0.6588  0.0553
 4699TIP3    H114061   1.123   4.425   0.798  0.2702 -0.4893 -0.2621
 4699TIP3    H214062   1.071   4.559   0.846  0.0748 -0.3865 -0.7571
 4700TIP3   OH214063   4.033   5.292   4.018  0.3489  0.0552 -0.1225
 4700TIP3    H114064   4.038   5.197   4.031 -3.7009 -0.2719  0.4587
 4700TIP3    H214065   4.043   5.303   3.923 -0.7905 -1.2325 -0.4342
 4701TIP3   OH214066   7.162   5.421   2.600  0.0897  0.0755  0.1566
 4701TIP3    H114067   7.124   5.358   2.539  1.6561 -0.0152 -0.7710
 4701TIP3    H214068   7.240   5.454   2.555  0.1799  1.4865  1.2983
 4702TIP3   OH214069   6.887   1.901   1.578  0.3992 -0.1264  0.2760
 4702TIP3    H114070   6.919   1.886   1.489  0.5593  1.0895  0.1074
 4702TIP3    H214071   6.818   1.967   1.567  1.0111  0.6798  1.1265
 4703TIP3   OH214072   7.173   1.167   1.198 -0.2745  0.2685  0.5111
 4703TIP3    H114073   7.176   1.111   1.120  2.0167  0.3958  0.4313
 4703TIP3    H214074   7.201   1.109   1.270 -0.4401  0.6474  0.8840
 4704TIP3   OH214075   0.464   4.842   0.221  0.9858  0.4733  0.4671
 4704TIP3    H114076   0.448   4.798   0.305  0.7744 -0.4679 -0.0588
 4704TIP3    H214077   0.379   4.878   0.197  0.9003  0.1911  0.3453
 4705TIP3   OH214078   5.388   3.819   4.782  0.5766  0.6984 -0.0598
 4705TIP3    H114079   5.444   3.769   4.722  0.9080  2.0235 -0.8996
 4705TIP3    H214080   5.450   3.861   4.842  0.4558  1.6635 -0.5969
 4706TIP3   OH214081   6.607   1.847   3.130 -0.2230 -0.3689  0.1820
 4706TIP3    H114082   6.596   1.824   3.222  2.3567 -2.2450  0.1304
 4706TIP3    H214083   6.581   1.768   3.082  0.1997 -0.0457 -0.5960
 4707TIP3   OH214084   5.376   2.176   3.260 -0.2179  0.2031 -0.4629
 4707TIP3    H114085   5.282   2.163   3.271 -0.4500  0.3638 -1.9974
 4707TIP3    H214086   5.416   2.104   3.308 -1.0272  1.2151  1.8403
 4708TIP3   OH214087   6.990   6.559   3.109  0.2103  0.2143  0.4705
 4708TIP3    H114088   6.923   6.567   3.177 -0.2640 -1.6972  0.2848
 4708TIP3    H214089   6.944   6.520   3.035  1.2420  0.0948 -0.1224
 4709TIP3   OH214090   5.919   1.592   4.313 -0.2654  0.4975 -0.0099
 4709TIP3    H114091   5.973   1.578   4.235 -1.4020 -0.4585 -0.6481
 4709TIP3    H214092   5.899   1.504   4.344  0.0910  0.8707  1.3267
 4710TIP3   OH214093   6.712   2.564   1.755 -0.6203  0.2065 -0.7348
 4710TIP3    H114094   6.752   2.635   1.804 -0.6498 -0.0982 -0.2593
 4710TIP3    H214095   6.651   2.607   1.695 -0.9531  0.5551 -0.1552
 4711TIP3   OH214096   0.105   2.206   2.070 -0.1236  0.0807  0.3656
 4711TIP3    H114097   0.018   2.229   2.103 -0.4124 -3.3358  2.5576
 4711TIP3    H214098   0.088   2.166   1.984 -0.7453 -0.3283  0.6646
 4712TIP3   OH214099   5.979   1.441   2.260 -0.1011 -0.2905  0.2848
 4712TIP3    H114100   5.943   1.504   2.198 -1.0657 -1.6244 -0.5660
 4712TIP3    H214101   6.070   1.469   2.273  0.2255 -0.1069 -1.9646
 4713TIP3   OH214102   2.806   4.896   2.209  0.2206 -0.2199  0.2545
 4713TIP3    H114103   2.735   4.841   2.243  0.9765 -1.3235  0.0951
 4713TIP3    H214104   2.814   4.967   2.273  0.0580 -0.9800  1.1404
 4714TIP3   OH214105   6.141   3.391   1.954  0.2688  0.5648  0.7141
 4714TIP3    H114106   6.190   3.450   1.898  1.7598 -1.3079 -0.0736
 4714TIP3    H214107   6.208   3.339   1.999 -0.9203 -2.0156 -0.2975
 4715TIP3   OH214108   2.684   1.523   5.357  0.2077 -0.1077 -0.3223
 4715TIP3    H114109   2.652   1.509   5.447  0.6740 -1.6885 -0.3622
 4715TIP3    H214110   2.608   1.507   5.302  0.6302 -2.4738 -0.3412
 4716TIP3   OH214111   3.767   4.504   3.281 -0.1240  0.1613 -0.0341
 4716TIP3    H114112   3.762   4.446   3.205  1.5796  0.3642 -0.3502
 4716TIP3    H214113   3.676   4.525   3.302 -0.7107 -1.5906 -0.6962
 4717TIP3   OH214114   4.731   0.518   5.797  0.3278 -0.0610 -0.4588
 4717TIP3    H114115   4.669   0.452   5.765  0.3061  0.0204 -0.5892
 4717TIP3    H214116   4.777   0.545   5.718 -1.5775  2.1197 -0.9282
 4718TIP3   OH214117   6.328   0.518   1.663 -0.4417 -0.2209  0.3721
 4718TIP3    H114118   6.406   0.464   1.670  0.2054  0.8231  1.5648
 4718TIP3    H214119   6.348   0.582   1.594 -0.4170 -0.2206  0.3797
 4719TIP3   OH214120   2.855   2.282   5.618  0.2643  1.1915 -0.9386
 4719TIP3    H114121   2.834   2.239   5.536 -1.4474 -1.1281  0.5869
 4719TIP3    H214122   2.770   2.313   5.651  0.8449  1.6304  0.2042
 4720TIP3   OH214123   0.037   5.231   3.109  0.2589  0.3638 -0.2667
 4720TIP3    H114124   0.073   5.299   3.165  0.0702 -0.8830  1.4356
 4720TIP3    H214125   0.029   5.273   3.023  1.1463  2.1381  0.4621
 4721TIP3   OH214126   6.441   2.517   0.312  0.3599  0.3863  0.1132
 4721TIP3    H114127   6.436   2.610   0.332 -2.7543  0.2253  0.5284
 4721TIP3    H214128   6.389   2.475   0.381 -0.3202 -1.4103 -1.4184
 4722TIP3   OH214129   0.240   2.778   4.379  0.5825  0.2639  0.6770
 4722TIP3    H114130   0.275   2.711   4.320 -0.4314  0.7227 -0.4830
 4722TIP3    H214131   0.146   2.780   4.361  0.3410  0.8508  1.8839
 4723TIP3   OH214132   6.787   4.145   3.927 -0.0153 -0.0614  0.2525
 4723TIP3    H114133   6.719   4.154   3.993  0.4165  1.0580  0.5687
 4723TIP3    H214134   6.759   4.201   3.855  0.3857  0.1274  0.2387
 4724TIP3   OH214135   3.675   0.182   4.244  0.3445 -0.3996  0.3534
 4724TIP3    H114136   3.605   0.241   4.218  0.1539 -0.7159  0.1326
 4724TIP3    H214137   3.648   0.096   4.210  0.6058 -0.6161  0.6808
 4725TIP3   OH214138   5.286   5.487   2.867  0.0895  0.0901 -0.1219
 4725TIP3    H114139   5.196   5.458   2.857 -0.0181  0.2228  0.4067
 4725TIP3    H214140   5.288   5.574   2.826 -0.1469  0.2900  0.2774
 4726TIP3   OH214141   2.551   5.592   2.919  0.0133  0.1575 -0.1314
 4726TIP3    H114142   2.594   5.615   3.001  0.8626  0.6489 -0.7036
 4726TIP3    H214143   2.471   5.546   2.946 -0.1585  1.0625  0.9800
 4727TIP3   OH214144   3.061   6.656   1.625  0.2871 -0.3079 -0.4570
 4727TIP3    H114145   3.146   6.614   1.625  0.5456  0.1388 -2.1523
 4727TIP3    H214146   3.034   6.657   1.717  3.0293  1.4089  0.4247
 4728TIP3   OH214147   4.476   1.422   2.791 -0.2129 -0.4614  0.2602
 4728TIP3    H114148   4.501   1.333   2.763  0.4179 -0.2517  0.1312
 4728TIP3    H214149   4.414   1.408   2.862  0.4787 -1.0172  0.7777
 4729TIP3   OH214150   2.374   4.204   0.639 -0.1719  0.4245 -0.0853
 4729TIP3    H114151   2.437   4.202   0.711  1.8278  1.8082 -1.6805
 4729TIP3    H214152   2.364   4.112   0.614 -0.9853 -0.0948  1.9466
 4730TIP3   OH214153   2.311   5.226   0.435  0.0946  0.5024  0.2046
 4730TIP3    H114154   2.263   5.151   0.470 -0.8336  0.7819 -0.4197
 4730TIP3    H214155   2.292   5.298   0.495 -1.5429  0.9964 -0.8328
 4731TIP3   OH214156   2.190   1.456   0.500  0.1980 -0.0491 -0.5598
 4731TIP3    H114157   2.252   1.503   0.556  1.4104  0.1514 -2.0201
 4731TIP3    H214158   2.114   1.513   0.495 -0.9019 -1.0296  2.6189
 4732TIP3   OH214159   6.316   4.255   1.838 -0.2166  0.1766  0.1498
 4732TIP3    H114160   6.245   4.319   1.833  0.6533  1.1054 -0.5192
 4732TIP3    H214161   6.276   4.178   1.880 -1.2659  1.1609  0.9996
 4733TIP3   OH214162   0.059   0.610   0.222  0.3164  0.1315 -0.3779
 4733TIP3    H114163   0.048   0.519   0.196 -0.3784 -0.4901  1.8305
 4733TIP3    H214164   0.151   0.630   0.201  0.0256 -0.4831 -2.4577
 4734TIP3   OH214165   5.746   6.088   3.989 -0.0609 -0.4833 -0.4985
 4734TIP3    H114166   5.717   6.080   4.080 -0.0982  0.1979 -0.4408
 4734TIP3    H214167   5.733   6.001   3.952 -0.1819 -0.7338  0.1072
 4735TIP3   OH214168   1.912   6.566   2.950 -0.1247  0.2237  0.1370
 4735TIP3    H114169   2.002   6.597   2.957 -0.4054  0.9128  0.9316
 4735TIP3    H214170   1.870   6.598   3.030 -1.0941 -0.0273 -0.2596
 4736TIP3   OH214171   5.463   3.687   2.510  0.4638 -0.1322  0.2753
 4736TIP3    H114172   5.487   3.737   2.431 -0.1675 -1.0051 -0.5006
 4736TIP3    H214173   5.546   3.668   2.553  0.8486  0.0670 -0.3656
 4737TIP3   OH214174   5.021   1.700   0.117  0.1243  1.0670 -0.6637
 4737TIP3    H114175   5.028   1.638   0.190  0.7940  1.3246 -0.4928
 4737TIP3    H214176   4.991   1.648   0.043  0.9507  0.4765 -0.5926
 4738TIP3   OH214177   3.783   2.753   4.357  0.2644  0.1293  0.0399
 4738TIP3    H114178   3.828   2.705   4.426 -2.5808 -0.7793  1.4267
 4738TIP3    H214179   3.853   2.784   4.299  2.5526 -1.5386  1.7399
 4739TIP3   OH214180   2.049   3.121   1.667 -0.5338 -0.7496  0.1713
 4739TIP3    H114181   1.995   3.172   1.727 -0.7093 -0.5919 -0.1190
 4739TIP3    H214182   2.111   3.184   1.630  1.3353 -1.3120  2.1363
 4740TIP3   OH214183   5.431   1.953   5.291  0.1905 -0.0738 -0.4793
 4740TIP3    H114184   5.371   1.878   5.298  0.8756 -0.4783  2.6438
 4740TIP3    H214185   5.438   1.986   5.380  1.9594  2.1295 -1.3370
 4741TIP3   OH214186   5.797   4.888   1.907  0.4693  0.6875  0.4234
 4741TIP3    H114187   5.828   4.874   1.997  0.9944  0.8890  0.2747
 4741TIP3    H214188   5.768   4.801   1.879  2.7906  0.0296 -0.1418
 4742TIP3   OH214189   6.271   0.229   2.397 -0.2028 -0.4593  0.5987
 4742TIP3    H114190   6.324   0.154   2.371 -1.9525 -2.0238  1.3692
 4742TIP3    H214191   6.190   0.221   2.346  0.6247  2.5970 -1.5408
 4743TIP3   OH214192   0.783   0.301   2.838  0.4326  0.3556  0.2868
 4743TIP3    H114193   0.717   0.268   2.900  1.9022 -0.6786  1.3981
 4743TIP3    H214194   0.818   0.222   2.797 -1.1805  1.0598 -2.7055
 4744TIP3   OH214195   4.666   6.329   5.214 -0.1999  0.3651  0.1467
 4744TIP3    H114196   4.612   6.407   5.229 -0.3050  0.3762 -0.2647
 4744TIP3    H214197   4.694   6.302   5.301 -3.7312 -1.7127  0.8672
 4745TIP3   OH214198   1.109   4.100   0.093 -0.3193 -0.2252  0.1570
 4745TIP3    H114199   1.164   4.114   0.171  1.0809 -0.2228 -0.7922
 4745TIP3    H214200   1.039   4.043   0.124  0.8187 -1.1412  1.1906
 4746TIP3   OH214201   0.318   1.525   3.790 -0.3711  0.0846  0.1982
 4746TIP3    H114202   0.251   1.545   3.855 -0.0926 -0.4389  0.6612
 4746TIP3    H214203   0.388   1.588   3.806 -0.1913 -0.2075  0.5855
 4747TIP3   OH214204   0.292   0.653   4.300 -0.2166 -0.2791  0.1747
 4747TIP3    H114205   0.356   0.583   4.314 -1.5994 -1.5030  0.6753
 4747TIP3    H214206   0.208   0.615   4.327 -1.3504  0.9001 -1.4405
 4748TIP3   OH214207   1.609   5.210   2.323 -0.2635  0.5449 -0.0072
 4748TIP3    H114208   1.574   5.128   2.288 -1.1252  0.4593  0.9877
 4748TIP3    H214209   1.538   5.244   2.378  0.5308  1.3493  0.5460
 4749TIP3   OH214210   1.061   4.308   0.672 -0.2388 -0.2934  0.2011
 4749TIP3    H114211   1.049   4.281   0.581 -1.0107  0.8898 -0.0783
 4749TIP3    H214212   1.008   4.246   0.723 -0.5774 -0.3798 -0.2469
 4750TIP3   OH214213   2.663   4.714   2.429 -0.3897  0.5975  0.4692
 4750TIP3    H114214   2.697   4.640   2.379 -0.8459  0.1850  0.7556
 4750TIP3    H214215   2.737   4.745   2.480  0.0330  0.8986 -0.3141
 4751TIP3   OH214216   6.410   2.746   5.542 -0.1281  0.2849  0.4734
 4751TIP3    H114217   6.488   2.747   5.597  0.1447 -0.8781  0.1362
 4751TIP3    H214218   6.390   2.653   5.530 -1.3265  0.5617  0.2171
 4752TIP3   OH214219   6.898   0.985   4.901 -0.7064 -0.0682 -0.3244
 4752TIP3    H114220   6.913   1.079   4.889  0.3989 -0.3626 -1.4962
 4752TIP3    H214221   6.936   0.945   4.823 -0.3497 -1.5606  0.5849
 4753TIP3   OH214222   6.267   0.508   0.926  0.2728  0.0282  0.3612
 4753TIP3    H114223   6.243   0.457   1.004 -2.7105  0.8128  0.1057
 4753TIP3    H214224   6.271   0.599   0.957  0.8371  0.1485 -0.0561
 4754TIP3   OH214225   6.285   5.526   5.029 -0.7244  0.0426  0.2419
 4754TIP3    H114226   6.247   5.557   5.112 -4.6147  0.1848 -1.3812
 4754TIP3    H214227   6.300   5.433   5.043 -2.9067 -0.2966  0.6792
 4755TIP3   OH214228   1.644   0.534   3.141 -0.5028 -0.3215  0.0860
 4755TIP3    H114229   1.583   0.461   3.152  1.2681 -2.0524 -0.8332
 4755TIP3    H214230   1.666   0.560   3.230 -2.8858  0.6986  0.4490
 4756TIP3   OH214231   2.381   2.357   4.922 -0.3378  0.4866 -0.0354
 4756TIP3    H114232   2.453   2.344   4.860  0.4209  1.0815  0.6984
 4756TIP3    H214233   2.307   2.384   4.867 -0.3538 -1.2169 -0.9318
 4757TIP3   OH214234   7.141   3.379   0.193 -0.1237  0.4813 -0.2076
 4757TIP3    H114235   7.098   3.303   0.154  2.0474 -1.1108  0.3495
 4757TIP3    H214236   7.220   3.344   0.233  1.4298  3.1698 -0.6968
 4758TIP3   OH214237   1.968   6.559   4.426  0.2229  0.0449 -0.1689
 4758TIP3    H114238   2.018   6.606   4.360  0.6348 -0.4309 -0.1975
 4758TIP3    H214239   1.978   6.611   4.506 -1.6275  1.5379 -0.8306
 4759TIP3   OH214240   3.823   5.222   2.895 -0.6140 -0.1264 -0.4509
 4759TIP3    H114241   3.888   5.291   2.881  1.2678 -1.7443 -0.0742
 4759TIP3    H214242   3.745   5.253   2.847  0.6668  1.5033 -1.5944
 4760TIP3   OH214243   3.205   4.610   2.707 -0.4905 -0.1089 -1.1080
 4760TIP3    H114244   3.251   4.528   2.724 -0.0912  0.0041 -1.6253
 4760TIP3    H214245   3.274   4.674   2.691 -0.8249  0.0393 -2.0116
 4761TIP3   OH214246   3.013   5.087   0.517  0.9223 -0.5289 -0.1093
 4761TIP3    H114247   3.041   5.173   0.484 -2.1504  0.9916  0.8785
 4761TIP3    H214248   2.950   5.056   0.453  0.1368 -0.8316  0.7976
 4762TIP3   OH214249   7.170   4.431   2.630  0.4430  0.1501  0.3855
 4762TIP3    H114250   7.136   4.520   2.627  0.2705  0.0677 -0.5351
 4762TIP3    H214251   7.263   4.440   2.612  0.3450  0.1092 -0.1525
 4763TIP3   OH214252   2.060   6.259   5.878  0.1702 -0.4483 -0.1115
 4763TIP3    H114253   2.087   6.309   5.801 -0.2853  1.7993  1.0914
 4763TIP3    H214254   2.068   6.168   5.851  0.4918  0.2380 -2.6417
 4764TIP3   OH214255   0.393   4.071   2.537 -0.0783  0.5602  0.4741
 4764TIP3    H114256   0.340   4.090   2.614 -0.7114  0.9685 -0.0538
 4764TIP3    H214257   0.376   4.143   2.477  1.3878  0.9135  0.4357
 4765TIP3   OH214258   3.237   6.384   0.159  0.9931  0.6468  0.0322
 4765TIP3    H114259   3.247   6.290   0.169  1.3695  0.5679 -0.9305
 4765TIP3    H214260   3.151   6.404   0.196  0.8307 -0.1020  0.0588
 4766TIP3   OH214261   3.576   4.484   5.131  0.6795 -0.7947  0.1443
 4766TIP3    H114262   3.661   4.493   5.173 -0.2248 -0.9705  2.0936
 4766TIP3    H214263   3.580   4.398   5.087  1.1895 -1.2108  0.9929
 4767TIP3   OH214264   6.321   4.949   1.986 -0.4056  0.1045  0.7667
 4767TIP3    H114265   6.323   4.905   2.071 -0.3309  1.1082  1.2904
 4767TIP3    H214266   6.388   4.904   1.934 -0.8720 -0.9219  1.0167
 4768TIP3   OH214267   1.514   1.722   3.973  0.4120 -0.4480  0.4498
 4768TIP3    H114268   1.586   1.786   3.971 -0.4075  0.6195  2.6543
 4768TIP3    H214269   1.514   1.688   4.062 -1.3283 -0.9959  0.2783
 4769TIP3   OH214270   4.134   6.653   4.347  0.3401 -0.0708 -0.1833
 4769TIP3    H114271   4.129   6.653   4.443  1.4456 -1.3045 -0.0961
 4769TIP3    H214272   4.043   6.655   4.318 -0.0523  3.2897  0.8112
 4770TIP3   OH214273   5.213   1.476   1.329  0.1686 -0.0566  0.2922
 4770TIP3    H114274   5.215   1.382   1.348 -3.0813 -0.1787  0.5312
 4770TIP3    H214275   5.161   1.483   1.249  1.2146  1.5162 -0.2884
 4771TIP3   OH214276   7.059   2.713   0.834 -0.4233 -0.0810  0.3142
 4771TIP3    H114277   7.044   2.639   0.893 -1.0603  0.7953  1.3017
 4771TIP3    H214278   7.140   2.753   0.866 -0.2966 -0.1158  0.0378
 4772TIP3   OH214279   6.567   6.635   2.793 -0.1945  0.0278  0.0191
 4772TIP3    H114280   6.607   6.714   2.828  2.0522 -0.7394 -0.6608
 4772TIP3    H214281   6.595   6.566   2.853 -2.1106 -0.3094  0.5946
 4773TIP3   OH214282   2.587   1.077   1.371  0.1382  0.4193  0.1686
 4773TIP3    H114283   2.643   1.063   1.448 -0.1038  0.4387  0.3484
 4773TIP3    H214284   2.648   1.105   1.302  0.2641  1.0854  0.5397
 4774TIP3   OH214285   3.172   4.802   3.444  0.2415  0.1410 -0.0026
 4774TIP3    H114286   3.145   4.766   3.528 -1.7957 -2.2680 -1.5289
 4774TIP3    H214287   3.254   4.756   3.424 -0.0880 -0.4546 -0.0086
 4775TIP3   OH214288   0.398   4.606   0.741  0.3612  0.0653 -0.0893
 4775TIP3    H114289   0.412   4.642   0.654  0.4001  0.9010  0.2500
 4775TIP3    H214290   0.375   4.682   0.795  0.7840 -0.3673  0.7205
 4776TIP3   OH214291   0.601   1.049   1.664  0.3806  0.4289  0.1844
 4776TIP3    H114292   0.521   1.070   1.713  0.0894  0.9010 -0.4698
 4776TIP3    H214293   0.672   1.074   1.722  0.0562 -0.0681  0.8061
 4777TIP3   OH214294   3.498   3.387   0.287  0.4779  0.6100 -0.1016
 4777TIP3    H114295   3.519   3.474   0.255  0.6442  0.7678  0.4220
 4777TIP3    H214296   3.547   3.379   0.369  1.9239 -0.6582 -1.0320
 4778TIP3   OH214297   3.519   0.087   1.342 -0.8671  0.5712 -0.0986
 4778TIP3    H114298   3.608   0.083   1.377 -0.7080  3.7185  0.1375
 4778TIP3    H214299   3.472   0.017   1.388  1.2995 -0.7597  0.2231
 4779TIP3   OH214300   5.662   5.317   5.345 -0.4233 -0.4217 -0.3050
 4779TIP3    H114301   5.681   5.372   5.421 -0.2330 -1.8716  0.7329
 4779TIP3    H214302   5.569   5.330   5.328 -0.0452  1.4467 -1.1000
 4780TIP3   OH214303   6.387   3.532   4.447 -0.2477  0.4139 -0.6153
 4780TIP3    H114304   6.294   3.512   4.431 -0.1522 -0.1519 -0.5103
 4780TIP3    H214305   6.408   3.484   4.527 -0.1407  1.4117 -0.0271
 4781TIP3   OH214306   5.415   4.836   1.938 -0.1487 -0.6547 -0.3097
 4781TIP3    H114307   5.462   4.753   1.934  1.2169  0.1215 -1.3495
 4781TIP3    H214308   5.396   4.857   1.847  1.1679  1.0465 -0.2264
 4782TIP3   OH214309   0.721   4.790   5.896  0.0935 -0.4532 -0.3588
 4782TIP3    H114310   0.675   4.738   5.831  1.0131 -1.2708 -0.3649
 4782TIP3    H214311   0.813   4.783   5.873  0.4859 -1.1188  1.2692
 4783TIP3   OH214312   3.601   5.501   0.383 -0.0652  0.2758 -0.2246
 4783TIP3    H114313   3.695   5.488   0.382 -0.2738 -1.5880  0.7156
 4783TIP3    H214314   3.587   5.582   0.332  1.9928  0.5217 -0.4639
 4784TIP3   OH214315   3.410   5.179   3.932  0.4363  0.8199 -0.2705
 4784TIP3    H114316   3.370   5.239   3.870  1.3448  1.5315 -0.1890
 4784TIP3    H214317   3.494   5.220   3.955  0.5277  0.1239  0.7204
 4785TIP3   OH214318   2.185   4.837   2.593 -0.3534 -0.2479 -0.0334
 4785TIP3    H114319   2.270   4.829   2.551 -0.0458  0.6266  0.4014
 4785TIP3    H214320   2.123   4.803   2.529  0.3092 -0.8006 -0.3904
 4786TIP3   OH214321   3.178   0.769   2.158  0.2548 -0.2226 -0.1205
 4786TIP3    H114322   3.186   0.698   2.222 -0.3705 -1.5536 -1.4437
 4786TIP3    H214323   3.266   0.805   2.151  0.5044 -0.6118  0.8481
 4787TIP3   OH214324   0.979   5.210   3.359  0.1593 -0.2489 -0.5758
 4787TIP3    H114325   1.001   5.246   3.273 -0.5473  0.2367 -0.5641
 4787TIP3    H214326   0.959   5.286   3.413 -1.0965 -0.6262 -0.4697
 4788TIP3   OH214327   6.509   4.029   1.833  0.4780  0.1656  0.5105
 4788TIP3    H114328   6.451   3.988   1.769  0.2761 -0.1223  0.8749
 4788TIP3    H214329   6.467   4.112   1.853  0.0182 -0.1788  1.0097
 4789TIP3   OH214330   7.057   0.139   1.187  0.3088  0.0282 -0.7111
 4789TIP3    H114331   6.990   0.207   1.198 -1.7493 -1.7092 -1.9586
 4789TIP3    H214332   7.087   0.120   1.276 -0.6813  1.0026 -0.1532
 4790TIP3   OH214333   0.860   2.637   5.519 -0.2363 -0.4786 -0.5626
 4790TIP3    H114334   0.955   2.626   5.510 -0.3270 -1.1338 -0.7766
 4790TIP3    H214335   0.843   2.726   5.488  0.5285  0.2951  1.0931
 4791TIP3   OH214336   6.285   6.532   0.041 -0.4314  0.0684  0.2020
 4791TIP3    H114337   6.376   6.562   0.048  0.1000 -1.7706  2.1331
 4791TIP3    H214338   6.233   6.605   0.075  0.7397 -0.6345  3.8768
 4792TIP3   OH214339   4.191   0.339   0.467 -0.5539 -0.4902  0.2904
 4792TIP3    H114340   4.168   0.270   0.529  0.2834 -0.8454  0.2299
 4792TIP3    H214341   4.169   0.303   0.381 -0.0919 -0.7030  0.2569
 4793TIP3   OH214342   0.314   5.894   0.868  0.0129 -0.6888  0.1679
 4793TIP3    H114343   0.250   5.945   0.819  1.4313  1.3226  0.3234
 4793TIP3    H214344   0.356   5.957   0.927  2.2557 -1.8919 -0.0445
 4794TIP3   OH214345   3.038   3.593   0.822  0.3520 -0.2330 -0.8493
 4794TIP3    H114346   2.985   3.515   0.834  0.6392 -0.4737 -1.1389
 4794TIP3    H214347   3.088   3.577   0.743  1.7301 -0.5151  0.0416
 4795TIP3   OH214348   3.109   2.594   4.600  0.0515  0.1000  0.2650
 4795TIP3    H114349   3.163   2.585   4.679  0.0756 -1.3155  0.1036
 4795TIP3    H214350   3.020   2.609   4.634 -0.6007 -3.7713  0.7461
 4796TIP3   OH214351   3.269   2.253   4.640  0.3369 -0.1590 -0.7768
 4796TIP3    H114352   3.192   2.285   4.593 -0.1658 -0.5641 -0.2329
 4796TIP3    H214353   3.315   2.333   4.666 -0.3716  0.1171 -0.3281
 4797TIP3   OH214354   1.838   1.459   5.420 -0.7007 -0.2311 -0.1964
 4797TIP3    H114355   1.840   1.503   5.335 -0.6586 -1.0414 -0.6228
 4797TIP3    H214356   1.788   1.379   5.405  2.0491 -2.0561 -0.2947
 4798TIP3   OH214357   1.092   1.378   0.484 -0.0825 -0.3138 -0.1678
 4798TIP3    H114358   1.159   1.361   0.550 -1.2622 -1.5176  0.7825
 4798TIP3    H214359   1.140   1.412   0.409  1.4212  0.1258  0.9445
 4799TIP3   OH214360   1.707   0.734   2.004 -0.5557 -0.1711  0.8329
 4799TIP3    H114361   1.651   0.742   2.081 -0.6122 -1.8838  1.0152
 4799TIP3    H214362   1.689   0.813   1.953 -3.2681 -0.7216  0.7988
 4800TIP3   OH214363   7.113   6.516   4.477 -0.2121 -0.3310  0.1594
 4800TIP3    H114364   7.194   6.480   4.440 -0.4674 -0.6059 -0.1290
 4800TIP3    H214365   7.047   6.501   4.409 -0.4600  0.0841  0.3089
 4801TIP3   OH214366   7.023   1.297   0.177 -0.0130 -0.2527 -0.2127
 4801TIP3    H114367   6.937   1.324   0.145  0.2242  0.5562 -0.2060
 4801TIP3    H214368   7.045   1.220   0.126 -0.1668  0.3137 -1.1578
 4802TIP3   OH214369   2.430   4.525   1.636  0.2401  0.0901 -0.5026
 4802TIP3    H114370   2.438   4.470   1.558 -0.2330 -1.5616  0.5560
 4802TIP3    H214371   2.497   4.593   1.625  0.0607  0.0170 -2.4078
 4803TIP3   OH214372   0.311   0.645   3.844  0.4457 -0.2034  0.4059
 4803TIP3    H114373   0.381   0.654   3.908 -0.2216 -2.7573  1.6199
 4803TIP3    H214374   0.355   0.621   3.763  1.0517 -0.9954  0.9582
 4804TIP3   OH214375   2.334   0.305   1.906  0.0381  0.0672 -0.6353
 4804TIP3    H114376   2.420   0.294   1.867 -0.8846 -0.0554 -2.7856
 4804TIP3    H214377   2.346   0.373   1.973  1.8205 -0.1249 -0.7311
 4805TIP3   OH214378   6.617   4.873   1.216 -0.3291  0.7150  0.1129
 4805TIP3    H114379   6.671   4.863   1.137 -1.5688 -1.8391 -0.5231
 4805TIP3    H214380   6.559   4.946   1.196  0.0784  0.7787 -0.9182
 4806TIP3   OH214381   1.359   5.353   5.723 -0.1388  0.3344 -0.2743
 4806TIP3    H114382   1.274   5.310   5.725  0.9569 -1.9602  0.2358
 4806TIP3    H214383   1.396   5.329   5.638  0.2897  0.6886 -0.1932
 4807TIP3   OH214384   5.335   5.454   2.393  0.0485 -0.1338 -0.0796
 4807TIP3    H114385   5.345   5.546   2.369 -0.5768 -0.3381 -1.2241
 4807TIP3    H214386   5.323   5.409   2.309 -3.3702 -0.7844  0.6095
 4808TIP3   OH214387   0.819   4.288   3.020  0.0500  0.4705  0.3470
 4808TIP3    H114388   0.775   4.273   3.104 -0.5291  1.1159  0.1661
 4808TIP3    H214389   0.836   4.382   3.017  0.7351  0.3403  0.0660
 4809TIP3   OH214390   2.291   6.228   3.348  0.0739  0.2842  0.1814
 4809TIP3    H114391   2.255   6.273   3.272 -1.0986  0.2336  0.6848
 4809TIP3    H214392   2.371   6.276   3.369  1.3554 -0.6969 -2.0556
 4810TIP3   OH214393   3.475   0.232   2.841 -0.2224  0.2946 -0.1326
 4810TIP3    H114394   3.565   0.240   2.809 -0.2149 -0.0240 -0.1947
 4810TIP3    H214395   3.451   0.141   2.822 -0.2061  0.0851  0.7942
 4811TIP3   OH214396   1.334   2.917   2.966 -0.0828 -0.1857  0.4835
 4811TIP3    H114397   1.355   2.832   3.004 -1.7757 -0.3951  0.9972
 4811TIP3    H214398   1.312   2.972   3.041  0.1699  0.4709  0.0812
 4812TIP3   OH214399   5.060   0.630   5.450  0.0253  0.2194  0.2620
 4812TIP3    H114400   5.098   0.570   5.513 -0.2275  0.6014  0.7820
 4812TIP3    H214401   5.100   0.605   5.366  1.3941  0.5874  0.7761
 4813TIP3   OH214402   7.022   1.737   4.846 -0.1614 -0.4883  1.0955
 4813TIP3    H114403   7.045   1.802   4.913 -0.4455 -1.1700  1.8821
 4813TIP3    H214404   7.011   1.788   4.766  0.1604  0.3583  1.5730
 4814TIP3   OH214405   1.976   2.035   2.904 -0.5921 -1.0086 -0.1065
 4814TIP3    H114406   1.959   2.101   2.971  0.3718  0.5907 -1.3697
 4814TIP3    H214407   2.071   2.022   2.907 -0.7972 -2.7267  0.4227
 4815TIP3   OH214408   6.106   1.511   5.809  0.0935  0.3232 -0.1314
 4815TIP3    H114409   6.145   1.551   5.731 -1.0593  1.2496 -0.2624
 4815TIP3    H214410   6.042   1.449   5.775 -0.1638  0.4758  0.0677
 4816TIP3   OH214411   4.265   6.258   3.903 -0.7488  0.7621  0.2472
 4816TIP3    H114412   4.359   6.265   3.886 -0.6294 -0.3228  0.3524
 4816TIP3    H214413   4.238   6.180   3.854 -1.5735  1.0160  0.2893
 4817TIP3   OH214414   6.778   2.841   0.806 -0.0279 -0.2596  0.3174
 4817TIP3    H114415   6.871   2.855   0.823 -0.0744 -0.4478  0.7518
 4817TIP3    H214416   6.760   2.755   0.844  0.1982 -1.4523 -2.0482
 4818TIP3   OH214417   2.643   6.641   0.320 -0.2433 -0.0453  0.3518
 4818TIP3    H114418   2.654   6.546   0.314 -1.0784 -0.0880 -1.4856
 4818TIP3    H214419   2.730   6.677   0.304 -0.2522 -0.5115 -0.8794
 4819TIP3   OH214420   2.259   3.332   3.648  0.6160 -0.1235 -0.6132
 4819TIP3    H114421   2.243   3.392   3.575 -0.0373 -0.9306 -1.1419
 4819TIP3    H214422   2.204   3.256   3.630 -0.0043 -0.1093  1.0174
 4820TIP3   OH214423   5.653   4.521   2.744 -0.0902  0.1093  0.8006
 4820TIP3    H114424   5.675   4.500   2.835 -0.5791 -0.3122  0.8264
 4820TIP3    H214425   5.594   4.450   2.717  0.4850 -0.0776 -0.0178
 4821TIP3   OH214426   3.958   1.190   2.271 -0.3064 -0.1027  0.0706
 4821TIP3    H114427   3.924   1.235   2.194 -1.1512 -1.5764 -0.4388
 4821TIP3    H214428   3.953   1.256   2.341  0.4900  1.2583 -1.0997
 4822TIP3   OH214429   0.895   0.227   1.394  0.0383 -0.3287 -0.2766
 4822TIP3    H114430   0.988   0.220   1.372 -0.3312 -2.3962 -1.4418
 4822TIP3    H214431   0.855   0.267   1.317 -0.2181 -0.6206 -0.2943
 4823TIP3   OH214432   2.475   2.721   3.031  0.6415 -0.1022 -0.4873
 4823TIP3    H114433   2.395   2.724   3.084 -0.6032 -0.2784 -2.2451
 4823TIP3    H214434   2.525   2.648   3.068  0.5332  0.7122  1.3448
 4824TIP3   OH214435   4.871   3.436   0.045 -0.2446 -0.4850  0.3036
 4824TIP3    H114436   4.819   3.511   0.015  1.5213  0.6436 -0.0545
 4824TIP3    H214437   4.815   3.360   0.027 -1.2330  0.5640 -1.3425
 4825TIP3   OH214438   0.252   1.808   3.297  0.3996  0.2347  0.1079
 4825TIP3    H114439   0.243   1.787   3.390 -0.3124  1.0953  0.2497
 4825TIP3    H214440   0.331   1.762   3.269 -0.0393 -1.0175  0.8460
 4826TIP3   OH214441   5.440   1.776   0.948  0.3718  0.1549  0.1166
 4826TIP3    H114442   5.487   1.827   0.882 -0.6009  0.3108 -0.4738
 4826TIP3    H214443   5.351   1.766   0.913  0.1318 -0.6809  0.9073
 4827TIP3   OH214444   0.637   0.041   0.818  0.0702 -0.0762 -0.1009
 4827TIP3    H114445   0.688  -0.016   0.876  0.2272  1.3600  1.2338
 4827TIP3    H214446   0.700   0.107   0.789 -0.5488  0.5155 -0.1058
 4828TIP3   OH214447   3.224   5.831   0.123 -0.0695 -0.2373 -0.2819
 4828TIP3    H114448   3.272   5.815   0.042 -1.9035 -1.9097 -1.1299
 4828TIP3    H214449   3.212   5.744   0.161 -1.7408  0.1930  0.2684
 4829TIP3   OH214450   2.567   1.092   2.081  0.6260 -0.1942  0.0713
 4829TIP3    H114451   2.541   1.006   2.112  0.6062 -0.2517 -0.1049
 4829TIP3    H214452   2.565   1.148   2.159 -0.7389 -0.0207 -0.0678
 4830TIP3   OH214453   4.547   0.878   2.429  0.0694  0.2936 -0.2170
 4830TIP3    H114454   4.536   0.811   2.497 -0.4077 -0.1988 -0.7746
 4830TIP3    H214455   4.471   0.935   2.439  1.0097  1.4132  0.9610
 4831TIP3   OH214456   5.831   5.029   3.791  0.2521 -0.0310  0.1384
 4831TIP3    H114457   5.805   5.037   3.699 -1.5268  0.0406  0.6266
 4831TIP3    H214458   5.874   5.112   3.811  0.0885  0.2001 -0.4514
 4832TIP3   OH214459   0.878   5.062   2.609 -0.0301 -0.5542 -0.5967
 4832TIP3    H114460   0.863   5.039   2.701  1.9110 -3.8426 -0.9413
 4832TIP3    H214461   0.906   5.153   2.612 -0.5308 -0.3923  1.9946
 4833TIP3   OH214462   3.186   5.072   1.402 -0.2187  0.4358  0.7244
 4833TIP3    H114463   3.204   5.061   1.308 -2.8155 -0.2833  0.2240
 4833TIP3    H214464   3.266   5.041   1.445  0.7685  0.0905 -1.2251
 4834TIP3   OH214465   3.777   5.669   1.012  0.6065  0.3284 -0.0412
 4834TIP3    H114466   3.811   5.659   0.923 -0.5351  1.8848 -0.7084
 4834TIP3    H214467   3.853   5.694   1.064  0.7742  2.7885 -1.2982
 4835TIP3   OH214468   5.446   1.910   4.554  0.5016 -0.1799 -0.4110
 4835TIP3    H114469   5.466   1.984   4.611  0.9833  0.6214 -1.5685
 4835TIP3    H214470   5.359   1.881   4.580  0.2918  0.8295  0.0344
 4836TIP3   OH214471   3.946   5.511   2.492 -0.2088  0.0237 -0.4488
 4836TIP3    H114472   3.983   5.578   2.550 -1.8771 -0.1925  0.9537
 4836TIP3    H214473   3.969   5.428   2.534 -1.7385 -0.1242  0.1924
 4837TIP3   OH214474   5.296   1.763   3.551 -0.3111 -0.1954 -0.4722
 4837TIP3    H114475   5.297   1.798   3.462 -1.2571 -1.3122 -0.9625
 4837TIP3    H214476   5.301   1.839   3.607  1.6903  0.4652 -1.4663
 4838TIP3   OH214477   0.774   5.117   4.388 -0.0623  0.8508  0.2504
 4838TIP3    H114478   0.755   5.036   4.340  0.8384  0.2953  0.8039
 4838TIP3    H214479   0.700   5.174   4.368 -0.3196  0.1830 -0.7886
 4839TIP3   OH214480   6.150   0.384   2.575  0.2290  0.1442 -0.4967
 4839TIP3    H114481   6.189   0.304   2.539 -0.6353  0.3269 -1.8715
 4839TIP3    H214482   6.112   0.429   2.500 -1.6309  0.5488  0.6299
 4840TIP3   OH214483   0.445   1.987   3.951  0.0723  0.1427  0.1998
 4840TIP3    H114484   0.440   2.018   4.042  0.8081  0.9274 -0.0151
 4840TIP3    H214485   0.433   2.065   3.898 -1.0384 -0.4150 -0.4075
 4841TIP3   OH214486   6.667   6.384   0.264 -0.6115  0.0776 -0.0142
 4841TIP3    H114487   6.699   6.313   0.320 -0.9642 -0.9605 -1.0924
 4841TIP3    H214488   6.589   6.348   0.221 -0.3605  0.8566 -1.1634
 4842TIP3   OH214489   6.153   1.744   1.494  0.3247  0.2412 -0.3455
 4842TIP3    H114490   6.161   1.691   1.573  0.3574  1.4931  0.5168
 4842TIP3    H214491   6.206   1.698   1.428 -0.3218 -1.2140  0.1296
 4843TIP3   OH214492   7.130   3.118   4.204 -0.0777 -0.0350 -0.5403
 4843TIP3    H114493   7.214   3.124   4.249 -0.7493 -1.0491  0.9124
 4843TIP3    H214494   7.107   3.209   4.183  0.0762  0.5274  1.5687
 4844TIP3   OH214495   6.495   0.782   5.071 -0.1611 -0.0161  0.1187
 4844TIP3    H114496   6.406   0.819   5.070 -0.5898 -1.0398 -0.7880
 4844TIP3    H214497   6.508   0.749   4.983  0.2857 -1.8425  0.8261
 4845TIP3   OH214498   0.496   3.602   2.053 -0.0185 -0.3425 -0.1712
 4845TIP3    H114499   0.583   3.572   2.029  0.7151 -0.7639  2.6306
 4845TIP3    H214500   0.451   3.524   2.086 -1.0023  0.1187 -0.3673
 4846TIP3   OH214501   3.256   1.270   0.879 -0.0877 -0.1850 -0.1249
 4846TIP3    H114502   3.344   1.238   0.857 -0.2019 -1.0894  0.6338
 4846TIP3    H214503   3.271   1.334   0.949 -0.0399 -0.4517  0.1108
 4847TIP3   OH214504   5.310   5.956   2.661  0.4775  0.3025 -0.0049
 4847TIP3    H114505   5.386   5.991   2.709  0.0309 -1.0426  1.7713
 4847TIP3    H214506   5.243   6.024   2.672  1.0462  0.9918 -0.6328
 4848TIP3   OH214507   4.406   2.432   0.835 -0.2416  0.2943 -0.2674
 4848TIP3    H114508   4.395   2.344   0.869 -0.5431 -0.2160 -1.6363
 4848TIP3    H214509   4.350   2.486   0.890  1.3392 -0.0095  1.7941
 4849TIP3   OH214510   2.530   0.793   4.864 -0.2613  0.3762 -0.3058
 4849TIP3    H114511   2.474   0.772   4.789  0.7174 -2.5364 -0.3439
 4849TIP3    H214512   2.589   0.861   4.831 -1.0697  0.4976 -1.5752
 4850TIP3   OH214513   6.025   5.143   3.216  0.3436  0.5211 -0.4538
 4850TIP3    H114514   6.105   5.094   3.235  0.4831  0.6556 -0.6868
 4850TIP3    H214515   5.979   5.147   3.300 -1.0377 -2.4194 -0.9715
 4851TIP3   OH214516   2.260   6.416   4.118  0.5305 -0.4726 -0.3717
 4851TIP3    H114517   2.218   6.343   4.072 -0.5421  1.4447 -2.6669
 4851TIP3    H214518   2.343   6.380   4.149 -0.0671 -2.7123 -1.1702
 4852TIP3   OH214519   1.104   5.101   4.563 -0.0973  0.3621  0.3730
 4852TIP3    H114520   1.083   5.162   4.492  0.1678  0.0775  0.0470
 4852TIP3    H214521   1.121   5.157   4.639 -0.3693  0.6681  0.2089
 4853TIP3   OH214522   0.276   4.847   2.228  0.1144 -0.8505  0.2472
 4853TIP3    H114523   0.201   4.790   2.213 -0.5309 -0.0867  0.5192
 4853TIP3    H214524   0.280   4.858   2.323 -0.1047 -0.0074  0.1674
 4854TIP3   OH214525   1.097   1.354   2.238  0.2442  0.8853  0.9315
 4854TIP3    H114526   1.135   1.360   2.150 -0.0191 -0.4065  0.7075
 4854TIP3    H214527   1.098   1.444   2.271 -0.0442  1.4725 -0.5650
 4855TIP3   OH214528   4.912   2.249   2.302  0.0082  0.0392 -0.0233
 4855TIP3    H114529   4.857   2.191   2.250  0.8776  0.9120 -2.0534
 4855TIP3    H214530   4.854   2.283   2.370 -1.3303 -0.7930 -0.7124
 4856TIP3   OH214531   3.891   3.944   3.644 -0.2657  0.1469  0.2666
 4856TIP3    H114532   3.852   4.023   3.605  0.1694  0.9536  1.4033
 4856TIP3    H214533   3.981   3.944   3.611  0.1312  0.8824  1.2893
 4857TIP3   OH214534   6.948   4.316   1.084 -0.1722  0.0707  0.2183
 4857TIP3    H114535   6.952   4.404   1.122  1.1810 -0.4901  1.4695
 4857TIP3    H214536   7.027   4.309   1.031 -0.6142 -0.1643 -0.4124
 4858TIP3   OH214537   1.553   2.235   5.470 -0.0188 -0.4258 -0.5780
 4858TIP3    H114538   1.619   2.276   5.414  0.1151 -0.9498 -0.8147
 4858TIP3    H214539   1.555   2.286   5.551  0.6541 -0.4101 -0.5963
 4859TIP3   OH214540   6.543   6.137   0.636 -0.2734  0.3822 -0.0084
 4859TIP3    H114541   6.507   6.056   0.598 -1.4080 -0.4259  2.5264
 4859TIP3    H214542   6.635   6.116   0.653 -1.0306 -1.3157  2.6271
 4860TIP3   OH214543   1.741   6.280   2.528  0.5518  0.0704  0.2199
 4860TIP3    H114544   1.675   6.228   2.573  0.1690  1.3416  1.1873
 4860TIP3    H214545   1.821   6.228   2.534 -0.3057 -1.4537 -0.8878
 4861TIP3   OH214546   4.478   1.140   5.821 -0.3596 -0.1941 -0.0193
 4861TIP3    H114547   4.523   1.075   5.874 -0.1955  0.0321  0.1238
 4861TIP3    H214548   4.483   1.221   5.872 -1.4736 -0.2973  0.2795
 4862TIP3   OH214549   0.709   1.878   4.788 -0.1378 -0.3946 -0.3569
 4862TIP3    H114550   0.759   1.895   4.708  0.8512 -0.3795  0.2516
 4862TIP3    H214551   0.684   1.965   4.819  1.5535 -0.2256  0.6345
 4863TIP3   OH214552   1.990   2.779   0.857 -0.1002  0.2404 -0.1693
 4863TIP3    H114553   1.927   2.714   0.887 -0.9562  1.5881  1.1248
 4863TIP3    H214554   1.938   2.859   0.846  1.4118  1.4744  1.2089
 4864TIP3   OH214555   1.613   1.360   5.125 -0.1223 -0.4255  0.5203
 4864TIP3    H114556   1.633   1.271   5.155 -0.2713 -0.6708 -0.0868
 4864TIP3    H214557   1.698   1.398   5.105 -0.1677 -1.2134 -1.3545
 4865TIP3   OH214558   0.102   4.688   2.509 -0.5711  0.1819 -0.0593
 4865TIP3    H114559   0.154   4.607   2.507 -0.1407  0.4630 -0.4505
 4865TIP3    H214560   0.167   4.758   2.496 -0.7855  0.6638  1.2932
 4866TIP3   OH214561   3.091   3.075   0.273 -0.1009  0.0819  0.1958
 4866TIP3    H114562   3.032   3.000   0.263 -1.4293  1.0188  0.8003
 4866TIP3    H214563   3.170   3.049   0.225 -0.4356 -1.7860  0.5600
 4867TIP3   OH214564   5.534   2.007   3.436 -0.5333  0.3848  0.2965
 4867TIP3    H114565   5.537   1.917   3.404  1.2902  0.6208 -0.2801
 4867TIP3    H214566   5.479   2.003   3.515  0.3954 -1.4344  0.9024
 4868TIP3   OH214567   2.997   4.914   3.286 -0.1556  0.1399  0.0575
 4868TIP3    H114568   3.053   4.848   3.327 -0.2146 -1.6320 -2.4773
 4868TIP3    H214569   2.931   4.934   3.353  1.6288 -0.0386  1.9819
 4869TIP3   OH214570   0.122   5.999   0.679 -0.4191  0.4409 -0.4159
 4869TIP3    H114571   0.155   5.941   0.611  1.1169  0.9633 -0.1592
 4869TIP3    H214572   0.128   6.086   0.641 -0.3433  0.6573  0.0785
 4870TIP3   OH214573   3.108   0.702  -0.031  0.6948 -0.8790 -0.1630
 4870TIP3    H114574   3.152   0.754   0.036 -0.1905  0.0584 -0.2762
 4870TIP3    H214575   3.123   0.611  -0.005 -2.8219 -0.6862  3.6011
 4871TIP3   OH214576   4.438   1.309   0.964  0.2836  0.4788 -0.0143
 4871TIP3    H114577   4.351   1.293   0.930  0.5644 -1.5697  0.1027
 4871TIP3    H214578   4.433   1.283   1.056  1.1201 -0.1226 -0.1263
 4872TIP3   OH214579   0.059   2.321   4.176  0.2809  0.0468  0.1280
 4872TIP3    H114580  -0.013   2.383   4.188  0.9731  0.7386  0.8404
 4872TIP3    H214581   0.092   2.305   4.264 -1.3152 -3.1610  0.2965
 4873TIP3   OH214582   1.440   2.076   4.303  0.2634 -0.5277 -0.1116
 4873TIP3    H114583   1.372   2.009   4.298 -0.6438  0.4473 -1.8775
 4873TIP3    H214584   1.403   2.145   4.357  0.8005 -0.9979  0.8740
 4874TIP3   OH214585   4.296   1.774   4.951  0.3626  0.1962  0.0595
 4874TIP3    H114586   4.220   1.814   4.908 -0.4876  0.8871  2.0821
 4874TIP3    H214587   4.260   1.732   5.029  2.0123  0.2155  0.8654
 4875TIP3   OH214588   2.797   4.977   5.896  0.4219 -0.6332  0.0074
 4875TIP3    H114589   2.706   5.002   5.913  0.5609  1.7078 -2.0702
 4875TIP3    H214590   2.792   4.906   5.832  0.0227  0.1514 -0.8516
 4876TIP3   OH214591   0.065   3.529   0.015  0.0713  0.2323  0.2418
 4876TIP3    H114592   0.059   3.466  -0.058 -0.2071  1.6507 -0.9995
 4876TIP3    H214593   0.016   3.487   0.086 -1.4384 -0.3042 -1.0518
 4877TIP3   OH214594   7.149   5.605   2.141  0.0822 -0.0348  0.5151
 4877TIP3    H114595   7.228   5.559   2.166  1.6677  0.2472 -3.2627
 4877TIP3    H214596   7.083   5.537   2.131  0.6186 -0.6463  1.0885
 4878TIP3   OH214597   1.776   5.484   0.650  0.2540 -0.4099  0.0116
 4878TIP3    H114598   1.736   5.444   0.727  0.2207 -2.6490 -1.0938
 4878TIP3    H214599   1.703   5.496   0.588  0.4519  0.3809 -0.0770
 4879TIP3   OH214600   0.879   4.613   4.326  0.2034  0.3421 -0.6637
 4879TIP3    H114601   0.786   4.615   4.304 -0.0910 -0.2142  0.4468
 4879TIP3    H214602   0.881   4.641   4.418  1.1590  0.5976 -0.7599
 4880TIP3   OH214603   0.362   2.554   0.500 -0.1742  0.1917  0.7763
 4880TIP3    H114604   0.447   2.586   0.472 -0.4696 -0.0129 -0.4172
 4880TIP3    H214605   0.355   2.581   0.592  1.1590  0.2159  0.8951
 4881TIP3   OH214606   5.135   1.863   2.217  0.0830  0.0607  0.2536
 4881TIP3    H114607   5.080   1.902   2.149 -1.4799 -1.0666  0.8099
 4881TIP3    H214608   5.116   1.769   2.212  1.2358 -0.2459  1.1303
 4882TIP3   OH214609   6.982   2.910   2.718  0.3035 -0.0694 -0.3595
 4882TIP3    H114610   6.939   2.876   2.797  1.1197  0.5612  0.3803
 4882TIP3    H214611   6.911   2.950   2.668  0.0514  1.3123  1.0340
 4883TIP3   OH214612   2.228   6.294   5.276 -0.0238 -0.1248  0.2510
 4883TIP3    H114613   2.224   6.390   5.282  0.0692 -0.0432 -0.8377
 4883TIP3    H214614   2.304   6.270   5.328 -0.0500  0.3925  0.5341
 4884TIP3   OH214615   2.715   6.136   4.184  0.4732 -0.3459  0.1468
 4884TIP3    H114616   2.631   6.183   4.182  0.4772 -0.3421 -1.5677
 4884TIP3    H214617   2.719   6.098   4.271 -1.8401 -1.2694 -0.0596
 4885TIP3   OH214618   4.122   3.536   2.243  0.3067  0.3298 -0.9637
 4885TIP3    H114619   4.036   3.558   2.208  0.5462  1.3479 -0.9715
 4885TIP3    H214620   4.119   3.568   2.334  0.8653  0.9117 -1.1440
 4886TIP3   OH214621   3.058   2.757   2.157 -0.4146 -0.4918 -0.5531
 4886TIP3    H114622   3.072   2.749   2.063 -0.8468 -0.6767 -0.6052
 4886TIP3    H214623   3.080   2.671   2.192 -3.0542 -1.4003 -0.8576
 4887TIP3   OH214624   6.808   5.269   0.373 -0.3709 -0.0580 -0.4803
 4887TIP3    H114625   6.728   5.225   0.399  1.1277 -2.4126  0.4387
 4887TIP3    H214626   6.785   5.317   0.293 -2.4465 -1.3447 -0.7083
 4888TIP3   OH214627   4.125   1.457   3.483 -0.0577  0.1172 -0.3247
 4888TIP3    H114628   4.127   1.383   3.545  0.8310 -0.2796 -0.8175
 4888TIP3    H214629   4.136   1.534   3.538  1.4243 -0.2715 -0.0194
 4889TIP3   OH214630   1.797   5.804   3.650 -0.4948 -0.4699  0.2853
 4889TIP3    H114631   1.819   5.844   3.566  1.4599 -1.3644  0.3184
 4889TIP3    H214632   1.822   5.870   3.715 -1.2564 -0.0980  0.2115
 4890TIP3   OH214633   4.852   2.287   3.044  0.1479  0.0861 -0.5491
 4890TIP3    H114634   4.921   2.320   2.987  0.2527  0.3116 -0.2956
 4890TIP3    H214635   4.893   2.218   3.095 -0.1940 -0.7645 -1.4066
 4891TIP3   OH214636   3.624   1.172   3.076  0.0390 -0.5010 -0.3986
 4891TIP3    H114637   3.682   1.110   3.120  1.6438 -0.6684 -2.5882
 4891TIP3    H214638   3.661   1.258   3.095 -0.0335 -0.4735 -0.3786
 4892TIP3   OH214639   1.377   1.726   2.967 -0.3815 -0.2608 -0.6267
 4892TIP3    H114640   1.293   1.737   3.012 -0.9889  0.0947 -1.8145
 4892TIP3    H214641   1.439   1.779   3.018 -1.1762  0.5983 -0.5388
 4893TIP3   OH214642   1.046   3.531   3.202  0.3269 -0.2753  0.3702
 4893TIP3    H114643   1.137   3.557   3.215 -0.5390  3.4480  0.3306
 4893TIP3    H214644   1.039   3.512   3.108  1.2342 -1.6826  0.5637
 4894TIP3   OH214645   0.536   1.412   5.225  0.2421 -0.2385 -0.3277
 4894TIP3    H114646   0.587   1.352   5.280 -0.6241 -1.4729 -0.8209
 4894TIP3    H214647   0.601   1.456   5.170  0.8869 -0.8526 -0.0705
 4895TIP3   OH214648   0.364   5.192   1.075  0.0543 -0.0032  0.3333
 4895TIP3    H114649   0.319   5.244   1.142  0.1933 -0.3874  0.7314
 4895TIP3    H214650   0.412   5.256   1.023 -0.2380  0.3229  0.4658
 4896TIP3   OH214651   3.331   4.152   4.668 -0.1944 -0.4232 -0.3183
 4896TIP3    H114652   3.384   4.073   4.673 -0.5917 -0.7109 -0.5442
 4896TIP3    H214653   3.243   4.120   4.646 -0.3324  0.0906 -0.5238
 4897TIP3   OH214654   2.883   4.905   4.989  0.2333 -0.8646 -0.1324
 4897TIP3    H114655   2.849   4.836   5.046  1.5049 -1.6397 -0.2906
 4897TIP3    H214656   2.976   4.910   5.010 -0.0834  1.9887  1.1078
 4898TIP3   OH214657   1.296   1.943   2.457  0.0489  0.2110 -0.0160
 4898TIP3    H114658   1.352   1.875   2.495 -0.3969 -0.5458 -0.6993
 4898TIP3    H214659   1.292   2.011   2.525  0.2484 -0.5771  0.7999
 4899TIP3   OH214660   5.819   0.061   4.293 -0.1670 -0.2104  0.4480
 4899TIP3    H114661   5.866   0.040   4.212 -1.5695 -0.3881 -0.3452
 4899TIP3    H214662   5.757   0.129   4.268 -1.4729 -1.1232  1.0649
 4900TIP3   OH214663   6.051   3.983   0.881 -0.3061 -0.4928  0.5103
 4900TIP3    H114664   6.134   3.964   0.924  0.4879 -0.2639 -0.8491
 4900TIP3    H214665   6.076   4.007   0.791 -1.5738  2.7096  0.8859
 4901TIP3   OH214666   1.043   4.449   3.884  0.4784 -0.0535 -0.3077
 4901TIP3    H114667   1.098   4.403   3.820  1.0324 -0.0228  0.1297
 4901TIP3    H214668   1.062   4.405   3.967  0.1362  0.2196 -0.0842
 4902TIP3   OH214669   4.137   0.162   5.408  0.3914  0.1991 -0.5203
 4902TIP3    H114670   4.048   0.197   5.407  0.9598  1.9967  1.8992
 4902TIP3    H214671   4.134   0.094   5.476  0.3937 -1.3110 -1.9793
 4903TIP3   OH214672   0.449   4.137   0.229  0.3065  0.2409  0.1037
 4903TIP3    H114673   0.505   4.082   0.286  0.5003 -0.2489 -0.5444
 4903TIP3    H214674   0.421   4.209   0.286  1.2021  0.2324  0.5856
 4904TIP3   OH214675   7.017   2.112   0.293  0.0667  0.9488  0.2049
 4904TIP3    H114676   6.971   2.047   0.242 -0.8191  0.9213  1.0166
 4904TIP3    H214677   7.072   2.158   0.229 -1.0893  0.9994 -0.7881
 4905TIP3   OH214678   1.999   4.758   2.414  1.0346 -0.4828  0.3940
 4905TIP3    H114679   1.914   4.754   2.459  0.7869  1.1622  0.1453
 4905TIP3    H214680   2.010   4.671   2.376 -0.2822 -0.9016  0.8921
 4906TIP3   OH214681   2.282   6.244   4.348 -0.3529  0.2462  0.3590
 4906TIP3    H114682   2.318   6.306   4.412 -0.4551  0.6341  0.0465
 4906TIP3    H214683   2.345   6.172   4.345 -0.4265  0.1455  1.0128
 4907TIP3   OH214684   1.053   1.216   1.071 -0.5121 -0.3459 -0.3592
 4907TIP3    H114685   0.980   1.211   1.009 -0.0983  0.2535 -0.9126
 4907TIP3    H214686   1.025   1.164   1.146 -1.0835 -0.9773 -0.9927
 4908TIP3   OH214687   3.980   5.104   4.726 -0.1047 -0.2416 -0.1875
 4908TIP3    H114688   4.062   5.153   4.736  2.1069 -3.2354 -1.9989
 4908TIP3    H214689   3.979   5.079   4.634 -3.0161 -0.4904 -0.1672
 4909TIP3   OH214690   3.908   5.343   1.060 -0.7245  0.2705 -0.5242
 4909TIP3    H114691   3.966   5.412   1.091  0.0992 -0.5381 -0.2457
 4909TIP3    H214692   3.827   5.356   1.110  0.0504 -0.0768  0.8681
 4910TIP3   OH214693   0.767   4.189   4.029 -0.0828 -0.3857  0.7172
 4910TIP3    H114694   0.854   4.210   4.063  0.3770 -1.9916  0.6368
 4910TIP3    H214695   0.719   4.158   4.105  0.0192 -1.2182  0.4599
 4911TIP3   OH214696   0.498   4.707   2.150  0.0434 -0.0742 -0.1620
 4911TIP3    H114697   0.433   4.778   2.146  2.2239  2.0587  0.1338
 4911TIP3    H214698   0.519   4.699   2.243  0.3582 -0.6028 -0.2750
 4912TIP3   OH214699   0.687   6.547   2.403 -0.0741 -0.2775  0.5375
 4912TIP3    H114700   0.768   6.499   2.415  0.3805  0.7838  1.9598
 4912TIP3    H214701   0.692   6.620   2.465 -0.7077  1.6516 -1.5633
 4913TIP3   OH214702   2.827   2.288   1.451  0.1150 -0.8643  0.5071
 4913TIP3    H114703   2.916   2.280   1.487  0.0102 -0.2381  0.9365
 4913TIP3    H214704   2.790   2.201   1.459  0.3590 -0.9146  1.2540
 4914TIP3   OH214705   0.626   6.431   1.847 -0.4960  0.0357  0.2486
 4914TIP3    H114706   0.566   6.500   1.818 -0.7288 -0.0063  0.6359
 4914TIP3    H214707   0.645   6.452   1.938 -0.4803 -0.3559  0.3338
 4915TIP3   OH214708   3.972   1.389   2.458  0.6082 -0.8367  0.4134
 4915TIP3    H114709   4.025   1.467   2.474  0.0960 -0.4641  0.3250
 4915TIP3    H214710   3.888   1.407   2.501  0.1411 -0.9238 -0.4294
 4916TIP3   OH214711   4.772   1.251   0.114 -0.2686 -0.0198  0.2393
 4916TIP3    H114712   4.792   1.344   0.119  1.6303 -0.2399 -1.9440
 4916TIP3    H214713   4.738   1.239   0.026 -0.9701 -1.3429  0.6662
 4917TIP3   OH214714   2.037   5.836   4.155 -1.2445  0.0881  0.0466
 4917TIP3    H114715   2.091   5.912   4.177 -0.8570  0.3030 -1.5592
 4917TIP3    H214716   1.975   5.829   4.228  0.5831  0.1501  1.7043
 4918TIP3   OH214717   1.882   4.953   3.408 -0.2527  0.1138  0.0934
 4918TIP3    H114718   1.974   4.963   3.386 -0.4080  0.1239 -0.5972
 4918TIP3    H214719   1.879   4.882   3.472  0.2576  0.3060  0.3308
 4919TIP3   OH214720   3.697   5.025   5.557  0.5505  0.0946  0.0815
 4919TIP3    H114721   3.681   5.114   5.527 -0.8384 -0.4295 -0.8363
 4919TIP3    H214722   3.787   5.007   5.532  0.9667  1.3459  0.6046
 4920TIP3   OH214723   2.328   0.959   1.254 -0.0192  0.2041  0.1313
 4920TIP3    H114724   2.319   0.923   1.166 -2.3719  0.8616  0.0401
 4920TIP3    H214725   2.417   0.996   1.255  0.7608 -1.4753 -1.2886
 4921TIP3   OH214726   3.209   0.901   4.599  0.2397  0.2423  0.4025
 4921TIP3    H114727   3.157   0.822   4.619  0.6843  0.0026  0.6224
 4921TIP3    H214728   3.156   0.973   4.633  1.0370 -0.1532  2.6578
 4922TIP3   OH214729   5.697   4.259   3.480 -0.4079 -0.0350 -0.3557
 4922TIP3    H114730   5.687   4.354   3.487 -1.0150  0.0983 -2.2829
 4922TIP3    H214731   5.609   4.225   3.493 -0.1182 -0.3776  0.7468
 4923TIP3   OH214732   0.039   5.238   0.253 -0.5003 -0.3140 -0.0757
 4923TIP3    H114733   0.039   5.237   0.157 -0.8389  1.1908 -0.1108
 4923TIP3    H214734  -0.033   5.180   0.277 -0.9312 -0.0692 -0.7532
 4924TIP3   OH214735   2.101   2.165   0.835 -0.3514  0.3379 -0.5698
 4924TIP3    H114736   2.045   2.213   0.774 -2.1901 -0.0620  0.7441
 4924TIP3    H214737   2.137   2.093   0.783 -3.2497 -1.0334 -0.8645
 4925TIP3   OH214738   2.935   5.332   3.895  0.1716 -0.3044 -0.1076
 4925TIP3    H114739   2.906   5.332   3.804 -2.2035  0.7469  0.5410
 4925TIP3    H214740   2.933   5.424   3.921 -1.4245 -0.7433  1.5814
 4926TIP3   OH214741   2.116   4.513   1.571 -0.2298 -0.2161  0.1243
 4926TIP3    H114742   2.034   4.550   1.538 -0.2744 -0.2846  0.1580
 4926TIP3    H214743   2.170   4.589   1.593 -0.5976 -0.1603  0.8913
 4927TIP3   OH214744   5.231   4.102   3.206  0.1181  0.0054 -0.3137
 4927TIP3    H114745   5.171   4.140   3.143 -1.7557  0.8914  1.8737
 4927TIP3    H214746   5.307   4.161   3.205  0.2529 -0.1582 -1.8878
 4928TIP3   OH214747   6.997   5.262   4.641  0.2622  0.1584 -0.0014
 4928TIP3    H114748   7.090   5.240   4.643  0.4518  0.9358  0.3983
 4928TIP3    H214749   6.992   5.343   4.590 -0.3695 -0.6016 -1.1850
 4929TIP3   OH214750   4.482   5.409   4.657 -0.3226 -0.0376 -0.1488
 4929TIP3    H114751   4.523   5.381   4.739  0.4385 -1.5611 -1.0012
 4929TIP3    H214752   4.448   5.328   4.618 -1.6470  0.8087 -0.8281
 4930TIP3   OH214753   3.893   2.522   3.655 -0.0296  0.0267  0.3994
 4930TIP3    H114754   3.865   2.602   3.700  0.0668 -0.5334  1.4736
 4930TIP3    H214755   3.988   2.522   3.661  0.2046  1.2371 -2.0742
 4931TIP3   OH214756   5.437   4.214   5.605  0.7038  0.4154  0.1671
 4931TIP3    H114757   5.462   4.185   5.693 -0.4257 -1.4302 -0.0619
 4931TIP3    H214758   5.342   4.223   5.610  0.5994  0.0134 -0.9434
 4932TIP3   OH214759   0.481   3.297   0.998  0.3590 -0.3635 -0.5080
 4932TIP3    H114760   0.464   3.372   0.940 -0.7637 -2.0897 -2.5693
 4932TIP3    H214761   0.553   3.250   0.955 -1.0017 -2.0926 -0.9992
 4933TIP3   OH214762   3.806   2.268   1.567  0.4262 -0.5841  0.1576
 4933TIP3    H114763   3.795   2.363   1.571 -1.2395 -0.6592 -1.4256
 4933TIP3    H214764   3.816   2.242   1.659 -1.1986  0.9187  0.8315
 4934TIP3   OH214765   3.441   1.557   1.712 -0.0264  0.3779 -0.0857
 4934TIP3    H114766   3.381   1.594   1.777 -0.6696  1.7464 -1.4122
 4934TIP3    H214767   3.528   1.585   1.741 -0.0488 -0.9085  1.3817
 4935TIP3   OH214768   1.913   2.106   4.351 -0.0374  0.5397 -0.0035
 4935TIP3    H114769   1.858   2.034   4.323 -0.3171  0.9412 -0.5129
 4935TIP3    H214770   1.897   2.175   4.286 -0.5254  1.4200  1.0130
 4936TIP3   OH214771   0.635   4.152   4.285  0.0510 -0.3452 -0.5293
 4936TIP3    H114772   0.620   4.061   4.309 -0.7007 -0.3548 -0.9886
 4936TIP3    H214773   0.698   4.184   4.350 -2.5607 -0.1123  2.1290
 4937TIP3   OH214774   5.956   6.538   1.263 -0.1948  0.1134  0.2165
 4937TIP3    H114775   6.049   6.515   1.256 -0.6655 -2.0751  0.2685
 4937TIP3    H214776   5.946   6.571   1.352  0.6303  0.9958 -0.0021
 4938TIP3   OH214777   5.934   2.137   3.191 -0.0092 -0.1720 -0.0339
 4938TIP3    H114778   5.896   2.094   3.114  0.4739 -1.0985  0.2347
 4938TIP3    H214779   5.861   2.188   3.228 -0.1120  0.6998 -1.3789
 4939TIP3   OH214780   2.710   4.431   4.490 -0.1971 -0.8749 -0.0872
 4939TIP3    H114781   2.803   4.439   4.513 -0.2415  0.4578 -0.3495
 4939TIP3    H214782   2.707   4.354   4.433  0.8570 -0.5374 -0.6252
 4940TIP3   OH214783   4.702   4.595   1.672  0.1100  0.0339  0.0895
 4940TIP3    H114784   4.669   4.667   1.618 -0.0705 -0.0046  0.1460
 4940TIP3    H214785   4.627   4.536   1.681  0.5694 -0.7415 -0.9124
 4941TIP3   OH214786   3.387   4.874   3.922 -0.3206  0.0724  0.0354
 4941TIP3    H114787   3.428   4.861   3.837 -1.0915  0.3557 -0.3848
 4941TIP3    H214788   3.396   4.967   3.940  1.8779 -0.3148  1.3404
 4942TIP3   OH214789   2.768   2.770   0.508 -0.4560  0.4582  0.1819
 4942TIP3    H114790   2.733   2.851   0.545 -2.1430  0.4966 -1.3458
 4942TIP3    H214791   2.702   2.742   0.444  0.6917 -1.4328 -0.2740
 4943TIP3   OH214792   1.686   6.700   1.809 -0.0848  0.5390 -0.4024
 4943TIP3    H114793   1.624   6.764   1.844  1.0715  1.7734 -0.5058
 4943TIP3    H214794   1.649   6.675   1.724 -1.6877 -0.6748  0.5998
 4944TIP3   OH214795   6.277   3.046   2.999  0.4770 -0.1212  0.1112
 4944TIP3    H114796   6.289   2.951   3.000 -0.3653 -0.2340  0.8823
 4944TIP3    H214797   6.217   3.062   2.926  0.0658 -0.2591  0.4171
 4945TIP3   OH214798   2.843   0.942   5.750 -0.8370  0.6362  0.7930
 4945TIP3    H114799   2.827   0.898   5.833 -0.8449 -2.7052 -0.8430
 4945TIP3    H214800   2.770   1.003   5.741 -0.2967  1.8559  3.6204
 4946TIP3   OH214801   3.164   3.152   5.092 -0.2240 -0.0997 -0.3220
 4946TIP3    H114802   3.145   3.187   5.005  0.8259  0.1278 -0.4826
 4946TIP3    H214803   3.138   3.221   5.153  1.4292  0.8326 -0.6133
 4947TIP3   OH214804   3.335   6.600   0.753  0.0554  0.4589  0.0240
 4947TIP3    H114805   3.359   6.679   0.706  0.1933  0.9300  0.8701
 4947TIP3    H214806   3.267   6.627   0.815  0.4135  0.0140  0.6278
 4948TIP3   OH214807   4.187   1.231   2.501 -0.1753 -0.3431  1.0205
 4948TIP3    H114808   4.102   1.275   2.493 -0.1320 -0.2734  0.9406
 4948TIP3    H214809   4.198   1.218   2.595 -0.6534 -1.0991  0.9738
 4949TIP3   OH214810   5.067   6.012   3.659  0.3707 -0.2587  0.2893
 4949TIP3    H114811   5.143   5.955   3.677  0.0634 -1.5115 -1.9581
 4949TIP3    H214812   5.015   6.008   3.739  2.7006  0.7715  1.9739
 4950TIP3   OH214813   3.101   3.433   3.182  0.5405 -0.5018 -0.6601
 4950TIP3    H114814   3.108   3.418   3.088  1.1126 -1.5826 -0.4571
 4950TIP3    H214815   3.182   3.481   3.205  0.8079 -0.9823 -0.5857
 4951TIP3   OH214816   1.541   0.651   1.360  0.2803 -0.3762  0.2135
 4951TIP3    H114817   1.609   0.586   1.378  0.3972 -0.1816  0.4901
 4951TIP3    H214818   1.494   0.617   1.284  0.6058 -0.5777  0.0998
 4952TIP3   OH214819   5.748   6.694   0.150  0.4286  0.3402 -0.3493
 4952TIP3    H114820   5.717   6.775   0.108 -0.4824 -0.8608 -2.1560
 4952TIP3    H214821   5.825   6.669   0.098  0.4415 -0.1784 -0.0786
 4953TIP3   OH214822   4.576   4.374   2.436 -0.0089  0.1035 -0.1104
 4953TIP3    H114823   4.553   4.357   2.528 -0.7018 -0.3300 -0.3552
 4953TIP3    H214824   4.501   4.341   2.387 -0.0999  1.2640 -0.7742
 4954TIP3   OH214825   3.366   0.137   2.430 -1.1653 -0.2052 -0.4061
 4954TIP3    H114826   3.412   0.083   2.494 -1.9841  0.2429  0.5814
 4954TIP3    H214827   3.436   0.181   2.382 -0.5261  0.7850  1.3370
 4955TIP3   OH214828   0.286   3.479   1.122  0.0190  0.2717  0.1146
 4955TIP3    H114829   0.288   3.543   1.051  0.9182 -0.8958 -0.9650
 4955TIP3    H214830   0.234   3.521   1.191  2.6532  3.1954  0.5241
 4956TIP3   OH214831   6.660   2.684   2.417  0.3554  0.0330 -0.3766
 4956TIP3    H114832   6.671   2.745   2.490 -1.4524 -1.3463  1.1690
 4956TIP3    H214833   6.731   2.621   2.427  0.0203 -0.2435  0.3252
 4957TIP3   OH214834   2.816   6.787   2.282  0.2322 -0.7520  0.2725
 4957TIP3    H114835   2.778   6.750   2.203  0.6278  1.5422 -1.0770
 4957TIP3    H214836   2.771   6.870   2.294  2.5997  0.6133  0.3791
 4958TIP3   OH214837   6.849   0.093   5.333  0.7163 -0.5030 -0.2743
 4958TIP3    H114838   6.852   0.065   5.241  1.0916 -0.6759 -0.2110
 4958TIP3    H214839   6.898   0.175   5.334 -0.6907  0.3737 -0.5268
 4959TIP3   OH214840   5.832   3.059   1.568 -0.2859  0.1386  0.3238
 4959TIP3    H114841   5.754   3.004   1.564 -0.0483 -0.2397  0.7368
 4959TIP3    H214842   5.809   3.138   1.520 -0.9141  0.0177  0.4241
 4960TIP3   OH214843   3.574   1.441   0.638  0.1713 -0.5056 -0.5500
 4960TIP3    H114844   3.615   1.432   0.724 -1.8036 -0.2559  0.4813
 4960TIP3    H214845   3.559   1.536   0.629  1.5093 -0.3802 -1.7664
 4961TIP3   OH214846   4.853   6.720   4.908  0.1741 -0.5392  0.0636
 4961TIP3    H114847   4.867   6.670   4.989  1.0654 -1.1791 -0.4625
 4961TIP3    H214848   4.928   6.698   4.853 -0.6982 -0.5529 -1.1632
 4962TIP3   OH214849   4.413   4.502   4.771  0.1629 -0.2874  0.2623
 4962TIP3    H114850   4.318   4.516   4.768  0.3011  0.6252 -1.8644
 4962TIP3    H214851   4.448   4.583   4.807  0.1624 -0.3975  0.5084
 4963TIP3   OH214852   4.228   4.577   0.796  0.3270  0.4538 -0.3918
 4963TIP3    H114853   4.232   4.649   0.859 -0.3706 -1.7330  2.3349
 4963TIP3    H214854   4.158   4.601   0.736  0.9096  2.5478 -0.3078
 4964TIP3   OH214855   6.069   3.288   0.510  0.0403 -0.1050 -0.0627
 4964TIP3    H114856   5.989   3.319   0.468 -1.8297 -0.9183  2.6067
 4964TIP3    H214857   6.138   3.342   0.472 -1.6649  0.3983 -2.7403
 4965TIP3   OH214858   6.686   6.537   4.612  0.5321 -0.0557 -0.2780
 4965TIP3    H114859   6.611   6.526   4.670 -0.0913 -0.2689 -1.1040
 4965TIP3    H214860   6.697   6.632   4.606 -1.2530  0.1189 -2.0701
 4966TIP3   OH214861   0.893   5.245   0.660  0.2660 -0.3874 -0.0379
 4966TIP3    H114862   0.854   5.178   0.717 -2.0890  0.1914 -0.8741
 4966TIP3    H214863   0.986   5.226   0.661 -0.1146 -2.4503  1.3357
 4967TIP3   OH214864   5.083   3.017   1.261  0.6303 -0.0259 -0.7031
 4967TIP3    H114865   5.061   2.994   1.171  0.3761  0.4679 -0.7710
 4967TIP3    H214866   4.999   3.017   1.307  0.8454 -1.0383 -0.2808
 4968TIP3   OH214867   0.226   6.656   0.108  0.3212  0.4481  0.4285
 4968TIP3    H114868   0.235   6.745   0.074  0.2411  0.0898 -0.5698
 4968TIP3    H214869   0.295   6.607   0.063  0.0674 -0.0876  0.6221
 4969TIP3   OH214870   2.000   1.370   4.466 -0.3516 -0.1273  0.6379
 4969TIP3    H114871   2.067   1.349   4.401 -0.6750  0.9793 -0.0854
 4969TIP3    H214872   1.954   1.287   4.480 -0.4680 -0.3379 -0.7870
 4970TIP3   OH214873   3.383   4.760   5.871 -0.2072 -0.5932 -0.0400
 4970TIP3    H114874   3.349   4.671   5.860 -1.8376 -0.1355  0.8734
 4970TIP3    H214875   3.350   4.788   5.957 -1.0970  1.4348 -0.9599
 4971TIP3   OH214876   5.243   2.124   2.345  0.3740 -0.8845  0.0315
 4971TIP3    H114877   5.218   2.037   2.316 -0.3594 -0.0709 -1.9940
 4971TIP3    H214878   5.339   2.123   2.347  0.3591 -2.0777  1.3089
 4972TIP3   OH214879   4.855   3.699   2.139  0.3275  0.1312 -0.0468
 4972TIP3    H114880   4.845   3.604   2.132 -0.3370  0.3190 -2.2751
 4972TIP3    H214881   4.773   3.735   2.106  0.1144  1.5241  1.8183
 4973TIP3   OH214882   4.419   2.377   3.373 -0.5346  0.2075 -0.4832
 4973TIP3    H114883   4.435   2.464   3.409 -0.9414  0.1403 -0.1259
 4973TIP3    H214884   4.355   2.391   3.304 -0.2572  0.2471 -0.7367
 4974TIP3   OH214885   1.752   0.659  -0.021  0.2229  0.6745 -0.1139
 4974TIP3    H114886   1.667   0.692   0.008 -0.1218  0.4961 -0.8950
 4974TIP3    H214887   1.780   0.601   0.049  0.6739  2.3009  1.1322
 4975TIP3   OH214888   4.063   6.516   5.044 -0.2151  0.0287  0.2616
 4975TIP3    H114889   3.997   6.450   5.022  0.7706 -0.5111 -1.2064
 4975TIP3    H214890   4.018   6.599   5.034 -0.9710 -0.3590  0.3601
 4976TIP3   OH214891   3.623   2.456   0.486  0.5562  0.0307 -0.7162
 4976TIP3    H114892   3.583   2.463   0.572  1.0700  1.2322 -0.5574
 4976TIP3    H214893   3.555   2.418   0.431  0.4772 -1.4828  0.3652
 4977TIP3   OH214894   2.909   5.978   4.572 -0.7026 -0.0995  0.2921
 4977TIP3    H114895   2.984   5.979   4.631  0.5098 -1.3318 -1.1340
 4977TIP3    H214896   2.947   5.956   4.487 -2.6755 -0.6355 -0.4902
 4978TIP3   OH214897   6.621   4.168   4.601 -0.7074 -0.6473  0.2473
 4978TIP3    H114898   6.623   4.124   4.516 -0.0215 -0.5724  0.2211
 4978TIP3    H214899   6.709   4.156   4.637  0.0454  2.1161 -0.4962
 4979TIP3   OH214900   5.985   6.562   3.247 -0.5087  0.1636  0.6815
 4979TIP3    H114901   5.983   6.595   3.337  1.8587  1.4831  0.3398
 4979TIP3    H214902   6.068   6.515   3.241 -0.6141  0.1189 -0.8044
 4980TIP3   OH214903   3.838   0.742   2.563 -0.3782 -0.3062  0.7637
 4980TIP3    H114904   3.869   0.831   2.546 -1.2646  0.0656  1.0366
 4980TIP3    H214905   3.908   0.685   2.529  0.5245  0.4905  1.2357
 4981TIP3   OH214906   6.243   0.724   4.854  0.2867 -0.1505  0.4191
 4981TIP3    H114907   6.197   0.677   4.784 -2.0362  2.4574  0.0122
 4981TIP3    H214908   6.173   0.756   4.911  1.7619  2.1088  1.0686
 4982TIP3   OH214909   1.730   3.581   3.459 -0.1141  0.1332  0.3259
 4982TIP3    H114910   1.735   3.486   3.468  0.5417  0.1550  0.1961
 4982TIP3    H214911   1.669   3.608   3.528 -1.1780 -0.4876 -0.3500
 4983TIP3   OH214912   6.111   0.612   4.396 -0.2185  0.1560 -0.3489
 4983TIP3    H114913   6.198   0.598   4.359 -0.0929  0.8342 -0.3132
 4983TIP3    H214914   6.060   0.536   4.367  0.3378 -0.1661 -0.4967
 4984TIP3   OH214915   1.159   0.299   5.351 -0.0917 -0.7836  0.0846
 4984TIP3    H114916   1.193   0.211   5.336 -1.2092 -1.1013 -0.7376
 4984TIP3    H214917   1.068   0.285   5.376 -0.6288  0.1803 -1.2590
 4985TIP3   OH214918   1.987   3.110   2.875 -0.6478 -0.5790  0.2427
 4985TIP3    H114919   2.062   3.146   2.924 -0.4623  0.3149 -0.6619
 4985TIP3    H214920   1.933   3.187   2.855 -0.3011 -0.7957 -1.6559
 4986TIP3   OH214921   5.902   0.529   5.010 -0.2285  0.6563  0.5033
 4986TIP3    H114922   5.837   0.519   5.080 -0.1785 -1.2591  0.3354
 4986TIP3    H214923   5.979   0.481   5.042  0.6896  1.8755  0.1795
 4987TIP3   OH214924   3.555   1.347   2.773 -0.1658  0.2280 -0.3938
 4987TIP3    H114925   3.469   1.323   2.806  0.0679 -0.3016 -0.1485
 4987TIP3    H214926   3.614   1.333   2.848  0.1018  0.7842 -0.4971
 4988TIP3   OH214927   6.093   1.357   3.490 -0.3839 -0.4360 -0.2504
 4988TIP3    H114928   6.080   1.409   3.411 -1.1530  0.7157  0.5968
 4988TIP3    H214929   6.022   1.384   3.548  0.4728 -0.8481  1.0341
 4989TIP3   OH214930   2.086   3.935   0.160 -0.0325  0.1142 -0.1538
 4989TIP3    H114931   2.039   3.859   0.126  1.7795 -1.0218 -0.2672
 4989TIP3    H214932   2.115   3.982   0.082  0.4946 -0.1579 -0.1277
 4990TIP3   OH214933   0.485   5.399   0.021  0.2655  0.2237  0.2864
 4990TIP3    H114934   0.464   5.483   0.061 -0.6835 -0.4105  1.1666
 4990TIP3    H214935   0.408   5.344   0.037  0.7975 -0.7689 -0.4135
 4991TIP3   OH214936   1.301   5.538   2.587 -0.1009 -0.1075 -0.4786
 4991TIP3    H114937   1.210   5.535   2.560  0.0888  0.1294 -1.1631
 4991TIP3    H214938   1.327   5.629   2.578  0.4895 -0.3416 -1.2687
 4992TIP3   OH214939   2.994   2.878   3.731 -0.3908 -0.1141  0.1896
 4992TIP3    H114940   3.063   2.943   3.730  0.6835 -1.2067 -0.6200
 4992TIP3    H214941   2.920   2.920   3.686 -0.3624  1.1501  1.2900
 4993TIP3   OH214942   1.094   5.534   5.480  0.2885  0.3250  0.0912
 4993TIP3    H114943   1.017   5.492   5.518  0.4703  0.4775  0.6366
 4993TIP3    H214944   1.084   5.523   5.385  0.4656 -1.1804  0.2295
 4994TIP3   OH214945   6.574   1.824   3.400 -0.3362 -0.0729  0.6090
 4994TIP3    H114946   6.520   1.747   3.419 -0.0986  0.0005  1.6687
 4994TIP3    H214947   6.585   1.866   3.485  1.1326  0.0808  0.3669
 4995TIP3   OH214948   2.955   2.177   4.828  0.8196 -0.2365 -0.3449
 4995TIP3    H114949   2.976   2.219   4.745  0.6895  0.9846  0.2250
 4995TIP3    H214950   3.036   2.184   4.879  1.1443 -1.6573 -0.6207
 4996TIP3   OH214951   4.883   6.090   0.094 -0.0771  0.3585 -0.1914
 4996TIP3    H114952   4.940   6.041   0.154  0.5713  0.0509 -1.0367
 4996TIP3    H214953   4.805   6.036   0.085  1.0426 -1.0873 -1.9083
 4997TIP3   OH214954   6.187   6.708   3.857 -0.0062  0.1441 -0.3215
 4997TIP3    H114955   6.260   6.765   3.883 -0.9995  2.2585 -1.8465
 4997TIP3    H214956   6.200   6.692   3.764 -0.8259 -0.4759 -0.3445
 4998TIP3   OH214957   5.525   6.455   2.627 -0.2743 -0.8039 -0.0439
 4998TIP3    H114958   5.437   6.455   2.665 -0.0503 -0.4036  0.4953
 4998TIP3    H214959   5.512   6.478   2.535 -0.6139  0.7360  0.3572
 4999TIP3   OH214960   1.197   3.731   5.419 -0.1334  0.0072  0.9894
 4999TIP3    H114961   1.236   3.677   5.487 -0.2364  3.1957  3.8854
 4999TIP3    H214962   1.103   3.728   5.437 -0.2096  0.4733  0.7019
 5000TIP3   OH214963   1.815   0.143   4.333  0.2496  0.0339 -0.2185
 5000TIP3    H114964   1.804   0.158   4.239  4.5155 -0.1637 -0.9118
 5000TIP3    H214965   1.743   0.083   4.356 -0.2421 -0.8821 -3.5962
 5001TIP3   OH214966   5.450   6.087   3.734  0.2096  0.2848  0.1092
 5001TIP3    H114967   5.376   6.048   3.781 -0.1366 -0.0072 -0.6619
 5001TIP3    H214968   5.527   6.051   3.777 -0.0543  1.5793  1.7564
 5002TIP3   OH214969   3.253   1.445   3.904  0.4443 -0.2757  0.2071
 5002TIP3    H114970   3.308   1.475   3.976 -0.1613 -0.1109  0.6089
 5002TIP3    H214971   3.168   1.427   3.945  0.6578 -2.1418 -0.0880
 5003TIP3   OH214972   4.331   1.160   0.644 -0.3794  0.4041 -0.3883
 5003TIP3    H114973   4.338   1.111   0.562 -0.0911  1.6007 -1.1013
 5003TIP3    H214974   4.419   1.195   0.658  0.0432 -1.1953  1.3662
 5004TIP3   OH214975   7.199   4.921   0.316 -0.0104 -0.3673 -0.5470
 5004TIP3    H114976   7.110   4.954   0.331  0.4519  0.3605  0.7698
 5004TIP3    H214977   7.211   4.928   0.221  0.5748  4.9210 -0.4014
 5005TIP3   OH214978   0.995   2.998   1.990 -0.0156  0.1322  0.0690
 5005TIP3    H114979   0.949   3.075   1.956  0.4252  0.8165  0.9908
 5005TIP3    H214980   1.080   3.031   2.018  0.5231 -0.8725 -0.3573
 5006TIP3   OH214981   3.796   1.458   5.185  0.7798  0.1931  0.4816
 5006TIP3    H114982   3.861   1.460   5.115  0.1181  1.5928 -0.1340
 5006TIP3    H214983   3.788   1.365   5.207  2.9174 -0.0252  0.5440
 5007TIP3   OH214984   0.555   5.678   2.520  0.2380  0.8991  0.4057
 5007TIP3    H114985   0.464   5.708   2.518  0.3444  1.5546  2.7192
 5007TIP3    H214986   0.586   5.691   2.431 -1.6527  1.5505 -0.2172
 5008TIP3   OH214987   2.895   4.616   4.257  0.0642  0.1785 -0.2213
 5008TIP3    H114988   2.938   4.538   4.291 -0.7785 -0.2609 -0.1376
 5008TIP3    H214989   2.912   4.684   4.324 -0.9994 -0.4979  0.7757
 5009TIP3   OH214990   1.644   3.187   0.680 -0.4280  0.6450 -0.3637
 5009TIP3    H114991   1.728   3.142   0.673 -1.2111 -0.6791 -1.8928
 5009TIP3    H214992   1.666   3.276   0.708  1.3503 -0.0491  0.5552
 5010TIP3   OH214993   5.678   5.279   3.933  0.0240  0.3059 -0.1555
 5010TIP3    H114994   5.596   5.232   3.912 -1.8702  3.2243  0.1619
 5010TIP3    H214995   5.694   5.260   4.025  2.3072 -3.7643 -1.1323
 5011TIP3   OH214996   1.157   1.161   5.754 -0.0277 -0.0391 -0.0581
 5011TIP3    H114997   1.129   1.077   5.792 -0.8031 -0.0412 -0.5948
 5011TIP3    H214998   1.091   1.224   5.784  0.5016  0.3606  0.2682
 5012TIP3   OH214999   2.081   4.679   4.709 -0.2485  0.1449  0.0019
 5012TIP3    H115000   2.068   4.592   4.670  2.4195  0.1523 -1.1412
 5012TIP3    H215001   2.094   4.662   4.802 -0.9448 -0.5330 -0.0117
 5013TIP3   OH215002   6.542   5.135   2.482  0.2898 -0.8894  0.7437
 5013TIP3    H115003   6.591   5.212   2.453  0.7275 -1.8788 -1.3825
 5013TIP3    H215004   6.565   5.125   2.574  0.3378  1.3990  1.0373
 5014TIP3   OH215005   3.897   0.164   5.643 -0.2762 -0.0894  0.3036
 5014TIP3    H115006   3.937   0.108   5.710  0.6075 -0.3182 -0.3896
 5014TIP3    H215007   3.803   0.160   5.661 -0.1565 -1.1304  0.7909
 5015TIP3   OH215008   6.090   5.386   0.993 -0.5841  0.1749  0.7303
 5015TIP3    H115009   6.069   5.327   0.920  1.4086  0.6558 -0.2990
 5015TIP3    H215010   6.059   5.472   0.965  0.5085  0.4302  0.2485
 5016TIP3   OH215011   6.670   3.643   5.491 -0.3033 -0.5850 -0.2694
 5016TIP3    H115012   6.676   3.678   5.402  0.8223  0.1140  0.0468
 5016TIP3    H215013   6.741   3.579   5.497 -0.1856 -0.4201  0.1996
 5017TIP3   OH215014   4.778   0.571   3.663 -0.4540  0.5050  0.0602
 5017TIP3    H115015   4.840   0.510   3.624 -0.6058 -0.6347  1.5111
 5017TIP3    H215016   4.828   0.616   3.732 -1.0024  0.1033  0.7430
 5018TIP3   OH215017   0.374   0.320   5.233  0.1784 -0.1405 -0.0524
 5018TIP3    H115018   0.438   0.314   5.163  1.4156 -2.8696  1.1654
 5018TIP3    H215019   0.394   0.246   5.291 -4.0954 -1.2845  0.3704
 5019TIP3   OH215020   1.252   1.173   2.716  0.0431  0.0638 -0.5366
 5019TIP3    H115021   1.206   1.231   2.777  0.8588  0.2533 -0.0875
 5019TIP3    H215022   1.211   1.190   2.632  1.0873  2.2384 -0.6633
 5020TIP3   OH215023   0.578   2.658   4.758 -0.0124 -0.0863 -0.1859
 5020TIP3    H115024   0.642   2.681   4.825  2.2134 -2.6403 -1.3002
 5020TIP3    H215025   0.540   2.575   4.788  2.0305 -2.0349 -2.5899
 5021TIP3   OH215026   0.307   4.938   3.661 -0.1306 -0.6505  0.3206
 5021TIP3    H115027   0.400   4.924   3.682 -0.2198 -0.6072  0.7458
 5021TIP3    H215028   0.269   4.970   3.743 -0.6192 -1.1212  0.2759
 5022TIP3   OH215029   7.098   1.739   0.873 -0.7082 -0.2062  0.2461
 5022TIP3    H115030   7.090   1.660   0.927  0.7096 -0.9686 -0.5702
 5022TIP3    H215031   7.171   1.719   0.814 -1.7576  0.8653 -1.4769
 5023TIP3   OH215032   3.361   0.213   3.980  0.2976  0.2928  0.3501
 5023TIP3    H115033   3.438   0.233   3.927  0.5457 -0.9273  0.2183
 5023TIP3    H215034   3.322   0.137   3.938 -2.1374  2.0026 -0.7572
 5024TIP3   OH215035   4.973   2.385   1.666 -0.3765 -0.6066  0.1432
 5024TIP3    H115036   5.013   2.440   1.733 -0.1449 -1.3500  0.6366
 5024TIP3    H215037   4.893   2.431   1.641  0.7438  0.8766 -0.8231
 5025TIP3   OH215038   3.518   6.571   4.570 -0.0696  0.0294 -0.5608
 5025TIP3    H115039   3.493   6.550   4.660  1.0869 -0.8663 -0.4227
 5025TIP3    H215040   3.589   6.510   4.550  1.2474  1.7041 -1.2875
 5026TIP3   OH215041   1.269   4.700   0.092 -0.4454  0.0650 -0.5156
 5026TIP3    H115042   1.180   4.664   0.087 -0.6938 -0.0154  2.3807
 5026TIP3    H215043   1.273   4.765   0.022 -2.1223 -1.2037 -1.8828
 5027TIP3   OH215044   3.559   4.604   2.234  0.6679 -0.0331 -0.3331
 5027TIP3    H115045   3.601   4.663   2.296  0.7459 -1.6923  1.3162
 5027TIP3    H215046   3.478   4.648   2.209  1.1465  1.1467  0.1412
 5028TIP3   OH215047   6.390   0.899   5.498 -0.2105 -0.2959  0.3410
 5028TIP3    H115048   6.377   0.939   5.413 -2.5423 -0.5128  0.5173
 5028TIP3    H215049   6.476   0.859   5.494  0.1699  0.6468 -1.5073
 5029TIP3   OH215050   3.420   2.054   2.309  0.5045 -0.0856 -0.4616
 5029TIP3    H115051   3.507   2.074   2.344  1.0650 -3.1621  0.1716
 5029TIP3    H215052   3.437   2.010   2.225 -0.5314  0.5022 -1.0049
 5030TIP3   OH215053   2.951   2.736   0.917 -0.2349  0.2680 -0.4191
 5030TIP3    H115054   2.984   2.691   0.996  1.9426  0.8938 -0.9096
 5030TIP3    H215055   2.969   2.675   0.846  1.0020  1.0871 -0.8419
 5031TIP3   OH215056   1.517   5.074   3.235 -1.0510 -0.4440 -0.0828
 5031TIP3    H115057   1.437   5.060   3.285 -0.0312 -1.6894  1.2727
 5031TIP3    H215058   1.569   5.134   3.289 -1.1687  0.6248 -1.1105
 5032TIP3   OH215059   0.992   6.102   1.401  0.5138  0.0674  0.3362
 5032TIP3    H115060   0.905   6.109   1.363  0.4634 -1.3495  0.1269
 5032TIP3    H215061   1.051   6.126   1.330  0.3175  0.3133  0.2548
 5033TIP3   OH215062   1.837   2.184   1.918  0.3547 -0.0852 -0.3652
 5033TIP3    H115063   1.761   2.221   1.873 -0.7995 -1.2209  0.5633
 5033TIP3    H215064   1.800   2.121   1.979  1.7541  1.6467  2.5125
 5034TIP3   OH215065   5.775   5.040   5.079  0.5574 -0.0946 -0.2132
 5034TIP3    H115066   5.803   5.058   5.169  0.2095 -1.0764  0.0966
 5034TIP3    H215067   5.857   5.037   5.029  0.6841  1.6422 -0.1699
 5035TIP3   OH215068   2.490   6.353   1.932 -0.7093  0.2523 -0.2463
 5035TIP3    H115069   2.578   6.383   1.911 -0.1089 -0.6297  0.9107
 5035TIP3    H215070   2.476   6.278   1.873  0.6219 -1.6482  1.6918
 5036TIP3   OH215071   4.294   5.340   0.629  0.5443 -0.0765  0.0422
 5036TIP3    H115072   4.366   5.326   0.690  0.4740  2.2355  0.7703
 5036TIP3    H215073   4.215   5.325   0.681  0.4930 -0.0813 -0.0367
 5037TIP3   OH215074   1.751   0.335   0.476  0.1071  0.4173  0.1845
 5037TIP3    H115075   1.784   0.403   0.417  1.4026  0.0093  0.3909
 5037TIP3    H215076   1.759   0.373   0.563  0.9327 -0.0234  0.3082
 5038TIP3   OH215077   3.004   1.143   5.161  0.9810  0.3870 -0.2128
 5038TIP3    H115078   2.977   1.222   5.209 -0.8785  0.4299 -1.2199
 5038TIP3    H215079   3.039   1.084   5.228 -0.1819  1.0128  0.9776
 5039TIP3   OH215080   4.797   1.578   2.864  0.0565 -0.3105  0.3991
 5039TIP3    H115081   4.747   1.577   2.946 -0.5584  0.2983  0.0413
 5039TIP3    H215082   4.735   1.550   2.797 -0.8804  3.4985 -0.5919
 5040TIP3   OH215083   5.791   2.245   5.038  0.7699 -0.2373 -0.2615
 5040TIP3    H115084   5.749   2.236   5.124 -1.8168  1.5639 -1.1976
 5040TIP3    H215085   5.793   2.156   5.003 -0.8375 -0.6360  0.5464
 5041TIP3   OH215086   5.348   0.769   2.253 -0.1956 -0.0115  0.4124
 5041TIP3    H115087   5.340   0.850   2.304  0.3587 -0.0944  0.6432
 5041TIP3    H215088   5.282   0.777   2.185 -0.9301  0.1216  1.1194
 5042TIP3   OH215089   0.590   5.773   2.006 -0.1444 -0.8209  0.1521
 5042TIP3    H115090   0.625   5.839   1.947 -1.1897  0.9447  1.3940
 5042TIP3    H215091   0.531   5.721   1.952  1.2901 -1.2774 -1.0320
 5043TIP3   OH215092   0.165   1.586   4.013  0.5517  0.2068  0.0486
 5043TIP3    H115093   0.195   1.561   4.100  0.0314 -0.5749  0.0137
 5043TIP3    H215094   0.070   1.592   4.021  0.3214 -1.5484 -0.8495
 5044TIP3   OH215095   3.913   2.819   3.072 -0.5017 -0.4894  0.4825
 5044TIP3    H115096   3.977   2.862   3.127  1.1580  0.4169 -1.9669
 5044TIP3    H215097   3.851   2.888   3.049  0.3335 -0.1432 -0.8523
 5045TIP3   OH215098   6.576   4.047   4.873 -0.1769 -0.2461 -0.1670
 5045TIP3    H115099   6.521   3.988   4.925 -0.7202  0.9941  0.7425
 5045TIP3    H215100   6.555   4.026   4.782  0.2666 -1.9896  0.0915
 5046TIP3   OH215101   6.088   2.629   5.397 -0.3781 -0.5186 -0.3879
 5046TIP3    H115102   6.027   2.655   5.466 -0.8972 -1.6462 -0.4038
 5046TIP3    H215103   6.064   2.684   5.323  1.5149  2.2198  0.8406
 5047TIP3   OH215104   2.885   0.555   1.995  0.2710 -0.5741  0.1510
 5047TIP3    H115105   2.945   0.629   2.006 -0.8225  0.8777 -2.5403
 5047TIP3    H215106   2.832   0.555   2.075  1.4992  0.3723  1.0136
 5048TIP3   OH215107   2.530   4.627   2.811  0.0848 -0.1735  0.0171
 5048TIP3    H115108   2.462   4.693   2.828  2.5372  2.5091  0.2546
 5048TIP3    H215109   2.484   4.556   2.767 -2.9704  1.1528  0.8029
 5049TIP3   OH215110   5.743   4.100   0.370  0.0642 -0.5924  0.1729
 5049TIP3    H115111   5.792   4.107   0.452 -0.5503 -0.6705  0.5516
 5049TIP3    H215112   5.651   4.098   0.397 -0.1106 -1.6944 -0.4370
 5050TIP3   OH215113   5.459   4.511   2.121 -0.2157 -0.5096  0.2821
 5050TIP3    H115114   5.401   4.481   2.052  1.0439 -1.0577 -0.5787
 5050TIP3    H215115   5.462   4.439   2.183  1.7852 -1.7693 -1.1396
 5051TIP3   OH215116   4.449   4.602   2.109  0.3971  0.2500 -0.0350
 5051TIP3    H115117   4.400   4.520   2.109 -1.7205  1.4304 -1.3184
 5051TIP3    H215118   4.523   4.586   2.050  0.0956 -0.7876 -0.1480
 5052TIP3   OH215119   5.749   4.495   0.918 -0.4163  0.6228  0.7256
 5052TIP3    H115120   5.770   4.402   0.927 -2.7844 -0.0733  0.0138
 5052TIP3    H215121   5.755   4.512   0.824 -0.6875  0.9970  0.7721
 5053TIP3   OH215122   6.665   3.919   3.152  0.0966 -0.0158 -0.0785
 5053TIP3    H115123   6.602   3.891   3.218  2.4611  0.6450  2.6775
 5053TIP3    H215124   6.657   4.014   3.151  0.3606  0.0014 -0.4423
 5054TIP3   OH215125   3.749   6.043   2.537 -0.4395  0.3175  0.1824
 5054TIP3    H115126   3.818   6.070   2.598  1.3394 -3.1632 -0.0207
 5054TIP3    H215127   3.775   6.081   2.453  1.6717 -1.3434 -0.0018
 5055TIP3   OH215128   2.220   6.442   0.307 -0.3317 -0.5892  0.1532
 5055TIP3    H115129   2.249   6.391   0.232 -1.1332 -1.7582  0.6146
 5055TIP3    H215130   2.216   6.532   0.274  0.3540 -0.9155 -0.8902
 5056TIP3   OH215131   2.902   4.358   4.720  0.5979 -0.0310  0.4659
 5056TIP3    H115132   2.880   4.440   4.763  0.3112 -0.6008  1.4334
 5056TIP3    H215133   2.994   4.343   4.742 -0.0691 -1.3643  2.7358
 5057TIP3   OH215134   1.065   2.848   3.549 -0.4964 -0.0597  0.0046
 5057TIP3    H115135   0.977   2.809   3.554 -1.3822  1.4686 -2.3218
 5057TIP3    H215136   1.124   2.773   3.558 -2.0209 -1.2599  0.6561
 5058TIP3   OH215137   0.716   3.025   3.490  0.0088  0.2166 -0.7028
 5058TIP3    H115138   0.705   3.081   3.567  0.0838  2.0513 -1.9610
 5058TIP3    H215139   0.673   2.943   3.514 -1.3564  1.2792  0.7368
 5059TIP3   OH215140   5.254   4.738   3.633 -0.3260  0.3469 -0.4279
 5059TIP3    H115141   5.232   4.826   3.661 -1.0199 -0.0572  0.3368
 5059TIP3    H215142   5.247   4.740   3.538 -1.5290  0.8142 -0.3452
 5060TIP3   OH215143   1.870   6.387   3.362 -0.1017 -0.5138 -0.1245
 5060TIP3    H115144   1.925   6.454   3.404 -0.5181 -0.6188  0.6171
 5060TIP3    H215145   1.825   6.433   3.292  0.2166 -0.2014 -0.1260
 5061TIP3   OH215146   5.461   4.692   0.974  0.2331  0.0837  0.1654
 5061TIP3    H115147   5.501   4.632   1.037 -0.2572 -0.1649  0.2480
 5061TIP3    H215148   5.460   4.643   0.892 -1.5272 -0.6404  0.5513
 5062TIP3   OH215149   6.203   4.841   5.282  0.4610  0.1927 -0.3831
 5062TIP3    H115150   6.126   4.834   5.226  1.0128  0.2833 -1.1657
 5062TIP3    H215151   6.256   4.764   5.260  0.1266 -0.4180  0.8842
 5063TIP3   OH215152   3.199   4.776   5.543 -0.1067 -0.2305  0.0756
 5063TIP3    H115153   3.150   4.695   5.559  1.8237 -2.0643 -2.5607
 5063TIP3    H215154   3.162   4.810   5.462  2.2414 -1.2167 -1.5190
 5064TIP3   OH215155   5.904   5.562   0.556  0.0570  0.1138  0.3616
 5064TIP3    H115156   5.824   5.551   0.606 -0.6152  0.2634 -0.6379
 5064TIP3    H215157   5.876   5.609   0.477  1.4303  1.8183  0.8309
 5065TIP3   OH215158   6.712   2.157   2.983 -0.4481 -0.2288 -0.3659
 5065TIP3    H115159   6.671   2.233   3.024 -1.4414 -0.2983 -1.1995
 5065TIP3    H215160   6.768   2.120   3.052  0.4436  1.5183 -0.0874
 5066TIP3   OH215161   3.900   0.986   5.598 -0.1448  0.3603  0.5906
 5066TIP3    H115162   3.883   0.909   5.652  0.0587 -0.8759 -1.0401
 5066TIP3    H215163   3.842   0.976   5.523  1.9639  0.2003 -1.1184
 5067TIP3   OH215164   3.979   1.919   3.221  0.1613 -0.3629 -0.7364
 5067TIP3    H115165   4.069   1.905   3.191  0.4453  0.7266 -0.4524
 5067TIP3    H215166   3.953   1.835   3.260  1.7776 -0.1357  0.9856
 5068TIP3   OH215167   4.238  -0.012   3.606 -0.3299  0.2382 -0.4974
 5068TIP3    H115168   4.234  -0.044   3.697  0.2267  1.0367 -0.1830
 5068TIP3    H215169   4.193   0.073   3.609  1.6272  1.3320 -0.4702
 5069TIP3   OH215170   6.818   0.013   5.590 -0.1899  0.3622 -0.4344
 5069TIP3    H115171   6.818   0.051   5.502  0.5466  0.2777 -0.4793
 5069TIP3    H215172   6.903   0.038   5.627 -0.0104 -0.5809 -0.1771
 5070TIP3   OH215173   6.215   0.967   0.151 -0.3233  0.2418 -0.3756
 5070TIP3    H115174   6.140   0.928   0.195 -0.8437  1.3764 -0.2073
 5070TIP3    H215175   6.281   0.898   0.150 -1.2251 -0.6453 -0.1718
 5071TIP3   OH215176   5.629   6.639   0.396  0.2110  0.3928  0.4587
 5071TIP3    H115177   5.697   6.652   0.330  0.3739  1.0892  0.7616
 5071TIP3    H215178   5.662   6.567   0.450 -0.0139 -0.3135 -0.3277
 5072TIP3   OH215179   5.700   1.258   1.334 -0.0156  0.1220  0.2060
 5072TIP3    H115180   5.620   1.207   1.347  0.4653 -0.1305  2.5187
 5072TIP3    H215181   5.771   1.195   1.344  0.5236  0.3670 -1.7290
 5073TIP3   OH215182   6.732   6.078   4.870  0.2929  0.1259 -0.7221
 5073TIP3    H115183   6.802   6.039   4.923  0.6810  0.1754 -1.1977
 5073TIP3    H215184   6.697   6.148   4.925 -1.3707 -1.7587  0.7661
 5074TIP3   OH215185   1.255   6.400   3.381 -0.0645  1.1463  0.8451
 5074TIP3    H115186   1.305   6.334   3.335 -2.5915  0.5169 -1.2274
 5074TIP3    H215187   1.314   6.475   3.388  0.6548  1.1599 -3.1930
 5075TIP3   OH215188   2.565   0.833   5.428 -0.2527  0.1792 -0.0041
 5075TIP3    H115189   2.644   0.887   5.426 -0.5669  0.6403 -0.8077
 5075TIP3    H215190   2.553   0.811   5.520  0.5095  0.5582  0.1943
 5076TIP3   OH215191   3.123   2.706   1.887  0.4395 -0.5356  0.1287
 5076TIP3    H115192   3.050   2.647   1.869 -1.0745  1.5001 -0.7128
 5076TIP3    H215193   3.195   2.672   1.832 -0.8947 -0.6546 -1.6225
 5077TIP3   OH215194   4.053   0.892   4.064  0.5844  0.5689 -0.4730
 5077TIP3    H115195   4.008   0.892   3.980 -0.5326  0.4655  0.1042
 5077TIP3    H215196   4.067   0.799   4.083  0.6407  0.5818 -0.4537
 5078TIP3   OH215197   0.352   3.817   0.803  0.4578  0.4744  0.6554
 5078TIP3    H115198   0.283   3.879   0.827  0.8331  0.6631  1.2860
 5078TIP3    H215199   0.309   3.754   0.744 -0.0811  0.9662  0.5114
 5079TIP3   OH215200   5.265   2.952   0.746 -0.6343  0.2076  0.0176
 5079TIP3    H115201   5.211   2.884   0.705 -1.1483  0.3084  0.5015
 5079TIP3    H215202   5.238   3.033   0.703 -1.6522  0.4078  0.9726
 5080TIP3   OH215203   1.435   0.736   4.059  0.0982 -0.0938 -0.4177
 5080TIP3    H115204   1.408   0.649   4.029  0.0986 -0.9431  1.8187
 5080TIP3    H215205   1.376   0.796   4.013 -1.5205 -1.4701 -0.2657
 5081TIP3   OH215206   1.684   0.840   2.816  0.3359  0.4572 -0.5792
 5081TIP3    H115207   1.766   0.862   2.860  2.3983 -0.1385 -3.7553
 5081TIP3    H215208   1.692   0.880   2.729 -2.9885  0.7514 -0.8673
 5082TIP3   OH215209   5.904   1.545   2.708  0.3316 -0.4560  0.6648
 5082TIP3    H115210   5.845   1.579   2.776  0.1568 -2.4207  1.5671
 5082TIP3    H215211   5.852   1.477   2.665  0.6181  0.4336 -1.1629
 5083TIP3   OH215212   1.191   1.536   2.532 -0.3807  0.4719 -0.4092
 5083TIP3    H115213   1.203   1.615   2.584 -2.2883  0.2869  0.4004
 5083TIP3    H215214   1.150   1.566   2.451 -0.2317  0.4060 -0.5107
 5084TIP3   OH215215   6.677   4.666   4.922 -0.5458  0.0288 -0.0355
 5084TIP3    H115216   6.691   4.577   4.890  0.6302 -0.2211  1.0656
 5084TIP3    H215217   6.764   4.706   4.921 -0.3986 -0.0009  2.6745
 5085TIP3   OH215218   2.931   2.371   3.829  0.2089  0.2245 -0.5828
 5085TIP3    H115219   2.968   2.439   3.772 -0.0838 -0.1735 -1.2708
 5085TIP3    H215220   3.006   2.326   3.866  0.4101  1.0519  0.0499
 5086TIP3   OH215221   6.053   1.185   0.051  0.0863 -0.2609 -0.4535
 5086TIP3    H115222   6.083   1.248   0.116  0.7109  0.1893 -1.1572
 5086TIP3    H215223   6.073   1.099   0.089  1.0278  0.0122 -0.3133
 5087TIP3   OH215224   4.765   4.976   2.321 -0.1087 -0.3209 -0.5080
 5087TIP3    H115225   4.682   5.020   2.340 -0.7494 -0.4086 -2.7966
 5087TIP3    H215226   4.815   5.040   2.271  0.2390 -1.0954 -1.1705
 5088TIP3   OH215227   0.415   5.947   1.322 -0.7775  0.3121 -0.0714
 5088TIP3    H115228   0.504   5.920   1.344 -0.5612  0.5217 -0.6733
 5088TIP3    H215229   0.420   6.042   1.312 -0.7269  0.1733 -1.6017
 5089TIP3   OH215230   5.035   3.967   4.493  0.4127  0.1099 -0.0446
 5089TIP3    H115231   4.991   4.031   4.436 -0.4591  0.6943  1.2231
 5089TIP3    H215232   5.124   4.002   4.503 -0.0121  1.0705  0.5178
 5090TIP3   OH215233   1.717   4.773   2.493 -0.0589 -0.4876  0.3028
 5090TIP3    H115234   1.648   4.827   2.453  1.5811  2.7412  1.4389
 5090TIP3    H215235   1.696   4.772   2.586  0.0580 -1.6746  0.3241
 5091TIP3   OH215236   2.781   2.310   4.366 -0.4730 -0.2902  0.6477
 5091TIP3    H115237   2.754   2.301   4.274  0.6120  0.2677  0.2606
 5091TIP3    H215238   2.751   2.398   4.390  0.5917  0.1791  0.3340
 5092TIP3   OH215239   0.232   0.280   3.710  0.3792  0.6822  0.3963
 5092TIP3    H115240   0.193   0.352   3.659 -1.1485 -1.0461 -1.0196
 5092TIP3    H215241   0.311   0.257   3.660  0.0149  0.3490 -0.0276
 5093TIP3   OH215242   0.589   6.355   4.997  0.1307 -0.2692 -0.6880
 5093TIP3    H115243   0.593   6.314   4.911  2.3662 -0.9955 -0.2989
 5093TIP3    H215244   0.593   6.449   4.979  4.1520 -0.3974 -1.4104
 5094TIP3   OH215245   5.567   3.349   0.982  0.1187  0.1647  0.1960
 5094TIP3    H115246   5.655   3.312   0.975  0.5927  1.3474 -0.3762
 5094TIP3    H215247   5.509   3.273   0.980  0.8990 -0.5482 -3.4789
 5095TIP3   OH215248   5.333   5.687   3.415 -0.6028  0.0644  0.5486
 5095TIP3    H115249   5.406   5.706   3.474 -2.3271  2.8369  1.9954
 5095TIP3    H215250   5.284   5.618   3.459  0.4284 -0.9643  0.1478
 5096TIP3   OH215251   2.959   0.272   3.355  0.2571  0.6631  0.5272
 5096TIP3    H115252   2.872   0.277   3.316  0.4849 -3.2978 -0.9823
 5096TIP3    H215253   3.019   0.265   3.281  1.3987 -0.6531  1.5136
 5097TIP3   OH215254   7.029   1.523   2.961 -0.5943  0.3850  0.1434
 5097TIP3    H115255   6.958   1.514   2.898  1.0359 -2.4472 -1.4747
 5097TIP3    H215256   7.095   1.574   2.915  0.6317 -1.7559 -0.6145
 5098TIP3   OH215257   3.577   4.910   0.747  0.1207  0.3461 -0.4765
 5098TIP3    H115258   3.636   4.945   0.813 -0.2534 -0.5497  0.3674
 5098TIP3    H215259   3.490   4.918   0.786 -0.0223 -0.9977 -0.4702
 5099TIP3   OH215260   2.098   6.080   2.390  0.3317 -0.1284 -0.5009
 5099TIP3    H115261   2.172   6.140   2.387  0.1097  0.3823  1.8332
 5099TIP3    H215262   2.055   6.089   2.305  2.4412  0.1914 -1.5818
 5100TIP3   OH215263   7.072   4.704   2.607 -0.1619 -0.4050 -0.4760
 5100TIP3    H115264   7.156   4.709   2.560 -0.3223  0.4748 -0.6880
 5100TIP3    H215265   7.024   4.781   2.578 -0.7809 -0.5434  0.1578
 5101TIP3   OH215266   0.440   5.912   4.240 -0.0638 -0.3947  0.0722
 5101TIP3    H115267   0.476   5.971   4.174  0.2289 -1.7388 -1.0141
 5101TIP3    H215268   0.396   5.970   4.302  0.6009  0.9897 -0.7008
 5102TIP3   OH215269   6.049   5.221   0.759 -0.1234 -0.9489  0.3366
 5102TIP3    H115270   5.996   5.215   0.680  0.4325  0.2563 -0.1461
 5102TIP3    H215271   6.041   5.135   0.800 -0.0858 -1.7377 -1.2423
 5103TIP3   OH215272   1.641   3.816   1.590 -0.0119 -0.6157 -0.0534
 5103TIP3    H115273   1.584   3.888   1.563 -1.7933 -2.6486 -2.0761
 5103TIP3    H215274   1.708   3.811   1.521  1.1848  0.1385  0.9971
 5104TIP3   OH215275   5.444   3.598   4.649  0.5728 -0.2032 -0.5074
 5104TIP3    H115276   5.458   3.550   4.568 -1.8954  1.2859 -1.9734
 5104TIP3    H215277   5.348   3.606   4.656  0.7132  0.1763  2.2958
 5105TIP3   OH215278   5.802   2.814   5.029  0.1616  0.2225  0.0204
 5105TIP3    H115279   5.720   2.858   5.053  0.6424  1.5389 -0.6409
 5105TIP3    H215280   5.842   2.872   4.964  0.5557 -1.5120 -1.3670
 5106TIP3   OH215281   4.805   0.670   5.594  0.3136 -0.1572 -0.5089
 5106TIP3    H115282   4.726   0.712   5.561  0.8231  1.9844  0.7866
 5106TIP3    H215283   4.870   0.684   5.525 -0.2023 -1.1764 -1.2134
 5107TIP3   OH215284   4.543   5.982   1.387 -0.0518 -0.1935  0.7871
 5107TIP3    H115285   4.506   6.044   1.450  0.1451  0.4475  0.2834
 5107TIP3    H215286   4.628   5.958   1.423 -0.0058  0.0518  0.8422
 5108TIP3   OH215287   3.994   1.568   0.153  0.4880  0.2967 -0.1543
 5108TIP3    H115288   3.912   1.608   0.185  0.2600  0.0974 -0.4844
 5108TIP3    H215289   3.982   1.562   0.058  1.2265  1.0303 -0.3017
 5109TIP3   OH215290   2.774   4.832   5.623 -0.2422  0.1227 -0.3573
 5109TIP3    H115291   2.836   4.886   5.573  0.2841 -1.9881 -2.1812
 5109TIP3    H215292   2.813   4.744   5.622 -1.7507 -0.6186  1.2071
 5110TIP3   OH215293   4.534   1.411   5.868  0.6634 -0.2748 -0.2649
 5110TIP3    H115294   4.625   1.439   5.862  0.6977 -0.1049  0.7490
 5110TIP3    H215295   4.508   1.391   5.778  1.0518  1.7240 -0.8727
 5111TIP3   OH215296   0.035   5.597   2.934  0.4144 -0.0486  0.0752
 5111TIP3    H115297  -0.041   5.613   2.990  0.5283  0.1115  0.1833
 5111TIP3    H215298   0.089   5.674   2.945 -0.0862  0.4880 -1.1127
 5112TIP3   OH215299   1.666   0.616   5.319  0.1512 -0.5641 -0.0370
 5112TIP3    H115300   1.581   0.638   5.359  0.3429  0.3178 -0.0981
 5112TIP3    H215301   1.689   0.693   5.268  0.3021 -1.3626 -1.2056
 5113TIP3   OH215302   3.483   5.227   2.759 -0.4146 -0.0625 -0.0697
 5113TIP3    H115303   3.501   5.180   2.840  1.6465 -1.2968 -1.1592
 5113TIP3    H215304   3.534   5.308   2.766 -1.6872  0.7178  0.5870
 5114TIP3   OH215305   2.404   5.859   2.027  0.5253 -0.0167 -0.2968
 5114TIP3    H115306   2.317   5.828   2.003  1.6741 -2.2120 -1.9649
 5114TIP3    H215307   2.407   5.849   2.123 -0.5015 -1.5145 -0.3854
 5115TIP3   OH215308   6.763   5.343   2.571 -0.3665  0.3234  0.4666
 5115TIP3    H115309   6.853   5.316   2.552 -0.7387 -0.0837 -0.8064
 5115TIP3    H215310   6.760   5.436   2.545 -0.3338  0.3084  0.4082
 5116TIP3   OH215311   5.538   4.996   0.443  0.2124 -0.0219 -0.9173
 5116TIP3    H115312   5.595   5.045   0.383 -0.7014  0.7175 -1.2186
 5116TIP3    H215313   5.450   5.008   0.406 -0.4046  0.6355  0.6894
 5117TIP3   OH215314   5.343   4.096   0.306 -0.3542  0.1473 -0.2257
 5117TIP3    H115315   5.417   4.076   0.362 -0.4135  0.0611 -0.1771
 5117TIP3    H215316   5.368   4.176   0.259 -1.7442  2.4977  2.6676
 5118TIP3   OH215317   5.093   4.497   5.439 -0.1891 -0.2725 -0.1924
 5118TIP3    H115318   5.148   4.443   5.383 -1.3677  0.8885 -2.6062
 5118TIP3    H215319   5.139   4.580   5.446 -0.4481 -0.1322 -0.1199
 5119TIP3   OH215320   2.410   6.679   4.442 -0.2687  0.3280  0.4539
 5119TIP3    H115321   2.500   6.657   4.421 -0.5289  0.5813 -1.0519
 5119TIP3    H215322   2.391   6.630   4.521  0.7350 -0.8965 -0.0296
 5120TIP3   OH215323   1.437   0.560   2.409 -0.1618 -0.3486  0.0979
 5120TIP3    H115324   1.347   0.568   2.438  0.0032  2.1600  0.1171
 5120TIP3    H215325   1.489   0.593   2.482  0.5981  0.5547 -0.8221
 5121TIP3   OH215326   4.876   0.002   5.657  0.0784 -0.6385 -0.0069
 5121TIP3    H115327   4.849  -0.022   5.568 -0.9924 -1.2354  0.4707
 5121TIP3    H215328   4.951   0.061   5.644  0.3710 -1.2607 -1.2854
 5122TIP3   OH215329   4.635   6.062   5.144 -0.3095 -0.2203 -0.1079
 5122TIP3    H115330   4.542   6.068   5.166  0.2297 -0.6856  2.5766
 5122TIP3    H215331   4.670   6.149   5.162  0.4750 -1.0553  2.8740
 5123TIP3   OH215332   0.655   4.657   5.307 -0.2764 -0.1825 -0.8983
 5123TIP3    H115333   0.693   4.694   5.387  0.2493  0.9342 -1.6324
 5123TIP3    H215334   0.724   4.599   5.273  0.1555  0.5886 -1.3722
 5124TIP3   OH215335   5.670   1.329   0.583 -0.1186  0.2694 -0.5669
 5124TIP3    H115336   5.606   1.345   0.513  0.5498 -1.7216 -1.7236
 5124TIP3    H215337   5.679   1.234   0.586  2.7344  0.4512 -0.4473
 5125TIP3   OH215338   7.178   3.143   4.948  0.6059 -0.7312  0.1230
 5125TIP3    H115339   7.229   3.146   4.867  0.2120 -0.3380 -0.1155
 5125TIP3    H215340   7.162   3.234   4.970  2.6925 -0.7249  1.9416
 5126TIP3   OH215341   6.438   5.604   2.355  0.1045 -0.7796 -0.0653
 5126TIP3    H115342   6.468   5.529   2.304  1.6729  0.0884 -0.4973
 5126TIP3    H215343   6.421   5.568   2.442 -0.1147 -1.8062 -0.5180
 5127TIP3   OH215344   5.110   1.456   1.096  0.3004 -0.4437  0.2774
 5127TIP3    H115345   5.204   1.453   1.078  0.3448 -1.6619  0.6246
 5127TIP3    H215346   5.071   1.398   1.031 -0.3024  0.5443 -0.2743
 5128TIP3   OH215347   4.288   6.418   0.071  0.0895  0.3742 -0.5723
 5128TIP3    H115348   4.246   6.406  -0.014  1.1975 -2.2829 -0.8423
 5128TIP3    H215349   4.380   6.432   0.051  1.0702 -3.7491  0.0609
 5129TIP3   OH215350   3.405   4.772   2.668 -0.1060  0.1658 -0.4193
 5129TIP3    H115351   3.458   4.777   2.588 -0.4496  0.5282 -0.6217
 5129TIP3    H215352   3.451   4.827   2.731 -0.8099  1.3441 -0.9173
 5130TIP3   OH215353   1.585   0.739   2.248 -0.1724  0.1277 -0.6017
 5130TIP3    H115354   1.666   0.725   2.296 -0.9563  0.2060  0.7986
 5130TIP3    H215355   1.525   0.673   2.283 -1.7296  2.2045  0.9041
 5131TIP3   OH215356   0.908   4.217   4.330 -0.2059  0.0005  0.2070
 5131TIP3    H115357   0.987   4.174   4.363 -0.3626 -0.2695  0.2265
 5131TIP3    H215358   0.865   4.250   4.408  0.1622  0.6232  0.1563
 5132TIP3   OH215359   6.006   5.944   1.746 -0.1602 -0.3396 -0.1541
 5132TIP3    H115360   6.097   5.926   1.719 -0.1150 -0.4577  0.0713
 5132TIP3    H215361   5.977   6.014   1.687  0.1503 -0.1497 -0.0859
 5133TIP3   OH215362   1.745   2.545   0.391 -0.8098  0.0108 -0.4808
 5133TIP3    H115363   1.828   2.537   0.344  0.4331 -0.4564  1.6679
 5133TIP3    H215364   1.710   2.630   0.363  1.1580  0.9372 -0.2767
 5134TIP3   OH215365   4.976   4.460   0.088  0.1503  0.2245  0.0748
 5134TIP3    H115366   4.997   4.496   0.002 -0.8039  0.6386 -0.0085
 5134TIP3    H215367   4.893   4.503   0.111 -0.8033 -1.5626  0.1829
 5135TIP3   OH215368   3.187   2.153   5.491  0.8368  0.3714 -0.2261
 5135TIP3    H115369   3.105   2.168   5.444  0.9915  0.1074 -0.5894
 5135TIP3    H215370   3.236   2.092   5.435  1.0080  0.0198  0.2940
 5136TIP3   OH215371   6.095   0.173   0.134  0.2985 -0.1228 -0.1689
 5136TIP3    H115372   6.116   0.209   0.220 -0.1827 -0.1591 -0.0380
 5136TIP3    H215373   6.016   0.122   0.147  1.2045 -1.6055 -0.2580
 5137TIP3   OH215374   6.432   0.428   3.452 -0.5105  0.0474  0.0143
 5137TIP3    H115375   6.394   0.383   3.527 -1.9965 -0.4109 -0.9790
 5137TIP3    H215376   6.390   0.388   3.376  0.6641  0.7784 -1.0536
 5138TIP3   OH215377   6.727   2.357   3.153  0.3365 -0.3289  0.4102
 5138TIP3    H115378   6.797   2.365   3.087 -0.2646  1.2095 -0.0711
 5138TIP3    H215379   6.710   2.447   3.181 -2.4551 -0.4555 -0.5681
 5139TIP3   OH215380   2.164   2.637   1.420  1.0336 -0.2583  0.3060
 5139TIP3    H115381   2.142   2.725   1.449  1.2808 -0.4514  1.1113
 5139TIP3    H215382   2.121   2.579   1.483 -3.2272 -0.9557 -2.8646
 5140TIP3   OH215383   3.286   1.938   0.864 -0.1207  0.8506  0.3494
 5140TIP3    H115384   3.326   2.025   0.876 -1.6825  1.6708 -0.1199
 5140TIP3    H215385   3.199   1.947   0.902 -0.0978 -0.7202  0.8248
 5141TIP3   OH215386   2.645   2.144   2.380 -0.0279 -0.1163  0.0602
 5141TIP3    H115387   2.729   2.185   2.360  0.2058 -0.2068  0.8165
 5141TIP3    H215388   2.657   2.106   2.467 -0.2436 -1.7284 -0.5629
 5142TIP3   OH215389   2.750   2.126   2.815  0.0943 -0.0553  0.4390
 5142TIP3    H115390   2.793   2.178   2.747 -0.4478 -0.6960 -0.4280
 5142TIP3    H215391   2.722   2.189   2.880  1.1093  0.5224  0.3413
 5143TIP3   OH215392   6.006   4.750   1.064  0.2496 -0.1745  0.2204
 5143TIP3    H115393   6.070   4.717   1.127  0.3752 -2.1492 -0.8557
 5143TIP3    H215394   5.941   4.796   1.118  1.4279 -0.0081  1.5472
 5144TIP3   OH215395   2.310   5.483   1.694 -0.1440 -0.4390  0.3722
 5144TIP3    H115396   2.356   5.563   1.666 -1.2199 -0.5582 -1.9899
 5144TIP3    H215397   2.352   5.413   1.645 -0.4529 -1.0619  0.9859
 5145TIP3   OH215398   0.444   2.970   4.439  0.0910 -0.3123 -0.1228
 5145TIP3    H115399   0.492   2.964   4.521 -0.1844  0.3599  0.0858
 5145TIP3    H215400   0.392   2.889   4.436  1.5283 -1.2646 -0.5524
 5146TIP3   OH215401   2.891   6.494   3.637  0.4685  0.0435  0.0231
 5146TIP3    H115402   2.861   6.437   3.707  1.2558 -1.2317 -0.6350
 5146TIP3    H215403   2.983   6.513   3.658  1.0066 -1.1271 -1.0941
 5147TIP3   OH215404   5.721   4.133   0.098 -0.8500 -0.1140  0.3355
 5147TIP3    H115405   5.675   4.062   0.052 -1.6861  0.9360 -0.4958
 5147TIP3    H215406   5.713   4.109   0.191 -0.9495 -1.2039  0.0661
 5148TIP3   OH215407   6.882   6.470   5.580 -0.1785  0.4649  0.2714
 5148TIP3    H115408   6.976   6.474   5.597 -0.1765  0.9780  0.1627
 5148TIP3    H215409   6.842   6.509   5.658 -0.3047  0.2076  0.3371
 5149TIP3   OH215410   1.989   2.123   5.553  0.2806  0.0176 -0.4663
 5149TIP3    H115411   2.050   2.050   5.549 -0.0163 -0.1645 -1.9374
 5149TIP3    H215412   1.902   2.083   5.554  0.1391  0.2927  1.1286
 5150TIP3   OH215413   2.373   1.273   2.564 -0.1680  0.3768 -0.1354
 5150TIP3    H115414   2.467   1.279   2.582 -0.4062  3.4832  0.5731
 5150TIP3    H215415   2.369   1.248   2.471  1.2867 -0.9174  0.0930
 5151TIP3   OH215416   4.388   1.961   3.506 -0.8207  0.6330  0.4905
 5151TIP3    H115417   4.389   1.877   3.460 -0.0602  1.1482 -0.4657
 5151TIP3    H215418   4.403   1.938   3.598  0.9490 -0.1671  0.0361
 5152TIP3   OH215419   6.704   3.193   1.499  0.3637  0.0392  0.0057
 5152TIP3    H115420   6.794   3.209   1.528 -0.0702 -0.0934  1.5039
 5152TIP3    H215421   6.685   3.266   1.439  1.3835  0.1993 -0.1372
 5153TIP3   OH215422   4.570   3.405   0.775 -0.6216  0.6006 -0.2239
 5153TIP3    H115423   4.557   3.381   0.867 -0.6685  1.2502 -0.0538
 5153TIP3    H215424   4.650   3.458   0.776  1.3420 -2.1450 -1.0369
 5154TIP3   OH215425   4.533   5.474   2.662 -0.4002  0.5557  0.4858
 5154TIP3    H115426   4.534   5.511   2.574  0.8185 -0.5531 -0.0101
 5154TIP3    H215427   4.456   5.418   2.663 -0.1871  0.2389 -0.0442
 5155TIP3   OH215428   0.512   0.724   5.165 -0.3220  0.1003  0.1500
 5155TIP3    H115429   0.507   0.807   5.118 -0.3881 -0.9991 -1.8691
 5155TIP3    H215430   0.603   0.718   5.193 -0.4354  1.0781  0.7868
 5156TIP3   OH215431   2.196   4.216   5.824 -0.0212 -0.3572  0.4973
 5156TIP3    H115432   2.169   4.189   5.912 -0.4609  1.4103  0.9409
 5156TIP3    H215433   2.291   4.209   5.825  0.2932  2.6119  2.2373
 5157TIP3   OH215434   0.870   2.354   2.564 -0.3940 -0.3868 -0.0958
 5157TIP3    H115435   0.823   2.353   2.647  0.4660 -2.0406  0.3952
 5157TIP3    H215436   0.905   2.266   2.554 -1.0461 -0.4527 -2.5585
 5158TIP3   OH215437   6.808   1.665   3.858  0.0496  0.2016  0.2751
 5158TIP3    H115438   6.762   1.698   3.935 -0.0420  0.5696  0.0657
 5158TIP3    H215439   6.836   1.744   3.811  1.2017  0.0004  0.5797
 5159TIP3   OH215440   3.080   3.776   1.862 -0.3793 -0.1427 -0.0469
 5159TIP3    H115441   3.018   3.730   1.918  1.3358 -0.1284  2.0283
 5159TIP3    H215442   3.162   3.728   1.874  0.0458 -0.2028 -2.7270
 5160TIP3   OH215443   3.676   6.458   1.307  0.0295 -0.4819  0.1041
 5160TIP3    H115444   3.727   6.383   1.277 -1.4544 -0.7656 -1.9035
 5160TIP3    H215445   3.585   6.430   1.300 -0.4966  0.5444  2.0927
 5161TIP3   OH215446   4.428   4.874   4.184 -0.0824 -0.0910  0.0078
 5161TIP3    H115447   4.388   4.906   4.103 -0.4468  0.7778  0.5026
 5161TIP3    H215448   4.439   4.780   4.171  0.6078  0.1601 -1.3480
 5162TIP3   OH215449   1.562   2.287   2.410 -0.3238  0.3480 -0.0622
 5162TIP3    H115450   1.640   2.330   2.373  0.0315  1.0584  1.4141
 5162TIP3    H215451   1.508   2.360   2.442 -1.0917 -0.1947 -0.0970
 5163TIP3   OH215452   5.871   1.172   0.881  0.5656 -0.3713  0.2178
 5163TIP3    H115453   5.963   1.161   0.905  0.4901  0.9046  1.1830
 5163TIP3    H215454   5.861   1.266   0.865 -0.6766 -0.4036  0.6710
 5164TIP3   OH215455   1.313   2.010   1.660  0.2118 -0.3528  0.6719
 5164TIP3    H115456   1.408   2.001   1.660  0.4092  1.3250  1.5610
 5164TIP3    H215457   1.286   1.971   1.743  0.3296  0.7280  1.2348
 5165TIP3   OH215458   0.336   1.141   3.379  0.2635 -0.1458  0.0341
 5165TIP3    H115459   0.280   1.201   3.330 -0.9689 -1.4284 -0.1755
 5165TIP3    H215460   0.407   1.120   3.318  0.0718  0.1892 -0.3119
 5166TIP3   OH215461   6.059   5.556   4.565 -0.3209 -0.2408  0.1539
 5166TIP3    H115462   6.022   5.645   4.564 -0.7296 -0.4163 -0.8356
 5166TIP3    H215463   6.115   5.552   4.488 -2.0198 -1.5378 -1.0888
 5167TIP3   OH215464   2.021   4.227   2.555  0.3858  0.3267  0.3999
 5167TIP3    H115465   2.116   4.236   2.544  0.4071 -0.9695 -0.7542
 5167TIP3    H215466   2.011   4.154   2.616  0.1746 -1.4441 -1.6141
 5168TIP3   OH215467   5.786   0.925   4.869  0.4187 -0.0531  0.5723
 5168TIP3    H115468   5.699   0.885   4.867  0.5501 -0.3152  0.0281
 5168TIP3    H215469   5.770   1.019   4.864  0.1137 -0.0211  1.7019
 5169TIP3   OH215470   0.665   1.805   5.068 -0.1083 -0.3834  1.2238
 5169TIP3    H115471   0.740   1.778   5.120 -0.3766 -0.2772  1.6706
 5169TIP3    H215472   0.701   1.869   5.006  0.2135 -0.5236  1.2631
 5170TIP3   OH215473   4.977   5.903   3.976  0.6633 -0.5870  0.4384
 5170TIP3    H115474   4.961   5.994   4.001  1.0981  0.1279 -1.6362
 5170TIP3    H215475   5.032   5.868   4.046  1.0117  0.9403  0.9714
 5171TIP3   OH215476   6.609   5.660   4.058  0.0448  0.6191  0.3110
 5171TIP3    H115477   6.627   5.692   3.970 -0.4672 -0.7350 -0.3106
 5171TIP3    H215478   6.664   5.714   4.115  1.6225  0.4370 -0.9801
 5172TIP3   OH215479   1.207   3.264   2.416  0.4709  0.6311  0.2637
 5172TIP3    H115480   1.147   3.207   2.464 -1.2507  2.4673  0.4245
 5172TIP3    H215481   1.293   3.225   2.430 -0.5897 -1.8959  0.3396
 5173TIP3   OH215482   3.543   3.523   0.956  0.1314 -0.5122  0.3970
 5173TIP3    H115483   3.473   3.458   0.952  0.0098 -0.3863  0.4723
 5173TIP3    H215484   3.623   3.473   0.943  0.0907 -0.7687  1.0910
 5174TIP3   OH215485   0.456   4.851   0.558  0.4584 -0.1832  0.4645
 5174TIP3    H115486   0.374   4.858   0.510  1.3365  0.9105 -0.9514
 5174TIP3    H215487   0.454   4.924   0.620  0.7185  0.3505 -0.1502
 5175TIP3   OH215488   0.060   0.580   2.754  0.0364  0.6446 -0.1497
 5175TIP3    H115489   0.143   0.596   2.799  1.1709  0.2020 -1.9365
 5175TIP3    H215490   0.020   0.666   2.744  0.7804  0.9938 -0.1389
 5176TIP3   OH215491   3.437   2.695   5.174  0.5415 -0.4293  0.4882
 5176TIP3    H115492   3.398   2.782   5.180  0.3994 -0.4439 -0.1944
 5176TIP3    H215493   3.371   2.636   5.210  0.6442 -0.2623  0.9677
 5177TIP3   OH215494   6.507   5.766   5.303  0.0780  0.5502 -0.1471
 5177TIP3    H115495   6.494   5.750   5.396 -0.2097 -0.9627 -0.4283
 5177TIP3    H215496   6.453   5.843   5.284 -1.3492 -0.2349  0.5640
 5178TIP3   OH215497   1.815   3.128   4.209 -0.0305  0.1198 -0.1081
 5178TIP3    H115498   1.774   3.211   4.231  0.6721  0.4390  0.0314
 5178TIP3    H215499   1.742   3.066   4.204 -0.5712  0.7567 -0.3107
 5179TIP3   OH215500   6.821   2.562   4.666  0.5078 -0.1925 -0.1902
 5179TIP3    H115501   6.860   2.541   4.751 -0.3798  2.8345  1.1151
 5179TIP3    H215502   6.888   2.614   4.621 -0.4289  1.6544  0.4286
 5180TIP3   OH215503   0.697   0.742   5.504 -0.2516 -0.4060  0.4217
 5180TIP3    H115504   0.612   0.762   5.467 -0.5466 -0.0801  1.2534
 5180TIP3    H215505   0.687   0.756   5.598  0.3252 -1.7253  0.7064
 5181TIP3   OH215506   2.678   3.838   2.610 -0.2428  0.0899  0.0344
 5181TIP3    H115507   2.625   3.915   2.590  0.2816  0.3056 -0.5358
 5181TIP3    H215508   2.614   3.767   2.620 -0.7439  0.6501  0.8413
 5182TIP3   OH215509   5.727   6.422   0.535 -0.5936 -0.2985  0.4322
 5182TIP3    H115510   5.764   6.387   0.616 -1.4369 -2.4828 -0.0457
 5182TIP3    H215511   5.780   6.383   0.465 -1.5300 -0.6046 -0.1321
 5183TIP3   OH215512   7.011   4.433   0.542 -0.1677  0.1194  0.4611
 5183TIP3    H115513   6.940   4.457   0.602 -0.3083  0.3376  0.2127
 5183TIP3    H215514   7.021   4.510   0.485 -1.5185 -0.8573 -1.2181
 5184TIP3   OH215515   6.824   6.380   4.787  0.5758 -0.2248 -0.5377
 5184TIP3    H115516   6.766   6.363   4.861  0.7672  1.4905  0.0733
 5184TIP3    H215517   6.768   6.417   4.720  0.7191  0.0729 -0.4957
 5185TIP3   OH215518   1.406   1.103   4.579  0.6838  0.4253  0.6550
 5185TIP3    H115519   1.369   1.030   4.629  0.2723 -0.1593 -0.4671
 5185TIP3    H215520   1.426   1.170   4.645  1.7921 -0.9738  1.7997
 5186TIP3   OH215521   5.318   2.391   2.381 -0.1487  0.2899  0.2300
 5186TIP3    H115522   5.405   2.394   2.341 -0.3911  0.7474 -0.2601
 5186TIP3    H215523   5.258   2.377   2.309 -0.5441  0.6542  0.4801
 5187TIP3   OH215524   1.101   0.516   1.254  0.4806 -0.3459 -0.4197
 5187TIP3    H115525   1.108   0.607   1.280  0.0104 -0.8372  1.6157
 5187TIP3    H215526   1.007   0.501   1.241  0.3333 -0.9392  1.0574
 5188TIP3   OH215527   3.267   1.051   1.327  0.6727 -0.0733  0.1407
 5188TIP3    H115528   3.207   0.980   1.305  1.6376 -0.5902 -0.8987
 5188TIP3    H215529   3.211   1.118   1.366 -0.9079  0.2483 -2.4572
 5189TIP3   OH215530   5.443   5.383   1.288  0.3412 -0.0587 -0.3967
 5189TIP3    H115531   5.426   5.328   1.364 -1.3925  0.3558 -0.4394
 5189TIP3    H215532   5.524   5.429   1.309  1.3964 -1.9769 -0.0148
 5190TIP3   OH215533   2.572   0.531   3.483  0.6714  0.2494 -0.2901
 5190TIP3    H115534   2.594   0.520   3.576  0.7234  0.1758 -0.3114
 5190TIP3    H215535   2.633   0.474   3.437 -0.3435 -0.8765 -0.2786
 5191TIP3   OH215536   4.411   2.489   5.764  0.8994 -0.3648 -0.4122
 5191TIP3    H115537   4.424   2.408   5.715  0.1371  0.4185 -2.0095
 5191TIP3    H215538   4.316   2.501   5.767  0.8912 -0.6289  1.7534
 5192TIP3   OH215539   2.491   2.635   4.960  0.1780  0.0991 -0.0903
 5192TIP3    H115540   2.443   2.569   4.911  0.8222 -1.4527  1.2715
 5192TIP3    H215541   2.506   2.595   5.046  2.8431  0.9564 -0.0653
 5193TIP3   OH215542   5.185   0.331   1.732 -0.0185  0.5765 -0.0716
 5193TIP3    H115543   5.116   0.378   1.686 -0.1584  0.0877 -0.3732
 5193TIP3    H215544   5.139   0.286   1.803 -0.0544  0.0582 -0.4170
 5194TIP3   OH215545   1.222   6.270   5.540  0.3357 -0.0314 -0.6644
 5194TIP3    H115546   1.283   6.274   5.614  0.2947  0.9705 -0.6717
 5194TIP3    H215547   1.250   6.342   5.483 -0.3339 -0.0981 -1.0807
 5195TIP3   OH215548   2.263   2.066   5.061 -0.2411  0.2631 -0.3953
 5195TIP3    H115549   2.181   2.019   5.071  0.3607 -1.0192 -1.3141
 5195TIP3    H215550   2.246   2.152   5.101 -1.0387 -1.0320  2.2696
 5196TIP3   OH215551   6.440   0.215   1.201  0.6759 -0.2086 -0.2868
 5196TIP3    H115552   6.436   0.259   1.286  2.0030 -3.5489  1.7051
 5196TIP3    H215553   6.352   0.223   1.165 -0.4620 -0.2815  2.3028
 5197TIP3   OH215554   1.003   4.857   4.131 -0.1831  0.2701  0.0619
 5197TIP3    H115555   1.050   4.906   4.198 -0.1830  2.8403 -1.6674
 5197TIP3    H215556   1.064   4.789   4.103  0.4419  0.2355  1.4363
 5198TIP3   OH215557   4.312   3.110   3.631 -0.2174  0.2790 -0.1779
 5198TIP3    H115558   4.352   3.038   3.681 -0.4825  0.0742 -0.2626
 5198TIP3    H215559   4.218   3.100   3.645 -0.2197  1.0860  0.4672
 5199TIP3   OH215560   3.064   5.435   1.820  0.2645 -0.3544 -0.5286
 5199TIP3    H115561   3.132   5.495   1.790  0.2596  0.6618  1.3870
 5199TIP3    H215562   2.982   5.479   1.795  0.2780 -0.1594 -0.2344
 5200TIP3   OH215563   5.238   0.770   4.177 -0.3360  0.0261 -0.1326
 5200TIP3    H115564   5.265   0.861   4.185  0.9743 -0.2084 -1.4444
 5200TIP3    H215565   5.314   0.726   4.140 -1.2773 -1.4255 -0.4115
 5201TIP3   OH215566   0.131   6.136   3.947  0.0539 -0.3835  0.2352
 5201TIP3    H115567   0.061   6.156   4.009 -0.4715 -0.3275 -0.3652
 5201TIP3    H215568   0.168   6.222   3.924 -0.0355 -0.3690  0.1449
 5202TIP3   OH215569   0.823   4.264   1.628  0.3250  0.0521  0.1793
 5202TIP3    H115570   0.824   4.298   1.717 -0.5273  1.4036 -0.2871
 5202TIP3    H215571   0.870   4.181   1.633  1.3809  0.6980  1.6351
 5203TIP3   OH215572   1.024   1.661   0.203  0.2509  0.5680  0.1239
 5203TIP3    H115573   0.950   1.601   0.213  0.7042  0.0116  0.2072
 5203TIP3    H215574   1.054   1.678   0.292  1.4607 -0.8025  0.0199
 5204TIP3   OH215575   6.238   6.735   1.816  0.6782 -0.1060 -0.1932
 5204TIP3    H115576   6.217   6.724   1.909  0.8181  1.9474  0.1220
 5204TIP3    H215577   6.259   6.828   1.806 -1.3070  0.2110 -2.6584
 5205TIP3   OH215578   4.846   0.967   3.214  0.1467  0.4005 -0.3254
 5205TIP3    H115579   4.909   0.922   3.158 -0.2908 -1.3353  0.5045
 5205TIP3    H215580   4.889   0.975   3.299 -0.4351 -0.0783  0.0262
 5206TIP3   OH215581   1.701   3.460   1.819  0.0284  0.0590  0.2834
 5206TIP3    H115582   1.681   3.517   1.894 -1.1578  1.0827 -0.7686
 5206TIP3    H215583   1.621   3.459   1.768  1.0466  0.0020 -1.3793
 5207TIP3   OH215584   1.946   0.974   3.084 -0.2481  0.2773  0.1100
 5207TIP3    H115585   1.875   1.038   3.085  0.3718  1.1075 -2.3719
 5207TIP3    H215586   2.014   1.015   3.032  0.7902 -1.8085 -0.2676
 5208TIP3   OH215587   3.567   1.429   3.291 -0.2417 -0.5857  0.0834
 5208TIP3    H115588   3.612   1.513   3.300 -2.2561  0.6207 -0.4987
 5208TIP3    H215589   3.543   1.424   3.199  1.8914 -2.9908 -0.4615
 5209TIP3   OH215590   3.483   5.462   5.502  0.0562  0.0437  0.1243
 5209TIP3    H115591   3.478   5.526   5.572 -1.9278 -0.5398  0.5919
 5209TIP3    H215592   3.398   5.467   5.458  0.5333 -0.9647 -1.0146
 5210TIP3   OH215593   5.896   2.795   4.280 -0.5341  0.2952  0.2084
 5210TIP3    H115594   5.851   2.713   4.300 -1.9514  0.4093 -2.1073
 5210TIP3    H215595   5.853   2.860   4.336  0.3266 -0.4404  1.7633
 5211TIP3   OH215596   1.628   1.271   0.880 -0.2266  0.3283  0.3860
 5211TIP3    H115597   1.597   1.232   0.798  0.9327 -1.8269  0.8759
 5211TIP3    H215598   1.550   1.312   0.918 -1.1120  0.1005 -1.1038
 5212TIP3   OH215599   2.852   2.512   4.732 -0.4145  0.7084 -0.2303
 5212TIP3    H115600   2.783   2.519   4.666 -1.7158 -0.1897  0.9727
 5212TIP3    H215601   2.836   2.586   4.791 -1.0301 -0.0716  0.6205
 5213TIP3   OH215602   1.763   1.150   2.863 -0.6571  0.1798 -0.3892
 5213TIP3    H115603   1.668   1.161   2.867 -0.6402  0.7797 -1.4221
 5213TIP3    H215604   1.788   1.184   2.777  0.6766  1.3379  0.4262
 5214TIP3   OH215605   1.816   2.192   3.856 -0.2954 -0.0738  0.0467
 5214TIP3    H115606   1.843   2.105   3.828  0.7060  0.5755 -1.0911
 5214TIP3    H215607   1.727   2.180   3.890  0.2653 -1.7280  1.0514
 5215TIP3   OH215608   5.792   0.528   0.659  0.1712  0.1073 -0.5179
 5215TIP3    H115609   5.853   0.520   0.732 -0.1539  0.2628 -0.2236
 5215TIP3    H215610   5.846   0.555   0.584  0.2776  1.5145  0.0406
 5216TIP3   OH215611   6.048   4.298   3.028  0.1026  0.3396  1.0389
 5216TIP3    H115612   6.131   4.253   3.042 -0.5948 -0.7515  1.8475
 5216TIP3    H215613   6.028   4.285   2.936 -0.2406 -1.3283  1.3178
 5217TIP3   OH215614   3.068   2.716   4.894 -0.7480  0.4093  0.0161
 5217TIP3    H115615   3.108   2.773   4.960  1.5057  0.8370 -1.6209
 5217TIP3    H215616   3.019   2.777   4.838  1.1664  0.7252 -1.3798
 5218TIP3   OH215617   5.165   2.291   2.133 -0.0462  0.1579  0.2976
 5218TIP3    H115618   5.193   2.229   2.199 -1.5774 -0.0074  0.8485
 5218TIP3    H215619   5.070   2.280   2.128 -0.0804  0.7964 -1.2952
 5219TIP3   OH215620   3.850   6.434   2.984 -0.4581 -0.0289  0.8027
 5219TIP3    H115621   3.875   6.436   3.076 -0.0180  0.3420  0.6815
 5219TIP3    H215622   3.776   6.495   2.978 -0.8874 -0.5251  1.0199
 5220TIP3   OH215623   1.616   5.480   3.996 -0.2690  0.4707  0.0560
 5220TIP3    H115624   1.620   5.538   4.072  1.5752  1.0970 -0.4499
 5220TIP3    H215625   1.679   5.518   3.935 -2.1046  0.3069 -2.0373
 5221TIP3   OH215626   3.132   1.220   3.518 -0.1180  0.0728  0.3736
 5221TIP3    H115627   3.067   1.257   3.459 -1.2615 -0.9399  0.9564
 5221TIP3    H215628   3.213   1.265   3.495 -1.1131  1.7448 -0.0132
 5222TIP3   OH215629   2.072   6.661   1.715  0.0350  0.5544 -0.4264
 5222TIP3    H115630   2.012   6.701   1.778 -0.6317 -0.4138 -0.4244
 5222TIP3    H215631   2.015   6.624   1.648  0.5900 -0.7154 -0.2363
 5223TIP3   OH215632   4.268   1.995   4.388 -0.3285  0.0848  0.2757
 5223TIP3    H115633   4.338   1.957   4.441 -0.1389  0.9205  0.6413
 5223TIP3    H215634   4.188   1.977   4.438 -0.3890 -0.8897 -0.1530
 5224TIP3   OH215635   4.012   2.278   2.598 -0.1855  0.1373 -0.2132
 5224TIP3    H115636   3.993   2.331   2.675  1.3024 -1.5853  1.4372
 5224TIP3    H215637   4.030   2.190   2.633 -0.9755 -1.1037 -2.6751
 5225TIP3   OH215638   0.620   3.915   2.434  0.0615 -0.7532 -0.0538
 5225TIP3    H115639   0.580   3.978   2.494  0.0038 -0.1566 -0.6962
 5225TIP3    H215640   0.579   3.934   2.349  0.5478 -1.2053 -0.3961
 5226TIP3   OH215641   2.736   3.305   1.764  0.5552  0.1326  0.2202
 5226TIP3    H115642   2.651   3.348   1.771 -0.3542 -1.5520  0.0156
 5226TIP3    H215643   2.722   3.233   1.702  2.4300  0.4891 -0.7011
 5227TIP3   OH215644   5.787   3.954   5.272 -0.6682  0.2439 -0.0615
 5227TIP3    H115645   5.723   3.883   5.283  0.8206 -1.2456 -0.5506
 5227TIP3    H215646   5.834   3.931   5.191  0.8788  0.9508  0.6014
 5228TIP3   OH215647   2.714   5.155   1.563  0.2303 -0.3451  0.0705
 5228TIP3    H115648   2.797   5.113   1.542  1.0726  1.5883 -0.6964
 5228TIP3    H215649   2.648   5.089   1.544  1.5274 -1.6848  0.0164
 5229TIP3   OH215650   6.168   0.368   1.131 -0.4781 -0.1661 -0.2033
 5229TIP3    H115651   6.156   0.299   1.066 -1.8148 -1.2477  1.1195
 5229TIP3    H215652   6.090   0.363   1.186 -0.0970  1.7048  0.5943
 5230TIP3   OH215653   0.297   4.744   2.984 -0.2047  0.3269  0.4122
 5230TIP3    H115654   0.342   4.741   3.068  2.1047  0.7846 -0.7136
 5230TIP3    H215655   0.238   4.819   2.991  1.3378  1.5427  1.0261
 5231TIP3   OH215656   5.520   2.190   1.968 -0.3032 -0.0440  0.5126
 5231TIP3    H115657   5.576   2.180   1.891 -1.7014  0.5925 -0.6238
 5231TIP3    H215658   5.431   2.184   1.934 -0.9721 -1.0242  2.2674
 5232TIP3   OH215659   2.061   3.353   0.853  0.0626  0.2612 -0.1010
 5232TIP3    H115660   2.022   3.265   0.861 -1.0801  0.6566 -0.9637
 5232TIP3    H215661   2.131   3.354   0.918 -0.6742 -0.8851  0.7659
 5233TIP3   OH215662   0.603   3.927   1.619  0.0282  0.3484  0.0275
 5233TIP3    H115663   0.605   3.986   1.543 -1.3309  0.6956  0.2322
 5233TIP3    H215664   0.666   3.859   1.598 -1.2367 -0.2809 -2.0277
 5234TIP3   OH215665   3.380   0.143   0.681 -0.0537 -0.5314  0.2550
 5234TIP3    H115666   3.396   0.215   0.742  1.1905  0.6462 -1.3878
 5234TIP3    H215667   3.303   0.171   0.631 -0.6007 -1.1337  0.7565
 5235TIP3   OH215668   5.837   5.722   1.325  0.2134  0.1089  0.2018
 5235TIP3    H115669   5.895   5.771   1.383  2.0833 -1.2242 -0.4504
 5235TIP3    H215670   5.891   5.697   1.251 -0.8230 -2.2520  0.1272
 5236TIP3   OH215671   6.207   6.518   1.159  0.4769  0.1072  0.1929
 5236TIP3    H115672   6.263   6.441   1.166 -2.0782 -1.9636 -0.1267
 5236TIP3    H215673   6.197   6.531   1.065 -0.5655 -0.3998  0.2161
 5237TIP3   OH215674   2.856   4.703   0.227 -0.3154 -0.4793 -0.3771
 5237TIP3    H115675   2.836   4.668   0.140  0.5037  0.5509 -1.0132
 5237TIP3    H215676   2.882   4.627   0.278  1.5665 -0.8486 -1.7617
 5238TIP3   OH215677   2.674   1.856   4.656 -0.0127 -0.2403  0.2006
 5238TIP3    H115678   2.611   1.923   4.628  1.2631  0.1608 -1.8684
 5238TIP3    H215679   2.694   1.879   4.747 -0.6527  1.3620 -0.0303
 5239TIP3   OH215680   3.662   0.838   1.382 -0.3594 -0.4479 -0.1014
 5239TIP3    H115681   3.727   0.792   1.329 -0.4953 -0.9833  0.1832
 5239TIP3    H215682   3.712   0.893   1.441 -0.1998 -0.0296 -0.6173
 5240TIP3   OH215683   2.911   2.575   3.639 -0.0607 -0.1952 -0.8581
 5240TIP3    H115684   2.834   2.547   3.588  0.2176 -0.2508 -1.2551
 5240TIP3    H215685   2.882   2.654   3.684 -0.1339  0.1993 -1.5824
 5241TIP3   OH215686   4.702   4.060   1.664 -0.5168  0.0748  0.0799
 5241TIP3    H115687   4.732   4.010   1.589 -1.4021 -1.4944  0.7095
 5241TIP3    H215688   4.712   4.152   1.638  0.0603 -0.4223 -1.5699
 5242TIP3   OH215689   5.828   2.874   3.384 -0.2335  0.2194 -0.2468
 5242TIP3    H115690   5.917   2.866   3.348  0.8010  0.3309  2.0862
 5242TIP3    H215691   5.830   2.955   3.435 -1.9809  0.6751 -0.8276
 5243TIP3   OH215692   4.797   3.869   3.495  0.2949 -0.1412 -0.2407
 5243TIP3    H115693   4.882   3.828   3.510  1.3053  2.3881  1.8168
 5243TIP3    H215694   4.817   3.961   3.478 -1.9836  0.2686 -1.0927
 5244TIP3   OH215695   3.143   2.376   3.298  0.2692 -0.0283  0.2198
 5244TIP3    H115696   3.166   2.435   3.369  0.3675 -0.5300  0.6131
 5244TIP3    H215697   3.170   2.289   3.329 -1.5367 -0.5688  0.4568
 5245TIP3   OH215698   0.787   2.048   5.792  0.0985  0.2611  0.2013
 5245TIP3    H115699   0.789   2.019   5.701 -0.8767 -2.8524  1.0693
 5245TIP3    H215700   0.878   2.067   5.813  0.2907  1.4345 -1.4924
 5246TIP3   OH215701   4.077   3.392   0.569 -0.2072  0.1320  0.3359
 5246TIP3    H115702   4.132   3.327   0.525  0.6248  0.1434  1.3134
 5246TIP3    H215703   3.988   3.371   0.542  0.2469  0.0769 -1.2582
 5247TIP3   OH215704   4.129   1.860   1.129 -0.1461 -0.3311  0.0270
 5247TIP3    H115705   4.133   1.930   1.064  0.8524 -0.6448 -0.2576
 5247TIP3    H215706   4.038   1.829   1.124 -0.0690 -0.4056 -1.2766
 5248TIP3   OH215707   6.303   4.660   5.099 -0.5207  0.5408  0.4486
 5248TIP3    H115708   6.332   4.574   5.069  0.7715  0.4026  1.9182
 5248TIP3    H215709   6.257   4.698   5.024 -2.1213 -1.8455  0.1209
 5249TIP3   OH215710   4.845   5.700   5.476 -0.1158  0.0809  0.3835
 5249TIP3    H115711   4.797   5.623   5.508 -0.7193 -0.5968 -1.9533
 5249TIP3    H215712   4.778   5.767   5.465  0.4199  1.0469  2.4785
 5250TIP3   OH215713   6.594   3.307   4.598 -0.2209  0.0073  0.5638
 5250TIP3    H115714   6.575   3.251   4.523 -0.3903 -0.3110  0.8377
 5250TIP3    H215715   6.640   3.382   4.562  0.1022 -0.3618  0.1974
 5251TIP3   OH215716   2.118   2.647   4.778  0.1771  0.0593  0.8773
 5251TIP3    H115717   2.195   2.699   4.757  0.0185 -0.9493 -2.7726
 5251TIP3    H215718   2.064   2.705   4.833  1.3751  2.5792 -0.4392
 5252TIP3   OH215719   0.818   2.430   1.931 -0.3081 -0.1884  0.3505
 5252TIP3    H115720   0.740   2.398   1.887 -0.5019  1.6948 -0.7747
 5252TIP3    H215721   0.822   2.380   2.012 -1.5655 -1.7015 -0.4715
 5253TIP3   OH215722   3.581   4.741   4.729 -0.6690 -0.4213  0.5786
 5253TIP3    H115723   3.516   4.769   4.794 -0.0324 -0.1070  1.0949
 5253TIP3    H215724   3.617   4.659   4.765 -0.3023 -0.2378  0.6385
 5254TIP3   OH215725   4.838   0.030   2.789  0.9142 -0.0706  0.2122
 5254TIP3    H115726   4.815   0.061   2.877  1.6623  1.4503 -0.0839
 5254TIP3    H215727   4.931   0.054   2.779  0.3294  1.7353 -1.7163
 5255TIP3   OH215728   1.119   5.165   1.284  0.0058 -0.7249  0.0951
 5255TIP3    H115729   1.091   5.217   1.209 -0.3638 -1.2453 -0.1329
 5255TIP3    H215730   1.212   5.187   1.295 -0.7849  2.3416  1.9295
 5256TIP3   OH215731   0.308   1.798   2.042  0.7547 -0.1554 -0.0649
 5256TIP3    H115732   0.216   1.795   2.068 -0.1564  1.0572 -2.7863
 5256TIP3    H215733   0.341   1.879   2.080  0.8527 -0.7726  1.2282
 5257TIP3   OH215734   3.697   3.773   3.409  0.3238 -0.4938 -0.4462
 5257TIP3    H115735   3.631   3.754   3.342 -0.0179 -0.6725 -0.0653
 5257TIP3    H215736   3.761   3.829   3.365 -0.7937  0.8470 -0.4438
 5258TIP3   OH215737   2.460   4.862   2.508 -0.1472  0.1519 -0.1295
 5258TIP3    H115738   2.504   4.947   2.502 -2.6622  1.4615 -1.1097
 5258TIP3    H215739   2.528   4.799   2.484  1.4785  1.9505 -0.5046
 5259TIP3   OH215740   4.701   4.795   3.037 -0.3174 -0.2468 -0.3253
 5259TIP3    H115741   4.612   4.788   3.074 -0.1503 -0.8799 -0.0273
 5259TIP3    H215742   4.688   4.832   2.950 -0.6208  2.6939  0.8551
 5260TIP3   OH215743   5.404   6.421   4.750 -0.3678 -0.0037 -0.0034
 5260TIP3    H115744   5.480   6.378   4.711  1.0583  0.8097  1.6915
 5260TIP3    H215745   5.329   6.384   4.705  0.9402 -2.1902 -0.5241
 5261TIP3   OH215746   4.100   4.890   1.179 -0.4731  0.0186 -0.2539
 5261TIP3    H115747   4.005   4.900   1.184 -0.4923 -0.4630  3.3278
 5261TIP3    H215748   4.129   4.890   1.271  3.0269  0.3082 -1.2028
 5262TIP3   OH215749   5.442   1.258   2.324 -0.2864  0.6408 -0.3346
 5262TIP3    H115750   5.489   1.224   2.248  2.3875 -0.3679  1.6258
 5262TIP3    H215751   5.475   1.347   2.335  2.1581 -0.3866  1.6158
 5263TIP3   OH215752   5.667   2.927   2.383  0.1686 -0.4244  0.0614
 5263TIP3    H115753   5.618   2.860   2.431  0.7297  0.3815  1.8576
 5263TIP3    H215754   5.602   2.994   2.362 -0.6082 -1.8950 -2.6287
 5264TIP3   OH215755   0.260   1.715   5.030  0.1839 -0.2020  0.2991
 5264TIP3    H115756   0.219   1.644   5.079 -1.2847  1.2171  1.2050
 5264TIP3    H215757   0.338   1.737   5.079  1.2826 -1.8751 -0.5887
 5265TIP3   OH215758   5.573   1.848   3.839  0.2577  0.1343 -0.3643
 5265TIP3    H115759   5.642   1.907   3.868 -0.0504  0.3757 -0.1063
 5265TIP3    H215760   5.505   1.907   3.804 -0.3244 -0.0139  0.4769
 5266TIP3   OH215761   6.072   1.076   2.799  0.1684  0.2550  0.4962
 5266TIP3    H115762   6.035   0.994   2.833  1.5374 -0.5683  0.1179
 5266TIP3    H215763   6.008   1.143   2.821 -0.6106 -0.7957  1.5640
 5267TIP3   OH215764   4.356   2.525   1.777  0.3085  0.3278 -0.4272
 5267TIP3    H115765   4.386   2.570   1.856 -1.0709  1.9299 -0.7855
 5267TIP3    H215766   4.266   2.554   1.765 -0.1006 -1.3076 -1.5922
 5268TIP3   OH215767   0.889   2.668   3.687 -0.5452  0.0509  0.2622
 5268TIP3    H115768   0.946   2.678   3.763 -1.4972  0.0756  0.9922
 5268TIP3    H215769   0.852   2.581   3.696 -0.8002  0.1240 -0.0722
 5269TIP3   OH215770   3.348   0.107   0.325  0.1611  0.0681  0.3545
 5269TIP3    H115771   3.262   0.142   0.300  0.8989  0.6714 -1.4835
 5269TIP3    H215772   3.332   0.013   0.335 -0.6431  0.1147 -0.3391
 5270TIP3   OH215773   1.030   1.342   3.722 -0.2532  0.1523 -0.0010
 5270TIP3    H115774   0.942   1.366   3.749 -0.1829 -1.0630  1.4616
 5270TIP3    H215775   1.087   1.405   3.766 -0.3153  0.1866  0.0299
 5271TIP3   OH215776   7.047   2.463   4.071  0.3358 -1.0590 -0.0808
 5271TIP3    H115777   7.029   2.556   4.055  0.9162 -0.8424  0.4657
 5271TIP3    H215778   7.114   2.440   4.007 -0.1473 -1.2298 -0.5293
 5272TIP3   OH215779   2.403   3.756   2.602  0.8619  0.3408 -0.0261
 5272TIP3    H115780   2.331   3.816   2.622  1.0215  0.3581  0.5231
 5272TIP3    H215781   2.410   3.701   2.680  0.8916 -0.2210 -0.4189
 5273TIP3   OH215782   6.613   0.823   3.659  0.1507 -0.2288 -0.2077
 5273TIP3    H115783   6.575   0.756   3.716 -0.4573 -0.8559 -1.3187
 5273TIP3    H215784   6.539   0.877   3.632  0.0529 -1.2220 -2.0760
 5274TIP3   OH215785   7.132   0.360   0.414 -0.5436  0.1688  0.1235
 5274TIP3    H115786   7.152   0.433   0.356  0.2738 -0.9503 -1.0599
 5274TIP3    H215787   7.074   0.303   0.363  0.7176 -1.1684  0.0946
 5275TIP3   OH215788   1.382   6.828   5.249 -0.5697 -0.2120  0.4354
 5275TIP3    H115789   1.470   6.804   5.277 -0.0040  0.1246 -0.9717
 5275TIP3    H215790   1.375   6.795   5.160 -0.9420  1.8911 -0.3905
 5276TIP3   OH215791   7.030   6.730   0.825 -0.0405 -0.5351  0.3269
 5276TIP3    H115792   7.089   6.728   0.901 -0.5326 -1.2185  0.7028
 5276TIP3    H215793   6.991   6.643   0.823  0.5849 -0.8025 -1.2267
 5277TIP3   OH215794   0.559   2.371   4.805  0.4603 -0.1760  0.1857
 5277TIP3    H115795   0.648   2.339   4.790 -0.1393 -0.5896 -3.3112
 5277TIP3    H215796   0.504   2.311   4.755 -1.4427  2.0029 -0.4993
 5278TIP3   OH215797   4.939   6.407   4.630 -0.1818  0.1360  0.1043
 5278TIP3    H115798   4.962   6.500   4.639  0.1895 -0.1667  3.9699
 5278TIP3    H215799   4.847   6.403   4.654 -1.7139 -0.1149 -4.6428
 5279TIP3   OH215800   6.068   2.215   4.426 -0.0993  0.0600  0.4515
 5279TIP3    H115801   6.039   2.304   4.448 -0.4261 -0.2028  1.0956
 5279TIP3    H215802   6.041   2.203   4.335  1.3475  1.1914 -0.1744
 5280TIP3   OH215803   5.875   2.168   0.332  0.0306 -0.5670  0.5824
 5280TIP3    H115804   5.826   2.105   0.279 -1.7732  1.0845  0.1762
 5280TIP3    H215805   5.817   2.191   0.404 -0.2574  2.1109 -0.3891
 5281TIP3   OH215806   2.440   5.488   3.600 -0.1737  0.5137 -0.0834
 5281TIP3    H115807   2.366   5.547   3.582  0.5521  1.4747 -0.0134
 5281TIP3    H215808   2.429   5.463   3.692 -3.3442 -3.6250 -1.2520
 5282TIP3   OH215809   6.545   1.098   3.512  0.0048  0.3227 -0.4530
 5282TIP3    H115810   6.582   1.063   3.431  0.2976  1.6727 -0.9390
 5282TIP3    H215811   6.485   1.167   3.483 -1.0803 -0.2109  0.4324
 5283TIP3   OH215812   5.304   5.320   0.758 -0.3111  0.1510  0.6736
 5283TIP3    H115813   5.369   5.254   0.735 -1.7607 -0.2234 -3.2827
 5283TIP3    H215814   5.338   5.401   0.720  0.0383  1.0745  2.8495
 5284TIP3   OH215815   6.472   3.915   2.203  0.6414  0.0947 -0.5069
 5284TIP3    H115816   6.386   3.872   2.211  0.5777  0.0542 -1.3805
 5284TIP3    H215817   6.506   3.915   2.293 -0.2092 -0.0118 -0.1675
 5285TIP3   OH215818   6.545   6.725   3.530 -0.0046  0.2402 -0.1560
 5285TIP3    H115819   6.568   6.748   3.620 -0.1738  1.2109 -0.3463
 5285TIP3    H215820   6.600   6.782   3.477  1.6449 -1.7664 -0.7377
 5286TIP3   OH215821   4.744   5.883   0.186  0.5933 -0.0644 -0.1486
 5286TIP3    H115822   4.680   5.820   0.219  0.1772  0.2667 -0.3051
 5286TIP3    H215823   4.732   5.960   0.243  0.9676 -0.0636 -0.0739
 5287TIP3   OH215824   3.421   0.485   4.685 -0.2413  0.1992  0.1146
 5287TIP3    H115825   3.449   0.451   4.600 -1.1240  0.9639 -0.5065
 5287TIP3    H215826   3.491   0.461   4.745  0.9649  0.6576 -1.0630
 5288TIP3   OH215827   4.042   1.878   4.838 -0.3500 -0.1609  0.0463
 5288TIP3    H115828   4.031   1.935   4.762  1.0668 -1.9541 -1.6188
 5288TIP3    H215829   4.001   1.925   4.911 -2.0202  1.5015 -1.8725
 5289TIP3   OH215830   4.574   2.970   5.789  0.5282  0.1683 -0.1755
 5289TIP3    H115831   4.582   2.879   5.818 -0.3093 -0.0232 -0.5062
 5289TIP3    H215832   4.596   2.967   5.696  2.8311  0.7171  0.3006
 5290TIP3   OH215833   0.024   5.794   0.819 -0.2235  0.1658 -0.2204
 5290TIP3    H115834   0.012   5.720   0.759 -0.3192  0.8740 -1.1014
 5290TIP3    H215835   0.014   5.872   0.764  1.2456  0.8455  0.4112
 5291TIP3   OH215836   5.245   4.519   2.745  0.0838  0.0540  0.2746
 5291TIP3    H115837   5.256   4.614   2.741  1.2764 -0.1064 -0.8253
 5291TIP3    H215838   5.154   4.507   2.774 -0.0511  1.5137  0.5571
 5292TIP3   OH215839   5.773   6.795   1.816 -0.4121  0.4018  0.5340
 5292TIP3    H115840   5.811   6.719   1.860 -0.5153 -0.1236 -0.2650
 5292TIP3    H215841   5.788   6.867   1.876 -0.1571 -0.2175  1.2331
 5293TIP3   OH215842   7.027   5.112   5.662 -0.1997  0.4064 -0.1917
 5293TIP3    H115843   7.100   5.145   5.610 -0.7663  1.8225 -0.1322
 5293TIP3    H215844   6.960   5.089   5.597  0.0077 -0.1488 -0.2085
 5294TIP3   OH215845   4.646   5.912   2.930  0.1202 -0.3081  0.4105
 5294TIP3    H115846   4.584   5.924   2.858 -1.3490 -1.0435  1.5088
 5294TIP3    H215847   4.731   5.907   2.887 -0.8524 -2.3806 -1.4548
 5295TIP3   OH215848   0.945   1.488   4.407  0.7398 -0.1735 -0.2030
 5295TIP3    H115849   1.012   1.448   4.351  0.5369  0.4634 -0.9261
 5295TIP3    H215850   0.995   1.530   4.477  0.9827 -1.1796  0.2306
 5296TIP3   OH215851   5.929   4.556   3.347 -0.0182  0.1787 -0.1447
 5296TIP3    H115852   5.992   4.613   3.302  0.2865 -0.5399 -0.6455
 5296TIP3    H215853   5.977   4.475   3.364 -0.1764  0.3686  1.3534
 5297TIP3   OH215854   4.306   0.734   1.837  0.8602  0.2284 -0.2267
 5297TIP3    H115855   4.276   0.733   1.928 -1.2856  0.0648 -0.8811
 5297TIP3    H215856   4.371   0.663   1.833  0.7081 -0.0153  1.0833
 5298TIP3   OH215857   4.284   1.775   1.739 -0.2385  0.0062 -0.3135
 5298TIP3    H115858   4.246   1.733   1.816  0.9541 -1.0804 -0.2919
 5298TIP3    H215859   4.374   1.744   1.737  0.5247  2.1260 -0.6420
 5299TIP3   OH215860   6.569   4.690   2.584  0.7685 -0.3218 -0.0025
 5299TIP3    H115861   6.639   4.725   2.637  1.6982 -1.7794 -0.1995
 5299TIP3    H215862   6.577   4.735   2.500  0.3443  0.7769  0.5353
 5300TIP3   OH215863   4.698   5.249   4.381  0.1921  0.4110  0.1120
 5300TIP3    H115864   4.765   5.182   4.395  0.9300  0.7273 -1.6449
 5300TIP3    H215865   4.658   5.226   4.297 -0.8406  1.1081  0.3939
 5301TIP3   OH215866   4.781   4.205   2.478  0.1170 -0.1105 -0.3919
 5301TIP3    H115867   4.710   4.261   2.447 -0.1356 -0.0198  0.3360
 5301TIP3    H215868   4.837   4.264   2.528 -0.0664 -0.4676  0.2442
 5302TIP3   OH215869   1.124   2.548   4.839 -0.3351  0.1462  0.3954
 5302TIP3    H115870   1.199   2.527   4.784  0.0307 -0.0624  0.9630
 5302TIP3    H215871   1.139   2.500   4.920 -0.4590  1.0752  0.9909
 5303TIP3   OH215872   2.096   4.136   0.380  0.1446  0.1323 -0.1076
 5303TIP3    H115873   2.082   4.100   0.292  0.2082 -0.1920  0.0144
 5303TIP3    H215874   2.077   4.064   0.439  1.8482 -0.1975  0.0880
 5304TIP3   OH215875   0.709   2.043   1.106  0.2193  0.1611  0.6566
 5304TIP3    H115876   0.655   2.095   1.047 -0.0516 -0.2796  0.5108
 5304TIP3    H215877   0.665   1.958   1.111  0.2251  0.1977  1.5104
 5305TIP3   OH215878   1.182   6.369   4.212  0.1070  0.0813  0.2612
 5305TIP3    H115879   1.203   6.431   4.142 -0.9523  0.6623  0.4312
 5305TIP3    H215880   1.128   6.302   4.169  1.4177 -0.8657  0.0334
 5306TIP3   OH215881   3.581   4.818   5.698 -0.3228 -0.1860 -0.2563
 5306TIP3    H115882   3.629   4.898   5.676  1.0352 -1.0781 -0.6892
 5306TIP3    H215883   3.505   4.848   5.748  0.5425  1.3196  0.2222
 5307TIP3   OH215884   5.805   0.912   0.833  0.0150  0.5917  0.1271
 5307TIP3    H115885   5.896   0.888   0.850  0.1705  1.0649 -0.0209
 5307TIP3    H215886   5.798   1.002   0.863 -0.7960  0.0942  1.4770
 5308TIP3   OH215887   0.159   3.331   2.206 -0.3866  0.0697  0.4091
 5308TIP3    H115888   0.159   3.368   2.294 -0.5025  0.3116  0.3097
 5308TIP3    H215889   0.077   3.282   2.200 -0.7067  0.6162  0.2075
 5309TIP3   OH215890   5.185   5.729   5.414 -0.0245 -0.8691 -0.3446
 5309TIP3    H115891   5.207   5.816   5.446  0.6727 -1.3177  0.4284
 5309TIP3    H215892   5.134   5.745   5.335 -2.0038  0.2769  1.0860
 5310TIP3   OH215893   4.519   6.568   5.690  0.2313  0.9022  0.6653
 5310TIP3    H115894   4.543   6.546   5.600 -1.1309 -0.4187  0.5863
 5310TIP3    H215895   4.438   6.619   5.681  1.2547  2.6829  1.0688
 5311TIP3   OH215896   1.202   5.264   0.383 -0.6381 -0.2307  0.5085
 5311TIP3    H115897   1.251   5.282   0.302 -0.7713  0.9615  0.6633
 5311TIP3    H215898   1.179   5.172   0.378  0.9201 -0.6259  0.0352
 5312TIP3   OH215899   1.824   0.431   3.965  1.0167 -0.1799  0.5594
 5312TIP3    H115900   1.812   0.466   3.877  0.6361 -1.8625 -0.0906
 5312TIP3    H215901   1.736   0.434   4.004  1.3916  1.6911  1.3640
 5313TIP3   OH215902   6.292   4.899   5.812  0.1350  0.0925  0.3639
 5313TIP3    H115903   6.341   4.827   5.772  0.0872  0.6553 -0.7664
 5313TIP3    H215904   6.201   4.878   5.796  0.0902  0.0197  0.7177
 5314TIP3   OH215905   1.069   1.021   1.287 -0.5511 -0.1452 -0.0442
 5314TIP3    H115906   0.986   0.979   1.264 -0.6428  0.4970 -0.9216
 5314TIP3    H215907   1.134   0.951   1.280 -1.1292 -0.8967  1.6090
 5315TIP3   OH215908   5.469   4.957   5.070 -0.1657  0.0429  0.3988
 5315TIP3    H115909   5.558   4.985   5.092 -0.8986  1.0295  2.3450
 5315TIP3    H215910   5.462   4.868   5.105 -0.5466  0.7042  2.0695
 5316TIP3   OH215911   0.837   1.109   0.274  0.9073  0.2003 -0.1214
 5316TIP3    H115912   0.776   1.161   0.222  1.0825 -0.1136 -0.6515
 5316TIP3    H215913   0.884   1.174   0.327  0.4700  0.4880 -0.0793
 5317TIP3   OH215914   2.536   5.302   0.748 -0.1537  0.0008 -0.3181
 5317TIP3    H115915   2.612   5.250   0.723  0.7215  1.1633 -0.1391
 5317TIP3    H215916   2.558   5.335   0.835 -1.3549 -0.5546  0.2227
 5318TIP3   OH215917   0.296   2.741   2.034  0.5245 -0.4566 -0.0963
 5318TIP3    H115918   0.360   2.768   1.969 -1.5086 -0.0485 -2.0510
 5318TIP3    H215919   0.276   2.650   2.012  1.9457 -1.3345  1.8826
 5319TIP3   OH215920   6.403   1.345   2.815  0.3057 -0.2122  0.2302
 5319TIP3    H115921   6.483   1.313   2.773 -0.1239 -0.3731 -0.4751
 5319TIP3    H215922   6.344   1.365   2.743 -0.5467 -0.7542  0.7613
 5320TIP3   OH215923   5.353   1.077   4.232  0.0002  0.2276 -0.3136
 5320TIP3    H115924   5.361   1.078   4.327 -2.3443  1.5497 -0.0695
 5320TIP3    H215925   5.360   1.169   4.206 -3.3759  0.4424 -0.9294
 5321TIP3   OH215926   0.674   1.859   3.417  0.5021 -0.2594  0.0496
 5321TIP3    H115927   0.657   1.915   3.341 -1.9346 -0.6968  0.1778
 5321TIP3    H215928   0.637   1.907   3.491 -0.1556 -1.2798  0.4069
 5322TIP3   OH215929   5.776   3.604   5.706 -0.6824  0.4348 -0.0842
 5322TIP3    H115930   5.706   3.668   5.721 -0.8676 -0.0018  0.9858
 5322TIP3    H215931   5.850   3.636   5.757 -0.3718  0.4506 -0.5402
 5323TIP3   OH215932   0.076   3.966   2.320  0.5671 -0.4314  0.5089
 5323TIP3    H115933   0.050   4.044   2.370  1.4649 -1.0923  2.0583
 5323TIP3    H215934   0.146   3.998   2.263 -0.7574  0.4250 -0.7264
 5324TIP3   OH215935   5.778   1.209   4.917 -0.0374 -0.3386  0.0199
 5324TIP3    H115936   5.744   1.294   4.888 -1.7440 -0.8406  0.4564
 5324TIP3    H215937   5.861   1.199   4.869 -0.9306  0.5328 -1.8263
 5325TIP3   OH215938   1.029   4.651   2.164  0.5682 -0.0156 -0.2029
 5325TIP3    H115939   0.941   4.682   2.185  0.0405 -0.5063 -1.5646
 5325TIP3    H215940   1.037   4.567   2.210 -0.0785 -0.4741 -0.9214
 5326TIP3   OH215941   6.017   6.714   4.070  0.1981 -1.1194  0.6107
 5326TIP3    H115942   5.956   6.642   4.055  2.3450 -3.0724  0.6217
 5326TIP3    H215943   6.053   6.734   3.984  0.3551 -0.7488  0.7593
 5327TIP3   OH215944   1.081   4.429   0.241  0.0435  0.4161  0.0798
 5327TIP3    H115945   1.068   4.344   0.284 -0.3150  0.0765 -0.6707
 5327TIP3    H215946   1.172   4.427   0.214  0.5082  0.9735  1.5114
 5328TIP3   OH215947   5.564   5.706   2.867  0.0620 -0.2979  0.0333
 5328TIP3    H115948   5.640   5.694   2.811 -0.9243 -0.8298 -1.2379
 5328TIP3    H215949   5.587   5.663   2.949  0.9338 -0.8837 -0.5081
 5329TIP3   OH215950   3.965   3.730   0.544 -0.0151 -0.2673 -0.2012
 5329TIP3    H115951   3.990   3.812   0.501 -0.1436 -0.7381 -1.2120
 5329TIP3    H215952   3.876   3.713   0.514  0.2315 -1.0873 -0.5107
 5330TIP3   OH215953   6.533   1.449   0.769 -0.0707 -0.1326  0.6521
 5330TIP3    H115954   6.449   1.488   0.793  0.3166  1.2024 -0.1161
 5330TIP3    H215955   6.521   1.421   0.679 -0.1357 -1.2694  0.9950
 5331TIP3   OH215956   7.025   4.082   4.260  0.7746  0.4712  1.2985
 5331TIP3    H115957   6.989   4.154   4.209 -2.2864 -1.3124  0.6724
 5331TIP3    H215958   7.070   4.027   4.195 -1.6022 -0.8845  0.6840
 5332TIP3   OH215959   3.283   0.792   3.184 -0.7080  0.2123 -0.0734
 5332TIP3    H115960   3.224   0.849   3.135 -1.7726 -0.6837  0.1291
 5332TIP3    H215961   3.332   0.745   3.117 -2.0095 -0.8566 -0.3050
 5333TIP3   OH215962   6.268   5.342   5.544 -0.7754 -0.1537 -0.0887
 5333TIP3    H115963   6.305   5.271   5.596 -0.5847  1.1593  1.6586
 5333TIP3    H215964   6.244   5.301   5.461  1.6769 -1.7232 -0.1207
 5334TIP3   OH215965   4.415   1.494   3.720 -0.4127 -0.0072 -0.1626
 5334TIP3    H115966   4.493   1.537   3.756  0.6087 -0.1446 -2.0841
 5334TIP3    H215967   4.347   1.510   3.785 -0.2108  4.7442 -0.7990
 5335TIP3   OH215968   6.372   5.441   0.064 -0.0673  0.2344  0.2185
 5335TIP3    H115969   6.398   5.527   0.032 -0.9144  0.3287 -0.2471
 5335TIP3    H215970   6.305   5.412   0.003  1.2599 -1.4231 -0.5260
 5336TIP3   OH215971   1.166   5.746   2.252  0.5881 -0.4151  0.3666
 5336TIP3    H115972   1.145   5.655   2.274  1.4219 -0.5751  0.5341
 5336TIP3    H215973   1.132   5.758   2.163  0.3772 -0.8492  0.3832
 5337TIP3   OH215974   5.086   1.890   1.893 -0.0332 -0.4505  0.6775
 5337TIP3    H115975   5.026   1.958   1.861  1.0122  0.7862  1.2223
 5337TIP3    H215976   5.029   1.823   1.931 -1.0661  1.2742  2.3410
 5338TIP3   OH215977   5.392   4.666   1.601  0.1580  0.0438 -0.1037
 5338TIP3    H115978   5.421   4.630   1.685  1.8634  1.2215 -0.1496
 5338TIP3    H215979   5.311   4.619   1.582  0.2775 -0.9784  1.6955
 5339TIP3   OH215980   1.871   1.710   5.553  0.2225  0.0375 -0.3096
 5339TIP3    H115981   1.864   1.627   5.506  0.4022  0.9548 -2.0846
 5339TIP3    H215982   1.883   1.686   5.644  0.3057 -1.8796 -0.7866
 5340TIP3   OH215983   0.323   6.654   0.352  0.4061 -0.0277 -0.4229
 5340TIP3    H115984   0.283   6.653   0.266 -0.1621  0.7228 -0.1755
 5340TIP3    H215985   0.415   6.633   0.336  0.5527  1.2767 -1.3472
 5341TIP3   OH215986   1.303   5.504   4.084 -0.2149 -0.3210  0.2603
 5341TIP3    H115987   1.363   5.513   4.159 -0.3779 -0.6652  0.4356
 5341TIP3    H215988   1.361   5.495   4.008 -0.0047  2.3186 -0.0002
 5342TIP3   OH215989   5.081   0.989   5.764 -0.5891  0.1319  0.2233
 5342TIP3    H115990   5.126   1.011   5.846  0.8021 -0.3710 -0.3739
 5342TIP3    H215991   4.990   1.015   5.779 -0.5751 -0.8051  2.2576
 5343TIP3   OH215992   4.094   6.709   3.056 -0.2606 -0.7696 -0.7822
 5343TIP3    H115993   4.008   6.719   3.016 -0.2943  0.5665 -0.4337
 5343TIP3    H215994   4.154   6.752   2.994 -0.2606  0.9396  0.3369
 5344TIP3   OH215995   4.579   1.872   0.292 -0.3450 -0.1725  0.6422
 5344TIP3    H115996   4.494   1.914   0.297 -0.4509 -0.4544  1.2923
 5344TIP3    H215997   4.560   1.778   0.287 -0.1081 -0.1691 -0.6669
 5345TIP3   OH215998   6.353   1.286   3.443  0.1974 -1.1035  0.1322
 5345TIP3    H115999   6.268   1.315   3.477  1.1704  0.5544  1.2568
 5345TIP3    H216000   6.375   1.349   3.375  1.1769 -0.6918  0.8255
 5346TIP3   OH216001   5.913   4.985   1.674 -0.0344  0.2196 -0.2371
 5346TIP3    H116002   5.859   5.022   1.603  1.2550  0.9505 -0.8714
 5346TIP3    H216003   5.853   4.979   1.748 -1.0120  0.9768 -0.9304
 5347TIP3   OH216004   3.881   2.005   2.469  0.5671  0.0904  0.1871
 5347TIP3    H116005   3.821   2.028   2.539  1.1055  1.9704  0.0894
 5347TIP3    H216006   3.963   1.980   2.513  1.0858  1.8126  0.2659
 5348TIP3   OH216007   0.753   0.235   4.545  0.1810  0.1488 -0.1122
 5348TIP3    H116008   0.825   0.261   4.487 -0.7726  0.3333 -1.2465
 5348TIP3    H216009   0.703   0.316   4.560 -1.1030 -0.4025 -1.2405
 5349TIP3   OH216010   2.162   6.531   5.423 -0.5774  0.2417 -0.3177
 5349TIP3    H116011   2.228   6.599   5.437  2.6442 -2.3850 -1.5168
 5349TIP3    H216012   2.106   6.565   5.353  1.7384  1.2079 -1.8008
 5350TIP3   OH216013   2.610   0.803   3.407 -0.6243 -0.5792 -0.2273
 5350TIP3    H116014   2.702   0.816   3.431 -0.8409 -0.4672  0.5438
 5350TIP3    H216015   2.584   0.724   3.453 -1.3631  0.2558  0.8342
 5351TIP3   OH216016   0.992   0.331   2.187  0.2176  0.3244  0.2096
 5351TIP3    H116017   0.924   0.360   2.247  0.1286  0.2696  0.1355
 5351TIP3    H216018   1.057   0.402   2.189  0.6053 -0.0457  0.9850
 5352TIP3   OH216019   3.538   0.748   0.631 -0.0353 -0.1490 -0.5736
 5352TIP3    H116020   3.558   0.663   0.670  0.0474 -0.6681 -1.7121
 5352TIP3    H216021   3.590   0.810   0.682 -2.4461 -0.2917  2.3849
 5353TIP3   OH216022   3.303   5.695   2.017 -0.3486  0.4381  0.2611
 5353TIP3    H116023   3.387   5.659   2.044 -0.9528 -0.5522  0.9160
 5353TIP3    H216024   3.306   5.693   1.921  1.0488  2.1171  0.2239
 5354TIP3   OH216025   5.911   2.224   2.654  0.2197 -0.3294  0.1653
 5354TIP3    H116026   5.957   2.256   2.576 -0.0838 -0.7906 -0.2049
 5354TIP3    H216027   5.972   2.243   2.726  0.2638  0.6204 -0.1007
 5355TIP3   OH216028   3.253   6.469   3.025 -0.2013  0.0452 -0.4646
 5355TIP3    H116029   3.286   6.399   3.080 -1.0466  1.3240  1.8013
 5355TIP3    H216030   3.160   6.473   3.043 -0.6170  0.2227 -2.3891
 5356TIP3   OH216031   1.076   3.737   2.221 -0.3365 -0.0596  0.0826
 5356TIP3    H116032   1.083   3.648   2.254  0.7861  0.4683  1.3938
 5356TIP3    H216033   1.010   3.778   2.277  1.6416  0.8671  1.8941
 5357TIP3   OH216034   2.249   3.937   4.630 -0.7358  0.3029 -1.2426
 5357TIP3    H116035   2.183   3.879   4.591  0.3137 -0.2503 -2.2594
 5357TIP3    H216036   2.295   3.881   4.693 -1.5301  0.8212 -0.1738
 5358TIP3   OH216037   4.174   0.734   3.366  0.1851 -0.0261  0.5375
 5358TIP3    H116038   4.269   0.724   3.372  0.1137 -1.1108  0.1328
 5358TIP3    H216039   4.150   0.682   3.289 -0.6158  1.1145 -0.0023
 5359TIP3   OH216040   2.626   4.793   1.113  0.1366 -0.6268  0.4037
 5359TIP3    H116041   2.640   4.815   1.205 -0.1941 -1.7249  0.7341
 5359TIP3    H216042   2.633   4.876   1.067  1.3175 -0.2135  1.2982
 5360TIP3   OH216043   1.338   0.500   4.695 -0.4925  0.0179 -0.4063
 5360TIP3    H116044   1.364   0.408   4.697  1.4132  0.5011  1.5711
 5360TIP3    H216045   1.420   0.547   4.685 -1.2387  1.5303  0.2881
 5361TIP3   OH216046   6.331   0.460   0.499  0.1149 -0.5811 -1.0229
 5361TIP3    H116047   6.421   0.492   0.502 -0.3064  0.6354 -0.9905
 5361TIP3    H216048   6.323   0.406   0.578  0.5418  0.0607 -0.5305
 5362TIP3   OH216049   5.918   6.523   2.919 -0.0741 -0.5223  0.3730
 5362TIP3    H116050   5.879   6.484   2.841 -0.3610  0.2763  0.1107
 5362TIP3    H216051   6.012   6.520   2.902 -0.1095 -0.7969  0.2136
 5363TIP3   OH216052   2.039   0.975   3.912  0.2394  0.0748  0.3304
 5363TIP3    H116053   2.122   1.009   3.945  0.1642 -0.2786  0.8842
 5363TIP3    H216054   2.049   0.880   3.911  0.6645  0.0818 -1.7768
 5364TIP3   OH216055   3.320   3.612   3.119 -0.1624 -0.0954  0.1707
 5364TIP3    H116056   3.313   3.698   3.077 -0.9763  0.3316  1.1175
 5364TIP3    H216057   3.326   3.550   3.047  3.0024  0.8794 -0.6008
 5365TIP3   OH216058   5.263   3.212   5.509  0.0754 -0.2838  0.0641
 5365TIP3    H116059   5.288   3.184   5.421 -0.8117  1.0959 -0.6605
 5365TIP3    H216060   5.211   3.139   5.543  0.5429 -0.8923 -0.4896
 5366TIP3   OH216061   2.855   3.511   3.279  0.5833 -0.3775 -0.3969
 5366TIP3    H116062   2.951   3.518   3.276  0.4785  1.2256 -0.6385
 5366TIP3    H216063   2.831   3.552   3.362  0.0260  0.4489 -0.9560
 5367TIP3   OH216064   2.449   2.090   3.467 -0.0665  0.0206 -0.9073
 5367TIP3    H116065   2.442   2.108   3.561 -0.0809  2.0588 -1.2347
 5367TIP3    H216066   2.470   1.997   3.461 -1.5305 -0.4940  1.0484
 5368TIP3   OH216067   3.435   4.798   3.644 -0.3348 -0.3614 -0.1385
 5368TIP3    H116068   3.431   4.876   3.588 -2.4758  0.1958  0.6985
 5368TIP3    H216069   3.515   4.753   3.616 -0.9695  0.1825 -3.2416
 5369TIP3   OH216070   3.350   6.695   3.169  0.0320 -0.0460 -0.4119
 5369TIP3    H116071   3.311   6.671   3.085 -1.2548  0.8409 -0.1092
 5369TIP3    H216072   3.324   6.624   3.229 -0.3420  0.0813 -0.4225
 5370TIP3   OH216073   3.449   3.018   2.515  0.2536 -0.0731 -0.2707
 5370TIP3    H116074   3.384   3.040   2.447 -0.0224  0.5906  0.2011
 5370TIP3    H216075   3.442   2.923   2.524  1.3963 -0.4196 -2.2746
 5371TIP3   OH216076   3.667   4.757   3.026 -0.0969 -0.3598  0.3587
 5371TIP3    H116077   3.750   4.710   3.031  0.7352  0.9904 -0.1676
 5371TIP3    H216078   3.662   4.808   3.106 -0.5016 -0.5556  0.4620
 5372TIP3   OH216079   2.529   1.962   1.571  0.7277 -0.1304  0.1806
 5372TIP3    H116080   2.521   2.024   1.644  0.9282 -0.0411  0.1272
 5372TIP3    H216081   2.552   1.879   1.612  0.5673 -0.1441  0.2431
 5373TIP3   OH216082   1.954   5.447   3.561 -0.3528 -0.4481 -0.2191
 5373TIP3    H116083   1.969   5.353   3.570 -1.3026 -0.5794  0.1257
 5373TIP3    H216084   1.971   5.482   3.648  0.8663 -0.1530 -0.5517
 5374TIP3   OH216085   0.282   6.252   4.614 -0.1149 -0.0861 -0.4018
 5374TIP3    H116086   0.202   6.298   4.639  0.5636  0.9505 -0.0650
 5374TIP3    H216087   0.329   6.238   4.696  1.2170  1.5912 -0.8269
 5375TIP3   OH216088   0.205   2.178   4.964 -0.2374 -0.2506 -0.6516
 5375TIP3    H116089   0.126   2.163   5.015  1.6767 -1.5652  2.1683
 5375TIP3    H216090   0.231   2.091   4.933  0.8127 -0.0580 -0.3653
 5376TIP3   OH216091   6.493   5.372   3.437 -0.1355  0.3136 -0.2576
 5376TIP3    H116092   6.478   5.428   3.360 -0.6959  0.7641  0.1769
 5376TIP3    H216093   6.451   5.418   3.509  2.9235  1.4450  0.9695
 5377TIP3   OH216094   2.444   3.885   0.616 -0.7963  0.0939  0.0805
 5377TIP3    H116095   2.392   3.886   0.536 -1.1236  1.6768  0.2753
 5377TIP3    H216096   2.449   3.793   0.640 -0.8705 -0.3998 -1.6359
 5378TIP3   OH216097   4.706   2.310   4.118  0.2055  0.0118 -0.5201
 5378TIP3    H116098   4.737   2.292   4.029  0.7954  0.8535 -0.4877
 5378TIP3    H216099   4.717   2.404   4.129  0.0953 -0.0806  0.4374
 5379TIP3   OH216100   3.687   3.237   1.128  0.7204  0.1938 -0.1644
 5379TIP3    H116101   3.690   3.332   1.119  0.5528  0.3409  1.2183
 5379TIP3    H216102   3.776   3.212   1.152  0.6589  0.0420 -0.0929
 5380TIP3   OH216103   6.244   2.897   5.682  0.2542  0.1741 -0.2111
 5380TIP3    H116104   6.308   2.852   5.627 -0.9617 -1.1817 -0.5972
 5380TIP3    H216105   6.185   2.827   5.711 -0.6575  1.2758  0.6672
 5381TIP3   OH216106   3.080   3.133   4.282 -0.0365 -0.4119  0.2751
 5381TIP3    H116107   2.997   3.179   4.289  0.3664  0.1371  2.0447
 5381TIP3    H216108   3.145   3.194   4.316  0.9775 -1.1546 -0.2444
 5382TIP3   OH216109   3.395   1.914   5.689 -0.2775 -0.4457  0.1641
 5382TIP3    H116110   3.413   1.902   5.782 -0.4259 -0.5445  0.1813
 5382TIP3    H216111   3.454   1.983   5.661  1.2981 -1.8663 -0.1502
 5383TIP3   OH216112   0.198   2.283   5.562  0.4670 -0.1575  0.0982
 5383TIP3    H116113   0.221   2.193   5.541 -0.3699 -0.9130  2.1895
 5383TIP3    H216114   0.200   2.329   5.478 -1.5500 -2.6566 -1.4258
 5384TIP3   OH216115   2.562   3.140   1.165  0.0631  0.1021 -0.2306
 5384TIP3    H116116   2.484   3.087   1.179  0.1365  0.2757  0.8904
 5384TIP3    H216117   2.595   3.112   1.079 -0.7468 -0.5698 -0.3304
 5385TIP3   OH216118   3.826   2.057   1.782  0.3841 -0.0032  0.5192
 5385TIP3    H116119   3.818   2.093   1.871  1.5024  0.9364  0.2660
 5385TIP3    H216120   3.873   1.974   1.794 -1.1980 -0.8650  0.9905
 5386TIP3   OH216121   4.940   6.594   1.247  0.0780 -0.0804  0.2397
 5386TIP3    H116122   5.004   6.595   1.318  1.8840 -0.1138 -1.3048
 5386TIP3    H216123   4.982   6.543   1.177 -0.2442  2.5310 -2.0348
 5387TIP3   OH216124   4.464   0.480   2.530 -0.3257 -0.7377  0.7710
 5387TIP3    H116125   4.478   0.480   2.435  2.4361  0.9710  1.0750
 5387TIP3    H216126   4.456   0.387   2.553  0.0692 -1.2337 -0.9894
 5388TIP3   OH216127   3.287   1.804   3.882 -0.0367 -0.0813  0.2803
 5388TIP3    H116128   3.206   1.854   3.867  1.3997  2.5281  0.5904
 5388TIP3    H216129   3.315   1.777   3.794 -1.0821 -0.8392  0.1511
 5389TIP3   OH216130   1.000   2.022   1.678 -0.0700  0.6104  0.1373
 5389TIP3    H116131   1.088   1.991   1.698 -0.0915 -0.1230 -0.8081
 5389TIP3    H216132   1.008   2.062   1.591 -0.3813  1.8800  0.6570
 5390TIP3   OH216133   0.968   4.585   5.861 -0.4802 -0.2546  0.3102
 5390TIP3    H116134   1.061   4.570   5.873  0.0561  0.5509 -2.1845
 5390TIP3    H216135   0.936   4.506   5.817 -0.8423 -0.2902  0.6330
 5391TIP3   OH216136   5.469   5.598   5.269 -0.2645 -0.1112 -0.1302
 5391TIP3    H116137   5.448   5.510   5.236  1.4597 -0.2256 -1.0227
 5391TIP3    H216138   5.426   5.602   5.354 -2.4499 -0.8941 -1.1003
 5392TIP3   OH216139   0.124   3.175   4.745 -0.1424  0.4017  0.0764
 5392TIP3    H116140   0.081   3.204   4.665  0.7507 -1.9573 -1.3551
 5392TIP3    H216141   0.216   3.197   4.733  0.5237 -2.4224 -0.9404
 5393TIP3   OH216142   3.432   1.613   1.216 -0.1811 -0.3672 -0.1206
 5393TIP3    H116143   3.520   1.584   1.192 -0.3414  0.0959 -1.3233
 5393TIP3    H216144   3.435   1.625   1.311  1.3523  0.6587 -0.2734
 5394TIP3   OH216145   5.898   5.840   2.467 -0.3767  0.0082  0.7511
 5394TIP3    H116146   5.989   5.809   2.463 -0.7166 -0.8959 -1.1071
 5394TIP3    H216147   5.861   5.816   2.382 -1.6833  2.5338  0.5246
 5395TIP3   OH216148   1.109   0.231   3.376 -0.2811  0.6043 -0.4043
 5395TIP3    H116149   1.103   0.187   3.460 -1.6527 -0.4438 -1.0162
 5395TIP3    H216150   1.179   0.185   3.329  0.2574  0.9798  0.0040
 5396TIP3   OH216151   4.567   5.056   3.417  0.2633  0.0390 -0.2073
 5396TIP3    H116152   4.548   5.149   3.403 -0.9916 -0.0856  0.5817
 5396TIP3    H216153   4.565   5.045   3.512  1.9398 -0.5087 -0.1943
 5397TIP3   OH216154   1.159   1.926   3.762  0.0721 -0.2431  0.0823
 5397TIP3    H116155   1.095   1.956   3.826  0.4021  0.1213  0.2504
 5397TIP3    H216156   1.180   1.837   3.788  2.0126  0.6633  1.9963
 5398TIP3   OH216157   2.866   1.116   3.274 -0.4494 -0.1815 -0.2547
 5398TIP3    H116158   2.893   1.024   3.273  0.9129  0.0680  2.3873
 5398TIP3    H216159   2.787   1.117   3.328 -0.3116  0.2309 -0.0596
 5399TIP3   OH216160   3.085   2.960   0.974  0.0125  0.6614 -0.2234
 5399TIP3    H116161   3.037   2.877   0.975  0.2489  0.4365  2.9705
 5399TIP3    H216162   3.063   3.000   0.890 -1.6250 -1.7546 -1.0412
 5400TIP3   OH216163   4.901   0.159   1.198  0.5344  0.2585 -0.3933
 5400TIP3    H116164   4.851   0.220   1.253 -1.8148 -0.9594 -1.0640
 5400TIP3    H216165   4.894   0.195   1.110  0.5098 -0.1211 -0.5464
 5401TIP3   OH216166   2.972   0.632   4.347  1.0285 -0.2358 -0.0293
 5401TIP3    H116167   2.997   0.671   4.264  0.5637 -0.2464 -0.1757
 5401TIP3    H216168   3.048   0.645   4.404  0.8476  0.9651 -0.0398
 5402TIP3   OH216169   6.311   0.885   4.144  0.3826 -0.5437 -0.4331
 5402TIP3    H116170   6.238   0.883   4.082  0.1405  0.9062 -0.2266
 5402TIP3    H216171   6.384   0.920   4.094  1.2025 -2.7067 -0.8555
 5403TIP3   OH216172   2.466   3.853   1.303 -0.1522  0.1914  0.5147
 5403TIP3    H116173   2.398   3.863   1.370  0.5762 -1.8657  1.6723
 5403TIP3    H216174   2.544   3.893   1.342 -0.1763  0.6529  0.0916
 5404TIP3   OH216175   5.126   0.128   0.679  0.6607 -0.4232  0.5609
 5404TIP3    H116176   5.082   0.044   0.690  0.5742 -0.5462 -0.6081
 5404TIP3    H216177   5.129   0.142   0.584  1.1842  0.6221  0.7108
 5405TIP3   OH216178   5.077   0.036   3.157  0.0421  0.1093 -0.4323
 5405TIP3    H116179   5.116  -0.047   3.184  0.2570  0.4056  0.2014
 5405TIP3    H216180   5.132   0.066   3.085  2.1335  1.3784  1.5645
 5406TIP3   OH216181   4.422   1.618   2.503  0.1978  0.1968  0.5542
 5406TIP3    H116182   4.443   1.541   2.451 -0.4933  0.0926  0.4126
 5406TIP3    H216183   4.497   1.630   2.561 -0.9059 -2.4122  2.7476
 5407TIP3   OH216184   3.645   1.817   1.742 -0.1372 -0.5176 -0.3623
 5407TIP3    H116185   3.616   1.749   1.803 -1.2598 -1.8063 -2.2273
 5407TIP3    H216186   3.741   1.813   1.745 -0.1659 -2.5903 -0.7996
 5408TIP3   OH216187   2.544   1.733   3.658  0.0863  0.1876 -0.3136
 5408TIP3    H116188   2.461   1.710   3.614 -0.2311  0.0165  0.3650
 5408TIP3    H216189   2.556   1.664   3.723  0.2745  0.7355  0.2370
 5409TIP3   OH216190   3.285   3.089   1.310  0.3935 -0.3535  0.2472
 5409TIP3    H116191   3.370   3.124   1.339  0.6083 -1.4101  0.9238
 5409TIP3    H216192   3.306   3.005   1.270  0.0287  0.7640 -2.5563
 5410TIP3   OH216193   6.725   0.701   0.231  0.2124 -0.7253  0.2668
 5410TIP3    H116194   6.819   0.698   0.249  0.9193  0.8161 -2.6109
 5410TIP3    H216195   6.712   0.639   0.159 -1.1777 -1.5943  1.2242
 5411TIP3   OH216196   3.808   3.603   2.506 -0.1303  0.0618 -0.1089
 5411TIP3    H116197   3.725   3.649   2.504  0.2429  0.7315 -0.5877
 5411TIP3    H216198   3.785   3.510   2.505 -0.8458  0.2116 -2.1930
 5412TIP3   OH216199   0.464   2.006   2.795 -0.0336  0.3818  0.4541
 5412TIP3    H116200   0.495   2.032   2.709  0.6871  0.3362  0.6888
 5412TIP3    H216201   0.410   2.079   2.825 -1.3796 -0.1578 -0.5716
 5413TIP3   OH216202   0.175   2.466   2.325  0.7679  0.0555 -0.3561
 5413TIP3    H116203   0.140   2.436   2.409  1.3426  0.0909 -0.1021
 5413TIP3    H216204   0.161   2.561   2.327  2.1934  0.2702  0.3789
 5414TIP3   OH216205   4.456   6.175   2.460  0.1636  0.0259 -0.1159
 5414TIP3    H116206   4.386   6.182   2.525  0.5909 -1.3375  0.5259
 5414TIP3    H216207   4.489   6.264   2.451  0.4721  0.1843  1.9995
 5415TIP3   OH216208   3.390   2.018   3.179  0.0909  0.5866  0.1103
 5415TIP3    H116209   3.346   2.049   3.258  0.9883 -0.0723  0.8805
 5415TIP3    H216210   3.464   2.078   3.167  0.6150  0.0118  0.4216
 5416TIP3   OH216211   3.672   1.692   5.686  0.0853 -0.4184  0.7017
 5416TIP3    H116212   3.615   1.626   5.727  0.5616 -2.4302 -1.6587
 5416TIP3    H216213   3.760   1.672   5.718  0.0960 -0.2039  0.8137
 5417TIP3   OH216214   0.355   1.707   1.305 -0.3009 -0.0876  0.2668
 5417TIP3    H116215   0.320   1.744   1.385  0.7530  1.1643  0.1979
 5417TIP3    H216216   0.432   1.657   1.333 -0.8996 -1.0716  0.2001
 5418TIP3   OH216217   4.876   1.006   0.217  0.0579  0.2918 -0.0745
 5418TIP3    H116218   4.836   1.087   0.186  2.7918  1.6932 -0.2849
 5418TIP3    H216219   4.917   1.030   0.300  0.2936 -1.0944  0.2341
 5419TIP3   OH216220   6.027   5.830   4.551  0.3428 -0.2075 -0.0399
 5419TIP3    H116221   6.121   5.840   4.565  0.2836  0.8218 -0.2685
 5419TIP3    H216222   6.009   5.878   4.470 -0.5909  0.8807  0.7628
 5420TIP3   OH216223   5.928   5.231   1.166  0.4514  0.2186 -0.3511
 5420TIP3    H116224   5.999   5.279   1.122  0.0588  1.6209  0.4804
 5420TIP3    H216225   5.954   5.230   1.258 -1.4021  2.3569  0.2872
 5421TIP3   OH216226   4.735   1.647   5.413 -0.0084  0.5724 -0.3710
 5421TIP3    H116227   4.821   1.671   5.378  0.5171  0.0051  0.4847
 5421TIP3    H216228   4.674   1.704   5.367  0.6508 -0.0690 -2.1256
 5422TIP3   OH216229   5.858   6.251   1.916 -0.3134 -0.0723 -0.5928
 5422TIP3    H116230   5.937   6.203   1.890 -0.0384  0.1435 -0.1535
 5422TIP3    H216231   5.859   6.250   2.011 -2.1791 -2.2944 -0.4933
 5423TIP3   OH216232   0.595   4.383   3.854 -0.2933  0.3954 -0.1207
 5423TIP3    H116233   0.651   4.309   3.878  2.6270  2.4677 -0.0119
 5423TIP3    H216234   0.545   4.402   3.934  1.1031  0.3300  0.7995
 5424TIP3   OH216235   1.349   1.414   4.440  0.3640 -0.5920  0.3700
 5424TIP3    H116236   1.391   1.333   4.470  0.1600 -0.8860 -0.1263
 5424TIP3    H216237   1.271   1.422   4.494  0.3149 -0.7981  0.3309
 5425TIP3   OH216238   0.433   0.175   0.650 -0.2668  0.3645  0.4182
 5425TIP3    H116239   0.512   0.124   0.666 -0.7617 -0.1948  1.1550
 5425TIP3    H216240   0.464   0.264   0.634  0.4749  0.2523  1.1927
 5426TIP3   OH216241   7.157   1.218   5.770  0.2550  0.2672 -0.0109
 5426TIP3    H116242   7.097   1.157   5.726 -0.8479  0.1731  1.5555
 5426TIP3    H216243   7.140   1.206   5.863 -1.2101  4.0970  0.4000
 5427TIP3   OH216244   6.040   6.029   0.900 -0.7991 -0.4183  0.4443
 5427TIP3    H116245   6.102   6.098   0.877  1.3777 -2.7941 -1.3214
 5427TIP3    H216246   6.065   6.004   0.989  1.0552 -1.4911 -0.3199
 5428TIP3   OH216247   6.830   6.005   0.682 -0.0727  0.4633  0.1141
 5428TIP3    H116248   6.850   5.916   0.710  1.7122  0.5974 -0.6019
 5428TIP3    H216249   6.895   6.059   0.726 -0.6333  1.3192 -0.0843
 5429TIP3   OH216250   0.127   0.293   1.263  0.8334  0.5970 -0.3441
 5429TIP3    H116251   0.038   0.303   1.230  0.9512  1.9364 -0.2945
 5429TIP3    H216252   0.161   0.217   1.216 -0.3555 -0.0018 -0.2942
 5430TIP3   OH216253   5.846   4.516   3.942 -0.3256 -0.1513 -0.1665
 5430TIP3    H116254   5.759   4.479   3.951 -0.4401 -0.3631 -1.8530
 5430TIP3    H216255   5.859   4.525   3.847  0.3838  2.4782  0.0879
 5431TIP3   OH216256   2.420   4.136   4.533  0.0174 -0.2444 -0.5367
 5431TIP3    H116257   2.376   4.170   4.455  1.4520 -0.9919 -1.7227
 5431TIP3    H216258   2.353   4.085   4.577 -1.6290  2.3832  0.2495
 5432TIP3   OH216259   6.277   1.666   3.226 -0.0441  0.5750  0.0513
 5432TIP3    H116260   6.345   1.630   3.170  0.7158  0.4569  1.0209
 5432TIP3    H216261   6.207   1.693   3.166  0.3893 -0.3112 -0.8636
 5433TIP3   OH216262   4.373   3.274   1.462 -0.3604  0.1694 -0.6395
 5433TIP3    H116263   4.460   3.235   1.450  0.1551  1.4717 -1.3593
 5433TIP3    H216264   4.388   3.346   1.523 -1.6544 -1.8722  2.3190
 5434TIP3   OH216265   4.350   6.114   3.289  0.3740 -0.1612 -0.4075
 5434TIP3    H116266   4.369   6.131   3.197 -1.2676  0.9156 -0.5785
 5434TIP3    H216267   4.433   6.130   3.334  0.6507  1.5037 -1.4375
 5435TIP3   OH216268   6.372   2.612   1.431  0.0483  0.0858 -0.4089
 5435TIP3    H116269   6.288   2.588   1.391 -0.0889 -1.8670  0.9328
 5435TIP3    H216270   6.437   2.583   1.367 -0.2189 -1.7249  0.0774
 5436TIP3   OH216271   0.201   1.905   0.145 -0.1194  0.1435  0.0291
 5436TIP3    H116272   0.202   1.934   0.054 -1.5317  0.4437  0.0884
 5436TIP3    H216273   0.222   1.983   0.196  1.8635 -0.2723 -0.0455
 5437TIP3   OH216274   1.646   5.243   5.746 -0.6708  0.0616  0.0701
 5437TIP3    H116275   1.569   5.272   5.796 -1.9773 -1.3738 -1.0281
 5437TIP3    H216276   1.612   5.177   5.686  1.1842  0.4224 -1.4669
 5438TIP3   OH216277   5.609   1.867   2.462  0.4214 -0.0311 -0.3027
 5438TIP3    H116278   5.603   1.962   2.466  0.7324 -0.0417  1.2114
 5438TIP3    H216279   5.655   1.849   2.380  0.2594  1.1044 -0.6615
 5439TIP3   OH216280   3.106   6.407   2.437 -0.4279 -0.1787  0.8369
 5439TIP3    H116281   3.198   6.412   2.408 -1.0441 -1.3506 -1.5800
 5439TIP3    H216282   3.068   6.490   2.411 -0.2546  0.0008  1.1436
 5440TIP3   OH216283   0.903   5.562   5.237 -0.3015 -0.2165 -0.3285
 5440TIP3    H116284   0.863   5.622   5.300 -0.7608  0.4022 -1.1797
 5440TIP3    H216285   0.949   5.619   5.175  0.8101 -0.8550 -0.1089
 5441TIP3   OH216286   1.099   3.539   0.640  0.1181  0.3887 -0.2453
 5441TIP3    H116287   1.147   3.611   0.682  1.4688  0.5565 -1.9703
 5441TIP3    H216288   1.166   3.486   0.598 -1.1603  0.6527 -2.7991
 5442TIP3   OH216289   2.722   4.475   2.301 -0.0016  0.4740 -0.6463
 5442TIP3    H116290   2.803   4.466   2.252  0.0382  0.7553 -0.6377
 5442TIP3    H216291   2.709   4.390   2.344  2.1343  1.4175  2.1926
 5443TIP3   OH216292   6.336   0.074   4.095  0.3165  0.0434 -0.1853
 5443TIP3    H116293   6.414   0.126   4.116  1.3479 -1.3159 -0.5458
 5443TIP3    H216294   6.323   0.017   4.170 -0.9750  0.9452  0.3239
 5444TIP3   OH216295   7.166   1.444   1.693  0.0188 -0.1127 -0.4231
 5444TIP3    H116296   7.170   1.486   1.779  3.5321  0.9531 -0.9345
 5444TIP3    H216297   7.107   1.499   1.641 -0.8200  0.1801  0.7982
 5445TIP3   OH216298   0.416   5.090   5.332  0.4899  0.1060  0.4500
 5445TIP3    H116299   0.465   5.010   5.314  0.5662 -0.0198  1.1710
 5445TIP3    H216300   0.326   5.068   5.310  0.4657 -0.2781  0.8972
 5446TIP3   OH216301   0.404   2.498   0.035 -0.0959 -0.0400 -0.2202
 5446TIP3    H116302   0.316   2.530   0.015  0.3720  1.1944 -0.4025
 5446TIP3    H216303   0.394   2.451   0.117 -1.1968 -1.2445 -1.0052
 5447TIP3   OH216304   6.715   3.043   5.470  0.2510 -0.1966 -0.3238
 5447TIP3    H116305   6.777   3.077   5.534 -0.6835  3.4903 -1.1451
 5447TIP3    H216306   6.737   3.088   5.388 -0.7271 -2.1822 -1.7684
 5448TIP3   OH216307   4.666   6.615   2.693  0.1007 -0.0394 -0.0176
 5448TIP3    H116308   4.629   6.678   2.754  0.7355  0.8087 -0.4854
 5448TIP3    H216309   4.757   6.605   2.720  0.0853 -0.5407 -0.1285
 5449TIP3   OH216310   1.976   2.695   5.205 -0.7725  0.0420 -0.1636
 5449TIP3    H116311   1.936   2.749   5.137  0.0750  2.7797  1.3740
 5449TIP3    H216312   1.915   2.699   5.279 -0.3727 -0.5575  0.2148
 5450TIP3   OH216313   5.231   0.162   4.002  0.2421 -0.1590  0.0659
 5450TIP3    H116314   5.173   0.205   3.939  0.5072 -1.1094 -0.8658
 5450TIP3    H216315   5.250   0.077   3.962  0.9004 -0.5453  1.1651
 5451TIP3   OH216316   2.552   2.607   0.276 -0.3073  0.4010  0.0114
 5451TIP3    H116317   2.486   2.549   0.316  0.3891  0.1634  0.8423
 5451TIP3    H216318   2.502   2.661   0.215 -1.0886 -0.6025 -0.2687
 5452TIP3   OH216319   2.489   5.391   4.607 -0.1736 -0.2274  0.3235
 5452TIP3    H116320   2.466   5.305   4.642 -0.0040  0.0920  1.2574
 5452TIP3    H216321   2.453   5.391   4.518 -2.5472 -0.3044  1.1951
 5453TIP3   OH216322   4.085   4.746   5.371  0.0095  0.1677  0.5592
 5453TIP3    H116323   4.089   4.652   5.388  1.6359  0.3758  1.5895
 5453TIP3    H216324   4.131   4.757   5.287 -0.4569  0.0131  0.2824
 5454TIP3   OH216325   4.627   6.390   2.534  0.0126  0.0611  0.5966
 5454TIP3    H116326   4.600   6.330   2.604  0.1848  0.0668  0.6686
 5454TIP3    H216327   4.645   6.472   2.579  0.9461 -0.1745  0.6557
 5455TIP3   OH216328   4.564   0.703   5.442 -0.2591 -0.4296 -0.0557
 5455TIP3    H116329   4.485   0.728   5.394 -1.0181  1.5455  2.0322
 5455TIP3    H216330   4.635   0.748   5.396 -0.6002 -0.6666 -0.8314
 5456TIP3   OH216331   4.015   0.418   1.026 -0.0690 -0.0494 -0.1270
 5456TIP3    H116332   3.990   0.507   1.053 -1.1131 -0.3048 -0.2073
 5456TIP3    H216333   3.992   0.363   1.100 -1.6176 -0.5608 -0.9472
 5457TIP3   OH216334   2.517   5.899   2.552  0.0935 -0.4520 -0.0723
 5457TIP3    H116335   2.580   5.940   2.492  2.1618 -2.1619  0.7842
 5457TIP3    H216336   2.509   5.961   2.624 -1.8483  1.2859 -1.6532
 5458TIP3   OH216337   6.268   1.924   4.363 -0.1777  0.4068 -0.2482
 5458TIP3    H116338   6.326   1.999   4.352  1.4924 -0.9828 -1.4774
 5458TIP3    H216339   6.279   1.898   4.455  0.9303  0.3533 -0.3843
 5459TIP3   OH216340   5.029   4.894   4.985  0.2714 -0.4494  0.1353
 5459TIP3    H116341   4.945   4.852   5.003 -0.2047  0.3246 -0.2177
 5459TIP3    H216342   5.089   4.858   5.050 -1.0153  1.1136  2.3400
 5460TIP3   OH216343   4.030   6.509   0.959  0.7816  0.3102 -0.2690
 5460TIP3    H116344   4.105   6.537   0.906  1.9590 -1.3513  0.4271
 5460TIP3    H216345   4.043   6.552   1.044 -0.2020  1.6291 -0.7387
 5461TIP3   OH216346   4.962   2.518   2.071 -0.2363  0.0268  0.3472
 5461TIP3    H116347   4.995   2.565   1.993  0.7389 -0.4376  0.4612
 5461TIP3    H216348   4.909   2.447   2.035 -1.5300  1.0410  0.1675
 5462TIP3   OH216349   6.111   0.486   5.189 -0.2616 -0.0684  0.0958
 5462TIP3    H116350   6.068   0.495   5.274  0.7427  1.7630  0.4705
 5462TIP3    H216351   6.193   0.535   5.199 -0.4381  0.7843 -2.1514
 5463TIP3   OH216352   5.069   2.281   2.852  0.6306 -0.0787 -0.0129
 5463TIP3    H116353   5.159   2.297   2.878  0.9814 -1.1135 -0.5514
 5463TIP3    H216354   5.076   2.225   2.774 -0.4639  0.1055 -0.2581
 5464TIP3   OH216355   2.806   0.289   1.825 -0.5726  0.3646  0.0429
 5464TIP3    H116356   2.888   0.268   1.780 -0.1240 -1.3411  1.5499
 5464TIP3    H216357   2.816   0.380   1.852  0.4441  0.4465 -0.5481
 5465TIP3   OH216358   5.787   5.420   0.233 -0.1903  0.1540  0.0286
 5465TIP3    H116359   5.748   5.498   0.192  1.0257  1.1606  0.7184
 5465TIP3    H216360   5.877   5.420   0.202 -0.6305 -2.1255 -1.5311
 5466TIP3   OH216361   2.513   6.466   5.702 -0.7152 -0.4502  0.0164
 5466TIP3    H116362   2.580   6.464   5.634 -2.6966 -0.2370 -2.0452
 5466TIP3    H216363   2.559   6.493   5.781  1.0850  2.6941 -1.9488
 5467TIP3   OH216364   0.017   4.658   3.843  0.6506 -0.1899  0.8310
 5467TIP3    H116365  -0.068   4.674   3.802  0.5670  2.0889  1.7429
 5467TIP3    H216366   0.081   4.683   3.776  0.5192  1.7332  1.3435
 5468TIP3   OH216367   4.153   0.922   4.332  0.1185  0.0640 -0.1415
 5468TIP3    H116368   4.118   0.940   4.245 -1.2090 -0.3729  0.2699
 5468TIP3    H216369   4.231   0.977   4.339 -1.4176  2.4780 -0.5000
 5469TIP3   OH216370   2.423   3.185   5.450  0.4203 -0.8637 -0.0872
 5469TIP3    H116371   2.414   3.094   5.479 -1.6753 -0.7807 -0.3479
 5469TIP3    H216372   2.355   3.197   5.384  0.2160  1.0664  0.3997
 5470TIP3   OH216373   4.128   1.167   2.755  0.0143  0.3595  0.3525
 5470TIP3    H116374   4.163   1.133   2.837  0.5121 -1.1712 -0.4525
 5470TIP3    H216375   4.038   1.135   2.753  0.6029 -1.3711 -0.5929
 5471TIP3   OH216376   3.351   0.625   5.439  0.1870 -0.6071  0.9225
 5471TIP3    H116377   3.284   0.684   5.404  0.3880  0.8676  2.8197
 5471TIP3    H216378   3.420   0.626   5.373 -0.0784  0.8396  0.6236
 5472TIP3   OH216379   6.212   2.381   0.151 -0.2086 -0.1746  0.2928
 5472TIP3    H116380   6.298   2.405   0.186  0.1670 -1.7357  0.5479
 5472TIP3    H216381   6.154   2.380   0.226  0.3837 -2.5707  0.8260
 5473TIP3   OH216382   0.136   3.026   0.098  0.1412  0.0529  0.0022
 5473TIP3    H116383   0.052   2.984   0.116  0.0620  0.9601  1.9996
 5473TIP3    H216384   0.144   3.094   0.165  1.2783  1.7574 -1.7485
 5474TIP3   OH216385   3.654   6.385   0.253  0.1182 -0.6962  0.2110
 5474TIP3    H116386   3.706   6.408   0.330  0.1265  0.4163 -0.1063
 5474TIP3    H216387   3.573   6.349   0.289 -0.3579  0.8556  0.7874
 5475TIP3   OH216388   1.721   6.450   5.657 -0.2052 -0.4467  0.0473
 5475TIP3    H116389   1.722   6.400   5.739 -1.8721 -0.5237  0.0608
 5475TIP3    H216390   1.703   6.384   5.590 -0.7684 -0.1003 -0.1409
 5476TIP3   OH216391   2.094   1.416   2.254  0.2145 -0.1109  0.0086
 5476TIP3    H116392   2.086   1.510   2.267  1.3399  0.4263 -2.5139
 5476TIP3    H216393   2.061   1.401   2.165  1.4351 -1.8443 -0.2038
 5477TIP3   OH216394   1.288   2.779   1.344  0.0389  0.0808 -0.2571
 5477TIP3    H116395   1.263   2.696   1.384  0.5035 -0.3884 -0.9215
 5477TIP3    H216396   1.210   2.806   1.294  0.2108 -0.4409 -0.8158
 5478TIP3   OH216397   7.154   5.431   3.480  0.0256 -0.4816  0.4645
 5478TIP3    H116398   7.246   5.445   3.461 -0.4277  1.6647 -0.5174
 5478TIP3    H216399   7.127   5.509   3.529 -1.6380 -0.1312 -0.8776
 5479TIP3   OH216400   7.216   0.544   1.952 -0.5306 -0.2825  0.5050
 5479TIP3    H116401   7.177   0.592   1.879 -2.9072  0.8984  2.4074
 5479TIP3    H216402   7.258   0.468   1.911 -0.8780  0.8443 -2.1452
 5480TIP3   OH216403   3.041   6.370   4.816 -0.1184  0.1292  0.3180
 5480TIP3    H116404   3.105   6.329   4.756 -0.3867  0.4885 -0.2205
 5480TIP3    H216405   3.038   6.310   4.891 -0.4693 -0.8311 -0.4312
 5481TIP3   OH216406   2.684   5.302   4.003  0.0641  0.0023  0.5125
 5481TIP3    H116407   2.774   5.322   3.976  0.3907  0.1093  1.6367
 5481TIP3    H216408   2.687   5.211   4.031  0.5284  0.7516  3.2193
 5482TIP3   OH216409   5.722   0.539   5.211  0.1571  0.3460 -0.1001
 5482TIP3    H116410   5.637   0.501   5.234  0.1566 -1.0769 -2.2490
 5482TIP3    H216411   5.701   0.629   5.186 -0.5817  0.2476  0.1262
 5483TIP3   OH216412   5.621   1.184   3.408  0.5005 -0.0428  0.0347
 5483TIP3    H116413   5.655   1.229   3.330  1.9110  1.9910  1.7414
 5483TIP3    H216414   5.699   1.159   3.458 -0.4071  0.2827  1.6669
 5484TIP3   OH216415   2.722   5.033   4.052  0.1727 -0.3031 -0.2657
 5484TIP3    H116416   2.681   4.950   4.029 -1.0322  0.5067 -1.2091
 5484TIP3    H216417   2.813   5.011   4.071 -0.2074 -1.8741 -0.1116
 5485TIP3   OH216418   1.701   5.238   3.912 -0.3314  0.0717  0.4677
 5485TIP3    H116419   1.708   5.261   4.005  2.1059 -0.6497  0.5380
 5485TIP3    H216420   1.730   5.317   3.866  0.0321 -0.0962  0.4026
 5486TIP3   OH216421   3.498   6.746   4.008 -0.1594  0.1540 -0.0085
 5486TIP3    H116422   3.566   6.766   3.943 -0.0746  0.7819  0.2686
 5486TIP3    H216423   3.416   6.763   3.964 -0.0905  1.1345  0.2161
 5487TIP3   OH216424   4.645   0.261   5.715 -0.4731 -0.7031 -0.0445
 5487TIP3    H116425   4.565   0.235   5.760 -0.7768 -0.0203 -0.1702
 5487TIP3    H216426   4.715   0.219   5.764 -0.7530  0.4350  1.3891
 5488TIP3   OH216427   0.211   1.851   3.569 -0.5668 -0.0389 -0.5944
 5488TIP3    H116428   0.193   1.898   3.650  1.1261  0.6313 -0.5716
 5488TIP3    H216429   0.147   1.779   3.568 -0.9669  0.2593  1.0450
 5489TIP3   OH216430   5.347   2.447   1.919 -0.4453  0.0988 -0.4026
 5489TIP3    H116431   5.438   2.419   1.922 -0.1101  0.7320 -2.9555
 5489TIP3    H216432   5.300   2.380   1.969  1.1913 -1.1989 -0.5240
 5490TIP3   OH216433   1.738   6.791   0.520 -0.3395 -0.4167  0.0527
 5490TIP3    H116434   1.752   6.701   0.549 -0.0175 -0.8009 -1.2403
 5490TIP3    H216435   1.802   6.804   0.450 -1.8983  0.0511 -1.3340
 5491TIP3   OH216436   7.169   3.438   0.958 -0.2363  0.2006  0.2583
 5491TIP3    H116437   7.103   3.490   0.913 -0.3561  0.4530  0.7147
 5491TIP3    H216438   7.189   3.489   1.037  0.9399  0.4364 -0.1712
 5492TIP3   OH216439   6.028   5.716   0.746 -0.0177 -0.4955  0.2889
 5492TIP3    H116440   5.967   5.654   0.707  1.3634 -1.1194 -0.9508
 5492TIP3    H216441   6.014   5.797   0.697  0.0326 -0.5927  0.1137
 5493TIP3   OH216442   0.035   6.523   1.147 -0.3121 -0.2707  0.0563
 5493TIP3    H116443   0.020   6.468   1.224  0.2004 -0.2615  0.1680
 5493TIP3    H216444   0.126   6.552   1.156 -0.9685  1.7015  0.7018
 5494TIP3   OH216445   3.932   4.653   3.433 -0.8088 -0.7597  0.4337
 5494TIP3    H116446   3.890   4.605   3.362 -0.9522  0.8667 -0.6434
 5494TIP3    H216447   3.985   4.720   3.389 -1.4387  0.7397  1.8453
 5495TIP3   OH216448   3.369   3.991   4.364  0.1663  0.6962  0.3633
 5495TIP3    H116449   3.463   3.985   4.346  0.4508  2.5911  0.9577
 5495TIP3    H216450   3.359   3.955   4.452  0.2571  0.1298  0.1486
 5496TIP3   OH216451   2.152   1.817   1.969 -0.3998  0.0578 -0.1694
 5496TIP3    H116452   2.212   1.798   1.897 -1.6144 -1.6918 -0.7937
 5496TIP3    H216453   2.196   1.780   2.046 -1.0043 -2.0747 -0.7665
 5497TIP3   OH216454   2.272   5.611   0.286  0.3685  0.3932  0.8055
 5497TIP3    H116455   2.204   5.648   0.230  0.3866 -0.1854  0.3972
 5497TIP3    H216456   2.354   5.633   0.241  0.3163 -2.7726 -1.1652
 5498TIP3   OH216457   0.949   1.797   4.316  0.0922  0.3298  0.7423
 5498TIP3    H116458   0.872   1.748   4.288 -0.2111  1.8967 -1.4686
 5498TIP3    H216459   0.979   1.752   4.395 -2.5969 -0.8053  1.2354
 5499TIP3   OH216460   6.325   3.216   2.052 -0.1118  0.5216  0.3113
 5499TIP3    H116461   6.414   3.180   2.051 -0.5822 -0.6865 -1.1030
 5499TIP3    H216462   6.276   3.158   2.109 -0.1893  0.7312  0.4617
 5500TIP3   OH216463   4.039   2.578   0.114  0.0051 -0.1218 -0.1820
 5500TIP3    H116464   4.012   2.487   0.108 -1.2028  0.0923  1.4690
 5500TIP3    H216465   4.121   2.576   0.165  0.0755 -0.2941 -0.3027
 5501TIP3   OH216466   1.853   5.067   4.843 -0.6158  0.4338  0.3170
 5501TIP3    H116467   1.819   5.034   4.760  1.7408 -0.0912 -0.5050
 5501TIP3    H216468   1.925   5.008   4.864  0.3879  2.0247  1.4897
 5502TIP3   OH216469   4.988   5.597   4.494 -0.2144 -0.2743  0.1460
 5502TIP3    H116470   4.931   5.603   4.571 -1.0672  1.2704 -0.5597
 5502TIP3    H216471   4.940   5.540   4.433 -0.5393  0.2017 -0.0491
 5503TIP3   OH216472   3.561   3.441   4.043 -0.5055 -0.1401  0.7104
 5503TIP3    H116473   3.541   3.514   4.102 -2.4931 -0.2153  0.1785
 5503TIP3    H216474   3.546   3.476   3.956  1.2653 -0.3928  0.2578
 5504TIP3   OH216475   1.525   5.325   5.182 -0.1395 -0.3041 -0.7844
 5504TIP3    H116476   1.597   5.388   5.184  0.0775 -0.5187  1.5902
 5504TIP3    H216477   1.564   5.243   5.211 -1.0780 -0.7101 -0.6471
 5505TIP3   OH216478   2.008   0.906   0.026 -0.4950 -0.3116 -0.3532
 5505TIP3    H116479   1.942   0.960  -0.016  0.9242  4.0645  2.3945
 5505TIP3    H216480   1.965   0.873   0.105 -0.3221 -0.1968 -0.2114
 5506TIP3   OH216481   2.912   6.403   3.240 -0.1825 -0.4774 -0.9649
 5506TIP3    H116482   2.948   6.333   3.294 -1.3978  0.9881  1.9959
 5506TIP3    H216483   2.826   6.370   3.213  0.1301 -0.9357 -1.4216
 5507TIP3   OH216484   1.140   2.822   3.204 -0.2131 -0.1100  0.2410
 5507TIP3    H116485   1.074   2.849   3.268  1.2705 -1.1279  2.3195
 5507TIP3    H216486   1.222   2.859   3.237  0.7595 -1.5562 -0.4566
 5508TIP3   OH216487   0.131   5.848   2.993  0.1295  0.3844 -0.1203
 5508TIP3    H116488   0.161   5.924   2.943  0.8864  1.1965  1.4755
 5508TIP3    H216489   0.080   5.885   3.066 -0.0690 -0.6728  0.3075
 5509TIP3   OH216490   3.235   2.819   0.627 -0.6120  0.1600 -0.1337
 5509TIP3    H116491   3.177   2.778   0.563  0.5148  1.8919 -2.3883
 5509TIP3    H216492   3.205   2.910   0.632 -0.1435  0.2590  1.2033
 5510TIP3   OH216493   3.223   2.138   2.955  0.4336 -0.8561 -0.1656
 5510TIP3    H116494   3.283   2.074   2.993  0.5891 -0.4914  0.2061
 5510TIP3    H216495   3.148   2.139   3.015  0.1879 -1.0824 -0.4616
 5511TIP3   OH216496   2.990   0.315   5.118  0.2150  0.7465  0.0346
 5511TIP3    H116497   2.970   0.348   5.031 -0.3669 -1.9149 -0.9185
 5511TIP3    H216498   2.914   0.263   5.143  0.9056  0.4076  1.5879
 5512TIP3   OH216499   2.661   1.869   1.917  0.3587  0.4723  0.0215
 5512TIP3    H116500   2.626   1.790   1.876 -0.6744  0.7017  0.4406
 5512TIP3    H216501   2.603   1.885   1.991  3.1687 -0.9663  2.7850
 5513TIP3   OH216502   3.855   1.858   1.147  0.0956  0.0752  0.1637
 5513TIP3    H116503   3.800   1.815   1.082  0.0357  0.0528  0.2299
 5513TIP3    H216504   3.838   1.952   1.134  0.9449  0.1376 -0.6268
 5514TIP3   OH216505   3.535   3.574   2.740  0.2845 -0.1546  0.1064
 5514TIP3    H116506   3.587   3.644   2.779  0.4170  0.2858 -0.8356
 5514TIP3    H216507   3.562   3.572   2.649 -1.9796  0.6830 -0.6487
 5515TIP3   OH216508   5.459   0.873   1.593 -0.2776 -0.2741  0.2403
 5515TIP3    H116509   5.551   0.895   1.586 -0.5994  1.0304 -0.1734
 5515TIP3    H216510   5.426   0.930   1.664 -0.9473 -0.0657 -0.2273
 5516TIP3   OH216511   1.914   0.348   3.577  0.4804  0.0662 -0.0903
 5516TIP3    H116512   1.998   0.361   3.620  0.3704  1.3401 -0.2024
 5516TIP3    H216513   1.865   0.290   3.635  0.7327  0.8754  0.9505
 5517TIP3   OH216514   6.322   3.040   0.027  0.5211 -1.2603  0.3522
 5517TIP3    H116515   6.342   3.119  -0.023  0.7049  0.1504  2.5406
 5517TIP3    H216516   6.384   3.041   0.100 -0.9952 -2.1915  1.7087
 5518TIP3   OH216517   6.945   5.966   4.991 -0.4816 -0.0868 -0.2182
 5518TIP3    H116518   6.998   6.038   5.026 -0.5705  0.3578 -0.9699
 5518TIP3    H216519   6.966   5.891   5.048  1.2639 -0.0363 -0.7299
 5519TIP3   OH216520   4.861   6.670   2.415 -1.1044 -0.1305  0.2198
 5519TIP3    H116521   4.865   6.631   2.502  0.9817  1.2179  0.7873
 5519TIP3    H216522   4.865   6.764   2.430 -1.4504  0.1679 -1.3159
 5520TIP3   OH216523   2.057   4.762   1.260 -0.2229 -0.1429 -0.3121
 5520TIP3    H116524   2.073   4.693   1.195 -2.1851 -2.0490  1.0727
 5520TIP3    H216525   2.046   4.841   1.208 -1.7806 -1.5928 -2.3777
 5521TIP3   OH216526   0.929   5.865   5.614  0.0610  0.2458 -0.0130
 5521TIP3    H116527   0.982   5.785   5.610  0.8055  0.7114  0.3445
 5521TIP3    H216528   0.993   5.936   5.624 -0.5642  0.9326 -0.7325
 5522TIP3   OH216529   3.648   1.428   1.511 -0.2253 -0.2815  0.1386
 5522TIP3    H116530   3.599   1.510   1.503  1.3337  0.8033  1.2763
 5522TIP3    H216531   3.582   1.360   1.496 -1.7224  1.1375 -0.0327
 5523TIP3   OH216532   0.538   1.024   1.391 -0.4800 -0.1102  0.2524
 5523TIP3    H116533   0.570   1.030   1.481 -1.4259  0.1206  0.5784
 5523TIP3    H216534   0.539   0.931   1.372  1.0419 -0.0760  0.0005
 5524TIP3   OH216535   5.983   3.388   0.049  0.2004  0.0309  0.2874
 5524TIP3    H116536   6.011   3.476   0.075  1.8113 -0.3544 -0.0511
 5524TIP3    H216537   6.036   3.330   0.103 -0.9012 -0.7547  0.5510
 5525TIP3   OH216538   2.185   4.516   2.628 -0.9144  0.1628 -0.4394
 5525TIP3    H116539   2.246   4.574   2.584  2.2548 -1.3162  1.6508
 5525TIP3    H216540   2.187   4.436   2.577 -1.3103  0.1810 -0.4860
 5526TIP3   OH216541   2.733   3.716   4.638 -0.3747 -0.1507  0.1056
 5526TIP3    H116542   2.683   3.745   4.561 -0.9519  0.8201  0.8301
 5526TIP3    H216543   2.825   3.726   4.612 -0.5197  2.3500  0.2791
 5527TIP3   OH216544   4.935   0.886   2.176 -0.0116 -0.0305  0.0446
 5527TIP3    H116545   5.018   0.865   2.132 -0.7584 -0.3434 -1.2621
 5527TIP3    H216546   4.902   0.801   2.206 -0.8414 -0.2017 -1.2688
 5528TIP3   OH216547   3.195   5.373   4.354  0.1103  0.4919  0.3291
 5528TIP3    H116548   3.164   5.287   4.381 -0.2859  0.9452  1.3761
 5528TIP3    H216549   3.288   5.374   4.380  0.4801 -0.0962 -0.9063
 5529TIP3   OH216550   0.418   0.643   5.702  0.0899  0.2795  0.1666
 5529TIP3    H116551   0.499   0.682   5.736 -0.2928  0.7429  0.5612
 5529TIP3    H216552   0.357   0.716   5.694 -0.3211 -0.0777 -0.0551
 5530TIP3   OH216553   4.471   4.855   5.231  0.3520 -0.2964  0.1883
 5530TIP3    H116554   4.506   4.856   5.320  1.3504 -1.0429 -0.1731
 5530TIP3    H216555   4.471   4.946   5.204 -1.1900  0.1059  1.3961
 5531TIP3   OH216556   0.204   2.238   3.974 -0.0708 -0.1105 -0.4122
 5531TIP3    H116557   0.138   2.214   3.909 -1.0129  1.0576  0.0647
 5531TIP3    H216558   0.152   2.262   4.051  0.9490  0.3400  0.1439
 5532TIP3   OH216559   2.829   1.487   3.774 -0.2822  0.0988  0.0042
 5532TIP3    H116560   2.834   1.458   3.683 -0.3078 -0.3714  0.1491
 5532TIP3    H216561   2.797   1.410   3.821  1.7363 -0.3759  0.7387
 5533TIP3   OH216562   5.372   5.059   3.075  0.4301  0.5123  0.4737
 5533TIP3    H116563   5.284   5.093   3.058 -0.6896 -3.0473 -2.0218
 5533TIP3    H216564   5.401   5.024   2.990  3.2570 -0.5548  1.7496
 5534TIP3   OH216565   6.127   1.125   5.573 -0.8057  0.1077 -0.3514
 5534TIP3    H116566   6.154   1.076   5.651  0.2271  0.2477 -0.5996
 5534TIP3    H216567   6.065   1.190   5.605 -2.7019 -1.7319 -0.1077
 5535TIP3   OH216568   6.345   1.381   1.175  0.0633  0.1290  0.7075
 5535TIP3    H116569   6.403   1.358   1.103  0.7200 -0.3750  1.3778
 5535TIP3    H216570   6.286   1.306   1.184 -0.7854  0.6883 -0.0454
 5536TIP3   OH216571   1.306   0.562   2.802  0.3326  0.2330  0.0250
 5536TIP3    H116572   1.376   0.618   2.836  0.7446 -0.2475 -0.0096
 5536TIP3    H216573   1.237   0.567   2.868  0.9710 -0.3910  0.7677
 5537TIP3   OH216574   0.777   5.950   4.309  0.5521  0.0494 -0.7824
 5537TIP3    H116575   0.766   6.009   4.235 -0.1826 -0.2934 -0.9590
 5537TIP3    H216576   0.748   6.001   4.385  0.8236  0.2344 -0.8055
 5538TIP3   OH216577   5.376   5.865   4.724  0.0383  0.6822 -0.1554
 5538TIP3    H116578   5.366   5.828   4.636 -1.2281 -0.2793  0.3628
 5538TIP3    H216579   5.443   5.811   4.765  0.9709  1.4250 -0.6611
 5539TIP3   OH216580   0.934   3.113   1.389 -0.1630  0.2824 -0.3719
 5539TIP3    H116581   0.980   3.091   1.308 -0.1518  0.2474 -0.3555
 5539TIP3    H216582   0.861   3.169   1.360 -3.1590 -3.5835 -1.0602
 5540TIP3   OH216583   0.857   6.217   3.691  0.0825  0.4812  0.3571
 5540TIP3    H116584   0.948   6.186   3.690  0.1406  0.5563  1.6248
 5540TIP3    H216585   0.810   6.153   3.637  0.4723 -1.0042  1.6850
 5541TIP3   OH216586   5.216   5.100   2.688  1.1089 -0.2476  0.0064
 5541TIP3    H116587   5.164   5.096   2.768  3.0609 -1.3594  1.2970
 5541TIP3    H216588   5.171   5.041   2.627  1.0286 -1.4997  1.2266
 5542TIP3   OH216589   4.982   2.585   3.431 -0.2394  0.8966 -0.1936
 5542TIP3    H116590   4.903   2.584   3.377 -0.2300  0.0634 -0.2149
 5542TIP3    H216591   5.051   2.617   3.373  0.1820 -1.8111 -1.3344
 5543TIP3   OH216592   2.171   4.580   1.107  0.4107 -0.1635  0.4169
 5543TIP3    H116593   2.232   4.653   1.093  1.8177 -1.1785  0.9423
 5543TIP3    H216594   2.159   4.543   1.020  1.7997 -0.8732  0.4927
 5544TIP3   OH216595   3.314   2.795   0.124 -0.6878 -0.5168 -0.2305
 5544TIP3    H116596   3.390   2.794   0.182 -0.7853  2.9782  0.1646
 5544TIP3    H216597   3.324   2.876   0.073 -3.1783 -0.9399 -1.5440
 5545TIP3   OH216598   5.752   1.368   4.229  0.0846 -0.5450  0.2574
 5545TIP3    H116599   5.743   1.272   4.230 -1.0296 -0.4547  1.4184
 5545TIP3    H216600   5.668   1.400   4.262  0.6155  0.8203  0.3282
 5546TIP3   OH216601   7.102   0.398   4.346 -0.4831 -0.1109  0.0334
 5546TIP3    H116602   7.086   0.310   4.380 -0.8388 -1.3598 -3.0374
 5546TIP3    H216603   7.015   0.435   4.333 -0.3913 -0.0603 -0.4566
 5547TIP3   OH216604   3.857   5.594   0.744  1.2969 -0.6420 -0.2934
 5547TIP3    H116605   3.865   5.662   0.677  0.3953  0.1636  0.3854
 5547TIP3    H216606   3.945   5.559   0.753  1.2708 -1.4214 -2.5493
 5548TIP3   OH216607   1.746   6.335   0.950  0.5377  0.3270  0.1865
 5548TIP3    H116608   1.778   6.326   0.860  0.2805  0.6971  0.0574
 5548TIP3    H216609   1.683   6.263   0.960 -0.2130  0.9061 -0.2774
 5549TIP3   OH216610  -0.021   5.498   0.674 -0.1012  0.2322 -0.5186
 5549TIP3    H116611  -0.047   5.418   0.719 -1.5070  0.6357 -0.5587
 5549TIP3    H216612   0.073   5.490   0.662 -0.2648 -1.5495 -0.7980
 5550TIP3   OH216613   0.737   4.007   5.596 -0.3113  0.0082  0.1326
 5550TIP3    H116614   0.670   3.950   5.560 -2.0645  1.9112  0.2430
 5550TIP3    H216615   0.780   3.954   5.663 -0.1965 -1.9634 -1.3938
 5551TIP3   OH216616   1.098   0.189   0.720  0.0790  0.1018 -0.0362
 5551TIP3    H116617   1.011   0.154   0.739  0.0530  1.6345  3.5484
 5551TIP3    H216618   1.155   0.112   0.721 -0.7721 -0.5637  1.4067
 5552TIP3   OH216619   0.306   0.075   4.469  0.3731 -0.3072  0.0482
 5552TIP3    H116620   0.324  -0.009   4.512  0.0976 -0.1945  0.3915
 5552TIP3    H216621   0.383   0.091   4.414  0.0595 -1.1853 -0.6647
 5553TIP3   OH216622   3.929   0.606   3.411  0.6566 -0.5433  0.1125
 5553TIP3    H116623   3.990   0.680   3.417 -0.4738  0.7799 -2.6526
 5553TIP3    H216624   3.842   0.647   3.417  0.0139 -1.9377  0.5940
 5554TIP3   OH216625   5.590   5.956   0.985  1.0380 -0.8183  0.9671
 5554TIP3    H116626   5.659   5.973   1.049  2.1226 -0.2783 -0.3123
 5554TIP3    H216627   5.633   5.963   0.900 -0.8148  0.7046  0.0706
 5555TIP3   OH216628   1.947   2.503   5.461 -0.3923 -0.2714 -0.0374
 5555TIP3    H116629   1.875   2.565   5.450 -0.8432 -0.0484  3.1194
 5555TIP3    H216630   1.908   2.418   5.442 -1.5701 -0.1585  1.6514
 5556TIP3   OH216631   0.508   5.297   3.251  0.4752  0.2996  0.0845
 5556TIP3    H116632   0.465   5.286   3.336  0.2194 -3.9961 -0.3574
 5556TIP3    H216633   0.453   5.248   3.190  2.4835  0.2900 -1.8278
 5557TIP3   OH216634   7.033   2.825   5.536  0.0595  0.0334 -0.2563
 5557TIP3    H116635   7.032   2.908   5.584  1.3981 -0.4219  0.6131
 5557TIP3    H216636   6.968   2.837   5.467 -0.9723  1.1959  0.8485
 5558TIP3   OH216637   1.682   3.150   1.020 -0.3108  0.3781 -0.1278
 5558TIP3    H116638   1.662   3.149   1.114 -1.1579 -0.9497 -0.3066
 5558TIP3    H216639   1.598   3.163   0.977  0.1556  1.6425 -0.7146
 5559TIP3   OH216640   4.002   5.871   2.112  0.3490 -0.2829 -0.7119
 5559TIP3    H116641   4.071   5.914   2.162 -0.4351  0.7008 -0.4398
 5559TIP3    H216642   3.972   5.800   2.168  0.6322 -0.2487 -0.5162
 5560TIP3   OH216643   1.354   3.227   3.845 -0.2463 -0.1325 -0.5681
 5560TIP3    H116644   1.306   3.225   3.762  0.4658 -2.0804 -1.0007
 5560TIP3    H216645   1.446   3.221   3.819 -0.0413 -1.2401  0.3289
 5561TIP3   OH216646   7.072   3.360   0.548  0.0607  0.1829 -0.3562
 5561TIP3    H116647   7.119   3.443   0.540  2.0265 -0.9491 -1.2373
 5561TIP3    H216648   7.004   3.378   0.613  0.3098  2.5095 -0.6356
 5562TIP3   OH216649   2.115   2.833   2.427  0.7091 -0.4542  0.0265
 5562TIP3    H116650   2.099   2.778   2.350 -1.9626  0.6428 -0.3367
 5562TIP3    H216651   2.051   2.904   2.419  1.5326  0.6595  2.3738
 5563TIP3   OH216652   0.274   5.878   0.443  0.3725 -0.1118  0.3056
 5563TIP3    H116653   0.362   5.916   0.455  1.2368 -2.6845  3.9936
 5563TIP3    H216654   0.287   5.784   0.451 -2.7363 -0.5757  1.4180
 5564TIP3   OH216655   2.873   6.778   3.836 -0.4238  0.4430 -0.5640
 5564TIP3    H116656   2.936   6.708   3.817 -0.7744  0.4187 -1.7444
 5564TIP3    H216657   2.819   6.782   3.757 -1.8428  0.5221  0.3955
 5565TIP3   OH216658   6.088   3.969   3.041 -0.4038 -0.3928  0.0893
 5565TIP3    H116659   6.143   3.976   2.962  1.0771 -2.2202  0.8900
 5565TIP3    H216660   6.143   4.005   3.111 -1.0941 -0.2482  0.5644
 5566TIP3   OH216661   6.452   1.391   2.187  0.0673  0.5786 -0.2283
 5566TIP3    H116662   6.542   1.422   2.190  0.1531  0.2618  1.5018
 5566TIP3    H216663   6.440   1.343   2.270 -0.8848 -1.6673 -1.5655
 5567TIP3   OH216664   4.845   3.076   2.736  0.1231  0.5398  0.3160
 5567TIP3    H116665   4.778   3.099   2.671  1.8711 -1.3712 -2.3907
 5567TIP3    H216666   4.925   3.115   2.702  0.9152  0.5248  2.0503
 5568TIP3   OH216667   1.216   4.644   5.024 -0.2057 -0.1966 -0.3617
 5568TIP3    H116668   1.258   4.723   5.059  0.6469  0.1542 -2.0209
 5568TIP3    H216669   1.281   4.575   5.036 -0.3230 -0.3011 -0.3271
 5569TIP3   OH216670   3.611   0.393   5.725  0.0528 -0.3740  0.4267
 5569TIP3    H116671   3.580   0.392   5.815 -0.7352  1.0178  0.1960
 5569TIP3    H216672   3.531   0.389   5.672  0.5555 -2.4019 -0.2423
 5570TIP3   OH216673   5.545   1.855   0.703 -0.7144  0.1471  0.0312
 5570TIP3    H116674   5.540   1.777   0.647 -1.0484 -0.8944  1.4612
 5570TIP3    H216675   5.535   1.928   0.643 -0.5265 -0.9138 -1.3416
 5571TIP3   OH216676   2.081   3.743   5.364 -0.5043  0.2456  0.1227
 5571TIP3    H116677   2.102   3.666   5.418 -1.4048 -0.5008 -0.5694
 5571TIP3    H216678   2.145   3.741   5.294 -1.4231 -0.7473 -0.7262
 5572TIP3   OH216679   4.304   3.520   1.797 -0.0109 -0.4583  0.4105
 5572TIP3    H116680   4.287   3.614   1.804  3.6175  0.2898  1.0420
 5572TIP3    H216681   4.320   3.491   1.887  2.3967 -0.8117 -0.0677
 5573TIP3   OH216682   6.900   0.749   2.845  0.6586 -0.4516  0.3736
 5573TIP3    H116683   6.839   0.823   2.844  0.8426 -0.3043 -0.1623
 5573TIP3    H216684   6.851   0.679   2.889 -1.0077 -1.2374 -2.4562
 5574TIP3   OH216685   5.042   5.675   0.716  0.3914  0.0813  0.1211
 5574TIP3    H116686   5.020   5.634   0.799  0.8878  0.8336  0.6370
 5574TIP3    H216687   5.045   5.769   0.735  3.9575  0.0917  0.1527
 5575TIP3   OH216688   1.633   0.943   4.512  0.4491  0.4685 -0.3410
 5575TIP3    H116689   1.617   0.901   4.427  1.6657 -3.1476  1.0181
 5575TIP3    H216690   1.546   0.957   4.549 -0.1268 -2.7035 -0.1901
 5576TIP3   OH216691   1.905   5.919   3.429  0.2767  0.2873 -0.1613
 5576TIP3    H116692   1.878   5.979   3.360 -1.3662 -0.0036  0.1936
 5576TIP3    H216693   1.907   5.834   3.387 -2.9414 -0.2795  0.5391
 5577TIP3   OH216694   1.929   4.285   2.850 -0.2740  0.4996  0.3053
 5577TIP3    H116695   1.954   4.209   2.903  1.4499  1.3782  0.8383
 5577TIP3    H216696   1.989   4.354   2.877 -0.2471  1.3965 -1.8122
 5578TIP3   OH216697   3.612   5.822   1.421  0.5475  0.1865  0.3571
 5578TIP3    H116698   3.685   5.762   1.435  1.5471  0.8073 -1.9038
 5578TIP3    H216699   3.589   5.812   1.329 -0.4789  1.9662  0.3732
 5579TIP3   OH216700   6.275   0.079   2.042  0.2577  0.2248  0.2694
 5579TIP3    H116701   6.238   0.131   2.113  0.2184  0.4861  0.0614
 5579TIP3    H216702   6.302  -0.003   2.083  0.2009  0.3588  0.5764
 5580TIP3   OH216703   0.757   0.065   2.272  0.1126 -0.1195 -0.0549
 5580TIP3    H116704   0.840   0.078   2.318  0.9572  1.3784 -1.8964
 5580TIP3    H216705   0.692   0.108   2.327  0.4925 -1.3009  1.4028
 5581TIP3   OH216706   2.043   3.951   0.574  0.0900 -0.9710  0.2650
 5581TIP3    H116707   2.070   3.860   0.568 -0.2659 -0.9993 -1.3993
 5581TIP3    H216708   2.090   3.985   0.650 -0.1794 -2.6629  1.2318
 5582TIP3   OH216709   0.394   3.193   4.792  0.3011 -0.2140  0.4680
 5582TIP3    H116710   0.401   3.127   4.861 -0.7425 -0.4363  0.3753
 5582TIP3    H216711   0.484   3.205   4.761  0.4999 -1.6254  0.4492
 5583TIP3   OH216712   6.053   4.738   1.547  0.3989 -0.1428  0.4015
 5583TIP3    H116713   6.141   4.720   1.515 -0.0823 -0.3622 -0.8502
 5583TIP3    H216714   6.064   4.808   1.611  1.3442  0.7461 -0.6854
 5584TIP3   OH216715   1.221   3.984   1.990 -0.3455 -0.3174  0.5350
 5584TIP3    H116716   1.198   4.047   1.922 -0.7168  0.5316  1.4244
 5584TIP3    H216717   1.172   4.013   2.067  0.4404 -0.9681  1.2976
 5585TIP3   OH216718   2.685   3.185   0.124 -0.0938 -0.0161  0.1870
 5585TIP3    H116719   2.749   3.189   0.195  0.8006  1.4065 -0.6597
 5585TIP3    H216720   2.606   3.224   0.162  0.2831  0.4592  0.4964
 5586TIP3   OH216721   4.177   0.838   3.646 -0.1868  0.2661 -0.4573
 5586TIP3    H116722   4.217   0.785   3.577  0.4480 -0.2240  0.2809
 5586TIP3    H216723   4.185   0.928   3.614  3.1410  0.4067  0.3785
 5587TIP3   OH216724   1.867   2.047   3.411  0.5463  0.1167  0.0898
 5587TIP3    H116725   1.799   2.019   3.471  0.5186 -0.1170 -0.0511
 5587TIP3    H216726   1.923   2.105   3.463 -1.4153  2.7313 -0.5281
 5588TIP3   OH216727   4.208   1.501   4.115  0.2254  0.7960 -0.7932
 5588TIP3    H116728   4.276   1.548   4.163 -0.9680  0.1658  1.6886
 5588TIP3    H216729   4.250   1.419   4.088  0.6779  0.7216  0.0918
 5589TIP3   OH216730   1.798   5.574   3.804  0.2962 -0.2923 -0.2472
 5589TIP3    H116731   1.850   5.645   3.842  0.8541 -1.3818  1.1377
 5589TIP3    H216732   1.765   5.610   3.722  2.2648  0.8703 -0.6162
 5590TIP3   OH216733   2.863   5.482   2.796  0.0564  0.5530 -0.2814
 5590TIP3    H116734   2.768   5.491   2.784 -0.2966 -0.9718  1.0410
 5590TIP3    H216735   2.875   5.394   2.831  1.7996  1.2978  1.1785
 5591TIP3   OH216736   0.530   4.185   1.863 -0.6599 -0.0247 -0.0941
 5591TIP3    H116737   0.486   4.114   1.816 -1.1213  0.5037 -0.4753
 5591TIP3    H216738   0.462   4.251   1.875  0.1956  1.1387 -1.3707
 5592TIP3   OH216739   4.431   2.997   2.150  0.6317 -0.0910 -0.1757
 5592TIP3    H116740   4.479   3.079   2.161  0.7013 -0.0552 -0.7475
 5592TIP3    H216741   4.405   2.973   2.239  1.4163  0.0604  0.1051
 5593TIP3   OH216742   5.456   0.135   1.982 -0.5697  0.3954 -0.2013
 5593TIP3    H116743   5.547   0.107   1.987 -0.7657 -0.3086 -0.4837
 5593TIP3    H216744   5.441   0.180   2.065  0.2225  1.1077 -0.4331
 5594TIP3   OH216745   4.195   2.136   5.692 -0.2477  0.0035  0.3236
 5594TIP3    H116746   4.154   2.203   5.747 -0.1681  0.4847 -0.2030
 5594TIP3    H216747   4.126   2.110   5.631 -0.1979 -0.2169  0.3590
 5595TIP3   OH216748   4.522   6.778   2.908  0.5078  0.0596  0.4936
 5595TIP3    H116749   4.488   6.867   2.899  0.4846  0.1135  1.0459
 5595TIP3    H216750   4.477   6.743   2.985 -0.4671 -0.9039 -0.4839
 5596TIP3   OH216751   6.384   6.775   0.849 -0.1422 -0.2732 -0.0804
 5596TIP3    H116752   6.428   6.764   0.934  0.8541 -2.2379 -0.7845
 5596TIP3    H216753   6.456   6.773   0.785 -1.0483 -1.0875 -1.1031
 5597TIP3   OH216754   6.938   1.971   0.656 -0.2792 -0.1468  0.2717
 5597TIP3    H116755   6.998   1.909   0.615 -0.5023  0.4878 -1.0597
 5597TIP3    H216756   6.982   1.998   0.737 -0.0852 -1.8637  0.7717
 5598TIP3   OH216757   5.955   0.808   3.405 -0.1068  0.0631  0.9631
 5598TIP3    H116758   5.937   0.725   3.361  0.4649  0.8754 -0.8807
 5598TIP3    H216759   6.034   0.840   3.364  0.3161  1.0107  2.4479
 5599TIP3   OH216760   0.601   2.291   1.844 -0.5847 -0.1801 -0.6688
 5599TIP3    H116761   0.659   2.217   1.828  0.3483 -0.1993  2.2661
 5599TIP3    H216762   0.513   2.256   1.831 -0.0717 -1.0225 -2.0209
 5600TIP3   OH216763   1.850   0.754   5.072  0.5640 -0.1604 -0.0977
 5600TIP3    H116764   1.895   0.696   5.012  3.2404  0.9893  0.6538
 5600TIP3    H216765   1.817   0.825   5.017  1.0404 -0.2265 -0.4726
 5601TIP3   OH216766   6.939   3.609   0.206 -0.0905  0.3463  0.4619
 5601TIP3    H116767   6.933   3.568   0.120 -0.5111 -0.4829  0.8717
 5601TIP3    H216768   6.960   3.701   0.188  3.6079 -0.5042 -0.4304
 5602TIP3   OH216769   5.653   5.759   4.708 -0.2283 -0.3719  0.1014
 5602TIP3    H116770   5.719   5.825   4.727 -0.1919 -0.3843  0.0220
 5602TIP3    H216771   5.660   5.696   4.780  0.8022 -1.1040 -0.5999
 5603TIP3   OH216772   1.132   5.084   3.663 -0.1354  0.0236 -0.3942
 5603TIP3    H116773   1.124   5.045   3.750 -0.6746  0.2500 -0.3372
 5603TIP3    H216774   1.095   5.019   3.604  0.8101 -0.3966 -0.5267
 5604TIP3   OH216775   4.798   0.609   2.017 -0.0684 -0.1409  0.3602
 5604TIP3    H116776   4.767   0.678   2.076  0.1157  0.1391  0.1305
 5604TIP3    H216777   4.782   0.643   1.929 -1.6731 -1.1415  0.2189
 5605TIP3   OH216778   2.414   3.895   5.022 -0.6694 -0.1178  0.4744
 5605TIP3    H116779   2.467   3.962   4.978  0.3519 -1.2348 -0.0544
 5605TIP3    H216780   2.329   3.937   5.037  0.6601  2.1551  2.4003
 5606TIP3   OH216781   6.504   6.029   3.791 -0.1821  0.6286 -0.5637
 5606TIP3    H116782   6.462   6.073   3.717 -0.6255 -0.0977 -0.7522
 5606TIP3    H216783   6.470   6.074   3.868 -0.5450  0.6936 -0.7592
 5607TIP3   OH216784   4.896   1.893   0.313 -0.3820  0.1787  0.5759
 5607TIP3    H116785   4.811   1.865   0.347 -1.0395  0.6175 -0.6624
 5607TIP3    H216786   4.901   1.856   0.225 -0.0270  1.5524 -0.0115
 5608TIP3   OH216787   1.464   3.938   3.837  0.0154 -0.0067 -0.5213
 5608TIP3    H116788   1.417   4.014   3.872  0.0325 -0.6739  1.0445
 5608TIP3    H216789   1.555   3.950   3.867 -0.4497 -1.8159  1.9391
 5609TIP3   OH216790   2.288   3.262   4.714 -0.1535  0.1401  0.2101
 5609TIP3    H116791   2.326   3.239   4.799 -0.3441  0.9765  0.5315
 5609TIP3    H216792   2.358   3.308   4.668 -0.1917  0.0811  0.0925
 5610TIP3   OH216793   3.707   4.780   3.627 -0.0214  0.0521 -0.2348
 5610TIP3    H116794   3.737   4.831   3.703  0.8219  1.5931 -1.5185
 5610TIP3    H216795   3.788   4.744   3.589 -0.5755 -2.0100  0.4393
 5611TIP3   OH216796   5.144   5.261   5.446 -0.2848  0.3054  0.7305
 5611TIP3    H116797   5.124   5.214   5.365  1.9423  1.5342 -0.6445
 5611TIP3    H216798   5.172   5.193   5.507 -1.1132 -0.5481  0.1899
 5612TIP3   OH216799   4.485   5.209   0.292 -0.1457  0.3869 -0.0644
 5612TIP3    H116800   4.552   5.151   0.256 -1.8081 -2.6359  1.3259
 5612TIP3    H216801   4.507   5.296   0.257  3.0835 -0.8380 -1.4811
 5613TIP3   OH216802   2.270   0.940   0.461 -0.1839 -0.2391  0.7128
 5613TIP3    H116803   2.321   0.895   0.529  2.3550 -0.6255 -1.2689
 5613TIP3    H216804   2.336   0.986   0.408 -2.2299  1.7123 -0.3298
 5614TIP3   OH216805   0.955   6.629   1.276  0.1459 -0.4346 -0.0841
 5614TIP3    H116806   0.956   6.695   1.206  0.1813 -0.6046 -0.2445
 5614TIP3    H216807   0.885   6.569   1.252 -1.4081  0.7697  1.2128
 5615TIP3   OH216808   1.054   6.179   1.656 -0.7009  0.4346 -0.1223
 5615TIP3    H116809   1.088   6.111   1.714 -2.7276  0.5857  1.3741
 5615TIP3    H216810   1.044   6.137   1.571 -0.7632 -0.7990  0.4827
 5616TIP3   OH216811   2.196   1.950   4.037  0.4600 -0.2241 -0.2570
 5616TIP3    H116812   2.199   1.928   3.944  1.8655 -0.5300 -0.1578
 5616TIP3    H216813   2.255   2.026   4.045 -0.4813  0.4790  0.2181
 5617TIP3   OH216814   2.253   0.859   5.693 -0.7418 -0.3082  0.7460
 5617TIP3    H116815   2.328   0.813   5.729 -0.1539  0.5756  0.6762
 5617TIP3    H216816   2.220   0.801   5.625 -0.1560 -0.7336  0.8192
 5618TIP3   OH216817   2.844   6.256   3.936  0.7756 -0.1454 -0.5887
 5618TIP3    H116818   2.813   6.190   3.997 -2.1526  2.1083  0.6020
 5618TIP3    H216819   2.854   6.335   3.989  3.2878  0.6860 -2.1213
 5619TIP3   OH216820   0.194   4.731   4.068 -0.4366 -0.4349  0.2285
 5619TIP3    H116821   0.175   4.638   4.073 -1.2763 -0.2526  0.4871
 5619TIP3    H216822   0.132   4.765   4.002 -0.6402  0.0656  0.6726
 5620TIP3   OH216823   0.351   4.285   1.610  0.0026  0.0874  0.6170
 5620TIP3    H116824   0.350   4.190   1.622 -0.8653  0.0560  0.4063
 5620TIP3    H216825   0.285   4.301   1.542  1.9471  0.6212 -1.2745
 5621TIP3   OH216826   3.284   3.084   0.515 -0.3862  0.2538  0.5489
 5621TIP3    H116827   3.202   3.102   0.470  1.1281  2.8427 -1.4579
 5621TIP3    H216828   3.347   3.070   0.445  1.5001  1.4987  1.9017
 5622TIP3   OH216829   3.867   1.634   5.876 -0.0896  0.2589  0.4502
 5622TIP3    H116830   3.902   1.550   5.907 -0.1237  0.2582  0.4870
 5622TIP3    H216831   3.941   1.678   5.836  0.6071  1.3693  2.7809
 5623TIP3   OH216832   7.110   1.802   1.354 -0.3600 -0.2513 -0.7519
 5623TIP3    H116833   7.088   1.734   1.418  1.2728  0.5414  0.7496
 5623TIP3    H216834   7.147   1.753   1.280  1.1380 -1.0400  0.4534
 5624TIP3   OH216835   7.093   4.306   3.260 -0.0103  0.0120  0.2629
 5624TIP3    H116836   7.044   4.327   3.181  0.1215 -4.1224 -1.1594
 5624TIP3    H216837   7.182   4.336   3.243  0.0375 -0.9269 -1.2561
 5625TIP3   OH216838   6.699   3.263   3.253  0.1245  0.9198  0.7467
 5625TIP3    H116839   6.719   3.228   3.340  0.3165  0.9354  0.7084
 5625TIP3    H216840   6.778   3.310   3.227  0.6450 -0.3158 -0.0563
 5626TIP3   OH216841   4.686   4.823   2.507 -0.2373 -0.1891 -0.1057
 5626TIP3    H116842   4.733   4.864   2.435  1.4105 -0.8058  0.5569
 5626TIP3    H216843   4.679   4.731   2.481  0.6181 -0.4708  0.6242
 5627TIP3   OH216844   6.130   5.705   2.753  0.3310 -0.0730 -0.3993
 5627TIP3    H116845   6.208   5.652   2.771  0.7042 -0.0227 -1.7627
 5627TIP3    H216846   6.164   5.794   2.742 -0.2779  0.5009  1.7430
 5628TIP3   OH216847   2.914   2.164   2.269  0.1510  0.3069  0.1789
 5628TIP3    H116848   3.005   2.148   2.291  0.2199  2.1191  1.4186
 5628TIP3    H216849   2.916   2.189   2.176  0.5281 -2.2149 -0.5648
 5629TIP3   OH216850   6.389   6.190   3.616 -0.0929  0.3944 -0.2042
 5629TIP3    H116851   6.392   6.140   3.535 -2.4881 -0.4649  0.1446
 5629TIP3    H216852   6.450   6.262   3.603  2.5497 -1.8613 -1.2159
 5630TIP3   OH216853   7.210   2.565   1.639 -0.4416 -0.0422 -0.1027
 5630TIP3    H116854   7.162   2.484   1.655 -0.3799  0.1032  0.8933
 5630TIP3    H216855   7.146   2.623   1.597 -0.8775 -0.1602  0.3878
 5631TIP3   OH216856   4.000   1.862   0.802  0.4131 -1.0006  0.1482
 5631TIP3    H116857   3.912   1.838   0.775  0.3666  0.5357 -1.1655
 5631TIP3    H216858   4.055   1.791   0.770  0.0578 -0.3346 -2.1011
 5632TIP3   OH216859   5.375   1.627   0.086 -0.3565 -0.3265 -0.4174
 5632TIP3    H116860   5.402   1.539   0.060 -0.6280 -0.2230 -1.0502
 5632TIP3    H216861   5.279   1.625   0.084 -0.4166 -0.5076  1.2074
 5633TIP3   OH216862   3.644   1.200   0.036 -0.1776  0.0487 -0.0437
 5633TIP3    H116863   3.714   1.209   0.101 -0.7398 -1.1080  0.7417
 5633TIP3    H216864   3.604   1.287   0.032  0.0173  0.1962  0.9988
 5634TIP3   OH216865   2.322   4.820   3.163  0.0892 -0.1995  0.3727
 5634TIP3    H116866   2.274   4.811   3.080 -0.7526  0.1565  0.8128
 5634TIP3    H216867   2.338   4.914   3.171 -0.3843 -0.1622  0.9160
 5635TIP3   OH216868   0.345   2.396   2.037  0.1758  0.3342  0.1551
 5635TIP3    H116869   0.281   2.369   2.102 -0.1724 -0.7141 -0.5945
 5635TIP3    H216870   0.310   2.365   1.954  1.5872 -0.1365 -0.2964
 5636TIP3   OH216871   0.392   4.086   1.333  0.3906  0.4910  0.3475
 5636TIP3    H116872   0.360   4.140   1.261  0.4926  1.9870  1.3669
 5636TIP3    H216873   0.314   4.061   1.382  0.4566  1.0544  0.7554
 5637TIP3   OH216874   6.801   2.023   2.000 -0.6740  0.0688 -0.0489
 5637TIP3    H116875   6.821   2.099   2.056 -2.2723  0.1539  0.4604
 5637TIP3    H216876   6.708   2.033   1.979 -0.4649 -0.7857 -1.4915
 5638TIP3   OH216877   5.175   1.642   3.777  0.7075 -0.0978  0.9601
 5638TIP3    H116878   5.249   1.586   3.800 -0.0921 -1.0902  1.1393
 5638TIP3    H216879   5.189   1.663   3.685  0.9203 -0.7274  0.8435
 5639TIP3   OH216880   4.377   1.705   4.238  0.3178 -0.0317  0.6452
 5639TIP3    H116881   4.344   1.694   4.327  0.5769  0.5631  0.8155
 5639TIP3    H216882   4.335   1.785   4.206  0.6468  0.0570  0.4302
 5640TIP3   OH216883   0.926   2.012   2.127 -0.1656  0.0610  0.3136
 5640TIP3    H116884   0.979   1.944   2.168  1.5098 -0.7101 -2.8714
 5640TIP3    H216885   0.851   1.964   2.091 -1.9053  0.8085  2.6611
 5641TIP3   OH216886   6.156   0.579   3.032 -0.0010  0.0203 -0.5224
 5641TIP3    H116887   6.115   0.507   2.984  0.9071 -0.6976 -0.2515
 5641TIP3    H216888   6.250   0.568   3.017  0.2642  0.1439  0.8900
 5642TIP3   OH216889   3.267   2.737   2.736 -0.1017  0.4360  0.5903
 5642TIP3    H116890   3.337   2.731   2.671 -2.5225 -1.1989 -2.1379
 5642TIP3    H216891   3.254   2.831   2.748  1.8222  0.7728  0.4119
 5643TIP3   OH216892   6.599   0.547   5.692  0.2132  0.2050 -0.1715
 5643TIP3    H116893   6.552   0.593   5.622  0.4008  0.6389 -0.0108
 5643TIP3    H216894   6.595   0.455   5.666  0.7368  0.4149 -1.0268
 5644TIP3   OH216895   0.450   4.887   4.942  0.0869 -0.5581 -0.6368
 5644TIP3    H116896   0.455   4.978   4.911 -0.4663 -0.9899 -2.0982
 5644TIP3    H216897   0.501   4.837   4.878  1.9531 -1.0935  1.1599
 5645TIP3   OH216898   5.084   3.606   0.074 -0.8685  0.3497  0.0008
 5645TIP3    H116899   5.130   3.594   0.157 -0.4980 -1.0195 -0.3713
 5645TIP3    H216900   5.033   3.525   0.064 -0.4819  0.2578 -1.3621
 5646TIP3   OH216901   5.493   2.498   4.179 -0.2253  0.3843  0.7616
 5646TIP3    H116902   5.557   2.526   4.244  0.9186 -1.0941  0.3388
 5646TIP3    H216903   5.519   2.543   4.098 -1.6470  2.2223  1.2505
 5647TIP3   OH216904   5.076   5.661   1.480 -0.2426 -0.1851 -0.0891
 5647TIP3    H116905   5.033   5.729   1.429 -0.3085 -0.0613  0.1289
 5647TIP3    H216906   5.164   5.656   1.443  0.6665  1.8684  1.5567
 5648TIP3   OH216907   1.521   5.067   1.379  0.0308  0.4368 -0.3660
 5648TIP3    H116908   1.566   5.063   1.463 -0.7855 -1.1513  0.0243
 5648TIP3    H216909   1.527   4.978   1.344 -1.5962  0.5190 -0.9358
 5649TIP3   OH216910   3.953   1.108   5.827  0.1175  0.1938  0.1700
 5649TIP3    H116911   3.930   1.075   5.740  2.1609  1.3571 -0.8951
 5649TIP3    H216912   4.033   1.061   5.851 -0.0722  0.3384  1.1466
 5650TIP3   OH216913   1.470   2.269   0.861 -0.5277  0.0474  0.0086
 5650TIP3    H116914   1.444   2.203   0.797 -0.4016 -1.6588  1.6322
 5650TIP3    H216915   1.565   2.275   0.851 -0.5609  0.1697 -0.2745
 5651TIP3   OH216916   0.833   4.247   0.090  0.0582  0.0775 -0.5092
 5651TIP3    H116917   0.809   4.332   0.128  0.2190  0.0384 -0.3192
 5651TIP3    H216918   0.928   4.252   0.078  0.2238 -0.4613  0.4687
 5652TIP3   OH216919   6.232   3.756   2.210  0.6183  0.1064  0.1074
 5652TIP3    H116920   6.181   3.776   2.132 -1.7762  2.1821  2.0167
 5652TIP3    H216921   6.271   3.671   2.192  1.0090  0.9199 -3.6737
 5653TIP3   OH216922   5.179   6.182   0.742  0.1547 -0.6903  0.2353
 5653TIP3    H116923   5.225   6.255   0.700  0.9567 -1.6069 -0.5332
 5653TIP3    H216924   5.137   6.220   0.819 -0.6061  0.8658 -0.8963
 5654TIP3   OH216925   3.073   4.404   3.451 -0.2476 -0.1525 -0.1368
 5654TIP3    H116926   2.993   4.452   3.428 -0.0657 -0.1397 -0.7524
 5654TIP3    H216927   3.144   4.459   3.419  0.2818  1.8283  3.7908
 5655TIP3   OH216928   1.706   6.413   2.851 -0.1058  0.0501  0.2671
 5655TIP3    H116929   1.750   6.329   2.863  0.4609  0.5170  1.6846
 5655TIP3    H216930   1.773   6.479   2.870 -0.3211  0.8794 -1.5624
 5656TIP3   OH216931   1.114   2.666   4.145 -0.3246  0.7217  0.2029
 5656TIP3    H116932   1.045   2.697   4.204 -0.7973  1.9282 -0.9479
 5656TIP3    H216933   1.175   2.739   4.139 -0.4332  0.7332 -1.0130
 5657TIP3   OH216934   5.802   4.536   0.652 -0.0365 -0.1645  0.4970
 5657TIP3    H116935   5.806   4.515   0.559 -0.3808 -0.8469  0.6321
 5657TIP3    H216936   5.808   4.632   0.655  0.6120 -0.1707 -0.1862
 5658TIP3   OH216937   5.797   1.644   0.776  0.3483 -0.3583 -0.5053
 5658TIP3    H116938   5.839   1.580   0.719 -0.2397 -0.7463 -0.5169
 5658TIP3    H216939   5.846   1.725   0.762  1.0358 -0.7753 -0.5702
 5659TIP3   OH216940   6.960   1.301   1.345  0.5597  0.0670 -0.8562
 5659TIP3    H116941   6.930   1.276   1.432 -0.8122  1.1074 -0.9961
 5659TIP3    H216942   7.042   1.252   1.332  0.5223 -0.4749  0.7992
 5660TIP3   OH216943   0.708   1.699   1.612  0.3020 -0.3943 -0.5421
 5660TIP3    H116944   0.778   1.670   1.670 -0.1407 -1.3209 -0.4479
 5660TIP3    H216945   0.666   1.771   1.660 -1.0603 -2.1563  1.0622
 5661TIP3   OH216946   3.699   4.463   4.021  0.7636  0.2918 -0.2828
 5661TIP3    H116947   3.711   4.473   4.116  0.9076 -1.6526 -0.0429
 5661TIP3    H216948   3.621   4.515   4.001  0.4601  0.3626  0.9894
 5662TIP3   OH216949   5.548   1.993   1.395  0.1607 -0.2418  0.1208
 5662TIP3    H116950   5.503   1.974   1.314  4.3758  2.2330 -3.2304
 5662TIP3    H216951   5.572   1.907   1.430 -2.6720 -1.3997 -0.5208
 5663TIP3   OH216952   0.153   4.978   4.236  0.4816  0.1676 -0.2324
 5663TIP3    H116953   0.082   5.036   4.263  1.9342  1.8243  0.2966
 5663TIP3    H216954   0.113   4.915   4.176 -1.4501  0.8549  0.2813
 5664TIP3   OH216955   1.724   2.085   2.799  0.5509  0.3212  0.2640
 5664TIP3    H116956   1.794   2.075   2.864  0.7435  0.2553  0.0454
 5664TIP3    H216957   1.768   2.076   2.715  0.3227  0.5517  0.1200
 5665TIP3   OH216958   2.837   3.310   3.653  0.1948 -0.1636  0.2298
 5665TIP3    H116959   2.756   3.356   3.633  0.5978  1.1710  1.5002
 5665TIP3    H216960   2.815   3.254   3.727  0.7152  1.2078  1.4668
 5666TIP3   OH216961   4.824   5.221   3.597 -0.3253  0.5671 -0.1868
 5666TIP3    H116962   4.779   5.170   3.665  0.2750  1.8393  1.2278
 5666TIP3    H216963   4.765   5.294   3.578  0.0802  0.9295 -0.0752
 5667TIP3   OH216964   4.800   3.580   0.787 -0.4179 -0.0599  0.4097
 5667TIP3    H116965   4.872   3.640   0.772  0.9826 -2.0184 -1.2086
 5667TIP3    H216966   4.821   3.537   0.870  0.2951 -0.5985 -0.0397
 5668TIP3   OH216967   0.421   3.360   2.126 -0.5964 -0.2508  0.3440
 5668TIP3    H116968   0.337   3.323   2.154 -0.9594 -1.0693 -1.5943
 5668TIP3    H216969   0.487   3.300   2.160 -0.9152 -0.4579  0.5998
 5669TIP3   OH216970   1.820   3.423   0.716 -0.4081 -0.0668 -0.3057
 5669TIP3    H116971   1.815   3.503   0.664  1.5258  0.5652  0.3878
 5669TIP3    H216972   1.903   3.430   0.763 -2.1665 -0.4389  3.1366
 5670TIP3   OH216973   1.656   1.982   3.598 -0.3073 -0.0823  0.6929
 5670TIP3    H116974   1.623   2.022   3.678 -1.9344 -2.1693  1.1845
 5670TIP3    H216975   1.671   1.890   3.622  1.6706 -0.1839 -0.7531
 5671TIP3   OH216976   2.146   3.658   4.140 -0.6843  0.1763  0.8855
 5671TIP3    H116977   2.165   3.565   4.128 -0.7693  0.2995 -0.3867
 5671TIP3    H216978   2.064   3.660   4.191 -0.1317 -0.4167  1.8196
 5672TIP3   OH216979   7.165   5.728   5.542  0.4142 -0.3014  0.3086
 5672TIP3    H116980   7.081   5.769   5.565  0.4105 -0.6560  0.9456
 5672TIP3    H216981   7.144   5.635   5.533  1.0723 -0.6857  2.2860
 5673TIP3   OH216982   7.214   2.402   0.280 -0.0412  0.7974 -0.1902
 5673TIP3    H116983   7.228   2.345   0.355  2.5540  0.4845 -0.8195
 5673TIP3    H216984   7.224   2.345   0.204  2.3185  1.9114 -0.8212
 5674TIP3   OH216985   6.729   3.866   3.838  0.0192 -0.2684  0.3267
 5674TIP3    H116986   6.778   3.948   3.851 -0.8781  0.2484  0.4927
 5674TIP3    H216987   6.690   3.848   3.923  1.5477 -1.7857  0.7764
 5675TIP3   OH216988   6.806   3.941   0.931 -0.1860 -0.2335  0.0509
 5675TIP3    H116989   6.780   3.986   0.850  0.2786  1.5237  0.8319
 5675TIP3    H216990   6.786   4.004   1.001  0.3753 -1.3133  1.2190
 5676TIP3   OH216991   5.589   3.911   1.170 -0.4579 -0.4076 -0.4795
 5676TIP3    H116992   5.615   3.820   1.182 -0.6238 -0.2550  1.3446
 5676TIP3    H216993   5.634   3.939   1.091  0.7569 -1.6466 -0.2614
 5677TIP3   OH216994   0.761   1.367   1.244  0.1867 -0.6377 -0.3888
 5677TIP3    H116995   0.754   1.273   1.233 -3.2581 -0.8638  2.2577
 5677TIP3    H216996   0.792   1.379   1.334  0.5701  0.8035 -0.6715
 5678TIP3   OH216997   0.419   2.101   4.669  0.0345  0.3051  0.3075
 5678TIP3    H116998   0.327   2.128   4.665 -0.0638  0.0009  0.4961
 5678TIP3    H216999   0.417   2.014   4.709  0.5414  1.0105  1.9365
 5679TIP3   OH217000   4.863   6.434   4.221 -0.3780 -0.1639  0.2682
 5679TIP3    H117001   4.853   6.471   4.133 -1.7950  0.0781  0.5126
 5679TIP3    H217002   4.824   6.499   4.279  1.1277 -0.0173  1.1719
 5680TIP3   OH217003   3.054   0.226   1.671  0.3496  0.6596  0.1391
 5680TIP3    H117004   3.101   0.266   1.744  0.4628  1.9398 -0.6036
 5680TIP3    H217005   3.070   0.132   1.680  0.2899  0.7779  1.7995
 5681TIP3   OH217006   6.010   1.149   2.264 -0.1180 -0.2023  0.7040
 5681TIP3    H117007   5.928   1.100   2.263  0.2435 -0.8575 -0.6173
 5681TIP3    H217008   6.055   1.119   2.343 -0.0389 -1.8621  0.0890
 5682TIP3   OH217009   3.866   4.262   4.631 -0.0538 -0.5754 -0.3415
 5682TIP3    H117010   3.895   4.184   4.584 -0.3837 -0.4659 -0.7234
 5682TIP3    H217011   3.915   4.334   4.590  1.0791 -0.6962  0.7238
 5683TIP3   OH217012   6.379   1.278   3.748  0.9101  0.2711  0.1604
 5683TIP3    H117013   6.286   1.264   3.761  1.1224  0.0789  1.6006
 5683TIP3    H217014   6.392   1.267   3.654 -0.4212 -0.1984  0.0141
 5684TIP3   OH217015   4.032   4.118   1.148 -0.0807  0.0874  0.2861
 5684TIP3    H117016   4.039   4.186   1.081 -1.8406  0.7866  0.7451
 5684TIP3    H217017   3.946   4.079   1.133  1.0542 -2.4096 -0.2557
 5685TIP3   OH217018   1.622   0.502   4.894  0.4661  0.3504  0.1000
 5685TIP3    H117019   1.588   0.464   4.975 -1.5889  0.9595 -0.4289
 5685TIP3    H217020   1.660   0.428   4.847 -2.1961 -0.9131 -0.2700
 5686TIP3   OH217021   6.715   4.238   5.034  0.0371  0.5245 -0.2716
 5686TIP3    H117022   6.692   4.179   4.962  0.5552 -1.1757  0.9152
 5686TIP3    H217023   6.741   4.320   4.990  1.2047 -0.7455 -2.0889
 5687TIP3   OH217024   5.946   2.447   4.912 -0.1577  0.0854  0.0328
 5687TIP3    H117025   5.900   2.363   4.909  0.8285 -0.4288 -1.0205
 5687TIP3    H217026   6.038   2.425   4.920  0.0971  1.0857  0.0756
 5688TIP3   OH217027   3.556   1.716   1.476  0.3804  0.3754  0.2475
 5688TIP3    H117028   3.548   1.763   1.558  0.8447  0.0224  0.4994
 5688TIP3    H217029   3.651   1.710   1.460  0.2969  0.4610 -0.3211
 5689TIP3   OH217030   1.283   6.099   0.518 -0.5355  0.0808  0.5463
 5689TIP3    H117031   1.336   6.159   0.571 -0.5916 -0.6171  1.4056
 5689TIP3    H217032   1.335   6.085   0.439 -0.2519  0.7872  0.5962
 5690TIP3   OH217033   7.168   4.125   2.003 -0.1966  0.2670  0.4042
 5690TIP3    H117034   7.212   4.107   1.920  0.2521  0.6774  0.5499
 5690TIP3    H217035   7.146   4.038   2.038  1.3655  0.0028  0.7860
 5691TIP3   OH217036   3.355   1.230   4.622 -0.1294  0.5028 -0.3128
 5691TIP3    H117037   3.422   1.286   4.662  1.6082 -1.5568 -0.1891
 5691TIP3    H217038   3.371   1.143   4.659  0.2769 -1.1184 -3.9231
 5692TIP3   OH217039   2.836   6.542   1.085 -0.1195 -0.0981 -0.1986
 5692TIP3    H117040   2.879   6.627   1.098 -0.3496  0.1712 -1.1571
 5692TIP3    H217041   2.883   6.502   1.012 -0.9270 -0.1844 -0.6745
 5693TIP3   OH217042   6.579   2.974   3.798 -0.2367  0.0096  0.3701
 5693TIP3    H117043   6.645   3.039   3.775  0.2160  0.1102  1.8619
 5693TIP3    H217044   6.520   3.020   3.857 -2.1985  0.1789 -1.5639
 5694TIP3   OH217045   3.016   2.730   3.034  0.1477  0.1313 -0.1142
 5694TIP3    H117046   3.076   2.656   3.029  1.4310  1.2186 -1.2404
 5694TIP3    H217047   2.972   2.732   2.949 -0.7280  0.0089  0.3145
 5695TIP3   OH217048   1.258   2.051   4.079  0.2648  0.1033 -0.9455
 5695TIP3    H117049   1.311   2.107   4.022  0.1893  1.5464  0.3425
 5695TIP3    H217050   1.247   2.102   4.159 -1.6155 -0.8970 -0.5234
 5696TIP3   OH217051   3.395   5.287   1.329 -0.3228  0.0859 -0.0560
 5696TIP3    H117052   3.358   5.256   1.246 -0.0117  1.1928 -0.6373
 5696TIP3    H217053   3.348   5.238   1.396 -1.1801 -0.2317 -0.8574
 5697TIP3   OH217054   6.017   3.874   1.728 -0.0044  0.2474 -0.3266
 5697TIP3    H117055   5.982   3.914   1.648 -0.5848 -1.6202 -1.0722
 5697TIP3    H217056   6.111   3.891   1.724 -0.2911  1.9522 -0.3275
 5698TIP3   OH217057   0.529   5.496   4.489 -0.1875 -0.4113 -0.8698
 5698TIP3    H117058   0.517   5.558   4.417 -3.2880 -0.9468 -0.9463
 5698TIP3    H217059   0.547   5.413   4.447  0.3781 -0.2751 -0.9065
 5699TIP3   OH217060   2.311   4.234   1.079 -0.2784  0.0276 -0.1107
 5699TIP3    H117061   2.286   4.288   1.004  0.3656  1.4707  0.6844
 5699TIP3    H217062   2.233   4.233   1.135 -1.0374 -1.7014 -1.1034
 5700TIP3   OH217063   3.374   6.122   2.453  0.1097  0.2344 -0.1523
 5700TIP3    H117064   3.366   6.118   2.357  0.7075 -0.6893 -0.1746
 5700TIP3    H217065   3.457   6.166   2.468  0.5827 -0.6514 -0.0882
 5701TIP3   OH217066   3.868   4.622   3.816 -0.0175  0.3054 -0.2333
 5701TIP3    H117067   3.820   4.580   3.887 -2.3198  3.3090  0.1966
 5701TIP3    H217068   3.836   4.577   3.737 -1.6501  0.5162  0.2599
 5702TIP3   OH217069   3.317   1.454   5.496  0.0669  0.5102 -0.4509
 5702TIP3    H117070   3.405   1.460   5.458  0.5965 -0.3369  0.6004
 5702TIP3    H217071   3.325   1.496   5.581 -0.5501  0.4076 -0.3417
 5703TIP3   OH217072   4.475   5.776   3.549 -0.4905  0.3434 -0.0081
 5703TIP3    H117073   4.502   5.802   3.637 -0.4360 -0.4408  0.2112
 5703TIP3    H217074   4.547   5.804   3.492  0.8141 -1.6685  0.5609
 5704TIP3   OH217075   3.060   1.039   2.116  0.5514 -0.2042  0.2180
 5704TIP3    H117076   3.107   1.072   2.039  1.3356 -0.5675  0.5349
 5704TIP3    H217077   3.097   0.953   2.132 -0.4935 -0.6579  0.2599
 5705TIP3   OH217078   3.004   2.004   1.703  0.2383 -1.0231  0.0104
 5705TIP3    H117079   3.019   2.062   1.629  0.5904 -0.5757  0.4226
 5705TIP3    H217080   2.935   2.047   1.753  0.5516 -0.9141  0.3575
 5706TIP3   OH217081   0.945   5.467   1.691  0.0466  0.2575 -0.0880
 5706TIP3    H117082   0.897   5.403   1.743 -0.0466  1.5507  1.5140
 5706TIP3    H217083   1.036   5.458   1.721  0.3939 -0.4228 -1.2657
 5707TIP3   OH217084   1.201   0.885   0.856  0.2397 -0.2143 -0.5076
 5707TIP3    H117085   1.196   0.802   0.904  0.6826  0.3233  0.5139
 5707TIP3    H217086   1.110   0.912   0.846  0.1477  0.1592  0.9918
 5708TIP3   OH217087   5.129   3.429   1.411 -0.5292 -0.1085 -0.3851
 5708TIP3    H117088   5.152   3.503   1.355 -1.9442 -1.1658 -2.4702
 5708TIP3    H217089   5.173   3.354   1.371 -1.3090 -0.8452  0.1187
 5709TIP3   OH217090   3.772   5.466   5.707  0.0879  0.1561  0.1288
 5709TIP3    H117091   3.760   5.459   5.802  1.0154  2.3252  0.4845
 5709TIP3    H217092   3.689   5.502   5.675  0.1826  0.5391  0.3045
 5710TIP3   OH217093   5.276   2.878   3.944  0.1543  0.2600 -0.4798
 5710TIP3    H117094   5.339   2.839   3.883  0.8066 -2.2059  1.6011
 5710TIP3    H217095   5.312   2.964   3.964  2.2960 -0.6406 -0.2119
 5711TIP3   OH217096   6.972   4.295   2.087  0.1417 -0.2378 -0.9405
 5711TIP3    H117097   6.888   4.264   2.122  0.3705  0.7541  0.5458
 5711TIP3    H217098   7.022   4.215   2.071 -0.5482 -0.7809 -0.4637
 5712TIP3   OH217099   4.549   0.026   0.939  0.4876 -0.1049 -0.0689
 5712TIP3    H117100   4.517   0.062   1.022 -1.0936  0.3837 -0.8541
 5712TIP3    H217101   4.498  -0.054   0.926  0.7801 -0.2206 -0.5472
 5713TIP3   OH217102   3.181   6.171   3.166  0.2587 -0.3065 -0.0980
 5713TIP3    H117103   3.235   6.228   3.221 -0.2087  1.6752 -1.5611
 5713TIP3    H217104   3.139   6.111   3.227  1.2881  0.4997  1.4677
 5714TIP3   OH217105   3.338   6.141   5.635 -0.6542 -1.0268 -0.4151
 5714TIP3    H117106   3.382   6.063   5.601  0.7136 -1.8921  2.9506
 5714TIP3    H217107   3.394   6.214   5.608 -1.4643 -1.1874 -2.8003
 5715TIP3   OH217108   1.248   5.497   3.622  0.3554 -0.0316 -0.3053
 5715TIP3    H117109   1.294   5.568   3.668  0.0010  0.4676 -0.7089
 5715TIP3    H217110   1.196   5.542   3.556  2.0620 -0.8235 -2.2904
 5716TIP3   OH217111   1.852   3.014   1.265 -0.3815 -0.7494  0.4352
 5716TIP3    H117112   1.800   2.962   1.326 -1.6847  1.0795  0.9760
 5716TIP3    H217113   1.849   3.103   1.300  2.1459 -0.3420 -0.1990
 5717TIP3   OH217114   4.149   0.533   3.144  0.1087  0.1301  0.7133
 5717TIP3    H117115   4.160   0.438   3.152  0.1568  0.1795  1.2145
 5717TIP3    H217116   4.210   0.557   3.073 -0.1248 -0.2513  0.3778
 5718TIP3   OH217117   0.663   0.651   2.054  0.1730 -0.3918 -0.3658
 5718TIP3    H117118   0.673   0.615   2.142  0.7348 -0.9504 -0.6554
 5718TIP3    H217119   0.649   0.745   2.068 -2.3346 -0.7949  0.4674
 5719TIP3   OH217120   0.361   0.363   4.280  0.6132 -0.9350 -0.2922
 5719TIP3    H117121   0.327   0.310   4.208  1.4596  0.6509 -1.9627
 5719TIP3    H217122   0.293   0.360   4.347  0.3210 -3.4531 -0.6040
 5720TIP3   OH217123   6.307   5.046   4.768  0.1427  0.0259 -0.6516
 5720TIP3    H117124   6.389   4.997   4.777 -0.8543 -2.1108 -2.3251
 5720TIP3    H217125   6.244   4.995   4.819 -0.2852  1.3706  0.1996
 5721TIP3   OH217126   4.268   0.948   0.251  0.0126  0.1409 -0.1089
 5721TIP3    H117127   4.175   0.924   0.260 -0.1365  0.7492 -0.0012
 5721TIP3    H217128   4.274   0.987   0.164  0.0907  0.4381  0.0290
 5722TIP3   OH217129   3.344   1.998   5.345 -0.0064 -0.0314 -0.2293
 5722TIP3    H117130   3.352   1.913   5.303  1.5462  0.0455 -0.1598
 5722TIP3    H217131   3.434   2.021   5.368 -0.0419  2.6950 -2.3350
 5723TIP3   OH217132   0.617   5.479   2.717 -0.4891  0.2659 -0.1235
 5723TIP3    H117133   0.604   5.542   2.646 -1.1656  0.1575 -0.0981
 5723TIP3    H217134   0.537   5.484   2.769  0.1945  0.6950  0.9193
 5724TIP3   OH217135   0.389   6.142   2.457 -0.8089 -0.4148  0.0694
 5724TIP3    H117136   0.336   6.221   2.474 -0.3431  0.2712 -1.4827
 5724TIP3    H217137   0.473   6.160   2.499 -1.0683 -0.5556  0.6519
 5725TIP3   OH217138   0.255   2.641   5.900 -0.0686 -0.5716  0.2136
 5725TIP3    H117139   0.332   2.608   5.947  0.1082 -0.6234 -0.1114
 5725TIP3    H217140   0.252   2.590   5.819  1.3064  1.4746 -1.2084
 5726TIP3   OH217141   1.275   3.262   5.527 -0.4762  0.0484  0.1630
 5726TIP3    H117142   1.278   3.259   5.622 -1.5370  1.1846  0.2530
 5726TIP3    H217143   1.194   3.308   5.506 -0.1307  0.0644 -1.2901
 5727TIP3   OH217144   6.293   1.735   4.553  0.3918  0.2985  0.5087
 5727TIP3    H117145   6.207   1.728   4.594  0.0033 -0.6971 -0.3901
 5727TIP3    H217146   6.310   1.647   4.518  1.4448  0.6628  0.0404
 5728TIP3   OH217147   6.659   3.491   0.943  0.5712 -0.1878 -0.3088
 5728TIP3    H117148   6.743   3.493   0.991  0.6554 -2.3001 -0.2858
 5728TIP3    H217149   6.682   3.456   0.857 -0.1385  0.2569 -0.6838
 5729TIP3   OH217150   5.721   4.174   1.693 -0.4591  0.1357  0.1319
 5729TIP3    H117151   5.721   4.121   1.614  1.0815  1.0491 -0.5252
 5729TIP3    H217152   5.664   4.127   1.754  0.5958 -2.0885 -0.5243
 5730TIP3   OH217153   2.042   5.431   1.004  0.3658  0.1791  0.2126
 5730TIP3    H117154   2.082   5.459   1.086  1.1008 -1.8918  0.6114
 5730TIP3    H217155   2.082   5.487   0.937  0.6605  1.0538  1.1021
 5731TIP3   OH217156   1.490   0.333   5.057 -0.0552  0.6269 -0.6950
 5731TIP3    H117157   1.404   0.373   5.045 -0.7410 -0.1735  1.1023
 5731TIP3    H217158   1.477   0.240   5.041 -0.1396  0.1261  1.8197
 5732TIP3   OH217159   4.610   4.658   4.896  0.0742 -0.7697 -0.0511
 5732TIP3    H117160   4.623   4.752   4.912 -0.6301 -0.5650 -0.5895
 5732TIP3    H217161   4.696   4.626   4.870  0.1859 -0.1253 -0.5099
 5733TIP3   OH217162   0.070   4.599   0.209 -0.7591  0.0409 -0.4425
 5733TIP3    H117163   0.088   4.614   0.117 -0.8795 -0.1592 -0.4975
 5733TIP3    H217164   0.081   4.505   0.221  1.0296  0.2800  0.1256
 5734TIP3   OH217165   5.030   5.273   1.147  0.3206 -0.6426  0.4786
 5734TIP3    H117166   5.040   5.207   1.216 -3.8290 -0.5932  1.4006
 5734TIP3    H217167   4.936   5.291   1.145  0.6417  1.6034 -3.2107
 5735TIP3   OH217168   3.982   5.916   4.296  0.7397  0.4393  0.0934
 5735TIP3    H117169   3.987   5.821   4.308 -0.3907  0.2691 -0.5694
 5735TIP3    H217170   3.935   5.927   4.213  0.8476  1.5827  0.1619
 5736TIP3   OH217171   6.613   0.611   2.243 -0.1349  0.4886  0.0754
 5736TIP3    H117172   6.658   0.633   2.324 -0.5021 -2.0133  1.0504
 5736TIP3    H217173   6.535   0.562   2.271 -2.1936  2.5245 -1.6647
 5737TIP3   OH217174   7.083   2.738   2.504 -0.1986 -0.6782  1.1089
 5737TIP3    H117175   7.173   2.748   2.471 -0.7026 -0.7772 -0.4058
 5737TIP3    H217176   7.072   2.809   2.566  0.2145  0.7395 -0.3657
 5738TIP3   OH217177   5.335   5.687   1.410 -0.0110  0.9990 -0.2536
 5738TIP3    H117178   5.415   5.681   1.357  1.3022  0.6968  1.6483
 5738TIP3    H217179   5.314   5.781   1.411 -0.5280  0.9303 -1.8995
 5739TIP3   OH217180   6.273   3.843   1.056  0.6207 -0.5840 -0.0724
 5739TIP3    H117181   6.320   3.771   1.098  0.6407 -0.4332  0.1658
 5739TIP3    H217182   6.333   3.917   1.060 -0.0717 -0.0515  1.3277
 5740TIP3   OH217183   2.813   1.262   3.904 -0.3034  0.0017 -0.0411
 5740TIP3    H117184   2.788   1.169   3.900 -0.5624  0.1049 -1.3748
 5740TIP3    H217185   2.819   1.281   3.998  0.3892 -1.5261  0.2608
 5741TIP3   OH217186   3.000   0.857   3.290  0.1513  0.2429  0.1742
 5741TIP3    H117187   3.027   0.767   3.268  1.0686  0.2753  1.0935
 5741TIP3    H217188   3.033   0.871   3.379  0.3022  1.6038 -0.0733
 5742TIP3   OH217189   3.947   4.383   5.541  0.3850 -0.2642  0.5828
 5742TIP3    H117190   3.956   4.307   5.598 -1.6079 -0.9476  0.0656
 5742TIP3    H217191   3.886   4.355   5.473  0.1766  1.5616 -0.0290
 5743TIP3   OH217192   6.023   1.431   0.990  0.1613  0.0168 -0.6619
 5743TIP3    H117193   6.065   1.484   0.922 -1.0310  0.9099 -0.7346
 5743TIP3    H217194   6.003   1.493   1.060 -1.5156 -0.2431 -0.8585
 5744TIP3   OH217195   5.072   6.553   1.020 -0.3162  0.1763  0.2755
 5744TIP3    H117196   5.144   6.608   0.989 -0.0494 -0.1255  0.3635
 5744TIP3    H217197   4.999   6.577   0.962  0.0074  0.0728 -0.1873
 5745TIP3   OH217198   2.917   0.459   3.931  0.5944  0.3213 -0.3586
 5745TIP3    H117199   3.007   0.455   3.899 -0.1869  0.6227 -2.7595
 5745TIP3    H217200   2.877   0.378   3.899 -0.1099  0.4027  0.3075
 5746TIP3   OH217201   5.724   1.397   5.587 -0.4587 -0.6756  0.5113
 5746TIP3    H117202   5.681   1.481   5.571 -1.5527 -1.1964  0.6475
 5746TIP3    H217203   5.653   1.337   5.608  0.5140 -1.1116  2.7765
 5747TIP3   OH217204   3.421   0.427   5.119  0.1842 -0.0983  0.0220
 5747TIP3    H117205   3.462   0.482   5.186  0.7953 -1.2799  0.6428
 5747TIP3    H217206   3.434   0.476   5.037  1.8422  0.0930  0.3724
 5748TIP3   OH217207   4.740   1.840   1.203 -0.1357  0.1950  0.1820
 5748TIP3    H117208   4.823   1.884   1.186  1.5984 -2.3851  1.2832
 5748TIP3    H217209   4.703   1.822   1.117  0.8443  0.7086 -0.3558
 5749TIP3   OH217210   6.599   5.714   1.616 -0.2269 -0.4142  0.1987
 5749TIP3    H117211   6.537   5.726   1.545 -0.7752  2.2306  0.9902
 5749TIP3    H217212   6.584   5.790   1.674  1.8241 -1.1720  1.8676
 5750TIP3   OH217213   4.075   6.191   2.082 -0.3202 -0.1640 -0.1177
 5750TIP3    H117214   4.115   6.129   2.142  0.5150  0.6936  0.2285
 5750TIP3    H217215   4.142   6.206   2.015  0.3121  1.8927  0.8952
 5751TIP3   OH217216   5.138   6.067   5.194  0.4838  0.6507 -0.4828
 5751TIP3    H117217   5.122   6.162   5.193 -0.8977  0.4301 -1.7829
 5751TIP3    H217218   5.231   6.059   5.216  0.3889  2.2622  0.6846
 5752TIP3   OH217219   3.673   0.931   5.432 -0.2578 -0.8254 -0.1379
 5752TIP3    H117220   3.662   0.913   5.339  0.6456 -0.9097 -0.2439
 5752TIP3    H217221   3.668   0.845   5.474 -0.1609 -0.8461 -0.1680
 5753TIP3   OH217222   4.378   1.486   0.431  0.2767  0.0172 -0.6923
 5753TIP3    H117223   4.397   1.523   0.517 -0.6861 -0.8401 -0.0892
 5753TIP3    H217224   4.320   1.550   0.389 -0.5882 -0.3110 -0.0391
 5754TIP3   OH217225   3.404   5.426   2.509  0.0786  0.6692  0.3802
 5754TIP3    H117226   3.473   5.485   2.478 -0.1587 -0.3797 -2.4641
 5754TIP3    H217227   3.450   5.344   2.527  0.1020  1.0704  2.3628
 5755TIP3   OH217228   6.777   6.552   5.806 -0.1131 -0.0590 -0.1101
 5755TIP3    H117229   6.775   6.476   5.864 -1.5280 -0.8420 -1.1076
 5755TIP3    H217230   6.738   6.622   5.858  0.1600 -0.3085  0.4384
 5756TIP3   OH217231   2.843   2.878   5.090  0.4733  0.4796 -0.1263
 5756TIP3    H117232   2.932   2.862   5.123 -0.0009  1.1312  1.5575
 5756TIP3    H217233   2.848   2.964   5.049  0.5761  0.6100  0.1562
 5757TIP3   OH217234   2.753   2.115   1.791 -0.3912 -0.0228  0.2171
 5757TIP3    H117235   2.713   2.032   1.817  1.7825 -1.7965 -1.6742
 5757TIP3    H217236   2.682   2.165   1.751 -1.5394 -1.3618  0.5028
 5758TIP3   OH217237   2.886   0.914   1.412 -0.5697  0.4697  0.2315
 5758TIP3    H117238   2.847   0.827   1.401  0.5214  0.0076 -0.2122
 5758TIP3    H217239   2.953   0.918   1.343  0.3953  1.0705  1.1871
 5759TIP3   OH217240   3.180   5.131   3.674  0.2850  0.7446 -0.1965
 5759TIP3    H117241   3.215   5.176   3.597 -1.5845  0.7148 -1.1059
 5759TIP3    H217242   3.140   5.051   3.639 -1.2539  1.0945  0.6768
 5760TIP3   OH217243   3.915   0.620   1.761  0.0348  0.1561 -0.1476
 5760TIP3    H117244   3.962   0.698   1.734  0.1901 -0.5818 -2.2314
 5760TIP3    H217245   3.974   0.574   1.820 -0.5258  2.1199  2.0592
 5761TIP3   OH217246   1.532   3.691   3.945 -0.4274  0.1927  0.0986
 5761TIP3    H117247   1.462   3.667   4.005 -0.2500 -0.6163 -0.0013
 5761TIP3    H217248   1.555   3.781   3.968 -0.0962 -0.2302  1.5025
 5762TIP3   OH217249   1.291   0.361   2.217  0.1494  0.2448  0.3604
 5762TIP3    H117250   1.355   0.415   2.263  2.1681 -1.2265 -0.5719
 5762TIP3    H217251   1.291   0.392   2.127  1.5012 -1.3566 -0.2417
 5763TIP3   OH217252   6.903   2.263   4.552  0.9263  0.2019  0.7482
 5763TIP3    H117253   6.907   2.299   4.640  0.5947  2.0956  0.0214
 5763TIP3    H217254   6.975   2.305   4.505  0.0482  0.5421 -0.3400
 5764TIP3   OH217255   2.950   5.246   3.300  0.1847 -0.1863  0.0090
 5764TIP3    H117256   2.933   5.315   3.236  1.9861  0.4134  0.1179
 5764TIP3    H217257   2.866   5.230   3.341 -0.9072 -0.1431 -2.0594
 5765TIP3   OH217258   2.744   0.059   2.524  0.6262  0.3709  0.1883
 5765TIP3    H117259   2.807   0.057   2.453 -0.1677 -1.0951 -0.5345
 5765TIP3    H217260   2.666   0.100   2.487  0.9266  1.6723  0.9138
 5766TIP3   OH217261   2.340   4.995   1.150  0.3629 -0.0649 -0.3508
 5766TIP3    H117262   2.245   4.990   1.158  0.3564  1.8884  1.9373
 5766TIP3    H217263   2.355   5.012   1.057 -1.7812  2.4592 -0.3773
 5767TIP3   OH217264   4.300   3.665   4.604  0.1553 -0.3081 -0.6576
 5767TIP3    H117265   4.373   3.699   4.656  0.2404  0.0282 -0.9877
 5767TIP3    H217266   4.296   3.572   4.627  0.2671 -0.1931 -0.1451
 5768TIP3   OH217267   6.337   2.426   4.642 -0.7384 -0.3985 -0.4799
 5768TIP3    H117268   6.411   2.450   4.698 -0.5198 -1.1894 -0.4182
 5768TIP3    H217269   6.263   2.473   4.679 -0.5421 -0.7086  0.3137
 5769TIP3   OH217270   4.910   6.040   2.291 -0.4590 -0.1703  0.9516
 5769TIP3    H117271   4.869   5.990   2.221  0.2151  0.0375  0.3997
 5769TIP3    H217272   4.937   6.122   2.250  1.1191 -0.5703  1.1106
 5770TIP3   OH217273   5.026   4.511   4.625  0.7578  0.1730 -0.1293
 5770TIP3    H117274   4.980   4.555   4.697  0.9126  2.0378 -1.1022
 5770TIP3    H217275   4.965   4.443   4.596  0.4295 -0.1971  1.3263
 5771TIP3   OH217276   3.654   3.613   4.412 -0.3225 -0.0395  0.4720
 5771TIP3    H117277   3.607   3.542   4.456 -0.4902 -1.6240 -2.0862
 5771TIP3    H217278   3.596   3.642   4.342  1.4081 -0.3276 -1.1801
 5772TIP3   OH217279   5.169   0.396   3.028 -0.3798  0.2226 -0.2619
 5772TIP3    H117280   5.219   0.419   3.106 -1.3787 -0.2782  0.5498
 5772TIP3    H217281   5.188   0.466   2.966  0.1295  0.8405  0.5649
 5773TIP3   OH217282   3.665   5.200   0.886 -0.1585 -0.5582 -0.3202
 5773TIP3    H117283   3.652   5.230   0.796 -1.9346  1.5940  0.5547
 5773TIP3    H217284   3.751   5.158   0.885 -0.2759 -0.9337 -3.0712
 5774TIP3   OH217285   3.891   5.708   5.536 -0.3800  0.0851  0.1618
 5774TIP3    H117286   3.840   5.715   5.617 -1.1700  0.9565 -0.3784
 5774TIP3    H217287   3.934   5.623   5.541 -0.1512  0.2547  1.6393
 5775TIP3   OH217288   2.772   0.426   2.699 -0.1384  0.3007  0.2863
 5775TIP3    H117289   2.780   0.443   2.793 -2.1206  1.6719  0.2459
 5775TIP3    H217290   2.863   0.415   2.669  0.5895  0.8899  2.1455
 5776TIP3   OH217291   7.181   2.688   5.099  0.2067  0.3019 -0.0307
 5776TIP3    H117292   7.129   2.763   5.071  1.5521  1.0987 -0.4768
 5776TIP3    H217293   7.260   2.726   5.136  1.4240 -0.8872 -1.2841
 5777TIP3   OH217294   5.293   0.847   2.893  0.8015  0.2941  0.1607
 5777TIP3    H117295   5.354   0.905   2.939  0.6870  0.7643 -0.2589
 5777TIP3    H217296   5.298   0.876   2.801  0.3916 -0.0537  0.0253
 5778TIP3   OH217297   4.235   6.410   1.226  0.3906  0.0670 -0.0151
 5778TIP3    H117298   4.300   6.452   1.170 -0.1955  1.3040  0.1912
 5778TIP3    H217299   4.275   6.327   1.251  1.8273  0.7319 -0.0050
 5779TIP3   OH217300   1.324   4.705   4.549  0.3143  0.3425 -0.1701
 5779TIP3    H117301   1.299   4.634   4.608  0.1257  0.1930 -0.4302
 5779TIP3    H217302   1.319   4.784   4.604  3.6434 -0.1337  1.0698
 5780TIP3   OH217303   6.207   3.060   2.240  0.1051  0.1902 -0.2631
 5780TIP3    H117304   6.114   3.055   2.218 -0.0941 -2.2026  0.8514
 5780TIP3    H217305   6.210   3.118   2.316 -0.8330 -1.5191  1.1474
 5781TIP3   OH217306   0.479   1.048   0.372 -0.7322 -0.5388  0.0011
 5781TIP3    H117307   0.532   1.102   0.432 -1.0144 -2.0312  1.7008
 5781TIP3    H217308   0.523   0.963   0.373 -0.7789 -0.6226 -1.9530
 5782TIP3   OH217309   2.748   1.043   5.112 -0.4195 -0.4509  0.0342
 5782TIP3    H117310   2.707   1.048   5.199 -0.0015 -0.3703  0.2310
 5782TIP3    H217311   2.836   1.077   5.126 -0.3785 -0.3600 -0.4434
 5783TIP3   OH217312   4.192   3.618   0.455  0.2354 -0.1917 -0.6293
 5783TIP3    H117313   4.199   3.523   0.442  2.0142 -0.0251 -1.1591
 5783TIP3    H217314   4.106   3.630   0.496  1.1198 -2.3221  2.1367
 5784TIP3   OH217315   5.579   1.241   5.754 -0.6900 -0.0375  0.2274
 5784TIP3    H117316   5.657   1.195   5.784 -0.8215 -1.3339 -1.2285
 5784TIP3    H217317   5.517   1.171   5.733 -2.3474  0.9684  1.5583
 5785TIP3   OH217318   3.013   0.374   2.163 -0.3980  0.3377  0.0016
 5785TIP3    H117319   2.974   0.404   2.080  0.6600  1.0704 -0.2572
 5785TIP3    H217320   2.940   0.335   2.211 -0.9977 -0.2586 -1.3471
 5786TIP3   OH217321   2.425   6.077   5.517 -0.5265 -0.3416 -0.0792
 5786TIP3    H117322   2.471   6.019   5.578  0.8158 -0.0189 -0.7289
 5786TIP3    H217323   2.380   6.140   5.573  1.3955  0.4947  0.6241
 5787TIP3   OH217324   3.999   1.161   4.142  0.2111 -0.2364 -0.2421
 5787TIP3    H117325   3.906   1.147   4.157  0.2753  0.3328  0.7811
 5787TIP3    H217326   4.034   1.073   4.124 -0.7332 -0.2750 -2.0591
 5788TIP3   OH217327   4.066   0.806   2.735  0.6362 -0.1918 -0.0648
 5788TIP3    H117328   4.009   0.753   2.791  1.0801 -0.2679  0.3148
 5788TIP3    H217329   4.030   0.895   2.742 -1.2709 -0.6902 -2.1568
 5789TIP3   OH217330   0.007   3.983   2.869 -0.0139  0.1169  0.4700
 5789TIP3    H117331  -0.031   4.066   2.842 -0.5952 -0.7396 -1.4903
 5789TIP3    H217332   0.054   3.951   2.792 -0.2924 -1.6418  0.9818
 5790TIP3   OH217333   5.413   3.775   5.250 -0.4056 -0.0227 -0.0910
 5790TIP3    H117334   5.399   3.736   5.336 -2.0995  0.5169 -0.0884
 5790TIP3    H217335   5.439   3.865   5.268  0.6750 -0.3134 -0.1405
 5791TIP3   OH217336   3.043   3.759   1.056  0.4727 -0.6599  0.1202
 5791TIP3    H117337   3.069   3.699   1.125  1.2337 -1.4248 -0.8051
 5791TIP3    H217338   2.998   3.704   0.992  1.4885 -0.3486 -0.9068
 5792TIP3   OH217339   1.728   2.988   3.629  0.0417 -0.3622  0.2222
 5792TIP3    H117340   1.681   3.043   3.567  3.1970  0.3875 -1.7512
 5792TIP3    H217341   1.689   3.007   3.714 -2.6518  0.6316 -1.1445
 5793TIP3   OH217342   0.326   5.302   2.613  0.1643  0.3555  0.0781
 5793TIP3    H117343   0.334   5.293   2.708  1.2767  1.4394  0.1043
 5793TIP3    H217344   0.416   5.304   2.581 -0.1863  0.9139 -0.9088
 5794TIP3   OH217345   3.480   0.563   1.868  0.1258 -0.3094  0.2198
 5794TIP3    H117346   3.542   0.494   1.842 -0.2984 -0.1967 -1.1812
 5794TIP3    H217347   3.479   0.560   1.963  1.1685 -1.3086  0.2184
 5795TIP3   OH217348   3.465   6.504   4.144  0.1929  0.4042 -0.0211
 5795TIP3    H117349   3.493   6.589   4.110  0.4662  0.8021  1.1597
 5795TIP3    H217350   3.505   6.498   4.231  0.0685 -0.8751 -0.0322
 5796TIP3   OH217351   5.380   1.063   4.532 -0.3730 -0.0550  0.0251
 5796TIP3    H117352   5.407   1.133   4.592 -0.4787  2.8153 -2.9786
 5796TIP3    H217353   5.287   1.049   4.551 -1.1783  2.8996 -1.2110
 5797TIP3   OH217354   4.065   2.189   3.275 -0.1379  0.0235  0.5006
 5797TIP3    H117355   4.027   2.111   3.235 -1.3427  0.5034  0.6815
 5797TIP3    H217356   3.990   2.244   3.298  0.7279  1.7190 -0.5594
 5798TIP3   OH217357   4.964   1.370   4.102  0.2045 -0.6388  0.0901
 5798TIP3    H117358   5.042   1.397   4.150  0.9681 -0.0888 -1.3736
 5798TIP3    H217359   4.974   1.413   4.016 -1.4121 -1.0453 -0.3241
 5799TIP3   OH217360   2.373   3.200   4.947 -0.6979  0.3583  0.2017
 5799TIP3    H117361   2.395   3.266   5.013 -0.1014  1.5924 -1.1699
 5799TIP3    H217362   2.422   3.123   4.973 -0.9760  0.6077  1.5433
 5800TIP3   OH217363   2.834   5.496   1.667  0.3614 -0.3541  0.3522
 5800TIP3    H117364   2.883   5.547   1.602  0.4136 -1.8244 -0.8185
 5800TIP3    H217365   2.762   5.457   1.618  0.1516 -1.1618  1.2609
 5801TIP3   OH217366   5.297   1.027   0.413 -0.1722 -0.1273 -0.0702
 5801TIP3    H117367   5.308   1.115   0.378 -0.7027  0.1396  0.4122
 5801TIP3    H217368   5.368   0.976   0.375  0.3030  0.5803 -0.1303
 5802TIP3   OH217369   4.774   1.948   2.719  0.4890 -0.6563  0.8385
 5802TIP3    H117370   4.856   1.997   2.710 -0.1446  0.2960  0.0417
 5802TIP3    H217371   4.721   2.001   2.778 -0.7001  0.3861 -1.0347
 5803TIP3   OH217372   5.734   1.665   0.404  0.3221  0.1833  0.0732
 5803TIP3    H117373   5.655   1.664   0.458  0.3492  0.7791  0.1369
 5803TIP3    H217374   5.738   1.579   0.364  0.3704 -0.3280  1.1336
 5804TIP3   OH217375   5.889   3.053   4.882 -0.3554 -0.3174 -0.0972
 5804TIP3    H117376   5.957   3.052   4.815  0.1990 -1.7919  0.4445
 5804TIP3    H217377   5.904   3.135   4.930  0.5477 -0.2539 -0.4655
 5805TIP3   OH217378   2.349   0.016   1.102  0.1163 -0.4762  0.5009
 5805TIP3    H117379   2.335  -0.056   1.163 -0.5247  0.1615  1.1213
 5805TIP3    H217380   2.320   0.094   1.149 -0.8250 -0.0239 -0.7729
 5806TIP3   OH217381   1.641   4.289   1.432  0.7180  0.5934  0.5676
 5806TIP3    H117382   1.706   4.221   1.448  0.3211  0.2642  0.7716
 5806TIP3    H217383   1.593   4.259   1.355 -0.3043  0.0100  1.4165
 5807TIP3   OH217384   3.874   3.130   5.474 -0.1368  0.0030  0.4224
 5807TIP3    H117385   3.794   3.184   5.479 -1.4306 -1.7197 -0.4583
 5807TIP3    H217386   3.902   3.138   5.382 -1.0427 -1.6982 -0.0401
 5808TIP3   OH217387   2.057   6.469   2.438 -0.0343  0.2599 -0.4336
 5808TIP3    H117388   1.964   6.482   2.424 -0.1433 -0.3122 -0.2338
 5808TIP3    H217389   2.064   6.443   2.530  0.1100 -1.7640 -0.9723
 5809TIP3   OH217390   0.410   6.227   1.164 -0.4592 -0.3419 -0.0583
 5809TIP3    H117391   0.348   6.279   1.113 -0.0789 -1.0646 -1.3033
 5809TIP3    H217392   0.494   6.238   1.118 -0.0524 -0.7944  0.5666
 5810TIP3   OH217393   3.281   4.552   0.663  0.3822 -0.2262 -0.0228
 5810TIP3    H117394   3.273   4.458   0.644  0.9086 -0.2889  0.0436
 5810TIP3    H217395   3.376   4.566   0.670  0.2581 -0.0208  1.6579
 5811TIP3   OH217396   6.190   6.442   3.445  0.0233 -0.1548 -0.3126
 5811TIP3    H117397   6.214   6.376   3.381  1.3425 -0.2130  0.2073
 5811TIP3    H217398   6.121   6.401   3.497  1.6731 -1.6631  0.7981
 5812TIP3   OH217399   1.441   1.440   2.867 -0.2458  0.2336  0.3483
 5812TIP3    H117400   1.384   1.513   2.892  0.9109  0.7341  1.6563
 5812TIP3    H217401   1.526   1.480   2.848  0.5677 -0.7808  1.6301
 5813TIP3   OH217402   1.884   6.008   0.698 -0.1403 -0.0195 -0.1718
 5813TIP3    H117403   1.791   5.986   0.713  0.0655 -0.1244  1.0488
 5813TIP3    H217404   1.931   5.927   0.720  0.3386  0.4585  0.5780
 5814TIP3   OH217405   2.739   0.895   3.069  0.2392 -0.5861  0.0367
 5814TIP3    H117406   2.683   0.827   3.033 -0.1180 -0.4280  0.2815
 5814TIP3    H217407   2.679   0.954   3.115  0.5207  0.0004 -0.3377
 5815TIP3   OH217408   3.975   3.323   3.730  0.0223 -0.6694  0.5147
 5815TIP3    H117409   3.919   3.347   3.804 -0.9574 -1.2395 -0.0235
 5815TIP3    H217410   4.064   3.337   3.762 -0.3832 -0.8147  1.7663
 5816TIP3   OH217411   1.146   1.438   1.204 -0.8776 -0.5058  0.0824
 5816TIP3    H117412   1.231   1.457   1.165 -1.4586  0.6594 -0.6703
 5816TIP3    H217413   1.117   1.357   1.161 -0.7935 -0.1112 -0.7290
 5817TIP3   OH217414   1.831   3.817   5.554  0.1742 -0.5714  0.0254
 5817TIP3    H117415   1.925   3.806   5.546 -0.0738 -1.9791 -1.4958
 5817TIP3    H217416   1.795   3.729   5.544 -1.3094 -0.1058  0.8137
 5818TIP3   OH217417   0.376   0.726   2.031 -0.2131  0.5589 -0.4280
 5818TIP3    H117418   0.369   0.815   1.997 -0.4161  0.5168 -0.4926
 5818TIP3    H217419   0.418   0.737   2.117 -1.1367  0.8157  0.0076
 5819TIP3   OH217420   5.679   6.567   4.575 -0.3858  0.1482  0.0598
 5819TIP3    H117421   5.745   6.618   4.622 -0.1359  0.4290 -0.5846
 5819TIP3    H217422   5.625   6.631   4.530  0.1015 -0.1525 -0.9803
 5820TIP3   OH217423   3.029   0.871   1.763  0.2239 -0.2178  0.5829
 5820TIP3    H117424   3.057   0.779   1.768  1.3456  0.0371 -0.5081
 5820TIP3    H217425   3.025   0.889   1.669 -2.0327  0.2723  0.7226
 5821TIP3   OH217426   3.356   0.434   3.386  0.6995 -0.1339 -0.1641
 5821TIP3    H117427   3.280   0.451   3.442  0.1530 -1.1080 -0.5785
 5821TIP3    H217428   3.320   0.386   3.311  1.2496  1.9808 -1.8756
 5822TIP3   OH217429   0.789   5.282   1.790  0.6413  0.1938 -0.6660
 5822TIP3    H117430   0.721   5.288   1.857  0.9291 -0.4071 -0.3119
 5822TIP3    H217431   0.832   5.198   1.807  2.7596  1.4039  0.3763
 5823TIP3   OH217432   6.323   1.557   4.167 -0.1747  0.1949  0.0175
 5823TIP3    H117433   6.304   1.472   4.128 -0.6180  0.5802 -0.6234
 5823TIP3    H217434   6.343   1.538   4.258 -0.0924 -0.6144 -0.1653
 5824TIP3   OH217435   0.115   2.886   1.620 -0.6630 -0.1498  0.0874
 5824TIP3    H117436   0.151   2.807   1.577 -1.0700 -1.2738  1.7268
 5824TIP3    H217437   0.020   2.872   1.620 -0.8898  1.1895 -1.1482
 5825TIP3   OH217438   1.945   0.493   4.314  0.6976 -0.6502  0.6889
 5825TIP3    H117439   1.903   0.562   4.365 -1.5509 -1.2057 -0.2988
 5825TIP3    H217440   1.965   0.533   4.230  2.2908 -0.3731  1.1729
 5826TIP3   OH217441   5.596   2.631   2.114  0.3409  0.7895 -0.5339
 5826TIP3    H117442   5.581   2.709   2.167  1.5022  1.3570 -1.0115
 5826TIP3    H217443   5.508   2.595   2.098 -0.1186  1.3385  0.6484
 5827TIP3   OH217444   7.072   2.870   3.139  0.0907 -0.0281 -0.4725
 5827TIP3    H117445   7.166   2.855   3.152  0.6776  3.5840  0.6013
 5827TIP3    H217446   7.067   2.955   3.096 -2.7228 -1.1450 -2.6798
 5828TIP3   OH217447   3.681   2.084   2.311  0.1367  0.1215 -0.5638
 5828TIP3    H117448   3.756   2.053   2.362 -0.9379  0.0285  1.0304
 5828TIP3    H217449   3.707   2.170   2.280  0.6832  0.3534  0.4847
 5829TIP3   OH217450   0.543   5.484   3.674  0.3125  0.5784 -0.1558
 5829TIP3    H117451   0.617   5.438   3.715  0.7284  0.7441 -0.7044
 5829TIP3    H217452   0.480   5.496   3.745  0.9582  0.7368  0.4075
 5830TIP3   OH217453   4.627   3.895   0.027  0.0561  0.6348  0.2791
 5830TIP3    H117454   4.555   3.834   0.044  0.6930 -0.3201 -0.3435
 5830TIP3    H217455   4.624   3.957   0.100  1.0775 -1.7525  2.5343
 5831TIP3   OH217456   5.677   1.261   3.147  0.1598 -0.2408 -0.3538
 5831TIP3    H117457   5.761   1.219   3.129  0.7393  1.6741 -2.6241
 5831TIP3    H217458   5.623   1.240   3.070 -1.0693 -0.4882  0.5470
 5832TIP3   OH217459   4.487   5.570   0.795 -0.7080  0.3400 -0.5421
 5832TIP3    H117460   4.519   5.514   0.725  1.3257 -1.0397  1.3429
 5832TIP3    H217461   4.503   5.659   0.765 -1.7290 -0.1118 -2.5881
 5833TIP3   OH217462   6.401   5.619   1.102 -0.4085  0.2382 -0.3075
 5833TIP3    H117463   6.361   5.625   1.015  0.2258 -1.0706 -0.7108
 5833TIP3    H217464   6.472   5.684   1.100 -0.0216 -0.1908 -0.9814
 5834TIP3   OH217465   3.064   4.038   0.174  0.2477  0.5999 -0.4439
 5834TIP3    H117466   3.135   4.009   0.232 -0.4131  0.6791  0.4179
 5834TIP3    H217467   3.003   3.965   0.171  0.3905  0.5046 -1.2457
 5835TIP3   OH217468   4.641   2.720   0.053  0.2419  0.2400  0.2823
 5835TIP3    H117469   4.670   2.712  -0.037  1.4795 -1.8945  0.8098
 5835TIP3    H217470   4.598   2.637   0.073 -1.5525  1.3054  1.1971
 5836TIP3   OH217471   0.767   5.259   4.634  0.3053  0.8398 -0.0348
 5836TIP3    H117472   0.784   5.341   4.588  0.2013  0.6674 -0.3866
 5836TIP3    H217473   0.780   5.191   4.568 -1.5743  0.6870 -0.2981
 5837TIP3   OH217474   0.339   0.450   2.095 -0.6147 -0.6291  0.5869
 5837TIP3    H117475   0.348   0.538   2.057 -1.0103 -1.2310 -1.0137
 5837TIP3    H217476   0.407   0.446   2.162 -1.8931  1.5957  2.1411
 5838TIP3   OH217477   5.617   3.188   5.205 -0.6232 -0.1361 -1.1484
 5838TIP3    H117478   5.685   3.140   5.158  0.2269  0.5226 -0.6276
 5838TIP3    H217479   5.575   3.122   5.260  0.7870 -0.2357 -0.1527
 5839TIP3   OH217480   2.011   1.389   1.989 -0.4603 -0.0097  0.3381
 5839TIP3    H117481   1.986   1.315   1.935  1.4377 -0.6902  0.3283
 5839TIP3    H217482   2.053   1.450   1.928 -0.2422  0.1762  0.6704
 5840TIP3   OH217483   4.906   0.447   1.722  0.3775  0.0302  0.4693
 5840TIP3    H117484   4.856   0.367   1.736  0.0696  0.1291 -0.0279
 5840TIP3    H217485   4.844   0.507   1.681  0.8975  0.1521 -0.1535
 5841TIP3   OH217486   4.807   6.805   3.109 -0.2497  0.2369  0.6688
 5841TIP3    H117487   4.902   6.811   3.096 -0.3054 -0.7723 -0.3628
 5841TIP3    H217488   4.789   6.711   3.111 -1.4419  0.3869 -0.9863
 5842TIP3   OH217489   2.282   5.871   0.922 -0.1824 -0.3121 -0.2565
 5842TIP3    H117490   2.322   5.862   1.008  0.1623  3.3903  0.1120
 5842TIP3    H217491   2.355   5.860   0.860  0.2199  0.3856  0.0937
 5843TIP3   OH217492   5.450   3.752   5.737  0.1640 -0.0630 -0.3880
 5843TIP3    H117493   5.487   3.729   5.822 -1.9369  2.7173  1.4557
 5843TIP3    H217494   5.520   3.798   5.691  1.0071 -0.6921  0.2444
 5844TIP3   OH217495   3.857   4.198   0.230 -0.5788 -0.1517 -0.6453
 5844TIP3    H117496   3.762   4.186   0.235 -1.4509  4.3963 -1.7451
 5844TIP3    H217497   3.876   4.198   0.136  0.1313  1.0215 -0.5117
 5845TIP3   OH217498   3.405   0.763   1.433  0.1171  0.3139 -0.0151
 5845TIP3    H117499   3.471   0.825   1.402  0.3094  1.0177  1.6738
 5845TIP3    H217500   3.441   0.729   1.515 -1.5050  0.5603  0.8328
 5846TIP3   OH217501   2.550   0.867   0.085 -0.0076 -0.0647  0.3668
 5846TIP3    H117502   2.583   0.796   0.141 -1.8543 -0.8123  0.5656
 5846TIP3    H217503   2.549   0.829  -0.003 -0.5300 -0.1304  0.3980
 5847TIP3   OH217504   5.672   3.353   5.750 -0.1601 -1.1181  0.1085
 5847TIP3    H117505   5.718   3.435   5.728  2.2501 -2.2935  0.4164
 5847TIP3    H217506   5.579   3.376   5.745  0.3817  1.0699 -1.9579
 5848TIP3   OH217507   6.581   3.288   0.088  0.4326 -0.3079  0.2040
 5848TIP3    H117508   6.627   3.278   0.005 -0.2714 -1.5046 -0.0607
 5848TIP3    H217509   6.648   3.319   0.149  1.0622  0.1365 -0.6889
 5849TIP3   OH217510   4.383   6.356   5.023 -0.0931 -0.5213  0.1557
 5849TIP3    H117511   4.328   6.284   5.052 -1.2550 -0.3920 -1.5769
 5849TIP3    H217512   4.441   6.317   4.957  0.9858 -0.3554  0.9679
 5850TIP3   OH217513   3.574   1.965   4.726 -0.1979 -0.1946  0.3939
 5850TIP3    H117514   3.592   1.908   4.800  0.7587  0.0334  0.3533
 5850TIP3    H217515   3.619   1.924   4.652  1.0653  0.9252  0.5040
 5851TIP3   OH217516   0.025   6.727   0.644 -0.1487  0.3313 -0.3521
 5851TIP3    H117517   0.099   6.774   0.606 -0.1559  0.0330 -0.7357
 5851TIP3    H217518   0.008   6.772   0.727  1.2996 -0.4046  0.3748
 5852TIP3   OH217519   2.103   6.726   3.861 -0.2882 -0.4979  0.2907
 5852TIP3    H117520   2.084   6.809   3.904  1.1329 -0.7824  1.5462
 5852TIP3    H217521   2.020   6.678   3.864 -1.0533  0.7446 -0.2320
 5853TIP3   OH217522   1.685   2.488   2.279 -0.2799  0.5682 -0.1937
 5853TIP3    H117523   1.635   2.563   2.245 -1.4374 -0.1688 -0.2034
 5853TIP3    H217524   1.740   2.462   2.205  0.8681  1.9828  0.1161
 5854TIP3   OH217525   1.896   0.217   5.454 -0.2511  0.1370 -1.0620
 5854TIP3    H117526   1.940   0.137   5.426 -1.4508 -0.3759 -1.5550
 5854TIP3    H217527   1.838   0.189   5.525 -0.2280  0.6860 -0.8183
 5855TIP3   OH217528   1.883   4.498   3.840  0.5330 -0.6053  0.2526
 5855TIP3    H117529   1.837   4.559   3.782  0.5426  0.4785  1.3348
 5855TIP3    H217530   1.817   4.432   3.862 -0.3462  0.5315  1.2017
 5856TIP3   OH217531   7.101   4.589   4.410  0.1869 -0.1769 -0.3915
 5856TIP3    H117532   7.085   4.526   4.481  0.9915  0.6117  0.5147
 5856TIP3    H217533   7.176   4.553   4.363 -0.4705 -0.8036 -0.9758
 5857TIP3   OH217534   4.305   5.265   2.111  0.0204 -0.3406  0.2530
 5857TIP3    H117535   4.389   5.278   2.156 -1.3260  0.9215  2.6286
 5857TIP3    H217536   4.252   5.340   2.138 -1.2146  0.1015 -2.9543
 5858TIP3   OH217537   2.789   3.729   5.024  0.2807 -0.5115 -0.2388
 5858TIP3    H117538   2.859   3.754   5.084 -0.2426  1.8402 -0.4874
 5858TIP3    H217539   2.793   3.795   4.954 -0.9584 -1.4584 -1.2573
 5859TIP3   OH217540   1.395   3.867   5.594  0.4550  0.2428 -0.1775
 5859TIP3    H117541   1.307   3.835   5.575  0.2386  1.2288 -0.9350
 5859TIP3    H217542   1.434   3.800   5.650 -1.0198  0.1353  0.7610
 5860TIP3   OH217543   6.470   1.028   3.958 -0.3951 -0.5053 -0.0372
 5860TIP3    H117544   6.436   1.000   3.873 -0.8596  0.4530 -0.1733
 5860TIP3    H217545   6.539   1.091   3.936  0.9089 -1.7757  0.2579
 5861TIP3   OH217546   4.931   5.974   5.367 -0.6938  0.2564 -0.3598
 5861TIP3    H117547   5.010   5.998   5.317 -0.7464 -0.7189 -0.9289
 5861TIP3    H217548   4.954   5.996   5.458  1.0277 -1.8329 -0.2035
 5862TIP3   OH217549   0.621   3.315   4.240 -0.1646  0.0433  0.2285
 5862TIP3    H117550   0.536   3.351   4.216 -0.4833 -0.0449  1.1653
 5862TIP3    H217551   0.667   3.387   4.282 -0.0199 -0.0725  0.2699
 5863TIP3   OH217552   4.050   2.817   4.210  0.2727  0.0502 -0.1969
 5863TIP3    H117553   4.078   2.799   4.120  1.9223  1.0748  0.0691
 5863TIP3    H217554   4.082   2.742   4.260 -1.0292 -0.7407 -0.4846
 5864TIP3   OH217555   2.089   6.797   5.611 -0.0614  0.7073  0.3810
 5864TIP3    H117556   2.167   6.744   5.623  0.7269  1.8418  0.4586
 5864TIP3    H217557   2.114   6.862   5.545 -1.0819  0.8123  0.0852
 5865TIP3   OH217558   7.136   1.287   3.545 -0.3085 -0.0067 -0.0896
 5865TIP3    H117559   7.223   1.316   3.573 -0.9820  1.2941  0.7587
 5865TIP3    H217560   7.077   1.354   3.578 -1.7311 -1.2657  0.0138
 5866TIP3   OH217561   1.076   3.970   2.537  0.0567  0.8886 -0.2799
 5866TIP3    H117562   1.100   4.057   2.505 -0.7587  1.3325  0.3018
 5866TIP3    H217563   1.113   3.966   2.625  0.1004  0.6321 -0.3084
 5867TIP3   OH217564   3.343   5.312   5.700  0.0879  0.0174 -0.0569
 5867TIP3    H117565   3.254   5.342   5.680  0.4456  1.0603 -0.1304
 5867TIP3    H217566   3.397   5.351   5.631  0.4916 -1.3525 -0.5505
 5868TIP3   OH217567   2.618   3.955   4.502  0.4917 -0.1865 -0.0718
 5868TIP3    H117568   2.543   4.010   4.524 -0.5865 -0.8995 -1.7426
 5868TIP3    H217569   2.694   4.008   4.524 -0.5129  1.7204 -0.9512
 5869TIP3   OH217570   3.738   2.536   5.406  0.2145  0.7411  0.3436
 5869TIP3    H117571   3.710   2.448   5.379 -0.9213  0.6890  1.5724
 5869TIP3    H217572   3.657   2.587   5.410  0.9304  2.0535 -0.9824
 5870TIP3   OH217573   4.611   0.071   0.542  0.2023 -0.4157 -0.5466
 5870TIP3    H117574   4.696   0.027   0.543  0.2061 -0.4026 -0.1967
 5870TIP3    H217575   4.549   0.005   0.572  0.5443  0.4837  2.4231
 5871TIP3   OH217576   6.040   5.331   4.259  0.0277  0.7549 -0.0543
 5871TIP3    H117577   6.046   5.288   4.344 -1.3074  2.9910  1.2635
 5871TIP3    H217578   6.070   5.265   4.196 -0.2781 -1.4419  1.9914
 5872TIP3   OH217579   2.807   1.048   1.914 -0.2913 -0.4906  0.1083
 5872TIP3    H117580   2.892   1.039   1.956  1.2367  2.1647 -2.1102
 5872TIP3    H217581   2.755   1.101   1.976  1.7225  2.8637 -0.8196
 5873TIP3   OH217582   4.759   4.877   2.789 -0.3424 -0.0367 -0.6118
 5873TIP3    H117583   4.772   4.917   2.703 -0.3766 -1.9292 -1.5535
 5873TIP3    H217584   4.847   4.847   2.815 -0.2494  0.9307  0.2494
 5874TIP3   OH217585   1.823   4.367   3.234  0.2753  0.1555 -0.2300
 5874TIP3    H117586   1.918   4.380   3.234 -0.0157  2.7265  0.6969
 5874TIP3    H217587   1.805   4.326   3.150  2.1878 -0.3064 -0.4653
 5875TIP3   OH217588   3.083   1.355   5.622 -0.6992  0.4181  0.2529
 5875TIP3    H117589   3.110   1.347   5.714  0.6988  2.6191  0.1120
 5875TIP3    H217590   3.164   1.376   5.575 -1.6824  1.1525 -1.1978
 5876TIP3   OH217591   1.582   3.102   5.841  0.2363  0.2841  0.1287
 5876TIP3    H117592   1.574   3.115   5.935  1.2419  0.9392  0.1404
 5876TIP3    H217593   1.499   3.063   5.815  0.5736 -1.4818  1.5457
 5877TIP3   OH217594   3.871   2.309   3.820 -0.0902 -0.2698  0.4577
 5877TIP3    H117595   3.872   2.366   3.897  2.0741  0.8369 -0.2778
 5877TIP3    H217596   3.845   2.367   3.748 -1.6966 -1.1907  0.2643
 5878TIP3   OH217597   5.554   2.065   3.042  0.2639  0.0755  0.3130
 5878TIP3    H117598   5.499   2.106   3.108 -1.6115 -1.2674 -0.3264
 5878TIP3    H217599   5.564   2.131   2.973 -0.3436  0.4211  0.5540
 5879TIP3   OH217600   2.428   1.102   4.767  0.4170 -0.1556 -0.0596
 5879TIP3    H117601   2.415   1.192   4.738 -1.3094 -0.2097  0.4667
 5879TIP3    H217602   2.413   1.104   4.861 -2.5460 -1.4255 -0.3920
 5880TIP3   OH217603   6.475   6.298   0.875 -0.9478  0.0743  0.6329
 5880TIP3    H117604   6.506   6.238   0.943  1.3683  0.3992 -0.0299
 5880TIP3    H217605   6.496   6.254   0.793  0.6687  1.6591  0.1371
 5881TIP3   OH217606   3.817   1.670   0.394  0.6133  0.0753 -0.0824
 5881TIP3    H117607   3.734   1.717   0.380  1.5789  1.1915 -2.9729
 5881TIP3    H217608   3.792   1.589   0.439 -1.8719  0.8887  0.1516
 5882TIP3   OH217609   1.574   5.548   5.598 -0.1179  0.2252  0.0935
 5882TIP3    H117610   1.500   5.528   5.542 -0.4301 -2.4569  1.3214
 5882TIP3    H217611   1.536   5.594   5.673 -0.7870 -2.0219  1.2039
 5883TIP3   OH217612   6.727   4.974   4.661 -0.2899  0.7271  0.1217
 5883TIP3    H117613   6.817   4.968   4.692 -0.0110 -1.5575 -0.9402
 5883TIP3    H217614   6.728   5.046   4.598  0.6952  0.9839  0.4194
 5884TIP3   OH217615   6.650   4.646   1.360 -0.6980  0.1244 -0.4404
 5884TIP3    H117616   6.736   4.622   1.326 -0.1271  0.6747  0.5675
 5884TIP3    H217617   6.627   4.727   1.313  1.2099  2.3208  2.0810
 5885TIP3   OH217618   2.304   3.353   2.880  0.0689 -0.5057  0.0082
 5885TIP3    H117619   2.307   3.292   2.806 -3.0724  0.6031 -1.2082
 5885TIP3    H217620   2.289   3.298   2.956  1.0864 -1.4978 -0.4813
 5886TIP3   OH217621   7.215   2.245   5.790 -0.0393  0.0844 -0.3053
 5886TIP3    H117622   7.131   2.204   5.768 -1.2008  1.4138  1.3807
 5886TIP3    H217623   7.253   2.268   5.705 -0.6503 -1.8940 -1.1657
 5887TIP3   OH217624   4.670   3.300   5.535  0.5921  1.1865  0.1562
 5887TIP3    H117625   4.672   3.381   5.483 -0.3180  1.7558  0.9653
 5887TIP3    H217626   4.626   3.326   5.616  0.5049 -0.0777  0.5221
 5888TIP3   OH217627   1.988   1.881   0.946 -0.2571  0.0178 -0.5742
 5888TIP3    H117628   2.065   1.830   0.970 -0.0119  0.5083 -0.2960
 5888TIP3    H217629   2.007   1.969   0.979  0.0963  0.7288 -2.5391
 5889TIP3   OH217630   6.229   6.693   5.747 -0.0493 -0.0687  0.0303
 5889TIP3    H117631   6.261   6.762   5.689 -2.2764  0.0800 -1.1343
 5889TIP3    H217632   6.138   6.718   5.766  0.2790 -0.6899  2.7456
 5890TIP3   OH217633   6.840   5.666   2.378 -0.6089  0.5876 -0.5629
 5890TIP3    H117634   6.808   5.644   2.291  2.0053 -0.3804 -1.3843
 5890TIP3    H217635   6.888   5.748   2.366 -0.2358  0.4517 -0.0412
 5891TIP3   OH217636   5.800   2.326   1.589 -0.6028 -0.2238  0.2511
 5891TIP3    H117637   5.882   2.375   1.587 -1.1786  0.7886  0.8874
 5891TIP3    H217638   5.766   2.333   1.500 -0.4794  0.1695  0.2364
 5892TIP3   OH217639   2.165   2.400   5.282 -0.1973 -0.0583 -0.2471
 5892TIP3    H117640   2.119   2.475   5.319 -1.5248 -1.4548  1.1233
 5892TIP3    H217641   2.104   2.364   5.218  0.2147 -0.2661 -0.5239
 5893TIP3   OH217642   6.663   4.074   0.483 -0.3688 -0.1555 -0.0274
 5893TIP3    H117643   6.590   4.112   0.433 -0.3444 -1.0607 -0.7757
 5893TIP3    H217644   6.714   4.027   0.417 -0.7470 -2.0298  0.9466
 5894TIP3   OH217645   4.542   0.610   4.580 -0.3441 -0.1176 -0.6401
 5894TIP3    H117646   4.577   0.593   4.493  3.1248  0.8418  0.3893
 5894TIP3    H217647   4.594   0.554   4.638 -0.8550  1.0693  1.0459
 5895TIP3   OH217648   4.633   2.794   2.148  0.1210 -0.1276  0.3582
 5895TIP3    H117649   4.595   2.867   2.196 -0.3398  0.1671 -0.4277
 5895TIP3    H217650   4.668   2.736   2.215 -0.8337  0.0881  1.0609
 5896TIP3   OH217651   4.992   2.927   3.126 -0.0381 -0.1669 -0.7487
 5896TIP3    H117652   4.982   3.022   3.133 -0.9691 -0.2126 -1.2311
 5896TIP3    H217653   5.077   2.909   3.166 -1.1776  0.5295  2.2527
 5897TIP3   OH217654   1.986   0.302   3.010 -0.1855 -0.6575 -0.2050
 5897TIP3    H117655   2.029   0.384   2.985  1.0569 -0.6624  1.7465
 5897TIP3    H217656   1.898   0.310   2.973  0.7889  0.2455 -2.5476
 5898TIP3   OH217657   5.527   2.039   4.282  0.0547  0.8925 -0.0944
 5898TIP3    H117658   5.508   2.131   4.299 -2.0779  0.3001  1.0919
 5898TIP3    H217659   5.473   2.018   4.206 -1.8082 -0.0442  1.4065
 5899TIP3   OH217660   1.938   6.097   2.621  0.2255 -0.1011  0.3635
 5899TIP3    H117661   1.878   6.024   2.603  1.0217 -0.8009  0.4431
 5899TIP3    H217662   2.000   6.094   2.548 -1.2231  2.1834 -1.0983
 5900TIP3   OH217663   5.391   3.655   4.283  0.0258  0.0354 -0.1303
 5900TIP3    H117664   5.414   3.747   4.297 -0.6231  0.2261 -0.2747
 5900TIP3    H217665   5.414   3.639   4.191  1.5831 -0.3975  0.3043
 5901TIP3   OH217666   2.317   0.225   5.816 -0.4320 -0.6985  0.0664
 5901TIP3    H117667   2.349   0.300   5.867  0.0722 -0.5586 -0.4524
 5901TIP3    H217668   2.259   0.263   5.750 -0.5863 -0.8211  0.1288
 5902TIP3   OH217669   5.466   3.755   1.872 -0.2460 -0.1304  0.5408
 5902TIP3    H117670   5.372   3.774   1.865 -0.1922  0.3075  0.9459
 5902TIP3    H217671   5.472   3.660   1.862 -0.5732 -0.0092 -1.1861
 5903TIP3   OH217672   4.154   3.792   2.997  0.0275  0.2243  0.4762
 5903TIP3    H117673   4.105   3.765   3.075 -1.1882 -2.6087 -1.1173
 5903TIP3    H217674   4.139   3.886   2.992 -1.9573  0.0984  2.2703
 5904TIP3   OH217675   0.901   1.750   3.332  0.5498 -0.4961  0.2812
 5904TIP3    H117676   0.875   1.659   3.344  0.0349 -0.7023 -1.9491
 5904TIP3    H217677   0.825   1.801   3.359 -0.1664 -0.8648 -0.9750
 5905TIP3   OH217678   5.763   4.610   5.780  0.0474  0.0051  0.5409
 5905TIP3    H117679   5.784   4.518   5.793 -1.8885 -0.5866 -0.2228
 5905TIP3    H217680   5.794   4.630   5.692 -0.0318 -0.0670  0.4971
 5906TIP3   OH217681   6.352   3.371   1.246 -0.0652 -0.1643 -0.7234
 5906TIP3    H117682   6.276   3.326   1.283 -0.4608  2.2786  1.7516
 5906TIP3    H217683   6.319   3.409   1.164 -0.3943 -2.1268 -1.5678
 5907TIP3   OH217684   3.766   5.933   2.932 -0.0490  0.1969 -0.1132
 5907TIP3    H117685   3.811   5.941   2.847  0.1034  0.2219 -0.0307
 5907TIP3    H217686   3.809   5.858   2.974  0.7363  0.9488  0.4647
 5908TIP3   OH217687   0.931   3.656   5.417  0.3755  0.5828 -0.4936
 5908TIP3    H117688   0.869   3.690   5.352  0.3835  1.0310 -0.2707
 5908TIP3    H217689   0.882   3.588   5.463  0.7931 -0.6762 -1.8398
 5909TIP3   OH217690   1.998   1.999   0.364 -0.0183  0.3455  0.4197
 5909TIP3    H117691   1.957   2.022   0.447 -1.4378 -1.2559  0.2090
 5909TIP3    H217692   2.020   1.907   0.373 -0.4271  0.0821 -1.0650
 5910TIP3   OH217693   5.413   6.240   0.083  0.3341  0.4466  0.2972
 5910TIP3    H117694   5.470   6.197   0.147  0.0715 -0.3229  0.0247
 5910TIP3    H217695   5.457   6.322   0.063  0.0362  1.0840  2.0594
 5911TIP3   OH217696   0.579   5.893   2.705 -0.5285 -0.1060  0.4686
 5911TIP3    H117697   0.656   5.933   2.664 -1.5804  1.3005 -0.2045
 5911TIP3    H217698   0.598   5.799   2.704  0.1147 -0.0178 -1.9813
 5912TIP3   OH217699   0.323   3.185   1.764 -0.0988  0.1658  0.0111
 5912TIP3    H117700   0.239   3.207   1.723  0.2366  0.6006 -0.4590
 5912TIP3    H217701   0.301   3.118   1.829 -0.5889 -0.8591 -1.1782
 5913TIP3   OH217702   5.554   1.683   4.052  0.0246  0.4798  0.1196
 5913TIP3    H117703   5.570   1.752   3.989 -0.7271  0.8019  0.2711
 5913TIP3    H217704   5.478   1.636   4.017 -0.3514  0.6159  0.7407
 5914TIP3   OH217705   5.501   3.699   0.570 -0.1141 -0.3084  0.0963
 5914TIP3    H117706   5.435   3.767   0.561  1.0637  1.0257  1.0153
 5914TIP3    H217707   5.535   3.687   0.481  0.5803  1.3059  0.1081
 5915TIP3   OH217708   3.132   0.260   1.226 -0.2940 -0.5018 -0.4525
 5915TIP3    H117709   3.112   0.327   1.161 -1.6975 -2.2256 -1.8867
 5915TIP3    H217710   3.189   0.199   1.181  0.8249 -0.4182  0.7813
 5916TIP3   OH217711   1.162   0.333   1.441 -0.5195  0.0800  0.4147
 5916TIP3    H117712   1.229   0.384   1.485  1.7710 -1.5826 -0.9555
 5916TIP3    H217713   1.109   0.397   1.394  2.2094  1.2934 -1.2142
 5917TIP3   OH217714   3.228   6.747   3.989 -0.0120  0.2370 -0.5210
 5917TIP3    H117715   3.188   6.814   4.045  1.4413  0.6801  0.0225
 5917TIP3    H217716   3.229   6.788   3.902 -0.9785  0.1072 -0.6023
 5918TIP3   OH217717   4.876   0.796   0.571  0.5383  0.3653  0.1000
 5918TIP3    H117718   4.904   0.873   0.520  1.4713 -0.2010 -0.2801
 5918TIP3    H217719   4.823   0.745   0.510  0.1593  0.5647  0.2619
 5919TIP3   OH217720   7.185   4.892   1.424  0.3457  0.4743  0.1122
 5919TIP3    H117721   7.246   4.954   1.464 -0.4631  0.6027  1.2203
 5919TIP3    H217722   7.115   4.948   1.389 -0.2146  0.2311  0.8101
 5920TIP3   OH217723   2.010   5.049   0.485  0.3612 -0.5712  0.6218
 5920TIP3    H117724   1.928   5.000   0.493  0.2343 -0.0863  2.7530
 5920TIP3    H217725   2.077   4.990   0.518  0.6965 -0.4673  0.1430
 5921TIP3   OH217726   5.213   5.673   2.095  0.1176  0.0682  0.3939
 5921TIP3    H117727   5.249   5.591   2.061 -0.2379  0.0648  0.0171
 5921TIP3    H217728   5.144   5.697   2.033  1.3407  1.5486 -0.4559
 5922TIP3   OH217729   1.164   4.935   0.296  0.5789 -0.1175 -0.3058
 5922TIP3    H117730   1.258   4.946   0.309  0.5654 -0.6031  0.2260
 5922TIP3    H217731   1.151   4.840   0.300 -0.5084  0.0270  3.8412
 5923TIP3   OH217732   1.103   6.195   1.162  0.1725 -0.8714  0.4404
 5923TIP3    H117733   1.128   6.143   1.086  0.4227 -0.6669  0.3808
 5923TIP3    H217734   1.046   6.263   1.125 -0.1018 -1.0622  0.5087
 5924TIP3   OH217735   0.929   0.430   4.450  0.3115  0.2846  0.3710
 5924TIP3    H117736   0.964   0.477   4.525 -0.0775  2.2468 -0.6052
 5924TIP3    H217737   0.912   0.498   4.385 -2.6818 -0.8695 -0.2259
 5925TIP3   OH217738   6.773  -0.022   3.136 -1.1052  0.0751 -0.0691
 5925TIP3    H117739   6.832  -0.012   3.211 -0.3336 -0.3343 -0.5950
 5925TIP3    H217740   6.709   0.048   3.145 -1.0378  0.0120  0.9790
 5926TIP3   OH217741   2.681   4.420   1.688 -0.1861  0.0445 -0.0367
 5926TIP3    H117742   2.716   4.402   1.775 -0.2342  0.0023 -0.0262
 5926TIP3    H217743   2.587   4.430   1.701 -0.3648 -1.2050 -0.2709
 5927TIP3   OH217744   5.968   2.673   1.775  0.1250 -0.3022  0.3513
 5927TIP3    H117745   5.981   2.766   1.754  1.3081 -0.3930  0.5994
 5927TIP3    H217746   5.880   2.669   1.813 -0.5225  0.4726 -1.0167
 5928TIP3   OH217747   5.842   0.286   2.303  0.2131 -0.7185 -0.2879
 5928TIP3    H117748   5.873   0.372   2.331 -0.9425  0.3513 -2.0748
 5928TIP3    H217749   5.753   0.279   2.337 -1.6383  1.0586 -4.0750
 5929TIP3   OH217750   4.590   6.065   4.503 -0.2960  0.4831  0.3985
 5929TIP3    H117751   4.671   6.040   4.548 -0.4329  0.4312  0.6141
 5929TIP3    H217752   4.603   6.157   4.480  0.1269  0.2784 -0.2180
 5930TIP3   OH217753   5.405   5.693   5.014 -0.2559  0.0639 -0.1906
 5930TIP3    H117754   5.317   5.673   4.981 -0.3486  0.1729 -0.0118
 5930TIP3    H217755   5.404   5.662   5.105 -0.1713  0.2409 -0.1298
 5931TIP3   OH217756   6.728   4.631   4.270  0.1886 -0.3526  0.2184
 5931TIP3    H117757   6.687   4.587   4.196  1.0231 -1.3849  0.3454
 5931TIP3    H217758   6.812   4.660   4.237  0.7686 -1.2367  0.8634
 5932TIP3   OH217759   0.407   5.407   1.771  0.4406  0.2600  0.4017
 5932TIP3    H117760   0.433   5.392   1.680  1.6058 -0.2815  0.8092
 5932TIP3    H217761   0.400   5.502   1.779 -0.9745  0.2698 -0.5898
 5933TIP3   OH217762   2.260   1.934   4.689  0.0533  0.1072  0.0759
 5933TIP3    H117763   2.214   1.957   4.608  0.0236 -0.5646 -0.1056
 5933TIP3    H217764   2.351   1.955   4.671  0.5348 -2.5636 -1.1829
 5934TIP3   OH217765   1.197   6.773   1.764 -0.2148  0.3623 -0.4934
 5934TIP3    H117766   1.148   6.794   1.684  1.5425  1.3223 -1.3721
 5934TIP3    H217767   1.273   6.725   1.733  0.6577  1.0296  0.5746
 5935TIP3   OH217768   3.676   2.978   5.801  0.0450 -0.3889  0.3987
 5935TIP3    H117769   3.761   3.009   5.833  0.1222 -0.8469  0.6497
 5935TIP3    H217770   3.692   2.886   5.780 -0.2809 -0.3629  0.0435
 5936TIP3   OH217771   3.063   0.699   4.758 -0.6313  0.0400  0.3109
 5936TIP3    H117772   2.985   0.685   4.812  0.0996 -4.7468  0.5208
 5936TIP3    H217773   3.051   0.641   4.683  1.8804  0.6585 -0.6659
 5937TIP3   OH217774   4.267   2.074   1.012 -0.2277  0.1684  0.3543
 5937TIP3    H117775   4.318   2.107   0.937  2.7581 -0.9830  1.7009
 5937TIP3    H217776   4.288   2.135   1.083  2.6540 -2.4310  1.9739
 5938TIP3   OH217777   0.738   2.387   5.433 -0.2648  0.4241 -0.1600
 5938TIP3    H117778   0.768   2.357   5.347 -1.3093 -0.6226 -0.1907
 5938TIP3    H217779   0.781   2.471   5.445  0.8285  0.0481 -1.1856
 5939TIP3   OH217780   0.764   2.167   0.720 -0.1030 -0.0827 -0.0164
 5939TIP3    H117781   0.736   2.076   0.730  0.5964 -0.5692 -2.0599
 5939TIP3    H217782   0.684   2.214   0.694 -0.5039 -0.0303  1.2152
 5940TIP3   OH217783   0.802   4.981   4.771  0.6297  0.1448  0.1954
 5940TIP3    H117784   0.865   4.956   4.703  0.0042  0.5735 -0.5530
 5940TIP3    H217785   0.787   5.075   4.757  0.3837  0.2100  0.8404
 5941TIP3   OH217786   2.716   5.890   3.227  0.5898  0.1466  0.0044
 5941TIP3    H117787   2.665   5.809   3.227  1.0137 -0.1243  0.1684
 5941TIP3    H217788   2.676   5.943   3.158 -0.2267  0.1417  0.4620
 5942TIP3   OH217789   3.474   6.736   1.188  0.6063 -0.6096 -0.6161
 5942TIP3    H117790   3.449   6.708   1.276 -0.8791 -0.9001 -1.1144
 5942TIP3    H217791   3.515   6.822   1.201 -2.1866  0.7062  0.0833
 5943TIP3   OH217792   5.571   6.316   4.566 -0.7161  0.0134 -0.0076
 5943TIP3    H117793   5.574   6.303   4.471 -0.6467 -1.5374  0.1743
 5943TIP3    H217794   5.636   6.384   4.583 -0.9189  0.4998 -1.0880
 5944TIP3   OH217795   5.835   4.872   4.639  0.2922  0.1243 -0.0328
 5944TIP3    H117796   5.927   4.884   4.616  0.6829 -2.0927  0.1087
 5944TIP3    H217797   5.793   4.846   4.557 -0.0579  0.4503  0.0434
 5945TIP3   OH217798   2.030   6.798   0.076 -0.7135 -0.3008 -0.0588
 5945TIP3    H117799   2.000   6.824  -0.011  1.2853  0.2031 -0.6292
 5945TIP3    H217800   2.091   6.727   0.061 -2.1719 -1.9040  1.1489
 5946TIP3   OH217801   0.267   0.950   5.186  0.4484 -0.1902  0.4564
 5946TIP3    H117802   0.188   1.004   5.174  1.0960  0.9501  1.0914
 5946TIP3    H217803   0.238   0.877   5.241 -0.2027  0.1420  0.5679
 5947TIP3   OH217804   3.826   1.877   4.210 -0.1886  0.3957 -0.0169
 5947TIP3    H117805   3.868   1.794   4.187  0.2405  0.7126 -0.3977
 5947TIP3    H217806   3.882   1.943   4.171 -1.3222  0.8114 -1.0051
 5948TIP3   OH217807   1.194   5.942   4.385  0.2176  0.0753 -0.6091
 5948TIP3    H117808   1.154   5.957   4.299  2.8085  0.9235 -1.7479
 5948TIP3    H217809   1.276   5.898   4.366  0.2792 -0.8639  1.5711
 5949TIP3   OH217810   1.766   6.623   3.176  0.3883  0.3351 -0.8190
 5949TIP3    H117811   1.673   6.614   3.160  0.4014 -0.3886 -0.5367
 5949TIP3    H217812   1.774   6.696   3.237 -0.1023 -0.3622  0.1040
 5950TIP3   OH217813   6.856   0.488   0.763  0.0440 -0.6063 -0.1703
 5950TIP3    H117814   6.894   0.573   0.786 -1.0242 -0.4472  1.1800
 5950TIP3    H217815   6.762   0.500   0.776 -0.0864 -2.1009  0.4338
 5951TIP3   OH217816   7.035   4.175   2.761  0.1091 -0.0745 -0.5794
 5951TIP3    H117817   7.013   4.244   2.699 -0.8154  0.6225  0.4791
 5951TIP3    H217818   7.019   4.214   2.847  2.6035 -0.5689  0.1787
 5952TIP3   OH217819   4.698   5.326   3.933 -0.8065 -0.5875  0.0543
 5952TIP3    H117820   4.719   5.360   3.846 -0.5639 -1.6017 -0.2902
 5952TIP3    H217821   4.653   5.399   3.976 -1.8793 -0.4199 -1.2730
 5953TIP3   OH217822   3.372   6.115   3.895 -0.4691  0.4591  0.0886
 5953TIP3    H117823   3.353   6.208   3.879 -0.3501  0.3610 -0.6347
 5953TIP3    H217824   3.314   6.068   3.836  0.8607  0.1245 -1.0090
 5954TIP3   OH217825   5.367   6.285   2.334 -0.4558 -0.2712  0.0611
 5954TIP3    H117826   5.313   6.300   2.411 -0.3611 -2.0917  0.5186
 5954TIP3    H217827   5.406   6.371   2.315 -0.2387  0.1517  2.2186
 5955TIP3   OH217828   2.681   6.632   2.113 -0.4001  0.1876 -0.2923
 5955TIP3    H117829   2.591   6.617   2.142 -1.4432  2.3491 -2.1355
 5955TIP3    H217830   2.696   6.564   2.047 -0.6029 -0.3001  0.1556
 5956TIP3   OH217831   3.112   1.386   4.277  0.7448 -0.0479  0.0542
 5956TIP3    H117832   3.108   1.323   4.205  0.1976  0.0064  0.0315
 5956TIP3    H217833   3.056   1.459   4.248 -0.8204 -0.7301  1.1935
 5957TIP3   OH217834   2.786   2.631   2.252  0.2915  0.2573 -0.1734
 5957TIP3    H117835   2.860   2.687   2.227 -0.1822 -0.0418 -2.4628
 5957TIP3    H217836   2.765   2.583   2.172 -1.7177 -0.4362  0.7197
 5958TIP3   OH217837   5.499   0.009   3.214  0.0670  0.6510 -0.6810
 5958TIP3    H117838   5.505   0.077   3.281 -1.5357 -0.0962  0.2834
 5958TIP3    H217839   5.555  -0.062   3.247 -1.9745 -0.3743  0.7676
 5959TIP3   OH217840   6.209   3.519   5.817 -0.5107  0.4304  0.1170
 5959TIP3    H117841   6.213   3.601   5.769 -1.4558 -0.2812 -1.2307
 5959TIP3    H217842   6.299   3.488   5.819 -0.2223  1.2383  0.1962
 5960TIP3   OH217843   6.552   4.020   5.419 -0.4776 -0.3469  0.1330
 5960TIP3    H117844   6.519   4.067   5.342  0.2495 -0.1997 -0.0934
 5960TIP3    H217845   6.644   4.003   5.400 -0.0920  0.3082  1.2618
 5961TIP3   OH217846   4.092   3.476   5.247 -0.1340 -0.7412  0.1044
 5961TIP3    H117847   4.115   3.387   5.219 -0.6578 -1.2704  1.2746
 5961TIP3    H217848   4.159   3.499   5.312  1.4198  0.7080 -1.8865
 5962TIP3   OH217849   3.437   1.511   3.018  0.1695 -0.1444 -0.5009
 5962TIP3    H117850   3.364   1.472   3.067  0.7904  0.1725  0.7241
 5962TIP3    H217851   3.421   1.605   3.023  0.7837 -0.0599 -0.0002
 5963TIP3   OH217852   6.587   5.805   4.584  0.0379  0.4028 -0.4856
 5963TIP3    H117853   6.631   5.810   4.669  0.0258 -0.4586 -0.4174
 5963TIP3    H217854   6.628   5.873   4.532 -1.0594  2.0329  0.7023
 5964TIP3   OH217855   0.373   3.745   3.422  0.3171  0.4763 -0.3698
 5964TIP3    H117856   0.296   3.687   3.421  1.3190 -0.9511  0.9656
 5964TIP3    H217857   0.433   3.706   3.358  0.2054  1.2239 -0.9423
 5965TIP3   OH217858   3.669   5.134   4.864  0.2287 -0.9143 -0.6320
 5965TIP3    H117859   3.631   5.168   4.783 -0.5262 -1.3518 -0.4690
 5965TIP3    H217860   3.614   5.170   4.933 -0.2825 -2.0581 -0.4312
 5966TIP3   OH217861   2.489   2.510   2.201  0.6416  0.0293  0.1002
 5966TIP3    H117862   2.435   2.474   2.271 -0.0732  3.2261  1.3571
 5966TIP3    H217863   2.567   2.544   2.245  0.8226  0.8781 -0.8450
 5967TIP3   OH217864   3.491   2.838   2.173 -0.2345  0.6891 -0.2878
 5967TIP3    H117865   3.418   2.890   2.205 -0.2365  1.1456 -1.0059
 5967TIP3    H217866   3.483   2.841   2.078  0.1350 -0.1025 -0.3511
 5968TIP3   OH217867   6.423   1.922   5.553 -0.0506 -0.0534 -0.0925
 5968TIP3    H117868   6.498   1.877   5.513  0.0088 -0.6275  0.6386
 5968TIP3    H217869   6.348   1.894   5.501  0.2970  0.9745 -1.1929
 5969TIP3   OH217870   3.675   1.218   5.475 -0.5154 -0.3718  0.2851
 5969TIP3    H117871   3.707   1.246   5.561  1.4290 -0.4814 -0.3508
 5969TIP3    H217872   3.678   1.122   5.479  1.7577 -0.3890 -0.6066
 5970TIP3   OH217873   6.303   4.273   5.853  0.3052 -0.2199 -0.9333
 5970TIP3    H117874   6.336   4.362   5.843  0.2665 -0.0208  0.5053
 5970TIP3    H217875   6.321   4.231   5.769 -3.3659  2.2835 -3.2221
 5971TIP3   OH217876   2.093   1.891   0.016  0.3003 -0.2339  0.1066
 5971TIP3    H117877   2.050   1.805   0.017  0.0528 -0.1180 -0.5255
 5971TIP3    H217878   2.026   1.951   0.048  0.2084 -0.1520 -0.2421
 5972TIP3   OH217879   4.898   6.184   4.058 -0.1877 -0.5615  0.2004
 5972TIP3    H117880   4.895   6.265   4.109 -0.5109 -0.6901  0.3839
 5972TIP3    H217881   4.850   6.120   4.110 -1.3592 -0.4470 -0.7062
 5973TIP3   OH217882   6.598   2.717   5.722 -0.3449  0.3688  0.2232
 5973TIP3    H117883   6.679   2.752   5.759 -1.3835  2.2001  0.8850
 5973TIP3    H217884   6.603   2.623   5.739  2.1637  0.2104 -0.8432
 5974TIP3   OH217885   4.805   5.117   1.615  0.3449  0.2436  0.2115
 5974TIP3    H117886   4.871   5.131   1.683  1.7854  0.3470 -1.1433
 5974TIP3    H217887   4.740   5.185   1.631  0.6506  0.2654  1.4704
 5975TIP3   OH217888   3.313   5.096   4.173  0.1593 -0.6362 -0.3127
 5975TIP3    H117889   3.282   5.145   4.097  0.0850 -0.0797  0.0737
 5975TIP3    H217890   3.405   5.078   4.152 -0.2483 -1.8172 -1.2096
 5976TIP3   OH217891   6.517   1.592   5.820 -0.1248  0.1021 -0.0540
 5976TIP3    H117892   6.497   1.500   5.834  0.6457  0.0193  0.6429
 5976TIP3    H217893   6.540   1.598   5.727 -0.3781 -0.3698 -0.1508
 5977TIP3   OH217894   2.948   6.537   0.560  0.7581  0.3523 -0.5196
 5977TIP3    H117895   2.944   6.575   0.647 -1.1990  0.9613 -0.8207
 5977TIP3    H217896   2.923   6.445   0.573  1.4448  0.1830 -0.3351
 5978TIP3   OH217897   2.995   5.603   4.396  0.2111  0.0550 -0.1552
 5978TIP3    H117898   3.055   5.570   4.328 -0.2390 -1.2484  0.0542
 5978TIP3    H217899   2.983   5.529   4.455 -2.5725 -0.1627 -0.8609
 5979TIP3   OH217900   6.071   0.062   4.779  0.1187 -0.0656 -0.5026
 5979TIP3    H117901   6.045   0.069   4.687 -1.0976 -1.0511 -0.2570
 5979TIP3    H217902   6.104  -0.027   4.788  0.5664  0.1371 -0.0545
 5980TIP3   OH217903   3.175   5.329   1.576  0.1301  0.5681 -0.1072
 5980TIP3    H117904   3.148   5.247   1.618 -1.5235  0.2407 -1.6958
 5980TIP3    H217905   3.136   5.397   1.631  2.2042  0.4192  1.7064
 5981TIP3   OH217906   1.965   3.543   4.430  0.3841  0.4538 -0.4539
 5981TIP3    H117907   1.997   3.456   4.406 -0.1557 -0.2955  1.3067
 5981TIP3    H217908   1.991   3.553   4.522 -0.4353  1.7292 -0.3340
 5982TIP3   OH217909   3.945   3.891   4.657 -0.0716  0.1527  0.3394
 5982TIP3    H117910   3.979   3.975   4.626 -3.3933  1.3256 -0.5312
 5982TIP3    H217911   3.959   3.831   4.584  0.4355  0.4779  0.1645
 5983TIP3   OH217912   0.130   2.492   1.850 -0.6298 -0.0292  0.0968
 5983TIP3    H117913   0.073   2.501   1.927 -0.1481  1.8556  0.2776
 5983TIP3    H217914   0.083   2.538   1.780 -1.0843 -1.7634 -0.8041
 5984TIP3   OH217915   1.758   3.248   4.713 -0.6479  0.5610 -0.0474
 5984TIP3    H117916   1.781   3.321   4.771 -2.0442  1.8807 -1.0573
 5984TIP3    H217917   1.743   3.174   4.772  2.0250  0.6998  0.9097
 5985TIP3   OH217918   5.256   3.249   1.203 -0.3106  0.0255  0.4853
 5985TIP3    H117919   5.300   3.234   1.119 -3.0778 -0.5228 -1.0014
 5985TIP3    H217920   5.209   3.167   1.220  1.5847 -0.5972  3.6094
 5986TIP3   OH217921   4.386   5.763   1.317  0.2249 -0.1526  0.0410
 5986TIP3    H117922   4.432   5.842   1.347 -0.0945  0.8700 -2.0028
 5986TIP3    H217923   4.447   5.692   1.337  1.5380  0.8722 -0.1516
 5987TIP3   OH217924   0.375   6.168   3.044  0.5544 -0.0735  0.5091
 5987TIP3    H117925   0.307   6.103   3.028 -0.8558  1.2561  0.8538
 5987TIP3    H217926   0.328   6.244   3.080  2.0684  1.3276 -0.3292
 5988TIP3   OH217927   2.919   5.962   1.289  0.2382  0.3889 -0.0732
 5988TIP3    H117928   2.987   6.013   1.334 -2.1110  2.2509  1.6273
 5988TIP3    H217929   2.909   6.005   1.204  0.4887  0.7611  0.0826
 5989TIP3   OH217930   3.154   4.400   1.714 -0.4153 -0.4199  0.2714
 5989TIP3    H117931   3.099   4.340   1.765 -1.3479  0.0699 -0.1486
 5989TIP3    H217932   3.132   4.487   1.747 -0.1286 -0.1922 -0.1303
 5990TIP3   OH217933   5.257   2.046   0.624  0.1833  0.5612 -0.6344
 5990TIP3    H117934   5.190   1.983   0.600  0.2170  0.0663  0.5273
 5990TIP3    H217935   5.220   2.131   0.601  0.6633  0.1032 -3.4841
 5991TIP3   OH217936   3.949   4.014   5.138 -0.4135  0.5958  0.2469
 5991TIP3    H117937   3.970   4.061   5.219 -2.2871  1.8222  0.0893
 5991TIP3    H217938   4.009   4.051   5.073 -1.1997  2.1487  0.3490
 5992TIP3   OH217939   0.922   1.223   5.097  0.0645  0.3980 -0.3076
 5992TIP3    H117940   0.907   1.132   5.124 -0.8921  0.6416  0.0418
 5992TIP3    H217941   0.860   1.236   5.024  0.4385  0.6712 -0.5773
 5993TIP3   OH217942   1.336   2.567   2.274 -0.1965 -0.1747  0.1700
 5993TIP3    H117943   1.306   2.567   2.183  0.8408  1.0267 -0.1933
 5993TIP3    H217944   1.312   2.654   2.307  0.7786 -0.0484  0.5712
 5994TIP3   OH217945   5.434   1.439   5.865 -0.2302 -1.0444 -0.5361
 5994TIP3    H117946   5.504   1.381   5.837  0.0541 -1.6230  1.2739
 5994TIP3    H217947   5.427   1.425   5.959 -0.3297  1.6517 -0.0496
 5995TIP3   OH217948   1.395   2.133   2.130  0.0101  0.2940 -0.5151
 5995TIP3    H117949   1.429   2.048   2.158 -0.3347  0.2936 -0.0819
 5995TIP3    H217950   1.446   2.197   2.179 -0.7811  0.2861  0.3584
 5996TIP3   OH217951   0.913   2.793   5.803  0.0529  0.4566 -0.5895
 5996TIP3    H117952   0.839   2.830   5.755 -0.5316  0.7787  0.5149
 5996TIP3    H217953   0.873   2.750   5.879  0.9151 -0.3715 -0.5862
 5997TIP3   OH217954   0.900   3.909   4.993  0.2007 -0.2946 -0.1709
 5997TIP3    H117955   0.862   3.821   4.981 -0.2673 -0.0891 -0.2394
 5997TIP3    H217956   0.977   3.895   5.048 -0.0256 -0.7150  0.0468
 5998TIP3   OH217957   6.558   3.955   0.709 -0.5774  0.4951 -0.6154
 5998TIP3    H117958   6.536   3.867   0.678  1.0341  0.6195 -2.2988
 5998TIP3    H217959   6.601   3.997   0.634  0.5396  1.9952  0.7856
 5999TIP3   OH217960   6.787   1.210   3.526  0.0420 -0.4139  0.3010
 5999TIP3    H117961   6.816   1.261   3.601  0.5054 -1.5336  0.9037
 5999TIP3    H217962   6.701   1.176   3.551 -0.2407  0.0121 -0.0760
 6000TIP3   OH217963   1.025   4.218   3.179  0.2266 -0.2369  0.3598
 6000TIP3    H117964   1.105   4.198   3.130 -0.4589 -4.1244  0.5632
 6000TIP3    H217965   0.956   4.218   3.114  0.1016  1.5736  0.4274
 6001TIP3   OH217966   5.036   6.738   3.912  0.3891 -0.0994 -0.5672
 6001TIP3    H117967   5.000   6.826   3.903 -0.4947  0.0089  2.5757
 6001TIP3    H217968   5.127   6.745   3.882  0.7327  2.2793  0.7728
 6002TIP3   OH217969   1.821   6.201   1.970 -0.1519  0.0656  0.0170
 6002TIP3    H117970   1.774   6.118   1.968  1.0342 -0.6225 -0.3998
 6002TIP3    H217971   1.896   6.185   2.029  1.4941  0.0183 -1.9806
 6003TIP3   OH217972   3.587   5.698   3.250  0.5973  0.3769  0.2022
 6003TIP3    H117973   3.628   5.637   3.188 -1.1912  0.3348 -1.0089
 6003TIP3    H217974   3.498   5.708   3.217 -1.0199 -0.9871  3.7109
 6004TIP3   OH217975   1.667   2.316   1.749 -0.2071  0.2377 -0.2952
 6004TIP3    H117976   1.644   2.386   1.810 -1.7640 -0.1628 -0.3796
 6004TIP3    H217977   1.657   2.355   1.663  1.8912  0.7720 -0.3424
 6005TIP3   OH217978   4.109   6.614   4.626  0.1730 -0.2507  0.2083
 6005TIP3    H117979   4.096   6.700   4.668  2.2679  0.4232 -0.4304
 6005TIP3    H217980   4.156   6.563   4.692 -1.0333 -0.9239  0.5697
 6006TIP3   OH217981   3.791   4.176   3.502 -0.4169 -0.4166  0.1929
 6006TIP3    H117982   3.745   4.134   3.430 -2.3295  3.7146 -1.2900
 6006TIP3    H217983   3.875   4.203   3.465  0.3829 -1.8031  0.8629
 6007TIP3   OH217984   6.666   4.798   0.545 -0.0635 -0.3614 -0.0622
 6007TIP3    H117985   6.662   4.831   0.455  1.6815  0.9943  0.2966
 6007TIP3    H217986   6.723   4.721   0.540  0.7568  0.2248 -0.0198
 6008TIP3   OH217987   3.613   5.585   4.481  0.4879  0.4230  0.0710
 6008TIP3    H117988   3.563   5.506   4.504 -0.1239  0.8838  0.3616
 6008TIP3    H217989   3.584   5.650   4.544  3.0615  0.1430  1.6498
 6009TIP3   OH217990   1.748   6.065   1.479 -0.3640  0.5180 -0.0623
 6009TIP3    H117991   1.774   6.157   1.479 -0.2480  0.4920  0.9099
 6009TIP3    H217992   1.804   6.025   1.413 -0.1767  1.0760 -0.2551
 6010TIP3   OH217993   1.981   0.279   2.072 -0.4006  0.0082 -0.1996
 6010TIP3    H117994   1.941   0.348   2.019  2.4623  0.6475 -1.7409
 6010TIP3    H217995   2.016   0.325   2.148 -0.0042 -0.0206 -0.3619
 6011TIP3   OH217996   3.472   0.604   4.294 -0.1587  0.1583  0.2268
 6011TIP3    H117997   3.499   0.675   4.353  1.1320  0.7788 -1.0325
 6011TIP3    H217998   3.529   0.614   4.218  0.0752 -2.2680  0.0039
 6012TIP3   OH217999   4.746   2.562   1.837  0.0132 -0.0894 -0.0708
 6012TIP3    H118000   4.797   2.643   1.839 -0.3156  0.1094  0.2821
 6012TIP3    H218001   4.656   2.590   1.820  0.1990 -0.5316 -2.0826
 6013TIP3   OH218002   2.448   3.352   1.719 -0.0914 -0.0077 -0.0865
 6013TIP3    H118003   2.386   3.421   1.697 -1.3797 -1.0575  0.1421
 6013TIP3    H218004   2.442   3.289   1.647  2.7466  1.1337 -1.4665
 6014TIP3   OH218005   2.105   2.920   1.152 -0.4129  0.4142 -0.1662
 6014TIP3    H118006   2.088   2.881   1.066 -1.0843  1.7023 -0.6439
 6014TIP3    H218007   2.019   2.937   1.188 -0.2484 -2.6363  2.0378
 6015TIP3   OH218008   4.207   4.484   5.824  0.2793 -0.2206 -0.0667
 6015TIP3    H118009   4.236   4.516   5.909 -0.7732 -0.4231  0.3815
 6015TIP3    H218010   4.141   4.548   5.795 -1.2027 -1.4443  0.4368
 6016TIP3   OH218011   6.222   3.424   3.578 -0.1730 -0.4959  0.1690
 6016TIP3    H118012   6.227   3.513   3.544 -1.6886 -0.1459  0.7725
 6016TIP3    H218013   6.160   3.380   3.520 -0.0823 -0.9117  0.3824
 6017TIP3   OH218014   4.709   6.616   5.881  0.6033  0.5698 -0.1376
 6017TIP3    H118015   4.735   6.708   5.874  3.4290 -0.2576 -2.0103
 6017TIP3    H218016   4.659   6.599   5.802  1.2398  0.1904 -0.4660
 6018TIP3   OH218017   6.405   5.512   2.615 -0.0984 -0.2655 -0.1207
 6018TIP3    H118018   6.476   5.515   2.679 -1.5059  2.2820  1.4807
 6018TIP3    H218019   6.356   5.433   2.638 -0.2440  0.2906  1.6110
 6019TIP3   OH218020   2.115   6.169   1.813  0.4772  0.1895  0.1530
 6019TIP3    H118021   2.181   6.237   1.798 -0.0921  0.1931 -2.9485
 6019TIP3    H218022   2.045   6.213   1.861  1.7971  0.6817  1.7423
 6020TIP3   OH218023   6.165   6.801   0.706  0.4995 -0.5616  0.2942
 6020TIP3    H118024   6.237   6.812   0.767  0.9583 -1.7787  0.0170
 6020TIP3    H218025   6.201   6.746   0.636 -0.5722 -0.8295 -0.0748
 6021TIP3   OH218026   0.920   6.318   2.727  0.2306  0.0584  0.5026
 6021TIP3    H118027   0.928   6.331   2.633 -1.6961 -0.5860  0.1907
 6021TIP3    H218028   0.889   6.402   2.761  2.6043  0.8588  0.8950
 6022TIP3   OH218029   0.231   3.158   5.643  0.0590  0.3184 -0.1847
 6022TIP3    H118030   0.299   3.099   5.676  0.1138 -1.2624 -2.7474
 6022TIP3    H218031   0.279   3.228   5.599 -0.0159  1.0361  0.8400
 6023TIP3   OH218032   4.077   6.479   0.239  0.2635  0.0386  0.5141
 6023TIP3    H118033   4.048   6.556   0.288 -1.7216  0.1087 -0.6409
 6023TIP3    H218034   4.164   6.502   0.208 -1.1003  2.8992 -1.7257
 6024TIP3   OH218035   4.367   1.799   3.735 -0.5490  0.3868  0.3966
 6024TIP3    H118036   4.447   1.746   3.737 -2.3365 -2.5230  0.1197
 6024TIP3    H218037   4.386   1.873   3.793  1.5871 -1.3288  2.0538
 6025TIP3   OH218038   5.868   1.684   5.672  0.0325  0.3809  0.1495
 6025TIP3    H118039   5.861   1.648   5.584 -2.4337  1.4903 -0.2004
 6025TIP3    H218040   5.778   1.684   5.705  0.7793  0.7879  2.3374
 6026TIP3   OH218041   1.208   2.998   1.004 -0.4294  0.0238 -0.2081
 6026TIP3    H118042   1.263   2.933   1.047 -2.4401 -0.4158  1.8861
 6026TIP3    H218043   1.160   2.949   0.937 -0.7607 -0.3043  0.2710
 6027TIP3   OH218044   2.830   3.967   2.203  0.6923 -0.2894 -0.9147
 6027TIP3    H118045   2.924   3.960   2.187  0.8033 -1.8895  0.2151
 6027TIP3    H218046   2.814   3.909   2.278 -1.0203  0.8104 -0.3722
 6028TIP3   OH218047   3.990   6.687   2.213  0.2109  0.4881  0.3148
 6028TIP3    H118048   3.988   6.595   2.239  0.2926  0.6733  0.9894
 6028TIP3    H218049   4.020   6.733   2.291  0.7719  1.0227 -0.2030
 6029TIP3   OH218050   3.217   2.033   4.794 -0.6465 -1.0554  0.3001
 6029TIP3    H118051   3.240   1.972   4.724  2.3924 -1.5242  1.5979
 6029TIP3    H218052   3.235   2.119   4.757 -0.6601 -1.1912 -0.0300
 6030TIP3   OH218053   3.446   6.027   4.781 -0.0522  0.1545 -0.0326
 6030TIP3    H118054   3.508   5.954   4.776 -1.0374 -0.7996  1.0983
 6030TIP3    H218055   3.463   6.078   4.703  1.6462 -0.4992 -0.1265
 6031TIP3   OH218056   2.522   2.681   4.126 -0.1079  0.0038  0.1911
 6031TIP3    H118057   2.556   2.640   4.046  1.0216  2.1113 -0.4729
 6031TIP3    H218058   2.597   2.687   4.184 -0.3170  0.8144  0.3961
 6032TIP3   OH218059   1.361   6.737   4.993  0.1013  0.5295 -0.3629
 6032TIP3    H118060   1.307   6.682   4.937  1.9293  0.9413 -2.7174
 6032TIP3    H218061   1.448   6.735   4.953  1.7335  0.4727  2.7923
 6033TIP3   OH218062   2.224   4.807   0.488 -0.0686 -0.5546  0.2188
 6033TIP3    H118063   2.205   4.840   0.400 -2.3994  1.7621  1.4399
 6033TIP3    H218064   2.142   4.768   0.518 -0.1020  0.8618  2.1809
 6034TIP3   OH218065   2.495   5.529   1.029  0.3085 -0.1661 -0.1037
 6034TIP3    H118066   2.416   5.531   1.082 -0.2809 -0.8391 -0.9311
 6034TIP3    H218067   2.521   5.620   1.020 -0.5078  0.0810 -0.0210
 6035TIP3   OH218068   5.896   4.750   0.349 -0.0186  0.5443 -0.2265
 6035TIP3    H118069   5.802   4.761   0.335 -0.0452  1.0586  0.3467
 6035TIP3    H218070   5.913   4.792   0.433  0.3132 -1.6753  0.8733
 6036TIP3   OH218071   5.355   3.601   3.479 -0.5452  0.0766 -0.3214
 6036TIP3    H118072   5.435   3.555   3.506 -0.4496 -1.3097 -2.7446
 6036TIP3    H218073   5.366   3.615   3.385 -3.2503 -0.4025 -0.7853
 6037TIP3   OH218074   3.242   4.242   4.369  0.5082  0.3990 -0.2357
 6037TIP3    H118075   3.270   4.151   4.359 -2.7184 -0.5241 -2.7993
 6037TIP3    H218076   3.263   4.283   4.285  1.4246  1.9196  0.6933
 6038TIP3   OH218077   6.850   0.885   5.794 -0.3052  0.0191  0.2604
 6038TIP3    H118078   6.914   0.865   5.862  0.5155 -1.4709 -0.8859
 6038TIP3    H218079   6.902   0.919   5.721 -0.6947 -1.6257 -0.8514
 6039TIP3   OH218080   3.776   2.273   5.105  0.0649  0.3573 -0.3309
 6039TIP3    H118081   3.838   2.345   5.098 -0.1575  0.3748 -3.3812
 6039TIP3    H218082   3.691   2.315   5.114 -0.1444  0.6064 -2.8059
 6040TIP3   OH218083   0.912   5.369   1.358 -0.4438 -0.8253  0.5000
 6040TIP3    H118084   0.982   5.409   1.306 -3.3104  3.4363 -0.5514
 6040TIP3    H218085   0.951   5.358   1.445  1.8701  0.3330 -0.3064
 6041TIP3   OH218086   1.864   0.671   1.096 -0.4940 -0.1506 -0.7627
 6041TIP3    H118087   1.856   0.589   1.145 -0.6565 -0.5781 -1.4893
 6041TIP3    H218088   1.882   0.643   1.006 -1.0119  0.6080 -1.1052
 6042TIP3   OH218089   4.250   4.786   0.981 -0.3491 -0.4502  0.3459
 6042TIP3    H118090   4.185   4.811   1.046  0.1101 -0.1892  0.7115
 6042TIP3    H218091   4.238   4.849   0.910  0.3750  0.4403  0.9836
 6043TIP3   OH218092   4.598   5.612   3.891  0.1338  0.0969 -0.1278
 6043TIP3    H118093   4.632   5.586   3.805  0.7705  0.8511 -0.1217
 6043TIP3    H218094   4.661   5.577   3.954 -0.3464 -0.4771  0.0392
 6044TIP3   OH218095   2.167   4.389   1.335 -0.1016  0.5751 -0.3223
 6044TIP3    H118096   2.186   4.425   1.421  1.5283 -1.1589  0.1340
 6044TIP3    H218097   2.197   4.456   1.273 -0.1569  1.3222  0.4458
 6045TIP3   OH218098   5.141   1.518   1.919  0.3850 -0.0569  0.4865
 6045TIP3    H118099   5.078   1.589   1.930 -0.1746 -0.5390  0.4135
 6045TIP3    H218100   5.129   1.488   1.829  0.3928 -0.4577  0.6169
 6046TIP3   OH218101   4.571   4.624   3.358  0.3374  0.0136 -0.0878
 6046TIP3    H118102   4.560   4.691   3.291 -1.9339  0.0700  0.2598
 6046TIP3    H218103   4.652   4.579   3.334 -0.5652 -0.2125 -3.1391
 6047TIP3   OH218104   6.843   6.175   0.424  0.0475 -0.4332 -0.1899
 6047TIP3    H118105   6.821   6.138   0.509 -0.5657 -2.6787 -1.2234
 6047TIP3    H218106   6.937   6.195   0.430 -0.2065  0.4321  1.3102
 6048TIP3   OH218107   5.095   4.496   0.863  0.0842  0.0599  0.6054
 6048TIP3    H118108   5.012   4.544   0.861 -0.3934 -0.7199  1.5087
 6048TIP3    H218109   5.146   4.539   0.931 -0.4253 -0.8281  1.5628
 6049TIP3   OH218110   1.038   5.552   2.458  0.7329  0.2577 -0.3017
 6049TIP3    H118111   1.004   5.526   2.372  1.3772 -1.4042 -0.0886
 6049TIP3    H218112   0.965   5.599   2.499  0.8047  2.1780 -2.1847
 6050TIP3   OH218113   0.592   0.319   1.781 -0.2522  0.1340 -0.3303
 6050TIP3    H118114   0.656   0.258   1.745  0.5803 -0.0634  1.3990
 6050TIP3    H218115   0.635   0.358   1.857 -1.4424  1.5342 -0.3248
 6051TIP3   OH218116   0.086   2.063   1.831  0.2411 -0.6002  0.2670
 6051TIP3    H118117  -0.007   2.074   1.852  0.1675  0.1861 -0.4099
 6051TIP3    H218118   0.092   1.976   1.792 -0.5851  0.0813 -1.5081
 6052TIP3   OH218119   5.099   0.123   1.416 -0.0915 -0.1112 -0.9361
 6052TIP3    H118120   5.019   0.138   1.364 -1.4610 -0.1289  1.0599
 6052TIP3    H218121   5.170   0.144   1.356 -1.6281  1.8593 -2.2095
 6053TIP3   OH218122   4.726   3.498   2.702  0.1133  0.2551 -0.4827
 6053TIP3    H118123   4.634   3.480   2.682 -0.4535  0.2344  1.8715
 6053TIP3    H218124   4.724   3.585   2.743  1.2645  0.5646 -1.0488
 6054TIP3   OH218125   0.730   3.730   3.857 -0.3024 -0.2689 -0.4307
 6054TIP3    H118126   0.674   3.666   3.901 -0.0198 -0.0541  0.2624
 6054TIP3    H218127   0.819   3.694   3.865 -0.2244 -0.1215 -0.6307
 6055TIP3   OH218128   1.694   4.732   0.064 -0.2947 -0.1089  0.6225
 6055TIP3    H118129   1.755   4.663   0.039  0.6932  0.6320  0.9140
 6055TIP3    H218130   1.623   4.686   0.109 -0.5394 -1.1042 -0.7246
 6056TIP3   OH218131   6.798   4.317   4.373 -0.3778  0.3347  0.0784
 6056TIP3    H118132   6.740   4.374   4.424 -2.7994 -2.2659  0.4528
 6056TIP3    H218133   6.853   4.274   4.438 -1.8953 -1.2801  0.3484
 6057TIP3   OH218134   6.831   1.024   3.883  0.4294 -0.0352 -0.3574
 6057TIP3    H118135   6.900   0.990   3.825  1.1104 -0.7024  0.8018
 6057TIP3    H218136   6.753   0.974   3.858  0.6235 -0.0450 -0.9558
 6058TIP3   OH218137   1.863   5.925   1.244  0.0681  0.2669 -0.1207
 6058TIP3    H118138   1.867   6.010   1.199 -3.0037  0.3307 -0.5015
 6058TIP3    H218139   1.842   5.862   1.176 -0.3839 -0.3631  0.5827
 6059TIP3   OH218140   4.441   3.427   0.534 -0.4262  0.8506 -0.2490
 6059TIP3    H118141   4.488   3.434   0.617  1.3842  0.0396 -1.1389
 6059TIP3    H218142   4.420   3.517   0.511  0.9037  1.2829  0.1030
 6060TIP3   OH218143   2.285   0.471   4.606  0.2946  0.0479  0.0363
 6060TIP3    H118144   2.196   0.462   4.639  1.1076 -2.3798  1.8352
 6060TIP3    H218145   2.293   0.402   4.540 -0.0949  2.4017 -2.6810
 6061TIP3   OH218146   2.041   1.388   4.933  0.3574  0.9234 -0.2434
 6061TIP3    H118147   2.033   1.295   4.913  3.6653  0.5293 -0.2597
 6061TIP3    H218148   2.065   1.428   4.849  0.4379  1.5411  0.0726
 6062TIP3   OH218149   2.882   0.394   4.237 -0.0707 -0.3585 -0.1054
 6062TIP3    H118150   2.830   0.416   4.160 -1.8266 -0.1425  1.0698
 6062TIP3    H218151   2.907   0.479   4.274  0.8433 -0.4610 -0.4686
 6063TIP3   OH218152   0.586   2.543   3.658 -0.1102  0.0142 -0.2071
 6063TIP3    H118153   0.608   2.489   3.582  3.1571 -1.2128  1.3763
 6063TIP3    H218154   0.580   2.480   3.730 -0.9194  1.3547  0.9410
 6064TIP3   OH218155   4.412   2.631   0.352  0.6334  0.0664  0.1721
 6064TIP3    H118156   4.319   2.632   0.329  0.2230  0.6805  1.7193
 6064TIP3    H218157   4.431   2.540   0.373  0.7177 -0.2832 -1.3166
 6065TIP3   OH218158   4.475   2.203   4.889  0.1677  0.4459 -0.2044
 6065TIP3    H118159   4.500   2.264   4.958 -0.7327  0.1458  0.4068
 6065TIP3    H218160   4.409   2.250   4.838 -0.0651  0.2255 -0.1127
 6066TIP3   OH218161   3.288   2.350   0.402 -0.7707 -0.2528 -0.9884
 6066TIP3    H118162   3.272   2.346   0.308 -2.2175 -1.9099 -0.7278
 6066TIP3    H218163   3.201   2.339   0.442 -0.4123  1.7586  0.5781
 6067TIP3   OH218164   4.691   5.407   0.204 -0.4762 -0.0395 -0.0916
 6067TIP3    H118165   4.773   5.436   0.165 -0.7705 -2.1744 -2.5824
 6067TIP3    H218166   4.717   5.360   0.283  0.9591 -1.9252 -1.5739
 6068TIP3   OH218167   3.391   5.693   2.324 -0.6732  0.5189 -0.6035
 6068TIP3    H118168   3.352   5.637   2.257  0.1502 -1.0123  0.1549
 6068TIP3    H218169   3.460   5.741   2.278 -0.4823 -0.1051 -0.9795
 6069TIP3   OH218170   0.004   4.034   4.659 -0.8744  0.1304 -0.2047
 6069TIP3    H118171   0.008   4.106   4.721 -1.1369  0.4579 -0.5607
 6069TIP3    H218172   0.027   3.956   4.710  0.5102  0.6073 -0.0629
 6070TIP3   OH218173   2.350   1.044   4.487  0.1981 -0.3621 -0.3822
 6070TIP3    H118174   2.351   0.965   4.542  0.8825 -0.7260 -0.8987
 6070TIP3    H218175   2.384   1.113   4.544 -2.3674  0.0768  0.7628
 6071TIP3   OH218176  -0.028   1.853   5.068  0.0204 -0.3977 -0.3508
 6071TIP3    H118177   0.034   1.791   5.030 -0.2352 -1.2981  0.6603
 6071TIP3    H218178  -0.003   1.859   5.160 -0.9016 -0.1753 -0.0985
 6072TIP3   OH218179   2.984   1.789   2.553 -0.0035 -0.3372 -0.3347
 6072TIP3    H118180   2.893   1.762   2.569  0.2681 -1.0469  0.0461
 6072TIP3    H218181   3.031   1.707   2.536  0.9822 -0.2345  1.5992
 6073TIP3   OH218182   0.105   2.403   1.290 -0.3329  0.2042 -0.2088
 6073TIP3    H118183   0.185   2.444   1.324 -0.7817  0.7841  0.1597
 6073TIP3    H218184   0.118   2.309   1.304  0.1189  0.3284  0.2016
 6074TIP3   OH218185   1.322   2.236   5.164  0.1670 -0.6751  0.0360
 6074TIP3    H118186   1.384   2.297   5.125 -0.4150 -0.1183 -0.0440
 6074TIP3    H218187   1.375   2.163   5.194  1.1290  0.6155  1.6832
 6075TIP3   OH218188   4.430   6.295   0.272  0.4279 -0.0558 -1.0222
 6075TIP3    H118189   4.347   6.328   0.237  1.0606  0.1404 -2.4281
 6075TIP3    H218190   4.492   6.307   0.200  1.1234 -2.5969 -0.9287
 6076TIP3   OH218191   1.727   1.976   3.173 -0.6603  0.5173  0.2175
 6076TIP3    H118192   1.721   2.066   3.140 -2.2292  0.4326  0.1681
 6076TIP3    H218193   1.774   1.984   3.256  0.0084  1.2515 -0.2194
 6077TIP3   OH218194   1.834   3.855   1.301  0.7608 -0.1955 -0.2540
 6077TIP3    H118195   1.917   3.816   1.329  0.5109 -1.0113 -0.6019
 6077TIP3    H218196   1.811   3.807   1.221  0.4183  0.6612 -0.6880
 6078TIP3   OH218197   5.538   6.815   5.087  0.3451 -0.4563  0.0348
 6078TIP3    H118198   5.487   6.758   5.145 -0.0697 -0.5487 -0.4135
 6078TIP3    H218199   5.521   6.781   4.999 -0.0958  0.5032 -0.2638
 6079TIP3   OH218200   3.508   1.232   5.813 -0.2854  0.2499 -0.8077
 6079TIP3    H118201   3.529   1.164   5.878  2.5078 -0.9125 -2.7395
 6079TIP3    H218202   3.434   1.196   5.764 -0.2435 -0.3920 -0.4168
 6080TIP3   OH218203   0.264   4.716   0.403  0.0852 -0.4826 -0.1645
 6080TIP3    H118204   0.205   4.711   0.328  0.0886  0.8172 -0.2850
 6080TIP3    H218205   0.207   4.722   0.479 -0.0279  2.0096 -0.3646
 6081TIP3   OH218206   5.846   4.291   4.158 -0.0225 -0.2778 -0.5591
 6081TIP3    H118207   5.765   4.338   4.138  0.2376  0.8542  0.8824
 6081TIP3    H218208   5.832   4.203   4.124 -2.5792 -0.6724  1.2298
 6082TIP3   OH218209   6.943   5.748   0.797  0.0333 -0.3453 -0.5547
 6082TIP3    H118210   6.998   5.764   0.721 -1.7778 -1.0684 -2.1029
 6082TIP3    H218211   6.950   5.654   0.813 -1.0372 -0.5285 -1.0511
 6083TIP3   OH218212   1.131   0.306   0.411 -0.1149 -0.0177  0.1596
 6083TIP3    H118213   1.050   0.275   0.451 -1.4049  1.0038 -1.5199
 6083TIP3    H218214   1.191   0.317   0.484 -1.9859  0.6858  1.6731
 6084TIP3   OH218215   6.998   1.640   1.573 -0.5353  0.2990  0.3443
 6084TIP3    H118216   6.963   1.719   1.615 -1.0808 -0.7780  2.0076
 6084TIP3    H218217   6.920   1.586   1.557 -0.1642  0.0675 -0.7747
 6085TIP3   OH218218   4.520   3.988   2.372  0.0953  0.6995 -0.3002
 6085TIP3    H118219   4.604   3.979   2.417 -0.7222 -0.5415  1.0774
 6085TIP3    H218220   4.543   4.010   2.282  1.9157 -0.1112 -0.0790
 6086TIP3   OH218221   0.830   3.753   4.558  0.4282  0.3909 -0.4991
 6086TIP3    H118222   0.846   3.726   4.649 -0.7590  0.6379 -0.1997
 6086TIP3    H218223   0.915   3.785   4.528  0.6163  1.2646  0.8598
 6087TIP3   OH218224   1.467   5.156   0.483 -0.1618  0.1025  0.1949
 6087TIP3    H118225   1.530   5.208   0.434 -0.6834 -0.7133 -1.4246
 6087TIP3    H218226   1.464   5.072   0.437  0.6952 -1.4368  2.7448
 6088TIP3   OH218227   2.307   5.060   2.298  0.3417  0.5767 -0.2963
 6088TIP3    H118228   2.377   5.047   2.362  1.2916  0.2182 -1.3714
 6088TIP3    H218229   2.294   4.974   2.258 -0.4956  0.7101 -0.3393
 6089TIP3   OH218230   4.904   4.327   2.694  0.0771  0.4790 -0.3780
 6089TIP3    H118231   4.876   4.417   2.678 -1.7528 -0.0473 -0.4130
 6089TIP3    H218232   4.963   4.333   2.769 -0.0872  1.6890 -0.3231
 6090TIP3   OH218233   2.130   0.589   1.521 -0.4705 -0.3820 -0.3954
 6090TIP3    H118234   2.217   0.629   1.519 -0.6837  0.1532  0.5193
 6090TIP3    H218235   2.147   0.495   1.531  0.0082 -0.3136 -0.5444
 6091TIP3   OH218236   3.795   6.779   0.730 -0.0718  0.3385 -0.2100
 6091TIP3    H118237   3.779   6.732   0.812  0.9720 -0.3339 -0.3801
 6091TIP3    H218238   3.890   6.778   0.719 -0.0475  2.2335 -0.3922
 6092TIP3   OH218239   3.410   2.867   1.925 -0.1897 -0.2792  0.1289
 6092TIP3    H118240   3.319   2.897   1.936 -0.5877 -1.4749  0.2863
 6092TIP3    H218241   3.452   2.936   1.875 -1.1457  0.3783  0.1939
 6093TIP3   OH218242   2.243   0.891   0.961 -0.6993 -0.5694  0.2943
 6093TIP3    H118243   2.238   0.820   0.897 -0.4039 -2.2208  2.0126
 6093TIP3    H218244   2.333   0.924   0.953 -0.1777 -1.7905  0.8605
 6094TIP3   OH218245   5.890   2.213   0.974  0.4639  0.7690 -0.1051
 6094TIP3    H118246   5.810   2.195   0.926  0.4854  0.7000 -0.1139
 6094TIP3    H218247   5.860   2.248   1.058  0.4324  1.4180 -0.3768
 6095TIP3   OH218248   2.265   5.384   2.239  0.3421  0.1052  0.3250
 6095TIP3    H118249   2.357   5.396   2.219 -0.0364 -0.3172 -1.9284
 6095TIP3    H218250   2.228   5.473   2.235  0.4345  0.1287 -0.0244
 6096TIP3   OH218251   5.663   1.776   3.136 -0.6328  0.1639  0.1627
 6096TIP3    H118252   5.599   1.761   3.206 -0.1661 -1.1544  0.3579
 6096TIP3    H218253   5.611   1.799   3.060 -1.2970 -0.1496  0.5065
 6097TIP3   OH218254   6.965   4.325   2.997  0.4903  0.0902 -0.9828
 6097TIP3    H118255   6.988   4.418   3.000  0.9565 -0.0528  0.8472
 6097TIP3    H218256   6.872   4.322   3.020  0.6736  0.0571 -0.2214
 6098TIP3   OH218257   5.765   0.261   3.480 -0.1385 -0.1642 -0.3630
 6098TIP3    H118258   5.755   0.215   3.396 -0.7555  2.1152 -1.6148
 6098TIP3    H218259   5.779   0.191   3.544 -0.6877 -2.0500 -2.1977
 6099TIP3   OH218260   2.638   3.536   4.848 -0.2746  0.3394 -0.0040
 6099TIP3    H118261   2.681   3.586   4.917 -0.6604  1.0493 -0.2704
 6099TIP3    H218262   2.661   3.581   4.767  0.7584 -0.8893 -0.4317
 6100TIP3   OH218263   0.975   4.904   4.966  0.0169  0.3316  0.3183
 6100TIP3    H118264   0.953   4.829   5.020  0.2782  0.2562  0.3227
 6100TIP3    H218265   0.911   4.903   4.895 -1.4961  1.4854  1.6036
 6101TIP3   OH218266   6.799   0.890   0.836  0.1462 -0.1005  0.1373
 6101TIP3    H118267   6.818   0.921   0.925  0.7877  0.2816 -0.1261
 6101TIP3    H218268   6.865   0.823   0.819  1.1070  0.9991 -0.6593
 6102TIP3   OH218269   7.219   0.094   2.551 -0.0200 -0.8997 -0.5400
 6102TIP3    H118270   7.145   0.140   2.511  0.3531  1.2342  1.0365
 6102TIP3    H218271   7.186   0.068   2.637  1.2256  0.8611  0.5471
 6103TIP3   OH218272   6.029   0.780   1.647 -0.6908  0.2105  0.0169
 6103TIP3    H118273   6.038   0.740   1.560  0.8608 -2.1859  1.1760
 6103TIP3    H218274   6.023   0.706   1.707 -0.7944  1.7884  2.0461
 6104TIP3   OH218275   3.119   3.627   3.459  0.5787 -0.1884  0.0337
 6104TIP3    H118276   3.182   3.689   3.495 -0.0086  0.0891  0.6270
 6104TIP3    H218277   3.138   3.544   3.503  0.2316  0.0124  0.5757
 6105TIP3   OH218278   0.855   2.516   4.737 -0.2105  0.4036 -0.0297
 6105TIP3    H118279   0.921   2.534   4.804 -1.1859 -1.7724  1.6162
 6105TIP3    H218280   0.785   2.579   4.756  0.7077  1.7525 -0.8964
 6106TIP3   OH218281   2.281   5.246   0.816  0.1391  0.0751 -0.1657
 6106TIP3    H118282   2.376   5.246   0.806  0.1523  2.1617 -0.6783
 6106TIP3    H218283   2.260   5.338   0.835 -1.7591 -0.3702  0.0406
 6107TIP3   OH218284   6.936   1.919   2.750  0.4506  0.2014  0.0802
 6107TIP3    H118285   6.975   2.004   2.770 -0.1291  0.1787  1.4274
 6107TIP3    H218286   6.959   1.864   2.826 -1.4152 -0.0626  0.4997
 6108TIP3   OH218287   7.090   6.279   1.631  0.0528  0.3322 -0.3373
 6108TIP3    H118288   7.015   6.222   1.651  0.4984 -0.1596 -0.0533
 6108TIP3    H218289   7.051   6.355   1.586 -0.4518 -0.6162 -1.5681
 6109TIP3   OH218290   0.806   1.015   3.749  0.3049 -0.4163 -1.1693
 6109TIP3    H118291   0.829   0.936   3.798 -1.1529 -0.1206  0.0715
 6109TIP3    H218292   0.769   1.074   3.815  0.7278  1.0395 -2.1959
 6110TIP3   OH218293   3.407   2.741   2.511 -0.3728  0.0937 -0.1206
 6110TIP3    H118294   3.468   2.671   2.533  0.9952  1.6359  1.2173
 6110TIP3    H218295   3.343   2.699   2.453  0.9016 -2.0175 -0.1105
 6111TIP3   OH218296   6.662   5.447   3.820 -0.2079  0.6045  0.0155
 6111TIP3    H118297   6.654   5.360   3.779 -0.3365  0.4957  0.2705
 6111TIP3    H218298   6.588   5.452   3.881  0.6018  0.3258  1.0485
 6112TIP3   OH218299   3.249   5.071   2.646 -0.0817 -0.3710 -0.1400
 6112TIP3    H118300   3.226   5.019   2.723 -0.4529  0.1640  0.1257
 6112TIP3    H218301   3.304   5.141   2.680 -1.2991  0.6159 -0.1320
 6113TIP3   OH218302   0.698   2.094   0.191 -0.3036  0.5019 -0.4423
 6113TIP3    H118303   0.786   2.057   0.195 -0.4899  0.1209  0.1744
 6113TIP3    H218304   0.672   2.083   0.099 -0.0260 -0.1269 -0.4500
 6114TIP3   OH218305   4.604   3.441   3.234  0.3480 -0.3414 -0.2069
 6114TIP3    H118306   4.551   3.411   3.161 -0.0176 -1.4384  0.4829
 6114TIP3    H218307   4.634   3.528   3.208 -0.5410 -0.3255 -1.2465
 6115TIP3   OH218308   2.135   0.837   3.449 -0.0606 -0.0721 -0.0466
 6115TIP3    H118309   2.155   0.910   3.507  1.1795 -0.3489 -0.0969
 6115TIP3    H218310   2.214   0.828   3.394  0.4785 -2.4270  1.0049
 6116TIP3   OH218311   4.169   1.300   0.895  0.2545  0.3080 -0.0468
 6116TIP3    H118312   4.120   1.288   0.813 -0.8533  1.0820  0.4758
 6116TIP3    H218313   4.133   1.235   0.955 -0.7004  1.3369  0.5580
 6117TIP3   OH218314   5.516   1.650   1.795 -0.8778 -0.1734 -0.4225
 6117TIP3    H118315   5.568   1.729   1.779 -1.3203 -0.0731 -1.4443
 6117TIP3    H218316   5.494   1.618   1.707 -0.9803 -1.2518 -0.0164
 6118TIP3   OH218317   6.474   3.465   5.791 -0.7140  0.1632  0.0675
 6118TIP3    H118318   6.569   3.453   5.788 -0.9100 -2.7767  1.6137
 6118TIP3    H218319   6.443   3.430   5.708 -0.5094  0.4958 -0.1529
 6119TIP3   OH218320   7.027   6.267   1.219 -0.6477  0.2620 -0.3727
 6119TIP3    H118321   7.113   6.302   1.242 -0.9117  0.3968  0.4394
 6119TIP3    H218322   7.011   6.199   1.284 -0.6782 -0.5316 -1.1868
 6120TIP3   OH218323   5.961   1.056   1.683 -0.0326 -0.9081  0.2023
 6120TIP3    H118324   5.988   0.965   1.672  1.6760 -0.5409  1.0389
 6120TIP3    H218325   6.022   1.091   1.748 -2.7595 -0.0542  2.4576
 6121TIP3   OH218326   5.222   3.194   3.685 -0.0181  0.2107 -0.1975
 6121TIP3    H118327   5.213   3.241   3.602  3.3506 -0.8513 -1.3038
 6121TIP3    H218328   5.199   3.104   3.664  3.5402 -0.6602 -0.8397
 6122TIP3   OH218329   6.876   5.452   1.545  0.0703  0.1383 -0.2277
 6122TIP3    H118330   6.806   5.513   1.566 -0.1944  0.6267 -2.3551
 6122TIP3    H218331   6.956   5.504   1.551  0.1848 -0.1522  1.1283
 6123TIP3   OH218332   2.225   1.818   4.275 -0.0620  0.3523 -0.1084
 6123TIP3    H118333   2.187   1.731   4.277  1.6330 -0.4206  0.7525
 6123TIP3    H218334   2.224   1.844   4.183  1.7448 -1.6904 -0.7746
 6124TIP3   OH218335   1.529   5.217   1.129  0.5171 -0.3277  0.2633
 6124TIP3    H118336   1.525   5.171   1.213  0.0171  0.3183  0.6008
 6124TIP3    H218337   1.618   5.253   1.126  1.5312 -2.6968 -0.7773
 6125TIP3   OH218338   3.367   6.460   1.317 -0.4381  0.0412 -0.2480
 6125TIP3    H118339   3.375   6.555   1.327 -1.3956  0.0362  0.7519
 6125TIP3    H218340   3.313   6.449   1.238  0.3250  0.2963 -0.8174
 6126TIP3   OH218341   5.310   6.738   2.048  0.0293 -0.6474  0.2576
 6126TIP3    H118342   5.313   6.698   1.962 -1.7297  1.0265 -0.6791
 6126TIP3    H218343   5.363   6.817   2.040 -0.2828 -0.3911  0.6429
 6127TIP3   OH218344   0.183   1.101   1.647 -0.4946 -0.0625 -0.2671
 6127TIP3    H118345   0.277   1.086   1.653 -0.4791 -0.4335 -1.2729
 6127TIP3    H218346   0.170   1.190   1.681 -0.0396 -0.6919  1.6745
 6128TIP3   OH218347   5.246   5.585   4.645  0.0514 -0.1730 -0.1010
 6128TIP3    H118348   5.155   5.570   4.619 -0.1413 -0.4541  0.7070
 6128TIP3    H218349   5.240   5.651   4.715  0.6513  1.4666 -1.5187
 6129TIP3   OH218350   5.893   1.376   3.668  0.3262 -0.2672 -0.0682
 6129TIP3    H118351   5.822   1.438   3.688 -0.8026 -1.4483 -0.3343
 6129TIP3    H218352   5.849   1.294   3.648  1.8150 -1.2726  0.6084
 6130TIP3   OH218353   7.156   5.483   5.387 -0.2522 -0.1683  0.3285
 6130TIP3    H118354   7.203   5.453   5.308  0.2251  0.8445  0.2069
 6130TIP3    H218355   7.206   5.445   5.460 -2.0555 -3.1013  0.1771
 6131TIP3   OH218356   0.750   2.860   5.432  0.1488  0.6222  0.2358
 6131TIP3    H118357   0.680   2.846   5.496 -0.0817  1.8218  0.2746
 6131TIP3    H218358   0.721   2.936   5.382  1.4370  1.1611  0.2726
 6132TIP3   OH218359   6.171   4.006   0.636  0.1512  0.2357  0.4639
 6132TIP3    H118360   6.198   4.068   0.567 -0.2777 -0.5937 -0.4755
 6132TIP3    H218361   6.202   3.921   0.605 -0.6958 -0.2595  0.9363
 6133TIP3   OH218362   5.177   1.704   1.569 -0.2255 -0.4259 -0.6763
 6133TIP3    H118363   5.181   1.609   1.582  1.8803 -0.2479  0.4020
 6133TIP3    H218364   5.090   1.729   1.601 -0.8888 -1.9818 -1.1439
 6134TIP3   OH218365   1.312   1.172   1.008 -0.5372  0.7316 -0.4059
 6134TIP3    H118366   1.343   1.263   1.012 -0.7804  0.7596  1.4263
 6134TIP3    H218367   1.217   1.179   1.013 -0.5659  0.3759 -0.4383
 6135TIP3   OH218368   1.989   6.434   2.713  0.3285  0.0004  0.1771
 6135TIP3    H118369   1.981   6.340   2.731  1.0315 -0.0591  0.2131
 6135TIP3    H218370   1.976   6.476   2.798 -0.2130 -0.0426  0.1224
 6136TIP3   OH218371   1.709   6.528   0.312 -0.0836 -0.5990 -0.3059
 6136TIP3    H118372   1.766   6.600   0.287 -2.8159  1.1896 -1.8896
 6136TIP3    H218373   1.694   6.480   0.230  0.9631 -2.5205  0.5509
 6137TIP3   OH218374   0.428   0.873   3.249  0.2118 -0.3830  0.2899
 6137TIP3    H118375   0.406   0.836   3.164  1.1506  0.7063 -0.4528
 6137TIP3    H218376   0.521   0.896   3.243  0.1535  0.2369  1.4068
 6138TIP3   OH218377   2.063   0.580   4.086  0.0351  0.0794 -0.4915
 6138TIP3    H118378   2.115   0.618   4.016 -1.1391 -0.2165 -1.5647
 6138TIP3    H218379   1.988   0.540   4.041 -0.0101 -1.3815  0.7921
 6139TIP3   OH218380   2.062   0.168   3.244 -0.1359 -0.4052  0.0737
 6139TIP3    H118381   2.075   0.223   3.166  1.2463  0.6439  1.0049
 6139TIP3    H218382   1.969   0.145   3.241  0.0898 -1.2989 -2.4502
 6140TIP3   OH218383   4.821   4.631   5.756  0.1803 -0.4458 -0.2930
 6140TIP3    H118384   4.894   4.660   5.811 -0.1383  1.5500 -0.8302
 6140TIP3    H218385   4.762   4.586   5.816 -0.0492  1.4595  1.0178
 6141TIP3   OH218386   0.021   5.734   3.968  0.1566  0.1326  0.2653
 6141TIP3    H118387   0.014   5.643   3.939 -1.9976 -0.3014  1.8812
 6141TIP3    H218388   0.076   5.730   4.046 -0.7330  0.0256  0.9054
 6142TIP3   OH218389   4.668   1.389   0.536  0.6176  0.0769  0.2756
 6142TIP3    H118390   4.753   1.426   0.561  0.8375  1.2457 -1.9267
 6142TIP3    H218391   4.650   1.324   0.603  2.9776  0.1962  1.1372
 6143TIP3   OH218392   5.200   0.352   4.382  0.0264 -0.0368  0.0264
 6143TIP3    H118393   5.280   0.364   4.434 -1.2096 -0.9024  2.2779
 6143TIP3    H218394   5.172   0.441   4.360  1.5110  0.2831 -0.7080
 6144TIP3   OH218395   2.265   1.117   5.109 -0.1715 -0.0240 -1.1277
 6144TIP3    H118396   2.351   1.158   5.098  0.1825 -0.0836  1.0312
 6144TIP3    H218397   2.284   1.031   5.146 -1.1607  0.1020 -0.2811
 6145TIP3   OH218398   1.402   0.861   2.882  0.0079  0.5249  0.2782
 6145TIP3    H118399   1.336   0.885   2.817 -0.4967 -1.7170 -0.1126
 6145TIP3    H218400   1.483   0.854   2.831 -0.2923 -0.7454 -0.0668
 6146TIP3   OH218401   3.334   0.344   2.109  0.6825 -0.7013 -0.0126
 6146TIP3    H118402   3.407   0.297   2.150  0.4461 -0.3019  0.9031
 6146TIP3    H218403   3.363   0.435   2.107  0.3970 -0.6112 -0.0622
 6147TIP3   OH218404   1.794   1.125   5.633 -0.0408 -0.0021  0.2608
 6147TIP3    H118405   1.724   1.158   5.577  0.2921  1.0538  0.4604
 6147TIP3    H218406   1.870   1.177   5.610  1.0332 -1.9198 -0.8115
 6148TIP3   OH218407   6.779   1.730   5.758  0.3738  0.0039  0.1819
 6148TIP3    H118408   6.761   1.671   5.831 -4.1672  0.4573 -0.3110
 6148TIP3    H218409   6.826   1.675   5.694 -1.5661 -2.4612  0.7263
 6149TIP3   OH218410   2.817   0.354   0.830  0.1035  0.1783 -0.1741
 6149TIP3    H118411   2.813   0.260   0.812 -0.8966  0.3396 -0.8837
 6149TIP3    H218412   2.893   0.384   0.780  0.4505 -0.2559  0.0852
 6150TIP3   OH218413   2.351   0.068   1.396 -0.0116  0.3040  0.3463
 6150TIP3    H118414   2.302   0.046   1.475  0.3583  2.2659  1.1592
 6150TIP3    H218415   2.429   0.012   1.401 -1.4334 -1.8502 -0.2749
 6151TIP3   OH218416   4.930   3.352   3.372 -0.0880  0.3018  0.2363
 6151TIP3    H118417   4.840   3.322   3.383  0.1370 -1.1268 -1.3472
 6151TIP3    H218418   4.923   3.447   3.363 -1.3490  0.2786  0.7143
 6152TIP3   OH218419   3.463   4.256   0.821 -0.2043  0.4924 -0.0708
 6152TIP3    H118420   3.478   4.276   0.913 -0.6673  2.7332 -0.4439
 6152TIP3    H218421   3.550   4.237   0.787 -0.0473 -0.5201  0.8363
 6153TIP3   OH218422   3.168   4.580   2.330 -0.0726 -0.1355  0.0408
 6153TIP3    H118423   3.174   4.575   2.425  0.0558  0.0350  0.0404
 6153TIP3    H218424   3.192   4.492   2.300  2.1064  0.4079  0.0496
 6154TIP3   OH218425   0.702   0.635   3.413 -0.2461 -0.2651  0.2125
 6154TIP3    H118426   0.746   0.704   3.363 -0.6049  0.8666  1.4152
 6154TIP3    H218427   0.770   0.598   3.468 -0.0336 -0.9581 -0.4971
 6155TIP3   OH218428   5.330   6.064   4.088  0.3499 -0.6176 -0.6159
 6155TIP3    H118429   5.290   6.148   4.065  0.7432 -0.6276 -1.3957
 6155TIP3    H218430   5.272   6.025   4.153  0.2447  0.3287 -0.1342
 6156TIP3   OH218431   1.906   4.942   1.546 -0.0018 -0.4500 -0.1473
 6156TIP3    H118432   1.829   4.980   1.588  0.9249 -0.0495  1.2133
 6156TIP3    H218433   1.880   4.851   1.527 -1.0480 -0.1166 -0.3708
 6157TIP3   OH218434   2.374   1.585   0.008  0.1309 -0.2124 -0.3107
 6157TIP3    H118435   2.425   1.547   0.080  0.8346  2.0349  0.4868
 6157TIP3    H218436   2.359   1.676   0.035 -1.4716  0.1061 -2.0520
 6158TIP3   OH218437   4.042   3.050   3.671 -0.0929  0.6410 -0.7112
 6158TIP3    H118438   3.964   2.994   3.669 -0.0755  0.6307 -1.5315
 6158TIP3    H218439   4.011   3.133   3.708  0.1350 -0.2492  1.6522
 6159TIP3   OH218440   4.908   3.176   0.860  0.1851 -0.3923  0.2274
 6159TIP3    H118441   4.843   3.206   0.796  0.1337  2.4785  1.4393
 6159TIP3    H218442   4.978   3.241   0.855  0.8967 -0.9720  1.9658
 6160TIP3   OH218443   4.039   4.926   1.512 -0.3819  0.2376 -0.0079
 6160TIP3    H118444   3.952   4.943   1.549 -0.3270 -2.1842  1.4895
 6160TIP3    H218445   4.024   4.856   1.448  0.4531 -0.1523  0.2121
 6161TIP3   OH218446   2.669   2.012   4.395  0.5223  0.5933 -0.4287
 6161TIP3    H118447   2.755   1.992   4.432 -0.4172 -0.3070  1.3974
 6161TIP3    H218448   2.679   2.098   4.356  1.9746  0.9915  0.7239
 6162TIP3   OH218449   2.340   1.493   1.163  0.0063  0.2398 -0.1119
 6162TIP3    H118450   2.247   1.509   1.150  0.0557  0.3068 -0.4153
 6162TIP3    H218451   2.345   1.420   1.224 -0.2410  0.4967  0.2174
 6163TIP3   OH218452   0.158   4.924   2.698 -0.1268  0.2328 -0.1104
 6163TIP3    H118453   0.131   4.833   2.714  1.0001 -0.0824  0.0975
 6163TIP3    H218454   0.086   4.962   2.648 -1.2233 -0.3890  0.9260
 6164TIP3   OH218455   1.344   0.472   3.985 -0.1758  0.0062  0.0772
 6164TIP3    H118456   1.332   0.464   3.890  1.0816  0.4603 -0.1407
 6164TIP3    H218457   1.315   0.389   4.021  0.2158 -0.5190 -0.8040
 6165TIP3   OH218458   2.270   4.314   2.479 -0.2493  0.0321 -0.3702
 6165TIP3    H118459   2.231   4.306   2.392 -0.4399 -2.8010 -0.1185
 6165TIP3    H218460   2.349   4.366   2.466  0.5972 -1.6713 -2.5842
 6166TIP3   OH218461   0.819   4.900   3.140 -0.0039 -0.6420  0.7460
 6166TIP3    H118462   0.774   4.970   3.186 -1.7642 -0.4643 -1.1120
 6166TIP3    H218463   0.759   4.825   3.145 -0.3761 -0.5575 -1.3084
 6167TIP3   OH218464   6.520   6.518   0.460  0.4227  0.4715  0.4015
 6167TIP3    H118465   6.586   6.573   0.501  2.0369 -1.7270  0.9525
 6167TIP3    H218466   6.560   6.490   0.377  0.1890 -0.8122  0.6950
 6168TIP3   OH218467   2.086   6.111   5.519  0.0580  0.2527  0.3573
 6168TIP3    H118468   2.117   6.063   5.442 -0.1202  0.2723  0.2730
 6168TIP3    H218469   2.141   6.189   5.522  0.9173 -0.3662  0.9818
 6169TIP3   OH218470   4.836   4.967   5.177 -0.0858  0.5004  0.0114
 6169TIP3    H118471   4.783   5.014   5.241 -0.8502 -1.3651  0.8317
 6169TIP3    H218472   4.924   5.004   5.186 -0.6978  1.9470  0.3737
 6170TIP3   OH218473   6.509   2.872   5.102 -0.2083 -0.0919 -0.4376
 6170TIP3    H118474   6.516   2.945   5.040  1.7238 -0.6362 -0.9343
 6170TIP3    H218475   6.495   2.915   5.187  0.6848  0.8845 -0.7488
 6171TIP3   OH218476   4.880   4.043   0.060 -0.0087 -0.0723  0.1729
 6171TIP3    H118477   4.905   4.032   0.152 -0.2506  0.0415  0.2521
 6171TIP3    H218478   4.786   4.029   0.059 -0.4126  2.2325  0.3324
 6172TIP3   OH218479   1.459   6.067   5.351  0.4097  0.2595 -0.0614
 6172TIP3    H118480   1.521   6.140   5.359  1.4539 -0.4860 -0.8881
 6172TIP3    H218481   1.445   6.037   5.440 -1.5981  2.6689  0.5337
 6173TIP3   OH218482   4.795   3.359   4.185  0.1673 -0.1520 -0.4734
 6173TIP3    H118483   4.811   3.441   4.232 -0.7360  0.3740 -1.0611
 6173TIP3    H218484   4.750   3.385   4.105  0.8897 -1.1235 -1.2272
 6174TIP3   OH218485   4.501   5.396   1.084 -0.0716  0.0538 -0.0195
 6174TIP3    H118486   4.420   5.444   1.068 -0.2624 -0.2194  0.1058
 6174TIP3    H218487   4.475   5.304   1.082  0.2893 -0.0470 -0.2648
 6175TIP3   OH218488   6.928   6.356   4.305 -0.5531  0.3399 -0.1809
 6175TIP3    H118489   6.967   6.284   4.256  1.4558 -0.2479  2.1050
 6175TIP3    H218490   6.865   6.314   4.363 -0.7185  0.6668 -0.1231
 6176TIP3   OH218491   6.911   5.976   3.336  0.5451  0.0768  0.8048
 6176TIP3    H118492   6.853   5.902   3.354  2.1258 -1.5209 -0.2861
 6176TIP3    H218493   6.970   5.979   3.412  0.0103  0.7513  1.2107
 6177TIP3   OH218494   1.498   1.446   0.398  0.1599  0.4270 -0.1396
 6177TIP3    H118495   1.495   1.420   0.490  0.9886  1.6160  0.2573
 6177TIP3    H218496   1.423   1.402   0.358  0.9984 -1.7957  0.6257
 6178TIP3   OH218497   4.794   2.793   0.945  0.4418  0.2585 -0.2218
 6178TIP3    H118498   4.705   2.784   0.979  0.1192 -1.3158 -1.3692
 6178TIP3    H218499   4.833   2.863   0.998 -0.5978 -0.8118  2.1022
 6179TIP3   OH218500   0.962   0.578   0.569 -0.1661 -0.2874  0.4500
 6179TIP3    H118501   0.968   0.506   0.506 -0.8767 -0.0431  0.0871
 6179TIP3    H218502   1.052   0.595   0.595  0.0803 -0.7903 -0.0525
 6180TIP3   OH218503   7.136   1.906   4.342  0.4571 -0.1015  0.6907
 6180TIP3    H118504   7.061   1.861   4.303  1.3275 -0.8166 -0.2217
 6180TIP3    H218505   7.184   1.942   4.267  0.2147  1.7034  1.3516
 6181TIP3   OH218506   3.732   0.948   4.342  0.1701 -0.0036  0.5092
 6181TIP3    H118507   3.662   0.952   4.407  1.1303 -1.0804  1.6482
 6181TIP3    H218508   3.739   1.038   4.309 -0.1816  0.6287  2.0727
 6182TIP3   OH218509   2.865   5.067   1.222 -0.0551 -0.1921 -0.9775
 6182TIP3    H118510   2.951   5.040   1.190  0.4928  0.7669 -0.3534
 6182TIP3    H218511   2.883   5.136   1.286 -1.1944 -1.0916  0.3781
 6183TIP3   OH218512   4.559   6.817   5.022  0.1120 -0.5395 -0.0740
 6183TIP3    H118513   4.653   6.803   5.009  0.4497  0.7212  0.7715
 6183TIP3    H218514   4.533   6.749   5.084  0.4802 -0.8488 -0.2548
 6184TIP3   OH218515   3.368   3.298   0.053  0.8367 -0.1061  0.1504
 6184TIP3    H118516   3.310   3.369   0.081 -1.1076 -1.9194  0.9611
 6184TIP3    H218517   3.437   3.297   0.119  0.0854  0.1388  0.9717
 6185TIP3   OH218518   2.091   4.183   1.517  0.1790 -0.7567 -0.4167
 6185TIP3    H118519   2.114   4.264   1.473  0.0148  1.5476  3.2804
 6185TIP3    H218520   2.163   4.123   1.498  1.8704  1.3043 -0.8082
 6186TIP3   OH218521   4.654   0.265   1.584 -0.1630 -0.1473 -0.3689
 6186TIP3    H118522   4.693   0.271   1.671  0.0387 -0.5620 -0.4279
 6186TIP3    H218523   4.645   0.171   1.568 -0.5579 -0.0694 -0.6374
 6187TIP3   OH218524   6.388   3.498   0.858 -0.2828 -0.0673 -0.1202
 6187TIP3    H118525   6.467   3.510   0.912  0.3526  1.4566 -1.2969
 6187TIP3    H218526   6.343   3.424   0.898 -0.3378  1.4817  3.0945
 6188TIP3   OH218527   3.410   1.669   4.391 -0.6505  0.4315  0.0317
 6188TIP3    H118528   3.383   1.659   4.299 -0.9515 -1.4545  0.2909
 6188TIP3    H218529   3.441   1.582   4.416  0.3942  1.1765  1.4373
 6189TIP3   OH218530   0.603   1.917   0.757  1.0378  0.0083 -0.3122
 6189TIP3    H118531   0.562   1.895   0.841 -0.1448 -0.5425 -1.0070
 6189TIP3    H218532   0.659   1.841   0.738  2.8733  0.9875  0.8876
 6190TIP3   OH218533   3.571   5.007   0.120 -1.1257 -0.4921  0.4941
 6190TIP3    H118534   3.549   5.065   0.046  0.2575 -0.0829  0.3844
 6190TIP3    H218535   3.636   4.947   0.085 -1.1567 -0.9049  1.1359
 6191TIP3   OH218536   2.049   5.590   3.087  0.2832 -0.3338  0.3131
 6191TIP3    H118537   1.977   5.595   3.024  2.0069  1.0144 -1.6722
 6191TIP3    H218538   2.117   5.541   3.041  1.8135  1.1858  0.8777
 6192TIP3   OH218539   3.297   5.827   4.582  0.2936 -0.1077 -0.2786
 6192TIP3    H118540   3.333   5.885   4.515 -0.1227 -0.1704 -0.5586
 6192TIP3    H218541   3.293   5.881   4.661  1.0932 -0.1282 -0.2110
 6193TIP3   OH218542   0.386   2.149   5.767  0.0279  0.3378 -0.2920
 6193TIP3    H118543   0.386   2.081   5.835  1.8355 -0.6431 -1.2105
 6193TIP3    H218544   0.321   2.119   5.704 -0.4184  0.3720  0.1392
 6194TIP3   OH218545   3.067   6.054   3.369 -0.2365  0.3304 -0.0007
 6194TIP3    H118546   3.014   6.104   3.431 -2.5461 -0.9676 -0.8151
 6194TIP3    H218547   3.100   5.980   3.419 -1.4858 -0.3156 -0.0872
 6195TIP3   OH218548   5.125   6.620   4.570 -0.1963 -0.3673 -0.6945
 6195TIP3    H118549   5.193   6.601   4.635  0.2740  0.3094 -0.9689
 6195TIP3    H218550   5.147   6.563   4.496  0.4165  0.2441 -0.9986
 6196TIP3   OH218551   3.625   1.227   2.311 -0.0788 -0.1645 -0.2278
 6196TIP3    H118552   3.672   1.172   2.374  1.0608  2.3881  1.3567
 6196TIP3    H218553   3.562   1.276   2.364 -0.0492  1.0797 -1.2864
 6197TIP3   OH218554   3.937   0.289   0.110  0.7122  0.2328 -0.3014
 6197TIP3    H118555   3.915   0.313   0.020  1.9819  0.6035 -0.5313
 6197TIP3    H218556   3.925   0.194   0.113  1.6556  0.0772 -1.1586
 6198TIP3   OH218557   4.699   3.426   3.950  0.2182  0.2853 -0.1186
 6198TIP3    H118558   4.688   3.385   3.864 -0.8396  0.9048 -0.2959
 6198TIP3    H218559   4.742   3.509   3.932 -0.5225  0.6768 -0.1302
 6199TIP3   OH218560   5.737   0.903   1.683  0.1997 -0.2230  0.4370
 6199TIP3    H118561   5.710   0.917   1.773  0.1187  2.3333  0.0681
 6199TIP3    H218562   5.801   0.971   1.665 -0.1669 -0.3350 -1.5949
 6200TIP3   OH218563   2.507   5.653   0.141  0.3782  0.2774 -0.0409
 6200TIP3    H118564   2.480   5.656   0.049 -0.1596  1.3837  0.1370
 6200TIP3    H218565   2.504   5.560   0.164  3.2427 -0.3790 -1.9102
 6201TIP3   OH218566   1.389   0.792   2.597  0.0002  0.2724  0.1426
 6201TIP3    H118567   1.455   0.860   2.581 -0.1711  0.9189  1.9220
 6201TIP3    H218568   1.306   0.839   2.596 -0.2059 -0.0899  0.3467
 6202TIP3   OH218569   3.907   4.620   3.062  0.1997 -0.0198 -0.4976
 6202TIP3    H118570   4.002   4.626   3.067  0.1462  1.2980 -0.7476
 6202TIP3    H218571   3.887   4.529   3.086  1.4355  0.0221  0.7886
 6203TIP3   OH218572   1.221   3.096   0.287  0.3001  0.1709  0.5064
 6203TIP3    H118573   1.315   3.089   0.270  0.5985  0.3524  1.9710
 6203TIP3    H218574   1.183   3.022   0.239  1.3163 -0.5386  0.7580
 6204TIP3   OH218575   6.940   5.405   5.594  0.4669  0.1502  0.0666
 6204TIP3    H118576   6.975   5.405   5.506  0.8372  0.2767  0.2137
 6204TIP3    H218577   6.900   5.318   5.604 -1.1440  0.7404 -0.8367
 6205TIP3   OH218578   3.645   0.329   1.862  0.4151 -0.3463 -0.0222
 6205TIP3    H118579   3.700   0.316   1.939  1.5498  0.2392 -0.7056
 6205TIP3    H218580   3.705   0.325   1.788 -0.6595 -0.9244 -0.8941
 6206TIP3   OH218581   1.500   3.197   0.297  0.6514 -0.5722 -0.2480
 6206TIP3    H118582   1.464   3.258   0.233  1.8752 -1.0188 -1.4080
 6206TIP3    H218583   1.581   3.238   0.327 -0.1389 -0.1403  1.4282
 6207TIP3   OH218584   1.387   3.038  -0.024 -0.0018 -0.2424  0.0617
 6207TIP3    H118585   1.403   3.118   0.026  0.8291  0.3309 -1.0756
 6207TIP3    H218586   1.324   2.989   0.028 -2.8141  2.4398 -0.5522
 6208TIP3   OH218587   1.751   1.760   1.481 -0.1922 -1.0391 -0.1392
 6208TIP3    H118588   1.694   1.829   1.448  3.5485  2.1854 -0.6486
 6208TIP3    H218589   1.761   1.700   1.406  0.2301  0.6204 -1.4872
 6209TIP3   OH218590   6.137   4.733   3.229  0.4851  0.0085 -0.2189
 6209TIP3    H118591   6.145   4.783   3.148 -1.3537 -1.5053 -1.4279
 6209TIP3    H218592   6.133   4.800   3.298  1.3444  1.3598 -1.4327
 6210TIP3   OH218593   0.365   5.906   2.336 -0.0789  0.1200 -0.2594
 6210TIP3    H118594   0.362   5.988   2.385 -1.3806  0.9182 -1.6020
 6210TIP3    H218595   0.319   5.843   2.392  0.0158  0.5590  0.3221
 6211TIP3   OH218596   0.422   3.625   5.355 -0.5146  0.3149  0.1609
 6211TIP3    H118597   0.330   3.644   5.369 -0.2247  0.4989  1.9701
 6211TIP3    H218598   0.469   3.691   5.406  0.6491  0.5715 -1.1604
 6212TIP3   OH218599   4.128   4.599   4.320  0.0865 -0.2715  0.2742
 6212TIP3    H118600   4.037   4.595   4.289  0.4635  0.2326 -0.9638
 6212TIP3    H218601   4.130   4.675   4.379 -0.7290 -1.4630  1.8998
 6213TIP3   OH218602   7.219   6.109   3.596 -0.1814 -0.1711 -0.2425
 6213TIP3    H118603   7.128   6.125   3.619 -0.0362 -1.2328  1.2318
 6213TIP3    H218604   7.258   6.073   3.676  1.7381  0.9921 -0.5791
 6214TIP3   OH218605   1.013   4.927   5.392  0.0960  0.4913 -0.0695
 6214TIP3    H118606   1.062   5.003   5.361 -0.1363  0.8252  0.3669
 6214TIP3    H218607   0.948   4.912   5.324  1.1838 -0.3421 -0.9574
 6215TIP3   OH218608   6.931   0.284   4.665 -0.1086 -0.2645 -0.2092
 6215TIP3    H118609   6.914   0.194   4.693 -0.0526 -1.0747 -2.5920
 6215TIP3    H218610   6.978   0.323   4.739  3.8774 -3.5149 -0.6738
 6216TIP3   OH218611   0.536   0.432   0.616 -0.0765  0.1579  0.5729
 6216TIP3    H118612   0.563   0.476   0.697 -1.1162  1.6777  0.1476
 6216TIP3    H218613   0.510   0.503   0.558 -2.7109 -1.0321  0.1497
 6217TIP3   OH218614   5.871   0.626   5.639  0.6169 -0.2059 -0.5248
 6217TIP3    H118615   5.929   0.701   5.650 -0.0561  0.3548 -0.7147
 6217TIP3    H218616   5.786   0.665   5.616 -0.0073 -0.9721  0.4394
 6218TIP3   OH218617   5.627   0.563   4.738  0.2584 -0.0270  0.3314
 6218TIP3    H118618   5.712   0.599   4.712  0.8641 -0.8347  1.1143
 6218TIP3    H218619   5.649   0.497   4.804 -0.7910 -1.8028 -1.0035
 6219TIP3   OH218620   1.495   4.230   1.216 -0.1966 -0.0467 -0.2010
 6219TIP3    H118621   1.438   4.156   1.239 -0.0492 -0.0001  0.3186
 6219TIP3    H218622   1.513   4.218   1.123 -1.4849  0.2298 -0.5033
 6220TIP3   OH218623   0.304   4.111   5.258 -0.0913 -0.2779  0.5444
 6220TIP3    H118624   0.256   4.086   5.178 -0.6521  2.4943 -0.0715
 6220TIP3    H218625   0.393   4.130   5.227 -0.0951  0.0276  0.7248
 6221TIP3   OH218626   6.892   3.961   2.662 -0.4669  0.7626  0.2298
 6221TIP3    H118627   6.817   3.995   2.712 -0.4234  0.9501  0.1698
 6221TIP3    H218628   6.968   4.004   2.702 -0.3749  0.4575  0.3901
 6222TIP3   OH218629   6.808   1.783   2.184  0.2629 -0.0215  0.0113
 6222TIP3    H118630   6.903   1.786   2.190  0.2069  0.3336  0.8195
 6222TIP3    H218631   6.787   1.836   2.106  0.6982  0.2144  0.0523
 6223TIP3   OH218632   3.203   0.471   0.301 -0.7831  0.1944  0.2524
 6223TIP3    H118633   3.280   0.522   0.279 -1.3067  0.7067 -0.4214
 6223TIP3    H218634   3.212   0.454   0.395  0.5146 -0.3922  0.0470
 6224TIP3   OH218635   7.000   0.722   4.289 -0.2274 -0.0218 -0.3088
 6224TIP3    H118636   6.988   0.724   4.384  0.3783 -1.8549 -0.1450
 6224TIP3    H218637   6.923   0.676   4.256 -0.7791  1.2330 -0.7888
 6225TIP3   OH218638   0.321   5.587   5.819 -0.1044 -0.0055  0.6626
 6225TIP3    H118639   0.377   5.647   5.868  1.1449 -1.0149  0.5191
 6225TIP3    H218640   0.257   5.556   5.882  2.0565 -2.0319  2.0350
 6226TIP3   OH218641   6.164   3.614   4.307 -0.1358 -0.5154 -0.1414
 6226TIP3    H118642   6.080   3.594   4.347 -0.3899 -0.8070 -0.8071
 6226TIP3    H218643   6.184   3.537   4.254  1.0877 -0.9364  0.8720
 6227TIP3   OH218644   6.578   5.299   1.891  0.1173  0.6082  0.0565
 6227TIP3    H118645   6.484   5.294   1.908  0.1911  0.7709  0.5192
 6227TIP3    H218646   6.584   5.316   1.797 -0.3869  3.0634  0.3991
 6228TIP3   OH218647   3.568   4.806   1.291  0.0648 -0.2345  0.0043
 6228TIP3    H118648   3.516   4.759   1.356 -0.3369 -0.3603 -0.3983
 6228TIP3    H218649   3.517   4.798   1.210 -0.7697  2.0809  0.2086
 6229TIP3   OH218650   5.983   6.458   5.282 -0.1498  0.2187  1.0810
 6229TIP3    H118651   5.943   6.377   5.313 -0.9714  0.4342  0.6284
 6229TIP3    H218652   5.911   6.521   5.280 -0.4891 -0.0673 -2.3479
 6230TIP3   OH218653   4.276   0.441   1.720 -0.4864 -0.2509  0.2813
 6230TIP3    H118654   4.304   0.369   1.664  1.5198 -0.0204  0.8998
 6230TIP3    H218655   4.356   0.491   1.736 -1.9512  2.7724 -1.0178
 6231TIP3   OH218656   6.257   1.724   5.120 -0.0777 -0.4895 -0.0581
 6231TIP3    H118657   6.183   1.783   5.111  0.2857  0.1206  0.7625
 6231TIP3    H218658   6.316   1.747   5.048  0.2821  0.5027  0.5289
 6232TIP3   OH218659   0.956   6.541   2.239 -0.2606 -0.1194  0.2506
 6232TIP3    H118660   0.971   6.629   2.205  5.1133 -1.2060 -1.0940
 6232TIP3    H218661   0.907   6.497   2.170 -0.7299  1.0748 -0.2152
 6233TIP3   OH218662   3.659   2.717   2.337  0.2485  0.7435  0.6632
 6233TIP3    H118663   3.590   2.727   2.272  0.1036 -1.1689  0.4575
 6233TIP3    H218664   3.612   2.711   2.421  0.0577 -1.0445  0.4774
 6234TIP3   OH218665   3.236   6.565   2.776  0.3576 -0.5623  0.2844
 6234TIP3    H118666   3.240   6.484   2.726 -0.7668 -0.2391 -0.3566
 6234TIP3    H218667   3.243   6.537   2.868 -0.1137 -1.3935  0.0792
 6235TIP3   OH218668   2.616   3.586   0.513  0.2155 -0.5286 -0.7209
 6235TIP3    H118669   2.659   3.617   0.592 -0.4443 -0.3152 -0.4453
 6235TIP3    H218670   2.545   3.530   0.544  0.3386 -0.9485 -1.1753
 6236TIP3   OH218671   4.249   1.181   5.343 -0.1357 -0.1613  0.6904
 6236TIP3    H118672   4.187   1.248   5.314  0.7543  0.1747 -0.5303
 6236TIP3    H218673   4.223   1.162   5.433 -1.4956  0.5482  0.4754
 6237TIP3   OH218674   3.921   0.461   2.726  0.4544  0.5395  0.2044
 6237TIP3    H118675   3.974   0.382   2.723 -0.1147  0.1488  0.1712
 6237TIP3    H218676   3.982   0.531   2.748  0.9153  0.0429  0.5263
 6238TIP3   OH218677   7.155   3.827   2.045 -0.1581  0.0535  0.5175
 6238TIP3    H118678   7.249   3.819   2.063 -0.3994 -0.8924  1.4520
 6238TIP3    H218679   7.129   3.740   2.015 -0.5770  0.5475 -0.6031
 6239TIP3   OH218680   4.424   3.458   2.630 -0.2152  0.4780  0.4318
 6239TIP3    H118681   4.369   3.481   2.705  0.6282  1.9495  0.6499
 6239TIP3    H218682   4.448   3.543   2.591  0.3944 -0.2039 -0.7387
 6240TIP3   OH218683   5.513   4.709   5.568  0.6234  0.3266  0.2596
 6240TIP3    H118684   5.493   4.736   5.657  0.4222  0.0051  0.3116
 6240TIP3    H218685   5.607   4.725   5.559  0.8964 -0.7864  0.9375
 6241TIP3   OH218686   6.515   5.227   3.115  0.5783 -0.0096  0.3339
 6241TIP3    H118687   6.524   5.134   3.094  0.2696 -0.3944  1.7525
 6241TIP3    H218688   6.516   5.229   3.211 -0.8317  1.2975  0.3477
 6242TIP3   OH218689   2.389   6.352   4.580  0.3415 -0.3671  0.5224
 6242TIP3    H118690   2.383   6.273   4.633 -1.4164  0.9644  2.4242
 6242TIP3    H218691   2.354   6.422   4.635  0.5265  1.5179 -1.5882
 6243TIP3   OH218692   3.596   0.613   1.239 -0.1829 -0.1811 -0.3133
 6243TIP3    H118693   3.669   0.660   1.199  1.2076 -0.5929  1.5768
 6243TIP3    H218694   3.577   0.663   1.318  0.8517 -2.2696  1.3712
 6244TIP3   OH218695   0.762   0.388   1.981 -0.5911 -0.1377 -0.0626
 6244TIP3    H118696   0.832   0.403   2.044 -0.1543 -0.2387 -0.5174
 6244TIP3    H218697   0.715   0.471   1.978  0.4675  0.4587 -0.9127
 6245TIP3   OH218698   5.561   1.087   5.081 -0.3288 -0.2998 -0.3009
 6245TIP3    H118699   5.624   1.136   5.027  2.4094 -0.8115  2.2015
 6245TIP3    H218700   5.538   1.147   5.151 -2.5928 -0.2184 -1.0179
 6246TIP3   OH218701   3.242   2.851   1.583  0.1871  0.4224  0.1431
 6246TIP3    H118702   3.265   2.768   1.627 -0.2609  0.6889  0.8969
 6246TIP3    H218703   3.322   2.904   1.590  0.7566 -0.2388 -1.0830
 6247TIP3   OH218704   2.734   5.496   5.072 -0.2497  0.2061  0.2317
 6247TIP3    H118705   2.644   5.476   5.099  0.0347  0.0730  1.1210
 6247TIP3    H218706   2.772   5.542   5.147  0.5713 -0.1541  0.0467
 6248TIP3   OH218707   1.511   3.502   1.569  0.3137 -0.1586 -0.9532
 6248TIP3    H118708   1.492   3.585   1.613  1.0028 -0.4304 -0.1216
 6248TIP3    H218709   1.535   3.527   1.480  0.0657  0.4968 -0.8438
 6249TIP3   OH218710   4.938   0.667   3.869 -0.4480 -0.5458  0.1621
 6249TIP3    H118711   4.952   0.747   3.919 -0.4574  1.6056 -2.9709
 6249TIP3    H218712   5.021   0.620   3.875  0.6623  1.2379 -0.3741
 6250TIP3   OH218713   0.530   6.416   5.364  0.0174  0.1850  0.8913
 6250TIP3    H118714   0.468   6.379   5.302  1.7642 -0.9908 -0.2155
 6250TIP3    H218715   0.475   6.457   5.431 -1.9174  0.6096 -0.8733
 6251TIP3   OH218716   3.264   2.858   1.153  0.3315  0.5334 -0.1610
 6251TIP3    H118717   3.329   2.828   1.090  2.0720  2.0822  0.7798
 6251TIP3    H218718   3.188   2.882   1.100 -0.4120 -3.2835 -1.1312
 6252TIP3   OH218719   3.118   1.216   4.058 -0.1326  0.5786  0.8691
 6252TIP3    H118720   3.112   1.198   3.964  1.4577  2.2980  0.3891
 6252TIP3    H218721   3.186   1.157   4.090 -0.4274  0.2434  0.8872
 6253TIP3   OH218722   7.170   0.554   5.139 -0.1690 -0.0619  0.3168
 6253TIP3    H118723   7.146   0.646   5.149  0.2147 -0.2337  3.7525
 6253TIP3    H218724   7.265   0.552   5.153 -0.0168 -0.8979 -0.6956
 6254TIP3   OH218725   6.786   3.756   5.801  0.0010  0.5068 -0.4555
 6254TIP3    H118726   6.855   3.790   5.858  1.6878 -0.2924 -1.8872
 6254TIP3    H218727   6.707   3.802   5.828  0.3212 -0.8470  3.4477
 6255TIP3   OH218728   1.407   5.080   5.005 -0.1750 -0.4844  0.5152
 6255TIP3    H118729   1.336   5.144   5.011  0.0793 -0.2872  1.6639
 6255TIP3    H218730   1.472   5.121   4.947 -0.7963 -0.4801 -0.1873
 6256TIP3   OH218731   2.376   3.318   3.958 -0.0033  0.5503 -0.6974
 6256TIP3    H118732   2.326   3.361   4.028  0.2128 -0.5903  0.1861
 6256TIP3    H218733   2.326   3.239   3.938  1.2424 -0.4428 -0.0242
 6257TIP3   OH218734   6.822   0.380   3.053  0.5520  0.6193 -0.3558
 6257TIP3    H118735   6.772   0.462   3.055 -0.9829 -0.2855  1.6767
 6257TIP3    H218736   6.891   0.393   3.118 -0.1660  0.0532  0.5393
 6258TIP3   OH218737   5.833   6.243   5.327  0.4753 -0.4600 -0.5668
 6258TIP3    H118738   5.761   6.282   5.376 -0.6536 -3.7972  0.6850
 6258TIP3    H218739   5.793   6.208   5.248  0.9411 -1.2399 -0.4690
 6259TIP3   OH218740   1.894   5.226   5.629 -0.1985  0.3731  0.2755
 6259TIP3    H118741   1.818   5.252   5.681 -0.1906 -0.4112  0.6975
 6259TIP3    H218742   1.965   5.279   5.663 -0.3188  0.2815  0.6831
 6260TIP3   OH218743   2.082   3.041   0.446  0.3417 -0.5973 -0.7530
 6260TIP3    H118744   2.079   3.063   0.353 -0.0614  0.4333 -0.5093
 6260TIP3    H218745   2.086   2.945   0.447 -1.9828 -0.7827 -1.8119
 6261TIP3   OH218746   4.189   2.514   0.608 -0.0419 -0.1879  0.3484
 6261TIP3    H118747   4.161   2.444   0.668 -0.7503  0.7613  1.1512
 6261TIP3    H218748   4.141   2.591   0.637  0.9326  0.7107 -0.3607
 6262TIP3   OH218749   6.209   4.035   5.407  0.4512  0.3612 -0.2640
 6262TIP3    H118750   6.247   3.977   5.341 -0.5448  0.3269 -0.8282
 6262TIP3    H218751   6.167   4.105   5.356 -1.3599 -0.3035  0.2623
 6263TIP3   OH218752   0.339   6.299   3.860  0.1105 -0.7915 -0.0664
 6263TIP3    H118753   0.375   6.215   3.889  0.9036 -0.7309 -0.8165
 6263TIP3    H218754   0.397   6.325   3.788  0.7970  1.1272  1.1240
 6264TIP3   OH218755   3.296   3.698   0.098 -0.1930 -0.1832 -0.1614
 6264TIP3    H118756   3.248   3.619   0.072  1.9354 -1.3511 -0.8134
 6264TIP3    H218757   3.378   3.665   0.134  0.1342  1.7215  0.9695
 6265TIP3   OH218758   1.596   4.737   4.463  0.7774  0.0748  0.7434
 6265TIP3    H118759   1.592   4.744   4.368  0.9552  2.8368  0.8569
 6265TIP3    H218760   1.509   4.705   4.488  0.6885 -0.5690 -0.3113
 6266TIP3   OH218761   4.548   6.216   2.723 -0.0164 -0.6868  0.0294
 6266TIP3    H118762   4.487   6.236   2.793  0.6602  1.9194 -0.0046
 6266TIP3    H218763   4.632   6.201   2.768 -0.0848 -1.4480 -0.0897
 6267TIP3   OH218764   0.670   5.204   0.104 -0.5822  0.5349  0.4105
 6267TIP3    H118765   0.749   5.258   0.107  1.2460 -1.9321 -0.3739
 6267TIP3    H218766   0.619   5.239   0.031  0.4074  1.3502  0.1009
 6268TIP3   OH218767   1.885   2.046   0.111  0.3152  0.1233  0.1849
 6268TIP3    H118768   1.887   2.139   0.092 -2.8191 -0.0911 -1.8262
 6268TIP3    H218769   1.908   2.039   0.203  0.3929  2.8696  0.4308
 6269TIP3   OH218770   0.957   4.132   2.150  0.4797 -0.3160  0.0313
 6269TIP3    H118771   0.935   4.062   2.211  0.7994  0.2069  0.7528
 6269TIP3    H218772   0.875   4.149   2.103  0.4723 -1.3670 -0.3655
 6270TIP3   OH218773   2.076   2.752   0.446  0.5023  0.1673  1.0203
 6270TIP3    H118774   2.046   2.700   0.372  1.9460 -0.6872  0.9905
 6270TIP3    H218775   2.129   2.691   0.498 -0.5869  0.6793  2.8606
 6271TIP3   OH218776   5.435   4.227   4.109  0.1689  0.0547 -0.4544
 6271TIP3    H118777   5.509   4.180   4.148  0.4628  1.5817  0.8985
 6271TIP3    H218778   5.397   4.164   4.047  1.9166 -1.1465 -0.3756
 6272TIP3   OH218779   3.416   4.596   2.993 -0.0376  0.0656 -0.9787
 6272TIP3    H118780   3.484   4.655   3.026  0.5639 -0.8632 -0.5423
 6272TIP3    H218781   3.335   4.645   3.007  0.5568  1.4611 -2.0997
 6273TIP3   OH218782   4.396   2.841   4.672  0.5379  0.2305  0.5318
 6273TIP3    H118783   4.408   2.864   4.580 -0.0598  1.4885  0.7399
 6273TIP3    H218784   4.458   2.897   4.719  1.4985 -1.0594  0.8547
 6274TIP3   OH218785   6.678   2.198   4.397  0.2782 -0.0169  0.1197
 6274TIP3    H118786   6.764   2.217   4.435  0.1525 -0.4247  0.6208
 6274TIP3    H218787   6.642   2.284   4.374  1.0329  0.1278 -0.5818
 6275TIP3   OH218788   0.587   4.671   2.411  0.2051 -0.1553 -0.3711
 6275TIP3    H118789   0.643   4.595   2.396  1.8188  0.7652  0.7326
 6275TIP3    H218790   0.643   4.733   2.457 -0.7634  2.1089 -2.0952
 6276TIP3   OH218791   3.453   0.970   4.711  0.0952 -0.3582 -0.5811
 6276TIP3    H118792   3.362   0.940   4.710 -0.6831  1.7636  0.7101
 6276TIP3    H218793   3.502   0.899   4.753 -1.6023 -0.0325  2.1372
 6277TIP3   OH218794   3.309   5.494   0.668  0.4142 -0.7463  0.0211
 6277TIP3    H118795   3.302   5.471   0.760 -0.4673 -0.3872  0.0497
 6277TIP3    H218796   3.364   5.425   0.630 -1.6539 -2.5910  0.2231
 6278TIP3   OH218797   2.348   0.267   0.839 -0.0455  0.1466  0.2070
 6278TIP3    H118798   2.415   0.266   0.908  0.7140  1.7560 -0.4491
 6278TIP3    H218799   2.355   0.355   0.801 -1.4495 -0.2133 -0.9572
 6279TIP3   OH218800   4.478   0.229   3.329  0.1758  0.1764 -0.0095
 6279TIP3    H118801   4.548   0.292   3.311 -1.5720  3.0935  2.4514
 6279TIP3    H218802   4.474   0.223   3.424 -2.3655 -0.5103 -0.0815
 6280TIP3   OH218803   2.880   0.602   4.994  0.4210  0.3276  0.3495
 6280TIP3    H118804   2.818   0.644   5.054 -1.4810  0.0463 -1.2905
 6280TIP3    H218805   2.832   0.527   4.959  2.8613 -1.8487  1.3540
 6281TIP3   OH218806   5.618   3.026   4.781  0.2928 -0.2122 -0.3238
 6281TIP3    H118807   5.631   3.098   4.719 -0.2857  1.7256  1.6937
 6281TIP3    H218808   5.701   3.020   4.829  0.7433 -1.7073 -1.2085
 6282TIP3   OH218809   4.442   0.789   5.923 -0.4425  0.1505 -0.1336
 6282TIP3    H118810   4.422   0.822   5.835 -1.0297 -1.2471 -0.5588
 6282TIP3    H218811   4.533   0.759   5.917  0.0798  1.5888  0.2431
 6283TIP3   OH218812   2.169   0.335   3.694 -0.1126 -0.6795  0.7116
 6283TIP3    H118813   2.154   0.279   3.770  1.2740 -0.7448  0.9685
 6283TIP3    H218814   2.264   0.329   3.678 -0.1956  0.2793 -0.2808
 6284TIP3   OH218815   2.090   0.334   5.691  1.0035  0.0018  0.3147
 6284TIP3    H118816   2.068   0.334   5.598 -0.3859  0.5949  0.6289
 6284TIP3    H218817   2.006   0.338   5.736  1.6464 -0.5363  1.6118
 6285TIP3   OH218818   0.519   6.589   2.857 -0.1799 -0.2407 -0.0998
 6285TIP3    H118819   0.463   6.667   2.856 -1.0430 -0.7212  2.5620
 6285TIP3    H218820   0.512   6.556   2.946  2.0484 -2.0466 -0.5057
 6286TIP3   OH218821   1.061   0.208   1.967 -0.3609 -0.1490 -0.4867
 6286TIP3    H118822   1.039   0.271   2.035  1.6163  1.1735 -0.9859
 6286TIP3    H218823   1.064   0.258   1.886 -0.6310 -1.2795 -1.2286
 6287TIP3   OH218824   0.893   5.749   1.335 -0.2486  0.0497  0.4679
 6287TIP3    H118825   0.931   5.776   1.251 -0.9696 -1.0949 -0.2454
 6287TIP3    H218826   0.950   5.679   1.366  1.2539  1.8421  2.0158
 6288TIP3   OH218827   5.266   1.169   4.812 -0.2883 -0.3211  0.0073
 6288TIP3    H118828   5.174   1.195   4.817 -0.0898  0.4189 -0.0484
 6288TIP3    H218829   5.272   1.091   4.868 -1.3370 -1.5449 -1.4821
 6289TIP3   OH218830   1.299   0.502   1.979  0.2740  0.0597  0.3449
 6289TIP3    H118831   1.389   0.492   2.009  1.3105  1.1043 -2.1505
 6289TIP3    H218832   1.287   0.597   1.968 -0.5436 -0.1578 -0.9128
 6290TIP3   OH218833   0.620   6.775   5.616  0.5563  0.4082 -0.0768
 6290TIP3    H118834   0.677   6.851   5.625  1.1880 -0.1525  1.0838
 6290TIP3    H218835   0.668   6.716   5.557  0.7282  0.3525  0.1137
 6291TIP3   OH218836   4.237   3.097   1.205 -0.3618  0.0781 -0.2760
 6291TIP3    H118837   4.233   3.187   1.172  1.2798  0.7396  1.1863
 6291TIP3    H218838   4.218   3.104   1.298 -0.5203 -1.1346 -0.2038
 6292TIP3   OH218839   5.062   2.175   0.816  0.0259  0.4801  0.0407
 6292TIP3    H118840   5.006   2.241   0.776 -0.0230  0.2312 -0.3075
 6292TIP3    H218841   5.133   2.224   0.857  0.7899  0.6751 -1.4491
 6293TIP3   OH218842   2.445   2.565   3.287  0.1750  0.5229 -0.1938
 6293TIP3    H118843   2.404   2.569   3.373  0.7421  0.6210  0.0727
 6293TIP3    H218844   2.373   2.579   3.226 -0.3781 -0.3828  0.2274
 6294TIP3   OH218845   3.583   3.779   1.007 -0.7671  0.0198 -0.4082
 6294TIP3    H118846   3.556   3.687   1.005  1.3699 -0.6507 -0.6097
 6294TIP3    H218847   3.550   3.815   0.924 -1.9076 -0.4392 -0.1782
 6295TIP3   OH218848   2.144   6.627   3.230 -0.7092  0.1648 -0.0029
 6295TIP3    H118849   2.216   6.689   3.240 -0.4287 -0.2300  0.4985
 6295TIP3    H218850   2.092   6.638   3.310  0.2524 -1.3850  0.8903
 6296TIP3   OH218851   6.282   3.944   2.843 -0.4970 -0.6728  0.3021
 6296TIP3    H118852   6.307   4.036   2.836 -1.3150 -0.5121 -0.6751
 6296TIP3    H218853   6.292   3.909   2.754  2.0136 -2.1534  1.0378
 6297TIP3   OH218854   6.000   0.800   4.967  0.2129 -0.0376  0.0442
 6297TIP3    H118855   5.938   0.855   4.919 -0.5366 -0.4763  0.4823
 6297TIP3    H218856   5.952   0.718   4.982  1.3228 -0.8493 -0.6594
 6298TIP3   OH218857   6.981   6.291   2.903 -0.2390 -0.3592  0.2998
 6298TIP3    H118858   7.033   6.293   2.983  0.9446  2.3180 -0.4219
 6298TIP3    H218859   7.043   6.264   2.835 -1.0759 -1.9796  0.1346
 6299TIP3   OH218860   5.585   4.618   1.821  0.3414 -0.0413 -0.0395
 6299TIP3    H118861   5.508   4.563   1.838  0.6950 -0.5187  0.0294
 6299TIP3    H218862   5.637   4.567   1.759  0.2515  0.6087 -0.6632
 6300TIP3   OH218863   2.947   2.552   1.212 -0.1917  0.3111 -0.3075
 6300TIP3    H118864   2.966   2.617   1.280 -2.0547  0.2458  0.3417
 6300TIP3    H218865   3.030   2.539   1.167  0.8787  1.0516  1.3626
 6301TIP3   OH218866   1.575   0.795   0.676  0.0670 -0.6390 -0.8250
 6301TIP3    H118867   1.543   0.775   0.764 -1.2461  0.5717 -0.9884
 6301TIP3    H218868   1.650   0.852   0.690 -0.8361  0.4927 -0.4862
 6302TIP3   OH218869   2.915   2.177   3.123 -0.0525 -0.3276  0.3496
 6302TIP3    H118870   2.905   2.191   3.217  0.5425  0.0380  0.3690
 6302TIP3    H218871   2.891   2.086   3.109  0.5510 -0.5924  0.9775
 6303TIP3   OH218872   1.687   3.947   0.226  0.0782 -0.0732 -0.0172
 6303TIP3    H118873   1.746   3.982   0.292  0.2674 -0.7080  0.1627
 6303TIP3    H218874   1.745   3.900   0.165 -0.2258 -0.6375  0.1201
 6304TIP3   OH218875   6.083   2.208   3.586  0.0796  0.0043 -0.6477
 6304TIP3    H118876   6.032   2.287   3.569 -1.1176 -0.4568  0.7019
 6304TIP3    H218877   6.155   2.238   3.641  0.6653  0.4465 -1.6154
 6305TIP3   OH218878   4.584   5.225   3.153  0.5559  0.3163 -0.5291
 6305TIP3    H118879   4.604   5.166   3.080  1.3304  2.3160 -2.0449
 6305TIP3    H218880   4.512   5.279   3.121  0.5372  0.8580  0.4003
 6306TIP3   OH218881   5.706   6.441   4.900  0.1377  0.0659 -0.1420
 6306TIP3    H118882   5.618   6.479   4.908  0.0498 -0.2858  0.6519
 6306TIP3    H218883   5.763   6.516   4.885 -0.2874  0.3026 -0.6325
 6307TIP3   OH218884   4.936   6.630   2.675 -0.5146 -0.4130  0.1180
 6307TIP3    H118885   4.998   6.681   2.623  2.2100 -1.9694  1.6251
 6307TIP3    H218886   4.956   6.652   2.765 -3.2059  0.0669  0.6866
 6308TIP3   OH218887   6.294   2.213   4.879 -0.2407  0.3554 -0.2055
 6308TIP3    H118888   6.251   2.156   4.943  3.8741 -2.5692  0.3825
 6308TIP3    H218889   6.291   2.300   4.919 -2.2106 -0.3840  1.4475
 6309TIP3   OH218890   6.651   2.513   4.454 -0.1241 -0.7851 -0.1168
 6309TIP3    H118891   6.725   2.509   4.514 -0.8857 -1.0974  0.8357
 6309TIP3    H218892   6.679   2.571   4.384  1.6869 -2.2772 -0.7127
 6310TIP3   OH218893   3.153   6.510   5.636 -0.1226  0.5352  0.0801
 6310TIP3    H118894   3.221   6.566   5.673  1.7797  0.1452 -2.5701
 6310TIP3    H218895   3.115   6.561   5.564 -1.0867 -0.1098  0.1014
 6311TIP3   OH218896   1.757   6.158   0.312  0.6972 -0.3853 -0.3351
 6311TIP3    H118897   1.697   6.232   0.301  0.1213 -0.9690 -1.1676
 6311TIP3    H218898   1.739   6.101   0.238  1.6273 -1.0322 -0.0770
 6312TIP3   OH218899   0.118   2.631   4.068 -0.7552 -0.1259 -0.1297
 6312TIP3    H118900   0.153   2.720   4.065 -0.5685 -0.2238 -1.5300
 6312TIP3    H218901   0.030   2.641   4.103  0.3369  0.2032  2.7882
 6313TIP3   OH218902   0.845   3.215   0.364  0.4169 -0.1022 -0.3582
 6313TIP3    H118903   0.870   3.133   0.407  0.5554  1.1811  2.1744
 6313TIP3    H218904   0.750   3.207   0.353  0.3512 -0.4162  0.3464
 6314TIP3   OH218905   1.115   1.863   3.414 -0.2374 -0.4722  0.5036
 6314TIP3    H118906   1.045   1.814   3.371 -0.4081  0.3458 -0.1763
 6314TIP3    H218907   1.195   1.831   3.372 -0.5393  1.9633 -2.2214
 6315TIP3   OH218908   4.506   6.783   3.370 -0.1563 -0.0669  0.1463
 6315TIP3    H118909   4.589   6.744   3.345 -0.6552 -0.1228 -1.5514
 6315TIP3    H218910   4.455   6.710   3.405 -0.0125 -0.3336 -0.1921
 6316TIP3   OH218911   1.368   2.776   0.488 -0.0836 -0.2966  0.2069
 6316TIP3    H118912   1.335   2.686   0.497 -0.4754 -0.0107  1.8784
 6316TIP3    H218913   1.369   2.810   0.577  2.3711  0.5592 -0.0667
 6317TIP3   OH218914   3.132   5.147   4.592 -0.0767  0.4362 -0.5196
 6317TIP3    H118915   3.156   5.073   4.536 -2.1921 -1.2316  0.5704
 6317TIP3    H218916   3.040   5.164   4.571 -0.1243  1.5798  0.4906
 6318TIP3   OH218917   1.984   3.987   5.301 -0.3382  1.0448  0.2326
 6318TIP3    H118918   1.986   3.893   5.321  2.1262  0.8814 -0.3699
 6318TIP3    H218919   2.014   4.030   5.381  0.1876  1.1759 -0.0335
 6319TIP3   OH218920   3.056   5.870   2.647 -0.3788  0.1154  0.1854
 6319TIP3    H118921   3.032   5.831   2.731  1.1188 -1.6007 -0.1258
 6319TIP3    H218922   3.141   5.832   2.627  0.0855  1.8245 -1.3045
 6320TIP3   OH218923   6.117   5.892   3.616 -0.5898 -0.4565  0.0852
 6320TIP3    H118924   6.075   5.949   3.552  0.0305 -1.1630 -0.9892
 6320TIP3    H218925   6.114   5.941   3.698 -1.9549  0.2087 -0.3434
 6321TIP3   OH218926   2.014   3.639   3.310  0.4419 -0.0470 -0.4160
 6321TIP3    H118927   2.071   3.578   3.357  0.8170  0.5201 -0.1198
 6321TIP3    H218928   2.074   3.702   3.270  0.0793 -0.0946 -1.0394
 6322TIP3   OH218929   1.225   6.256   5.186 -0.1382 -0.2971 -0.2389
 6322TIP3    H118930   1.294   6.292   5.242 -1.6658  3.1214 -0.3239
 6322TIP3    H218931   1.252   6.280   5.097 -0.3934 -0.9255 -0.4974
 6323TIP3   OH218932   6.708   4.326   2.195 -0.1760 -0.0688  0.0826
 6323TIP3    H118933   6.675   4.366   2.276 -2.2855 -0.5302 -0.5018
 6323TIP3    H218934   6.688   4.390   2.127  1.0664  0.0561 -0.1939
 6324TIP3   OH218935   4.331   3.467   2.060 -0.2631 -0.2271  0.5149
 6324TIP3    H118936   4.260   3.495   2.118 -1.0112  0.0383 -0.5040
 6324TIP3    H218937   4.355   3.381   2.092 -1.2707 -0.4604  0.6903
 6325TIP3   OH218938   1.183   2.618   0.991 -0.0933  0.2700 -0.2875
 6325TIP3    H118939   1.272   2.594   0.963  0.1247  2.5315 -1.8428
 6325TIP3    H218940   1.169   2.568   1.071  1.6712 -1.9361 -1.2241
 6326TIP3   OH218941   6.593   4.475   4.044  0.5684  0.3855 -0.3627
 6326TIP3    H118942   6.666   4.503   3.989  0.5238 -0.3374 -0.8142
 6326TIP3    H218943   6.519   4.468   3.983  0.9698 -2.3457 -0.6825
 6327TIP3   OH218944   6.835   4.486   5.774  0.6807  0.0933 -0.4148
 6327TIP3    H118945   6.772   4.440   5.719  1.0284 -3.0706  1.5738
 6327TIP3    H218946   6.781   4.529   5.841  0.4502 -1.4266  0.4418
 6328TIP3   OH218947   4.412   3.677   2.923 -0.1657  0.0541 -0.3540
 6328TIP3    H118948   4.353   3.687   2.997  0.7694  1.8903  0.2115
 6328TIP3    H218949   4.359   3.636   2.854 -2.1388  1.7571  0.0732
 6329TIP3   OH218950   3.542   5.411   3.719 -0.1699  0.6127 -0.0342
 6329TIP3    H118951   3.522   5.478   3.654 -0.2197 -0.3017 -0.9857
 6329TIP3    H218952   3.458   5.391   3.761 -0.2141  0.8840  0.0088
 6330TIP3   OH218953   6.426   4.780   4.256  0.2728 -0.2423 -0.5976
 6330TIP3    H118954   6.398   4.750   4.169  0.9132 -0.9505 -0.5728
 6330TIP3    H218955   6.462   4.702   4.298  3.2542  0.7840 -1.0240
 6331TIP3   OH218956   1.199   6.117   2.442 -0.2530  0.0999 -0.2139
 6331TIP3    H118957   1.274   6.103   2.384 -1.4998 -1.3544 -1.5679
 6331TIP3    H218958   1.123   6.100   2.387 -1.5276 -0.5613  1.6614
 6332TIP3   OH218959   3.436   5.045   3.502  0.3244 -0.3076 -0.1780
 6332TIP3    H118960   3.493   5.067   3.429  0.6117  1.3673  0.5070
 6332TIP3    H218961   3.359   5.102   3.491  0.6075  0.3645  1.0776
 6333TIP3   OH218962   6.741   1.522   2.115  0.0603 -0.4097  0.0976
 6333TIP3    H118963   6.714   1.584   2.048  2.8324 -0.3161 -1.0709
 6333TIP3    H218964   6.757   1.576   2.193  1.2059  0.2297 -0.5435
 6334TIP3   OH218965   1.259   5.250   0.914  0.0016 -0.4906  0.2076
 6334TIP3    H118966   1.255   5.205   0.830  0.1810  0.4123 -0.2952
 6334TIP3    H218967   1.247   5.342   0.893  0.5105 -0.1999  1.1250
 6335TIP3   OH218968   0.045   5.257   4.633  0.0466 -0.2166 -0.6912
 6335TIP3    H118969   0.070   5.209   4.712  0.8304  2.0426  0.4929
 6335TIP3    H218970   0.125   5.261   4.581  0.3888  1.0421 -0.0967
 6336TIP3   OH218971   5.673   0.483   1.793  0.2991  0.4691  1.1777
 6336TIP3    H118972   5.617   0.407   1.779 -0.7768  1.2684  1.0269
 6336TIP3    H218973   5.717   0.465   1.876 -1.1115  0.3490  1.9372
 6337TIP3   OH218974   0.964   0.624   5.765 -0.8092 -0.0272  0.3082
 6337TIP3    H118975   1.019   0.591   5.837 -0.0385 -0.9472 -0.6642
 6337TIP3    H218976   0.929   0.545   5.724  0.1804  0.3660 -1.4051
 6338TIP3   OH218977   5.557   3.195   2.355 -0.0702  0.0736 -0.0829
 6338TIP3    H118978   5.511   3.264   2.403 -2.3087 -1.4194  0.0896
 6338TIP3    H218979   5.526   3.204   2.265  0.2240 -0.2175 -0.2157
 6339TIP3   OH218980   5.330   3.068   4.881  0.3230  0.9714 -0.2335
 6339TIP3    H118981   5.403   3.091   4.823 -1.3512  1.7631 -2.1107
 6339TIP3    H218982   5.307   3.151   4.923  0.6224  0.6720  0.5395
 6340TIP3   OH218983   4.944   4.775   0.076 -0.3731  0.3617  0.1425
 6340TIP3    H118984   4.916   4.793  -0.013 -0.5269 -0.8862 -0.0772
 6340TIP3    H218985   4.883   4.708   0.107  0.1012  0.2912  0.9434
 6341TIP3   OH218986   6.868   4.663   1.105 -0.2644  0.1566 -0.1192
 6341TIP3    H118987   6.902   4.610   1.177  2.2926  2.1842  0.3355
 6341TIP3    H218988   6.943   4.677   1.047 -0.8366  2.9692 -0.3389
 6342TIP3   OH218989   6.077   3.686   2.478 -1.0858 -1.0996  0.4118
 6342TIP3    H118990   6.011   3.622   2.452 -0.8386 -0.8856 -0.7822
 6342TIP3    H218991   6.120   3.711   2.396 -1.5994  1.0778  0.7409
 6343TIP3   OH218992   2.273   3.881   4.247 -0.1008  0.1668  0.0850
 6343TIP3    H118993   2.261   3.829   4.168 -0.1386  2.4136 -1.4514
 6343TIP3    H218994   2.192   3.869   4.297 -0.8124  0.1395 -1.0653
 6344TIP3   OH218995   2.233   1.938   0.696  0.3185 -0.2593 -0.1547
 6344TIP3    H118996   2.287   1.879   0.749  1.8705 -0.2666 -1.6718
 6344TIP3    H218997   2.160   1.883   0.665 -0.1232 -0.4727  1.2016
 6345TIP3   OH218998   3.879   0.460   5.709 -0.1691  0.5806  0.1945
 6345TIP3    H118999   3.935   0.383   5.701  1.6687  1.8856 -0.2431
 6345TIP3    H219000   3.790   0.425   5.712  0.6452 -1.5919  0.9785
 6346TIP3   OH219001   1.735   5.953   4.641 -0.2124 -0.5267  0.0717
 6346TIP3    H119002   1.672   6.009   4.686  0.8395 -0.2764  1.2791
 6346TIP3    H219003   1.772   5.898   4.710  1.0288 -0.5450 -0.5808
 6347TIP3   OH219004   7.082   0.669   5.394  0.0514 -0.2851  0.3581
 6347TIP3    H119005   7.016   0.620   5.345  0.1696 -1.5845  1.4574
 6347TIP3    H219006   7.035   0.705   5.470  0.0743  0.9318 -0.1729
 6348TIP3   OH219007   7.027   3.925   1.077 -0.1845  0.1359  0.0170
 6348TIP3    H119008   6.984   3.928   1.162 -0.3517 -0.7891 -0.0251
 6348TIP3    H219009   6.956   3.934   1.013  0.0917  2.6139 -0.0645
 6349TIP3   OH219010   2.243   6.295   2.319 -0.3567  0.0553 -0.3286
 6349TIP3    H119011   2.325   6.339   2.340 -0.0188 -1.1787  1.1386
 6349TIP3    H219012   2.174   6.357   2.342  0.1235  0.1858  0.8074
 6350TIP3   OH219013   5.239   6.051   4.843 -0.4620  0.2378  0.2594
 6350TIP3    H119014   5.309   5.989   4.825  0.1654  0.2764  2.3046
 6350TIP3    H219015   5.197   6.016   4.922 -1.1503  1.5385  0.4846
 6351TIP3   OH219016   4.474   3.626   4.369  0.5677 -0.2731  0.5184
 6351TIP3    H119017   4.406   3.644   4.434 -1.4922 -0.6979 -1.3958
 6351TIP3    H219018   4.458   3.691   4.300  0.4290 -2.0051 -1.1497
 6352TIP3   OH219019   2.595   2.800   2.746  0.0622  0.1959 -0.0580
 6352TIP3    H119020   2.663   2.736   2.765 -0.1597  0.6086  2.4922
 6352TIP3    H219021   2.595   2.859   2.822 -0.9195  2.1930 -1.5047
 6353TIP3   OH219022   6.771   4.659   5.426  0.5885 -0.0824 -0.2749
 6353TIP3    H119023   6.720   4.603   5.367  1.5727 -1.8798  0.5150
 6353TIP3    H219024   6.705   4.699   5.483 -0.3065  1.1044 -2.0394
 6354TIP3   OH219025   4.316   3.063   5.775  0.2642  0.0244 -0.0478
 6354TIP3    H119026   4.405   3.036   5.799  1.1525  1.2252 -1.7963
 6354TIP3    H219027   4.289   3.001   5.707  0.0643  0.1410 -0.0769
 6355TIP3   OH219028   4.671   0.755   2.215  0.0286  0.6473  0.2487
 6355TIP3    H119029   4.624   0.798   2.287  0.5461  0.4892  0.6946
 6355TIP3    H219030   4.631   0.668   2.209  1.7065 -0.3492  2.1543
 6356TIP3   OH219031   0.096   4.458   0.535  0.6393 -0.1233 -0.0377
 6356TIP3    H119032   0.003   4.472   0.514  0.0516 -0.3039  2.1512
 6356TIP3    H219033   0.121   4.536   0.586  1.2198 -0.7679  0.6935
 6357TIP3   OH219034   3.580   2.012   1.345 -0.1345  0.0907 -0.0026
 6357TIP3    H119035   3.560   1.934   1.396  1.3894 -2.0968 -2.5168
 6357TIP3    H219036   3.674   2.024   1.355  0.3530 -0.8276 -2.6787
 6358TIP3   OH219037   1.569   0.074   4.992  0.1672 -0.6581 -0.1313
 6358TIP3    H119038   1.658   0.079   4.959  0.5403 -0.1749  0.8921
 6358TIP3    H219039   1.578   0.087   5.087 -0.9867 -0.5682 -0.0178
 6359TIP3   OH219040   1.421   4.100   5.774  0.8715  0.5108  0.4389
 6359TIP3    H119041   1.384   4.027   5.725  1.2645  0.3369  0.3997
 6359TIP3    H219042   1.511   4.107   5.742  1.5389 -0.4023  1.9953
 6360TIP3   OH219043   2.872   5.261   4.627 -0.0469 -0.6027 -0.2911
 6360TIP3    H119044   2.822   5.318   4.568 -0.1652  0.1835  0.5561
 6360TIP3    H219045   2.818   5.254   4.706  0.9094 -0.1997  0.4183
 6361TIP3   OH219046   7.083   6.455   3.997  0.2296  0.3487 -0.0551
 6361TIP3    H119047   7.134   6.497   3.927 -2.3854  1.8551 -1.1876
 6361TIP3    H219048   7.057   6.526   4.054 -0.1745 -0.4577  0.7915
 6362TIP3   OH219049   4.645   2.145   1.668 -0.1043  0.2623 -0.1551
 6362TIP3    H119050   4.550   2.141   1.662 -0.1838  2.5573 -1.1312
 6362TIP3    H219051   4.662   2.218   1.728  1.0291  0.4950 -0.7332
 6363TIP3   OH219052   5.040   1.571   3.517 -0.0328 -0.1803  0.2213
 6363TIP3    H119053   5.096   1.498   3.544  0.6498  0.7708  1.4799
 6363TIP3    H219054   5.101   1.641   3.493 -0.6481 -0.3936 -2.2440
 6364TIP3   OH219055   3.288   1.529   3.669  0.0585 -0.3825 -0.0906
 6364TIP3    H119056   3.223   1.599   3.667  0.4484 -0.0179 -1.4317
 6364TIP3    H219057   3.282   1.492   3.757 -1.6042 -0.0204 -0.0224
 6365TIP3   OH219058   1.610   6.570   2.100 -0.3937 -0.6742 -0.0694
 6365TIP3    H119059   1.570   6.595   2.017 -1.3260 -0.1556  0.5158
 6365TIP3    H219060   1.704   6.581   2.086 -0.6450  1.8074 -0.3362
 6366TIP3   OH219061   3.715   5.212   4.388 -0.6301  0.0080  0.1924
 6366TIP3    H119062   3.801   5.184   4.417 -0.8925 -0.7857  0.2317
 6366TIP3    H219063   3.732   5.283   4.326  0.0818 -0.4945 -0.2017
 6367TIP3   OH219064   1.916   3.388   2.911 -0.2343  0.0999 -0.0716
 6367TIP3    H119065   1.941   3.479   2.897 -1.1456  0.6597  1.6493
 6367TIP3    H219066   1.969   3.359   2.985 -0.6282 -0.4552  0.0020
 6368TIP3   OH219067   6.482   1.260   4.922 -0.1917 -0.6240  0.2372
 6368TIP3    H119068   6.461   1.318   4.849 -1.3387 -0.3625  0.7474
 6368TIP3    H219069   6.397   1.227   4.951 -0.2781  1.9972  3.6937
 6369TIP3   OH219070   6.399   5.305   4.256 -0.0657 -0.1226  0.6886
 6369TIP3    H119071   6.430   5.324   4.345 -0.1919 -0.9196  0.9128
 6369TIP3    H219072   6.382   5.211   4.256 -0.4096 -0.0716 -0.0776
 6370TIP3   OH219073   3.755   0.447   4.314  0.1153  0.7099 -0.6020
 6370TIP3    H119074   3.733   0.360   4.282  0.3266  0.1144  0.7918
 6370TIP3    H219075   3.850   0.446   4.327  0.2096  1.3632 -1.1447
 6371TIP3   OH219076   3.765   6.630   4.130  0.0343  0.0842 -0.3731
 6371TIP3    H119077   3.737   6.701   4.072  0.1194 -0.1611 -0.7244
 6371TIP3    H219078   3.798   6.563   4.070 -0.4543 -0.4364 -0.0693
 6372TIP3   OH219079   7.081   5.686   3.116 -0.0684  0.2799  0.3423
 6372TIP3    H119080   7.131   5.759   3.152 -1.1510  0.9881  0.4597
 6372TIP3    H219081   7.006   5.727   3.074 -2.1346 -0.8489  2.6624
 6373TIP3   OH219082   4.109   3.821   1.473 -0.2174  0.6060 -0.1178
 6373TIP3    H119083   4.040   3.880   1.440 -0.0589  0.3876 -0.8551
 6373TIP3    H219084   4.170   3.813   1.400  1.6751  2.3822  1.1474
 6374TIP3   OH219085   2.115   2.357   5.636  0.3664  0.1570 -0.1920
 6374TIP3    H119086   2.085   2.277   5.594 -3.6227  0.1990  2.1409
 6374TIP3    H219087   2.096   2.426   5.572 -2.2997 -0.1554  0.1690
 6375TIP3   OH219088   3.573   5.875   4.376 -0.2525 -0.1739  0.4295
 6375TIP3    H119089   3.631   5.836   4.310 -0.7333 -0.1617 -0.0041
 6375TIP3    H219090   3.488   5.882   4.332 -0.5435 -0.0415  1.0081
 6376TIP3   OH219091   1.791   2.747   2.523 -0.4585 -0.3074  0.2800
 6376TIP3    H119092   1.805   2.824   2.579  2.6248 -1.0712  0.7331
 6376TIP3    H219093   1.700   2.722   2.540 -0.4951  1.1564  2.8322
 6377TIP3   OH219094   5.847   0.101   5.511 -0.5554  0.2222 -0.4359
 6377TIP3    H119095   5.864   0.170   5.448 -1.0290  0.9198  0.1785
 6377TIP3    H219096   5.798   0.144   5.581  1.6366 -0.0374  1.3725
 6378TIP3   OH219097   0.815   6.775   5.086 -0.4363  0.3899 -0.1919
 6378TIP3    H119098   0.824   6.869   5.068  2.2629 -0.2329 -2.9398
 6378TIP3    H219099   0.897   6.750   5.127 -0.9145 -0.8889  0.0179
 6379TIP3   OH219100   6.117   3.656   4.926 -0.3660 -0.0674 -0.4179
 6379TIP3    H119101   6.070   3.678   4.845  0.2804  1.4949 -0.4075
 6379TIP3    H219102   6.050   3.662   4.994 -0.8239 -0.9756 -0.7747
 6380TIP3   OH219103   6.156   6.366   4.365  0.0749  0.0230  0.3429
 6380TIP3    H119104   6.172   6.425   4.292  0.5279  2.5049  2.3279
 6380TIP3    H219105   6.236   6.372   4.419  0.1934 -2.5448  0.5815
 6381TIP3   OH219106   3.092   3.979   4.647 -0.0317  0.6566 -0.3661
 6381TIP3    H119107   3.050   3.897   4.621 -0.6836  0.0989  2.1178
 6381TIP3    H219108   3.129   3.960   4.734  1.0039  2.6129 -0.3144
 6382TIP3   OH219109   6.224   5.339   2.418 -0.3075  0.5375  0.2092
 6382TIP3    H119110   6.304   5.294   2.394 -2.1240 -1.8058 -1.9548
 6382TIP3    H219111   6.218   5.329   2.513  1.7388  0.5155  0.3825
 6383TIP3   OH219112   3.474   4.605   3.965  0.2770 -0.8589 -0.4404
 6383TIP3    H119113   3.467   4.555   3.884  0.1400  0.7702 -1.4880
 6383TIP3    H219114   3.431   4.688   3.945  2.6040  0.6539  0.3793
 6384TIP3   OH219115   2.647   1.268   4.567 -0.2097 -0.1730  0.0769
 6384TIP3    H119116   2.725   1.323   4.568 -0.2353 -0.1388  0.2759
 6384TIP3    H219117   2.650   1.223   4.482  0.3037 -0.5725  0.2992
 6385TIP3   OH219118   6.531   3.058   0.255  0.3291 -0.0008  0.2038
 6385TIP3    H119119   6.560   3.145   0.227  0.2517 -0.0984 -0.1856
 6385TIP3    H219120   6.612   3.011   0.274  0.4064 -0.1008 -0.3636
 6386TIP3   OH219121   4.396   0.829   4.813  0.0092  0.3714  0.4403
 6386TIP3    H119122   4.316   0.861   4.774  0.3570 -0.3428 -0.9229
 6386TIP3    H219123   4.465   0.857   4.753  0.5385 -0.8950  0.4260
 6387TIP3   OH219124   5.094   1.562   2.402  0.8936  0.2520 -0.3652
 6387TIP3    H119125   5.170   1.608   2.366  1.0615 -0.1270 -0.4976
 6387TIP3    H219126   5.125   1.473   2.417 -0.0946 -0.4591 -2.2865
 6388TIP3   OH219127   1.241   2.253   0.597  0.1167  0.4496  0.0478
 6388TIP3    H119128   1.278   2.199   0.667  1.0357  1.3324  0.2771
 6388TIP3    H219129   1.169   2.201   0.562  1.4027 -1.2430 -0.2403
 6389TIP3   OH219130   5.532   2.900   1.064 -0.4799  0.7393  0.4945
 6389TIP3    H119131   5.520   2.868   0.975 -1.8409  1.4368  0.4021
 6389TIP3    H219132   5.524   2.821   1.118 -3.9457  0.7527  0.2777
 6390TIP3   OH219133   0.579   0.918   4.084 -0.7121  0.3114 -0.5895
 6390TIP3    H119134   0.537   1.003   4.074 -0.1027  0.4735 -1.9525
 6390TIP3    H219135   0.663   0.926   4.039 -0.8774 -1.1629 -1.2306
 6391TIP3   OH219136   6.756   6.640   0.999  0.2426 -0.0104  0.4042
 6391TIP3    H119137   6.741   6.581   0.926  1.7002 -0.4350  0.4096
 6391TIP3    H219138   6.843   6.616   1.032 -0.5721 -0.1744  2.6087
 6392TIP3   OH219139   4.364   4.948   1.315 -0.4602  0.0806  0.3185
 6392TIP3    H119140   4.383   4.869   1.264  1.8288  0.9225 -0.2225
 6392TIP3    H219141   4.380   5.020   1.255 -3.9557  1.0631  0.3335
 6393TIP3   OH219142   5.311   1.377   2.064  0.0685 -0.3750  0.3192
 6393TIP3    H119143   5.399   1.408   2.044  0.2012 -0.4523  0.7947
 6393TIP3    H219144   5.254   1.427   2.005  0.3501  0.2305  0.5630
 6394TIP3   OH219145   2.914   5.956   0.070 -0.0222  0.1388 -0.2373
 6394TIP3    H119146   2.932   5.950  -0.024  0.3411 -0.4945 -0.1330
 6394TIP3    H219147   2.945   5.872   0.106  1.1317  0.9078  0.6468
 6395TIP3   OH219148   5.722   2.233   3.330 -0.2219 -0.7585 -1.2535
 6395TIP3    H119149   5.677   2.316   3.346  1.5422 -0.0155  0.2676
 6395TIP3    H219150   5.674   2.169   3.382  0.8040  0.1578  0.9498
 6396TIP3   OH219151   2.103   2.468   3.701  0.3650  0.1841 -0.2497
 6396TIP3    H119152   2.074   2.520   3.626 -1.0374 -0.1868  0.0078
 6396TIP3    H219153   2.198   2.462   3.690  0.2702  0.7264 -1.6134
 6397TIP3   OH219154   3.393   3.654   3.570 -0.3915 -0.1205  0.6707
 6397TIP3    H119155   3.401   3.699   3.486  0.3898  0.2834  0.9517
 6397TIP3    H219156   3.435   3.570   3.557  1.2397  0.5855  1.1079
 6398TIP3   OH219157   1.953   3.850   4.625 -0.3009 -0.1574 -0.2052
 6398TIP3    H119158   1.958   3.942   4.647  1.4257 -0.0882 -0.7496
 6398TIP3    H219159   1.918   3.808   4.703 -0.3797  0.8541  0.3167
 6399TIP3   OH219160   0.602   4.168   1.452 -0.1595  0.0327 -0.0107
 6399TIP3    H119161   0.573   4.259   1.459 -0.8757 -0.1618 -0.3315
 6399TIP3    H219162   0.531   4.124   1.404 -1.7177 -1.5492  3.4226
 6400TIP3   OH219163   3.762   0.407   0.815 -0.2281 -0.7406 -0.1829
 6400TIP3    H119164   3.853   0.438   0.810 -0.3876 -0.2874 -0.2582
 6400TIP3    H219165   3.768   0.325   0.864  0.1696 -0.5051  0.1666
 6401TIP3   OH219166   5.586   4.419   4.198 -0.9526 -0.0441 -0.3598
 6401TIP3    H119167   5.527   4.493   4.213 -0.3464  0.2588  0.6174
 6401TIP3    H219168   5.529   4.350   4.164 -1.3192  1.2515 -2.5903
 6402TIP3   OH219169   1.232   1.829   1.458  0.1227  0.5350  0.0326
 6402TIP3    H119170   1.272   1.878   1.386  0.7452  1.2513  0.8275
 6402TIP3    H219171   1.248   1.884   1.535  2.0817 -1.5227  1.2117
 6403TIP3   OH219172   1.007   6.583   5.329  0.2542  0.4201  0.1035
 6403TIP3    H119173   1.041   6.616   5.246  0.4815  0.3879  0.1856
 6403TIP3    H219174   0.990   6.490   5.313 -1.4990  0.7925 -0.4999
 6404TIP3   OH219175   4.559   5.306   2.231 -0.2579 -0.2790 -0.0430
 6404TIP3    H119176   4.575   5.336   2.142 -0.6963  0.1084  0.0052
 6404TIP3    H219177   4.645   5.309   2.273 -0.4621  2.1539  0.3289
 6405TIP3   OH219178   0.707   6.574   3.116 -0.8009 -0.1723  0.4072
 6405TIP3    H119179   0.689   6.668   3.125 -2.2836 -0.4581  0.6506
 6405TIP3    H219180   0.796   6.564   3.150 -0.5882  1.1528  0.3161
 6406TIP3   OH219181   5.436   0.401   3.658  0.0790  0.2789  0.3224
 6406TIP3    H119182   5.480   0.474   3.703 -2.1159  1.1719  1.1437
 6406TIP3    H219183   5.358   0.440   3.620 -1.1553 -1.6342  0.7804
 6407TIP3   OH219184   6.619   3.923   2.491  0.5039 -0.5268 -0.6703
 6407TIP3    H119185   6.684   3.977   2.445  2.4526 -1.9989  0.1659
 6407TIP3    H219186   6.656   3.835   2.487 -1.1760 -1.3266  0.4331
 6408TIP3   OH219187   1.062   1.043   3.739  0.8413 -0.4357 -0.5810
 6408TIP3    H119188   0.975   1.038   3.698  0.0959  1.0285  0.6760
 6408TIP3    H219189   1.074   1.137   3.756  2.3597 -0.7017 -0.0718
 6409TIP3   OH219190   5.967   1.287   2.593 -0.1365  0.4341  0.0571
 6409TIP3    H119191   5.963   1.250   2.505 -0.7712  0.3086  0.1364
 6409TIP3    H219192   5.899   1.241   2.642  1.1997 -0.6199  1.0410
 6410TIP3   OH219193   5.377   0.364   0.630  0.0648  0.2695  0.0353
 6410TIP3    H119194   5.471   0.372   0.645  0.0674 -2.1300  2.1266
 6410TIP3    H219195   5.337   0.415   0.701 -0.0363 -2.6673  2.2904
 6411TIP3   OH219196   4.903   2.842   0.697  0.4253  0.1538  0.1935
 6411TIP3    H119197   4.864   2.814   0.780  1.9719  0.9238  1.2324
 6411TIP3    H219198   4.840   2.906   0.662 -0.0561  0.1226  0.9769
 6412TIP3   OH219199   3.783   0.979   4.980 -0.4487  0.3458 -0.3893
 6412TIP3    H119200   3.859   0.969   4.923 -0.0756 -0.9134  0.2895
 6412TIP3    H219201   3.744   1.062   4.953 -0.1802 -0.1126 -2.3356
 6413TIP3   OH219202   6.910   3.183   2.393  0.4064  0.1430 -0.5350
 6413TIP3    H119203   6.850   3.198   2.467  0.5149 -1.1505 -0.1507
 6413TIP3    H219204   6.974   3.120   2.427 -0.2537 -1.4493 -2.0825
 6414TIP3   OH219205   0.936   1.709   1.989  0.4340  0.6261  0.0217
 6414TIP3    H119206   1.025   1.688   2.019  0.2484  0.7061  0.6444
 6414TIP3    H219207   0.939   1.695   1.894  1.1842  0.8862  0.0005
 6415TIP3   OH219208   3.022   6.462   1.270 -0.7738  0.5104 -0.4552
 6415TIP3    H119209   2.948   6.488   1.216 -1.2500  2.2136  0.9201
 6415TIP3    H219210   2.994   6.481   1.360  0.1212 -1.8652  0.3894
 6416TIP3   OH219211   4.103   3.221   2.802 -0.1304  0.3950  0.0184
 6416TIP3    H119212   4.032   3.158   2.800  0.0788  0.1570  0.0535
 6416TIP3    H219213   4.063   3.301   2.836 -0.8692  0.8834 -1.8268
 6417TIP3   OH219214   4.505   1.467   5.576  0.0550  0.7278 -0.2673
 6417TIP3    H119215   4.467   1.548   5.544  0.8910  1.5471  0.7051
 6417TIP3    H219216   4.594   1.466   5.540 -0.2655 -0.2622 -1.0716
 6418TIP3   OH219217   5.517   3.836   2.275  0.1783 -0.4049 -0.4699
 6418TIP3    H119218   5.470   3.918   2.267  0.8498 -0.0626 -1.0349
 6418TIP3    H219219   5.582   3.838   2.204  0.2587 -1.3812 -0.4474
 6419TIP3   OH219220   6.231   6.735   2.087  0.1325 -0.1716  0.0997
 6419TIP3    H119221   6.304   6.791   2.112 -1.1263  1.4166  0.3202
 6419TIP3    H219222   6.154   6.777   2.123 -0.9269 -1.8140 -0.1245
 6420TIP3   OH219223   6.322   4.779   2.995 -0.2100 -0.0190  0.2281
 6420TIP3    H119224   6.329   4.842   2.923 -1.6194 -0.7971 -0.6490
 6420TIP3    H219225   6.396   4.720   2.983  0.4093  0.7318  0.3088
 6421TIP3   OH219226   7.138   1.689   1.869  0.0335  0.2757 -0.0192
 6421TIP3    H119227   7.085   1.623   1.914  0.5431 -0.6300 -0.7030
 6421TIP3    H219228   7.106   1.773   1.902 -1.5806 -0.2615 -0.1432
 6422TIP3   OH219229   2.117   6.286   0.506  0.1640  0.4006 -0.0270
 6422TIP3    H119230   2.165   6.332   0.437  0.0890  0.6694  0.0997
 6422TIP3    H219231   2.063   6.222   0.460  0.5375  0.1946 -0.1816
 6423TIP3   OH219232   2.418   4.083   2.295 -0.1416  0.7635  0.3219
 6423TIP3    H119233   2.441   4.164   2.248 -0.2308  0.1436 -0.8348
 6423TIP3    H219234   2.327   4.066   2.268  0.1764 -0.2060 -0.1802
 6424TIP3   OH219235   2.165   3.981   5.068  0.5068 -0.2717 -0.1785
 6424TIP3    H119236   2.111   4.008   4.994  0.3576  1.4186  0.5023
 6424TIP3    H219237   2.105   3.981   5.143  0.9944 -0.4356  0.2189
 6425TIP3   OH219238   3.092   3.751   5.490  0.4960 -0.1417 -0.3928
 6425TIP3    H119239   3.012   3.716   5.529  1.5069  0.1684  2.1436
 6425TIP3    H219240   3.076   3.747   5.395 -2.3806 -0.3521 -0.0008
 6426TIP3   OH219241   5.868   3.573   2.322  0.2972  0.5912  0.4871
 6426TIP3    H119242   5.788   3.605   2.364 -1.5171 -1.8007 -0.8820
 6426TIP3    H219243   5.876   3.626   2.243 -0.6880  0.0364 -0.0033
 6427TIP3   OH219244   1.935   6.213   4.958  0.6265 -0.4920  0.0116
 6427TIP3    H119245   1.912   6.299   4.922 -0.1493 -1.7706 -2.8566
 6427TIP3    H219246   1.994   6.175   4.894 -0.7132 -2.9029  0.0781
 6428TIP3   OH219247   6.526   6.622   4.835  0.5195 -0.3178  0.2022
 6428TIP3    H119248   6.606   6.639   4.884  0.5283  1.3795 -0.3523
 6428TIP3    H219249   6.476   6.562   4.891  1.3691  0.0332  1.3737
 6429TIP3   OH219250   2.131   4.466   2.906 -0.8409 -0.0605  0.3365
 6429TIP3    H119251   2.123   4.460   2.811  0.4420 -1.6689  0.2839
 6429TIP3    H219252   2.156   4.557   2.922 -2.9874  0.7526 -0.6645
 6430TIP3   OH219253   2.879   1.909   3.041 -0.0295  0.3856 -0.0719
 6430TIP3    H119254   2.950   1.885   2.981 -2.2925 -4.6312 -1.2214
 6430TIP3    H219255   2.892   1.853   3.117 -2.1371  0.1230  0.1415
 6431TIP3   OH219256   0.301   1.677   2.403  0.1060  0.0267  0.2169
 6431TIP3    H119257   0.218   1.708   2.440 -0.0707 -1.3517  1.0462
 6431TIP3    H219258   0.276   1.636   2.320  0.0388  0.1449  0.1787
 6432TIP3   OH219259   2.752   1.978   4.896  0.0191 -0.4340  0.2146
 6432TIP3    H119260   2.828   1.922   4.909  0.3261 -1.1592 -3.5518
 6432TIP3    H219261   2.788   2.060   4.861 -0.8051 -0.6251 -1.1820
 6433TIP3   OH219262   6.173   4.214   5.198  0.0891 -0.6897 -0.6328
 6433TIP3    H119263   6.203   4.227   5.108  0.1012 -1.8675 -0.8087
 6433TIP3    H219264   6.167   4.303   5.234  1.7149 -0.2844 -1.2690
 6434TIP3   OH219265   1.634   6.382   5.060  0.4003 -0.2335  0.4851
 6434TIP3    H119266   1.707   6.357   5.003  1.4549 -0.5842  1.9207
 6434TIP3    H219267   1.628   6.477   5.051  1.3001 -0.1529  0.6397
 6435TIP3   OH219268   3.640   1.686   3.318 -0.0874  0.3362 -0.2138
 6435TIP3    H119269   3.690   1.733   3.251  0.4598 -1.9410 -1.5430
 6435TIP3    H219270   3.570   1.746   3.343  1.4863  2.4389 -0.5556
 6436TIP3   OH219271   4.868   3.390   2.486  0.3571  0.1049 -0.0691
 6436TIP3    H119272   4.949   3.441   2.492 -0.1207  0.9081 -0.2854
 6436TIP3    H219273   4.808   3.434   2.546 -0.9342  1.4999 -2.2294
 6437TIP3   OH219274   5.426   4.671   0.343 -0.3031 -0.4468 -0.0919
 6437TIP3    H119275   5.493   4.613   0.380 -0.7898 -1.4748 -0.7842
 6437TIP3    H219276   5.359   4.612   0.308 -0.2753  0.4901 -1.8461
 6438TIP3   OH219277   4.773   1.570   1.300 -0.1341  0.0307  0.0288
 6438TIP3    H119278   4.772   1.666   1.290 -1.1245  0.0121 -0.0766
 6438TIP3    H219279   4.816   1.556   1.385 -3.1710  0.7687  1.8385
 6439TIP3   OH219280   3.449   3.945   2.630  0.1829 -0.0342 -0.3037
 6439TIP3    H119281   3.498   3.991   2.699  1.3294  0.4395 -1.3846
 6439TIP3    H219282   3.386   3.891   2.677  0.8166  0.4001  1.1077
 6440TIP3   OH219283   2.255   3.890   1.478  0.3885 -1.0746 -0.2404
 6440TIP3    H119284   2.315   3.897   1.552  0.7485  1.5309 -0.6987
 6440TIP3    H219285   2.168   3.881   1.518  0.6569 -0.4851  0.4932
 6441TIP3   OH219286   6.011   3.203   2.577 -0.0334 -0.4509  0.1535
 6441TIP3    H119287   5.949   3.130   2.576 -0.5914 -0.0250 -2.5459
 6441TIP3    H219288   5.968   3.272   2.525  2.5382 -0.0451 -1.5798
 6442TIP3   OH219289   4.765   0.156   3.010  0.8870 -0.1921  0.9508
 6442TIP3    H119290   4.737   0.233   3.059 -1.5213 -0.2347 -0.2188
 6442TIP3    H219291   4.752   0.082   3.070 -1.5353 -0.1816  0.5636
 6443TIP3   OH219292   3.963   3.726   5.081  0.1442  0.0191 -0.6957
 6443TIP3    H119293   4.044   3.715   5.032  0.3221  0.4769 -0.5033
 6443TIP3    H219294   3.982   3.690   5.168  0.0321 -0.1914 -0.7563
 6444TIP3   OH219295   4.273   1.904   5.817  0.0432 -0.3388 -0.0003
 6444TIP3    H119296   4.263   1.990   5.777  1.8426 -0.2953 -0.4210
 6444TIP3    H219297   4.368   1.892   5.826 -0.2239 -1.0945  2.6603
 6445TIP3   OH219298   3.686   3.347   3.580 -0.0525 -0.9059 -0.3872
 6445TIP3    H119299   3.654   3.299   3.503  0.0511 -0.7321 -0.5390
 6445TIP3    H219300   3.780   3.329   3.582  0.3204  0.6882 -1.4629
 6446TIP3   OH219301   5.994   0.529   0.834  0.2100 -0.4061  0.0160
 6446TIP3    H119302   5.988   0.581   0.914 -1.4334 -1.6349  0.7510
 6446TIP3    H219303   6.086   0.502   0.829  0.0829 -1.5194  2.3196
 6447TIP3   OH219304   3.515   4.108   2.825 -0.1728  0.0883 -0.0266
 6447TIP3    H119305   3.574   4.169   2.780  1.5658  1.0761  3.2486
 6447TIP3    H219306   3.456   4.165   2.875 -0.0315 -0.8988  1.2990
 6448TIP3   OH219307   1.440   4.949   0.305 -0.1501 -0.0537 -0.4982
 6448TIP3    H119308   1.453   4.991   0.220  0.3617  0.2653 -0.2680
 6448TIP3    H219309   1.488   4.867   0.300 -0.5166 -0.2600 -0.6805
 6449TIP3   OH219310   5.469   1.626   0.512 -0.2501  0.6333  0.0694
 6449TIP3    H119311   5.446   1.535   0.529 -0.1338  0.8321  1.3998
 6449TIP3    H219312   5.416   1.650   0.436 -0.0080 -0.6402 -0.5238
 6450TIP3   OH219313   5.750   4.174   5.464  0.2762  0.0482 -0.3872
 6450TIP3    H119314   5.798   4.105   5.418 -0.1208 -0.0041 -0.7238
 6450TIP3    H219315   5.768   4.253   5.413  1.5285  0.4045  0.5391
 6451TIP3   OH219316   2.035   4.680   3.578 -0.4201  0.1766  0.1955
 6451TIP3    H119317   1.944   4.674   3.609 -0.2657  0.3412  0.6898
 6451TIP3    H219318   2.086   4.698   3.657  0.1172 -0.4952  0.0154
 6452TIP3   OH219319   4.375   4.342   2.037 -0.3497  0.7262 -0.0498
 6452TIP3    H119320   4.469   4.329   2.049 -0.2202  1.0011 -0.7305
 6452TIP3    H219321   4.335   4.297   2.111  0.2824  0.0658 -0.1053
 6453TIP3   OH219322   4.528   6.738   1.814 -0.0507 -0.2431 -0.4251
 6453TIP3    H119323   4.590   6.811   1.811  0.2589 -0.4870 -0.1079
 6453TIP3    H219324   4.583   6.659   1.813 -0.3470 -0.4615 -0.0789
 6454TIP3   OH219325   6.857   5.140   4.175  0.1504 -0.5233  0.0294
 6454TIP3    H119326   6.832   5.232   4.183  0.7268 -0.3105 -0.5540
 6454TIP3    H219327   6.785   5.092   4.217 -1.8954 -0.0183 -2.6449
 6455TIP3   OH219328   3.679   3.784   3.733 -0.2290 -0.3115  0.7726
 6455TIP3    H119329   3.632   3.706   3.761 -1.5165  0.3550  0.5083
 6455TIP3    H219330   3.653   3.796   3.642  0.3687  0.1349  0.6568
 6456TIP3   OH219331   6.322   4.705   0.496 -0.7510  0.1315 -0.7305
 6456TIP3    H119332   6.314   4.792   0.457 -2.3059 -0.6423 -2.2805
 6456TIP3    H219333   6.386   4.660   0.441  1.3570  0.7463  1.0747
 6457TIP3   OH219334   3.844   6.060   0.971  0.0125  0.1281 -0.3714
 6457TIP3    H119335   3.932   6.044   0.937 -0.3958 -0.6827 -1.0750
 6457TIP3    H219336   3.844   6.153   0.993  1.3888 -0.0753  0.6689
 6458TIP3   OH219337   5.835   6.680   1.073 -0.0712  0.9378 -0.6938
 6458TIP3    H119338   5.876   6.616   1.130 -0.8526  1.8999  1.0270
 6458TIP3    H219339   5.895   6.689   0.999  0.3038 -1.3390 -0.7339
 6459TIP3   OH219340   5.164   2.648   3.241  0.1469  0.5366 -0.1275
 6459TIP3    H119341   5.238   2.588   3.234  1.9023  2.7100 -1.7593
 6459TIP3    H219342   5.204   2.734   3.255 -2.0914  1.7213 -0.5612
 6460TIP3   OH219343   7.091   5.609   1.578  0.3252  0.3269  0.2191
 6460TIP3    H119344   7.097   5.657   1.496  0.4201 -0.2474 -0.1089
 6460TIP3    H219345   7.139   5.663   1.641  0.8676  0.4069 -0.2632
 6461TIP3   OH219346   4.903   4.413   2.155  0.0631  0.1457  0.3365
 6461TIP3    H119347   4.894   4.434   2.062  1.7264 -0.4964  0.0003
 6461TIP3    H219348   4.882   4.495   2.200 -3.6779 -0.2488 -0.3853
 6462TIP3   OH219349   1.277   1.041   4.142 -0.2666  0.0257 -0.4444
 6462TIP3    H119350   1.228   0.973   4.189 -0.5959 -0.9678 -2.1290
 6462TIP3    H219351   1.292   1.004   4.055 -0.1343  1.9737 -1.3095
 6463TIP3   OH219352   0.042   1.227   2.003  0.6420  0.1281 -0.2732
 6463TIP3    H119353   0.068   1.142   2.041  1.0123  0.3013 -0.1334
 6463TIP3    H219354   0.098   1.236   1.926  1.6736  0.9287  0.5429
 6464TIP3   OH219355   2.387   2.763   1.829 -0.7257  0.3095 -0.4178
 6464TIP3    H119356   2.415   2.731   1.744 -2.8563 -0.4620 -0.8930
 6464TIP3    H219357   2.315   2.823   1.810  0.8727  2.7631  0.6952
 6465TIP3   OH219358   6.775   5.201   5.508 -0.2936 -0.7905  0.7599
 6465TIP3    H119359   6.711   5.131   5.495 -0.2730 -0.7503  0.4421
 6465TIP3    H219360   6.783   5.243   5.423  0.6310 -1.2057  0.6358
 6466TIP3   OH219361   6.413   5.955   4.789  0.2667  0.2110 -0.3241
 6466TIP3    H119362   6.415   6.002   4.872 -1.1331  1.4302 -0.9305
 6466TIP3    H219363   6.410   5.863   4.813 -3.9100  0.5386  1.2141
 6467TIP3   OH219364   0.479   1.334   1.991 -0.5965 -0.5697 -0.2073
 6467TIP3    H119365   0.540   1.275   2.035 -0.4647  0.3709  0.9337
 6467TIP3    H219366   0.523   1.419   1.991 -0.0238 -0.7453 -3.3618
 6468TIP3   OH219367   1.529   3.308   4.913  0.4892 -0.5054 -0.0184
 6468TIP3    H119368   1.574   3.348   4.988  1.5448 -0.1479 -0.8197
 6468TIP3    H219369   1.530   3.214   4.933  1.6936 -0.5195 -0.0349
 6469TIP3   OH219370   2.508   3.602   0.835 -0.2152  0.5949  0.0759
 6469TIP3    H119371   2.456   3.548   0.775  0.2167  0.2291  0.0262
 6469TIP3    H219372   2.480   3.572   0.922  0.4627 -0.1459  0.0471
 6470TIP3   OH219373   6.449   4.984   2.798  0.1707 -0.3405  0.2528
 6470TIP3    H119374   6.501   5.055   2.762 -0.8953  0.0510 -0.5625
 6470TIP3    H219375   6.359   5.017   2.797 -0.1160 -1.0034  1.6157
 6471TIP3   OH219376   5.387   5.758   4.171 -0.4208  0.4887 -0.3328
 6471TIP3    H119377   5.394   5.765   4.076 -0.4536  0.8036 -0.3119
 6471TIP3    H219378   5.456   5.697   4.196  0.6235  1.6322 -0.3912
 6472TIP3   OH219379   0.090   4.188   0.553 -0.3964  0.2722 -0.5720
 6472TIP3    H119380   0.175   4.145   0.549  0.0555  0.9524  0.8872
 6472TIP3    H219381   0.111   4.282   0.556 -1.2032  0.4601 -0.5378
 6473TIP3   OH219382   2.098   3.908   3.225 -0.1783  0.4668  0.3879
 6473TIP3    H119383   2.007   3.893   3.250  0.2398 -1.6142  0.8376
 6473TIP3    H219384   2.137   3.950   3.301 -0.3089 -0.4560  0.9770
 6474TIP3   OH219385   1.701   4.527   1.337 -0.0345  0.0958  0.3027
 6474TIP3    H119386   1.718   4.494   1.249 -3.0966  1.9870 -1.1696
 6474TIP3    H219387   1.665   4.452   1.384 -1.4196 -0.2038 -1.1385
 6475TIP3   OH219388   5.367   3.651   2.798 -0.2631  0.0949  0.3539
 6475TIP3    H119389   5.306   3.705   2.848 -2.0296 -1.6219  0.2103
 6475TIP3    H219390   5.328   3.646   2.710  0.2708 -0.7614  0.1520
 6476TIP3   OH219391   4.300   0.988   2.515  0.3248  0.1296 -0.4208
 6476TIP3    H119392   4.267   1.077   2.515  1.3873  0.5466 -1.6419
 6476TIP3    H219393   4.247   0.943   2.449 -1.4933 -0.6899  1.4932
 6477TIP3   OH219394   1.620   4.527   1.005 -0.7350  0.4532  0.2864
 6477TIP3    H119395   1.553   4.587   1.036 -1.3802  0.1165 -0.4486
 6477TIP3    H219396   1.683   4.582   0.960 -1.5703  0.5323 -0.8057
 6478TIP3   OH219397   0.662   4.692   3.237  0.4429 -0.4140  0.4070
 6478TIP3    H119398   0.589   4.749   3.209 -0.1031 -0.7447  1.1301
 6478TIP3    H219399   0.700   4.738   3.311  1.1372 -0.1289 -0.1145
 6479TIP3   OH219400   1.402   3.302   0.081 -0.4777  0.0551 -0.7550
 6479TIP3    H119401   1.468   3.338   0.021 -0.6894  0.8033 -0.5480
 6479TIP3    H219402   1.328   3.361   0.072 -0.2417  0.6310  0.8081
 6480TIP3   OH219403   2.788   3.627   1.032 -0.2894 -0.2521  0.0816
 6480TIP3    H119404   2.818   3.540   1.004 -1.9935 -1.2198  1.1463
 6480TIP3    H219405   2.693   3.624   1.022 -0.3157  1.8320 -0.7214
 6481TIP3   OH219406   6.370   5.506   4.071 -0.2695 -0.4008 -0.2451
 6481TIP3    H119407   6.446   5.564   4.075 -1.2115  0.9765 -1.1944
 6481TIP3    H219408   6.391   5.434   4.130  1.8555 -0.1795 -0.6469
 6482TIP3   OH219409   3.436   3.070   3.584 -0.0808  0.0463 -0.2702
 6482TIP3    H119410   3.519   3.082   3.537  0.3606 -2.1167 -0.1142
 6482TIP3    H219411   3.376   3.131   3.541  1.3407  1.0038 -0.9798
 6483TIP3   OH219412   2.099   3.289   4.412 -0.9843  0.5943  0.2073
 6483TIP3    H119413   2.024   3.232   4.430 -0.2495 -0.3417  0.4255
 6483TIP3    H219414   2.144   3.296   4.497  0.8629 -1.4058 -0.4969
 6484TIP3   OH219415   5.136   0.597   5.199  0.2345  0.2120  0.6125
 6484TIP3    H119416   5.227   0.591   5.172  0.0562  2.7718 -0.9025
 6484TIP3    H219417   5.091   0.526   5.152  0.7453  1.7017 -2.3614
 6485TIP3   OH219418   4.823   4.378   4.263  0.2422 -0.3105 -0.0782
 6485TIP3    H119419   4.835   4.471   4.281 -0.0096 -0.4111  0.6617
 6485TIP3    H219420   4.732   4.371   4.231  0.3042 -0.2874 -0.2604
 6486TIP3   OH219421   1.773   1.679   5.213 -0.2440 -0.1246  0.4304
 6486TIP3    H119422   1.834   1.746   5.182 -0.3229 -0.6320 -0.8599
 6486TIP3    H219423   1.813   1.596   5.188 -0.2690 -0.5820  1.8012
 6487TIP3   OH219424   5.223   3.268   5.004  0.6514 -0.5841  0.0306
 6487TIP3    H119425   5.250   3.358   5.025  0.5813 -0.8053  1.1188
 6487TIP3    H219426   5.135   3.278   4.968  1.3372 -0.0596 -1.5917
 6488TIP3   OH219427   6.730   5.507   4.929  0.4573  0.2862 -0.0782
 6488TIP3    H119428   6.671   5.534   4.859 -0.4446 -0.9573  0.1651
 6488TIP3    H219429   6.674   5.503   5.007  1.2905  0.9414  0.5749
 6489TIP3   OH219430   7.077   0.305   1.511 -0.3660  0.7193 -0.4444
 6489TIP3    H119431   7.034   0.343   1.434 -1.3391  1.5267  0.4686
 6489TIP3    H219432   7.015   0.318   1.582  0.5329  0.0167  0.5006
 6490TIP3   OH219433   0.694   5.910   4.988  0.2868 -0.1044 -0.2404
 6490TIP3    H119434   0.687   5.986   5.046 -2.4733 -0.5677  0.1511
 6490TIP3    H219435   0.680   5.834   5.045  0.2672 -0.7535 -1.0766
 6491TIP3   OH219436   2.301   4.044   2.875  0.8225 -0.0199 -0.2856
 6491TIP3    H119437   2.358   3.971   2.899  0.7089 -0.0611 -0.1373
 6491TIP3    H219438   2.262   4.017   2.792  0.2805 -0.4248  0.0841
 6492TIP3   OH219439   4.915   2.681   3.047 -0.7456  0.2251  0.0809
 6492TIP3    H119440   4.913   2.618   3.119 -1.3897 -0.4177 -0.4876
 6492TIP3    H219441   4.965   2.755   3.082  1.0471 -1.0500  0.3989
 6493TIP3   OH219442   3.478   4.773   5.438 -0.4580 -0.5458  0.2146
 6493TIP3    H119443   3.404   4.800   5.492 -0.1706  1.1363 -0.1552
 6493TIP3    H219444   3.555   4.798   5.489 -0.1745  1.7161 -1.1611
 6494TIP3   OH219445   3.145   2.220   3.604  0.1189  0.6725 -0.0771
 6494TIP3    H119446   3.050   2.225   3.596 -0.2427  0.1704  2.9014
 6494TIP3    H219447   3.173   2.307   3.630  0.1125  0.1974  1.6129
 6495TIP3   OH219448   2.272   3.314   3.325  0.1035 -0.0268 -0.6165
 6495TIP3    H119449   2.259   3.399   3.366 -1.8213 -0.2510 -0.6639
 6495TIP3    H219450   2.244   3.251   3.391 -0.3146 -0.5138 -1.2428
 6496TIP3   OH219451   5.973   5.963   0.635  0.3474 -0.0448 -0.0647
 6496TIP3    H119452   5.879   5.973   0.622  0.5268  0.8955 -0.7352
 6496TIP3    H219453   5.989   5.999   0.722  0.5371  3.0500 -1.2652
 6497TIP3   OH219454   3.771   4.139   2.291  0.4977  0.1474 -0.5584
 6497TIP3    H119455   3.789   4.046   2.308  1.0406 -0.1685 -2.6448
 6497TIP3    H219456   3.747   4.142   2.199  1.2205  2.1920 -0.7180
 6498TIP3   OH219457   2.831   2.668   0.227  0.3248  0.3426  0.1105
 6498TIP3    H119458   2.738   2.685   0.213  0.2495  1.1062  1.3509
 6498TIP3    H219459   2.873   2.753   0.215  0.3877  0.8155  2.9726
 6499TIP3   OH219460   6.062   0.178   4.150  0.0550  0.0575  0.6521
 6499TIP3    H119461   6.152   0.182   4.184 -0.1715 -0.2154  1.2933
 6499TIP3    H219462   6.071   0.137   4.064  0.7793  1.7570 -0.1425
 6500TIP3   OH219463   2.300   1.455   2.807 -0.1756 -0.3542  0.0017
 6500TIP3    H119464   2.215   1.428   2.771 -0.7761  0.1375  0.9888
 6500TIP3    H219465   2.312   1.400   2.884  0.5217 -0.5733 -0.2589
 6501TIP3   OH219466   6.086   0.882   3.978 -0.0188 -0.1862 -0.0527
 6501TIP3    H119467   6.035   0.938   3.920 -1.1434 -0.3459  0.7316
 6501TIP3    H219468   6.071   0.793   3.944  1.2542 -0.0985 -0.9182
 6502TIP3   OH219469   6.911   4.915   3.100 -0.1176 -0.1602 -0.7030
 6502TIP3    H119470   6.839   4.855   3.119 -0.3068  0.2859  0.0348
 6502TIP3    H219471   6.867   4.994   3.067  0.1691 -0.6910 -2.4261
 6503TIP3   OH219472   5.664   4.574   3.047 -0.3123 -0.9446  0.5375
 6503TIP3    H119473   5.712   4.493   3.065 -1.4323 -1.2801  2.2255
 6503TIP3    H219474   5.681   4.630   3.122 -2.2036 -0.9261  1.0116
 6504TIP3   OH219475   1.295   3.944   3.629  0.3621 -0.0919 -0.2957
 6504TIP3    H119476   1.352   3.916   3.701  0.2600  0.8588  0.1634
 6504TIP3    H219477   1.354   3.987   3.567  0.4439 -0.8745 -0.7786
 6505TIP3   OH219478   2.813   5.856   1.837  0.0171 -0.2503 -0.2255
 6505TIP3    H119479   2.849   5.875   1.750 -0.4537 -1.5019 -0.7232
 6505TIP3    H219480   2.723   5.827   1.820 -0.2961  0.1355  0.7419
 6506TIP3   OH219481   1.674   2.653   5.072  0.4561 -0.6729 -0.6716
 6506TIP3    H119482   1.670   2.662   5.167 -0.0983  0.2046 -0.7569
 6506TIP3    H219483   1.750   2.705   5.046  1.8999 -2.6253 -0.5582
 6507TIP3   OH219484   2.320   2.667   2.799 -0.0423  0.1445  0.3092
 6507TIP3    H119485   2.385   2.712   2.853 -1.2417  1.9465  0.3222
 6507TIP3    H219486   2.280   2.736   2.746 -0.8997 -1.1465 -0.8196
 6508TIP3   OH219487   3.877   3.091   0.073  0.1800  0.3021  0.6238
 6508TIP3    H119488   3.972   3.099   0.085  0.4564 -1.1548 -0.3017
 6508TIP3    H219489   3.867   3.054  -0.015 -1.0823 -2.6272  1.8740
 6509TIP3   OH219490   0.584   4.648   3.643  0.1176 -0.0158 -0.3952
 6509TIP3    H119491   0.531   4.648   3.722 -0.0609 -0.5677 -0.5139
 6509TIP3    H219492   0.586   4.557   3.614  0.6193  0.0965 -0.7346
 6510TIP3   OH219493   4.892   1.083   5.169  0.2308 -0.2900 -0.0541
 6510TIP3    H119494   4.929   1.137   5.239  1.1460 -0.5841 -0.3019
 6510TIP3    H219495   4.947   1.005   5.166 -1.2381 -1.4043  0.4844
 6511TIP3   OH219496   2.146   6.748   2.871  0.3834 -0.2316 -0.1437
 6511TIP3    H119497   2.100   6.826   2.905  0.9189 -0.1020  0.3087
 6511TIP3    H219498   2.212   6.784   2.811  0.5756 -0.3355  0.0027
 6512TIP3   OH219499   2.887   5.722   0.842  0.3384 -0.1602 -0.3878
 6512TIP3    H119500   2.974   5.747   0.872  0.8845 -0.2061 -1.8420
 6512TIP3    H219501   2.903   5.669   0.764 -0.9362 -1.8222  0.4219
 6513TIP3   OH219502   3.497   1.707   0.607  0.8102  0.3188  0.0604
 6513TIP3    H119503   3.523   1.754   0.529 -0.2933  0.5300 -0.2049
 6513TIP3    H219504   3.402   1.695   0.597  0.9344 -1.2128  0.5233
 6514TIP3   OH219505   7.072   0.102   5.650  0.0953  0.0685 -0.2902
 6514TIP3    H119506   7.122   0.092   5.731 -1.1437 -1.1450  0.3704
 6514TIP3    H219507   7.132   0.148   5.590  2.2370 -1.8639  0.2285
 6515TIP3   OH219508   2.499   5.172   1.268 -0.1529  0.0184 -0.0186
 6515TIP3    H119509   2.435   5.221   1.319 -0.9256  0.7795 -1.6187
 6515TIP3    H219510   2.450   5.097   1.233  0.5304 -0.8607  0.8678
 6516TIP3   OH219511   2.192   1.699   0.997 -0.0850  0.2015 -0.3597
 6516TIP3    H119512   2.125   1.644   0.956 -0.6825  0.0304  0.8283
 6516TIP3    H219513   2.226   1.647   1.069 -1.3349  1.7060  1.4083
 6517TIP3   OH219514   5.135   4.277   5.640 -1.1178 -0.2055 -0.2966
 6517TIP3    H119515   5.101   4.302   5.726  0.1410  0.3114  0.0738
 6517TIP3    H219516   5.131   4.358   5.589  0.2860  0.0798  0.0105
 6518TIP3   OH219517   4.603   2.188   2.275 -0.1236  0.0417  0.3179
 6518TIP3    H119518   4.547   2.264   2.259  0.9889  1.0128  0.8633
 6518TIP3    H219519   4.607   2.180   2.370 -0.5071 -0.9221  0.2578
 6519TIP3   OH219520   3.246   4.856   1.840 -0.0873 -0.1142 -0.8113
 6519TIP3    H119521   3.214   4.862   1.750 -1.0343  0.7634 -0.4387
 6519TIP3    H219522   3.167   4.853   1.894  0.4671 -0.5237  0.0013
 6520TIP3   OH219523   5.840   5.971   4.722 -0.3010 -0.0442 -0.2742
 6520TIP3    H119524   5.916   5.915   4.704  0.2586 -1.5086  4.8455
 6520TIP3    H219525   5.878   6.057   4.741 -0.0384 -0.3701  0.7414
 6521TIP3   OH219526   5.620   2.143   2.433 -0.7801 -0.0051  0.0769
 6521TIP3    H119527   5.703   2.184   2.458  1.4523 -3.2905 -1.3078
 6521TIP3    H219528   5.605   2.172   2.343 -0.4080 -0.5057 -0.1433
 6522TIP3   OH219529   7.173   2.002   3.464 -0.4207 -0.2820 -0.2397
 6522TIP3    H119530   7.095   2.055   3.447 -1.0476 -0.9839  0.3369
 6522TIP3    H219531   7.182   2.003   3.560  1.8054  1.8875 -0.3897
 6523TIP3   OH219532   2.092   3.249   3.107  0.1388 -0.0696 -0.1078
 6523TIP3    H119533   2.160   3.185   3.085  1.3522  1.7836 -2.1330
 6523TIP3    H219534   2.130   3.302   3.177 -0.4819 -0.9075  0.8905
 6524TIP3   OH219535   1.214   2.521   4.436 -0.2246  0.0703 -0.2067
 6524TIP3    H119536   1.186   2.603   4.478  0.4010  1.2165 -1.9456
 6524TIP3    H219537   1.154   2.510   4.362 -0.8115 -1.5197  0.4387
 6525TIP3   OH219538   4.431   5.241   4.450  0.2968  0.5448  0.0770
 6525TIP3    H119539   4.524   5.246   4.428  0.2594  1.3052  0.0625
 6525TIP3    H219540   4.409   5.148   4.441  1.3221  0.1622  1.2155
 6526TIP3   OH219541   3.735   2.871   5.406  0.1560  0.0411 -0.1734
 6526TIP3    H119542   3.642   2.863   5.428 -0.2592  0.7427 -1.5471
 6526TIP3    H219543   3.765   2.947   5.455  0.3626 -0.9243  1.2719
 6527TIP3   OH219544   1.018   2.359   5.827 -0.0632  0.9078 -0.0668
 6527TIP3    H119545   0.996   2.343   5.735 -0.3299  1.3125 -0.0788
 6527TIP3    H219546   1.091   2.300   5.845  0.3845  1.2427 -0.7101
 6528TIP3   OH219547   3.861   4.711   5.847  0.1970 -0.4168  0.2059
 6528TIP3    H119548   3.923   4.663   5.792 -2.2455 -1.9662 -1.3797
 6528TIP3    H219549   3.881   4.803   5.831  3.0388 -0.8053  0.9800
 6529TIP3   OH219550   4.243   0.560   0.055 -0.2066  0.1460  0.1599
 6529TIP3    H119551   4.295   0.632   0.090 -0.3474 -0.8686  2.6911
 6529TIP3    H219552   4.191   0.599  -0.015  2.5975  1.5642 -1.2583
 6530TIP3   OH219553   4.295   0.332   5.097  0.1686 -0.1536 -0.5149
 6530TIP3    H119554   4.360   0.267   5.069  1.6221  1.0096  0.0198
 6530TIP3    H219555   4.275   0.307   5.187  0.0021 -0.4187 -0.6251
 6531TIP3   OH219556   2.558   4.156   1.219 -0.2119 -0.3535 -1.0654
 6531TIP3    H119557   2.466   4.148   1.195 -0.2215  1.9703 -2.0301
 6531TIP3    H219558   2.557   4.168   1.314 -0.9184 -0.0555 -1.1048
 6532TIP3   OH219559   5.968   0.714   1.032  0.8089 -0.0523  0.9375
 6532TIP3    H119560   5.887   0.705   1.082 -0.4816  2.2868 -0.5290
 6532TIP3    H219561   6.022   0.773   1.085  0.3276  0.7043  0.6048
 6533TIP3   OH219562   0.228   3.361   5.095 -0.6471  0.0900 -0.0858
 6533TIP3    H119563   0.220   3.319   5.181 -2.5891 -2.0122 -1.1853
 6533TIP3    H219564   0.149   3.334   5.048 -0.0272  1.8301 -2.2723
 6534TIP3   OH219565   5.698   5.456   1.340 -0.3882  0.2647 -0.1213
 6534TIP3    H119566   5.739   5.536   1.309 -2.0300  1.9158  1.6719
 6534TIP3    H219567   5.760   5.419   1.402  0.3007  0.2143 -0.8267
 6535TIP3   OH219568   4.789   2.672   1.228 -0.2906  0.4664 -0.2774
 6535TIP3    H119569   4.740   2.703   1.152 -0.2704 -0.4785 -0.6790
 6535TIP3    H219570   4.734   2.605   1.267 -0.1498  0.7111  0.3553
 6536TIP3   OH219571   3.897   1.043   2.714  0.4425 -0.2244 -0.1172
 6536TIP3    H119572   3.806   1.031   2.739  0.7699 -2.1903  0.3184
 6536TIP3    H219573   3.900   1.019   2.621  0.5153 -0.2550 -0.1077
 6537TIP3   OH219574   1.098   1.103   4.489 -0.2315  0.7249  0.1463
 6537TIP3    H119575   1.057   1.148   4.415 -0.9499  0.2214  0.2254
 6537TIP3    H219576   1.133   1.174   4.543 -1.3802  1.2178  0.2857
 6538TIP3   OH219577   3.301   3.493   3.795 -0.2741 -0.4114  0.4607
 6538TIP3    H119578   3.269   3.425   3.854  0.6952 -1.9198 -0.6795
 6538TIP3    H219579   3.254   3.479   3.713 -0.2570  0.4834  0.2810
 6539TIP3   OH219580   0.578   0.018   4.711  0.3401 -0.2108  0.2248
 6539TIP3    H119581   0.632   0.004   4.633  1.1819  0.7753  0.6091
 6539TIP3    H219582   0.569   0.113   4.717  1.2297 -0.2043  1.9429
 6540TIP3   OH219583   2.557   2.426   0.038 -0.2005 -0.0175  0.4506
 6540TIP3    H119584   2.606   2.424   0.120 -0.0892  0.0104  0.3856
 6540TIP3    H219585   2.541   2.334   0.018 -0.1870 -0.0261  0.4800
 6541TIP3   OH219586   3.436   2.360   4.937  0.1801  0.0617 -0.1631
 6541TIP3    H119587   3.427   2.297   5.008  2.1406  0.4419  0.4859
 6541TIP3    H219588   3.494   2.317   4.874 -1.6724 -0.3454 -1.6722
 6542TIP3   OH219589   2.306   6.289   5.629  0.2766 -0.7513 -0.7681
 6542TIP3    H119590   2.235   6.351   5.644 -0.7892 -1.9592 -0.6480
 6542TIP3    H219591   2.383   6.330   5.669 -0.5258  0.2190 -0.1783
 6543TIP3   OH219592   1.815   0.472   1.691  0.4760  0.2511  0.3745
 6543TIP3    H119593   1.831   0.502   1.781  1.4394  1.2014 -0.0793
 6543TIP3    H219594   1.870   0.393   1.683 -1.0740 -0.9659  1.1761
 6544TIP3   OH219595   4.165   1.756   2.805 -0.4642 -0.3986 -0.4147
 6544TIP3    H119596   4.128   1.723   2.887  0.1060 -1.7301 -0.6739
 6544TIP3    H219597   4.259   1.744   2.814 -0.0363  2.5619  0.0612
 6545TIP3   OH219598   1.366   6.806   2.268 -0.6756  0.2736 -0.0152
 6545TIP3    H119599   1.450   6.802   2.313 -0.0613 -0.8637 -1.1868
 6545TIP3    H219600   1.347   6.715   2.244 -2.2058  0.5170  0.1396
 6546TIP3   OH219601   3.763   1.315   4.414  0.1712 -0.4570  0.8529
 6546TIP3    H119602   3.722   1.294   4.330  1.4312 -1.4543  0.4627
 6546TIP3    H219603   3.728   1.251   4.475 -1.1536  0.5937  1.2567
 6547TIP3   OH219604   0.547   4.440   0.888 -0.0320  0.0584 -0.9558
 6547TIP3    H119605   0.520   4.496   0.815  1.1249  1.7177 -0.1877
 6547TIP3    H219606   0.507   4.480   0.965  0.4227 -0.4711 -0.4353
 6548TIP3   OH219607   2.048   1.508   1.156 -0.4231  0.3130  0.0274
 6548TIP3    H119608   1.999   1.539   1.080  0.5483 -0.2993 -0.8762
 6548TIP3    H219609   2.012   1.420   1.173  1.1144 -0.6454 -1.3921
 6549TIP3   OH219610   7.097   4.005   0.655 -0.0955 -0.1047 -0.2254
 6549TIP3    H119611   7.126   3.923   0.694 -0.1230 -1.9916 -3.7356
 6549TIP3    H219612   7.176   4.041   0.615 -0.4902  0.5267 -0.4384
 6550TIP3   OH219613   3.038   0.599   3.236 -0.1764 -0.8040  0.1261
 6550TIP3    H119614   3.133   0.609   3.248 -0.2764 -0.8004  0.9807
 6550TIP3    H219615   3.029   0.523   3.177  0.3088 -2.6241  2.2502
 6551TIP3   OH219616   4.212   5.666   4.844  0.2009 -0.4668 -0.1574
 6551TIP3    H119617   4.153   5.712   4.902 -1.4119 -2.3387 -0.2044
 6551TIP3    H219618   4.275   5.623   4.902  0.0518 -0.4044  0.0487
 6552TIP3   OH219619   2.775   0.943   3.949  0.1479  0.0147  0.1083
 6552TIP3    H119620   2.868   0.930   3.935  0.1537 -1.0188  0.9778
 6552TIP3    H219621   2.757   0.901   4.033 -1.0285  0.5358  0.1453
 6553TIP3   OH219622   1.066   4.640   5.362 -0.0727 -0.0502  0.0073
 6553TIP3    H119623   1.058   4.728   5.399  0.2321  0.1971 -0.4989
 6553TIP3    H219624   1.160   4.627   5.351 -0.1130 -0.4586  0.1196
 6554TIP3   OH219625   5.130   3.505   2.451  0.0143 -0.7032 -0.0720
 6554TIP3    H119626   5.159   3.582   2.403  2.0004 -1.0369  0.4908
 6554TIP3    H219627   5.210   3.454   2.466 -0.8538 -1.6744  1.6934
 6555TIP3   OH219628   2.336   0.867   3.269  0.0912  0.2350  0.1512
 6555TIP3    H119629   2.348   0.782   3.227  0.9895  0.5406 -0.2527
 6555TIP3    H219630   2.422   0.909   3.261 -0.2267  1.0094  0.7199
 6556TIP3   OH219631   2.297   4.827   2.103 -0.1234 -0.1728 -0.0634
 6556TIP3    H119632   2.281   4.777   2.023 -0.8208 -0.9111  0.5292
 6556TIP3    H219633   2.381   4.871   2.087 -0.5503  0.1911 -1.4386
 6557TIP3   OH219634   1.048   4.873   4.675 -0.2876 -0.0985 -0.0627
 6557TIP3    H119635   1.080   4.946   4.622 -0.0114  2.8685  3.7754
 6557TIP3    H219636   1.123   4.849   4.730 -1.6634 -0.0272  1.9585
 6558TIP3   OH219637   0.416   4.168   3.935  0.3739 -0.1207  1.0510
 6558TIP3    H119638   0.432   4.219   4.015  0.2358  1.9206 -0.1613
 6558TIP3    H219639   0.500   4.129   3.914  0.7177  0.3397  1.5329
 6559TIP3   OH219640   3.120   3.966   3.413 -0.5716 -0.3238  0.0068
 6559TIP3    H119641   3.036   4.000   3.383 -0.4713 -0.5171 -0.5136
 6559TIP3    H219642   3.184   4.002   3.351 -0.3848 -0.8955 -0.1466
 6560TIP3   OH219643   4.417   6.401   2.888 -0.8247  0.0301 -0.0380
 6560TIP3    H119644   4.386   6.447   2.966  0.9410  0.3135  0.5270
 6560TIP3    H219645   4.400   6.462   2.816 -0.1886  0.8325  0.4692
 6561TIP3   OH219646   0.774   5.261   4.908  0.6415 -0.3815 -0.5366
 6561TIP3    H119647   0.802   5.272   4.817 -0.2675 -0.8685 -0.8889
 6561TIP3    H219648   0.757   5.351   4.938 -0.0142 -0.2873 -1.1684
 6562TIP3   OH219649   3.334   2.636   4.420  0.0806 -0.4621 -0.2089
 6562TIP3    H119650   3.360   2.549   4.388  0.7957 -1.5586  2.9472
 6562TIP3    H219651   3.251   2.620   4.465 -1.4056  1.1923 -2.1996
 6563TIP3   OH219652   0.694   5.489   1.505 -0.0965 -0.3552  0.1817
 6563TIP3    H119653   0.751   5.457   1.435  1.1606  0.2332  0.8864
 6563TIP3    H219654   0.721   5.439   1.582  0.0989  0.5408  0.7179
 6564TIP3   OH219655   1.285   3.275   5.791 -0.4873 -0.1432  0.3566
 6564TIP3    H119656   1.335   3.282   5.873 -1.9071 -1.0909  1.3616
 6564TIP3    H219657   1.266   3.181   5.783 -2.3432  0.2096  0.1940
 6565TIP3   OH219658   1.300   3.250   3.580  0.0656  0.1020  0.0783
 6565TIP3    H119659   1.236   3.188   3.545  1.6303  0.1046 -3.2093
 6565TIP3    H219660   1.263   3.336   3.559 -0.2348  0.1864  0.9398
 6566TIP3   OH219661   0.541   6.240   0.499  0.0153 -0.1156 -0.4075
 6566TIP3    H119662   0.520   6.270   0.410 -1.3529 -1.3638 -0.5307
 6566TIP3    H219663   0.562   6.148   0.488  1.0827  0.0209  0.4108
 6567TIP3   OH219664   3.453   2.705   0.533  0.6449  0.2147 -0.4982
 6567TIP3    H119665   3.364   2.730   0.556  0.2120 -1.9009  0.3991
 6567TIP3    H219666   3.470   2.746   0.449 -1.3872  0.1854 -0.9522
 6568TIP3   OH219667   5.345   1.898   1.642 -0.0916 -0.1108  0.5919
 6568TIP3    H119668   5.297   1.962   1.588  0.1420  1.3045  2.0133
 6568TIP3    H219669   5.286   1.822   1.646 -0.6941  0.2729 -0.5189
 6569TIP3   OH219670   0.491   5.806   3.232  0.7664  0.0160 -0.2101
 6569TIP3    H119671   0.399   5.800   3.254  0.8767  0.2971  0.3420
 6569TIP3    H219672   0.532   5.734   3.279  0.8958  0.1726 -0.0814
 6570TIP3   OH219673   4.425   5.911   2.153  0.0665  0.2686 -0.2160
 6570TIP3    H119674   4.478   5.835   2.132 -0.8837 -0.2804 -0.6855
 6570TIP3    H219675   4.424   5.963   2.072 -0.2843  0.1697 -0.2760
 6571TIP3   OH219676   1.507   1.384   5.692  0.1949 -0.1448 -0.1708
 6571TIP3    H119677   1.552   1.450   5.745  0.9732 -1.1836  0.4906
 6571TIP3    H219678   1.477   1.432   5.614  2.2953  0.6353 -0.5636
 6572TIP3   OH219679   4.461   0.548   1.038  0.2228  0.3125  0.9122
 6572TIP3    H119680   4.382   0.600   1.023 -0.1620 -0.1274  1.3711
 6572TIP3    H219681   4.524   0.583   0.976 -1.3847 -1.7270 -2.0882
 6573TIP3   OH219682   5.891   3.144   3.495 -0.4353 -0.0885 -0.1602
 6573TIP3    H119683   5.977   3.110   3.468 -0.1465 -0.9397  1.6272
 6573TIP3    H219684   5.878   3.222   3.442  2.4916  1.3664  1.0193
 6574TIP3   OH219685   5.421   2.917   0.425  0.4535 -0.2866  0.0660
 6574TIP3    H119686   5.348   2.938   0.367  0.0256 -0.4686  0.5337
 6574TIP3    H219687   5.380   2.881   0.503  0.9895  0.4850  0.7173
 6575TIP3   OH219688   7.251   5.620   4.683  0.4316 -0.1705  1.1038
 6575TIP3    H119689   7.213   5.602   4.597  1.3187  0.4717  0.5634
 6575TIP3    H219690   7.204   5.697   4.715 -1.2533 -1.5304  2.0825
 6576TIP3   OH219691   2.405   0.911   5.249 -0.1896  0.7700  0.5846
 6576TIP3    H119692   2.410   0.861   5.167  0.3444  1.5577  0.1255
 6576TIP3    H219693   2.458   0.861   5.311 -0.1476  0.4519  0.2964
 6577TIP3   OH219694   2.656   4.664   1.497  0.3361 -0.5041 -0.1558
 6577TIP3    H119695   2.719   4.606   1.541  0.3947  0.9073  1.7615
 6577TIP3    H219696   2.710   4.721   1.443  0.2838 -2.1034 -1.9931
 6578TIP3   OH219697   4.491   2.317   1.092 -0.9108 -0.6339  0.1610
 6578TIP3    H119698   4.503   2.278   1.179  1.3626  1.0617  0.7085
 6578TIP3    H219699   4.580   2.330   1.060 -1.6992 -0.0599 -1.9046
 6579TIP3   OH219700   3.232   0.505   4.220 -0.2610  0.7700  0.0895
 6579TIP3    H119701   3.323   0.528   4.236  0.2162 -1.0830  0.2416
 6579TIP3    H219702   3.194   0.584   4.180  1.4136  1.5433 -0.0508
 6580TIP3   OH219703   2.004   1.820   0.583 -0.2905 -0.1503 -0.5061
 6580TIP3    H119704   2.000   1.748   0.520  0.9811 -0.3427 -0.4040
 6580TIP3    H219705   1.927   1.809   0.638 -1.5616  0.1624 -2.1534
 6581TIP3   OH219706   2.879   1.483   0.853 -0.1756 -0.0824  0.7290
 6581TIP3    H119707   2.808   1.545   0.836  0.1630 -0.0440 -0.6947
 6581TIP3    H219708   2.882   1.429   0.774  1.4907  0.0360  0.6770
 6582TIP3   OH219709   6.373   2.984   4.311  0.3762  0.1133 -0.2820
 6582TIP3    H119710   6.465   2.974   4.333  0.2119 -0.3894  0.2345
 6582TIP3    H219711   6.372   3.033   4.229  1.1695 -1.4644 -1.2834
 6583TIP3   OH219712   2.672   0.719   1.115  0.2752  0.0740  0.2120
 6583TIP3    H119713   2.654   0.704   1.208  1.7636 -2.0211  0.2255
 6583TIP3    H219714   2.604   0.669   1.069  0.3239  0.0344  0.1834
 6584TIP3   OH219715   4.195   3.354   3.381 -0.3741  0.4732 -0.4637
 6584TIP3    H119716   4.203   3.390   3.469  0.3363  0.0556 -0.3504
 6584TIP3    H219717   4.116   3.299   3.384  0.3187 -0.5071  0.2588
 6585TIP3   OH219718   4.763   2.366   1.049 -0.4832  0.0979  0.0459
 6585TIP3    H119719   4.833   2.387   1.111  0.0996 -1.1682 -0.1576
 6585TIP3    H219720   4.774   2.428   0.978 -0.6740  1.0559  0.8266
 6586TIP3   OH219721   6.840   1.757   2.955 -0.2143  0.1445  0.3575
 6586TIP3    H119722   6.901   1.806   3.012 -0.1619  0.6273 -0.1056
 6586TIP3    H219723   6.755   1.765   2.999  0.0485 -0.5481  1.0175
 6587TIP3   OH219724   2.692   0.409   0.566  0.2011  0.0297  0.3213
 6587TIP3    H119725   2.659   0.416   0.656 -0.3415 -0.9473  0.2120
 6587TIP3    H219726   2.660   0.324   0.535  0.3710  0.3552 -0.8025
 6588TIP3   OH219727   4.634   6.341   4.448  0.1790 -0.3262 -0.0025
 6588TIP3    H119728   4.680   6.424   4.457 -1.4796  0.6523 -0.0307
 6588TIP3    H219729   4.548   6.357   4.488  0.1603 -2.3383  0.8785
 6589TIP3   OH219730   1.704   4.055   5.668 -0.0674  0.1370  0.1513
 6589TIP3    H119731   1.744   3.993   5.607 -0.2742  1.0749 -0.9736
 6589TIP3    H219732   1.774   4.115   5.692 -0.2079  0.3297  0.0879
 6590TIP3   OH219733   5.198   6.748   4.937  0.6259  0.6488  0.0215
 6590TIP3    H119734   5.249   6.765   4.858  2.5339 -1.0301  0.7876
 6590TIP3    H219735   5.148   6.670   4.916  1.8688 -0.3757  0.7221
 6591TIP3   OH219736   4.285   5.559   0.119  0.5348  0.0643 -0.1515
 6591TIP3    H119737   4.281   5.588   0.210  0.8508  2.9245 -0.9585
 6591TIP3    H219738   4.260   5.466   0.123 -2.4491  0.7759  2.4748
 6592TIP3   OH219739   5.751   4.600   2.392  0.1636 -0.0139  0.0993
 6592TIP3    H119740   5.727   4.548   2.469 -0.9793  0.7421  0.2827
 6592TIP3    H219741   5.841   4.628   2.409 -0.1966  0.4662  1.3579
 6593TIP3   OH219742   3.293   5.599   0.279 -0.8303 -0.4573 -0.3046
 6593TIP3    H119743   3.338   5.622   0.360 -0.1802 -3.0252  0.1304
 6593TIP3    H219744   3.230   5.531   0.305 -0.2814 -1.6794 -1.9963
 6594TIP3   OH219745   4.566   1.838   1.938 -0.4897 -0.3273  0.3728
 6594TIP3    H119746   4.510   1.818   2.014 -1.7398 -0.0741 -0.4450
 6594TIP3    H219747   4.585   1.753   1.899 -0.5695 -0.3971  0.4859
 6595TIP3   OH219748   5.364   1.221   0.755  0.0352  0.3105 -0.1212
 6595TIP3    H119749   5.285   1.166   0.758  1.2731 -1.7505 -2.2316
 6595TIP3    H219750   5.418   1.187   0.827 -1.1424  2.1738  1.7732
 6596TIP3   OH219751   6.631   3.085   4.911  0.6919  0.4478  0.6055
 6596TIP3    H119752   6.702   3.095   4.975  0.5376  0.8004  0.7253
 6596TIP3    H219753   6.588   3.170   4.910  0.7923  0.4986 -0.0875
 6597TIP3   OH219754   4.821   0.301   0.042  0.1356  0.4963  0.4208
 6597TIP3    H119755   4.911   0.286   0.072  0.8349  1.3310 -1.1491
 6597TIP3    H219756   4.819   0.268  -0.047 -1.2111  0.2711  0.5127
 6598TIP3   OH219757   3.080   1.711   3.666 -0.0921 -0.2882  0.1206
 6598TIP3    H119758   3.045   1.762   3.593  1.0242 -1.7014 -1.4940
 6598TIP3    H219759   3.032   1.742   3.743 -0.8856  1.6913 -1.1008
 6599TIP3   OH219760   3.473   2.996   1.522  0.7124 -0.5796  0.0410
 6599TIP3    H119761   3.505   3.081   1.493 -2.1440  0.8955  0.9319
 6599TIP3    H219762   3.476   2.942   1.443  1.3901  0.6978 -0.8428
 6600TIP3   OH219763   2.700   3.966   1.083 -0.4264  0.8475 -0.8549
 6600TIP3    H119764   2.642   3.932   1.014 -0.2939  1.0130 -1.0488
 6600TIP3    H219765   2.647   4.030   1.130 -0.3675  1.0742 -1.0983
 6601TIP3   OH219766   0.534   3.906   5.437 -0.4938 -0.7234  0.3605
 6601TIP3    H119767   0.548   3.995   5.403  2.5307 -0.1947  2.5871
 6601TIP3    H219768   0.453   3.913   5.489 -1.2706  0.2155 -0.8978
 6602TIP3   OH219769   5.998   1.722   4.570 -0.4213  0.1315  0.5730
 6602TIP3    H119770   5.984   1.656   4.502  2.6045 -0.7927  0.6898
 6602TIP3    H219771   5.964   1.681   4.649 -1.5861  0.1385  0.1065
 6603TIP3   OH219772   5.737   4.411   5.334  0.1902 -0.1409 -0.0535
 6603TIP3    H119773   5.741   4.411   5.238  1.4340 -1.4326 -0.0202
 6603TIP3    H219774   5.651   4.450   5.354  0.5310  1.5896 -1.6335
 6604TIP3   OH219775   4.485   4.445   4.324  0.8681  0.2260 -0.7777
 6604TIP3    H119776   4.534   4.440   4.406  0.5100  0.6641 -0.5279
 6604TIP3    H219777   4.454   4.356   4.308  1.7482 -0.0667 -0.9527
 6605TIP3   OH219778   2.795   3.105   3.891  0.4204  0.0815  0.0566
 6605TIP3    H119779   2.878   3.100   3.938  0.9793 -2.0989 -1.0307
 6605TIP3    H219780   2.746   3.028   3.921  0.1745 -0.4989 -1.7335
 6606TIP3   OH219781   0.483   5.654   1.440  0.0094 -0.0901 -0.3144
 6606TIP3    H119782   0.550   5.590   1.462 -0.7974 -0.4826  1.1456
 6606TIP3    H219783   0.531   5.730   1.407  1.2400  0.0212  1.6360
 6607TIP3   OH219784   4.821   1.115   5.762 -0.3407 -0.4446  0.1351
 6607TIP3    H119785   4.794   1.207   5.769 -1.0211 -0.4330 -2.0175
 6607TIP3    H219786   4.767   1.069   5.827 -0.5245  0.5640  0.7163
 6608TIP3   OH219787   6.311   5.229   1.943  0.1230 -0.1217 -0.1306
 6608TIP3    H119788   6.293   5.141   1.977 -1.4155  1.0823  2.4400
 6608TIP3    H219789   6.255   5.237   1.866 -0.5661 -0.9753  0.2711
 6609TIP3   OH219790   4.696   3.330   3.675  0.0708  0.0610  0.1850
 6609TIP3    H119791   4.777   3.381   3.682  1.4117 -1.9234 -0.0908
 6609TIP3    H219792   4.712   3.271   3.601 -0.6374 -2.0489  1.6517
 6610TIP3   OH219793   2.169   2.908   1.817  0.6524  0.0029 -0.2500
 6610TIP3    H119794   2.146   2.956   1.897  2.1604 -1.1936  0.9824
 6610TIP3    H219795   2.127   2.957   1.747 -0.7603  1.0931  1.2704
 6611TIP3   OH219796   1.630   5.956   0.501  0.2384 -0.0247  0.1969
 6611TIP3    H119797   1.605   6.038   0.459  1.6499  0.1587 -0.3315
 6611TIP3    H219798   1.585   5.958   0.586 -1.0010  0.5458 -0.4405
 6612TIP3   OH219799   2.656   6.766   1.660 -0.3235  0.2758 -0.7487
 6612TIP3    H119800   2.664   6.843   1.604 -2.0590 -0.0821 -1.5494
 6612TIP3    H219801   2.715   6.702   1.622  1.7093  1.3980  0.3554
 6613TIP3   OH219802   5.702   4.120   3.818  0.4540  0.2948  0.4195
 6613TIP3    H119803   5.651   4.075   3.751  1.7894 -0.6448 -0.0094
 6613TIP3    H219804   5.656   4.203   3.832  0.3077  0.6874 -1.9235
 6614TIP3   OH219805   5.045   6.301   0.425  0.6308 -0.0492  0.2409
 6614TIP3    H119806   5.083   6.226   0.470 -1.0539 -0.0413  1.8316
 6614TIP3    H219807   5.062   6.285   0.333 -1.3997 -3.4980  0.2861
 6615TIP3   OH219808   0.719   6.772   1.915  0.5402 -0.0047  0.3595
 6615TIP3    H119809   0.766   6.837   1.967 -1.1075  1.3969  0.1696
 6615TIP3    H219810   0.702   6.700   1.976  1.8819 -0.0284  0.7325
 6616TIP3   OH219811   3.728   2.857   5.131  0.1417 -0.0040  0.5513
 6616TIP3    H119812   3.749   2.844   5.224 -0.3521  0.6407  0.7557
 6616TIP3    H219813   3.727   2.768   5.095  1.0524 -0.2083  0.9991
 6617TIP3   OH219814   4.046   4.573   0.465 -0.3463 -0.7492  0.8588
 6617TIP3    H119815   4.049   4.520   0.386 -2.0449 -1.8328  1.4638
 6617TIP3    H219816   4.016   4.659   0.436 -0.8944 -1.1198  0.3179
 6618TIP3   OH219817   2.475   3.734   4.375  0.4295  0.0426 -0.2784
 6618TIP3    H119818   2.399   3.781   4.340 -0.3423 -1.1123 -0.2255
 6618TIP3    H219819   2.534   3.803   4.405 -1.4600  0.9831  1.5247
 6619TIP3   OH219820   4.804   5.501   3.743  0.6289 -0.4522 -0.1951
 6619TIP3    H119821   4.809   5.494   3.648  4.0563 -0.7761 -0.1220
 6619TIP3    H219822   4.848   5.583   3.764  0.6184 -0.7566  1.1258
 6620TIP3   OH219823   2.195   2.535   4.083 -0.5400 -0.4364 -0.0481
 6620TIP3    H119824   2.260   2.493   4.026  1.0897 -0.2001  1.5560
 6620TIP3    H219825   2.218   2.628   4.082 -3.4421  0.4292 -2.6893
 6621TIP3   OH219826   0.790   0.182   1.653 -0.0902 -0.0078 -0.5675
 6621TIP3    H119827   0.850   0.123   1.700 -0.5763 -0.2508 -0.2420
 6621TIP3    H219828   0.829   0.191   1.566  0.0510 -0.7309 -0.5874
 6622TIP3   OH219829   0.282   3.664   0.554  0.4197  0.4051 -0.8231
 6622TIP3    H119830   0.187   3.666   0.538 -0.1415  2.3934  1.9476
 6622TIP3    H219831   0.308   3.575   0.534 -1.8783 -0.0209 -2.3702
 6623TIP3   OH219832   6.899   6.561   0.298  0.5034  1.1812 -0.6025
 6623TIP3    H119833   6.971   6.555   0.236  0.1297  0.3577 -0.9655
 6623TIP3    H219834   6.824   6.523   0.252  0.0495  1.2222  0.0875
 6624TIP3   OH219835   1.059   4.192   4.085  0.7131  0.2591  0.3465
 6624TIP3    H119836   1.036   4.275   4.126 -1.3858 -0.0764 -0.0101
 6624TIP3    H219837   1.048   4.127   4.155 -1.0022 -0.0814 -0.1899
 6625TIP3   OH219838   2.954   6.259   3.483  0.1830 -0.5527  0.0227
 6625TIP3    H119839   3.024   6.310   3.523  0.6075 -1.5079  0.5275
 6625TIP3    H219840   2.881   6.320   3.474  1.0889  0.4688 -0.5496
 6626TIP3   OH219841   0.761   6.374   4.663 -0.4126  0.4771 -0.3214
 6626TIP3    H119842   0.730   6.411   4.580 -1.4717 -0.0804 -0.1847
 6626TIP3    H219843   0.775   6.451   4.719 -2.3196  0.7506 -0.1356
 6627TIP3   OH219844   4.461   5.406   4.087  0.7998  0.1420  0.3967
 6627TIP3    H119845   4.373   5.433   4.112  0.7785  2.0153 -1.4219
 6627TIP3    H219846   4.516   5.483   4.105  1.5545 -0.0397 -0.9788
 6628TIP3   OH219847   3.538   4.485   0.298 -0.1508 -0.1802  0.6425
 6628TIP3    H119848   3.609   4.492   0.235 -1.5729  1.0116 -0.9273
 6628TIP3    H219849   3.579   4.452   0.377  2.1303  0.4874 -0.1907
 6629TIP3   OH219850   4.122   2.901   3.210  0.3216  0.6362 -0.4594
 6629TIP3    H119851   4.208   2.928   3.180  0.8135 -0.1543  0.2104
 6629TIP3    H219852   4.139   2.848   3.288 -0.7867  0.8123 -0.0766
 6630TIP3   OH219853   4.371   0.275   5.467  0.0117  0.2414 -0.0186
 6630TIP3    H119854   4.285   0.251   5.433 -0.0584  0.5239 -0.0343
 6630TIP3    H219855   4.355   0.303   5.557  0.3052 -1.3286  0.5624
 6631TIP3   OH219856   3.399   0.819   1.805  0.1406  0.3118  0.3721
 6631TIP3    H119857   3.306   0.804   1.822  0.0482 -1.2481 -1.2996
 6631TIP3    H219858   3.440   0.734   1.817  0.8475  0.2613 -1.9092
 6632TIP3   OH219859   2.783   0.250   3.759 -0.1132 -0.0002  0.1944
 6632TIP3    H119860   2.736   0.166   3.759  1.0799 -0.7507  2.7563
 6632TIP3    H219861   2.860   0.234   3.704 -0.1090 -0.4402  0.3271
 6633TIP3   OH219862   6.741   6.547   3.727  0.1701  0.4980  0.3675
 6633TIP3    H119863   6.834   6.544   3.703  0.2432 -0.2974  0.7159
 6633TIP3    H219864   6.734   6.487   3.801 -0.6452  0.4747  0.2748
 6634TIP3   OH219865   1.715   3.925   0.733  0.4627 -0.3149 -0.1458
 6634TIP3    H119866   1.627   3.959   0.718  1.3724  1.9120 -0.7760
 6634TIP3    H219867   1.751   3.978   0.804  1.5126 -0.7810 -0.2992
 6635TIP3   OH219868   6.537   6.698   4.375 -0.1175  0.0861  0.1652
 6635TIP3    H119869   6.465   6.647   4.414 -0.6527 -0.0493 -0.9492
 6635TIP3    H219870   6.576   6.638   4.310  0.2737  0.5492 -0.0296
 6636TIP3   OH219871   4.174   3.895   3.653  0.1005 -0.2924  0.1811
 6636TIP3    H119872   4.237   3.929   3.590  1.0884 -0.0192  1.2839
 6636TIP3    H219873   4.196   3.802   3.662  1.4771  0.1402  1.7931
 6637TIP3   OH219874   6.797   4.101   2.319 -0.1564  0.5310  0.0176
 6637TIP3    H119875   6.752   4.151   2.251 -2.1784  0.6911  1.4059
 6637TIP3    H219876   6.845   4.034   2.271 -1.3591  0.7618 -1.5913
 6638TIP3   OH219877   6.127   3.971   4.742  0.1393  0.4212 -0.2163
 6638TIP3    H119878   6.155   3.880   4.731 -0.9720  0.0649 -0.2091
 6638TIP3    H219879   6.181   4.020   4.680  0.2037 -0.3517 -0.7888
 6639TIP3   OH219880   0.679   3.175   3.736 -0.4902 -0.8455 -0.1623
 6639TIP3    H119881   0.626   3.232   3.790  0.5239  1.6358 -1.6154
 6639TIP3    H219882   0.754   3.229   3.710  1.2875 -3.2907 -0.4972
 6640TIP3   OH219883   0.493   6.532   4.089 -0.2208  0.1293  0.5741
 6640TIP3    H119884   0.403   6.561   4.077 -0.0732 -0.2222 -1.9067
 6640TIP3    H219885   0.489   6.437   4.078  0.4375  0.1055  0.4787
 6641TIP3   OH219886   3.374   5.619   4.817 -0.2943 -0.2933  0.3869
 6641TIP3    H119887   3.330   5.619   4.732  0.8869  0.5499 -0.2657
 6641TIP3    H219888   3.465   5.597   4.797 -0.2722 -1.4797  1.6300
 6642TIP3   OH219889   3.529   3.493   4.818 -0.0145  0.1212 -0.2023
 6642TIP3    H119890   3.539   3.475   4.724 -0.9404 -1.0843 -0.0882
 6642TIP3    H219891   3.471   3.569   4.821 -1.4562 -0.9245 -0.5979
 6643TIP3   OH219892   6.675   5.716   0.550 -0.0787  0.3380 -0.0505
 6643TIP3    H119893   6.656   5.706   0.643 -2.8035 -1.9814 -0.7442
 6643TIP3    H219894   6.621   5.790   0.522 -1.3227 -0.6320 -0.2682
 6644TIP3   OH219895   0.741   2.454   4.265 -0.0501  0.0555  0.5383
 6644TIP3    H119896   0.756   2.529   4.208  3.4160 -0.4297  0.5870
 6644TIP3    H219897   0.798   2.469   4.340 -0.5203 -1.8383  1.3361
 6645TIP3   OH219898   1.442   0.960   1.423 -0.0043 -0.0578  0.0309
 6645TIP3    H119899   1.380   1.021   1.461 -0.5582 -0.7946  0.3300
 6645TIP3    H219900   1.446   0.984   1.331 -3.3064 -2.0473 -0.7892
 6646TIP3   OH219901   5.926   6.677   5.717  0.4635 -0.1703 -0.2849
 6646TIP3    H119902   5.856   6.698   5.779  0.9634  0.2140  0.1609
 6646TIP3    H219903   5.913   6.740   5.645  0.8541  0.4702  0.1943
 6647TIP3   OH219904   1.375   3.837   2.705  0.9441  0.0095 -0.1297
 6647TIP3    H119905   1.356   3.839   2.612 -1.8594  0.5351  0.3406
 6647TIP3    H219906   1.408   3.925   2.725  0.8580  0.1295 -0.5169
 6648TIP3   OH219907   3.543   6.068   3.009  0.0350 -0.0654  0.8328
 6648TIP3    H119908   3.529   6.062   3.104 -0.9729  0.4708  0.7372
 6648TIP3    H219909   3.636   6.048   2.997  0.4367  0.9257  2.0512
 6649TIP3   OH219910   2.487   1.509   1.875 -0.2619  0.0408  0.5556
 6649TIP3    H119911   2.492   1.421   1.914  1.1801 -0.5213 -0.7896
 6649TIP3    H219912   2.535   1.501   1.792 -0.2613  2.0552  0.3211
 6650TIP3   OH219913   4.699   2.791   4.917  0.0570  0.4262  0.0184
 6650TIP3    H119914   4.794   2.778   4.913 -0.3514 -3.4696 -2.7011
 6650TIP3    H219915   4.684   2.874   4.871  2.0882  0.1896 -1.1932
 6651TIP3   OH219916   3.937   4.750   0.256 -0.0048 -0.0530  0.5788
 6651TIP3    H119917   4.013   4.716   0.210 -0.4317 -0.3021  0.0366
 6651TIP3    H219918   3.876   4.775   0.186 -0.7052 -0.5209  1.0059
 6652TIP3   OH219919   1.857   3.790   0.079 -0.2713 -0.2683  0.5455
 6652TIP3    H119920   1.830   3.702   0.102 -3.6076  0.6241  0.5022
 6652TIP3    H219921   1.838   3.798  -0.014 -0.5145  0.6513  0.6571
 6653TIP3   OH219922   0.543   2.343   0.616  0.2596  0.3887 -0.0742
 6653TIP3    H119923   0.572   2.396   0.690  1.0398 -0.6019  0.3534
 6653TIP3    H219924   0.467   2.390   0.581 -0.3768  0.6799  1.5912
 6654TIP3   OH219925   2.851   3.613   3.712 -0.8530  0.4344 -0.1073
 6654TIP3    H119926   2.819   3.678   3.774  0.4461 -0.2908  1.3777
 6654TIP3    H219927   2.907   3.555   3.764 -2.2440 -2.1187 -1.2751
 6655TIP3   OH219928   5.872   2.691   2.646 -0.0606  0.6063  0.3407
 6655TIP3    H119929   5.864   2.647   2.562  0.3211  0.1473  0.5440
 6655TIP3    H219930   5.884   2.783   2.624  0.0321  0.4879 -0.1044
 6656TIP3   OH219931   1.042   1.778   5.823  0.4998 -0.2656  0.0044
 6656TIP3    H119932   0.969   1.719   5.843  1.5826 -1.2544  1.2370
 6656TIP3    H219933   1.033   1.849   5.887  0.9290 -0.6972  0.5596
 6657TIP3   OH219934   2.447   2.841   4.522  0.4673 -0.0649  0.0646
 6657TIP3    H119935   2.383   2.907   4.494 -0.5748 -0.4153  1.4729
 6657TIP3    H219936   2.421   2.820   4.612  1.7783 -1.1987  0.2061
 6658TIP3   OH219937   6.566   1.800   1.692  0.5280  0.3755  0.2625
 6658TIP3    H119938   6.479   1.826   1.724  1.2990  2.9003  0.5175
 6658TIP3    H219939   6.623   1.812   1.768  1.1840 -1.0502  0.0273
 6659TIP3   OH219940   0.723   3.156   2.363 -0.5101 -0.3618 -0.1218
 6659TIP3    H119941   0.642   3.126   2.405 -0.4611 -0.0579  0.1915
 6659TIP3    H219942   0.773   3.075   2.348 -1.3069 -0.6622 -1.2549
 6660TIP3   OH219943   5.082   1.031   0.047  0.0387  0.0558  0.3516
 6660TIP3    H119944   5.018   1.005   0.114 -0.7613 -2.7608 -1.3210
 6660TIP3    H219945   5.055   1.118   0.021 -1.8090 -0.1955  1.2199
 6661TIP3   OH219946   2.428   1.992   3.725  0.6400 -0.0474  0.1472
 6661TIP3    H119947   2.344   1.946   3.732 -0.4594  1.9897  1.4507
 6661TIP3    H219948   2.494   1.925   3.742 -0.6633 -1.7662 -1.1984
 6662TIP3   OH219949   0.879   5.695   4.398 -0.2440  0.1093 -0.0332
 6662TIP3    H119950   0.903   5.656   4.314  1.4888  1.2389 -0.1175
 6662TIP3    H219951   0.855   5.786   4.376 -0.6268  0.1693  0.5933
 6663TIP3   OH219952   1.480   6.420   1.226  0.2096  0.1977  0.1234
 6663TIP3    H119953   1.401   6.469   1.247  0.1888  0.0031  0.5097
 6663TIP3    H219954   1.452   6.329   1.223  0.7978 -0.1163  2.3461
 6664TIP3   OH219955   7.085   5.821   0.552 -0.4895 -0.3000  0.2281
 6664TIP3    H119956   7.057   5.782   0.469 -0.9705 -0.6577  0.5576
 6664TIP3    H219957   7.133   5.900   0.526  0.1433 -0.8923 -0.4211
 6665TIP3   OH219958   3.698   2.149   2.010 -0.0946  0.2958  0.5530
 6665TIP3    H119959   3.713   2.184   2.098  0.4417  2.9063 -0.4899
 6665TIP3    H219960   3.693   2.226   1.954  0.9606 -1.3245 -1.9419
 6666TIP3   OH219961   6.930   3.183   0.079  0.2202  0.3259  0.0101
 6666TIP3    H119962   6.957   3.195  -0.012 -0.5534  0.1948 -0.2464
 6666TIP3    H219963   6.839   3.154   0.073 -0.4474  2.0773  0.8547
 6667TIP3   OH219964   6.676   6.501   1.661 -0.5935 -0.2983 -0.0741
 6667TIP3    H119965   6.638   6.424   1.703  2.0915 -1.4454  0.4640
 6667TIP3    H219966   6.629   6.575   1.700 -2.4874 -1.5930  0.2121
 6668TIP3   OH219967   2.693   6.077   0.969 -0.5336 -0.0039  0.1397
 6668TIP3    H119968   2.636   6.153   0.956  1.1485  1.2189 -0.3539
 6668TIP3    H219969   2.782   6.113   0.971  0.1670 -1.5793  3.1324
 6669TIP3   OH219970   2.829   0.582   5.783 -0.1750 -0.5594  0.2345
 6669TIP3    H119971   2.816   0.495   5.822  1.5040  0.0009  2.2988
 6669TIP3    H219972   2.848   0.565   5.691 -2.8299 -2.1094 -0.1063
 6670TIP3   OH219973   0.496   4.950   1.062  0.4144 -0.3307 -0.0524
 6670TIP3    H119974   0.432   4.913   1.001 -1.2953 -0.9109  1.9846
 6670TIP3    H219975   0.463   5.038   1.080  0.9358 -0.1439 -0.0083
 6671TIP3   OH219976   7.014   1.354   0.451  0.3750  0.8455  0.0439
 6671TIP3    H119977   7.094   1.405   0.444  1.2031 -0.3725  0.1956
 6671TIP3    H219978   7.004   1.314   0.364  1.4619 -1.1282  0.7519
 6672TIP3   OH219979   6.908   4.921   5.292 -0.6479  0.2928 -0.0985
 6672TIP3    H119980   6.962   5.000   5.296 -0.1214 -0.0003 -1.1963
 6672TIP3    H219981   6.940   4.866   5.363 -0.1319  0.5119 -0.1579
 6673TIP3   OH219982   5.775   4.772   5.565  0.2540 -1.1569 -0.1714
 6673TIP3    H119983   5.864   4.797   5.591  0.8679 -2.2026 -1.1790
 6673TIP3    H219984   5.782   4.752   5.472 -0.6218 -3.0368  0.1196
 6674TIP3   OH219985   3.653   4.536   1.633  0.3227  0.4466 -0.0623
 6674TIP3    H119986   3.732   4.485   1.653 -0.4729 -0.1319  1.8018
 6674TIP3    H219987   3.584   4.494   1.683 -1.5038  0.1044 -2.7186
 6675TIP3   OH219988   6.972   1.097   2.884 -0.3482 -0.3496  0.2298
 6675TIP3    H119989   6.942   1.010   2.910  1.4388 -0.5971  1.6999
 6675TIP3    H219990   7.053   1.110   2.934  0.2172  1.5563 -1.0753
 6676TIP3   OH219991   6.915   6.005   1.628  0.8445 -0.4389 -0.1288
 6676TIP3    H119992   6.973   5.951   1.681 -1.3838 -1.5586  1.3083
 6676TIP3    H219993   6.827   5.985   1.660 -0.2092  3.1788 -0.3407
 6677TIP3   OH219994   2.485   0.932   3.627  0.2866  0.0383 -0.2242
 6677TIP3    H119995   2.513   0.889   3.547 -1.8380 -2.2637  0.1442
 6677TIP3    H219996   2.389   0.937   3.620 -0.0058 -0.5546  2.2444
 6678TIP3   OH219997   6.105   4.745   4.677  0.6284 -0.2706 -0.0780
 6678TIP3    H119998   6.043   4.689   4.630  0.0781 -1.3401  1.7995
 6678TIP3    H219999   6.190   4.722   4.641  0.0465  0.9549 -2.4528
 6679TIP3   OH220000   2.616   3.568   0.130 -0.6412 -0.3091  0.5020
 6679TIP3    H120001   2.691   3.545   0.185  0.5768 -0.0907 -1.0271
 6679TIP3    H220002   2.554   3.497   0.145 -0.8744  0.3022  3.0134
 6680TIP3   OH220003   5.772   1.160   2.752  0.3117  0.9298  0.3018
 6680TIP3    H120004   5.735   1.073   2.744 -1.1658  1.3148  2.1864
 6680TIP3    H220005   5.709   1.218   2.709  0.2995  1.2678  0.7646
 6681TIP3   OH220006   2.457   6.541   5.212 -0.1010  0.2040  0.1293
 6681TIP3    H120007   2.533   6.482   5.216  0.5270  1.0155  0.4632
 6681TIP3    H220008   2.415   6.520   5.129  1.5125  0.9738 -0.9366
 6682TIP3   OH220009   4.826   1.804   4.122  0.0252 -0.3666  0.7079
 6682TIP3    H120010   4.906   1.754   4.105 -1.0840 -1.9309 -0.2641
 6682TIP3    H220011   4.756   1.738   4.119 -1.3353  1.0003  1.1718
 6683TIP3   OH220012   4.595   0.986   0.818  0.3395 -0.8286 -0.2212
 6683TIP3    H120013   4.551   0.921   0.763  0.4648 -1.2747  0.2020
 6683TIP3    H220014   4.567   0.966   0.907  0.3163 -0.2468 -0.0923
 6684TIP3   OH220015   4.023   6.140   1.254 -0.0707 -0.6180 -0.1326
 6684TIP3    H120016   4.111   6.165   1.226  0.1126  0.7345  1.4892
 6684TIP3    H220017   4.036   6.061   1.308  0.0221 -1.0039 -0.7182
 6685TIP3   OH220018   5.155   6.161   1.944 -0.6536 -0.2545 -0.1899
 6685TIP3    H120019   5.104   6.242   1.941 -0.5177 -0.1142  0.8458
 6685TIP3    H220020   5.199   6.164   2.029  1.3956 -0.1870 -1.1801
 6686TIP3   OH220021   1.860   2.714   3.082 -0.0037 -0.0667 -0.1829
 6686TIP3    H120022   1.942   2.665   3.087 -0.9600 -1.6500  2.7450
 6686TIP3    H220023   1.885   2.805   3.096  1.2165 -0.7080  2.6124
 6687TIP3   OH220024   0.214   2.910   3.650 -0.2004  0.3004  0.3442
 6687TIP3    H120025   0.201   2.825   3.608  0.1867  0.4549 -0.0989
 6687TIP3    H220026   0.282   2.894   3.715 -0.2601  0.2295  0.3896
 6688TIP3   OH220027   5.936   1.301   2.013  0.3705  0.3940 -0.0587
 6688TIP3    H120028   6.028   1.279   2.002  0.0630 -0.6532 -0.7060
 6688TIP3    H220029   5.925   1.312   2.108  1.3119  1.3040 -0.0407
 6689TIP3   OH220030   4.492   5.359   5.228  0.0084 -0.2248 -0.9666
 6689TIP3    H120031   4.449   5.415   5.292 -1.0319  0.1172 -1.9272
 6689TIP3    H220032   4.584   5.356   5.256  0.2864  2.6218 -1.3324
 6690TIP3   OH220033   0.360   6.216   4.889  0.6293 -0.3060 -0.0998
 6690TIP3    H120034   0.372   6.249   4.978 -1.2954  1.5056 -0.4467
 6690TIP3    H220035   0.443   6.173   4.868  2.6662  2.6720  1.1316
 6691TIP3   OH220036   0.640   3.204   5.155 -0.5006  0.7095  0.1462
 6691TIP3    H120037   0.592   3.286   5.160 -0.6066  0.7853 -1.6102
 6691TIP3    H220038   0.586   3.147   5.100  0.4606  0.1133 -0.2097
 6692TIP3   OH220039   0.552   3.046   3.166  0.0734  0.4778  0.3824
 6692TIP3    H120040   0.620   2.978   3.172 -1.3638 -1.0458 -0.0778
 6692TIP3    H220041   0.495   3.017   3.096 -0.7481  2.0548  0.3576
 6693TIP3   OH220042   1.117   2.550   5.472  0.3917  0.6256  0.8996
 6693TIP3    H120043   1.211   2.567   5.479  0.4270  0.2956  1.2670
 6693TIP3    H220044   1.109   2.455   5.483  0.1927  0.3722 -1.0047
 6694TIP3   OH220045   5.611   1.276   5.317  0.4017  0.8281  0.2633
 6694TIP3    H120046   5.525   1.307   5.287  0.4077  1.2534  0.6834
 6694TIP3    H220047   5.655   1.354   5.350 -0.1617  0.1685  2.7362
 6695TIP3   OH220048   1.136   1.752   0.463 -0.3160  0.1569 -0.2566
 6695TIP3    H120049   1.067   1.813   0.489 -0.9693 -0.7938  0.3058
 6695TIP3    H220050   1.189   1.741   0.542 -1.2148 -1.3060  0.1772
 6696TIP3   OH220051   6.301   3.223   3.792  0.1757  0.0739 -0.4627
 6696TIP3    H120052   6.333   3.220   3.883  0.0050  1.5629 -0.3203
 6696TIP3    H220053   6.242   3.298   3.791 -0.7493 -0.6484 -1.5402
 6697TIP3   OH220054   2.104   0.162   0.786  0.1381 -0.5705  0.0204
 6697TIP3    H120055   2.184   0.210   0.807 -1.0626  0.3739  2.8955
 6697TIP3    H220056   2.127   0.070   0.800  0.8445 -0.3532  0.3576
 6698TIP3   OH220057   3.621   6.672   1.883 -0.1315 -0.5165 -0.1080
 6698TIP3    H120058   3.551   6.732   1.905  0.6883  0.1211  0.8813
 6698TIP3    H220059   3.690   6.690   1.948  0.5678 -1.7680 -0.4506
 6699TIP3   OH220060   5.479   1.961   5.547  0.6554 -0.0919 -1.0184
 6699TIP3    H120061   5.523   1.973   5.631  0.8696 -0.0378 -1.1368
 6699TIP3    H220062   5.463   1.867   5.540 -0.0246 -0.0129 -0.5867
 6700TIP3   OH220063   7.165   1.410   4.673  0.1822 -0.4392 -0.7894
 6700TIP3    H120064   7.230   1.342   4.659  0.9839 -0.0980  0.9499
 6700TIP3    H220065   7.206   1.469   4.737 -1.9097 -0.3239  0.5315
 6701TIP3   OH220066   6.309   2.649   2.735 -0.2641 -0.2481  0.0567
 6701TIP3    H120067   6.249   2.640   2.809 -2.0920  2.0823 -1.0108
 6701TIP3    H220068   6.293   2.573   2.681 -0.7139 -0.7123  0.8259
 6702TIP3   OH220069   1.856   0.337   5.815  0.1401  0.2687 -0.0690
 6702TIP3    H120070   1.783   0.398   5.823 -1.0728 -1.2149  0.7956
 6702TIP3    H220071   1.884   0.321   5.905  1.4777  0.7051 -0.3796
 6703TIP3   OH220072   5.999   6.312   1.068 -0.4846  0.2377 -0.4350
 6703TIP3    H120073   6.022   6.402   1.093 -0.1728 -0.3639  1.6785
 6703TIP3    H220074   6.046   6.298   0.986  0.5500  1.5723 -0.1203
 6704TIP3   OH220075   7.091   3.417   4.979  0.5973  0.1381  0.1727
 6704TIP3    H120076   7.083   3.435   5.073 -0.8176 -0.5476  0.2042
 6704TIP3    H220077   7.117   3.501   4.941  0.8323  0.5106  1.1299
 6705TIP3   OH220078   1.848   4.681   3.015 -0.1171 -0.3203  0.1828
 6705TIP3    H120079   1.812   4.602   3.055 -0.9923  0.9744  2.0579
 6705TIP3    H220080   1.864   4.656   2.923  0.9362 -3.0545  1.0097
 6706TIP3   OH220081   2.397   1.750   3.260 -0.0332 -1.1073 -0.7402
 6706TIP3    H120082   2.478   1.802   3.259 -1.5128  1.4079  0.6603
 6706TIP3    H220083   2.371   1.745   3.169  0.4629  0.1339 -0.9685
 6707TIP3   OH220084   3.847   0.500   3.803 -0.4387  0.3959  0.6686
 6707TIP3    H120085   3.791   0.492   3.725 -0.0710  0.1781  0.4217
 6707TIP3    H220086   3.931   0.531   3.769 -0.7987  2.0244  1.2006
 6708TIP3   OH220087   0.796   4.570   2.981  0.4860 -0.1044  0.0448
 6708TIP3    H120088   0.763   4.612   3.060  2.5154  0.4479  0.6676
 6708TIP3    H220089   0.720   4.565   2.923 -1.0064 -0.2948  1.9054
 6709TIP3   OH220090   7.143   4.582   1.036 -0.3249 -0.4206 -0.9023
 6709TIP3    H120091   7.120   4.632   0.957  1.7425  0.7044 -0.8682
 6709TIP3    H220092   7.170   4.649   1.099  0.9086 -1.4642 -0.2779
 6710TIP3   OH220093   3.877   5.151   0.521  0.2516  0.1565  0.1857
 6710TIP3    H120094   3.844   5.221   0.576 -0.7831 -0.2683  0.1318
 6710TIP3    H220095   3.853   5.178   0.432  0.0732 -0.1348  0.1432
 6711TIP3   OH220096   4.360   5.544   5.378 -0.3886  0.4645  0.2111
 6711TIP3    H120097   4.432   5.518   5.436  0.2147 -0.0031 -0.7278
 6711TIP3    H220098   4.357   5.639   5.386  2.0404  0.8045 -1.6245
 6712TIP3   OH220099   6.110   0.091   5.600 -0.3373 -0.2681 -0.3096
 6712TIP3    H120100   6.165   0.060   5.528 -0.1482 -0.6516  0.0019
 6712TIP3    H220101   6.022   0.095   5.562  0.0122  1.1789 -1.0678
 6713TIP3   OH220102   0.249   5.723   2.536 -0.2918  0.7186 -0.4029
 6713TIP3    H120103   0.204   5.641   2.514 -0.2378  1.2707 -2.9242
 6713TIP3    H220104   0.195   5.763   2.604 -1.4218 -0.4812 -0.5526
 6714TIP3   OH220105   2.143   1.837   5.786 -0.1297 -0.1955 -0.0842
 6714TIP3    H120106   2.108   1.835   5.697  1.7169  1.0831 -0.8961
 6714TIP3    H220107   2.203   1.912   5.787 -0.1815 -0.0932  2.2831
 6715TIP3   OH220108   1.107   5.958   4.095 -0.2238  0.3523  0.0452
 6715TIP3    H120109   1.185   5.907   4.070 -1.2444 -1.0114 -0.4971
 6715TIP3    H220110   1.034   5.907   4.061 -1.4060  1.1706  1.2869
 6716TIP3   OH220111   0.245   0.464   5.535  0.4696  0.5884  0.3293
 6716TIP3    H120112   0.265   0.483   5.443  1.3475 -0.4962  0.2772
 6716TIP3    H220113   0.303   0.522   5.585 -2.0286  3.3623  0.3110
 6717TIP3   OH220114   3.726   2.227   0.643 -0.1607 -0.0295 -0.1711
 6717TIP3    H120115   3.796   2.275   0.599 -1.9313  0.1581 -3.0826
 6717TIP3    H220116   3.696   2.286   0.712  1.8379  0.2855  0.4762
 6718TIP3   OH220117   6.002   0.249   5.005  0.0740 -0.5032 -0.5930
 6718TIP3    H120118   6.091   0.252   5.040 -0.1977 -1.9877  0.3611
 6718TIP3    H220119   6.010   0.198   4.924  0.3722  1.0607 -1.5713
 6719TIP3   OH220120   3.613   4.959   1.506 -0.5767 -0.7106 -0.6580
 6719TIP3    H120121   3.679   4.902   1.545 -0.0470  0.0428 -0.4194
 6719TIP3    H220122   3.608   4.931   1.414  0.7572 -0.1963 -0.9148
 6720TIP3   OH220123   5.654   4.788   0.611 -0.3823  0.4652  0.0896
 6720TIP3    H120124   5.698   4.846   0.674 -0.9887  1.9215 -0.7797
 6720TIP3    H220125   5.631   4.845   0.538  1.6838 -1.4427 -2.2251
 6721TIP3   OH220126   3.959   1.673   3.353 -0.9029 -0.5984  0.1812
 6721TIP3    H120127   3.884   1.639   3.402 -0.2879  0.5216  2.0067
 6721TIP3    H220128   4.022   1.698   3.420  1.0324 -1.2620 -1.2954
 6722TIP3   OH220129   0.232   5.100   4.772  0.2934  0.3378 -0.1064
 6722TIP3    H120130   0.316   5.124   4.811  0.8365 -0.4047 -0.7812
 6722TIP3    H220131   0.253   5.026   4.715 -1.1780 -1.2780  1.3433
 6723TIP3   OH220132   0.351   6.783   3.859 -0.1659 -0.3594  0.7630
 6723TIP3    H120133   0.434   6.739   3.841  0.4853  1.1939 -0.1581
 6723TIP3    H220134   0.299   6.717   3.905  2.0956 -0.9138  2.7620
 6724TIP3   OH220135   3.292   0.799   0.145  0.1583  0.5495 -0.4427
 6724TIP3    H120136   3.328   0.743   0.214 -0.0551 -1.0464 -1.5530
 6724TIP3    H220137   3.355   0.871   0.138  0.9265 -0.0055  0.4584
 6725TIP3   OH220138   4.753   5.285   0.436 -0.1064 -0.7336  0.9527
 6725TIP3    H120139   4.831   5.313   0.484  1.8284 -1.4153 -1.6139
 6725TIP3    H220140   4.762   5.190   0.428  0.5511 -0.5157 -2.0548
 6726TIP3   OH220141   2.281   5.687   3.427  0.4468 -0.3131  0.1491
 6726TIP3    H120142   2.192   5.650   3.421  1.3009 -2.3173 -1.1765
 6726TIP3    H220143   2.268   5.773   3.467 -2.1944 -0.1816 -0.7673
 6727TIP3   OH220144   1.182   1.210   2.464 -0.5244  0.5397  0.3878
 6727TIP3    H120145   1.174   1.273   2.392 -1.1883  0.1956  0.1499
 6727TIP3    H220146   1.153   1.127   2.427  0.3968  0.0711  0.6841
 6728TIP3   OH220147   0.057   0.617   3.112  0.3855 -0.6469 -0.1766
 6728TIP3    H120148  -0.039   0.620   3.115  0.1672 -2.9060 -2.1697
 6728TIP3    H220149   0.081   0.685   3.049  0.4219  1.8382  2.2872
 6729TIP3   OH220150   3.847   5.074   2.081  0.3898  0.2258  0.6294
 6729TIP3    H120151   3.941   5.075   2.102  0.0543 -0.5619  2.3533
 6729TIP3    H220152   3.832   5.157   2.037  1.6594  1.0019  1.5695
 6730TIP3   OH220153   3.432   4.033   4.035  0.0394  0.6258  0.1181
 6730TIP3    H120154   3.483   4.011   4.113 -0.6578 -0.8403  0.1826
 6730TIP3    H220155   3.408   3.949   3.997 -1.6165  1.2803 -0.3796
 6731TIP3   OH220156   2.921   6.510   4.605 -0.1102  0.3634  0.5287
 6731TIP3    H120157   2.970   6.450   4.662  0.7209  0.7394  0.2312
 6731TIP3    H220158   2.934   6.474   4.517  1.5162  1.6889  0.1834
 6732TIP3   OH220159   6.801   1.265   2.224 -0.5053  0.1353  0.2925
 6732TIP3    H120160   6.757   1.201   2.168  1.9552 -0.3720 -1.2124
 6732TIP3    H220161   6.773   1.350   2.190 -0.4624 -0.1627 -0.5086
 6733TIP3   OH220162   7.001   0.957   2.237  0.2900  0.4177  0.2778
 6733TIP3    H120163   6.938   0.905   2.187 -1.4857  2.5313  0.1641
 6733TIP3    H220164   7.066   0.893   2.268 -1.5671 -1.7758 -0.0890
 6734TIP3   OH220165   6.149   4.456   0.496 -0.2136 -0.8233  0.1560
 6734TIP3    H120166   6.241   4.479   0.489  0.0756 -2.3539 -2.4368
 6734TIP3    H220167   6.103   4.540   0.506  1.3158  0.1389 -0.5645
 6735TIP3   OH220168   6.854   4.734   2.199 -0.0380 -0.7768 -0.5769
 6735TIP3    H120169   6.768   4.697   2.218  0.2009 -0.3347  1.5611
 6735TIP3    H220170   6.838   4.828   2.191  0.5033 -0.3615  2.1757
 6736TIP3   OH220171   3.591   0.168   4.649  0.4785  0.2678 -0.3469
 6736TIP3    H120172   3.566   0.247   4.602 -3.0492  0.0617  0.8843
 6736TIP3    H220173   3.628   0.110   4.582  0.6862  1.9744 -1.7602
 6737TIP3   OH220174   6.119   0.420   2.059  0.3020  1.2264  0.2976
 6737TIP3    H120175   6.043   0.379   2.101  0.2814 -0.6567 -1.4124
 6737TIP3    H220176   6.082   0.475   1.990  0.4405  0.2922 -0.5500
 6738TIP3   OH220177   5.716   3.670   1.847 -0.2821  0.0112 -0.0105
 6738TIP3    H120178   5.776   3.672   1.922 -0.1030 -0.3160 -0.1394
 6738TIP3    H220179   5.635   3.709   1.880  0.0394  0.5636  0.1296
 6739TIP3   OH220180   2.320   0.764   4.591 -0.6424 -0.2495  0.0210
 6739TIP3    H120181   2.310   0.675   4.624  0.3977  0.3132  2.0550
 6739TIP3    H220182   2.304   0.757   4.497 -1.9980 -2.3060  0.3386
 6740TIP3   OH220183   2.735   2.740   5.651 -0.1886  0.4315 -0.5516
 6740TIP3    H120184   2.639   2.739   5.652 -0.2760 -2.5532 -1.4795
 6740TIP3    H220185   2.759   2.724   5.560  1.0467 -1.9571  0.1019
 6741TIP3   OH220186   3.895   5.553   5.194 -0.8758  0.2067  0.1152
 6741TIP3    H120187   3.866   5.482   5.137  0.5795 -0.3609  0.0470
 6741TIP3    H220188   3.929   5.509   5.272 -0.0386  0.8163  0.1107
 6742TIP3   OH220189   1.722   3.106   5.478  0.2596 -0.4688 -0.6848
 6742TIP3    H120190   1.747   3.109   5.570  0.3030  0.7816 -0.7167
 6742TIP3    H220191   1.751   3.190   5.442 -0.7423 -0.4732 -1.5769
 6743TIP3   OH220192   5.555   2.943   4.168 -0.4231 -0.4394  0.8120
 6743TIP3    H120193   5.604   2.998   4.107 -1.5827  0.4489  0.6656
 6743TIP3    H220194   5.567   2.854   4.135 -1.0268  0.0286 -0.7254
 6744TIP3   OH220195   2.461   4.495   1.332 -0.2031 -0.3546  0.0970
 6744TIP3    H120196   2.481   4.464   1.244 -1.0859  0.6802 -0.4847
 6744TIP3    H220197   2.545   4.529   1.365  0.1605 -0.8795 -0.2833
 6745TIP3   OH220198   0.365   3.260   1.308 -0.0364  0.1497  0.0714
 6745TIP3    H120199   0.389   3.184   1.362  0.6373  0.0447 -0.3620
 6745TIP3    H220200   0.387   3.335   1.362 -2.6523  0.0867  1.3658
 6746TIP3   OH220201   6.154   2.657   0.082  0.0215 -0.5487 -0.1341
 6746TIP3    H120202   6.157   2.562   0.084 -0.5475 -0.5632  0.2972
 6746TIP3    H220203   6.203   2.684   0.160 -0.8014 -0.5170  0.3749
 6747TIP3   OH220204   5.399   4.199   4.812 -0.3148  0.0132  0.6327
 6747TIP3    H120205   5.462   4.204   4.740  1.0243  0.7753  1.8239
 6747TIP3    H220206   5.357   4.285   4.814  0.4567  0.3882  1.4437
 6748TIP3   OH220207   6.143   3.931   3.746  0.2437  0.4940  0.0728
 6748TIP3    H120208   6.199   4.000   3.782  3.9594 -2.6139  0.9663
 6748TIP3    H220209   6.112   3.883   3.824  0.3482 -0.6437 -0.5653
 6749TIP3   OH220210   0.433   2.039   2.072 -0.0529 -0.4996  0.0627
 6749TIP3    H120211   0.373   2.052   2.146 -0.6875 -0.7783 -0.4008
 6749TIP3    H220212   0.394   2.087   2.000  0.9283  0.3476  0.0798
 6750TIP3   OH220213   0.796   0.858   2.388  0.1279  0.0733  0.5093
 6750TIP3    H120214   0.786   0.782   2.332  0.2796 -0.3264  1.0136
 6750TIP3    H220215   0.712   0.903   2.385 -0.0844 -0.3300  0.5201
 6751TIP3   OH220216   3.155  -0.027   2.558  0.6800 -0.2466  0.0815
 6751TIP3    H120217   3.233   0.017   2.524 -0.0943  0.3510 -0.9817
 6751TIP3    H220218   3.137   0.017   2.641  0.0351  1.3494 -0.8629
 6752TIP3   OH220219   3.849   3.083   1.680  0.0755 -0.2909 -0.1382
 6752TIP3    H120220   3.942   3.095   1.695 -0.2313  0.4760  1.4549
 6752TIP3    H220221   3.810   3.166   1.710 -1.2316 -1.1780  0.7135
 6753TIP3   OH220222   2.184   3.925   2.356  0.3394  0.1212 -0.1550
 6753TIP3    H120223   2.199   3.835   2.329  0.2851 -0.0156  0.2669
 6753TIP3    H220224   2.161   3.971   2.275  2.4907  0.2433 -0.7576
 6754TIP3   OH220225   0.861   4.463   1.405 -0.2112  0.0685 -0.4219
 6754TIP3    H120226   0.780   4.417   1.384  0.3925 -1.2274 -0.0376
 6754TIP3    H220227   0.884   4.432   1.493  0.6091  0.5273 -0.4613
 6755TIP3   OH220228   4.212   3.051   1.524  0.3000  0.2583  0.2601
 6755TIP3    H120229   4.287   3.110   1.513 -0.8873  1.8482  0.4109
 6755TIP3    H220230   4.149   3.101   1.575 -1.3889 -0.5749 -0.9067
 6756TIP3   OH220231   0.766   3.537   2.029 -0.3601  0.4258 -0.0205
 6756TIP3    H120232   0.835   3.597   2.000  0.1073  0.4408  1.0693
 6756TIP3    H220233   0.790   3.515   2.119 -1.0982 -0.5722 -0.0530
 6757TIP3   OH220234   1.591   0.651   4.678  0.0517 -0.2897 -0.1378
 6757TIP3    H120235   1.677   0.693   4.666 -0.3671  0.7656  0.4634
 6757TIP3    H220236   1.594   0.615   4.766 -0.1336 -0.2213 -0.1032
 6758TIP3   OH220237   0.737   2.336   2.835  0.4967  0.2397  0.5120
 6758TIP3    H120238   0.669   2.323   2.901  0.2673  2.3721  0.7715
 6758TIP3    H220239   0.774   2.422   2.855  2.0821 -0.1043 -0.6963
 6759TIP3   OH220240   2.930   2.028   4.548  0.1994  0.2073  0.3541
 6759TIP3    H120241   2.994   1.980   4.495  0.5287  1.6270 -0.5704
 6759TIP3    H220242   2.914   1.971   4.623 -0.6173 -2.0873 -1.4424
 6760TIP3   OH220243   2.441   2.209   0.844  0.2351  1.0235 -0.0093
 6760TIP3    H120244   2.477   2.246   0.925  0.2385  1.4131 -0.1898
 6760TIP3    H220245   2.390   2.280   0.805  0.5275  0.9459 -0.5334
 6761TIP3   OH220246   5.527   3.357   5.428  0.3519 -0.0621 -0.1833
 6761TIP3    H120247   5.543   3.299   5.353  1.2419  1.6683 -1.3961
 6761TIP3    H220248   5.542   3.301   5.504  3.2950 -0.9801 -1.2722
 6762TIP3   OH220249   3.548   2.738   3.901  0.0881 -0.0692 -0.4005
 6762TIP3    H120250   3.544   2.813   3.960 -1.3860 -0.1740 -0.3381
 6762TIP3    H220251   3.543   2.662   3.959 -1.8782 -0.1704 -0.6545
 6763TIP3   OH220252   6.693   6.711   1.476 -0.3688  0.6390 -0.2196
 6763TIP3    H120253   6.689   6.626   1.520 -0.4404  0.7405 -0.0280
 6763TIP3    H220254   6.601   6.737   1.465 -0.3393  0.9367  0.2024
 6764TIP3   OH220255   3.224   4.995   4.863 -0.1645 -0.5760 -0.3855
 6764TIP3    H120256   3.215   5.064   4.929 -0.4186 -0.6678 -0.3230
 6764TIP3    H220257   3.255   5.040   4.785 -1.6017 -0.1569 -0.7514
 6765TIP3   OH220258   0.134   5.314   1.218  0.1825 -0.5081  0.2923
 6765TIP3    H120259   0.071   5.335   1.150  0.0949 -1.2735  0.1303
 6765TIP3    H220260   0.099   5.355   1.297  0.3148  0.4288 -0.1300
 6766TIP3   OH220261   0.911   1.498   0.801 -0.5859  0.0296  0.1718
 6766TIP3    H120262   0.821   1.475   0.825 -0.4507  0.6308  1.2677
 6766TIP3    H220263   0.918   1.592   0.818  0.6163 -0.2384  1.2836
 6767TIP3   OH220264   6.949   5.323   4.889 -0.1710  0.0862  0.0909
 6767TIP3    H120265   6.928   5.275   4.809  1.2388  2.1135 -1.6235
 6767TIP3    H220266   6.900   5.404   4.883 -0.3032  0.1425  1.4908
 6768TIP3   OH220267   3.211   6.092   0.142  0.1007 -0.5535 -0.2099
 6768TIP3    H120268   3.223   5.997   0.135 -1.9290 -0.7830 -1.1676
 6768TIP3    H220269   3.122   6.103   0.174  0.9971  1.0535  2.0244
 6769TIP3   OH220270   5.182   1.309   2.468  0.1404 -0.0311  0.4068
 6769TIP3    H120271   5.123   1.303   2.393 -1.0064  1.0499  1.2013
 6769TIP3    H220272   5.270   1.308   2.429 -0.3869 -0.9734 -0.8265
 6770TIP3   OH220273   1.866   1.842   2.481  0.8432  0.2719 -0.1280
 6770TIP3    H120274   1.796   1.890   2.436  0.3169  1.1390  1.5518
 6770TIP3    H220275   1.943   1.897   2.472  0.6494  0.6251  0.3158
 6771TIP3   OH220276   1.067   3.962   4.356 -0.0742  0.0322  0.7580
 6771TIP3    H120277   1.135   3.928   4.299  1.1416  0.6967  1.7554
 6771TIP3    H220278   1.094   3.937   4.444 -0.9692  0.5579  1.2011
 6772TIP3   OH220279   3.630   0.654   4.081  0.2566 -0.1413 -0.2212
 6772TIP3    H120280   3.715   0.639   4.122 -1.5325 -1.0496  3.6620
 6772TIP3    H220281   3.620   0.583   4.018  2.7586  0.6868 -1.6712
 6773TIP3   OH220282   4.535   3.771   3.780  0.1708 -0.0115  0.8753
 6773TIP3    H120283   4.615   3.743   3.825  0.6496 -2.3898 -1.2062
 6773TIP3    H220284   4.534   3.719   3.699 -1.9262  2.1608 -0.6432
 6774TIP3   OH220285   2.208   1.211   1.011  0.3033  0.0309  0.1200
 6774TIP3    H120286   2.224   1.120   0.987  0.8985  0.1563  0.0337
 6774TIP3    H220287   2.186   1.207   1.104  1.3730 -0.0957  0.3812
 6775TIP3   OH220288   7.177   0.265   3.154  0.0552  0.1453  0.1950
 6775TIP3    H120289   7.106   0.263   3.218 -0.6314  0.3353 -0.5441
 6775TIP3    H220290   7.175   0.178   3.113  1.4990 -0.5430  1.4753
 6776TIP3   OH220291   5.945   4.729   4.108  0.2574  0.1041 -0.2936
 6776TIP3    H120292   5.911   4.724   4.197  1.5795 -0.0065  0.2322
 6776TIP3    H220293   5.910   4.651   4.064 -0.7740  0.4008 -0.0208
 6777TIP3   OH220294   2.705   1.493   1.105 -0.3994 -0.1437  0.5441
 6777TIP3    H120295   2.779   1.532   1.059 -0.2390 -0.6192  0.3891
 6777TIP3    H220296   2.629   1.542   1.073 -0.2603 -0.2957 -0.0418
 6778TIP3   OH220297   4.906   0.663   4.966 -0.0850  0.5543 -0.6401
 6778TIP3    H120298   4.929   0.584   4.917  0.1378  0.4180 -0.3202
 6778TIP3    H220299   4.835   0.635   5.025 -0.7503  0.8564 -1.2855
 6779TIP3   OH220300   6.005   0.796   2.611  1.1048  0.5430  0.1883
 6779TIP3    H120301   6.080   0.778   2.668  0.4120 -1.3780  0.5525
 6779TIP3    H220302   6.001   0.720   2.553 -0.6785  0.5340  0.2953
 6780TIP3   OH220303   3.918   0.226   1.239 -0.4811  0.0769  0.1472
 6780TIP3    H120304   3.860   0.194   1.308 -1.0882  2.5131  0.8565
 6780TIP3    H220305   3.995   0.258   1.285  1.2788 -2.4985 -0.7387
 6781TIP3   OH220306   6.127   4.001   2.529 -0.0564  0.0134 -0.4179
 6781TIP3    H120307   6.104   3.912   2.556  1.1630 -0.4849 -0.9792
 6781TIP3    H220308   6.220   3.997   2.508 -0.2887  1.0916 -1.7968
 6782TIP3   OH220309   2.364   1.764   5.524 -0.4862  0.1207 -0.5325
 6782TIP3    H120310   2.407   1.835   5.477 -1.7961 -0.0456 -2.0898
 6782TIP3    H220311   2.285   1.804   5.562  0.5589  0.2521  1.6106
 6783TIP3   OH220312   0.244   0.328   0.259  0.5828 -0.0560  0.3123
 6783TIP3    H120313   0.229   0.350   0.351 -0.8130 -0.7797  0.2960
 6783TIP3    H220314   0.307   0.256   0.261  0.2622 -0.3302  0.7402
 6784TIP3   OH220315   4.302   0.862   5.067 -0.3658 -0.1594 -0.0873
 6784TIP3    H120316   4.335   0.862   4.977  0.2173  0.1400  0.1181
 6784TIP3    H220317   4.240   0.935   5.069  0.4356  0.5314  0.0317
 6785TIP3   OH220318   2.772   2.739   4.559 -0.4256 -0.1154  0.2940
 6785TIP3    H120319   2.830   2.777   4.625  0.8534 -1.6003  0.1002
 6785TIP3    H220320   2.757   2.809   4.496  0.2057  0.6491  0.9760
 6786TIP3   OH220321   4.182   0.646   2.540  0.2800 -0.2367  0.4220
 6786TIP3    H120322   4.266   0.622   2.579 -1.4744 -2.2019  3.3261
 6786TIP3    H220323   4.145   0.711   2.599 -1.0143 -0.7472  0.2077
 6787TIP3   OH220324   2.051   0.324   1.710 -0.4612  0.0405 -0.2349
 6787TIP3    H120325   2.088   0.302   1.795 -0.5613 -2.0633 -0.6661
 6787TIP3    H220326   2.127   0.341   1.654 -0.1884 -1.9433 -0.5335
 6788TIP3   OH220327   6.839   6.203   5.653 -0.5812  0.3277  0.2856
 6788TIP3    H120328   6.902   6.173   5.588 -1.6868 -0.6721 -0.3732
 6788TIP3    H220329   6.816   6.291   5.626 -2.9627 -0.9511 -2.2918
 6789TIP3   OH220330   6.939   4.912   4.039 -0.0622 -0.1667  0.0087
 6789TIP3    H120331   6.917   4.998   4.074  0.1556 -0.0884 -0.0435
 6789TIP3    H220332   6.859   4.882   3.995 -0.3144 -0.2345  0.5076
 6790TIP3   OH220333   0.497   6.317   3.635 -0.0540  0.5959 -0.3059
 6790TIP3    H120334   0.469   6.357   3.552 -2.4336 -2.5868 -1.2291
 6790TIP3    H220335   0.550   6.242   3.609  1.1041  0.8387  1.2097
 6791TIP3   OH220336   6.040   0.873   4.432  0.4982 -0.4490 -0.2285
 6791TIP3    H120337   6.132   0.896   4.447  0.2144 -0.0965  1.1483
 6791TIP3    H220338   6.040   0.778   4.426  0.9558 -0.4517 -0.2433
 6792TIP3   OH220339   2.368   4.827   4.995  0.1594 -0.2084  0.2412
 6792TIP3    H120340   2.414   4.787   4.921 -2.9610 -1.2265 -1.3337
 6792TIP3    H220341   2.354   4.755   5.056  0.3028 -0.0025  0.5154
 6793TIP3   OH220342   0.873   5.630   3.717 -0.2610 -0.3158 -0.1458
 6793TIP3    H120343   0.904   5.607   3.804 -1.1444 -0.3720  0.1697
 6793TIP3    H220344   0.908   5.717   3.700 -2.0693  0.7773  1.3153
 6794TIP3   OH220345   2.782   6.106   0.452 -0.1962  0.3701  0.1848
 6794TIP3    H120346   2.794   6.058   0.534  2.3786  1.7373  0.7334
 6794TIP3    H220347   2.711   6.060   0.407 -0.0622 -1.9107  2.0908
 6795TIP3   OH220348   5.458   4.801   4.827  0.1018 -0.4757 -0.1589
 6795TIP3    H120349   5.434   4.719   4.785  0.7862 -1.1437  0.7286
 6795TIP3    H220350   5.379   4.830   4.872 -0.1176 -0.6762 -0.4125
 6796TIP3   OH220351   5.488   6.226   0.428 -0.0633 -0.2008 -0.2714
 6796TIP3    H120352   5.548   6.176   0.373  1.4168 -1.1821  2.0998
 6796TIP3    H220353   5.538   6.303   0.454 -1.4980  1.3885 -1.9187
 6797TIP3   OH220354   4.953   3.635   3.293 -0.0238 -0.1243  0.2378
 6797TIP3    H120355   5.018   3.636   3.223 -1.0638 -0.7409 -0.7750
 6797TIP3    H220356   4.876   3.677   3.254  0.4886  2.8796  2.1974
 6798TIP3   OH220357   3.757   6.584   4.857  0.4992 -0.5208 -0.9164
 6798TIP3    H120358   3.793   6.500   4.884 -0.3066 -0.7218 -0.4638
 6798TIP3    H220359   3.704   6.613   4.931 -0.2805 -0.2356 -1.5701
 6799TIP3   OH220360   6.668   3.766   2.868  0.2665  0.0100 -0.1981
 6799TIP3    H120361   6.751   3.764   2.914  0.6131  1.1614 -0.7534
 6799TIP3    H220362   6.654   3.858   2.845 -1.2070 -0.1385 -0.0384
 6800TIP3   OH220363   3.290   4.864   3.057  0.3960  0.4342  0.1270
 6800TIP3    H120364   3.317   4.956   3.068 -0.3623  0.7225 -0.3487
 6800TIP3    H220365   3.263   4.858   2.965  0.8246 -0.3766  0.0436
 6801TIP3   OH220366   1.565   0.100   5.909  0.4439  0.2462  0.0446
 6801TIP3    H120367   1.513   0.029   5.872  0.1870  0.2117  0.4730
 6801TIP3    H220368   1.533   0.178   5.863  1.0285  0.0386 -0.7416
 6802TIP3   OH220369   2.944   1.733   3.357 -0.6401 -0.0582  0.6140
 6802TIP3    H120370   2.929   1.718   3.450  0.6719 -2.9988  0.4507
 6802TIP3    H220371   2.886   1.672   3.312 -1.6293  1.6636 -0.5899
 6803TIP3   OH220372   6.699   3.845   5.068 -0.6928  0.5730  0.3791
 6803TIP3    H120373   6.612   3.856   5.030  0.0274 -0.5765 -1.7628
 6803TIP3    H220374   6.759   3.874   5.000  0.7020 -2.5768  0.0798
 6804TIP3   OH220375   6.303   5.115   5.333 -0.3298  0.6532 -0.4558
 6804TIP3    H120376   6.298   5.109   5.428  2.6756  0.9847 -0.1728
 6804TIP3    H220377   6.259   5.036   5.301 -1.9175  0.8345  1.1332
 6805TIP3   OH220378   1.324   2.724   2.745 -0.4506  0.4611 -0.3526
 6805TIP3    H120379   1.398   2.769   2.705 -1.6215  0.5741 -2.5245
 6805TIP3    H220380   1.289   2.786   2.808  0.0221  1.2422 -0.8460
 6806TIP3   OH220381   2.750   2.343   0.723 -0.1046 -0.4771 -0.2497
 6806TIP3    H120382   2.716   2.430   0.742  0.3820 -0.3760  0.1859
 6806TIP3    H220383   2.792   2.352   0.638 -0.2671 -0.3487 -0.3179
 6807TIP3   OH220384   2.383   1.826   1.208  0.4212 -0.0108  0.2693
 6807TIP3    H120385   2.292   1.810   1.181  0.4381 -0.6634  0.5646
 6807TIP3    H220386   2.386   1.919   1.230  0.4560  0.6277 -2.1734
 6808TIP3   OH220387   0.362   4.411   0.307 -0.7412  0.4780  0.1612
 6808TIP3    H120388   0.280   4.456   0.325 -0.0539  1.6299  0.5394
 6808TIP3    H220389   0.421   4.440   0.377 -0.7792 -2.4941  1.5770
 6809TIP3   OH220390   1.204   2.571   0.012 -0.2930  0.1559  0.0988
 6809TIP3    H120391   1.258   2.533   0.081  2.2387 -1.5390 -2.6197
 6809TIP3    H220392   1.129   2.512   0.005  0.3221 -0.6530  0.2315
 6810TIP3   OH220393   2.541   5.584   4.838 -0.2830 -0.2051  0.5960
 6810TIP3    H120394   2.532   5.515   4.772  1.0278 -1.3405  1.5441
 6810TIP3    H220395   2.618   5.559   4.888  1.1038  2.6726  0.1434
 6811TIP3   OH220396   4.483   6.403   5.903  0.0971 -0.3395 -0.1155
 6811TIP3    H120397   4.498   6.454   5.822  0.8036  0.8349  0.7207
 6811TIP3    H220398   4.447   6.466   5.965 -0.8551 -1.3326  0.3795
 6812TIP3   OH220399   6.329   1.612   0.900  0.2194 -0.3582 -0.1792
 6812TIP3    H120400   6.379   1.693   0.903  2.2256 -1.5526  0.8894
 6812TIP3    H220401   6.289   1.604   0.986 -0.1658 -0.3916 -0.3592
 6813TIP3   OH220402   5.124   2.228   0.442  0.2832 -0.2748 -0.2008
 6813TIP3    H120403   5.174   2.303   0.474 -1.1051 -0.0616  1.6497
 6813TIP3    H220404   5.072   2.262   0.370  0.0988  0.4305  0.2563
 6814TIP3   OH220405   4.957   5.412   0.544 -0.0501 -0.0937  0.2179
 6814TIP3    H120406   4.988   5.435   0.631  0.6062  0.9095 -0.2753
 6814TIP3    H220407   4.980   5.486   0.488  2.0108 -1.8167 -1.4062
 6815TIP3   OH220408   2.881   1.097   2.415  0.2256  0.2618 -0.1060
 6815TIP3    H120409   2.900   1.009   2.382 -1.8860 -0.7141  1.0893
 6815TIP3    H220410   2.965   1.129   2.447  1.0277 -1.3603 -0.4642
 6816TIP3   OH220411   1.170   5.928   0.714  0.1805  0.0303 -0.3316
 6816TIP3    H120412   1.143   5.848   0.669  0.8546  0.0900 -0.8579
 6816TIP3    H220413   1.214   5.980   0.646 -1.8738  1.7008 -0.5145
 6817TIP3   OH220414   5.885   3.424   5.268 -0.2878  0.8427  0.1505
 6817TIP3    H120415   5.885   3.483   5.342 -2.5216 -0.0704  0.9475
 6817TIP3    H220416   5.861   3.339   5.304  1.5355 -0.3274 -1.1653
 6818TIP3   OH220417   2.703   4.053   2.843  0.4214 -0.0904  0.4766
 6818TIP3    H120418   2.755   3.973   2.852  0.3198 -0.3996 -1.3725
 6818TIP3    H220419   2.618   4.023   2.812  0.5475  0.7550 -0.7654
 6819TIP3   OH220420   5.881   1.909   5.424  0.5825  0.0559  0.6500
 6819TIP3    H120421   5.883   1.814   5.427  0.7106  0.0723  1.1648
 6819TIP3    H220422   5.815   1.930   5.359 -0.5118 -0.3784  1.5957
 6820TIP3   OH220423   1.286   0.615   0.943  0.2186 -0.5826 -0.4140
 6820TIP3    H120424   1.332   0.576   1.018  0.9539  0.2365 -0.4258
 6820TIP3    H220425   1.216   0.553   0.924 -1.5136  0.2897  2.4586
 6821TIP3   OH220426   7.093   5.842   4.219  0.4841 -0.1043 -0.3518
 6821TIP3    H120427   7.110   5.826   4.126  3.0853 -0.1087  0.0480
 6821TIP3    H220428   7.163   5.794   4.265 -2.0618 -2.0859  1.7824
 6822TIP3   OH220429   0.302   1.597   4.773 -0.0279 -0.1710 -0.4112
 6822TIP3    H120430   0.208   1.600   4.753  0.0705 -1.3246 -1.1470
 6822TIP3    H220431   0.311   1.645   4.855 -1.1118  0.8413 -0.8701
 6823TIP3   OH220432   2.724   5.317   3.466 -0.3288  0.3829  0.8087
 6823TIP3    H120433   2.724   5.232   3.510  0.0301  0.0938  0.2606
 6823TIP3    H220434   2.635   5.326   3.432 -0.3172  0.1433  0.7122
 6824TIP3   OH220435   3.565   6.659   0.560  0.2691 -0.3317 -0.2705
 6824TIP3    H120436   3.618   6.665   0.639  0.5067 -2.3063 -0.2326
 6824TIP3    H220437   3.530   6.570   0.561 -2.4695  0.6385 -0.6797
 6825TIP3   OH220438   0.858   0.904   5.358  0.1782 -0.1661  0.0289
 6825TIP3    H120439   0.819   0.832   5.408 -0.0860  0.6032  0.9617
 6825TIP3    H220440   0.826   0.984   5.401  1.0988  0.5083 -0.4880
 6826TIP3   OH220441   6.807   5.226   3.237 -0.2076 -0.5425  0.3160
 6826TIP3    H120442   6.833   5.200   3.325  1.5380 -2.1896 -0.5974
 6826TIP3    H220443   6.864   5.300   3.216 -1.0376  0.2361  0.7647
 6827TIP3   OH220444   0.221   4.791   1.321  0.3324  0.7349  0.1358
 6827TIP3    H120445   0.137   4.771   1.362  0.2605 -0.0226 -0.3449
 6827TIP3    H220446   0.200   4.855   1.253  0.0505  0.1835 -0.3101
 6828TIP3   OH220447   5.090   1.469   5.202  0.6307 -0.2018 -0.2823
 6828TIP3    H120448   5.152   1.543   5.198 -0.3555  0.7263  0.6860
 6828TIP3    H220449   5.100   1.425   5.118  3.2853 -0.6712  0.1757
 6829TIP3   OH220450   2.355   6.788   3.261 -0.1954  0.6735 -0.4788
 6829TIP3    H120451   2.443   6.824   3.257 -0.4054  1.2724  0.1667
 6829TIP3    H220452   2.348   6.752   3.350 -0.2763 -0.2356 -0.8386
 6830TIP3   OH220453   3.435   6.042   4.170  0.1403  0.4582  0.6311
 6830TIP3    H120454   3.489   6.120   4.182  1.6130 -0.4686  0.1644
 6830TIP3    H220455   3.414   6.040   4.077  1.3292 -0.4615  0.3620
 6831TIP3   OH220456   6.203   4.455   2.808  0.4660  0.2991  0.5426
 6831TIP3    H120457   6.169   4.366   2.821 -0.1903  0.6787  1.4982
 6831TIP3    H220458   6.126   4.511   2.811  0.6200  0.7561 -2.0967
 6832TIP3   OH220459   7.211   3.652   0.309 -0.4668 -0.4420  0.8798
 6832TIP3    H120460   7.157   3.579   0.279  0.0617 -1.1295  1.5710
 6832TIP3    H220461   7.188   3.663   0.402 -0.5009  0.2376  0.7998
 6833TIP3   OH220462   2.715   4.924   5.295 -0.1850  0.1386  0.0847
 6833TIP3    H120463   2.695   4.930   5.389  3.3946 -0.4354  1.0400
 6833TIP3    H220464   2.674   5.002   5.257 -2.2622  0.0610  1.9442
 6834TIP3   OH220465   1.871   0.621   0.457 -0.2075  0.0815  0.7389
 6834TIP3    H120466   1.964   0.634   0.476  0.1119 -2.1789  1.0620
 6834TIP3    H220467   1.831   0.603   0.542 -0.8202  0.3765  0.5186
 6835TIP3   OH220468   6.517   3.158   2.448  0.2630 -0.3225  0.3872
 6835TIP3    H120469   6.472   3.088   2.496 -0.0246 -0.2792  0.1820
 6835TIP3    H220470   6.447   3.216   2.419  0.5972  1.0331  2.0971
 6836TIP3   OH220471   0.314   4.423   5.564 -0.3161 -0.3998  0.5555
 6836TIP3    H120472   0.361   4.382   5.636  2.9927 -0.4043 -1.4344
 6836TIP3    H220473   0.333   4.516   5.572  1.7925 -0.5875 -1.3219
 6837TIP3   OH220474   5.373   4.815   0.574 -0.4501  0.6444  0.1356
 6837TIP3    H120475   5.420   4.894   0.547  1.0843 -0.5815 -0.9736
 6837TIP3    H220476   5.367   4.762   0.495  0.1763 -1.1374  1.2159
 6838TIP3   OH220477   5.281   2.322   3.918  0.3413 -0.2623  0.2054
 6838TIP3    H120478   5.205   2.315   3.977 -0.9135 -0.9143 -1.4157
 6838TIP3    H220479   5.298   2.416   3.912 -1.5379  0.0566 -0.8250
 6839TIP3   OH220480   2.094   4.236   4.875  0.0304 -0.0717  0.2623
 6839TIP3    H120481   2.004   4.205   4.886  0.1260  0.2031  2.1413
 6839TIP3    H220482   2.087   4.331   4.883  0.3192  0.0792 -1.0633
 6840TIP3   OH220483   5.636   0.781   4.080 -0.3203  0.2215  0.3258
 6840TIP3    H120484   5.612   0.696   4.116  1.4486 -1.2170 -1.6590
 6840TIP3    H220485   5.710   0.810   4.134 -1.1054  0.6865  1.1844
 6841TIP3   OH220486   0.868   2.992   0.946 -1.2505 -0.1698  0.9868
 6841TIP3    H120487   0.938   2.935   0.915 -1.2878  0.0717  0.4530
 6841TIP3    H220488   0.795   2.933   0.964 -1.2362 -0.3068  0.5911
 6842TIP3   OH220489   6.117   3.447   3.902 -0.1690  0.1394 -0.6433
 6842TIP3    H120490   6.036   3.447   3.953  0.4721 -0.9994  0.4155
 6842TIP3    H220491   6.111   3.527   3.850 -2.2470 -0.2157 -1.0635
 6843TIP3   OH220492   3.815   0.231   0.592  0.1973  0.4823  0.6947
 6843TIP3    H120493   3.745   0.177   0.555  0.2073  1.1654 -0.3858
 6843TIP3    H220494   3.773   0.277   0.665 -1.0107  2.1575 -0.9569
 6844TIP3   OH220495   6.316   1.272   4.033  0.9489 -0.5386 -0.3218
 6844TIP3    H120496   6.337   1.178   4.033 -0.2478 -0.8256 -0.6351
 6844TIP3    H220497   6.256   1.283   3.959 -2.8458 -0.5094  2.4389
 6845TIP3   OH220498   4.897   6.335   5.034 -0.0931  0.0199  0.0263
 6845TIP3    H120499   4.830   6.372   5.092 -1.0586  1.0630 -1.6405
 6845TIP3    H220500   4.854   6.260   4.993 -0.1149  0.4182 -0.7065
 6846TIP3   OH220501   7.116   6.053   5.696  0.5143 -0.2951 -0.7389
 6846TIP3    H120502   7.211   6.062   5.694  0.3932  1.1729 -2.0069
 6846TIP3    H220503   7.089   6.069   5.606 -1.0200  0.3640 -0.1939
 6847TIP3   OH220504   6.200   4.458   0.923  0.2642  0.5157  0.1462
 6847TIP3    H120505   6.288   4.433   0.949  0.1026  0.3638  0.5584
 6847TIP3    H220506   6.143   4.392   0.963 -0.1556  1.4158  1.1025
 6848TIP3   OH220507   4.104   4.406   5.127  0.7287 -0.0072  0.1235
 6848TIP3    H120508   4.147   4.331   5.169 -2.5327 -1.0050  2.0074
 6848TIP3    H220509   4.118   4.478   5.188  1.6080  0.3032 -0.4144
 6849TIP3   OH220510   6.338   0.700   0.686 -0.2204  0.3530 -0.3870
 6849TIP3    H120511   6.368   0.763   0.621  0.9545  1.1714  0.9210
 6849TIP3    H220512   6.313   0.623   0.634 -0.2578  1.3344 -1.8739
 6850TIP3   OH220513   3.165   2.259   1.862 -0.2955  0.5892 -0.1458
 6850TIP3    H120514   3.229   2.306   1.808 -0.5177  2.8160  1.4011
 6850TIP3    H220515   3.218   2.203   1.918  0.1744  0.9633 -0.2075
 6851TIP3   OH220516   1.468   4.369   4.228  0.0851  0.3837 -0.4559
 6851TIP3    H120517   1.440   4.305   4.294  0.4859 -0.4226 -1.0475
 6851TIP3    H220518   1.423   4.450   4.252 -0.1765 -0.0343  0.5019
 6852TIP3   OH220519   2.997   1.842   4.878  0.1441 -0.2401  0.2571
 6852TIP3    H120520   3.044   1.925   4.889 -0.3409  0.0636  0.0916
 6852TIP3    H220521   3.020   1.790   4.955  0.1303  0.2108  0.5689
 6853TIP3   OH220522   2.613   2.382   5.719  0.1527  0.5422 -0.2410
 6853TIP3    H120523   2.636   2.437   5.794  1.0699  3.0584 -2.2065
 6853TIP3    H220524   2.518   2.387   5.713  0.1858  1.5928 -0.0895
 6854TIP3   OH220525   1.180   6.788   1.061 -0.1666 -0.2258 -0.1030
 6854TIP3    H120526   1.203   6.754   1.147  1.4353  0.2197 -0.3184
 6854TIP3    H220527   1.231   6.869   1.053 -0.0453 -0.4232 -1.5804
 6855TIP3   OH220528   4.526   6.523   1.129  0.4982 -0.3693  0.4013
 6855TIP3    H120529   4.515   6.618   1.127 -0.7902 -0.5066 -0.1697
 6855TIP3    H220530   4.572   6.506   1.211  0.9095  0.7580  0.4245
 6856TIP3   OH220531   3.776   6.221   1.224 -0.3236 -0.0587  0.2275
 6856TIP3    H120532   3.864   6.184   1.236 -0.3119  0.3052  1.4343
 6856TIP3    H220533   3.782   6.272   1.143  0.7636  0.4575  0.6106
 6857TIP3   OH220534   0.336   0.239   1.905 -0.2169 -0.5324  0.6536
 6857TIP3    H120535   0.422   0.256   1.867  0.6541 -5.3334 -0.1098
 6857TIP3    H220536   0.317   0.318   1.955  3.9731  1.3278 -0.2013
 6858TIP3   OH220537   2.634   1.218   1.080  0.0447  0.2901 -0.0812
 6858TIP3    H120538   2.722   1.184   1.062 -0.2955 -0.8965  0.4331
 6858TIP3    H220539   2.649   1.305   1.118  0.9793  0.2090 -0.2451
 6859TIP3   OH220540   3.765   2.129   3.416  0.1556 -0.3110 -0.7734
 6859TIP3    H120541   3.698   2.107   3.481  2.8442  0.8784  2.6906
 6859TIP3    H220542   3.831   2.061   3.425  0.4180 -0.3733 -2.7030
 6860TIP3   OH220543   4.773   0.823   5.334  0.1998 -0.0970 -0.5492
 6860TIP3    H120544   4.772   0.892   5.400 -1.5697  1.8270 -2.4086
 6860TIP3    H220545   4.861   0.825   5.298  0.6941 -0.0674  0.6373
 6861TIP3   OH220546   1.298   4.674   3.075  0.4106 -0.5191  0.6287
 6861TIP3    H120547   1.213   4.719   3.071 -0.1557 -1.5497  0.8398
 6861TIP3    H220548   1.298   4.616   2.999  0.7509 -0.8242  0.8623
 6862TIP3   OH220549   6.339   3.507   2.202  0.0751  0.9946  0.1617
 6862TIP3    H120550   6.347   3.520   2.297 -2.0051  1.1697  0.3669
 6862TIP3    H220551   6.429   3.512   2.169  0.8709  0.6508  2.1465
 6863TIP3   OH220552   5.605   3.133   0.395 -0.0543 -0.8193 -0.1153
 6863TIP3    H120553   5.560   3.060   0.436 -2.0397 -0.6190 -1.7801
 6863TIP3    H220554   5.596   3.118   0.301  1.1294  0.6000 -0.5047
 6864TIP3   OH220555   5.643   1.422   0.842 -0.2693  0.4040 -0.3055
 6864TIP3    H120556   5.682   1.508   0.855  1.1409 -0.3514  0.8698
 6864TIP3    H220557   5.662   1.400   0.751  0.2796  0.8926 -0.3119
 6865TIP3   OH220558   0.047   5.920   4.783 -0.2391  0.1995 -0.3316
 6865TIP3    H120559  -0.015   5.940   4.712 -2.3943 -0.7691  1.1590
 6865TIP3    H220560   0.050   6.000   4.835 -0.1110  0.3006 -0.4940
 6866TIP3   OH220561   6.447   4.393   3.080 -0.4236  0.2469 -0.4979
 6866TIP3    H120562   6.492   4.478   3.079 -0.0376  0.0920  1.1171
 6866TIP3    H220563   6.435   4.373   3.173 -0.3918 -1.5257 -0.8307
 6867TIP3   OH220564   3.567   0.609   5.252 -0.1789 -0.1870 -0.0815
 6867TIP3    H120565   3.658   0.582   5.263  0.1019  1.4498  2.5163
 6867TIP3    H220566   3.573   0.695   5.209 -0.5979 -0.6893 -1.1655
 6868TIP3   OH220567   1.417   4.762   1.535  0.0086 -0.4696 -0.1793
 6868TIP3    H120568   1.404   4.767   1.629  1.2446  0.4816 -0.0293
 6868TIP3    H220569   1.341   4.714   1.502  0.8135 -3.1278  1.5705
 6869TIP3   OH220570   3.337   2.485   4.728 -0.2557  0.7645 -0.4269
 6869TIP3    H120571   3.422   2.528   4.732  0.4014 -0.5796  0.4855
 6869TIP3    H220572   3.325   2.446   4.814 -0.3949 -1.6948 -1.4828
 6870TIP3   OH220573   0.039   6.386   4.685  0.0469 -0.3243 -0.3256
 6870TIP3    H120574  -0.008   6.319   4.636  1.2444  0.3528 -2.5640
 6870TIP3    H220575  -0.028   6.431   4.736 -1.5835 -0.0349 -2.6040
 6871TIP3   OH220576   3.040   1.055   0.170 -0.7478  0.1709  0.0382
 6871TIP3    H120577   2.983   1.036   0.245 -1.6466 -1.6307 -1.0258
 6871TIP3    H220578   3.123   1.014   0.191  1.0636  4.4370  2.4792
 6872TIP3   OH220579   5.642   3.403   3.850  0.1819 -0.2353 -0.1185
 6872TIP3    H120580   5.590   3.392   3.929  0.6762  0.0010  0.2517
 6872TIP3    H220581   5.578   3.420   3.781 -0.4048 -2.4417 -0.1771
 6873TIP3   OH220582   7.064   3.105   2.928  0.2759  0.8663 -0.0616
 6873TIP3    H120583   7.053   3.198   2.906 -1.0525  0.7222 -0.0667
 6873TIP3    H220584   7.055   3.060   2.844  1.1022  0.7282 -0.0882
 6874TIP3   OH220585   6.876  -0.018   1.064 -0.6401 -0.4392 -0.0548
 6874TIP3    H120586   6.798   0.038   1.069 -0.4495 -0.1857  0.0496
 6874TIP3    H220587   6.939   0.023   1.123  0.0684  0.1327 -1.1996
 6875TIP3   OH220588   2.021   1.347   5.607  0.3117 -0.0931  0.2512
 6875TIP3    H120589   2.103   1.373   5.566  1.3018 -0.2382  2.0195
 6875TIP3    H220590   1.955   1.405   5.569  1.1305 -0.3026 -1.5546
 6876TIP3   OH220591   4.118   5.910   5.439  0.5011 -0.0263  0.2836
 6876TIP3    H120592   4.201   5.864   5.425 -0.0026 -1.2762  1.1710
 6876TIP3    H220593   4.057   5.841   5.465 -1.1064  0.6908 -1.3687
 6877TIP3   OH220594   4.847   6.013   0.511  0.0329  0.0417 -0.6330
 6877TIP3    H120595   4.834   6.070   0.435  1.1952  1.6555  0.3176
 6877TIP3    H220596   4.798   6.055   0.582  0.0589 -0.7130 -0.1522
 6878TIP3   OH220597   6.066   5.331   5.342 -0.5096  0.1326  0.3352
 6878TIP3    H120598   6.046   5.425   5.339  1.4151  0.5766  0.2363
 6878TIP3    H220599   6.061   5.303   5.251  0.8197  0.6120  0.0860
 6879TIP3   OH220600   5.419   2.149   0.866 -0.4111 -0.0336  0.2491
 6879TIP3    H120601   5.366   2.208   0.920 -0.0881  0.4591  0.0408
 6879TIP3    H220602   5.356   2.093   0.822 -0.7361  0.2826  0.3063
 6880TIP3   OH220603   5.404   2.185   2.605 -0.3051  0.3571 -1.3295
 6880TIP3    H120604   5.324   2.217   2.565 -0.7716  0.3743 -0.3965
 6880TIP3    H220605   5.468   2.183   2.533 -1.7770 -2.0509 -2.6964
 6881TIP3   OH220606   6.990   1.771   5.313 -0.7007 -0.2018  0.0177
 6881TIP3    H120607   7.058   1.725   5.264 -0.6238  0.0231 -0.0855
 6881TIP3    H220608   6.985   1.858   5.274 -1.1724 -0.2725 -0.0935
 6882TIP3   OH220609   7.017   1.206   1.623  0.0837  0.1992 -0.0221
 6882TIP3    H120610   7.072   1.279   1.651  0.5354 -1.1289  2.9719
 6882TIP3    H220611   6.935   1.218   1.672  0.2546 -1.3471  0.6999
 6883TIP3   OH220612   0.201   0.497   3.543 -0.9292  0.0325  0.3495
 6883TIP3    H120613   0.231   0.585   3.519  0.9780 -0.7158 -0.1828
 6883TIP3    H220614   0.125   0.482   3.487 -1.6838  1.5630  0.8997
 6884TIP3   OH220615   4.382   2.663   2.973  0.3042  0.3669 -0.0442
 6884TIP3    H120616   4.452   2.598   2.988  0.0907  0.1263 -0.0839
 6884TIP3    H220617   4.428   2.740   2.941  0.7675  0.8247  1.6046
 6885TIP3   OH220618   2.780   6.063   2.018  0.2073 -0.0403 -0.5111
 6885TIP3    H120619   2.835   6.130   1.977  0.1623  0.0058 -0.4962
 6885TIP3    H220620   2.766   5.998   1.949 -0.4313  0.3752 -0.7723
 6886TIP3   OH220621   4.643   4.308   2.106  0.4976  0.2937  0.8926
 6886TIP3    H120622   4.732   4.332   2.131  1.4629 -2.1053  0.0653
 6886TIP3    H220623   4.639   4.213   2.122 -0.9088 -0.1963 -1.8293
 6887TIP3   OH220624   4.247   2.364   3.164  0.1722 -0.4912  0.3645
 6887TIP3    H120625   4.198   2.439   3.132  0.4330 -0.2148  0.6025
 6887TIP3    H220626   4.180   2.301   3.190 -0.0380 -0.7818 -0.8508
 6888TIP3   OH220627   0.754   0.344   3.499 -0.0222  0.2027 -0.4060
 6888TIP3    H120628   0.718   0.256   3.493 -0.1088  0.2690 -0.9084
 6888TIP3    H220629   0.677   0.401   3.507 -0.0129  0.3126 -1.0846
 6889TIP3   OH220630   2.879   2.217   2.552 -0.5629  0.0884  0.2517
 6889TIP3    H120631   2.900   2.211   2.459 -0.7603  0.0296  0.2113
 6889TIP3    H220632   2.868   2.311   2.568  2.1778  0.4154  0.8084
 6890TIP3   OH220633   5.594   2.711   4.482 -0.1309  0.0814 -0.7354
 6890TIP3    H120634   5.667   2.656   4.454  1.1480  1.2054  0.2366
 6890TIP3    H220635   5.596   2.707   4.578  0.0770  1.8405 -0.6209
 6891TIP3   OH220636   1.062   3.043   0.029 -0.7095 -0.0476 -0.0106
 6891TIP3    H120637   1.004   3.089  -0.032 -0.2025 -0.0535 -0.5045
 6891TIP3    H220638   1.008   3.027   0.106 -1.1564  0.5744 -0.1897
 6892TIP3   OH220639   4.380   3.148   3.366 -0.9285  0.2485  0.2671
 6892TIP3    H120640   4.372   3.131   3.460  0.4357 -0.2601  0.3156
 6892TIP3    H220641   4.314   3.216   3.348 -1.5518 -0.0159  1.4788
 6893TIP3   OH220642   2.315   0.656   0.812  0.0618 -0.3047  0.0656
 6893TIP3    H120643   2.379   0.633   0.879 -0.4318  0.9718  1.0205
 6893TIP3    H220644   2.363   0.651   0.730  1.2001 -0.0766  0.6963
 6894TIP3   OH220645   1.603   1.769   5.594 -0.5288 -0.2858  0.3254
 6894TIP3    H120646   1.614   1.758   5.688  0.8360 -0.3997  0.1699
 6894TIP3    H220647   1.692   1.778   5.560 -1.0574  0.9391 -0.8221
 6895TIP3   OH220648   3.558   3.211   5.893  0.2964 -0.4197  0.9172
 6895TIP3    H120649   3.593   3.123   5.904 -1.4593 -1.0161  2.1408
 6895TIP3    H220650   3.520   3.211   5.805 -2.7474 -2.1102  2.0990
 6896TIP3   OH220651   1.643   4.872   3.021  0.0595  0.0111 -0.5563
 6896TIP3    H120652   1.692   4.953   3.036  0.7286 -0.3713 -0.6139
 6896TIP3    H220653   1.694   4.805   3.066  0.6653 -0.7133 -2.2475
 6897TIP3   OH220654   0.192   3.232   5.319 -0.1609  0.5582 -0.1375
 6897TIP3    H120655   0.234   3.268   5.397  0.6912 -0.0325 -0.3173
 6897TIP3    H220656   0.205   3.137   5.326 -2.3052  0.2384  0.2863
 6898TIP3   OH220657   2.831   3.242   4.246 -0.1501  0.3400  0.3757
 6898TIP3    H120658   2.808   3.328   4.210  1.3205  0.4892 -0.2840
 6898TIP3    H220659   2.747   3.201   4.265 -0.9367  1.1376 -1.1590
 6899TIP3   OH220660   3.972   4.530   4.584  0.4028  0.1492 -0.3160
 6899TIP3    H120661   4.019   4.612   4.597 -0.6317  0.5203  1.4439
 6899TIP3    H220662   3.883   4.549   4.616  0.1572 -1.6395  0.1470
 6900TIP3   OH220663   4.379   0.941   2.776 -0.0253 -0.0780  0.3010
 6900TIP3    H120664   4.456   0.884   2.769  0.5611  0.8902 -2.1822
 6900TIP3    H220665   4.338   0.938   2.690  0.4658  3.7470 -0.2645
 6901TIP3   OH220666   2.936   0.054   3.521  0.4039 -0.0627 -0.3503
 6901TIP3    H120667   2.996   0.051   3.596 -1.3088 -0.8517  1.0757
 6901TIP3    H220668   2.947   0.142   3.485  0.9557  0.4940  1.1112
 6902TIP3   OH220669   0.419   4.682   3.864 -0.0260  0.1176  0.0160
 6902TIP3    H120670   0.364   4.758   3.844  0.3158  0.6658  1.1055
 6902TIP3    H220671   0.386   4.650   3.947  0.3688 -0.4368 -0.0385
 6903TIP3   OH220672   1.822   5.056   2.655  0.4066  0.2836  0.1055
 6903TIP3    H120673   1.825   5.143   2.616 -0.2966  0.3641  0.2059
 6903TIP3    H220674   1.790   4.999   2.585  0.7050  0.1384  0.0882
 6904TIP3   OH220675   0.171   1.047   4.744 -0.0653 -0.2037 -0.1660
 6904TIP3    H120676   0.199   0.975   4.800  0.0413  0.4873  0.6963
 6904TIP3    H220677   0.078   1.058   4.764 -0.1539 -0.3073 -0.5225
 6905TIP3   OH220678   2.667   2.641   2.490  0.1234 -0.0955  0.1012
 6905TIP3    H120679   2.708   2.583   2.555  0.6606  1.8899  1.6376
 6905TIP3    H220680   2.716   2.625   2.410  2.1346  0.2050  1.2057
 6906TIP3   OH220681   1.685   1.201   4.864  0.1273  0.0095  0.3628
 6906TIP3    H120682   1.590   1.212   4.873  0.2289 -0.1786  1.9522
 6906TIP3    H220683   1.712   1.271   4.804 -0.9628  0.2628  0.1416
 6907TIP3   OH220684   2.466   4.177   4.901 -0.3132 -0.1296 -0.3054
 6907TIP3    H120685   2.408   4.195   4.827 -0.7023 -0.0212  0.0207
 6907TIP3    H220686   2.554   4.178   4.863 -0.5838 -1.3043 -0.9896
 6908TIP3   OH220687   0.618   5.193   2.720  0.2496 -0.3654 -0.1235
 6908TIP3    H120688   0.692   5.157   2.671 -0.2628  0.5425 -1.6306
 6908TIP3    H220689   0.644   5.282   2.742  0.5069 -0.7874  1.3859
 6909TIP3   OH220690   5.998   6.640   4.652 -1.1750 -0.1441  0.1805
 6909TIP3    H120691   6.042   6.566   4.693 -0.4903  0.3084  0.2845
 6909TIP3    H220692   6.015   6.631   4.559 -0.5352  0.2261  0.2537
 6910TIP3   OH220693   0.968   5.326   0.072  0.3456 -0.6196  0.1364
 6910TIP3    H120694   1.042   5.267   0.054  1.1786  0.7959 -1.3385
 6910TIP3    H220695   1.009   5.403   0.114 -0.4361 -0.2242  0.1875
 6911TIP3   OH220696   6.105   6.007   1.184 -0.3248  0.4820 -0.7366
 6911TIP3    H120697   6.066   5.949   1.248 -3.3625  1.2096 -1.7653
 6911TIP3    H220698   6.153   6.072   1.236 -0.6913 -0.3027  0.6250
 6912TIP3   OH220699   0.248   0.873   2.976 -0.5882  0.1518 -0.3942
 6912TIP3    H120700   0.171   0.922   2.946 -0.5550 -0.3471 -1.3345
 6912TIP3    H220701   0.321   0.935   2.968 -0.6222  0.1099 -1.1323
 6913TIP3   OH220702   1.690   5.309   2.916  0.1373  0.3231  0.2489
 6913TIP3    H120703   1.765   5.257   2.945  0.7931  1.6751  1.0793
 6913TIP3    H220704   1.655   5.348   2.997 -0.1614  1.3757 -0.3707
 6914TIP3   OH220705   4.653   3.454   1.394  0.1636  0.2836  0.0110
 6914TIP3    H120706   4.738   3.411   1.398 -0.6416 -1.6141 -1.6654
 6914TIP3    H220707   4.622   3.455   1.484  0.2294 -2.7511  0.1562
 6915TIP3   OH220708   1.244   5.468   2.853  0.0501  0.5851  0.0753
 6915TIP3    H120709   1.183   5.540   2.840 -1.5664 -0.9353 -1.4863
 6915TIP3    H220710   1.304   5.474   2.778 -0.9084 -0.3670 -0.8232
 6916TIP3   OH220711   0.825   0.872   4.962 -0.4543  0.4686  0.3910
 6916TIP3    H120712   0.805   0.850   4.871  1.0541 -0.1375  0.1834
 6916TIP3    H220713   0.811   0.967   4.967  0.8540  0.7558 -0.8747
 6917TIP3   OH220714   4.812   1.258   3.519  0.2979 -0.2991 -0.2254
 6917TIP3    H120715   4.776   1.321   3.580  0.4092 -0.0495 -0.4142
 6917TIP3    H220716   4.750   1.257   3.445  1.9928  2.1645 -1.8303
 6918TIP3   OH220717   3.240   3.612   2.339  0.2748  0.1520  0.1442
 6918TIP3    H120718   3.265   3.526   2.306 -0.3282 -0.2941  0.8223
 6918TIP3    H220719   3.304   3.672   2.300  2.4192 -0.9306  1.7552
 6919TIP3   OH220720   1.370   3.212   0.928  0.1253 -0.0364  0.0249
 6919TIP3    H120721   1.308   3.285   0.923 -1.4222 -1.3540 -1.2719
 6919TIP3    H220722   1.315   3.136   0.948  1.5156 -1.0560  0.0908
 6920TIP3   OH220723   0.706   1.703   4.282 -0.1489  0.0529 -0.4799
 6920TIP3    H120724   0.696   1.616   4.321  1.9886 -0.1449 -0.2050
 6920TIP3    H220725   0.641   1.757   4.327 -0.4323 -1.0522  0.5036
 6921TIP3   OH220726   0.323   2.173   0.823 -0.3711  0.9696  0.1517
 6921TIP3    H120727   0.249   2.230   0.805 -0.6200  0.1112 -1.9031
 6921TIP3    H220728   0.286   2.098   0.868 -0.4213  1.3903  0.8185
 6922TIP3   OH220729   4.863   3.976   2.835  0.3466  0.0437 -0.1813
 6922TIP3    H120730   4.796   4.044   2.825  0.1335 -0.3999 -2.2286
 6922TIP3    H220731   4.943   4.025   2.851 -0.3256  0.6053  1.7524
 6923TIP3   OH220732   1.968   6.226   5.230  0.0037 -0.1029  0.3112
 6923TIP3    H120733   1.948   6.266   5.146 -0.7845  0.2296  0.6524
 6923TIP3    H220734   2.056   6.257   5.251  0.1287 -0.0345 -0.2980
 6924TIP3   OH220735   4.301   6.831   4.206  0.0085 -0.1924 -0.6678
 6924TIP3    H120736   4.233   6.765   4.220  0.2875 -0.1871  0.8245
 6924TIP3    H220737   4.355   6.826   4.284  0.1813  1.6353 -0.6477
 6925TIP3   OH220738   3.656   6.326   0.689 -0.4490 -0.0999  0.2076
 6925TIP3    H120739   3.593   6.384   0.645 -0.2688  0.2341  0.3904
 6925TIP3    H220740   3.612   6.301   0.770  0.3250  1.4720  1.1337
 6926TIP3   OH220741   2.179   6.336   3.581 -0.2362  0.4166 -0.5928
 6926TIP3    H120742   2.136   6.277   3.643 -0.5557  1.0451 -0.1883
 6926TIP3    H220743   2.194   6.284   3.503 -0.3987 -0.2243 -0.2006
 6927TIP3   OH220744   2.894   2.893   4.753  0.5810  0.0260  0.2419
 6927TIP3    H120745   2.951   2.941   4.693  0.1979  0.3684  0.1504
 6927TIP3    H220746   2.870   2.956   4.820  0.0023 -0.0059  0.0722
 6928TIP3   OH220747   6.508   4.149   5.185  0.3354 -0.3611 -0.3020
 6928TIP3    H120748   6.473   4.079   5.130  1.4047 -2.1171  1.1394
 6928TIP3    H220749   6.580   4.186   5.135 -0.9098  0.5258 -1.5405
 6929TIP3   OH220750   5.411   6.110   5.234 -0.1469 -0.0257  0.0969
 6929TIP3    H120751   5.448   6.093   5.147 -0.9686  0.9270 -0.4525
 6929TIP3    H220752   5.434   6.202   5.252 -2.3177  0.6595 -0.3304
 6930TIP3   OH220753   3.661   1.827   4.502 -0.2962 -0.3382 -0.1619
 6930TIP3    H120754   3.677   1.741   4.465  1.8089 -0.3749  0.7260
 6930TIP3    H220755   3.640   1.882   4.426  0.8965 -1.0672 -1.0486
 6931TIP3   OH220756   6.876   4.858   5.007 -0.1374 -0.1958  0.2356
 6931TIP3    H120757   6.900   4.904   5.088  0.1737 -0.4375  0.2807
 6931TIP3    H220758   6.910   4.913   4.937  1.2365 -0.9119  0.3129
 6932TIP3   OH220759   6.983   3.326   2.122  0.2252  0.0554 -0.0955
 6932TIP3    H120760   7.029   3.244   2.109 -2.5479 -1.3549 -2.0709
 6932TIP3    H220761   6.930   3.312   2.200 -1.2543 -0.5982 -1.1836
 6933TIP3   OH220762   0.982   1.686   1.723 -0.0374 -0.1582  0.2950
 6933TIP3    H120763   0.974   1.757   1.659  0.3986  1.3899  1.8963
 6933TIP3    H220764   1.070   1.650   1.708 -0.5442 -0.9342 -1.0369
 6934TIP3   OH220765   4.847   6.329   0.700 -0.1266 -0.2514 -0.0948
 6934TIP3    H120766   4.894   6.248   0.722 -1.4455 -1.0892 -0.2293
 6934TIP3    H220767   4.913   6.385   0.659  1.6074  0.0660  2.8993
 6935TIP3   OH220768   1.449   4.349   3.331  0.0563  0.1431  0.6953
 6935TIP3    H120769   1.530   4.360   3.381  0.5408 -0.2489  0.0269
 6935TIP3    H220770   1.399   4.284   3.381  0.8033 -0.7095  0.3817
 6936TIP3   OH220771   4.016   0.398   4.407  0.0255 -0.1589 -0.2534
 6936TIP3    H120772   4.034   0.349   4.487 -0.2588  0.8921  0.4649
 6936TIP3    H220773   4.102   0.410   4.366 -0.0855 -3.1684 -1.6328
 6937TIP3   OH220774   1.777   6.263   3.947 -0.3834  0.2072 -0.5074
 6937TIP3    H120775   1.694   6.258   3.899 -0.8484 -0.4868  0.3286
 6937TIP3    H220776   1.776   6.350   3.986 -0.5993  0.2976 -0.7121
 6938TIP3   OH220777   6.713   6.793   2.195  0.3275  0.1188  0.3250
 6938TIP3    H120778   6.733   6.709   2.235 -0.4178  0.2757  1.0627
 6938TIP3    H220779   6.780   6.852   2.231  0.7748 -0.1270 -0.0968
 6939TIP3   OH220780   2.915   5.493   3.160  0.3451 -0.0969  0.1530
 6939TIP3    H120781   2.850   5.562   3.146  1.5103  1.1155  0.4748
 6939TIP3    H220782   2.998   5.531   3.129  0.8238 -1.8018 -0.7663
 6940TIP3   OH220783   1.999   2.266   4.550 -0.2498 -0.0232  0.5240
 6940TIP3    H120784   2.011   2.214   4.470  1.7197  0.0410  0.7456
 6940TIP3    H220785   1.906   2.291   4.548  0.0730  1.4635 -2.6694
 6941TIP3   OH220786   6.175   4.365   4.533  0.2680 -0.0035  0.0053
 6941TIP3    H120787   6.085   4.370   4.566 -0.0597  0.6735 -0.9145
 6941TIP3    H220788   6.165   4.332   4.444  0.8818  0.5395 -0.2712
 6942TIP3   OH220789   6.891   2.381   2.691  0.1566  0.3812 -0.3106
 6942TIP3    H120790   6.892   2.292   2.727  0.1980  0.2093 -0.7277
 6942TIP3    H220791   6.865   2.437   2.764  0.9635  0.1237  0.1853
 6943TIP3   OH220792   2.976   1.664   4.255  0.8878 -0.2084  0.2447
 6943TIP3    H120793   2.900   1.660   4.314 -1.4829  1.5904 -2.4372
 6943TIP3    H220794   2.939   1.678   4.168  4.3175  2.1738 -1.0754
 6944TIP3   OH220795   2.757   6.566   2.690 -0.1326  0.2413 -0.3546
 6944TIP3    H120796   2.669   6.541   2.719  0.0162 -2.2935 -1.8231
 6944TIP3    H220797   2.811   6.560   2.770 -1.2477  1.9045  0.5773
 6945TIP3   OH220798   1.225   6.374   1.532 -0.0212 -0.3752 -0.0323
 6945TIP3    H120799   1.177   6.308   1.582  0.6375 -0.0925  1.0008
 6945TIP3    H220800   1.312   6.335   1.520 -0.1852 -0.4551 -0.9959
 6946TIP3   OH220801   0.952   4.161   2.805  0.2956  0.3921  0.0690
 6946TIP3    H120802   0.959   4.066   2.794 -1.2559  0.0007  1.8586
 6946TIP3    H220803   0.881   4.172   2.868 -0.0524  2.7891 -0.6415
 6947TIP3   OH220804   2.064   6.627   0.655 -0.0191 -0.2128 -0.5130
 6947TIP3    H120805   1.990   6.571   0.634 -0.7649  1.0013 -1.2420
 6947TIP3    H220806   2.074   6.620   0.750 -2.4327  1.1688 -0.0746
 6948TIP3   OH220807   1.579   2.458   4.408  0.7593  0.0474 -0.0319
 6948TIP3    H120808   1.624   2.532   4.449 -0.4159  0.0895  1.2303
 6948TIP3    H220809   1.573   2.482   4.316  2.0023  0.6910  0.0299
 6949TIP3   OH220810   6.977   5.316   3.902  0.3113  0.4542 -0.4545
 6949TIP3    H120811   7.035   5.285   3.832  0.6781  0.8098 -0.3074
 6949TIP3    H220812   6.928   5.238   3.928 -1.2311  0.6802 -2.4262
 6950TIP3   OH220813   4.708   2.066   5.354  0.8571 -0.6474 -0.1307
 6950TIP3    H120814   4.684   2.156   5.335 -0.9979 -1.0920 -0.0836
 6950TIP3    H220815   4.654   2.042   5.430  2.1594 -1.4601  0.5884
 6951TIP3   OH220816   6.964   3.661   4.458  0.2244 -0.0602 -0.1224
 6951TIP3    H120817   6.963   3.754   4.482  1.8279  0.2886 -1.2253
 6951TIP3    H220818   7.040   3.653   4.400 -0.2402 -1.9544 -0.5087
 6952TIP3   OH220819   3.284   3.070   2.285 -0.3008 -0.7733 -0.6050
 6952TIP3    H120820   3.189   3.066   2.297 -0.3422 -1.2962 -1.0550
 6952TIP3    H220821   3.296   3.130   2.211 -0.0471  2.4526  1.8099
 6953TIP3   OH220822   7.044   5.444   4.170  0.6784 -0.0844 -0.4211
 6953TIP3    H120823   7.037   5.426   4.076  1.6624 -0.8603 -0.3551
 6953TIP3    H220824   6.956   5.427   4.204  0.7328 -1.5205 -0.9279
 6954TIP3   OH220825   0.182   5.344   0.853 -0.4306  0.0612  0.9678
 6954TIP3    H120826   0.254   5.387   0.807 -0.8483 -0.0220  0.2350
 6954TIP3    H220827   0.136   5.415   0.898 -1.7514  0.5670 -1.0872
 6955TIP3   OH220828   3.700   5.974   4.598  0.8838 -0.4113 -0.0036
 6955TIP3    H120829   3.791   5.947   4.603  1.2322  0.7842  0.5609
 6955TIP3    H220830   3.671   5.948   4.511  1.9802 -0.1696 -0.4491
 6956TIP3   OH220831   0.105   0.851   1.771 -0.7359  0.0408  0.0060
 6956TIP3    H120832   0.139   0.931   1.731  0.2191  0.0398  0.7599
 6956TIP3    H220833   0.097   0.873   1.864 -1.7722 -0.3227  0.0194
 6957TIP3   OH220834   7.032   2.983   3.937 -0.0482 -0.2836  0.1715
 6957TIP3    H120835   7.097   3.004   3.869  0.4413  0.6226  0.9021
 6957TIP3    H220836   7.041   3.053   4.001 -1.9085 -0.0408  0.1944
 6958TIP3   OH220837   4.412   1.239   1.241 -0.4928 -0.6606 -0.0842
 6958TIP3    H120838   4.330   1.210   1.282 -1.2884 -0.1636 -1.2810
 6958TIP3    H220839   4.454   1.294   1.308 -1.4918 -0.3196  0.2766
 6959TIP3   OH220840   1.853   5.045   1.299  0.0428  0.8067  0.0119
 6959TIP3    H120841   1.814   4.980   1.241 -0.4007  0.3887  0.7671
 6959TIP3    H220842   1.845   5.008   1.387 -0.7036  2.0882  0.5257
 6960TIP3   OH220843   5.688   4.657   2.138 -0.1871  0.0829 -0.4455
 6960TIP3    H120844   5.687   4.628   2.229  0.3236  1.2985 -0.0354
 6960TIP3    H220845   5.596   4.666   2.114 -0.3156  0.2445  0.1045
 6961TIP3   OH220846   1.147   5.592   3.386 -0.0927 -0.9829 -0.2687
 6961TIP3    H120847   1.186   5.595   3.299 -1.6947  1.1652 -1.0049
 6961TIP3    H220848   1.059   5.555   3.372 -1.6584  2.3950 -0.2417
 6962TIP3   OH220849   5.132   6.708   0.490  0.2795 -0.3993  0.6600
 6962TIP3    H120850   5.123   6.802   0.507 -0.2069  0.0357 -1.6778
 6962TIP3    H220851   5.223   6.688   0.512  1.6498  1.5833 -2.5090
 6963TIP3   OH220852   2.092   4.359   4.014  0.0628 -0.1667  0.0052
 6963TIP3    H120853   2.085   4.270   3.979  1.1115 -0.2010 -0.1404
 6963TIP3    H220854   2.004   4.396   4.003 -0.4987 -1.3204  0.4675
 6964TIP3   OH220855   1.943   0.002   4.599 -0.1236 -0.0185 -0.3472
 6964TIP3    H120856   1.978  -0.023   4.513 -0.5183 -1.8772 -0.0108
 6964TIP3    H220857   1.999   0.075   4.627  0.9784 -0.3742 -1.5182
 6965TIP3   OH220858   6.036   2.133   5.310 -0.1926  0.0628 -0.2476
 6965TIP3    H120859   6.034   2.216   5.355 -0.0688  0.8312 -1.5952
 6965TIP3    H220860   5.966   2.082   5.349 -0.8318  1.1233  0.0108
 6966TIP3   OH220861   3.087   1.557   1.330  0.2275  0.3154  0.6171
 6966TIP3    H120862   3.176   1.556   1.366  0.3903  3.6643  0.5929
 6966TIP3    H220863   3.099   1.547   1.235  0.4908 -0.1111  0.6938
 6967TIP3   OH220864   0.963   3.612   4.741  0.1629 -0.0156  0.1363
 6967TIP3    H120865   1.034   3.669   4.710 -1.1821  1.8224  0.2405
 6967TIP3    H220866   1.004   3.528   4.756  2.2291  0.8732 -0.2244
 6968TIP3   OH220867   3.313   5.392   3.236 -0.3071 -0.0644 -0.4824
 6968TIP3    H120868   3.281   5.467   3.286  0.3573  0.4405 -0.7891
 6968TIP3    H220869   3.252   5.384   3.162 -1.2792 -0.8040  0.3717
 6969TIP3   OH220870   2.904   3.106   1.895 -0.3254  0.0413  0.0692
 6969TIP3    H120871   2.846   3.174   1.860 -2.1289  0.0416  2.7031
 6969TIP3    H220872   2.845   3.037   1.925  1.1518 -0.7419  1.3487
 6970TIP3   OH220873   5.531   2.868   0.793 -0.1110 -0.0192 -0.4668
 6970TIP3    H120874   5.440   2.894   0.777 -0.6093 -2.0084 -1.2972
 6970TIP3    H220875   5.527   2.772   0.801  1.9774 -0.2086 -1.0764
 6971TIP3   OH220876   0.119   5.003   5.291 -0.0194  0.4725 -0.4254
 6971TIP3    H120877   0.152   4.915   5.307 -1.6320 -0.3466 -1.3785
 6971TIP3    H220878   0.103   5.006   5.197 -4.5794 -0.0037  0.1419
 6972TIP3   OH220879   2.248   2.065   1.053 -0.2142 -0.2050  0.1640
 6972TIP3    H120880   2.335   2.041   1.020 -0.5758 -1.7015  0.2359
 6972TIP3    H220881   2.211   2.121   0.985  1.2128  1.3879  0.6331
 6973TIP3   OH220882   2.130   3.503   5.490 -0.2250 -0.0791  0.5470
 6973TIP3    H120883   2.085   3.427   5.528  0.9583  0.0684  2.3939
 6973TIP3    H220884   2.223   3.487   5.507  0.3024  0.4657 -1.5768
 6974TIP3   OH220885   4.970   1.919   0.898 -0.3694 -0.8327  0.0902
 6974TIP3    H120886   4.982   2.006   0.860 -0.1186 -1.2247 -0.7409
 6974TIP3    H220887   4.960   1.935   0.992 -2.8527  0.3521 -0.2876
 6975TIP3   OH220888   1.318   1.710   0.650  0.0173  0.3850 -0.1571
 6975TIP3    H120889   1.316   1.720   0.745 -1.9425  0.3004 -0.1399
 6975TIP3    H220890   1.319   1.616   0.635  1.0713  0.4017 -0.2374
 6976TIP3   OH220891   6.252   5.669   0.858 -0.0188 -0.1107  0.0901
 6976TIP3    H120892   6.289   5.598   0.805  0.8870  0.4257 -0.0126
 6976TIP3    H220893   6.172   5.694   0.811  0.6203  0.1655 -0.8840
 6977TIP3   OH220894   6.839   4.029   5.600  0.0046  0.0718 -0.5246
 6977TIP3    H120895   6.793   3.987   5.672 -2.3690  1.9821 -0.8096
 6977TIP3    H220896   6.821   3.973   5.524  1.5931 -1.3350  0.0616
 6978TIP3   OH220897   0.492   6.045   3.369  0.0526 -0.3868 -0.1901
 6978TIP3    H120898   0.570   6.099   3.387 -0.3099 -0.5244  2.0857
 6978TIP3    H220899   0.513   6.000   3.287  1.0257  1.9757 -1.3243
 6979TIP3   OH220900   4.726   5.297   4.820 -0.6055 -0.0556 -0.0140
 6979TIP3    H120901   4.760   5.376   4.778  0.4174 -0.3336  0.2621
 6979TIP3    H220902   4.784   5.227   4.790 -2.1838 -0.9306 -1.1801
 6980TIP3   OH220903   0.850   5.030   0.251 -0.1921  0.4942 -0.2015
 6980TIP3    H120904   0.784   5.069   0.194 -0.8115  0.7743  0.6785
 6980TIP3    H220905   0.933   5.052   0.210 -0.6082  1.0665 -0.7637
 6981TIP3   OH220906   2.901   5.979   5.014  0.7496 -0.0909 -0.0222
 6981TIP3    H120907   2.826   5.920   5.008 -1.0289  2.1027 -0.8300
 6981TIP3    H220908   2.911   5.995   5.107  0.6647 -0.9401  0.1406
 6982TIP3   OH220909   1.264   6.496   3.951 -0.1524 -0.6355 -0.7281
 6982TIP3    H120910   1.205   6.514   3.879 -0.7956 -1.0629 -0.3100
 6982TIP3    H220911   1.344   6.462   3.909  0.0417  0.5034 -1.3314
 6983TIP3   OH220912   2.757   2.040   1.434  0.2479  0.1532 -0.0662
 6983TIP3    H120913   2.670   2.000   1.435 -0.5495  1.7782  1.8953
 6983TIP3    H220914   2.816   1.968   1.455 -0.7316 -0.7228 -0.1875
 6984TIP3   OH220915   4.779   1.375   5.759  0.3432 -0.5047  0.2103
 6984TIP3    H120916   4.872   1.379   5.779  0.1265 -0.2858  1.2520
 6984TIP3    H220917   4.775   1.375   5.663  1.4278 -1.1138  0.1498
 6985TIP3   OH220918   4.123   5.736   1.680 -0.1797 -0.0076  0.4911
 6985TIP3    H120919   4.045   5.767   1.634  0.5158 -1.0089 -1.4543
 6985TIP3    H220920   4.175   5.815   1.695 -0.1934  0.2842 -0.9160
 6986TIP3   OH220921   4.736   5.471   3.482  0.1350 -0.6318 -0.5537
 6986TIP3    H120922   4.652   5.427   3.475 -0.3566  0.3506 -1.0672
 6986TIP3    H220923   4.752   5.507   3.394  0.6880 -0.0965 -0.2452
 6987TIP3   OH220924   7.217   0.158   4.145 -0.5512 -0.1488  0.0557
 6987TIP3    H120925   7.125   0.152   4.170 -0.6716 -2.0581 -0.7035
 6987TIP3    H220926   7.218   0.141   4.051  0.5911 -0.3472  0.0907
 6988TIP3   OH220927   5.205   2.962   2.828  0.0795 -0.4422 -0.4028
 6988TIP3    H120928   5.168   2.889   2.878 -0.1566 -0.4735 -0.6209
 6988TIP3    H220929   5.160   2.959   2.743 -0.6883  0.5823 -0.0527
 6989TIP3   OH220930   3.274   0.443   0.844 -0.4103 -0.5877 -0.2105
 6989TIP3    H120931   3.339   0.433   0.912 -1.0868 -3.3784  0.1398
 6989TIP3    H220932   3.213   0.509   0.878 -0.6412 -1.7977  1.8384
 6990TIP3   OH220933   0.748   2.766   4.519  0.4191 -0.2838 -0.1501
 6990TIP3    H120934   0.703   2.723   4.591 -1.4795  2.2029  0.2828
 6990TIP3    H220935   0.678   2.796   4.461  1.4297  3.0643  0.1515
 6991TIP3   OH220936   6.793   1.483   4.206  0.4461  0.6277  0.1092
 6991TIP3    H120937   6.723   1.521   4.153 -0.7058 -1.2734  0.1878
 6991TIP3    H220938   6.830   1.414   4.152  2.9386  2.1340 -0.2858
 6992TIP3   OH220939   2.705   5.289   2.294  0.8429  0.3563  0.2159
 6992TIP3    H120940   2.733   5.343   2.368  1.9358 -0.1387  0.1927
 6992TIP3    H220941   2.653   5.348   2.239  2.6983  1.6861 -0.2495
 6993TIP3   OH220942   1.273   5.826   5.442 -0.3242 -0.1869 -0.1389
 6993TIP3    H120943   1.213   5.898   5.421 -0.3271  0.0570  0.6556
 6993TIP3    H220944   1.247   5.798   5.530 -0.2695 -1.1115 -0.4034
 6994TIP3   OH220945   4.336   5.255   1.832 -0.0813  0.3221  0.1284
 6994TIP3    H120946   4.330   5.261   1.927 -1.2425  0.2573  0.0672
 6994TIP3    H220947   4.262   5.305   1.800 -0.2481 -0.4438 -0.7286
 6995TIP3   OH220948   5.754   4.337   5.741 -0.3576  0.5342 -0.0874
 6995TIP3    H120949   5.668   4.306   5.711 -1.5155  2.5556  0.9688
 6995TIP3    H220950   5.789   4.263   5.791 -1.4431 -0.3380 -0.5642
 6996TIP3   OH220951   5.746   1.374   1.702 -0.4450 -0.0617 -0.1396
 6996TIP3    H120952   5.755   1.468   1.714  0.6477  0.1073 -1.8396
 6996TIP3    H220953   5.830   1.346   1.665 -0.8909 -1.6361 -0.0588
 6997TIP3   OH220954   3.486   6.535   0.997 -0.0879  0.3288  0.9965
 6997TIP3    H120955   3.471   6.611   1.053  0.4491  0.0231  1.5754
 6997TIP3    H220956   3.454   6.561   0.911 -1.3597  0.6462  1.5455
 6998TIP3   OH220957   4.201   0.099   3.308 -0.2830  0.3903  0.0100
 6998TIP3    H120958   4.296   0.111   3.301 -0.3057  0.1968 -0.7576
 6998TIP3    H220959   4.176   0.148   3.386  0.3680  0.9331 -0.1150
 6999TIP3   OH220960   0.384   4.716   5.868 -0.6568 -0.5419 -0.0078
 6999TIP3    H120961   0.421   4.644   5.818  0.8305 -0.6543  1.1795
 6999TIP3    H220962   0.429   4.712   5.953  0.3604  2.4971 -0.2959
 7000TIP3   OH220963   5.087   2.840   5.196 -0.9545 -0.6079 -0.6758
 7000TIP3    H120964   5.051   2.928   5.187 -1.6052 -0.7258  0.5969
 7000TIP3    H220965   5.177   2.853   5.227 -1.0880 -0.4002 -0.3793
 7001TIP3   OH220966   3.764   0.847   2.237 -0.2579 -0.1887 -1.0404
 7001TIP3    H120967   3.761   0.854   2.142 -0.0225 -1.0216 -1.1210
 7001TIP3    H220968   3.786   0.755   2.254 -0.0084  0.0107 -0.1897
 7002TIP3   OH220969   4.651   2.946   0.612  0.0843 -0.2548 -0.1700
 7002TIP3    H120970   4.623   3.020   0.559  1.9194  0.0669 -0.7776
 7002TIP3    H220971   4.667   2.876   0.549  0.3786 -0.4965  0.1660
 7003TIP3   OH220972   0.489   2.986   2.859  0.6536  0.0752  0.0050
 7003TIP3    H120973   0.429   2.952   2.793  1.7373 -1.9874 -0.0162
 7003TIP3    H220974   0.482   3.081   2.852 -2.0542 -0.0728 -0.4462
 7004TIP3   OH220975   5.922   6.152   2.202 -0.1531 -0.4811  0.1568
 7004TIP3    H120976   5.859   6.100   2.152 -0.4637 -0.8278  0.8891
 7004TIP3    H220977   6.007   6.111   2.182 -0.4020 -1.3438  0.7849
 7005TIP3   OH220978   3.546   5.921   0.935  0.7148  0.2117  0.3780
 7005TIP3    H120979   3.636   5.950   0.949  1.0565  0.0653 -1.3867
 7005TIP3    H220980   3.493   5.992   0.970  1.5077  0.6811  0.6687
 7006TIP3   OH220981   4.675   4.048   2.142  0.5108  0.2815 -0.2011
 7006TIP3    H120982   4.666   4.018   2.052 -0.1594  1.9347 -0.7283
 7006TIP3    H220983   4.758   4.096   2.142 -0.0070  1.1932 -0.2274
 7007TIP3   OH220984   1.545   2.945   2.696 -0.0592  0.5672  0.1759
 7007TIP3    H120985   1.563   3.039   2.691  1.2494  0.2731 -1.5965
 7007TIP3    H220986   1.618   2.910   2.748  0.4049  0.3329 -0.6181
 7008TIP3   OH220987   3.097   5.942   4.109  0.4187 -0.1741  0.3143
 7008TIP3    H120988   3.118   6.031   4.138 -0.5114  0.7453 -1.6168
 7008TIP3    H220989   3.041   5.907   4.178  0.1790  1.0472  0.7634
 7009TIP3   OH220990   4.476   0.520   2.221  0.0701 -0.0493  0.3410
 7009TIP3    H120991   4.387   0.543   2.195  0.3449  1.1164  0.3862
 7009TIP3    H220992   4.501   0.449   2.162  0.5292  2.2111 -2.3831
 7010TIP3   OH220993   2.007   1.925   5.100  0.6862  0.7218 -0.4709
 7010TIP3    H120994   1.949   1.975   5.157  0.1702  0.2050 -0.5270
 7010TIP3    H220995   2.043   1.857   5.156 -0.3138 -0.1814 -0.8762
 7011TIP3   OH220996   2.398   4.638   0.140 -0.0987 -0.0912  0.0847
 7011TIP3    H120997   2.382   4.553   0.180 -0.7881 -0.2482 -0.5088
 7011TIP3    H220998   2.440   4.690   0.209  0.2905 -0.8885  0.4612
 7012TIP3   OH220999   0.980   3.278   5.772 -0.0636  0.2629  0.2336
 7012TIP3    H121000   0.954   3.218   5.703  0.3432 -1.2563  1.3544
 7012TIP3    H221001   1.055   3.236   5.814  0.8921  2.0342  0.4377
 7013TIP3   OH221002   6.410   6.321   5.424 -0.5027  0.0103 -0.7885
 7013TIP3    H121003   6.498   6.337   5.389 -1.1627  1.6264 -1.7892
 7013TIP3    H221004   6.381   6.241   5.379  0.5359 -0.6947 -0.2436
 7014TIP3   OH221005   6.020   3.843   4.001 -0.0714 -0.0231 -0.3349
 7014TIP3    H121006   5.954   3.821   4.067  0.0912  0.8057  0.1234
 7014TIP3    H221007   6.009   3.777   3.933  0.5205 -1.6052  1.0450
 7015TIP3   OH221008   5.468   6.691   4.425  0.1947  0.2761 -0.3028
 7015TIP3    H121009   5.434   6.767   4.378 -1.1871  0.2165  0.5661
 7015TIP3    H221010   5.405   6.622   4.408  1.7605 -0.9155 -1.6051
 7016TIP3   OH221011   3.729   0.697   0.822 -0.0208  0.2917 -0.0631
 7016TIP3    H121012   3.706   0.609   0.851  1.1341  0.2755  0.8741
 7016TIP3    H221013   3.811   0.686   0.773 -0.6702  0.6590 -1.2869
 7017TIP3   OH221014   5.883   1.888   3.285 -0.1844 -0.4390 -0.2486
 7017TIP3    H121015   5.790   1.884   3.263 -0.8239 -0.0188  2.0318
 7017TIP3    H221016   5.904   1.981   3.280  0.6784 -0.7052 -2.6126
 7018TIP3   OH221017   6.123   0.047   3.904  0.1951  0.8612  0.6697
 7018TIP3    H121018   6.211   0.069   3.931  0.9650  2.1237 -2.4525
 7018TIP3    H221019   6.131   0.025   3.811 -2.4640 -1.1196  0.7790
 7019TIP3   OH221020   2.028   1.645   3.953  0.0912  0.0334  0.1917
 7019TIP3    H121021   2.000   1.714   4.012  0.4178 -1.5705  2.3665
 7019TIP3    H221022   2.104   1.605   3.997  0.0075 -1.6006 -1.0368
 7020TIP3   OH221023   7.180   4.092   3.426 -0.4164 -0.4646  0.4321
 7020TIP3    H121024   7.169   4.165   3.365 -0.9342 -0.7362  0.1864
 7020TIP3    H221025   7.181   4.014   3.370  1.8374 -0.5623  0.5338
 7021TIP3   OH221026   0.206   5.266   4.061  0.7461 -0.3275  0.1494
 7021TIP3    H121027   0.134   5.249   4.122  2.3463  1.4029  2.6891
 7021TIP3    H221028   0.247   5.180   4.049 -0.7827 -1.0508 -0.1099
 7022TIP3   OH221029   3.632   4.156   5.592  0.3879 -0.0099 -0.9186
 7022TIP3    H121030   3.560   4.176   5.532  0.5521  0.4047 -0.9805
 7022TIP3    H221031   3.620   4.063   5.613  0.1717 -0.0919 -1.3815
 7023TIP3   OH221032   4.495   0.127   5.116  0.4690 -0.2844  0.1643
 7023TIP3    H121033   4.531   0.191   5.178 -2.1189 -0.0378  1.5627
 7023TIP3    H221034   4.558   0.126   5.044  2.2336  1.4530  1.5431
 7024TIP3   OH221035   3.811   0.281   1.658  0.1555 -0.8618 -0.4835
 7024TIP3    H121036   3.818   0.357   1.601 -1.9931 -1.7269 -2.0927
 7024TIP3    H221037   3.900   0.246   1.664  1.4370  2.3047  1.2661
 7025TIP3   OH221038   6.036   5.908   1.436 -0.1751  0.0971 -0.8206
 7025TIP3    H121039   6.061   5.829   1.483 -1.4593  0.7244  1.0046
 7025TIP3    H221040   6.090   5.977   1.475 -1.5855  0.7045  0.1380
 7026TIP3   OH221041   4.069   4.403   0.254  0.1534 -0.4007  0.3267
 7026TIP3    H121042   4.004   4.333   0.253  0.9209 -1.1226 -0.2670
 7026TIP3    H221043   4.097   4.411   0.163  1.5539 -0.7321  0.7146
 7027TIP3   OH221044   4.894   2.918   2.441 -0.5631 -0.1504  0.2343
 7027TIP3    H121045   4.828   2.970   2.487 -1.2349 -1.5195  0.9072
 7027TIP3    H221046   4.927   2.975   2.372 -0.8775  1.3190  1.2604
 7028TIP3   OH221047   6.417   2.761   3.751  0.5364  0.0347  0.1357
 7028TIP3    H121048   6.477   2.835   3.757  1.0393 -0.4183  0.9052
 7028TIP3    H221049   6.346   2.791   3.695  1.3767  0.6550 -0.6123
 7029TIP3   OH221050   0.662   0.548   2.742  0.3760 -0.4116  0.0612
 7029TIP3    H121051   0.743   0.590   2.771  0.4554 -1.0767  0.8297
 7029TIP3    H221052   0.679   0.454   2.753 -0.5931 -0.5428  0.4838
 7030TIP3   OH221053   2.243   4.587   2.251 -0.1006  0.2076 -0.6167
 7030TIP3    H121054   2.166   4.530   2.243  0.2589 -0.4362  0.2869
 7030TIP3    H221055   2.236   4.647   2.177 -0.5603 -0.9432 -1.5487
 7031TIP3   OH221056   4.477   1.614   3.490 -0.4950  0.2891  0.0944
 7031TIP3    H121057   4.440   1.575   3.569 -1.1156 -1.1550 -0.8549
 7031TIP3    H221058   4.440   1.562   3.418 -3.2804  4.0681 -1.5162
 7032TIP3   OH221059   2.223   3.125   2.320 -0.1763 -0.4418 -0.1564
 7032TIP3    H121060   2.140   3.098   2.358  1.1144 -1.3225  2.2132
 7032TIP3    H221061   2.250   3.201   2.371  0.7733 -0.5575 -0.4591
 7033TIP3   OH221062   1.101   5.011   2.119 -0.3366  0.2728  0.0511
 7033TIP3    H121063   1.051   4.978   2.194  1.5909 -0.3581  1.1334
 7033TIP3    H221064   1.103   4.938   2.057  0.1271 -0.0740  0.4706
 7034TIP3   OH221065   3.541   1.482   0.027  0.6698  0.3923 -0.2170
 7034TIP3    H121066   3.457   1.517  -0.001  0.3115 -0.7047 -0.5668
 7034TIP3    H221067   3.592   1.559   0.054 -0.8459  0.9933  1.1155
 7035TIP3   OH221068   0.708   4.914   2.476 -0.3953 -0.1550  0.0848
 7035TIP3    H121069   0.766   4.975   2.521  1.1980 -1.1215 -0.5726
 7035TIP3    H221070   0.663   4.969   2.411  0.2759  0.5063  0.1584
 7036TIP3   OH221071   4.999   2.465   0.384 -0.0987 -0.7427 -0.2392
 7036TIP3    H121072   5.039   2.542   0.425 -0.8300 -0.0201 -0.8551
 7036TIP3    H221073   4.905   2.477   0.398 -0.4794  0.0172 -2.9026
 7037TIP3   OH221074   0.209   4.416   2.539 -0.1411  0.0332 -0.2306
 7037TIP3    H121075   0.234   4.392   2.628 -0.7805  1.1308  0.2714
 7037TIP3    H221076   0.258   4.357   2.483 -0.5438 -1.4041  0.8808
 7038TIP3   OH221077   3.707   0.875   3.954 -0.0424  0.1945  0.2461
 7038TIP3    H121078   3.797   0.851   3.931  0.1660  0.0529  1.1618
 7038TIP3    H221079   3.677   0.803   4.010  0.1086  1.3627  1.8852
 7039TIP3   OH221080   6.046   3.193   3.129 -0.1862 -1.1017 -0.1058
 7039TIP3    H121081   6.050   3.271   3.074  0.0152 -1.4925 -0.6584
 7039TIP3    H221082   5.969   3.146   3.098  0.4438 -1.7814 -0.6994
 7040TIP3   OH221083   1.442   4.490   5.073 -0.2852 -0.0853  0.5920
 7040TIP3    H121084   1.494   4.508   5.151 -1.4262 -1.0430  1.6054
 7040TIP3    H221085   1.493   4.424   5.026  0.1813  0.1586  0.7411
 7041TIP3   OH221086   6.119   2.952   3.263  0.0225  0.0803 -0.2614
 7041TIP3    H121087   6.118   3.041   3.229  0.3857 -0.2371 -1.1350
 7041TIP3    H221088   6.150   2.899   3.190  2.5506 -0.4136  1.0533
 7042TIP3   OH221089   1.074   4.812   0.598  0.0624 -0.2506  0.4212
 7042TIP3    H121090   1.127   4.793   0.521  1.3875  0.5928  1.0866
 7042TIP3    H221091   1.035   4.728   0.622  0.3350 -0.6888 -0.6487
 7043TIP3   OH221092   3.468   6.652   5.417  1.1309  0.2425  0.9579
 7043TIP3    H121093   3.444   6.662   5.324 -0.4985  1.3415  1.4565
 7043TIP3    H221094   3.435   6.731   5.459  1.3710 -0.4824  2.5925
 7044TIP3   OH221095   1.457   4.269   0.630  0.0566  0.3331  0.2597
 7044TIP3    H121096   1.494   4.308   0.551  0.9114 -2.5411 -0.8843
 7044TIP3    H221097   1.515   4.297   0.701  0.3918  1.3984 -0.4206
 7045TIP3   OH221098   1.815   5.768   5.531 -0.1935  0.1626 -0.0250
 7045TIP3    H121099   1.781   5.821   5.459 -0.5562  0.6253  0.4818
 7045TIP3    H221100   1.757   5.692   5.534  0.9882 -0.8694 -1.4757
 7046TIP3   OH221101   2.218   3.091   3.920  0.2398 -0.2822  0.0899
 7046TIP3    H121102   2.156   3.096   3.993 -1.8840 -1.2273 -1.5406
 7046TIP3    H221103   2.272   3.014   3.940  1.0244  0.5986  1.5695
 7047TIP3   OH221104   7.211   6.831   0.232  0.3017  0.5902  0.3783
 7047TIP3    H121105   7.255   6.757   0.191  0.2706 -1.3634  3.5275
 7047TIP3    H221106   7.118   6.817   0.215  0.3559  0.3919  0.2544
 7048TIP3   OH221107   1.049   5.231   5.489  0.1635 -0.2021  0.2981
 7048TIP3    H121108   1.113   5.236   5.418  0.6128  1.5343  0.7916
 7048TIP3    H221109   1.101   5.202   5.565  0.5904  1.9421  0.8859
 7049TIP3   OH221110   3.447   4.196   4.976  0.2698  0.0900 -0.8259
 7049TIP3    H121111   3.486   4.217   4.891  0.8106  0.8617 -0.4055
 7049TIP3    H221112   3.513   4.143   5.020  0.4739  0.6407 -0.4589
 7050TIP3   OH221113   1.648   1.227   5.427  0.2369 -0.0571  0.7671
 7050TIP3    H121114   1.666   1.188   5.341  0.6834  1.7567 -0.0092
 7050TIP3    H221115   1.553   1.243   5.426  0.2633  0.0854  0.5579
 7051TIP3   OH221116   5.857   5.219   0.040  0.6469 -0.6661  0.2333
 7051TIP3    H121117   5.902   5.229   0.124  1.8652  0.5838 -0.5149
 7051TIP3    H221118   5.861   5.125   0.021  0.0935 -1.0078  1.6827
 7052TIP3   OH221119   5.466   1.056   1.804  0.2601 -0.5658  0.3449
 7052TIP3    H121120   5.426   1.057   1.891  1.2494 -0.8044  0.8169
 7052TIP3    H221121   5.556   1.086   1.818 -0.6202  3.4758 -1.2115
 7053TIP3   OH221122   5.978   3.879   3.491 -0.5438  0.6093  0.0100
 7053TIP3    H121123   6.067   3.850   3.512 -1.7777 -1.6762  2.8188
 7053TIP3    H221124   5.973   3.967   3.527  0.3576  0.4429  0.5852
 7054TIP3   OH221125   4.367   5.920   4.164  0.1933 -0.3255  0.1012
 7054TIP3    H121126   4.391   5.852   4.101  2.0479 -0.4180  0.8285
 7054TIP3    H221127   4.374   5.877   4.249  1.2088  0.7054  0.5583
 7055TIP3   OH221128   0.334   5.443   4.661  0.2043  0.0916  0.5179
 7055TIP3    H121129   0.311   5.528   4.697  0.4503 -0.1287  1.2075
 7055TIP3    H221130   0.417   5.458   4.616  0.0502  0.2973  0.2972
 7056TIP3   OH221131   0.374   3.739   3.683 -0.0627 -0.4763 -0.1159
 7056TIP3    H121132   0.366   3.750   3.588  1.4443  1.1587 -0.1118
 7056TIP3    H221133   0.353   3.825   3.719 -0.3850 -1.0116  1.0411
 7057TIP3   OH221134   0.375   2.154   1.581  0.5234  0.0868 -0.0926
 7057TIP3    H121135   0.312   2.115   1.521  0.6428 -0.8460  0.3548
 7057TIP3    H221136   0.452   2.173   1.527  0.7943 -1.1472 -0.1851
 7058TIP3   OH221137   1.440   1.369   2.596  0.2348  0.0836 -0.1821
 7058TIP3    H121138   1.371   1.435   2.594  0.9716  0.9089  0.8396
 7058TIP3    H221139   1.403   1.297   2.646 -0.1201  0.2385 -0.2157
 7059TIP3   OH221140   5.494   2.610   0.907  0.0144  0.2861 -0.6733
 7059TIP3    H121141   5.422   2.559   0.870 -2.2317  1.2685  2.0318
 7059TIP3    H221142   5.531   2.554   0.975  0.3194  0.6464 -0.5391
 7060TIP3   OH221143   0.466   2.645   2.568 -0.8408 -0.2519  0.0170
 7060TIP3    H121144   0.440   2.642   2.475  0.2452 -0.4806 -0.2865
 7060TIP3    H221145   0.551   2.688   2.567 -1.0855  0.2743  0.9786
 7061TIP3   OH221146   7.206   4.145   1.111 -0.3723  0.2849  0.2109
 7061TIP3    H121147   7.147   4.074   1.087  0.7000 -0.6274  0.2099
 7061TIP3    H221148   7.164   4.186   1.186  0.2821 -2.1382  2.0519
 7062TIP3   OH221149   1.846   5.312   2.526 -0.1361 -0.2872 -0.1312
 7062TIP3    H121150   1.761   5.355   2.533  0.1071  0.0646  0.7527
 7062TIP3    H221151   1.909   5.379   2.554  0.4138 -0.6176 -0.5580
 7063TIP3   OH221152   0.115   3.383   3.937 -0.5344 -0.1358  0.3507
 7063TIP3    H121153   0.157   3.358   4.019 -0.7857 -0.5507  0.3568
 7063TIP3    H221154   0.187   3.396   3.876 -0.3367  0.3798  0.6944
 7064TIP3   OH221155   3.429   0.710   0.959  0.2721  0.0935 -0.2192
 7064TIP3    H121156   3.443   0.788   1.013 -4.2715  0.0005  1.5173
 7064TIP3    H221157   3.443   0.740   0.870  2.2502  1.8281  0.5840
 7065TIP3   OH221158   2.446   6.094   1.792  0.1181  0.2525 -0.3253
 7065TIP3    H121159   2.362   6.079   1.836 -0.9418 -0.2153 -2.3700
 7065TIP3    H221160   2.452   6.025   1.726  2.1159  0.2933 -0.2605
 7066TIP3   OH221161   6.994   0.271   3.356  0.2191  0.1357 -0.4641
 7066TIP3    H121162   6.973   0.178   3.366 -1.2299  0.3987 -0.8499
 7066TIP3    H221163   6.915   0.317   3.385  0.5338  1.2176 -1.2388
 7067TIP3   OH221164   0.288   0.341   2.934  0.5343 -0.0660  0.1409
 7067TIP3    H121165   0.197   0.349   2.964  0.1241  1.9632 -1.3915
 7067TIP3    H221166   0.303   0.421   2.883  2.7196 -1.0572 -0.8890
 7068TIP3   OH221167   2.164   4.943   4.767 -0.0025 -0.3301  0.4532
 7068TIP3    H121168   2.186   4.860   4.723 -0.5239 -0.0027 -0.4479
 7068TIP3    H221169   2.163   4.920   4.860  0.8470 -1.1059  0.2894
 7069TIP3   OH221170   2.592   3.285   2.260 -0.2879  0.3377  0.0831
 7069TIP3    H121171   2.571   3.192   2.254  1.4709 -0.0328 -1.7686
 7069TIP3    H221172   2.536   3.327   2.194  2.1168 -0.1704 -2.4529
 7070TIP3   OH221173   0.987   1.912   1.268  0.8600  0.1752 -0.4904
 7070TIP3    H121174   1.035   1.971   1.327 -0.1247  1.6815 -1.1307
 7070TIP3    H221175   0.896   1.919   1.296  0.3666  0.9185 -2.1268
 7071TIP3   OH221176   4.864   1.163   2.908 -0.0895  0.0426 -0.2207
 7071TIP3    H121177   4.854   1.081   2.859  0.2142 -0.4028  0.4457
 7071TIP3    H221178   4.776   1.181   2.942 -0.3907  0.5573 -1.2131
 7072TIP3   OH221179   6.099   6.464   5.012 -0.4321  0.3590  0.5064
 7072TIP3    H121180   6.059   6.407   5.078  0.3741 -2.5333 -1.3611
 7072TIP3    H221181   6.193   6.454   5.026 -0.2430 -0.6388 -1.3146
 7073TIP3   OH221182   2.017   6.689   4.690 -0.5220 -0.3952 -0.3518
 7073TIP3    H121183   1.970   6.619   4.734 -0.4929  0.0773  0.4532
 7073TIP3    H221184   2.110   6.671   4.708 -0.4751 -0.5185 -0.7104
 7074TIP3   OH221185   2.310   1.526   4.980 -0.0461 -0.2851  0.3583
 7074TIP3    H121186   2.257   1.603   4.962  0.4119  0.2131  1.1001
 7074TIP3    H221187   2.270   1.457   4.927 -0.8593  0.2981  0.1869
 7075TIP3   OH221188   4.998   5.562   5.295 -0.3312  0.4119  0.5192
 7075TIP3    H121189   4.962   5.634   5.347  0.7429  0.8265  0.7124
 7075TIP3    H221190   4.975   5.483   5.345  0.1900  0.7637  1.3326
 7076TIP3   OH221191   6.850   3.159   0.638  0.6653 -0.1592  0.3259
 7076TIP3    H121192   6.898   3.151   0.555  2.1832 -0.7675  1.2075
 7076TIP3    H221193   6.819   3.249   0.639 -1.5919 -0.8064 -2.0091
 7077TIP3   OH221194   3.065   0.189   2.783  0.5005  0.3377 -0.1385
 7077TIP3    H121195   3.103   0.189   2.870 -0.1299  0.4796  0.1437
 7077TIP3    H221196   2.979   0.147   2.794  0.8797 -0.6894 -0.9031
 7078TIP3   OH221197  -0.002   1.039   4.496 -0.0480 -0.0394  0.1015
 7078TIP3    H121198   0.060   0.967   4.502  0.3869  0.3080 -0.2138
 7078TIP3    H221199   0.003   1.069   4.405 -1.5971 -0.8266 -0.2826
 7079TIP3   OH221200   1.616   4.320   4.584  0.5669  0.2518 -0.0677
 7079TIP3    H121201   1.523   4.345   4.577  0.4799  0.5452  1.7365
 7079TIP3    H221202   1.625   4.246   4.524 -0.9158  0.0278 -0.0639
 7080TIP3   OH221203   1.028   3.044   4.009 -0.2242 -0.5107 -0.0955
 7080TIP3    H121204   1.054   3.002   4.091  1.6102 -1.3328 -1.0439
 7080TIP3    H221205   0.955   3.102   4.034 -0.8920 -2.0423  1.7747
 7081TIP3   OH221206   4.981   2.717   5.453  0.3191  0.1634  0.2289
 7081TIP3    H121207   5.063   2.705   5.405  0.4832 -2.1015  0.9199
 7081TIP3    H221208   4.955   2.628   5.478 -1.0884  1.0362  2.1210
 7082TIP3   OH221209   4.680   0.158   2.336 -0.0584  0.2264  0.1742
 7082TIP3    H121210   4.731   0.077   2.326 -2.4689 -1.3737  0.0566
 7082TIP3    H221211   4.637   0.170   2.251 -2.6021 -0.5248  1.2612
 7083TIP3   OH221212   6.874   4.918   2.594  0.1132  0.2029  0.5763
 7083TIP3    H121213   6.813   4.905   2.522 -0.6988  0.5552  1.1881
 7083TIP3    H221214   6.825   4.893   2.672  0.7511  0.4927  1.0817
 7084TIP3   OH221215   5.002   3.845   0.722 -0.7326  0.5028  0.2402
 7084TIP3    H121216   5.073   3.848   0.786 -0.1985  0.6187 -0.3455
 7084TIP3    H221217   5.035   3.787   0.653 -1.8275 -0.6845  0.6699
 7085TIP3   OH221218   6.111   1.939   2.876 -0.3080 -0.6209  0.4696
 7085TIP3    H121219   6.081   1.882   2.947  0.0362  1.0429  2.0317
 7085TIP3    H221220   6.049   2.012   2.877  0.5054  0.0831 -0.0361
 7086TIP3   OH221221   6.950   0.156   4.351  0.0623 -0.1878  0.4220
 7086TIP3    H121222   7.018   0.092   4.374 -0.3947 -0.8297  0.0323
 7086TIP3    H221223   6.875   0.132   4.405 -0.7766 -1.2526 -1.1184
 7087TIP3   OH221224   3.140   1.594   5.333  0.5040  0.2976  0.0085
 7087TIP3    H121225   3.068   1.619   5.391 -0.3770 -0.6826 -0.5987
 7087TIP3    H221226   3.203   1.550   5.389  0.8226  1.5092  0.6190
 7088TIP3   OH221227   0.472   1.277   2.994 -0.2687  0.1364  0.1082
 7088TIP3    H121228   0.378   1.287   2.976 -0.9871 -1.5266  2.3339
 7088TIP3    H221229   0.504   1.366   3.005 -1.6843  0.7358 -0.3392
 7089TIP3   OH221230   0.215   6.758   5.722 -0.5084  0.1692 -0.0622
 7089TIP3    H121231   0.190   6.832   5.666 -1.6860  0.0672  0.3145
 7089TIP3    H221232   0.171   6.774   5.805  0.9447  0.1323  0.7584
 7090TIP3   OH221233   5.720   0.815   5.164 -0.4660  0.5118  0.2855
 7090TIP3    H121234   5.799   0.863   5.189  1.2596 -1.2474 -1.4069
 7090TIP3    H221235   5.677   0.871   5.099  0.4296  0.6924 -0.1718
 7091TIP3   OH221236   2.372   2.445   0.751 -0.8837  0.4691  0.4418
 7091TIP3    H121237   2.455   2.477   0.715  0.3322 -2.2628  0.5904
 7091TIP3    H221238   2.364   2.490   0.836  1.3819 -0.4710  1.2315
 7092TIP3   OH221239   1.205   5.686   5.678 -0.6445 -0.3834 -0.1301
 7092TIP3    H121240   1.185   5.625   5.607  1.2602 -1.4338  0.1641
 7092TIP3    H221241   1.195   5.634   5.758  2.0772 -0.7590  0.0785
 7093TIP3   OH221242   2.116   1.951   2.491 -0.1413 -0.6705  0.8092
 7093TIP3    H121243   2.158   1.933   2.408 -1.1490  0.5215 -0.0072
 7093TIP3    H221244   2.185   1.943   2.557  1.4517  1.4930 -0.4897
 7094TIP3   OH221245   0.728   6.564   3.596  0.7309  0.2054  0.0521
 7094TIP3    H121246   0.693   6.558   3.507  0.0057 -2.5160  0.4497
 7094TIP3    H221247   0.808   6.511   3.594  0.9166  0.4274  0.9444
 7095TIP3   OH221248   5.327   2.435   1.262 -0.1128  0.4011 -0.5243
 7095TIP3    H121249   5.347   2.342   1.257  0.3026  0.5418 -2.2685
 7095TIP3    H221250   5.322   2.454   1.356  2.4484 -0.8259 -0.0555
 7096TIP3   OH221251   4.741   5.114   1.939  0.9771  0.4115 -0.4909
 7096TIP3    H121252   4.772   5.194   1.896 -1.3370  1.8456  0.3256
 7096TIP3    H221253   4.800   5.103   2.014  0.5550  2.1499  0.1496
 7097TIP3   OH221254   0.339   5.517   2.804 -0.4151  0.3550  0.1940
 7097TIP3    H121255   0.322   5.466   2.725 -3.2260 -0.9663  1.4999
 7097TIP3    H221256   0.315   5.607   2.780 -1.9756 -0.1552 -0.3012
 7098TIP3   OH221257   0.395   3.035   1.085  0.0910 -0.1989 -0.7121
 7098TIP3    H121258   0.412   3.035   0.991 -0.1190 -0.2766 -0.7510
 7098TIP3    H221259   0.461   2.975   1.121  2.0099  1.9403 -0.4551
 7099TIP3   OH221260   4.170   2.576   3.690 -0.0484  0.3439  0.2786
 7099TIP3    H121261   4.241   2.521   3.657 -0.2554  0.9619 -1.2414
 7099TIP3    H221262   4.191   2.588   3.783  0.5792 -1.3689  0.3945
 7100TIP3   OH221263   5.257   4.458   4.782  0.0943 -0.2252 -0.3064
 7100TIP3    H121264   5.322   4.516   4.742  0.6718  0.7583  1.8985
 7100TIP3    H221265   5.183   4.459   4.721  1.0915  0.7740 -1.5628
 7101TIP3   OH221266   1.304   4.299   2.165  0.0436 -0.3352  0.3193
 7101TIP3    H121267   1.390   4.275   2.199  0.0161  1.2301  1.5816
 7101TIP3    H221268   1.323   4.346   2.083  0.3782 -0.1740  0.4870
 7102TIP3   OH221269   1.111   1.697   4.560  0.1075  0.5059 -0.1717
 7102TIP3    H121270   1.109   1.723   4.652  0.8103 -0.5273  0.1544
 7102TIP3    H221271   1.203   1.699   4.536 -0.0929  0.9830 -0.9242
 7103TIP3   OH221272   5.184   1.782   4.512 -0.5264  0.2835 -0.1573
 7103TIP3    H121273   5.105   1.827   4.480 -1.3438  0.2196  1.6518
 7103TIP3    H221274   5.191   1.704   4.457 -1.3403  0.6331 -0.7827
 7104TIP3   OH221275   4.524   0.551   1.841 -0.3068  0.1670  0.6974
 7104TIP3    H121276   4.573   0.633   1.842 -1.1940  0.7100  1.0874
 7104TIP3    H221277   4.548   0.509   1.758 -0.1818  1.0412  0.2836
 7105TIP3   OH221278   4.012   0.820   4.934 -0.5613 -0.0078 -0.1525
 7105TIP3    H121279   4.072   0.760   4.889 -1.7827  0.4617 -2.6112
 7105TIP3    H221280   3.963   0.763   4.993  0.4169 -0.8784 -0.1402
 7106TIP3   OH221281   1.764   3.610   4.271  0.7865  0.6758 -0.3993
 7106TIP3    H121282   1.836   3.561   4.311  0.0568  0.1039  0.2266
 7106TIP3    H221283   1.739   3.557   4.195  0.7237  0.6432 -0.3556
 7107TIP3   OH221284   4.220   2.050   2.245 -0.1947  0.6755 -0.4771
 7107TIP3    H121285   4.288   2.033   2.180 -0.4451 -0.9578 -0.3512
 7107TIP3    H221286   4.243   1.995   2.320 -1.0517  0.9363 -0.0075
 7108TIP3   OH221287   4.330   2.294   4.382  0.4007  0.3015 -0.2241
 7108TIP3    H121288   4.269   2.281   4.310 -0.2089 -1.1045  0.5086
 7108TIP3    H221289   4.365   2.207   4.400  0.8228  0.6884  0.9261
 7109TIP3   OH221290   5.277   1.335   0.527 -0.5067  0.3629  0.2189
 7109TIP3    H121291   5.225   1.396   0.578 -2.0035 -0.8414  0.2048
 7109TIP3    H221292   5.295   1.262   0.587 -1.6862 -0.7416 -0.6872
 7110TIP3   OH221293   3.488   4.130   1.769 -0.3865  0.6932 -0.8168
 7110TIP3    H121294   3.506   4.203   1.828  2.0224 -1.2938  1.1794
 7110TIP3    H221295   3.505   4.165   1.681 -0.7784  2.8741 -0.0837
 7111TIP3   OH221296   5.275   3.148   5.870  0.3282  0.2914  0.6042
 7111TIP3    H121297   5.364   3.156   5.903 -0.0665 -1.0905  2.1837
 7111TIP3    H221298   5.270   3.059   5.836 -0.3725  0.4514  0.2695
 7112TIP3   OH221299   0.997   3.349   4.628 -0.0467 -0.4509 -0.0340
 7112TIP3    H121300   0.986   3.332   4.534 -0.3729  0.5269 -0.1782
 7112TIP3    H221301   1.091   3.337   4.642  0.8476  3.4982 -1.4025
 7113TIP3   OH221302   4.290   0.307   1.153  0.0955  0.5150  0.3520
 7113TIP3    H121303   4.227   0.262   1.096  2.1953 -2.7709  0.3892
 7113TIP3    H221304   4.332   0.371   1.096 -1.6612  1.2326 -0.2276
 7114TIP3   OH221305   3.076   5.083   5.115 -0.0769  0.2434 -0.7375
 7114TIP3    H121306   3.051   5.148   5.049 -2.0681  0.5304  0.2032
 7114TIP3    H221307   3.167   5.104   5.136  0.0667  1.1960 -2.1574
 7115TIP3   OH221308   6.668   5.750   1.170  0.0902 -0.4418 -0.1994
 7115TIP3    H121309   6.702   5.829   1.127  0.7125 -0.9799 -0.7140
 7115TIP3    H221310   6.725   5.680   1.140 -0.5673 -1.1247  0.1137
 7116TIP3   OH221311   4.619   6.149   0.675  0.3019 -0.8329 -0.0913
 7116TIP3    H121312   4.675   6.221   0.645  2.1642 -1.6606  1.1785
 7116TIP3    H221313   4.534   6.167   0.636  1.2882  0.8142 -1.6668
 7117TIP3   OH221314   1.396   3.153   0.561 -0.0047 -0.2900 -0.3647
 7117TIP3    H121315   1.476   3.162   0.612  0.9524  0.5156 -1.9025
 7117TIP3    H221316   1.426   3.152   0.470 -1.6823 -0.8940 -0.9463
 7118TIP3   OH221317   4.767   6.053   4.246  0.0159 -0.4805 -0.1118
 7118TIP3    H121318   4.820   6.011   4.314 -0.0356  0.3923  0.4825
 7118TIP3    H221319   4.687   6.079   4.291  0.8259  1.9793  0.0335
 7119TIP3   OH221320   4.298   6.259   4.665 -0.1602 -0.1806  0.3075
 7119TIP3    H121321   4.224   6.201   4.686  0.3297 -1.1338 -0.4733
 7119TIP3    H221322   4.314   6.243   4.572  1.7238 -0.8481  0.7059
 7120TIP3   OH221323   1.722   1.569   4.140 -0.0860  0.0255 -0.6282
 7120TIP3    H121324   1.771   1.589   4.220 -1.5959 -0.9985  0.6077
 7120TIP3    H221325   1.673   1.489   4.161 -1.7268  0.5938 -2.0250
 7121TIP3   OH221326   5.530   2.158   4.664  0.2748 -0.3241 -0.0911
 7121TIP3    H121327   5.435   2.161   4.668  0.2806  1.8858 -0.4418
 7121TIP3    H221328   5.559   2.204   4.742  1.0712 -0.8733 -0.0504
 7122TIP3   OH221329   5.650   6.225   5.077  0.0065  0.0579 -0.2528
 7122TIP3    H121330   5.653   6.318   5.052 -1.6585 -0.2517 -1.8199
 7122TIP3    H221331   5.636   6.179   4.994  2.2436 -1.7643  0.2800
 7123TIP3   OH221332   4.321   0.266   2.018 -0.3452  0.1943  0.4950
 7123TIP3    H121333   4.289   0.355   2.004  0.1703  0.5398  1.4207
 7123TIP3    H221334   4.255   0.225   2.073  0.5421  0.7677  2.0361
 7124TIP3   OH221335   5.497   4.547   4.705 -0.0789 -0.3658 -0.3400
 7124TIP3    H121336   5.578   4.530   4.754 -0.6288 -1.0596  0.3451
 7124TIP3    H221337   5.521   4.615   4.643  0.5458  0.8277  1.1518
 7125TIP3   OH221338   1.039   0.898   5.736 -0.4719  0.4885  0.4588
 7125TIP3    H121339   1.031   0.899   5.831 -0.5539 -0.5905  0.4720
 7125TIP3    H221340   1.035   0.805   5.712  0.6048  0.6754 -0.5134
 7126TIP3   OH221341   0.971   2.886   1.546 -0.0797 -0.3731  0.1537
 7126TIP3    H121342   1.007   2.936   1.473  0.0404 -0.2836  0.2737
 7126TIP3    H221343   0.962   2.797   1.512  4.5750 -1.5865  1.4002
 7127TIP3   OH221344   1.554   5.611   2.934 -0.0683  0.0152  0.0082
 7127TIP3    H121345   1.562   5.560   3.015  1.7419 -2.3067 -1.4749
 7127TIP3    H221346   1.467   5.651   2.939 -0.7691 -1.5732  2.2379
 7128TIP3   OH221347   4.527   2.442   5.030 -0.1390  0.4539  0.1755
 7128TIP3    H121348   4.554   2.490   4.951 -1.1809 -0.4270 -0.7527
 7128TIP3    H221349   4.461   2.498   5.070 -0.8735  0.1264 -0.5455
 7129TIP3   OH221350   1.916   2.249   3.076  0.2687  0.8160  0.0036
 7129TIP3    H121351   1.897   2.323   3.018 -1.4642  0.5967  0.2320
 7129TIP3    H221352   1.835   2.234   3.124  1.2904  0.2069  1.6340
 7130TIP3   OH221353   0.312   2.874   2.665  0.7111  0.0979  0.0510
 7130TIP3    H121354   0.242   2.817   2.696  0.7991  0.4902  1.0165
 7130TIP3    H221355   0.376   2.814   2.625  0.3861 -0.3867  0.2467
 7131TIP3   OH221356   3.463   6.113   5.197 -0.2694 -1.0925  0.2498
 7131TIP3    H121357   3.412   6.189   5.169 -0.1604 -0.5024  1.5839
 7131TIP3    H221358   3.400   6.041   5.201 -0.4684 -0.9743 -0.5559
 7132TIP3   OH221359   2.326   5.627   3.157 -0.0883 -0.4868 -0.3282
 7132TIP3    H121360   2.329   5.657   3.248  3.2016  1.3465 -0.8740
 7132TIP3    H221361   2.240   5.656   3.125  0.0355  2.0197  1.2824
 7133TIP3   OH221362   7.129   3.268   1.450 -0.6524  0.0653 -0.3189
 7133TIP3    H121363   7.206   3.290   1.504  0.0411 -1.0196 -0.8301
 7133TIP3    H221364   7.073   3.216   1.507 -1.8685  2.2303  0.6038
 7134TIP3   OH221365   5.770   4.493   4.592  0.4795  0.0232 -0.0887
 7134TIP3    H121366   5.773   4.409   4.545 -1.6919 -0.5724  0.6897
 7134TIP3    H221367   5.829   4.481   4.666  1.5343 -0.1515 -0.9314
 7135TIP3   OH221368   3.260   4.969   0.592  0.0188  0.0823  0.0227
 7135TIP3    H121369   3.192   5.007   0.537  0.0111 -0.6978 -0.5298
 7135TIP3    H221370   3.215   4.901   0.643  0.1339  0.4353  0.6077
 7136TIP3   OH221371   4.096   6.810   2.419 -1.3360 -0.0494  0.1712
 7136TIP3    H121372   4.050   6.802   2.503  0.1226 -0.2370  0.9891
 7136TIP3    H221373   4.170   6.749   2.426 -2.7971 -2.3418 -2.4328
 7137TIP3   OH221374   1.532   4.025   2.105 -0.1335  0.1097 -0.0824
 7137TIP3    H121375   1.443   4.003   2.075 -0.4254  0.7521  0.2895
 7137TIP3    H221376   1.520   4.052   2.196  0.6382 -1.1376  0.4170
 7138TIP3   OH221377   5.571   3.919   0.005  0.1039 -0.4109 -0.0414
 7138TIP3    H121378   5.541   3.867   0.080 -1.4791  0.9704  0.3500
 7138TIP3    H221379   5.568   3.859  -0.069 -0.9573 -1.0789  0.5198
 7139TIP3   OH221380   5.926   0.206   5.258  0.9323 -0.5250  0.1928
 7139TIP3    H121381   5.940   0.220   5.164 -1.4082  1.3972  0.0597
 7139TIP3    H221382   5.920   0.294   5.295  2.7790 -1.2152  2.3840
 7140TIP3   OH221383   6.337   0.872   2.420  0.1248 -0.0003 -0.4372
 7140TIP3    H121384   6.268   0.930   2.453  0.6581  0.8586 -0.7954
 7140TIP3    H221385   6.321   0.866   2.326 -1.1710 -2.1501 -0.1428
 7141TIP3   OH221386   4.236   3.767   5.345  0.1623 -0.7471  0.3739
 7141TIP3    H121387   4.141   3.766   5.336  0.0592 -1.0355  1.4169
 7141TIP3    H221388   4.252   3.770   5.439  1.1901 -1.9957  0.2771
 7142TIP3   OH221389   4.830   0.387   2.383  0.2495  0.1612 -0.6849
 7142TIP3    H121390   4.762   0.331   2.345 -0.4154  0.8970 -0.6122
 7142TIP3    H221391   4.827   0.368   2.476 -1.0651  1.4042 -0.4261
 7143TIP3   OH221392   6.573   3.511   2.078  0.0573  0.2049 -0.5445
 7143TIP3    H121393   6.638   3.445   2.054 -0.6469 -0.7109 -0.0330
 7143TIP3    H221394   6.623   3.579   2.122  0.6777 -0.5358 -0.0673
 7144TIP3   OH221395   1.834   1.364   1.034 -0.4060 -0.2386  0.3804
 7144TIP3    H121396   1.762   1.341   0.974 -0.7102  1.4223  0.0431
 7144TIP3    H221397   1.833   1.295   1.100  0.3504 -2.5367 -1.8187
 7145TIP3   OH221398   5.910   1.954   4.429 -0.1636  0.3064  0.0666
 7145TIP3    H121399   5.913   1.888   4.498 -2.6125  0.7174  0.6298
 7145TIP3    H221400   5.983   2.013   4.449  1.7271 -1.8460 -0.1365
 7146TIP3   OH221401   0.214   2.000   5.599  0.1266  0.1727  0.5038
 7146TIP3    H121402   0.122   1.994   5.574  0.1852 -0.9600  0.5210
 7146TIP3    H221403   0.262   1.968   5.522  0.4807  0.2588  0.6865
 7147TIP3   OH221404   4.416   2.556   4.061  0.2910 -0.0185 -0.1455
 7147TIP3    H121405   4.324   2.583   4.049 -0.0767 -0.7918  0.8136
 7147TIP3    H221406   4.414   2.461   4.054  0.6515 -0.2289  1.9367
 7148TIP3   OH221407   3.781   0.556   2.248 -0.1454  0.5676 -0.0914
 7148TIP3    H121408   3.696   0.547   2.292  0.4376  0.1558  0.9792
 7148TIP3    H221409   3.842   0.506   2.302  0.6518  0.2225 -1.2555
 7149TIP3   OH221410   3.797   4.574   4.819  0.2528 -0.4956 -0.4482
 7149TIP3    H121411   3.813   4.643   4.883  0.0667  0.1993 -1.1445
 7149TIP3    H221412   3.808   4.493   4.869 -1.2453  0.0171  0.7953
 7150TIP3   OH221413   0.453   4.784   2.754 -0.8784 -0.2717  0.0008
 7150TIP3    H121414   0.396   4.750   2.823  1.0736  1.5830  2.7507
 7150TIP3    H221415   0.466   4.876   2.776  1.7043 -0.1610 -1.5021
 7151TIP3   OH221416   1.612   4.580   2.102 -0.2635 -0.4019  0.4620
 7151TIP3    H121417   1.620   4.548   2.192  0.7140  1.0425  0.9339
 7151TIP3    H221418   1.700   4.611   2.080 -0.9103  0.9996 -0.2919
 7152TIP3   OH221419   4.795   3.244   0.616  0.1229  0.8792  0.0890
 7152TIP3    H121420   4.704   3.214   0.618  1.2372 -3.1388  0.1694
 7152TIP3    H221421   4.792   3.326   0.568 -3.5990  1.3738  0.8239
 7153TIP3   OH221422   3.835   6.745   0.121  0.1104  0.1301  0.3431
 7153TIP3    H121423   3.848   6.840   0.114 -0.3115  0.0513 -2.3798
 7153TIP3    H221424   3.766   6.736   0.187 -0.1091  1.7463  0.3873
 7154TIP3   OH221425   2.145   4.522   0.044  0.9651  0.5106 -0.2203
 7154TIP3    H121426   2.153   4.563   0.130  1.6006 -0.8818  0.4070
 7154TIP3    H221427   2.153   4.428   0.061  0.7782  0.1902 -1.7626
 7155TIP3   OH221428   5.781   0.023   0.527 -0.1540 -0.5137  0.5966
 7155TIP3    H121429   5.866  -0.020   0.522 -0.5379 -1.3055  0.6193
 7155TIP3    H221430   5.800   0.116   0.516  0.6386 -0.7493 -0.1730
 7156TIP3   OH221431   2.257   1.492   5.483  0.0361 -0.1557 -0.3131
 7156TIP3    H121432   2.265   1.435   5.407  0.6328  0.5318 -0.7679
 7156TIP3    H221433   2.316   1.564   5.466 -0.7005  0.6043  0.2660
 7157TIP3   OH221434   7.065   0.916   4.699 -0.1892 -0.8169  0.6511
 7157TIP3    H121435   7.108   0.965   4.629 -0.1926  0.5109  1.5251
 7157TIP3    H221436   7.113   0.833   4.704 -0.9742 -1.4850 -1.7087
 7158TIP3   OH221437   6.224   0.912   1.954 -0.5992  0.3193  0.5304
 7158TIP3    H121438   6.223   0.980   1.887  0.5496 -0.0153  0.1629
 7158TIP3    H221439   6.241   0.959   2.036  0.0694  0.4964  0.2946
 7159TIP3   OH221440   5.625   1.164   3.805  1.0105  0.1798  0.4347
 7159TIP3    H121441   5.587   1.093   3.857  1.7508 -1.4406 -1.1068
 7159TIP3    H221442   5.623   1.240   3.863 -1.8789 -0.5031  1.3948
 7160TIP3   OH221443   0.248   5.143   2.866  0.2483  0.6852 -0.1994
 7160TIP3    H121444   0.236   5.051   2.842  0.3553  0.7302 -0.4252
 7160TIP3    H221445   0.161   5.181   2.860  0.1971  0.5909 -0.0676
 7161TIP3   OH221446   0.117   6.505   1.701  0.2118  0.2507 -0.2975
 7161TIP3    H121447   0.164   6.555   1.768  0.9012 -1.0839  0.2398
 7161TIP3    H221448   0.184   6.478   1.638  0.1193 -1.2235  0.1991
 7162TIP3   OH221449   6.520   3.708   0.616 -0.7841  0.8307  0.4470
 7162TIP3    H121450   6.442   3.656   0.636 -0.8223  0.6742 -0.0918
 7162TIP3    H221451   6.591   3.644   0.614 -0.3996  1.1629  2.3053
 7163TIP3   OH221452   1.064   2.570   3.457  0.0529  0.2558  0.3078
 7163TIP3    H121453   1.089   2.499   3.398 -0.7641 -0.2279  0.5223
 7163TIP3    H221454   1.080   2.536   3.545  0.0508  0.4944  0.4029
 7164TIP3   OH221455   5.508   1.068   1.343 -0.0422 -0.0638  0.6971
 7164TIP3    H121456   5.437   1.012   1.374 -0.2250  0.7324  1.7560
 7164TIP3    H221457   5.478   1.100   1.258 -0.5493 -0.4350  0.7319
 7165TIP3   OH221458   0.153   4.304   5.387 -0.2351 -0.2078 -0.5049
 7165TIP3    H121459   0.208   4.348   5.452 -1.8297  0.7895  0.2355
 7165TIP3    H221460   0.203   4.227   5.362  1.9636  1.1898 -0.6842
 7166TIP3   OH221461   1.234   2.039   0.055 -0.3531 -0.0663 -0.0235
 7166TIP3    H121462   1.226   2.051   0.150 -0.6877  0.8461 -0.1648
 7166TIP3    H221463   1.151   2.000   0.029 -0.5309  0.3379 -0.0517
 7167TIP3   OH221464   0.131   6.577   4.278 -0.0084 -0.0822 -0.2583
 7167TIP3    H121465   0.077   6.656   4.277  0.4347  0.2190 -1.0703
 7167TIP3    H221466   0.203   6.598   4.337 -0.1881 -0.0818 -0.0389
 7168TIP3   OH221467   1.172   0.923   2.678  0.1316 -0.0784  0.3672
 7168TIP3    H121468   1.081   0.935   2.651  0.0335 -1.4831  0.0385
 7168TIP3    H221469   1.205   1.013   2.689 -1.1127  0.4585 -0.0705
 7169TIP3   OH221470   6.700   5.997   4.443  0.7583  0.1204 -0.1092
 7169TIP3    H121471   6.777   6.036   4.485  1.0779  0.4952 -1.0253
 7169TIP3    H221472   6.640   6.070   4.429  0.4133 -0.1005  0.2185
 7170TIP3   OH221473   4.268   5.203   4.835  0.8267 -0.3552  0.3043
 7170TIP3    H121474   4.348   5.236   4.875  0.3409  0.2875  0.7756
 7170TIP3    H221475   4.202   5.212   4.904  0.3750 -0.9770 -0.0413
 7171TIP3   OH221476   5.202   6.128   3.171 -0.1281  0.2375  0.7912
 7171TIP3    H121477   5.232   6.080   3.248  0.4867  0.2047  0.5345
 7171TIP3    H221478   5.278   6.180   3.144  0.3738 -1.3552 -1.0655
 7172TIP3   OH221479   2.684   1.400   1.388  0.0401  0.1976 -0.2069
 7172TIP3    H121480   2.695   1.448   1.307 -1.0524 -0.9897 -1.1003
 7172TIP3    H221481   2.722   1.314   1.370  1.1384  0.3865  1.0505
 7173TIP3   OH221482   0.138   3.623   5.459  0.4344 -0.3851  0.3456
 7173TIP3    H121483   0.134   3.547   5.516  0.0075 -0.6774 -0.0601
 7173TIP3    H221484   0.073   3.684   5.495  2.2001  0.6930  1.9027
 7174TIP3   OH221485   1.702   6.623   4.959  0.0205  0.0941  0.5159
 7174TIP3    H121486   1.648   6.641   4.882  3.0225  0.3344 -1.7670
 7174TIP3    H221487   1.704   6.706   5.007  0.2271  0.7995 -0.6751
 7175TIP3   OH221488   2.696   1.925   5.831 -0.2185  0.0377 -0.0242
 7175TIP3    H121489   2.713   1.915   5.737  0.6253  1.7866 -0.0897
 7175TIP3    H221490   2.699   1.836   5.865 -0.5259 -0.6354 -1.6458
 7176TIP3   OH221491   6.378   4.256   4.708  0.2136 -0.7344 -0.7152
 7176TIP3    H121492   6.454   4.227   4.657  1.2619  1.5006 -0.5632
 7176TIP3    H221493   6.320   4.297   4.644  1.0243  1.0907 -0.3557
 7177TIP3   OH221494   3.723   6.663   1.002 -0.1640 -0.6567 -0.0235
 7177TIP3    H121495   3.756   6.665   1.092 -1.3059  0.0640  0.4002
 7177TIP3    H221496   3.647   6.606   1.006  0.4244 -1.5257 -0.7876
 7178TIP3   OH221497   0.472   3.268   2.876 -0.0937  0.3082  0.5799
 7178TIP3    H121498   0.433   3.348   2.839 -2.4363 -0.4311  1.2887
 7178TIP3    H221499   0.442   3.267   2.967  0.4172 -1.0846  0.7556
 7179TIP3   OH221500   2.505   1.512   2.652 -0.1050 -0.0982 -0.7383
 7179TIP3    H121501   2.557   1.432   2.641  1.1117  0.5436  0.0532
 7179TIP3    H221502   2.419   1.482   2.682 -0.8210 -1.3153 -3.6928
 7180TIP3   OH221503   6.363   5.920   0.870  0.6123 -0.4485 -0.3007
 7180TIP3    H121504   6.354   5.943   0.778 -1.1549  0.8783  0.1490
 7180TIP3    H221505   6.318   5.835   0.878  0.8513 -0.6086 -0.6716
 7181TIP3   OH221506   7.160   1.082   3.165  0.5804  0.0842 -0.0113
 7181TIP3    H121507   7.188   1.012   3.107  2.2167  1.3310 -0.8215
 7181TIP3    H221508   7.128   1.037   3.243 -0.8044 -1.6005 -1.4654
 7182TIP3   OH221509   5.406   1.220   3.566 -0.0187  0.3135  0.0909
 7182TIP3    H121510   5.471   1.209   3.497 -0.8308 -0.8277 -0.5328
 7182TIP3    H221511   5.452   1.195   3.646  0.1988 -1.0190 -0.4168
 7183TIP3   OH221512   3.410   0.348   1.468 -0.6730  0.4335  0.1549
 7183TIP3    H121513   3.404   0.303   1.552 -1.2189  1.5916  0.7666
 7183TIP3    H221514   3.416   0.278   1.403  0.2610 -0.4746  1.1900
 7184TIP3   OH221515   0.508   0.687   1.600  0.0079 -0.2445 -0.0273
 7184TIP3    H121516   0.587   0.652   1.641 -0.3265  0.2950  1.1286
 7184TIP3    H221517   0.440   0.675   1.667 -1.1023 -1.5353 -1.3296
 7185TIP3   OH221518   4.039   4.781   2.086  0.1037 -0.3570 -0.6300
 7185TIP3    H121519   3.976   4.801   2.017  0.9117  0.0294 -1.2644
 7185TIP3    H221520   4.107   4.847   2.078  0.8273 -1.0312 -0.2439
 7186TIP3   OH221521   3.430   6.700   1.464  0.0879  0.2181 -0.3306
 7186TIP3    H121522   3.520   6.730   1.472 -0.5309  1.7725  1.9136
 7186TIP3    H221523   3.378   6.770   1.505 -2.2649 -0.0653 -2.5796
 7187TIP3   OH221524   6.687   4.088   1.103 -0.0423  0.2947 -0.4578
 7187TIP3    H121525   6.747   4.118   1.172  0.8328 -0.1857 -0.9838
 7187TIP3    H221526   6.600   4.094   1.141  0.4263  0.1139  0.6613
 7188TIP3   OH221527   2.743   2.374   2.916  0.3339  0.0541 -0.7517
 7188TIP3    H121528   2.774   2.443   2.975 -0.6585 -1.3106  1.4669
 7188TIP3    H221529   2.657   2.404   2.887  0.5591  0.4351 -1.0424
 7189TIP3   OH221530   4.487   6.195   1.586  0.1473 -0.2826 -0.0774
 7189TIP3    H121531   4.536   6.228   1.661 -1.5430  0.1361  0.9113
 7189TIP3    H221532   4.461   6.273   1.537  0.8717 -0.5281 -0.8756
 7190TIP3   OH221533   1.529   4.035   4.171  0.5850  0.0907  0.5205
 7190TIP3    H121534   1.571   4.105   4.221  0.6626  0.5729 -0.2005
 7190TIP3    H221535   1.602   3.984   4.136  0.5259 -0.4860  1.2185
 7191TIP3   OH221536   2.616   6.161   5.840 -0.1239 -0.3688  0.2778
 7191TIP3    H121537   2.568   6.159   5.923  0.5363  1.3588  0.7564
 7191TIP3    H221538   2.664   6.244   5.842 -0.1554 -0.2294 -1.8771
 7192TIP3   OH221539   1.547   4.863   5.119 -0.0229 -0.2695 -0.6609
 7192TIP3    H121540   1.559   4.817   5.036  0.9645 -0.0926 -0.6351
 7192TIP3    H221541   1.512   4.948   5.093 -0.4263 -0.4865 -0.8346
 7193TIP3   OH221542   6.064   4.608   4.391 -0.0157 -0.0139  0.0040
 7193TIP3    H121543   5.970   4.599   4.405  0.2145 -1.2700  0.9676
 7193TIP3    H221544   6.084   4.543   4.323  0.1066  0.5083 -0.4638
 7194TIP3   OH221545   0.189   3.006   2.201 -0.0195 -0.4443  0.2993
 7194TIP3    H121546   0.191   2.956   2.119  1.6235  0.1009 -0.0300
 7194TIP3    H221547   0.281   3.023   2.221 -0.4747  2.6044  0.2856
 7195TIP3   OH221548   5.530   1.645   3.636  0.2231 -0.1655 -0.3194
 7195TIP3    H121549   5.535   1.702   3.712 -0.5189  0.0855 -0.4526
 7195TIP3    H221550   5.437   1.628   3.624  0.4902 -3.3895  1.1841
 7196TIP3   OH221551   3.957   3.196   3.114 -0.3486  0.0434  0.0200
 7196TIP3    H121552   3.983   3.180   3.205  1.5435  1.2891 -0.2451
 7196TIP3    H221553   3.881   3.139   3.101  0.4201 -1.5266  1.8244
 7197TIP3   OH221554   2.017   4.389   5.522  0.1089 -0.2710  0.3404
 7197TIP3    H121555   2.051   4.418   5.607 -0.5335  0.9424  0.2051
 7197TIP3    H221556   2.091   4.345   5.480  0.6379 -0.2646  1.2355
 7198TIP3   OH221557   0.087   2.028   5.263 -0.1429  0.6735 -0.2739
 7198TIP3    H121558   0.177   2.003   5.284  0.1607  1.0662 -1.0522
 7198TIP3    H221559   0.037   2.004   5.341  0.2810 -1.4841 -0.5788
 7199TIP3   OH221560   2.757   5.402   5.389  0.1383 -0.2087  0.1909
 7199TIP3    H121561   2.675   5.360   5.414  1.1657 -0.2761  4.1209
 7199TIP3    H221562   2.735   5.494   5.378 -0.5981 -0.3395  0.5213
 7200TIP3   OH221563   3.221   6.000   3.684 -0.1996  0.1208  0.3020
 7200TIP3    H121564   3.169   5.949   3.622 -0.0527  2.1017 -1.5694
 7200TIP3    H221565   3.157   6.035   3.746 -0.3724 -1.7333  1.2338
 7201TIP3   OH221566   7.225   0.455   4.110  0.6723  0.2491  0.2494
 7201TIP3    H121567   7.280   0.391   4.156  0.2034  1.1586  2.1618
 7201TIP3    H221568   7.145   0.458   4.162  0.1875  1.4644 -0.5470
 7202TIP3   OH221569   2.556   0.199   5.333 -0.2421  0.3103  0.7165
 7202TIP3    H121570   2.481   0.172   5.386  0.5727 -2.8107  0.4438
 7202TIP3    H221571   2.632   0.176   5.385  0.5422  0.4075 -0.3608
 7203TIP3   OH221572   1.860   3.750   4.871 -0.6665  0.3420  0.6779
 7203TIP3    H121573   1.909   3.733   4.951 -0.4992  1.2938  0.7961
 7203TIP3    H221574   1.773   3.778   4.901 -0.1040  2.3297  0.6290
 7204TIP3   OH221575   1.819   5.814   2.059 -0.4477 -0.1563 -0.0430
 7204TIP3    H121576   1.786   5.865   2.134 -1.2877 -0.8410  0.0725
 7204TIP3    H221577   1.761   5.837   1.987 -0.5576 -0.6035 -0.1020
 7205TIP3   OH221578   3.019   5.659   0.380  0.3102  0.0125 -0.3492
 7205TIP3    H121579   2.956   5.668   0.308 -1.6366  0.4937  1.3205
 7205TIP3    H221580   2.966   5.665   0.459  2.3886 -0.3896  1.1620
 7206TIP3   OH221581   2.951   6.614   2.894 -0.4192  0.0589 -0.2513
 7206TIP3    H121582   2.988   6.701   2.878  0.7373 -0.2888  0.4683
 7206TIP3    H221583   2.878   6.630   2.954 -0.5558  0.5857 -0.5511
 7207TIP3   OH221584   3.735   3.660   1.524 -0.1657 -0.4368 -0.2757
 7207TIP3    H121585   3.823   3.633   1.551  0.5573 -1.3041 -3.2089
 7207TIP3    H221586   3.749   3.739   1.472 -1.5451  1.3630  1.8820
 7208TIP3   OH221587   3.194   4.731   4.071 -0.0660 -0.4536 -0.0455
 7208TIP3    H121588   3.208   4.710   4.163  0.6280 -0.2559 -0.1001
 7208TIP3    H221589   3.260   4.797   4.051 -0.3509 -0.3403 -0.6283
 7209TIP3   OH221590   2.283   3.110   0.867 -0.3234  0.4653  0.6412
 7209TIP3    H121591   2.363   3.070   0.901  0.6216  2.5467  1.0197
 7209TIP3    H221592   2.214   3.046   0.885  1.2410 -1.4382  0.1824
 7210TIP3   OH221593   6.537   1.984   3.637  0.0324  0.0295  0.1092
 7210TIP3    H121594   6.540   1.948   3.726  2.0719 -0.1724 -0.0114
 7210TIP3    H221595   6.443   1.995   3.620 -0.4572 -1.0152  1.8303
 7211TIP3   OH221596   6.885   5.790   1.871  0.3008  0.3917  0.1798
 7211TIP3    H121597   6.859   5.717   1.815  0.4281  1.8561 -1.9205
 7211TIP3    H221598   6.831   5.780   1.950 -0.6552 -1.1929 -0.6182
 7212TIP3   OH221599   3.262   0.460   2.861 -0.5561 -0.0235  0.2405
 7212TIP3    H121600   3.225   0.420   2.940 -0.2838  0.0484  0.4057
 7212TIP3    H221601   3.327   0.396   2.830  2.5346  1.7315  2.5032
 7213TIP3   OH221602   2.868   4.367   3.091 -0.1070  0.5350  0.2193
 7213TIP3    H121603   2.793   4.358   3.033 -1.1498 -0.0262  1.5982
 7213TIP3    H221604   2.931   4.420   3.041 -0.8606 -0.0959 -1.4704
 7214TIP3   OH221605   2.586   3.426   4.502 -0.1457 -0.1540 -0.2653
 7214TIP3    H121606   2.629   3.470   4.428 -2.0064  0.0397 -1.2775
 7214TIP3    H221607   2.521   3.488   4.533 -1.9055 -1.6269 -0.8630
 7215TIP3   OH221608   2.269   3.562   1.600  0.1732  0.2843  0.0297
 7215TIP3    H121609   2.237   3.649   1.627 -0.9576  0.4121 -1.5519
 7215TIP3    H221610   2.356   3.579   1.564  0.9587  0.3666  1.8480
 7216TIP3   OH221611   6.770   1.494   2.802  0.0800  0.2456  1.0075
 7216TIP3    H121612   6.708   1.535   2.864 -0.5452  1.4312 -0.3330
 7216TIP3    H221613   6.794   1.565   2.743 -0.7235 -1.2111 -1.2004
 7217TIP3   OH221614   6.192   0.232   0.393 -0.3841  0.1620  0.2237
 7217TIP3    H121615   6.244   0.153   0.409  0.7045  0.5817 -1.1025
 7217TIP3    H221616   6.246   0.303   0.427  0.1689  0.6503 -1.6062
 7218TIP3   OH221617   6.141   1.516   5.029  0.3504  0.2271 -0.2912
 7218TIP3    H121618   6.123   1.509   4.936  0.0707  0.9384 -0.2955
 7218TIP3    H221619   6.164   1.608   5.043  0.6302  0.0789  0.2999
 7219TIP3   OH221620   1.470   5.735   5.775  0.0849  0.4349 -0.2647
 7219TIP3    H121621   1.382   5.712   5.744 -0.2641  0.1324  0.9118
 7219TIP3    H221622   1.460   5.747   5.869  0.9051  2.3258 -0.3661
 7220TIP3   OH221623   5.899   3.344   1.499  0.0965  0.6647 -0.0869
 7220TIP3    H121624   5.834   3.390   1.553 -0.2488  0.2505 -0.1457
 7220TIP3    H221625   5.971   3.326   1.559 -0.5515 -0.3700  0.4228
 7221TIP3   OH221626   0.947   0.850   0.195  0.0086  0.6805  0.1785
 7221TIP3    H121627   0.931   0.944   0.208  0.0100  0.9146 -1.3468
 7221TIP3    H221628   1.042   0.843   0.190 -0.0188  0.8273 -1.0251
 7222TIP3   OH221629   7.036   0.273   0.823  0.3707 -0.6734 -0.0611
 7222TIP3    H121630   7.069   0.316   0.902  0.0532 -1.3063  0.4280
 7222TIP3    H221631   6.956   0.321   0.802  0.3691 -0.6065  0.0960
 7223TIP3   OH221632   4.176   2.415   1.565  0.2825  0.5719 -0.7833
 7223TIP3    H121633   4.168   2.340   1.623  1.3093  1.4346  0.5350
 7223TIP3    H221634   4.112   2.478   1.598 -0.0319  0.5887 -1.4042
 7224TIP3   OH221635   3.804   4.903   4.684  0.1730 -0.0986  0.5554
 7224TIP3    H121636   3.727   4.848   4.665  0.5836  0.0664 -1.9316
 7224TIP3    H221637   3.878   4.853   4.648  0.8195  1.0749  0.2112
 7225TIP3   OH221638   5.461   2.227   1.568 -0.1183  0.3684 -0.0348
 7225TIP3    H121639   5.500   2.144   1.539 -1.5789  0.4505 -2.4906
 7225TIP3    H221640   5.402   2.203   1.640  1.4507 -0.2750  1.1028
 7226TIP3   OH221641   6.437   0.475   4.024 -0.7556  0.3116  0.0147
 7226TIP3    H121642   6.437   0.558   4.072 -2.6028  0.4045 -0.0995
 7226TIP3    H221643   6.464   0.410   4.089  1.5847  1.0697 -0.1110
 7227TIP3   OH221644   4.359   5.136   4.028  0.1573 -0.4089  0.0923
 7227TIP3    H121645   4.391   5.201   3.965 -0.8318 -0.2827 -0.2987
 7227TIP3    H221646   4.383   5.171   4.113 -0.6721  0.6627 -0.0912
 7228TIP3   OH221647   0.566   5.894   1.061 -0.3286 -0.3125  0.3470
 7228TIP3    H121648   0.536   5.806   1.083 -1.5232  0.1029  0.4362
 7228TIP3    H221649   0.497   5.952   1.093 -0.3299  0.5598 -1.1490
 7229TIP3   OH221650   6.945   2.509   0.519  0.6351 -0.6227  0.3120
 7229TIP3    H121651   6.889   2.577   0.481  1.5664 -0.6720 -1.2103
 7229TIP3    H221652   7.026   2.555   0.540  0.8897 -1.0496  0.2548
 7230TIP3   OH221653   0.551   5.159   3.598 -0.0095  0.4206  0.4270
 7230TIP3    H121654   0.609   5.200   3.662  1.5936 -1.4608  0.2480
 7230TIP3    H221655   0.556   5.066   3.618 -3.1466  0.1627  0.5126
 7231TIP3   OH221656   2.210   0.680   4.335 -0.1473 -0.4001 -0.1553
 7231TIP3    H121657   2.146   0.695   4.265  0.0703 -0.7502 -0.4363
 7231TIP3    H221658   2.159   0.679   4.415 -0.3716  0.2471 -0.2846
 7232TIP3   OH221659   0.476   3.670   4.297 -0.6477  0.5592 -0.2448
 7232TIP3    H121660   0.555   3.624   4.326  0.3473  1.5614 -1.2828
 7232TIP3    H221661   0.410   3.601   4.290 -0.1042 -0.1856  1.3563
 7233TIP3   OH221662   4.194   0.672   1.122  0.4761 -0.4652  0.0798
 7233TIP3    H121663   4.195   0.616   1.200 -1.1639 -0.8759 -0.1668
 7233TIP3    H221664   4.226   0.757   1.154  1.4376 -1.0682  0.8077
 7234TIP3   OH221665   4.490   3.016   0.306 -0.8049  0.5224 -0.7779
 7234TIP3    H121666   4.538   3.093   0.276  0.0655 -0.8380 -3.1737
 7234TIP3    H221667   4.458   2.974   0.225 -2.5061 -0.8633  0.5163
 7235TIP3   OH221668   7.223   2.544   2.118  0.1376  0.6084 -0.1647
 7235TIP3    H121669   7.159   2.475   2.097 -0.3901  1.3471 -1.0640
 7235TIP3    H221670   7.283   2.503   2.180  0.2857 -0.9114 -1.2582
 7236TIP3   OH221671   4.144   2.628   4.372  0.1178  0.0271  0.2493
 7236TIP3    H121672   4.230   2.615   4.413  1.3704 -2.7456 -2.8001
 7236TIP3    H221673   4.083   2.583   4.431  1.4878 -1.8993  0.3169
 7237TIP3   OH221674   5.661   3.210   1.823 -0.1740  0.4641  0.4562
 7237TIP3    H121675   5.750   3.244   1.825  0.2235 -0.3748 -1.3706
 7237TIP3    H221676   5.668   3.125   1.781 -1.6931 -0.1484  1.3432
 7238TIP3   OH221677   5.484   0.632   3.165  0.3892 -0.1681  0.5086
 7238TIP3    H121678   5.530   0.715   3.176 -1.7662  1.2256 -0.3209
 7238TIP3    H221679   5.483   0.617   3.070  0.4252 -0.9212  0.6244
 7239TIP3   OH221680   7.048   3.311   3.449 -0.2323 -0.0909  0.1849
 7239TIP3    H121681   6.983   3.374   3.480  1.0107  2.0218 -1.1565
 7239TIP3    H221682   7.022   3.292   3.359  0.2368 -0.3250  0.0962
 7240TIP3   OH221683   2.858   5.465   2.060 -0.4272 -0.1040 -0.4896
 7240TIP3    H121684   2.896   5.430   2.141  1.2691  0.2373 -1.0765
 7240TIP3    H221685   2.839   5.388   2.007  0.2152 -0.2650 -0.4951
 7241TIP3   OH221686   7.031   6.637   0.065 -0.3355 -0.2854 -0.5626
 7241TIP3    H121687   7.045   6.551   0.026  2.9083  0.1761 -0.7138
 7241TIP3    H221688   7.015   6.695  -0.010  0.5944 -0.2794 -0.7697
 7242TIP3   OH221689   4.588   6.621   0.055 -0.1079 -0.0974  0.0051
 7242TIP3    H121690   4.514   6.643   0.112 -0.9726 -0.8583 -0.7870
 7242TIP3    H221691   4.625   6.542   0.094  1.4933  1.2947  1.4673
 7243TIP3   OH221692   2.936   2.231   4.142  0.2658  0.1040  0.0975
 7243TIP3    H121693   3.011   2.244   4.200 -0.2749  1.1393  0.5993
 7243TIP3    H221694   2.967   2.169   4.076  1.1088 -0.6007  1.1136
 7244TIP3   OH221695   1.094   2.420   1.802  0.0423 -0.0621 -0.4429
 7244TIP3    H121696   1.067   2.492   1.746  1.7783  0.3105 -0.8455
 7244TIP3    H221697   1.012   2.385   1.838 -0.9248  1.1111 -1.4499
 7245TIP3   OH221698   1.388   1.070   0.757 -0.2236  0.3673  0.0794
 7245TIP3    H121699   1.309   1.019   0.738 -0.7852  1.1947  0.1410
 7245TIP3    H221700   1.373   1.105   0.845 -2.0152  4.4378 -1.5853
 7246TIP3   OH221701   5.148   0.390   0.177 -0.6131 -0.1470  0.4388
 7246TIP3    H121702   5.170   0.466   0.232 -1.6364  0.5086 -0.0188
 7246TIP3    H221703   5.101   0.331   0.236 -0.4888 -0.0679  0.6181
 7247TIP3   OH221704   1.968   4.485   2.336 -0.2049  0.2071  0.0520
 7247TIP3    H121705   2.011   4.401   2.347  0.2126  0.3910 -0.1727
 7247TIP3    H221706   1.875   4.463   2.329 -0.1259 -0.2095  0.2759
 7248TIP3   OH221707   6.370   5.331   1.039 -0.6660  0.3445  0.1389
 7248TIP3    H121708   6.282   5.303   1.015 -0.9271  0.3946  1.0011
 7248TIP3    H221709   6.359   5.420   1.072 -0.2213  0.5239 -0.1887
 7249TIP3   OH221710   4.042   6.331   4.463  0.0983  0.0854  0.5710
 7249TIP3    H121711   4.104   6.404   4.471 -2.0034  2.3328 -2.1102
 7249TIP3    H221712   4.092   6.262   4.419  1.5896  0.5690  1.4320
 7250TIP3   OH221713   0.064   4.266   2.940 -0.3675  0.2518 -0.0091
 7250TIP3    H121714   0.048   4.356   2.914 -0.6845  0.2573  0.2043
 7250TIP3    H221715   0.084   4.271   3.034  0.9975  0.2627 -0.2793
 7251TIP3   OH221716   6.019   4.851   2.898 -0.0380  0.2462  0.1095
 7251TIP3    H121717   6.073   4.772   2.891  0.2418  0.5059 -0.8648
 7251TIP3    H221718   5.940   4.822   2.944 -0.1151 -0.7016 -0.5930
 7252TIP3   OH221719   6.013   5.520   2.583 -0.3615  0.2773 -0.3789
 7252TIP3    H121720   6.011   5.531   2.488  0.3804 -0.2900 -0.4701
 7252TIP3    H221721   6.060   5.597   2.615  2.0554 -0.9540 -0.7460
 7253TIP3   OH221722   2.355   2.961   1.245 -0.5022  0.3027  0.1040
 7253TIP3    H121723   2.406   2.887   1.214 -0.1480  0.6044 -0.0496
 7253TIP3    H221724   2.264   2.935   1.232 -0.3817 -0.1055  0.0611
 7254TIP3   OH221725   2.174   3.953   1.111 -0.2144  0.2305 -0.3668
 7254TIP3    H121726   2.146   3.861   1.117  0.0783  0.1926  0.6205
 7254TIP3    H221727   2.200   3.976   1.201 -0.3008  1.2885 -0.6002
 7255TIP3   OH221728   3.297   5.912   5.182  0.1360  0.0255  0.0724
 7255TIP3    H121729   3.367   5.851   5.201 -1.1757 -1.2033  1.1434
 7255TIP3    H221730   3.254   5.876   5.104 -1.7342 -1.5144  1.7034
 7256TIP3   OH221731   5.566   2.308   2.218 -0.3405 -0.4616  0.0041
 7256TIP3    H121732   5.643   2.365   2.219 -0.7345  0.1494 -1.5276
 7256TIP3    H221733   5.557   2.281   2.126 -2.2907 -0.0191  0.0128
 7257TIP3   OH221734   3.651   4.348   4.497  0.3195  0.2692  0.6135
 7257TIP3    H121735   3.561   4.363   4.528  0.2560 -0.3401  0.7259
 7257TIP3    H221736   3.705   4.367   4.574  0.2253 -0.2579  0.8156
 7258TIP3   OH221737   2.555   0.620   0.409 -0.3211 -0.0786  0.0253
 7258TIP3    H121738   2.590   0.555   0.471 -1.0029 -1.7675 -1.2915
 7258TIP3    H221739   2.592   0.595   0.325 -1.0934  0.8715 -0.6159
 7259TIP3   OH221740   4.751   4.816   3.459 -0.0005 -0.6340  0.6185
 7259TIP3    H121741   4.673   4.762   3.447  0.1407 -0.7704  0.3120
 7259TIP3    H221742   4.720   4.906   3.449  0.1854 -0.7355 -1.2747
 7260TIP3   OH221743   4.750   1.424   1.037 -0.3599 -0.5503  0.5587
 7260TIP3    H121744   4.717   1.350   1.088 -3.0714  1.3177  1.7109
 7260TIP3    H221745   4.755   1.496   1.100 -1.2928  1.1579 -1.2172
 7261TIP3   OH221746   5.195   5.716   2.769 -0.3159  0.1336  0.2835
 7261TIP3    H121747   5.164   5.693   2.681  0.5620  1.1927 -0.3164
 7261TIP3    H221748   5.194   5.811   2.771  3.4004  0.3219 -0.0044
 7262TIP3   OH221749   2.388   1.981   5.744  0.3566 -0.1896  0.5414
 7262TIP3    H121750   2.372   2.068   5.708 -1.2123 -0.7377 -0.1758
 7262TIP3    H221751   2.482   1.978   5.759  0.4556  1.5711  0.4423
 7263TIP3   OH221752   2.168   4.888   0.194 -0.0359  0.0600  0.4075
 7263TIP3    H121753   2.086   4.921   0.157  0.6078 -1.9285 -3.3401
 7263TIP3    H221754   2.236   4.935   0.148  0.8653 -1.4511  0.1292
 7264TIP3   OH221755   0.722   1.318   5.734  0.0759  0.4849  0.7801
 7264TIP3    H121756   0.705   1.224   5.725  1.7566  0.2226  0.0580
 7264TIP3    H221757   0.702   1.337   5.826  0.1885 -0.6841  1.0636
 7265TIP3   OH221758   1.963   4.695   0.566  0.3148 -0.1753  0.1751
 7265TIP3    H121759   1.917   4.615   0.592  0.4785 -0.7944 -1.3417
 7265TIP3    H221760   1.925   4.718   0.481 -0.5874  2.0689  1.1252
 7266TIP3   OH221761   5.804   4.417   1.775  0.1426 -0.1756  0.4170
 7266TIP3    H121762   5.761   4.333   1.766  0.5783 -0.4870  1.1006
 7266TIP3    H221763   5.789   4.442   1.867 -1.6935  1.4557 -0.2792
 7267TIP3   OH221764   3.639   6.455   3.801  0.3712  0.2735  0.5407
 7267TIP3    H121765   3.642   6.429   3.709 -0.6042  0.7415  0.3545
 7267TIP3    H221766   3.719   6.421   3.840  1.2913  0.9464 -0.7126
 7268TIP3   OH221767   6.249   0.687   2.244  0.2511 -0.2895 -0.7018
 7268TIP3    H121768   6.277   0.678   2.153  2.7611 -1.4398  0.1041
 7268TIP3    H221769   6.317   0.643   2.295  0.3693  2.5694  1.9451
 7269TIP3   OH221770   1.271   6.582   1.353 -0.0747  0.2913  0.4851
 7269TIP3    H121771   1.247   6.508   1.410  0.6454  1.2182  2.0556
 7269TIP3    H221772   1.347   6.621   1.396  1.1458  0.4487 -1.6864
 7270TIP3   OH221773   5.818   0.243   1.409  0.5010 -0.1717  0.1009
 7270TIP3    H121774   5.823   0.336   1.428  1.1239 -0.4422  1.4006
 7270TIP3    H221775   5.752   0.209   1.469  0.7202 -0.6675  0.0741
 7271TIP3   OH221776   5.679   5.664   1.612 -0.1210  0.6940  0.1855
 7271TIP3    H121777   5.587   5.645   1.630  0.0758 -0.5390 -0.0765
 7271TIP3    H221778   5.676   5.746   1.562 -0.9662  1.4869  1.4772
 7272TIP3   OH221779   6.464   1.979   2.142  0.2822 -0.3608 -0.3152
 7272TIP3    H121780   6.486   2.049   2.081  0.2236  1.0583  1.2252
 7272TIP3    H221781   6.439   2.024   2.223 -1.5689 -2.1079  0.1646
 7273TIP3   OH221782   3.727   1.156   4.141  0.2115  0.0745 -0.0146
 7273TIP3    H121783   3.739   1.237   4.091 -1.8558  0.1465 -0.4793
 7273TIP3    H221784   3.653   1.113   4.099  0.8515 -1.7702  0.6374
 7274TIP3   OH221785   1.050   0.651   5.453 -0.1214 -0.6629 -0.3361
 7274TIP3    H121786   1.071   0.744   5.451  0.0640 -0.6687  0.7162
 7274TIP3    H221787   1.008   0.634   5.369 -1.4507  0.6678  0.0182
 7275TIP3   OH221788   2.042   6.178   4.242 -0.0730  0.1717  0.2578
 7275TIP3    H121789   2.127   6.216   4.263 -1.1354  2.8364  0.1109
 7275TIP3    H221790   2.032   6.105   4.303  2.6650 -0.8246 -0.3608
 7276TIP3   OH221791   6.674   4.980   1.752 -0.5613  0.1649 -0.2475
 7276TIP3    H121792   6.608   5.024   1.805 -0.2087  1.9563 -1.2255
 7276TIP3    H221793   6.652   5.003   1.662  0.5461 -0.4221 -0.6859
 7277TIP3   OH221794   1.248   2.891   4.119 -0.4938 -0.0455 -0.2520
 7277TIP3    H121795   1.323   2.898   4.059  0.8642 -2.3632  0.9861
 7277TIP3    H221796   1.248   2.973   4.167  1.1155  0.1209 -0.4723
 7278TIP3   OH221797   1.875   1.497   0.629 -1.1198  0.9689  0.8031
 7278TIP3    H121798   1.900   1.406   0.609 -0.0445  1.4875 -0.3598
 7278TIP3    H221799   1.873   1.540   0.544 -2.3912  1.8710  1.2637
 7279TIP3   OH221800   5.361   0.683   5.517 -0.8648  0.6960  0.3663
 7279TIP3    H121801   5.355   0.673   5.612 -0.1685  0.7923  0.4232
 7279TIP3    H221802   5.317   0.767   5.499 -1.8763  0.2083  0.4833
 7280TIP3   OH221803   7.034   5.048   0.917 -0.4921  0.4738 -0.1776
 7280TIP3    H121804   7.022   5.117   0.982  1.0128  0.5701  0.0361
 7280TIP3    H221805   7.033   4.966   0.967  0.3486  0.5275 -0.0583
 7281TIP3   OH221806   0.325   4.258   2.357  0.3117 -0.2416 -0.6717
 7281TIP3    H121807   0.293   4.209   2.281  1.9613 -1.1550 -0.8208
 7281TIP3    H221808   0.366   4.336   2.320 -0.2100  0.0638 -0.6076
 7282TIP3   OH221809   2.724   1.763   0.294  0.0957 -0.1498  0.1745
 7282TIP3    H121810   2.665   1.827   0.334  0.1648 -0.8917  1.5236
 7282TIP3    H221811   2.774   1.728   0.368  0.6493 -1.1472 -0.6554
 7283TIP3   OH221812   7.049   5.296   0.803 -0.1841 -0.1520  0.1691
 7283TIP3    H121813   7.029   5.208   0.833  1.8908 -0.7023  0.1309
 7283TIP3    H221814   7.074   5.343   0.883  0.8125 -0.2547 -0.0678
 7284TIP3   OH221815   2.638   5.992   3.959 -0.2546 -0.0004  0.5235
 7284TIP3    H121816   2.675   6.020   4.043  0.6024  1.4466 -0.3095
 7284TIP3    H221817   2.559   6.045   3.949 -1.3502 -1.4018  1.1728
 7285TIP3   OH221818   5.206   4.712   0.141 -0.2035  0.2861  0.1824
 7285TIP3    H121819   5.116   4.741   0.131 -0.8451 -1.1188  1.4746
 7285TIP3    H221820   5.199   4.617   0.151  1.2751  0.2955  1.7189
 7286TIP3   OH221821   0.520   0.338   3.821  0.6976 -0.9668 -0.5996
 7286TIP3    H121822   0.524   0.321   3.915  0.3234  0.8456 -0.2222
 7286TIP3    H221823   0.604   0.380   3.801  1.4402 -2.7056 -1.4264
 7287TIP3   OH221824   5.618   5.069   1.761 -0.1141  0.0062 -0.4245
 7287TIP3    H121825   5.660   5.027   1.837 -3.6754 -0.2558  1.6276
 7287TIP3    H221826   5.570   4.998   1.719  1.4220  0.2636 -2.7873
 7288TIP3   OH221827   6.881   4.507   1.334  0.0375  0.5515 -0.5213
 7288TIP3    H121828   6.852   4.416   1.326 -0.0002  0.4519  0.5831
 7288TIP3    H221829   6.923   4.511   1.419  2.7017  0.8816 -1.7643
 7289TIP3   OH221830   4.869   0.876   4.343  0.0806 -0.1885 -0.8253
 7289TIP3    H121831   4.856   0.823   4.422 -0.1789 -0.2969 -0.9381
 7289TIP3    H221832   4.917   0.952   4.373  2.4636 -1.5184 -1.0346
 7290TIP3   OH221833   3.047   5.419   5.825 -0.2565  0.0831 -0.0726
 7290TIP3    H121834   3.032   5.420   5.731  0.0723 -0.2689 -0.1289
 7290TIP3    H221835   3.058   5.327   5.847 -1.1504  0.0834  0.4432
 7291TIP3   OH221836   2.311   5.195   2.629 -0.2957 -0.4377  0.1316
 7291TIP3    H121837   2.374   5.267   2.631 -0.8051 -0.0031  1.4704
 7291TIP3    H221838   2.357   5.121   2.666  0.4861 -1.0566 -1.9635
 7292TIP3   OH221839   3.729   4.578   5.495 -0.1982 -0.6627 -0.0717
 7292TIP3    H121840   3.806   4.524   5.513  0.4953  0.6864  1.2180
 7292TIP3    H221841   3.674   4.569   5.572 -0.6297 -0.4593 -0.3500
 7293TIP3   OH221842   5.086   4.313   1.644  0.1459 -0.3784 -0.6031
 7293TIP3    H121843   5.110   4.393   1.689  0.9749 -2.2970  2.6806
 7293TIP3    H221844   4.990   4.317   1.636  0.2548  1.2888 -1.3784
 7294TIP3   OH221845   0.128   2.407   3.579  0.1629  0.0790  0.1283
 7294TIP3    H121846   0.036   2.391   3.600 -0.5136 -0.2265 -2.7415
 7294TIP3    H221847   0.175   2.334   3.619 -1.0240 -0.6334  0.2559
 7295TIP3   OH221848   6.924   3.796   2.404 -0.5070 -0.0827 -0.3249
 7295TIP3    H121849   6.929   3.850   2.482  0.8977  0.5439 -0.8196
 7295TIP3    H221850   6.917   3.858   2.332  1.4159 -0.5096 -0.9227
 7296TIP3   OH221851   3.649   0.456   0.192 -0.2636  0.2244 -0.4616
 7296TIP3    H121852   3.708   0.442   0.267 -1.5335 -0.5956  0.4268
 7296TIP3    H221853   3.695   0.519   0.137  1.2171 -0.0090  0.4492
 7297TIP3   OH221854   4.536   1.226   0.310 -0.3022 -0.5586  0.6786
 7297TIP3    H121855   4.572   1.196   0.227  0.7411 -0.3737  1.0495
 7297TIP3    H221856   4.526   1.146   0.362 -3.2339 -1.0225 -0.4133
 7298TIP3   OH221857   3.209   5.408   4.080 -0.4234 -0.1032 -0.2153
 7298TIP3    H121858   3.174   5.497   4.084 -0.6212 -0.1882  0.0066
 7298TIP3    H221859   3.205   5.376   4.171 -0.1719 -0.2684 -0.2593
 7299TIP3   OH221860   4.502   0.474   2.865  0.0567 -0.2144  0.3625
 7299TIP3    H121861   4.538   0.457   2.778  1.7425  0.2343  0.9420
 7299TIP3    H221862   4.433   0.409   2.876 -1.1625  0.6113 -1.8562
 7300TIP3   OH221863   1.187   1.808   4.835 -0.5201  0.4710  0.4080
 7300TIP3    H121864   1.218   1.872   4.771  0.6787  1.4721  1.9201
 7300TIP3    H221865   1.186   1.856   4.918  0.0066 -1.3468  1.5143
 7301TIP3   OH221866   6.058   6.797   2.743 -0.1119 -0.5042 -0.2998
 7301TIP3    H121867   5.990   6.741   2.703  0.1376 -1.1077  0.1028
 7301TIP3    H221868   6.133   6.738   2.755  0.0808 -0.1318  0.3379
 7302TIP3   OH221869   5.411   3.307   0.566 -0.4428  0.0862  0.1367
 7302TIP3    H121870   5.333   3.268   0.604  0.1033 -0.9986  0.1775
 7302TIP3    H221871   5.428   3.254   0.488  0.9620 -0.5076  0.8099
 7303TIP3   OH221872   3.500   1.957   1.078 -0.2491  0.1820 -0.3415
 7303TIP3    H121873   3.544   1.991   1.156 -0.5919  0.6736 -0.3634
 7303TIP3    H221874   3.499   1.862   1.092 -0.0144  0.2373  0.0964
 7304TIP3   OH221875   0.692   0.916   3.214  0.5533 -0.4437  0.2507
 7304TIP3    H121876   0.783   0.939   3.228  0.6866 -0.9962  0.2961
 7304TIP3    H221877   0.690   0.877   3.126  0.4151 -0.7258  0.3781
 7305TIP3   OH221878   1.342   3.118   4.540 -0.0780  0.3438 -0.2336
 7305TIP3    H121879   1.414   3.092   4.597 -0.5907 -2.0114 -0.5232
 7305TIP3    H221880   1.281   3.163   4.598 -0.0169 -0.9031  0.8666
 7306TIP3   OH221881   4.368   1.440   4.558  0.7502  0.0289 -0.8051
 7306TIP3    H121882   4.371   1.476   4.647 -1.0868  1.3195 -1.2071
 7306TIP3    H221883   4.451   1.394   4.548  1.7516  1.3275  0.9598
 7307TIP3   OH221884   5.608   2.006   5.763 -0.1643 -0.0302  0.1282
 7307TIP3    H121885   5.659   1.961   5.830  0.3017  0.8775  0.3990
 7307TIP3    H221886   5.571   2.082   5.809 -1.1769 -0.2800 -0.2431
 7308TIP3   OH221887   1.742   6.004   3.044  0.5519 -0.1240  0.2121
 7308TIP3    H121888   1.728   5.917   3.080  0.0258  0.3720  1.2325
 7308TIP3    H221889   1.658   6.027   3.004  0.7536 -0.1612 -0.2423
 7309TIP3   OH221890   4.474   5.314   3.459 -0.4516  0.2011 -0.0335
 7309TIP3    H121891   4.410   5.340   3.525 -0.5524  2.0789 -0.7862
 7309TIP3    H221892   4.475   5.387   3.397  0.5454 -0.9398 -1.4369
 7310TIP3   OH221893   5.377   2.816   5.237 -0.1460 -0.7693  0.3172
 7310TIP3    H121894   5.450   2.793   5.294 -0.6870 -1.7224  0.6469
 7310TIP3    H221895   5.373   2.744   5.174 -1.2560 -1.1144  0.7591
 7311TIP3   OH221896   1.342   1.150   5.023 -0.0907  0.6490  0.2871
 7311TIP3    H121897   1.349   1.189   5.110  0.9385  0.4380  0.3170
 7311TIP3    H221898   1.397   1.072   5.027  0.0836  0.7189 -0.5887
 7312TIP3   OH221899   4.046   6.670   1.172  0.1245 -0.5522  0.8323
 7312TIP3    H121900   3.959   6.697   1.202 -0.2834  0.1089 -0.8549
 7312TIP3    H221901   4.091   6.752   1.152 -0.2481 -0.9479 -2.0005
 7313TIP3   OH221902   2.765   5.457   1.261 -0.2109  0.2659  0.1454
 7313TIP3    H121903   2.760   5.405   1.181  3.9463 -0.8970  0.3980
 7313TIP3    H221904   2.743   5.546   1.234 -1.2101 -0.5102 -1.7369
 7314TIP3   OH221905   5.431   6.657   1.767  0.5520 -0.3314  0.2293
 7314TIP3    H121906   5.512   6.611   1.746  1.3581  1.7637 -1.5515
 7314TIP3    H221907   5.458   6.737   1.811 -0.6467 -0.2269  0.8317
 7315TIP3   OH221908   1.119   6.045   5.426  0.3933 -0.2397  0.2919
 7315TIP3    H121909   1.025   6.056   5.431  0.0781 -1.1480 -2.1972
 7315TIP3    H221910   1.155   6.129   5.455 -1.1908  0.3728  0.5441
 7316TIP3   OH221911   0.481   0.391   2.356 -0.1266 -0.3632 -0.0502
 7316TIP3    H121912   0.559   0.339   2.374 -1.0725 -1.8069  0.0537
 7316TIP3    H221913   0.409   0.328   2.359 -1.0752  0.4979 -2.3486
 7317TIP3   OH221914   2.340   6.726   5.426 -0.2163  0.6051 -0.1437
 7317TIP3    H121915   2.289   6.801   5.397 -1.0861  0.4167  0.8518
 7317TIP3    H221916   2.383   6.694   5.347 -2.1058  0.4128 -1.1399
 7318TIP3   OH221917   1.025   4.242   5.480  0.2501  0.8276 -0.4110
 7318TIP3    H121918   1.004   4.170   5.420  3.4915 -1.1095  0.5285
 7318TIP3    H221919   1.024   4.202   5.567 -1.0033  2.7556  0.5214
 7319TIP3   OH221920   6.497   0.990   1.159 -0.5198  0.9471  0.0110
 7319TIP3    H121921   6.493   0.901   1.195  3.2659 -0.0141 -1.3559
 7319TIP3    H221922   6.550   1.039   1.221 -1.5470  1.9068  0.1430
 7320TIP3   OH221923   6.640   4.593   5.191 -0.4520  0.9768  0.5603
 7320TIP3    H121924   6.675   4.676   5.159  0.7764  0.7351  1.2119
 7320TIP3    H221925   6.589   4.559   5.118 -1.7823  2.7289  0.5899
 7321TIP3   OH221926   4.108   3.441   4.250 -0.3661  0.2225  0.0298
 7321TIP3    H121927   4.204   3.433   4.255 -0.1641  2.4332  0.6256
 7321TIP3    H221928   4.076   3.395   4.327  0.2943  0.3521  0.3934
 7322TIP3   OH221929   4.669   6.779   4.643 -0.3573  0.0954 -0.3479
 7322TIP3    H121930   4.586   6.732   4.632 -0.5305 -0.4457  2.5130
 7322TIP3    H221931   4.698   6.756   4.731  1.0892  2.9710  0.0495
 7323TIP3   OH221932   1.995   5.449   4.176 -0.5087 -0.0546 -0.2507
 7323TIP3    H121933   2.076   5.411   4.143  0.3520  1.7654 -0.3519
 7323TIP3    H221934   1.985   5.531   4.127 -2.3915 -0.1978 -0.2014
 7324TIP3   OH221935   5.937   4.177   2.470 -0.4490 -0.5297  0.1326
 7324TIP3    H121936   6.002   4.219   2.412 -1.4885  0.3395 -0.4422
 7324TIP3    H221937   5.983   4.101   2.505  1.1570  0.4886  0.3644
 7325TIP3   OH221938   0.278   0.235   4.024  0.3938  0.3805  0.8123
 7325TIP3    H121939   0.315   0.286   3.952  1.0275 -2.2379 -0.8693
 7325TIP3    H221940   0.187   0.220   3.997  0.1870  0.6679  1.3368
 7326TIP3   OH221941   3.153   4.455   0.088 -0.4629  0.9935 -0.0578
 7326TIP3    H121942   3.173   4.497   0.172  0.3359  1.0344 -0.2597
 7326TIP3    H221943   3.091   4.385   0.110  0.5276  0.3363  0.7166
 7327TIP3   OH221944   3.733   2.266   5.396  0.1301  0.5653  0.0521
 7327TIP3    H121945   3.721   2.239   5.487 -0.7564 -0.6807 -0.3987
 7327TIP3    H221946   3.688   2.198   5.345  1.5023  0.6669 -1.3724
 7328TIP3   OH221947   0.781   4.886   3.961 -0.5527 -0.6417 -0.3272
 7328TIP3    H121948   0.791   4.793   3.940 -0.5580 -1.0419  1.3016
 7328TIP3    H221949   0.832   4.898   4.041  0.3200  1.0181 -1.0851
 7329TIP3   OH221950   1.321   2.259   3.850  0.0980  0.1195 -0.2324
 7329TIP3    H121951   1.245   2.295   3.805  1.1512  0.3971 -1.9011
 7329TIP3    H221952   1.337   2.319   3.923 -1.3878 -0.0757  0.2873
 7330TIP3   OH221953   2.624   2.099   3.122 -0.2852  0.8758  0.0912
 7330TIP3    H121954   2.578   2.147   3.191 -0.2468  2.0345 -0.6542
 7330TIP3    H221955   2.699   2.155   3.100  1.6177 -1.0242  1.3761
 7331TIP3   OH221956   4.618   4.502   4.584 -0.1081  0.5787 -0.1714
 7331TIP3    H121957   4.629   4.596   4.597  0.9537  0.4680 -0.1178
 7331TIP3    H221958   4.535   4.481   4.627  0.0178  1.3682  0.4912
 7332TIP3   OH221959   4.738   2.538   3.283  0.4700  0.2761 -0.2077
 7332TIP3    H121960   4.674   2.504   3.345  0.2030 -1.5722 -1.4077
 7332TIP3    H221961   4.689   2.602   3.231 -1.2364 -2.6992 -2.6036
 7333TIP3   OH221962   0.516   5.048   2.910 -0.2200 -0.0970  0.7349
 7333TIP3    H121963   0.561   5.099   2.842  1.3378 -1.0824  0.9711
 7333TIP3    H221964   0.431   5.090   2.919 -0.3254  0.3347 -1.5328
 7334TIP3   OH221965   0.696   0.813   0.031 -0.4656 -0.3221 -0.4160
 7334TIP3    H121966   0.648   0.878  -0.019 -0.6050  0.5970  0.8466
 7334TIP3    H221967   0.744   0.864   0.097 -0.5035 -1.4825  0.5560
 7335TIP3   OH221968   6.857   4.777   0.232  0.0383 -0.1029  0.0832
 7335TIP3    H121969   6.804   4.851   0.262 -0.7750 -1.0034  0.9410
 7335TIP3    H221970   6.899   4.808   0.152 -0.8577  1.0307  0.0279
 7336TIP3   OH221971   4.182   1.090   1.368 -0.1535 -0.6163 -0.5249
 7336TIP3    H121972   4.102   1.052   1.330 -1.2664  0.1646  0.9482
 7336TIP3    H221973   4.165   1.093   1.462  0.9491  1.1192 -0.3465
 7337TIP3   OH221974   5.430   1.733   4.293 -0.2844  0.9725 -0.1037
 7337TIP3    H121975   5.460   1.723   4.203  0.3972 -1.0477  0.3011
 7337TIP3    H221976   5.361   1.668   4.303 -0.7614  1.5835  0.6728
 7338TIP3   OH221977   6.136   5.013   1.176 -0.3217 -0.2625  1.0497
 7338TIP3    H121978   6.054   4.997   1.224  0.2424 -1.7919  1.5552
 7338TIP3    H221979   6.119   4.978   1.088  0.1944 -1.8036  1.5337
 7339TIP3   OH221980   4.308   2.958   5.280 -0.0011  0.1304 -0.1361
 7339TIP3    H121981   4.388   3.006   5.305 -0.2319  0.5010 -0.0991
 7339TIP3    H221982   4.338   2.895   5.215  0.3719  0.0828  0.0779
 7340TIP3   OH221983   3.943   0.855   3.785 -0.3291 -0.1646 -0.1252
 7340TIP3    H121984   4.036   0.853   3.764 -0.5484 -1.5298 -1.1638
 7340TIP3    H221985   3.900   0.873   3.701 -0.9818  1.6373  0.5526
 7341TIP3   OH221986   6.463   4.376   5.338 -0.1518  0.3325 -0.1624
 7341TIP3    H121987   6.373   4.394   5.312 -0.9712 -1.6078  1.0481
 7341TIP3    H221988   6.492   4.309   5.276 -1.4439 -2.8668  2.3532
 7342TIP3   OH221989   5.433   4.088   2.124 -0.2885 -0.3193 -0.2296
 7342TIP3    H121990   5.359   4.101   2.183 -0.6524  1.0932 -0.9544
 7342TIP3    H221991   5.403   4.124   2.040  0.6320 -1.2290 -0.9726
 7343TIP3   OH221992   0.189   2.074   3.329  0.3461  0.4860  0.2709
 7343TIP3    H121993   0.125   2.056   3.398  2.8360 -0.6280  2.4521
 7343TIP3    H221994   0.215   1.988   3.297  0.4633  0.9389 -0.9081
 7344TIP3   OH221995   0.022   5.331   2.860  0.8727 -0.3779  0.4145
 7344TIP3    H121996   0.010   5.416   2.900 -0.4685 -0.6005  0.5139
 7344TIP3    H221997   0.020   5.348   2.766 -1.8972 -0.5465  0.3577
 7345TIP3   OH221998   2.922   0.842   2.792 -0.1894 -0.2919  0.3586
 7345TIP3    H121999   3.015   0.828   2.808 -0.2903  0.1794  1.4979
 7345TIP3    H222000   2.878   0.784   2.854 -0.6521 -0.3706 -0.0397
 7346TIP3   OH222001   3.259   1.558   5.741 -0.1104  0.1575  0.0004
 7346TIP3    H122002   3.338   1.561   5.796 -0.1799  0.6683  0.0790
 7346TIP3    H222003   3.187   1.572   5.802 -0.2850 -0.5088 -0.0412
 7347TIP3   OH222004   3.580   5.513   1.698  0.0789 -0.0628  0.2229
 7347TIP3    H122005   3.658   5.497   1.751  0.5206 -0.7567 -0.6196
 7347TIP3    H222006   3.532   5.430   1.699  0.2949 -0.2084 -0.7776
 7348TIP3   OH222007   5.542   2.323   4.933  0.3439  0.7928  0.0231
 7348TIP3    H122008   5.631   2.312   4.967 -0.1293 -0.9870  0.7909
 7348TIP3    H222009   5.486   2.284   5.001 -1.1795  3.3222  0.3482
 7349TIP3   OH222010   5.266   4.446   0.261  0.4869 -0.3551 -0.1000
 7349TIP3    H122011   5.290   4.396   0.340  0.7460 -0.0392  0.0238
 7349TIP3    H222012   5.206   4.388   0.214  0.5801 -0.6794  0.1711
 7350TIP3   OH222013   4.411   5.913   4.845 -0.4408 -0.1491 -0.3133
 7350TIP3    H122014   4.371   5.839   4.798 -1.0069 -1.5247  2.1826
 7350TIP3    H222015   4.338   5.956   4.888  0.2429 -0.0402  0.7694
 7351TIP3   OH222016   3.092   0.936   3.563 -0.4471  0.0737  0.0335
 7351TIP3    H122017   3.087   1.032   3.560  0.5884  0.1077 -1.1048
 7351TIP3    H222018   3.180   0.918   3.596 -0.9292 -0.5077  1.0520
 7352TIP3   OH222019   5.410   1.110   2.714 -0.3699 -0.8694  0.0566
 7352TIP3    H122020   5.338   1.173   2.709  0.3226  0.0289  1.0012
 7352TIP3    H222021   5.379   1.034   2.664 -1.9716 -0.5164  0.4559
 7353TIP3   OH222022   4.398   6.540   3.545  0.1220 -0.1568  0.6469
 7353TIP3    H122023   4.341   6.465   3.526  0.9292 -0.1773 -2.1430
 7353TIP3    H222024   4.438   6.519   3.630 -0.6108 -2.2783  0.5326
 7354TIP3   OH222025   0.808   3.970   1.875  0.2486  0.4304 -0.4595
 7354TIP3    H122026   0.818   3.963   1.780 -1.5248  1.4553 -0.7640
 7354TIP3    H222027   0.754   4.047   1.888  1.2717  0.8882  1.4730
 7355TIP3   OH222028   5.473   3.601   1.076 -0.3720  0.1930 -0.3675
 7355TIP3    H122029   5.504   3.517   1.043  0.2436 -0.0906  0.8970
 7355TIP3    H222030   5.553   3.647   1.104 -0.8792  0.3472  0.8876
 7356TIP3   OH222031   3.620   2.176   3.164  0.4435  0.3561  0.0019
 7356TIP3    H122032   3.689   2.158   3.227  2.2418  0.2844 -1.8611
 7356TIP3    H222033   3.604   2.270   3.171 -1.0048  0.0292  2.0350
 7357TIP3   OH222034   4.201   5.076   2.590 -0.6509  0.3688  0.0917
 7357TIP3    H122035   4.132   5.047   2.648 -0.6293  0.3401  0.1030
 7357TIP3    H222036   4.276   5.020   2.611 -1.2564 -1.0914 -1.4359
 7358TIP3   OH222037   2.112   5.994   5.789 -0.2876 -0.5179  0.2445
 7358TIP3    H122038   2.120   5.991   5.694 -0.5157  1.0796  0.1605
 7358TIP3    H222039   2.026   5.955   5.807 -0.7393  0.2148 -0.2922
 7359TIP3   OH222040   3.029   1.115   4.650  0.0793  0.4584 -0.7248
 7359TIP3    H122041   3.053   1.204   4.622  0.3916  1.2873  1.9178
 7359TIP3    H222042   2.977   1.128   4.729  0.1018 -1.7455 -0.2932
 7360TIP3   OH222043   0.931   2.395  -0.008 -0.2069  0.2897  0.1600
 7360TIP3    H122044   0.859   2.442  -0.051 -1.0300 -0.7489  0.3594
 7360TIP3    H222045   0.907   2.395   0.085  0.6272  0.8969  0.3881
 7361TIP3   OH222046   4.710   0.649   0.405 -0.0436  0.3231 -0.2479
 7361TIP3    H122047   4.665   0.568   0.383  1.3363 -0.6056  0.1697
 7361TIP3    H222048   4.708   0.701   0.325  1.1415 -1.1617 -1.3084
 7362TIP3   OH222049   5.855   5.752   0.072 -0.4148  0.8401  0.6165
 7362TIP3    H122050   5.910   5.678   0.097  1.0550  0.7832 -2.3215
 7362TIP3    H222051   5.782   5.713   0.025 -1.1434  1.1303  1.4846
 7363TIP3   OH222052   4.550   6.329   1.841 -0.1183 -0.0797  0.1492
 7363TIP3    H122053   4.538   6.402   1.901 -0.2387  0.4944 -0.5465
 7363TIP3    H222054   4.635   6.347   1.799 -0.9636  0.6500 -1.3203
 7364TIP3   OH222055   6.818   6.412   3.971 -0.7240 -0.1589  0.4579
 7364TIP3    H122056   6.777   6.343   4.023  0.8110 -1.0415  0.5839
 7364TIP3    H222057   6.911   6.388   3.970 -0.4918  0.6751 -1.4319
 7365TIP3   OH222058   6.718   5.463   5.806  0.3560  0.2744 -0.1154
 7365TIP3    H122059   6.709   5.367   5.802 -1.2276  0.3491  0.9096
 7365TIP3    H222060   6.762   5.486   5.724  0.9264 -1.3456 -0.2977
 7366TIP3   OH222061   5.388   6.129   1.638  0.4090  0.0270  0.1229
 7366TIP3    H122062   5.475   6.164   1.657 -0.1467  0.6726  1.6133
 7366TIP3    H222063   5.334   6.207   1.624 -0.9174 -0.0785  3.7715
 7367TIP3   OH222064   4.112   2.603   3.038 -0.2974 -0.5040 -0.0364
 7367TIP3    H122065   4.047   2.668   3.065  0.0636 -0.1566 -0.0076
 7367TIP3    H222066   4.193   2.652   3.028  0.0549 -1.0057  0.3100
 7368TIP3   OH222067   2.712   4.018   1.943 -0.0529 -0.4797  0.2195
 7368TIP3    H122068   2.785   3.994   1.886  0.3418  1.7375 -0.2861
 7368TIP3    H222069   2.742   3.996   2.031  2.6701  3.2226  0.4467
 7369TIP3   OH222070   6.626   4.642   0.987  0.3324  0.3898  0.7871
 7369TIP3    H122071   6.701   4.639   1.046  1.1036  0.4015 -0.1754
 7369TIP3    H222072   6.601   4.550   0.977 -0.9535  0.5040  2.5376
 7370TIP3   OH222073   1.410   0.857   4.685  0.0231  0.3491 -0.0950
 7370TIP3    H122074   1.435   0.766   4.674 -0.9817  0.2168 -1.6159
 7370TIP3    H222075   1.440   0.881   4.773  1.3050 -1.0973 -0.1160
 7371TIP3   OH222076   3.677   5.499   2.456  0.5433 -0.1949  0.2042
 7371TIP3    H122077   3.768   5.480   2.476  0.2193 -1.4530  0.5379
 7371TIP3    H222078   3.675   5.593   2.439  1.6399  0.1169  1.6572
 7372TIP3   OH222079   2.739   1.034   1.650 -0.6294  0.0164  0.0945
 7372TIP3    H122080   2.816   0.984   1.623 -1.0218 -0.5299 -0.0190
 7372TIP3    H222081   2.748   1.044   1.745  0.0913  0.8276 -0.0426
 7373TIP3   OH222082   5.325   2.571   4.491  0.4394 -0.1106  0.1209
 7373TIP3    H122083   5.360   2.550   4.577  1.4101 -2.7725 -0.8334
 7373TIP3    H222084   5.398   2.612   4.445  0.2906  0.1966  0.1534
 7374TIP3   OH222085   5.713   5.044   1.453 -0.3842 -0.1818 -0.2179
 7374TIP3    H122086   5.694   5.071   1.364 -2.2471 -2.0175 -0.4412
 7374TIP3    H222087   5.671   4.958   1.462  1.8320 -1.1972  1.6510
 7375TIP3   OH222088   7.178   3.953   5.661 -0.7731  0.0099 -0.0217
 7375TIP3    H122089   7.165   4.023   5.597  1.7701 -1.5890 -2.5034
 7375TIP3    H222090   7.255   3.981   5.711  0.9200 -1.3465 -1.7324
 7376TIP3   OH222091   4.164   5.317   0.126 -0.4322  0.3439  0.1817
 7376TIP3    H122092   4.159   5.263   0.205  1.4598  1.8558  1.4245
 7376TIP3    H222093   4.077   5.309   0.086 -0.2958 -3.5400  0.2536
 7377TIP3   OH222094   1.112   4.369   5.105  0.8715 -0.4168 -0.3319
 7377TIP3    H122095   1.078   4.368   5.195  0.1584  1.0101 -0.5564
 7377TIP3    H222096   1.140   4.460   5.091 -0.1463 -0.3102 -1.9404
 7378TIP3   OH222097   0.658   6.163   5.456  0.1821  0.9865 -0.1308
 7378TIP3    H122098   0.748   6.176   5.487 -0.6638  1.3476  2.4638
 7378TIP3    H222099   0.622   6.251   5.448 -0.5017  0.8257  0.8563
 7379TIP3   OH222100   4.448   6.133   0.966  0.0565 -0.6787  0.2515
 7379TIP3    H122101   4.487   6.050   0.994  1.8820  0.4080  1.1124
 7379TIP3    H222102   4.509   6.167   0.901 -1.3673 -0.5870 -1.1093
 7380TIP3   OH222103   3.693   3.850   1.263  0.2900  0.5425  0.7352
 7380TIP3    H122104   3.656   3.806   1.186  1.0705  0.4141  0.4172
 7380TIP3    H222105   3.621   3.855   1.325  0.0344 -0.7205  0.5726
 7381TIP3   OH222106   1.259   3.355   1.783 -0.1598 -0.3274 -0.2803
 7381TIP3    H122107   1.304   3.312   1.710 -1.0093  0.7048 -1.4503
 7381TIP3    H222108   1.319   3.424   1.810 -0.7947  0.7799 -1.5648
 7382TIP3   OH222109   5.222   2.792   1.321 -0.4136  0.5439  0.0443
 7382TIP3    H122110   5.175   2.875   1.316  0.6335  1.1985  0.6906
 7382TIP3    H222111   5.160   2.732   1.361 -0.3914  1.6628  1.8908
 7383TIP3   OH222112   0.403   3.056   1.481  0.5610  0.1167 -0.2858
 7383TIP3    H122113   0.401   2.965   1.512  0.4021  0.3001  0.2526
 7383TIP3    H222114   0.467   3.099   1.537  0.5222  0.3775 -0.4398
 7384TIP3   OH222115   6.466   0.288   2.802  0.1633 -0.3065  0.4989
 7384TIP3    H122116   6.391   0.245   2.844 -0.9030  0.6517 -0.3611
 7384TIP3    H222117   6.435   0.377   2.784  0.7877 -0.4817 -1.7073
 7385TIP3   OH222118   2.354   0.428   2.661 -0.0499  0.2112 -0.1882
 7385TIP3    H122119   2.435   0.473   2.634 -0.1788  0.9167  0.5807
 7385TIP3    H222120   2.316   0.485   2.727 -0.4736 -0.8054  0.4593
 7386TIP3   OH222121   4.560   4.407   2.721 -0.3895  0.7403 -1.0823
 7386TIP3    H122122   4.498   4.433   2.790  1.2628  1.6408  0.1422
 7386TIP3    H222123   4.586   4.318   2.744 -0.6390  0.6466 -1.1576
 7387TIP3   OH222124   4.351   3.184   2.996  0.4443  0.2213 -0.8086
 7387TIP3    H122125   4.409   3.250   2.957 -0.3241  1.1467 -0.3952
 7387TIP3    H222126   4.265   3.203   2.960  0.4452 -1.4733 -1.8227
 7388TIP3   OH222127   0.877   0.455   1.663  0.2889 -0.1172 -0.0544
 7388TIP3    H122128   0.956   0.429   1.710  1.4658  0.2908 -1.7022
 7388TIP3    H222129   0.836   0.372   1.638  0.5342 -0.3381  0.2734
 7389TIP3   OH222130   4.204   0.301   0.186  0.1690  0.0895  0.5299
 7389TIP3    H122131   4.127   0.251   0.159  0.1556  0.2921  0.1848
 7389TIP3    H222132   4.187   0.390   0.154  0.8228 -0.0037 -0.0952
 7390TIP3   OH222133   4.401   3.678   0.156  0.7614  0.1617  0.1907
 7390TIP3    H122134   4.491   3.690   0.187  0.9354 -0.2448 -0.1377
 7390TIP3    H222135   4.356   3.635   0.228  0.9483 -0.0321  0.1941
 7391TIP3   OH222136   3.491   4.204   1.502  0.0440 -0.3759 -0.2586
 7391TIP3    H122137   3.457   4.285   1.462  1.4009  0.1780 -0.3314
 7391TIP3    H222138   3.440   4.134   1.460  0.1963  0.3074 -1.6682
 7392TIP3   OH222139   4.147   0.307   5.796  0.5528  0.3699  0.2777
 7392TIP3    H122140   4.191   0.380   5.841 -0.4101  0.5388  0.9892
 7392TIP3    H222141   4.057   0.311   5.828  0.5379 -1.2965  0.5165
 7393TIP3   OH222142   3.003   5.638   1.478 -0.0549 -0.0321 -0.6993
 7393TIP3    H122143   3.007   5.648   1.383  2.2509 -0.2213 -0.6936
 7393TIP3    H222144   3.095   5.642   1.506 -0.6991  0.3400  1.5598
 7394TIP3   OH222145   3.431   0.213   1.734  0.8882 -0.5001  0.2619
 7394TIP3    H122146   3.447   0.123   1.707  0.4555 -0.7300  0.7736
 7394TIP3    H222147   3.514   0.242   1.773  0.2767 -1.5470  2.5112
 7395TIP3   OH222148   0.107   3.796   3.155  0.0176 -0.1134  0.2350
 7395TIP3    H122149   0.037   3.832   3.209 -0.0407  0.0265  0.0645
 7395TIP3    H222150   0.096   3.701   3.163  1.3368 -0.1609  2.2272
 7396TIP3   OH222151   6.943   0.956   2.578 -0.2150 -0.3979 -0.4386
 7396TIP3    H122152   6.854   0.989   2.564  0.3752  0.2234 -3.4497
 7396TIP3    H222153   6.935   0.861   2.570 -0.7644 -0.4485  0.5737
 7397TIP3   OH222154   4.925   6.139   3.466  0.1901 -0.0623  0.3027
 7397TIP3    H122155   4.975   6.080   3.522 -0.6174 -1.0277  0.0309
 7397TIP3    H222156   4.913   6.218   3.519  1.7640  0.1059  0.4601
 7398TIP3   OH222157   5.368   5.025   1.260  0.5761  0.3474  0.8089
 7398TIP3    H122158   5.442   4.965   1.251 -0.7882 -1.0878 -2.3946
 7398TIP3    H222159   5.382   5.091   1.192  0.1315  1.5391  1.8349
 7399TIP3   OH222160   3.984   3.190   3.422  0.3185 -0.2730  0.4563
 7399TIP3    H122161   4.011   3.115   3.475 -0.3973 -1.3294 -0.5943
 7399TIP3    H222162   3.889   3.184   3.419  0.1177  1.6791  1.7124
 7400TIP3   OH222163   5.742   2.544   4.287 -0.7890 -0.6232 -0.4836
 7400TIP3    H122164   5.815   2.485   4.267 -1.5424 -1.2220 -1.6694
 7400TIP3    H222165   5.711   2.516   4.373  1.3922  0.7588  0.8536
 7401TIP3   OH222166   5.264   1.970   2.707  0.0137  0.5699 -0.4375
 7401TIP3    H122167   5.312   2.047   2.675 -0.5816  1.0044 -0.2977
 7401TIP3    H222168   5.226   1.999   2.790  1.8482 -0.6560  0.9106
 7402TIP3   OH222169   5.049   3.500   4.939  0.1778 -0.5838  0.2157
 7402TIP3    H122170   5.040   3.471   5.030  3.7076 -1.5095  0.4108
 7402TIP3    H222171   5.042   3.596   4.945  2.0334 -0.4790  1.8129
 7403TIP3   OH222172   1.207   3.611   5.009 -0.9323  0.1390  0.1317
 7403TIP3    H122173   1.156   3.564   5.075 -4.3924  2.6257 -0.4686
 7403TIP3    H222174   1.206   3.553   4.932  0.1066 -1.2792  1.1481
 7404TIP3   OH222175   6.760   4.879   0.966 -0.1874 -0.0617  0.0937
 7404TIP3    H122176   6.829   4.900   0.903 -1.0048 -0.3215 -0.9161
 7404TIP3    H222177   6.739   4.787   0.949 -0.9752  0.0929  0.2071
 7405TIP3   OH222178   4.956   4.817   4.697 -0.4156  0.0682 -0.1367
 7405TIP3    H122179   5.044   4.828   4.662 -0.6379  0.6081 -0.5313
 7405TIP3    H222180   4.968   4.764   4.776  0.1800 -0.4720 -0.5800
 7406TIP3   OH222181   3.190   0.433   3.889  0.0584  0.5489  0.9047
 7406TIP3    H122182   3.270   0.392   3.923  0.1573  0.2673  0.3331
 7406TIP3    H222183   3.217   0.519   3.860  0.8059 -0.5489 -1.9768
 7407TIP3   OH222184   5.136   3.404   3.869 -0.2222 -0.2994 -0.2007
 7407TIP3    H122185   5.174   3.339   3.809 -0.1142  0.0955 -0.5695
 7407TIP3    H222186   5.049   3.422   3.832 -0.1066  0.0378 -0.3176
 7408TIP3   OH222187   6.476   4.020   3.938  0.1887 -0.7144  0.2813
 7408TIP3    H122188   6.382   4.008   3.954  0.0608 -0.6240 -0.3611
 7408TIP3    H222189   6.518   3.992   4.019 -0.4180 -0.3399  0.7346
 7409TIP3   OH222190   4.641   2.409   4.662 -0.2697 -0.5434 -0.7393
 7409TIP3    H122191   4.577   2.362   4.610 -0.9310 -1.0186  0.4539
 7409TIP3    H222192   4.589   2.473   4.711  0.0778 -1.2234  0.5641
 7410TIP3   OH222193   0.514   2.671   5.571  0.0966  0.1864  0.1147
 7410TIP3    H122194   0.588   2.649   5.626 -1.5167  0.3231  2.4899
 7410TIP3    H222195   0.519   2.609   5.498  3.1964  1.0336 -0.5357
 7411TIP3   OH222196   3.456   3.859   0.769 -0.0574  0.1839 -0.1645
 7411TIP3    H122197   3.438   3.775   0.726 -1.1828  0.6678 -0.6889
 7411TIP3    H222198   3.495   3.913   0.700 -0.1206  0.3645 -0.0586
 7412TIP3   OH222199   4.979   5.445   0.150 -0.2112  0.0429 -0.5358
 7412TIP3    H122200   5.034   5.457   0.073  0.3661 -0.7049 -0.2587
 7412TIP3    H222201   5.009   5.362   0.187 -0.4486  0.4200  0.5186
 7413TIP3   OH222202   5.835   3.910   2.215 -0.3151 -0.3273  0.1511
 7413TIP3    H122203   5.904   3.957   2.262 -0.3230 -0.8259  0.6710
 7413TIP3    H222204   5.834   3.950   2.128  0.1186  0.1890  0.3774
 7414TIP3   OH222205   6.074   6.567   1.685  0.0709 -0.2862  0.7402
 7414TIP3    H122206   6.122   6.619   1.750  2.3075 -0.6466 -0.5632
 7414TIP3    H222207   6.047   6.631   1.619 -0.2604 -0.2792  0.8751
 7415TIP3   OH222208   5.931   2.954   2.324 -0.2414 -0.4775 -0.7536
 7415TIP3    H122209   5.839   2.937   2.346 -0.1107  0.8726  1.0896
 7415TIP3    H222210   5.929   2.982   2.232 -1.9497  1.1671 -0.2842
 7416TIP3   OH222211   3.236   0.618   1.252 -1.0554  0.1954 -0.0747
 7416TIP3    H122212   3.293   0.545   1.230 -2.2019 -0.4955 -0.8479
 7416TIP3    H222213   3.284   0.667   1.319 -0.1738 -1.1318  0.2908
 7417TIP3   OH222214   5.739   6.384   3.438  0.1114  0.4646 -0.0666
 7417TIP3    H122215   5.656   6.370   3.485  0.5046 -3.0747 -0.1936
 7417TIP3    H222216   5.806   6.356   3.499  0.7760 -2.0651 -1.7838
 7418TIP3   OH222217   3.968   0.745   1.355  0.3998 -0.3960  0.0119
 7418TIP3    H122218   3.943   0.654   1.372 -0.2360 -0.2670 -0.2047
 7418TIP3    H222219   4.059   0.751   1.385 -0.0459 -0.6972  1.5150
 7419TIP3   OH222220   6.839   6.585   2.311  0.3702 -0.2963  0.7330
 7419TIP3    H122221   6.837   6.520   2.381  2.5273 -2.5885 -1.1786
 7419TIP3    H222222   6.809   6.538   2.234 -0.1380  1.6500 -0.3197
 7420TIP3   OH222223   3.095   6.209   5.048  0.9198 -0.3273 -0.0731
 7420TIP3    H122224   3.074   6.196   5.141  2.0427  1.2161  0.4416
 7420TIP3    H222225   3.067   6.128   5.006 -1.1943 -0.4093  1.3270
 7421TIP3   OH222226   0.586   1.194   3.246 -0.2946 -0.1077  0.4032
 7421TIP3    H122227   0.628   1.116   3.208  0.7735  0.6310  0.0207
 7421TIP3    H222228   0.545   1.238   3.171 -0.1580  0.1508  0.4795
 7422TIP3   OH222229   0.112   2.700   3.487 -0.5115  0.4426  0.0052
 7422TIP3    H122230   0.142   2.611   3.504 -1.4568 -0.7937 -3.7996
 7422TIP3    H222231   0.017   2.694   3.486 -0.5728  1.2358 -1.2444
 7423TIP3   OH222232   0.570   0.078   3.122  0.2241 -0.8972 -0.0576
 7423TIP3    H122233   0.576   0.172   3.110  1.4648 -0.9465  0.0482
 7423TIP3    H222234   0.613   0.041   3.045  2.4485 -1.3078  1.3186
 7424TIP3   OH222235   2.969   5.281   1.360 -0.2763  0.0646 -0.4846
 7424TIP3    H122236   3.032   5.296   1.430 -0.6059 -0.6113 -0.0383
 7424TIP3    H222237   2.913   5.358   1.362  0.0892  0.3326 -0.4115
 7425TIP3   OH222238   1.574   0.709   3.362 -0.7838  0.0691  0.1158
 7425TIP3    H122239   1.567   0.701   3.267 -1.7650 -1.5011  0.2768
 7425TIP3    H222240   1.573   0.803   3.379  0.4611  0.4003 -1.4810
 7426TIP3   OH222241   2.449   1.841   0.071 -0.0877 -0.5698 -0.3837
 7426TIP3    H122242   2.524   1.793   0.106 -0.0308  1.5730  2.9182
 7426TIP3    H222243   2.488   1.919   0.030 -0.4242 -0.2178 -0.0396
 7427TIP3   OH222244   1.565   0.250   1.156 -0.7265 -0.4618 -0.4006
 7427TIP3    H122245   1.503   0.178   1.171 -1.3362  0.2016  0.4274
 7427TIP3    H222246   1.650   0.214   1.181 -1.0264 -0.9059  0.0052
 7428TIP3   OH222247   3.920   0.952   4.561 -0.4747  0.2908  0.2633
 7428TIP3    H122248   3.948   0.862   4.575  0.1062 -0.0707 -2.6838
 7428TIP3    H222249   3.871   0.950   4.479  0.5435  2.8464 -0.5037
 7429TIP3   OH222250   5.111   5.939   4.602 -0.1530  0.1950 -0.1409
 7429TIP3    H122251   5.165   5.972   4.674 -0.3499  1.5404 -0.5821
 7429TIP3    H222252   5.161   5.866   4.567  1.0085  0.9025 -0.0264
 7430TIP3   OH222253   1.069   2.824   0.850 -0.1337  0.1335 -0.0628
 7430TIP3    H122254   1.052   2.815   0.756 -1.0692  1.1266 -0.0001
 7430TIP3    H222255   1.111   2.741   0.875  0.4883  0.0121 -1.4278
 7431TIP3   OH222256   5.498   2.205   3.826 -0.4097  0.1796 -0.5191
 7431TIP3    H122257   5.578   2.238   3.866 -0.0680 -1.9842  0.8105
 7431TIP3    H222258   5.428   2.260   3.862  0.3854  1.7790 -1.3206
 7432TIP3   OH222259   0.145   5.030   1.205  0.6609 -0.3059 -0.6210
 7432TIP3    H122260   0.142   5.114   1.160  0.1656 -0.4800 -0.9247
 7432TIP3    H222261   0.140   5.053   1.298  3.5861  0.1738 -0.4809
 7433TIP3   OH222262   2.644   4.753   4.094 -0.0441 -0.0771 -0.0894
 7433TIP3    H122263   2.556   4.734   4.062 -0.1411  0.1929  0.0106
 7433TIP3    H222264   2.687   4.668   4.101 -0.1048 -0.1620 -0.7003
 7434TIP3   OH222265   0.441   5.485   4.999 -0.5877 -0.2283 -0.4484
 7434TIP3    H122266   0.495   5.550   5.044  1.4033 -1.0950 -1.4468
 7434TIP3    H222267   0.433   5.519   4.909  0.9663 -1.5829 -1.1389
 7435TIP3   OH222268   0.768   6.052   4.066  0.0474 -0.4012 -0.5452
 7435TIP3    H122269   0.806   5.979   4.018  0.2703 -0.2603 -0.5867
 7435TIP3    H222270   0.831   6.123   4.055 -0.7066  0.1464 -1.4545
 7436TIP3   OH222271   6.430   4.532   4.428 -0.8368  0.2911 -0.0285
 7436TIP3    H122272   6.507   4.489   4.465  1.0573  1.9869 -1.7530
 7436TIP3    H222273   6.385   4.463   4.379  0.5331 -0.3785 -0.3806
 7437TIP3   OH222274   2.331   3.128   2.666 -0.1317  0.3291  0.0482
 7437TIP3    H122275   2.259   3.066   2.673 -0.5198  0.6820 -0.6534
 7437TIP3    H222276   2.320   3.168   2.579 -1.2515  2.9970  1.3019
 7438TIP3   OH222277   1.050   0.227   4.279  0.2643  0.0579  0.1861
 7438TIP3    H122278   1.037   0.164   4.350  2.8415  1.0084  1.6435
 7438TIP3    H222279   0.973   0.285   4.285 -0.3955 -0.8710  1.0759
 7439TIP3   OH222280   2.214   5.233   4.096  0.3039  0.4411  0.1701
 7439TIP3    H122281   2.184   5.191   4.177 -0.4540  1.1089  0.2475
 7439TIP3    H222282   2.298   5.272   4.120  0.3203  0.2100  0.4994
 7440TIP3   OH222283   3.476   2.818   1.004 -0.9634 -0.3864 -0.0154
 7440TIP3    H122284   3.485   2.905   0.965  0.0159 -0.8157 -0.7968
 7440TIP3    H222285   3.509   2.758   0.937 -1.6771 -1.3724  0.4867
 7441TIP3   OH222286   5.675   2.367   5.259  0.0870  0.2669  0.1122
 7441TIP3    H122287   5.739   2.432   5.230  1.6573 -1.6658 -0.9112
 7441TIP3    H222288   5.682   2.366   5.355  1.2794  0.3804  0.0311
 7442TIP3   OH222289   4.653   4.861   1.556  0.2574 -0.1094  0.1156
 7442TIP3    H122290   4.581   4.900   1.506  0.4404 -0.2968 -0.2967
 7442TIP3    H222291   4.706   4.935   1.585  0.4942 -0.0356 -0.4988
 7443TIP3   OH222292   2.292   4.373   4.774 -0.0629 -0.0619 -0.5381
 7443TIP3    H122293   2.238   4.415   4.707 -1.1769 -0.2489  0.2317
 7443TIP3    H222294   2.233   4.315   4.821  0.9834 -0.8722 -0.1740
 7444TIP3   OH222295   1.571   3.709   3.675 -0.6397 -0.6602  0.2779
 7444TIP3    H122296   1.536   3.690   3.762 -0.0417 -1.5736  0.3344
 7444TIP3    H222297   1.631   3.783   3.688  0.4623 -1.6339  0.8965
 7445TIP3   OH222298   0.976   5.851   2.461  0.0391 -0.1993  0.1003
 7445TIP3    H122299   0.977   5.867   2.366  1.5620  0.3971  0.1897
 7445TIP3    H222300   1.052   5.795   2.476  0.4038  0.5251  1.0846
 7446TIP3   OH222301   3.372   1.376   1.101  0.0207 -0.0082  0.4694
 7446TIP3    H122302   3.456   1.331   1.095  0.5656  1.1184 -1.4072
 7446TIP3    H222303   3.391   1.458   1.147  0.0221  0.3618 -0.1771
 7447TIP3   OH222304   3.133   4.943   2.852 -0.5759  0.2563  0.6654
 7447TIP3    H122305   3.072   4.957   2.925 -0.0459 -0.8988  1.3606
 7447TIP3    H222306   3.089   4.880   2.796 -0.4991  0.2908  0.5660
 7448TIP3   OH222307   4.978   2.934   5.776  0.1895 -0.1789  0.2875
 7448TIP3    H122308   4.931   3.004   5.729 -0.3881 -0.2432  0.7558
 7448TIP3    H222309   4.913   2.897   5.835 -0.3377 -2.9710 -1.8368
 7449TIP3   OH222310   0.676   1.459   4.475 -0.2437  0.0999 -0.1570
 7449TIP3    H122311   0.689   1.438   4.568  1.6453 -0.0395 -0.4138
 7449TIP3    H222312   0.764   1.459   4.438 -0.9272  0.5869 -1.8753
 7450TIP3   OH222313   4.564   2.116   4.631 -0.2036  0.0752  0.2772
 7450TIP3    H122314   4.512   2.037   4.615  1.4608 -1.2893  1.2913
 7450TIP3    H222315   4.555   2.131   4.726 -1.0487  1.5462  0.0021
 7451TIP3   OH222316   2.400   6.427   4.979  0.0773  0.5173 -0.0647
 7451TIP3    H122317   2.484   6.411   4.937 -0.0605  1.2174 -0.6089
 7451TIP3    H222318   2.345   6.465   4.911 -1.1520 -1.2397 -0.1404
 7452TIP3   OH222319   2.533   2.455   2.795  0.2636  1.0346  0.0311
 7452TIP3    H122320   2.483   2.532   2.822  0.6017  1.7476 -1.2905
 7452TIP3    H222321   2.466   2.391   2.771 -0.0918 -0.0081  3.3206
 7453TIP3   OH222322   6.199   6.500   5.432 -0.3589 -0.5934 -0.2252
 7453TIP3    H122323   6.126   6.501   5.370  0.2465  1.6220 -1.0111
 7453TIP3    H222324   6.259   6.433   5.397 -0.8685 -0.6553 -1.0030
 7454TIP3   OH222325   7.163   6.735   1.641  0.0023 -0.8517  0.2459
 7454TIP3    H122326   7.242   6.740   1.589 -0.3074 -0.3703 -0.1860
 7454TIP3    H222327   7.179   6.664   1.703  1.4925  0.4059  1.3803
 7455TIP3   OH222328   4.115   1.390   1.573  0.3794 -0.3784  0.3459
 7455TIP3    H122329   4.157   1.442   1.504 -0.8841 -1.2935 -1.1901
 7455TIP3    H222330   4.072   1.456   1.629  1.2020  0.3715  0.1184
 7456TIP3   OH222331   2.313   5.867   4.575  0.3249  0.3369 -0.0455
 7456TIP3    H122332   2.396   5.822   4.585  1.1114  1.5956 -0.5823
 7456TIP3    H222333   2.247   5.798   4.578  1.4216 -0.7450 -0.1273
 7457TIP3   OH222334   2.099   6.628   4.192 -0.2961 -0.7249  0.4325
 7457TIP3    H122335   2.160   6.554   4.191 -1.0643 -1.3648  0.0938
 7457TIP3    H222336   2.091   6.654   4.100 -0.7004 -0.7852  0.4509
 7458TIP3   OH222337   3.037   0.721   0.458 -0.1778  0.2505 -0.0313
 7458TIP3    H122338   3.031   0.628   0.438 -0.8271  0.0820  0.9092
 7458TIP3    H222339   3.130   0.736   0.476 -0.2527 -0.4621  0.9691
 7459TIP3   OH222340   5.773   4.811   5.293  0.1620  0.0457  0.0585
 7459TIP3    H122341   5.759   4.906   5.292 -0.7088 -0.0744 -0.5407
 7459TIP3    H222342   5.837   4.795   5.225  0.8976  0.2779  0.6845
 7460TIP3   OH222343   1.609   1.311   3.993 -0.1359  0.4065  0.0475
 7460TIP3    H122344   1.704   1.323   3.984 -0.2932  1.2162 -0.6752
 7460TIP3    H222345   1.590   1.338   4.082  0.0957  1.9363 -0.3267
 7461TIP3   OH222346   0.732   6.607   5.448  0.0823  0.5939  0.1618
 7461TIP3    H122347   0.662   6.545   5.424 -0.4610  0.9993  0.6697
 7461TIP3    H222348   0.812   6.564   5.418 -0.2707 -0.4295  0.6121
 7462TIP3   OH222349   6.041   6.075   0.305  0.0426 -0.2102 -0.2355
 7462TIP3    H122350   6.021   6.047   0.394 -1.3303 -2.9387 -1.3085
 7462TIP3    H222351   6.129   6.041   0.289  0.6785  1.0889  0.3286
 7463TIP3   OH222352   6.492   1.070   2.543 -0.0550  0.2957  0.0886
 7463TIP3    H122353   6.464   0.982   2.516 -0.5197  0.3965  0.2245
 7463TIP3    H222354   6.580   1.079   2.508 -0.8862  0.7048 -2.0864
 7464TIP3   OH222355   5.308   3.543   1.748  0.4593 -0.3420  0.1980
 7464TIP3    H122356   5.257   3.623   1.739 -1.9051 -1.6340  1.1674
 7464TIP3    H222357   5.306   3.503   1.662 -1.9669 -1.3363  0.6566
 7465TIP3   OH222358   1.081   0.028   5.496 -0.3914 -0.2084  0.8488
 7465TIP3    H122359   1.016   0.095   5.475  0.2126  0.0749 -0.1999
 7465TIP3    H222360   1.135   0.022   5.417  0.4368 -0.9199  1.4552
 7466TIP3   OH222361   4.472   1.740   2.177 -0.0650  0.0751 -0.2768
 7466TIP3    H122362   4.384   1.706   2.194 -1.1277  1.1743 -3.0327
 7466TIP3    H222363   4.484   1.808   2.244 -1.5788  0.3385 -0.2366
 7467TIP3   OH222364   0.730   3.515   3.124 -0.3098  0.4058 -0.0761
 7467TIP3    H122365   0.737   3.521   3.028  0.5258 -2.2128 -0.2676
 7467TIP3    H222366   0.803   3.459   3.149  0.3599  2.1708  2.3214
 7468TIP3   OH222367   2.205   1.546   4.139  0.6890  0.2670  0.0534
 7468TIP3    H122368   2.288   1.546   4.091  1.2608  0.1939  1.0125
 7468TIP3    H222369   2.183   1.453   4.150  0.1168  0.2916 -0.7866
 7469TIP3   OH222370   6.271   5.553   4.728 -0.4046  0.3453  0.1139
 7469TIP3    H122371   6.186   5.556   4.683 -0.3733  0.5403  0.0670
 7469TIP3    H222372   6.248   5.555   4.821 -0.4849 -0.4578  0.1197
 7470TIP3   OH222373   6.564   2.776   2.757 -0.5474  0.0361 -0.1693
 7470TIP3    H122374   6.616   2.728   2.821 -1.3762  0.4078  0.8254
 7470TIP3    H222375   6.478   2.734   2.759 -0.4306 -0.2771 -1.4376
 7471TIP3   OH222376   6.406   3.635   5.482  0.3291  0.3699  0.0751
 7471TIP3    H122377   6.357   3.665   5.558  0.9429 -0.1526  0.6951
 7471TIP3    H222378   6.498   3.649   5.505  0.5957 -1.1268  0.0310
 7472TIP3   OH222379   4.226   0.672   0.841  0.1245 -0.1617  0.2653
 7472TIP3    H122380   4.250   0.580   0.848  1.9220  0.2276 -0.2305
 7472TIP3    H222381   4.203   0.697   0.930  0.8146 -0.7970  0.6349
 7473TIP3   OH222382   1.239   5.526   0.381  0.0957  0.2553  0.2680
 7473TIP3    H122383   1.200   5.553   0.298 -1.7764  1.0592  1.3352
 7473TIP3    H222384   1.248   5.431   0.375  0.9319  0.4098 -1.2063
 7474TIP3   OH222385   3.541   3.687   1.759  0.3906  0.0177 -0.2785
 7474TIP3    H122386   3.532   3.781   1.743  2.4178  1.0614  3.6190
 7474TIP3    H222387   3.622   3.663   1.713  1.0778  0.7428  0.5217
 7475TIP3   OH222388   1.797   2.811   0.542  0.4217  0.6180  0.4647
 7475TIP3    H122389   1.745   2.743   0.586  0.6643  0.7279  0.9359
 7475TIP3    H222390   1.882   2.770   0.526  1.2270  1.3746  2.4846
 7476TIP3   OH222391   4.136   1.611   2.532  0.0215  0.3460 -0.2776
 7476TIP3    H122392   4.228   1.587   2.537 -0.0014  0.3463  0.2375
 7476TIP3    H222393   4.127   1.686   2.591 -0.1742  0.7842 -0.8498
 7477TIP3   OH222394   5.530   3.538   4.890  0.1548  0.0966  0.2470
 7477TIP3    H122395   5.449   3.526   4.939  0.2472  0.5254  0.5091
 7477TIP3    H222396   5.501   3.547   4.799 -0.0234 -0.6193  0.2273
 7478TIP3   OH222397   6.638   5.520   0.808  0.2475  0.3437 -0.2781
 7478TIP3    H122398   6.652   5.615   0.814  1.3770  0.2491 -1.1389
 7478TIP3    H222399   6.698   5.491   0.740  0.7431 -1.1659  0.7578
 7479TIP3   OH222400   2.900   3.814   0.213 -0.5674 -0.3418  0.2139
 7479TIP3    H122401   2.932   3.807   0.303 -0.5175 -0.6273  0.1764
 7479TIP3    H222402   2.916   3.727   0.176 -0.1550 -0.0873 -0.2148
 7480TIP3   OH222403   1.824   2.267   5.346 -0.2486 -0.0375  0.0206
 7480TIP3    H122404   1.886   2.279   5.274 -0.7672  0.9441 -0.2824
 7480TIP3    H222405   1.867   2.204   5.404  0.8061  0.2315 -0.4347
 7481TIP3   OH222406   2.955   6.195   1.106 -0.0740  0.4028  0.5796
 7481TIP3    H122407   3.048   6.175   1.120 -0.0041  0.5783  0.3640
 7481TIP3    H222408   2.955   6.271   1.049 -0.3704 -0.7959 -1.0870
 7482TIP3   OH222409   1.373   4.191   1.770 -0.1651  0.4784 -0.4842
 7482TIP3    H122410   1.279   4.206   1.758 -0.0719  1.0363 -0.5540
 7482TIP3    H222411   1.397   4.247   1.843  0.3219  1.1614 -1.1518
 7483TIP3   OH222412   4.117   3.246   4.042 -0.0886  0.1297  0.9152
 7483TIP3    H122413   4.124   3.285   4.129 -1.9061  2.5584  0.0856
 7483TIP3    H222414   4.054   3.175   4.052  0.2286 -0.0479  1.7007
 7484TIP3   OH222415   5.169   4.372   2.502  0.1102 -0.1413 -0.0010
 7484TIP3    H122416   5.200   4.449   2.550  0.1042 -0.7533  1.0066
 7484TIP3    H222417   5.104   4.332   2.560 -0.1973 -0.6771 -0.7021
 7485TIP3   OH222418   5.002   2.472   2.650 -0.2198  0.4006  0.2590
 7485TIP3    H122419   5.034   2.433   2.732  2.7422 -0.0228 -0.9640
 7485TIP3    H222420   4.935   2.534   2.678 -0.1943 -0.6069  2.8764
 7486TIP3   OH222421   5.478   2.694   0.281 -0.6278 -0.3558 -0.2101
 7486TIP3    H122422   5.459   2.779   0.322 -1.1532 -1.1896  1.3604
 7486TIP3    H222423   5.556   2.710   0.229 -1.3390  1.3529 -0.8182
 7487TIP3   OH222424   6.333   0.181   3.789 -0.2792 -0.0153  0.0873
 7487TIP3    H122425   6.259   0.225   3.749  1.5243  1.5103 -1.8403
 7487TIP3    H222426   6.370   0.245   3.850  0.5018 -0.0214 -0.3589
 7488TIP3   OH222427   3.001   6.348   2.746 -0.1757  0.2546 -0.6340
 7488TIP3    H122428   3.015   6.436   2.781  1.6793 -0.4168  0.4145
 7488TIP3    H222429   2.971   6.297   2.821 -1.5779  0.0309 -1.3129
 7489TIP3   OH222430   0.842   5.942   0.538  0.7871 -0.1709  0.1467
 7489TIP3    H122431   0.910   5.904   0.483 -0.4115  0.0346 -1.5330
 7489TIP3    H222432   0.792   5.867   0.571  0.0954 -0.2173 -0.9570
 7490TIP3   OH222433   7.209   5.797   0.184  0.5110  0.1150  0.0854
 7490TIP3    H122434   7.167   5.824   0.102  0.0590  0.2438  0.3550
 7490TIP3    H222435   7.274   5.865   0.201  1.4187 -0.5008 -0.7553
 7491TIP3   OH222436   2.501   6.337   3.892  0.6756 -0.6429  0.8570
 7491TIP3    H122437   2.428   6.398   3.884  0.1707 -1.4554 -1.9726
 7491TIP3    H222438   2.477   6.279   3.964 -0.7364  0.0526  0.9745
 7492TIP3   OH222439   3.739   1.809   0.737 -0.0280  0.1620 -0.2117
 7492TIP3    H122440   3.706   1.898   0.751  0.4089  0.3686 -0.4879
 7492TIP3    H222441   3.666   1.762   0.696 -0.1872  0.4479 -0.2559
 7493TIP3   OH222442   1.994   5.501   2.691 -0.8434 -0.0833  0.5915
 7493TIP3    H122443   2.018   5.589   2.662 -2.3953  0.4032  0.6555
 7493TIP3    H222444   2.069   5.471   2.741 -0.4897  1.4243  1.0238
 7494TIP3   OH222445   5.402   5.546   0.270  0.1511 -0.0216  0.1779
 7494TIP3    H122446   5.339   5.546   0.342 -0.7013 -0.6000 -0.5415
 7494TIP3    H222447   5.425   5.454   0.259  0.6316  0.1171  0.0150
 7495TIP3   OH222448   5.451   4.705   2.665  0.0612  0.2656 -0.2874
 7495TIP3    H122449   5.473   4.793   2.696  0.7466  0.2029 -0.5759
 7495TIP3    H222450   5.520   4.649   2.701  0.6684  0.1348 -1.5947
 7496TIP3   OH222451   5.770   3.863   2.495  0.0864  0.3379  0.8098
 7496TIP3    H122452   5.766   3.876   2.400  1.5632  1.4798  0.8612
 7496TIP3    H222453   5.779   3.951   2.531  0.6829 -0.1531  1.9104
 7497TIP3   OH222454   3.788   4.025   1.074  0.1003 -0.2987 -0.4187
 7497TIP3    H122455   3.755   3.984   1.154 -3.6795  1.2656 -0.9707
 7497TIP3    H222456   3.783   3.956   1.008 -2.3392 -0.1775 -0.4611
 7498TIP3   OH222457   6.275   6.242   0.588  0.2801 -0.4602 -0.1637
 7498TIP3    H122458   6.369   6.231   0.602  0.4293  2.6226  2.2671
 7498TIP3    H222459   6.268   6.290   0.506  0.8478 -0.5949 -0.2904
 7499TIP3   OH222460   1.273   2.138   0.302 -0.1127  0.3282  0.2313
 7499TIP3    H122461   1.365   2.119   0.281 -0.1344 -0.8465  1.0931
 7499TIP3    H222462   1.277   2.202   0.372  0.1048 -0.7208  1.2111
 7500TIP3   OH222463   0.498   1.361   4.698  0.0814  0.0566 -0.6955
 7500TIP3    H122464   0.537   1.392   4.780 -1.2194  0.9149 -0.3676
 7500TIP3    H222465   0.433   1.428   4.676 -0.6683 -0.9344 -1.6152
 7501TIP3   OH222466   3.641   3.752   4.752  0.2027  0.1081  0.4327
 7501TIP3    H122467   3.679   3.672   4.715 -0.0379  0.5872 -0.8824
 7501TIP3    H222468   3.710   3.787   4.809  0.1317 -1.2783  1.4238
 7502TIP3   OH222469   0.908   5.329   2.574 -1.0731 -0.1071 -0.0222
 7502TIP3    H122470   0.986   5.338   2.518 -1.6664  0.6535 -0.7508
 7502TIP3    H222471   0.931   5.374   2.655 -0.0226 -1.6375  0.5758
 7503TIP3   OH222472   4.055   1.453   4.666  0.5781 -1.2154  0.3360
 7503TIP3    H122473   4.043   1.416   4.579  3.4818 -0.5147 -0.4465
 7503TIP3    H222474   4.064   1.377   4.723 -0.7572 -1.6722 -0.0070
 7504TIP3   OH222475   7.026   0.808   1.987  0.2181 -0.3229 -0.2925
 7504TIP3    H122476   6.936   0.804   2.019 -0.2304  1.0138 -1.2717
 7504TIP3    H222477   7.035   0.730   1.932 -0.6583 -0.0114 -0.9133
 7505TIP3   OH222478   1.258   1.614   0.002 -0.5965  0.1892 -0.1480
 7505TIP3    H122479   1.177   1.599  -0.046 -0.7452 -0.5711  0.3277
 7505TIP3    H222480   1.232   1.662   0.081 -0.9815 -2.1392  1.2383
 7506TIP3   OH222481   6.260   6.505   4.130  0.0452 -0.0800 -0.5245
 7506TIP3    H122482   6.319   6.557   4.075 -0.0272  0.4089 -0.1440
 7506TIP3    H222483   6.177   6.552   4.128  0.8048  1.6134  2.3514
 7507TIP3   OH222484   4.374   5.348   1.373 -0.1831 -0.0315  0.0460
 7507TIP3    H122485   4.291   5.387   1.400  0.3982  2.2333 -1.1550
 7507TIP3    H222486   4.440   5.402   1.415  0.7044 -1.0440 -0.0132
 7508TIP3   OH222487   2.732   3.619   3.475 -0.8532  0.1188 -0.2824
 7508TIP3    H122488   2.639   3.600   3.487 -0.8098  0.7386  1.3112
 7508TIP3    H222489   2.772   3.602   3.561  0.7950 -1.5676 -1.3181
 7509TIP3   OH222490   5.876   0.872   4.180  0.0724  0.0939 -0.1656
 7509TIP3    H122491   5.893   0.780   4.159 -1.0935 -0.2178  0.2024
 7509TIP3    H222492   5.957   0.903   4.221  0.1881 -0.9981  0.4494
 7510TIP3   OH222493   4.842   6.106   4.869 -0.0722 -0.7318  0.0015
 7510TIP3    H122494   4.902   6.035   4.893  2.0676  0.8869 -0.2280
 7510TIP3    H222495   4.841   6.106   4.773  1.1647  0.4449 -0.0419
 7511TIP3   OH222496   1.997   3.147   3.758 -0.3273 -0.4111 -0.1630
 7511TIP3    H122497   1.944   3.076   3.794 -0.5576 -0.9526 -1.5232
 7511TIP3    H222498   2.085   3.129   3.790 -0.6527 -0.4160  0.7773
 7512TIP3   OH222499   1.016   6.742   4.351 -0.0338 -0.0995  0.2095
 7512TIP3    H122500   0.950   6.809   4.369 -1.6613 -0.7556 -2.7479
 7512TIP3    H222501   1.089   6.765   4.408 -1.0407  3.3704  0.3205
 7513TIP3   OH222502   4.297   4.528   3.301 -0.2044 -0.3958 -0.7390
 7513TIP3    H122503   4.307   4.582   3.379  0.2028 -0.0381 -1.0332
 7513TIP3    H222504   4.319   4.439   3.331  0.9546 -0.1054 -0.6641
 7514TIP3   OH222505   0.837   6.364   4.120  0.2096 -0.4814  0.2277
 7514TIP3    H122506   0.900   6.316   4.066  0.2126  0.3732 -0.5544
 7514TIP3    H222507   0.762   6.379   4.062  0.7133  1.5208  0.0246
 7515TIP3   OH222508   0.377   6.595   4.495 -0.3980 -0.6851  0.0031
 7515TIP3    H122509   0.455   6.557   4.455 -0.3237 -1.0332  0.4668
 7515TIP3    H222510   0.363   6.677   4.448 -0.8713 -1.5168 -1.4217
 7516TIP3   OH222511   1.183   4.677   3.819 -0.2496 -0.1734  0.8206
 7516TIP3    H122512   1.100   4.629   3.819 -1.0220  1.0637 -0.5152
 7516TIP3    H222513   1.249   4.609   3.811 -1.2837 -1.0874 -0.5790
 7517TIP3   OH222514   4.939   1.477   3.823 -0.2509  0.3682  0.0723
 7517TIP3    H122515   4.991   1.557   3.818 -0.0464  0.1544 -1.5783
 7517TIP3    H222516   4.924   1.452   3.732  0.2733 -1.8479  0.5353
 7518TIP3   OH222517   6.149   1.075   3.538 -0.3818 -0.0955  0.1950
 7518TIP3    H122518   6.129   1.168   3.533  2.0542  0.6682  2.6818
 7518TIP3    H222519   6.143   1.045   3.447 -0.5197  2.6170 -0.7752
 7519TIP3   OH222520   2.091   1.705   5.276  0.1535 -0.5232  0.5827
 7519TIP3    H122521   2.042   1.624   5.292 -1.3238 -0.1169 -1.4675
 7519TIP3    H222522   2.175   1.675   5.240  0.1192 -1.1616  1.0200
 7520TIP3   OH222523   1.630   2.679   0.709 -0.5637  0.3307  0.5625
 7520TIP3    H122524   1.535   2.665   0.707 -0.8279  1.8084  1.3350
 7520TIP3    H222525   1.640   2.767   0.746  1.0589  0.8117 -0.8854
 7521TIP3   OH222526   6.242   6.388   0.373  0.0190  0.0770  0.4694
 7521TIP3    H122527   6.150   6.375   0.350 -0.1279 -1.2544  1.6535
 7521TIP3    H222528   6.290   6.342   0.304 -0.1167  1.7777 -0.8162
 7522TIP3   OH222529   5.268   3.391   2.728  0.3819  0.3187  0.7287
 7522TIP3    H122530   5.229   3.315   2.769  1.4256 -0.5185  0.2189
 7522TIP3    H222531   5.277   3.455   2.799 -0.9877  0.1958  1.0420
 7523TIP3   OH222532   2.108   4.317   0.583 -0.5573 -0.3657 -0.0325
 7523TIP3    H122533   2.179   4.288   0.639  0.1518  0.0047 -0.7238
 7523TIP3    H222534   2.106   4.255   0.511  0.4129  0.7493 -1.0715
 7524TIP3   OH222535   2.139   6.844   4.365 -0.6688 -0.0795  0.4869
 7524TIP3    H122536   2.075   6.807   4.304 -0.2277  1.6393 -1.1162
 7524TIP3    H222537   2.202   6.774   4.378 -0.1793 -0.2123 -1.9673
 7525TIP3   OH222538   3.871   3.241   0.462  0.4352  0.4134  0.0557
 7525TIP3    H122539   3.853   3.280   0.376 -0.1518 -2.3981 -1.2065
 7525TIP3    H222540   3.844   3.150   0.453  3.3310 -0.8239  2.2203
 7526TIP3   OH222541   0.207   1.650   5.839 -0.0352 -0.6076  0.3521
 7526TIP3    H122542   0.301   1.662   5.851  0.3777 -1.4929 -1.5324
 7526TIP3    H222543   0.171   1.739   5.847  1.0041 -0.2003  0.7467
 7527TIP3   OH222544   4.766   6.236   2.866  0.4875 -0.0475  0.2871
 7527TIP3    H122545   4.843   6.181   2.875  0.9409  0.1746 -1.7058
 7527TIP3    H222546   4.796   6.324   2.885  0.1868 -0.2160  1.6518
 7528TIP3   OH222547   0.262   1.286   0.474 -0.0128  0.3980  0.2094
 7528TIP3    H122548   0.190   1.345   0.494  0.2226  1.2347 -1.2371
 7528TIP3    H222549   0.332   1.344   0.444  0.3239 -0.5875 -0.9812
 7529TIP3   OH222550   5.078   1.202   3.879  0.3568 -0.3403 -0.2685
 7529TIP3    H122551   5.053   1.114   3.853  0.1591 -1.0522  2.1081
 7529TIP3    H222552   5.038   1.214   3.966  2.9349  0.8656  0.8651
 7530TIP3   OH222553   1.965   6.674   1.321  1.2149  0.5311  0.0327
 7530TIP3    H122554   2.019   6.611   1.273  1.2966  1.5756 -1.2930
 7530TIP3    H222555   1.879   6.633   1.325  1.2927  0.2787 -0.7364
 7531TIP3   OH222556   3.196   3.070   3.755 -0.0289  0.2575 -0.3132
 7531TIP3    H122557   3.289   3.064   3.778  0.3892 -2.4134 -2.2885
 7531TIP3    H222558   3.196   3.095   3.663 -1.3471  1.0795 -0.1194
 7532TIP3   OH222559   0.888   0.700   2.792 -0.4348  0.4317 -0.4023
 7532TIP3    H122560   0.890   0.763   2.720 -1.9129  0.9901  0.0212
 7532TIP3    H222561   0.956   0.731   2.853 -0.3580  0.9412 -0.7405
 7533TIP3   OH222562   2.595   2.932   2.461 -0.4514 -0.2099 -0.1055
 7533TIP3    H122563   2.558   2.959   2.377 -1.4455 -0.6540  0.1735
 7533TIP3    H222564   2.643   3.009   2.492 -1.0999  0.3699 -0.5097
 7534TIP3   OH222565   2.343   6.493   1.032  0.0234  0.1850  0.1857
 7534TIP3    H122566   2.401   6.564   1.002 -0.1031  0.6456  0.9980
 7534TIP3    H222567   2.298   6.464   0.953  2.6038 -1.3946 -0.8510
 7535TIP3   OH222568   4.777   0.662   1.592 -0.2226  0.2744  0.2574
 7535TIP3    H122569   4.715   0.734   1.601 -0.4574  0.3625 -1.7941
 7535TIP3    H222570   4.849   0.698   1.540  0.5382 -0.4517  0.7831
 7536TIP3   OH222571   5.474   3.577   0.309  0.2306  0.1601  0.1194
 7536TIP3    H122572   5.464   3.493   0.265  1.9059 -0.6974  1.2885
 7536TIP3    H222573   5.386   3.614   0.310 -0.1913 -0.5954 -2.2680
 7537TIP3   OH222574   1.157   3.275   3.049 -0.4899  0.3506 -0.2654
 7537TIP3    H122575   1.076   3.255   3.095 -0.2582  1.8101  0.8548
 7537TIP3    H222576   1.143   3.361   3.010  0.4023  0.4773 -0.3381
 7538TIP3   OH222577   0.889   5.510   2.819  0.3052  0.0108  0.2741
 7538TIP3    H122578   0.798   5.516   2.790  0.3010  0.5145  0.3705
 7538TIP3    H222579   0.890   5.442   2.885 -0.2069  0.7037  1.0163
 7539TIP3   OH222580   3.054   5.674   1.200  0.5971  0.2029  0.4293
 7539TIP3    H122581   3.015   5.761   1.210  1.2149  0.7006 -1.1689
 7539TIP3    H222582   3.138   5.690   1.156  0.7250 -1.1962  0.1213
 7540TIP3   OH222583   5.524   2.699   2.556 -0.2446 -0.2040 -0.1537
 7540TIP3    H122584   5.428   2.704   2.554 -0.2086  0.4144 -1.0445
 7540TIP3    H222585   5.548   2.656   2.474  0.3609  2.9366 -1.7876
 7541TIP3   OH222586   3.585   6.617   3.028  0.4628  0.6694  0.1509
 7541TIP3    H122587   3.553   6.527   3.022 -1.4673  1.2417  0.8452
 7541TIP3    H222588   3.538   6.654   3.103  2.7446  1.6875  1.1794
 7542TIP3   OH222589   2.503   4.334   2.189  0.2862  0.1321  0.0562
 7542TIP3    H122590   2.566   4.372   2.251  0.2237 -1.2350  0.9857
 7542TIP3    H222591   2.476   4.408   2.134  0.0997  1.4602  1.8645
 7543TIP3   OH222592   0.085   6.594   5.392 -0.4266  0.3897 -0.2272
 7543TIP3    H122593   0.167   6.616   5.348  1.1662 -0.4379  2.1335
 7543TIP3    H222594   0.039   6.677   5.402  1.5551  1.3910  1.0656
 7544TIP3   OH222595   2.123   5.633   4.589  0.2306 -0.0598 -0.3741
 7544TIP3    H122596   2.072   5.634   4.670  1.2483  1.0840  0.2832
 7544TIP3    H222597   2.154   5.543   4.581 -2.5541 -1.0412 -1.2774
 7545TIP3   OH222598   0.432   6.774   3.293  0.0671 -0.2626  0.1685
 7545TIP3    H122599   0.456   6.809   3.379  0.3940  0.8786 -0.3645
 7545TIP3    H222600   0.508   6.790   3.238 -0.9060  1.0332 -0.8801
 7546TIP3   OH222601   5.155   2.709   2.204 -0.1097  0.3927  0.6424
 7546TIP3    H122602   5.113   2.652   2.140 -0.5625  1.1815  0.2208
 7546TIP3    H222603   5.096   2.708   2.279 -0.6965  1.1867  0.2026
 7547TIP3   OH222604   1.298   3.078   3.159  0.1441 -0.2766 -0.5090
 7547TIP3    H122605   1.271   3.075   3.251  0.2245 -2.2681 -0.4981
 7547TIP3    H222606   1.259   3.158   3.125 -2.4687 -1.0059  0.4982
 7548TIP3   OH222607   3.394   1.343   3.479  1.0861 -0.1970  0.3554
 7548TIP3    H122608   3.449   1.392   3.418  1.9995 -0.9810  0.5215
 7548TIP3    H222609   3.380   1.402   3.553  2.2135 -0.1984  0.5760
 7549TIP3   OH222610   1.565   0.542   1.791 -0.1267 -0.6823  0.1331
 7549TIP3    H122611   1.655   0.532   1.760 -0.2568 -0.2548 -0.3938
 7549TIP3    H222612   1.565   0.505   1.879  0.3208 -1.6522 -0.2671
 7550TIP3   OH222613   7.135   6.763   4.917 -0.3155  0.1675  0.4966
 7550TIP3    H122614   7.071   6.735   4.982 -0.9854  0.6428  0.0564
 7550TIP3    H222615   7.134   6.694   4.851  1.1095 -0.8328  1.4522
 7551TIP3   OH222616   3.794   3.275   4.305  0.2546  0.3416  0.3137
 7551TIP3    H122617   3.845   3.289   4.385 -0.1951  1.6605  0.4015
 7551TIP3    H222618   3.826   3.192   4.270  0.4521 -0.2666  1.8624
 7552TIP3   OH222619   5.469   6.420   0.912 -0.4682  0.2142 -0.4601
 7552TIP3    H122620   5.391   6.373   0.942  0.6728 -0.2922  1.9216
 7552TIP3    H222621   5.532   6.350   0.891  0.8642  0.5674  2.0406
 7553TIP3   OH222622   5.718   0.866   2.455  0.3768  0.0918  0.2208
 7553TIP3    H122623   5.766   0.858   2.537 -1.1658 -0.7020  1.0942
 7553TIP3    H222624   5.667   0.947   2.466 -0.1596 -0.2453  0.2421
 7554TIP3   OH222625   4.945   3.202   3.110 -0.5563  0.2372 -0.4028
 7554TIP3    H122626   4.885   3.237   3.045  0.2917 -1.0501 -1.9657
 7554TIP3    H222627   4.962   3.275   3.170 -2.7397  0.9450 -0.5719
 7555TIP3   OH222628   2.085   6.581   4.986  0.5295  0.1502  0.0087
 7555TIP3    H122629   2.163   6.588   4.930 -0.0167 -0.2431 -0.8208
 7555TIP3    H222630   2.018   6.543   4.929 -0.0310 -0.3189  0.9546
 7556TIP3   OH222631   3.421   3.800   2.265 -0.2756  0.5690  0.7786
 7556TIP3    H122632   3.478   3.809   2.188 -1.4746  0.5281 -0.1370
 7556TIP3    H222633   3.431   3.884   2.311  0.9613  0.3428  0.9583
 7557TIP3   OH222634   4.246   4.119   5.453  0.1381 -0.2280  0.2819
 7557TIP3    H122635   4.289   4.184   5.507 -0.1594 -0.1691  0.4509
 7557TIP3    H222636   4.225   4.047   5.513  0.7951 -0.6460  0.0247
 7558TIP3   OH222637   3.214   4.213   5.097  0.0526 -0.0926  0.0339
 7558TIP3    H122638   3.143   4.263   5.057 -0.2482  0.5618  1.3647
 7558TIP3    H222639   3.287   4.223   5.036 -0.4422  0.7507 -0.4364
 7559TIP3   OH222640   0.873   3.859   5.770 -0.2626  0.1709 -0.1138
 7559TIP3    H122641   0.817   3.814   5.833  0.7849 -1.1275 -0.0544
 7559TIP3    H222642   0.962   3.840   5.799  0.2263  0.9923 -1.0077
 7560TIP3   OH222643   5.004   3.354   4.579 -0.0792 -0.1798  0.2308
 7560TIP3    H122644   5.054   3.400   4.511 -1.5583  0.3927 -0.5029
 7560TIP3    H222645   4.953   3.288   4.532 -0.7707 -0.0854  0.8365
 7561TIP3   OH222646   3.881   0.908   0.560  0.1718  0.0583 -0.3179
 7561TIP3    H122647   3.968   0.936   0.590  0.1036  0.0362 -0.1008
 7561TIP3    H222648   3.822   0.976   0.592 -0.4101 -1.6813  2.6429
 7562TIP3   OH222649   3.875   1.650   3.648 -0.3688  0.2459 -0.3235
 7562TIP3    H122650   3.799   1.707   3.665 -0.2640  0.0467  0.9219
 7562TIP3    H222651   3.944   1.687   3.703 -0.4069 -1.2983  0.8026
 7563TIP3   OH222652   0.359   4.318   0.690  0.0442 -0.4282  0.2003
 7563TIP3    H122653   0.281   4.312   0.744 -0.1822  2.5889  0.3739
 7563TIP3    H222654   0.373   4.411   0.677  3.2655 -0.8555 -0.3882
 7564TIP3   OH222655   3.236   1.256   5.309  0.2340 -0.0962  0.1435
 7564TIP3    H122656   3.209   1.309   5.234 -0.7146 -0.4033  0.2585
 7564TIP3    H222657   3.253   1.319   5.378  1.5441  0.2279 -0.4304
 7565TIP3   OH222658   6.546   3.969   3.612 -0.3928  0.5441 -0.1836
 7565TIP3    H122659   6.536   3.898   3.675 -1.4742 -0.2955 -1.2524
 7565TIP3    H222660   6.570   4.045   3.665  0.6721 -0.5712  1.0029
 7566TIP3   OH222661   0.486   2.960   0.565  0.4156  0.4089 -0.4143
 7566TIP3    H122662   0.475   2.934   0.474  1.1232  0.1150 -0.4222
 7566TIP3    H222663   0.576   2.936   0.587  1.2532  3.1205 -0.4912
 7567TIP3   OH222664   3.948   4.346   4.917  0.0225  0.0736  0.1241
 7567TIP3    H122665   3.983   4.374   4.832 -1.0918  0.7502 -0.1335
 7567TIP3    H222666   4.012   4.378   4.981 -0.2056  1.5024 -0.3200
 7568TIP3   OH222667   6.203   6.664   1.397 -0.3516 -0.0698  0.3063
 7568TIP3    H122668   6.192   6.758   1.382 -3.0933 -0.1388  1.3694
 7568TIP3    H222669   6.196   6.625   1.310 -0.1900  0.6056 -0.0198
 7569TIP3   OH222670   6.165   1.826   2.109 -0.7599 -0.2844 -0.0052
 7569TIP3    H122671   6.164   1.733   2.134 -1.5647 -0.2890 -0.0410
 7569TIP3    H222672   6.258   1.848   2.106 -0.5580 -1.0769  0.0569
 7570TIP3   OH222673   1.774   0.997   1.146 -0.7793  0.0867 -0.1611
 7570TIP3    H122674   1.778   1.075   1.202 -1.9243 -0.7007  1.0741
 7570TIP3    H222675   1.695   1.010   1.093  0.1453  0.6936 -1.4810
 7571TIP3   OH222676   0.005   4.162   3.737 -0.2905 -0.1570  0.2508
 7571TIP3    H122677   0.079   4.223   3.743  0.4609 -0.9830 -0.3317
 7571TIP3    H222678  -0.048   4.181   3.814  1.5025 -0.8111  1.7317
 7572TIP3   OH222679   2.054   0.012   4.348  0.5063 -0.5220 -1.0843
 7572TIP3    H122680   1.966   0.024   4.314  0.2058 -0.2344 -0.2408
 7572TIP3    H222681   2.102   0.089   4.317  0.3865 -0.5315 -1.2977
 7573TIP3   OH222682   3.528   1.801   5.474  0.0725 -0.1129 -0.4187
 7573TIP3    H122683   3.565   1.744   5.541  0.0134 -1.5146 -1.5259
 7573TIP3    H222684   3.435   1.806   5.496  0.3059  0.6931  0.4530
 7574TIP3   OH222685   1.415   6.144   2.244 -0.0744  0.3143 -0.1212
 7574TIP3    H122686   1.503   6.166   2.214 -0.6623  0.7493 -1.5689
 7574TIP3    H222687   1.359   6.212   2.207 -1.3877 -1.4238 -1.4810
 7575TIP3   OH222688   0.287   0.053   3.073 -0.1864 -0.0471  0.0790
 7575TIP3    H122689   0.264   0.143   3.099  0.4438  0.7946 -2.0487
 7575TIP3    H222690   0.381   0.055   3.061 -0.5257  0.0666 -3.4523
 7576TIP3   OH222691   1.046   5.100   1.541  0.5486 -0.7508 -0.1183
 7576TIP3    H122692   1.039   5.108   1.446 -0.6087  0.9039  0.0721
 7576TIP3    H222693   1.135   5.130   1.561  1.3110 -2.4697 -0.7734
 7577TIP3   OH222694   4.490   5.315   4.951 -0.6773 -0.1281  0.0160
 7577TIP3    H122695   4.579   5.310   4.915 -0.3406 -2.4069  0.9486
 7577TIP3    H222696   4.502   5.358   5.036 -0.2223 -1.4630  0.6613
 7578TIP3   OH222697   3.493   4.982   5.259  0.1105  0.1827  0.6023
 7578TIP3    H122698   3.435   5.040   5.310  1.1094 -0.3464  2.4400
 7578TIP3    H222699   3.486   4.898   5.304  0.5835 -0.4779 -0.5425
 7579TIP3   OH222700   2.642   2.360   4.782 -0.1757  0.0218  0.1013
 7579TIP3    H122701   2.725   2.405   4.800 -0.8948  1.1548  0.6915
 7579TIP3    H222702   2.604   2.408   4.709 -1.0337  0.5027  0.8474
 7580TIP3   OH222703   6.230   4.929   3.877 -0.2584 -0.3666 -0.2720
 7580TIP3    H122704   6.168   5.001   3.867 -0.5937 -0.7713 -1.2650
 7580TIP3    H222705   6.266   4.916   3.789  1.1629 -0.2131  0.2617
 7581TIP3   OH222706   0.530   0.797   0.391  0.7525 -0.0828  0.2304
 7581TIP3    H122707   0.473   0.731   0.430  0.4284  0.3290  0.4654
 7581TIP3    H222708   0.618   0.762   0.402  0.6669  0.0310  1.3463
 7582TIP3   OH222709   1.807   0.854   5.638 -0.0431  0.3420  0.2491
 7582TIP3    H122710   1.894   0.817   5.655  0.1253 -0.9004 -2.7221
 7582TIP3    H222711   1.822   0.949   5.634  1.6344  0.0440 -2.1327
 7583TIP3   OH222712   0.160   1.283   0.205 -0.3407  0.3346 -0.1684
 7583TIP3    H122713   0.114   1.357   0.244 -0.0241 -0.1621  1.2317
 7583TIP3    H222714   0.220   1.254   0.274 -1.4106 -2.0653 -0.1606
 7584TIP3   OH222715   5.759   6.610   5.282  0.1601 -0.5240 -0.1300
 7584TIP3    H122716   5.699   6.653   5.342 -0.9504 -2.3252  0.1305
 7584TIP3    H222717   5.706   6.544   5.238  1.2624 -0.1294 -2.1552
 7585TIP3   OH222718   3.554   5.345   3.376 -0.2786  0.4172  0.0479
 7585TIP3    H122719   3.542   5.379   3.464 -0.5109 -1.0046  0.5974
 7585TIP3    H222720   3.469   5.359   3.333 -0.0760  1.3696 -0.0628
 7586TIP3   OH222721   0.741   4.764   0.238  0.1405  0.2983 -0.4657
 7586TIP3    H122722   0.657   4.784   0.279  0.1877 -0.2506 -0.0817
 7586TIP3    H222723   0.798   4.837   0.262  0.2462 -0.1411  0.7126
 7587TIP3   OH222724   0.339   6.440   3.382  0.9078 -0.7417 -0.0263
 7587TIP3    H122725   0.287   6.376   3.333  1.0721  0.5228 -1.9428
 7587TIP3    H222726   0.276   6.507   3.408  1.3710  0.2830 -1.4738
 7588TIP3   OH222727   3.293   5.548   4.567 -0.6692 -0.2563 -1.1031
 7588TIP3    H122728   3.282   5.498   4.486 -0.1900  0.3027 -1.5212
 7588TIP3    H222729   3.270   5.638   4.544  0.8709  0.1892 -1.0112
 7589TIP3   OH222730   3.587   3.495   5.879 -0.0423 -0.0466  0.2640
 7589TIP3    H122731   3.599   3.415   5.930  0.1454 -0.4521 -0.4033
 7589TIP3    H222732   3.558   3.464   5.794 -0.7509  0.6485  0.2513
 7590TIP3   OH222733   6.920   6.117   0.011 -0.1921  0.1265  0.1956
 7590TIP3    H122734   6.892   6.080   0.094 -2.2407 -0.8588 -0.8345
 7590TIP3    H222735   6.901   6.049  -0.053  0.2385  1.2796 -1.2296
 7591TIP3   OH222736   2.213   5.614   1.186 -0.6637  0.0266 -0.6846
 7591TIP3    H122737   2.224   5.703   1.218  1.3212 -0.1211 -0.8838
 7591TIP3    H222738   2.200   5.561   1.265  0.8824  0.1289 -0.3422
 7592TIP3   OH222739   6.892   5.751   5.578  0.1282 -0.1889  0.3673
 7592TIP3    H122740   6.841   5.731   5.500  0.3827 -1.5697  0.5361
 7592TIP3    H222741   6.864   5.840   5.603 -1.5650 -0.5858 -0.0098
 7593TIP3   OH222742   6.480   4.488   5.766 -0.0256  0.2809 -0.4620
 7593TIP3    H122743   6.461   4.573   5.727 -0.2229 -0.0088 -1.0145
 7593TIP3    H222744   6.501   4.432   5.691  0.5077 -0.0531 -0.0742
 7594TIP3   OH222745   0.854   3.908   4.154 -0.3678 -0.4178 -0.0093
 7594TIP3    H122746   0.771   3.943   4.187  0.3328 -0.3963  1.8222
 7594TIP3    H222747   0.920   3.945   4.212  1.1613  0.9732 -2.4633
 7595TIP3   OH222748   1.920   5.674   1.121  0.4010 -0.0999  0.1747
 7595TIP3    H122749   1.962   5.711   1.043  0.6054  0.5341  0.5830
 7595TIP3    H222750   1.994   5.647   1.176  0.2934  1.0238  0.9007
 7596TIP3   OH222751   3.973   2.374   5.635 -0.2450  0.2092  0.2175
 7596TIP3    H122752   3.886   2.340   5.613  0.7480 -1.4045 -1.5230
 7596TIP3    H222753   4.010   2.401   5.552  0.3182  2.5545  1.1545
 7597TIP3   OH222754   3.246   3.314   2.652 -0.6189 -0.6006  0.3946
 7597TIP3    H122755   3.178   3.336   2.588  0.7303  0.4870 -0.7329
 7597TIP3    H222756   3.310   3.385   2.645  0.3542 -1.2816  1.8433
 7598TIP3   OH222757   3.387   3.866   4.607  0.3035  0.0829  0.3525
 7598TIP3    H122758   3.340   3.787   4.631  0.0939 -0.1774 -0.8465
 7598TIP3    H222759   3.478   3.848   4.630  0.0915 -0.0599  1.1209
 7599TIP3   OH222760   2.429   5.288   4.967  0.1072  0.0216  0.0532
 7599TIP3    H122761   2.378   5.218   5.008 -0.4620  0.4619  0.1111
 7599TIP3    H222762   2.404   5.285   4.875 -0.7389  0.8246  0.2368
 7600TIP3   OH222763   0.227   5.717   3.247 -0.2514 -0.0687 -0.3752
 7600TIP3    H122764   0.202   5.626   3.267 -0.2575  0.0806  0.3491
 7600TIP3    H222765   0.155   5.751   3.195  0.0790 -0.6892 -1.2593
 7601TIP3   OH222766   6.688   5.749   3.047  0.3619 -0.1956 -0.2697
 7601TIP3    H122767   6.594   5.745   3.026  0.5610 -1.0986 -1.0424
 7601TIP3    H222768   6.705   5.842   3.062 -0.4895  0.0807 -0.9316
 7602TIP3   OH222769   3.300   0.838   0.536  0.5294  0.6655 -0.0161
 7602TIP3    H122770   3.394   0.823   0.529  0.7170  2.0306 -0.7734
 7602TIP3    H222771   3.284   0.916   0.483 -0.8888  0.9929  0.8335
 7603TIP3   OH222772   2.327   1.692   1.478 -0.3282  0.6554  0.8713
 7603TIP3    H122773   2.254   1.698   1.417 -0.6754 -0.5124  1.1360
 7603TIP3    H222774   2.399   1.737   1.434 -0.7890  0.5244 -0.0501
 7604TIP3   OH222775   5.513   6.530   3.893 -0.1157  0.4735  0.5913
 7604TIP3    H122776   5.571   6.598   3.926  2.5248 -1.7474  0.8802
 7604TIP3    H222777   5.467   6.497   3.970  0.4643  0.2889  0.8615
 7605TIP3   OH222778   5.586   6.056   4.205 -0.0080 -0.0857 -0.1797
 7605TIP3    H122779   5.582   6.004   4.286  0.3662 -1.1918 -0.8453
 7605TIP3    H222780   5.501   6.042   4.163 -0.3510  0.8093  0.2079
 7606TIP3   OH222781   0.031   2.141   1.445 -0.1946  0.5813  0.3622
 7606TIP3    H122782  -0.051   2.163   1.402 -0.6515 -2.9418 -0.9595
 7606TIP3    H222783   0.023   2.177   1.533 -3.0826  0.5255  0.2157
 7607TIP3   OH222784   6.327   0.777   0.963 -0.2413 -0.1852 -0.3717
 7607TIP3    H122785   6.317   0.777   0.868 -2.2491 -0.0820 -0.2006
 7607TIP3    H222786   6.422   0.785   0.978 -0.0194  1.5398 -2.3380
 7608TIP3   OH222787   0.305   4.083   2.083 -0.0577 -0.0838  0.3237
 7608TIP3    H122788   0.264   4.054   2.002 -0.1024  0.3899  0.1733
 7608TIP3    H222789   0.398   4.063   2.071  0.0268  0.5228 -0.0949
 7609TIP3   OH222790   5.818   0.605   2.213 -0.6551  0.0113  0.0617
 7609TIP3    H122791   5.835   0.540   2.145 -0.8172  0.5317 -0.4799
 7609TIP3    H222792   5.736   0.647   2.186 -1.2161 -0.3980  1.0589
 7610TIP3   OH222793   3.660   6.023   5.389 -0.3866  0.1270  0.2497
 7610TIP3    H122794   3.590   6.043   5.327 -0.3610 -1.1568 -0.2387
 7610TIP3    H222795   3.702   5.945   5.352  0.5988  0.2357  1.1067
 7611TIP3   OH222796   2.169   2.392   0.089  0.2456 -0.7077  0.0479
 7611TIP3    H122797   2.184   2.349   0.004 -0.3237 -1.5811  0.3778
 7611TIP3    H222798   2.247   2.371   0.140  1.2884  1.0529 -0.7136
 7612TIP3   OH222799   6.780   5.274   3.520  0.0138 -0.6801  0.0309
 7612TIP3    H122800   6.802   5.185   3.492 -0.3576 -0.2061 -1.8749
 7612TIP3    H222801   6.685   5.280   3.511  0.1107  0.1237 -0.5128
 7613TIP3   OH222802   0.124   2.419   0.843  0.4374 -0.1202  0.0745
 7613TIP3    H122803   0.103   2.437   0.751 -1.8076 -2.7647 -0.0657
 7613TIP3    H222804   0.136   2.505   0.882 -4.4246  1.5822 -1.4313
 7614TIP3   OH222805   4.631   2.321   5.285 -0.5497  0.1708  0.1854
 7614TIP3    H122806   4.583   2.351   5.208  0.6222 -1.7040 -1.3522
 7614TIP3    H222807   4.691   2.393   5.305  0.5198 -0.0330 -1.9381
 7615TIP3   OH222808   5.209   2.600   5.372  0.0039 -0.2403 -0.3083
 7615TIP3    H122809   5.286   2.653   5.395 -0.1006 -0.5081  0.7026
 7615TIP3    H222810   5.246   2.517   5.342  0.1085 -0.9201  1.5945
 7616TIP3   OH222811   5.706   1.786   4.353 -0.0396  0.1909  0.2901
 7616TIP3    H122812   5.741   1.700   4.326  0.5799  0.6365 -0.3670
 7616TIP3    H222813   5.783   1.836   4.378 -0.1866  1.1781 -1.1385
 7617TIP3   OH222814   6.257   0.663   5.360  0.7474  0.0529 -0.4092
 7617TIP3    H122815   6.306   0.740   5.389 -0.0821 -0.0395  1.3603
 7617TIP3    H222816   6.276   0.596   5.427  0.2820 -0.8186 -1.1259
 7618TIP3   OH222817   5.855   4.046   4.062  0.1363  0.0328 -0.1565
 7618TIP3    H122818   5.828   4.079   3.977  0.1289 -0.8623 -0.5178
 7618TIP3    H222819   5.935   3.995   4.044  0.4974  0.3588  0.4659
 7619TIP3   OH222820   0.684   4.362   1.095  0.3502 -0.5442 -0.5118
 7619TIP3    H122821   0.630   4.403   1.163  0.9278 -0.8714  0.1591
 7619TIP3    H222822   0.657   4.404   1.014  1.4294  1.6933  0.2247
 7620TIP3   OH222823   4.377   4.035   4.103  0.2354  0.1065 -0.3092
 7620TIP3    H122824   4.300   4.057   4.051  1.6979  0.7274 -2.3213
 7620TIP3    H222825   4.399   3.946   4.077  1.4632  0.7137 -1.4685
 7621TIP3   OH222826   0.838   3.240   4.121 -0.7416  0.0363  0.3945
 7621TIP3    H122827   0.745   3.251   4.142 -0.4910  1.6700  0.7717
 7621TIP3    H222828   0.857   3.313   4.062 -0.2672 -1.7037 -1.7167
 7622TIP3   OH222829   5.514   1.805   4.892 -0.3215  0.2475 -0.6356
 7622TIP3    H122830   5.435   1.826   4.941  0.4641  0.6872  0.4679
 7622TIP3    H222831   5.539   1.717   4.921  0.6482  0.8630  0.4626
 7623TIP3   OH222832   0.247   0.972   0.065 -0.0243  0.0993 -0.0512
 7623TIP3    H122833   0.216   1.060   0.045 -0.5699 -0.1595 -0.3702
 7623TIP3    H222834   0.266   0.974   0.159  0.3308  0.6629 -0.1326
 7624TIP3   OH222835   1.424   1.670   3.564 -0.6456 -0.1405  0.2635
 7624TIP3    H122836   1.457   1.708   3.482 -2.7377 -0.2572 -0.7075
 7624TIP3    H222837   1.486   1.600   3.584 -0.3382 -0.4466 -1.5310
 7625TIP3   OH222838   1.025   6.435   3.542  0.2015 -0.6102  0.0949
 7625TIP3    H122839   1.103   6.429   3.487  0.0886 -1.4536  0.0083
 7625TIP3    H222840   0.959   6.383   3.496 -0.1582 -0.5970  0.5868
 7626TIP3   OH222841   4.746   1.023   5.511  0.1351 -0.2713  0.8191
 7626TIP3    H122842   4.687   1.097   5.495  1.9853  1.4184  1.4061
 7626TIP3    H222843   4.785   1.041   5.597  2.6532 -0.4505 -0.1938
 7627TIP3   OH222844   4.944   3.979   5.316  0.0818  0.2329 -0.1792
 7627TIP3    H122845   4.887   4.038   5.365  0.7020 -0.8667  1.9941
 7627TIP3    H222846   4.942   4.012   5.226 -1.9231  1.7351  0.3611
 7628TIP3   OH222847   6.880   3.826   3.010 -0.3338 -0.6009  0.6502
 7628TIP3    H122848   6.927   3.905   2.984  0.8969 -1.4237  0.2576
 7628TIP3    H222849   6.819   3.854   3.078 -1.3437  1.0390 -0.8707
 7629TIP3   OH222850   1.540   1.609   5.861  0.4398 -0.1536 -0.2574
 7629TIP3    H122851   1.514   1.697   5.887 -2.9231 -1.2310  0.5131
 7629TIP3    H222852   1.594   1.577   5.933 -1.0428  0.1951  1.0757
 7630TIP3   OH222853   5.103   3.693   1.315 -0.4148 -0.0412  0.0443
 7630TIP3    H122854   5.009   3.680   1.300 -0.2814 -0.6575 -0.3057
 7630TIP3    H222855   5.109   3.777   1.360 -1.0948  0.3020 -0.4815
 7631TIP3   OH222856   0.771   3.228   2.071  0.4028 -0.3403 -0.1695
 7631TIP3    H122857   0.826   3.302   2.045 -1.7828  1.3610 -0.2245
 7631TIP3    H222858   0.786   3.220   2.165  1.7057 -0.7785 -0.3941
 7632TIP3   OH222859   5.303   2.128   1.803  0.4952  0.2374 -0.1459
 7632TIP3    H122860   5.208   2.118   1.799  0.6527 -2.4318  0.7921
 7632TIP3    H222861   5.337   2.042   1.780  2.7230  1.1911 -0.6780
 7633TIP3   OH222862   0.354   4.419   1.870  0.0448  0.4309  0.1276
 7633TIP3    H122863   0.265   4.391   1.887 -0.5805  0.8973 -2.0648
 7633TIP3    H222864   0.388   4.445   1.955 -1.6462 -0.4363  1.1156
 7634TIP3   OH222865   2.475   3.020   2.240  0.2444 -0.0787  0.1445
 7634TIP3    H122866   2.392   3.039   2.283  0.2229 -1.3399  0.7002
 7634TIP3    H222867   2.460   2.938   2.193  1.2066 -0.4258  0.3986
 7635TIP3   OH222868   3.929   3.968   0.402 -0.4079 -0.2857  0.1733
 7635TIP3    H122869   3.897   4.040   0.348  1.5985  1.0467  0.6576
 7635TIP3    H222870   4.009   3.939   0.358 -1.3859 -2.5456 -0.2421
 7636TIP3   OH222871   4.487   4.458   3.009  0.3234 -0.1549  0.2820
 7636TIP3    H122872   4.488   4.544   3.051 -2.9637  0.2845 -0.2664
 7636TIP3    H222873   4.439   4.403   3.069  1.6865 -1.4612  0.2369
 7637TIP3   OH222874   4.214   5.213   0.396 -0.5470 -0.1946  0.0151
 7637TIP3    H122875   4.232   5.264   0.475 -1.5087 -0.1708  0.2322
 7637TIP3    H222876   4.300   5.195   0.359 -0.1264  0.4482  0.6559
 7638TIP3   OH222877   3.610   2.584   2.580  0.3221 -0.1572  0.5594
 7638TIP3    H122878   3.551   2.538   2.640  1.5359 -0.9077  1.2056
 7638TIP3    H222879   3.680   2.521   2.562  0.2387  0.2029 -1.3032
 7639TIP3   OH222880   1.349   2.260   4.805  0.0287 -0.0752  0.4066
 7639TIP3    H122881   1.334   2.349   4.775 -0.1916 -0.1130  0.4040
 7639TIP3    H222882   1.434   2.263   4.848  0.1061  0.0939  0.2418
 7640TIP3   OH222883   0.714   2.788   2.649 -0.1402 -0.7216 -0.1415
 7640TIP3    H122884   0.785   2.739   2.607 -0.8517 -0.9727 -1.1067
 7640TIP3    H222885   0.744   2.803   2.738  0.2723 -2.5534  0.0585
 7641TIP3   OH222886   7.111   4.567   5.762 -0.0092 -0.4480 -0.1920
 7641TIP3    H122887   7.171   4.500   5.728 -0.3573  0.7747 -3.6298
 7641TIP3    H222888   7.024   4.528   5.753 -0.1348  0.0349 -1.2025
 7642TIP3   OH222889   1.080   6.139   4.921 -1.0306  0.4062  0.0311
 7642TIP3    H122890   1.010   6.089   4.879 -0.9921  1.0436 -0.8166
 7642TIP3    H222891   1.035   6.213   4.963 -0.8521  1.0469 -0.8621
 7643TIP3   OH222892   6.800   6.801   5.347  0.0327 -0.1271  0.4162
 7643TIP3    H122893   6.875   6.835   5.298 -0.2242  1.9550  1.3784
 7643TIP3    H222894   6.767   6.729   5.292  3.2018 -1.7185  0.3962
 7644TIP3   OH222895   3.252   3.916   2.066 -0.4422  0.1572 -0.1278
 7644TIP3    H122896   3.276   3.985   2.128 -0.9062 -0.3990  0.6912
 7644TIP3    H222897   3.195   3.858   2.116 -0.2029 -0.7268 -0.8529
 7645TIP3   OH222898   5.840   5.146   3.439 -0.1896  0.4460 -0.1048
 7645TIP3    H122899   5.768   5.095   3.477  0.6710 -0.0349  0.9524
 7645TIP3    H222900   5.800   5.228   3.412 -1.1420  0.1712  0.4211
 7646TIP3   OH222901   7.212   3.642   1.115 -1.0524  0.0631 -0.3670
 7646TIP3    H122902   7.203   3.737   1.112 -1.8606 -0.0202 -1.5005
 7646TIP3    H222903   7.142   3.613   1.174 -0.5184  0.1906  0.3394
 7647TIP3   OH222904   0.556   2.231   0.955  0.0706 -0.6218 -0.1803
 7647TIP3    H122905   0.490   2.193   0.898 -2.5256  1.3124  1.2717
 7647TIP3    H222906   0.569   2.319   0.920  1.2229 -0.6776  0.0860
 7648TIP3   OH222907   6.517   2.014   0.371  0.0900  0.1172 -0.4641
 7648TIP3    H122908   6.594   2.037   0.423  1.2355  0.4748 -2.2695
 7648TIP3    H222909   6.520   2.072   0.295 -2.6587  1.0212 -0.0226
 7649TIP3   OH222910   1.409   0.841   0.425 -0.2836  0.1048  0.2315
 7649TIP3    H122911   1.467   0.858   0.498 -0.1087 -0.7800  0.3145
 7649TIP3    H222912   1.411   0.921   0.373 -0.3864  0.7291  1.1671
 7650TIP3   OH222913   4.786   1.513   2.449 -0.0889  0.4871  0.1792
 7650TIP3    H122914   4.782   1.420   2.472 -1.7329 -0.0969 -2.1080
 7650TIP3    H222915   4.880   1.534   2.451  0.2970 -1.1387  0.9893
 7651TIP3   OH222916   4.004   1.655   4.221 -0.2124  0.2020 -0.3644
 7651TIP3    H122917   4.051   1.613   4.148 -0.9141  1.8621 -1.8528
 7651TIP3    H222918   4.063   1.648   4.295  1.3554  0.1012 -1.5674
 7652TIP3   OH222919   6.105   6.195   5.404  0.1205 -0.6944  0.0978
 7652TIP3    H122920   6.119   6.262   5.471 -1.2549 -1.5145  1.2636
 7652TIP3    H222921   6.017   6.213   5.371 -0.0300 -1.5742  0.0149
 7653TIP3   OH222922   6.853   6.572   1.297  0.6345  0.2205 -0.4386
 7653TIP3    H122923   6.894   6.529   1.372  0.3482 -1.0225 -0.9573
 7653TIP3    H222924   6.801   6.643   1.335  2.5475  1.2832  0.2920
 7654TIP3   OH222925   4.671   6.342   0.120  0.0442  0.0086  0.7311
 7654TIP3    H122926   4.760   6.377   0.122 -1.0182  3.0633 -0.0381
 7654TIP3    H222927   4.662   6.305   0.032  0.5631 -0.4055  0.8443
 7655TIP3   OH222928   0.903   1.223   0.854  0.5970 -0.0835  0.9627
 7655TIP3    H122929   0.807   1.220   0.861  0.2373 -2.5668 -2.4165
 7655TIP3    H222930   0.920   1.304   0.804  0.3633  0.6531  2.0445
 7656TIP3   OH222931   3.030   6.780   4.943 -0.5587  0.5451  0.6754
 7656TIP3    H122932   3.120   6.806   4.923 -0.3789 -0.1469  0.5526
 7656TIP3    H222933   2.984   6.785   4.860 -0.5709  0.6558  0.6891
 7657TIP3   OH222934   1.273   2.032   0.758 -0.2732 -0.1141 -0.1102
 7657TIP3    H122935   1.234   2.006   0.841 -1.8031 -1.6304 -1.2390
 7657TIP3    H222936   1.334   1.961   0.737 -0.5849 -0.2046 -0.7229
 7658TIP3   OH222937   5.787   6.044   1.139  0.7250  0.2382  0.3932
 7658TIP3    H122938   5.874   6.063   1.102  0.3977 -0.1729 -0.6276
 7658TIP3    H222939   5.804   6.003   1.223  1.5661 -1.0816 -0.3879
 7659TIP3   OH222940   3.486   5.747   5.235  0.2588  0.4890 -0.0146
 7659TIP3    H122941   3.461   5.655   5.224  0.4573  0.4849 -0.4832
 7659TIP3    H222942   3.579   5.744   5.256  0.8395  0.6438 -2.2239
 7660TIP3   OH222943   3.558   2.238   4.700 -0.2389  0.1596 -0.1295
 7660TIP3    H122944   3.587   2.147   4.694  2.4280  0.9130 -0.1689
 7660TIP3    H222945   3.469   2.238   4.666 -0.2717 -2.4096 -0.1952
 7661TIP3   OH222946   3.981   2.673   5.485  0.0406 -0.3267  0.5601
 7661TIP3    H122947   3.900   2.629   5.458 -1.2947  0.4693  2.9268
 7661TIP3    H222948   3.952   2.759   5.516  2.2087  1.1298 -1.1891
 7662TIP3   OH222949   2.354   4.457   0.491 -0.2227  0.5595 -0.0093
 7662TIP3    H122950   2.297   4.521   0.534  1.2341  2.0867 -0.2551
 7662TIP3    H222951   2.368   4.389   0.557 -2.7386 -0.1735 -0.1278
 7663TIP3   OH222952   5.447   0.080   2.397  0.2843 -0.0333  0.0894
 7663TIP3    H122953   5.388   0.064   2.323 -0.0035  1.8587 -0.1459
 7663TIP3    H222954   5.404   0.039   2.471  0.1901 -1.2879 -0.6232
 7664TIP3   OH222955   1.186   4.501   3.308 -0.4021 -0.2781 -0.1926
 7664TIP3    H122956   1.263   4.444   3.317  0.5612  0.5990 -2.1450
 7664TIP3    H222957   1.213   4.566   3.243 -2.0024  1.4802  0.8151
 7665TIP3   OH222958   4.629   4.235   4.047 -0.0477 -0.3647 -0.1508
 7665TIP3    H122959   4.570   4.160   4.055  1.4687 -1.6329 -0.2017
 7665TIP3    H222960   4.717   4.197   4.056  0.8344  1.2231 -1.4550
 7666TIP3   OH222961   3.002   3.005   3.111 -0.6081 -0.4198  0.0319
 7666TIP3    H122962   2.971   2.916   3.127 -3.8623  0.1047 -2.4390
 7666TIP3    H222963   2.963   3.057   3.181 -0.7266 -0.5857  0.0897
 7667TIP3   OH222964   4.723   5.073   5.387  0.4719  0.2382 -0.0837
 7667TIP3    H122965   4.645   5.017   5.393  0.4673  0.0573 -1.5161
 7667TIP3    H222966   4.739   5.101   5.477 -0.4402 -0.8251  0.4364
 7668TIP3   OH222967   5.002   4.167   4.278  0.6670  0.3187 -0.1382
 7668TIP3    H122968   4.944   4.243   4.283 -0.7811 -0.7789  0.1301
 7668TIP3    H222969   5.090   4.205   4.280  0.0409  2.1912 -2.4762
 7669TIP3   OH222970   6.723   3.988   4.342 -0.0983 -0.1274  0.3216
 7669TIP3    H122971   6.747   3.964   4.431 -1.0331 -0.8484  0.3989
 7669TIP3    H222972   6.806   4.009   4.300  0.4316 -0.4536  1.1635
 7670TIP3   OH222973   2.253   3.200   0.588 -0.0321  0.4986  0.5343
 7670TIP3    H122974   2.259   3.171   0.679  0.3721 -1.1685  0.0209
 7670TIP3    H222975   2.186   3.142   0.549 -1.8832  2.6735  0.2746
 7671TIP3   OH222976   2.770   5.837   4.748 -0.4868 -0.0858 -0.1309
 7671TIP3    H122977   2.700   5.809   4.688 -1.2055  1.6918 -0.1986
 7671TIP3    H222978   2.831   5.885   4.692 -1.2979  1.8219  0.5537
 7672TIP3   OH222979   1.638   1.768   3.051  0.4924  0.2473  0.4836
 7672TIP3    H122980   1.608   1.804   2.968  0.0729  0.1829  0.6045
 7672TIP3    H222981   1.674   1.844   3.099 -2.2820  0.9853  1.6005
 7673TIP3   OH222982   4.231   5.654   0.866 -0.0931 -0.2051  0.4054
 7673TIP3    H122983   4.225   5.574   0.918  0.0101 -0.3997  0.1286
 7673TIP3    H222984   4.325   5.663   0.847  0.2628  1.3794  2.5458
 7674TIP3   OH222985   1.292   6.597   2.090  0.1396 -0.1431  0.2273
 7674TIP3    H122986   1.206   6.620   2.055 -0.3691 -2.0743  0.0478
 7674TIP3    H222987   1.345   6.579   2.012  0.3509 -0.0602  0.3530
 7675TIP3   OH222988   2.221   3.635   2.314  0.3480 -0.1706 -0.2898
 7675TIP3    H122989   2.302   3.608   2.358  0.4270  1.6053  0.7370
 7675TIP3    H222990   2.158   3.566   2.336  0.5135  0.4279  2.2965
 7676TIP3   OH222991   1.588   2.282   0.389  0.1150 -0.0764  0.1518
 7676TIP3    H122992   1.582   2.240   0.303  0.3774 -1.5858  0.8302
 7676TIP3    H222993   1.653   2.351   0.378  0.8417 -0.8634 -0.6357
 7677TIP3   OH222994   7.116   5.169   1.614 -0.0416  0.0989  0.5986
 7677TIP3    H122995   7.183   5.206   1.558  2.0071 -3.0706  0.6902
 7677TIP3    H222996   7.165   5.128   1.686 -1.9461 -2.9170  0.3278
 7678TIP3   OH222997   5.893   2.690   0.295  0.0372  0.2626 -0.1146
 7678TIP3    H122998   5.921   2.599   0.293  1.0525  0.4505  2.4237
 7678TIP3    H222999   5.970   2.739   0.264  0.0723  0.3648  0.1356
 7679TIP3   OH223000   4.995   4.894   1.897  0.1664  0.8750 -0.4101
 7679TIP3    H123001   5.002   4.958   1.968 -0.4543  0.7542 -0.2374
 7679TIP3    H223002   4.902   4.873   1.893  0.3663 -0.0096 -0.4727
 7680TIP3   OH223003   2.504   1.000   2.783  0.4522  0.5629  0.1056
 7680TIP3    H123004   2.511   0.913   2.824 -0.6842  0.6954  0.6478
 7680TIP3    H223005   2.540   0.989   2.695  1.7242 -0.0715  0.6782
 7681TIP3   OH223006   1.589   5.858   1.186  0.4261 -0.0751 -0.7580
 7681TIP3    H123007   1.587   5.782   1.128 -2.1075 -0.5469 -0.1706
 7681TIP3    H223008   1.628   5.826   1.267 -0.0585 -0.5997 -0.7282
 7682TIP3   OH223009   4.150   3.953   0.835  0.5431  0.1815  0.2685
 7682TIP3    H123010   4.135   4.029   0.778  0.8807  0.6940  0.8525
 7682TIP3    H223011   4.245   3.940   0.832  0.5245  0.0044  0.4591
 7683TIP3   OH223012   5.221   4.596   1.336  0.4235  0.3266  0.3339
 7683TIP3    H123013   5.300   4.610   1.284  0.2647 -1.8050 -0.6007
 7683TIP3    H223014   5.149   4.609   1.274  0.2405 -2.4862 -0.1722
 7684TIP3   OH223015   5.572   3.382   1.269  0.5553  0.2105  0.3365
 7684TIP3    H123016   5.572   3.298   1.223  0.1301  1.3425 -1.8496
 7684TIP3    H223017   5.483   3.391   1.303  0.8955 -0.6727  1.5264
 7685TIP3   OH223018   3.256   5.388   0.928  0.0212  0.2167  0.3739
 7685TIP3    H123019   3.245   5.392   1.023 -1.7308 -1.1675  0.2899
 7685TIP3    H223020   3.172   5.418   0.893  0.6371  0.7014 -0.7601
 7686TIP3   OH223021   4.154   0.536   2.288  0.3034  0.0202  0.2486
 7686TIP3    H123022   4.169   0.581   2.371  1.7808  1.6097 -0.8433
 7686TIP3    H223023   4.082   0.476   2.307 -0.6856  1.7024  2.1771
 7687TIP3   OH223024   1.566   6.394   0.695  0.6668 -0.4271  0.4925
 7687TIP3    H123025   1.565   6.302   0.723  0.3815 -0.5743  0.0148
 7687TIP3    H223026   1.492   6.434   0.740 -1.3542 -1.2319 -1.8505
 7688TIP3   OH223027   1.511   2.897   5.534  0.2055 -0.0922 -0.1019
 7688TIP3    H123028   1.564   2.823   5.506  0.4922  0.7830 -2.1070
 7688TIP3    H223029   1.573   2.970   5.540  0.2235 -0.2238  3.3611
 7689TIP3   OH223030   0.845   6.294   3.370  0.0124 -1.1935 -0.3579
 7689TIP3    H123031   0.758   6.332   3.370 -0.0337 -1.2997 -0.3049
 7689TIP3    H223032   0.875   6.302   3.279  0.9854  1.2029  0.0895
 7690TIP3   OH223033   0.811   4.613   3.904  0.4739  0.7363 -0.3620
 7690TIP3    H123034   0.766   4.576   3.828  0.7075  0.5590 -0.4131
 7690TIP3    H223035   0.894   4.567   3.908  1.0550  1.7047 -0.8151
 7691TIP3   OH223036   4.585   0.511   4.314 -0.5227 -0.3116 -0.3464
 7691TIP3    H123037   4.613   0.433   4.266 -0.5582 -1.1075  0.8809
 7691TIP3    H223038   4.648   0.579   4.288 -0.0013 -0.9591 -0.8225
 7692TIP3   OH223039   2.692   6.320   0.094  0.1780 -0.4108 -0.1759
 7692TIP3    H123040   2.740   6.361   0.022  1.2193 -1.0145  0.1482
 7692TIP3    H223041   2.637   6.254   0.053  1.3785 -1.3200 -0.3691
 7693TIP3   OH223042   3.893   1.662   4.746  0.1078 -0.0494 -0.1359
 7693TIP3    H123043   3.953   1.594   4.716 -0.7458 -0.9752  0.1885
 7693TIP3    H223044   3.948   1.722   4.796  0.8207 -0.7027 -0.1105
 7694TIP3   OH223045   5.143   6.699   2.874 -0.4128 -1.2780  0.2909
 7694TIP3    H123046   5.106   6.762   2.935  1.5327  2.7627 -2.2638
 7694TIP3    H223047   5.217   6.661   2.921 -0.4173 -0.0979  1.2983
 7695TIP3   OH223048   5.674   4.228   2.867  0.1447  0.0583  0.0176
 7695TIP3    H123049   5.711   4.254   2.951 -0.0219  1.3216 -0.2812
 7695TIP3    H223050   5.658   4.134   2.876  1.2133 -0.0495  0.9760
 7696TIP3   OH223051   6.165   0.144   0.983 -0.2621  0.6452  0.0966
 7696TIP3    H123052   6.109   0.144   0.905 -0.2165 -0.4917  0.0439
 7696TIP3    H223053   6.165   0.052   1.012  0.0155  0.9872  1.2239
 7697TIP3   OH223054   1.729   2.751   2.845 -0.2154 -0.3246 -0.0788
 7697TIP3    H123055   1.693   2.664   2.827  0.5027 -0.7505  0.4665
 7697TIP3    H223056   1.791   2.737   2.916 -0.2827  0.6866  0.1953
 7698TIP3   OH223057   1.768   1.869   4.264  0.0431 -0.3999  0.1250
 7698TIP3    H123058   1.753   1.777   4.284  1.9966 -0.5095  1.3188
 7698TIP3    H223059   1.824   1.868   4.187  0.8220 -0.2656  0.6746
 7699TIP3   OH223060   6.445   2.171   3.450 -0.0343 -0.2728 -0.6370
 7699TIP3    H123061   6.440   2.257   3.492  0.5263  0.5045 -2.0860
 7699TIP3    H223062   6.507   2.121   3.504 -1.4595 -0.3046  1.0481
 7700TIP3   OH223063   4.368   5.619   0.402  0.2938  0.1201  0.0327
 7700TIP3    H123064   4.450   5.589   0.441 -0.4073  0.3309  1.7635
 7700TIP3    H223065   4.299   5.572   0.450 -0.6051 -1.8042 -2.8994
 7701TIP3   OH223066   6.095   5.777   0.324  0.0738 -0.4649 -0.0636
 7701TIP3    H123067   6.150   5.711   0.366  0.3914 -0.5491 -0.6009
 7701TIP3    H223068   6.153   5.821   0.262 -0.3076 -0.1311 -0.1859
 7702TIP3   OH223069   5.928   5.073   5.579  0.5423 -0.2434  0.1444
 7702TIP3    H123070   5.955   5.125   5.655  0.4668  0.5472 -0.3593
 7702TIP3    H223071   5.997   5.007   5.571  1.8706  1.1583 -0.5435
 7703TIP3   OH223072   4.563   3.011   4.793 -0.1631  0.0684  0.1276
 7703TIP3    H123073   4.512   3.053   4.862 -0.2572 -1.4224  1.0187
 7703TIP3    H223074   4.651   3.049   4.801 -0.2663  0.1730  0.8313
 7704TIP3   OH223075   4.458   1.556   0.021 -0.0362  0.2236  0.1099
 7704TIP3    H123076   4.516   1.559   0.097 -0.6744  1.1523  0.5708
 7704TIP3    H223077   4.510   1.594  -0.050  1.2634 -2.3752 -0.4480
 7705TIP3   OH223078   6.548   1.735   2.033  0.1419  0.1495 -0.1268
 7705TIP3    H123079   6.540   1.696   2.120  0.2677 -0.1290 -0.2359
 7705TIP3    H223080   6.564   1.828   2.049  0.7531  0.0030  0.1679
 7706TIP3   OH223081   0.072   0.650   5.811 -0.0236  0.0569  0.1594
 7706TIP3    H123082   0.152   0.659   5.864  0.2183 -0.0930 -0.1748
 7706TIP3    H223083   0.073   0.728   5.755 -0.8554  0.7857  1.1308
 7707TIP3   OH223084   2.669   5.693   5.748 -0.6764  0.0969  0.0986
 7707TIP3    H123085   2.600   5.628   5.734  0.5740 -1.1214 -0.7229
 7707TIP3    H223086   2.732   5.648   5.805 -0.2749  0.9613  0.3453
 7708TIP3   OH223087   5.047   4.643   2.566  0.4648 -0.1137  0.0401
 7708TIP3    H123088   5.056   4.727   2.611  0.2205  0.1432 -0.3803
 7708TIP3    H223089   4.955   4.618   2.580  0.1614  0.3749 -1.0078
 7709TIP3   OH223090   4.593   0.547   1.297 -0.1471 -0.8113  0.4186
 7709TIP3    H123091   4.643   0.627   1.286 -1.2876  0.3102  2.7244
 7709TIP3    H223092   4.541   0.540   1.216 -0.0689  0.7986  0.1942
 7710TIP3   OH223093   2.334   4.412   4.118 -0.1048 -0.3923  0.1306
 7710TIP3    H123094   2.247   4.386   4.089 -0.7390  0.5280  1.1209
 7710TIP3    H223095   2.318   4.467   4.195  1.3467 -0.1587  0.2932
 7711TIP3   OH223096   4.695   1.821   5.661  0.1202 -0.1305  0.1842
 7711TIP3    H123097   4.716   1.790   5.573  0.4059 -0.1092  0.2440
 7711TIP3    H223098   4.653   1.906   5.647  1.2153  0.4171  0.1230
 7712TIP3   OH223099   4.709   1.888   1.701  0.1461  0.1243 -0.4715
 7712TIP3    H123100   4.707   1.980   1.676 -1.5199 -0.1028 -1.3151
 7712TIP3    H223101   4.692   1.888   1.795 -0.7735  0.6604 -0.6255
 7713TIP3   OH223102   1.055   3.069   0.489 -0.3025  0.3164 -0.7109
 7713TIP3    H123103   1.140   3.076   0.446 -0.0283  0.5502 -0.1345
 7713TIP3    H223104   1.060   3.130   0.562 -0.6282 -0.3508 -0.1201
 7714TIP3   OH223105   1.012   2.029   3.965 -0.0439  0.0593  0.0500
 7714TIP3    H123106   1.085   2.039   4.026 -0.0538  0.2856  0.0257
 7714TIP3    H223107   0.945   1.983   4.016  0.9690 -2.3020 -0.6227
 7715TIP3   OH223108   4.034   1.367   4.397  0.1670  0.0368 -0.3062
 7715TIP3    H123109   3.944   1.335   4.393  0.1617 -0.1179  0.8098
 7715TIP3    H223110   4.061   1.373   4.305 -0.6316 -0.8965 -0.6219
 7716TIP3   OH223111   6.323   1.282   3.079  0.0040 -0.0747  0.3603
 7716TIP3    H123112   6.252   1.342   3.059 -0.3192 -0.5599  0.0354
 7716TIP3    H223113   6.375   1.278   2.998  0.3470  0.2048  0.5646
 7717TIP3   OH223114   2.636   0.815   4.419 -0.3801 -0.0499  0.3178
 7717TIP3    H123115   2.593   0.898   4.436 -0.1664  0.2426 -0.4970
 7717TIP3    H223116   2.568   0.761   4.378 -0.5914 -0.3732  1.0816
 7718TIP3   OH223117   3.606   1.001   3.738 -0.1832  0.1853  0.6890
 7718TIP3    H123118   3.634   0.964   3.822 -1.2056 -0.0223  0.9599
 7718TIP3    H223119   3.634   1.092   3.741  1.1485 -0.2096  0.6013
 7719TIP3   OH223120   5.649   6.593   3.036  0.0339  0.1881  0.3096
 7719TIP3    H123121   5.656   6.583   3.131  0.2233 -2.3133  0.1169
 7719TIP3    H223122   5.729   6.553   3.002 -1.4841 -2.0137 -0.9476
 7720TIP3   OH223123   6.154   1.194   0.656 -0.5026 -0.3791  0.1879
 7720TIP3    H123124   6.170   1.269   0.715 -1.2343 -1.8243  2.3520
 7720TIP3    H223125   6.239   1.176   0.617  0.3571 -0.1579  1.8474
 7721TIP3   OH223126   0.888   1.915   3.670  0.1850  0.1930  0.1469
 7721TIP3    H123127   0.983   1.904   3.677  0.3201  1.3535  0.3482
 7721TIP3    H223128   0.852   1.830   3.697  1.1617 -0.3408 -0.1731
 7722TIP3   OH223129   5.541   5.776   3.599  0.6020 -0.0304 -0.0666
 7722TIP3    H123130   5.567   5.859   3.560  0.4350 -0.2214 -0.5955
 7722TIP3    H223131   5.619   5.720   3.591  0.5600 -0.0770 -0.1591
 7723TIP3   OH223132   4.170   6.331   4.159 -0.2019 -0.0020  0.8809
 7723TIP3    H123133   4.154   6.415   4.117 -0.2665 -0.4274  0.0467
 7723TIP3    H223134   4.223   6.282   4.096 -1.3690 -1.1236  0.7298
 7724TIP3   OH223135   4.769   3.947   1.431  0.0891  0.0898 -0.1770
 7724TIP3    H123136   4.757   3.958   1.336 -0.2087  1.9471  0.0375
 7724TIP3    H223137   4.699   3.888   1.457 -0.0907 -0.0998 -1.0483
 7725TIP3   OH223138   6.286   4.573   1.794 -0.4410 -0.0822  0.7089
 7725TIP3    H123139   6.216   4.508   1.801 -0.6157  0.2485  3.1458
 7725TIP3    H223140   6.287   4.598   1.702 -2.2242 -1.5251  0.2421
 7726TIP3   OH223141   1.918   2.397   2.841  0.6861  0.3940  0.1631
 7726TIP3    H123142   1.917   2.324   2.779 -1.7504  1.0377 -0.6522
 7726TIP3    H223143   2.008   2.400   2.873  0.9017 -2.9667  0.2378
 7727TIP3   OH223144   6.647   2.021   4.171  0.6788  0.3494 -0.9068
 7727TIP3    H123145   6.652   1.926   4.184 -1.7546  0.1753 -0.7586
 7727TIP3    H223146   6.641   2.057   4.260 -0.4478  0.4226 -0.9872
 7728TIP3   OH223147   1.185   6.325   2.157  0.1373  1.4555  0.0377
 7728TIP3    H123148   1.096   6.359   2.159 -0.2042  0.5890 -0.0527
 7728TIP3    H223149   1.239   6.401   2.135 -0.7911  1.5570 -2.1712
 7729TIP3   OH223150   0.026   3.510   3.171 -0.0205  0.4445 -0.3660
 7729TIP3    H123151  -0.038   3.524   3.101  1.3625  0.1858 -1.7518
 7729TIP3    H223152   0.065   3.425   3.151  0.4011  0.3674  0.7384
 7730TIP3   OH223153   1.990   4.952   5.688  0.2428  0.1743  0.2944
 7730TIP3    H123154   1.933   5.027   5.668  0.2762  1.0612  3.0409
 7730TIP3    H223155   2.028   4.928   5.604 -1.1118  2.1360 -0.9790
 7731TIP3   OH223156   1.082   0.462   0.819  0.5122 -0.0232  0.2028
 7731TIP3    H123157   1.081   0.381   0.768  0.1239  0.8811 -1.2668
 7731TIP3    H223158   1.006   0.455   0.877 -0.6086  0.0857 -1.2264
 7732TIP3   OH223159   2.246   0.952   1.512  0.2688 -0.1213 -0.4426
 7732TIP3    H123160   2.275   0.980   1.425  1.9322 -0.9447 -0.1951
 7732TIP3    H223161   2.276   1.021   1.571 -0.0931  0.0092 -0.4050
 7733TIP3   OH223162   4.604   2.973   4.038 -0.4703 -0.3284  0.2709
 7733TIP3    H123163   4.633   3.023   3.961  1.1516 -2.1094 -0.3670
 7733TIP3    H223164   4.627   2.883   4.017 -1.3162 -1.0603  2.2827
 7734TIP3   OH223165   0.133   2.703   2.772 -0.1425  0.5882  0.0525
 7734TIP3    H123166   0.070   2.631   2.762  0.0453  0.4163  0.0849
 7734TIP3    H223167   0.093   2.761   2.837  0.9839 -0.9456  2.2402
 7735TIP3   OH223168   4.653   0.911   3.446  0.2472  0.3653 -0.5703
 7735TIP3    H123169   4.736   0.932   3.403  0.0146 -0.7834 -1.6371
 7735TIP3    H223170   4.667   0.935   3.538  2.3354 -1.2766 -0.3858
 7736TIP3   OH223171   1.901   6.685   5.749 -0.1833  0.1034 -0.8710
 7736TIP3    H123172   1.823   6.677   5.693 -0.0956 -1.2788 -0.8191
 7736TIP3    H223173   1.966   6.726   5.693  0.4857 -2.8669 -2.4601
 7737TIP3   OH223174   3.948   2.933   4.915 -0.0283  0.1963  0.0023
 7737TIP3    H123175   3.876   2.982   4.874  0.8172 -0.9667 -3.1228
 7737TIP3    H223176   4.027   2.982   4.891  0.5943 -1.1630 -0.8482
 7738TIP3   OH223177   2.063   1.694   3.221  0.4594 -0.2411 -0.1615
 7738TIP3    H123178   2.065   1.789   3.232 -2.4032  0.0714 -1.5163
 7738TIP3    H223179   2.125   1.676   3.150  0.3646  0.7336 -0.4970
 7739TIP3   OH223180   0.603   0.565   0.109 -0.2109 -0.2616 -0.6070
 7739TIP3    H123181   0.640   0.533   0.191 -1.9142 -2.4624 -0.6205
 7739TIP3    H223182   0.652   0.646   0.091  2.3097 -1.3189  0.9617
 7740TIP3   OH223183   1.129   1.252   4.894 -0.2296  0.1843  0.0650
 7740TIP3    H123184   1.205   1.209   4.932  0.2453  0.5718 -0.4190
 7740TIP3    H223185   1.060   1.241   4.959  0.3150  0.0592  0.6360
 7741TIP3   OH223186   0.954   3.678   0.446  0.3921 -0.2361 -0.2066
 7741TIP3    H123187   0.862   3.651   0.452  1.2748 -4.0397 -1.3658
 7741TIP3    H223188   1.000   3.621   0.507  2.0822  1.4778  0.2328
 7742TIP3   OH223189   6.613   0.709   1.730 -0.4743  0.3580 -0.5159
 7742TIP3    H123190   6.618   0.764   1.808 -1.3875  0.5644 -0.5932
 7742TIP3    H223191   6.551   0.640   1.752 -1.4326  0.9234 -1.3444
 7743TIP3   OH223192   2.290   1.701   3.514 -0.1712 -0.1023 -0.1083
 7743TIP3    H123193   2.310   1.706   3.421  0.7314 -0.0125  0.0823
 7743TIP3    H223194   2.231   1.775   3.531 -0.2496 -0.0577 -0.5824
 7744TIP3   OH223195   2.166   2.889   2.750  0.2411 -0.2057  0.8291
 7744TIP3    H123196   2.135   2.912   2.838 -1.5459 -0.4349  0.3131
 7744TIP3    H223197   2.086   2.884   2.698  0.8174 -3.7690  0.0186
 7745TIP3   OH223198   2.599   0.418   4.603  0.2863  0.3495  0.1038
 7745TIP3    H123199   2.516   0.448   4.641  0.7093  1.4479  0.1730
 7745TIP3    H223200   2.666   0.471   4.646  1.1341 -1.1578  0.7303
 7746TIP3   OH223201   1.491   2.269   2.862 -0.3992 -0.3121 -0.8028
 7746TIP3    H123202   1.417   2.213   2.888  0.2985 -0.6025  0.6583
 7746TIP3    H223203   1.567   2.210   2.863  0.3601  0.6382  0.7851
 7747TIP3   OH223204   0.006   5.260   4.270  0.1527 -0.1142 -0.0865
 7747TIP3    H123205   0.073   5.294   4.330  0.4533  0.7199 -0.8661
 7747TIP3    H223206  -0.044   5.337   4.243  0.1884 -0.4222 -1.0997
 7748TIP3   OH223207   3.669   3.024   0.238 -0.2371  0.0702  0.3999
 7748TIP3    H123208   3.747   3.041   0.185 -0.2293  0.2367  0.4655
 7748TIP3    H223209   3.702   3.014   0.327 -0.3650  0.8606  0.5478
 7749TIP3   OH223210   3.349   4.406   1.379 -0.1410 -0.5168 -0.4014
 7749TIP3    H123211   3.353   4.368   1.291  1.8673 -0.1127 -0.5514
 7749TIP3    H223212   3.262   4.385   1.411 -1.3381  0.2692 -2.9025
 7750TIP3   OH223213   6.254   6.585   2.829 -0.0015 -0.1270  0.1229
 7750TIP3    H123214   6.233   6.495   2.856  2.5022 -0.9687 -0.4997
 7750TIP3    H223215   6.322   6.613   2.890 -0.2835  1.1220 -0.1077
 7751TIP3   OH223216   1.394   2.485   2.512  0.0900 -0.2080  0.0599
 7751TIP3    H123217   1.367   2.510   2.424  0.6503  0.1798 -0.0023
 7751TIP3    H223218   1.428   2.565   2.551 -0.4773 -0.2923  0.7603
 7752TIP3   OH223219   5.674   3.602   5.412  0.0186 -0.4195  0.3635
 7752TIP3    H123220   5.725   3.605   5.493  0.6173  0.4527 -0.0449
 7752TIP3    H223221   5.639   3.512   5.410  0.7722 -0.7426  1.1027
 7753TIP3   OH223222   5.825   5.694   2.717  0.0033 -0.2796 -0.2122
 7753TIP3    H123223   5.814   5.721   2.626  0.3276  3.2144  0.6599
 7753TIP3    H223224   5.920   5.684   2.728  0.0637  0.5313  0.0352
 7754TIP3   OH223225   0.887   0.942   2.644 -0.7128  0.5949  0.2775
 7754TIP3    H123226   0.858   1.031   2.663 -3.1041 -0.2290  0.8636
 7754TIP3    H223227   0.843   0.919   2.562  0.5683  0.2264 -0.3285
 7755TIP3   OH223228   2.403   4.649   3.982  0.3023  0.2603 -0.0269
 7755TIP3    H123229   2.411   4.559   4.015 -1.0038 -0.2452 -1.0145
 7755TIP3    H223230   2.377   4.639   3.891  2.3109  1.6456 -0.8192
 7756TIP3   OH223231   6.641   5.186   2.746 -0.4413  0.5342  0.1914
 7756TIP3    H123232   6.686   5.261   2.708  0.8523 -1.4020 -2.3697
 7756TIP3    H223233   6.702   5.153   2.813 -0.0033  0.4536 -0.2448
 7757TIP3   OH223234   1.530   0.092   5.579  0.1936  0.1896  0.1315
 7757TIP3    H123235   1.528   0.187   5.568 -1.2193  0.0739 -0.8338
 7757TIP3    H223236   1.622   0.072   5.600  0.1829  1.9344  2.1539
 7758TIP3   OH223237   2.079   5.188   3.400 -0.0438  0.3179  0.5352
 7758TIP3    H123238   2.031   5.158   3.477 -0.0659  0.6872  0.6641
 7758TIP3    H223239   2.147   5.121   3.388 -0.7575 -0.3614  0.1773
 7759TIP3   OH223240   7.226   4.932   3.967 -0.5189  0.2206  0.3520
 7759TIP3    H123241   7.196   4.924   3.876  1.4561  0.6151 -0.3926
 7759TIP3    H223242   7.146   4.944   4.018 -1.7102 -0.4146 -1.2802
 7760TIP3   OH223243   6.863   6.111   4.630 -0.1477  0.3212  0.1816
 7760TIP3    H123244   6.854   6.201   4.600 -0.0206  0.0684 -0.6358
 7760TIP3    H223245   6.806   6.106   4.708 -1.9886  0.5050 -1.0772
 7761TIP3   OH223246   3.191   4.619   4.328  0.0398 -0.6511 -0.1129
 7761TIP3    H123247   3.171   4.583   4.414 -1.3829 -0.9128 -0.5326
 7761TIP3    H223248   3.279   4.588   4.308  0.3251 -0.7048  1.1789
 7762TIP3   OH223249   1.881   4.385   1.045  0.1449  0.2302 -0.0434
 7762TIP3    H123250   1.793   4.420   1.028  0.2607  0.0283 -1.1731
 7762TIP3    H223251   1.925   4.454   1.095 -0.3140  0.7981 -0.4009
 7763TIP3   OH223252   1.204   3.030   5.421  0.6462  0.2295 -0.0268
 7763TIP3    H123253   1.206   2.979   5.502  0.1795  2.1758  1.2973
 7763TIP3    H223254   1.233   3.117   5.447 -0.8690  1.3076 -1.6446
 7764TIP3   OH223255   4.211   4.149   0.093 -0.4307  0.1447 -0.0780
 7764TIP3    H123256   4.261   4.095   0.032 -0.3548 -0.0428  0.1467
 7764TIP3    H223257   4.277   4.204   0.136 -0.6672  1.4559 -1.3376
 7765TIP3   OH223258   5.611   0.301   2.455 -0.0978  0.4595 -0.7102
 7765TIP3    H123259   5.583   0.219   2.415  3.1565 -1.0448 -0.2875
 7765TIP3    H223260   5.598   0.287   2.549  0.2243  0.5208 -0.6557
 7766TIP3   OH223261   5.726   0.140   0.886 -0.0617  0.6728 -0.2688
 7766TIP3    H123262   5.819   0.121   0.871 -0.8507 -1.5129 -3.3760
 7766TIP3    H223263   5.698   0.188   0.808 -1.8642 -0.0476 -0.1103
 7767TIP3   OH223264   5.178   4.632   2.323 -0.3546 -0.3708  0.1307
 7767TIP3    H123265   5.127   4.620   2.402  1.2692 -1.9914  1.0003
 7767TIP3    H223266   5.265   4.658   2.354  0.4048 -1.3472 -1.0694
 7768TIP3   OH223267   2.216   1.025   3.641  0.1369  0.1371  0.1603
 7768TIP3    H123268   2.161   1.008   3.717  1.3540 -0.3141  0.9600
 7768TIP3    H223269   2.234   1.119   3.645  0.9542 -0.0417  0.9758
 7769TIP3   OH223270   0.325   5.381   3.031  0.5500 -0.1595  0.3136
 7769TIP3    H123271   0.338   5.442   2.959 -0.8833  0.3481  0.4552
 7769TIP3    H223272   0.280   5.307   2.991 -1.9302  0.9102  0.9665
 7770TIP3   OH223273   3.388   2.293   5.223 -0.0938  0.4521  0.2039
 7770TIP3    H123274   3.481   2.311   5.236 -0.1146  1.0152 -0.3529
 7770TIP3    H223275   3.378   2.200   5.241 -0.1436  1.0751  4.1738
 7771TIP3   OH223276   5.085   2.657   4.308 -0.4687  0.6114 -0.0744
 7771TIP3    H123277   5.075   2.602   4.231  2.3179  1.6907 -1.3402
 7771TIP3    H223278   5.173   2.693   4.300 -1.0130  2.7371  2.3466
 7772TIP3   OH223279   5.521   4.578   0.745 -0.1782  0.6710 -0.1546
 7772TIP3    H123280   5.569   4.530   0.677  1.5450 -0.7718  1.9647
 7772TIP3    H223281   5.495   4.660   0.701  0.9722 -0.1156 -2.4966
 7773TIP3   OH223282   4.841   0.054   5.110  0.0483 -0.1298 -0.0638
 7773TIP3    H123283   4.786   0.070   5.033 -0.5175  1.3910  0.6158
 7773TIP3    H223284   4.865  -0.039   5.104  0.3906  0.0440 -2.2938
 7774TIP3   OH223285   2.715   3.518   4.236 -0.0140  0.0247 -0.5413
 7774TIP3    H123286   2.711   3.493   4.144 -0.7623 -1.6094 -0.1120
 7774TIP3    H223287   2.765   3.599   4.237  1.1025 -0.5838 -2.2617
 7775TIP3   OH223288   1.620   2.023   1.381  0.3002  0.8522 -0.2408
 7775TIP3    H123289   1.638   1.986   1.295  0.4686 -0.3501  0.2864
 7775TIP3    H223290   1.546   2.083   1.367 -0.0448  0.2436 -1.1224
 7776TIP3   OH223291   7.160   6.795   4.548 -0.1149  0.5802 -0.2972
 7776TIP3    H123292   7.251   6.798   4.578  0.2694  0.9207 -1.4661
 7776TIP3    H223293   7.152   6.712   4.502 -0.8260 -0.1411  1.0381
 7777TIP3   OH223294   1.343   1.327   5.914 -1.0950  0.1256  0.4695
 7777TIP3    H123295   1.402   1.351   5.843 -0.3995  1.8978  1.5937
 7777TIP3    H223296   1.269   1.283   5.870  0.4107 -0.9773 -1.0753
 7778TIP3   OH223297   4.521   2.137   1.321 -0.5225  0.0087  0.3852
 7778TIP3    H123298   4.434   2.112   1.352 -0.6105  0.1092  0.2234
 7778TIP3    H223299   4.561   2.055   1.293 -0.7621  0.0290 -0.0249
 7779TIP3   OH223300   4.769   1.375   5.492  0.3399  0.0542  0.5035
 7779TIP3    H123301   4.840   1.333   5.443 -1.8928 -1.1223 -1.9790
 7779TIP3    H223302   4.752   1.456   5.443 -0.5750 -0.1028  0.5532
 7780TIP3   OH223303   6.402   4.850   2.252  0.0215 -0.2774  0.2340
 7780TIP3    H123304   6.439   4.937   2.239 -1.8997  0.4333 -1.0241
 7780TIP3    H223305   6.362   4.854   2.339 -0.5368  0.3262 -0.0360
 7781TIP3   OH223306   3.945   6.065   3.558  0.3152  0.2539  0.7321
 7781TIP3    H123307   3.976   6.098   3.473  1.0038  1.9127  1.5851
 7781TIP3    H223308   3.879   5.999   3.535  1.6999 -0.5942 -1.1009
 7782TIP3   OH223309   2.522   4.588   4.907 -0.2273  0.0964  0.4462
 7782TIP3    H123310   2.479   4.517   4.955  2.1560 -0.4217  1.9942
 7782TIP3    H223311   2.516   4.563   4.815 -0.8596 -1.2800  0.8479
 7783TIP3   OH223312   4.644   2.797   0.384  0.2370  0.1320  0.0095
 7783TIP3    H123313   4.573   2.734   0.376  0.0422  0.2734  0.5354
 7783TIP3    H223314   4.611   2.877   0.343  0.9683 -0.4652 -1.8307
 7784TIP3   OH223315   3.717   1.435   4.048 -0.2371  0.3241  0.7682
 7784TIP3    H123316   3.689   1.526   4.051  1.8661  1.1175 -0.6958
 7784TIP3    H223317   3.812   1.440   4.035 -0.0497 -2.0782  0.7937
 7785TIP3   OH223318   0.444   2.113   3.466 -0.2145  0.7934  0.6223
 7785TIP3    H123319   0.353   2.084   3.458 -0.3562  0.9888  1.5082
 7785TIP3    H223320   0.458   2.123   3.560  1.2702 -0.9605  0.6432
 7786TIP3   OH223321   5.627   5.175   0.250  0.1667  0.0622  0.1572
 7786TIP3    H123322   5.557   5.214   0.197 -0.4661  2.0076  2.2733
 7786TIP3    H223323   5.685   5.248   0.271  0.9903 -0.8623  1.2185
 7787TIP3   OH223324   1.743   1.230   1.278  0.4846 -0.1811 -0.6716
 7787TIP3    H123325   1.649   1.247   1.276  0.3896 -0.6444 -0.3526
 7787TIP3    H223326   1.781   1.307   1.320  0.1328 -0.4712  0.1942
 7788TIP3   OH223327   0.421   0.376   1.554 -0.2666  0.3668 -0.2899
 7788TIP3    H123328   0.465   0.439   1.498  1.5472 -1.4454 -1.0200
 7788TIP3    H223329   0.481   0.362   1.627 -0.6278 -0.5159 -0.1427
 7789TIP3   OH223330   3.296   5.824   4.282 -0.1874  0.0219 -0.1469
 7789TIP3    H123331   3.299   5.914   4.250 -0.7087 -0.0199 -0.3187
 7789TIP3    H223332   3.249   5.831   4.366 -1.7898 -0.3209 -0.9885
 7790TIP3   OH223333   0.687   1.259   5.405  0.4656  0.9201 -0.3193
 7790TIP3    H123334   0.674   1.180   5.457 -1.3042 -0.3748 -2.5742
 7790TIP3    H223335   0.746   1.313   5.458  0.0512 -0.9694  2.2483
 7791TIP3   OH223336   5.527   3.386   1.545  0.2673 -0.3593  0.2792
 7791TIP3    H123337   5.493   3.465   1.504  0.2669 -0.7417 -0.4880
 7791TIP3    H223338   5.613   3.411   1.579  0.2531 -0.0208  0.0683
 7792TIP3   OH223339   0.325   4.420   4.601 -0.7948  0.6663 -0.0376
 7792TIP3    H123340   0.333   4.325   4.598 -0.2611  0.4935  3.3895
 7792TIP3    H223341   0.414   4.452   4.615 -0.9641  1.7204 -1.1845
 7793TIP3   OH223342   2.632   5.005   4.920 -0.2735  0.2824  0.2776
 7793TIP3    H123343   2.716   4.970   4.950  0.3405 -0.5500 -2.1262
 7793TIP3    H223344   2.591   4.931   4.875 -1.2532  1.3131 -0.5676
 7794TIP3   OH223345   3.580   6.424   1.763  0.4114  0.0888  0.3901
 7794TIP3    H123346   3.657   6.405   1.709 -0.6807 -0.3990 -1.0655
 7794TIP3    H223347   3.601   6.505   1.808  1.1697  0.8226 -1.2122
 7795TIP3   OH223348   4.741   4.499   0.573 -0.1443  0.0365 -0.6466
 7795TIP3    H123349   4.717   4.590   0.590  0.5948  0.3666 -1.3368
 7795TIP3    H223350   4.828   4.503   0.534  0.3761 -1.0378  0.3223
 7796TIP3   OH223351   4.152   1.725   1.500  0.0478 -1.0493  0.1169
 7796TIP3    H123352   4.168   1.788   1.430  1.2082 -2.2141 -0.7228
 7796TIP3    H223353   4.197   1.761   1.576  0.0136 -0.4756 -0.1303
 7797TIP3   OH223354   4.538   3.381   2.964 -0.0483 -0.1660  0.2917
 7797TIP3    H123355   4.549   3.476   2.962 -0.0843 -0.1690 -0.0231
 7797TIP3    H223356   4.616   3.347   2.921 -0.7291 -0.2247 -0.9488
 7798TIP3   OH223357   2.844   0.377   2.978 -0.2274  0.1688  0.2735
 7798TIP3    H123358   2.780   0.324   3.026 -1.7102  0.0452 -1.7186
 7798TIP3    H223359   2.926   0.329   2.987 -1.1439 -1.5411  0.0277
 7799TIP3   OH223360   5.494   0.767   3.525  0.2296  0.0215 -0.0747
 7799TIP3    H123361   5.528   0.717   3.600  0.4156  1.1916  0.6368
 7799TIP3    H223362   5.526   0.719   3.449 -0.5832 -1.6164  0.5641
 7800TIP3   OH223363   4.941   5.129   2.122 -0.1272 -0.3006  0.1449
 7800TIP3    H123364   5.001   5.096   2.189 -0.4545 -0.5400  0.3293
 7800TIP3    H223365   4.975   5.214   2.098 -0.4816  0.1777  1.2492
 7801TIP3   OH223366   4.389   1.239   2.280  0.9873  0.3580  0.6322
 7801TIP3    H123367   4.347   1.301   2.222  0.6112 -1.1545 -0.7736
 7801TIP3    H223368   4.346   1.252   2.365  1.7629  2.8052  0.7135
 7802TIP3   OH223369   2.654   0.107   1.719 -0.4166  0.0118 -0.3085
 7802TIP3    H123370   2.639   0.139   1.630  0.5150  0.3888 -0.3329
 7802TIP3    H223371   2.721   0.164   1.755 -1.7552  0.7398  1.1414
 7803TIP3   OH223372   1.260   3.704   3.849  0.1631 -0.1806 -0.3940
 7803TIP3    H123373   1.187   3.744   3.895  0.6545 -2.3948  2.6328
 7803TIP3    H223374   1.322   3.775   3.835 -0.8240  0.9417  0.6954
 7804TIP3   OH223375   1.537   6.023   3.933 -0.2846 -0.0847  0.5224
 7804TIP3    H123376   1.450   6.056   3.953 -1.2459 -2.7884  1.1838
 7804TIP3    H223377   1.564   5.976   4.011  1.8109  0.6668  0.3211
 7805TIP3   OH223378   5.974   4.821   0.603 -0.0706  0.0021  0.6977
 7805TIP3    H123379   5.932   4.898   0.643  0.9657  2.0467 -1.8802
 7805TIP3    H223380   6.067   4.832   0.622  0.8778  2.4201 -3.8569
 7806TIP3   OH223381   3.688   2.630   3.072  0.0637  0.0356  0.5740
 7806TIP3    H123382   3.653   2.689   3.005  1.5623  0.9756  0.5587
 7806TIP3    H223383   3.742   2.569   3.022 -0.4181 -0.5217  0.7322
 7807TIP3   OH223384   3.290   6.293   0.768  0.6355  0.4702  0.2125
 7807TIP3    H123385   3.214   6.257   0.723 -0.1185  0.9918  1.0438
 7807TIP3    H223386   3.309   6.375   0.722  1.1765 -0.0204 -0.4680
 7808TIP3   OH223387   5.562   4.817   1.437 -0.2254 -0.2511  0.0907
 7808TIP3    H123388   5.502   4.751   1.471  1.6922 -2.0406  0.2563
 7808TIP3    H223389   5.561   4.805   1.342 -1.0526  0.5978 -0.0193
 7809TIP3   OH223390   3.309   6.617   4.387  0.5650 -0.0989 -0.1483
 7809TIP3    H123391   3.332   6.708   4.371 -1.0102  0.5793  1.1621
 7809TIP3    H223392   3.361   6.593   4.464  0.5019 -0.1032 -0.1073
 7810TIP3   OH223393   1.046   2.689   2.920  0.4737  0.1983  0.1700
 7810TIP3    H123394   1.102   2.696   2.997  0.1575  0.5484  0.3690
 7810TIP3    H223395   1.094   2.630   2.861  1.7962  1.6748 -0.3056
 7811TIP3   OH223396   6.186   5.309   3.888  0.0919 -0.8909 -0.1040
 7811TIP3    H123397   6.175   5.367   3.964  0.0737  0.8539 -1.3843
 7811TIP3    H223398   6.097   5.291   3.858  0.1265 -1.0236 -0.1309
 7812TIP3   OH223399   2.489   3.357   5.148  0.3001 -0.1164  0.9150
 7812TIP3    H123400   2.479   3.430   5.087 -1.3058 -2.3836 -1.7645
 7812TIP3    H223401   2.406   3.354   5.195  0.3198 -0.2805  0.9397
 7813TIP3   OH223402   6.380   2.601   3.267  0.0267 -0.1683  0.6651
 7813TIP3    H123403   6.308   2.540   3.283 -0.4542  0.6068  1.5691
 7813TIP3    H223404   6.364   2.673   3.328  1.5679  0.0379  0.8483
 7814TIP3   OH223405   3.281   1.278   2.781  0.0911  0.3275 -0.2724
 7814TIP3    H123406   3.230   1.314   2.853  0.3416 -0.8262  0.5110
 7814TIP3    H223407   3.256   1.186   2.777  0.0060  0.3953 -1.7386
 7815TIP3   OH223408   0.856   2.601   0.856 -0.1159  0.1072  0.3246
 7815TIP3    H123409   0.870   2.684   0.811 -1.0484  0.5317  0.8043
 7815TIP3    H223410   0.915   2.540   0.812  0.6280  1.0310  0.0102
 7816TIP3   OH223411   0.244   4.225   1.149  0.0504 -0.1612  0.4154
 7816TIP3    H123412   0.154   4.194   1.151 -0.5048  1.3956  0.8603
 7816TIP3    H223413   0.241   4.313   1.186  1.7997 -0.1669  0.6928
 7817TIP3   OH223414   4.447   2.707   1.969  0.1477  0.1121 -0.4237
 7817TIP3    H123415   4.397   2.781   1.935 -0.0663  0.1417 -0.0514
 7817TIP3    H223416   4.511   2.747   2.028  0.8348  0.1047 -1.1513
 7818TIP3   OH223417   1.492   3.954   5.348  0.5841  0.1816  0.2356
 7818TIP3    H123418   1.459   3.924   5.432  1.3219 -0.5970  0.2658
 7818TIP3    H223419   1.473   4.048   5.346 -1.0773 -0.1327  0.4792
 7819TIP3   OH223420   5.716   4.061   1.420  0.2181  0.0709  0.2873
 7819TIP3    H123421   5.696   4.143   1.375 -4.4980  0.1984  2.0997
 7819TIP3    H223422   5.679   3.993   1.364 -1.6595 -0.1471  1.7064
 7820TIP3   OH223423   3.114   6.653   0.886 -0.2929  0.6637 -0.2290
 7820TIP3    H123424   3.121   6.680   0.978 -1.4587 -1.0233  0.4160
 7820TIP3    H223425   3.087   6.732   0.840  0.0890  1.4953  0.9127
 7821TIP3   OH223426   7.060   0.401   2.139  0.2909  0.4003  0.5565
 7821TIP3    H123427   7.149   0.368   2.155  0.2987 -0.6835 -1.4099
 7821TIP3    H223428   7.071   0.463   2.067 -0.7574 -1.1869 -1.0370
 7822TIP3   OH223429   0.216   1.801   4.301 -0.3014  0.0082 -0.1603
 7822TIP3    H123430   0.139   1.789   4.355  1.2149  0.0295  2.1657
 7822TIP3    H223431   0.251   1.713   4.288  0.1662  0.1338  0.2137
 7823TIP3   OH223432   4.385   2.467   0.067 -0.5930 -0.6005 -0.5607
 7823TIP3    H123433   4.467   2.447   0.022  0.1396 -0.6805  0.7594
 7823TIP3    H223434   4.391   2.420   0.150 -1.2440  0.7322  0.2790
 7824TIP3   OH223435   5.631   3.795   3.945 -0.1928 -0.0131 -0.2820
 7824TIP3    H123436   5.543   3.819   3.972 -0.0223  0.2741  0.0244
 7824TIP3    H223437   5.656   3.862   3.882 -0.2334 -0.1522 -0.4453
 7825TIP3   OH223438   2.153   0.969   2.560 -0.9437 -0.2504 -0.6431
 7825TIP3    H123439   2.163   1.026   2.484  0.4852  0.3050 -0.0824
 7825TIP3    H223440   2.119   1.027   2.629 -0.2095 -0.2488 -0.2787
 7826TIP3   OH223441   1.362   0.443   0.691 -0.4986  0.1722  0.2194
 7826TIP3    H123442   1.435   0.434   0.753  0.8564  1.2756 -1.1277
 7826TIP3    H223443   1.298   0.497   0.738 -0.1764 -0.2855  1.2081
 7827TIP3   OH223444   4.544   5.652   4.567 -0.4049  0.6904  0.3688
 7827TIP3    H123445   4.624   5.691   4.603  1.8559 -1.5875 -1.8103
 7827TIP3    H223446   4.525   5.578   4.624 -0.5855  0.8292  0.4921
 7828TIP3   OH223447   5.331   6.325   5.021  0.3998  0.1247 -0.2261
 7828TIP3    H123448   5.324   6.242   4.974 -0.2732 -0.1682  0.3717
 7828TIP3    H223449   5.347   6.390   4.952 -0.0157 -0.3708 -0.7995
 7829TIP3   OH223450   3.725   3.127   3.897  0.1979  0.0506  0.0886
 7829TIP3    H123451   3.756   3.215   3.918 -0.5447  0.6733 -1.2966
 7829TIP3    H223452   3.772   3.103   3.818  0.7021 -0.9875  0.6857
 7830TIP3   OH223453   4.794   3.721   2.820  0.1253  0.3642  0.1991
 7830TIP3    H123454   4.791   3.813   2.846 -1.5013  0.4579 -0.2222
 7830TIP3    H223455   4.866   3.716   2.757  0.0328  1.4170 -0.0042
 7831TIP3   OH223456   0.324   4.943   3.383  0.0744  0.5315  0.5349
 7831TIP3    H123457   0.349   4.856   3.352 -1.5320  0.3192 -0.2670
 7831TIP3    H223458   0.342   4.940   3.478  0.7598 -0.3845  0.4018
 7832TIP3   OH223459   2.884   4.189   0.654 -0.3241  0.0163  0.4548
 7832TIP3    H123460   2.835   4.109   0.632  0.2805 -0.1395 -0.3896
 7832TIP3    H223461   2.854   4.254   0.591 -0.3206  0.2653  0.7080
 7833TIP3   OH223462   2.293   2.464   1.652  0.0170  0.0381 -0.2306
 7833TIP3    H123463   2.212   2.447   1.605 -0.0701 -0.6197  0.1572
 7833TIP3    H223464   2.279   2.429   1.740  0.7769 -0.2270 -0.2083
 7834TIP3   OH223465   4.068   1.411   5.290 -0.1082  0.3555  0.4912
 7834TIP3    H123466   4.019   1.452   5.361 -0.9763 -1.8929  1.2780
 7834TIP3    H223467   4.008   1.346   5.254  0.3112  1.4074 -2.3590
 7835TIP3   OH223468   3.798   4.482   3.597  0.0693  0.1412  0.2266
 7835TIP3    H123469   3.788   4.391   3.567 -0.9976 -0.1618  1.3942
 7835TIP3    H223470   3.860   4.521   3.536  1.2495 -1.6330  0.2089
 7836TIP3   OH223471   4.525   3.833   1.507  0.6063 -0.1318 -0.0898
 7836TIP3    H123472   4.536   3.768   1.576  0.4302 -0.1284 -0.0598
 7836TIP3    H223473   4.506   3.782   1.428  0.0447 -0.0948  0.0194
 7837TIP3   OH223474   2.577   5.669   3.457  0.0316  0.4570  0.4264
 7837TIP3    H123475   2.498   5.718   3.477  0.5482  0.3528  3.2153
 7837TIP3    H223476   2.565   5.585   3.502  1.5478  0.2974  0.5934
 7838TIP3   OH223477   4.158   4.752   3.582  0.1896 -0.2635  0.3411
 7838TIP3    H123478   4.234   4.808   3.599 -1.0734  0.8408  2.7239
 7838TIP3    H223479   4.104   4.803   3.522  0.5601 -0.3984 -0.1235
 7839TIP3   OH223480   3.063   2.513   0.707  0.1433 -0.2563  0.0588
 7839TIP3    H123481   3.061   2.441   0.644 -0.1738 -0.7843  0.6668
 7839TIP3    H223482   3.148   2.504   0.751  0.3286  0.0613 -0.2318
 7840TIP3   OH223483   4.585   5.670   0.227 -0.1212 -0.0128  0.2005
 7840TIP3    H123484   4.608   5.578   0.221 -0.2092 -0.0173 -0.0895
 7840TIP3    H223485   4.490   5.671   0.237 -0.0408  0.0169  1.0421
 7841TIP3   OH223486   4.344   6.525   3.110  0.3658  0.6288 -0.0155
 7841TIP3    H123487   4.439   6.517   3.122  0.2743  0.7914  0.8421
 7841TIP3    H223488   4.327   6.618   3.123  0.2508  0.8359 -1.4522
 7842TIP3   OH223489   3.899   3.890   1.983  0.3743 -0.0452 -0.0424
 7842TIP3    H123490   3.883   3.849   1.898  0.0534 -0.7300  0.3416
 7842TIP3    H223491   3.987   3.861   2.008 -0.1519 -1.1569  0.5846
 7843TIP3   OH223492   2.754   1.856   5.552  0.5143 -0.0316  0.0517
 7843TIP3    H123493   2.841   1.817   5.560  0.6232  0.3441  0.7816
 7843TIP3    H223494   2.719   1.819   5.472  0.3824 -2.1095  0.9966
 7844TIP3   OH223495   6.265   1.095   4.957 -0.2883  0.1237  0.3572
 7844TIP3    H123496   6.229   1.091   4.868  0.2647  2.5468 -0.0590
 7844TIP3    H223497   6.266   1.004   4.987  0.1047 -0.8572 -2.3385
 7845TIP3   OH223498   2.349   1.651   5.208 -0.0809 -0.3309 -0.5080
 7845TIP3    H123499   2.418   1.716   5.217 -0.2349 -0.3150  0.7508
 7845TIP3    H223500   2.352   1.625   5.116  0.8099  0.5297 -0.7376
 7846TIP3   OH223501   2.855   1.704   2.833  0.4402 -0.1841  0.0976
 7846TIP3    H123502   2.881   1.614   2.812 -0.9042 -0.6510  0.3369
 7846TIP3    H223503   2.772   1.716   2.787  0.0025  0.5180  1.0444
 7847TIP3   OH223504   2.483   0.289   4.854 -0.5847  0.2007  0.4242
 7847TIP3    H123505   2.530   0.367   4.824  0.1030 -0.3189  0.1079
 7847TIP3    H223506   2.419   0.322   4.917  0.2304  0.9384  0.8985
 7848TIP3   OH223507   5.934   4.988   4.053  0.0796 -0.4131  0.2942
 7848TIP3    H123508   5.881   4.990   3.973 -0.3601 -1.4722  0.5482
 7848TIP3    H223509   5.972   4.901   4.055  1.3353  0.1208  0.4616
 7849TIP3   OH223510   6.597   1.211   1.344 -0.3939 -0.0284  0.4115
 7849TIP3    H123511   6.690   1.224   1.327 -0.6417 -0.5127 -1.4532
 7849TIP3    H223512   6.553   1.242   1.265 -1.7622 -0.6738  0.8906
 7850TIP3   OH223513   5.222   5.009   4.823  0.2449  0.8126  0.0730
 7850TIP3    H123514   5.145   4.979   4.871 -0.6106  1.4195 -0.8890
 7850TIP3    H223515   5.262   5.074   4.881  2.3840 -2.2911  2.3959
 7851TIP3   OH223516   6.625   2.076   1.033 -0.0739  0.1833  0.4642
 7851TIP3    H123517   6.661   2.043   1.116 -0.0004 -0.7379  0.0744
 7851TIP3    H223518   6.690   2.140   1.003  0.9513 -0.9859  0.0936
 7852TIP3   OH223519   0.292   0.506   1.246 -0.2472 -0.9172 -0.4105
 7852TIP3    H123520   0.227   0.436   1.248  0.7152 -1.9251 -1.9651
 7852TIP3    H223521   0.350   0.483   1.173  1.0012  0.7045  0.0009
 7853TIP3   OH223522   6.214   4.555   2.350 -0.0112 -0.1247 -0.3000
 7853TIP3    H123523   6.190   4.463   2.364  0.4578 -0.3041 -0.6651
 7853TIP3    H223524   6.197   4.570   2.257 -0.4225  0.2644 -0.1686
 7854TIP3   OH223525   1.399   5.376   3.285 -0.3266 -0.3143  0.2229
 7854TIP3    H123526   1.366   5.298   3.329  0.9768 -0.6375  0.6862
 7854TIP3    H223527   1.425   5.434   3.357  1.0830 -0.5161 -0.0959
 7855TIP3   OH223528   6.218   1.221   4.416 -0.1732  0.9578  0.2231
 7855TIP3    H123529   6.154   1.248   4.351  3.1380  1.2684 -3.2746
 7855TIP3    H223530   6.228   1.127   4.402  0.2859  0.9538  0.5437
 7856TIP3   OH223531   6.070   2.465   2.098 -0.4219 -0.5926  0.3557
 7856TIP3    H123532   6.108   2.388   2.054  0.4913  0.3654 -0.6177
 7856TIP3    H223533   6.142   2.527   2.102 -1.8179  1.3181 -1.5662
 7857TIP3   OH223534   5.462   4.996   2.812  0.1829  0.1278 -0.0455
 7857TIP3    H123535   5.384   5.021   2.763 -0.1295 -0.5533  0.1059
 7857TIP3    H223536   5.527   4.976   2.745 -0.0200 -0.0997 -0.1717
 7858TIP3   OH223537   5.217   6.278   3.637 -0.3921  0.7496 -0.1582
 7858TIP3    H123538   5.187   6.189   3.621  0.0613  1.0015 -2.8525
 7858TIP3    H223539   5.306   6.268   3.672 -0.8803  0.1565  0.9592
 7859TIP3   OH223540   6.707   5.853   3.832  0.3184 -0.0919  0.3779
 7859TIP3    H123541   6.710   5.840   3.737  2.1397  0.5341  0.2988
 7859TIP3    H223542   6.635   5.915   3.845  0.2895  0.1203 -0.6423
 7860TIP3   OH223543   0.645   2.180   1.469  0.0689 -0.1621  0.2898
 7860TIP3    H123544   0.658   2.245   1.401  0.3560  0.8273  1.2676
 7860TIP3    H223545   0.716   2.117   1.456 -0.0954 -0.1804 -0.5414
 7861TIP3   OH223546   0.282   1.295   5.575  0.3351 -0.1914 -0.3224
 7861TIP3    H123547   0.251   1.219   5.527 -1.0198  0.7540 -1.0235
 7861TIP3    H223548   0.211   1.316   5.636  1.6731 -0.8636  1.5502
 7862TIP3   OH223549   7.193   3.151   2.175 -0.3183 -0.2964  0.3114
 7862TIP3    H123550   7.136   3.121   2.246  0.0419 -2.1463 -0.1217
 7862TIP3    H223551   7.274   3.100   2.186  0.1870  0.2509 -0.7311
 7863TIP3   OH223552   7.078   5.460   5.826  0.0816  0.2085 -0.2086
 7863TIP3    H123553   7.027   5.457   5.745 -1.3496 -0.7442  0.7036
 7863TIP3    H223554   7.074   5.371   5.860  1.8197  0.2625  0.2460
 7864TIP3   OH223555   4.275   4.013   4.566  0.0622 -0.9465  0.1816
 7864TIP3    H123556   4.222   4.093   4.561  0.0476 -1.0296 -2.2534
 7864TIP3    H223557   4.211   3.942   4.570  0.0224 -0.9235 -0.0165
 7865TIP3   OH223558   6.501   6.224   1.477 -0.1502 -0.3334  0.1325
 7865TIP3    H123559   6.578   6.262   1.434 -0.7945 -1.0214 -1.7236
 7865TIP3    H223560   6.462   6.298   1.524  1.5328  0.0593  1.0095
 7866TIP3   OH223561   2.433   3.326   2.020  0.1102 -1.2352 -0.0722
 7866TIP3    H123562   2.456   3.243   1.977 -0.3315 -0.8731 -1.0506
 7866TIP3    H223563   2.426   3.388   1.947 -0.6584 -0.5928  0.5389
 7867TIP3   OH223564   3.162   0.703   2.788 -0.1323 -0.2605  0.2261
 7867TIP3    H123565   3.204   0.705   2.702 -1.2388 -0.3433 -0.3277
 7867TIP3    H223566   3.187   0.618   2.825  0.3445 -0.2248 -0.0115
 7868TIP3   OH223567   6.529   2.105   0.728  0.1010 -0.3472  0.1169
 7868TIP3    H123568   6.572   2.152   0.800 -0.5261  1.7559 -0.8280
 7868TIP3    H223569   6.585   2.120   0.652 -1.0036  0.3543 -0.5829
 7869TIP3   OH223570   0.272   0.383  -0.020  0.2759  0.2387  0.0589
 7869TIP3    H123571   0.232   0.381   0.067  1.1481 -2.6845  0.5236
 7869TIP3    H223572   0.332   0.308  -0.020  1.0965  0.7803 -2.7186
 7870TIP3   OH223573   0.914   1.083   5.586 -0.3622 -0.1811  0.7666
 7870TIP3    H123574   0.962   1.165   5.594 -2.2022  0.8250  2.6342
 7870TIP3    H223575   0.965   1.021   5.639  1.2472 -0.4425 -0.9649
 7871TIP3   OH223576   0.567   6.696   0.888 -0.2437 -0.0287  0.5502
 7871TIP3    H123577   0.568   6.602   0.903  0.5183 -0.2901 -0.9925
 7871TIP3    H223578   0.612   6.733   0.964  2.5193 -1.2025 -0.4155
 7872TIP3   OH223579   3.172   5.640   3.343 -0.8689  0.2844 -0.6170
 7872TIP3    H123580   3.216   5.715   3.382 -0.5771  0.4231 -1.2072
 7872TIP3    H223581   3.115   5.607   3.412 -0.9900  1.0373 -0.3473
 7873TIP3   OH223582   2.735   5.363   0.496 -0.1407  0.2033  0.1991
 7873TIP3    H123583   2.698   5.435   0.547  0.9030  0.2555  0.8981
 7873TIP3    H223584   2.727   5.287   0.553 -1.1815 -0.2459 -0.5140
 7874TIP3   OH223585   5.498   2.074   0.518 -0.0301  0.3101 -0.3554
 7874TIP3    H123586   5.410   2.065   0.555  0.0975  1.9849  0.4196
 7874TIP3    H223587   5.483   2.106   0.429 -0.2440 -1.5947 -1.0694
 7875TIP3   OH223588   6.975   5.008   4.790 -0.3988 -0.3144  0.3607
 7875TIP3    H123589   7.053   5.027   4.842 -1.0473  1.0195  0.8970
 7875TIP3    H223590   6.975   5.074   4.721 -0.0064 -1.5506 -0.8773
 7876TIP3   OH223591   5.812   1.997   2.976  0.6486 -0.4078 -0.2817
 7876TIP3    H123592   5.724   2.021   3.006  1.1070 -0.1772  0.9203
 7876TIP3    H223593   5.797   1.957   2.890 -0.4184  1.4665 -1.0208
 7877TIP3   OH223594   5.010   1.403   2.961 -0.4938  0.1035  0.3148
 7877TIP3    H123595   4.945   1.334   2.948  0.6362 -0.6403 -1.9923
 7877TIP3    H223596   4.966   1.483   2.931 -0.0387 -0.6108 -2.6125
 7878TIP3   OH223597   5.355   3.830   3.999  0.2624 -0.1844  0.4772
 7878TIP3    H123598   5.337   3.917   3.963  1.0577 -0.5875 -0.9434
 7878TIP3    H223599   5.275   3.808   4.048 -2.2387 -0.8280 -3.4672
 7879TIP3   OH223600   0.793   4.962   5.184  0.3922 -0.3651 -0.5349
 7879TIP3    H123601   0.791   4.999   5.095  0.7157  1.8053  0.2799
 7879TIP3    H223602   0.701   4.950   5.207  0.2538  0.1927 -0.7603
 7880TIP3   OH223603   3.460   5.189   0.611  0.0589  0.6198 -0.0809
 7880TIP3    H123604   3.400   5.127   0.653 -0.8846  1.1633 -0.5816
 7880TIP3    H223605   3.455   5.168   0.517  0.7388  0.6056 -0.1209
 7881TIP3   OH223606   3.692   0.345   3.993  0.0487 -0.3883  0.2955
 7881TIP3    H123607   3.677   0.289   3.917 -0.6242  0.5701 -0.2926
 7881TIP3    H223608   3.785   0.368   3.988 -0.0274 -0.2080 -0.3288
 7882TIP3   OH223609   2.319   3.094   3.046  0.1364 -0.2274 -0.3761
 7882TIP3    H123610   2.300   3.039   3.122  0.3217 -0.5036 -0.5290
 7882TIP3    H223611   2.403   3.063   3.014  0.1578  0.0289 -0.5695
 7883TIP3   OH223612   0.660   1.915   2.015 -0.6347 -0.1359  0.5677
 7883TIP3    H123613   0.708   1.952   1.941 -0.8880 -0.2842  0.3269
 7883TIP3    H223614   0.583   1.972   2.025 -0.3652  0.1583  1.0127
 7884TIP3   OH223615   1.236   4.098   3.042  0.0552  0.2725  0.1461
 7884TIP3    H123616   1.177   4.044   2.989 -1.3178 -0.6842  2.4835
 7884TIP3    H223617   1.308   4.040   3.065  0.7111  0.7212 -0.7211
 7885TIP3   OH223618   4.404   1.333   5.101 -0.4741  0.0364 -0.1182
 7885TIP3    H123619   4.344   1.298   5.166 -0.8312  2.2408  0.8167
 7885TIP3    H223620   4.491   1.326   5.141 -0.5878  0.5278  0.2247
 7886TIP3   OH223621   5.321   3.906   0.628  0.0565 -0.1701  0.1468
 7886TIP3    H123622   5.258   3.970   0.596  0.5770 -0.7089 -2.1854
 7886TIP3    H223623   5.331   3.925   0.721 -2.9438  0.4076  0.4386
 7887TIP3   OH223624   3.101   6.181   2.237 -0.1430 -0.3963 -0.6689
 7887TIP3    H123625   3.120   6.096   2.278 -2.9314 -0.4605  0.7356
 7887TIP3    H223626   3.085   6.240   2.310  0.7767  1.1361 -1.6569
 7888TIP3   OH223627   6.724   0.218   2.430  0.5979  0.1401  0.1607
 7888TIP3    H123628   6.693   0.292   2.481  0.6248  1.3619 -1.5135
 7888TIP3    H223629   6.647   0.162   2.418  0.2206  0.6580  0.1644
 7889TIP3   OH223630   4.953   5.502   5.030  0.1203  0.1150  0.0412
 7889TIP3    H123631   4.994   5.527   5.113  0.5057  0.1886 -0.1672
 7889TIP3    H223632   4.881   5.445   5.055  0.6420 -0.4038  0.3944
 7890TIP3   OH223633   5.444   1.682   2.945  0.5283 -0.3729 -0.2149
 7890TIP3    H123634   5.447   1.734   2.864 -1.0369  0.1041 -0.0054
 7890TIP3    H223635   5.499   1.606   2.927  2.3377  1.0022 -0.7737
 7891TIP3   OH223636   0.817   1.489   3.067 -0.1817 -0.0140  0.6920
 7891TIP3    H123637   0.828   1.467   3.160 -1.1446 -0.8120  0.6311
 7891TIP3    H223638   0.726   1.518   3.060  0.6755  2.9760  0.5334
 7892TIP3   OH223639   4.396   4.029   1.721  0.2910 -0.2172  0.2653
 7892TIP3    H123640   4.368   4.057   1.634  0.2020 -0.7390  0.1234
 7892TIP3    H223641   4.491   4.022   1.713  0.3727  0.5327  0.4508
 7893TIP3   OH223642   3.800   4.704   5.273 -0.2330  0.1225 -0.1095
 7893TIP3    H123643   3.875   4.753   5.307 -0.1639  1.4275 -2.0126
 7893TIP3    H223644   3.751   4.679   5.351  0.6249  1.7868  1.0324
 7894TIP3   OH223645   4.531   1.197   5.466  0.2727 -0.2774  0.6650
 7894TIP3    H123646   4.450   1.242   5.442 -0.1712 -0.5116  1.6637
 7894TIP3    H223647   4.563   1.245   5.543  0.4275 -0.9267  1.0131
 7895TIP3   OH223648   6.448   3.406   0.598  0.4298  0.2312 -0.5112
 7895TIP3    H123649   6.400   3.414   0.680  0.6462  0.9412 -0.4502
 7895TIP3    H223650   6.540   3.409   0.623  0.4959  0.5294 -0.7849
 7896TIP3   OH223651   3.509   3.009   2.893  0.0785 -0.1223 -0.5782
 7896TIP3    H123652   3.542   3.096   2.915  0.4180 -0.1243 -1.0542
 7896TIP3    H223653   3.416   3.022   2.877  0.0376  0.0671 -0.1947
 7897TIP3   OH223654   2.481   4.937   3.694  0.2201 -0.5748  0.1668
 7897TIP3    H123655   2.449   4.987   3.769 -1.0404 -0.3144 -0.5163
 7897TIP3    H223656   2.570   4.969   3.680 -0.3463  1.0944  0.1112
 7898TIP3   OH223657   3.041   2.766   2.584  0.2154 -0.5087 -0.1246
 7898TIP3    H123658   3.107   2.738   2.647  0.4152 -1.7029 -0.8311
 7898TIP3    H223659   3.043   2.699   2.516 -2.4167 -1.1484  0.3098
 7899TIP3   OH223660   0.837   3.475   3.975  0.6291 -0.4043 -0.0094
 7899TIP3    H123661   0.932   3.489   3.972  0.3737  1.9925 -3.7299
 7899TIP3    H223662   0.804   3.545   4.030  0.8472  1.5123 -2.1672
 7900TIP3   OH223663   2.858   4.057   1.502 -0.0826 -0.7121  0.3853
 7900TIP3    H123664   2.884   4.136   1.455 -0.1453 -0.0411  1.4514
 7900TIP3    H223665   2.859   3.988   1.436 -2.2393  0.5855 -1.1072
 7901TIP3   OH223666   3.960   2.065   4.006 -0.4285 -0.5800  0.2222
 7901TIP3    H123667   3.953   2.068   3.911 -1.3214 -3.0521  0.1320
 7901TIP3    H223668   3.900   2.132   4.037  1.4914  1.8112 -0.8955
 7902TIP3   OH223669   5.390   2.162   5.101  0.2242  0.3484 -0.2435
 7902TIP3    H123670   5.416   2.078   5.140  1.2804  1.1349  0.8004
 7902TIP3    H223671   5.303   2.145   5.066  0.5609 -1.2970 -0.4055
 7903TIP3   OH223672   4.573   4.728   0.602 -0.2426  0.7224  0.1690
 7903TIP3    H123673   4.550   4.814   0.637 -0.4500 -0.5319  3.5798
 7903TIP3    H223674   4.499   4.672   0.625  1.2454 -1.0042  1.0671
 7904TIP3   OH223675   2.940   1.416   2.486 -0.0194  0.2495  0.0926
 7904TIP3    H123676   2.923   1.424   2.580  0.5544  2.6932  0.0429
 7904TIP3    H223677   3.018   1.469   2.471  0.1072 -0.3929 -1.7310
 7905TIP3   OH223678   6.360   5.125   2.224  0.2654 -0.0876 -0.7672
 7905TIP3    H123679   6.272   5.091   2.243 -0.1757  1.5069  0.2619
 7905TIP3    H223680   6.355   5.154   2.133 -0.8970  1.6484 -0.2092
 7906TIP3   OH223681   5.283   2.034   4.100 -0.5390  0.3999  0.4014
 7906TIP3    H123682   5.269   2.127   4.082 -2.8768  0.2305  1.0738
 7906TIP3    H223683   5.235   2.017   4.181 -0.4749 -1.4664  0.0961
 7907TIP3   OH223684   3.705   5.472   1.225  0.1642  0.2974  0.2561
 7907TIP3    H123685   3.777   5.442   1.281 -0.9732  0.3306  1.8062
 7907TIP3    H223686   3.679   5.556   1.263 -0.6237  0.3247 -0.3286
 7908TIP3   OH223687   0.021   5.017   0.040 -0.1573 -0.3377  0.3446
 7908TIP3    H123688  -0.064   4.982   0.014 -0.1256  0.3918 -0.7883
 7908TIP3    H223689   0.076   5.009  -0.037  1.1969 -1.8754  1.3968
 7909TIP3   OH223690   2.688   5.517   4.211  0.5209 -0.0008 -0.2729
 7909TIP3    H123691   2.665   5.473   4.293 -2.2911  0.6262 -0.6393
 7909TIP3    H223692   2.697   5.445   4.147 -0.8225 -0.2793 -0.1698
 7910TIP3   OH223693   1.715   1.338   2.571 -0.6184  0.7006  0.7835
 7910TIP3    H123694   1.744   1.422   2.608 -2.0472  0.3395  2.8741
 7910TIP3    H223695   1.620   1.344   2.570 -0.6976  0.1056 -1.6599
 7911TIP3   OH223696   6.626   4.882   5.215 -0.1037 -0.4210  0.1112
 7911TIP3    H123697   6.713   4.919   5.229 -0.6511  1.4967 -1.1258
 7911TIP3    H223698   6.591   4.930   5.140 -2.6099 -0.4017  1.1622
 7912TIP3   OH223699   6.508   1.515   5.227 -0.3249  0.4947  0.2783
 7912TIP3    H123700   6.423   1.483   5.196 -0.6950  0.6947  1.0685
 7912TIP3    H223701   6.572   1.456   5.187 -0.8084  0.4990 -0.5386
 7913TIP3   OH223702   1.343   1.232   3.136 -0.0190 -0.3109  0.8046
 7913TIP3    H123703   1.422   1.210   3.185  1.3682  1.7000 -0.4073
 7913TIP3    H223704   1.337   1.328   3.141 -0.1623 -0.0596 -2.3331
 7914TIP3   OH223705   6.816   4.329   2.546  0.0624  0.1563  0.3078
 7914TIP3    H123706   6.831   4.381   2.468 -0.1354  0.3143  0.3740
 7914TIP3    H223707   6.837   4.239   2.520 -0.2626  0.1687 -0.0042
 7915TIP3   OH223708   0.672   0.790   5.778 -0.6010 -0.5721  0.4653
 7915TIP3    H123709   0.656   0.879   5.808 -0.3641  0.2095 -1.5805
 7915TIP3    H223710   0.742   0.757   5.834 -0.9272  0.3981  1.4629
 7916TIP3   OH223711   4.851   0.445   4.543  0.1962  0.2420  0.2967
 7916TIP3    H123712   4.798   0.382   4.591  1.1082 -1.5852 -0.9664
 7916TIP3    H223713   4.862   0.406   4.456  1.7217  1.6213 -0.1870
 7917TIP3   OH223714   0.263   4.170   2.769  0.0827  0.3257  0.4602
 7917TIP3    H123715   0.176   4.192   2.804  0.1093  1.1380  0.0557
 7917TIP3    H223716   0.323   4.190   2.840 -0.0476 -0.0846  0.6872
 7918TIP3   OH223717   0.861   6.814   5.856  0.7248  0.0187  0.3248
 7918TIP3    H123718   0.946   6.805   5.899  1.2365  0.2969 -0.6214
 7918TIP3    H223719   0.848   6.730   5.811  0.5078 -0.0051  0.4282
 7919TIP3   OH223720   7.114   5.036   3.253 -0.7010  0.1724 -0.2813
 7919TIP3    H123721   7.150   5.113   3.209 -1.3281 -0.1909 -1.4868
 7919TIP3    H223722   7.029   5.022   3.211 -0.8112 -0.8822  0.2588
 7920TIP3   OH223723   5.759   5.401   5.094 -0.0839  0.1998 -0.1462
 7920TIP3    H123724   5.846   5.362   5.083  0.5733  1.7877 -1.0027
 7920TIP3    H223725   5.721   5.355   5.168  1.2970 -0.8650 -0.0514
 7921TIP3   OH223726   1.865  -0.019   0.287  0.0429  0.0521  0.6218
 7921TIP3    H123727   1.791   0.041   0.280  0.0518  0.0701  0.6835
 7921TIP3    H223728   1.924   0.022   0.350  0.1966  0.1325  0.4254
 7922TIP3   OH223729   7.175   2.145   0.053 -0.3456  0.0233  0.3665
 7922TIP3    H123730   7.177   2.234   0.016  0.5345  0.4095  1.2809
 7922TIP3    H223731   7.234   2.095  -0.004 -3.4859 -0.9730 -2.3589
 7923TIP3   OH223732   5.149   5.106   5.661  0.4635 -0.5286 -0.4078
 7923TIP3    H123733   5.115   5.017   5.651  0.9865 -0.6323 -1.4768
 7923TIP3    H223734   5.208   5.101   5.736  0.2653 -1.0143 -0.2815
 7924TIP3   OH223735   4.071   2.701   0.776  0.4293 -0.1281 -1.0449
 7924TIP3    H123736   4.160   2.736   0.781  0.8472 -0.8822 -2.7052
 7924TIP3    H223737   4.050   2.677   0.866  1.9530 -0.0641 -0.6475
 7925TIP3   OH223738   5.768   4.320   3.109 -0.0890 -0.2401 -0.2929
 7925TIP3    H123739   5.861   4.298   3.115 -0.0934 -0.3555 -0.6608
 7925TIP3    H223740   5.726   4.262   3.173  0.1507  0.1686  0.2448
 7926TIP3   OH223741   5.435   4.206   1.234  0.2215  0.3361 -0.3332
 7926TIP3    H123742   5.368   4.225   1.299  0.6329  0.1830  0.1458
 7926TIP3    H223743   5.433   4.111   1.224  0.7192  0.2754  0.0796
 7927TIP3   OH223744   5.393   5.533   5.763  0.1533 -0.1291 -0.3048
 7927TIP3    H123745   5.470   5.477   5.752 -0.2916 -0.5350 -1.4980
 7927TIP3    H223746   5.346   5.526   5.680 -1.9840 -1.0963  0.9042
 7928TIP3   OH223747   1.227   2.160   5.819  0.5227 -0.0672  0.3306
 7928TIP3    H123748   1.278   2.241   5.818 -0.8314  0.8646 -1.5669
 7928TIP3    H223749   1.262   2.109   5.746  0.5174 -0.6290  0.7151
 7929TIP3   OH223750   5.883   3.477   3.590 -0.0293  0.2563 -0.0926
 7929TIP3    H123751   5.865   3.564   3.554  2.5133  0.9508  0.1040
 7929TIP3    H223752   5.927   3.430   3.519 -1.1699 -0.8419 -0.1192
 7930TIP3   OH223753   2.994   6.519   5.075 -0.1122  0.1885  0.5821
 7930TIP3    H123754   3.023   6.585   5.011 -0.5159  1.1753  1.3935
 7930TIP3    H223755   3.023   6.436   5.038 -0.4769  0.7187 -0.9753
 7931TIP3   OH223756   4.444   4.371   0.131 -0.4148 -0.9317 -0.2033
 7931TIP3    H123757   4.416   4.421   0.207 -2.5363 -2.2121 -0.0599
 7931TIP3    H223758   4.443   4.434   0.059 -2.4819 -0.5659  0.0857
 7932TIP3   OH223759   4.698   5.823   4.071 -0.1490  0.1767  0.3798
 7932TIP3    H123760   4.758   5.817   3.996  0.2351 -1.7623  0.7801
 7932TIP3    H223761   4.719   5.907   4.112  1.0911  0.3226 -0.4960
 7933TIP3   OH223762   3.393   2.118   0.038 -0.0853  0.8228 -0.3438
 7933TIP3    H123763   3.444   2.116   0.119  0.6696  0.0153 -0.8204
 7933TIP3    H223764   3.360   2.207   0.033 -1.7875  0.4140  1.8385
 7934TIP3   OH223765   6.880   4.073   3.339  0.2960  0.5125  0.1351
 7934TIP3    H123766   6.969   4.039   3.338  0.1950  0.2429  0.3740
 7934TIP3    H223767   6.824   3.995   3.337  0.0556  0.6892 -1.3270
 7935TIP3   OH223768   2.172   0.215   1.144  0.2455  0.1134 -0.0752
 7935TIP3    H123769   2.115   0.153   1.099 -1.6974  1.2493  0.7284
 7935TIP3    H223770   2.157   0.198   1.237  2.6970 -0.8383  0.2284
 7936TIP3   OH223771   4.645   0.728   2.883  0.3919 -0.1097 -0.0116
 7936TIP3    H123772   4.728   0.745   2.927 -0.4434 -0.4608  1.8271
 7936TIP3    H223773   4.605   0.657   2.934 -1.1234  0.1944 -0.7010
 7937TIP3   OH223774   3.575   5.880   2.648  0.1060 -0.6206  0.2957
 7937TIP3    H123775   3.651   5.914   2.601 -0.3349 -0.8756 -0.6190
 7937TIP3    H223776   3.507   5.947   2.634  0.1191 -0.4520  1.0027
 7938TIP3   OH223777   4.739   5.701   1.392  0.5480  0.1755  0.5854
 7938TIP3    H123778   4.820   5.751   1.383 -1.4986  3.7109 -0.4691
 7938TIP3    H223779   4.709   5.688   1.302 -0.1218 -0.9661  0.9587
 7939TIP3   OH223780   2.392   4.691   0.960 -0.0151  0.4057 -0.8072
 7939TIP3    H123781   2.438   4.769   0.991  1.8877 -1.3396  1.1976
 7939TIP3    H223782   2.449   4.618   0.987 -2.7144 -1.7903 -0.5873
 7940TIP3   OH223783   4.971   6.196   1.573  0.3107 -0.5754 -0.4350
 7940TIP3    H123784   5.061   6.200   1.607  0.0577  0.1623  0.1847
 7940TIP3    H223785   4.980   6.214   1.480  0.8017 -0.3903 -0.3548
 7941TIP3   OH223786   1.975   1.531   2.894 -0.1301  0.0383 -0.0792
 7941TIP3    H123787   2.009   1.492   2.813  0.1146 -1.0105  0.5072
 7941TIP3    H223788   2.011   1.620   2.895  0.2265 -0.0862 -0.8932
 7942TIP3   OH223789   3.450   6.399   0.515  0.1843  0.2488 -0.3080
 7942TIP3    H123790   3.424   6.307   0.513  0.6627  0.1179 -0.6776
 7942TIP3    H223791   3.370   6.448   0.494  0.3098 -0.1665 -1.8957
 7943TIP3   OH223792   3.227   1.018   4.349 -0.2776  0.1650  0.7095
 7943TIP3    H123793   3.196   0.949   4.290 -0.2428 -1.2347  2.2584
 7943TIP3    H223794   3.226   0.978   4.435 -0.2810  2.1411  1.6813
 7944TIP3   OH223795   1.685   2.268   3.219 -0.4453 -0.5357 -0.3971
 7944TIP3    H123796   1.667   2.362   3.211 -2.1272 -0.9503 -1.9359
 7944TIP3    H223797   1.670   2.249   3.312  0.3507  0.7724  0.0286
 7945TIP3   OH223798   5.499   0.276   1.753  0.3593 -0.3116  0.5402
 7945TIP3    H123799   5.495   0.225   1.834  1.3959 -0.9855  0.1874
 7945TIP3    H223800   5.410   0.307   1.740 -0.1051 -1.2914  1.2437
 7946TIP3   OH223801   3.201   0.184   5.571 -0.4900  0.0414 -0.2520
 7946TIP3    H123802   3.157   0.269   5.576  1.4301  1.0782 -0.2775
 7946TIP3    H223803   3.247   0.176   5.654 -2.0960 -1.8709  0.5409
 7947TIP3   OH223804   2.436   4.090   4.150  0.2956  0.1358  0.1559
 7947TIP3    H123805   2.407   4.106   4.061 -1.7365  0.6248  0.8557
 7947TIP3    H223806   2.374   4.026   4.184 -0.1496  1.3588  1.7829
 7948TIP3   OH223807   2.530   2.271   1.073 -0.2062 -0.2499 -0.5834
 7948TIP3    H123808   2.512   2.210   1.144  0.0359  0.6471  0.2662
 7948TIP3    H223809   2.603   2.324   1.104 -0.7725  0.8480 -1.0494
 7949TIP3   OH223810   0.551   6.261   4.272 -0.0496  0.4983 -0.6130
 7949TIP3    H123811   0.574   6.331   4.333  2.9325 -1.9409  1.3141
 7949TIP3    H223812   0.496   6.202   4.324  0.8133 -0.5857 -0.9150
 7950TIP3   OH223813   0.411   1.146   4.021 -0.0793 -0.0045 -0.3389
 7950TIP3    H123814   0.364   1.102   3.950  1.0818 -0.5519 -0.8044
 7950TIP3    H223815   0.344   1.168   4.085 -1.0194 -0.3395 -1.1873
 7951TIP3   OH223816   0.073   2.902   0.801  0.1744 -0.3811 -0.0861
 7951TIP3    H123817   0.136   2.972   0.785  0.0196  0.1148  1.2936
 7951TIP3    H223818  -0.011   2.940   0.776  0.0890 -0.0354  0.6715
 7952TIP3   OH223819   3.991   2.941   5.659 -0.2628 -0.0716 -0.1939
 7952TIP3    H123820   4.081   2.943   5.627  0.2119  0.3350  1.0916
 7952TIP3    H223821   3.946   3.010   5.610  0.8744  1.7253  1.1680
 7953TIP3   OH223822   6.001   0.654   3.826  0.0099 -0.0342  0.5767
 7953TIP3    H123823   6.075   0.599   3.802  0.4861  0.7120  0.2883
 7953TIP3    H223824   5.925   0.612   3.786  0.4062 -0.3360  0.1440
 7954TIP3   OH223825   3.758   2.011   4.964 -0.2268  0.6413 -0.4039
 7954TIP3    H123826   3.822   1.967   5.021  0.8174  0.7454 -1.4621
 7954TIP3    H223827   3.754   2.101   4.998  0.6021  0.7807 -0.6640
 7955TIP3   OH223828   1.094   5.684   0.590 -0.4625  0.4190  0.3332
 7955TIP3    H123829   1.048   5.613   0.635 -1.3053  0.5599 -0.2730
 7955TIP3    H223830   1.126   5.645   0.509 -0.5951  0.6355  0.1757
 7956TIP3   OH223831   4.158   5.291   5.797  0.0265 -0.0706  0.6484
 7956TIP3    H123832   4.129   5.213   5.844 -0.1558  0.5418  1.5879
 7956TIP3    H223833   4.206   5.342   5.863 -1.2732  1.3891  0.5211
 7957TIP3   OH223834   5.266   5.825   3.682 -0.3949 -0.1247  0.2627
 7957TIP3    H123835   5.237   5.758   3.743 -1.2339  0.8678  0.9973
 7957TIP3    H223836   5.358   5.804   3.665 -0.4730 -1.0912  0.9581
 7958TIP3   OH223837   3.898   0.303   5.345 -0.4224  0.2221 -0.3161
 7958TIP3    H123838   3.810   0.269   5.362  0.1313 -0.8221  0.5688
 7958TIP3    H223839   3.929   0.334   5.430  0.3670 -0.1627 -0.4545
 7959TIP3   OH223840   6.213   6.826   1.065  0.0873  0.5618  0.1028
 7959TIP3    H123841   6.256   6.833   0.980 -0.1199 -1.8307 -0.2643
 7959TIP3    H223842   6.244   6.743   1.101  0.1812  1.5154  2.4127
 7960TIP3   OH223843   1.177   0.838   1.716  0.4709  0.1426  0.0075
 7960TIP3    H123844   1.197   0.929   1.695  1.4027  0.0598  0.4784
 7960TIP3    H223845   1.114   0.844   1.788  0.1255  0.4123 -0.3138
 7961TIP3   OH223846   1.667   2.441   4.123  0.1009 -0.3444 -0.3636
 7961TIP3    H123847   1.675   2.345   4.121  0.0469 -0.3561 -0.0979
 7961TIP3    H223848   1.751   2.471   4.158  0.3702 -0.2539 -1.0671
 7962TIP3   OH223849   6.672   2.104   5.521 -0.5581  0.1984 -0.4955
 7962TIP3    H123850   6.606   2.171   5.537 -0.8108 -0.3729  1.0049
 7962TIP3    H223851   6.641   2.028   5.570  0.9716 -0.2414 -0.1531
 7963TIP3   OH223852   7.151   4.115   1.723  0.6236  1.0509 -0.8539
 7963TIP3    H123853   7.077   4.053   1.723  0.5682  1.1083  0.0351
 7963TIP3    H223854   7.110   4.201   1.730  0.7761  1.0638  0.0077
 7964TIP3   OH223855   2.625   6.477   4.465  0.1024 -0.1272 -0.3643
 7964TIP3    H123856   2.657   6.493   4.554 -1.1785 -2.5966  0.6382
 7964TIP3    H223857   2.538   6.439   4.476 -0.6555  0.6997 -2.7562
 7965TIP3   OH223858   3.832   5.954   4.031  0.2753  0.2748 -0.3699
 7965TIP3    H123859   3.883   6.019   4.080 -1.0699 -0.4970  2.2616
 7965TIP3    H223860   3.758   6.003   3.996  0.0649  0.4563  0.3139
 7966TIP3   OH223861   2.776   3.326   5.076  0.1846 -0.3883 -0.5523
 7966TIP3    H123862   2.819   3.405   5.108  0.0945 -0.1539 -1.0078
 7966TIP3    H223863   2.690   3.327   5.117  0.1004 -0.1339 -0.7382
 7967TIP3   OH223864   3.803   2.954   0.849 -0.3605 -0.4785  0.5549
 7967TIP3    H123865   3.723   3.008   0.849 -0.3907 -0.5195  0.9873
 7967TIP3    H223866   3.855   2.988   0.922 -0.3242 -0.9547  0.7535
 7968TIP3   OH223867   6.775   0.009   0.673  0.5100  0.0065 -0.5318
 7968TIP3    H123868   6.865   0.003   0.705  0.7877  1.8190 -0.8900
 7968TIP3    H223869   6.782   0.000   0.578 -0.2439 -4.6173 -0.4117
 7969TIP3   OH223870   6.271   4.383   1.374 -0.0189  0.1892 -0.1726
 7969TIP3    H123871   6.217   4.336   1.310 -1.1024  3.4791 -1.9597
 7969TIP3    H223872   6.360   4.378   1.339  0.0735 -1.2805  0.2171
 7970TIP3   OH223873   6.708   0.996   2.378  0.5362  0.1952  0.1881
 7970TIP3    H123874   6.757   1.022   2.299 -0.1599 -0.4850 -0.4896
 7970TIP3    H223875   6.717   0.901   2.381 -0.7551  0.0496  0.0282
 7971TIP3   OH223876   7.189   2.819   4.301 -0.0780 -0.2438 -0.0043
 7971TIP3    H123877   7.184   2.858   4.389 -0.6589 -0.6697  0.1554
 7971TIP3    H223878   7.194   2.894   4.242  1.1071  0.0490  0.4249
 7972TIP3   OH223879   6.967   3.560   3.080  0.3567  0.2482 -0.0884
 7972TIP3    H123880   6.912   3.592   3.151 -0.6454 -0.8752 -0.3283
 7972TIP3    H223881   6.976   3.635   3.021  1.0776  1.1480  1.1201
 7973TIP3   OH223882   5.976   4.481   3.696  0.2164  0.4863  0.1266
 7973TIP3    H123883   5.977   4.447   3.607 -0.7845  0.4974  0.1012
 7973TIP3    H223884   6.037   4.554   3.695  0.1647  0.5205 -0.5641
 7974TIP3   OH223885   1.431   1.640   1.273 -0.1077 -0.2674 -0.1857
 7974TIP3    H123886   1.369   1.710   1.251 -1.2917 -0.5924  1.8322
 7974TIP3    H223887   1.419   1.575   1.204 -1.6742 -0.0930 -0.1084
 7975TIP3   OH223888   1.148   4.885   5.849 -0.3394 -0.5232 -0.0484
 7975TIP3    H123889   1.224   4.903   5.905 -1.0629  1.7883  0.2918
 7975TIP3    H223890   1.104   4.811   5.891 -0.1646  0.3336  1.7234
 7976TIP3   OH223891   2.826   2.481   0.427  0.4858  0.1786  0.0582
 7976TIP3    H123892   2.757   2.435   0.381 -1.5538  1.4447  1.6693
 7976TIP3    H223893   2.852   2.552   0.368 -0.0078  0.0546 -0.3074
 7977TIP3   OH223894   6.872   4.643   2.886 -0.3767  0.0304 -0.3079
 7977TIP3    H123895   6.854   4.569   2.828  1.8466  0.6610 -1.9498
 7977TIP3    H223896   6.810   4.711   2.858  0.3585  0.1696 -1.7268
 7978TIP3   OH223897   0.039   0.163   3.881  0.3388 -0.5713  0.0529
 7978TIP3    H123898   0.086   0.170   3.797  1.0979 -0.5637  0.4634
 7978TIP3    H223899  -0.047   0.201   3.863  0.4224 -0.7386 -0.7731
 7979TIP3   OH223900   6.101   5.623   1.514  0.1016  0.2522 -0.2457
 7979TIP3    H123901   6.027   5.566   1.536  0.9344 -1.0575 -0.7357
 7979TIP3    H223902   6.123   5.601   1.424  0.9780  0.7513 -0.1680
 7980TIP3   OH223903   0.108   0.496   4.454  0.4054 -0.5777  0.2184
 7980TIP3    H123904   0.149   0.427   4.506  1.2938  0.4509  0.9279
 7980TIP3    H223905   0.046   0.450   4.398  1.7785 -2.0655 -0.1377
 7981TIP3   OH223906   6.300   6.609   3.633  0.3272 -0.0831 -0.1374
 7981TIP3    H123907   6.369   6.661   3.592  0.5280  0.2590  0.5993
 7981TIP3    H223908   6.291   6.532   3.577  1.0961  0.0137 -0.4128
 7982TIP3   OH223909   4.596   1.369   4.091  0.0901  0.2608  0.4673
 7982TIP3    H123910   4.637   1.308   4.153  0.1704 -0.5654 -0.3689
 7982TIP3    H223911   4.646   1.356   4.010 -0.0125  1.3216  0.2280
 7983TIP3   OH223912   3.617   1.773   3.685  0.1899  0.0357 -0.4986
 7983TIP3    H123913   3.547   1.723   3.643  0.0452  0.4570 -0.7599
 7983TIP3    H223914   3.581   1.861   3.697  0.8491  0.4045 -1.1172
 7984TIP3   OH223915   1.813   5.322   4.666  0.2275 -0.5552  0.0254
 7984TIP3    H123916   1.822   5.405   4.618 -1.0863 -0.8942 -0.8842
 7984TIP3    H223917   1.868   5.261   4.618  0.2732 -0.4787 -0.0199
 7985TIP3   OH223918   5.730   4.201   4.772 -0.2570 -0.3419  0.2040
 7985TIP3    H123919   5.759   4.122   4.727 -0.6433 -0.3319 -0.0658
 7985TIP3    H223920   5.684   4.169   4.850 -2.2298 -0.4787 -0.9492
 7986TIP3   OH223921   2.481   5.361   3.352 -0.4063  0.2862 -0.4233
 7986TIP3    H123922   2.468   5.396   3.440  0.2984  0.0097 -0.2010
 7986TIP3    H223923   2.402   5.310   3.334  0.3006 -1.3833  0.8916
 7987TIP3   OH223924   4.288   6.234   5.791  0.1340 -0.4943  0.6108
 7987TIP3    H123925   4.207   6.281   5.811 -0.3260 -0.5701 -0.9080
 7987TIP3    H223926   4.354   6.273   5.848 -0.7931  0.1820  1.2395
 7988TIP3   OH223927   4.797   5.772   3.111 -0.2357  0.0651  0.3214
 7988TIP3    H123928   4.755   5.856   3.088 -1.7817 -0.5531  0.7493
 7988TIP3    H223929   4.857   5.755   3.039 -1.9030  0.2374 -1.1924
 7989TIP3   OH223930   0.993   3.270   0.747  0.4608  0.1354  0.2925
 7989TIP3    H123931   0.974   3.347   0.694 -0.0071 -0.7947 -0.9165
 7989TIP3    H223932   1.074   3.292   0.794 -0.3412  1.8384  0.9516
 7990TIP3   OH223933   0.474   0.859   5.416  0.1198 -0.1402  0.2596
 7990TIP3    H123934   0.411   0.930   5.427 -1.2554 -1.4070  0.8540
 7990TIP3    H223935   0.450   0.818   5.333  1.5992  0.6964 -0.6389
 7991TIP3   OH223936   5.678   0.028   4.627 -0.3321 -0.1641 -0.2452
 7991TIP3    H123937   5.595   0.016   4.582 -0.4235  0.3656 -0.2340
 7991TIP3    H223938   5.714   0.108   4.589  0.2070 -0.4301 -0.2998
 7992TIP3   OH223939   3.332   0.152   5.340  0.0578  0.2154 -0.9079
 7992TIP3    H123940   3.294   0.190   5.420  0.0940  0.1308 -0.8497
 7992TIP3    H223941   3.280   0.189   5.269 -0.2338 -0.0123 -0.8202
 7993TIP3   OH223942   1.721   0.192   2.009 -0.3628  0.0634  0.4083
 7993TIP3    H123943   1.816   0.190   2.022 -0.4725 -0.4309  1.1340
 7993TIP3    H223944   1.685   0.141   2.081 -1.3416  2.3380  1.6443
 7994TIP3   OH223945   2.108   6.143   4.736 -0.2664 -0.0727  0.0015
 7994TIP3    H123946   2.199   6.123   4.757 -0.1057  0.8096  0.2121
 7994TIP3    H223947   2.107   6.156   4.642 -0.7233 -2.7125 -0.4422
 7995TIP3   OH223948   5.425   5.196   3.328  0.2794 -0.2429  0.1756
 7995TIP3    H123949   5.447   5.138   3.256 -0.2059  0.0367 -0.2038
 7995TIP3    H223950   5.408   5.281   3.286  1.5055  0.3273  0.7612
 7996TIP3   OH223951   1.066   2.311   2.266 -0.3997 -0.3650  0.6871
 7996TIP3    H123952   1.153   2.350   2.266 -0.3018 -0.5716 -0.0453
 7996TIP3    H223953   1.057   2.273   2.354  0.1868 -0.2114  0.8199
 7997TIP3   OH223954   4.488   0.951   5.307  0.6397  0.0889  0.0059
 7997TIP3    H123955   4.529   1.014   5.366  0.3322 -1.1504  1.6240
 7997TIP3    H223956   4.406   0.993   5.279  1.8794  1.6616 -1.5000
 7998TIP3   OH223957   1.399   3.710   5.824 -0.4373  0.5669  0.2088
 7998TIP3    H123958   1.360   3.632   5.865 -0.3333 -0.0379 -0.8104
 7998TIP3    H223959   1.494   3.696   5.834 -0.2731 -0.8470 -2.3499
 7999TIP3   OH223960   0.620   4.563   5.691 -0.6090 -0.0809 -0.2309
 7999TIP3    H123961   0.673   4.486   5.712 -0.3586  0.0933 -0.2095
 7999TIP3    H223962   0.672   4.610   5.625 -0.9754 -0.1682 -0.5838
 8000TIP3   OH223963   3.457   5.050   1.821  0.0972  0.0381  0.1311
 8000TIP3    H123964   3.399   4.974   1.826 -2.4516  1.7624 -1.0382
 8000TIP3    H223965   3.514   5.031   1.746 -0.4343 -0.7375 -0.0944
 8001TIP3   OH223966   6.268   3.977   1.687 -0.3173  0.2776  0.3534
 8001TIP3    H123967   6.232   4.065   1.689  0.5455  0.6975 -1.0750
 8001TIP3    H223968   6.263   3.950   1.595 -0.4140 -1.1037  0.7334
 8002TIP3   OH223969   0.486   1.601   0.680 -0.0415 -0.0720 -0.1704
 8002TIP3    H123970   0.411   1.609   0.739 -0.9338 -1.7114 -1.0045
 8002TIP3    H223971   0.548   1.544   0.727  0.7684  1.3562  0.5575
 8003TIP3   OH223972   6.217   0.870   5.091  0.0320  0.1258 -0.3116
 8003TIP3    H123973   6.213   0.900   5.181  0.1107  3.3983 -1.2797
 8003TIP3    H223974   6.126   0.852   5.067  0.0258 -0.8868  0.4047
 8004TIP3   OH223975   5.094   5.091   5.241 -0.1873 -0.0782 -0.3972
 8004TIP3    H123976   5.118   5.140   5.161  0.9559  0.5588  0.3019
 8004TIP3    H223977   5.153   5.015   5.241  0.7696  0.6340  0.5028
 8005TIP3   OH223978   3.657   6.138   3.931  0.1514 -0.0124  0.1678
 8005TIP3    H123979   3.658   6.158   3.837  2.3930  4.3413  0.8600
 8005TIP3    H223980   3.568   6.157   3.959 -0.1093  0.2935 -0.8319
 8006TIP3   OH223981   4.121   5.212   1.383  0.3112 -0.0167  0.5705
 8006TIP3    H123982   4.149   5.165   1.461  0.6358 -0.5551  0.1381
 8006TIP3    H223983   4.198   5.213   1.326 -0.6491 -2.1491 -0.9415
 8007TIP3   OH223984   0.606   4.773   4.751 -0.3901  0.5939  0.5903
 8007TIP3    H123985   0.654   4.696   4.781 -1.7714  0.0381  1.4516
 8007TIP3    H223986   0.672   4.842   4.748  0.7273 -0.4467  0.4603
 8008TIP3   OH223987   3.530   3.985   3.093  0.7098 -0.1838  0.7100
 8008TIP3    H123988   3.439   3.956   3.102  0.8150 -0.5553  0.6092
 8008TIP3    H223989   3.536   4.016   3.003  1.0838 -1.6479  0.1928
 8009TIP3   OH223990   1.763   5.892   2.564 -0.7257 -0.1064  0.6399
 8009TIP3    H123991   1.695   5.860   2.624 -1.3211  0.9451  0.5501
 8009TIP3    H223992   1.715   5.936   2.494 -0.0045 -0.7323 -0.2770
 8010TIP3   OH223993   3.059   3.747   0.431 -0.1144  0.2677 -0.2641
 8010TIP3    H123994   3.081   3.654   0.422 -0.8470  0.1348 -0.8789
 8010TIP3    H223995   3.087   3.771   0.519  1.3638 -0.1659 -0.5927
 8011TIP3   OH223996   1.602   3.149   3.108  0.0710  0.5518  0.2230
 8011TIP3    H123997   1.529   3.088   3.101 -0.2804  0.9260  0.5999
 8011TIP3    H223998   1.584   3.201   3.186  1.4668 -0.3170  1.1681
 8012TIP3   OH223999   7.232   0.170   0.621  0.2847 -0.4956 -0.0881
 8012TIP3    H124000   7.158   0.197   0.675  0.7435  0.4041  0.1081
 8012TIP3    H224001   7.224   0.225   0.542  0.3065 -0.9486 -0.4105
 8013TIP3   OH224002   1.140   6.045   2.856 -0.2990  0.3284  0.1440
 8013TIP3    H124003   1.170   6.135   2.868  1.0366 -0.1168  0.3297
 8013TIP3    H224004   1.071   6.034   2.921  0.9370  0.6197  1.5769
 8014TIP3   OH224005   3.041   2.206   0.251  0.5816 -0.3448  0.0591
 8014TIP3    H124006   3.087   2.271   0.198 -0.8684 -0.8908 -1.9784
 8014TIP3    H224007   2.970   2.174   0.195 -1.1810 -0.8572  2.3966
 8015TIP3   OH224008   3.382   3.205   4.878  0.1721  0.4017 -0.0470
 8015TIP3    H124009   3.422   3.138   4.933  0.8404  1.0652  0.2920
 8015TIP3    H224010   3.426   3.194   4.793  1.0323  1.0718  0.2996
 8016TIP3   OH224011   0.787   4.147   1.242  0.9119  0.0361  0.2799
 8016TIP3    H124012   0.734   4.201   1.183 -0.2422 -0.5893  0.7219
 8016TIP3    H224013   0.732   4.134   1.319  1.1912 -1.6696  0.2357
 8017TIP3   OH224014   1.673   3.424   1.325  0.5098  0.2740  0.2377
 8017TIP3    H124015   1.748   3.441   1.382  0.9097  0.5066 -0.3489
 8017TIP3    H224016   1.697   3.464   1.241 -0.2963  0.4014  0.0598
 8018TIP3   OH224017   2.473   5.465   3.917 -0.1467 -0.2353  0.0096
 8018TIP3    H124018   2.544   5.529   3.921  0.5028 -0.6453 -2.8730
 8018TIP3    H224019   2.508   5.389   3.963  0.5646  0.1846  0.1931
 8019TIP3   OH224020   2.907   2.936   5.572 -0.2032 -0.2355  0.3833
 8019TIP3    H124021   2.851   2.866   5.607  0.7358 -1.1817  0.0688
 8019TIP3    H224022   2.881   2.943   5.480  0.1268 -0.6302  0.2537
 8020TIP3   OH224023   4.324   3.378   3.687  0.5581  0.1888 -0.1989
 8020TIP3    H124024   4.337   3.290   3.652  0.5177 -0.5153  1.5064
 8020TIP3    H224025   4.322   3.367   3.782 -1.1817  1.7811  0.0158
 8021TIP3   OH224026   0.532   2.955   3.974 -0.2829  0.2540  0.4041
 8021TIP3    H124027   0.485   2.879   3.940  0.6019 -1.9085  3.5055
 8021TIP3    H224028   0.610   2.961   3.919 -0.0723 -1.5120  0.4398
 8022TIP3   OH224029   2.983   4.576   2.906 -0.9091 -0.2425  0.2124
 8022TIP3    H124030   2.912   4.546   2.849 -1.3157  0.5956  0.2721
 8022TIP3    H224031   3.052   4.604   2.846 -1.1412  0.1659  0.1325
 8023TIP3   OH224032   3.787   2.792   2.704  0.2078 -0.4369 -0.1055
 8023TIP3    H124033   3.724   2.764   2.769 -0.9864  1.9983 -0.0927
 8023TIP3    H224034   3.749   2.767   2.620 -1.1879  1.5754 -0.1370
 8024TIP3   OH224035   3.658   1.295   3.794  0.1816  0.2141 -0.4040
 8024TIP3    H124036   3.695   1.311   3.708  2.1094  0.7275  0.4507
 8024TIP3    H224037   3.618   1.378   3.820 -2.3220 -0.5220 -1.5968
 8025TIP3   OH224038   2.856   3.591   5.599  0.3984 -0.6984 -0.1326
 8025TIP3    H124039   2.785   3.616   5.541  1.4614 -0.2164 -1.2706
 8025TIP3    H224040   2.812   3.555   5.677 -1.0734 -0.0137 -0.6108
 8026TIP3   OH224041   0.953   6.315   5.255 -0.2112  0.0714 -0.0246
 8026TIP3    H124042   1.044   6.327   5.228  0.5323 -1.6345  1.4565
 8026TIP3    H224043   0.910   6.276   5.179 -0.0449  1.9350 -1.1377
 8027TIP3   OH224044   3.546   4.011   0.480 -0.3607 -0.2266 -0.0284
 8027TIP3    H124045   3.624   4.004   0.534 -1.6841 -4.0960  1.7529
 8027TIP3    H224046   3.579   4.032   0.393  2.6669 -1.4388  0.7031
 8028TIP3   OH224047   4.969   4.691   3.034 -0.2894  0.3143  0.0869
 8028TIP3    H124048   4.994   4.692   3.127 -0.6265 -0.6875  0.2030
 8028TIP3    H224049   4.879   4.723   3.034  0.1282  1.5763 -0.0634
 8029TIP3   OH224050   6.773   1.160   4.572 -0.0658  0.0751 -0.1971
 8029TIP3    H124051   6.814   1.209   4.643 -2.4725  1.5721  0.2568
 8029TIP3    H224052   6.819   1.190   4.493  0.8489  0.4040  0.4396
 8030TIP3   OH224053   1.758   6.000   5.031  0.5835 -0.2775 -0.1453
 8030TIP3    H124054   1.813   6.061   4.982  0.4905 -0.2268 -0.1864
 8030TIP3    H224055   1.799   5.996   5.118  0.4999 -0.0362 -0.0934
 8031TIP3   OH224056   1.299   1.697   3.803 -0.7788 -0.5403  0.1320
 8031TIP3    H124057   1.376   1.691   3.861 -1.1978  1.5671  0.9789
 8031TIP3    H224058   1.335   1.701   3.715  0.0857  0.2233  0.5087
 8032TIP3   OH224059   2.505   1.670   0.987 -0.5022 -0.1274 -0.2866
 8032TIP3    H124060   2.463   1.591   1.022 -0.1905 -0.4520 -0.6372
 8032TIP3    H224061   2.455   1.742   1.024 -1.5253 -0.5115 -0.8945
 8033TIP3   OH224062   3.814   5.289   5.157  0.0672  0.6268  0.3488
 8033TIP3    H124063   3.721   5.309   5.157  0.0870  0.7214  0.2123
 8033TIP3    H224064   3.821   5.203   5.198  0.1945  1.9378  3.3660
 8034TIP3   OH224065   0.099   6.571   0.854 -0.7053 -0.5460 -0.3974
 8034TIP3    H124066   0.136   6.656   0.881  0.5224 -1.5425  1.2559
 8034TIP3    H224067   0.067   6.586   0.765  1.2284  1.1285 -0.8846
 8035TIP3   OH224068   0.752   5.057   0.778 -0.4715  0.6724  0.3530
 8035TIP3    H124069   0.776   5.000   0.705  0.1655 -0.6919  1.5581
 8035TIP3    H224070   0.661   5.033   0.798 -0.2451  0.1351  0.7773
 8036TIP3   OH224071   5.457   4.148   3.523  0.0448  0.0456  0.2619
 8036TIP3    H124072   5.437   4.231   3.567 -1.0643 -1.0255  1.8572
 8036TIP3    H224073   5.399   4.084   3.564  0.3226 -1.3936 -1.4752
 8037TIP3   OH224074   2.985   3.467   4.003  0.1410  0.2376  0.0951
 8037TIP3    H124075   3.047   3.403   3.966  0.8119  1.8888 -1.8488
 8037TIP3    H224076   2.902   3.420   4.009  0.5698 -0.7830 -1.4493
 8038TIP3   OH224077   6.466   1.038   0.071  0.1000  0.2891  0.1741
 8038TIP3    H124078   6.371   1.029   0.062  0.2098 -1.2984  0.2946
 8038TIP3    H224079   6.478   1.116   0.125 -1.2630 -0.8212  2.2120
 8039TIP3   OH224080   4.186   5.309   2.884  0.0111 -0.2570  0.1836
 8039TIP3    H124081   4.172   5.371   2.955  0.7034 -0.4137  0.4731
 8039TIP3    H224082   4.160   5.224   2.921  0.1210 -0.2999  0.1634
 8040TIP3   OH224083   4.003   5.249   2.299 -0.3442  0.5423 -0.0634
 8040TIP3    H124084   4.044   5.163   2.308 -1.2463  0.0397 -0.6454
 8040TIP3    H224085   4.072   5.311   2.324  1.0574 -0.2364 -1.7998
 8041TIP3   OH224086   5.748   1.207   4.531  0.3559 -0.0828  0.1425
 8041TIP3    H124087   5.756   1.267   4.457 -1.0519  1.1520  0.9473
 8041TIP3    H224088   5.688   1.139   4.500  1.7011 -0.9608 -0.6571
 8042TIP3   OH224089   1.556   1.696   1.806  0.0147 -0.2735  0.2269
 8042TIP3    H124090   1.596   1.617   1.768  2.2475  1.2119 -0.6906
 8042TIP3    H224091   1.596   1.769   1.759 -2.5025  1.4545  0.5407
 8043TIP3   OH224092   2.822   1.664   5.747 -0.2899 -0.1291 -0.4937
 8043TIP3    H124093   2.901   1.656   5.694 -0.1744 -0.1000 -0.3236
 8043TIP3    H224094   2.754   1.623   5.693 -0.1437 -0.2330 -0.6014
 8044TIP3   OH224095   2.200   5.151   4.386  0.6174  0.0100  0.4811
 8044TIP3    H124096   2.295   5.146   4.369  0.6412  1.8034 -0.0540
 8044TIP3    H224097   2.166   5.067   4.353  1.6270  0.5260 -2.1651
 8045TIP3   OH224098   6.307   3.829   4.410 -0.0094 -0.0706  0.1896
 8045TIP3    H124099   6.291   3.736   4.395  1.3000 -0.2241 -0.3950
 8045TIP3    H224100   6.366   3.831   4.486 -0.0261  0.2734  0.1946
 8046TIP3   OH224101   0.821   1.468   5.523 -0.2713 -0.1749 -0.1973
 8046TIP3    H124102   0.784   1.552   5.498 -0.1300  0.1546  0.6890
 8046TIP3    H224103   0.766   1.438   5.595  0.5726 -0.1435  0.4759
 8047TIP3   OH224104   1.459   2.846   1.059  0.2210  0.6029 -0.1950
 8047TIP3    H124105   1.516   2.869   1.133  1.4148 -0.9538 -0.5546
 8047TIP3    H224106   1.457   2.750   1.060 -0.9550  0.5911 -1.3025
 8048TIP3   OH224107   3.741   1.878   2.025  0.1118 -0.8591  0.2647
 8048TIP3    H124108   3.802   1.869   2.098  0.7846 -0.5069 -0.2449
 8048TIP3    H224109   3.729   1.973   2.015  1.7104 -0.7988 -1.4403
 8049TIP3   OH224110   2.600   5.222   2.962 -0.1312 -0.3986 -0.0405
 8049TIP3    H124111   2.608   5.173   3.043  0.7723 -1.2809 -0.6351
 8049TIP3    H224112   2.554   5.302   2.986  2.9227  0.9324  2.0318
 8050TIP3   OH224113   3.211   1.010   2.783  0.4603  0.9127  0.3691
 8050TIP3    H124114   3.242   0.919   2.791 -1.1122  0.2146 -0.9066
 8050TIP3    H224115   3.165   1.027   2.865  0.3279  0.3660  0.4133
 8051TIP3   OH224116   4.278   2.862   4.972 -0.2316  0.1253  0.3916
 8051TIP3    H124117   4.355   2.898   5.016  0.3959  0.4353 -0.9131
 8051TIP3    H224118   4.247   2.933   4.917 -0.3570 -0.5793 -0.4627
 8052TIP3   OH224119   4.967   4.755   3.311 -0.6989  0.4905  0.4435
 8052TIP3    H124120   4.945   4.840   3.273  0.7520  1.4436  1.6293
 8052TIP3    H224121   4.927   4.756   3.398  1.0478  0.8843  1.2979
 8053TIP3   OH224122   4.967   3.098   5.135 -0.3166 -0.1379  0.0780
 8053TIP3    H124123   4.970   3.149   5.054 -0.8849  0.0310  0.1609
 8053TIP3    H224124   4.994   3.160   5.203 -0.2431 -0.1657  0.0742
 8054TIP3   OH224125   4.593   4.749   0.303  0.0610  0.0950  0.2166
 8054TIP3    H124126   4.574   4.748   0.397  0.2607  1.6349  0.2872
 8054TIP3    H224127   4.573   4.838   0.275 -1.0860 -0.6155 -1.4436
 8055TIP3   OH224128   6.945   5.449   2.054  0.2322  0.3831 -0.0422
 8055TIP3    H124129   6.936   5.544   2.058  1.3469  0.4906  0.2057
 8055TIP3    H224130   6.986   5.432   1.969  0.9498  0.2070  0.3356
 8056TIP3   OH224131   3.997   4.737   0.745 -0.1124 -0.3291 -0.6526
 8056TIP3    H124132   3.924   4.681   0.774  1.0500 -1.7837 -0.4088
 8056TIP3    H224133   3.963   4.782   0.668 -1.4929 -0.4583 -0.1490
 8057TIP3   OH224134   3.224   4.940   4.397  0.2182 -0.3374  0.2193
 8057TIP3    H124135   3.311   4.935   4.436  0.2223 -0.3835  0.2053
 8057TIP3    H224136   3.235   4.994   4.319  0.0561  0.3764  0.6884
 8058TIP3   OH224137   4.761   3.163   2.036  0.2573 -0.4335 -0.0354
 8058TIP3    H124138   4.816   3.090   2.065 -2.5083 -1.9089  2.0881
 8058TIP3    H224139   4.688   3.121   1.991  0.8735  1.4508 -3.0637
 8059TIP3   OH224140   5.835   1.641   3.841 -0.1568 -0.3355 -0.1511
 8059TIP3    H124141   5.751   1.678   3.814 -0.7253 -1.6584 -0.2448
 8059TIP3    H224142   5.901   1.700   3.803 -1.0251  0.8550  0.1269
 8060TIP3   OH224143   0.375   6.342   1.748  0.0109  0.0001  0.1513
 8060TIP3    H124144   0.450   6.325   1.805 -2.2068 -2.8169  2.5769
 8060TIP3    H224145   0.301   6.353   1.808 -1.6967  2.0329 -2.1268
 8061TIP3   OH224146   4.024   5.278   0.807  0.1690  0.2133 -0.2897
 8061TIP3    H124147   3.952   5.241   0.755 -0.4139 -0.6734  1.0938
 8061TIP3    H224148   3.984   5.302   0.890  1.8100 -2.3244  1.3823
 8062TIP3   OH224149   5.034   3.809   4.707 -0.0392  0.7758 -0.1609
 8062TIP3    H124150   5.043   3.863   4.629  0.4846  0.1873 -0.5170
 8062TIP3    H224151   5.095   3.737   4.694 -0.8048  0.0298  0.2501
 8063TIP3   OH224152   3.272   4.517   5.817  0.1704  0.2895 -0.1920
 8063TIP3    H124153   3.319   4.501   5.736 -0.7159 -1.6296 -0.3818
 8063TIP3    H224154   3.181   4.497   5.797 -0.7588  3.4358  0.2981
 8064TIP3   OH224155   3.970   6.374   5.338  0.1379 -0.3324  0.7887
 8064TIP3    H124156   3.906   6.444   5.325  1.4577  0.5375 -1.4118
 8064TIP3    H224157   3.945   6.306   5.275 -0.0609 -1.0869  1.6555
 8065TIP3   OH224158   2.591   4.525   3.646  0.0296 -0.0428  0.3024
 8065TIP3    H124159   2.675   4.485   3.672  0.6759  0.9908 -0.1335
 8065TIP3    H224160   2.597   4.534   3.551 -0.4303  0.3755  0.3098
 8066TIP3   OH224161   6.688   3.689   1.283  0.4771 -0.2585  0.3900
 8066TIP3    H124162   6.645   3.694   1.197 -1.7408  1.5556  1.5025
 8066TIP3    H224163   6.696   3.595   1.300 -3.9564 -0.8381  0.4134
 8067TIP3   OH224164   2.205   3.657   1.003 -0.6673 -0.2204  0.2435
 8067TIP3    H124165   2.146   3.596   1.047 -0.4350  0.1593  1.0920
 8067TIP3    H224166   2.292   3.623   1.022 -0.5246  0.5181  0.9368
 8068TIP3   OH224167   6.298   2.130   0.501  0.3318 -0.0267 -0.2055
 8068TIP3    H124168   6.347   2.107   0.422 -0.2544  2.3308 -1.3508
 8068TIP3    H224169   6.343   2.085   0.572  0.8788 -2.2516 -1.8563
 8069TIP3   OH224170   0.540   2.431   3.991  0.1039 -0.1133 -0.6057
 8069TIP3    H124171   0.476   2.449   4.060  0.4693 -1.2617  0.0635
 8069TIP3    H224172   0.616   2.485   4.015  0.1302 -0.3048 -0.2490
 8070TIP3   OH224173   2.470   2.478   3.792  0.2511 -0.3395 -0.1027
 8070TIP3    H124174   2.487   2.389   3.762 -0.2351 -0.2010 -0.8345
 8070TIP3    H224175   2.554   2.509   3.826  0.1737 -1.4280  1.1365
 8071TIP3   OH224176   2.948   6.168   0.243  0.4976  0.9459  0.4536
 8071TIP3    H124177   2.913   6.097   0.190  0.3004  2.2022 -1.1632
 8071TIP3    H224178   2.927   6.143   0.333 -0.0910 -0.7300 -0.1098
 8072TIP3   OH224179   4.141   5.514   2.172 -0.1808 -0.8583  0.1675
 8072TIP3    H124180   4.188   5.564   2.238  0.8834 -0.5954 -0.7489
 8072TIP3    H224181   4.051   5.545   2.176 -0.1692 -0.9727  1.5946
 8073TIP3   OH224182   6.296   0.320   4.783  0.8632 -0.5029 -0.3123
 8073TIP3    H124183   6.259   0.292   4.867  0.2690  1.1658  0.0073
 8073TIP3    H224184   6.360   0.387   4.805 -0.6586  1.3713 -1.2423
 8074TIP3   OH224185   0.045   1.514   5.098  0.3714 -0.3444  0.0347
 8074TIP3    H124186   0.060   1.555   5.183  1.0957 -0.7161  0.0958
 8074TIP3    H224187   0.021   1.423   5.120 -1.2594  0.0235 -0.0943
 8075TIP3   OH224188   7.153   4.981   3.698  0.2289 -0.1272 -0.0374
 8075TIP3    H124189   7.091   4.911   3.678  0.9557 -1.6541  2.5157
 8075TIP3    H224190   7.100   5.058   3.712 -0.9603 -1.0093  0.4698
 8076TIP3   OH224191   2.147   3.917   3.818 -0.1477 -0.4714 -0.1719
 8076TIP3    H124192   2.180   4.003   3.792 -1.5930  0.4545  0.9163
 8076TIP3    H224193   2.116   3.878   3.736  0.7650 -0.0959 -0.7172
 8077TIP3   OH224194   2.503   3.914   0.916  0.3078  0.1136  0.5939
 8077TIP3    H124195   2.444   3.858   0.966 -0.5202 -0.4401 -0.9633
 8077TIP3    H224196   2.476   3.904   0.825  2.1166  0.6700 -0.0624
 8078TIP3   OH224197   6.762   1.914   1.256 -0.3462  0.5066 -0.0963
 8078TIP3    H124198   6.696   1.851   1.285 -0.2920  0.7447  0.5638
 8078TIP3    H224199   6.788   1.883   1.170  0.5424 -1.0856  0.6988
 8079TIP3   OH224200   4.364   2.009   1.606  0.5496 -0.2746 -0.0209
 8079TIP3    H124201   4.431   1.985   1.542  0.6074  1.4257 -0.6458
 8079TIP3    H224202   4.361   1.934   1.666  2.2858 -0.8284 -0.5564
 8080TIP3   OH224203   0.841   0.503   3.034 -0.2019 -0.3102  0.2286
 8080TIP3    H124204   0.795   0.432   2.989  1.4139 -0.9601 -0.4813
 8080TIP3    H224205   0.852   0.471   3.123  2.6086 -2.1162 -0.6353
 8081TIP3   OH224206   6.880   0.425   1.669 -0.3085 -0.2294  0.1805
 8081TIP3    H124207   6.860   0.386   1.754  0.4259 -1.1352 -0.0370
 8081TIP3    H224208   6.930   0.504   1.690 -0.9272  0.0570  0.6063
 8082TIP3   OH224209   0.203   6.684   1.881 -0.1624  0.4261  0.3098
 8082TIP3    H124210   0.191   6.708   1.973  1.5214  0.1668  0.6323
 8082TIP3    H224211   0.187   6.765   1.833 -2.9470  0.1531  0.6026
 8083TIP3   OH224212   4.220   4.055   3.861  0.2296 -0.2681 -0.1126
 8083TIP3    H124213   4.202   3.991   3.792  2.1310  0.2570 -1.1739
 8083TIP3    H224214   4.164   4.130   3.839  0.2911 -0.3804 -0.6774
 8084TIP3   OH224215   0.827   4.743   2.684 -0.7034 -0.2687 -0.0892
 8084TIP3    H124216   0.783   4.803   2.623  0.5282  0.5253 -0.2302
 8084TIP3    H224217   0.816   4.783   2.770 -0.6890 -0.3263 -0.0603
 8085TIP3   OH224218   5.431   5.685   1.735 -0.3661 -0.5668  0.3722
 8085TIP3    H124219   5.349   5.639   1.717  0.0471 -0.8852 -0.7368
 8085TIP3    H224220   5.404   5.767   1.776 -1.1785 -1.1686  1.0619
 8086TIP3   OH224221   3.276   4.317   3.840  0.5002  0.0556 -0.3763
 8086TIP3    H124222   3.366   4.346   3.825  0.5989  0.5913  1.0550
 8086TIP3    H224223   3.221   4.388   3.807  0.5295 -0.7411 -2.2580
 8087TIP3   OH224224   2.940   1.893   3.843 -0.3709  0.4507 -0.1429
 8087TIP3    H124225   2.891   1.918   3.764 -0.9450 -0.0851  0.0357
 8087TIP3    H224226   2.987   1.972   3.867  0.8849  0.2621 -1.7946
 8088TIP3   OH224227   4.443   1.017   4.146  0.1830 -0.6791 -0.8242
 8088TIP3    H124228   4.439   1.007   4.241  2.7668  0.6268 -0.5036
 8088TIP3    H224229   4.410   0.933   4.113  0.2816 -1.6127  1.2453
 8089TIP3   OH224230   5.070   2.974   5.464 -0.2167 -0.1071  0.7039
 8089TIP3    H124231   5.047   2.886   5.493  0.6382 -0.0786  1.5026
 8089TIP3    H224232   5.001   3.030   5.499 -1.3768 -0.5625 -0.7263
 8090TIP3   OH224233   2.787   4.943   2.722 -0.3529  0.1460 -0.3136
 8090TIP3    H124234   2.805   4.888   2.645  1.5452  0.5546 -0.2171
 8090TIP3    H224235   2.772   5.031   2.686  1.3821  0.5140 -0.2038
 8091TIP3   OH224236   0.928   6.415   1.076 -0.1283 -0.1250 -0.2836
 8091TIP3    H124237   0.907   6.426   0.984 -0.1732 -0.8650 -0.3724
 8091TIP3    H224238   1.019   6.445   1.085  0.2948 -1.1955 -0.8224
 8092TIP3   OH224239   4.512   0.509   1.572  0.1103 -0.3807  0.2921
 8092TIP3    H124240   4.552   0.425   1.548  0.3627 -0.1022 -0.2841
 8092TIP3    H224241   4.550   0.572   1.511  0.1916  0.2212  0.9416
 8093TIP3   OH224242   3.878   0.744   5.751  0.3836 -0.7668  0.1952
 8093TIP3    H124243   3.848   0.671   5.697 -3.3558  1.3856 -0.9451
 8093TIP3    H224244   3.861   0.716   5.841 -3.9084 -0.3889 -0.3199
 8094TIP3   OH224245   6.653   4.902   2.417 -0.2771 -0.4245 -0.0020
 8094TIP3    H124246   6.717   4.915   2.347  0.1806 -1.6124  0.1779
 8094TIP3    H224247   6.609   4.987   2.425  1.1772  0.3810 -0.2216
 8095TIP3   OH224248   5.130   3.612   0.575  0.1110  0.3904 -1.1166
 8095TIP3    H124249   5.188   3.558   0.629 -0.3822  1.6655  0.8298
 8095TIP3    H224250   5.089   3.551   0.514  1.0772 -1.0711 -0.3610
 8096TIP3   OH224251   0.041   6.556   3.174 -0.3580  0.2300  0.3433
 8096TIP3    H124252   0.034   6.603   3.257 -0.1724  1.2504 -0.1994
 8096TIP3    H224253  -0.049   6.540   3.147 -0.4283  0.5190  0.4049
 8097TIP3   OH224254   3.674   6.075   5.018 -0.0848 -0.4303  0.0894
 8097TIP3    H124255   3.601   6.095   5.076  0.2482  0.9406  0.0607
 8097TIP3    H224256   3.639   6.086   4.930  0.0118 -0.3267  0.0641
 8098TIP3   OH224257   3.760   2.583   1.666 -0.1279 -0.3277 -0.3938
 8098TIP3    H124258   3.772   2.572   1.761 -1.3743  0.2644 -0.1394
 8098TIP3    H224259   3.758   2.677   1.653 -2.0002 -0.3613 -0.6744
 8099TIP3   OH224260   2.542   5.438   5.749  0.5122 -0.0648 -0.4082
 8099TIP3    H124261   2.490   5.357   5.749 -0.3773  0.4866 -0.0817
 8099TIP3    H224262   2.517   5.482   5.667  1.3145 -0.3070 -0.7946
 8100TIP3   OH224263   6.223   1.593   2.298 -0.0953 -0.1696  0.0659
 8100TIP3    H124264   6.251   1.666   2.354  2.4884 -0.3394 -0.8810
 8100TIP3    H224265   6.296   1.531   2.300 -0.9585 -1.3200 -1.5447
 8101TIP3   OH224266   4.666   1.492   4.875 -0.0781  0.1160  0.1813
 8101TIP3    H124267   4.701   1.451   4.954  0.4463 -1.8783 -1.0199
 8101TIP3    H224268   4.704   1.442   4.803 -2.3443  0.3754 -1.2937
 8102TIP3   OH224269   0.046   6.373   1.382 -0.5332  0.2515  0.0252
 8102TIP3    H124270   0.131   6.329   1.383 -0.8310 -0.3369 -0.0752
 8102TIP3    H224271   0.007   6.353   1.466 -1.1631 -0.6653 -0.4763
 8103TIP3   OH224272   2.593   5.052   0.258  1.0338 -0.1942 -0.4832
 8103TIP3    H124273   2.523   5.031   0.196  1.4350  0.9529 -1.3679
 8103TIP3    H224274   2.576   5.143   0.283 -0.1658 -1.1492  2.5383
 8104TIP3   OH224275   1.277   5.760   4.905 -0.3198 -1.1423 -0.2805
 8104TIP3    H124276   1.239   5.672   4.901  0.8708 -1.7322  0.6194
 8104TIP3    H224277   1.263   5.796   4.818 -1.8348 -1.7795 -0.3419
 8105TIP3   OH224278   4.455   0.178   4.003 -0.0562  0.2345 -0.0568
 8105TIP3    H124279   4.410   0.171   4.087 -1.1259 -1.2137 -0.6996
 8105TIP3    H224280   4.515   0.252   4.014  0.1108 -0.1445  2.0942
 8106TIP3   OH224281   5.491   0.218   2.697  0.4883 -0.3171  0.0412
 8106TIP3    H124282   5.500   0.200   2.790 -0.4319 -1.3776 -0.0655
 8106TIP3    H224283   5.437   0.147   2.663 -1.4178  1.4587 -0.8166
 8107TIP3   OH224284   6.731   2.176   1.613 -0.3561  0.1492 -0.2961
 8107TIP3    H124285   6.786   2.206   1.686  0.1058 -1.7606  0.1809
 8107TIP3    H224286   6.766   2.221   1.537  1.3986 -0.4308  0.1279
 8108TIP3   OH224287   6.812   3.909   5.350  0.1027 -0.2991  0.0318
 8108TIP3    H124288   6.794   3.854   5.273  1.3389 -0.0189 -0.4796
 8108TIP3    H224289   6.850   3.989   5.314 -0.7391  0.4889  0.8472
 8109TIP3   OH224290   7.072   0.491   5.712 -0.3766  0.0598  0.2276
 8109TIP3    H124291   7.043   0.557   5.649 -2.5191 -2.4122 -1.6345
 8109TIP3    H224292   7.155   0.524   5.745 -0.6262  2.9546 -1.6328
 8110TIP3   OH224293   4.163   5.301   4.461 -0.6205  0.0096 -0.2268
 8110TIP3    H124294   4.157   5.382   4.513  0.1916  0.5441 -0.9294
 8110TIP3    H224295   4.257   5.292   4.444 -0.8031 -0.5992 -0.9219
 8111TIP3   OH224296   5.295   3.989   4.584 -0.2476 -0.7701  0.2006
 8111TIP3    H124297   5.296   3.920   4.650  0.5138 -0.7370  0.2245
 8111TIP3    H224298   5.364   4.050   4.611 -1.8436  0.7791  0.9918
 8112TIP3   OH224299   4.336   0.672   5.255  0.3269 -0.2099 -0.1433
 8112TIP3    H124300   4.342   0.586   5.213  0.8001  0.6431 -1.9502
 8112TIP3    H224301   4.320   0.733   5.182 -1.7140  1.0641  1.2598
 8113TIP3   OH224302   1.267   0.721   3.681  0.1498  0.2084 -0.2582
 8113TIP3    H124303   1.285   0.747   3.591  1.4848 -0.0946 -0.1001
 8113TIP3    H224304   1.289   0.628   3.684  0.8473  0.3935  0.5651
 8114TIP3   OH224305   3.338   4.680   0.275  0.4026  0.0997 -0.5134
 8114TIP3    H124306   3.333   4.752   0.337 -1.3337 -0.3174 -0.1136
 8114TIP3    H224307   3.410   4.626   0.306 -0.1881  0.1071  0.9294
 8115TIP3   OH224308   6.240   3.402   4.153 -0.0296 -0.1323  0.3646
 8115TIP3    H124309   6.244   3.307   4.166 -0.1905 -0.4632 -1.7394
 8115TIP3    H224310   6.210   3.413   4.063  1.2514  1.9125  0.1311
 8116TIP3   OH224311   5.036   5.021   0.151  0.4717  0.6634  0.1155
 8116TIP3    H124312   4.994   5.042   0.068 -1.9297  0.8273  1.2927
 8116TIP3    H224313   5.002   4.934   0.174  1.1835  0.5752  0.9005
 8117TIP3   OH224314   1.814   5.200   3.186  0.3833  0.6623  0.2938
 8117TIP3    H124315   1.835   5.135   3.254 -0.4778  1.4913  1.3930
 8117TIP3    H224316   1.815   5.150   3.104  0.7329 -0.5227  0.9928
 8118TIP3   OH224317   3.604   4.384   0.554  0.0140 -0.2270  0.0651
 8118TIP3    H124318   3.666   4.328   0.601 -0.7685  0.0736  1.4892
 8118TIP3    H224319   3.607   4.468   0.601 -0.3630  0.2778 -0.7844
 8119TIP3   OH224320   3.182   2.192   2.342  0.1638 -0.3483 -0.1418
 8119TIP3    H124321   3.271   2.155   2.341  0.6212  0.7148 -0.2056
 8119TIP3    H224322   3.176   2.236   2.427 -0.3759 -0.5853 -0.0578
 8120TIP3   OH224323   2.252   3.044   4.551 -0.2393 -0.0386 -0.6562
 8120TIP3    H124324   2.275   3.111   4.615  0.2778  0.1475 -1.0291
 8120TIP3    H224325   2.166   3.013   4.578 -0.6582  1.0589 -0.7162
 8121TIP3   OH224326   0.031   0.808   2.324 -0.7147  0.5253 -0.1839
 8121TIP3    H124327   0.045   0.716   2.302 -3.0314 -0.3492  1.5402
 8121TIP3    H224328   0.040   0.811   2.420 -1.0777  2.0143 -0.1711
 8122TIP3   OH224329   2.564   6.491   2.861 -0.2710 -0.3227 -0.0443
 8122TIP3    H124330   2.516   6.417   2.824 -0.3422 -1.8659  2.8585
 8122TIP3    H224331   2.496   6.558   2.877 -0.3877 -0.0285 -1.5852
 8123TIP3   OH224332   1.498   1.899   5.898 -0.4414 -0.7519 -0.1616
 8123TIP3    H124333   1.531   1.980   5.859 -0.2816 -1.2888 -1.1679
 8123TIP3    H224334   1.419   1.877   5.848 -2.5866  0.6221  2.3355
 8124TIP3   OH224335   6.648   4.406   3.303 -0.0885 -0.7804  0.1577
 8124TIP3    H124336   6.735   4.383   3.335  0.9279 -0.8457 -2.3623
 8124TIP3    H224337   6.637   4.497   3.328 -0.6100 -1.5475  3.0296
 8125TIP3   OH224338   0.500   4.989   5.582 -0.1007  0.1221  0.2580
 8125TIP3    H124339   0.484   5.054   5.514  0.4322  0.9995  0.9452
 8125TIP3    H224340   0.458   5.026   5.660  2.9813  1.3103  1.4911
 8126TIP3   OH224341   3.264   3.523   5.826 -0.0882  0.4721 -0.3447
 8126TIP3    H124342   3.344   3.501   5.778  0.1675  0.5883  0.0239
 8126TIP3    H224343   3.290   3.592   5.887 -0.6441  1.0549 -0.7508
 8127TIP3   OH224344   1.925   2.539   4.190  0.6468 -0.8016  0.0297
 8127TIP3    H124345   1.961   2.560   4.276  0.7168 -2.0950  0.3362
 8127TIP3    H224346   1.998   2.552   4.130  0.1070  1.9532 -0.1462
 8128TIP3   OH224347   6.156   6.418   4.761 -0.2737  0.0267  0.0804
 8128TIP3    H124348   6.225   6.354   4.741  1.9343  1.8213  1.5576
 8128TIP3    H224349   6.158   6.428   4.856 -2.2464  0.5790  0.1225
 8129TIP3   OH224350   6.087   1.844   5.716 -0.5092  0.5067  0.4647
 8129TIP3    H124351   6.001   1.801   5.711 -1.0293  1.0243  3.3407
 8129TIP3    H224352   6.150   1.775   5.696 -1.5169 -0.4240  0.4001
 8130TIP3   OH224353   1.821   4.097   1.467  0.7350  0.2508  0.1897
 8130TIP3    H124354   1.914   4.114   1.479  0.4314  2.0503  0.2834
 8130TIP3    H224355   1.817   4.035   1.393  1.9922  0.1093  0.2281
 8131TIP3   OH224356   4.261   6.477   4.789 -0.0098 -0.3407 -0.2820
 8131TIP3    H124357   4.299   6.398   4.752 -1.3932 -0.8143 -0.7498
 8131TIP3    H224358   4.251   6.458   4.882 -1.3426 -1.1694 -0.5659
 8132TIP3   OH224359   0.898   0.231   5.444  0.0965 -0.3658  0.3969
 8132TIP3    H124360   0.825   0.234   5.382  1.8245  4.3012 -1.8508
 8132TIP3    H224361   0.867   0.280   5.520  0.2163 -0.0973  0.2742
 8133TIP3   OH224362   5.712   2.686   1.874  0.2037 -0.3571 -0.0893
 8133TIP3    H124363   5.674   2.686   1.961  1.5397 -1.4494  0.5273
 8133TIP3    H224364   5.671   2.612   1.829  0.8323 -0.9060  0.2312
 8134TIP3   OH224365   4.661   2.176   0.692 -0.0391  0.0953 -0.3220
 8134TIP3    H124366   4.659   2.229   0.613 -1.0104 -0.6490 -0.8193
 8134TIP3    H224367   4.746   2.132   0.690 -0.8950 -1.6395 -2.1448
 8135TIP3   OH224368   6.463   1.281   0.221 -0.2600 -0.2951  0.3009
 8135TIP3    H124369   6.534   1.254   0.280  1.4408 -0.0933 -1.5265
 8135TIP3    H224370   6.504   1.344   0.162 -2.8772  2.5183  1.2761
 8136TIP3   OH224371   3.151   2.541   1.042 -0.4523 -0.1168  0.6292
 8136TIP3    H124372   3.152   2.451   1.011  1.1146 -0.3371  1.2416
 8136TIP3    H224373   3.213   2.586   0.985  1.4015 -0.2176  2.4437
 8137TIP3   OH224374   6.545   1.119   2.026  0.4557 -0.0127 -0.2829
 8137TIP3    H124375   6.489   1.099   2.101  0.1748  0.5206 -0.3469
 8137TIP3    H224376   6.508   1.199   1.989  0.7326 -0.1409 -0.8524
 8138TIP3   OH224377   6.826   0.991   1.078  0.3118 -0.3856 -0.2552
 8138TIP3    H124378   6.885   0.966   1.149 -0.1795  2.0399  1.1238
 8138TIP3    H224379   6.788   1.074   1.106 -1.6596 -0.4676 -2.3626
 8139TIP3   OH224380   4.832   3.679   1.276  0.6097 -0.5398 -0.3855
 8139TIP3    H124381   4.809   3.593   1.241 -0.0744 -0.8963  0.9042
 8139TIP3    H224382   4.777   3.741   1.227  1.0391 -0.8216 -1.2527
 8140TIP3   OH224383   4.923   5.054   2.590  0.1791 -0.5809 -0.3534
 8140TIP3    H124384   4.907   5.045   2.496 -1.2422 -2.5262  0.0309
 8140TIP3    H224385   4.887   5.140   2.613 -0.1117 -0.4061 -1.4346
 8141TIP3   OH224386   5.496   2.565   5.432  0.1267  0.4557  0.5249
 8141TIP3    H124387   5.447   2.528   5.506  2.4735 -1.7517  1.1288
 8141TIP3    H224388   5.487   2.501   5.362  0.8909  0.7382  0.1480
 8142TIP3   OH224389   0.244   6.304   1.968  0.0937 -0.5587  0.7510
 8142TIP3    H124390   0.227   6.371   2.034  1.7976  0.2227  0.4516
 8142TIP3    H224391   0.157   6.276   1.939 -0.6632  1.0113  1.3928
 8143TIP3   OH224392   4.217   0.952   4.656  0.0759  0.2377 -0.1071
 8143TIP3    H124393   4.132   0.930   4.618  0.0263 -0.2298  0.2600
 8143TIP3    H224394   4.244   1.032   4.611 -0.5643  0.3961 -0.2147
 8144TIP3   OH224395   4.267   3.475   3.125  0.5523  0.2179 -0.4221
 8144TIP3    H124396   4.273   3.410   3.055  2.5101 -0.1916  0.0682
 8144TIP3    H224397   4.258   3.423   3.205  0.1683  0.6242 -0.1992
 8145TIP3   OH224398   7.155   6.372   5.370 -0.0193 -0.6987  0.1352
 8145TIP3    H124399   7.191   6.460   5.382  1.8195 -1.2386 -1.0034
 8145TIP3    H224400   7.125   6.370   5.279 -0.5205 -1.1108  0.3016
 8146TIP3   OH224401   6.351   4.154   2.332  0.4475  0.3303 -0.0484
 8146TIP3    H124402   6.402   4.102   2.270  0.9182 -2.3116  2.3387
 8146TIP3    H224403   6.416   4.199   2.386  0.2077 -0.5141  0.9753
 8147TIP3   OH224404   3.882   4.310   2.463 -0.2183  0.2770  0.2842
 8147TIP3    H124405   3.839   4.245   2.407 -0.4095 -0.3073  1.0844
 8147TIP3    H224406   3.897   4.385   2.406 -1.1832  0.0190 -0.3340
 8148TIP3   OH224407   6.082   3.165   4.473  0.2797  0.1282  0.0584
 8148TIP3    H124408   6.173   3.156   4.445 -0.1261 -1.7042 -0.8928
 8148TIP3    H224409   6.056   3.076   4.499 -0.2843  1.1725  3.6156
 8149TIP3   OH224410   5.872   3.634   5.088  0.3713 -0.4894 -0.3426
 8149TIP3    H124411   5.880   3.540   5.105  1.4379 -0.9247 -2.8720
 8149TIP3    H224412   5.796   3.642   5.030 -0.4232  0.3854  0.7770
 8150TIP3   OH224413   1.339   5.017   1.097  0.4133  0.7637 -0.1639
 8150TIP3    H124414   1.274   5.042   1.031  0.4606 -1.3837 -1.0899
 8150TIP3    H224415   1.397   5.093   1.103 -1.9511  2.6454  0.4856
 8151TIP3   OH224416   3.768   5.651   4.258  0.0695 -0.0627  0.6891
 8151TIP3    H124417   3.820   5.571   4.258  0.4988  0.1823  2.4153
 8151TIP3    H224418   3.710   5.643   4.333  0.2818  1.3191  1.0409
 8152TIP3   OH224419   2.267   0.360   1.532 -1.4176 -0.5811 -0.4026
 8152TIP3    H124420   2.317   0.352   1.451 -2.0337  2.2921 -1.1582
 8152TIP3    H224421   2.332   0.368   1.601 -0.7992  1.2184 -1.1520
 8153TIP3   OH224422   0.978   2.642   5.249  0.8014  0.1543 -0.1786
 8153TIP3    H124423   1.028   2.621   5.327 -0.5395  0.5150  0.8246
 8153TIP3    H224424   0.995   2.735   5.233  0.2348  0.3621  0.3603
 8154TIP3   OH224425   5.731   5.974   5.813  0.2952 -0.2566  0.6392
 8154TIP3    H124426   5.649   6.006   5.775  0.2342 -2.2235 -1.0909
 8154TIP3    H224427   5.755   6.040   5.877 -1.5921  1.3898 -0.2339
 8155TIP3   OH224428   3.107   2.256   5.742 -0.3102 -0.1604  0.3069
 8155TIP3    H124429   3.147   2.228   5.659 -0.5316 -0.3638  0.2673
 8155TIP3    H224430   3.014   2.265   5.722  0.0290  3.0350 -0.3515
 8156TIP3   OH224431   6.875   3.918   1.307  0.6377 -0.4934  0.4269
 8156TIP3    H124432   6.844   4.008   1.311  1.8054 -0.1096  1.3534
 8156TIP3    H224433   6.796   3.866   1.291 -0.0963  0.6499  0.2435
 8157TIP3   OH224434   6.667   3.702   1.757  0.1358  0.5553 -0.5768
 8157TIP3    H124435   6.759   3.678   1.750  0.0490 -0.3359  0.8843
 8157TIP3    H224436   6.659   3.740   1.844 -1.1879 -1.0399  0.0532
 8158TIP3   OH224437   3.620   2.450   1.102  0.3053  0.1517 -0.1050
 8158TIP3    H124438   3.668   2.405   1.171 -0.0688  0.2168  0.1951
 8158TIP3    H224439   3.540   2.481   1.143  1.0552  2.1098  0.0110
 8159TIP3   OH224440   0.484   5.360   0.880 -0.0003 -0.2306  0.1348
 8159TIP3    H124441   0.577   5.374   0.858  0.4500 -1.1048  1.3867
 8159TIP3    H224442   0.452   5.448   0.901  0.6088  0.0468 -0.0546
 8160TIP3   OH224443   2.786   4.455   2.712  0.3662  0.4856  0.3904
 8160TIP3    H124444   2.806   4.362   2.697 -0.4550 -0.3722  3.7790
 8160TIP3    H224445   2.691   4.461   2.702  0.4775  1.1020 -0.3443
 8161TIP3   OH224446   0.274   3.338   3.331  0.2457 -0.3440  0.3235
 8161TIP3    H124447   0.289   3.361   3.239 -0.8081  0.5334  0.3566
 8161TIP3    H224448   0.193   3.286   3.329  1.5191 -2.4534  0.4882
 8162TIP3   OH224449   0.270   1.310   0.838 -0.4327  0.1508  0.4072
 8162TIP3    H124450   0.252   1.282   0.927  0.2773 -0.1193  0.4731
 8162TIP3    H224451   0.273   1.228   0.787  1.0302  0.1248  0.4886
 8163TIP3   OH224452   5.230   4.825   4.613  0.9894  0.0305 -0.0899
 8163TIP3    H124453   5.264   4.886   4.678  1.3264 -1.6727  1.4352
 8163TIP3    H224454   5.308   4.778   4.582  0.6534 -0.1533 -0.6587
 8164TIP3   OH224455   4.780   2.615   4.177  0.5813 -0.0443 -0.2206
 8164TIP3    H124456   4.872   2.592   4.164  0.5950 -0.2295  0.1758
 8164TIP3    H224457   4.769   2.613   4.272  0.5686  1.5537 -0.1540
 8165TIP3   OH224458   0.569   0.127   2.445 -0.4795 -0.2278  0.3903
 8165TIP3    H124459   0.513   0.185   2.497  0.6143  4.5845 -3.0685
 8165TIP3    H224460   0.507   0.071   2.397 -1.9972  1.2208  0.5688
 8166TIP3   OH224461   6.401   6.417   3.824 -0.2137  0.5787  0.1412
 8166TIP3    H124462   6.379   6.511   3.823 -0.9578  0.4079 -0.6271
 8166TIP3    H224463   6.441   6.401   3.739 -0.3298  0.1460  0.1680
 8167TIP3   OH224464   6.385   0.978   3.696  0.2681 -0.2912 -0.2464
 8167TIP3    H124465   6.304   0.959   3.648  0.2134 -0.1611 -0.2082
 8167TIP3    H224466   6.441   1.023   3.633  0.5320 -0.8752 -0.4383
 8168TIP3   OH224467   6.122   2.723   0.479  0.3859  0.3042  0.3343
 8168TIP3    H124468   6.210   2.698   0.505  0.4039  1.1405  1.1640
 8168TIP3    H224469   6.068   2.647   0.500  0.4547  0.8267  2.6966
 8169TIP3   OH224470   1.776   3.994   2.422  0.1595 -0.2091  0.3529
 8169TIP3    H124471   1.781   4.090   2.425  1.1896 -0.2245 -0.3485
 8169TIP3    H224472   1.816   3.966   2.504  0.5281 -0.0524  0.2287
 8170TIP3   OH224473   3.102   4.317   1.432 -0.3142 -0.0979  0.1288
 8170TIP3    H124474   3.101   4.388   1.496 -0.1420 -0.2418  0.2931
 8170TIP3    H224475   3.131   4.240   1.482  0.7263 -0.0155 -0.3226
 8171TIP3   OH224476   2.057   1.480   1.429  0.2628 -0.2324  0.3045
 8171TIP3    H124477   2.070   1.484   1.334 -1.4666  0.0774  0.0442
 8171TIP3    H224478   2.062   1.571   1.458  2.4745 -0.4743  0.7979
 8172TIP3   OH224479   0.212   6.568   3.992  0.6785 -0.4430  0.2113
 8172TIP3    H124480   0.198   6.483   3.950  1.5438 -0.9041  0.8249
 8172TIP3    H224481   0.188   6.554   4.083  2.1919 -0.4545  0.6405
 8173TIP3   OH224482   6.312   0.496   0.167  0.3254  0.8960  0.1722
 8173TIP3    H124483   6.351   0.428   0.113  2.5144  2.4419 -0.3498
 8173TIP3    H224484   6.320   0.463   0.256 -2.6701 -1.3614 -0.2397
 8174TIP3   OH224485   3.045   4.634   1.799  0.0808 -0.1410 -0.5295
 8174TIP3    H124486   3.051   4.626   1.894  0.6385  0.3766 -0.5166
 8174TIP3    H224487   2.978   4.702   1.785  0.9902  0.8026 -0.4611
 8175TIP3   OH224488   6.502   3.996   0.212 -0.3479 -0.5242  0.4038
 8175TIP3    H124489   6.480   4.075   0.262  1.1213  0.0174  0.2623
 8175TIP3    H224490   6.468   3.924   0.264 -3.5190  0.2355 -0.4168
 8176TIP3   OH224491   1.248   3.461   4.453 -0.0716  0.0192 -0.1469
 8176TIP3    H124492   1.259   3.372   4.486  1.6274  0.1351 -0.3241
 8176TIP3    H224493   1.263   3.454   4.358  0.6929  0.5800 -0.0757
 8177TIP3   OH224494   1.130   2.852   5.649 -0.1788  0.0805 -0.1401
 8177TIP3    H124495   1.065   2.819   5.712  1.9341 -1.7965  1.2279
 8177TIP3    H224496   1.200   2.786   5.651  0.5020  0.4992 -3.7162
 8178TIP3   OH224497   3.544   2.129   0.300  0.6510  0.0503 -0.1919
 8178TIP3    H124498   3.513   2.128   0.390  1.8631 -1.2539  0.2564
 8178TIP3    H224499   3.551   2.222   0.278 -1.8906  0.4169  0.2080
 8179TIP3   OH224500   5.088   4.752   1.540 -0.2869 -0.7025 -0.0987
 8179TIP3    H124501   5.000   4.748   1.503 -0.5369  0.6618  0.3037
 8179TIP3    H224502   5.141   4.696   1.483 -1.6692 -2.7425  0.4709
 8180TIP3   OH224503   7.009   0.330   5.303 -0.4635  0.2890 -0.0598
 8180TIP3    H124504   7.038   0.419   5.286  0.9695 -0.0842  0.2719
 8180TIP3    H224505   7.062   0.301   5.378 -1.9690 -0.3267  0.8048
 8181TIP3   OH224506   0.236   4.065   4.992 -0.5305  0.7733  0.2506
 8181TIP3    H124507   0.216   3.973   4.975 -0.0165  0.6368  0.3645
 8181TIP3    H224508   0.152   4.110   4.981 -0.8985  0.2184  0.7456
 8182TIP3   OH224509   6.409   5.076   4.479 -0.1710 -0.2932 -0.0639
 8182TIP3    H124510   6.353   5.154   4.479 -0.4370 -0.4505 -1.6906
 8182TIP3    H224511   6.352   5.006   4.511 -0.2136 -0.0261  0.4663
 8183TIP3   OH224512   1.709   0.375   5.179 -0.0849 -0.0392 -0.5041
 8183TIP3    H124513   1.702   0.448   5.240  0.0178 -2.2002  2.2830
 8183TIP3    H224514   1.627   0.377   5.130  0.0040  2.0162 -0.6573
 8184TIP3   OH224515   4.974   0.826   4.110 -0.5002  0.0219 -0.0243
 8184TIP3    H124516   5.068   0.817   4.127 -0.3217 -0.2199 -1.0731
 8184TIP3    H224517   4.936   0.847   4.196  0.4661 -0.1793  0.4673
 8185TIP3   OH224518   0.889   2.099   2.945  0.9624  0.7782 -0.0703
 8185TIP3    H124519   0.815   2.157   2.925  0.5883  0.6972  1.0097
 8185TIP3    H224520   0.937   2.092   2.862 -0.7586  0.1016 -1.0676
 8186TIP3   OH224521   4.968   3.190   4.865 -0.3981 -0.1751 -0.3312
 8186TIP3    H124522   4.925   3.223   4.786 -0.2685 -0.3366 -0.4709
 8186TIP3    H224523   5.010   3.109   4.837 -1.9733 -1.2758  0.3520
 8187TIP3   OH224524   0.482   1.876   3.649  0.0996  0.4795  0.6927
 8187TIP3    H124525   0.395   1.874   3.609  0.8500  0.8000 -1.0452
 8187TIP3    H224526   0.480   1.806   3.714 -1.0585 -0.3370 -0.1778
 8188TIP3   OH224527   3.877   0.395   3.243  0.1039  0.2795  0.2631
 8188TIP3    H124528   3.908   0.467   3.297  0.9619 -0.8735  1.3801
 8188TIP3    H224529   3.781   0.401   3.247  0.1632  0.9116  0.9789
 8189TIP3   OH224530   1.351   4.370   0.195 -0.3705 -0.2484  0.2282
 8189TIP3    H124531   1.358   4.279   0.225  0.3520  0.8833  4.1709
 8189TIP3    H224532   1.412   4.376   0.122  1.1274 -2.4991  1.1605
 8190TIP3   OH224533   4.001   2.429   4.878  0.3229  0.2298  0.2040
 8190TIP3    H124534   3.978   2.517   4.905  0.0231  0.0379  0.5840
 8190TIP3    H224535   3.920   2.378   4.888  0.2033  0.1532 -1.0716
 8191TIP3   OH224536   1.344   3.467   2.180  0.0875  0.1680  0.5188
 8191TIP3    H124537   1.352   3.549   2.131 -0.5877  0.1876  0.4306
 8191TIP3    H224538   1.253   3.465   2.210 -0.5711 -1.5948 -1.3698
 8192TIP3   OH224539   0.422   3.223   3.914 -0.5693 -0.3108 -0.2085
 8192TIP3    H124540   0.466   3.151   3.960 -0.5648  0.3555  0.8854
 8192TIP3    H224541   0.383   3.275   3.985 -3.1728 -0.8893 -1.1089
 8193TIP3   OH224542   4.790   5.323   5.152 -0.3150 -0.4882  0.1292
 8193TIP3    H124543   4.794   5.241   5.102  3.7355  0.6699 -1.8806
 8193TIP3    H224544   4.812   5.298   5.241 -1.3506 -1.7964  0.0554
 8194TIP3   OH224545   2.301   1.200   0.154 -0.1698 -0.4145 -0.2176
 8194TIP3    H124546   2.356   1.167   0.225  1.2716  1.3674 -0.4544
 8194TIP3    H224547   2.282   1.122   0.101  1.0488 -1.2888  0.5740
 8195TIP3   OH224548   2.080   1.282   4.113  0.0903  0.0153  0.1576
 8195TIP3    H124549   2.035   1.347   4.059  1.4476 -0.0194 -1.0854
 8195TIP3    H224550   2.024   1.204   4.107 -0.4224  0.3984 -0.1562
 8196TIP3   OH224551   2.655   6.011   1.354  0.0145 -0.5279  0.3700
 8196TIP3    H124552   2.741   5.974   1.334 -0.0262 -0.1510 -0.5747
 8196TIP3    H224553   2.597   5.935   1.362  0.5854 -0.8397  1.9033
 8197TIP3   OH224554   3.384   6.252   1.488  0.6889  0.7438  0.1819
 8197TIP3    H124555   3.383   6.326   1.428 -0.6408 -0.2478 -1.0915
 8197TIP3    H224556   3.443   6.189   1.446 -0.3274  0.0031 -0.1730
 8198TIP3   OH224557   2.935   3.860   2.466 -0.5546  0.5398 -0.1118
 8198TIP3    H124558   2.854   3.843   2.516  0.4489  1.0030  1.7745
 8198TIP3    H224559   3.002   3.873   2.533  1.2520 -0.4583 -1.6281
 8199TIP3   OH224560   2.164   2.459   2.931 -0.3517  0.0359  0.0172
 8199TIP3    H124561   2.233   2.513   2.893  1.2589 -0.1412  2.4441
 8199TIP3    H224562   2.159   2.487   3.022 -1.8019 -1.6488  0.5156
 8200TIP3   OH224563   5.116   4.897   0.712 -0.0094 -0.2970  0.4281
 8200TIP3    H124564   5.198   4.901   0.663  0.0389  3.0987  0.5423
 8200TIP3    H224565   5.141   4.914   0.803 -0.6485 -1.3052  0.8102
 8201TIP3   OH224566   6.170   5.566   1.254 -0.2748 -0.6277  0.3981
 8201TIP3    H124567   6.089   5.594   1.212 -1.2099 -1.9462  1.2763
 8201TIP3    H224568   6.239   5.600   1.196 -1.3947  1.0690 -0.0323
 8202TIP3   OH224569   1.728   1.558   1.275 -0.2062 -0.3644  0.1271
 8202TIP3    H124570   1.641   1.595   1.263 -1.2028 -2.6120 -0.0868
 8202TIP3    H224571   1.771   1.570   1.190 -0.3998  0.5043  0.1475
 8203TIP3   OH224572   1.822   4.724   0.325 -0.1321  0.3093 -0.8335
 8203TIP3    H124573   1.825   4.730   0.229 -2.0270  0.1174 -0.9317
 8203TIP3    H224574   1.732   4.746   0.348 -0.0212 -0.8118  0.8283
 8204TIP3   OH224575   0.662   4.132   4.699 -0.0932  0.0734  0.3699
 8204TIP3    H124576   0.607   4.172   4.767 -1.1615  0.7056 -0.8355
 8204TIP3    H224577   0.631   4.042   4.692 -0.3975  0.1865  0.2842
 8205TIP3   OH224578   2.322   6.799   3.694  0.1295 -0.4423  0.3740
 8205TIP3    H124579   2.368   6.729   3.648  0.1494  0.5104 -1.1230
 8205TIP3    H224580   2.262   6.753   3.753 -0.5247 -1.7457 -1.2233
 8206TIP3   OH224581   6.005   0.171   1.947 -0.0908 -0.3131 -0.2741
 8206TIP3    H124582   6.067   0.172   2.020 -1.4207  0.8340  0.9220
 8206TIP3    H224583   6.047   0.223   1.879  0.1457  0.7738  0.6637
 8207TIP3   OH224584   2.691   4.285   1.943 -0.0009  0.0162 -0.0301
 8207TIP3    H124585   2.637   4.314   2.016 -0.1985  1.4137 -0.6927
 8207TIP3    H224586   2.695   4.190   1.952  2.8593  0.2562  3.8039
 8208TIP3   OH224587   0.636   1.066   5.591  0.0818 -0.0301  0.5425
 8208TIP3    H124588   0.724   1.029   5.597 -0.3483 -1.0542  0.7068
 8208TIP3    H224589   0.579   0.997   5.624 -0.6507  1.2026  1.9881
 8209TIP3   OH224590   4.656   4.610   2.330  0.1087  0.9098  0.0956
 8209TIP3    H124591   4.627   4.523   2.359  1.1652  0.7149  0.6129
 8209TIP3    H224592   4.634   4.612   2.237  1.2916 -0.4714 -0.2605
 8210TIP3   OH224593   5.193   2.279   1.027  0.0492  0.3147  0.0319
 8210TIP3    H124594   5.142   2.208   1.065  0.5021  0.4007  0.8307
 8210TIP3    H224595   5.167   2.356   1.078  1.4398  0.2384  0.9043
 8211TIP3   OH224596   6.825   2.274   5.787  0.1596  0.4843 -0.2499
 8211TIP3    H124597   6.737   2.297   5.758 -0.1212 -0.5588 -0.2654
 8211TIP3    H224598   6.818   2.183   5.815  1.5904 -0.1448 -1.8004
 8212TIP3   OH224599   6.246   4.084   0.124 -0.2883  0.0436 -0.2852
 8212TIP3    H124600   6.169   4.052   0.170 -0.2843  1.4911  0.7887
 8212TIP3    H224601   6.303   4.007   0.116 -0.1938 -0.2647  2.3447
 8213TIP3   OH224602   4.981   5.372   4.353 -0.0137 -0.7086 -0.7434
 8213TIP3    H124603   4.956   5.334   4.269 -0.2859 -0.3773 -0.8163
 8213TIP3    H224604   5.023   5.300   4.400 -0.9141 -1.2238 -0.7097
 8214TIP3   OH224605   0.435   2.720   1.036  0.4166  0.2071  0.0311
 8214TIP3    H124606   0.461   2.684   1.121  2.7539 -0.2285 -0.7726
 8214TIP3    H224607   0.350   2.680   1.017  0.5744 -0.8946  1.4806
 8215TIP3   OH224608   6.374   2.363   1.149 -0.0884  0.4159 -0.5374
 8215TIP3    H124609   6.316   2.376   1.074  1.1514  1.1503 -1.3939
 8215TIP3    H224610   6.387   2.268   1.153  0.2314  0.4052 -1.5568
 8216TIP3   OH224611   0.486   4.378   4.137  0.4118 -0.2578  0.2097
 8216TIP3    H124612   0.419   4.360   4.202  0.4849 -1.5479 -0.0423
 8216TIP3    H224613   0.564   4.333   4.170  1.0491  0.8715  0.2912
 8217TIP3   OH224614   0.807   1.410   2.274 -0.7965  0.0270 -0.5968
 8217TIP3    H124615   0.796   1.393   2.368  0.5715 -3.0995 -0.8837
 8217TIP3    H224616   0.897   1.382   2.255 -1.2874 -0.1228 -2.9550
 8218TIP3   OH224617   5.622   4.401   3.804  0.0445  0.1606 -0.3763
 8218TIP3    H124618   5.560   4.472   3.821  0.6928  0.6263  0.0859
 8218TIP3    H224619   5.673   4.431   3.729 -0.2358 -0.1944 -0.7158
 8219TIP3   OH224620   6.899   3.478   1.070  0.7673 -0.4368  0.4135
 8219TIP3    H124621   6.929   3.498   1.159  0.1287 -0.0554  0.5491
 8219TIP3    H224622   6.872   3.386   1.074 -3.2845  0.5704  1.8283
 8220TIP3   OH224623   2.571   3.856   2.296  0.2305 -0.2856  0.1367
 8220TIP3    H124624   2.501   3.922   2.301 -0.0317 -0.4905 -0.7227
 8220TIP3    H224625   2.567   3.812   2.381  0.4953  0.8720  0.7811
 8221TIP3   OH224626   2.900   2.811   2.803 -0.6863  0.2391 -0.8317
 8221TIP3    H124627   2.937   2.774   2.723  1.9457 -0.3906  0.5492
 8221TIP3    H224628   2.896   2.905   2.787 -1.0011  0.0480 -1.9688
 8222TIP3   OH224629   0.426   0.922   2.669  0.7707 -0.3728  0.2159
 8222TIP3    H124630   0.454   0.972   2.746 -0.2364  1.8904 -0.7793
 8222TIP3    H224631   0.507   0.905   2.621  1.1727  0.1063  0.7127
 8223TIP3   OH224632   3.870   2.524   2.376  0.6288  0.0322 -0.0612
 8223TIP3    H124633   3.925   2.564   2.442 -0.0101 -1.0945  1.1935
 8223TIP3    H224634   3.836   2.597   2.325  1.2557  0.9013  0.7492
 8224TIP3   OH224635   5.983   4.338   0.704 -0.0928  0.2033  0.0384
 8224TIP3    H124636   5.951   4.424   0.675 -1.1041 -0.1439  0.0810
 8224TIP3    H224637   6.062   4.323   0.653  0.5323  1.5031  0.5816
 8225TIP3   OH224638   5.517   5.451   4.114 -0.3967 -0.1065 -0.1014
 8225TIP3    H124639   5.593   5.413   4.157 -0.4821 -0.7732 -0.5309
 8225TIP3    H224640   5.443   5.425   4.168 -0.1559  2.6794  1.8145
 8226TIP3   OH224641   3.717   6.474   4.359  0.0145  0.3179 -0.2057
 8226TIP3    H124642   3.769   6.481   4.439 -0.7365 -1.1230  0.4475
 8226TIP3    H224643   3.752   6.542   4.302 -0.7182  2.7101  2.0317
 8227TIP3   OH224644   1.211   1.035   2.042 -0.0202  0.3544 -0.2800
 8227TIP3    H124645   1.301   1.060   2.061 -0.7069  3.7597 -0.9195
 8227TIP3    H224646   1.172   1.113   2.003 -2.7154 -1.6497 -1.9297
 8228TIP3   OH224647   5.762   4.799   4.884 -0.2627 -0.0110  0.2017
 8228TIP3    H124648   5.682   4.851   4.895  0.2428  0.7289  0.4695
 8228TIP3    H224649   5.788   4.814   4.793 -0.5822 -0.4885  0.0266
 8229TIP3   OH224650   0.900   6.661   0.435 -0.0586 -0.1816 -0.4057
 8229TIP3    H124651   0.970   6.595   0.439  1.9487  1.7554 -1.0980
 8229TIP3    H224652   0.867   6.666   0.525  3.9894  2.0125  1.2692
 8230TIP3   OH224653   2.489   3.399   1.266 -0.2813  0.3588  0.2559
 8230TIP3    H124654   2.485   3.426   1.358 -3.5195 -1.3188  0.7675
 8230TIP3    H224655   2.532   3.314   1.267 -0.6176  0.1890  0.2589
 8231TIP3   OH224656   0.762   0.363   0.456  0.0138  0.2034 -0.2139
 8231TIP3    H124657   0.767   0.449   0.415  0.7038 -0.6134 -1.8999
 8231TIP3    H224658   0.681   0.367   0.508 -1.8273  0.7539 -2.9241
 8232TIP3   OH224659   1.338   5.796   2.432 -0.4162 -0.1929 -0.0113
 8232TIP3    H124660   1.267   5.808   2.369 -0.1070  0.4806 -0.2380
 8232TIP3    H224661   1.407   5.751   2.384 -0.7824 -1.0876  0.2818
 8233TIP3   OH224662   4.775   2.281   3.349 -0.2574  0.4006 -0.4338
 8233TIP3    H124663   4.767   2.364   3.301 -0.0775  0.4357 -0.4020
 8233TIP3    H224664   4.688   2.242   3.343 -0.3799  0.6544 -0.3344
 8234TIP3   OH224665   3.252   6.236   4.700  0.0836  0.8262  0.2950
 8234TIP3    H124666   3.257   6.185   4.619 -1.2766  3.4218 -1.5525
 8234TIP3    H224667   3.255   6.170   4.769  0.6038 -1.5714 -1.8479
 8235TIP3   OH224668   5.003   4.396   5.124 -0.3270  0.6082  0.3733
 8235TIP3    H124669   5.090   4.435   5.125 -0.3086  0.6176 -0.4810
 8235TIP3    H224670   4.954   4.445   5.190 -0.1657  1.7744 -0.3431
 8236TIP3   OH224671   6.776   4.323   3.731 -0.1810  0.0111  0.1466
 8236TIP3    H124672   6.844   4.335   3.664  0.1727 -2.6948 -0.1065
 8236TIP3    H224673   6.749   4.411   3.754  1.4499  1.1008 -1.7781
 8237TIP3   OH224674   2.433   1.868   4.944  0.2341  0.5643 -0.3760
 8237TIP3    H124675   2.391   1.939   4.993  1.0767  0.2636  0.8256
 8237TIP3    H224676   2.408   1.884   4.853 -0.1076  2.0454 -0.0552
 8238TIP3   OH224677   1.252   5.185   3.421 -0.1839 -0.1598  0.5887
 8238TIP3    H124678   1.171   5.193   3.370  0.2969 -1.4378 -0.4412
 8238TIP3    H224679   1.222   5.155   3.508 -0.8248 -0.6907  0.1976
 8239TIP3   OH224680   0.828   3.861   1.412  0.4196  0.4900  0.2417
 8239TIP3    H124681   0.769   3.851   1.338 -0.0617 -0.4335  0.7388
 8239TIP3    H224682   0.904   3.807   1.390  1.0535  1.5927 -0.3493
 8240TIP3   OH224683   0.339   4.100   0.525  0.1526  0.4438  0.1167
 8240TIP3    H124684   0.427   4.063   0.531 -0.1800 -0.1957  1.5665
 8240TIP3    H224685   0.344   4.180   0.578  0.1096  0.9379 -0.6146
 8241TIP3   OH224686   3.469   0.614   2.146 -0.2312  0.0803 -0.3094
 8241TIP3    H124687   3.453   0.596   2.239 -0.4459  2.4008  0.1641
 8241TIP3    H224688   3.482   0.709   2.142 -1.0928  0.1592 -2.7948
 8242TIP3   OH224689   4.774   1.328   1.789  0.4683  0.3697  0.2554
 8242TIP3    H124690   4.833   1.259   1.817 -0.9387 -1.1954 -0.4279
 8242TIP3    H224691   4.687   1.300   1.820 -0.1962  1.6397 -0.3598
 8243TIP3   OH224692   0.931   4.004   1.060  0.7846 -0.4408 -0.3020
 8243TIP3    H124693   0.996   4.070   1.038  0.0263  0.4744  0.1520
 8243TIP3    H224694   0.877   4.044   1.128 -0.3351 -1.1259 -0.7567
 8244TIP3   OH224695   3.397   4.761   1.004 -0.1249  0.0638 -0.2347
 8244TIP3    H124696   3.423   4.853   1.002  0.7670 -0.1397  1.0761
 8244TIP3    H224697   3.302   4.763   0.997 -0.1414  1.0994  0.1023
 8245TIP3   OH224698   6.343   5.038   4.188  0.6023 -0.5464 -0.0488
 8245TIP3    H124699   6.262   4.988   4.194  0.6660 -0.5647  0.8150
 8245TIP3    H224700   6.412   4.971   4.185  0.6694 -0.5385  0.8249
 8246TIP3   OH224701   6.080   6.500   2.141 -0.1489 -0.3344 -0.6588
 8246TIP3    H124702   6.139   6.573   2.124  0.5752 -0.7665 -0.0643
 8246TIP3    H224703   5.993   6.540   2.144  0.2402  0.5170 -0.2964
 8247TIP3   OH224704   1.895   6.548   2.049  0.1893  0.1882  0.3327
 8247TIP3    H124705   1.945   6.629   2.053 -0.5861  0.6758  0.5072
 8247TIP3    H224706   1.960   6.479   2.039  0.8855  0.8022  0.5639
 8248TIP3   OH224707   5.120   6.352   5.191  0.1278  0.5202 -0.1879
 8248TIP3    H124708   5.196   6.358   5.134 -0.0908 -0.1970 -0.5752
 8248TIP3    H224709   5.046   6.374   5.135 -0.1281 -0.5412 -0.2973
 8249TIP3   OH224710   3.924   1.601   2.172 -0.4706  0.0991  0.0485
 8249TIP3    H124711   3.945   1.681   2.221  0.4497  0.2337 -0.5508
 8249TIP3    H224712   3.828   1.599   2.171 -0.5191  1.3802 -0.2095
 8250TIP3   OH224713   5.988   3.413   4.385 -0.3001  0.0392 -0.7071
 8250TIP3    H124714   6.022   3.332   4.423 -0.0917 -0.3406 -1.6764
 8250TIP3    H224715   5.956   3.387   4.298  0.8523  1.2091 -1.5126
 8251TIP3   OH224716   6.967   5.321   1.813  0.4584 -0.0894  0.1098
 8251TIP3    H124717   6.911   5.359   1.745  1.3629 -1.4104 -1.4177
 8251TIP3    H224718   7.036   5.275   1.766  1.8536  0.0058  1.9462
 8252TIP3   OH224719   4.018   4.579   1.174  0.0598  0.0742  0.1613
 8252TIP3    H124720   3.928   4.550   1.163  0.6834 -1.2778 -1.7860
 8252TIP3    H224721   4.011   4.653   1.235 -2.5569  1.1116 -1.2345
 8253TIP3   OH224722   3.185   2.427   3.950  0.4489 -0.3243  0.5568
 8253TIP3    H124723   3.169   2.507   3.899  0.0245 -1.0649 -0.5291
 8253TIP3    H224724   3.199   2.457   4.039  0.2910  0.9622  0.1673
 8254TIP3   OH224725   5.377   1.361   4.189 -0.1241 -0.2373 -0.4335
 8254TIP3    H124726   5.362   1.365   4.095  0.0499 -0.3598 -0.4650
 8254TIP3    H224727   5.312   1.422   4.226  0.8444  1.0344 -0.7444
 8255TIP3   OH224728   2.974   2.012   0.427  0.6487 -0.5215  0.1391
 8255TIP3    H124729   3.045   1.971   0.477 -0.4557  0.0276  2.3066
 8255TIP3    H224730   3.009   2.022   0.339  2.5898 -1.9103  0.6781
 8256TIP3   OH224731   4.892   5.554   1.234  0.6121  0.4475  0.0131
 8256TIP3    H124732   4.851   5.535   1.318 -1.8340 -0.5217 -1.2883
 8256TIP3    H224733   4.975   5.507   1.236  0.9675  1.0773  2.1316
 8257TIP3   OH224734   2.448   0.804   0.604  0.0379  0.2509 -0.1297
 8257TIP3    H124735   2.472   0.741   0.536  2.7315  0.7961  0.2181
 8257TIP3    H224736   2.523   0.805   0.664 -0.6274  2.5771  0.7885
 8258TIP3   OH224737   2.879   1.855   5.181  0.2033  0.2737  0.4898
 8258TIP3    H124738   2.917   1.768   5.167 -0.2742  0.2090 -0.4349
 8258TIP3    H224739   2.949   1.916   5.159  0.7929  0.1448  1.8662
 8259TIP3   OH224740   7.182   6.571   5.901  0.0634  0.3935  0.5442
 8259TIP3    H124741   7.259   6.527   5.938  0.3963  0.2028 -0.3354
 8259TIP3    H224742   7.163   6.521   5.822  0.3271  1.7057 -0.3767
 8260TIP3   OH224743   2.683   5.816   1.013 -0.2957 -0.1793  0.3246
 8260TIP3    H124744   2.763   5.783   0.972 -1.8309 -0.1062 -3.1250
 8260TIP3    H224745   2.687   5.911   0.999  0.1130  0.1559  2.4267
 8261TIP3   OH224746   0.708   3.663   5.855  0.1504 -0.4519 -0.6396
 8261TIP3    H124747   0.613   3.651   5.849  0.2309 -1.0685 -0.7540
 8261TIP3    H224748   0.743   3.574   5.862  0.7218 -0.2295 -0.6137
 8262TIP3   OH224749   7.240   2.509   4.621 -0.3887 -0.1694 -0.3922
 8262TIP3    H124750   7.210   2.477   4.706 -1.9072  0.9891 -0.4391
 8262TIP3    H224751   7.159   2.524   4.572  0.4467 -0.4397 -1.9097
 8263TIP3   OH224752   4.610   3.704   1.042  0.1323 -0.0299  0.1720
 8263TIP3    H124753   4.526   3.685   0.999  0.0517  0.2579  0.1979
 8263TIP3    H224754   4.676   3.677   0.977  0.0152  0.0573  0.0153
 8264TIP3   OH224755   3.315   3.828   2.949  0.1795 -0.0799 -0.0161
 8264TIP3    H124756   3.258   3.904   2.953 -1.5826 -1.2448 -1.4344
 8264TIP3    H224757   3.300   3.791   2.862  2.6570 -0.8272 -0.2125
 8265TIP3   OH224758   5.545   3.283   4.076  0.4017 -0.1269 -0.1067
 8265TIP3    H124759   5.471   3.343   4.086  0.5906  0.2211 -0.7401
 8265TIP3    H224760   5.508   3.208   4.028  0.1318 -0.5966  0.8075
 8266TIP3   OH224761   2.084   3.225   0.166 -0.6464  0.4542  0.4573
 8266TIP3    H124762   2.068   3.312   0.204 -1.2686  0.3975  0.3353
 8266TIP3    H224763   2.165   3.235   0.117 -0.4043  0.8151  0.9230
 8267TIP3   OH224764   5.264   3.618   2.206  0.1530 -0.1388 -0.4268
 8267TIP3    H124765   5.239   3.707   2.184  0.0833 -0.4568 -1.7320
 8267TIP3    H224766   5.238   3.566   2.130  0.7780 -1.1722  0.0323
 8268TIP3   OH224767   0.715   3.461   0.730 -0.1245 -0.1311 -0.0160
 8268TIP3    H124768   0.624   3.489   0.725 -0.2805  0.0071  2.3898
 8268TIP3    H224769   0.749   3.473   0.641 -2.2108  0.5822 -0.7703
 8269TIP3   OH224770   0.603   5.397   1.963 -0.0534 -0.2788  0.1476
 8269TIP3    H124771   0.557   5.381   2.045 -1.2110  2.6552  0.1865
 8269TIP3    H224772   0.534   5.404   1.897  0.5933  0.5338 -0.4690
 8270TIP3   OH224773   2.628   6.111   3.466 -0.0437  0.3449 -0.0500
 8270TIP3    H124774   2.671   6.154   3.540  1.1260  2.1507 -1.6634
 8270TIP3    H224775   2.699   6.069   3.418 -0.4879  0.7745 -1.1189
 8271TIP3   OH224776   5.184   5.471   1.202  0.0180  0.2588  0.1287
 8271TIP3    H124777   5.173   5.386   1.159 -1.6433 -0.8313  2.5232
 8271TIP3    H224778   5.270   5.466   1.243  0.6967  0.4772 -1.2225
 8272TIP3   OH224779   1.659   3.324   3.510 -0.2867  0.3097 -0.3079
 8272TIP3    H124780   1.608   3.248   3.481  1.9517 -1.6922  0.6190
 8272TIP3    H224781   1.669   3.311   3.605  2.0131  0.4820 -0.4666
 8273TIP3   OH224782   2.302   6.614   5.728  0.0146 -0.0347 -0.0704
 8273TIP3    H124783   2.369   6.548   5.710 -0.6031 -0.2541 -1.6894
 8273TIP3    H224784   2.349   6.698   5.725 -0.1135  0.0441 -3.6713
 8274TIP3   OH224785   0.702   4.775   5.538  0.5495  0.4269 -0.0801
 8274TIP3    H124786   0.647   4.853   5.540 -0.7702 -0.4793  1.3583
 8274TIP3    H224787   0.787   4.804   5.572  0.6977  1.6189 -1.3793
 8275TIP3   OH224788   5.617   2.584   3.713  0.3025 -0.0633  0.0706
 8275TIP3    H124789   5.592   2.496   3.685 -0.1613  0.2486 -0.5175
 8275TIP3    H224790   5.688   2.608   3.653  1.2213 -0.4774  0.9673
 8276TIP3   OH224791   3.026   5.234   4.866 -0.4516  0.6870  0.0042
 8276TIP3    H124792   3.064   5.246   4.779  2.2868 -2.1104  0.6318
 8276TIP3    H224793   2.932   5.236   4.851 -0.0890  0.0136 -3.0986
 8277TIP3   OH224794   2.882   5.734   5.561 -0.1109 -0.1558  0.0091
 8277TIP3    H124795   2.918   5.822   5.568  1.8219 -1.0381  3.0456
 8277TIP3    H224796   2.820   5.727   5.634 -0.3848 -1.2304 -0.3027
 8278TIP3   OH224797   4.058   6.214   0.158 -0.3540 -0.3681 -0.1881
 8278TIP3    H124798   3.985   6.257   0.203 -0.0740 -0.0035 -0.0691
 8278TIP3    H224799   4.127   6.281   0.156  1.2443 -1.7628  2.7469
 8279TIP3   OH224800   2.527   1.049   3.890 -0.3281  0.2636  0.2114
 8279TIP3    H124801   2.616   1.013   3.885 -0.0979  0.6817  1.1805
 8279TIP3    H224802   2.500   1.056   3.798  0.8296  0.5972 -0.1303
 8280TIP3   OH224803   5.185   1.726   0.875 -0.4092 -0.3665 -0.4237
 8280TIP3    H124804   5.149   1.653   0.926 -1.6363 -0.3390 -1.1991
 8280TIP3    H224805   5.117   1.794   0.879  0.1108  0.1932 -0.8783
 8281TIP3   OH224806   6.080   2.867   2.569 -0.4062 -0.1850  0.9839
 8281TIP3    H124807   6.075   2.787   2.517 -0.6213 -0.3416  1.2402
 8281TIP3    H224808   6.022   2.929   2.524 -1.0074 -0.4892  1.3244
 8282TIP3   OH224809   0.828   6.144   2.906 -0.0787  0.0995 -0.3448
 8282TIP3    H124810   0.734   6.143   2.886 -0.0109  2.1498 -1.0385
 8282TIP3    H224811   0.864   6.209   2.845  1.7943 -0.6391 -0.0656
 8283TIP3   OH224812   4.874   1.683   4.409 -0.2249 -0.1934 -0.4090
 8283TIP3    H124813   4.950   1.642   4.367  0.0790 -2.5741  2.1254
 8283TIP3    H224814   4.897   1.685   4.502 -2.2111  1.5675  0.1069
 8284TIP3   OH224815   6.536   3.049   2.734 -0.2067 -0.6402  0.0102
 8284TIP3    H124816   6.500   3.096   2.809 -1.0325  0.4168 -0.9973
 8284TIP3    H224817   6.556   2.961   2.767 -1.3859 -0.4740  1.2350
 8285TIP3   OH224818   3.137   0.635   1.765 -0.4439 -0.1732 -0.1405
 8285TIP3    H124819   3.188   0.604   1.690 -0.4218  1.0321 -0.6498
 8285TIP3    H224820   3.153   0.570   1.833  1.6458  0.0532 -0.3392
 8286TIP3   OH224821   4.270   6.300   3.501 -0.6705 -0.9622 -0.0827
 8286TIP3    H124822   4.297   6.226   3.555  0.3674 -0.2170  0.4642
 8286TIP3    H224823   4.287   6.273   3.411  0.6323 -1.0299  0.1726
 8287TIP3   OH224824   1.924   0.123   1.022 -0.1614  0.2079  0.6009
 8287TIP3    H124825   1.956   0.176   0.949 -0.3911 -0.2711  0.1495
 8287TIP3    H224826   1.889   0.044   0.982  1.3383 -0.8906  1.3434
 8288TIP3   OH224827   2.540   3.267   3.221  0.5055 -0.2788 -0.0041
 8288TIP3    H124828   2.452   3.251   3.255  0.0238 -1.1820 -1.5740
 8288TIP3    H224829   2.550   3.362   3.227 -1.0667 -0.0223 -0.8693
 8289TIP3   OH224830   3.926   5.588   0.406  0.0924 -0.2441  0.0841
 8289TIP3    H124831   3.920   5.683   0.405  2.7688  0.0550 -2.3067
 8289TIP3    H224832   4.001   5.569   0.462  1.6728 -0.6082 -2.0394
 8290TIP3   OH224833   3.028   0.469   1.104 -0.1551 -0.4475  0.2986
 8290TIP3    H124834   3.069   0.537   1.157  0.2500 -0.5682  0.1390
 8290TIP3    H224835   3.035   0.501   1.014  0.2598 -0.8171  0.1990
 8291TIP3   OH224836   5.874   3.733   1.394  0.0632 -0.1071 -0.0124
 8291TIP3    H124837   5.902   3.823   1.413 -0.9303 -0.0879  1.4823
 8291TIP3    H224838   5.949   3.679   1.421 -0.0517  0.1566  0.8528
 8292TIP3   OH224839   2.795   4.360   5.301  0.1805  0.2999 -0.4950
 8292TIP3    H124840   2.801   4.337   5.209  0.0321  0.5477 -0.5675
 8292TIP3    H224841   2.708   4.331   5.328 -0.4579  1.7797 -0.8744
 8293TIP3   OH224842   1.029   0.837   3.028  0.5429 -0.6980 -0.1046
 8293TIP3    H124843   0.988   0.858   3.112 -2.3809 -0.0837 -1.5674
 8293TIP3    H224844   1.065   0.921   2.998 -3.2051  0.5310 -1.7989
 8294TIP3   OH224845   2.966   0.358   1.428 -0.4327 -0.2579 -0.1206
 8294TIP3    H124846   3.025   0.348   1.354 -0.4345  3.2842 -0.7768
 8294TIP3    H224847   3.014   0.323   1.503  1.3909  0.0926 -1.0919
 8295TIP3   OH224848   2.739   4.816   3.402  0.5587  0.2121 -0.3263
 8295TIP3    H124849   2.688   4.742   3.370 -0.2040  1.1341 -1.3030
 8295TIP3    H224850   2.808   4.776   3.455  1.3186 -1.3321 -2.3605
 8296TIP3   OH224851   4.426   0.821   0.660 -0.6065  0.6879 -0.0871
 8296TIP3    H124852   4.380   0.781   0.734 -3.0309  2.3923 -0.5353
 8296TIP3    H224853   4.407   0.764   0.586 -1.7380  1.1436 -0.1766
 8297TIP3   OH224854   5.004   1.279   5.368  0.1858 -0.3340  0.0479
 8297TIP3    H124855   5.011   1.367   5.332  1.2524  0.2959  1.7019
 8297TIP3    H224856   5.078   1.271   5.428  1.3510 -3.1154 -1.5594
 8298TIP3   OH224857   1.366   5.696   1.512 -0.1433 -0.3455  0.1464
 8298TIP3    H124858   1.425   5.625   1.487  1.2964  0.2747  1.6131
 8298TIP3    H224859   1.287   5.651   1.542  0.3314 -1.2872  0.0344
 8299TIP3   OH224860   4.804   4.515   3.284 -0.7001 -0.4305 -0.4679
 8299TIP3    H124861   4.857   4.452   3.235  0.9926 -1.1822  2.1628
 8299TIP3    H224862   4.859   4.592   3.293 -0.9441 -0.3382  0.3233
 8300TIP3   OH224863   5.655   1.404   3.962 -0.1917  0.1066  0.0053
 8300TIP3    H124864   5.707   1.342   4.014 -0.1960  0.1393  0.0492
 8300TIP3    H224865   5.689   1.490   3.988  0.6475  0.0808 -0.9428
 8301TIP3   OH224866   2.344   5.933   4.216 -0.1350 -0.6638  0.2821
 8301TIP3    H124867   2.408   5.981   4.269 -0.5229  0.5865 -0.3313
 8301TIP3    H224868   2.308   5.868   4.275 -1.4040  1.4421  1.9757
 8302TIP3   OH224869   3.848   0.995   2.441 -0.2160  0.3837  0.0441
 8302TIP3    H124870   3.891   1.058   2.384  0.8904 -0.0199  0.4071
 8302TIP3    H224871   3.813   0.929   2.382 -1.8655  1.5707 -0.3873
 8303TIP3   OH224872   3.835   2.294   2.243 -0.2444  0.0297  0.7297
 8303TIP3    H124873   3.832   2.380   2.285  1.3040  0.4979 -0.0273
 8303TIP3    H224874   3.921   2.292   2.200 -0.6719 -1.4987 -0.1091
 8304TIP3   OH224875   2.005   3.644   2.866 -0.1239  0.2428 -0.2256
 8304TIP3    H124876   1.948   3.721   2.868  0.5784  0.7884 -0.5517
 8304TIP3    H224877   2.068   3.659   2.936  0.7051  0.5296 -1.0087
 8305TIP3   OH224878   0.379   4.684   5.520  0.0485 -0.3638  0.4248
 8305TIP3    H124879   0.447   4.718   5.578  0.0300  0.1760  0.1304
 8305TIP3    H224880   0.341   4.761   5.479 -0.4884 -0.6895  0.2991
 8306TIP3   OH224881   6.312   4.388   3.359  0.0540 -0.0587 -0.4440
 8306TIP3    H124882   6.383   4.381   3.423 -1.7474  0.3148  1.7237
 8306TIP3    H224883   6.300   4.482   3.346  0.1258 -0.1257 -1.0204
 8307TIP3   OH224884   1.652   4.340   4.994 -0.3873  0.1782  0.5850
 8307TIP3    H124885   1.655   4.258   5.044 -0.2654  0.1714  0.5651
 8307TIP3    H224886   1.743   4.368   4.988 -0.4824  0.6372  1.1313
 8308TIP3   OH224887   4.239   2.926   5.558 -0.5044 -0.5115  0.4665
 8308TIP3    H124888   4.301   2.853   5.556 -0.8770 -0.8445  0.8634
 8308TIP3    H224889   4.228   2.951   5.466 -1.5943 -2.0086  0.1654
 8309TIP3   OH224890   6.398   3.729   3.079 -0.3294 -0.3173 -0.2003
 8309TIP3    H124891   6.493   3.730   3.088 -0.3087 -2.1460  0.2889
 8309TIP3    H224892   6.376   3.811   3.036  1.4286  0.3217  0.0687
 8310TIP3   OH224893   2.566   2.234   2.094  0.0418  0.2882  0.8761
 8310TIP3    H124894   2.477   2.210   2.121  0.1441 -1.1079  0.0549
 8310TIP3    H224895   2.621   2.165   2.129  0.3456 -0.8196 -1.5731
 8311TIP3   OH224896   1.232   2.090   3.557  0.0687 -1.0727 -0.0417
 8311TIP3    H124897   1.242   2.006   3.512  2.4307 -1.0784  0.3536
 8311TIP3    H224898   1.203   2.068   3.645  1.1085 -1.5452  0.1979
 8312TIP3   OH224899   5.192   4.061   2.389  0.7197 -0.5402  0.2016
 8312TIP3    H124900   5.222   4.142   2.430 -1.2472 -0.2122  1.0929
 8312TIP3    H224901   5.146   4.090   2.310 -1.2102 -0.6136  1.2429
 8313TIP3   OH224902   1.142   4.601   1.300  0.0973  0.1378 -0.2853
 8313TIP3    H124903   1.099   4.687   1.299 -0.3837 -0.0605  1.0342
 8313TIP3    H224904   1.072   4.541   1.326  0.7938 -0.4249  0.2991
 8314TIP3   OH224905   3.944   4.732   5.021  0.2675 -0.0497  0.2764
 8314TIP3    H124906   3.878   4.725   5.090 -0.3007 -1.3792 -0.3679
 8314TIP3    H224907   4.015   4.674   5.050 -0.4171 -1.4189 -0.7142
 8315TIP3   OH224908   6.727   3.537   4.540  0.0144 -0.1112 -0.0827
 8315TIP3    H124909   6.812   3.580   4.532 -0.6243  1.4505  0.9200
 8315TIP3    H224910   6.688   3.576   4.619 -1.9099 -0.2400 -0.9125
 8316TIP3   OH224911   6.831   5.163   5.092 -0.3500  0.4349 -0.1581
 8316TIP3    H124912   6.889   5.206   5.029 -0.1111  0.8160  0.3196
 8316TIP3    H224913   6.827   5.223   5.166 -0.0703 -0.3320  0.4832
 8317TIP3   OH224914   5.471   4.007   2.945 -0.7229 -0.4722 -0.6948
 8317TIP3    H124915   5.405   3.959   2.995  0.2775 -1.2329 -0.0609
 8317TIP3    H224916   5.429   4.089   2.923 -2.2106 -1.3101 -1.1235
 8318TIP3   OH224917   4.859   5.558   4.783  0.3828  0.3792  0.1220
 8318TIP3    H124918   4.865   5.572   4.877  0.0914  1.6573 -0.0351
 8318TIP3    H224919   4.808   5.632   4.750  3.0000  1.6388 -1.4271
 8319TIP3   OH224920   1.318   6.281   2.632 -0.3542 -0.2255 -0.5067
 8319TIP3    H124921   1.407   6.247   2.642  0.0747  0.5806 -1.3593
 8319TIP3    H224922   1.282   6.233   2.558 -0.0747  0.4668 -1.1171
 8320TIP3   OH224923   3.848   0.227   2.141  0.3231  0.2943 -0.2502
 8320TIP3    H124924   3.804   0.143   2.158  2.1940 -0.5462  0.6966
 8320TIP3    H224925   3.781   0.293   2.162 -1.0514 -0.9267 -0.6121
 8321TIP3   OH224926   1.931   2.701   1.797 -0.0300  0.2355  0.4095
 8321TIP3    H124927   1.973   2.683   1.882 -1.3123  1.0583  1.2541
 8321TIP3    H224928   1.991   2.763   1.754  1.6209 -1.6505 -0.1784
 8322TIP3   OH224929   5.688   0.081   1.585 -0.1066  0.1083 -0.1932
 8322TIP3    H124930   5.593   0.079   1.589 -0.1289  0.3119 -0.6008
 8322TIP3    H224931   5.715   0.096   1.676 -0.5413  2.2786 -0.3595
 8323TIP3   OH224932   5.365   5.323   5.267  0.0911 -0.3645 -0.3868
 8323TIP3    H124933   5.300   5.287   5.207  1.0125 -1.5975 -0.6842
 8323TIP3    H224934   5.326   5.313   5.354  0.2807 -2.0870 -0.4591
 8324TIP3   OH224935   5.589   4.915   1.159  0.0232 -0.5241 -0.5318
 8324TIP3    H124936   5.635   4.997   1.142 -0.3994 -0.3940 -1.0664
 8324TIP3    H224937   5.596   4.866   1.077  0.5388 -1.1615 -0.1219
 8325TIP3   OH224938   1.317   4.072   0.269  0.2863  0.1578 -0.2289
 8325TIP3    H124939   1.397   4.066   0.216  0.2850  1.1867 -0.3751
 8325TIP3    H224940   1.334   4.016   0.344  0.3874 -1.1432 -1.1820
 8326TIP3   OH224941   0.686   3.431   2.799  0.0547 -0.2763 -0.3363
 8326TIP3    H124942   0.760   3.370   2.791  1.0308  0.3173  3.0037
 8326TIP3    H224943   0.619   3.381   2.845  0.0118  0.4662  0.4227
 8327TIP3   OH224944   6.340   0.948   4.424 -0.7399  0.0351 -0.2437
 8327TIP3    H124945   6.421   0.905   4.452 -1.1167 -0.8501 -0.4625
 8327TIP3    H224946   6.342   0.942   4.328 -0.6745  0.7456 -0.2878
 8328TIP3   OH224947   4.614   2.026   3.802 -0.8908  0.0589  0.3842
 8328TIP3    H124948   4.521   2.044   3.812 -0.8700 -0.3413  1.4563
 8328TIP3    H224949   4.649   2.027   3.892  0.4562  1.8641 -0.1009
 8329TIP3   OH224950   4.483   3.279   2.205 -0.1760  0.2777  0.0682
 8329TIP3    H124951   4.420   3.293   2.275  1.1977  1.7496  1.0787
 8329TIP3    H224952   4.540   3.356   2.208  1.7819 -1.0559 -0.6723
 8330TIP3   OH224953   1.494   4.768   3.921 -0.0572 -0.3027  0.0611
 8330TIP3    H124954   1.464   4.858   3.934  0.1273 -0.5483  2.5967
 8330TIP3    H224955   1.542   4.746   4.001  0.3910 -2.4778 -0.7271
 8331TIP3   OH224956   1.900   2.146   2.606  0.7019  0.5906 -0.3747
 8331TIP3    H124957   1.938   2.075   2.555  0.7033  0.6268 -0.4240
 8331TIP3    H224958   1.907   2.223   2.550  1.3520  0.7839 -0.0411
 8332TIP3   OH224959   4.123   3.125   4.631  0.1705  0.0957  0.1103
 8332TIP3    H124960   4.168   3.078   4.700 -0.8717 -0.1335  0.6562
 8332TIP3    H224961   4.159   3.090   4.549  0.5477 -0.4919  0.5247
 8333TIP3   OH224962   3.301   2.580   1.712 -0.0147  0.1822  0.5227
 8333TIP3    H124963   3.385   2.561   1.672  0.9236  3.5026  0.6232
 8333TIP3    H224964   3.237   2.540   1.653  1.5297  0.1348 -1.2153
 8334TIP3   OH224965   3.553   4.498   2.754  0.4175  0.3808 -0.0843
 8334TIP3    H124966   3.565   4.502   2.849 -0.9687 -0.1081  0.1311
 8334TIP3    H224967   3.538   4.589   2.728 -0.0813  0.4145  0.2999
 8335TIP3   OH224968   4.510   5.055   2.341  0.4427 -0.0814 -0.0326
 8335TIP3    H124969   4.522   5.134   2.289  1.2845 -1.1568 -1.5486
 8335TIP3    H224970   4.460   4.997   2.284  0.5445 -0.9423  0.7390
 8336TIP3   OH224971   0.999   0.863   3.307  0.2157  0.0683 -0.3391
 8336TIP3    H124972   0.964   0.937   3.357 -0.4854  0.8495 -1.9074
 8336TIP3    H224973   1.093   0.864   3.326  0.0814  0.8364  0.3249
 8337TIP3   OH224974   3.244   4.015   1.103  0.2021  0.5607  0.1062
 8337TIP3    H124975   3.330   3.999   1.065  0.8228 -1.2179  2.0821
 8337TIP3    H224976   3.187   3.949   1.064  0.3144  0.1772  0.5844
 8338TIP3   OH224977   3.172   2.701   3.850  0.4634  0.0550 -0.0949
 8338TIP3    H124978   3.102   2.756   3.815  1.2604  2.1715  1.4502
 8338TIP3    H224979   3.250   2.729   3.802  0.5766 -1.1520 -0.6549
 8339TIP3   OH224980   3.941   1.432   4.963 -0.1202 -0.3663  0.3415
 8339TIP3    H124981   4.030   1.414   4.933 -0.2372 -1.2875  0.5053
 8339TIP3    H224982   3.884   1.390   4.898 -0.4588  0.7076 -0.0791
 8340TIP3   OH224983   6.293   5.906   4.554  0.0986  0.0748  0.1221
 8340TIP3    H124984   6.340   5.915   4.637  0.1969 -1.5919  0.2740
 8340TIP3    H224985   6.324   5.980   4.501  2.6448 -0.7247  0.3456
 8341TIP3   OH224986   1.129   2.801   5.042 -0.7259 -0.2277  0.1852
 8341TIP3    H124987   1.171   2.718   5.065  1.0350  0.8164  0.8706
 8341TIP3    H224988   1.125   2.800   4.946 -1.8441 -1.5941  0.1993
 8342TIP3   OH224989   4.242   2.115   5.355  0.1437 -0.1301  0.1713
 8342TIP3    H124990   4.158   2.160   5.350 -1.0709 -2.1814  0.9475
 8342TIP3    H224991   4.270   2.108   5.263 -1.2041 -0.5966 -0.2275
 8343TIP3   OH224992   4.604   3.678   0.609 -0.5398 -0.4680 -0.2905
 8343TIP3    H124993   4.682   3.629   0.635 -0.4449 -0.3317 -0.3153
 8343TIP3    H224994   4.611   3.761   0.656 -2.0407 -1.4714  1.8965
 8344TIP3   OH224995   2.912   3.928   1.255  0.2130 -0.5118 -0.0472
 8344TIP3    H124996   2.836   3.955   1.204 -1.5127 -1.4121  1.9201
 8344TIP3    H224997   2.952   3.857   1.203 -0.2834 -0.0514 -1.0829
 8345TIP3   OH224998   1.327   4.889   4.748  0.1400  0.6054  0.5570
 8345TIP3    H124999   1.406   4.843   4.775 -1.5281 -0.7723  3.4920
 8345TIP3    H225000   1.349   4.982   4.757  1.9986  0.3578 -0.7386
 8346TIP3   OH225001   1.663   2.538   3.148  0.1005 -0.3135 -0.6494
 8346TIP3    H125002   1.735   2.599   3.131 -1.4143  2.6845  2.3483
 8346TIP3    H225003   1.584   2.593   3.144 -1.5766 -2.4751  0.6084
 8347TIP3   OH225004   1.848   3.995   1.002 -0.3584 -0.1038 -0.8902
 8347TIP3    H125005   1.856   4.085   1.035 -1.7483 -0.2815  0.0164
 8347TIP3    H225006   1.938   3.963   0.999 -0.0742 -0.2777  3.4800
 8348TIP3   OH225007   7.201   1.310   2.930  0.3578  0.5252 -0.0960
 8348TIP3    H125008   7.150   1.388   2.949  0.6425  0.4542  1.0059
 8348TIP3    H225009   7.197   1.257   3.010 -0.5582 -1.0190 -1.1117
 8349TIP3   OH225010   6.447  -0.004   1.465 -0.1524  0.0941  0.0071
 8349TIP3    H125011   6.470   0.089   1.455 -0.2877  0.4141  2.1624
 8349TIP3    H225012   6.359  -0.012   1.428 -0.6701  1.1302  0.9719
 8350TIP3   OH225013   6.357   4.643   1.524  0.0665  0.1064 -0.5449
 8350TIP3    H125014   6.447   4.658   1.553  0.3193 -0.0082 -1.2482
 8350TIP3    H225015   6.353   4.550   1.504 -0.7794 -0.2997  1.3575
 8351TIP3   OH225016   4.845   4.879   0.646 -0.1663  0.5348 -0.3444
 8351TIP3    H125017   4.934   4.854   0.673  0.0622  1.6848  0.0355
 8351TIP3    H225018   4.789   4.809   0.682  0.4352  0.5617  0.7030
 8352TIP3   OH225019   2.426   0.569   1.087  0.0343 -0.8905 -0.1529
 8352TIP3    H125020   2.332   0.554   1.094  0.1492 -0.9006  2.2886
 8352TIP3    H225021   2.455   0.582   1.177  1.8162  2.7599 -1.0570
 8353TIP3   OH225022   1.021   0.633   3.832 -0.1621  0.2036  0.2428
 8353TIP3    H125023   0.960   0.604   3.764 -0.6374  0.1135  0.6971
 8353TIP3    H225024   1.088   0.683   3.785 -0.1977 -0.2984 -0.3515
 8354TIP3   OH225025   7.011   2.743   5.801 -0.3364  0.3842  0.4834
 8354TIP3    H125026   7.053   2.664   5.835 -3.6255 -1.5422  0.6025
 8354TIP3    H225027   7.043   2.751   5.711  0.6236 -0.6515  0.7088
 8355TIP3   OH225028   6.143   2.320   5.714  0.1212 -0.1709  0.0501
 8355TIP3    H125029   6.139   2.377   5.791 -0.1336 -0.3332  0.1591
 8355TIP3    H225030   6.103   2.238   5.743 -1.4083  0.2584 -0.6828
 8356TIP3   OH225031   0.585   2.687   0.409 -0.6716 -0.9495  0.4569
 8356TIP3    H125032   0.531   2.757   0.372 -0.4425 -0.1862  1.5402
 8356TIP3    H225033   0.619   2.640   0.332  0.0110  0.7633 -0.3366
 8357TIP3   OH225034   5.402   6.460   4.135 -0.5295 -0.3375 -0.2560
 8357TIP3    H125035   5.348   6.385   4.110  0.3946 -0.7697 -1.0286
 8357TIP3    H225036   5.464   6.424   4.199 -1.7559  0.3787  1.4036
 8358TIP3   OH225037   4.863   2.882   1.636  0.4941  0.5779  0.0353
 8358TIP3    H125038   4.844   2.881   1.730 -0.1637  0.7111 -0.0951
 8358TIP3    H225039   4.811   2.955   1.602  0.4685  0.3151 -0.4906
 8359TIP3   OH225040   5.067   3.196   2.610 -0.0280  0.0456  0.6792
 8359TIP3    H125041   5.098   3.285   2.597  1.9233 -0.8098 -1.4066
 8359TIP3    H225042   5.145   3.142   2.596 -1.5291 -2.0650 -0.0671
 8360TIP3   OH225043   3.539   3.689   2.485  0.2084  0.0307 -0.0221
 8360TIP3    H125044   3.492   3.683   2.402 -1.7303 -1.4107  1.0994
 8360TIP3    H225045   3.509   3.771   2.524 -1.5371 -0.9164  0.7207
 8361TIP3   OH225046   5.182   2.435   1.496  0.0742 -0.1191 -0.4911
 8361TIP3    H125047   5.118   2.433   1.566 -0.3218  0.6387 -0.8218
 8361TIP3    H225048   5.186   2.345   1.464  0.4174 -0.5116  0.6337
 8362TIP3   OH225049   6.964   4.365   4.148  0.1586 -0.0904  0.5059
 8362TIP3    H125050   6.932   4.443   4.105 -0.8885 -0.5208  0.4810
 8362TIP3    H225051   6.925   4.367   4.235  0.8675 -0.1173  0.8344
 8363TIP3   OH225052   5.880   6.277   2.438 -0.2163  0.5357  0.4884
 8363TIP3    H125053   5.917   6.362   2.415 -0.3412  0.6364  0.6527
 8363TIP3    H225054   5.900   6.221   2.363  0.8862  0.3964  0.8724
 8364TIP3   OH225055   5.343   1.242   3.924  0.5327 -0.2645 -0.1140
 8364TIP3    H125056   5.379   1.154   3.910 -0.0487 -0.4424 -0.5428
 8364TIP3    H225057   5.250   1.234   3.903  0.5021  0.4901 -0.3172
 8365TIP3   OH225058   2.873   1.754   0.067 -0.9709  0.9975  0.3924
 8365TIP3    H125059   2.903   1.843   0.083 -0.2711  0.7435  0.4940
 8365TIP3    H225060   2.813   1.736   0.139  0.5101  0.6296  1.5626
 8366TIP3   OH225061   3.866   2.963   1.197 -0.3097 -0.0782 -0.3703
 8366TIP3    H125062   3.923   2.936   1.125  0.9121  0.8205  0.2300
 8366TIP3    H225063   3.921   3.019   1.252 -0.8991 -1.4544  1.7611
 8367TIP3   OH225064   1.687   0.069   4.675 -0.5482  0.2965 -0.5608
 8367TIP3    H125065   1.676   0.001   4.741 -1.6344  0.4366 -0.5856
 8367TIP3    H225066   1.762   0.040   4.623 -1.2016 -1.0506 -0.7864
 8368TIP3   OH225067   0.317   1.804   1.564  0.5830  0.4176 -0.1263
 8368TIP3    H125068   0.244   1.861   1.543 -0.9406 -1.0767  0.7942
 8368TIP3    H225069   0.290   1.759   1.645  3.0034  0.6185  0.8924
 8369TIP3   OH225070   1.372   2.717   1.773 -0.2771  0.3852  0.3852
 8369TIP3    H125071   1.280   2.727   1.798 -0.0901 -0.1890  1.3716
 8369TIP3    H225072   1.383   2.624   1.757 -0.0403  0.5596 -0.4741
 8370TIP3   OH225073   2.070   5.414   5.719  0.6840  0.3423  0.2238
 8370TIP3    H125074   2.056   5.495   5.769  0.0874 -0.2799  1.0885
 8370TIP3    H225075   2.135   5.439   5.653 -0.0671  1.7309 -0.0404
 8371TIP3   OH225076   1.735   4.254   4.240 -0.0555  0.3344 -0.1001
 8371TIP3    H125077   1.739   4.198   4.317 -0.3816 -1.1949 -1.1477
 8371TIP3    H225078   1.824   4.253   4.204 -0.3049 -0.4425 -0.7302
 8372TIP3   OH225079   6.510   1.660   2.701 -0.1762 -0.4620 -0.3347
 8372TIP3    H125080   6.551   1.733   2.654 -0.6315  0.1588  0.2004
 8372TIP3    H225081   6.518   1.586   2.642 -0.2291  0.1608 -1.1456
 8373TIP3   OH225082   6.236   6.064   2.351 -0.1626  0.1434  0.2072
 8373TIP3    H125083   6.251   5.987   2.297  1.0373  0.1894  0.4422
 8373TIP3    H225084   6.212   6.133   2.288 -2.0516 -0.5830  0.0739
 8374TIP3   OH225085   2.013   2.672   5.662  0.1859  0.1316 -0.2756
 8374TIP3    H125086   2.029   2.617   5.585 -0.0993 -0.5084  0.1133
 8374TIP3    H225087   1.948   2.624   5.712  1.5456 -0.2624  1.1754
 8375TIP3   OH225088   0.851   1.028   4.619  0.0616  0.2014 -0.1719
 8375TIP3    H125089   0.946   1.033   4.629  0.0647  0.9465 -0.4738
 8375TIP3    H225090   0.834   1.068   4.534 -0.5071 -0.1324 -0.2198
 8376TIP3   OH225091   2.308   5.080   5.072  0.6402  0.2270  0.2819
 8376TIP3    H125092   2.262   5.070   5.155  3.9476 -3.0674  1.9655
 8376TIP3    H225093   2.325   4.991   5.043  2.5100  1.2862 -2.2471
 8377TIP3   OH225094   6.796   2.876   1.653  0.2585 -0.2769  0.3617
 8377TIP3    H125095   6.706   2.844   1.660  0.1076  0.0842  0.1385
 8377TIP3    H225096   6.838   2.848   1.734 -0.5639  1.1092  1.3163
 8378TIP3   OH225097   2.801   0.645   2.956  0.3665 -0.3520 -0.1813
 8378TIP3    H125098   2.850   0.681   3.030 -0.3149  0.2017  0.0050
 8378TIP3    H225099   2.815   0.550   2.963 -0.8868 -0.4622  1.5439
 8379TIP3   OH225100   1.647   3.316   4.281 -0.1293 -0.5503  0.2253
 8379TIP3    H125101   1.571   3.354   4.237  0.5248  0.6639  0.0894
 8379TIP3    H225102   1.639   3.346   4.372  1.1375  1.1845 -0.1874
 8380TIP3   OH225103   1.772   5.293   1.400  0.1606 -0.1679 -0.1702
 8380TIP3    H125104   1.814   5.215   1.363  0.9061  0.2506 -0.2209
 8380TIP3    H225105   1.764   5.353   1.326  0.6340  0.2393  0.1005
 8381TIP3   OH225106   1.581   3.559   2.882 -0.0297  0.1038  0.2500
 8381TIP3    H125107   1.534   3.476   2.883  0.5570 -0.2258  0.5030
 8381TIP3    H225108   1.523   3.618   2.834 -0.5924 -0.3617  0.3436
 8382TIP3   OH225109   2.713   2.081   0.744 -0.0483 -0.0730 -0.2094
 8382TIP3    H125110   2.772   2.045   0.810  0.3140  0.1355 -0.4195
 8382TIP3    H225111   2.720   2.176   0.755  0.0129 -0.0384 -0.5478
 8383TIP3   OH225112   0.751   1.044   2.906  0.2061  0.5847  0.1376
 8383TIP3    H125113   0.838   1.045   2.946  0.4096 -2.3248 -0.0646
 8383TIP3    H225114   0.753   1.116   2.843  2.6088  0.3798 -0.1122
 8384TIP3   OH225115   3.117   5.562   2.494  0.0125  0.1287 -0.1502
 8384TIP3    H125116   3.121   5.612   2.412  0.2196  0.1834 -0.1066
 8384TIP3    H225117   3.144   5.625   2.561 -0.6933  0.2414  0.0314
 8385TIP3   OH225118   2.338   1.570   3.864  0.0820  0.0827 -0.1009
 8385TIP3    H125119   2.316   1.477   3.870 -1.5719  0.5211  1.3434
 8385TIP3    H225120   2.433   1.572   3.876 -0.1487 -1.2424  3.0331
 8386TIP3   OH225121   6.976   3.562   0.803 -0.2233 -0.0310  0.2094
 8386TIP3    H125122   6.934   3.557   0.889  0.5141  0.6496  0.6223
 8386TIP3    H225123   6.905   3.548   0.740 -1.4562  2.8060  0.8180
 8387TIP3   OH225124   5.939   1.884   0.757 -0.2073  0.1753  0.2483
 8387TIP3    H125125   5.969   1.914   0.843  1.0764  0.1212 -0.1629
 8387TIP3    H225126   5.958   1.958   0.698 -0.1758 -0.1507 -0.1545
 8388TIP3   OH225127   5.978   3.291   4.991 -0.0602  0.1518  0.2648
 8388TIP3    H125128   5.904   3.325   5.041 -1.0129 -0.9841 -0.3241
 8388TIP3    H225129   6.021   3.231   5.051 -0.7907 -0.6780 -0.0225
 8389TIP3   OH225130   5.042   2.108   4.469  0.2986  0.7456 -0.7434
 8389TIP3    H125131   5.007   2.091   4.381  0.7711 -0.9873 -0.6396
 8389TIP3    H225132   4.975   2.074   4.528  1.4449 -1.3167 -0.5281
 8390TIP3   OH225133   4.292   5.347   2.640 -0.7963  0.1000  0.0905
 8390TIP3    H125134   4.304   5.257   2.612 -2.7434 -0.0739 -0.3296
 8390TIP3    H225135   4.256   5.340   2.728  1.6538  0.5811  1.2311
 8391TIP3   OH225136   2.222   5.325   5.262  0.3123 -0.3085  0.0693
 8391TIP3    H125137   2.196   5.397   5.320 -0.1783 -0.2167 -0.2649
 8391TIP3    H225138   2.176   5.249   5.297  0.3759 -0.3474  0.0694
 8392TIP3   OH225139   0.598   2.496   0.837 -0.2964  0.3248  0.0925
 8392TIP3    H125140   0.534   2.560   0.868  0.0842  0.5530  0.4077
 8392TIP3    H225141   0.676   2.547   0.816 -0.6785  0.2507 -1.7214
 8393TIP3   OH225142   6.346   1.678   3.497 -0.2684 -0.5977  0.5422
 8393TIP3    H125143   6.263   1.723   3.515 -0.5807 -0.7377 -0.5021
 8393TIP3    H225144   6.340   1.652   3.405  1.1892 -0.0905  0.2904
 8394TIP3   OH225145   0.713   2.787   0.635  0.7923 -0.7929  0.3827
 8394TIP3    H125146   0.699   2.746   0.550 -0.6513  1.4615 -0.5517
 8394TIP3    H225147   0.797   2.832   0.627 -0.4716  1.5017 -0.8223
 8395TIP3   OH225148   2.800   2.463   2.658 -0.5547  0.0479  0.1860
 8395TIP3    H125149   2.754   2.430   2.735 -0.7176 -0.7842 -0.2478
 8395TIP3    H225150   2.885   2.491   2.691 -0.3277 -1.0239  0.5710
 8396TIP3   OH225151   5.528   5.155   0.716 -0.0777 -0.2260  0.1726
 8396TIP3    H125152   5.548   5.140   0.624  0.6239  0.3204  0.2177
 8396TIP3    H225153   5.503   5.070   0.751 -0.0797 -0.4842 -0.4635
 8397TIP3   OH225154   6.822   3.227   5.292  0.3148 -0.3897  0.7244
 8397TIP3    H125155   6.881   3.287   5.248 -0.0209 -1.6775 -1.6684
 8397TIP3    H225156   6.770   3.282   5.350  2.1477  1.1108  1.0079
 8398TIP3   OH225157   6.239   4.263   4.941 -0.0107 -0.2062  0.0568
 8398TIP3    H125158   6.293   4.238   4.867 -0.3850 -0.5914 -0.0890
 8398TIP3    H225159   6.149   4.251   4.911 -0.1636 -0.5971  0.6512
 8399TIP3   OH225160   2.698   5.943   0.693 -0.2821  0.1056  0.1917
 8399TIP3    H125161   2.620   5.993   0.717  0.5089  1.0577  0.8032
 8399TIP3    H225162   2.727   5.903   0.774  1.8079  2.5109  0.7613
 8400TIP3   OH225163   0.958   3.548   2.653  0.0624  0.2882 -0.3510
 8400TIP3    H125164   0.996   3.610   2.592 -2.1454  2.5595  0.3991
 8400TIP3    H225165   0.928   3.475   2.598  1.2564  0.6213 -1.4802
 8401TIP3   OH225166   5.502   1.213   2.935 -0.6896 -0.1291 -0.4346
 8401TIP3    H125167   5.467   1.176   2.854 -2.0448  1.6343 -0.7279
 8401TIP3    H225168   5.487   1.146   3.001  1.1475 -1.9206 -1.7254
 8402TIP3   OH225169   5.723   5.669   5.206  0.4819  0.0080  0.3321
 8402TIP3    H125170   5.762   5.582   5.200 -1.1599 -0.7387 -0.3995
 8402TIP3    H225171   5.633   5.652   5.235  0.4019  1.5560  1.0951
 8403TIP3   OH225172   1.379   5.688   5.219 -0.4528  0.1022  0.3428
 8403TIP3    H125173   1.341   5.600   5.228 -1.2960  0.5281  1.2084
 8403TIP3    H225174   1.362   5.729   5.304  1.3888  0.5546  0.5210
 8404TIP3   OH225175   4.677   1.802   3.441  0.2567  0.1362 -0.2404
 8404TIP3    H125176   4.606   1.740   3.454  0.3443 -0.0081 -0.4354
 8404TIP3    H225177   4.701   1.792   3.349  1.2746 -0.6256  0.0927
 8405TIP3   OH225178   1.860   4.539   1.749  0.1633 -0.1666 -0.2575
 8405TIP3    H125179   1.874   4.594   1.671  2.0447 -1.3513 -0.8401
 8405TIP3    H225180   1.932   4.476   1.746 -0.5001 -1.0904  1.7435
 8406TIP3   OH225181   6.475   0.522   4.846 -0.4216 -0.2534  0.1678
 8406TIP3    H125182   6.546   0.586   4.837  0.3543 -0.9518  1.1293
 8406TIP3    H225183   6.395   0.573   4.833  0.1950  0.8629  0.6323
 8407TIP3   OH225184   4.339   3.104   2.680 -0.0866 -0.3894 -0.0296
 8407TIP3    H125185   4.298   3.156   2.750 -0.8155  0.3224 -0.9508
 8407TIP3    H225186   4.275   3.035   2.661 -0.3298 -0.0134 -0.6232
 8408TIP3   OH225187   6.231   2.795   2.356 -0.2165  0.1807 -0.6497
 8408TIP3    H125188   6.297   2.819   2.421 -0.3579  0.0674 -0.4625
 8408TIP3    H225189   6.236   2.864   2.289 -1.1663  1.1727  0.2673
 8409TIP3   OH225190   5.096   3.986   0.332 -0.0096 -0.2187  0.1085
 8409TIP3    H125191   5.182   4.025   0.320  0.0200 -0.2800  0.1230
 8409TIP3    H225192   5.047   4.051   0.384 -0.4027  0.4172 -1.0142
 8410TIP3   OH225193   3.359   4.250   1.172  0.5078 -0.1946 -0.3475
 8410TIP3    H125194   3.311   4.180   1.128  2.1408 -0.3382 -2.0281
 8410TIP3    H225195   3.451   4.230   1.155  1.0938  1.2025  0.9681
 8411TIP3   OH225196   6.469   1.326   1.866 -0.0872  0.2321  0.1616
 8411TIP3    H125197   6.499   1.302   1.779 -1.7010  0.9122 -0.6229
 8411TIP3    H225198   6.458   1.421   1.862  0.9583  0.4475  1.5006
 8412TIP3   OH225199   0.547   3.223   0.671  0.1039  0.1132 -0.3772
 8412TIP3    H125200   0.616   3.210   0.736 -0.7117 -1.8647  0.1670
 8412TIP3    H225201   0.577   3.174   0.594 -0.7919 -1.0291 -0.0261
 8413TIP3   OH225202   5.480   5.648   3.179  0.6199  0.4708  0.4762
 8413TIP3    H125203   5.440   5.675   3.261 -1.1340  0.1607 -0.2429
 8413TIP3    H225204   5.552   5.711   3.166 -0.9792  2.4556  0.7386
 8414TIP3   OH225205   1.248   3.536   5.601 -0.4522 -0.0168  0.0297
 8414TIP3    H125206   1.193   3.514   5.677  1.1219  0.9560  1.5191
 8414TIP3    H225207   1.313   3.465   5.598  0.3244  0.6622  0.4690
 8415TIP3   OH225208   2.953   0.852   2.328 -0.4826 -0.4095 -0.5566
 8415TIP3    H125209   3.039   0.854   2.286 -1.0079  1.6560 -1.6631
 8415TIP3    H225210   2.892   0.842   2.255 -1.3237  1.4385 -0.1511
 8416TIP3   OH225211   0.823   5.482   5.600 -0.4226  0.2265  0.0496
 8416TIP3    H125212   0.753   5.537   5.565  0.5610  1.1182 -0.5811
 8416TIP3    H225213   0.826   5.505   5.693 -0.4161  0.8268 -0.0907
 8417TIP3   OH225214   3.906   3.058   4.141 -0.3691  0.5645  0.0100
 8417TIP3    H125215   3.948   2.985   4.185  0.0888  1.4956  1.1744
 8417TIP3    H225216   3.837   3.018   4.087  0.3758 -0.7623  0.0202
 8418TIP3   OH225217   2.150   1.955   3.533  0.1326 -0.1343  0.4683
 8418TIP3    H125218   2.144   2.048   3.552  0.7645 -0.1825  0.9663
 8418TIP3    H225219   2.154   1.949   3.438  2.1423  0.5117  0.4596
 8419TIP3   OH225220   4.060   0.684   4.470  0.0961 -0.3924  0.1930
 8419TIP3    H125221   4.136   0.647   4.514  0.0054 -0.6157  0.1645
 8419TIP3    H225222   4.087   0.772   4.443  0.8126 -0.9671 -1.0376
 8420TIP3   OH225223   4.624   5.883   5.484  0.0792  0.1879  0.8122
 8420TIP3    H125224   4.661   5.932   5.411 -0.0568 -0.5118  0.2599
 8420TIP3    H225225   4.648   5.933   5.562 -0.2171  1.2210  0.2538
 8421TIP3   OH225226   4.509   0.140   4.639  0.0171  0.1097 -0.2036
 8421TIP3    H125227   4.441   0.084   4.677 -0.6291  0.1333 -1.2560
 8421TIP3    H225228   4.520   0.105   4.550  2.1459 -0.5571  0.2679
 8422TIP3   OH225229   2.180   2.863   5.759 -0.2568 -0.7366 -0.3358
 8422TIP3    H125230   2.134   2.784   5.729 -1.1829  0.0314 -0.9955
 8422TIP3    H225231   2.226   2.894   5.681 -1.6530  0.5677 -0.6864
 8423TIP3   OH225232   5.106   5.634   3.030 -0.5581 -0.5731  0.2459
 8423TIP3    H125233   5.185   5.647   2.978 -0.2916  1.9403  1.1503
 8423TIP3    H225234   5.035   5.632   2.967  0.1426 -2.6485 -0.5630
 8424TIP3   OH225235   4.378   4.187   4.320 -0.4836 -0.2346 -0.4565
 8424TIP3    H125236   4.401   4.135   4.243 -2.7293 -0.7379 -0.8386
 8424TIP3    H225237   4.363   4.123   4.389 -0.4789  0.0964 -0.1459
 8425TIP3   OH225238   2.075   4.492   0.344  0.0320  0.4181 -0.2461
 8425TIP3    H125239   2.044   4.547   0.416  1.8159  1.0357  0.1061
 8425TIP3    H225240   2.034   4.407   0.360  0.6936  0.4196  1.8003
 8426TIP3   OH225241   6.043   2.392   0.357  0.8274  0.6219 -0.0632
 8426TIP3    H125242   6.004   2.305   0.349  2.4246 -0.2802  1.2426
 8426TIP3    H225243   6.019   2.421   0.445 -0.2121  1.8183 -0.7067
 8427TIP3   OH225244   2.851   0.667   0.682  0.0656  0.6836 -0.3502
 8427TIP3    H125245   2.912   0.687   0.610 -0.6667 -0.0681 -1.2019
 8427TIP3    H225246   2.804   0.589   0.653  2.0666 -1.7385  2.3962
 8428TIP3   OH225247   1.087   4.851   1.848 -0.1316 -0.4780  0.1247
 8428TIP3    H125248   1.161   4.907   1.825 -0.9257  1.2320  1.6155
 8428TIP3    H225249   1.124   4.763   1.850  1.8596  0.3333  0.7842
 8429TIP3   OH225250   5.293   0.127   5.108 -0.4632 -0.0602 -0.4883
 8429TIP3    H125251   5.331   0.055   5.058 -0.7770 -0.3719 -0.2855
 8429TIP3    H225252   5.262   0.189   5.042 -1.1918 -0.6332 -0.6867
 8430TIP3   OH225253   2.490   5.062   2.768 -0.7579 -0.5996  0.2552
 8430TIP3    H125254   2.536   4.978   2.777 -1.2545 -0.8029  1.0159
 8430TIP3    H225255   2.545   5.125   2.813 -0.1345 -0.4127 -0.7487
 8431TIP3   OH225256   5.505   0.707   1.837  0.4341  0.0680  0.6028
 8431TIP3    H125257   5.453   0.772   1.790 -0.5326 -0.1598  1.3487
 8431TIP3    H225258   5.556   0.664   1.769 -0.1491  0.4793 -0.1057
 8432TIP3   OH225259   1.809   5.311   2.166 -0.2831 -0.5161  0.7896
 8432TIP3    H125260   1.849   5.225   2.153  1.2067  0.3514 -0.8999
 8432TIP3    H225261   1.745   5.297   2.235  1.7369 -2.4153  2.4466
 8433TIP3   OH225262   2.730   3.207   3.047  0.2277 -0.1060  0.0766
 8433TIP3    H125263   2.640   3.220   3.077  0.1756 -0.0454 -0.1039
 8433TIP3    H225264   2.777   3.177   3.125  0.4353  1.5357  0.6243
 8434TIP3   OH225265   6.600   5.723   2.711  0.0926 -0.0863 -0.0948
 8434TIP3    H125266   6.659   5.779   2.762  1.1311 -0.8517 -0.4041
 8434TIP3    H225267   6.597   5.764   2.625 -1.3424  0.9845  0.4326
 8435TIP3   OH225268   3.127   4.678   1.001  0.2360 -0.1104 -0.1318
 8435TIP3    H125269   3.171   4.593   0.997 -1.9187 -1.2857  0.0585
 8435TIP3    H225270   3.036   4.659   0.980 -0.6348  1.9153  1.5254
 8436TIP3   OH225271   6.811   3.693   3.301  0.5960  0.1113 -0.4155
 8436TIP3    H125272   6.822   3.767   3.361  1.6697 -0.7993  0.5773
 8436TIP3    H225273   6.736   3.645   3.336 -0.0352  0.6371 -0.9998
 8437TIP3   OH225274   6.065   4.846   5.569 -0.2568  0.2608 -0.2960
 8437TIP3    H125275   6.081   4.756   5.597  1.2767  0.8402  0.8411
 8437TIP3    H225276   6.128   4.861   5.499 -0.5730  0.4327 -0.5487
 8438TIP3   OH225277   2.255   0.613   2.095 -0.0804 -0.3640 -0.0547
 8438TIP3    H125278   2.311   0.684   2.126 -1.2933  0.3209  0.6473
 8438TIP3    H225279   2.285   0.536   2.143  0.6254 -0.1339 -0.1171
 8439TIP3   OH225280   1.618   3.826   4.386  0.3433  0.0489  0.5171
 8439TIP3    H125281   1.635   3.866   4.301  0.1721 -0.8270  0.0553
 8439TIP3    H225282   1.652   3.737   4.377  1.0916  0.1930  1.6480
 8440TIP3   OH225283   3.196   2.500   3.042 -0.6334 -0.4076 -0.0095
 8440TIP3    H125284   3.289   2.491   3.066 -0.3690 -2.1379 -1.5179
 8440TIP3    H225285   3.150   2.438   3.099 -0.9274  0.5698  0.8553
 8441TIP3   OH225286   6.530   1.823   5.301  0.1008  0.1979  0.2919
 8441TIP3    H125287   6.516   1.754   5.236  0.2701 -0.1459  0.6157
 8441TIP3    H225288   6.514   1.905   5.253  1.6914  0.0433 -0.6101
 8442TIP3   OH225289   6.754   2.189   4.830 -0.0469 -0.9404 -0.2592
 8442TIP3    H125290   6.672   2.222   4.792 -1.3110 -2.2707  1.2054
 8442TIP3    H225291   6.777   2.114   4.775 -1.5440 -2.4838  1.1080
 8443TIP3   OH225292   5.172   3.275   3.407  0.1869  0.0738  0.6588
 8443TIP3    H125293   5.077   3.279   3.408  0.1231 -1.2052  1.2160
 8443TIP3    H225294   5.196   3.312   3.321 -0.8890 -0.8817 -0.0831
 8444TIP3   OH225295   1.365   1.297   0.615  0.0490  0.5111  0.4447
 8444TIP3    H125296   1.383   1.216   0.662 -2.3390 -0.3820 -0.0344
 8444TIP3    H225297   1.299   1.343   0.668 -0.6057  0.8299 -0.6025
 8445TIP3   OH225298   3.821   4.887   3.884  0.4661  0.2675 -0.1300
 8445TIP3    H125299   3.848   4.797   3.868 -0.6281  0.1585 -1.4625
 8445TIP3    H225300   3.822   4.895   3.980  0.3539 -1.2269  0.0213
 8446TIP3   OH225301   5.132   2.726   0.642 -0.6108  0.3574  0.4899
 8446TIP3    H125302   5.044   2.757   0.664 -1.1781 -1.1238  0.4267
 8446TIP3    H225303   5.129   2.710   0.548 -0.7742 -1.0776  0.7026
 8447TIP3   OH225304   4.086   1.395   2.095  0.2395  0.0942 -0.1098
 8447TIP3    H125305   4.008   1.450   2.088  0.7870  0.8223 -0.6038
 8447TIP3    H225306   4.075   1.329   2.026 -0.7768 -0.9070  0.9655
 8448TIP3   OH225307   3.384   4.342   2.561  0.2721  0.5878  1.0786
 8448TIP3    H125308   3.432   4.335   2.478 -0.7433  0.1654  0.5047
 8448TIP3    H225309   3.436   4.403   2.614 -0.8039  3.6395 -1.1063
 8449TIP3   OH225310   0.054   1.903   5.845  0.0407  0.2719  0.0678
 8449TIP3    H125311   0.010   1.911   5.760  0.2820  0.3366 -0.0536
 8449TIP3    H225312   0.110   1.981   5.851 -0.0612  0.3249  0.3374
 8450TIP3   OH225313   0.230   5.188   1.956  0.4450 -0.0590 -0.2017
 8450TIP3    H125314   0.187   5.111   1.920 -0.3606  1.5041 -2.8619
 8450TIP3    H225315   0.263   5.235   1.879  3.6401  0.7484  1.5015
 8451TIP3   OH225316   2.685   0.886   0.766 -0.0060  0.5941 -0.3297
 8451TIP3    H125317   2.743   0.821   0.726 -1.4284 -0.0640 -1.4275
 8451TIP3    H225318   2.736   0.967   0.765  0.3255  0.4507 -2.8798
 8452TIP3   OH225319   5.194   1.076   3.534  0.0001  0.1129  0.0272
 8452TIP3    H125320   5.211   1.012   3.604  0.0455 -1.3628 -1.2676
 8452TIP3    H225321   5.251   1.150   3.554  0.5002 -0.5591  1.1795
 8453TIP3   OH225322   5.827   5.078   4.332 -0.3744  0.2099  0.2157
 8453TIP3    H125323   5.895   5.085   4.399 -0.1409  2.3936 -0.1816
 8453TIP3    H225324   5.875   5.057   4.252 -0.3077  0.5033  0.1776
 8454TIP3   OH225325   0.596   3.730   2.642  0.6131  0.4488  0.0167
 8454TIP3    H125326   0.599   3.790   2.568 -1.6264 -0.4813 -0.9212
 8454TIP3    H225327   0.647   3.654   2.613 -0.4656 -0.0206 -0.7359
 8455TIP3   OH225328   5.187   3.165   0.613 -0.2301 -0.5344 -0.1459
 8455TIP3    H125329   5.184   3.190   0.521 -0.5700 -1.6183 -0.4548
 8455TIP3    H225330   5.115   3.213   0.654  1.9482  2.6273  0.3358
 8456TIP3   OH225331   2.572   3.887   5.458  0.5305  0.3452 -0.0567
 8456TIP3    H125332   2.551   3.797   5.435  0.4321 -0.0327  1.4005
 8456TIP3    H225333   2.652   3.907   5.408  1.0274 -0.8378  0.2396
 8457TIP3   OH225334   1.702   2.894   0.925 -0.3098 -0.1128 -0.2389
 8457TIP3    H125335   1.698   2.983   0.961  1.1089  0.9903 -2.5782
 8457TIP3    H225336   1.743   2.842   0.995  2.0972  1.8671 -0.0286
 8458TIP3   OH225337   6.865   5.017   3.445  0.1336 -0.7818  0.3507
 8458TIP3    H125338   6.958   5.002   3.427 -0.3534 -1.9414 -1.4864
 8458TIP3    H225339   6.823   4.934   3.425 -1.3209 -0.2669  1.1240
 8459TIP3   OH225340   6.567   5.250   4.763 -0.4422  0.1167  0.8057
 8459TIP3    H125341   6.552   5.344   4.748  0.3360  0.1706  0.3296
 8459TIP3    H225342   6.608   5.219   4.682  1.9812 -0.0210  2.0028
 8460TIP3   OH225343   6.135   1.468   2.983  0.4097  0.6652 -0.3332
 8460TIP3    H125344   6.058   1.509   3.021 -1.0923 -0.5542 -1.9227
 8460TIP3    H225345   6.170   1.534   2.922 -0.7159  0.4561 -1.2507
 8461TIP3   OH225346   4.272   4.512   1.267  0.3785 -0.1396  0.0266
 8461TIP3    H125347   4.281   4.576   1.338 -0.3487 -0.3807  0.3408
 8461TIP3    H225348   4.190   4.535   1.224  1.0676  0.3343 -1.0831
 8462TIP3   OH225349   3.237   4.001   5.500 -0.0250 -0.3590 -0.2000
 8462TIP3    H125350   3.298   3.935   5.466  1.6292 -0.5885  2.8684
 8462TIP3    H225351   3.283   4.084   5.490 -0.0568 -0.2825  0.2497
 8463TIP3   OH225352   6.331   1.287   5.493 -0.0539 -0.7671 -0.6914
 8463TIP3    H125353   6.268   1.229   5.535 -0.1524 -0.8295 -0.9227
 8463TIP3    H225354   6.286   1.317   5.414  0.5215 -1.4738 -1.2928
 8464TIP3   OH225355   0.684   0.125   2.018 -0.0804 -1.0352 -0.3524
 8464TIP3    H125356   0.716   0.215   2.011 -2.2194 -0.2555 -0.9365
 8464TIP3    H225357   0.718   0.094   2.101 -1.0147  1.1007  0.9103
 8465TIP3   OH225358   1.247   1.223   0.105 -0.2566 -0.3532 -0.1459
 8465TIP3    H125359   1.192   1.157   0.064  0.6531 -0.4793 -1.2415
 8465TIP3    H225360   1.309   1.248   0.036  0.7622  0.1005  0.8988
 8466TIP3   OH225361   7.142   1.010   0.655 -0.0409  0.3954 -0.3022
 8466TIP3    H125362   7.057   0.991   0.615  0.1158 -1.4347  0.1675
 8466TIP3    H225363   7.197   1.039   0.583 -0.6123  0.0397 -0.8906
 8467TIP3   OH225364   0.352   0.088   5.375 -0.0601 -0.2298  0.1605
 8467TIP3    H125365   0.402   0.035   5.437 -1.5812 -2.3495 -0.3150
 8467TIP3    H225366   0.274   0.114   5.424 -0.3617 -0.2988 -0.2854
 8468TIP3   OH225367   3.120   5.264   0.093  0.2063 -0.1950  0.8662
 8468TIP3    H125368   3.152   5.296   0.177 -0.5710  0.6098  0.8692
 8468TIP3    H225369   3.143   5.333   0.030  1.9435 -1.3562  0.1555
 8469TIP3   OH225370   1.380   6.158   1.180  0.4501  0.2095  0.0752
 8469TIP3    H125371   1.285   6.158   1.173  0.3767  1.9663  0.6479
 8469TIP3    H225372   1.399   6.095   1.250 -0.3135  0.2709  0.3394
 8470TIP3   OH225373   4.376   0.490   3.737  0.1300 -0.0364  0.0492
 8470TIP3    H125374   4.426   0.458   3.812 -1.9278 -4.2890 -0.1029
 8470TIP3    H225375   4.426   0.462   3.661 -0.3470 -0.4244 -0.1245
 8471TIP3   OH225376   1.942   1.414   3.147 -0.5611  0.1479 -0.4127
 8471TIP3    H125377   1.967   1.424   3.056  0.6354 -0.7003 -0.1897
 8471TIP3    H225378   1.988   1.485   3.192 -0.4188  0.0049 -0.3338
 8472TIP3   OH225379   3.747   0.957   0.282 -0.6483 -0.4200 -0.0673
 8472TIP3    H125380   3.755   0.920   0.370 -1.7251 -1.4821 -0.3776
 8472TIP3    H225381   3.770   1.049   0.292  0.2381 -0.7477  1.1227
 8473TIP3   OH225382   0.464   0.603   2.549 -0.0345  0.2996 -0.0191
 8473TIP3    H125383   0.543   0.599   2.602 -0.2071  0.9640  0.3084
 8473TIP3    H225384   0.446   0.512   2.524  1.6852  0.2841 -1.3983
 8474TIP3   OH225385   0.038   0.973   5.857  0.2082 -0.2366 -0.1645
 8474TIP3    H125386   0.016   1.036   5.788 -1.4170 -2.0998 -1.4616
 8474TIP3    H225387   0.086   1.025   5.922 -0.5106  2.1870 -1.4289
 8475TIP3   OH225388   6.465   1.208   0.989 -0.3981 -0.7010 -0.1383
 8475TIP3    H125389   6.521   1.217   0.912 -1.1416  1.5508 -0.4922
 8475TIP3    H225390   6.497   1.129   1.033  2.0330 -0.3667 -1.1436
 8476TIP3   OH225391   1.906   2.652   1.311  0.3337  0.8104  0.4278
 8476TIP3    H125392   1.985   2.645   1.365  0.3824 -2.0047  0.1166
 8476TIP3    H225393   1.838   2.681   1.371  0.7412 -0.6740  1.6391
 8477TIP3   OH225394   6.236   3.725   0.807 -0.6652  0.2024 -0.4057
 8477TIP3    H125395   6.228   3.771   0.890  1.1954 -0.4010  0.1756
 8477TIP3    H225396   6.294   3.651   0.827 -1.2767 -0.7307 -1.9403
 8478TIP3   OH225397   1.715   0.774   4.086 -0.0007 -0.2045 -0.1653
 8478TIP3    H125398   1.707   0.679   4.093  0.0076 -0.2999 -1.3622
 8478TIP3    H225399   1.625   0.805   4.083  0.0032 -0.2334 -0.5504
 8479TIP3   OH225400   0.057   6.071   2.236  0.1914  0.3595  0.1597
 8479TIP3    H125401   0.112   6.012   2.185 -0.0158 -0.7579  1.1856
 8479TIP3    H225402   0.106   6.153   2.238  1.5689 -0.4313  0.5648
 8480TIP3   OH225403   2.845  -0.008   5.426  0.3658  0.1768 -0.1759
 8480TIP3    H125404   2.902  -0.025   5.501 -0.4188  0.3654  0.4738
 8480TIP3    H225405   2.847   0.087   5.415 -0.7222  0.3096  0.5934
 8481TIP3   OH225406   3.536   5.464   1.014  0.2004  0.3650  0.1522
 8481TIP3    H125407   3.522   5.374   0.986  0.0513  0.4719 -0.1280
 8481TIP3    H225408   3.609   5.460   1.075 -2.4104 -0.5986  3.5587
 8482TIP3   OH225409   2.841   4.938   0.336  0.0307 -0.1374 -0.7361
 8482TIP3    H125410   2.852   4.853   0.294  0.0398  0.2541 -1.5321
 8482TIP3    H225411   2.754   4.968   0.309 -0.3440 -0.2839  0.2574
 8483TIP3   OH225412   4.539   3.887   2.774  0.3598 -0.3577  0.1652
 8483TIP3    H125413   4.496   3.813   2.817 -0.7175 -0.2109 -0.6331
 8483TIP3    H225414   4.579   3.849   2.696 -0.9212  0.0154 -0.7078
 8484TIP3   OH225415   4.633   6.143   3.131 -0.0315  0.2022 -0.2079
 8484TIP3    H125416   4.629   6.095   3.049  1.5677  2.2717 -1.6243
 8484TIP3    H225417   4.725   6.139   3.157 -0.2321  0.8433  0.6573
 8485TIP3   OH225418   1.784   5.207   0.116 -0.0495 -0.5625 -0.5003
 8485TIP3    H125419   1.771   5.175   0.027 -0.1434  1.3375 -1.2031
 8485TIP3    H225420   1.878   5.199   0.131  0.2756  0.9853 -1.5510
 8486TIP3   OH225421   5.663   4.472   5.092  0.0610 -0.0232  0.1357
 8486TIP3    H125422   5.613   4.552   5.109 -1.7275 -0.6703 -1.7854
 8486TIP3    H225423   5.713   4.492   5.013  0.1860 -0.5520  0.0808
 8487TIP3   OH225424   6.171   0.187   1.589  0.7367  0.3173  0.0161
 8487TIP3    H125425   6.137   0.097   1.589 -1.0403  0.9103  1.7015
 8487TIP3    H225426   6.253   0.182   1.636 -0.3896 -0.1576  2.0418
 8488TIP3   OH225427   6.056   4.376   1.830 -0.4708 -0.2489 -0.0588
 8488TIP3    H125428   6.030   4.385   1.922  0.4257  0.4444  0.1448
 8488TIP3    H225429   5.976   4.389   1.780 -1.0594 -1.0945  0.6373
 8489TIP3   OH225430   3.317   5.572   1.747 -0.5351  0.3252 -0.0779
 8489TIP3    H125431   3.293   5.641   1.685  0.1995 -1.6688 -2.8098
 8489TIP3    H225432   3.412   5.566   1.740 -0.5595 -0.7476  0.3342
 8490TIP3   OH225433   7.129   4.156   0.015  0.8020  0.6154  0.3914
 8490TIP3    H125434   7.142   4.078  -0.039 -0.1739 -0.2618  1.3761
 8490TIP3    H225435   7.180   4.139   0.095 -1.4075 -0.2011  1.7108
 8491TIP3   OH225436   4.780   4.581   2.640 -0.6057  0.0122  0.0480
 8491TIP3    H125437   4.752   4.672   2.629  0.8527  1.0300  3.3342
 8491TIP3    H225438   4.702   4.536   2.673 -1.3449 -0.0162 -1.6258
 8492TIP3   OH225439   3.250   3.103   2.865  1.2134 -0.3289 -0.5077
 8492TIP3    H125440   3.155   3.093   2.858  1.2899 -0.1599 -2.4427
 8492TIP3    H225441   3.271   3.175   2.806  2.6406 -1.0803 -0.9729
 8493TIP3   OH225442   5.305   4.621   4.085 -0.0729 -0.2909  0.4443
 8493TIP3    H125443   5.270   4.532   4.076  0.3978 -0.3621 -0.8325
 8493TIP3    H225444   5.333   4.645   3.997  0.0254  1.0440  0.8172
 8494TIP3   OH225445   5.944   3.996   4.993  0.6301 -0.0412  0.7724
 8494TIP3    H125446   5.989   3.913   5.007  0.1737 -0.3353  0.5256
 8494TIP3    H225447   6.002   4.047   4.936  1.8185  0.5794  2.4543
 8495TIP3   OH225448   0.735   4.113   5.036 -0.5238 -0.3371 -0.0508
 8495TIP3    H125449   0.662   4.060   5.006 -0.3694 -0.4689 -0.2001
 8495TIP3    H225450   0.812   4.057   5.022 -0.5511 -0.8355  1.6448
 8496TIP3   OH225451   2.435   6.585   1.376  0.0042  0.4954  0.4383
 8496TIP3    H125452   2.401   6.671   1.351  3.5426  1.6189 -1.0862
 8496TIP3    H225453   2.406   6.526   1.307 -2.2541  0.3976  1.3769
 8497TIP3   OH225454   2.544   6.359   4.207 -0.0424  0.0958 -0.1198
 8497TIP3    H125455   2.613   6.386   4.268 -0.7813 -0.8950  1.2078
 8497TIP3    H225456   2.581   6.375   4.120  1.7370 -0.1253  0.5615
 8498TIP3   OH225457   5.221   0.396   5.625 -0.0679  0.5056  0.0613
 8498TIP3    H125458   5.257   0.450   5.695  1.0449 -0.7408  0.4821
 8498TIP3    H225459   5.297   0.356   5.584 -0.8531 -0.6802 -0.2962
 8499TIP3   OH225460   5.535   5.812   0.489 -0.0266  0.2850  0.5116
 8499TIP3    H125461   5.607   5.757   0.459  1.7844  2.3708  0.7840
 8499TIP3    H225462   5.463   5.790   0.430  1.2628 -0.8329 -0.7396
 8500TIP3   OH225463   4.745   5.378   1.406  0.3518  0.1695 -0.2902
 8500TIP3    H125464   4.696   5.445   1.359 -0.3174 -0.2733 -0.2396
 8500TIP3    H225465   4.777   5.319   1.337  0.0806 -0.0171 -0.2570
 8501TIP3   OH225466   5.057   3.075   1.569 -0.3265 -0.5719 -0.6505
 8501TIP3    H125467   5.012   2.994   1.593 -0.9603 -0.1329 -0.2864
 8501TIP3    H225468   5.145   3.048   1.543 -0.7291 -1.4366 -1.1542
 8502TIP3   OH225469   2.970   5.443   5.552  0.1518 -0.2752 -0.1155
 8502TIP3    H125470   2.913   5.400   5.489  0.9553 -0.2859 -0.8653
 8502TIP3    H225471   2.944   5.535   5.550 -0.1567 -0.3598 -0.0810
 8503TIP3   OH225472   6.048   1.299   4.227  0.8002 -0.2259 -0.0715
 8503TIP3    H125473   6.012   1.374   4.181  0.5783 -0.0991  0.3055
 8503TIP3    H225474   6.006   1.223   4.186 -0.2884 -0.0612  0.6864
 8504TIP3   OH225475   6.220   4.717   4.044  0.8400 -0.0407 -0.3004
 8504TIP3    H125476   6.218   4.790   3.982 -0.2017  0.3809  0.2012
 8504TIP3    H225477   6.128   4.700   4.064  1.0416 -1.6618 -0.5796
 8505TIP3   OH225478   0.646   0.068   3.886  0.4387 -0.4846 -0.1513
 8505TIP3    H125479   0.738   0.044   3.895  0.4480 -0.5327 -0.3595
 8505TIP3    H225480   0.629   0.128   3.959 -0.1293 -2.6819  1.6186
 8506TIP3   OH225481   4.370   4.060   0.562 -0.7025  0.4120 -0.9359
 8506TIP3    H125482   4.402   4.066   0.652 -0.2990 -0.7479 -0.9845
 8506TIP3    H225483   4.336   4.147   0.543 -0.6796  0.7087  0.2948
 8507TIP3   OH225484   3.908   5.494   2.861  0.0579  0.0897  0.1043
 8507TIP3    H125485   3.947   5.512   2.947 -2.0818  0.6092  1.0425
 8507TIP3    H225486   3.927   5.572   2.809  0.3249  0.2999  0.5129
 8508TIP3   OH225487   4.133   1.051   4.891  0.0407 -0.5173  0.2580
 8508TIP3    H125488   4.182   1.042   4.809 -0.2266 -0.3336  0.0743
 8508TIP3    H225489   4.086   0.967   4.899 -0.3180 -0.3531 -0.0385
 8509TIP3   OH225490   4.549   2.731   1.050  0.3485 -0.2364  0.7027
 8509TIP3    H125491   4.513   2.784   1.121 -1.8003  0.0284 -0.5115
 8509TIP3    H225492   4.482   2.665   1.033  1.9076 -1.8566  0.5250
 8510TIP3   OH225493   2.648   0.020   3.532  0.6593  0.1414  0.4808
 8510TIP3    H125494   2.728  -0.033   3.536  0.2301 -0.5527  0.0110
 8510TIP3    H225495   2.670   0.092   3.473  0.5715 -0.7091 -0.6201
 8511TIP3   OH225496   3.433   3.212   4.190  0.2471  0.0352 -0.0141
 8511TIP3    H125497   3.368   3.239   4.255 -0.9076  0.3336 -1.2525
 8511TIP3    H225498   3.465   3.295   4.153 -1.8325 -0.1189 -2.4016
 8512TIP3   OH225499   5.423   5.015   0.043  0.1136 -0.0274 -0.1286
 8512TIP3    H125500   5.334   5.004   0.010 -0.5627 -2.1206  2.0666
 8512TIP3    H225501   5.420   5.097   0.093 -0.7387 -0.3050  0.3062
 8513TIP3   OH225502   5.152   3.216   2.939 -0.5455  0.1218 -0.2707
 8513TIP3    H125503   5.160   3.132   2.894  0.2319 -0.5319  1.0517
 8513TIP3    H225504   5.083   3.203   3.003 -0.2853  0.4284  0.0731
 8514TIP3   OH225505   6.530   5.890   0.168 -0.4207  0.5316  0.2612
 8514TIP3    H125506   6.578   5.957   0.121 -0.6908 -0.6768 -1.8838
 8514TIP3    H225507   6.597   5.839   0.214 -0.0142  1.0169  0.2090
 8515TIP3   OH225508   5.391   1.379   4.667  0.3739  0.1224  1.1015
 8515TIP3    H125509   5.319   1.422   4.621  0.3559 -1.2672 -0.2453
 8515TIP3    H225510   5.353   1.298   4.701  0.7128  0.5291  2.5378
 8516TIP3   OH225511   6.103   0.354   3.338  0.1930 -0.1481 -0.8079
 8516TIP3    H125512   6.045   0.278   3.330 -0.4913  0.4159 -1.2859
 8516TIP3    H225513   6.170   0.339   3.272  0.7890 -0.9558 -0.0485
 8517TIP3   OH225514   5.074   6.286   0.966  0.3586  0.3599  0.2548
 8517TIP3    H125515   5.000   6.275   1.025 -2.9938 -0.8546 -3.6893
 8517TIP3    H225516   5.093   6.380   0.969 -1.5750  0.7707  1.1764
 8518TIP3   OH225517   4.766   5.749   0.565  0.4478  0.1952  0.5583
 8518TIP3    H125518   4.785   5.840   0.541  0.1146  0.0787 -0.1934
 8518TIP3    H225519   4.813   5.697   0.500 -0.1300 -0.1465  0.4036
 8519TIP3   OH225520   2.213   6.391   3.130 -0.6802  0.3352 -0.2686
 8519TIP3    H125521   2.242   6.433   3.050 -0.1957 -0.0126 -0.2820
 8519TIP3    H225522   2.155   6.455   3.172 -0.1570  0.9081 -0.4110
 8520TIP3   OH225523   3.155   6.133   2.590 -0.1181  0.1146 -0.3578
 8520TIP3    H125524   3.141   6.062   2.652  0.5394  0.0131 -0.3225
 8520TIP3    H225525   3.240   6.115   2.551  0.2823  1.1415 -0.0014
 8521TIP3   OH225526   5.907   6.646   5.006 -0.2829  0.0468  0.0692
 8521TIP3    H125527   5.846   6.592   5.055 -1.4774 -0.0647 -1.4740
 8521TIP3    H225528   5.985   6.591   4.997 -1.4842 -1.5062 -1.5078
 8522TIP3   OH225529   5.948   0.595   1.840  0.4113 -0.8717  0.2372
 8522TIP3    H125530   5.948   0.503   1.815  0.9105 -0.6547 -0.6048
 8522TIP3    H225531   5.855   0.617   1.850  0.1666 -0.9648 -1.5476
 8523TIP3   OH225532   6.126   4.290   2.296 -0.2111  0.1183 -0.3598
 8523TIP3    H125533   6.090   4.256   2.214 -1.3722 -4.1008  1.6255
 8523TIP3    H225534   6.198   4.231   2.317 -1.1857 -0.2223  2.5293
 8524TIP3   OH225535   5.146   1.442   1.656  0.3544  0.0757 -0.1600
 8524TIP3    H125536   5.229   1.413   1.616  1.8876 -1.1486  3.4146
 8524TIP3    H225537   5.093   1.362   1.659  0.0832  0.2570 -0.2039
 8525TIP3   OH225538   2.446   3.746   5.761  0.1373  0.3356  0.1361
 8525TIP3    H125539   2.532   3.750   5.804 -0.2167  0.4751  0.8432
 8525TIP3    H225540   2.448   3.663   5.713  0.3602 -0.0833  0.8372
 8526TIP3   OH225541   4.944   0.958   3.801 -0.1904  0.2729  0.4247
 8526TIP3    H125542   4.876   0.982   3.738 -0.9926  0.7840  1.4508
 8526TIP3    H225543   4.896   0.922   3.876  0.5958  1.4854  1.5467
 8527TIP3   OH225544   6.495   2.192   1.930 -0.0440 -0.3510  0.0360
 8527TIP3    H125545   6.484   2.286   1.941  2.1860  0.2830 -2.1345
 8527TIP3    H225546   6.493   2.178   1.835 -0.0395 -2.4543  0.2884
 8528TIP3   OH225547   3.746   6.278   5.506  0.2689  0.1967  0.4113
 8528TIP3    H125548   3.839   6.277   5.480  0.1061  2.4727 -0.5444
 8528TIP3    H225549   3.705   6.212   5.451  0.7938  1.5784 -1.7847
 8529TIP3   OH225550   1.522   2.518   3.616  0.6114  0.0045  0.2016
 8529TIP3    H125551   1.600   2.548   3.662  0.8359 -0.8336  0.3863
 8529TIP3    H225552   1.449   2.555   3.665  0.6591 -3.6502  3.5070
 8530TIP3   OH225553   5.087   1.200   3.306 -0.0095  0.1706  0.2942
 8530TIP3    H125554   5.116   1.238   3.389 -0.2812 -0.9759  0.9424
 8530TIP3    H225555   5.016   1.140   3.330 -0.6961  0.4606 -0.8790
 8531TIP3   OH225556   1.823   1.603   2.624 -0.4755 -0.4951  0.3000
 8531TIP3    H125557   1.779   1.602   2.709  1.5231 -0.4335  1.3934
 8531TIP3    H225558   1.813   1.693   2.593 -0.0029 -0.1333  1.1621
 8532TIP3   OH225559   2.183   6.814   1.515 -0.6777  0.0486  0.2465
 8532TIP3    H125560   2.212   6.770   1.435  1.7727  1.8968 -0.0067
 8532TIP3    H225561   2.147   6.744   1.569 -1.2135 -1.4632 -1.9096
 8533TIP3   OH225562   4.215   5.551   1.467 -0.0119  0.3953 -0.1575
 8533TIP3    H125563   4.205   5.595   1.551  0.5352  1.4327 -0.6227
 8533TIP3    H225564   4.274   5.607   1.417 -2.3596  1.2211 -2.2061
 8534TIP3   OH225565   2.338   3.487   4.920 -0.8555  0.5753 -0.4559
 8534TIP3    H125566   2.300   3.416   4.867  0.0564 -0.2176 -0.0786
 8534TIP3    H225567   2.392   3.536   4.858 -0.3034  0.0338 -0.4187
 8535TIP3   OH225568   4.836   4.701   5.132  0.5430  0.3424  0.0408
 8535TIP3    H125569   4.792   4.638   5.189  0.8891  0.0185 -0.0454
 8535TIP3    H225570   4.796   4.785   5.153  0.1659  0.1130  0.2480
 8536TIP3   OH225571   6.594   0.414   1.705 -0.2337 -0.5057 -0.3822
 8536TIP3    H125572   6.657   0.418   1.632  1.2265  0.4296  0.8631
 8536TIP3    H225573   6.649   0.413   1.783 -1.7933  0.0945  0.7576
 8537TIP3   OH225574   0.795   3.456   5.541  0.0621 -0.2639  0.1490
 8537TIP3    H125575   0.730   3.387   5.530  2.8277 -3.5218  2.2591
 8537TIP3    H225576   0.803   3.466   5.636  2.3377  0.2011 -0.0288
 8538TIP3   OH225577   5.025   5.596   2.589  0.1568 -0.4829  0.1142
 8538TIP3    H125578   4.948   5.609   2.534 -0.8941 -0.4452  1.5278
 8538TIP3    H225579   5.074   5.525   2.548 -0.6352 -0.5046 -0.8028
 8539TIP3   OH225580   1.580   3.802   1.859  0.6109  0.3954  0.0503
 8539TIP3    H125581   1.606   3.783   1.769 -1.2373  1.3589 -0.7220
 8539TIP3    H225582   1.619   3.888   1.878 -1.2016  1.4651 -0.8280
 8540TIP3   OH225583   0.615   5.680   5.164  0.3100  0.6678 -0.0161
 8540TIP3    H125584   0.663   5.672   5.247  1.2224  1.3623 -0.4592
 8540TIP3    H225585   0.550   5.748   5.181  1.3032  1.6939 -0.2148
 8541TIP3   OH225586   1.990   0.705   4.513  0.0121 -0.2001  0.1681
 8541TIP3    H125587   1.976   0.780   4.455 -0.2522 -0.6043 -0.3092
 8541TIP3    H225588   1.926   0.716   4.583  1.7496  1.4256  1.5820
 8542TIP3   OH225589   5.437   5.578   0.668 -0.0053 -0.1312 -0.0653
 8542TIP3    H125590   5.439   5.629   0.749  2.6866  0.7718 -0.6094
 8542TIP3    H225591   5.402   5.639   0.603 -0.5323 -0.3024  0.0492
 8543TIP3   OH225592   0.836   2.673   1.140 -0.0243  0.1775  0.0032
 8543TIP3    H125593   0.847   2.661   1.046 -2.5679  0.8847 -0.4466
 8543TIP3    H225594   0.820   2.585   1.174  0.8949 -0.0789 -0.1971
 8544TIP3   OH225595   6.824   4.955   1.383  0.6050 -0.1525  0.4794
 8544TIP3    H125596   6.787   5.034   1.422 -0.1114 -0.4475  0.4083
 8544TIP3    H225597   6.750   4.913   1.338  1.4194  0.1975 -1.2193
 8545TIP3   OH225598   4.071   5.965   5.165  0.0957  0.3392 -0.5283
 8545TIP3    H125599   4.070   5.924   5.252 -0.6589  0.8307 -0.2966
 8545TIP3    H225600   4.037   5.897   5.107  3.2440 -1.0475 -0.9754
 8546TIP3   OH225601   2.637   5.410   1.496 -0.7496  0.4218  0.2893
 8546TIP3    H125602   2.652   5.315   1.493  1.7988  0.7559 -0.7676
 8546TIP3    H225603   2.668   5.441   1.411 -2.9581  2.0865  0.0078
 8547TIP3   OH225604   4.272   2.277   4.714 -0.5146  0.2614 -0.4391
 8547TIP3    H125605   4.274   2.295   4.620 -1.4866 -0.7795 -0.6734
 8547TIP3    H225606   4.188   2.235   4.729 -0.9925  1.6631  1.1590
 8548TIP3   OH225607   6.178   4.189   0.450  0.6685  0.5024  0.6371
 8548TIP3    H125608   6.133   4.161   0.370 -0.9369  1.4524  1.1639
 8548TIP3    H225609   6.157   4.282   0.459  2.9294  1.0496  0.8427
 8549TIP3   OH225610   2.965   3.374   2.522 -0.7624 -0.0461  0.0727
 8549TIP3    H125611   2.872   3.392   2.533 -1.3081 -2.1912 -0.6405
 8549TIP3    H225612   2.983   3.394   2.430 -1.3865 -2.7808 -0.7434
 8550TIP3   OH225613   3.371   1.733   3.501  0.0708  0.0475 -0.0537
 8550TIP3    H125614   3.351   1.652   3.547 -1.4282 -0.3753 -1.3715
 8550TIP3    H225615   3.310   1.735   3.427 -1.9549  3.7030  1.4574
 8551TIP3   OH225616   7.148   2.526   2.773  0.1789  0.4195  0.4679
 8551TIP3    H125617   7.088   2.476   2.716 -0.0335 -0.4563  1.4402
 8551TIP3    H225618   7.123   2.501   2.862  4.1311 -2.6123  0.9546
 8552TIP3   OH225619   3.693   3.721   5.429  0.2992  0.3165  1.0806
 8552TIP3    H125620   3.716   3.632   5.402  0.0982  0.3336  0.8529
 8552TIP3    H225621   3.691   3.771   5.347 -0.8988  0.2417  1.0517
 8553TIP3   OH225622   2.561   5.782   1.816  0.3172  0.2586  0.3855
 8553TIP3    H125623   2.510   5.802   1.737 -1.5637 -1.9916  0.9171
 8553TIP3    H225624   2.516   5.829   1.886  0.1072 -0.1981  0.5620
 8554TIP3   OH225625   3.460   2.041   5.051 -0.4625 -0.5296  0.1152
 8554TIP3    H125626   3.376   2.020   5.009  0.0036 -0.2919 -0.9708
 8554TIP3    H225627   3.525   1.997   4.997  0.1841  0.0716  0.3959
 8555TIP3   OH225628   4.991   6.003   2.584 -0.1870 -0.3241  0.5622
 8555TIP3    H125629   5.024   6.092   2.600 -0.1472 -0.2206 -0.0489
 8555TIP3    H225630   4.943   6.010   2.501 -1.1341 -0.6330  1.0703
 8556TIP3   OH225631   0.562   6.646   5.029 -0.3086  0.4458 -0.2103
 8556TIP3    H125632   0.630   6.698   5.073  1.1211  0.3344 -2.1828
 8556TIP3    H225633   0.510   6.710   4.981 -0.9400  0.4152  0.4175
 8557TIP3   OH225634   5.816   3.716   4.179 -0.1873 -0.2115 -0.2345
 8557TIP3    H125635   5.827   3.641   4.121  0.2486  0.3270 -0.8674
 8557TIP3    H225636   5.748   3.769   4.136  0.0152  0.1032 -0.1713
 8558TIP3   OH225637   4.917   6.449   0.127  0.0367 -0.0091 -0.6071
 8558TIP3    H125638   4.996   6.394   0.126 -1.1453 -1.8226  0.0859
 8558TIP3    H225639   4.948   6.535   0.154  1.5445 -1.1294  1.5283
 8559TIP3   OH225640   4.166   6.505   5.484 -0.0838  0.2073  0.1842
 8559TIP3    H125641   4.230   6.498   5.413  1.0887  0.1951  1.2178
 8559TIP3    H225642   4.084   6.473   5.445  0.4055  0.6554 -1.3043
 8560TIP3   OH225643   5.758   3.594   4.452 -0.3029  0.7155 -0.1073
 8560TIP3    H125644   5.794   3.633   4.372  0.5885 -0.3968 -0.2773
 8560TIP3    H225645   5.811   3.515   4.466 -0.8842  0.5335  1.2138
 8561TIP3   OH225646   5.366   0.921   3.692 -0.1578 -0.7072  0.2536
 8561TIP3    H125647   5.414   0.863   3.632  0.8572 -0.1903  0.5368
 8561TIP3    H225648   5.429   0.940   3.762 -0.1709  1.3851 -0.2462
 8562TIP3   OH225649   7.010   3.686   1.500 -0.0868  0.8019  0.0482
 8562TIP3    H125650   6.977   3.763   1.454 -0.1145 -0.0733 -1.4975
 8562TIP3    H225651   7.104   3.698   1.503  0.2564 -0.3522 -2.8033
 8563TIP3   OH225652   1.596   2.862   3.336 -0.0929 -0.3150  0.2917
 8563TIP3    H125653   1.560   2.828   3.254  0.4536 -0.9122  0.2943
 8563TIP3    H225654   1.648   2.790   3.371  2.0749  0.8845 -0.2950
 8564TIP3   OH225655   5.326   1.105   2.062  0.3683 -0.1888  0.5519
 8564TIP3    H125656   5.285   1.191   2.069 -2.1219 -1.3934  2.5605
 8564TIP3    H225657   5.411   1.116   2.104 -0.2055  1.1546  1.4352
 8565TIP3   OH225658   4.567   6.716   4.012  0.3250 -0.0003  0.0796
 8565TIP3    H125659   4.538   6.629   4.040 -0.0433  0.0704 -0.0792
 8565TIP3    H225660   4.662   6.716   4.027  0.0192  0.4061  2.3276
 8566TIP3   OH225661   3.846   0.089   3.408 -0.4107 -0.2305  0.0219
 8566TIP3    H125662   3.901   0.090   3.330  0.7651 -1.0633  0.8022
 8566TIP3    H225663   3.850   0.179   3.441 -2.1592  0.5219 -1.6655
 8567TIP3   OH225664   0.207   0.840   4.461  0.4433 -0.3449  0.5498
 8567TIP3    H125665   0.233   0.792   4.383 -0.1619  0.9923 -0.5135
 8567TIP3    H225666   0.290   0.861   4.505  0.9626  0.7381 -0.8802
 8568TIP3   OH225667   6.175   0.917   3.277  0.0245 -0.0498 -0.2607
 8568TIP3    H125668   6.185   0.822   3.275  1.5810  0.0565  0.2876
 8568TIP3    H225669   6.226   0.948   3.202  0.7157  0.3930  0.3687
 8569TIP3   OH225670   4.162   0.968   2.261 -0.4620  0.3550 -0.2090
 8569TIP3    H125671   4.112   1.047   2.279 -2.9356 -0.3314 -3.2475
 8569TIP3    H225672   4.242   1.000   2.218 -1.4778  1.2447 -1.5071
 8570TIP3   OH225673   2.632   0.582   5.293 -0.4127  0.5237 -0.3810
 8570TIP3    H125674   2.680   0.597   5.375 -0.9165  2.0099 -0.3255
 8570TIP3    H225675   2.679   0.636   5.229  0.0412 -0.7093 -1.1207
 8571TIP3   OH225676   6.379   4.477   2.622 -0.0156 -0.4979  0.1276
 8571TIP3    H125677   6.303   4.517   2.663 -0.5075 -1.2364 -0.0349
 8571TIP3    H225678   6.448   4.542   2.631 -0.5344 -0.0093  0.7095
 8572TIP3   OH225679   4.757   0.239   1.833 -0.4525  0.5259  0.2135
 8572TIP3    H125680   4.742   0.148   1.857 -0.3334  0.4507  0.0067
 8572TIP3    H225681   4.816   0.272   1.901  0.6239  0.0564 -0.4561
 8573TIP3   OH225682   4.004   2.230   5.283  0.4321  0.1254  0.1780
 8573TIP3    H125683   4.000   2.316   5.241  1.2758 -0.3990 -1.0427
 8573TIP3    H225684   3.915   2.197   5.278  0.3372  0.4497 -0.4156
 8574TIP3   OH225685   4.077   1.215   0.617  0.0755 -0.4349  0.0198
 8574TIP3    H125686   4.062   1.195   0.525 -0.1917  2.4716 -0.6400
 8574TIP3    H225687   4.172   1.220   0.625  0.1115 -0.9921 -0.0017
 8575TIP3   OH225688   7.043   2.563   3.285 -0.0885  0.5630  0.1873
 8575TIP3    H125689   7.083   2.571   3.198  2.7642 -0.9241  1.2286
 8575TIP3    H225690   7.011   2.651   3.305  1.4039  1.5209 -1.3743
 8576TIP3   OH225691   4.160   0.683   5.705  0.8114 -0.4890 -0.6269
 8576TIP3    H125692   4.202   0.616   5.758  0.2983 -0.6800 -0.4637
 8576TIP3    H225693   4.067   0.675   5.724  0.5731 -0.7957 -1.8050
 8577TIP3   OH225694   2.836   3.988   5.417  0.2082 -0.3752  0.0699
 8577TIP3    H125695   2.892   3.939   5.357  1.2062  0.0092  0.6604
 8577TIP3    H225696   2.894   4.055   5.454 -1.2280  1.5804 -1.0896
 8578TIP3   OH225697   2.300   1.324   3.029  0.2542  0.7120  0.1764
 8578TIP3    H125698   2.281   1.308   3.121 -0.3167 -1.2258 -0.2437
 8578TIP3    H225699   2.382   1.277   3.012 -0.3130 -0.0096 -0.6029
 8579TIP3   OH225700   0.665   1.871   0.383 -0.2952 -0.5552 -0.2687
 8579TIP3    H125701   0.575   1.841   0.375 -1.1538  1.5766  0.9046
 8579TIP3    H225702   0.675   1.937   0.314  0.1267 -0.2212  0.1056
 8580TIP3   OH225703   1.302   3.867   0.458  0.2790  0.0820 -0.2332
 8580TIP3    H125704   1.210   3.893   0.468  0.0986 -0.1478 -1.2390
 8580TIP3    H225705   1.299   3.788   0.404  1.0099 -0.5005  0.5431
 8581TIP3   OH225706   5.794   4.680   4.349 -0.5695  0.3281 -0.6369
 8581TIP3    H125707   5.771   4.625   4.424  0.8647 -0.4701 -0.7479
 8581TIP3    H225708   5.711   4.695   4.304 -1.1882 -0.6480  0.1406
 8582TIP3   OH225709   3.958   1.886   2.237  0.2335 -0.2013 -0.6395
 8582TIP3    H125710   3.926   1.931   2.315  1.0439 -3.0193  1.5083
 8582TIP3    H225711   4.047   1.920   2.224  1.1560 -1.5800  1.4532
 8583TIP3   OH225712   5.927   5.803   5.718 -0.3166  0.0689  0.0121
 8583TIP3    H125713   5.849   5.857   5.731  1.1652  2.5520 -0.7672
 8583TIP3    H225714   5.960   5.828   5.631  1.4567 -0.7538  0.3946
 8584TIP3   OH225715   1.732   1.348   3.447  0.0543  0.1725 -0.7327
 8584TIP3    H125716   1.711   1.381   3.360 -1.0412 -1.4736 -1.1505
 8584TIP3    H225717   1.646   1.335   3.489  0.4465 -1.2796 -0.3166
 8585TIP3   OH225718   1.817   4.286   0.235  0.6274 -0.0676 -0.3792
 8585TIP3    H125719   1.825   4.223   0.307 -1.0471  1.9565  1.6925
 8585TIP3    H225720   1.772   4.237   0.166 -1.1790 -1.0338  1.3813
 8586TIP3   OH225721   4.224   6.617   0.789 -0.1123 -0.1093 -0.1074
 8586TIP3    H125722   4.208   6.571   0.707 -1.9617  1.2918 -0.6193
 8586TIP3    H225723   4.262   6.701   0.763 -0.8212  0.3950  0.4322
 8587TIP3   OH225724   4.339   1.952   4.128  0.2675  0.0368  0.2021
 8587TIP3    H125725   4.432   1.973   4.121  0.2344  0.5378  1.1315
 8587TIP3    H225726   4.314   1.980   4.216 -0.7638 -0.1044 -0.0274
 8588TIP3   OH225727   3.916   6.644   3.592  0.0184 -0.4744 -0.3947
 8588TIP3    H125728   3.985   6.586   3.558  0.0717 -0.8961  0.4002
 8588TIP3    H225729   3.928   6.641   3.687  0.2444  1.1312 -0.3507
 8589TIP3   OH225730   0.168   4.412   4.819  0.5213 -0.0530 -0.3704
 8589TIP3    H125731   0.166   4.486   4.757  1.4452 -1.5838 -2.3610
 8589TIP3    H225732   0.245   4.362   4.793  0.0404 -1.6124  1.0526
 8590TIP3   OH225733   3.734   4.201   4.863  0.2450 -0.0178  0.4111
 8590TIP3    H125734   3.804   4.250   4.907  0.1428  0.6882 -0.1940
 8590TIP3    H225735   3.761   4.197   4.772  1.0012 -2.4302  0.6695
 8591TIP3   OH225736   5.169   0.551   2.299 -0.5660  0.3624 -0.3020
 8591TIP3    H125737   5.195   0.481   2.239 -0.9735  1.1181 -1.3903
 8591TIP3    H225738   5.245   0.608   2.304 -0.3094 -0.0310  0.4176
 8592TIP3   OH225739   4.315   4.903   2.991 -0.4588 -0.6633 -0.6437
 8592TIP3    H125740   4.283   4.993   2.989 -0.9931 -0.8598 -1.0416
 8592TIP3    H225741   4.279   4.862   2.913  1.0311 -0.8189 -1.2867
 8593TIP3   OH225742   6.861   1.241   0.628  0.0697 -0.2588 -0.4212
 8593TIP3    H125743   6.889   1.150   0.615 -1.0191 -0.6732 -0.0296
 8593TIP3    H225744   6.920   1.293   0.574  2.0398 -0.9832  0.9213
 8594TIP3   OH225745   3.699   1.898   3.096  0.2219  0.0062 -0.1493
 8594TIP3    H125746   3.662   1.983   3.074  1.0608  0.5652  0.5187
 8594TIP3    H225747   3.793   1.915   3.108  0.4707 -1.0919 -0.4148
 8595TIP3   OH225748   6.446   2.951   5.382 -0.2941  0.1600 -0.1352
 8595TIP3    H125749   6.530   2.970   5.424  2.0296 -3.0377 -2.7309
 8595TIP3    H225750   6.420   2.866   5.418 -0.3018 -0.7395 -2.1102
 8596TIP3   OH225751   5.419   2.197   0.278 -0.4393  0.0749  0.2128
 8596TIP3    H125752   5.408   2.285   0.242 -5.0157 -0.5764 -0.5357
 8596TIP3    H225753   5.384   2.139   0.210  2.6774 -2.4855  0.5594
 8597TIP3   OH225754   7.225   6.203   1.865 -0.1163 -0.2243  0.2627
 8597TIP3    H125755   7.232   6.107   1.869  0.7154 -0.2201 -0.7881
 8597TIP3    H225756   7.203   6.222   1.774  1.9798  0.6873 -0.1064
 8598TIP3   OH225757   3.697   5.283   5.524  0.2542 -0.1096  0.7422
 8598TIP3    H125758   3.629   5.345   5.496 -1.4599 -1.1199  2.3940
 8598TIP3    H225759   3.760   5.336   5.572  1.2159  1.0031 -1.5985
 8599TIP3   OH225760   2.498   6.376   2.344 -0.2727  0.0126  0.3258
 8599TIP3    H125761   2.525   6.319   2.272  0.2304  3.2573 -2.2812
 8599TIP3    H225762   2.579   6.402   2.386 -0.3256  0.3985  0.1903
 8600TIP3   OH225763   0.066   1.606   2.538 -0.1194 -0.2285  0.6694
 8600TIP3    H125764   0.072   1.517   2.503 -0.5033  0.5328 -1.5114
 8600TIP3    H225765   0.061   1.595   2.633 -0.0673 -2.5125  0.4489
 8601TIP3   OH225766   5.789   4.780   0.919 -0.8858 -0.5095 -0.5114
 8601TIP3    H125767   5.750   4.693   0.909 -2.0925 -0.1751  0.9767
 8601TIP3    H225768   5.871   4.764   0.966 -0.9321 -0.8707 -0.5489
 8602TIP3   OH225769   4.818   6.294   2.357  0.1619 -0.3865 -0.6811
 8602TIP3    H125770   4.761   6.330   2.425  0.4346  0.1425 -0.7312
 8602TIP3    H225771   4.770   6.218   2.324 -0.3755 -0.1247 -0.5142
 8603TIP3   OH225772   5.860   5.160   2.409 -0.1850 -0.2724  0.0669
 8603TIP3    H125773   5.886   5.114   2.489 -0.3875 -2.1467 -0.8703
 8603TIP3    H225774   5.767   5.176   2.420 -0.3651 -1.1778 -0.0747
 8604TIP3   OH225775   1.626   0.036   2.203  0.4499 -0.0046 -0.0455
 8604TIP3    H125776   1.576   0.053   2.283  0.4328 -1.1154  0.1932
 8604TIP3    H225777   1.715   0.020   2.233  0.7178  0.8396 -0.3701
 8605TIP3   OH225778   6.177   4.458   5.315  0.0070  0.3596 -0.7146
 8605TIP3    H125779   6.154   4.542   5.276  1.3981  1.6560  1.0818
 8605TIP3    H225780   6.124   4.453   5.395 -1.0223 -1.1181 -1.4364
 8606TIP3   OH225781   2.802   4.222   3.471 -0.6074 -0.2412 -0.1155
 8606TIP3    H125782   2.834   4.300   3.426 -0.4996 -1.1706 -1.7244
 8606TIP3    H225783   2.707   4.236   3.478 -0.6956 -0.2834 -1.0871
 8607TIP3   OH225784   3.009   3.652   1.571  0.1290  0.4599 -0.5303
 8607TIP3    H125785   2.991   3.563   1.541 -1.1252  0.6057 -0.2644
 8607TIP3    H225786   3.013   3.645   1.667 -0.4184  0.7502 -0.4802
 8608TIP3   OH225787   4.767   6.155   3.827 -0.0029 -0.5525  0.1234
 8608TIP3    H125788   4.806   6.217   3.766  0.5603 -2.3594 -1.4481
 8608TIP3    H225789   4.819   6.164   3.907  1.5892 -0.6114 -0.8505
 8609TIP3   OH225790   3.308   4.503   4.960  0.3673 -0.6580  0.2657
 8609TIP3    H125791   3.386   4.523   5.011  0.4731  1.7656 -0.7152
 8609TIP3    H225792   3.239   4.493   5.025  0.5688  2.0400  1.0144
 8610TIP3   OH225793   4.678   6.154   0.324 -0.0862  0.1342 -0.1258
 8610TIP3    H125794   4.694   6.199   0.241 -0.8048 -0.5191 -0.6309
 8610TIP3    H225795   4.607   6.204   0.365  0.5719  0.7300  0.3290
 8611TIP3   OH225796   4.964   3.302   1.186  0.1005 -0.4147  0.2716
 8611TIP3    H125797   5.057   3.278   1.183  0.7768  1.9313  0.1382
 8611TIP3    H225798   4.933   3.268   1.270  0.7715 -2.1414 -0.1503
 8612TIP3   OH225799   1.146   3.258   5.011 -0.5346  0.3764  0.4240
 8612TIP3    H125800   1.098   3.321   5.065 -0.5449 -0.7239  1.7330
 8612TIP3    H225801   1.215   3.225   5.068  0.2270  0.0579 -0.6343
 8613TIP3   OH225802   5.071   2.094   3.242 -0.4308  0.2078  0.5443
 8613TIP3    H125803   5.031   2.135   3.319 -2.1063 -2.4125  1.2224
 8613TIP3    H225804   5.002   2.038   3.206  1.5334 -1.7495 -0.4193
 8614TIP3   OH225805   3.149   1.766   0.369 -0.3831  0.2991  0.5228
 8614TIP3    H125806   3.176   1.825   0.298  0.3845 -1.2329 -0.5188
 8614TIP3    H225807   3.212   1.782   0.439  1.1268 -0.7045 -0.5451
 8615TIP3   OH225808   1.629   6.728   2.329 -0.3695  0.1373  0.2964
 8615TIP3    H125809   1.610   6.686   2.245 -0.9255  1.6904 -0.3880
 8615TIP3    H225810   1.672   6.660   2.381  0.8799 -0.5679 -1.5768
 8616TIP3   OH225811   1.124   2.166   2.002 -0.2237 -0.0466 -0.0550
 8616TIP3    H125812   1.098   2.216   2.079  0.9650 -2.0527  1.7541
 8616TIP3    H225813   1.060   2.095   1.995 -0.3110  0.0996 -0.9114
 8617TIP3   OH225814   4.168   4.499   2.906  0.1217 -0.2254 -0.1399
 8617TIP3    H125815   4.145   4.581   2.864  0.8525  0.3424  0.5458
 8617TIP3    H225816   4.212   4.448   2.838  1.7865  0.8963  0.0596
 8618TIP3   OH225817   1.252   3.351   1.309 -0.0570  0.0890  0.0604
 8618TIP3    H125818   1.166   3.344   1.266  0.6026 -0.8712 -1.1749
 8618TIP3    H225819   1.231   3.375   1.399 -1.7132 -1.1830  0.0846
 8619TIP3   OH225820   6.540   0.854   3.299  0.0227  0.6849 -0.6058
 8619TIP3    H125821   6.488   0.809   3.366  1.0633  1.5317  0.8443
 8619TIP3    H225822   6.630   0.836   3.324  0.4455  2.3783 -0.8125
 8620TIP3   OH225823   4.253   5.938   0.461 -0.1904  0.2150  0.2601
 8620TIP3    H125824   4.304   5.863   0.430  1.7912  1.5735  0.0828
 8620TIP3    H225825   4.226   5.914   0.550  2.2847  0.1047  1.0514
 8621TIP3   OH225826   0.068   2.133   4.552 -0.3414  0.7034 -0.0020
 8621TIP3    H125827   0.021   2.076   4.492  0.9484 -2.3272  1.6589
 8621TIP3    H225828   0.012   2.139   4.630 -0.3699  1.5665 -0.0756
 8622TIP3   OH225829   3.265   5.180   5.322  0.4342  0.3044 -0.4875
 8622TIP3    H125830   3.181   5.168   5.365 -0.5176 -0.4285 -2.4101
 8622TIP3    H225831   3.287   5.272   5.336 -0.3639  0.3423  0.5746
 8623TIP3   OH225832   4.861   3.854   5.636 -0.3866  0.1646  0.2727
 8623TIP3    H125833   4.837   3.794   5.566 -0.5174 -1.0242  1.3054
 8623TIP3    H225834   4.950   3.882   5.614 -0.3486 -0.3497 -0.2511
 8624TIP3   OH225835   4.255   4.530   2.504 -0.1673  0.0591 -0.2093
 8624TIP3    H125836   4.334   4.583   2.496 -1.2917  1.8175 -0.1746
 8624TIP3    H225837   4.185   4.585   2.467 -1.5589 -0.9997  0.7415
 8625TIP3   OH225838   7.054   6.546   4.772  0.3196 -0.1923 -0.2446
 8625TIP3    H125839   6.973   6.508   4.806  0.4994 -0.2768  0.0996
 8625TIP3    H225840   7.050   6.532   4.678 -0.1847  0.0309 -0.2582
 8626TIP3   OH225841   2.034   5.877   1.772 -0.5023 -0.5521  0.0717
 8626TIP3    H125842   2.058   5.967   1.751  0.4877 -1.0632 -1.1392
 8626TIP3    H225843   2.071   5.862   1.859 -0.9831  0.3153  0.4289
 8627TIP3   OH225844   4.774   5.571   4.111 -0.0273  0.1898  0.4714
 8627TIP3    H125845   4.745   5.661   4.123  1.9015  0.9347 -0.0386
 8627TIP3    H225846   4.768   5.532   4.198 -2.6979  0.1719  0.3532
 8628TIP3   OH225847   0.245   5.567   0.594 -0.0245 -0.9003 -0.3623
 8628TIP3    H125848   0.185   5.580   0.520 -0.9500 -1.6453  0.2412
 8628TIP3    H225849   0.313   5.509   0.559  0.1012 -0.4305 -0.9130
 8629TIP3   OH225850   2.511   5.628   5.516 -0.1148  0.4374  0.0624
 8629TIP3    H125851   2.498   5.663   5.427 -0.4163  0.3257  0.0602
 8629TIP3    H225852   2.553   5.699   5.564  1.2992  0.0327 -0.5316
 8630TIP3   OH225853   3.881   3.379   4.823  0.3437  0.0164  0.1533
 8630TIP3    H125854   3.849   3.456   4.777  0.7847 -0.4468 -0.9598
 8630TIP3    H225855   3.975   3.393   4.833  0.5262 -0.6109 -0.5591
 8631TIP3   OH225856   5.295   3.546   0.769  0.4846  0.4072  0.1192
 8631TIP3    H125857   5.330   3.593   0.844  1.3815 -0.7264  0.4512
 8631TIP3    H225858   5.358   3.563   0.699  1.1804 -0.7861  0.4245
 8632TIP3   OH225859   1.490   3.997   0.602  0.1279 -0.0906 -0.0700
 8632TIP3    H125860   1.438   3.971   0.526  1.6120 -1.2987 -0.7355
 8632TIP3    H225861   1.468   4.089   0.616 -1.2970 -0.2513 -1.0178
 8633TIP3   OH225862   1.036   2.400   3.707 -1.1328  0.0486 -0.1396
 8633TIP3    H125863   0.973   2.350   3.760  0.7832 -1.1479  1.1677
 8633TIP3    H225864   1.076   2.461   3.769 -1.2702  1.0673 -1.0360
 8634TIP3   OH225865   3.951   2.744   5.843  0.0671 -0.4679 -0.1054
 8634TIP3    H125866   4.000   2.797   5.780  0.6062 -0.8503 -0.0159
 8634TIP3    H225867   3.861   2.745   5.810  0.1217  0.2761 -0.2494
 8635TIP3   OH225868   1.888   3.047   0.656 -0.6383  0.4196  0.1164
 8635TIP3    H125869   1.850   2.964   0.626  0.8461  0.0910 -1.0047
 8635TIP3    H225870   1.950   3.071   0.587  1.0678  0.9750  1.7489
 8636TIP3   OH225871   2.271   4.699   5.540  0.1594  0.1271  0.1603
 8636TIP3    H125872   2.217   4.681   5.617  0.0721 -0.1764  0.0313
 8636TIP3    H225873   2.336   4.762   5.569  1.0342 -1.0618  0.8645
 8637TIP3   OH225874   6.023   4.443   1.145  0.0201  0.0387  0.3649
 8637TIP3    H125875   5.956   4.501   1.109  1.4918 -0.2907 -3.3633
 8637TIP3    H225876   6.080   4.502   1.196 -1.2611  0.8898  0.8647
 8638TIP3   OH225877   5.350   2.461   4.741 -0.0085 -0.0435 -0.0155
 8638TIP3    H125878   5.440   2.428   4.745 -0.6341 -1.9621 -0.6325
 8638TIP3    H225879   5.312   2.438   4.826 -0.0832  0.2095  0.0182
 8639TIP3   OH225880   0.972   6.321   3.108 -0.1251  0.7199  0.3162
 8639TIP3    H125881   0.931   6.285   3.029 -0.7787 -1.4024  1.5378
 8639TIP3    H225882   1.051   6.268   3.121  0.7001  1.9184  0.3998
 8640TIP3   OH225883   4.585   1.644   4.103 -0.8185  0.2875 -0.5137
 8640TIP3    H125884   4.508   1.651   4.159 -1.3994 -0.2301 -1.2352
 8640TIP3    H225885   4.592   1.550   4.082  0.7581  0.1169  0.5769
 8641TIP3   OH225886   3.735   4.929   2.630  0.3687  0.0327  0.4601
 8641TIP3    H125887   3.671   4.933   2.700  2.6963 -1.3797  2.8438
 8641TIP3    H225888   3.689   4.888   2.557 -1.7573  0.2935  1.5925
 8642TIP3   OH225889   6.201   0.610   1.228  0.2782  0.0919  0.1410
 8642TIP3    H125890   6.143   0.623   1.303  1.2832  0.5440  0.8710
 8642TIP3    H225891   6.189   0.518   1.203 -0.1360 -0.0355  0.7953
 8643TIP3   OH225892   2.852   5.734   2.528  0.2787 -0.3062 -0.5060
 8643TIP3    H125893   2.861   5.827   2.544  2.0918 -0.6832  1.0257
 8643TIP3    H225894   2.931   5.695   2.565 -0.5264 -2.4786 -0.8882
 8644TIP3   OH225895   0.720   2.393   3.483 -0.3515 -0.2114 -0.6597
 8644TIP3    H125896   0.798   2.337   3.475 -0.4058 -0.3738 -0.0956
 8644TIP3    H225897   0.682   2.394   3.396  0.7430  0.5395 -1.1532
 8645TIP3   OH225898   6.870   2.369   3.414  0.2603 -0.0075 -0.0336
 8645TIP3    H125899   6.925   2.444   3.390 -0.9936  0.6570 -0.8784
 8645TIP3    H225900   6.822   2.348   3.334 -0.9957 -0.3317  0.7912
 8646TIP3   OH225901   2.625   0.534   4.878  0.4551 -0.3351 -0.0796
 8646TIP3    H125902   2.588   0.516   4.965  0.3300 -2.1798 -0.4759
 8646TIP3    H225903   2.623   0.629   4.871 -2.4052 -0.2302  0.7118
 8647TIP3   OH225904   6.504   2.502   5.361  0.4743  0.0137 -0.0670
 8647TIP3    H125905   6.415   2.481   5.390 -0.5796  1.8686 -1.7151
 8647TIP3    H225906   6.493   2.580   5.306  2.7664 -1.2540 -2.5042
 8648TIP3   OH225907   2.580   5.772   4.541  0.3930  0.2354 -0.2528
 8648TIP3    H125908   2.558   5.679   4.544  1.8370 -0.1381 -0.5190
 8648TIP3    H225909   2.597   5.789   4.448  1.9573  0.2981  0.0213
 8649TIP3   OH225910   6.662   6.004   3.149  0.4536 -0.2089 -0.4972
 8649TIP3    H125911   6.667   6.043   3.237  1.9820  0.3545 -0.8019
 8649TIP3    H225912   6.568   5.999   3.131  0.1489  1.5760  0.3492
 8650TIP3   OH225913   0.159   3.499   2.455  0.4143  0.5071  0.1687
 8650TIP3    H125914   0.157   3.527   2.546  0.4669  0.9797  0.0280
 8650TIP3    H225915   0.108   3.566   2.408 -1.6021 -0.9393  0.1751
 8651TIP3   OH225916   6.867   0.174   4.027 -0.1688  0.1731  0.3166
 8651TIP3    H125917   6.859   0.183   4.122 -0.3542 -0.4162  0.3573
 8651TIP3    H225918   6.885   0.081   4.013 -0.0471  0.2736 -0.2220
 8652TIP3   OH225919   1.991   0.261   0.269  0.0575 -0.3689  0.8820
 8652TIP3    H125920   1.969   0.325   0.201 -0.7240  0.8516  2.2584
 8652TIP3    H225921   2.070   0.296   0.310  0.4681 -1.0551  0.7001
 8653TIP3   OH225922   6.410   4.413   2.039  0.3306  0.0849  0.1989
 8653TIP3    H125923   6.494   4.457   2.035  1.4449 -1.6914  2.2109
 8653TIP3    H225924   6.421   4.334   1.986 -0.1307 -0.0731  0.3276
 8654TIP3   OH225925   1.579   2.126   0.619 -0.1246  0.1942  0.5852
 8654TIP3    H125926   1.565   2.202   0.563  0.5700  0.2701  0.5055
 8654TIP3    H225927   1.557   2.051   0.564  1.2933  0.2254 -0.0566
 8655TIP3   OH225928   4.576   0.876   4.595 -0.5830 -0.2656 -0.1936
 8655TIP3    H125929   4.558   0.783   4.583  1.2861 -1.1449  2.9122
 8655TIP3    H225930   4.671   0.884   4.588 -0.7054  1.4714 -0.4481
 8656TIP3   OH225931   5.816   1.655   5.387  0.6309  0.0491 -0.6090
 8656TIP3    H125932   5.750   1.684   5.324 -0.6647 -1.5245 -0.0359
 8656TIP3    H225933   5.855   1.577   5.348  1.9134  0.7362 -0.7602
 8657TIP3   OH225934   1.388   4.451   1.341  0.2485 -0.1812 -0.2209
 8657TIP3    H125935   1.313   4.490   1.297  0.6101 -0.1399 -0.8006
 8657TIP3    H225936   1.415   4.379   1.284  0.2862 -0.5690  0.2761
 8658TIP3   OH225937   1.386   0.475   1.165 -0.0109  0.2723 -0.6709
 8658TIP3    H125938   1.300   0.471   1.206  0.2875  0.8951  0.0621
 8658TIP3    H225939   1.431   0.396   1.194  0.9032  1.6236  1.9493
 8659TIP3   OH225940   1.490   6.244   3.266 -0.0627 -0.0651 -0.0523
 8659TIP3    H125941   1.471   6.152   3.249 -0.1837 -0.1694  0.6221
 8659TIP3    H225942   1.512   6.281   3.180  3.6601 -1.5260  0.0956
 8660TIP3   OH225943   7.024   4.695   0.819 -0.2975 -0.1305 -0.3600
 8660TIP3    H125944   6.970   4.638   0.765 -2.0425  1.0965 -0.0061
 8660TIP3    H225945   6.991   4.783   0.801  2.5315  0.8584 -1.1650
 8661TIP3   OH225946   7.154   5.882   3.484  0.0399 -0.4080  0.1232
 8661TIP3    H125947   7.193   5.947   3.542  0.4350 -0.3802 -0.1691
 8661TIP3    H225948   7.143   5.804   3.539 -1.7322  0.3026  0.8675
 8662TIP3   OH225949   2.412   1.703   5.866 -0.6122  0.2821  0.6172
 8662TIP3    H125950   2.441   1.702   5.774 -0.8883  1.2503  0.5090
 8662TIP3    H225951   2.361   1.784   5.874  0.6063  0.9758  1.9754
 8663TIP3   OH225952   2.050   2.399   0.987 -0.7600  0.2053 -0.4532
 8663TIP3    H125953   2.079   2.320   0.941 -1.4752  0.5035 -1.4538
 8663TIP3    H225954   2.129   2.436   1.024 -0.3691 -0.8142 -0.2533
 8664TIP3   OH225955   6.826   4.780   5.718  0.6197  1.1086  0.2248
 8664TIP3    H125956   6.886   4.707   5.726  0.5685  1.1732  1.3387
 8664TIP3    H225957   6.843   4.834   5.795 -1.7496  0.4641  1.2792
 8665TIP3   OH225958   6.810   6.613   0.543  0.0642  0.5145  0.4381
 8665TIP3    H125959   6.848   6.700   0.555  1.2921 -0.0956  1.1134
 8665TIP3    H225960   6.826   6.592   0.451  1.2813  0.3220  0.6778
 8666TIP3   OH225961   5.508   4.403   2.374 -0.2763  0.2628 -0.0104
 8666TIP3    H125962   5.593   4.381   2.414  0.0008 -0.3582 -0.9095
 8666TIP3    H225963   5.447   4.342   2.415 -0.0709 -0.0798 -0.2012
 8667TIP3   OH225964   3.231   0.235   5.049 -0.5499  0.5486  0.1989
 8667TIP3    H125965   3.145   0.268   5.075 -0.3008  0.8683  0.6396
 8667TIP3    H225966   3.293   0.301   5.082 -0.2425  1.2097 -1.6149
 8668TIP3   OH225967   0.242   3.634   1.323 -0.2261  0.4292 -0.3771
 8668TIP3    H125968   0.267   3.696   1.254 -2.7479  0.7821 -1.0685
 8668TIP3    H225969   0.318   3.630   1.380  0.7415  2.6659 -1.3997
 8669TIP3   OH225970   6.976   3.928   5.891  0.2371  0.0463 -0.4508
 8669TIP3    H125971   6.988   3.935   5.796 -1.4050 -0.6485 -0.7468
 8669TIP3    H225972   6.948   4.016   5.918 -0.9673 -0.1749 -0.9150
 8670TIP3   OH225973   5.958   0.390   4.296 -0.4969  0.0142 -0.0430
 8670TIP3    H125974   5.900   0.357   4.364  1.6022 -0.8238  1.4138
 8670TIP3    H225975   5.980   0.314   4.243 -0.4190  0.2620 -0.3754
 8671TIP3   OH225976   5.177   3.484   1.999  0.3914  0.4746  0.0036
 8671TIP3    H125977   5.138   3.399   1.978  3.0263 -1.1242  1.0654
 8671TIP3    H225978   5.234   3.503   1.925 -0.2944  1.4504 -0.2964
 8672TIP3   OH225979   5.135   6.038   0.453 -0.1377 -0.3553  0.4231
 8672TIP3    H125980   5.187   6.011   0.528 -1.0623 -0.9455  0.8653
 8672TIP3    H225981   5.053   5.991   0.462 -0.5086  0.0567 -0.6180
 8673TIP3   OH225982   6.377   0.343   2.097 -0.3989 -0.2671  0.1953
 8673TIP3    H125983   6.285   0.366   2.084 -0.5544 -1.0255 -0.1011
 8673TIP3    H225984   6.424   0.396   2.032 -0.4475  1.3035  1.3853
 8674TIP3   OH225985   0.836   2.157   4.880 -0.1933 -0.3926  0.2412
 8674TIP3    H125986   0.797   2.183   4.797 -1.1523 -1.4005  0.3647
 8674TIP3    H225987   0.926   2.191   4.876 -0.7497  1.0465 -0.4724
 8675TIP3   OH225988   1.928   0.205   4.041 -0.7185  0.5219  0.2110
 8675TIP3    H125989   1.981   0.177   3.966  0.4108 -0.2026  1.2372
 8675TIP3    H225990   1.895   0.291   4.015  0.1742  0.5745 -0.8619
 8676TIP3   OH225991   5.201   6.617   3.197 -0.5012 -0.1994  0.0499
 8676TIP3    H125992   5.165   6.695   3.155  2.8848  1.2545 -0.4804
 8676TIP3    H225993   5.186   6.632   3.291  0.1135  1.1587 -0.0382
 8677TIP3   OH225994   6.200   2.768   3.069  0.2354 -0.1303 -0.1897
 8677TIP3    H125995   6.156   2.720   2.999  0.1890  0.4951 -0.5925
 8677TIP3    H225996   6.234   2.699   3.127 -1.1929 -0.6445  0.1030
 8678TIP3   OH225997   5.917   2.832   2.975 -0.2068 -0.2493 -0.1553
 8678TIP3    H125998   5.984   2.876   2.924 -1.2817 -0.5554 -1.9288
 8678TIP3    H225999   5.861   2.902   3.007  0.7991 -0.0096  1.1613
 8679TIP3   OH226000   3.527   6.352   5.618 -0.2604  0.4843 -0.4445
 8679TIP3    H126001   3.617   6.335   5.588  0.2183  0.1114  1.0892
 8679TIP3    H226002   3.538   6.414   5.690 -1.1940  0.0877  0.0541
 8680TIP3   OH226003   6.203   4.639   3.631 -0.0657 -0.1538  0.5155
 8680TIP3    H126004   6.239   4.724   3.606 -0.6115  0.1721  0.8209
 8680TIP3    H226005   6.280   4.582   3.640  0.2136 -0.0076 -0.8266
 8681TIP3   OH226006   0.057   0.207   0.993  0.3697  0.1629 -0.1196
 8681TIP3    H126007  -0.010   0.170   1.050  2.0989  0.2781  2.1379
 8681TIP3    H226008   0.082   0.135   0.935 -0.7171 -0.2603 -0.0832
 8682TIP3   OH226009   2.787   2.352   1.163  0.0547  0.2871 -0.2753
 8682TIP3    H126010   2.757   2.351   1.254 -1.1958  1.8164 -0.6336
 8682TIP3    H226011   2.842   2.430   1.157  1.3431 -0.6020 -0.5008
 8683TIP3   OH226012   6.910   4.979   1.897 -0.0313 -0.5585  0.4080
 8683TIP3    H126013   6.828   4.963   1.850  0.1939 -0.2682 -0.0984
 8683TIP3    H226014   6.911   5.074   1.911  0.9454 -0.3310 -0.9858
 8684TIP3   OH226015   2.308   5.690   3.964  0.2837  0.6106 -0.0319
 8684TIP3    H126016   2.321   5.749   3.890 -1.0995  1.2877  0.2231
 8684TIP3    H226017   2.381   5.629   3.960  0.8178  1.3046 -1.3109
 8685TIP3   OH226018   6.612   5.496   5.210  0.4808  0.4870  0.0831
 8685TIP3    H126019   6.571   5.582   5.206 -2.0896 -0.6120  0.7477
 8685TIP3    H226020   6.540   5.434   5.199  1.8736 -1.6141  1.7808
 8686TIP3   OH226021   0.056   4.333   0.255 -0.3380  0.2908 -0.1645
 8686TIP3    H126022   0.006   4.313   0.334  0.2216 -0.0542  0.1065
 8686TIP3    H226023   0.081   4.247   0.221 -1.1590  0.4037 -1.1010
 8687TIP3   OH226024   5.433   4.685   2.392  0.3971  0.5032  0.5836
 8687TIP3    H126025   5.446   4.694   2.486  2.2814  0.1321  0.3913
 8687TIP3    H226026   5.488   4.611   2.366 -1.2697 -0.4021 -0.5962
 8688TIP3   OH226027   1.854   3.331   5.430 -0.1028  0.1215 -0.0560
 8688TIP3    H126028   1.860   3.421   5.462  1.5834 -0.5612  1.7582
 8688TIP3    H226029   1.920   3.324   5.362  0.2271  0.0998  0.2627
 8689TIP3   OH226030  -0.008   1.124   4.142 -0.4069 -0.2331  0.8399
 8689TIP3    H126031   0.040   1.170   4.074 -1.3599  1.6096  1.3351
 8689TIP3    H226032  -0.018   1.035   4.109  1.2843 -0.0456 -0.2862
 8690TIP3   OH226033   2.124   6.046   1.527  0.4854  0.0240 -0.0395
 8690TIP3    H126034   2.089   6.072   1.612 -1.0109  0.0792 -0.6411
 8690TIP3    H226035   2.141   6.129   1.482 -0.0042 -0.0086 -0.2880
 8691TIP3   OH226036   0.697   0.231   5.241 -0.0527  0.1040  0.1474
 8691TIP3    H126037   0.719   0.162   5.178  2.6901 -0.1415  1.2207
 8691TIP3    H226038   0.655   0.299   5.188 -0.3851 -1.2565 -1.4138
 8692TIP3   OH226039   6.703   6.309   1.268  0.6727 -0.0733  0.0223
 8692TIP3    H126040   6.753   6.391   1.273  0.0388  0.3567 -0.5538
 8692TIP3    H226041   6.737   6.265   1.191 -1.2200  1.1861 -1.6196
 8693TIP3   OH226042   2.280   0.893   2.913 -0.5449 -0.1598  0.0595
 8693TIP3    H126043   2.366   0.927   2.889  0.4577 -1.4225  1.6475
 8693TIP3    H226044   2.224   0.971   2.918  0.9226  0.9119  0.6446
 8694TIP3   OH226045   2.108   5.086   3.890  0.3266 -0.3601 -0.5098
 8694TIP3    H126046   2.120   5.152   3.959  1.0658  0.0646 -1.0288
 8694TIP3    H226047   2.188   5.091   3.838  0.1063 -1.2182 -0.9487
 8695TIP3   OH226048   2.734   4.030   5.704  0.1427 -0.7066  0.3572
 8695TIP3    H126049   2.728   3.945   5.748 -0.4959 -0.9917 -0.2620
 8695TIP3    H226050   2.680   4.020   5.625  2.6686 -0.8023 -1.4668
 8696TIP3   OH226051   0.656   5.541   0.301  0.3049  0.1502  0.4259
 8696TIP3    H126052   0.736   5.490   0.314 -0.3971 -2.2505 -3.2516
 8696TIP3    H226053   0.586   5.485   0.335 -0.1518  0.5969  0.2331
 8697TIP3   OH226054   1.343   5.639   0.760  0.3877  0.4520  0.3936
 8697TIP3    H126055   1.299   5.697   0.697 -1.9827 -0.2629  1.2791
 8697TIP3    H226056   1.332   5.551   0.724 -0.6890  0.0694  1.5665
 8698TIP3   OH226057   1.878   2.942   2.700  0.0362 -0.2158  0.2239
 8698TIP3    H126058   1.830   2.879   2.753  2.5284 -1.0322  1.7029
 8698TIP3    H226059   1.923   2.998   2.764  3.3298 -1.3593 -0.8833
 8699TIP3   OH226060   4.154   5.388   5.311  0.1852  0.4401  0.2425
 8699TIP3    H126061   4.220   5.427   5.368  0.4757 -0.1108  0.2888
 8699TIP3    H226062   4.086   5.357   5.370  0.1968  0.4115  0.2405
 8700TIP3   OH226063   4.393   4.097   5.733  0.1013 -0.1898  0.2479
 8700TIP3    H126064   4.459   4.110   5.801  0.4371  1.0090 -0.2792
 8700TIP3    H226065   4.311   4.087   5.781  0.4612 -0.2826  0.8613
 8701TIP3   OH226066   1.532   4.820   5.759 -0.0862  0.0870 -0.0537
 8701TIP3    H126067   1.503   4.734   5.729 -0.5060 -0.1313  0.9561
 8701TIP3    H226068   1.463   4.850   5.819  0.6386  0.5825  0.5565
 8702TIP3   OH226069   5.844   2.174   2.005  0.3937  0.2397  0.3464
 8702TIP3    H126070   5.826   2.249   2.062  0.4128  1.2552 -0.9331
 8702TIP3    H226071   5.782   2.184   1.932  0.4246 -0.9753  0.1445
 8703TIP3   OH226072   5.636   3.920   5.615 -0.1684  0.1644  0.5678
 8703TIP3    H126073   5.705   3.987   5.607 -0.6721  0.8474  1.6904
 8703TIP3    H226074   5.566   3.951   5.557  0.4097 -0.4905 -0.5147
 8704TIP3   OH226075   5.673   5.172   1.202  0.0097 -0.3872 -0.2022
 8704TIP3    H126076   5.649   5.259   1.234  0.6174  0.0254 -0.8559
 8704TIP3    H226077   5.766   5.178   1.183 -0.2084 -0.7922 -1.4789
 8705TIP3   OH226078   2.161   5.796   0.098 -0.0938 -0.0496 -0.0921
 8705TIP3    H126079   2.214   5.870   0.069  1.4333 -0.3605  1.6991
 8705TIP3    H226080   2.101   5.779   0.025  0.3472  2.1410 -1.0296
 8706TIP3   OH226081   2.390   0.275   4.036  0.1864 -0.6579  0.0880
 8706TIP3    H126082   2.334   0.350   4.055 -0.4915 -1.4188  1.1953
 8706TIP3    H226083   2.476   0.313   4.021 -0.7452  0.6565 -2.7255
 8707TIP3   OH226084   5.038   1.668   4.003 -0.5664 -0.5170 -0.3912
 8707TIP3    H126085   5.075   1.644   4.088 -1.6420 -1.8670 -0.2681
 8707TIP3    H226086   5.110   1.659   3.941  0.3561  0.9402  0.4117
 8708TIP3   OH226087   6.251   3.903   1.413  0.4969 -0.3370  0.1683
 8708TIP3    H126088   6.249   3.808   1.412 -1.8466 -0.3322 -0.2308
 8708TIP3    H226089   6.174   3.929   1.362 -0.2018  1.7556  2.1408
 8709TIP3   OH226090   0.750   2.067   3.212  0.3038  0.1163 -0.2043
 8709TIP3    H126091   0.771   2.158   3.234  2.1085 -0.7217  1.9433
 8709TIP3    H226092   0.811   2.045   3.141  1.6679 -0.0966  0.9772
 8710TIP3   OH226093   4.952   2.061   4.203 -0.2641 -0.4449 -0.1606
 8710TIP3    H126094   4.937   1.968   4.183 -1.2444 -0.1026 -1.0802
 8710TIP3    H226095   4.878   2.085   4.259  1.6803 -1.0131  2.8700
 8711TIP3   OH226096   3.260   5.859   1.305  0.4418  0.0565  0.1512
 8711TIP3    H126097   3.337   5.804   1.297 -0.0139 -0.7634  1.0984
 8711TIP3    H226098   3.238   5.857   1.399 -0.8559  0.0778 -0.1225
 8712TIP3   OH226099   4.109   5.993   3.323 -0.4809 -0.4270 -0.8279
 8712TIP3    H126100   4.150   5.926   3.377  0.1485  0.5172 -0.1036
 8712TIP3    H226101   4.181   6.034   3.276 -0.2887  2.1410  1.4487
 8713TIP3   OH226102   0.247   4.224   4.281 -0.5424  0.0596 -0.0281
 8713TIP3    H126103   0.217   4.140   4.246 -0.9874 -0.1252  0.7801
 8713TIP3    H226104   0.290   4.202   4.363 -2.1587  0.7675  1.0625
 8714TIP3   OH226105   3.342   1.154   3.186  0.7322 -0.5244  0.3453
 8714TIP3    H126106   3.372   1.118   3.269  1.3497  1.3287  0.9671
 8714TIP3    H226107   3.419   1.153   3.130  0.2961 -1.8556 -0.2763
 8715TIP3   OH226108   1.633   5.382   0.900  0.0966  0.4602  0.3750
 8715TIP3    H126109   1.572   5.344   0.964  1.1520 -1.0308  0.5662
 8715TIP3    H226110   1.637   5.317   0.830 -0.3259  1.6420 -0.7737
 8716TIP3   OH226111   1.432   2.690   3.147  0.3519 -0.0006 -0.0519
 8716TIP3    H126112   1.362   2.685   3.212  0.0894  1.7319 -0.1604
 8716TIP3    H226113   1.431   2.605   3.103 -0.3489 -0.7163  1.2979
 8717TIP3   OH226114   2.403   3.515   4.233  0.1914 -0.2233  0.4122
 8717TIP3    H126115   2.448   3.587   4.277  0.7041  0.5218 -1.2318
 8717TIP3    H226116   2.343   3.558   4.172 -1.8869 -1.2056  1.6351
 8718TIP3   OH226117   0.787   6.031   3.447 -0.3774  0.4193 -0.1311
 8718TIP3    H126118   0.807   5.944   3.411 -1.1515 -0.9931  2.5549
 8718TIP3    H226119   0.782   6.088   3.370 -0.4045 -1.9961 -2.0681
 8719TIP3   OH226120   4.998   2.521   2.344 -0.1827  0.0797  0.3791
 8719TIP3    H126121   4.996   2.489   2.254  0.9325 -0.1885  0.4342
 8719TIP3    H226122   4.980   2.443   2.397  0.9302 -0.1608  0.4428
 8720TIP3   OH226123   6.675   2.789   2.121  0.0308 -0.0419 -0.0166
 8720TIP3    H126124   6.590   2.746   2.110 -0.5485  0.9576  0.3850
 8720TIP3    H226125   6.655   2.868   2.170  1.4727 -0.7847  1.9208
 8721TIP3   OH226126   1.998   6.625   3.473  0.8014  0.3545  0.2979
 8721TIP3    H126127   2.051   6.574   3.535  1.2469 -1.0898 -1.1936
 8721TIP3    H226128   1.953   6.690   3.527  2.8229  0.5713  1.8453
 8722TIP3   OH226129   5.711   1.084   4.136 -0.0879 -0.6932  0.0270
 8722TIP3    H126130   5.652   1.046   4.201 -0.3235 -1.9890 -0.8902
 8722TIP3    H226131   5.787   1.025   4.135  0.2056 -0.3202 -0.4084
 8723TIP3   OH226132   0.591   6.622   1.174  0.0523  0.7031  0.2232
 8723TIP3    H126133   0.605   6.671   1.255 -0.0240  1.7562 -0.3824
 8723TIP3    H226134   0.673   6.632   1.125  0.9166 -1.7155  1.0493
 8724TIP3   OH226135   5.426   4.435   3.028 -0.4535 -0.2893 -0.4796
 8724TIP3    H126136   5.443   4.374   3.100  0.4103  0.1542 -0.3038
 8724TIP3    H226137   5.499   4.496   3.030  0.5321 -1.3001 -2.8521
 8725TIP3   OH226138   7.139   3.615   3.649 -0.1562  0.2781  0.1069
 8725TIP3    H126139   7.070   3.571   3.600  0.5200 -0.7067 -0.0049
 8725TIP3    H226140   7.212   3.552   3.648  1.4475  2.0240 -1.4523
 8726TIP3   OH226141   1.274   2.258   4.408  0.6061 -0.6971 -0.1782
 8726TIP3    H126142   1.216   2.266   4.332 -1.2742  1.3608  1.3355
 8726TIP3    H226143   1.276   2.346   4.446 -0.8397 -2.0842  3.6780
 8727TIP3   OH226144   4.253   4.769   2.754  0.3396 -0.1433  0.2621
 8727TIP3    H126145   4.304   4.733   2.682 -0.3949 -0.6828  0.0077
 8727TIP3    H226146   4.170   4.795   2.715  0.6780  1.4703  0.5130
 8728TIP3   OH226147   3.109   1.370   4.538  0.2018 -0.6228  0.4010
 8728TIP3    H126148   3.200   1.381   4.565 -0.1634 -0.9627  1.8238
 8728TIP3    H226149   3.111   1.382   4.443  1.5863  0.2576  0.5092
 8729TIP3   OH226150   3.944   2.896   2.344  0.0496  0.3554 -0.2184
 8729TIP3    H126151   3.908   2.853   2.267  0.1256 -2.4420  1.1934
 8729TIP3    H226152   3.876   2.958   2.371 -2.1056 -1.9808  0.1108
 8730TIP3   OH226153   0.089   3.667   4.051 -0.2572  0.4068  0.0789
 8730TIP3    H126154   0.120   3.577   4.042 -1.5158  0.0976 -1.7533
 8730TIP3    H226155   0.169   3.720   4.055  0.5686 -0.5351 -2.2678
 8731TIP3   OH226156   3.001   5.206   4.216 -0.3158  0.4785  0.1329
 8731TIP3    H126157   2.997   5.117   4.249 -1.8859  0.8303  0.9752
 8731TIP3    H226158   3.037   5.198   4.128 -0.4024 -0.9754  0.2128
 8732TIP3   OH226159   1.719   5.176   0.750 -0.5304  0.4553  0.2021
 8732TIP3    H126160   1.798   5.186   0.802 -0.9367  1.3537  0.6664
 8732TIP3    H226161   1.739   5.106   0.688  0.8674  1.1560 -0.1619
 8733TIP3   OH226162   1.822   5.507   4.480  0.2725 -0.5122  0.2401
 8733TIP3    H126163   1.776   5.540   4.402 -0.3875 -2.9232 -0.4636
 8733TIP3    H226164   1.915   5.524   4.461 -0.0509  1.6903  0.3528
 8734TIP3   OH226165   4.841   4.729   1.335 -0.7666  0.6332  0.1882
 8734TIP3    H126166   4.815   4.810   1.292  0.9795  1.8890  1.3553
 8734TIP3    H226167   4.796   4.729   1.419 -0.5190  0.5628  0.3250
 8735TIP3   OH226168   3.773   5.723   5.825 -0.8204 -0.3972 -0.6090
 8735TIP3    H126169   3.702   5.693   5.882 -1.1699  0.1425 -0.7488
 8735TIP3    H226170   3.783   5.816   5.847  1.0866 -0.8510  0.7276
 8736TIP3   OH226171   2.877   6.661   3.169 -0.6245  0.7565  0.2115
 8736TIP3    H126172   2.903   6.572   3.192 -0.0024  0.3820 -1.7304
 8736TIP3    H226173   2.958   6.711   3.170 -0.8457  1.1183  0.4834
 8737TIP3   OH226174   5.086   2.896   2.047 -0.6866 -0.1889  0.4643
 8737TIP3    H126175   5.113   2.844   2.123  0.2439  0.0036  0.2757
 8737TIP3    H226176   5.146   2.869   1.977  0.4654  1.7876  0.6061
 8738TIP3   OH226177   2.639   1.877   2.909  0.3798 -0.1193 -0.2080
 8738TIP3    H126178   2.710   1.872   2.974 -0.6703 -0.7866  0.9175
 8738TIP3    H226179   2.636   1.969   2.885 -0.2427  0.4832  1.9171
 8739TIP3   OH226180   5.689   4.063   5.000 -0.1648  0.2388 -0.0277
 8739TIP3    H126181   5.778   4.069   5.033  0.2483 -0.8789 -0.8715
 8739TIP3    H226182   5.657   3.978   5.032 -1.1337  0.8433  0.7030
 8740TIP3   OH226183   0.535   3.955   3.362 -0.2444  0.4391  0.5127
 8740TIP3    H126184   0.460   3.902   3.388 -1.1030  1.3856  0.0070
 8740TIP3    H226185   0.544   3.940   3.268 -1.0599  1.8765  0.1932
 8741TIP3   OH226186   3.373   6.452   4.844  0.1765  0.5774  0.0011
 8741TIP3    H126187   3.362   6.432   4.937 -0.0210  0.6172 -0.0121
 8741TIP3    H226188   3.323   6.385   4.798  2.6005 -1.2208 -0.2111
 8742TIP3   OH226189   5.697   3.103   1.175 -0.3114 -0.3634  0.2090
 8742TIP3    H126190   5.653   3.038   1.120  0.0382 -1.9638  1.7041
 8742TIP3    H226191   5.769   3.136   1.122 -1.8989  0.6145 -1.4445
 8743TIP3   OH226192   3.849   4.982   4.151 -0.5674  0.0933  0.8498
 8743TIP3    H126193   3.831   5.069   4.187  2.1252  1.2682 -0.3153
 8743TIP3    H226194   3.945   4.976   4.152 -0.6104 -2.0106 -1.0539
 8744TIP3   OH226195   6.464   6.173   5.660 -0.4597 -0.1904  0.1149
 8744TIP3    H126196   6.462   6.221   5.577 -1.2131 -0.0179  0.2326
 8744TIP3    H226197   6.548   6.126   5.657 -0.3117  0.0951 -0.5822
 8745TIP3   OH226198   6.027   0.831   2.897  0.4206  0.0992  0.1615
 8745TIP3    H126199   6.101   0.790   2.941  0.5204 -1.6338 -1.5133
 8745TIP3    H226200   5.960   0.763   2.892 -0.4749  0.9815 -0.2475
 8746TIP3   OH226201   0.222   4.479   3.462 -0.4172 -0.3119 -0.2392
 8746TIP3    H126202   0.301   4.446   3.505 -1.1322  0.3335  1.6711
 8746TIP3    H226203   0.205   4.564   3.502 -1.0574  0.4397 -1.9724
 8747TIP3   OH226204   3.512   2.220   3.552  0.6120 -0.6816 -0.3015
 8747TIP3    H126205   3.493   2.182   3.466  0.2191 -1.3071  0.0525
 8747TIP3    H226206   3.561   2.300   3.533  1.4994 -1.3805 -1.0655
 8748TIP3   OH226207   3.905   3.247   1.340  0.4133 -0.9012  0.1940
 8748TIP3    H126208   3.978   3.297   1.304  0.8613 -0.7534  1.2565
 8748TIP3    H226209   3.925   3.240   1.433 -1.6819  0.4882  0.8413
 8749TIP3   OH226210   5.391   2.879   5.544 -0.5112 -0.0842  0.1172
 8749TIP3    H126211   5.457   2.948   5.532 -0.1477 -0.2394  1.1534
 8749TIP3    H226212   5.317   2.908   5.491 -0.5442  1.3600  0.8906
 8750TIP3   OH226213   3.611   3.968   4.225  0.0969 -0.7132  0.3794
 8750TIP3    H126214   3.680   3.904   4.238  2.0962  0.6565 -2.4995
 8750TIP3    H226215   3.650   4.051   4.251 -1.7712 -0.2828  2.1222
 8751TIP3   OH226216   1.266   2.217   2.658  0.2622  0.7978  0.4618
 8751TIP3    H126217   1.319   2.277   2.605  0.8177  0.0387  0.1346
 8751TIP3    H226218   1.311   2.214   2.742  1.7892 -1.1919 -0.3664
 8752TIP3   OH226219   7.086   5.454   0.411  0.2464  0.1094 -0.3541
 8752TIP3    H126220   7.167   5.419   0.373  2.1608  0.2563  3.1500
 8752TIP3    H226221   7.113   5.492   0.495 -3.3119  1.2216  0.4773
 8753TIP3   OH226222   3.438   4.460   1.776 -0.2608 -0.1955  0.5335
 8753TIP3    H126223   3.350   4.430   1.753 -0.7704  0.7272  1.1973
 8753TIP3    H226224   3.428   4.495   1.865  0.3282  1.7482 -0.1295
 8754TIP3   OH226225   2.203   0.735   3.916 -0.8644 -0.2143 -0.5887
 8754TIP3    H126226   2.221   0.705   3.827  0.7326 -0.7197 -0.1399
 8754TIP3    H226227   2.290   0.756   3.952 -1.5570  0.8296  0.5535
 8755TIP3   OH226228   1.865   0.778   0.735 -0.4059  0.2926  0.0390
 8755TIP3    H126229   1.920   0.838   0.786  0.7875 -0.2383 -0.5953
 8755TIP3    H226230   1.901   0.691   0.752 -0.0786  0.0899 -1.5644
 8756TIP3   OH226231   6.614   3.339   5.452 -0.5074 -0.6817 -0.2591
 8756TIP3    H126232   6.595   3.401   5.381 -1.3079 -0.1973  0.3625
 8756TIP3    H226233   6.531   3.329   5.498 -0.0806 -1.2593  0.4066
 8757TIP3   OH226234   7.104   4.776   1.907  0.6887  0.4352  0.5958
 8757TIP3    H126235   7.020   4.822   1.913  0.7002  0.4344  0.7709
 8757TIP3    H226236   7.088   4.691   1.947 -0.3264 -1.1642 -2.8578
 8758TIP3   OH226237   7.085   1.736   0.234  0.5082 -0.0851  0.0628
 8758TIP3    H126238   7.073   1.807   0.171 -2.1014 -0.8722 -0.4860
 8758TIP3    H226239   7.002   1.688   0.231  0.9765 -1.2396  2.7863
 8759TIP3   OH226240   3.690   0.651   3.070 -0.3179 -0.4671  0.0780
 8759TIP3    H126241   3.602   0.638   3.034 -1.5772 -0.7090  3.0155
 8759TIP3    H226242   3.697   0.587   3.140  0.9806  1.5624  1.9232
 8760TIP3   OH226243   4.355   1.261   4.032 -0.4048 -0.0496  0.4920
 8760TIP3    H126244   4.363   1.197   4.103  1.5783  0.5616  0.8906
 8760TIP3    H226245   4.443   1.295   4.021 -0.7236  0.1169 -2.0928
 8761TIP3   OH226246   2.747   2.860   3.264  0.1954 -0.2950  0.4002
 8761TIP3    H126247   2.728   2.918   3.338 -0.3699  0.0094  0.0171
 8761TIP3    H226248   2.661   2.838   3.228  0.4437 -0.8192  0.1141
 8762TIP3   OH226249   1.021   3.442   1.164 -0.0434  0.0609 -0.9159
 8762TIP3    H126250   0.936   3.485   1.172 -0.7596 -1.5514  0.9644
 8762TIP3    H226251   0.999   3.349   1.153  1.4740 -0.3654 -0.4852
 8763TIP3   OH226252   6.201   1.639   1.740 -0.1055  0.1140  0.2221
 8763TIP3    H126253   6.221   1.731   1.754 -1.1759  0.0749  2.4071
 8763TIP3    H226254   6.188   1.603   1.828 -0.2317 -2.0058 -0.5971
 8764TIP3   OH226255   5.084   4.485   3.561  0.7460 -0.3120 -0.2301
 8764TIP3    H126256   5.140   4.535   3.502  1.9984  0.6569  1.6794
 8764TIP3    H226257   5.030   4.550   3.604  0.8561 -0.8221  0.7045
 8765TIP3   OH226258   6.773   2.279   2.404  0.0942  0.1047  0.0886
 8765TIP3    H126259   6.793   2.372   2.413 -0.8469  0.1958  1.5913
 8765TIP3    H226260   6.708   2.262   2.473  1.7646 -2.1169  1.2249
 8766TIP3   OH226261   5.118   4.048   2.690 -0.1676  0.4041 -0.1580
 8766TIP3    H126262   5.200   4.014   2.654 -0.1489  1.3152 -1.0154
 8766TIP3    H226263   5.072   4.084   2.615 -0.9880  0.6479  0.4501
 8767TIP3   OH226264   4.647   0.383   3.091  0.2386 -0.5866 -0.0937
 8767TIP3    H126265   4.583   0.412   3.026  0.1889 -0.2146  0.1170
 8767TIP3    H226266   4.694   0.463   3.116 -0.2394 -0.5899  0.8686
 8768TIP3   OH226267   2.642   5.722   3.876 -0.0653  0.2649  0.1331
 8768TIP3    H126268   2.568   5.778   3.855 -1.0285 -0.6879  0.8706
 8768TIP3    H226269   2.716   5.782   3.886 -0.5008  1.1319 -1.6051
 8769TIP3   OH226270   5.474   4.711   0.002 -0.5401  0.0359  0.3518
 8769TIP3    H126271   5.392   4.726   0.050 -0.0593  1.0808  0.8727
 8769TIP3    H226272   5.538   4.766   0.046  0.6200 -1.3118  0.3903
 8770TIP3   OH226273   0.528   5.103   0.339  0.0018 -0.4071 -0.2419
 8770TIP3    H126274   0.539   5.129   0.247  1.4527 -1.2153 -0.3375
 8770TIP3    H226275   0.491   5.015   0.334  1.1259 -0.9120 -0.1164
 8771TIP3   OH226276   6.465   0.651   4.238  0.3574  0.2443 -0.7077
 8771TIP3    H126277   6.403   0.723   4.229  0.3207  0.3516  0.3233
 8771TIP3    H226278   6.532   0.683   4.298 -0.2593 -0.9464  0.6817
 8772TIP3   OH226279   6.202   5.028   2.683  0.0177 -0.1955  0.3260
 8772TIP3    H126280   6.193   5.006   2.590 -1.6695 -2.8123  1.0117
 8772TIP3    H226281   6.180   5.121   2.687 -1.6488 -0.4152 -1.6989
 8773TIP3   OH226282   3.206   6.029   1.088  0.0799 -0.2205 -0.0155
 8773TIP3    H126283   3.288   6.078   1.080  0.2317 -0.4338  0.2023
 8773TIP3    H226284   3.211   5.988   1.175  0.0770 -0.8303 -0.3010
 8774TIP3   OH226285   0.103   3.735   4.568  0.4583 -0.0013  0.5309
 8774TIP3    H126286   0.059   3.675   4.508 -1.2437  1.1918  0.4978
 8774TIP3    H226287   0.195   3.709   4.566  0.2557 -0.7466 -1.6846
 8775TIP3   OH226288   3.921   0.400   2.455  0.3953 -0.9378 -0.1798
 8775TIP3    H126289   3.971   0.318   2.449  1.7946 -0.0410 -1.3086
 8775TIP3    H226290   3.920   0.420   2.549  4.0669  0.0761 -0.2198
 8776TIP3   OH226291   4.468   0.993   0.463  0.7682 -0.3975  0.3183
 8776TIP3    H126292   4.466   0.921   0.526  0.5125 -0.7500 -0.0876
 8776TIP3    H226293   4.410   0.965   0.392  2.0105 -0.5600 -0.6716
 8777TIP3   OH226294   1.879   0.505   5.485 -0.1414 -0.1057  0.2460
 8777TIP3    H126295   1.825   0.553   5.421 -0.8369 -0.4420  0.5617
 8777TIP3    H226296   1.902   0.423   5.440 -0.1939 -0.1139  0.2332
 8778TIP3   OH226297   4.269   4.915   5.677  0.2633 -0.0930  0.1235
 8778TIP3    H126298   4.222   4.940   5.756  1.5249 -0.7192  1.1036
 8778TIP3    H226299   4.337   4.982   5.668 -1.0242  1.0777 -1.5452
 8779TIP3   OH226300   2.143   0.665   5.515 -0.1659 -0.0993 -0.0757
 8779TIP3    H126301   2.091   0.587   5.496 -0.3772  0.0570 -0.1387
 8779TIP3    H226302   2.170   0.697   5.429  0.1500 -0.2572 -0.0374
 8780TIP3   OH226303   6.129   3.098   4.041 -0.2170  0.1596  0.1717
 8780TIP3    H126304   6.099   3.031   3.980 -0.4632 -0.1128  0.5810
 8780TIP3    H226305   6.223   3.103   4.027 -0.1564 -0.4578  0.3149
 8781TIP3   OH226306   5.644   2.320   2.919 -0.2458 -0.1045 -0.1424
 8781TIP3    H126307   5.644   2.415   2.927 -0.7265 -0.0061 -1.1377
 8781TIP3    H226308   5.734   2.298   2.892 -0.0172  0.0172  0.5054
 8782TIP3   OH226309   0.174   0.353   2.627  0.0612 -0.8463  0.2822
 8782TIP3    H126310   0.124   0.427   2.661  1.4661 -0.1830  1.0046
 8782TIP3    H226311   0.113   0.279   2.630 -1.0720  0.0765  0.4480
 8783TIP3   OH226312   6.624   6.761   0.730 -0.2549 -0.7039 -0.3360
 8783TIP3    H126313   6.700   6.719   0.770  0.5791  0.9799 -0.0212
 8783TIP3    H226314   6.645   6.766   0.637  1.1806  1.8237  0.0240
 8784TIP3   OH226315   4.150   4.479   5.389 -0.7616  0.0468 -0.2180
 8784TIP3    H126316   4.074   4.438   5.429  0.1296 -0.3207  1.1782
 8784TIP3    H226317   4.224   4.422   5.413  0.3111  1.7054  0.6265
 8785TIP3   OH226318   2.959   0.980   0.440 -0.6242  0.2470  0.1521
 8785TIP3    H126319   2.995   0.991   0.528  2.0977 -0.4345 -0.7811
 8785TIP3    H226320   2.969   0.887   0.421 -2.7458  0.0600 -0.3054
 8786TIP3   OH226321   6.189   2.990   0.410 -0.8101 -0.2911 -0.4232
 8786TIP3    H126322   6.255   3.032   0.465 -0.7083 -0.2922 -0.5435
 8786TIP3    H226323   6.109   2.994   0.461 -1.0939  1.1662 -0.9484
 8787TIP3   OH226324   5.198   3.279   2.241  0.1449 -0.1926 -0.3567
 8787TIP3    H126325   5.134   3.348   2.258  1.1234  0.7580 -0.4008
 8787TIP3    H226326   5.245   3.268   2.324  0.7976  0.0625 -0.6793
 8788TIP3   OH226327   4.695   1.050   2.029 -0.1058 -0.0863  0.4497
 8788TIP3    H126328   4.753   1.011   2.094  2.7968 -0.4469 -2.1019
 8788TIP3    H226329   4.694   1.144   2.049 -0.1147 -0.3191  1.5715
 8789TIP3   OH226330   0.650   1.274   0.535 -0.5054 -0.7948 -0.1440
 8789TIP3    H126331   0.630   1.326   0.613  1.4286 -1.0485  0.5765
 8789TIP3    H226332   0.745   1.266   0.535 -0.5973 -2.5445 -1.4107
 8790TIP3   OH226333   2.499   2.083   4.721 -0.2889  0.2212  0.0601
 8790TIP3    H126334   2.494   2.112   4.630  1.2804 -1.1111 -0.5021
 8790TIP3    H226335   2.545   2.153   4.767 -0.6397  0.6766 -0.2865
 8791TIP3   OH226336   6.092   0.372   1.762  0.0446 -0.1439  0.0101
 8791TIP3    H126337   6.161   0.435   1.740  1.0093 -0.8636  0.8714
 8791TIP3    H226338   6.091   0.311   1.688 -0.6390  0.6568 -0.6528
 8792TIP3   OH226339   3.248   1.805   1.479  0.2928  0.3929  0.1045
 8792TIP3    H126340   3.305   1.730   1.488 -0.0582  0.0728 -0.2788
 8792TIP3    H226341   3.226   1.830   1.569  0.3521 -0.0032  0.2306
 8793TIP3   OH226342   3.087   5.801   3.131  0.2856 -0.5142  0.2240
 8793TIP3    H126343   3.026   5.874   3.117  0.9554  0.5825  2.4712
 8793TIP3    H226344   3.081   5.783   3.225  1.6139 -2.0311  0.0553
 8794TIP3   OH226345   0.418   5.309   5.664  0.5462  0.0008  0.0240
 8794TIP3    H126346   0.323   5.298   5.673  0.4971  0.2374 -0.2140
 8794TIP3    H226347   0.429   5.369   5.591  0.8951 -0.3999 -0.2606
 8795TIP3   OH226348   4.881   2.116   0.556 -0.1756  0.2952 -0.3810
 8795TIP3    H126349   4.956   2.155   0.511  0.1160 -1.7215 -1.8089
 8795TIP3    H226350   4.805   2.144   0.506 -0.3065  1.4773  0.4393
 8796TIP3   OH226351   6.915   2.522   5.544  0.0724  0.3250  0.8324
 8796TIP3    H126352   6.927   2.595   5.483  1.0665 -0.7428 -0.3165
 8796TIP3    H226353   6.989   2.530   5.605  1.2988 -0.7535 -0.4405
 8797TIP3   OH226354   0.439   3.506   0.833 -0.2837  0.0646  0.5011
 8797TIP3    H126355   0.419   3.453   0.756 -0.4445 -1.7634  1.7642
 8797TIP3    H226356   0.356   3.549   0.854 -0.4137  0.0223  0.0950
 8798TIP3   OH226357   3.757   4.316   2.715 -0.2761 -0.1085  0.1130
 8798TIP3    H126358   3.779   4.329   2.623 -3.4824 -1.2413 -0.9498
 8798TIP3    H226359   3.700   4.389   2.737  1.4554  0.8611  1.6855
 8799TIP3   OH226360   7.046   4.204   3.947 -0.0315 -0.2533 -0.1626
 8799TIP3    H126361   7.047   4.258   4.027  1.0351  0.5770 -0.6950
 8799TIP3    H226362   6.954   4.193   3.926 -0.4416 -1.8422  2.0413
 8800TIP3   OH226363   2.247   0.244   5.376 -0.4697  0.4724 -0.6219
 8800TIP3    H126364   2.334   0.262   5.341 -0.2581 -0.9195 -0.8363
 8800TIP3    H226365   2.191   0.235   5.300 -0.5961  0.3320 -0.5129
 8801TIP3   OH226366   2.879   1.531   1.807 -0.1962 -0.1827  0.3072
 8801TIP3    H126367   2.908   1.504   1.720  2.5553 -3.0966  1.9376
 8801TIP3    H226368   2.935   1.605   1.829 -1.0504  0.7053 -0.4318
 8802TIP3   OH226369   2.228   2.335   3.401  0.5657 -0.8756  0.1641
 8802TIP3    H126370   2.180   2.325   3.483 -0.1389 -0.1908 -0.1526
 8802TIP3    H226371   2.211   2.425   3.374  3.1572 -0.1286  0.7536
 8803TIP3   OH226372   4.579   4.142   0.161  0.1250  0.2556  0.0249
 8803TIP3    H126373   4.531   4.210   0.114 -0.7697 -0.4845 -0.1599
 8803TIP3    H226374   4.653   4.188   0.201  0.0551  1.1644 -0.8549
 8804TIP3   OH226375   3.194   5.674   5.511  0.8485  0.3648  0.0637
 8804TIP3    H126376   3.191   5.587   5.470  1.8163  0.0615  0.6139
 8804TIP3    H226377   3.164   5.659   5.601 -2.1333  1.1726 -0.6760
 8805TIP3   OH226378   0.900   5.810   3.991 -0.0268 -0.5522  0.2594
 8805TIP3    H126379   0.843   5.791   3.917 -1.5913  0.0769  1.2771
 8805TIP3    H226380   0.870   5.751   4.061 -0.6676  1.0436  1.3823
 8806TIP3   OH226381   1.158   6.328   2.847 -0.3077 -0.2834  0.0226
 8806TIP3    H126382   1.229   6.332   2.783 -0.4714 -1.1603 -0.2300
 8806TIP3    H226383   1.078   6.320   2.794 -0.7567  1.9902  0.2522
 8807TIP3   OH226384   2.987   2.472   0.049  0.2500 -0.2705 -0.5807
 8807TIP3    H126385   2.944   2.535   0.107  0.1739 -1.0399  0.2216
 8807TIP3    H226386   2.923   2.452  -0.018 -0.8888 -1.7937  0.8804
 8808TIP3   OH226387   4.689   4.854   4.247  0.2155  0.0806  0.5346
 8808TIP3    H126388   4.597   4.845   4.270 -0.0791  0.0852 -0.6130
 8808TIP3    H226389   4.693   4.837   4.153  1.3378  0.4106  0.5022
 8809TIP3   OH226390   1.426   0.741   1.639  0.1631  0.4787 -0.0707
 8809TIP3    H126391   1.333   0.755   1.658 -0.0427 -0.2191 -0.5678
 8809TIP3    H226392   1.457   0.686   1.711  0.0679  0.2560 -0.2023
 8810TIP3   OH226393   0.190   4.992   5.541 -0.5540  0.0411 -0.3759
 8810TIP3    H126394   0.153   5.027   5.460 -0.6712  0.2948 -0.2165
 8810TIP3    H226395   0.132   4.921   5.566  0.5783 -1.3580 -1.5579
 8811TIP3   OH226396   5.467   4.237   3.234  0.3586  0.2961 -0.3900
 8811TIP3    H126397   5.537   4.174   3.250  1.4107  0.8037 -2.6294
 8811TIP3    H226398   5.470   4.296   3.310  0.8218 -1.0068  0.6403
 8812TIP3   OH226399   0.721   1.299   4.164  0.7024  0.7690  0.4950
 8812TIP3    H126400   0.646   1.358   4.172  0.0797  0.1880 -0.6846
 8812TIP3    H226401   0.786   1.349   4.115 -0.1485  0.2584 -1.2626
 8813TIP3   OH226402   1.002   0.090   5.062 -0.6288  0.0435  0.0623
 8813TIP3    H126403   0.919   0.063   5.102 -0.4853 -0.7858 -0.1762
 8813TIP3    H226404   1.032   0.012   5.016  0.2106  0.3880  0.0219
 8814TIP3   OH226405   3.180   6.805  -0.006 -0.4825 -0.1423 -0.1441
 8814TIP3    H126406   3.187   6.768   0.082  0.3691  1.1762  0.3854
 8814TIP3    H226407   3.235   6.750  -0.061 -0.8282 -0.8299  0.1894
 8815TIP3   OH226408   3.880   6.324   4.930 -0.1726 -0.3151 -0.6521
 8815TIP3    H126409   3.890   6.283   4.844  1.6928  0.3902 -0.8417
 8815TIP3    H226410   3.829   6.262   4.981 -1.0396 -0.9008 -2.1697
 8816TIP3   OH226411   5.942   3.563   1.069 -0.3065  0.5021 -0.5135
 8816TIP3    H126412   5.915   3.546   0.979  0.1686  1.8053 -0.9315
 8816TIP3    H226413   5.899   3.646   1.092  1.1655  1.2427 -0.2808
 8817TIP3   OH226414   3.191   5.055   2.109 -0.7881  0.2878 -0.1903
 8817TIP3    H126415   3.206   5.145   2.081  0.2727  0.2262  0.1401
 8817TIP3    H226416   3.191   5.059   2.205  1.7408 -0.4063 -0.1094
 8818TIP3   OH226417   6.016   3.936   1.175 -0.6971  0.0628 -0.0050
 8818TIP3    H126418   6.095   3.898   1.137 -0.6353 -1.3961  1.4620
 8818TIP3    H226419   5.961   3.958   1.100  0.4794 -0.2602 -0.9920
 8819TIP3   OH226420   2.312   4.152   3.877 -0.2706 -0.2376  0.2535
 8819TIP3    H126421   2.331   4.239   3.841  0.5533 -0.2890  0.5342
 8819TIP3    H226422   2.324   4.092   3.803  0.7495 -0.2715  0.4289
 8820TIP3   OH226423   6.297   2.631   0.782  0.6160  0.3243  0.3638
 8820TIP3    H126424   6.305   2.679   0.864 -1.6218  0.1081  0.7884
 8820TIP3    H226425   6.360   2.671   0.723  1.9950  0.7434  2.0557
 8821TIP3   OH226426   6.457   5.696   4.315 -0.1499 -0.2838  0.0928
 8821TIP3    H126427   6.486   5.750   4.389 -0.0704 -0.7930  0.4410
 8821TIP3    H226428   6.424   5.759   4.251  0.0810  0.1878  0.4275
 8822TIP3   OH226429   7.254   1.609   3.480 -0.0967  0.4599 -0.2629
 8822TIP3    H126430   7.167   1.631   3.514 -0.5489 -2.2534  0.5723
 8822TIP3    H226431   7.239   1.590   3.387 -0.7534 -1.3241  0.1524
 8823TIP3   OH226432   6.297   2.255   3.770 -0.2535  0.1878  0.1220
 8823TIP3    H126433   6.353   2.318   3.724  1.1594 -0.4094  0.9367
 8823TIP3    H226434   6.343   2.239   3.852 -0.8188 -1.5363  0.1367
 8824TIP3   OH226435   0.654   3.889   4.371 -0.1235  0.6427 -0.4396
 8824TIP3    H126436   0.572   3.840   4.369  0.8610 -1.0491 -1.3137
 8824TIP3    H226437   0.700   3.854   4.447 -0.4786  2.1281  0.5047
 8825TIP3   OH226438   0.886   3.884   2.337 -0.0022  0.3025  0.4651
 8825TIP3    H126439   0.930   3.919   2.415  1.6291 -0.7579  0.0729
 8825TIP3    H226440   0.795   3.871   2.365  0.7487 -1.0245  2.5789
 8826TIP3   OH226441   6.239   3.300   0.963  0.4435  0.4210  0.6250
 8826TIP3    H126442   6.169   3.364   0.948  1.1216  1.0747  0.2034
 8826TIP3    H226443   6.217   3.227   0.906  1.1299  1.4423 -1.0307
 8827TIP3   OH226444   6.025   3.312   0.780  0.0645  0.6285 -0.0425
 8827TIP3    H126445   5.990   3.399   0.761 -1.1866 -0.2378 -2.0522
 8827TIP3    H226446   6.042   3.273   0.694 -1.6832 -1.9862  0.6657
 8828TIP3   OH226447   6.877   4.346   5.415  0.2202 -0.0511 -0.1657
 8828TIP3    H126448   6.894   4.419   5.355 -1.6649 -1.7344 -3.0567
 8828TIP3    H226449   6.797   4.372   5.462  1.5638  1.1697  1.5689
 8829TIP3   OH226450   5.678   5.461   2.238 -0.2664 -0.6889 -0.1340
 8829TIP3    H126451   5.636   5.411   2.308  0.4077 -0.1399  0.6787
 8829TIP3    H226452   5.624   5.539   2.228  0.5651  0.0615  0.9741
 8830TIP3   OH226453   1.529   5.700   0.958  0.1303  0.6269  0.2813
 8830TIP3    H126454   1.478   5.693   0.878 -0.7362  3.4661  0.5055
 8830TIP3    H226455   1.590   5.626   0.953 -2.2380 -1.4069 -1.2032
 8831TIP3   OH226456   0.871   2.895   2.333 -0.4308 -0.6428  0.5365
 8831TIP3    H126457   0.929   2.841   2.279 -1.2003  0.1216 -1.0961
 8831TIP3    H226458   0.785   2.853   2.325 -0.6401 -0.2747  0.8371
 8832TIP3   OH226459   5.597   6.466   0.050  0.3188 -0.2395 -0.2120
 8832TIP3    H126460   5.673   6.417   0.017 -0.4856 -0.1451 -2.4102
 8832TIP3    H226461   5.633   6.548   0.083  1.2729 -0.5951 -0.3412
 8833TIP3   OH226462   3.588   0.166   0.264 -0.1625 -0.0663 -0.2833
 8833TIP3    H126463   3.492   0.167   0.271 -0.0765 -1.6585  2.7449
 8833TIP3    H226464   3.613   0.258   0.266 -1.6171  0.4138 -1.9235
 8834TIP3   OH226465   0.450   1.101   4.737  0.2622  0.2627  0.1941
 8834TIP3    H126466   0.465   1.194   4.753 -0.7820  0.2017  1.7542
 8834TIP3    H226467   0.356   1.089   4.753  1.1056 -1.9990  5.6268
 8835TIP3   OH226468   1.769   6.529   4.056 -0.0225 -0.2226  0.1466
 8835TIP3    H126469   1.746   6.614   4.093  1.3781  0.6144 -0.8146
 8835TIP3    H226470   1.807   6.481   4.129  0.0102  0.3131  0.4900
 8836TIP3   OH226471   0.107   2.725   2.298  0.1668  0.0849 -0.2010
 8836TIP3    H126472   0.140   2.812   2.275 -0.7172  1.2268  2.4976
 8836TIP3    H226473   0.080   2.687   2.214  3.5767  0.9995 -1.9121
 8837TIP3   OH226474   4.810   1.245   2.448 -0.5254  0.6451  0.0620
 8837TIP3    H126475   4.841   1.175   2.506  1.5888  0.5900 -1.0207
 8837TIP3    H226476   4.743   1.203   2.394 -2.8817  0.8031  2.6213
 8838TIP3   OH226477   0.422   1.733   0.247 -0.0072 -0.1998  0.0254
 8838TIP3    H126478   0.353   1.787   0.208 -1.3633 -1.4326  0.6095
 8838TIP3    H226479   0.459   1.683   0.174  1.2565  1.4488 -0.5192
 8839TIP3   OH226480   4.147   5.874   2.494 -0.0564  0.2742  0.0248
 8839TIP3    H126481   4.092   5.928   2.551  0.2167  1.7792 -1.0738
 8839TIP3    H226482   4.193   5.816   2.554 -2.3171 -0.5991  1.0371
 8840TIP3   OH226483   0.128   2.912   4.062  0.7194 -0.3370  0.0522
 8840TIP3    H126484   0.132   2.983   3.998  2.2996 -0.8632 -0.4879
 8840TIP3    H226485   0.205   2.925   4.118  0.6786 -1.2566  0.3489
 8841TIP3   OH226486   4.850   6.554   3.961 -0.6359  0.6796 -0.0254
 8841TIP3    H126487   4.901   6.634   3.947  1.2323 -0.2856  0.8535
 8841TIP3    H226488   4.864   6.503   3.881 -0.4178  0.5343  0.1024
 8842TIP3   OH226489   1.944   1.970   3.789  0.0153 -0.1239 -0.5352
 8842TIP3    H126490   1.893   1.891   3.775 -0.9765  0.5046 -0.5585
 8842TIP3    H226491   2.013   1.966   3.722  0.0300 -0.9961 -0.4811
 8843TIP3   OH226492   4.287   6.634   1.380 -0.4599  0.1624 -0.0720
 8843TIP3    H126493   4.230   6.588   1.318  0.5787 -1.0192 -0.1851
 8843TIP3    H226494   4.226   6.687   1.432 -1.5865 -0.4671 -0.6883
 8844TIP3   OH226495   6.401   3.661   4.033 -0.1766  0.8430  0.2105
 8844TIP3    H126496   6.415   3.716   4.110 -0.7764  0.4003  0.6465
 8844TIP3    H226497   6.326   3.606   4.057 -1.2182  1.5943 -1.1620
 8845TIP3   OH226498   3.201   5.321   2.043  0.1138  0.3842  0.1001
 8845TIP3    H126499   3.154   5.370   1.975  0.5006 -0.5060 -0.8294
 8845TIP3    H226500   3.196   5.377   2.120 -1.1748  0.9846 -0.3895
 8846TIP3   OH226501   4.289   5.698   2.315  0.1913  0.0097 -0.4635
 8846TIP3    H126502   4.335   5.772   2.275  0.1394  0.7849  0.8482
 8846TIP3    H226503   4.242   5.736   2.389 -0.3493 -1.2417 -0.1321
 8847TIP3   OH226504   1.463   4.712   4.226 -0.4548 -0.2093  0.0969
 8847TIP3    H126505   1.386   4.660   4.250 -0.6856 -0.4712 -1.1510
 8847TIP3    H226506   1.430   4.801   4.217 -0.6428 -0.3409 -0.5494
 8848TIP3   OH226507   3.564   5.115   4.594  0.2573  0.2319  0.1019
 8848TIP3    H126508   3.541   5.029   4.559 -0.9233  0.5190  0.1440
 8848TIP3    H226509   3.628   5.150   4.531  0.8195 -0.6981  0.1339
 8849TIP3   OH226510   0.473   3.336   2.446 -0.4156  0.1944 -0.1395
 8849TIP3    H126511   0.416   3.259   2.448 -0.9381  0.5470 -0.9951
 8849TIP3    H226512   0.463   3.371   2.357  1.0377  0.3336 -0.2758
 8850TIP3   OH226513   6.991   0.413   1.251  0.1244  0.2261  0.4225
 8850TIP3    H126514   6.900   0.411   1.278 -0.4098 -0.3585 -1.3137
 8850TIP3    H226515   7.001   0.496   1.205 -0.2956 -0.8292 -1.7150
 8851TIP3   OH226516   0.718   2.671   5.113  0.4538  0.1184  0.0587
 8851TIP3    H126517   0.659   2.680   5.188  0.7589  0.7852  0.2310
 8851TIP3    H226518   0.804   2.656   5.153  0.5914  0.3299 -0.1561
 8852TIP3   OH226519   5.186   5.946   2.958  0.0072 -0.5482  0.1175
 8852TIP3    H126520   5.281   5.939   2.947 -0.1548 -0.7812 -1.1847
 8852TIP3    H226521   5.175   6.020   3.019  0.9689  0.6097 -1.0605
 8853TIP3   OH226522   5.286   0.582   5.863  0.4154 -0.1429 -0.4570
 8853TIP3    H126523   5.373   0.552   5.887  0.2020 -1.5005 -1.2482
 8853TIP3    H226524   5.264   0.649   5.928  1.4718 -0.7935  0.5919
 8854TIP3   OH226525   5.167   2.690   2.911 -0.0483  0.1261  0.8578
 8854TIP3    H126526   5.229   2.630   2.953  0.0520  1.8268  3.3901
 8854TIP3    H226527   5.085   2.677   2.959 -0.4331  0.9021  0.4316
 8855TIP3   OH226528   6.003   4.691   2.484  0.2504 -0.0415 -0.1926
 8855TIP3    H126529   5.977   4.682   2.576 -0.0824  2.3928  0.0159
 8855TIP3    H226530   6.096   4.666   2.483 -0.1350 -1.6545  0.4484
 8856TIP3   OH226531   7.054   2.809   1.531 -0.2883 -0.1454  0.5609
 8856TIP3    H126532   7.069   2.822   1.437 -0.2371 -1.1920  0.4197
 8856TIP3    H226533   6.975   2.859   1.549 -0.3377  0.0073 -0.0542
 8857TIP3   OH226534   3.985   5.330   2.032  0.3051 -0.4605 -0.4823
 8857TIP3    H126535   4.028   5.415   2.021 -1.3446  0.3466 -1.1519
 8857TIP3    H226536   3.982   5.317   2.126  0.1933  0.4681 -0.3435
 8858TIP3   OH226537   6.732   4.791   3.816  0.1609  0.0984  0.1384
 8858TIP3    H126538   6.655   4.830   3.857  0.0436 -1.1654  1.2141
 8858TIP3    H226539   6.707   4.777   3.724 -0.7463  0.0880  0.3809
 8859TIP3   OH226540   0.134   3.623   3.420 -0.1111 -0.3820 -0.1259
 8859TIP3    H126541   0.105   3.589   3.335  1.3118  0.0244 -0.8123
 8859TIP3    H226542   0.112   3.554   3.482 -1.4591 -0.5641 -0.7636
 8860TIP3   OH226543   4.689   2.110   2.934 -0.5026 -0.4034 -0.4936
 8860TIP3    H126544   4.762   2.169   2.955 -0.6270 -0.4599  0.1242
 8860TIP3    H226545   4.614   2.147   2.981 -1.5746  1.2222 -3.2101
 8861TIP3   OH226546   5.028   5.749   1.857 -0.8321 -0.0045  0.6525
 8861TIP3    H126547   5.115   5.719   1.829 -1.4979 -1.8210  0.3917
 8861TIP3    H226548   5.001   5.812   1.790 -1.3690 -2.4547 -1.5918
 8862TIP3   OH226549   3.079   3.208   1.680 -0.3454 -0.0261  0.0835
 8862TIP3    H126550   3.164   3.232   1.717 -0.5770  1.4151 -0.2619
 8862TIP3    H226551   3.046   3.141   1.740  1.0933 -0.7345  0.1247
 8863TIP3   OH226552   0.868   4.435   3.589 -0.2523 -0.1676  0.3812
 8863TIP3    H126553   0.853   4.468   3.501 -0.3355 -3.0586 -0.8064
 8863TIP3    H226554   0.948   4.479   3.618 -0.2850  0.9353 -1.0717
 8864TIP3   OH226555   0.807   1.761   2.390  0.7776  0.0495 -0.0710
 8864TIP3    H126556   0.814   1.841   2.442  0.0505 -0.3656  0.6922
 8864TIP3    H226557   0.717   1.763   2.356  0.3307 -1.0259  0.9635
 8865TIP3   OH226558   0.361   2.980   4.194 -0.2555  0.1493  0.4443
 8865TIP3    H126559   0.430   2.996   4.129 -0.5098 -1.3586 -0.2586
 8865TIP3    H226560   0.408   2.973   4.277  0.6649 -1.8939 -0.1573
 8866TIP3   OH226561   7.075   2.576   1.265 -0.0106 -0.5413 -0.3141
 8866TIP3    H126562   7.167   2.549   1.267  0.0139 -0.5957 -1.4291
 8866TIP3    H226563   7.078   2.671   1.251 -0.1146 -0.0532  2.4318
 8867TIP3   OH226564   2.449   4.494   2.421 -0.3164  0.0061 -0.0361
 8867TIP3    H126565   2.522   4.556   2.418  1.9300 -2.4667 -2.1055
 8867TIP3    H226566   2.380   4.537   2.370  0.8930  1.1099 -0.8313
 8868TIP3   OH226567   5.166   5.259   5.042 -0.0997  0.1182 -0.3718
 8868TIP3    H126568   5.223   5.296   4.974 -2.0646  1.0651 -1.5816
 8868TIP3    H226569   5.086   5.311   5.037 -2.0441 -2.6711 -0.4004
 8869TIP3   OH226570   3.285   3.253   4.451  0.0560 -0.7196  0.0446
 8869TIP3    H126571   3.315   3.170   4.490 -1.5659 -0.7411  1.3467
 8869TIP3    H226572   3.195   3.263   4.482 -0.1662  0.9744 -1.0299
 8870TIP3   OH226573   6.297   1.600   2.016 -0.1531 -0.4030  0.0409
 8870TIP3    H126574   6.367   1.664   2.005 -0.3910  0.0253  0.9033
 8870TIP3    H226575   6.336   1.530   2.068 -0.2361 -0.3698  0.1492
 8871TIP3   OH226576   6.144   0.546   4.680  0.2333 -0.5681  0.0560
 8871TIP3    H126577   6.159   0.453   4.694  0.6562 -0.4955  0.0754
 8871TIP3    H226578   6.149   0.557   4.585  1.3657 -0.3636  0.1285
 8872TIP3   OH226579   1.548   1.044   2.617  0.1279  0.0068  0.1330
 8872TIP3    H126580   1.523   1.092   2.696 -1.1224  0.5187 -0.5425
 8872TIP3    H226581   1.643   1.034   2.624  0.0439  0.0325  1.6976
 8873TIP3   OH226582   3.901   2.537   4.000 -0.2281 -0.4367 -0.2835
 8873TIP3    H126583   3.862   2.590   3.931 -1.1346  0.0557  0.5703
 8873TIP3    H226584   3.842   2.548   4.075  0.3724 -1.4688  0.3732
 8874TIP3   OH226585   1.846   4.499   0.064  0.1112 -0.5434 -0.4449
 8874TIP3    H126586   1.904   4.490   0.140  0.0398 -0.9214 -0.4335
 8874TIP3    H226587   1.886   4.444  -0.003 -1.4921 -2.8113  0.3070
 8875TIP3   OH226588   6.790   3.409   1.925  0.4327  0.1783  0.3546
 8875TIP3    H126589   6.858   3.398   1.991  2.0431 -1.6739 -1.4917
 8875TIP3    H226590   6.818   3.484   1.873  0.4035  0.1948  0.3628
 8876TIP3   OH226591   5.112   2.973   4.770  0.2157 -0.1814 -0.3860
 8876TIP3    H126592   5.192   3.001   4.814  0.3021  0.1874 -0.7717
 8876TIP3    H226593   5.119   2.877   4.766  1.0601 -0.0979 -1.2158
 8877TIP3   OH226594   4.480   6.423   1.422  0.2731  0.0913 -0.2633
 8877TIP3    H126595   4.558   6.478   1.430  0.2080  0.1185  0.2126
 8877TIP3    H226596   4.407   6.484   1.430  0.2012 -0.0389  0.0963
 8878TIP3   OH226597   0.856   4.660   1.040  0.4524  0.2104 -0.2520
 8878TIP3    H126598   0.796   4.700   1.102  0.4593  1.6403 -1.1346
 8878TIP3    H226599   0.917   4.609   1.095  0.6546  1.6872  0.9521
 8879TIP3   OH226600   4.504   1.427   1.402 -0.7828  0.1505 -0.5003
 8879TIP3    H126601   4.597   1.446   1.412 -0.8292  0.5800 -0.8473
 8879TIP3    H226602   4.468   1.503   1.356 -1.4816  0.4014  0.4310
 8880TIP3   OH226603   3.606   3.168   2.107 -0.0771  0.2782 -0.4831
 8880TIP3    H126604   3.517   3.159   2.073 -0.5282  1.2568  0.4073
 8880TIP3    H226605   3.659   3.113   2.048 -1.4420 -1.4431 -0.1939
 8881TIP3   OH226606   5.954   5.647   2.172  0.0837 -0.1341  0.0411
 8881TIP3    H126607   6.012   5.677   2.102 -1.8907  0.3652 -1.4766
 8881TIP3    H226608   5.957   5.551   2.167 -2.1387 -0.1861 -2.7270
 8882TIP3   OH226609   5.868   5.292   5.778 -0.2618 -0.3617  0.1121
 8882TIP3    H126610   5.847   5.357   5.844  0.3931 -0.4865  0.4514
 8882TIP3    H226611   5.903   5.342   5.705 -2.3645 -0.0776 -0.7588
 8883TIP3   OH226612   0.181   1.966   0.950  0.2567  0.0476  0.5048
 8883TIP3    H126613   0.210   1.878   0.972 -1.6869 -1.0906 -1.1736
 8883TIP3    H226614   0.106   1.982   1.007 -0.4474 -0.0724 -0.3841
 8884TIP3   OH226615   6.871   2.803   2.941 -0.0658  0.4772  0.4567
 8884TIP3    H126616   6.809   2.853   2.994  0.8146  1.8018  0.2745
 8884TIP3    H226617   6.946   2.790   2.999  0.0879  0.1671  0.1888
 8885TIP3   OH226618   7.001   6.534   1.061  0.3223  0.0704  0.2016
 8885TIP3    H126619   7.091   6.545   1.091  0.9102 -2.3990 -0.4752
 8885TIP3    H226620   6.950   6.522   1.141  0.9978 -0.9295  0.4973
 8886TIP3   OH226621   3.797   5.372   3.226  0.4982  0.2612  0.6859
 8886TIP3    H126622   3.720   5.343   3.276 -1.1961  0.6190 -1.5743
 8886TIP3    H226623   3.763   5.396   3.140  3.2389 -0.1146 -0.6274
 8887TIP3   OH226624   2.866   4.093   4.492  0.3154 -0.7830  0.2496
 8887TIP3    H126625   2.922   4.022   4.524 -1.4573 -0.7555  3.9980
 8887TIP3    H226626   2.911   4.173   4.518  1.0450 -0.5513 -1.6112
 8888TIP3   OH226627   0.312   6.666   5.237 -0.2528  0.3725 -0.3037
 8888TIP3    H126628   0.365   6.690   5.313  0.3698 -0.1345 -0.5683
 8888TIP3    H226629   0.335   6.730   5.170 -1.3001  1.2294  0.1333
 8889TIP3   OH226630   0.139   2.669   0.937  0.1234 -0.1915  0.4127
 8889TIP3    H126631   0.128   2.701   1.027  1.4191 -1.8976  1.2165
 8889TIP3    H226632   0.134   2.748   0.883 -0.9032  0.8450  1.9354
 8890TIP3   OH226633   0.372   2.540   2.797  0.3652  0.1232  0.0806
 8890TIP3    H126634   0.423   2.578   2.725 -0.7010 -1.3912 -1.5479
 8890TIP3    H226635   0.296   2.598   2.805  0.0758 -0.1499 -0.5927
 8891TIP3   OH226636   4.014   3.347   4.486 -0.1366 -0.6509 -0.4418
 8891TIP3    H126637   4.068   3.278   4.524  0.4670 -0.8389 -1.6097
 8891TIP3    H226638   3.954   3.372   4.556 -0.6210 -2.6194 -0.0999
 8892TIP3   OH226639   0.395   2.521   4.367  0.0290  0.3606 -0.0743
 8892TIP3    H126640   0.322   2.469   4.402 -0.3671 -0.0678 -1.4585
 8892TIP3    H226641   0.398   2.498   4.274  0.5075  2.0635 -0.5159
 8893TIP3   OH226642   4.421   3.785   5.142  0.4759 -0.1276  0.0203
 8893TIP3    H126643   4.368   3.767   5.219  0.0024 -1.0452 -0.4980
 8893TIP3    H226644   4.508   3.754   5.165  0.3058 -0.5172  0.1573
 8894TIP3   OH226645   7.048   5.252   3.656 -0.2769  0.0040  0.4571
 8894TIP3    H126646   7.085   5.323   3.602  0.7533 -0.4769  0.4912
 8894TIP3    H226647   6.957   5.246   3.629  0.1834 -0.1409 -1.1760
 8895TIP3   OH226648   3.045   3.355   5.872 -0.0603  0.6748  0.5892
 8895TIP3    H126649   2.998   3.280   5.837 -0.0893  0.4421  1.1277
 8895TIP3    H226650   3.086   3.395   5.795  3.0279 -1.9609  0.6524
 8896TIP3   OH226651   0.837   5.641   0.103  0.4086 -0.4138  0.3440
 8896TIP3    H126652   0.785   5.603   0.174 -0.1285  0.5313  0.4716
 8896TIP3    H226653   0.773   5.679   0.044  0.8552 -1.1375 -0.6432
 8897TIP3   OH226654   6.728   2.382   1.396  0.0460  0.2545 -0.2667
 8897TIP3    H126655   6.639   2.375   1.431  0.6557 -0.6435  1.2753
 8897TIP3    H226656   6.740   2.475   1.378 -0.9792  0.4898  0.1633
 8898TIP3   OH226657   7.188   4.833   1.146 -0.6327  0.6453  0.2405
 8898TIP3    H126658   7.156   4.828   1.236 -1.9410  2.1237 -0.0938
 8898TIP3    H226659   7.264   4.892   1.151  0.0281 -0.1977  0.5189
 8899TIP3   OH226660   0.307   2.073   2.301  0.4942 -0.0364 -0.5998
 8899TIP3    H126661   0.322   2.133   2.374  1.4684  1.4464 -1.9516
 8899TIP3    H226662   0.220   2.037   2.317 -0.1169  1.7339  0.2902
 8900TIP3   OH226663   0.667   5.036   1.604 -0.4562 -0.1615 -0.0949
 8900TIP3    H126664   0.655   5.108   1.543 -0.9989  0.4418  0.6951
 8900TIP3    H226665   0.723   5.073   1.673  0.2673 -0.8721 -0.2879
 8901TIP3   OH226666   3.504   5.769   2.896  0.1436 -0.2106 -0.0976
 8901TIP3    H126667   3.518   5.780   2.802  0.1355 -2.2339 -0.3833
 8901TIP3    H226668   3.542   5.848   2.935  0.6834  0.3906 -1.7468
 8902TIP3   OH226669   1.231   4.353   5.630  0.0913 -0.0486 -0.2151
 8902TIP3    H126670   1.178   4.341   5.552 -1.9538  3.1640  0.5114
 8902TIP3    H226671   1.208   4.278   5.686 -2.1329  0.1596 -0.7792
 8903TIP3   OH226672   4.442   0.762   0.119  0.0703 -0.3118  0.0711
 8903TIP3    H126673   4.528   0.798   0.139  0.3922 -0.8218 -0.3440
 8903TIP3    H226674   4.384   0.799   0.185  0.1319  1.9326 -1.0319
 8904TIP3   OH226675   1.652   3.372   5.806  0.6397  0.0295  0.0017
 8904TIP3    H126676   1.642   3.381   5.900  0.4647  0.5331 -0.0624
 8904TIP3    H226677   1.619   3.284   5.786  0.0999  0.1573  0.3267
 8905TIP3   OH226678   3.937   2.853   0.608 -0.0412  0.4422 -0.1498
 8905TIP3    H126679   4.005   2.792   0.636 -0.1293  0.5265  0.2546
 8905TIP3    H226680   3.881   2.863   0.685 -0.1163  0.9116 -0.2632
 8906TIP3   OH226681   2.218   2.935   3.261  0.1833  0.1214  0.4567
 8906TIP3    H126682   2.206   2.844   3.234  0.6211  0.4088 -0.7583
 8906TIP3    H226683   2.132   2.961   3.295 -0.8313  0.1283 -1.9474
 8907TIP3   OH226684   6.852   5.017   2.216 -0.0402 -1.0230 -0.5675
 8907TIP3    H126685   6.944   5.034   2.194  0.0648  1.9792  1.5991
 8907TIP3    H226686   6.802   5.072   2.155 -0.0806  0.9894  1.1496
 8908TIP3   OH226687   3.194   3.263   3.955  0.1622  0.2720  0.4159
 8908TIP3    H126688   3.200   3.211   3.874  1.4373  2.1736 -0.8028
 8908TIP3    H226689   3.247   3.214   4.018  0.6128 -0.3665 -0.4311
 8909TIP3   OH226690   2.612   1.338   4.195 -0.4312 -0.6724  0.1097
 8909TIP3    H126691   2.573   1.358   4.109 -1.2101  0.6715  0.7429
 8909TIP3    H226692   2.598   1.418   4.246  4.1495  0.4477  0.0719
 8910TIP3   OH226693   1.202   1.768   4.080  0.1191  0.0458  0.5682
 8910TIP3    H126694   1.230   1.855   4.106  0.7684 -0.0286  0.1469
 8910TIP3    H226695   1.251   1.750   4.000 -0.3594 -0.5171  0.3920
 8911TIP3   OH226696   0.815   3.045   5.021  0.4791  0.4900 -1.1770
 8911TIP3    H126697   0.763   3.113   5.064  0.1803 -1.2324  1.3802
 8911TIP3    H226698   0.890   3.032   5.078  0.2043 -1.7254 -1.2283
 8912TIP3   OH226699   0.335   6.260   5.235 -1.0231 -0.2718  0.3471
 8912TIP3    H126700   0.264   6.196   5.227 -1.6104  0.4269 -0.1561
 8912TIP3    H226701   0.296   6.343   5.208  0.4127 -0.1593 -1.6052
 8913TIP3   OH226702   5.381   5.241   3.848  0.2133  0.4723 -0.2229
 8913TIP3    H126703   5.310   5.245   3.913 -1.8913  1.3495 -2.4123
 8913TIP3    H226704   5.369   5.156   3.806  0.3037  0.7081 -0.7346
 8914TIP3   OH226705   1.421   4.093   2.366  0.0884  0.3022  0.5239
 8914TIP3    H126706   1.477   4.061   2.438 -0.4477 -2.4119 -0.1783
 8914TIP3    H226707   1.336   4.109   2.407  0.0980 -0.1198  0.7104
 8915TIP3   OH226708   5.650   4.054   4.251  0.5923  0.2615  0.3792
 8915TIP3    H126709   5.709   4.030   4.322  1.1938 -1.5328 -0.6643
 8915TIP3    H226710   5.697   4.030   4.171 -0.5631  1.0795 -0.5823
 8916TIP3   OH226711   0.059   0.095   0.183  0.0479  0.0633 -0.0029
 8916TIP3    H126712   0.100   0.176   0.214 -1.7869  1.9911 -2.2170
 8916TIP3    H226713  -0.031   0.101   0.214 -0.3571 -0.6333 -0.9890
 8917TIP3   OH226714   6.592   6.810   5.629  0.0407 -0.4581 -0.4622
 8917TIP3    H126715   6.625   6.746   5.565  1.1772 -0.4563  0.1066
 8917TIP3    H226716   6.618   6.775   5.714 -1.5209 -0.4964  0.0420
 8918TIP3   OH226717   0.766   5.226   5.383  0.2588 -0.1309  0.1334
 8918TIP3    H126718   0.686   5.263   5.347  0.1765  1.5153  1.8201
 8918TIP3    H226719   0.781   5.146   5.333 -1.1234  0.7485 -1.8021
 8919TIP3   OH226720   6.292   6.538   0.893  0.2295  0.1105 -0.0251
 8919TIP3    H126721   6.371   6.483   0.899  0.8618  1.1175  2.5554
 8919TIP3    H226722   6.321   6.615   0.845  0.7569  0.3034  0.5738
 8920TIP3   OH226723   6.736   4.310   0.921  0.6658  0.2377 -0.2961
 8920TIP3    H126724   6.767   4.243   0.860 -0.1354  0.5175 -1.0331
 8920TIP3    H226725   6.756   4.275   1.008  0.3860 -0.8963 -0.6680
 8921TIP3   OH226726   4.225   4.302   1.796 -0.2136 -0.1888 -0.2119
 8921TIP3    H126727   4.283   4.233   1.828  0.1035  0.9179  1.7813
 8921TIP3    H226728   4.221   4.365   1.868 -3.2739  0.1885 -0.6039
 8922TIP3   OH226729   4.835   1.712   0.796  0.1046  0.8142 -0.3285
 8922TIP3    H126730   4.852   1.802   0.824  0.1577  0.0423  2.4956
 8922TIP3    H226731   4.745   1.695   0.823  0.2536 -0.1170 -0.3833
 8923TIP3   OH226732   0.183   4.579   5.040  0.5966  0.4158 -0.1146
 8923TIP3    H126733   0.276   4.562   5.026  0.9028 -1.0974  2.9589
 8923TIP3    H226734   0.138   4.520   4.979  1.6234  0.4845 -0.9675
 8924TIP3   OH226735   0.787   3.190   4.662 -0.2430 -0.3804  0.2148
 8924TIP3    H126736   0.845   3.266   4.655  0.3176 -0.7656  0.6000
 8924TIP3    H226737   0.841   3.116   4.634  0.0482 -1.0174  2.2970
 8925TIP3   OH226738   7.177   1.463   2.192  0.6199 -0.2909 -0.3699
 8925TIP3    H126739   7.172   1.396   2.125 -0.0683  0.7341 -1.3738
 8925TIP3    H226740   7.120   1.431   2.262 -1.1357  0.0468 -1.5868
 8926TIP3   OH226741   4.822   2.944   1.319  0.0255 -0.0444  0.1661
 8926TIP3    H126742   4.842   2.851   1.313 -0.0967 -0.1042  0.6667
 8926TIP3    H226743   4.784   2.966   1.234 -1.6756 -0.8631  0.6745
 8927TIP3   OH226744   5.189   1.349   0.244 -0.2560 -0.6072 -0.6315
 8927TIP3    H126745   5.224   1.359   0.332 -0.5965 -2.0548 -0.3067
 8927TIP3    H226746   5.117   1.412   0.239 -0.9893 -1.3026  0.5624
 8928TIP3   OH226747   5.399   3.409   5.691  0.1235  0.1569  0.2255
 8928TIP3    H126748   5.362   3.331   5.650  0.0069 -0.0376  0.6939
 8928TIP3    H226749   5.370   3.481   5.636 -1.6775  0.0996  1.0561
 8929TIP3   OH226750   6.287  -0.017   4.421  0.2840 -0.4291  0.4414
 8929TIP3    H126751   6.207  -0.050   4.461  0.3598 -0.4100  0.6100
 8929TIP3    H226752   6.287   0.076   4.441  1.1367 -0.7026  1.8022
 8930TIP3   OH226753   4.059   1.073   0.996 -0.5769 -0.3682 -0.3895
 8930TIP3    H126754   3.984   1.026   0.961 -0.5219 -1.2440  0.6271
 8930TIP3    H226755   4.041   1.082   1.089 -0.4801  1.4424 -0.4994
 8931TIP3   OH226756   2.977   3.624   2.959 -0.5036  0.2923  0.0851
 8931TIP3    H126757   3.006   3.683   3.028 -0.2020  0.0301  0.1871
 8931TIP3    H226758   3.058   3.585   2.925 -0.7142 -0.3053  0.2425
 8932TIP3   OH226759   6.234   6.763   0.245 -0.1534 -0.2077  0.1838
 8932TIP3    H126760   6.322   6.798   0.261  0.2441 -0.6036 -1.0689
 8932TIP3    H226761   6.211   6.719   0.327  1.4134 -1.3248  0.0751
 8933TIP3   OH226762   6.197   3.622   0.405 -0.2700  0.8536  0.0714
 8933TIP3    H126763   6.135   3.598   0.337 -0.8543  2.9442 -0.1971
 8933TIP3    H226764   6.272   3.565   0.390 -2.5849 -2.9275  1.3849
 8934TIP3   OH226765   5.357   1.276   1.583  0.4913  0.8619 -0.2974
 8934TIP3    H126766   5.388   1.207   1.641  0.0184  0.3376 -0.6589
 8934TIP3    H226767   5.312   1.230   1.512  1.2404  1.4793 -1.2066
 8935TIP3   OH226768   2.091   3.027   2.048 -0.3740 -0.1414 -0.5021
 8935TIP3    H126769   2.089   3.118   2.019 -0.6911  0.5245  1.4130
 8935TIP3    H226770   2.121   3.032   2.139  0.8982 -2.0920 -0.7532
 8936TIP3   OH226771   0.350   3.867   4.435 -0.8608  0.6915 -0.5976
 8936TIP3    H126772   0.262   3.886   4.403 -1.7411 -2.2772 -0.1822
 8936TIP3    H226773   0.378   3.791   4.384 -0.3028 -1.0534  2.1129
 8937TIP3   OH226774   4.096   2.526   2.147  0.4369  0.8724  0.0298
 8937TIP3    H126775   4.108   2.596   2.210  1.8861  0.8005 -0.1308
 8937TIP3    H226776   4.108   2.446   2.197 -0.0090  0.7571 -0.0366
 8938TIP3   OH226777   6.581   5.266   1.298  0.0083 -0.2593 -0.3342
 8938TIP3    H126778   6.558   5.200   1.232 -0.9991  0.3147 -0.5877
 8938TIP3    H226779   6.502   5.273   1.352  0.4889 -0.0255  0.3354
 8939TIP3   OH226780   0.551   3.897   0.953 -0.5556 -0.9939  0.3259
 8939TIP3    H126781   0.475   3.859   0.908 -2.0605  2.4432 -0.3888
 8939TIP3    H226782   0.550   3.989   0.927  3.5646 -0.6472  0.8260
 8940TIP3   OH226783   6.733   6.512   3.206 -0.4850 -0.1043  0.1715
 8940TIP3    H126784   6.754   6.575   3.276  0.8178 -1.0720  0.7054
 8940TIP3    H226785   6.661   6.552   3.158  0.1360  1.6765  0.6432
 8941TIP3   OH226786   1.559   6.607   2.716 -0.2340  0.5249  0.2774
 8941TIP3    H126787   1.584   6.523   2.755  0.8677  0.7250  0.0283
 8941TIP3    H226788   1.589   6.673   2.779  2.2105  0.8861 -1.1705
 8942TIP3   OH226789   7.048   5.652   3.616 -0.0725  0.4348  0.0283
 8942TIP3    H126790   6.985   5.660   3.545  0.2097 -1.4298 -0.5106
 8942TIP3    H226791   6.996   5.655   3.696 -0.7116  0.0499 -0.3667
 8943TIP3   OH226792   3.428   0.918   1.153  0.1274 -0.2203  0.2399
 8943TIP3    H126793   3.402   0.992   1.207  1.4429  0.5538 -0.1686
 8943TIP3    H226794   3.413   0.841   1.208  2.1159  0.5833  2.0170
 8944TIP3   OH226795   2.049   3.814   1.630 -0.2448 -0.7887  0.0013
 8944TIP3    H126796   2.016   3.728   1.654 -1.7507 -0.5675 -1.1452
 8944TIP3    H226797   2.006   3.874   1.692  1.0753 -0.8471  1.0340
 8945TIP3   OH226798   3.798   3.348   1.756 -0.0691  0.3273 -0.6329
 8945TIP3    H126799   3.703   3.359   1.749 -0.1822 -0.2913 -0.1159
 8945TIP3    H226800   3.825   3.417   1.817 -0.0466  1.0949 -1.4773
 8946TIP3   OH226801   5.328   2.726   4.196  0.3754 -0.1729 -0.2511
 8946TIP3    H126802   5.350   2.795   4.133 -0.4960  0.2463 -0.1052
 8946TIP3    H226803   5.393   2.657   4.179  1.6729  0.9279  0.0417
 8947TIP3   OH226804   1.520   6.562   3.702 -0.0881  0.0404 -0.1631
 8947TIP3    H126805   1.571   6.638   3.729 -0.5079  0.6622 -1.0501
 8947TIP3    H226806   1.585   6.501   3.668  0.2598 -0.0334  0.6182
 8948TIP3   OH226807   6.602   1.233   5.414 -0.2648  0.1458 -0.4342
 8948TIP3    H126808   6.598   1.202   5.324 -1.7715 -0.7144 -0.0960
 8948TIP3    H226809   6.518   1.276   5.429 -1.1193 -1.9373  1.2884
 8949TIP3   OH226810   1.345   1.386   3.440 -0.1690 -0.0765  0.1170
 8949TIP3    H126811   1.366   1.447   3.368  1.0568 -1.3026 -0.6210
 8949TIP3    H226812   1.428   1.342   3.458 -0.6019 -0.2030  1.9213
 8950TIP3   OH226813   0.309   3.869   5.802  0.4774 -0.5520  0.2867
 8950TIP3    H126814   0.321   3.811   5.878  0.3828 -0.6045  0.2616
 8950TIP3    H226815   0.288   3.954   5.841 -1.3339 -0.9705  0.2998
 8951TIP3   OH226816   3.625   1.421   0.379 -0.5075  0.3231  0.3518
 8951TIP3    H126817   3.564   1.468   0.322  0.2555  0.4247 -0.4033
 8951TIP3    H226818   3.580   1.415   0.463 -1.1399  1.2744  0.0901
 8952TIP3   OH226819   6.766   1.579   0.407  0.5196  0.5538 -0.1241
 8952TIP3    H126820   6.840   1.559   0.465 -0.9088 -2.2657  0.9093
 8952TIP3    H226821   6.696   1.606   0.466  0.5837  3.1783 -1.0955
 8953TIP3   OH226822   7.157   0.126   1.857  0.3955  0.0436 -0.1256
 8953TIP3    H126823   7.240   0.078   1.855  0.3374 -0.0463 -0.6912
 8953TIP3    H226824   7.181   0.216   1.838  0.5247  0.2760  1.1014
 8954TIP3   OH226825   5.006   5.386   2.211  0.2097 -0.0576  0.0932
 8954TIP3    H126826   5.096   5.362   2.231  0.1194 -0.0914  0.4726
 8954TIP3    H226827   5.000   5.478   2.236  0.0388 -0.1556  0.4124
 8955TIP3   OH226828   4.159   0.132   0.964 -0.3762 -0.5934  0.5344
 8955TIP3    H126829   4.127   0.162   0.879 -0.4115 -0.4054  0.6137
 8955TIP3    H226830   4.146   0.037   0.963 -2.5127 -0.3579  1.2131
 8956TIP3   OH226831   4.738   4.972   1.239 -0.6239  0.2690 -0.0525
 8956TIP3    H126832   4.807   5.033   1.267 -0.7974 -0.0740  1.2010
 8956TIP3    H226833   4.658   5.008   1.276 -1.0758  0.4582 -1.1891
 8957TIP3   OH226834   4.181   0.614   4.890  0.1156 -0.3539  0.1020
 8957TIP3    H126835   4.152   0.548   4.953  0.5662 -0.4000  0.2636
 8957TIP3    H226836   4.271   0.633   4.915  0.2447 -0.2560 -0.4349
 8958TIP3   OH226837   1.363   2.678   5.443  0.6729  0.0170  0.5185
 8958TIP3    H126838   1.443   2.632   5.467  0.3057 -0.3337  1.1076
 8958TIP3    H226839   1.386   2.771   5.448  1.3930 -0.0930 -0.5920
 8959TIP3   OH226840   5.006   5.465   3.256  0.2746  0.3315 -0.0663
 8959TIP3    H126841   5.060   5.530   3.212 -0.1531  1.3357  0.8516
 8959TIP3    H226842   4.918   5.501   3.254  0.1629  0.1666  1.1541
 8960TIP3   OH226843   3.354   2.399   0.667  0.6170  0.5019 -0.0793
 8960TIP3    H126844   3.373   2.392   0.573 -2.5142 -1.2914 -0.7107
 8960TIP3    H226845   3.302   2.321   0.686  0.9488  0.9546  3.1501
 8961TIP3   OH226846   6.609   4.670   1.650 -0.2634  0.5227  0.3996
 8961TIP3    H126847   6.693   4.716   1.657  0.4247 -0.9175  2.3210
 8961TIP3    H226848   6.631   4.584   1.616 -0.8965 -0.0454  1.3995
 8962TIP3   OH226849   2.195   0.628   3.669 -0.5774  0.2202  0.0449
 8962TIP3    H126850   2.137   0.552   3.676 -0.9653  0.6004  1.0458
 8962TIP3    H226851   2.261   0.601   3.605 -2.7725  0.4037 -2.4689
 8963TIP3   OH226852   4.268   2.699   2.315  0.0520 -0.5785  0.2354
 8963TIP3    H126853   4.240   2.709   2.406  1.0938 -1.2025  0.6431
 8963TIP3    H226854   4.321   2.777   2.297 -1.2341  0.2163 -0.2912
 8964TIP3   OH226855   0.468   6.657   1.816  0.2189 -0.1319  0.2115
 8964TIP3    H126856   0.536   6.717   1.848  0.9986 -0.3832 -0.9164
 8964TIP3    H226857   0.388   6.688   1.857  0.5389  1.9400 -0.6194
 8965TIP3   OH226858   5.238   4.095   1.693  0.1899 -0.2725  0.2398
 8965TIP3    H126859   5.185   4.175   1.694  0.8879  0.2553 -1.2721
 8965TIP3    H226860   5.324   4.123   1.725  0.3581 -0.4723 -0.0342
 8966TIP3   OH226861   5.712   0.925   0.336  0.6009  0.3006  0.5740
 8966TIP3    H126862   5.710   0.959   0.425  2.0659 -0.8011  1.0766
 8966TIP3    H226863   5.625   0.887   0.322  0.8204 -0.8358  2.0941
 8967TIP3   OH226864   2.411   2.568   5.215  0.3339  0.2512  0.2703
 8967TIP3    H126865   2.346   2.499   5.202  1.1353 -0.1424 -1.9871
 8967TIP3    H226866   2.457   2.542   5.296 -0.2242 -1.1715  0.1597
 8968TIP3   OH226867   2.488   0.430   5.126  0.2355  0.3832  0.2036
 8968TIP3    H126868   2.530   0.496   5.182  1.5076 -0.6782  0.5730
 8968TIP3    H226869   2.535   0.349   5.147 -0.8868 -0.5197 -0.6703
 8969TIP3   OH226870   4.553   5.717   2.029 -0.0253 -0.0339  0.0105
 8969TIP3    H126871   4.487   5.652   2.005  0.8376  0.0872 -3.2341
 8969TIP3    H226872   4.627   5.665   2.061 -0.3787 -0.4257  0.1993
 8970TIP3   OH226873   5.623   2.845   2.807 -0.5869 -0.0799  0.1787
 8970TIP3    H126874   5.573   2.782   2.756  1.3067 -0.8485 -0.8305
 8970TIP3    H226875   5.714   2.827   2.784  0.1022  1.9933  1.0845
 8971TIP3   OH226876   1.173   2.422   3.221 -0.4558  0.5792 -0.5514
 8971TIP3    H126877   1.225   2.403   3.299 -1.5826  0.9107  0.3059
 8971TIP3    H226878   1.237   2.432   3.151  0.5637  0.0494  0.2845
 8972TIP3   OH226879   6.009   5.231   5.028 -0.5330  1.1292  0.1520
 8972TIP3    H126880   6.087   5.269   4.988 -0.9256  2.0034  0.2017
 8972TIP3    H226881   5.962   5.189   4.955 -0.0959  0.7185  0.0999
 8973TIP3   OH226882   5.095   0.612   4.341  0.2329  0.5733  0.2134
 8973TIP3    H126883   5.026   0.666   4.381 -2.7724 -2.0637 -0.9750
 8973TIP3    H226884   5.143   0.672   4.284 -0.8180  2.6243  1.3813
 8974TIP3   OH226885   1.573   6.298   2.084 -0.1599 -0.0015 -0.1868
 8974TIP3    H126886   1.575   6.381   2.132 -1.5995  0.1179 -0.3131
 8974TIP3    H226887   1.658   6.294   2.040  0.5384  0.6604  1.0503
 8975TIP3   OH226888   2.047   0.464   2.258  0.1941 -0.0796 -0.0570
 8975TIP3    H126889   2.084   0.536   2.207  1.4431 -1.7297 -1.6323
 8975TIP3    H226890   2.067   0.485   2.349 -0.0768  1.8499 -0.4021
 8976TIP3   OH226891   2.149   0.978   2.278 -0.4687  0.4781 -0.6820
 8976TIP3    H126892   2.074   0.940   2.232  0.6878 -0.4779 -1.8390
 8976TIP3    H226893   2.219   0.914   2.268  0.2134  0.8108  1.3668
 8977TIP3   OH226894   5.030   6.778   1.548  0.5742  0.1481  0.0973
 8977TIP3    H126895   4.935   6.761   1.549  0.5506 -0.2848 -2.5701
 8977TIP3    H226896   5.037   6.871   1.530  0.6054 -0.1076 -1.3257
 8978TIP3   OH226897   3.449   4.738   3.299 -0.2754  0.3065  0.6700
 8978TIP3    H126898   3.387   4.788   3.246 -0.0956 -3.6516 -3.9052
 8978TIP3    H226899   3.529   4.790   3.296 -0.6083  0.8344 -2.1387
 8979TIP3   OH226900   6.049   2.481   1.116  0.1250  0.2401  0.2322
 8979TIP3    H126901   6.077   2.478   1.024 -3.3729  1.3342 -1.0267
 8979TIP3    H226902   6.048   2.390   1.144  1.2884 -0.1113 -0.7920
 8980TIP3   OH226903   1.699   2.726   4.386 -0.5603 -0.5713  0.2796
 8980TIP3    H126904   1.650   2.747   4.465 -1.8459  0.8998 -0.8607
 8980TIP3    H226905   1.791   2.734   4.413 -0.9667 -0.1249  1.6294
 8981TIP3   OH226906   6.680   5.190   5.820 -0.1253  0.3524 -0.7751
 8981TIP3    H126907   6.724   5.158   5.899 -3.2118 -1.8556  0.2585
 8981TIP3    H226908   6.696   5.122   5.755 -0.5784  0.3565 -0.8960
 8982TIP3   OH226909   4.831   6.274   1.785  0.3065 -0.0011 -0.1506
 8982TIP3    H126910   4.887   6.312   1.853  1.0808 -0.0390 -0.7466
 8982TIP3    H226911   4.890   6.260   1.711 -0.7390  1.1462 -1.2643
 8983TIP3   OH226912   6.247   0.563   3.700 -0.3309  0.0510 -0.1833
 8983TIP3    H126913   6.253   0.629   3.631  0.0347  0.5360  0.2954
 8983TIP3    H226914   6.333   0.566   3.743 -0.8666  0.4471  0.9000
 8984TIP3   OH226915   5.544   2.424   0.694  0.3550  0.0526 -0.0987
 8984TIP3    H126916   5.600   2.479   0.749 -1.0771  0.7135  0.7617
 8984TIP3    H226917   5.518   2.351   0.751  0.0940 -0.0763 -0.3791
 8985TIP3   OH226918   0.628   2.271   5.821  0.0291  0.3216  0.3977
 8985TIP3    H126919   0.688   2.197   5.827 -0.4263  0.0467  2.3871
 8985TIP3    H226920   0.544   2.231   5.798  0.6260  0.7811 -3.1380
 8986TIP3   OH226921   7.041   2.322   1.374 -0.0958 -0.4179  0.0680
 8986TIP3    H126922   6.958   2.361   1.347 -1.3971 -0.7730  3.1312
 8986TIP3    H226923   7.101   2.396   1.385 -1.1227  0.2814  1.2253
 8987TIP3   OH226924   5.035   0.363   5.097  0.0271  0.1279 -0.2569
 8987TIP3    H126925   5.033   0.314   5.015 -1.3930  0.5918 -0.5315
 8987TIP3    H226926   5.039   0.297   5.165 -1.2295 -0.3564 -0.6372
 8988TIP3   OH226927   0.052   4.693   2.228 -0.0787 -0.0423  0.1999
 8988TIP3    H126928  -0.025   4.649   2.191 -1.7550  2.4420  0.5254
 8988TIP3    H226929   0.048   4.674   2.322  0.3389 -0.7879  0.0745
 8989TIP3   OH226930   2.704   6.657   4.261  0.6021 -0.4608 -0.0759
 8989TIP3    H126931   2.671   6.607   4.335  0.3543  0.5387  0.5055
 8989TIP3    H226932   2.654   6.739   4.263  2.7255  0.9113  0.5453
 8990TIP3   OH226933   3.397   1.674   2.148  0.6149  0.9262  0.3401
 8990TIP3    H126934   3.317   1.625   2.129 -1.0093  3.2035  0.8781
 8990TIP3    H226935   3.417   1.654   2.239  0.0275  1.1497  0.5233
 8991TIP3   OH226936   0.312   0.994   2.016 -0.2336  0.4727 -1.3859
 8991TIP3    H126937   0.313   1.060   2.085  3.4790 -0.3955 -0.3658
 8991TIP3    H226938   0.231   0.945   2.030 -0.6613  1.7175  0.9395
 8992TIP3   OH226939   2.285   2.193   2.141  0.2026 -0.2198  0.0725
 8992TIP3    H126940   2.286   2.150   2.055  1.9482  0.1948 -0.1559
 8992TIP3    H226941   2.201   2.237   2.145 -0.3940 -1.2070 -0.9289
 8993TIP3   OH226942   5.213   0.232   4.849 -0.0601 -0.3571 -0.3355
 8993TIP3    H126943   5.125   0.259   4.825 -0.4634 -1.4211 -0.1322
 8993TIP3    H226944   5.222   0.144   4.812  0.1182 -1.1342  1.4282
 8994TIP3   OH226945   2.381   6.567   2.081 -0.0398  0.2657  0.2840
 8994TIP3    H126946   2.364   6.621   2.004  0.9712 -0.2457 -0.3128
 8994TIP3    H226947   2.406   6.482   2.046  1.3565  0.2986  1.1564
 8995TIP3   OH226948   6.072   0.370   2.841  0.4159 -0.3219 -0.0555
 8995TIP3    H126949   5.979   0.348   2.837 -0.6031  3.2924  0.5606
 8995TIP3    H226950   6.098   0.383   2.750 -0.1809  0.4131 -0.1234
 8996TIP3   OH226951   1.859   3.592   1.535  0.4257  1.0921  0.1463
 8996TIP3    H126952   1.903   3.547   1.607 -0.9583 -0.3332  0.1628
 8996TIP3    H226953   1.784   3.635   1.577 -0.1061  0.6674 -0.3477
 8997TIP3   OH226954   1.299   3.702   1.004  1.0791  0.2859 -0.3179
 8997TIP3    H126955   1.299   3.794   1.029 -0.0312  0.7073 -1.7455
 8997TIP3    H226956   1.339   3.657   1.079  3.6515  2.1231 -0.4474
 8998TIP3   OH226957   0.526   2.534   5.304  0.1136  0.3861  0.7992
 8998TIP3    H126958   0.490   2.500   5.222  1.2058  1.7218 -0.2965
 8998TIP3    H226959   0.570   2.459   5.344  1.6835  0.2285 -1.0883
 8999TIP3   OH226960   3.497   3.064   5.390 -0.6044  0.2364 -0.1020
 8999TIP3    H126961   3.521   3.151   5.422 -1.0515  0.6979 -0.9656
 8999TIP3    H226962   3.520   3.066   5.297 -0.5563 -0.5964 -0.1111
 9000TIP3   OH226963   6.999   6.100   0.944  0.4904  0.2233 -0.0218
 9000TIP3    H126964   6.998   6.135   1.034  1.1194 -0.2532  0.1789
 9000TIP3    H226965   7.086   6.124   0.911  0.1023  0.7609 -0.6520
 9001TIP3   OH226966   0.881   0.416   4.113  0.2584  0.1629  0.7107
 9001TIP3    H126967   0.976   0.423   4.124  0.1914  1.7018  0.5274
 9001TIP3    H226968   0.845   0.468   4.186 -0.5048 -1.6423  1.6900
 9002TIP3   OH226969   6.045   0.918   0.663  0.8124 -0.1502  0.4548
 9002TIP3    H126970   6.050   0.987   0.729  0.4131  0.0901  0.2356
 9002TIP3    H226971   6.107   0.945   0.595  1.1454 -0.3437  0.6811
 9003TIP3   OH226972   4.113   4.325   3.895  0.3702 -0.7306 -0.2132
 9003TIP3    H126973   4.112   4.404   3.841  1.3550 -0.3416  0.3254
 9003TIP3    H226974   4.185   4.338   3.956 -0.5636 -1.2713  1.0502
 9004TIP3   OH226975   0.933   5.685   0.829  0.1601  0.3410  0.3012
 9004TIP3    H126976   0.839   5.669   0.821  0.2575  0.0758 -0.3771
 9004TIP3    H226977   0.960   5.710   0.741  0.7401  0.3482  0.4805
 9005TIP3   OH226978   4.772   4.704   0.898  0.8261  0.0099 -0.1229
 9005TIP3    H126979   4.827   4.754   0.959  0.4973  0.4640 -0.1867
 9005TIP3    H226980   4.693   4.686   0.948  0.1453  1.2328 -0.7081
 9006TIP3   OH226981   5.707   1.924   0.251 -0.3510  0.3228 -0.0605
 9006TIP3    H126982   5.624   1.911   0.204  0.3768 -0.4739 -1.1945
 9006TIP3    H226983   5.712   1.850   0.311 -0.4322  0.3321 -0.0420
 9007TIP3   OH226984   2.175   5.358   4.567 -0.7476  0.1925  0.2881
 9007TIP3    H126985   2.208   5.315   4.645  1.0897  1.7000  0.4216
 9007TIP3    H226986   2.156   5.286   4.506 -0.2559 -0.8930  1.3724
 9008TIP3   OH226987   4.642   0.386   4.736 -0.2421 -0.0670  0.3746
 9008TIP3    H126988   4.601   0.300   4.728 -0.3656  0.1183 -1.3060
 9008TIP3    H226989   4.601   0.425   4.813 -3.4308  0.1701 -1.2650
 9009TIP3   OH226990   1.415   1.349   2.275 -0.2654 -0.2132  0.1420
 9009TIP3    H126991   1.401   1.388   2.362  0.6022  1.6272 -0.4975
 9009TIP3    H226992   1.446   1.260   2.293 -0.8051 -0.1117  1.6998
 9010TIP3   OH226993   3.236   5.365   2.746 -0.6047  0.4070 -0.1729
 9010TIP3    H126994   3.213   5.415   2.667 -1.7551  0.2666  0.0576
 9010TIP3    H226995   3.331   5.354   2.740 -0.6572  0.4775 -1.4912
 9011TIP3   OH226996   4.361   3.340   3.947  0.2726  0.1182  0.6146
 9011TIP3    H126997   4.429   3.343   4.015 -1.0192  0.6096  1.9269
 9011TIP3    H226998   4.289   3.291   3.986  0.6960 -2.5217 -1.6215
 9012TIP3   OH226999   6.500   3.353   3.626 -0.2675 -0.5177 -0.2384
 9012TIP3    H127000   6.536   3.391   3.706  0.0859 -0.4060 -0.4490
 9012TIP3    H227001   6.407   3.371   3.631 -0.0472  0.7917 -0.5564
 9013TIP3   OH227002   0.979   4.424   2.719 -0.2763 -0.3799 -0.4403
 9013TIP3    H127003   0.936   4.483   2.780  0.7521  0.5185 -0.5558
 9013TIP3    H227004   0.958   4.336   2.751 -1.1505  0.0584  0.2086
 9014TIP3   OH227005   1.536   5.982   2.425 -0.2758 -0.6495 -0.2190
 9014TIP3    H127006   1.474   5.911   2.445 -1.2689  0.5459  1.1126
 9014TIP3    H227007   1.487   6.040   2.367 -0.0132 -0.2593 -0.0494
 9015TIP3   OH227008   0.989   0.026   2.408 -0.0009  0.4551 -0.5687
 9015TIP3    H127009   1.051   0.098   2.413  0.3421  0.1247  0.1106
 9015TIP3    H227010   1.027  -0.042   2.464 -0.2083 -0.3346 -1.3551
 9016TIP3   OH227011   1.041   4.541   1.635 -0.4684 -0.0438  0.3795
 9016TIP3    H127012   1.090   4.581   1.706  0.4688 -1.3903  0.5398
 9016TIP3    H227013   1.103   4.480   1.594 -1.2805 -0.0186 -0.9704
 9017TIP3   OH227014   4.689   6.662   0.599  0.0877  0.3316 -0.3856
 9017TIP3    H127015   4.779   6.638   0.624  0.1013  1.2073  0.4674
 9017TIP3    H227016   4.669   6.738   0.653 -1.0063  0.4368 -0.9181
 9018TIP3   OH227017   3.652   2.558   5.056 -0.2450 -0.4264 -0.4632
 9018TIP3    H127018   3.581   2.571   5.118 -0.4327  0.2773 -0.8217
 9018TIP3    H227019   3.610   2.559   4.970  0.2024  0.0835 -0.6834
 9019TIP3   OH227020   0.198   4.909   5.834  0.1456 -0.0763 -0.7615
 9019TIP3    H127021   0.163   4.907   5.745 -1.6363 -1.3349 -0.0819
 9019TIP3    H227022   0.261   4.837   5.836 -0.9995 -1.0955 -0.5726
 9020TIP3   OH227023   0.251   2.184   3.674 -0.3463 -0.2927  0.4600
 9020TIP3    H127024   0.196   2.109   3.697 -1.5045  0.6589  0.8844
 9020TIP3    H227025   0.312   2.193   3.747 -0.9990 -0.0871  0.9869
 9021TIP3   OH227026   6.498   3.787   3.397  0.0027  0.0158 -0.5730
 9021TIP3    H127027   6.555   3.816   3.469 -0.3122 -2.3507  0.7345
 9021TIP3    H227028   6.529   3.699   3.375 -2.6102 -1.0629 -0.3309
 9022TIP3   OH227029   4.228   1.535   5.738 -0.0326  0.0369  0.6054
 9022TIP3    H127030   4.263   1.449   5.762 -1.4341 -1.3142 -1.7746
 9022TIP3    H227031   4.302   1.581   5.699 -0.0045 -1.4815 -1.2726
 9023TIP3   OH227032   2.074   3.441   2.625  0.2991  0.1039 -0.3914
 9023TIP3    H127033   2.105   3.509   2.684  1.8665 -0.1723 -0.8598
 9023TIP3    H227034   1.989   3.474   2.594 -0.2202  0.5879  1.4033
 9024TIP3   OH227035   5.137   5.994   0.194  0.3192 -0.6930 -0.2394
 9024TIP3    H127036   5.166   5.908   0.166  0.2044 -1.0410  0.6677
 9024TIP3    H227037   5.175   6.005   0.281  2.7526  1.3993 -1.4339
 9025TIP3   OH227038   6.804   3.141   2.650  0.7216  0.1728 -0.0878
 9025TIP3    H127039   6.808   3.215   2.710  1.3522  0.6226 -0.6549
 9025TIP3    H227040   6.720   3.099   2.667  1.0463  0.0768  1.3353
 9026TIP3   OH227041   1.937   6.196   1.123 -0.0012 -0.0954  0.3437
 9026TIP3    H127042   1.991   6.183   1.045 -0.2815 -0.0612  0.1417
 9026TIP3    H227043   1.885   6.274   1.104  0.1635  0.1057  0.6995
 9027TIP3   OH227044   3.144   0.747   4.084 -0.5464  0.0211  0.3702
 9027TIP3    H127045   3.235   0.772   4.070 -0.7074 -0.1072 -1.0424
 9027TIP3    H227046   3.097   0.781   4.008 -1.8163  0.6839  1.4055
 9028TIP3   OH227047   6.719   2.303   5.314  0.1800  0.8137  0.0067
 9028TIP3    H127048   6.709   2.228   5.373 -1.0083  0.7569 -0.2471
 9028TIP3    H227049   6.693   2.269   5.228  1.2694  1.0715 -0.4436
 9029TIP3   OH227050   6.353   0.207   4.544 -0.4673 -0.2396 -0.1226
 9029TIP3    H127051   6.394   0.285   4.506  0.9386 -1.3791 -1.0427
 9029TIP3    H227052   6.330   0.233   4.633 -0.9992  1.5333 -0.7316
 9030TIP3   OH227053   4.366   4.602   4.162 -0.0226 -0.2536  0.3374
 9030TIP3    H127054   4.415   4.561   4.233 -0.9737 -0.0827  1.1192
 9030TIP3    H227055   4.274   4.598   4.191 -0.1789  2.3534  0.4485
 9031TIP3   OH227056   1.748   6.034   2.243 -0.2099 -0.5458 -0.0753
 9031TIP3    H127057   1.782   6.122   2.230  0.5423 -1.0071 -1.3779
 9031TIP3    H227058   1.680   6.044   2.310 -0.4644  1.0907 -0.5453
 9032TIP3   OH227059   4.522   0.591   4.934 -0.7115  0.1378  0.1222
 9032TIP3    H127060   4.493   0.677   4.903  0.5532 -0.2468 -2.4370
 9032TIP3    H227061   4.588   0.611   5.000 -0.9869  1.1314  0.1198
 9033TIP3   OH227062   3.780   1.415   3.065  0.1902 -0.3137  0.0092
 9033TIP3    H127063   3.820   1.473   3.000  2.2091 -1.2642  0.3368
 9033TIP3    H227064   3.846   1.407   3.134 -1.9960  0.9059  2.3910
 9034TIP3   OH227065   5.377   2.803   2.321 -0.4612  0.1423 -0.5799
 9034TIP3    H127066   5.310   2.791   2.255 -0.7339  2.6802 -0.8728
 9034TIP3    H227067   5.343   2.872   2.378  0.8504 -0.2232  0.7226
 9035TIP3   OH227068   6.840   4.943   0.696 -0.3941 -0.3269 -0.0801
 9035TIP3    H127069   6.895   5.008   0.652 -0.4077 -0.3359 -0.1104
 9035TIP3    H227070   6.805   4.889   0.625  0.1531 -0.7852 -0.0114
 9036TIP3   OH227071   2.726   2.745   5.383  0.2934  0.0272  0.0494
 9036TIP3    H127072   2.673   2.812   5.339  0.2098  0.6501  1.0601
 9036TIP3    H227073   2.758   2.689   5.312  0.6726  1.3553 -0.8757
 9037TIP3   OH227074   1.045   4.377   2.210  0.2355 -0.4660  0.2446
 9037TIP3    H127075   1.004   4.295   2.183  0.5993 -0.3311 -0.7884
 9037TIP3    H227076   1.139   4.358   2.210  0.3707  0.1005 -0.6401
 9038TIP3   OH227077   1.530   6.172   3.547  0.1169 -0.0942 -0.2970
 9038TIP3    H127078   1.470   6.230   3.593  0.8081  0.7479 -0.4295
 9038TIP3    H227079   1.523   6.198   3.455  1.8541  1.1521 -0.1305
 9039TIP3   OH227080   5.957   1.822   0.426  0.0284 -0.0312  0.5331
 9039TIP3    H127081   5.943   1.881   0.500  0.1693 -1.8901  2.1246
 9039TIP3    H227082   5.879   1.767   0.424  0.3215 -0.4422 -0.2921
 9040TIP3   OH227083   1.351   5.927   0.009  1.1771 -0.3912  0.3738
 9040TIP3    H127084   1.401   6.007   0.024  0.9387 -0.3845  1.1755
 9040TIP3    H227085   1.326   5.898   0.097 -0.3538 -0.3059 -0.0132
 9041TIP3   OH227086   1.101   1.597   5.086  0.1538 -0.5277  0.3270
 9041TIP3    H127087   1.169   1.531   5.099  0.6341 -0.6058 -2.0642
 9041TIP3    H227088   1.131   1.647   5.009 -1.4480  0.8249  0.5224
 9042TIP3   OH227089   2.147   6.410   2.073 -0.1450 -0.3717 -0.0446
 9042TIP3    H127090   2.199   6.485   2.102 -1.0517 -0.9712  3.7427
 9042TIP3    H227091   2.211   6.347   2.041  0.8567  0.9665 -0.8085
 9043TIP3   OH227092   1.318   5.760   2.940 -0.0019 -0.0040  0.8757
 9043TIP3    H127093   1.260   5.808   2.999 -0.2979  2.0124 -0.9326
 9043TIP3    H227094   1.297   5.793   2.853  1.5132 -1.7131 -0.2221
 9044TIP3   OH227095   4.138   3.213   5.188  0.6994 -0.1232  0.7159
 9044TIP3    H127096   4.181   3.149   5.244  1.1234  0.3866  0.9797
 9044TIP3    H227097   4.048   3.182   5.180  1.2511 -1.5428 -0.3542
 9045TIP3   OH227098   2.211   2.431   4.669 -0.4902  0.4007  0.2696
 9045TIP3    H127099   2.175   2.510   4.710  0.3702  0.2349  1.4188
 9045TIP3    H227100   2.135   2.384   4.636 -1.0208  1.7224 -0.4745
 9046TIP3   OH227101   6.174   6.278   0.834  0.1615 -0.0137 -0.4434
 9046TIP3    H127102   6.192   6.249   0.744  2.2791  0.1340 -0.1178
 9046TIP3    H227103   6.210   6.366   0.839 -0.5380  0.2411  0.3754
 9047TIP3   OH227104   7.018   2.490   1.003  0.4582 -0.2275  0.4445
 9047TIP3    H127105   7.038   2.480   1.096  0.2329 -0.9921  0.4226
 9047TIP3    H227106   7.049   2.409   0.963  2.0149  0.7569 -0.4264
 9048TIP3   OH227107   1.526   1.658   5.366 -0.1476 -0.1117  0.1283
 9048TIP3    H127108   1.600   1.685   5.312  0.5664  0.3383  1.3043
 9048TIP3    H227109   1.550   1.684   5.455 -1.6514 -0.1047  0.5563
 9049TIP3   OH227110   0.888   3.450   3.409  0.0822 -0.7168  0.5795
 9049TIP3    H127111   0.950   3.505   3.362  1.4018 -1.6744  1.1362
 9049TIP3    H227112   0.804   3.496   3.401  0.9478  0.8818  0.2425
 9050TIP3   OH227113   3.668   4.688   1.992 -0.1114  0.6238 -0.3622
 9050TIP3    H127114   3.582   4.692   1.950  0.2770 -1.0941 -1.4593
 9050TIP3    H227115   3.655   4.632   2.069  0.1970 -0.5844 -1.1495
 9051TIP3   OH227116   5.983   2.187   3.842  0.2941 -0.1265  0.4121
 9051TIP3    H127117   6.000   2.146   3.757  3.6896 -0.1174  0.9671
 9051TIP3    H227118   5.956   2.276   3.821  1.3866 -0.0262 -0.6778
 9052TIP3   OH227119   2.478   6.802   0.175 -0.3963 -0.1095 -0.1872
 9052TIP3    H127120   2.478   6.884   0.224 -0.6931  0.0182 -0.3986
 9052TIP3    H227121   2.530   6.742   0.229  1.2657  0.6894 -0.8361
 9053TIP3   OH227122   0.737   1.694   5.363 -0.0473  0.6221  0.3881
 9053TIP3    H127123   0.808   1.677   5.301 -1.7634  1.0387 -1.8188
 9053TIP3    H227124   0.728   1.790   5.362 -0.5250  0.5818  0.7423
 9054TIP3   OH227125   1.936   2.137   1.490  0.1878 -0.1476  0.0447
 9054TIP3    H127126   2.007   2.198   1.470  1.7747 -2.2170 -0.8987
 9054TIP3    H227127   1.918   2.093   1.407 -1.1466 -0.7777  0.6427
 9055TIP3   OH227128   4.545   2.117   3.363  0.2932  0.6532  0.1406
 9055TIP3    H127129   4.482   2.190   3.363  0.6301  1.0549 -2.2899
 9055TIP3    H227130   4.499   2.046   3.407 -0.9168  1.6708  0.5987
 9056TIP3   OH227131   2.598   4.189   1.491  0.3336  0.1179 -0.5090
 9056TIP3    H127132   2.601   4.272   1.539 -1.5698  1.8380 -3.0892
 9056TIP3    H227133   2.689   4.160   1.487  1.4521  3.3046 -1.3910
 9057TIP3   OH227134   0.092   3.472   2.767  0.2211 -0.1026 -0.8324
 9057TIP3    H127135   0.102   3.540   2.833 -0.0334 -2.4175  1.7360
 9057TIP3    H227136   0.003   3.484   2.734  0.4693  1.2971 -1.0818
 9058TIP3   OH227137   3.064   2.989   4.536 -0.5708 -0.0623  0.6103
 9058TIP3    H127138   3.000   2.972   4.466  0.8885  0.5284 -0.9285
 9058TIP3    H227139   3.049   3.080   4.561  0.9360  0.7421 -1.1949
 9059TIP3   OH227140   6.010   1.442   1.564  0.4060 -0.0775  0.0170
 9059TIP3    H127141   6.100   1.473   1.552  0.1355  0.1267 -1.6233
 9059TIP3    H227142   6.016   1.347   1.557  0.9316 -0.4071  3.1283
 9060TIP3   OH227143   6.340   5.137   3.531 -0.7218 -0.0007 -0.6734
 9060TIP3    H127144   6.267   5.189   3.564  0.2855  1.3365 -0.4752
 9060TIP3    H227145   6.407   5.202   3.508  1.0291 -1.2675  0.6457
 9061TIP3   OH227146   3.644   0.555   2.657  0.1091 -0.1382  0.9243
 9061TIP3    H127147   3.679   0.523   2.740  0.8785 -2.9367 -0.3681
 9061TIP3    H227148   3.716   0.605   2.618  0.7607 -1.1994  0.7325
 9062TIP3   OH227149   0.165   0.764   1.238  0.2628 -0.6130  0.2534
 9062TIP3    H127150   0.230   0.795   1.175 -0.1843 -0.4367 -0.1312
 9062TIP3    H227151   0.210   0.697   1.289  0.9840  0.0570  0.5135
 9063TIP3   OH227152   4.794   4.632   4.381 -0.1662 -0.2723 -0.3514
 9063TIP3    H127153   4.751   4.704   4.334 -0.8888  0.3297  1.1959
 9063TIP3    H227154   4.786   4.655   4.473  1.6035 -1.2270  0.0837
 9064TIP3   OH227155   0.792   0.251   0.744 -0.1422  0.1643  0.4682
 9064TIP3    H127156   0.782   0.346   0.743 -1.0170  0.1422  2.6329
 9064TIP3    H227157   0.830   0.231   0.659 -1.3223  2.2933 -0.6622
 9065TIP3   OH227158   1.908   4.429   4.963 -0.5460  0.5627 -0.1803
 9065TIP3    H127159   1.921   4.369   5.036 -2.1288 -0.2882 -0.5386
 9065TIP3    H227160   1.974   4.497   4.975  1.9926 -1.7132 -0.2595
 9066TIP3   OH227161   5.854   4.005   4.433 -0.1688  0.3807  0.1248
 9066TIP3    H127162   5.866   3.987   4.526 -0.2410 -0.7620 -0.0742
 9066TIP3    H227163   5.940   3.988   4.394 -0.6556 -1.2112 -0.3138
 9067TIP3   OH227164   3.752   1.247   2.082 -0.1744 -0.2683 -0.0570
 9067TIP3    H127165   3.718   1.262   2.170  1.0272 -3.3194  1.0790
 9067TIP3    H227166   3.717   1.161   2.058 -0.8599  0.7027 -2.8166
 9068TIP3   OH227167   0.127   4.484   4.039  0.6451 -0.1763 -0.2204
 9068TIP3    H127168   0.062   4.511   3.975  2.2600  0.7197 -1.5592
 9068TIP3    H227169   0.181   4.420   3.993  0.3118 -1.4757  1.1011
 9069TIP3   OH227170   5.129   4.186   2.920 -0.3670 -0.3960 -0.1931
 9069TIP3    H127171   5.146   4.280   2.920  0.1036 -0.4809 -0.3460
 9069TIP3    H227172   5.137   4.160   2.828 -2.0197 -0.3191 -0.3924
 9070TIP3   OH227173   4.209   5.810   1.087  0.1334  0.4037  0.3575
 9070TIP3    H127174   4.251   5.793   1.171 -0.7957  0.8760  0.9385
 9070TIP3    H227175   4.229   5.733   1.034  1.2188  0.3587  0.8036
 9071TIP3   OH227176   5.231   0.958   0.676 -0.5205  0.1792  0.0757
 9071TIP3    H127177   5.282   0.996   0.604  0.4246  0.9380  1.1103
 9071TIP3    H227178   5.148   1.005   0.676  0.2224  1.5286  0.6644
 9072TIP3   OH227179   4.315   2.804   1.563  0.0304 -0.2444 -0.0190
 9072TIP3    H127180   4.271   2.885   1.537 -0.2104 -0.5089 -0.4388
 9072TIP3    H227181   4.244   2.739   1.569 -0.1235  0.0320  2.3687
 9073TIP3   OH227182   7.154   6.202   2.684  0.0098  0.3145  0.1969
 9073TIP3    H127183   7.146   6.117   2.640  0.9511 -0.2753  1.1183
 9073TIP3    H227184   7.111   6.264   2.625  0.1737 -0.6422 -0.9544
 9074TIP3   OH227185   6.151   2.778   4.398  0.1060 -0.2502 -0.2109
 9074TIP3    H127186   6.088   2.791   4.328 -0.2523 -0.4441  0.0723
 9074TIP3    H227187   6.220   2.842   4.380 -0.9996  1.2072  0.4359
 9075TIP3   OH227188   4.796   5.294   2.350  0.2142 -0.7166  0.2921
 9075TIP3    H127189   4.868   5.311   2.288 -1.0679  0.7544 -0.8630
 9075TIP3    H227190   4.830   5.321   2.435  1.6057 -1.6635  0.0725
 9076TIP3   OH227191   1.418   2.893   0.737  0.2902 -0.1548  0.0968
 9076TIP3    H127192   1.430   2.912   0.830 -0.9632 -1.3503  0.5415
 9076TIP3    H227193   1.424   2.978   0.694 -0.3128  0.5826  1.4130
 9077TIP3   OH227194   1.693   6.283   4.772  0.4841 -0.0576 -0.2812
 9077TIP3    H127195   1.671   6.288   4.679  0.4427 -0.8097 -0.3130
 9077TIP3    H227196   1.650   6.204   4.804 -1.3158  1.3194  0.8912
 9078TIP3   OH227197   1.242   3.379   0.471  0.3869  0.2105  0.5369
 9078TIP3    H127198   1.272   3.291   0.496  2.3475  0.2384 -1.4143
 9078TIP3    H227199   1.202   3.367   0.385 -1.9099  0.8392  1.4496
 9079TIP3   OH227200   0.459   5.926   0.162 -0.2940  0.1313 -0.0334
 9079TIP3    H127201   0.548   5.952   0.186 -0.2801 -0.1778  0.2527
 9079TIP3    H227202   0.412   6.009   0.153 -0.2479  0.2620  0.8666
 9080TIP3   OH227203   0.741   2.048   1.781  0.5763  0.2150 -0.2770
 9080TIP3    H127204   0.680   1.993   1.731 -0.3550  1.6135 -0.7347
 9080TIP3    H227205   0.820   2.050   1.727  0.0685  0.5604 -1.0375
 9081TIP3   OH227206   2.286   1.545   4.457 -0.4828 -0.3728  0.1551
 9081TIP3    H127207   2.252   1.461   4.426 -0.5776 -0.0340 -0.7203
 9081TIP3    H227208   2.321   1.587   4.378 -0.2598  0.3233  0.6104
 9082TIP3   OH227209   0.272   4.727   1.918 -0.0104  0.2913 -0.0505
 9082TIP3    H127210   0.224   4.645   1.928  1.0164 -0.4495 -0.8850
 9082TIP3    H227211   0.359   4.708   1.955  0.1526  1.0831 -0.0105
 9083TIP3   OH227212   5.133   3.819   4.146 -0.3072  0.4592 -0.1077
 9083TIP3    H127213   5.056   3.784   4.191 -0.7069 -0.7290 -1.6301
 9083TIP3    H227214   5.178   3.872   4.212 -1.1349 -0.7862  1.5117
 9084TIP3   OH227215   4.421   1.012   4.414 -0.8912 -0.0376  0.2224
 9084TIP3    H127216   4.490   0.971   4.466  0.0521  0.4668 -0.5829
 9084TIP3    H227217   4.385   1.080   4.471  0.2571  0.6303  0.1985
 9085TIP3   OH227218   2.033   5.814   2.444  0.4277 -0.3825  0.1102
 9085TIP3    H127219   1.941   5.836   2.462 -0.0794 -1.8003 -0.5956
 9085TIP3    H227220   2.077   5.899   2.438 -0.8379  0.3282  0.4245
 9086TIP3   OH227221   5.179   5.717   0.195  0.5968  0.5090  0.4338
 9086TIP3    H127222   5.189   5.640   0.139 -1.1741  1.3929 -1.2202
 9086TIP3    H227223   5.268   5.742   0.217  1.2838 -0.9626 -0.4961
 9087TIP3   OH227224   0.693   0.751   2.995  0.6885  0.2564 -0.0133
 9087TIP3    H127225   0.758   0.682   3.002 -0.2492 -0.6710 -0.2058
 9087TIP3    H227226   0.703   0.785   2.906 -0.4872 -1.3380 -0.7941
 9088TIP3   OH227227   6.325   5.821   2.206  0.2842  0.0480  0.0081
 9088TIP3    H127228   6.336   5.810   2.111  0.7529  1.1868 -0.0859
 9088TIP3    H227229   6.344   5.735   2.242  3.5789  0.3551 -0.6775
 9089TIP3   OH227230   5.848   6.023   0.102 -0.0736 -0.2985  0.4759
 9089TIP3    H127231   5.915   6.038   0.169 -0.7680 -0.2715  1.1835
 9089TIP3    H227232   5.847   5.928   0.090  1.2443 -0.1850 -0.7715
 9090TIP3   OH227233   7.062   3.503   5.792 -0.1211 -0.1463  0.5890
 9090TIP3    H127234   7.002   3.568   5.757 -1.3358 -0.7095  1.5292
 9090TIP3    H227235   7.061   3.519   5.887 -0.5209 -1.5588  0.8501
 9091TIP3   OH227236   1.518   4.260   5.413  0.0755  0.4370 -0.5180
 9091TIP3    H127237   1.440   4.304   5.448 -0.0676 -0.3563  0.1897
 9091TIP3    H227238   1.591   4.297   5.463  0.0425  0.4275 -0.4634
 9092TIP3   OH227239   2.607   3.093   4.219  0.4059  0.8670 -0.1001
 9092TIP3    H127240   2.588   3.054   4.133 -1.3633  1.7303 -0.1505
 9092TIP3    H227241   2.534   3.153   4.234  0.3688  0.3119  2.2740
 9093TIP3   OH227242   4.460   4.806   3.663 -0.5473 -0.6076 -0.1071
 9093TIP3    H127243   4.429   4.765   3.744 -1.1700  1.0101  0.5129
 9093TIP3    H227244   4.507   4.884   3.691  2.9490 -2.1478 -1.1099
 9094TIP3   OH227245   2.179   5.002   0.734  0.2987 -0.0512 -0.0712
 9094TIP3    H127246   2.256   4.949   0.717  0.6002 -0.6241  2.6520
 9094TIP3    H227247   2.213   5.090   0.753  0.0961  0.1932 -0.7963
 9095TIP3   OH227248   3.074   0.022   3.177 -0.3086  0.3229 -0.4172
 9095TIP3    H127249   3.100   0.084   3.108 -0.3923  0.5391 -0.2526
 9095TIP3    H227250   3.134   0.040   3.249 -0.4771  0.3611 -0.2874
 9096TIP3   OH227251   0.872   6.466   0.797  0.1265 -0.3227  0.2166
 9096TIP3    H127252   0.920   6.548   0.783 -1.0114  0.5152  1.0688
 9096TIP3    H227253   0.802   6.468   0.732  0.6819 -1.1229 -0.4312
 9097TIP3   OH227254   6.510   3.272   4.321 -0.1703 -0.9573 -0.5084
 9097TIP3    H127255   6.462   3.355   4.324  2.6840  0.8436 -0.2541
 9097TIP3    H227256   6.499   3.241   4.232 -0.4375  0.2958 -0.9320
 9098TIP3   OH227257   4.616   4.465   0.876 -0.0926 -0.6516  0.4123
 9098TIP3    H127258   4.675   4.519   0.823  0.6022 -0.7070  1.1076
 9098TIP3    H227259   4.564   4.416   0.812  2.3143 -2.4793 -0.2905
 9099TIP3   OH227260   0.258   2.381   4.763 -0.2343  0.1864  0.2277
 9099TIP3    H127261   0.226   2.319   4.828  0.9565  0.7977  1.4507
 9099TIP3    H227262   0.182   2.435   4.742 -1.2464 -1.5210 -0.7316
 9100TIP3   OH227263   1.875   3.008   3.107 -0.4997  0.2332 -0.4014
 9100TIP3    H127264   1.788   3.045   3.116 -1.1131 -1.1922 -0.1676
 9100TIP3    H227265   1.908   3.043   3.025 -1.0189  1.2933 -0.1795
 9101TIP3   OH227266   2.700   0.967   2.588 -0.0278 -0.2386  0.7124
 9101TIP3    H127267   2.745   0.932   2.666  0.5713 -0.0418  0.4662
 9101TIP3    H227268   2.765   1.026   2.549  0.8762 -2.5991 -1.6194
 9102TIP3   OH227269   2.065   6.210   3.967 -0.1266 -0.5816  0.3611
 9102TIP3    H127270   1.994   6.261   3.929  0.4382  1.3410  1.7162
 9102TIP3    H227271   2.025   6.166   4.043 -0.1119 -0.3527  0.5021
 9103TIP3   OH227272   3.158   4.347   4.782  0.3624  0.1061 -0.2580
 9103TIP3    H127273   3.200   4.391   4.856  0.4136  1.5838 -1.1144
 9103TIP3    H227274   3.219   4.276   4.759 -0.3869 -1.3750  2.0143
 9104TIP3   OH227275   2.212   2.522   1.962 -0.0713 -0.3309  0.5850
 9104TIP3    H127276   2.170   2.606   1.979 -0.3403 -0.3856  0.1923
 9104TIP3    H227277   2.181   2.465   2.032 -0.4981 -0.3162  0.4079
 9105TIP3   OH227278   4.099   4.756   3.901 -0.2406 -0.6576 -0.2324
 9105TIP3    H127279   4.013   4.722   3.925 -0.6029  0.6528  0.4151
 9105TIP3    H227280   4.118   4.716   3.815 -1.5100 -0.9052 -0.4111
 9106TIP3   OH227281   5.358   4.864   2.212  0.6128 -0.2406 -0.3206
 9106TIP3    H127282   5.366   4.869   2.116  0.3104 -0.0879 -0.3391
 9106TIP3    H227283   5.414   4.790   2.236  2.7674  1.2953 -0.3362
 9107TIP3   OH227284   3.096   4.135   2.390  0.3743 -0.4904  0.3431
 9107TIP3    H127285   3.072   4.216   2.434 -3.3732 -0.5214 -1.2408
 9107TIP3    H227286   3.100   4.070   2.460  0.7545  0.5405  1.3088
 9108TIP3   OH227287   4.983   0.917   4.845  0.8139  0.0821  0.3004
 9108TIP3    H127288   4.948   0.845   4.897  1.0824 -0.6305 -0.4903
 9108TIP3    H227289   4.917   0.986   4.852 -0.7353 -1.1933 -1.0726
 9109TIP3   OH227290   1.640   0.953   3.493  0.0656  0.9533  0.0236
 9109TIP3    H127291   1.701   0.911   3.554 -1.1962 -2.2892 -0.7207
 9109TIP3    H227292   1.613   1.033   3.538  0.6303 -0.3186  2.9046
 9110TIP3   OH227293   5.215   5.538   1.734 -0.5698  0.0036 -0.1582
 9110TIP3    H127294   5.204   5.446   1.760 -1.8438  0.4430  0.9783
 9110TIP3    H227295   5.151   5.551   1.664 -0.7798  0.1574  0.0593
 9111TIP3   OH227296   3.563   3.658   0.356 -0.5714  0.4800 -0.0958
 9111TIP3    H127297   3.591   3.668   0.447  0.2657  2.6252 -0.5163
 9111TIP3    H227298   3.643   3.674   0.305 -0.7584 -1.8603 -1.2263
 9112TIP3   OH227299   4.460   1.839   4.571 -0.7167 -0.7530  0.0023
 9112TIP3    H127300   4.445   1.762   4.626  1.7218 -0.0856  1.7804
 9112TIP3    H227301   4.518   1.808   4.502  0.3563 -0.5469  0.7817
 9113TIP3   OH227302   0.442   0.161  -0.007 -0.1282  0.1526 -0.0896
 9113TIP3    H127303   0.518   0.103  -0.012 -0.7822 -0.6214 -1.2885
 9113TIP3    H227304   0.382   0.117   0.053  0.1132  0.4799  0.4002
 9114TIP3   OH227305   4.966   0.315   0.787 -0.1868 -0.2712 -0.2203
 9114TIP3    H127306   5.024   0.254   0.741 -0.3871 -0.3431 -0.3781
 9114TIP3    H227307   4.922   0.261   0.853 -0.6353 -0.3762 -0.6016
 9115TIP3   OH227308   5.042   6.679   0.234 -0.1079 -0.8260 -0.1243
 9115TIP3    H127309   5.060   6.673   0.327 -1.4236  0.8550  0.3039
 9115TIP3    H227310   4.977   6.749   0.227 -0.6583 -1.4624 -2.2213
 9116TIP3   OH227311   0.424   5.627   0.185  0.0528  0.0174 -0.1054
 9116TIP3    H127312   0.440   5.712   0.143 -1.7231 -0.4851 -1.9652
 9116TIP3    H227313   0.504   5.609   0.234  1.8510  1.2216 -2.3897
 9117TIP3   OH227314   4.121   4.331   4.312 -0.5772 -0.0319  0.6001
 9117TIP3    H127315   4.209   4.299   4.333 -1.0170 -0.5308  1.7586
 9117TIP3    H227316   4.129   4.427   4.316 -0.3958 -0.0857  2.1436
 9118TIP3   OH227317   2.679   6.272   3.698  0.3415  0.5156  0.0794
 9118TIP3    H127318   2.754   6.242   3.749  1.4930  1.5749 -0.9368
 9118TIP3    H227319   2.616   6.303   3.764  1.2779  0.7230  0.8983
 9119TIP3   OH227320   6.831   3.065   5.081 -0.0077  0.5364 -0.5434
 9119TIP3    H127321   6.923   3.038   5.089 -0.0722  0.5282  0.2335
 9119TIP3    H227322   6.812   3.109   5.164 -0.6753  0.6326 -0.7475
 9120TIP3   OH227323   5.382   3.990   0.874 -0.2656 -0.4676 -0.7161
 9120TIP3    H127324   5.311   3.979   0.937  0.5608  0.7667  0.4747
 9120TIP3    H227325   5.437   4.059   0.911  2.5750 -2.5940 -0.6494
 9121TIP3   OH227326   2.100   4.316   0.867 -0.2148  0.0149 -0.5578
 9121TIP3    H127327   2.013   4.332   0.903 -0.1888 -0.3225 -0.3378
 9121TIP3    H227328   2.126   4.399   0.827 -0.2648  0.3839  0.1673
 9122TIP3   OH227329   2.796   3.839   3.318  0.4540  0.1552 -0.0131
 9122TIP3    H127330   2.753   3.763   3.357  1.1432  0.2647  0.9698
 9122TIP3    H227331   2.833   3.888   3.391  3.1813 -0.4706 -0.8496
 9123TIP3   OH227332   5.943   1.911   4.773  0.8285 -0.1145  0.2864
 9123TIP3    H127333   5.986   1.977   4.719 -0.1084  0.8776  0.7044
 9123TIP3    H227334   5.926   1.838   4.714  2.5094 -0.2846 -0.0237
 9124TIP3   OH227335   6.267   6.606   0.547 -0.4316  0.7784 -0.1364
 9124TIP3    H127336   6.355   6.613   0.511  0.3120 -0.6639  1.2839
 9124TIP3    H227337   6.240   6.516   0.527 -1.7430  1.3031 -0.8533
 9125TIP3   OH227338   0.119   5.923   3.786 -0.3717  0.4511  0.6834
 9125TIP3    H127339   0.080   5.858   3.844 -1.7268  0.6482  0.0296
 9125TIP3    H227340   0.145   5.994   3.844  0.2718 -0.2650  1.2901
 9126TIP3   OH227341   3.115   4.777   0.100 -0.0228  0.7294 -0.1910
 9126TIP3    H127342   3.039   4.763   0.157 -0.2119 -0.0008 -0.6023
 9126TIP3    H227343   3.189   4.788   0.160 -0.4321  1.3237  0.2106
 9127TIP3   OH227344   1.310   4.700   2.175  0.3507 -0.1345 -0.0586
 9127TIP3    H127345   1.369   4.702   2.099  0.4398 -1.5741 -0.0535
 9127TIP3    H227346   1.222   4.705   2.137  0.3377 -2.1862 -0.3956
 9128TIP3   OH227347   7.111   5.946   1.823 -0.2896  0.0529  0.1568
 9128TIP3    H127348   7.181   5.886   1.850  0.0218  0.2086 -0.2830
 9128TIP3    H227349   7.031   5.905   1.854 -0.2064 -1.2522 -1.2408
 9129TIP3   OH227350   4.897   4.437   3.841  0.5543  0.0429 -0.1512
 9129TIP3    H127351   4.923   4.529   3.842 -1.2114  0.5743 -0.0498
 9129TIP3    H227352   4.845   4.427   3.762 -0.2868 -0.5561  0.4531
 9130TIP3   OH227353   4.521   3.434   1.637  0.6282 -0.3232  0.1510
 9130TIP3    H127354   4.441   3.479   1.663 -0.7548 -3.1419  1.1748
 9130TIP3    H227355   4.562   3.409   1.720  1.5498 -0.6044 -0.3770
 9131TIP3   OH227356   2.834   1.356   3.540  0.4728 -0.2657  0.8698
 9131TIP3    H127357   2.891   1.363   3.463 -1.1779  0.0349 -0.3806
 9131TIP3    H227358   2.809   1.264   3.544  0.1615 -0.1861  0.7554
 9132TIP3   OH227359   2.755   3.159   2.501 -0.2564 -0.7964  0.7810
 9132TIP3    H127360   2.840   3.199   2.519 -0.6973  0.2591  0.6431
 9132TIP3    H227361   2.704   3.230   2.460 -0.6453 -1.8996 -0.7147
 9133TIP3   OH227362   0.836   3.170   2.801  0.2542  0.2746  0.4839
 9133TIP3    H127363   0.875   3.086   2.777  0.1443  0.6324 -1.1024
 9133TIP3    H227364   0.864   3.185   2.891 -0.2963 -1.7721  1.0417
 9134TIP3   OH227365   4.060   6.343   5.871 -0.2598 -0.1197  0.7285
 9134TIP3    H127366   3.965   6.350   5.868 -0.2145  1.6508  1.9229
 9134TIP3    H227367   4.090   6.429   5.900  1.7650 -0.3898 -0.3324
 9135TIP3   OH227368   3.319   0.387   2.552  0.3562  0.0742 -0.2798
 9135TIP3    H127369   3.348   0.421   2.467 -1.2409  0.2002 -0.7979
 9135TIP3    H227370   3.303   0.294   2.536  1.6378 -0.2840  0.3357
 9136TIP3   OH227371   0.166   2.824   0.428 -0.2969  0.4401  0.8672
 9136TIP3    H127372   0.154   2.780   0.343  1.5460 -0.1556  0.8748
 9136TIP3    H227373   0.081   2.814   0.472 -0.3806 -1.9925  0.3270
 9137TIP3   OH227374   2.430   2.105   4.084  0.2573  0.1413  0.0274
 9137TIP3    H127375   2.524   2.126   4.082  0.0461  1.8387  2.6238
 9137TIP3    H227376   2.387   2.191   4.090 -1.3156 -0.6774  1.1311
 9138TIP3   OH227377   5.123   0.071   0.960 -0.2287  0.4333 -0.2633
 9138TIP3    H127378   5.215   0.043   0.963  0.4533  2.5826  0.3125
 9138TIP3    H227379   5.117   0.124   0.881 -0.7830  0.9201  0.1024
 9139TIP3   OH227380   2.991   5.978   5.588 -0.3696  0.1773  0.6172
 9139TIP3    H127381   2.965   6.068   5.607 -0.0254  0.4993 -0.3594
 9139TIP3    H227382   3.078   5.986   5.547 -1.7314 -0.2524 -2.6884
 9140TIP3   OH227383   5.775   5.551   3.687  0.0046 -0.5987 -0.1127
 9140TIP3    H127384   5.785   5.582   3.597  1.5085 -0.9700 -0.1067
 9140TIP3    H227385   5.690   5.507   3.688  0.1887 -1.0440 -1.5113
 9141TIP3   OH227386   0.719   5.253   3.826  0.2901  0.0988  0.1752
 9141TIP3    H127387   0.804   5.245   3.869 -1.1209 -2.0540  2.8894
 9141TIP3    H227388   0.681   5.333   3.864  1.0258  1.0535 -1.0280
 9142TIP3   OH227389   4.515   5.560   1.466 -0.1934  0.2793  0.5575
 9142TIP3    H127390   4.498   5.540   1.558 -0.2558  0.3159  0.5538
 9142TIP3    H227391   4.593   5.616   1.469 -0.2414  0.3451  0.5941
 9143TIP3   OH227392   3.314   6.518   1.677  0.1479 -0.0122  0.1410
 9143TIP3    H127393   3.388   6.478   1.723  1.2527  1.6897 -0.0684
 9143TIP3    H227394   3.354   6.588   1.625 -1.5201  0.3626 -0.6760
 9144TIP3   OH227395   2.519   1.202   5.035  0.0254  0.4769  0.1575
 9144TIP3    H127396   2.577   1.132   5.064  0.1770  0.8396  0.7579
 9144TIP3    H227397   2.562   1.238   4.957 -0.2765 -0.3675 -0.4149
 9145TIP3   OH227398   1.529   6.662   4.744  0.0446 -0.3119  0.0696
 9145TIP3    H127399   1.469   6.608   4.692 -0.1241  1.6690 -1.9241
 9145TIP3    H227400   1.522   6.749   4.706  3.4641  0.2423  0.4235
 9146TIP3   OH227401   7.008   1.991   0.947 -0.1833  0.8243  0.2001
 9146TIP3    H127402   7.016   1.898   0.925 -1.4810  1.2524 -2.4601
 9146TIP3    H227403   7.039   1.997   1.038 -2.2795 -2.5742  1.3330
 9147TIP3   OH227404   1.560   0.884   5.485 -0.2259  0.1015 -0.8477
 9147TIP3    H127405   1.528   0.946   5.551 -1.5826 -0.7866 -0.6389
 9147TIP3    H227406   1.645   0.855   5.519 -0.9685 -0.4625  0.6199
 9148TIP3   OH227407   3.378   0.277   4.298 -0.5811  0.6264  0.5780
 9148TIP3    H127408   3.308   0.217   4.325 -1.2599  0.6645 -0.9894
 9148TIP3    H227409   3.334   0.341   4.242  0.4253  1.6955  0.9695
 9149TIP3   OH227410   1.429   0.115   2.410  0.0380 -0.1346 -0.4485
 9149TIP3    H127411   1.471   0.191   2.451 -0.1247 -1.1233  1.6925
 9149TIP3    H227412   1.453   0.041   2.466 -1.3761 -1.3490 -1.3657
 9150TIP3   OH227413   1.816   1.902   4.819 -0.1766  0.3343  0.0010
 9150TIP3    H127414   1.757   1.978   4.815 -0.2623  0.2823  0.2477
 9150TIP3    H227415   1.884   1.927   4.882 -0.9690 -0.3143  1.1594
 9151TIP3   OH227416   6.491   4.462   5.001  0.2868 -0.1597 -0.2711
 9151TIP3    H127417   6.437   4.383   4.995  0.5453 -0.4151  0.5305
 9151TIP3    H227418   6.538   4.467   4.918 -0.8515 -0.0134 -0.9185
 9152TIP3   OH227419   5.474   5.641   3.931  0.4606  0.2082  0.0381
 9152TIP3    H127420   5.508   5.567   3.981 -2.4993 -2.4819 -1.5910
 9152TIP3    H227421   5.546   5.667   3.873  2.1019 -0.1981  1.8085
 9153TIP3   OH227422   6.957   3.530   2.352  0.8876  0.3361 -0.2055
 9153TIP3    H127423   6.959   3.616   2.394 -0.6518  0.6218 -0.6642
 9153TIP3    H227424   7.006   3.541   2.271  0.7364  0.7610 -0.2370
 9154TIP3   OH227425   2.699   1.131   0.485 -0.4919 -0.3402 -0.1344
 9154TIP3    H127426   2.782   1.085   0.469 -1.6933 -3.2723  1.2392
 9154TIP3    H227427   2.713   1.176   0.569  0.7514  2.1066 -1.5679
 9155TIP3   OH227428   4.769   5.291   2.624 -0.4660  0.0653  0.0273
 9155TIP3    H127429   4.680   5.321   2.605 -0.2174  0.1415 -1.0843
 9155TIP3    H227430   4.789   5.328   2.709 -1.1770  0.7702 -0.0989
 9156TIP3   OH227431   4.596   6.424   3.144  0.1940 -0.2161 -0.3416
 9156TIP3    H127432   4.591   6.329   3.151  0.5704 -0.1703  0.7585
 9156TIP3    H227433   4.688   6.444   3.156 -0.0725  0.3770  0.8385
 9157TIP3   OH227434   3.086   4.635   3.146  0.4343 -0.4206 -0.1172
 9157TIP3    H127435   3.049   4.722   3.161 -1.0367 -1.1629  0.8851
 9157TIP3    H227436   3.039   4.602   3.070 -1.3310 -1.4962  1.3568
 9158TIP3   OH227437   0.098   1.641   5.341  0.2389  0.0257  0.1146
 9158TIP3    H127438   0.185   1.606   5.357  0.8146  1.6757  0.7002
 9158TIP3    H227439   0.059   1.651   5.428 -0.1313  0.3013 -0.0786
 9159TIP3   OH227440   4.950   4.850   1.015  0.1474 -0.6905  0.4892
 9159TIP3    H127441   5.014   4.918   0.995 -1.5846  0.7177 -0.5310
 9159TIP3    H227442   4.968   4.826   1.106 -0.6897  2.9353  1.7575
 9160TIP3   OH227443   0.429   1.465   1.678  0.4899  0.2903  0.3616
 9160TIP3    H127444   0.467   1.498   1.596 -0.9567 -1.4629 -1.1162
 9160TIP3    H227445   0.402   1.544   1.725  0.3459  1.3465 -1.3842
 9161TIP3   OH227446   2.747   3.567   1.303 -0.4213  0.3793 -0.9039
 9161TIP3    H127447   2.782   3.480   1.283  1.2062  0.8001 -0.0761
 9161TIP3    H227448   2.755   3.615   1.220  1.4838  0.5956 -0.6470
 9162TIP3   OH227449   4.411   2.868   4.207  0.8573  0.8108  0.6507
 9162TIP3    H127450   4.474   2.910   4.148 -0.5936 -0.3568 -1.9269
 9162TIP3    H227451   4.406   2.777   4.176 -0.5645  0.3526  2.0905
 9163TIP3   OH227452   3.882   4.780   1.336 -0.1581 -0.0920  0.2341
 9163TIP3    H127453   3.841   4.754   1.419 -0.2683 -0.8200 -0.0389
 9163TIP3    H227454   3.808   4.790   1.275 -0.0783  0.4392  0.2206
 9164TIP3   OH227455   4.650   5.575   5.113 -0.4919 -0.4013 -0.5643
 9164TIP3    H127456   4.702   5.497   5.133  0.1003 -0.3675 -1.8931
 9164TIP3    H227457   4.701   5.648   5.149 -0.0081 -0.4389 -1.1726
 9165TIP3   OH227458   1.648   6.171   5.673 -0.2812  0.3232  0.1076
 9165TIP3    H127459   1.554   6.183   5.690 -0.7119 -0.3300 -1.6068
 9165TIP3    H227460   1.652   6.100   5.609  1.4872 -0.6404  1.2181
 9166TIP3   OH227461   5.803   0.024   1.861 -0.0802 -0.4005 -0.4609
 9166TIP3    H127462   5.872   0.084   1.888  0.2448 -0.2329 -1.5964
 9166TIP3    H227463   5.761  -0.004   1.943  1.2009 -0.3600  0.2313
 9167TIP3   OH227464   0.100   4.726   0.647 -0.0532 -0.3259 -0.1926
 9167TIP3    H127465   0.100   4.706   0.741 -1.9798 -0.5762 -0.1980
 9167TIP3    H227466   0.047   4.805   0.639 -0.9131 -0.9575 -1.1493
 9168TIP3   OH227467   3.295   1.169   4.918 -0.8196  0.5596 -0.2224
 9168TIP3    H127468   3.226   1.103   4.918 -0.7231  0.4471 -1.0578
 9168TIP3    H227469   3.304   1.196   4.826  0.2878  0.5268 -0.1461
 9169TIP3   OH227470   0.921   6.379   2.466 -0.5586 -0.4729  0.0739
 9169TIP3    H127471   0.929   6.299   2.413  0.3585 -1.7826  2.0728
 9169TIP3    H227472   0.989   6.437   2.432 -0.7954 -0.7872 -0.9771
 9170TIP3   OH227473   6.613   1.680   4.073  0.0610  0.6391 -0.0793
 9170TIP3    H127474   6.560   1.674   4.153  0.5425  0.4083  0.2239
 9170TIP3    H227475   6.568   1.623   4.010 -0.2049  0.6597  0.0899
 9171TIP3   OH227476   2.970   4.269   1.885 -0.1831  0.1098  0.2061
 9171TIP3    H127477   2.934   4.195   1.836  1.4403  0.6957 -1.9729
 9171TIP3    H227478   2.896   4.330   1.892 -0.7265 -0.4251 -0.6078
 9172TIP3   OH227479   1.540   3.187   1.849  0.6202  0.0088  0.0299
 9172TIP3    H127480   1.495   3.213   1.768  1.5862 -0.2100 -0.5936
 9172TIP3    H227481   1.471   3.150   1.903 -0.0951  0.3802 -0.5928
 9173TIP3   OH227482   0.927   0.022   4.427 -0.1598  0.0681  0.1403
 9173TIP3    H127483   0.856  -0.028   4.387 -0.9474 -1.2381  2.9142
 9173TIP3    H227484   0.890   0.057   4.508  2.0617  0.1703  1.1904
 9174TIP3   OH227485   1.899   4.667   1.480 -0.2000  0.1537 -0.3766
 9174TIP3    H127486   1.830   4.627   1.426 -1.1895  0.2660  0.7550
 9174TIP3    H227487   1.960   4.704   1.417  0.1354 -2.0612 -1.4573
 9175TIP3   OH227488   0.951   1.697   4.027  0.4726 -0.0674  0.1208
 9175TIP3    H127489   1.044   1.719   4.037  0.6938 -0.8587 -0.0686
 9175TIP3    H227490   0.905   1.781   4.031  1.2879  0.4441 -0.8466
 9176TIP3   OH227491   6.775   2.189   3.998  0.3102 -0.0505 -0.3570
 9176TIP3    H127492   6.784   2.246   4.074  0.9330  0.4849 -0.8301
 9176TIP3    H227493   6.724   2.115   4.031  0.4440  0.2408  0.5479
 9177TIP3   OH227494   3.489   5.439   4.139 -0.0118 -0.4320  0.1192
 9177TIP3    H127495   3.415   5.437   4.077  1.4375 -0.7508 -1.7015
 9177TIP3    H227496   3.520   5.529   4.136  1.1916 -0.8410 -1.1185
 9178TIP3   OH227497   3.752   1.135   0.627  0.4592 -0.2312  0.0245
 9178TIP3    H127498   3.832   1.171   0.665  1.0629 -2.1937  0.7464
 9178TIP3    H227499   3.682   1.175   0.678  1.0329  0.6958  0.0985
 9179TIP3   OH227500   7.212   4.190   5.206  0.2278 -0.2589  0.5133
 9179TIP3    H127501   7.251   4.240   5.278  0.9745  1.5776 -1.1008
 9179TIP3    H227502   7.139   4.143   5.248  0.0029  1.5219  2.2936
 9180TIP3   OH227503   0.156   6.095   5.647 -0.3250 -0.5671 -0.2949
 9180TIP3    H127504   0.197   6.156   5.708  0.2616 -1.1114 -0.1309
 9180TIP3    H227505   0.229   6.053   5.602 -0.6493 -1.9850  0.4173
 9181TIP3   OH227506   0.060   4.419   4.291  0.1808 -0.2219 -0.6315
 9181TIP3    H127507   0.131   4.359   4.265  1.4821  2.0013 -2.6645
 9181TIP3    H227508   0.025   4.451   4.208 -0.5838  1.6740  0.3718
 9182TIP3   OH227509   6.127   4.957   2.289 -0.3808 -0.2928  0.1919
 9182TIP3    H127510   6.036   4.932   2.274  0.1531 -1.2174 -1.7257
 9182TIP3    H227511   6.160   4.891   2.350 -0.7634 -0.4297  0.2527
 9183TIP3   OH227512   0.379   1.622   2.660 -0.0719 -0.0725 -0.6164
 9183TIP3    H127513   0.377   1.655   2.570 -0.9983 -0.2964 -0.6905
 9183TIP3    H227514   0.370   1.527   2.651  0.5169 -0.1626 -0.3126
 9184TIP3   OH227515   0.675   2.080   3.666 -0.2477  0.1918 -0.0813
 9184TIP3    H127516   0.757   2.031   3.672 -0.3232  0.2338  3.3422
 9184TIP3    H227517   0.607   2.013   3.664 -0.2073  0.1690 -1.0376
 9185TIP3   OH227518   2.527   0.373   4.320 -0.2776 -0.0438  0.2442
 9185TIP3    H127519   2.453   0.320   4.350  1.5404 -2.6105  0.5622
 9185TIP3    H227520   2.573   0.396   4.401  1.8910 -2.7284 -0.0896
 9186TIP3   OH227521   3.073   0.906   3.869 -0.3066  0.5809  0.1545
 9186TIP3    H127522   3.157   0.872   3.838 -0.5250 -2.4048  2.4422
 9186TIP3    H227523   3.075   0.999   3.845  3.1129  0.3741 -0.9343
 9187TIP3   OH227524   6.687   3.604   5.234  0.1744 -0.3809  0.2845
 9187TIP3    H127525   6.674   3.680   5.177  0.0466 -0.9712 -0.4934
 9187TIP3    H227526   6.613   3.546   5.213  0.2490 -0.7028  0.8968
 9188TIP3   OH227527   6.446   1.137   0.579  0.0726  0.8082 -0.2071
 9188TIP3    H127528   6.494   1.152   0.660  0.0414  0.4905 -0.1290
 9188TIP3    H227529   6.452   1.220   0.532 -1.5179  1.6354  0.9630
 9189TIP3   OH227530   5.069   1.372   4.934  0.0524 -0.0468 -0.1296
 9189TIP3    H127531   5.066   1.459   4.894 -0.9985 -0.6832 -1.5127
 9189TIP3    H227532   4.983   1.334   4.916  0.7316 -1.6470 -0.1902
 9190TIP3   OH227533   0.158   5.921   5.869  0.2500 -0.4222 -0.0878
 9190TIP3    H127534   0.246   5.883   5.878  1.0835  1.2473 -0.7979
 9190TIP3    H227535   0.160   5.966   5.784 -1.8947 -1.8016 -0.9655
 9191TIP3   OH227536   5.646   0.507   4.344 -0.1578  0.2643 -0.1610
 9191TIP3    H127537   5.563   0.512   4.391  0.1598  1.3522  0.3087
 9191TIP3    H227538   5.692   0.587   4.368  0.5126  0.2682 -1.3901
 9192TIP3   OH227539   4.456   0.867   5.669 -0.1654  0.4782  0.0125
 9192TIP3    H127540   4.461   0.955   5.631 -0.3925  1.1040  1.3925
 9192TIP3    H227541   4.474   0.808   5.595  2.2475  1.7260 -0.4935
 9193TIP3   OH227542   5.869   2.623   4.710 -0.1661  0.1315  0.4801
 9193TIP3    H127543   5.787   2.648   4.753  0.1789  2.2048  0.0265
 9193TIP3    H227544   5.916   2.573   4.776 -1.0720  0.3864  1.3437
 9194TIP3   OH227545   6.546   3.625   0.281  0.3634 -0.3463  0.2547
 9194TIP3    H127546   6.599   3.610   0.359  0.0010  1.4534  0.8960
 9194TIP3    H227547   6.607   3.661   0.216  0.6774 -1.8968 -0.3611
 9195TIP3   OH227548   1.851   1.615   4.371  0.5453  0.5439 -0.4230
 9195TIP3    H127549   1.842   1.681   4.439  0.5656  0.3865 -0.2681
 9195TIP3    H227550   1.887   1.539   4.416 -1.0778 -0.1626 -0.2556
 9196TIP3   OH227551   3.110   1.868   4.382  0.2511 -0.2123 -0.5316
 9196TIP3    H127552   3.050   1.796   4.361  0.6378 -0.9314  0.7298
 9196TIP3    H227553   3.189   1.825   4.414  0.8141  0.7689 -0.5696
 9197TIP3   OH227554   3.097   3.714   3.948 -0.1166 -0.4173 -0.6693
 9197TIP3    H127555   3.013   3.755   3.932 -0.0625  0.3499  0.8456
 9197TIP3    H227556   3.075   3.626   3.981 -0.3047 -0.4747 -0.9500
 9198TIP3   OH227557   4.548   1.916   4.993 -0.1873  0.2307 -0.0179
 9198TIP3    H127558   4.546   2.011   4.980  0.7799  0.7163  2.7071
 9198TIP3    H227559   4.458   1.888   4.983 -0.8639  1.8085  1.2257
 9199TIP3   OH227560   1.594   5.415   0.031 -0.2239  0.0204  0.6243
 9199TIP3    H127561   1.594   5.392  -0.062 -0.0191 -0.2925  0.6954
 9199TIP3    H227562   1.681   5.388   0.062  0.2779  1.5359  0.5720
 9200TIP3   OH227563   5.844   0.359   2.034 -0.1953 -0.1326  0.1056
 9200TIP3    H127564   5.883   0.284   1.989 -0.4735 -0.7225  0.8202
 9200TIP3    H227565   5.827   0.327   2.123  0.3624  1.0144  0.6382
 9201TIP3   OH227566   4.275   1.267   5.736  0.0022 -0.2920 -0.5336
 9201TIP3    H127567   4.341   1.201   5.757 -0.2048 -0.5704 -0.7604
 9201TIP3    H227568   4.227   1.231   5.662 -1.9662 -1.1756  1.0816
 9202TIP3   OH227569   5.339   4.980   4.012  0.5450 -0.1832 -0.3352
 9202TIP3    H127570   5.254   5.006   3.974 -0.1336 -2.5908 -0.6131
 9202TIP3    H227571   5.331   5.001   4.105 -1.1574 -2.0734  0.0158
 9203TIP3   OH227572   0.444   4.605   1.067 -0.5073 -0.3275  0.8468
 9203TIP3    H127573   0.525   4.645   1.100 -0.1435 -0.8423  0.5990
 9203TIP3    H227574   0.388   4.679   1.044 -0.6602  0.0452  2.3410
 9204TIP3   OH227575   6.388   6.020   3.365  0.2377  0.1587 -0.6787
 9204TIP3    H127576   6.389   5.977   3.280  1.1239  0.7036 -0.9520
 9204TIP3    H227577   6.399   5.948   3.428  0.2342 -0.1753 -1.0536
 9205TIP3   OH227578   6.404   5.798   1.435  0.6832  0.2658 -0.1899
 9205TIP3    H127579   6.349   5.763   1.365  0.1842  0.0305  0.3228
 9205TIP3    H227580   6.466   5.856   1.389  0.4770 -0.0242 -0.8446
 9206TIP3   OH227581   2.387   4.482   5.416  0.0370  0.1262 -0.0531
 9206TIP3    H127582   2.356   4.567   5.446  1.3124  0.3506  0.6765
 9206TIP3    H227583   2.450   4.454   5.483  1.1450 -0.4773 -1.3016
 9207TIP3   OH227584   1.023   0.310   0.045 -0.0591  0.5442 -0.1957
 9207TIP3    H127585   1.047   0.384   0.100 -0.3731  0.3232  0.2428
 9207TIP3    H227586   1.103   0.258   0.039 -0.3137 -0.0099  0.9711
 9208TIP3   OH227587   2.094   1.594   1.785 -0.0069  0.2063  0.0629
 9208TIP3    H127588   2.177   1.605   1.738 -0.4915 -0.1703 -0.9069
 9208TIP3    H227589   2.094   1.664   1.850  0.8469  0.5248 -0.2677
 9209TIP3   OH227590   1.939   2.671   4.519  0.1438  0.4597 -0.0459
 9209TIP3    H127591   1.992   2.701   4.593 -1.8050 -0.2413  1.7598
 9209TIP3    H227592   2.000   2.624   4.462  1.6540  0.7363  1.2840
 9210TIP3   OH227593   0.158   5.606   0.999  0.3236 -0.3186  0.0875
 9210TIP3    H127594   0.242   5.623   1.042  0.2858 -0.4062  0.1968
 9210TIP3    H227595   0.139   5.686   0.951 -1.2979  1.1454  2.9500
 9211TIP3   OH227596   0.267   2.895   3.330 -0.4923 -0.1001 -0.4153
 9211TIP3    H127597   0.190   2.862   3.376  0.4442 -1.7713  0.0298
 9211TIP3    H227598   0.312   2.817   3.300  0.4245  0.8881 -1.7087
 9212TIP3   OH227599   0.650   3.460   3.754  0.3106 -0.3034  0.0344
 9212TIP3    H127600   0.596   3.502   3.821  0.0426 -0.9806  0.2531
 9212TIP3    H227601   0.740   3.485   3.776  0.1106  0.7004 -0.2371
 9213TIP3   OH227602   5.131   4.996   1.689  0.0884  0.1503 -0.4943
 9213TIP3    H127603   5.098   4.954   1.769 -0.3359  0.1878 -0.6489
 9213TIP3    H227604   5.100   4.940   1.618 -0.8686  0.9607 -0.7338
 9214TIP3   OH227605   4.104   1.818   3.989 -0.6584 -0.0136 -0.1218
 9214TIP3    H127606   4.196   1.844   3.999 -0.1355 -2.0246  0.8897
 9214TIP3    H227607   4.055   1.890   4.028  0.4996  0.8995 -0.2824
 9215TIP3   OH227608   3.005   4.426   5.797 -1.0665 -0.1316  0.5038
 9215TIP3    H127609   2.919   4.389   5.777 -1.2553 -0.5396  1.9552
 9215TIP3    H227610   2.987   4.516   5.825 -1.1063 -0.4111  1.4104
 9216TIP3   OH227611   7.009   4.653   4.863 -0.0160 -0.0851 -0.5636
 9216TIP3    H127612   6.991   4.681   4.773 -2.4422  0.7848  0.1348
 9216TIP3    H227613   6.985   4.728   4.917  3.6603  0.3379  0.7837
 9217TIP3   OH227614   5.278   0.569   4.723  0.2264 -0.4884  0.5175
 9217TIP3    H127615   5.193   0.525   4.726  0.3851 -0.8633 -0.2554
 9217TIP3    H227616   5.263   0.654   4.765 -0.5839 -0.4496  0.1612
 9218TIP3   OH227617   5.842   1.646   5.079 -0.0046 -0.1331  0.6007
 9218TIP3    H127618   5.900   1.722   5.080 -0.7372  0.5719 -1.9361
 9218TIP3    H227619   5.765   1.673   5.129 -1.3984  1.9095 -2.3670
 9219TIP3   OH227620   2.398   1.319   4.026  0.1805  0.4963  0.4396
 9219TIP3    H127621   2.453   1.247   3.994  0.6923 -0.9549  4.1319
 9219TIP3    H227622   2.314   1.278   4.046 -0.6513  1.6866 -0.4510
 9220TIP3   OH227623   2.502   1.614   4.277  0.1352 -0.4704 -0.2173
 9220TIP3    H127624   2.533   1.630   4.366 -0.3742 -0.0768 -0.1063
 9220TIP3    H227625   2.464   1.698   4.250 -0.3054 -0.7796 -0.5644
 9221TIP3   OH227626   5.769   0.154   3.237  0.2214  0.1833 -0.2197
 9221TIP3    H127627   5.817   0.212   3.178  1.2173  1.2863  1.5772
 9221TIP3    H227628   5.747   0.078   3.183 -0.7239  1.9715 -2.5346
 9222TIP3   OH227629   1.203   6.529   1.097  0.1270  0.7436 -0.1575
 9222TIP3    H127630   1.191   6.553   1.189 -0.5685  0.3320 -0.1270
 9222TIP3    H227631   1.193   6.611   1.049 -0.4582  0.8158  0.0737
 9223TIP3   OH227632   1.123   0.389   1.775 -0.5711 -0.3989 -0.6368
 9223TIP3    H127633   1.179   0.433   1.839 -0.6712 -0.5415 -0.4512
 9223TIP3    H227634   1.175   0.389   1.694 -0.2253 -0.6894 -0.4206
 9224TIP3   OH227635   1.023   3.166   1.107  0.3150 -0.3973  0.5007
 9224TIP3    H127636   0.950   3.140   1.052 -0.6219 -0.6414  1.8222
 9224TIP3    H227637   1.098   3.116   1.074 -0.1265 -0.2493 -0.7712
 9225TIP3   OH227638   3.274   4.201   5.695  0.4844 -0.5641 -0.4342
 9225TIP3    H127639   3.185   4.174   5.676 -0.2405  0.8333  0.7302
 9225TIP3    H227640   3.282   4.191   5.790  1.1059  0.5791 -0.3510
 9226TIP3   OH227641   2.687   6.178   5.450  0.1707  0.5230 -0.0848
 9226TIP3    H127642   2.616   6.121   5.476  1.0922 -0.1815  0.9809
 9226TIP3    H227643   2.717   6.219   5.532  0.9896  0.7936 -0.5036
 9227TIP3   OH227644   3.522   5.166   0.339 -0.1594  0.0712  0.2260
 9227TIP3    H127645   3.544   5.257   0.317 -2.4646  0.0862 -2.6772
 9227TIP3    H227646   3.567   5.114   0.271  1.7591 -1.1646  2.2744
 9228TIP3   OH227647   0.754   0.860   1.542 -0.1715  0.1238  0.4939
 9228TIP3    H127648   0.778   0.782   1.593 -1.5771  0.7721  2.2483
 9228TIP3    H227649   0.675   0.893   1.585 -0.9834  1.1811 -1.6654
 9229TIP3   OH227650   0.047   6.413   0.141 -0.3274 -0.8451  0.1221
 9229TIP3    H127651   0.084   6.502   0.143 -2.1645 -0.0315  2.4377
 9229TIP3    H227652   0.122   6.356   0.160  0.0996  0.6617  3.7785
 9230TIP3   OH227653   4.248   2.040   1.291  0.0600 -1.0331 -0.1391
 9230TIP3    H127654   4.173   2.090   1.323  1.8151  1.8823 -0.2478
 9230TIP3    H227655   4.215   1.993   1.215 -1.3397  1.4986 -1.2106
 9231TIP3   OH227656   0.753   4.246   2.005 -0.4785  0.1590  0.1237
 9231TIP3    H127657   0.672   4.219   1.962 -1.5591  1.9642  0.9109
 9231TIP3    H227658   0.786   4.319   1.952  0.7706 -0.6623 -0.2881
 9232TIP3   OH227659   2.338   6.684   4.015  0.6025  0.1537  0.2497
 9232TIP3    H127660   2.258   6.692   3.963  0.6160 -2.2640 -0.2404
 9232TIP3    H227661   2.331   6.599   4.057  2.7094  0.0931  0.5728
 9233TIP3   OH227662   2.951   4.273   0.138 -0.1593  0.4020 -0.3414
 9233TIP3    H127663   2.872   4.260   0.190 -0.1818 -0.5138 -0.5843
 9233TIP3    H227664   3.002   4.192   0.152  1.2572  1.4148  0.7088
 9234TIP3   OH227665   1.792   4.713   3.682  0.1817  0.4347 -0.7316
 9234TIP3    H127666   1.771   4.798   3.720  1.8817  1.9135 -2.8624
 9234TIP3    H227667   1.719   4.694   3.622 -0.4607  0.0942  0.1404
 9235TIP3   OH227668   6.724   1.780   0.762  0.1945  0.1027  0.2540
 9235TIP3    H127669   6.741   1.709   0.701  2.4903  0.3579  0.4976
 9235TIP3    H227670   6.781   1.851   0.732  1.1203  0.3552  2.4576
 9236TIP3   OH227671   1.503   2.459   1.298 -0.2687 -0.4763 -0.3361
 9236TIP3    H127672   1.511   2.543   1.343 -1.6982  0.4165 -1.6101
 9236TIP3    H227673   1.552   2.397   1.352  1.1595  1.2416  0.4427
 9237TIP3   OH227674   0.249   6.509   5.575  0.1899 -0.1271  0.1497
 9237TIP3    H127675   0.253   6.592   5.622  0.3242  1.1581 -2.0035
 9237TIP3    H227676   0.170   6.516   5.520  0.9871 -0.8015 -1.1353
 9238TIP3   OH227677   3.901   6.719   5.435 -0.1768  0.3420  0.5353
 9238TIP3    H127678   3.874   6.787   5.373  0.2487  2.6114  2.6664
 9238TIP3    H227679   3.850   6.642   5.410  0.9244  0.6936 -3.3609
 9239TIP3   OH227680   3.105   5.685   2.188  0.6654  0.0484 -0.3322
 9239TIP3    H127681   3.024   5.723   2.153  1.0761 -0.3992 -1.8148
 9239TIP3    H227682   3.168   5.691   2.116  1.1483 -2.1521 -0.1631
 9240TIP3   OH227683   5.706   3.384   2.673 -0.2607 -0.3340  0.2148
 9240TIP3    H127684   5.687   3.367   2.581 -0.5338  0.4740  0.1190
 9240TIP3    H227685   5.727   3.477   2.677 -0.2682 -0.3588  0.9755
 9241TIP3   OH227686   1.882   6.459   4.851  0.3637  0.3171  0.6936
 9241TIP3    H127687   1.836   6.389   4.806 -0.5467 -0.3492  2.5462
 9241TIP3    H227688   1.814   6.517   4.883  1.0069  1.0523  0.7736
 9242TIP3   OH227689   1.556   5.429   2.051 -0.5662 -0.3727 -0.1298
 9242TIP3    H127690   1.633   5.374   2.064  0.9512  1.3342 -1.4278
 9242TIP3    H227691   1.581   5.490   1.981 -2.0051  2.1549  1.3858
 9243TIP3   OH227692   0.627   5.494   3.984  0.2726  0.1479  0.6242
 9243TIP3    H127693   0.660   5.572   3.939  1.9030  0.3831  2.1118
 9243TIP3    H227694   0.534   5.511   3.994 -0.3978 -0.2900 -3.2598
 9244TIP3   OH227695   1.223   3.754   2.924 -0.4923 -0.0372 -0.1096
 9244TIP3    H127696   1.278   3.779   2.849 -0.1313  0.1474  0.2117
 9244TIP3    H227697   1.266   3.676   2.960 -1.0943 -0.5829 -0.5468
 9245TIP3   OH227698   4.854   6.379   5.750 -0.5523  0.4148  0.0974
 9245TIP3    H127699   4.923   6.336   5.801 -1.0748 -0.1650  0.3255
 9245TIP3    H227700   4.780   6.385   5.811 -1.1700 -0.2514 -0.5858
 9246TIP3   OH227701   6.214   0.990   4.681 -0.3453 -0.0313 -0.0726
 9246TIP3    H127702   6.290   0.935   4.698  0.6243  1.4931  0.7058
 9246TIP3    H227703   6.224   1.016   4.589 -1.0686 -1.4798 -0.5930
 9247TIP3   OH227704   3.556   4.161   3.803  0.5771 -0.1744  0.2054
 9247TIP3    H127705   3.652   4.158   3.800  0.6507  0.3283  1.4357
 9247TIP3    H227706   3.532   4.101   3.874 -0.0064 -0.0938  0.0813
 9248TIP3   OH227707   6.044   2.286   0.755 -0.6683 -0.2136 -0.7341
 9248TIP3    H127708   5.993   2.252   0.828 -0.7172 -0.5629 -0.9314
 9248TIP3    H227709   6.009   2.242   0.678 -1.0735  0.6465 -1.0611
 9249TIP3   OH227710   3.588   1.173   4.973  0.0435 -0.4312 -0.1089
 9249TIP3    H127711   3.494   1.158   4.967 -0.4149  1.6549  1.0621
 9249TIP3    H227712   3.604   1.189   5.066  1.1987  1.2572 -0.5701
 9250TIP3   OH227713   5.784   6.408   2.707 -0.2409 -0.0448  0.1762
 9250TIP3    H127714   5.812   6.328   2.662 -0.9124 -0.1075 -0.1431
 9250TIP3    H227715   5.704   6.434   2.662  0.6170  1.5118 -0.5277
 9251TIP3   OH227716   6.300   1.485   4.427 -0.0409  0.2280 -0.4829
 9251TIP3    H127717   6.226   1.425   4.415 -1.4785  0.9472  3.4146
 9251TIP3    H227718   6.376   1.428   4.439 -0.6653 -0.6663 -0.7241
 9252TIP3   OH227719   5.302   3.101   5.256  0.2729 -0.1321  0.3972
 9252TIP3    H127720   5.299   3.168   5.187  0.1087  0.3237  0.8397
 9252TIP3    H227721   5.328   3.021   5.210 -1.7885 -0.3196 -0.5751
 9253TIP3   OH227722   5.341   1.759   0.307 -0.1084  0.3217 -0.4923
 9253TIP3    H127723   5.371   1.718   0.225  0.3318  0.7023 -0.5248
 9253TIP3    H227724   5.277   1.825   0.279 -0.1000  0.3214 -0.5121
 9254TIP3   OH227725   3.188   4.163   0.739  0.1709 -0.1624 -0.0187
 9254TIP3    H127726   3.196   4.146   0.645  0.0100  1.1436 -0.3006
 9254TIP3    H227727   3.278   4.165   0.770  0.4343  2.0930 -0.7171
 9255TIP3   OH227728   7.165   3.719   4.899  0.2704 -0.3944 -0.1584
 9255TIP3    H127729   7.210   3.678   4.973  0.3607 -1.5937 -0.8608
 9255TIP3    H227730   7.235   3.753   4.844  0.3159 -1.5989 -0.8731
 9256TIP3   OH227731   2.499   4.942   0.926 -0.0909 -0.3410 -0.2199
 9256TIP3    H127732   2.484   4.937   0.832  2.1427 -0.8342 -0.5935
 9256TIP3    H227733   2.535   5.030   0.940  0.5684 -0.6415  0.0078
 9257TIP3   OH227734   5.193   6.292   4.082 -0.2067  0.1614 -0.3749
 9257TIP3    H127735   5.185   6.326   3.993 -1.2429 -0.0950 -0.3940
 9257TIP3    H227736   5.106   6.305   4.121  0.4946  1.1582  0.9344
 9258TIP3   OH227737   0.243   1.232   1.116  0.0819 -0.1744 -0.1486
 9258TIP3    H127738   0.168   1.288   1.136 -0.4067 -0.4366 -1.1696
 9258TIP3    H227739   0.298   1.237   1.194 -0.5949  0.6731  0.2951
 9259TIP3   OH227740   6.478   3.416   1.593 -0.0362 -0.2736  0.2364
 9259TIP3    H127741   6.525   3.442   1.514 -1.8547  3.1486  0.0616
 9259TIP3    H227742   6.409   3.358   1.562 -0.6477  0.9257 -0.7497
 9260TIP3   OH227743   2.692   2.828   1.447  0.2468 -0.2755 -0.1501
 9260TIP3    H127744   2.729   2.821   1.536 -0.2349 -1.4045 -0.0201
 9260TIP3    H227745   2.750   2.890   1.402 -0.7562  2.0668  1.5728
 9261TIP3   OH227746   6.170   6.165   4.161 -0.1756 -0.1851 -0.5509
 9261TIP3    H127747   6.108   6.237   4.163 -1.4754 -1.2655 -0.5587
 9261TIP3    H227748   6.131   6.101   4.100  0.8767 -0.9461 -0.4625
 9262TIP3   OH227749   5.214   4.804   4.329  0.3630  0.1984 -0.2146
 9262TIP3    H127750   5.131   4.761   4.309  0.3172  0.5289 -0.7740
 9262TIP3    H227751   5.211   4.822   4.423  0.7504 -1.7674  0.2101
 9263TIP3   OH227752   6.933   4.414   5.002  0.1212 -0.5961  0.0137
 9263TIP3    H127753   6.968   4.480   4.941  0.4570 -0.9782 -0.2138
 9263TIP3    H227754   6.932   4.459   5.087 -0.8001  0.0973 -0.3428
 9264TIP3   OH227755   4.672   0.412   0.286 -0.0883  0.6574  0.0135
 9264TIP3    H127756   4.671   0.448   0.198  0.6245  0.6307 -0.0114
 9264TIP3    H227757   4.756   0.366   0.293 -0.5093 -0.0736  0.4172
 9265TIP3   OH227758   0.714   5.973   0.263  0.6673  0.1142  0.0235
 9265TIP3    H127759   0.793   5.945   0.215  2.4000 -1.7924  3.5957
 9265TIP3    H227760   0.742   6.050   0.312  0.4035 -0.6359  1.4030
 9266TIP3   OH227761   0.025   0.813   3.714 -0.0511  0.5700 -0.2192
 9266TIP3    H127762   0.033   0.752   3.788 -0.8487 -0.9316 -1.3040
 9266TIP3    H227763   0.098   0.790   3.657 -1.3437 -0.6792 -1.4812
 9267TIP3   OH227764   4.251   4.221   1.250  0.1796 -0.3522 -0.3063
 9267TIP3    H127765   4.229   4.313   1.267 -2.0196 -0.8534 -0.1113
 9267TIP3    H227766   4.171   4.184   1.213  0.8916 -2.3077  0.0016
 9268TIP3   OH227767   1.716   3.562   5.205  0.0121 -0.1315  0.0009
 9268TIP3    H127768   1.645   3.582   5.267  0.4376  0.4464  0.3090
 9268TIP3    H227769   1.742   3.647   5.170  1.9565 -0.0646  1.4435
 9269TIP3   OH227770   0.201   4.713  -0.006 -0.1367 -0.4519  0.1676
 9269TIP3    H127771   0.243   4.798  -0.019 -0.5513 -0.0487  1.3404
 9269TIP3    H227772   0.269   4.659   0.034 -0.0325 -0.5147 -0.0925
 9270TIP3   OH227773   2.047   2.198   1.748 -0.0665  0.1013 -0.4982
 9270TIP3    H127774   1.980   2.188   1.816  0.0111  0.6191 -0.3437
 9270TIP3    H227775   1.997   2.202   1.666 -0.1409 -0.8630 -0.5121
 9271TIP3   OH227776   3.340   6.035   2.130 -0.7339 -0.0978  0.2075
 9271TIP3    H127777   3.282   6.090   2.078  0.7363  0.7557 -0.6009
 9271TIP3    H227778   3.288   5.957   2.150 -1.9217  0.3368 -1.0617
 9272TIP3   OH227779   0.347   0.609   2.852  0.1174  0.1978 -0.0320
 9272TIP3    H127780   0.435   0.604   2.813 -0.1138 -1.0089 -0.4380
 9272TIP3    H227781   0.340   0.699   2.884  0.8536  0.8170 -1.5219
 9273TIP3   OH227782   1.860   4.455   4.658 -0.5137  0.0742 -0.0377
 9273TIP3    H127783   1.829   4.491   4.740  0.5643 -1.2056  0.9797
 9273TIP3    H227784   1.822   4.368   4.653 -0.2712 -0.0049 -0.7245
 9274TIP3   OH227785   5.013   4.262   0.384  0.5250 -0.5812  0.2804
 9274TIP3    H127786   5.050   4.248   0.471  1.0314 -1.4284 -0.0612
 9274TIP3    H227787   4.923   4.290   0.401  0.2774 -1.7769  1.0822
 9275TIP3   OH227788   3.428   0.634   0.339 -0.0335 -0.2367 -0.1213
 9275TIP3    H127789   3.419   0.629   0.434  2.4666 -0.6663  0.1742
 9275TIP3    H227790   3.522   0.645   0.325 -0.6341  4.1795 -2.3988
 9276TIP3   OH227791   3.399   1.060   3.435 -0.9338  0.4671  0.2363
 9276TIP3    H127792   3.324   1.051   3.494 -0.3676 -0.1604  0.8851
 9276TIP3    H227793   3.436   1.146   3.457 -1.3124  0.6671  0.0930
 9277TIP3   OH227794   6.945   6.120   2.026 -0.1581  0.1073  0.1008
 9277TIP3    H127795   6.999   6.136   2.103  0.3114 -0.3597 -0.1236
 9277TIP3    H227796   7.007   6.091   1.959 -0.7291 -0.8869 -0.0255
 9278TIP3   OH227797   3.730   2.848   1.606 -0.4874 -0.1392  0.3935
 9278TIP3    H127798   3.666   2.871   1.538 -0.9869  0.8077  1.1638
 9278TIP3    H227799   3.741   2.928   1.657  0.9923 -0.4135  0.5522
 9279TIP3   OH227800   5.343   3.519   5.076 -0.2915  0.4223  0.1862
 9279TIP3    H127801   5.305   3.600   5.043  1.1766  1.2288  0.3762
 9279TIP3    H227802   5.378   3.543   5.162 -1.2926 -0.8496  0.9853
 9280TIP3   OH227803   1.437   6.245   4.158 -0.4173 -0.1801 -0.5344
 9280TIP3    H127804   1.355   6.294   4.166 -0.2779  0.0485 -0.4912
 9280TIP3    H227805   1.439   6.189   4.235 -1.0848 -1.0287 -1.1159
 9281TIP3   OH227806   0.138   3.028   2.930 -0.5082 -0.8809  0.0888
 9281TIP3    H127807   0.129   2.939   2.965 -1.2551 -1.2190 -0.8886
 9281TIP3    H227808   0.050   3.064   2.936 -0.3579 -0.4672 -0.1764
 9282TIP3   OH227809   6.390   0.763   0.176  0.2333  0.7433 -0.1163
 9282TIP3    H127810   6.348   0.683   0.144 -2.2348  1.8512  0.1366
 9282TIP3    H227811   6.483   0.746   0.166 -0.2015 -2.0912 -0.2396
 9283TIP3   OH227812   7.211   1.979   1.145 -0.3196  0.2235 -0.2077
 9283TIP3    H127813   7.149   1.969   1.217 -0.5485  0.2796 -0.3953
 9283TIP3    H227814   7.231   2.073   1.143  0.9316 -0.0072  0.8084
 9284TIP3   OH227815   1.374   5.088   2.112  0.5409 -0.8819 -0.0362
 9284TIP3    H127816   1.288   5.051   2.093  0.1118  0.4403 -0.8067
 9284TIP3    H227817   1.357   5.159   2.173  0.9794 -0.1236 -0.7721
 9285TIP3   OH227818   3.254   2.302   2.579  0.4498  0.2192 -0.2895
 9285TIP3    H127819   3.272   2.342   2.664  0.3408  1.0515 -0.6583
 9285TIP3    H227820   3.333   2.317   2.528  0.1486  0.5563 -0.6558
 9286TIP3   OH227821   3.311   3.689   0.568  0.1579  0.0979 -0.0592
 9286TIP3    H127822   3.363   3.686   0.488  3.0596 -1.4914  1.6949
 9286TIP3    H227823   3.275   3.601   0.577 -0.8201  0.4937  0.0077
 9287TIP3   OH227824   1.162   0.898   5.393 -0.4959 -0.5931 -0.1250
 9287TIP3    H127825   1.085   0.954   5.380  0.0241 -0.1899 -1.5772
 9287TIP3    H227826   1.222   0.952   5.445 -0.1484  0.1059 -1.2067
 9288TIP3   OH227827   4.009   0.932   5.218 -0.3872 -0.5398 -0.2477
 9288TIP3    H127828   4.023   0.881   5.298  0.7919  0.2076  0.0395
 9288TIP3    H227829   3.964   0.872   5.159 -0.5328 -1.3691  0.6761
 9289TIP3   OH227830   6.760   1.273   1.143 -0.1357  0.1639 -0.4001
 9289TIP3    H127831   6.782   1.317   1.061 -1.7697  2.1113  0.1446
 9289TIP3    H227832   6.837   1.286   1.198  0.7472 -0.6651 -1.3955
 9290TIP3   OH227833   1.123   1.657   3.176  0.4297 -0.6062  0.1203
 9290TIP3    H127834   1.067   1.592   3.219 -1.5591  0.9086 -0.0338
 9290TIP3    H227835   1.064   1.730   3.157  1.8583 -0.0481 -2.6390
 9291TIP3   OH227836   5.671   4.977   5.884 -0.0860  0.3003 -0.1979
 9291TIP3    H127837   5.678   5.028   5.803  0.9225  1.8419  0.7997
 9291TIP3    H227838   5.599   4.916   5.868  0.3342  0.2984 -2.3796
 9292TIP3   OH227839   4.077   0.197   0.710 -0.7737  0.6147 -0.1430
 9292TIP3    H127840   4.121   0.117   0.682 -1.6062  0.3476 -0.7557
 9292TIP3    H227841   3.987   0.188   0.676 -0.2888  2.8395 -2.3590
 9293TIP3   OH227842   0.425   1.736   2.902 -0.3274 -0.3558  0.0155
 9293TIP3    H127843   0.374   1.689   2.837 -0.4578 -1.0667  0.6141
 9293TIP3    H227844   0.460   1.812   2.855 -0.1449 -1.0273 -0.9594
 9294TIP3   OH227845   4.548   3.281   0.103  0.5509 -0.8407 -0.4174
 9294TIP3    H127846   4.628   3.236   0.078  2.0178  1.5340 -0.3259
 9294TIP3    H227847   4.517   3.321   0.021 -0.2474 -1.3013 -0.3452
 9295TIP3   OH227848   0.938   0.887   4.038  0.2426  0.3995  0.4348
 9295TIP3    H127849   1.000   0.825   3.999 -0.9999 -1.2141  0.9179
 9295TIP3    H227850   0.930   0.859   4.129 -0.6196  1.0488  0.5703
 9296TIP3   OH227851   4.815   0.268   3.520 -0.4514  0.2188  0.0062
 9296TIP3    H127852   4.875   0.328   3.475 -0.2439  1.0452  1.3039
 9296TIP3    H227853   4.866   0.188   3.533  0.0572  0.5772  0.2478
 9297TIP3   OH227854   3.558   1.472   5.389  0.2286  0.4106 -0.6560
 9297TIP3    H127855   3.616   1.396   5.392 -0.6440 -0.3011 -1.0819
 9297TIP3    H227856   3.616   1.546   5.374  0.9949 -0.3154 -1.4420
 9298TIP3   OH227857   7.222   6.113   4.330  0.2856  0.2394  0.3158
 9298TIP3    H127858   7.188   6.040   4.277 -0.8192 -0.9824  2.5726
 9298TIP3    H227859   7.212   6.190   4.273  1.1912 -1.2573 -2.0283
 9299TIP3   OH227860   7.184   4.977   0.660 -0.7591  0.3020  0.5745
 9299TIP3    H127861   7.110   5.019   0.617 -0.3027  1.2022  0.6306
 9299TIP3    H227862   7.170   4.991   0.753 -1.9448 -1.9837  0.7962
 9300TIP3   OH227863   2.115   5.822   1.363 -0.2618 -0.5896  0.6031
 9300TIP3    H127864   2.042   5.837   1.304 -0.2316 -0.4581  0.5998
 9300TIP3    H227865   2.096   5.874   1.440 -0.0643 -0.3793  0.5131
 9301TIP3   OH227866   4.587   3.207   4.280 -0.3325  0.2371  0.1482
 9301TIP3    H127867   4.632   3.143   4.224 -1.6378 -0.4597 -0.1389
 9301TIP3    H227868   4.645   3.283   4.280  0.3460 -0.2413 -1.0576
 9302TIP3   OH227869   3.730   5.089   3.535  0.2280 -0.3030  0.0060
 9302TIP3    H127870   3.688   5.175   3.532  0.3947 -0.1945  0.6374
 9302TIP3    H227871   3.657   5.027   3.538  0.0782 -0.0920  1.7489
 9303TIP3   OH227872   1.354   3.612   1.280 -0.0090 -0.9043  0.2924
 9303TIP3    H127873   1.325   3.524   1.301 -1.1251 -0.5490  0.3066
 9303TIP3    H227874   1.342   3.661   1.361 -1.7677 -0.1716 -0.3540
 9304TIP3   OH227875   3.986   6.694   0.388 -0.4631  0.6566 -0.2598
 9304TIP3    H127876   3.997   6.780   0.428 -1.8029  0.7447 -0.0516
 9304TIP3    H227877   3.894   6.673   0.400  0.0571 -1.2948  0.6678
 9305TIP3   OH227878   3.416   5.312   1.711  0.3889 -0.1937 -0.7949
 9305TIP3    H127879   3.383   5.244   1.770 -1.9902  2.2158  0.8830
 9305TIP3    H227880   3.342   5.334   1.655  0.1918  2.6514  0.4175
 9306TIP3   OH227881   2.865   0.050   4.844  0.4273  0.7570 -0.1997
 9306TIP3    H127882   2.778   0.045   4.884  0.5549 -0.1402 -0.0060
 9306TIP3    H227883   2.856   0.004   4.761  0.4697  1.5440 -0.6440
 9307TIP3   OH227884   2.338   2.407   0.303 -0.4614 -0.2673  0.3535
 9307TIP3    H127885   2.352   2.324   0.349  0.1625  0.6169  1.8475
 9307TIP3    H227886   2.305   2.466   0.371 -2.7685  0.2253 -1.0779
 9308TIP3   OH227887   5.793   4.238   0.878 -0.4857 -0.0801 -0.5022
 9308TIP3    H127888   5.861   4.265   0.817 -0.4557 -0.4598 -0.6408
 9308TIP3    H227889   5.816   4.148   0.901 -0.7891 -0.1189 -0.3380
 9309TIP3   OH227890   6.377   1.274   2.412 -0.5857  0.7118  0.0449
 9309TIP3    H127891   6.305   1.314   2.460 -0.9382 -1.0963  1.1249
 9309TIP3    H227892   6.412   1.207   2.471 -0.4241 -0.9876 -1.8197
 9310TIP3   OH227893   7.108   4.216   1.383 -0.4196  0.3166 -0.0611
 9310TIP3    H127894   7.112   4.130   1.424  0.2268  0.5956  0.4734
 9310TIP3    H227895   7.015   4.238   1.382 -0.4168  0.6075  1.9000
 9311TIP3   OH227896   1.096   3.516   4.044  0.2825  0.4283 -0.0472
 9311TIP3    H127897   1.096   3.586   4.110  0.3491  0.1870  0.2118
 9311TIP3    H227898   1.180   3.525   4.000  1.2180 -0.7831  1.3903
 9312TIP3   OH227899   4.482   1.229   3.692 -0.2775 -0.2510 -0.5035
 9312TIP3    H127900   4.476   1.225   3.596  1.3612  1.6959 -0.7651
 9312TIP3    H227901   4.485   1.323   3.711  3.6372 -0.5214  1.0633
 9313TIP3   OH227902   1.062   0.258   2.710  0.1549 -0.1739  0.3037
 9313TIP3    H127903   1.087   0.299   2.627 -1.4639  0.7855  0.2433
 9313TIP3    H227904   0.999   0.319   2.749 -0.1520 -1.2593  1.5943
 9314TIP3   OH227905   4.217   6.178   5.426 -0.5692  0.6125  0.2370
 9314TIP3    H127906   4.165   6.099   5.444  1.0912 -0.2182  1.6092
 9314TIP3    H227907   4.151   6.247   5.418 -1.9902 -0.6489  0.3844
 9315TIP3   OH227908   2.394   6.110   4.723  0.1700  0.2590  0.3181
 9315TIP3    H127909   2.489   6.104   4.738 -0.0395 -2.4254  0.9624
 9315TIP3    H227910   2.363   6.020   4.724 -2.1619  0.9083 -1.7514
 9316TIP3   OH227911   6.837   5.412   0.637  0.0264 -0.2518 -0.2207
 9316TIP3    H127912   6.896   5.449   0.570 -0.4417  1.3021  0.1910
 9316TIP3    H227913   6.896   5.378   0.704  0.4819 -0.8756 -0.9158
 9317TIP3   OH227914   6.018   2.916   0.651  0.6195 -0.3760  0.1493
 9317TIP3    H127915   6.058   2.848   0.596 -0.2339  0.9780 -2.3438
 9317TIP3    H227916   5.928   2.921   0.620  0.0890  0.4672  1.7412
 9318TIP3   OH227917   2.139   3.303   2.016  0.1333  0.0118  0.2442
 9318TIP3    H127918   2.229   3.298   2.050 -0.4177  0.1872  1.8048
 9318TIP3    H227919   2.105   3.385   2.052 -0.0844  0.8711 -1.8346
 9319TIP3   OH227920   0.935   6.518   1.912 -0.1494  0.2269  0.1923
 9319TIP3    H127921   0.971   6.431   1.929  1.3377  0.4452 -1.5120
 9319TIP3    H227922   0.919   6.519   1.817 -0.7620  1.5943  0.2864
 9320TIP3   OH227923   5.520   1.538   4.919  0.0335 -0.0522 -0.7899
 9320TIP3    H127924   5.447   1.477   4.907  0.7707 -1.6316  1.9252
 9320TIP3    H227925   5.580   1.517   4.847 -0.2930 -1.7135 -0.6294
 9321TIP3   OH227926   0.886   0.438   1.015  0.3755  0.6420 -0.5559
 9321TIP3    H127927   0.824   0.465   0.947 -0.4668 -0.7941 -0.3999
 9321TIP3    H227928   0.865   0.346   1.031  0.9649  0.7798  1.2015
 9322TIP3   OH227929   5.671   1.022   5.436 -0.3696  0.2597 -0.3544
 9322TIP3    H127930   5.693   1.089   5.371  1.2666 -2.2973 -2.6933
 9322TIP3    H227931   5.756   0.993   5.470 -1.0254 -0.5822  0.6355
 9323TIP3   OH227932   0.539   5.761   5.865 -0.2862  0.0827 -0.2072
 9323TIP3    H127933   0.523   5.814   5.943  0.1514  0.3012 -0.2588
 9323TIP3    H227934   0.602   5.812   5.814 -1.9466  0.8227 -1.5999
 9324TIP3   OH227935   1.511   4.958   0.777 -0.3138 -0.2789  0.0764
 9324TIP3    H127936   1.538   5.026   0.715 -1.3721  0.8782  0.8322
 9324TIP3    H227937   1.416   4.968   0.783 -0.5218 -1.9357  0.1093
 9325TIP3   OH227938   5.556   0.270   0.302  0.0778 -0.1185 -0.6763
 9325TIP3    H127939   5.610   0.201   0.263  0.6265  0.2900 -0.6528
 9325TIP3    H227940   5.478   0.224   0.332  0.2516 -0.6653 -1.0256
 9326TIP3   OH227941   6.391   6.126   5.053  0.6657 -0.0192 -0.4144
 9326TIP3    H127942   6.409   6.217   5.074  0.2542  0.0191 -0.2072
 9326TIP3    H227943   6.297   6.116   5.067  0.5002 -0.1849 -1.5675
 9327TIP3   OH227944   4.281   2.600   2.661  0.3835 -0.0877 -0.8077
 9327TIP3    H127945   4.346   2.669   2.670 -0.0795  0.6674 -2.8737
 9327TIP3    H227946   4.321   2.536   2.602  1.4094 -2.4369  2.1853
 9328TIP3   OH227947   2.092   4.681   5.740 -0.5000 -0.1016 -0.2859
 9328TIP3    H127948   2.073   4.654   5.830  0.3598 -0.8649 -0.3236
 9328TIP3    H227949   2.033   4.755   5.724  0.1209  0.7713  1.2876
 9329TIP3   OH227950   0.381   6.588   1.563 -0.0208  0.1472 -0.6003
 9329TIP3    H127951   0.455   6.569   1.506 -0.2905  0.8763 -1.2071
 9329TIP3    H227952   0.417   6.579   1.652  1.1083  1.5702 -0.8654
 9330TIP3   OH227953   2.359   2.161   2.402 -0.5111 -0.1343  0.4540
 9330TIP3    H127954   2.452   2.176   2.391 -0.2416 -0.9101  1.4981
 9330TIP3    H227955   2.329   2.133   2.316  0.7935 -2.5915  0.7143
 9331TIP3   OH227956   6.580   6.583   5.268  0.5531 -0.4413 -0.0123
 9331TIP3    H127957   6.521   6.530   5.215  1.0489 -0.9845 -0.0277
 9331TIP3    H227958   6.523   6.648   5.309  0.0538 -0.4984 -0.6005
 9332TIP3   OH227959   2.222   1.462   0.224 -0.1902 -0.1989  0.8997
 9332TIP3    H127960   2.233   1.458   0.319  1.9467  0.8348  0.7527
 9332TIP3    H227961   2.243   1.374   0.194  0.7509 -0.1143  1.2737
 9333TIP3   OH227962   4.379   4.863   2.191 -0.0675  0.3864 -0.3244
 9333TIP3    H127963   4.393   4.769   2.176  0.2881  0.5399 -1.0036
 9333TIP3    H227964   4.382   4.902   2.104 -0.7917  0.9576 -0.0995
 9334TIP3   OH227965   6.938   1.254   3.956  0.5022 -0.2085 -0.2301
 9334TIP3    H127966   6.899   1.177   3.915  1.4334 -0.5636 -0.4927
 9334TIP3    H227967   7.027   1.227   3.978  1.9003  1.6201 -3.0156
 9335TIP3   OH227968   1.504   1.180   2.858  0.0987 -0.0069 -0.9777
 9335TIP3    H127969   1.478   1.272   2.861  0.4396  0.0872  2.2756
 9335TIP3    H227970   1.436   1.134   2.908  0.9926 -1.1923 -0.8090
 9336TIP3   OH227971   1.327   6.309   0.225  0.0201  0.1751  0.5594
 9336TIP3    H127972   1.236   6.310   0.193  0.4093 -1.6338 -0.7626
 9336TIP3    H227973   1.361   6.395   0.204 -1.1818  0.6317  0.4230
 9337TIP3   OH227974   0.942   4.507   2.438 -0.4484  0.1470 -0.1785
 9337TIP3    H127975   0.975   4.475   2.523  1.7800 -0.5834 -1.2290
 9337TIP3    H227976   0.985   4.451   2.374 -1.4097  1.2509 -1.8418
 9338TIP3   OH227977   1.626   5.718   3.447  0.7347 -0.0148 -0.3797
 9338TIP3    H127978   1.662   5.753   3.528 -1.1145 -0.1218  0.5455
 9338TIP3    H227979   1.641   5.624   3.452  0.9081  0.0156 -0.3190
 9339TIP3   OH227980   1.404   2.453   0.504 -0.8657 -0.2221  0.5381
 9339TIP3    H127981   1.474   2.389   0.489  0.5329  0.9924  1.5456
 9339TIP3    H227982   1.333   2.403   0.544 -0.6675 -1.5262 -0.6620
 9340TIP3   OH227983   1.432   5.104   2.695  0.0549  0.4091 -0.1071
 9340TIP3    H127984   1.451   5.011   2.697 -2.0419 -0.0705 -0.0574
 9340TIP3    H227985   1.425   5.129   2.787  1.3936  0.8108 -0.1031
 9341TIP3   OH227986   0.685   3.219   1.309  0.0661  0.2456  0.1879
 9341TIP3    H127987   0.666   3.262   1.226 -0.2861  0.1643  0.2254
 9341TIP3    H227988   0.669   3.126   1.293 -1.3273  0.3617  0.7042
 9342TIP3   OH227989   7.025   1.470   1.025  0.7524  0.0660 -0.2861
 9342TIP3    H127990   6.973   1.437   0.952  2.0497 -1.4715 -0.5882
 9342TIP3    H227991   6.996   1.419   1.101  1.0479 -0.0203 -0.2292
 9343TIP3   OH227992   5.614   2.932   1.740  0.4667  0.1584 -0.1827
 9343TIP3    H127993   5.570   2.907   1.658  0.0666  0.3023 -0.0129
 9343TIP3    H227994   5.664   2.854   1.764 -0.9270 -0.5812  0.4544
 9344TIP3   OH227995   0.981   6.243   1.915 -0.3114  0.3929 -0.0755
 9344TIP3    H127996   1.008   6.225   1.825  0.5825  1.3128  0.0010
 9344TIP3    H227997   0.908   6.182   1.930  0.6752 -1.0389 -0.8138
 9345TIP3   OH227998   2.789   1.846   3.581  0.1869  0.3370 -0.2349
 9345TIP3    H127999   2.715   1.812   3.633 -0.3240  0.8018 -0.6525
 9345TIP3    H228000   2.752   1.860   3.494  1.2554 -1.2667 -0.9824
 9346TIP3   OH228001   0.458   2.189   4.417 -0.4626 -0.4505 -0.5369
 9346TIP3    H128002   0.467   2.156   4.507  1.5263  1.2752 -0.0282
 9346TIP3    H228003   0.415   2.274   4.428 -0.0419 -0.1495 -1.1918
 9347TIP3   OH228004   3.937   1.795   1.775  1.0832  0.2483  0.0690
 9347TIP3    H128005   4.029   1.802   1.801  1.2385 -3.0558  0.8392
 9347TIP3    H228006   3.935   1.724   1.711 -1.2065 -1.8903  2.2769
 9348TIP3   OH228007   5.493   6.300   5.839  0.1879  0.2203 -0.0064
 9348TIP3    H128008   5.477   6.286   5.933 -2.4334  0.6738 -0.3071
 9348TIP3    H228009   5.581   6.338   5.836 -0.0581  1.1973  2.3835
 9349TIP3   OH228010   6.469   1.643   1.475  0.1201  0.2076 -0.2696
 9349TIP3    H128011   6.441   1.719   1.425  1.3062  1.0564  0.3225
 9349TIP3    H228012   6.507   1.679   1.556  0.2794 -1.0266  0.2345
 9350TIP3   OH228013   2.728   0.246   0.194  0.3769  0.3430 -0.5694
 9350TIP3    H128014   2.745   0.318   0.132  1.0181  0.1397 -0.6331
 9350TIP3    H228015   2.771   0.170   0.154 -2.1970 -0.6596 -1.6831
 9351TIP3   OH228016   1.460   4.785   3.265 -0.3941 -0.3266 -0.0195
 9351TIP3    H128017   1.396   4.731   3.219 -0.7984  0.7187 -0.7155
 9351TIP3    H228018   1.494   4.845   3.198  0.5276 -0.1440  0.5813
 9352TIP3   OH228019   3.477   0.491   3.885 -0.1938  0.0020 -0.5265
 9352TIP3    H128020   3.544   0.437   3.927 -0.8464 -0.6757 -0.3377
 9352TIP3    H228021   3.525   0.566   3.850  0.2558  1.4090  2.7311
 9353TIP3   OH228022   5.481   1.435   3.262  0.2394  0.7695  0.0019
 9353TIP3    H128023   5.401   1.386   3.243 -0.2742  0.6426  2.2447
 9353TIP3    H228024   5.551   1.384   3.220 -0.4315 -1.2056  1.1598
 9354TIP3   OH228025   3.701   4.870   3.277 -0.0173  0.0270 -0.7622
 9354TIP3    H128026   3.752   4.944   3.242  1.0926 -0.4163 -0.1237
 9354TIP3    H228027   3.760   4.827   3.339 -1.3208 -0.2710  0.3161
 9355TIP3   OH228028   5.164   1.244   2.751 -0.1073  0.1325  0.9832
 9355TIP3    H128029   5.121   1.247   2.836 -1.3986  1.9068  0.3249
 9355TIP3    H228030   5.144   1.328   2.711 -1.6186 -1.5143 -2.0740
 9356TIP3   OH228031   3.154   0.455   5.321 -0.4678  0.5974  0.4395
 9356TIP3    H128032   3.188   0.522   5.262 -0.5194  0.7468  0.5770
 9356TIP3    H228033   3.081   0.415   5.273  0.3658 -0.2323 -0.1538
 9357TIP3   OH228034   3.292   2.932   4.040 -0.5076 -0.3022  0.3562
 9357TIP3    H128035   3.279   2.912   4.133 -0.1081  0.9536  0.6979
 9357TIP3    H228036   3.387   2.945   4.032 -0.4596 -1.0554 -0.3725
 9358TIP3   OH228037   2.723   6.646   3.463 -0.3152  0.2213 -0.1544
 9358TIP3    H128038   2.788   6.613   3.526  0.3814  1.1411 -0.3615
 9358TIP3    H228039   2.771   6.651   3.380 -0.9870 -0.1655 -0.5713
 9359TIP3   OH228040   2.090   1.870   5.512 -0.5803  0.6844  0.2078
 9359TIP3    H128041   2.112   1.879   5.419 -0.7194  1.6412  0.2555
 9359TIP3    H228042   2.023   1.802   5.514 -0.1680  0.2492 -0.3284
 9360TIP3   OH228043   1.221   6.736   4.147  0.5269 -0.2799 -0.1253
 9360TIP3    H128044   1.237   6.675   4.074 -3.3638  0.2208 -1.6435
 9360TIP3    H228045   1.131   6.717   4.174  0.7371  1.8184  2.3919
 9361TIP3   OH228046   1.096   2.205   4.857 -0.0428  0.2942 -0.2056
 9361TIP3    H128047   1.097   2.268   4.929  1.0355 -0.9489  0.9196
 9361TIP3    H228048   1.184   2.211   4.819  0.0598 -0.4901 -0.1094
 9362TIP3   OH228049   2.827   0.855   4.222  0.2535  0.5155  0.3354
 9362TIP3    H128050   2.865   0.938   4.251  0.3454 -0.4405  3.2160
 9362TIP3    H228051   2.757   0.837   4.284  1.9126 -2.7728  1.5161
 9363TIP3   OH228052   5.934   5.330   3.810  0.1039  0.2709 -0.5862
 9363TIP3    H128053   5.928   5.408   3.754  0.4510  0.6559 -0.1003
 9363TIP3    H228054   5.857   5.337   3.868  0.2797  0.4015 -0.3646
 9364TIP3   OH228055   5.787   5.091   5.349 -0.2010  0.0977  0.5895
 9364TIP3    H128056   5.844   5.105   5.425 -2.3691 -0.4689  2.4251
 9364TIP3    H228057   5.729   5.167   5.349 -0.1743  0.1276 -0.5605
 9365TIP3   OH228058   6.688   2.125   5.100 -0.0456  0.1305 -0.1917
 9365TIP3    H128059   6.621   2.069   5.063  0.0018 -0.3786  0.4855
 9365TIP3    H228060   6.738   2.156   5.024 -0.7298  0.1126 -0.6508
 9366TIP3   OH228061   7.082   3.538   1.991  0.4666  0.2066  0.1559
 9366TIP3    H128062   7.049   3.454   2.023  0.1843  1.0040  2.1066
 9366TIP3    H228063   7.176   3.525   1.978  0.6024 -0.1566  1.4072
 9367TIP3   OH228064   4.473   0.313   0.464  0.2669  0.2851 -0.1770
 9367TIP3    H128065   4.516   0.347   0.385 -1.2571 -0.8711 -1.5777
 9367TIP3    H228066   4.381   0.338   0.454  0.0022 -0.0755  1.1432
 9368TIP3   OH228067   3.129   0.669   5.131 -0.6707  0.1617 -0.2710
 9368TIP3    H128068   3.046   0.635   5.095 -0.1023 -1.7599  0.1083
 9368TIP3    H228069   3.196   0.630   5.075 -0.0073  2.1625 -0.9338
 9369TIP3   OH228070   1.422   6.420   0.938  0.3628  0.8009  0.3809
 9369TIP3    H128071   1.357   6.433   1.007 -0.3710 -2.1531  0.3857
 9369TIP3    H228072   1.504   6.405   0.985  0.6264  2.2859  0.4432
 9370TIP3   OH228073   6.043   4.354   3.458 -0.0332  0.0944 -0.4884
 9370TIP3    H128074   6.137   4.341   3.445  0.2264  0.5071  0.8017
 9370TIP3    H228075   6.007   4.266   3.462  1.0270 -0.3907  3.5542
 9371TIP3   OH228076   3.430   4.155   5.331  0.0071 -0.3131  0.0210
 9371TIP3    H128077   3.444   4.249   5.319  0.4187 -0.5156 -1.1915
 9371TIP3    H228078   3.496   4.114   5.276 -1.8977 -1.3210 -1.6093
 9372TIP3   OH228079   3.835   3.890   2.287  0.2299  0.3095 -0.3042
 9372TIP3    H128080   3.836   3.795   2.300  1.4574  0.4517  0.8294
 9372TIP3    H228081   3.796   3.902   2.200 -2.2303 -1.0813  0.5026
 9373TIP3   OH228082   1.053   4.468   4.163 -0.3249 -0.2180 -0.4241
 9373TIP3    H128083   1.133   4.472   4.215 -0.3178 -0.6221 -0.4043
 9373TIP3    H228084   0.993   4.528   4.209 -0.0166  0.1388 -0.4791
 9374TIP3   OH228085   3.852   0.607   4.680  0.3534  0.6411 -0.7447
 9374TIP3    H128086   3.926   0.623   4.621 -0.1472  0.0265 -1.5535
 9374TIP3    H228087   3.817   0.523   4.652  0.9365 -0.3527  1.3130
 9375TIP3   OH228088   6.205   1.889   3.893  0.0546  0.2645 -0.2912
 9375TIP3    H128089   6.119   1.892   3.852  0.7818  0.6248 -1.8997
 9375TIP3    H228090   6.191   1.846   3.977 -1.5055 -0.6264 -0.9668
 9376TIP3   OH228091   3.794   4.341   3.050  0.2299  0.2253 -0.0753
 9376TIP3    H128092   3.830   4.346   2.961  0.5322  1.8371  0.1243
 9376TIP3    H228093   3.853   4.281   3.096  0.2556 -0.3697 -0.8494
 9377TIP3   OH228094   0.385   0.444   1.005 -0.3132  0.0302  0.7768
 9377TIP3    H128095   0.345   0.440   0.918 -0.0177  0.2468  0.6297
 9377TIP3    H228096   0.469   0.400   0.995  0.5365  1.6553  0.4938
 9378TIP3   OH228097   1.898   5.697   0.185  0.3983  0.3746  0.4225
 9378TIP3    H128098   1.885   5.709   0.279 -0.2307 -1.5795  0.6210
 9378TIP3    H228099   1.940   5.612   0.177 -0.2539  0.1659 -1.1123
 9379TIP3   OH228100   0.603   0.928   2.085 -0.7240  0.1848 -0.7710
 9379TIP3    H128101   0.628   1.011   2.125 -2.3077  1.1774 -1.7849
 9379TIP3    H228102   0.535   0.950   2.022 -1.0150 -1.8564 -1.2460
 9380TIP3   OH228103   5.707   6.637   4.244 -0.0111  0.8851  0.3242
 9380TIP3    H128104   5.631   6.620   4.300  0.0443  3.1255  1.1791
 9380TIP3    H228105   5.780   6.597   4.291 -0.7804 -3.3075 -1.5725
 9381TIP3   OH228106   1.038   5.879   1.564  0.6735 -0.0994 -0.5436
 9381TIP3    H128107   1.036   5.962   1.516 -1.2508  0.6546  0.6841
 9381TIP3    H228108   1.069   5.815   1.501 -0.0726  1.1475 -2.2593
 9382TIP3   OH228109   6.387   6.348   4.550  0.1048  0.4628  0.5220
 9382TIP3    H128110   6.356   6.438   4.559 -0.2039  0.4145  0.0113
 9382TIP3    H228111   6.449   6.337   4.621  0.4518  1.2086  0.3488
 9383TIP3   OH228112   0.620   1.039   3.551  0.4931  0.2753  0.2070
 9383TIP3    H128113   0.697   1.025   3.606  0.1046  0.9143  0.9348
 9383TIP3    H228114   0.650   1.022   3.462  1.2346 -0.3953  0.5751
 9384TIP3   OH228115   1.022   4.906   3.508  0.4538 -0.3383 -0.6120
 9384TIP3    H128116   1.018   4.948   3.422 -1.5087  0.9493  0.0401
 9384TIP3    H228117   0.947   4.847   3.509  0.3958 -0.2601  0.2661
 9385TIP3   OH228118   6.630   5.776   0.818 -0.6238  0.5119 -0.2018
 9385TIP3    H128119   6.549   5.827   0.824  0.6309  2.7796 -1.1319
 9385TIP3    H228120   6.698   5.836   0.849  0.5475 -2.0266  2.6221
 9386TIP3   OH228121   0.943   0.934   0.789 -0.2009 -0.4388  0.0927
 9386TIP3    H128122   1.001   0.928   0.713  1.8470 -1.6686  1.6444
 9386TIP3    H228123   0.934   1.028   0.804  1.6570 -0.1888 -0.0695
 9387TIP3   OH228124   3.285   5.286   0.305  0.2281 -0.3363  0.3284
 9387TIP3    H128125   3.357   5.348   0.316  0.4823 -0.5105 -0.3087
 9387TIP3    H228126   3.328   5.201   0.297 -0.0967 -0.5464  0.7416
 9388TIP3   OH228127   1.683   5.972   1.868  0.1269 -0.3094  0.0007
 9388TIP3    H128128   1.675   5.913   1.793  1.4206 -0.7416  0.1797
 9388TIP3    H228129   1.604   6.026   1.864  0.1093 -0.3884 -1.6099
 9389TIP3   OH228130   0.197   2.354   4.453 -0.4290  0.4211 -0.1007
 9389TIP3    H128131   0.180   2.264   4.480  1.4093  0.1112  0.1346
 9389TIP3    H228132   0.152   2.407   4.519  0.9508 -0.3374  1.5355
 9390TIP3   OH228133   6.026   6.468   3.882  0.7883 -0.7143 -0.0055
 9390TIP3    H128134   6.058   6.410   3.812 -0.0749 -0.1571 -0.8863
 9390TIP3    H228135   6.081   6.546   3.874 -0.6058  0.1912 -1.4369
 9391TIP3   OH228136   0.345   4.173   3.274 -0.0854 -0.2674  0.0671
 9391TIP3    H128137   0.292   4.116   3.219 -0.0121 -1.4911  1.2200
 9391TIP3    H228138   0.435   4.146   3.257 -0.1081 -1.3755  1.4905
 9392TIP3   OH228139   4.487   6.443   0.599  0.1267  0.1146 -0.2428
 9392TIP3    H128140   4.481   6.468   0.691  1.2212 -0.1975 -0.0650
 9392TIP3    H228141   4.423   6.373   0.589  0.6138 -0.4680  0.5262
 9393TIP3   OH228142   3.066   3.425   5.554  0.2606  0.0680 -0.4796
 9393TIP3    H128143   3.137   3.479   5.518 -0.4974  1.0847 -0.4975
 9393TIP3    H228144   3.001   3.488   5.583 -0.0977 -0.8184  0.7029
 9394TIP3   OH228145   4.394   6.167   0.518 -0.8925 -0.2353 -0.0445
 9394TIP3    H128146   4.351   6.084   0.498  1.7674 -1.0744 -2.9910
 9394TIP3    H228147   4.403   6.211   0.434  2.2337  0.6817  0.6499
 9395TIP3   OH228148   3.550   5.865   3.873  0.1161 -0.1171 -0.5537
 9395TIP3    H128149   3.610   5.806   3.919  1.0106  1.5614  0.5143
 9395TIP3    H228150   3.588   5.952   3.884 -2.2724  0.9555 -0.2415
 9396TIP3   OH228151   3.016   1.670   5.563  0.2005 -0.1915  0.4412
 9396TIP3    H128152   3.056   1.756   5.577 -0.7409  0.3529 -0.1542
 9396TIP3    H228153   3.074   1.610   5.609  0.4723  0.8409  1.5023
 9397TIP3   OH228154   3.846   2.130   0.330  0.3265  0.3205 -0.7468
 9397TIP3    H128155   3.858   2.213   0.284  0.0468 -0.9077 -3.1953
 9397TIP3    H228156   3.753   2.110   0.319  0.1456  0.1740  0.7986
 9398TIP3   OH228157   6.365   3.850   2.594 -0.0711  0.0822  0.1027
 9398TIP3    H128158   6.453   3.887   2.582  1.0465 -1.6173  2.2854
 9398TIP3    H228159   6.376   3.756   2.576 -1.6738 -0.0214 -0.4927
 9399TIP3   OH228160   5.921   1.205   2.983  0.0865 -0.6113  0.3800
 9399TIP3    H128161   5.855   1.211   2.914  0.0109  0.2763  0.5159
 9399TIP3    H228162   5.968   1.288   2.977  0.9824 -1.0984  0.4959
 9400TIP3   OH228163   2.752   1.666   3.123  0.0913  0.6447 -0.0647
 9400TIP3    H128164   2.678   1.624   3.079  0.3168  0.4158 -0.2329
 9400TIP3    H228165   2.814   1.684   3.053  0.7231 -0.2960  0.2310
 9401TIP3   OH228166   6.856   4.555   3.958  0.0382  0.0553 -0.3307
 9401TIP3    H128167   6.900   4.592   3.881  1.4169 -1.3192 -0.2527
 9401TIP3    H228168   6.877   4.615   4.029 -0.3919  0.7873 -0.8055
 9402TIP3   OH228169   1.189   4.375   3.661 -0.2248 -0.3321 -0.2500
 9402TIP3    H128170   1.212   4.340   3.575 -1.8848 -1.4049 -0.3031
 9402TIP3    H228171   1.268   4.420   3.691  0.2509  0.4155 -2.4920
 9403TIP3   OH228172   0.368   4.551   4.360  0.8667  0.1159 -0.1762
 9403TIP3    H128173   0.346   4.509   4.443  0.0924  0.0963 -0.3811
 9403TIP3    H228174   0.288   4.544   4.308  1.4858 -0.3114 -1.1030
 9404TIP3   OH228175   0.912   1.203   0.542  0.0570  0.0327 -0.3162
 9404TIP3    H128176   0.978   1.272   0.537  0.1762 -0.0404  0.2135
 9404TIP3    H228177   0.959   1.127   0.577  0.0259 -0.4418 -1.2763
 9405TIP3   OH228178   0.704   6.287   1.105 -0.1689 -0.3288 -0.0602
 9405TIP3    H128179   0.780   6.343   1.123 -1.3475  0.9249  1.3345
 9405TIP3    H228180   0.737   6.198   1.112  1.3513  0.1895 -0.3468
 9406TIP3   OH228181   3.158   5.645   3.756  0.4929  0.0477 -0.4277
 9406TIP3    H128182   3.235   5.676   3.708  0.2832 -1.0697 -1.5023
 9406TIP3    H228183   3.171   5.551   3.764 -0.0525  0.0507  0.7124
 9407TIP3   OH228184   3.109   1.633   4.673 -0.8299  0.0762  0.5433
 9407TIP3    H128185   3.126   1.609   4.582 -2.2838 -1.7692  0.7033
 9407TIP3    H228186   3.014   1.647   4.678 -0.8460 -0.3509  1.8831
 9408TIP3   OH228187   5.455   5.168   2.284  0.6004  0.0096 -0.0812
 9408TIP3    H128188   5.491   5.197   2.368 -2.2340 -0.5095  1.4329
 9408TIP3    H228189   5.456   5.072   2.290 -3.0200 -0.0874  1.0943
 9409TIP3   OH228190   5.103   3.358   0.858 -0.2945  0.0213 -0.0672
 9409TIP3    H128191   5.159   3.426   0.820 -0.8148  0.3939 -0.1734
 9409TIP3    H228192   5.134   3.349   0.948 -0.4754  0.6703  0.0622
 9410TIP3   OH228193   4.741   1.297   3.867 -0.1894  0.3504 -0.5964
 9410TIP3    H128194   4.817   1.354   3.869  0.8982 -1.0310  1.6459
 9410TIP3    H228195   4.777   1.208   3.866 -1.7757 -0.3366 -0.2887
 9411TIP3   OH228196   1.391   0.316   2.716 -0.4326 -0.4489 -0.4406
 9411TIP3    H128197   1.393   0.406   2.746  0.9408 -0.4275 -0.4963
 9411TIP3    H228198   1.469   0.308   2.660 -1.6317 -1.1148 -2.1141
 9412TIP3   OH228199   3.885   0.690   5.403  0.3975 -0.1304  0.1214
 9412TIP3    H128200   3.832   0.711   5.480  0.8204  1.5883 -0.0182
 9412TIP3    H228201   3.973   0.718   5.427  1.0043 -1.6818 -0.1703
 9413TIP3   OH228202   2.516   5.775   1.229  0.4908 -0.2999  0.1847
 9413TIP3    H128203   2.584   5.783   1.163  0.5477 -0.8787  0.1683
 9413TIP3    H228204   2.449   5.839   1.203  1.3259  0.7608  0.5831
 9414TIP3   OH228205   1.975   5.410   1.584  0.2983  0.2188  0.2190
 9414TIP3    H128206   1.924   5.403   1.665 -0.3130 -0.6476 -0.2167
 9414TIP3    H228207   1.917   5.374   1.517  0.7280  1.0872 -0.6370
 9415TIP3   OH228208   6.795   3.148   3.759  0.1278  0.7596 -0.1729
 9415TIP3    H128209   6.787   3.212   3.829 -1.8284 -0.0840  0.4511
 9415TIP3    H228210   6.877   3.103   3.778  1.1585  2.5471 -0.2077
 9416TIP3   OH228211   0.816   1.467   5.080  0.3910  0.1919  0.0493
 9416TIP3    H128212   0.876   1.532   5.043 -0.0451  0.7448  0.3028
 9416TIP3    H228213   0.873   1.396   5.109  0.9686  0.8826  0.6556
 9417TIP3   OH228214   5.341   3.897   1.490 -0.1680  0.0052 -0.3867
 9417TIP3    H128215   5.253   3.866   1.470 -0.5301 -1.5407  2.8706
 9417TIP3    H228216   5.330   3.991   1.507 -1.5634 -0.4002  1.3288
 9418TIP3   OH228217   1.420   4.673   1.813 -0.0499  0.2339  0.0201
 9418TIP3    H128218   1.451   4.582   1.818 -0.1122  0.2671  1.8531
 9418TIP3    H228219   1.500   4.725   1.802  0.3734  0.1341  2.1429
 9419TIP3   OH228220   7.199   3.760   0.818  0.2841  0.7117  0.1168
 9419TIP3    H128221   7.252   3.794   0.889  0.0270  0.2865  0.5184
 9419TIP3    H228222   7.114   3.741   0.858  0.8296 -1.7322  0.2626
 9420TIP3   OH228223   2.152   0.526   1.106 -0.7233  0.1945  0.1243
 9420TIP3    H128224   2.118   0.581   1.177 -0.4964  0.5896 -0.0687
 9420TIP3    H228225   2.131   0.436   1.132 -0.8753  0.3584  0.5641
 9421TIP3   OH228226   6.195   4.977   3.336  0.5297 -0.0975  0.1551
 9421TIP3    H128227   6.287   4.974   3.310  0.8709 -0.2024  1.3419
 9421TIP3    H228228   6.195   5.018   3.423 -0.4502 -0.9291  0.5682
 9422TIP3   OH228229   6.052   5.243   1.482  0.0828 -0.2519 -0.0935
 9422TIP3    H128230   5.987   5.305   1.515 -0.8242 -1.4639  0.4977
 9422TIP3    H228231   6.081   5.195   1.559 -0.6731 -1.8612 -0.7668
 9423TIP3   OH228232   6.839   3.587   2.720  0.0062  0.1832 -0.3058
 9423TIP3    H128233   6.786   3.514   2.753  0.6042  1.0069  2.8479
 9423TIP3    H228234   6.788   3.665   2.741  0.1520  0.8075 -2.0847
 9424TIP3   OH228235   4.087   4.136   1.646  0.0516  0.1346 -0.5474
 9424TIP3    H128236   4.136   4.194   1.704 -1.6926  1.5819 -0.4527
 9424TIP3    H228237   4.146   4.122   1.572  0.8599  1.3245 -0.1604
 9425TIP3   OH228238   6.861   2.620   3.700 -0.2991 -0.0506 -0.2596
 9425TIP3    H128239   6.835   2.529   3.695 -0.2201 -0.1540  0.9702
 9425TIP3    H228240   6.843   2.646   3.791  1.2634  0.6589 -0.1129
 9426TIP3   OH228241   5.373   0.904   0.931  0.5986  0.5688  0.6735
 9426TIP3    H128242   5.323   0.929   0.853  3.1031  1.5115 -0.7436
 9426TIP3    H228243   5.443   0.969   0.937  1.6972 -0.6808  2.5220
 9427TIP3   OH228244   5.892   0.696   4.684  0.7641  0.1930 -0.1935
 9427TIP3    H128245   5.894   0.781   4.728 -1.5482 -0.0249  0.4257
 9427TIP3    H228246   5.981   0.661   4.695  2.7131  3.6399 -2.8986
 9428TIP3   OH228247   3.032   5.514   5.053  0.2795  0.0160 -0.2250
 9428TIP3    H128248   3.008   5.457   5.126  0.8173  0.0054 -0.0524
 9428TIP3    H228249   2.950   5.530   5.007 -0.1299  0.3363  0.6038
 9429TIP3   OH228250   3.004   6.751   5.887 -0.0820 -0.2033 -0.0555
 9429TIP3    H128251   2.964   6.676   5.843 -0.8070 -0.0930  0.3910
 9429TIP3    H228252   3.013   6.817   5.818  1.7418 -1.1190 -0.7439
 9430TIP3   OH228253   1.368   6.266   5.780 -0.8247  0.0262  0.3132
 9430TIP3    H128254   1.351   6.202   5.849 -0.0506 -0.9656 -0.3855
 9430TIP3    H228255   1.413   6.338   5.824 -1.2168 -0.1443  1.0096
 9431TIP3   OH228256   0.907   0.382   3.279  0.3777 -0.2169  0.2698
 9431TIP3    H128257   0.952   0.297   3.279 -0.1937 -0.5289 -0.0803
 9431TIP3    H228258   0.865   0.386   3.365  1.2611  0.1850  0.6929
 9432TIP3   OH228259   3.974   6.229   3.797 -0.1191  0.5076 -0.6284
 9432TIP3    H128260   3.964   6.146   3.749  2.2672  0.3442 -0.9618
 9432TIP3    H228261   3.998   6.202   3.886 -2.8195  0.8482  0.2982
 9433TIP3   OH228262   5.618   6.623   0.731 -0.1750 -0.4272 -0.0281
 9433TIP3    H128263   5.659   6.561   0.671 -0.4808 -0.1124 -0.5667
 9433TIP3    H228264   5.549   6.572   0.775  0.0073 -0.6385  0.0157
 9434TIP3   OH228265   4.678   3.137   5.078 -0.6564  0.5982 -0.1970
 9434TIP3    H128266   4.755   3.080   5.080 -0.6011  0.5983 -1.4881
 9434TIP3    H228267   4.714   3.226   5.083 -0.5348  0.6078 -1.0235
 9435TIP3   OH228268   6.670   4.420   4.813  0.3087  0.0999  0.4966
 9435TIP3    H128269   6.733   4.435   4.743 -0.6268  0.3311 -0.3176
 9435TIP3    H228270   6.625   4.339   4.788  0.5385 -0.2730  1.2647
 9436TIP3   OH228271   5.219   6.770   0.966  0.3267 -0.2163  0.2485
 9436TIP3    H128272   5.175   6.834   0.910  0.3815 -0.0011  0.4487
 9436TIP3    H228273   5.310   6.769   0.937  0.7527  1.1441  1.4254
 9437TIP3   OH228274   6.969   3.296   3.182 -0.1181  0.1168  0.3839
 9437TIP3    H128275   7.001   3.380   3.150  1.2732 -0.2726  0.6866
 9437TIP3    H228276   6.957   3.244   3.103  2.1104 -0.4293  0.3279
 9438TIP3   OH228277   4.147   1.256   3.648 -0.5349 -0.2092  0.2938
 9438TIP3    H128278   4.117   1.165   3.658  1.5456 -1.0078 -0.1590
 9438TIP3    H228279   4.228   1.260   3.699 -0.7045  1.4700  0.4696
 9439TIP3   OH228280   1.766   4.491   3.467 -0.3963 -0.5917  0.1209
 9439TIP3    H128281   1.784   4.456   3.380  0.0717  0.6376 -0.2888
 9439TIP3    H228282   1.737   4.581   3.452 -0.0900 -0.2861  1.2502
 9440TIP3   OH228283   3.582   0.059   3.489  0.2306  0.2238  0.3077
 9440TIP3    H128284   3.675   0.072   3.469  0.2259 -1.3946 -1.0315
 9440TIP3    H228285   3.582   0.002   3.566  0.3058  1.2098  1.0614
 9441TIP3   OH228286   6.310   3.770   5.732 -0.2710  0.0644  0.3188
 9441TIP3    H128287   6.386   3.822   5.708  0.3108 -0.7898  0.2849
 9441TIP3    H228288   6.239   3.806   5.679  0.4787 -0.2204 -0.9203
 9442TIP3   OH228289   6.188   2.218   3.253 -0.1450 -0.5520  0.5033
 9442TIP3    H128290   6.106   2.170   3.260  0.5092 -1.7150  0.4009
 9442TIP3    H228291   6.170   2.301   3.297 -0.7643 -1.6189  2.4287
 9443TIP3   OH228292   1.243   1.440   0.280 -0.4565  0.6012  0.0314
 9443TIP3    H128293   1.222   1.370   0.218  2.6159  1.0634 -1.7049
 9443TIP3    H228294   1.238   1.520   0.228  0.1565  1.2446  0.9362
 9444TIP3   OH228295   3.597   2.195   4.337  0.1955 -0.4250 -0.4026
 9444TIP3    H128296   3.539   2.263   4.304  0.9906  0.7368  0.5122
 9444TIP3    H228297   3.575   2.117   4.286  0.1484  0.8225 -2.3588
 9445TIP3   OH228298   5.929   6.756   1.536 -0.1833 -0.4079 -0.3483
 9445TIP3    H128299   5.904   6.793   1.621  2.0917 -0.9537  0.6281
 9445TIP3    H228300   5.846   6.732   1.495 -1.4736  1.6880  0.8413
 9446TIP3   OH228301   3.893   4.322   0.531 -0.0548  0.0820  0.5362
 9446TIP3    H128302   3.880   4.297   0.440 -0.7431 -0.6855  0.8323
 9446TIP3    H228303   3.921   4.413   0.527  0.1849 -0.0185 -0.4527
 9447TIP3   OH228304   5.576   4.874   3.879 -0.2194 -0.0743 -0.4497
 9447TIP3    H128305   5.500   4.919   3.916 -0.2231  0.9643 -1.6562
 9447TIP3    H228306   5.647   4.938   3.884  0.3973 -0.7658 -0.0587
 9448TIP3   OH228307   0.569   1.530   4.112  0.2686 -0.3994  0.9852
 9448TIP3    H128308   0.537   1.574   4.033 -0.8580 -2.3231  0.2968
 9448TIP3    H228309   0.621   1.596   4.157  2.6111  0.2610 -2.3122
 9449TIP3   OH228310   3.190   2.068   4.212 -0.6996  0.3426 -0.0784
 9449TIP3    H128311   3.268   2.091   4.263 -0.9288 -0.6148  0.7341
 9449TIP3    H228312   3.164   1.982   4.246 -1.2800  0.0087 -1.3337
 9450TIP3   OH228313   2.247   5.539   0.861 -0.3207 -0.2852  0.2469
 9450TIP3    H128314   2.327   5.575   0.899 -1.0440  0.9583  0.6305
 9450TIP3    H228315   2.240   5.580   0.775 -0.8413  0.0501  0.4456
 9451TIP3   OH228316   3.849   2.594   0.983  0.1402 -0.6439  0.1726
 9451TIP3    H128317   3.823   2.653   0.912 -0.2609  0.0316  0.8613
 9451TIP3    H228318   3.772   2.589   1.039  0.6918 -0.5851  0.9462
 9452TIP3   OH228319   2.499   6.177   2.750  0.0996 -0.0302  0.0600
 9452TIP3    H128320   2.444   6.238   2.701 -1.0473 -0.7367  0.4335
 9452TIP3    H228321   2.453   6.165   2.833 -0.1801 -2.0908 -0.3443
 9453TIP3   OH228322   2.393   4.686   3.707  0.5361  0.0540 -0.3644
 9453TIP3    H128323   2.479   4.644   3.697 -0.1241 -1.0686 -1.8886
 9453TIP3    H228324   2.412   4.779   3.716  1.9681 -0.3304  1.0432
 9454TIP3   OH228325   0.470   0.965   5.802 -0.1254  0.6195 -0.0834
 9454TIP3    H128326   0.434   1.053   5.805 -0.1009  0.5977  1.6301
 9454TIP3    H228327   0.511   0.952   5.888 -1.0096 -1.4264  0.0887
 9455TIP3   OH228328   5.154   2.933   2.498 -0.2039 -0.0002  0.2525
 9455TIP3    H128329   5.184   2.851   2.539  0.5917  0.4687  0.6424
 9455TIP3    H228330   5.060   2.922   2.488 -0.1089 -0.9596  0.3176
 9456TIP3   OH228331   0.863   6.185   0.424  0.4613 -0.6872 -0.9523
 9456TIP3    H128332   0.841   6.110   0.479 -1.5286  2.3125  2.8553
 9456TIP3    H228333   0.927   6.234   0.476 -0.2633  1.5025 -2.0353
 9457TIP3   OH228334   3.881   4.147   1.876 -0.1540 -0.5764 -0.1008
 9457TIP3    H128335   3.969   4.153   1.839  0.0820 -0.8795  0.4075
 9457TIP3    H228336   3.854   4.057   1.860 -0.0828 -0.6864  0.3990
 9458TIP3   OH228337   1.923   4.918   0.067 -0.2772  0.0140 -0.2910
 9458TIP3    H128338   1.933   4.830   0.032  1.0608  0.0668 -0.0689
 9458TIP3    H228339   1.828   4.933   0.068 -0.6766 -2.1062  1.3541
 9459TIP3   OH228340   6.730   1.717   1.058  0.0206  0.3818  0.1980
 9459TIP3    H128341   6.717   1.761   0.974 -0.1239 -0.8569 -0.4640
 9459TIP3    H228342   6.665   1.646   1.057  1.4265 -0.9578  0.4040
 9460TIP3   OH228343   5.557   1.714   3.381 -0.2199  0.2438  0.1212
 9460TIP3    H128344   5.515   1.639   3.340 -0.1317  0.8833 -1.1689
 9460TIP3    H228345   5.570   1.687   3.472 -3.2253 -0.0545  0.5597
 9461TIP3   OH228346   0.770   1.448   0.222  0.5914 -0.3683  0.8315
 9461TIP3    H128347   0.785   1.486   0.308 -1.2415 -1.2436  1.6035
 9461TIP3    H228348   0.677   1.426   0.222  0.4522  0.0181 -1.5591
 9462TIP3   OH228349   4.783   5.988   1.504  0.5882  0.1438 -0.1690
 9462TIP3    H128350   4.856   5.947   1.458  1.3157  0.5364  0.5983
 9462TIP3    H228351   4.824   6.039   1.574 -0.4401  0.0499  0.5359
 9463TIP3   OH228352   2.313   5.664   0.548  0.3772 -0.0282  0.0512
 9463TIP3    H128353   2.306   5.647   0.454  0.3080 -1.6526  0.3088
 9463TIP3    H228354   2.232   5.710   0.570  0.7664  1.1076 -0.8087
 9464TIP3   OH228355   5.411   6.109   1.151 -0.6735  0.2240 -0.1221
 9464TIP3    H128356   5.460   6.068   1.080 -0.1602  1.8389 -0.7491
 9464TIP3    H228357   5.325   6.069   1.147 -0.3826 -0.3422 -1.0942
 9465TIP3   OH228358   6.328   2.662   5.239  0.6028 -0.4762 -0.5667
 9465TIP3    H128359   6.244   2.690   5.274  0.8592 -0.3180 -0.0663
 9465TIP3    H228360   6.348   2.727   5.172  0.4260 -0.3908 -0.5390
 9466TIP3   OH228361   0.700   1.103   4.954  0.0108 -0.2909 -0.5060
 9466TIP3    H128362   0.621   1.073   4.998  0.5897 -1.7862 -0.4538
 9466TIP3    H228363   0.671   1.127   4.866 -0.6145 -0.1401 -0.2628
 9467TIP3   OH228364   6.727   3.234   3.510  0.3583 -0.1253 -0.4110
 9467TIP3    H128365   6.656   3.289   3.541 -0.4351 -1.1964 -0.2569
 9467TIP3    H228366   6.768   3.200   3.590  1.7718  1.3273 -0.4627
 9468TIP3   OH228367   5.459   5.973   2.940  0.0806  0.2362  0.0094
 9468TIP3    H128368   5.487   6.029   2.868 -0.2129  0.1516 -0.1746
 9468TIP3    H228369   5.498   5.888   2.921  0.6114  0.4049  0.3434
 9469TIP3   OH228370   3.906   3.988   2.734 -0.3626 -0.1890  0.2804
 9469TIP3    H128371   3.866   4.074   2.728 -1.3722 -0.5685  1.2999
 9469TIP3    H228372   3.961   3.981   2.656  0.8612  1.9322  0.8763
 9470TIP3   OH228373   1.029   1.810   2.697 -0.5820 -0.3556 -0.1207
 9470TIP3    H128374   1.124   1.823   2.697 -0.6516  0.7325 -2.3025
 9470TIP3    H228375   1.009   1.776   2.784  1.8638 -1.1440  0.2173
 9471TIP3   OH228376   5.211   6.650   4.170 -0.7178  0.4283  0.2489
 9471TIP3    H128377   5.260   6.637   4.089 -1.0628  0.6847 -0.0076
 9471TIP3    H228378   5.123   6.674   4.140 -1.1302 -0.4972  0.7018
 9472TIP3   OH228379   2.254   2.791   5.288  0.1877  0.1965  0.0285
 9472TIP3    H128380   2.163   2.784   5.259  0.1549  2.0649 -0.4261
 9472TIP3    H228381   2.295   2.710   5.257 -0.5130  0.8319 -2.8301
 9473TIP3   OH228382   5.240   4.535   5.057 -0.0914  0.1927 -0.1357
 9473TIP3    H128383   5.271   4.483   4.983  1.0669  1.0910 -0.3075
 9473TIP3    H228384   5.276   4.491   5.134 -1.2301 -0.6959 -0.0895
 9474TIP3   OH228385   5.499   6.823   0.248 -0.0404 -0.0874  0.2570
 9474TIP3    H128386   5.481   6.813   0.154  1.3584  1.3636 -0.1924
 9474TIP3    H228387   5.527   6.735   0.275  0.4781 -0.3040 -0.8965
 9475TIP3   OH228388   4.745   4.509   5.299 -0.6965 -0.3010 -0.2303
 9475TIP3    H128389   4.769   4.476   5.386  0.9472 -0.6045 -0.7588
 9475TIP3    H228390   4.668   4.458   5.274 -0.5851 -0.9116  0.6191
 9476TIP3   OH228391   2.365   4.388   3.758  0.4830 -0.1745  0.8437
 9476TIP3    H128392   2.292   4.446   3.782  0.2718 -0.0929  0.0321
 9476TIP3    H228393   2.438   4.448   3.742  0.1270 -0.0715 -0.5018
 9477TIP3   OH228394   2.259   5.514   5.505  1.0291 -0.1828 -0.8781
 9477TIP3    H128395   2.206   5.593   5.507  0.2528 -0.6779  1.1852
 9477TIP3    H228396   2.349   5.545   5.502  0.8482  0.9420  1.9931
 9478TIP3   OH228397   1.570   0.411   5.584  0.2249  0.1687 -0.5818
 9478TIP3    H128398   1.661   0.440   5.576  0.8828 -1.6467 -0.1644
 9478TIP3    H228399   1.531   0.429   5.499  0.8805  1.2335 -0.6733
 9479TIP3   OH228400   1.989   3.649   5.087 -0.6623 -0.2691 -0.1792
 9479TIP3    H128401   2.083   3.635   5.100  0.2111  2.6836 -2.3911
 9479TIP3    H228402   1.959   3.687   5.170  0.1434 -0.8195  0.3892
 9480TIP3   OH228403   5.012   5.654   5.695  0.1558 -0.2140 -0.0102
 9480TIP3    H128404   5.085   5.713   5.674  1.1030 -1.3100  0.0910
 9480TIP3    H228405   4.951   5.664   5.622  1.0293 -0.2309 -0.7626
 9481TIP3   OH228406   5.712   1.169   0.222 -0.5858  0.0559 -0.0955
 9481TIP3    H128407   5.728   1.179   0.128  2.4335  0.3872  0.3418
 9481TIP3    H228408   5.722   1.074   0.237  0.5063  0.1785  0.0683
 9482TIP3   OH228409   1.120   3.800   4.612 -0.2940  0.3804  0.6823
 9482TIP3    H128410   1.193   3.767   4.560 -1.3624  2.9194 -2.7889
 9482TIP3    H228411   1.160   3.857   4.677  0.9315  0.5799 -0.2088
 9483TIP3   OH228412   6.102   3.867   5.595  0.2023  0.0261 -0.1698
 9483TIP3    H128413   6.045   3.920   5.651 -1.6947 -1.3242 -0.7421
 9483TIP3    H228414   6.117   3.922   5.518  0.1278  0.5953  0.2094
 9484TIP3   OH228415   4.447   2.037   2.083  0.3232 -0.5987  0.2819
 9484TIP3    H128416   4.503   1.989   2.022 -0.1824  1.0378 -1.5407
 9484TIP3    H228417   4.506   2.067   2.151  1.0326 -1.8050  0.2320
 9485TIP3   OH228418   3.720   4.233   5.250  0.1717  0.2388  0.5902
 9485TIP3    H128419   3.670   4.155   5.225  0.1616 -0.7373  3.2782
 9485TIP3    H228420   3.810   4.202   5.255  0.4897  0.9729 -0.3216
 9486TIP3   OH228421   4.993   6.816   2.180  0.0992 -0.2564 -0.2471
 9486TIP3    H128422   4.910   6.772   2.162 -0.6937  0.5223  1.3287
 9486TIP3    H228423   5.036   6.822   2.095 -1.0358 -1.5015 -0.9439
 9487TIP3   OH228424   5.120   2.563   1.831 -0.5231 -0.1999 -0.5113
 9487TIP3    H128425   5.198   2.522   1.868 -1.6461 -0.8559  1.3435
 9487TIP3    H228426   5.149   2.648   1.800  1.0603 -0.7234 -0.5567
 9488TIP3   OH228427   4.985   2.301   5.742  0.6655 -0.1943  0.3491
 9488TIP3    H128428   4.952   2.223   5.786  0.5947 -0.1922  0.3006
 9488TIP3    H228429   4.972   2.372   5.805  0.3767 -0.1558  0.2499
 9489TIP3   OH228430   5.291   4.035   5.004  0.4881  0.4063 -0.2150
 9489TIP3    H128431   5.366   4.080   5.043  1.2115 -0.3004 -0.7608
 9489TIP3    H228432   5.289   4.066   4.913 -0.0441  0.6158 -0.1379
 9490TIP3   OH228433   1.315   2.476   3.005  0.1955 -0.2212  0.4729
 9490TIP3    H128434   1.251   2.473   2.934  0.3617  2.3613  0.0986
 9490TIP3    H228435   1.395   2.441   2.966 -0.1752 -0.5406 -0.0248
 9491TIP3   OH228436   1.583   5.108   4.763 -0.2659 -0.7204  0.1859
 9491TIP3    H128437   1.595   5.045   4.692  0.6017 -0.6238  0.2379
 9491TIP3    H228438   1.671   5.122   4.799 -0.6460 -0.5281  1.0787
 9492TIP3   OH228439   1.434   4.341   2.686  0.1204 -0.0498  0.3107
 9492TIP3    H128440   1.497   4.372   2.621  1.7377 -1.4716  1.1040
 9492TIP3    H228441   1.351   4.380   2.660  1.5096  2.8061 -0.1458
 9493TIP3   OH228442   0.683   3.804   1.169  0.3919 -0.2889  0.0927
 9493TIP3    H128443   0.768   3.766   1.147  0.4321 -0.3612  0.3632
 9493TIP3    H228444   0.657   3.853   1.091  1.8221  1.7622  0.8326
 9494TIP3   OH228445   2.988   2.978   0.703  0.2263 -0.0392  0.1777
 9494TIP3    H128446   2.962   2.889   0.724 -1.0060  0.5055  1.0903
 9494TIP3    H228447   2.906   3.022   0.680  0.9649  0.5732 -1.4222
 9495TIP3   OH228448   5.017   5.892   5.002  0.2565  0.1167  0.0773
 9495TIP3    H128449   4.943   5.850   5.045 -0.3822  1.4842  0.3495
 9495TIP3    H228450   5.048   5.957   5.066  1.4626 -0.1750 -0.1813
 9496TIP3   OH228451   4.199   1.623   4.427  0.2128 -0.7894  0.1590
 9496TIP3    H128452   4.228   1.560   4.493  0.9021  0.5114  1.1595
 9496TIP3    H228453   4.153   1.691   4.478  2.4784  1.2750 -0.3578
 9497TIP3   OH228454   4.175   3.873   0.309 -0.4067  0.0251 -0.3483
 9497TIP3    H128455   4.254   3.925   0.298 -0.7412  0.1787 -2.4335
 9497TIP3    H228456   4.207   3.787   0.337  0.2459  0.8558  1.6364
 9498TIP3   OH228457   2.208   3.068   5.287  0.4855 -0.7881 -0.5849
 9498TIP3    H128458   2.121   3.049   5.251  0.3352 -0.8229 -0.2043
 9498TIP3    H228459   2.238   2.985   5.324  0.6614 -0.7633 -0.6665
 9499TIP3   OH228460   6.916   3.789   0.527 -0.7179  0.4054  0.5860
 9499TIP3    H128461   6.866   3.710   0.504 -0.6039 -0.0344  1.7505
 9499TIP3    H228462   6.915   3.842   0.448 -3.2042  0.5038  0.5831
 9500TIP3   OH228463   5.965   1.276   5.702 -0.0695  0.0657 -0.2749
 9500TIP3    H128464   5.896   1.330   5.663 -0.4798  0.8668  1.4347
 9500TIP3    H228465   5.918   1.212   5.755  0.4522  0.7197  1.0398
 9501TIP3   OH228466   3.941   1.069   1.250 -0.7319 -0.1608 -0.3894
 9501TIP3    H128467   3.925   1.157   1.283 -0.6744 -0.2002 -0.2581
 9501TIP3    H228468   3.882   1.013   1.300  0.8351 -0.5193  1.1542
 9502TIP3   OH228469   1.149   0.814   4.247  0.0944 -0.4083 -0.3206
 9502TIP3    H128470   1.071   0.809   4.302 -0.1334  2.0800 -0.2956
 9502TIP3    H228471   1.150   0.732   4.198 -1.4041 -1.3468  1.1358
 9503TIP3   OH228472   1.091   1.291   1.937  0.4950  0.0406  0.2117
 9503TIP3    H128473   1.054   1.305   1.849 -0.7253  0.1829  0.7289
 9503TIP3    H228474   1.127   1.376   1.961  0.3896  0.1348  0.0461
 9504TIP3   OH228475   1.684   2.015   2.049  0.4078  0.4634  0.2745
 9504TIP3    H128476   1.606   1.990   1.999  0.0395  1.3965  0.3688
 9504TIP3    H228477   1.725   1.931   2.073 -0.4569 -0.0308  0.0618
 9505TIP3   OH228478   2.468   6.210   1.307  0.0170  0.2019  0.1122
 9505TIP3    H128479   2.504   6.282   1.256 -1.6668  0.4279 -0.8481
 9505TIP3    H228480   2.542   6.151   1.322  0.5286 -0.1660 -3.1175
 9506TIP3   OH228481   7.142   5.032   2.594 -0.1506  0.3045  0.0232
 9506TIP3    H128482   7.059   4.987   2.610  0.9344 -2.4206 -1.3149
 9506TIP3    H228483   7.125   5.089   2.520 -1.1915  0.9832  0.7592
 9507TIP3   OH228484   6.186   3.248   0.202  0.0617 -0.3356 -0.1606
 9507TIP3    H128485   6.193   3.157   0.232  1.8037 -0.4389 -0.7717
 9507TIP3    H228486   6.241   3.298   0.264  1.0337 -0.0732 -1.2066
 9508TIP3   OH228487   6.272   3.163   5.333 -0.1388 -0.1628  0.3811
 9508TIP3    H128488   6.332   3.108   5.382  0.1256  0.0092  0.2491
 9508TIP3    H228489   6.304   3.252   5.346 -1.8328  0.2262  2.4343
 9509TIP3   OH228490   4.622   1.100   2.311  0.6738 -0.2914  0.4604
 9509TIP3    H128491   4.529   1.118   2.297  0.8300 -1.2621 -2.7009
 9509TIP3    H228492   4.624   1.023   2.367 -0.2896  0.8915  2.2480
 9510TIP3   OH228493   5.061   4.080   1.969 -0.4125  0.2267 -0.2846
 9510TIP3    H128494   4.985   4.072   1.912  0.2360  0.5635 -1.2165
 9510TIP3    H228495   5.025   4.110   2.053 -1.4720 -1.0397 -0.2536
 9511TIP3   OH228496   4.895   6.065   3.217  0.2514 -0.3941 -0.2544
 9511TIP3    H128497   4.913   6.125   3.289  0.5295 -0.9192  0.1221
 9511TIP3    H228498   4.969   6.005   3.216  1.0570  0.5465 -1.9985
 9512TIP3   OH228499   4.069   4.703   5.661 -0.3448  0.0493 -0.2200
 9512TIP3    H128500   4.076   4.698   5.565 -0.0350 -0.8811 -0.1644
 9512TIP3    H228501   4.130   4.771   5.686  1.2758 -1.2270 -0.5288
 9513TIP3   OH228502   2.333   1.075   5.444 -0.0009 -0.3133  0.1275
 9513TIP3    H128503   2.242   1.047   5.453 -0.4151  0.7060 -0.6548
 9513TIP3    H228504   2.374   1.008   5.390 -0.8983  0.3715 -1.4735
 9514TIP3   OH228505   7.168   3.985   4.031 -0.0975  0.2047  0.2753
 9514TIP3    H128506   7.173   3.909   3.973  0.2084  1.4072 -1.3340
 9514TIP3    H228507   7.120   4.051   3.980 -0.6965  0.9851  1.7820
 9515TIP3   OH228508   5.701   5.504   0.729  0.4517  0.4420 -0.1976
 9515TIP3    H128509   5.611   5.494   0.696  0.7618 -0.9388 -0.6662
 9515TIP3    H228510   5.705   5.447   0.805 -0.0231  3.0208  1.9011
 9516TIP3   OH228511   6.591   0.756   5.866  1.0929 -0.7256 -0.3414
 9516TIP3    H128512   6.677   0.794   5.849  0.1989  1.1938 -0.9194
 9516TIP3    H228513   6.581   0.688   5.800  1.7771 -0.2691 -0.9277
 9517TIP3   OH228514   7.221   4.167   2.510 -0.6368  0.0502  0.3644
 9517TIP3    H128515   7.218   4.262   2.519  2.7152  0.5134 -1.4173
 9517TIP3    H228516   7.196   4.133   2.595  1.0522  2.6954  2.0588
 9518TIP3   OH228517   6.350   6.122   4.382  0.1655  0.0893  0.5571
 9518TIP3    H128518   6.303   6.158   4.307  0.0506  1.2259  1.1493
 9518TIP3    H228519   6.363   6.197   4.440  1.3353 -0.5252  1.1168
 9519TIP3   OH228520   2.944   5.187   2.666 -0.2525  0.0801  0.3173
 9519TIP3    H128521   2.937   5.188   2.762  2.1725  2.4023  0.5838
 9519TIP3    H228522   3.017   5.128   2.649  0.1201  0.6334 -0.0029
 9520TIP3   OH228523   1.941   3.778   3.944  0.2161 -0.0131 -0.1212
 9520TIP3    H128524   2.015   3.827   3.909  0.1984  0.5634  0.6189
 9520TIP3    H228525   1.977   3.727   4.016  0.0553 -0.4032 -0.3109
 9521TIP3   OH228526   2.227   4.238   0.066 -0.2518  0.2040 -0.4855
 9521TIP3    H128527   2.255   4.231   0.157  1.0146 -0.5411 -0.9062
 9521TIP3    H228528   2.303   4.273   0.020 -0.4322 -0.6432 -1.4631
 9522TIP3   OH228529   0.992   2.090   4.540  0.5529  0.5720 -0.2508
 9522TIP3    H128530   0.911   2.141   4.541  0.1116 -0.1095  0.0545
 9522TIP3    H228531   1.053   2.141   4.594  0.4955  1.3394 -0.8982
 9523TIP3   OH228532   5.660   5.586   4.903 -0.6916  0.0391 -0.3894
 9523TIP3    H128533   5.726   5.580   4.972 -0.2484  0.4489 -0.7691
 9523TIP3    H228534   5.577   5.582   4.949 -0.4017  0.1464  0.1560
 9524TIP3   OH228535   2.058   6.013   3.038  0.2144  0.2528 -0.1335
 9524TIP3    H128536   2.023   6.055   3.116  1.5889 -1.0406  1.2558
 9524TIP3    H228537   1.983   5.971   2.997 -1.2106  3.7574 -1.5299
 9525TIP3   OH228538   4.943   2.236   0.124  0.4921 -0.1013 -0.5864
 9525TIP3    H128539   4.851   2.219   0.144  0.2602  1.4035 -0.2341
 9525TIP3    H228540   4.940   2.303   0.056  1.3139  0.9510  0.3800
 9526TIP3   OH228541   6.628   1.726   0.076 -0.5293  0.2593  0.3786
 9526TIP3    H128542   6.560   1.763   0.020 -1.9130  1.3525  2.6577
 9526TIP3    H228543   6.682   1.801   0.101  0.1474 -0.2353  0.4390
 9527TIP3   OH228544   1.734   4.384   5.523  0.2778 -0.1920 -0.1783
 9527TIP3    H128545   1.726   4.421   5.611 -0.7107 -0.9862  0.0889
 9527TIP3    H228546   1.828   4.382   5.506  0.7211 -2.4065  1.9534
 9528TIP3   OH228547   1.916   0.550   4.841  0.4338  0.0478  0.5079
 9528TIP3    H128548   1.870   0.548   4.757  0.1536 -0.4951  0.6713
 9528TIP3    H228549   1.978   0.477   4.836 -0.1757 -0.5230  1.0954
 9529TIP3   OH228550   4.169   2.606   3.966  0.4778  0.2890  0.0771
 9529TIP3    H128551   4.156   2.695   3.935 -0.7092  1.0152  2.4029
 9529TIP3    H228552   4.084   2.564   3.958  0.5182  0.0285  0.8401
 9530TIP3   OH228553   3.372   4.658   0.004  0.3694 -0.1721 -0.4323
 9530TIP3    H128554   3.392   4.671   0.096  0.0007  0.8219 -0.4865
 9530TIP3    H228555   3.280   4.683  -0.004 -0.1548 -2.0170 -0.7174
 9531TIP3   OH228556   5.769   3.206   4.551 -0.0598 -0.0030 -0.2421
 9531TIP3    H128557   5.735   3.119   4.529 -2.3457  0.8533 -0.4407
 9531TIP3    H228558   5.852   3.213   4.505 -0.0780 -1.8855 -0.6153
 9532TIP3   OH228559   5.693   1.919   5.216  0.1848  0.0404 -0.8109
 9532TIP3    H128560   5.696   1.937   5.122 -3.2298  0.7853 -0.8937
 9532TIP3    H228561   5.600   1.908   5.236  0.6936  0.7526  2.6498
 9533TIP3   OH228562   5.047   5.321   3.490 -0.4426 -0.2482 -0.3507
 9533TIP3    H128563   4.956   5.302   3.513 -0.3285  0.9667  1.3447
 9533TIP3    H228564   5.042   5.369   3.407 -1.3989  0.2223 -0.0338
 9534TIP3   OH228565   3.538   4.535   0.929 -0.1792 -0.0889  0.0025
 9534TIP3    H128566   3.487   4.615   0.940 -0.8186 -0.4747 -0.1120
 9534TIP3    H228567   3.553   4.529   0.835  2.0104  1.1899  0.1925
 9535TIP3   OH228568   3.117   3.951   2.640  0.0394  0.1723 -0.2838
 9535TIP3    H128569   3.169   4.009   2.696 -0.7292 -0.9852  1.7199
 9535TIP3    H228570   3.161   3.866   2.645  0.5002  0.2227 -2.2752
 9536TIP3   OH228571   1.549   1.985   4.752 -0.5990 -0.0326  0.1625
 9536TIP3    H128572   1.475   1.936   4.788 -0.7506 -0.6554 -0.9516
 9536TIP3    H228573   1.558   1.953   4.663  1.0246  0.0361  0.2715
 9537TIP3   OH228574   6.258   4.965   0.594  0.5320  0.1934  0.5669
 9537TIP3    H128575   6.268   5.057   0.619 -3.2654  0.7068  0.8051
 9537TIP3    H228576   6.280   4.963   0.501  0.2929  1.4366  0.4711
 9538TIP3   OH228577   3.838   3.837   0.870 -0.6890  0.0206 -0.4961
 9538TIP3    H128578   3.791   3.770   0.918  0.0567  0.1818  0.4920
 9538TIP3    H228579   3.924   3.799   0.854 -0.0937  0.8828  0.4867
 9539TIP3   OH228580   3.872   3.568   0.280 -0.4841  0.0596 -0.0358
 9539TIP3    H128581   3.931   3.607   0.215 -0.4617 -1.2123 -0.8176
 9539TIP3    H228582   3.837   3.491   0.236 -2.6514  0.7082  0.4445
 9540TIP3   OH228583   6.818   4.345   0.251 -0.2173 -0.0257 -0.0763
 9540TIP3    H128584   6.888   4.360   0.188  0.1104 -0.0686  0.2711
 9540TIP3    H228585   6.792   4.254   0.237 -0.6698  0.1839 -0.6604
 9541TIP3   OH228586   6.830   6.257   2.290  0.5577 -0.4720  0.2610
 9541TIP3    H128587   6.741   6.282   2.315  1.7504  3.7508  1.1210
 9541TIP3    H228588   6.842   6.296   2.203  2.0507  0.4823  0.8720
 9542TIP3   OH228589   1.274   2.589   5.169  0.0979 -0.5091 -0.5291
 9542TIP3    H128590   1.262   2.565   5.261 -0.0421  1.3913 -0.0120
 9542TIP3    H228591   1.354   2.544   5.143  0.0031 -1.2846  0.4373
 9543TIP3   OH228592   3.377   0.923   2.116  0.0057 -0.4893  0.0418
 9543TIP3    H128593   3.360   0.983   2.189  2.7594 -1.1271  1.3535
 9543TIP3    H228594   3.366   0.977   2.038 -1.2640  0.7062  1.0047
 9544TIP3   OH228595   4.634   3.856   1.932 -0.3044  0.4970 -0.4086
 9544TIP3    H128596   4.611   3.857   1.839 -1.0335  1.4823 -0.2336
 9544TIP3    H228597   4.563   3.806   1.973 -0.2693  0.5291 -0.3093
 9545TIP3   OH228598   3.987   0.007   2.909  0.5516 -0.4487  0.3285
 9545TIP3    H128599   4.045   0.036   2.979 -1.5154  2.3662  1.0503
 9545TIP3    H228600   3.899   0.027   2.942 -0.5394  4.7646 -4.3375
 9546TIP3   OH228601   5.690   1.671   1.055  0.1583 -0.4724  0.0003
 9546TIP3    H128602   5.599   1.690   1.033 -0.0441 -0.2937  0.9717
 9546TIP3    H228603   5.733   1.661   0.970 -0.7183 -0.3560 -0.4711
 9547TIP3   OH228604   0.528   2.567   3.022  0.0724  0.0310 -1.0534
 9547TIP3    H128605   0.488   2.526   2.944  1.1693 -2.3965 -0.4417
 9547TIP3    H228606   0.612   2.600   2.991 -0.7301  1.7508 -1.5037
 9548TIP3   OH228607   3.469   5.341   4.406 -0.3763  0.2169 -0.8523
 9548TIP3    H128608   3.517   5.334   4.323  0.5812  1.7485 -0.4776
 9548TIP3    H228609   3.495   5.263   4.455  0.3777  0.1400 -1.3529
 9549TIP3   OH228610   2.746   2.623   4.278  0.3479  0.6743  0.0864
 9549TIP3    H128611   2.818   2.610   4.216 -0.1840  0.6332 -0.5269
 9549TIP3    H228612   2.790   2.637   4.362  1.0652  0.1683 -0.1884
 9550TIP3   OH228613   6.156   2.033   4.639 -0.0272  0.0092  0.2113
 9550TIP3    H128614   6.133   2.101   4.576 -0.4538 -0.3548 -0.0326
 9550TIP3    H228615   6.239   2.062   4.676 -0.2246  0.6796  0.1384
 9551TIP3   OH228616   1.118   0.590   4.089  0.0332 -0.1123 -0.2489
 9551TIP3    H128617   1.077   0.620   4.008  0.2982 -2.2141 -1.2153
 9551TIP3    H228618   1.203   0.557   4.063  0.8970  0.8345  1.1983
 9552TIP3   OH228619   6.454   6.689   3.982  0.2034 -0.3394  0.4265
 9552TIP3    H128620   6.544   6.715   4.003  0.8769 -1.0908 -1.3444
 9552TIP3    H228621   6.400   6.754   4.027  1.6683  1.0651  0.2669
 9553TIP3   OH228622   1.822   5.829   1.583  0.1183 -0.2219  0.0138
 9553TIP3    H128623   1.811   5.920   1.559  0.0755  0.1088  1.2099
 9553TIP3    H228624   1.898   5.828   1.642  0.2219 -0.9789 -0.1164
 9554TIP3   OH228625   0.267   3.485   4.477  0.2715  0.3429 -0.0440
 9554TIP3    H128626   0.313   3.403   4.460  0.5669  0.1001  1.7346
 9554TIP3    H228627   0.269   3.494   4.572 -0.1064  2.2161 -0.1751
 9555TIP3   OH228628   4.311   4.943   1.572 -0.1535  0.1928 -0.1936
 9555TIP3    H128629   4.216   4.954   1.562 -0.1725  0.4223  0.2257
 9555TIP3    H228630   4.346   4.959   1.484 -0.4424  0.7763 -0.2039
 9556TIP3   OH228631   4.259   3.785   1.709 -0.1189  0.5227  0.5263
 9556TIP3    H128632   4.190   3.823   1.654  0.2417  1.4108  0.6646
 9556TIP3    H228633   4.325   3.854   1.715  0.7169 -0.2614  0.5221
 9557TIP3   OH228634   0.452   0.169   0.309 -0.2272  0.6446  0.0317
 9557TIP3    H128635   0.492   0.212   0.385 -2.3468 -1.3049  2.4315
 9557TIP3    H228636   0.522   0.115   0.273  0.4701  0.4676  1.5590
 9558TIP3   OH228637   2.664   2.552   1.356  0.1364  0.7734 -0.4297
 9558TIP3    H128638   2.706   2.489   1.414 -0.6633  1.3420  0.8058
 9558TIP3    H228639   2.697   2.637   1.384  0.2651  1.0225 -1.2813
 9559TIP3   OH228640   5.060   0.256   3.799  0.1972  0.8550 -0.4788
 9559TIP3    H128641   5.073   0.202   3.721 -0.0816  0.9732 -0.6079
 9559TIP3    H228642   4.965   0.264   3.808  0.2276  0.9007 -0.1673
 9560TIP3   OH228643   4.863   0.714   4.592 -0.0577  0.0857 -0.5278
 9560TIP3    H128644   4.877   0.708   4.687 -0.3009 -1.4694 -0.5756
 9560TIP3    H228645   4.845   0.625   4.564 -2.1988  0.8181 -1.7048
 9561TIP3   OH228646   6.975   4.326   1.823  0.2116  0.2820 -0.0414
 9561TIP3    H128647   6.887   4.322   1.784  0.8224 -2.8627 -1.3831
 9561TIP3    H228648   6.960   4.319   1.917 -0.9746  0.7318 -0.1756
 9562TIP3   OH228649   5.970   4.266   2.778 -0.4350  0.6746 -0.2390
 9562TIP3    H128650   5.884   4.233   2.806 -0.3849  0.7785  0.0329
 9562TIP3    H228651   5.966   4.261   2.682 -1.1432  1.6672 -0.2818
 9563TIP3   OH228652   6.253   0.171   2.923 -0.7640 -0.3388  0.0224
 9563TIP3    H128653   6.181   0.234   2.923 -0.8707 -0.4592  0.1115
 9563TIP3    H228654   6.212   0.087   2.900 -0.7876 -0.5542  0.8081
 9564TIP3   OH228655   5.924   6.086   3.391  0.7724  0.1518 -0.1710
 9564TIP3    H128656   5.937   6.124   3.304  0.1007  2.2016  0.5590
 9564TIP3    H228657   5.944   6.157   3.452  0.2756 -0.9322  1.3345
 9565TIP3   OH228658   4.042   0.363   1.843  0.6770 -0.0836  0.4620
 9565TIP3    H128659   4.044   0.271   1.816  1.0897  0.0517  0.0183
 9565TIP3    H228660   4.122   0.401   1.806 -0.1759  0.7934 -0.5633
 9566TIP3   OH228661   2.784   4.297   5.750 -0.4790  0.3431  0.1436
 9566TIP3    H128662   2.769   4.203   5.736 -0.8139  0.4224 -0.0337
 9566TIP3    H228663   2.731   4.319   5.827 -0.8090  0.4930 -0.1216
 9567TIP3   OH228664   6.600   3.547   3.417 -0.0804  0.4217  0.4873
 9567TIP3    H128665   6.602   3.567   3.510 -1.6910  2.3644  0.1789
 9567TIP3    H228666   6.546   3.468   3.410  1.6916 -0.9117  1.3093
 9568TIP3   OH228667   7.066   4.202   0.440 -0.0498  1.0172  0.3255
 9568TIP3    H128668   7.147   4.191   0.490  0.7115  2.2217 -0.5823
 9568TIP3    H228669   7.020   4.273   0.484 -2.1581 -1.5557  2.6750
 9569TIP3   OH228670   4.816   4.197   1.883  0.3985  0.0945 -0.8890
 9569TIP3    H128671   4.774   4.159   1.806 -0.8058 -0.9341  0.2435
 9569TIP3    H228672   4.819   4.291   1.865 -1.9045  0.1478 -1.2786
 9570TIP3   OH228673   3.710   2.201   5.663  0.1716  0.2575  0.5557
 9570TIP3    H128674   3.723   2.116   5.706  0.0946 -1.9576 -3.2884
 9570TIP3    H228675   3.615   2.205   5.648  0.3116  0.4592 -0.2865
 9571TIP3   OH228676   5.975   4.384   5.533  0.4971 -0.2720 -0.1413
 9571TIP3    H128677   5.921   4.378   5.611 -0.2321  0.2953 -0.5948
 9571TIP3    H228678   5.957   4.303   5.484  0.5107 -0.3566 -0.0061
 9572TIP3   OH228679   2.521   1.622   2.955  0.3048 -0.0545  0.2259
 9572TIP3    H128680   2.477   1.606   2.872 -0.5197  0.8961  0.4671
 9572TIP3    H228681   2.533   1.717   2.958  1.5165 -0.1975  0.6047
 9573TIP3   OH228682   0.697   3.808   5.235 -0.4370  0.4834 -0.0590
 9573TIP3    H128683   0.625   3.834   5.293 -1.7920 -0.0098 -1.4445
 9573TIP3    H228684   0.662   3.733   5.187  0.7748  0.6408 -1.2329
 9574TIP3   OH228685   4.147   2.543   5.749 -0.5060  0.4587  0.0487
 9574TIP3    H128686   4.084   2.609   5.778  0.2260  0.7634  0.9841
 9574TIP3    H228687   4.095   2.479   5.701 -1.7934 -0.0878  2.0544
 9575TIP3   OH228688   3.268   4.335   2.251 -0.1085  0.0938 -0.4212
 9575TIP3    H128689   3.355   4.335   2.290  0.2180 -0.9419 -1.0896
 9575TIP3    H228690   3.227   4.256   2.285 -0.3096 -0.1006 -1.0983
 9576TIP3   OH228691   1.664   5.445   3.481 -0.2919  0.2344 -0.1384
 9576TIP3    H128692   1.728   5.459   3.550 -0.6626 -1.3150  0.5667
 9576TIP3    H228693   1.667   5.351   3.463 -0.9294  0.4459 -1.5180
 9577TIP3   OH228694   5.871   5.476   1.545 -0.2740  0.1201  0.1434
 9577TIP3    H128695   5.843   5.425   1.621 -0.8413  0.1248 -0.0559
 9577TIP3    H228696   5.818   5.556   1.549 -0.9223 -0.2483 -0.7158
 9578TIP3   OH228697   6.243   2.048   2.598 -0.1156  0.1688  0.5173
 9578TIP3    H128698   6.239   2.075   2.506  0.1437  0.5270  0.6103
 9578TIP3    H228699   6.220   1.955   2.596 -0.6061  0.2943  0.1492
 9579TIP3   OH228700   6.068   3.616   5.484  0.0767  0.4965  0.2082
 9579TIP3    H128701   6.065   3.537   5.539  0.8104  0.4162  0.1414
 9579TIP3    H228702   6.096   3.685   5.544 -0.0047  0.5938  0.1340
 9580TIP3   OH228703   1.507   2.736   2.531 -0.3931  0.0502  0.0350
 9580TIP3    H128704   1.520   2.818   2.579  0.2227 -0.1352  0.1879
 9580TIP3    H228705   1.443   2.759   2.464 -2.0258  0.0851  1.5234
 9581TIP3   OH228706   2.785   5.849   3.471 -0.3858 -0.1551  0.5595
 9581TIP3    H128707   2.776   5.873   3.379  1.7219 -0.8743  0.1071
 9581TIP3    H228708   2.728   5.774   3.483 -2.8866  1.6198  0.6298
 9582TIP3   OH228709   4.495   5.115   2.621  0.3504  0.0106 -0.5050
 9582TIP3    H128710   4.500   5.069   2.537 -1.8218  1.5649 -1.5777
 9582TIP3    H228711   4.582   5.152   2.634  1.0567 -1.2529 -1.4504
 9583TIP3   OH228712   0.079   3.253   3.117 -0.6787  0.1633  0.2521
 9583TIP3    H128713   0.065   3.206   3.199  2.1105  0.0163  0.7587
 9583TIP3    H228714   0.132   3.192   3.064 -0.8379  0.9943 -0.9028
 9584TIP3   OH228715   6.209   5.978   5.770  0.1780 -0.0507  0.2007
 9584TIP3    H128716   6.289   5.975   5.822 -0.1228 -1.7131  0.6173
 9584TIP3    H228717   6.237   5.961   5.680  0.3459 -0.1350  0.2696
 9585TIP3   OH228718   5.709   5.569   4.372 -0.7290  0.2992 -0.7709
 9585TIP3    H128719   5.681   5.478   4.364  0.6752 -0.1366 -1.0446
 9585TIP3    H228720   5.650   5.607   4.436  0.4403 -1.5840  1.5719
 9586TIP3   OH228721   5.020   6.413   1.940  0.3861  0.7884  0.1404
 9586TIP3    H128722   5.092   6.468   1.908  1.0217 -0.3405 -0.4210
 9586TIP3    H228723   4.989   6.459   2.018  1.7289  1.3022  0.4163
 9587TIP3   OH228724   4.513   2.851   5.122  0.2538 -0.0529  0.0467
 9587TIP3    H128725   4.566   2.880   5.196  1.3874  1.5798 -1.3217
 9587TIP3    H228726   4.574   2.803   5.066  0.5957  2.3238 -1.8224
 9588TIP3   OH228727   6.066   5.186   1.751 -0.4957 -0.4665  0.4028
 9588TIP3    H128728   6.006   5.114   1.734 -2.8117  1.0608  1.4675
 9588TIP3    H228729   6.033   5.226   1.832  0.5644  1.8333 -0.1984
 9589TIP3   OH228730   1.051   5.349   3.124  0.0914 -0.0650 -0.3798
 9589TIP3    H128731   1.052   5.329   3.030  0.6106 -0.0806 -0.3752
 9589TIP3    H228732   1.128   5.405   3.137  1.0683 -1.5264  0.3481
 9590TIP3   OH228733   4.048   3.402   5.645  0.7267  0.5539 -0.0160
 9590TIP3    H128734   4.125   3.363   5.605  0.2281 -1.1910  0.6491
 9590TIP3    H228735   3.986   3.330   5.653 -0.0946  1.3949  1.6433
 9591TIP3   OH228736   5.379   2.265   4.249 -0.0588 -0.1202 -0.2874
 9591TIP3    H128737   5.403   2.356   4.231  0.7231  0.6323  3.6788
 9591TIP3    H228738   5.313   2.271   4.318 -0.6027 -2.5814 -0.5022
 9592TIP3   OH228739   1.129   6.472   4.559 -0.2266  0.4582 -0.5237
 9592TIP3    H128740   1.147   6.382   4.532  1.7474  0.6682 -0.0869
 9592TIP3    H228741   1.045   6.492   4.519 -0.3537 -1.3189 -1.2730
 9593TIP3   OH228742   6.017   2.504   1.580  0.0388 -0.0844 -0.1778
 9593TIP3    H128743   6.044   2.563   1.510 -0.5195  0.2578 -0.1069
 9593TIP3    H228744   5.995   2.561   1.653 -1.0077 -0.3495 -0.2810
 9594TIP3   OH228745   0.928   3.581   1.586 -0.1101 -0.5361 -0.1011
 9594TIP3    H128746   0.972   3.609   1.505 -0.2119 -0.6560 -0.1991
 9594TIP3    H228747   0.861   3.520   1.556 -2.1536  1.6179 -0.2716
 9595TIP3   OH228748   0.190   1.372   5.845  0.1535 -0.4264 -0.0740
 9595TIP3    H128749   0.180   1.468   5.846  1.0080 -0.3216  1.2161
 9595TIP3    H228750   0.105   1.339   5.875  0.2377 -0.0058  0.6633
 9596TIP3   OH228751   4.024   0.136   1.605 -0.1394 -0.4882  0.0823
 9596TIP3    H128752   3.982   0.049   1.598 -0.6198 -0.1520 -1.5598
 9596TIP3    H228753   4.103   0.129   1.552  0.9535 -0.5181  1.6313
 9597TIP3   OH228754   5.874   5.054   2.694 -0.4472  0.6348  0.0876
 9597TIP3    H128755   5.917   4.997   2.758 -2.8785  0.7182  1.9545
 9597TIP3    H228756   5.906   5.142   2.714 -1.4310  0.7038  1.5050
 9598TIP3   OH228757   3.978   5.715   2.682  0.1976 -0.1670 -0.4453
 9598TIP3    H128758   3.947   5.786   2.627 -1.6255  0.7768  1.6750
 9598TIP3    H228759   4.014   5.758   2.759 -0.9703 -1.5113  0.9063
 9599TIP3   OH228760   1.831   2.589   1.054 -0.1233  0.3625 -0.0643
 9599TIP3    H128761   1.875   2.508   1.026  0.0124  0.5378 -0.3582
 9599TIP3    H228762   1.883   2.619   1.129 -0.7291 -0.3284  0.6562
 9600TIP3   OH228763   3.714   5.785   2.392  0.0101  0.0307  0.1505
 9600TIP3    H128764   3.659   5.840   2.337  0.2983  1.7233  1.4686
 9600TIP3    H228765   3.718   5.830   2.476  2.1159 -0.8388  0.5985
 9601TIP3   OH228766   0.705   3.554   4.405  0.3335 -0.3957  1.0914
 9601TIP3    H128767   0.688   3.512   4.489  1.6036 -0.6803  1.2264
 9601TIP3    H228768   0.778   3.613   4.422  0.3043 -0.1093  0.2800
 9602TIP3   OH228769   5.182   3.578   1.059  0.2905  0.1416  0.1676
 9602TIP3    H128770   5.158   3.600   1.149  1.8240 -2.1942  1.2321
 9602TIP3    H228771   5.277   3.590   1.056  0.2645  0.1910 -1.1574
 9603TIP3   OH228772   3.997   6.406   2.270 -0.5883  0.3877 -0.3698
 9603TIP3    H128773   4.007   6.361   2.354  0.3797  0.1547 -0.5969
 9603TIP3    H228774   4.040   6.348   2.207 -1.1131  0.6675 -0.9998
 9604TIP3   OH228775   2.311   0.249   4.429  0.2645  0.2876 -0.3931
 9604TIP3    H128776   2.239   0.248   4.366  0.0710  2.1236 -0.2606
 9604TIP3    H228777   2.319   0.158   4.457 -0.6514 -0.3126 -1.9155
 9605TIP3   OH228778   6.669   6.298   5.030  0.0958  0.0024  0.1159
 9605TIP3    H128779   6.593   6.350   5.055  0.6944  1.2153 -0.5102
 9605TIP3    H228780   6.693   6.250   5.109 -1.3071 -0.4056  0.3153
 9606TIP3   OH228781   3.601   3.683   2.078  0.2269  0.5014 -0.2407
 9606TIP3    H128782   3.615   3.682   1.984  2.1866 -0.5881  0.0233
 9606TIP3    H228783   3.534   3.616   2.094 -1.8770  2.2842 -1.0215
 9607TIP3   OH228784   3.836   5.056   3.152 -0.2167 -0.2782  0.2191
 9607TIP3    H128785   3.828   5.102   3.069 -0.4305 -1.7371 -0.5963
 9607TIP3    H228786   3.915   5.093   3.192 -0.4073  0.8061 -0.3812
 9608TIP3   OH228787   6.277   5.835   5.076 -0.1117 -0.4564 -0.0730
 9608TIP3    H128788   6.253   5.770   5.142 -0.3340 -1.2205 -0.8797
 9608TIP3    H228789   6.222   5.910   5.095 -1.6826 -1.4186 -0.6177
 9609TIP3   OH228790   2.603   6.405   1.177  0.8100  0.4536 -0.1250
 9609TIP3    H128791   2.526   6.423   1.125  0.1422 -0.4502  0.5108
 9609TIP3    H228792   2.670   6.466   1.145 -0.8864  3.1065  1.0590
 9610TIP3   OH228793   5.821   1.577   3.024 -0.0111  0.3114 -0.1340
 9610TIP3    H128794   5.755   1.522   2.981 -0.7140  0.1409  1.0911
 9610TIP3    H228795   5.769   1.634   3.082  0.9399 -0.4652  1.5715
 9611TIP3   OH228796   0.900   2.755   4.277  0.0649 -0.2423 -0.2726
 9611TIP3    H128797   0.854   2.756   4.361  1.2496  0.1361  0.3913
 9611TIP3    H228798   0.836   2.791   4.215 -0.1108  1.5925  0.8795
 9612TIP3   OH228799   6.459   2.093   1.582 -0.3201 -0.3794 -0.2513
 9612TIP3    H128800   6.554   2.093   1.594 -0.6431 -0.0857  3.2590
 9612TIP3    H228801   6.433   2.184   1.595 -1.3855 -1.0598  3.9124
 9613TIP3   OH228802   5.645   2.786   5.306 -0.4268 -0.2096  0.3440
 9613TIP3    H128803   5.714   2.770   5.242 -0.3751  1.6554 -0.1223
 9613TIP3    H228804   5.601   2.702   5.316  0.5837 -0.9160 -0.9336
 9614TIP3   OH228805   0.316   3.847   1.565  0.3295 -0.3838 -0.0202
 9614TIP3    H128806   0.326   3.829   1.658  0.6877 -1.5213 -0.2703
 9614TIP3    H228807   0.405   3.852   1.531  0.2073 -1.7033 -0.6049
 9615TIP3   OH228808   0.228   5.522   4.354 -0.6507  0.7019 -0.3369
 9615TIP3    H128809   0.299   5.472   4.395  0.2994  2.2725 -0.0168
 9615TIP3    H228810   0.173   5.550   4.428 -1.6793 -0.5451 -0.5843
 9616TIP3   OH228811   4.804   0.376   1.371 -0.4402  0.0473  0.3376
 9616TIP3    H128812   4.738   0.436   1.336 -0.2771  0.1506  0.2076
 9616TIP3    H228813   4.765   0.341   1.451 -1.6149 -1.5851 -0.8631
 9617TIP3   OH228814   7.035   4.622   0.371 -0.2483  0.0751 -0.3476
 9617TIP3    H128815   7.120   4.641   0.331  0.4126  0.5539  1.2159
 9617TIP3    H228816   6.979   4.694   0.343 -0.6267 -0.9667 -2.5751
 9618TIP3   OH228817   2.650   5.140   1.016  0.4930 -0.2240 -0.3431
 9618TIP3    H128818   2.739   5.124   1.047  0.1374  1.5796  1.8467
 9618TIP3    H228819   2.601   5.162   1.094 -1.1561  1.9161 -1.8683
 9619TIP3   OH228820   0.467   0.940   5.010 -0.3152 -0.0366 -0.3551
 9619TIP3    H128821   0.411   0.943   4.932 -0.7982  0.9289 -0.0023
 9619TIP3    H228822   0.410   0.971   5.081  0.6452  0.9563  0.0215
 9620TIP3   OH228823   4.411   6.103   3.619  0.2671  0.4936  0.2642
 9620TIP3    H128824   4.455   6.080   3.701 -0.4483 -0.9611  0.2692
 9620TIP3    H228825   4.479   6.094   3.552  0.1692 -1.2221  0.3397
 9621TIP3   OH228826   1.481   3.195   5.355  0.1258 -1.1484  0.4235
 9621TIP3    H128827   1.534   3.121   5.385 -0.5833 -2.1659 -0.7642
 9621TIP3    H228828   1.437   3.226   5.434  1.5502 -1.0302  1.2089
 9622TIP3   OH228829   5.329   5.239   1.066  0.1946  0.0412  0.3372
 9622TIP3    H128830   5.350   5.284   0.984  0.9620 -0.7841  0.0603
 9622TIP3    H228831   5.375   5.289   1.133  0.5310  0.0482  0.1076
 9623TIP3   OH228832   6.902   1.604   0.640  0.2219  0.1015 -0.0089
 9623TIP3    H128833   6.982   1.652   0.619  0.4673  0.6903  2.0109
 9623TIP3    H228834   6.930   1.539   0.706 -0.9273  0.2802  0.6867
 9624TIP3   OH228835   1.627   4.763   2.763  0.1879 -0.3984  0.1411
 9624TIP3    H128836   1.637   4.804   2.849 -0.4035  0.7230 -0.3010
 9624TIP3    H228837   1.533   4.761   2.747  0.2541 -1.2540 -0.1787
 9625TIP3   OH228838   5.174   2.107   5.571 -0.3659  0.0487 -0.2471
 9625TIP3    H128839   5.144   2.188   5.612  0.0618 -0.4875  1.2013
 9625TIP3    H228840   5.265   2.098   5.600 -0.7915 -1.5997  0.7170
 9626TIP3   OH228841   2.520   4.908   1.573  0.5355 -0.3045  0.1781
 9626TIP3    H128842   2.464   4.891   1.497  1.0405 -0.4266 -0.1654
 9626TIP3    H228843   2.587   4.841   1.569  1.0930  0.2434  0.2215
 9627TIP3   OH228844   5.419   1.682   5.555 -0.9584  0.1632  0.0719
 9627TIP3    H128845   5.420   1.657   5.463  0.1930  0.2541  0.0435
 9627TIP3    H228846   5.351   1.628   5.594  0.3891 -1.9042 -0.2932
 9628TIP3   OH228847   4.740   3.643   4.979  0.3315 -0.1680 -1.0225
 9628TIP3    H128848   4.728   3.623   4.886 -0.5576 -1.1375 -0.7121
 9628TIP3    H228849   4.787   3.727   4.980  0.4480 -0.2046 -2.3378
 9629TIP3   OH228850   1.561   2.937   4.183 -0.1800  0.3785 -0.2400
 9629TIP3    H128851   1.565   2.901   4.272 -0.7160 -1.6044 -0.9741
 9629TIP3    H228852   1.496   3.007   4.190 -0.0249  0.4368  0.9862
 9630TIP3   OH228853   4.479   5.676   4.288 -0.2665  0.3601  0.0306
 9630TIP3    H128854   4.563   5.716   4.265  0.2448 -1.1385 -0.8196
 9630TIP3    H228855   4.490   5.647   4.378  1.7984 -3.7097 -1.3061
 9631TIP3   OH228856   6.829   0.744   2.165  0.3537 -0.0044 -0.5799
 9631TIP3    H128857   6.895   0.704   2.222  0.5932 -1.7931 -2.0157
 9631TIP3    H228858   6.751   0.690   2.177  0.0913  0.2363 -1.1648
 9632TIP3   OH228859   1.611   5.448   3.145  0.0684  0.6875 -0.2234
 9632TIP3    H128860   1.544   5.393   3.184  2.2017 -2.7156 -0.9455
 9632TIP3    H228861   1.692   5.426   3.192  1.4435  1.5093 -2.0473
 9633TIP3   OH228862   6.497   6.722   1.096 -0.0396 -0.1424 -0.4824
 9633TIP3    H128863   6.514   6.757   1.184 -0.6319  0.2460 -0.5159
 9633TIP3    H228864   6.571   6.664   1.079 -1.0793 -2.1490  1.2676
 9634TIP3   OH228865   1.582   4.085   4.783  0.1161  0.0383  0.4355
 9634TIP3    H128866   1.555   4.169   4.820 -1.5505 -0.9357  1.5578
 9634TIP3    H228867   1.517   4.065   4.716  1.2032  0.1823 -0.7055
 9635TIP3   OH228868   3.116   1.237   3.020  0.3405  0.4029  0.2925
 9635TIP3    H128869   3.089   1.145   3.014  0.2231  0.4068  0.7327
 9635TIP3    H228870   3.161   1.243   3.104 -1.1847  1.1345  1.0987
 9636TIP3   OH228871   0.468   2.679   1.325 -0.4711  0.1643 -0.1139
 9636TIP3    H128872   0.487   2.668   1.418 -0.4968  2.0659  0.1620
 9636TIP3    H228873   0.386   2.631   1.312  0.6663 -2.0000  0.3036
 9637TIP3   OH228874   4.710   3.390   1.843  0.1730  0.7107  0.2220
 9637TIP3    H128875   4.798   3.383   1.807 -0.7588 -2.1841 -1.9522
 9637TIP3    H228876   4.708   3.326   1.914 -0.3874 -0.0123 -0.4177
 9638TIP3   OH228877   5.365   5.135   4.592  0.2360  0.5416 -0.2776
 9638TIP3    H128878   5.334   5.168   4.676  0.6991  0.5834 -0.1209
 9638TIP3    H228879   5.437   5.077   4.614 -0.5282 -0.5533 -0.5515
 9639TIP3   OH228880   6.426   6.054   2.530 -0.0678  0.5561  0.0725
 9639TIP3    H128881   6.464   5.967   2.520 -2.7627 -0.7885  0.5885
 9639TIP3    H228882   6.355   6.057   2.465 -0.4410  2.1417  0.4958
 9640TIP3   OH228883   3.776   5.989   2.016  0.4088 -0.0223  0.6503
 9640TIP3    H128884   3.805   5.991   1.925 -3.5500 -5.0485 -1.2006
 9640TIP3    H228885   3.851   5.953   2.064  1.5706 -0.2374 -1.2254
 9641TIP3   OH228886   1.273   1.096   1.691 -0.4510 -0.0424  0.0113
 9641TIP3    H128887   1.364   1.117   1.708  0.0382 -1.3238 -0.8330
 9641TIP3    H228888   1.225   1.177   1.709  1.0713  1.2353 -1.3806
 9642TIP3   OH228889   1.320   2.328   1.138  0.4791 -0.6749  0.1561
 9642TIP3    H128890   1.349   2.309   1.049 -1.3087  1.2309 -0.9105
 9642TIP3    H228891   1.391   2.381   1.175  0.8288 -0.6985 -0.4570
 9643TIP3   OH228892   6.581   0.561   0.811  0.1576  0.0965 -0.0098
 9643TIP3    H128893   6.591   0.611   0.892 -0.7781  1.2055 -0.5510
 9643TIP3    H228894   6.511   0.606   0.763  0.4181 -0.7715 -1.2590
 9644TIP3   OH228895   3.035   2.019   0.910  0.1494 -0.5540 -0.3995
 9644TIP3    H128896   3.021   2.112   0.929  1.1313 -0.2021 -1.3231
 9644TIP3    H228897   2.955   1.977   0.940 -0.0627  0.5000  0.6177
 9645TIP3   OH228898   0.724   6.690   0.647 -0.4202 -0.0243 -0.0450
 9645TIP3    H128899   0.683   6.609   0.618  0.7349 -1.0955  1.1489
 9645TIP3    H228900   0.675   6.716   0.724 -0.3825  0.0473 -0.0449
 9646TIP3   OH228901   0.856   0.110   0.478  0.6811  0.0297  0.0892
 9646TIP3    H128902   0.810   0.028   0.461  2.1303 -0.6351 -0.9417
 9646TIP3    H228903   0.808   0.176   0.428  0.0577 -0.3866  0.1421
 9647TIP3   OH228904   0.694   1.409   1.788 -0.0774 -0.1103  0.4375
 9647TIP3    H128905   0.603   1.423   1.761  0.5835  0.7369 -1.5196
 9647TIP3    H228906   0.709   1.475   1.856 -1.1530 -0.8714  1.4686
 9648TIP3   OH228907   4.147   3.718   4.088  0.4467 -0.0023  0.2876
 9648TIP3    H128908   4.240   3.716   4.069  0.2084 -1.6320 -1.0310
 9648TIP3    H228909   4.132   3.644   4.147 -0.1217 -0.3787 -0.3013
 9649TIP3   OH228910   3.611   0.067   0.516 -0.7002  0.1198  0.9395
 9649TIP3    H128911   3.520   0.072   0.545 -1.3731  1.7828 -1.1884
 9649TIP3    H228912   3.607   0.037   0.425  0.7300  1.5240  0.3494
 9650TIP3   OH228913   0.048   3.872   3.609  0.1156  0.5076 -0.1799
 9650TIP3    H128914   0.077   3.804   3.549  1.5464 -0.6143  1.6529
 9650TIP3    H228915  -0.015   3.828   3.667  0.6782  0.8431  0.7114
 9651TIP3   OH228916   5.966   0.886   5.806 -0.3446 -0.0061  0.2678
 9651TIP3    H128917   5.957   0.817   5.873 -0.3218  0.4507  0.7467
 9651TIP3    H228918   6.060   0.897   5.796 -0.1726 -2.5710 -2.4587
 9652TIP3   OH228919   5.814   3.328   2.429 -0.0479 -0.4809  0.1536
 9652TIP3    H128920   5.843   3.404   2.378  0.7838 -1.4239 -0.8119
 9652TIP3    H228921   5.736   3.297   2.383 -0.8555  0.2124  0.9944
 9653TIP3   OH228922   1.773   2.954   2.079  0.2345 -0.1491 -0.0367
 9653TIP3    H128923   1.708   2.910   2.025  0.5193 -0.0476 -0.4640
 9653TIP3    H228924   1.813   3.019   2.021  0.3932  0.1072  0.3531
 9654TIP3   OH228925   1.589   2.976   2.359 -0.6273  0.1751  0.2326
 9654TIP3    H128926   1.625   3.035   2.293 -0.9436 -0.6428 -0.6876
 9654TIP3    H228927   1.621   2.890   2.334 -2.9454 -0.5518 -0.4527
 9655TIP3   OH228928   4.546   5.250   1.660 -0.4280  0.6725  0.5047
 9655TIP3    H128929   4.572   5.341   1.672 -0.6883  0.5977  1.7099
 9655TIP3    H228930   4.464   5.242   1.708 -0.0205 -0.3834  1.0624
 9656TIP3   OH228931   1.152   5.138   0.655  0.0320  0.2650  0.3081
 9656TIP3    H128932   1.215   5.109   0.589 -0.5375 -0.1023 -0.0803
 9656TIP3    H228933   1.110   5.057   0.685  0.6422  0.3672  1.5007
 9657TIP3   OH228934   4.560   3.792   3.403  0.2228 -0.2807  0.2791
 9657TIP3    H128935   4.543   3.701   3.430 -0.5425  0.2503  1.7065
 9657TIP3    H228936   4.647   3.812   3.439  1.7092 -1.2943 -2.4617
 9658TIP3   OH228937   7.106   6.227   0.225  0.4031 -0.2053  0.0884
 9658TIP3    H128938   7.068   6.219   0.137 -2.5785 -1.0710  1.3297
 9658TIP3    H228939   7.162   6.304   0.219  0.8286 -0.6164 -2.7286
 9659TIP3   OH228940   1.581   0.364   0.845 -0.1575  0.9077 -0.1226
 9659TIP3    H128941   1.593   0.328   0.932  1.0440 -2.6547 -1.5776
 9659TIP3    H228942   1.666   0.354   0.802 -1.4782 -0.5586 -2.6581
 9660TIP3   OH228943   2.110   0.823   4.750  0.0352  0.2277 -0.0613
 9660TIP3    H128944   2.045   0.752   4.749 -0.9689  1.0946 -1.3765
 9660TIP3    H228945   2.167   0.803   4.675  0.2803  0.3486  0.0938
 9661TIP3   OH228946   5.750   5.687   3.438 -0.3858 -0.1258 -0.3685
 9661TIP3    H128947   5.841   5.702   3.462  0.3721 -1.1281 -2.3967
 9661TIP3    H228948   5.735   5.745   3.363 -1.9263  1.1603  0.8575
 9662TIP3   OH228949   0.754   1.329   1.527  0.3991 -0.0310  0.5993
 9662TIP3    H128950   0.801   1.246   1.530 -4.2465 -3.0380  0.1563
 9662TIP3    H228951   0.717   1.338   1.615 -0.3154  0.8125  0.2261
 9663TIP3   OH228952   6.927   5.590   5.139 -0.2233  0.0298  0.4282
 9663TIP3    H128953   7.013   5.607   5.101 -0.1279 -1.0735  0.1056
 9663TIP3    H228954   6.878   5.547   5.069 -1.1229  0.8657  0.5329
 9664TIP3   OH228955   7.091   1.306   5.131  0.0244 -0.3363 -0.6126
 9664TIP3    H128956   7.050   1.378   5.180 -1.1172 -1.8807  0.8320
 9664TIP3    H228957   7.030   1.288   5.060 -0.3014 -0.6244 -0.2690
 9665TIP3   OH228958   3.789   1.923   5.452 -0.4446  0.2378  0.1553
 9665TIP3    H128959   3.832   1.880   5.378  1.6931 -0.5730  1.7767
 9665TIP3    H228960   3.739   1.853   5.495  1.6629 -0.3723  1.7987
 9666TIP3   OH228961   2.943   1.349   0.312  0.3970  0.1644  0.1073
 9666TIP3    H128962   2.978   1.294   0.242  0.7803  0.6781 -0.1122
 9666TIP3    H228963   2.971   1.438   0.289 -0.1721  0.4454  0.4836
 9667TIP3   OH228964   0.238   4.098   3.526  0.3400  0.3745 -0.1548
 9667TIP3    H128965   0.268   4.115   3.436  2.0481 -0.3815  0.2211
 9667TIP3    H228966   0.318   4.099   3.578 -0.4659 -0.5011  1.1573
 9668TIP3   OH228967   4.227   1.403   0.130  0.3490  0.3575 -0.6184
 9668TIP3    H128968   4.311   1.449   0.131  0.0237  0.9936  1.2301
 9668TIP3    H228969   4.162   1.473   0.130 -0.1714 -0.1182 -0.0968
 9669TIP3   OH228970   1.672   5.809   3.218  0.3207 -0.2995 -0.3162
 9669TIP3    H128971   1.655   5.723   3.181  1.8303 -1.0798  0.7097
 9669TIP3    H228972   1.664   5.797   3.313 -0.3998  0.9393 -0.1842
 9670TIP3   OH228973   6.457   2.856   4.786 -0.2240  0.0309 -0.3485
 9670TIP3    H128974   6.531   2.915   4.797 -0.8299  0.5479  1.3160
 9670TIP3    H228975   6.496   2.774   4.754  0.8137  0.8314 -1.2042
 9671TIP3   OH228976   1.710   3.081   4.923 -0.5109 -0.6451  0.2331
 9671TIP3    H128977   1.710   3.099   5.017 -0.0792 -0.3445  0.1838
 9671TIP3    H228978   1.765   3.003   4.913  1.6962  0.8523 -0.0062
 9672TIP3   OH228979   2.370   3.230   4.269 -0.6514 -0.4516  0.3993
 9672TIP3    H128980   2.394   3.323   4.260 -0.5223 -0.4546  0.6932
 9672TIP3    H228981   2.281   3.231   4.304 -0.8056 -0.4385  0.0042
 9673TIP3   OH228982   2.310   1.743   1.736  0.4261 -0.2390 -0.0162
 9673TIP3    H128983   2.297   1.715   1.645 -0.7735 -2.4596  0.7585
 9673TIP3    H228984   2.402   1.723   1.754  0.4910 -0.4401 -0.5349
 9674TIP3   OH228985   0.611   5.226   0.552  0.6637  0.6604 -0.1253
 9674TIP3    H128986   0.601   5.176   0.471  0.1382  2.7428 -1.4528
 9674TIP3    H228987   0.703   5.216   0.576  1.4937  1.9206 -2.4231
 9675TIP3   OH228988   5.653   0.281   0.672 -0.7657 -0.0737 -0.0886
 9675TIP3    H128989   5.698   0.365   0.661 -2.3383  0.8356  0.1771
 9675TIP3    H228990   5.632   0.253   0.583 -2.0213  0.8354 -0.0917
 9676TIP3   OH228991   4.060   3.283   1.613 -0.4323 -0.1214  0.4505
 9676TIP3    H128992   4.123   3.344   1.575 -1.2936  0.7053  0.3140
 9676TIP3    H228993   4.000   3.339   1.663 -0.0346 -1.0613  2.0328
 9677TIP3   OH228994   4.577   5.074   3.696  0.5446 -0.1821 -0.6105
 9677TIP3    H128995   4.508   5.138   3.718  1.2254  0.7898 -1.2062
 9677TIP3    H228996   4.649   5.096   3.754  0.8131 -0.3560 -0.8763
 9678TIP3   OH228997   0.169   6.008   0.221 -0.6965  0.1714  0.1950
 9678TIP3    H128998   0.197   6.097   0.244 -0.0253  0.2154 -0.7293
 9678TIP3    H228999   0.178   5.958   0.302  2.0079  0.2267  0.0295
 9679TIP3   OH229000   2.508   0.797   1.728  0.2910 -0.0677  0.2097
 9679TIP3    H129001   2.426   0.827   1.767 -0.3445 -0.0435 -1.1170
 9679TIP3    H229002   2.559   0.877   1.715  0.1062  0.0287  0.0775
 9680TIP3   OH229003   5.140   5.184   3.972 -0.0832 -0.4022 -0.0832
 9680TIP3    H129004   5.136   5.232   3.889 -0.9288 -0.8353 -0.3007
 9680TIP3    H229005   5.050   5.184   4.004  0.0281 -1.2729  0.2492
 9681TIP3   OH229006   4.019   5.633   1.915  1.1783 -0.0200 -0.6084
 9681TIP3    H129007   4.042   5.661   1.827  2.0558  1.2355 -0.0097
 9681TIP3    H229008   4.008   5.714   1.964  1.3019 -0.6970  0.5869
 9682TIP3   OH229009   0.520   3.912   4.659 -0.3609  0.3135 -0.1870
 9682TIP3    H129010   0.465   3.894   4.583 -1.8569  0.8153  0.7262
 9682TIP3    H229011   0.496   3.845   4.723 -1.9910  2.1283  1.2253
 9683TIP3   OH229012   2.133   5.151   2.074  0.2688  0.5807 -0.0682
 9683TIP3    H129013   2.141   5.182   1.984  0.2481  1.1928  0.1324
 9683TIP3    H229014   2.067   5.082   2.070  1.4377 -0.5309 -0.7894
 9684TIP3   OH229015   0.641   1.449   0.821 -0.2886 -0.0122  0.7946
 9684TIP3    H129016   0.605   1.361   0.827 -1.8978  0.5469 -0.0684
 9684TIP3    H229017   0.645   1.480   0.912  2.6931 -1.8119  1.4112
 9685TIP3   OH229018   3.548   0.324  -0.027  0.2088 -0.3708 -0.5573
 9685TIP3    H129019   3.611   0.253  -0.015 -0.1176 -0.4294  1.0157
 9685TIP3    H229020   3.553   0.375   0.054 -2.1944 -0.7317 -0.0939
 9686TIP3   OH229021   0.126   3.183   2.719  0.0073 -0.6697 -0.3973
 9686TIP3    H129022   0.113   3.270   2.756 -0.1082  0.3062 -2.6226
 9686TIP3    H229023   0.150   3.129   2.795  2.7810  1.8376  0.7244
 9687TIP3   OH229024   4.363   4.071   2.611 -0.0268 -0.7111  0.1207
 9687TIP3    H129025   4.374   4.073   2.515  0.1345  0.8357  0.1565
 9687TIP3    H229026   4.447   4.037   2.643 -0.1058 -1.3064 -0.2865
 9688TIP3   OH229027   3.793   6.432   1.607  0.2090 -0.2042 -0.0757
 9688TIP3    H129028   3.832   6.359   1.559 -2.2647 -0.5938 -1.7088
 9688TIP3    H229029   3.865   6.494   1.619  1.4577 -1.0381 -2.4744
 9689TIP3   OH229030   7.133   2.213   3.263 -0.0826 -0.1570 -0.3642
 9689TIP3    H129031   7.227   2.196   3.255  0.0069 -0.1330  0.5696
 9689TIP3    H229032   7.127   2.307   3.281 -0.3598  0.0630 -1.5003
 9690TIP3   OH229033   6.669   1.226   4.018  0.3205  0.1908 -0.1986
 9690TIP3    H129034   6.748   1.195   3.974 -0.3109 -0.7951 -0.6877
 9690TIP3    H229035   6.646   1.307   3.972  1.2381  0.6789  0.1901
 9691TIP3   OH229036   4.445   0.084   1.203  0.1276 -0.6770 -0.7602
 9691TIP3    H129037   4.394   0.164   1.201 -0.1096 -0.7750  0.5283
 9691TIP3    H229038   4.393   0.024   1.256  1.7147 -0.6587  0.8979
 9692TIP3   OH229039   4.251   1.144   0.079  0.2055  0.8300 -0.5942
 9692TIP3    H129040   4.245   1.239   0.085 -2.9222  0.6744  0.4585
 9692TIP3    H229041   4.174   1.118   0.029  1.4447 -1.1485 -1.6331
 9693TIP3   OH229042   4.944   2.209   5.083  0.4749 -0.1107  0.6389
 9693TIP3    H129043   4.879   2.198   5.014  0.8402 -0.7367  0.3814
 9693TIP3    H229044   4.897   2.188   5.164 -0.2253  1.6185  0.7086
 9694TIP3   OH229045   3.821   1.738   5.247 -0.6037  0.0176 -0.2058
 9694TIP3    H129046   3.800   1.645   5.256 -0.3124 -0.0687 -0.3873
 9694TIP3    H229047   3.789   1.761   5.160  1.2313 -0.4541 -1.0512
 9695TIP3   OH229048   1.080   0.614   2.188 -0.1292  0.0981  0.0593
 9695TIP3    H129049   1.123   0.648   2.109  1.1573 -1.3893  0.0509
 9695TIP3    H229050   1.112   0.669   2.259  0.3148  0.1772 -0.1990
 9696TIP3   OH229051   2.323   0.763   2.502 -0.4594 -0.2475  0.0696
 9696TIP3    H129052   2.278   0.846   2.519 -1.7198 -1.1071  1.1338
 9696TIP3    H229053   2.363   0.775   2.416 -1.4997  1.0927 -0.2701
 9697TIP3   OH229054   2.204   2.218   1.264 -0.6711 -0.1924  0.6118
 9697TIP3    H129055   2.216   2.151   1.197 -0.1625  1.0774 -0.6113
 9697TIP3    H229056   2.277   2.206   1.324  1.4456  1.3376 -1.4618
 9698TIP3   OH229057   6.925   4.226   4.597  0.7170 -0.0267  0.3141
 9698TIP3    H129058   7.020   4.226   4.590  0.8102 -0.3865  1.3780
 9698TIP3    H229059   6.908   4.223   4.691 -0.3422 -0.0345  0.1315
 9699TIP3   OH229060   2.745   0.505   2.230  0.2827 -0.0953 -0.2415
 9699TIP3    H129061   2.750   0.570   2.300  1.3321 -0.2549 -0.1453
 9699TIP3    H229062   2.763   0.422   2.273 -0.4556 -0.3796 -0.4702
 9700TIP3   OH229063   2.175   5.919   5.007  0.0749 -0.0139  0.8280
 9700TIP3    H129064   2.236   5.845   5.013 -0.3117 -0.3099  1.1858
 9700TIP3    H229065   2.231   5.996   5.013  0.7598 -0.2116 -1.9428
 9701TIP3   OH229066   6.703   4.932   4.322  0.0222 -0.4987 -0.3897
 9701TIP3    H129067   6.611   4.949   4.341  0.0156 -0.0572 -0.8254
 9701TIP3    H229068   6.713   4.837   4.335 -0.8326 -0.7962 -1.7570
 9702TIP3   OH229069   4.781   3.412   5.132 -0.0326 -0.2261 -0.0347
 9702TIP3    H129070   4.872   3.396   5.158 -0.3685  1.4970  2.5659
 9702TIP3    H229071   4.780   3.501   5.098 -0.6477 -0.4816 -0.7202
 9703TIP3   OH229072   2.987   4.343   2.150  0.4688  0.0661 -0.2069
 9703TIP3    H129073   2.974   4.306   2.062 -0.9307  1.1333 -0.4777
 9703TIP3    H229074   3.062   4.294   2.185 -0.0424 -1.6222 -1.3084
 9704TIP3   OH229075   7.182   4.697   3.208  1.0232  0.3301 -0.1036
 9704TIP3    H129076   7.176   4.776   3.154 -0.8884  0.6852  0.5482
 9704TIP3    H229077   7.234   4.724   3.284  1.2780  0.6523 -0.3894
 9705TIP3   OH229078   4.358   3.462   1.061  0.2224 -0.6612 -0.3493
 9705TIP3    H129079   4.303   3.524   1.015  1.9861 -0.6134 -2.5706
 9705TIP3    H229080   4.346   3.379   1.015  0.9650 -0.9761 -0.0006
 9706TIP3   OH229081   2.891   4.935   4.678 -0.1530  0.4004  0.2392
 9706TIP3    H129082   2.831   4.901   4.744 -0.3833  0.5411  0.1046
 9706TIP3    H229083   2.953   4.989   4.728 -0.4269  0.6423  0.3233
 9707TIP3   OH229084   3.845   6.516   4.595  0.0592 -0.0127  0.0352
 9707TIP3    H129085   3.821   6.537   4.685 -0.3395 -2.3989  0.5569
 9707TIP3    H229086   3.935   6.548   4.585  0.4303 -0.5201  1.5874
 9708TIP3   OH229087   1.942   3.078   0.927  0.1310  0.1910 -0.0336
 9708TIP3    H129088   1.875   3.129   0.973  1.3854  0.6821  1.2801
 9708TIP3    H229089   1.908   3.072   0.837 -2.4536 -0.9321  0.8965
 9709TIP3   OH229090   5.840   3.221   2.832  0.2386 -0.1721 -0.1531
 9709TIP3    H129091   5.917   3.256   2.788 -0.0755  2.2447  1.0435
 9709TIP3    H229092   5.767   3.248   2.776  0.1469 -1.4703 -0.6937
 9710TIP3   OH229093   4.855   3.435   5.700 -0.3652  0.0925  0.0190
 9710TIP3    H129094   4.867   3.487   5.779 -0.4229 -0.6597  0.5201
 9710TIP3    H229095   4.760   3.422   5.694 -0.1990 -3.4264  2.1885
 9711TIP3   OH229096   5.446   2.695   1.217 -0.5337  0.5073 -0.0797
 9711TIP3    H129097   5.366   2.732   1.254 -0.3080  0.0682  0.8942
 9711TIP3    H229098   5.419   2.608   1.185 -0.6856  0.8087 -0.7854
 9712TIP3   OH229099   1.085   3.327   0.256 -0.0503 -0.0735  0.4173
 9712TIP3    H129100   1.018   3.287   0.312 -0.7216  1.0963  0.4736
 9712TIP3    H229101   1.115   3.255   0.201 -1.2472 -0.6649  0.4982
 9713TIP3   OH229102   7.144   6.459   5.114  0.0501 -0.1250 -0.3429
 9713TIP3    H129103   7.112   6.375   5.081  0.6334 -1.2172  1.7407
 9713TIP3    H229104   7.238   6.457   5.097  0.1580 -0.1608  0.2546
 9714TIP3   OH229105   6.326   0.233   3.196  0.0986  0.2173 -0.0404
 9714TIP3    H129106   6.292   0.197   3.113 -2.0568 -0.4740  1.0478
 9714TIP3    H229107   6.421   0.222   3.190  0.3479  2.6173 -3.4881
 9715TIP3   OH229108   2.749   3.816   3.042  0.5107  0.6191  0.6894
 9715TIP3    H129109   2.783   3.726   3.042 -0.7958  0.0607 -1.2129
 9715TIP3    H229110   2.769   3.849   3.129  0.6644 -1.6683  1.5904
 9716TIP3   OH229111   3.939   4.400   2.203 -0.4448  0.5214 -0.4058
 9716TIP3    H129112   3.976   4.312   2.204  1.6010  1.3053 -1.4830
 9716TIP3    H229113   3.872   4.397   2.135 -0.6962 -0.2895 -0.1368
 9717TIP3   OH229114   3.771   1.936   5.758  0.2250  0.2751 -0.3789
 9717TIP3    H129115   3.845   1.895   5.713  0.5075  0.8532 -0.4524
 9717TIP3    H229116   3.705   1.867   5.764 -0.0131  0.3099 -2.1005
 9718TIP3   OH229117   1.379   4.521   3.858 -0.2415 -0.2207 -0.0367
 9718TIP3    H129118   1.447   4.463   3.892  0.7380  0.6552 -0.4271
 9718TIP3    H229119   1.419   4.608   3.859  0.0963 -0.1491 -3.8179
 9719TIP3   OH229120   3.093   4.338   2.571  0.2071 -0.2129  0.4401
 9719TIP3    H129121   3.046   4.284   2.634  0.7660 -0.0135  1.0427
 9719TIP3    H229122   3.184   4.309   2.579  0.6408  1.2568  1.2681
 9720TIP3   OH229123   5.496   1.782   2.698  0.2909 -0.1867 -0.3191
 9720TIP3    H129124   5.419   1.837   2.713  0.5710  0.3013 -0.6427
 9720TIP3    H229125   5.527   1.807   2.611 -0.2627 -1.6961 -0.9973
 9721TIP3   OH229126   6.810   4.730   4.667 -0.4170  0.4928 -0.6798
 9721TIP3    H129127   6.757   4.810   4.666 -0.0280  0.7826 -2.9516
 9721TIP3    H229128   6.880   4.747   4.604  0.7204 -0.9876  0.1124
 9722TIP3   OH229129   6.454   4.219   0.402 -0.2163  0.0113  0.3855
 9722TIP3    H129130   6.455   4.305   0.360  1.3717  0.9541  2.1763
 9722TIP3    H229131   6.365   4.210   0.437 -0.5330  0.7176 -0.2185
 9723TIP3   OH229132   3.562   3.524   3.757 -0.1846  0.0495 -0.2612
 9723TIP3    H129133   3.582   3.466   3.683 -1.2488 -1.5208  0.6287
 9723TIP3    H229134   3.467   3.530   3.758 -0.2596 -0.7180  1.4956
 9724TIP3   OH229135   5.738   6.131   1.456 -0.0967  0.6478 -0.2078
 9724TIP3    H129136   5.760   6.187   1.382  0.5721  0.0267 -0.4784
 9724TIP3    H229137   5.786   6.170   1.530  0.9039  0.0626 -0.5300
 9725TIP3   OH229138   5.629   6.319   4.283  0.2809 -0.1391 -0.0599
 9725TIP3    H129139   5.588   6.247   4.236  0.0930  0.0748 -0.2275
 9725TIP3    H229140   5.723   6.306   4.270  0.2883 -0.8307  0.6252
 9726TIP3   OH229141   1.113   6.089   3.763  0.2099 -0.4076  0.0676
 9726TIP3    H129142   1.193   6.129   3.730 -0.3415  0.4801 -0.2285
 9726TIP3    H229143   1.109   6.004   3.719  2.0732 -1.3989  1.6989
 9727TIP3   OH229144   7.010  -0.013   0.822  0.3471  0.3939  0.0142
 9727TIP3    H129145   7.056   0.070   0.809 -0.5016  0.7635 -0.7025
 9727TIP3    H229146   6.939   0.009   0.882 -0.8700  0.5576 -1.4569
 9728TIP3   OH229147   6.336   3.005   3.638 -0.1015  0.1962  0.4411
 9728TIP3    H129148   6.339   3.086   3.689 -0.3839  0.7870 -0.4798
 9728TIP3    H229149   6.426   2.991   3.609 -0.1409  0.4151  0.2202
 9729TIP3   OH229150   6.392   5.863   3.567 -0.3663 -0.0401 -0.3927
 9729TIP3    H129151   6.433   5.841   3.651  0.5217  1.5741 -0.3673
 9729TIP3    H229152   6.300   5.876   3.589 -0.4762 -1.3327 -0.0014
 9730TIP3   OH229153   6.031   2.528   4.488  0.4145  0.1866 -0.9890
 9730TIP3    H129154   5.989   2.594   4.543  0.9158 -0.1093 -0.2354
 9730TIP3    H229155   6.121   2.559   4.477  0.9345 -0.8586  0.1984
 9731TIP3   OH229156   6.752   3.219   1.126 -0.1197  0.4383  0.6771
 9731TIP3    H129157   6.805   3.142   1.145 -0.9122 -0.1335  0.6161
 9731TIP3    H229158   6.675   3.185   1.081 -0.2358  1.3253  0.1761
 9732TIP3   OH229159   2.834   2.756   3.942 -0.0314 -0.0591  0.1236
 9732TIP3    H129160   2.798   2.778   3.856 -0.1962 -0.0086  0.2047
 9732TIP3    H229161   2.907   2.817   3.954 -0.0222 -0.0518  0.0281
 9733TIP3   OH229162   1.446   1.117   3.876 -0.3921  0.2766  0.2742
 9733TIP3    H129163   1.526   1.153   3.915  0.3530 -1.1963  0.1739
 9733TIP3    H229164   1.375   1.163   3.920  0.4916  1.2968  0.6922
 9734TIP3   OH229165   1.123   4.937   3.889 -0.2139  0.4381  0.2086
 9734TIP3    H129166   1.055   4.941   3.957 -0.1769  1.3501  0.2015
 9734TIP3    H229167   1.114   4.849   3.852 -2.4140  1.0128 -0.8218
 9735TIP3   OH229168   5.199   3.807   1.798  0.4995 -0.3482 -0.5478
 9735TIP3    H129169   5.103   3.800   1.795  0.5065 -0.3271 -0.9780
 9735TIP3    H229170   5.217   3.893   1.760  0.6844 -0.3108 -0.3746
 9736TIP3   OH229171   3.948   4.135   5.652 -0.6349  0.0546  0.0683
 9736TIP3    H129172   4.007   4.162   5.722  0.8193  0.1564 -1.1434
 9736TIP3    H229173   3.884   4.079   5.695  2.0898 -2.6128  0.9981
 9737TIP3   OH229174   4.337   5.966   5.756  0.3774  0.0422 -0.2566
 9737TIP3    H129175   4.316   6.057   5.780  1.2151  0.8602 -2.3414
 9737TIP3    H229176   4.319   5.961   5.662 -1.8644 -2.6850  0.1928
 9738TIP3   OH229177   6.609   1.030   1.710 -0.0767 -0.5190  0.1740
 9738TIP3    H129178   6.678   1.096   1.714  0.7341 -1.1137 -2.5779
 9738TIP3    H229179   6.640   0.959   1.766  0.6111 -0.0011  0.4591
 9739TIP3   OH229180   3.544   2.989   4.037  1.0319  0.0878 -0.2554
 9739TIP3    H129181   3.520   3.054   4.104  0.0655  0.4277 -0.9042
 9739TIP3    H229182   3.609   3.033   3.982 -0.0718  0.7580 -1.0608
 9740TIP3   OH229183   0.828   0.380   5.742 -0.2760 -0.3930  0.2675
 9740TIP3    H129184   0.735   0.359   5.732 -0.0960 -1.1517  0.1099
 9740TIP3    H229185   0.846   0.362   5.834 -0.1180 -0.9732  0.1286
 9741TIP3   OH229186   5.857   2.722   3.926 -0.3706 -0.1087  0.3630
 9741TIP3    H129187   5.891   2.752   4.010  1.7436 -1.2796 -0.0007
 9741TIP3    H229188   5.889   2.785   3.862 -0.6656 -0.0653  0.2566
 9742TIP3   OH229189   5.137   5.808   3.251 -0.1200  0.2282 -0.3747
 9742TIP3    H129190   5.218   5.779   3.292 -0.1839 -0.5190 -0.7717
 9742TIP3    H229191   5.143   5.779   3.160  0.0486  1.9228 -0.9462
 9743TIP3   OH229192   5.602   0.993   4.370 -0.0155 -0.5262  0.2727
 9743TIP3    H129193   5.547   1.006   4.447 -1.5651  0.3682 -0.9519
 9743TIP3    H229194   5.626   0.901   4.374 -2.2070 -1.1422  0.4706
 9744TIP3   OH229195   6.740   4.342   1.667  0.1097  0.7336  0.2814
 9744TIP3    H129196   6.786   4.310   1.589  2.2170  0.8217  1.4045
 9744TIP3    H229197   6.648   4.325   1.649  0.7164 -1.3518 -1.2888
 9745TIP3   OH229198   5.689   2.977   3.917  0.2664  0.2723  0.4179
 9745TIP3    H129199   5.699   2.897   3.866  2.4168  0.0720  1.0540
 9745TIP3    H229200   5.719   3.047   3.859 -2.0430  0.7711 -0.3064
 9746TIP3   OH229201   7.186   1.885   5.519  0.3499 -0.3167  0.4972
 9746TIP3    H129202   7.125   1.815   5.496 -1.6657  1.1509  1.0553
 9746TIP3    H229203   7.130   1.961   5.537  2.4204  1.4612 -0.0616
 9747TIP3   OH229204   2.945   2.287   0.948 -0.5082  0.2162 -0.0406
 9747TIP3    H129205   2.890   2.312   1.023  1.1582  2.1941  0.6149
 9747TIP3    H229206   2.898   2.320   0.872 -0.8641  0.7527  0.3999
 9748TIP3   OH229207   3.646   6.479   3.286 -0.3417  0.5354 -0.7544
 9748TIP3    H129208   3.726   6.428   3.296  0.1235  1.4515  0.5601
 9748TIP3    H229209   3.669   6.550   3.226  0.6386  2.2096  1.4419
 9749TIP3   OH229210   2.090   1.731   4.841  0.4406 -0.0812 -0.2006
 9749TIP3    H129211   2.042   1.772   4.913  0.1137  1.4332 -1.2269
 9749TIP3    H229212   2.140   1.803   4.802  0.5442 -0.8398 -1.5196
   7.22257   6.80951   5.89720   0.00000   0.00000  -2.40753   0.00000  -2.40753  -3.40475
